FOO
141312
    1MOL0     O    1   4.709   6.163   7.376  0.7006 -0.3886  0.1892
    1MOL0     C    2   4.720   6.048   7.349  0.9626  0.7556 -0.1732
    1MOL0     O    3   4.830   5.975   7.375 -0.2450  0.1296 -0.0421
    1MOL0     C    4   4.928   6.003   7.464 -0.1436 -0.8378 -0.6438
    1MOL0     C    5   4.931   6.111   7.557  0.9425  0.7490  0.0741
    1MOL0     C    6   5.045   6.135   7.638  0.2546 -0.3682  0.6978
    1MOL0     C    7   5.164   6.058   7.619 -0.4074 -0.3723 -0.6403
    1MOL0     O    8   5.271   6.070   7.695  0.6352 -0.5099  0.1162
    1MOL0     C    9   5.279   6.168   7.796  0.2313  0.2578 -0.0198
    1MOL0     C   10   5.425   6.172   7.842 -0.1120 -0.2040  0.1081
    1MOL0     C   11   5.485   6.036   7.875 -0.7328 -0.2962 -0.3354
    1MOL0     C   12   5.601   6.056   7.976 -0.0235  0.5069  0.3176
    1MOL0     C   13   5.648   5.919   7.997 -0.4031  0.1060  0.5288
    1MOL0     C   14   5.716   5.925   8.129  0.6411  0.1461 -0.2394
    1MOL0     C   15   5.753   5.789   8.179  0.3124  0.3044 -0.3860
    1MOL0     C   16   5.633   5.716   8.243 -0.7083 -0.1169  1.0142
    1MOL0     N   17   5.664   5.640   8.364 -0.0414  0.2249 -0.0521
    1MOL0     C   18   5.760   5.674   8.457 -0.2007 -0.3063  0.4899
    1MOL0     C   19   5.757   5.576   8.543 -0.4448 -0.3554  0.3080
    1MOL0     C   20   5.848   5.563   8.661  0.0070  0.5322  0.9541
    1MOL0     C   21   5.984   5.508   8.623 -0.8455  0.0341 -0.9259
    1MOL0     C   22   6.054   5.439   8.742  0.6414  0.3280 -0.0564
    1MOL0     C   23   6.151   5.329   8.708 -0.6369 -1.0117 -0.0326
    1MOL0     O   24   6.249   5.381   8.623  0.7982 -0.8362 -0.1983
    1MOL0     C   25   6.348   5.306   8.567 -0.4012 -1.3976 -0.2411
    1MOL0     C   26   6.442   5.382   8.505  0.2122 -0.0528  0.7645
    1MOL0     C   27   6.538   5.336   8.424 -1.2439 -0.8653 -0.3119
    1MOL0     C   28   6.612   5.442   8.343 -0.3886 -0.0260  0.6341
    1MOL0     C   29   6.565   5.192   8.427  0.6598  0.7137  0.3120
    1MOL0     C   30   6.671   5.127   8.348 -0.3688 -1.2063 -0.4562
    1MOL0     O   31   6.668   4.990   8.355  0.4351  0.0315  0.2218
    1MOL0     C   32   6.730   4.905   8.269  0.2405 -0.5755 -0.4364
    1MOL0     C   33   6.765   4.776   8.312  0.4460 -0.8736 -0.3459
    1MOL0     C   34   6.841   4.686   8.226 -0.9597  0.2643 -0.1579
    1MOL0     C   35   6.881   4.730   8.101  0.6338  0.7465 -0.0820
    1MOL0     O   36   6.944   4.659   8.011  0.1014  0.6119 -0.4938
    1MOL0     C   37   7.067   4.600   8.060  0.7557 -0.8245 -0.5640
    1MOL0     C   38   7.110   4.521   7.940 -1.2172  0.0978  0.3585
    1MOL0     C   39   7.238   4.436   7.963  0.4158 -0.1333 -0.0901
    1MOL0     C   40   7.329   4.416   7.838 -1.0580 -0.2837 -0.0581
    1MOL0     C   41   7.452   4.323   7.855  0.7023 -0.0329 -0.1766
    1MOL0     C   42   7.579   4.387   7.908  0.6794 -0.5242 -0.5805
    1MOL0     C   43   7.688   4.289   7.952  0.4695  0.0628 -0.4109
    1MOL0     C   44   7.805   4.346   8.037  0.2041 -0.0767 -0.8414
    1MOL0    Cl   45   7.887   4.449   7.937 -0.3635  0.5725  0.2372
    1MOL0     C   46   6.839   4.854   8.059  0.4151  0.1432  1.2027
    1MOL0     C   47   6.760   4.943   8.140  0.7850 -0.1712 -0.6851
    1MOL0     O   48   6.756   5.198   8.288  0.0452 -0.1402 -0.4535
    1MOL0     C   49   6.469   5.112   8.503 -0.3245  0.1141 -0.4999
    1MOL0     C   50   6.367   5.172   8.570  0.9913  0.3830 -0.0567
    1MOL0     N   51   5.657   5.488   8.505  0.0159  0.5838  0.2991
    1MOL0     N   52   5.604   5.523   8.395 -0.0141  1.1255 -0.4029
    1MOL0     C   53   5.165   5.966   7.509 -0.4953 -0.0298 -0.1705
    1MOL0     C   54   5.051   5.943   7.438 -0.3339 -0.4460 -0.0388
    1MOL0     C   55   4.603   5.968   7.306  0.6964  0.5517 -0.2218
    1MOL0     C   56   4.597   5.831   7.332 -0.2049 -0.2104  0.7688
    1MOL0     C   57   4.481   5.762   7.299  0.0194 -0.4631 -0.2470
    1MOL0     C   58   4.371   5.824   7.239 -0.0647  0.2005 -0.7420
    1MOL0     O   59   4.260   5.746   7.218  0.5308  0.1049  0.2382
    1MOL0     C   60   4.262   5.627   7.138  0.0322  0.5634  0.0609
    1MOL0     C   61   4.134   5.548   7.143  0.0278  0.1083  0.1650
    1MOL0     C   62   4.116   5.511   7.287  0.1964  1.1277  0.2735
    1MOL0     C   63   3.986   5.426   7.304 -0.8239 -0.3836  0.3202
    1MOL0     C   64   3.982   5.374   7.445 -0.1666 -0.3292  0.6496
    1MOL0     C   65   3.983   5.320   7.557 -0.2520 -0.9438  0.2560
    1MOL0     C   66   4.371   5.954   7.222  1.3150  0.0737 -1.3282
    1MOL0     C   67   4.486   6.026   7.252 -0.4425 -0.6626  0.3206
    1MOL0     C   68   4.464   6.173   7.231  0.2719 -0.2125 -0.3630
    1MOL0     H   69   4.841   6.167   7.578 -0.4155 -1.7065  1.2060
    1MOL0     H   70   5.038   6.191   7.731  3.3537  0.9390  0.2718
    1MOL0     H   71   5.220   6.127   7.878  1.8379  1.0263  1.5778
    1MOL0     H   72   5.248   6.267   7.759 -1.4167 -0.7726 -1.5895
    1MOL0     H   73   5.492   6.211   7.766  0.0776 -2.8977 -1.2364
    1MOL0     H   74   5.432   6.244   7.924  1.6853  0.3541 -0.4920
    1MOL0     H   75   5.408   5.981   7.930 -0.5625 -0.6949 -0.4917
    1MOL0     H   76   5.526   5.979   7.792  0.8766 -0.3452  0.4521
    1MOL0     H   77   5.674   6.118   7.924 -0.9342  1.5384  0.2353
    1MOL0     H   78   5.548   6.106   8.057 -2.3694  1.3426 -1.5946
    1MOL0     H   79   5.710   5.871   7.920 -0.9094 -1.2578  0.9302
    1MOL0     H   80   5.564   5.849   8.002  1.3740 -2.2568 -0.3315
    1MOL0     H   81   5.807   5.985   8.118  1.4172 -1.2861 -2.1647
    1MOL0     H   82   5.653   5.978   8.202 -0.2858 -0.6718 -0.4191
    1MOL0     H   83   5.816   5.816   8.265  0.3654 -0.0711 -0.3035
    1MOL0     H   84   5.809   5.721   8.114  2.3115  1.6360 -0.1706
    1MOL0     H   85   5.546   5.781   8.254 -1.2213  0.3106 -3.6003
    1MOL0     H   86   5.601   5.638   8.173 -1.9085  1.3758 -0.1524
    1MOL0     H   87   5.816   5.766   8.473  0.2811 -0.7486  1.3585
    1MOL0     H   88   5.800   5.489   8.726  0.2821  0.8659  1.5493
    1MOL0     H   89   5.859   5.664   8.701 -0.8471  0.8510  0.4108
    1MOL0     H   90   5.988   5.436   8.541 -0.0101 -2.4795  1.1733
    1MOL0     H   91   6.044   5.597   8.598  1.1883 -1.0739 -0.2440
    1MOL0     H   92   6.101   5.513   8.806  0.7393  1.0416 -0.9427
    1MOL0     H   93   5.971   5.393   8.797 -0.6198 -0.8365 -2.7482
    1MOL0     H   94   6.194   5.298   8.805  0.5102  0.3198 -0.0868
    1MOL0     H   95   6.098   5.241   8.670 -2.0167 -0.1530 -0.1481
    1MOL0     H   96   6.432   5.490   8.515 -3.1156 -0.2915  1.0633
    1MOL0     H   97   6.556   5.535   8.334  2.7574  1.9653  0.0586
    1MOL0     H   98   6.636   5.422   8.238  2.7656  1.2578  1.0173
    1MOL0     H   99   6.703   5.462   8.400 -1.4720  1.7976  1.8064
    1MOL0     H  100   6.754   4.746   8.416  1.1246  0.5060  0.1467
    1MOL0     H  101   6.875   4.591   8.266 -0.6202  0.9769  1.3248
    1MOL0     H  102   7.144   4.673   8.088  0.6285 -1.5314  1.9080
    1MOL0     H  103   7.050   4.540   8.150  1.0266  1.1277  0.8628
    1MOL0     H  104   7.036   4.443   7.919  0.2736 -1.9632  2.3223
    1MOL0     H  105   7.119   4.569   7.842  0.6386 -2.9179 -1.0864
    1MOL0     H  106   7.211   4.334   7.991  2.4331 -1.3142 -2.1542
    1MOL0     H  107   7.301   4.485   8.038 -0.6203  0.2401  0.5567
    1MOL0     H  108   7.365   4.509   7.791  3.7865 -1.1925  1.2680
    1MOL0     H  109   7.258   4.374   7.767 -0.6097  1.2639 -1.5111
    1MOL0     H  110   7.420   4.253   7.932 -0.3503  0.1646 -0.4161
    1MOL0     H  111   7.482   4.281   7.759  1.6880 -1.2860  0.6526
    1MOL0     H  112   7.552   4.450   7.994  0.0611 -2.1024  0.4368
    1MOL0     H  113   7.618   4.450   7.828 -0.4672 -1.0380 -1.5761
    1MOL0     H  114   7.726   4.242   7.861  2.8069 -2.4227  1.6468
    1MOL0     H  115   7.649   4.211   8.019 -1.2691  0.4205 -0.9576
    1MOL0     H  116   7.869   4.264   8.073 -0.4391 -0.3617 -0.3340
    1MOL0     H  117   7.769   4.402   8.124 -0.5650 -0.8577 -0.6484
    1MOL0     H  118   6.865   4.880   7.957 -1.3755 -2.0709  0.0840
    1MOL0     H  119   6.718   5.038   8.109 -1.4974  0.1157  2.8341
    1MOL0     H  120   6.478   5.005   8.517  1.3870  0.5980  3.5366
    1MOL0     H  121   6.289   5.123   8.628  3.4953 -2.7431  0.9782
    1MOL0     H  122   5.261   5.932   7.473  0.9353  3.8226 -0.4397
    1MOL0     H  123   5.068   5.869   7.359  1.1999 -0.6244  0.4131
    1MOL0     H  124   4.688   5.785   7.368 -1.4045 -3.7337 -0.2729
    1MOL0     H  125   4.484   5.660   7.336 -0.1161  0.4744  2.6488
    1MOL0     H  126   4.296   5.647   7.036  3.6821 -1.4014  0.7046
    1MOL0     H  127   4.339   5.564   7.185 -1.4093  0.0071  1.7522
    1MOL0     H  128   4.160   5.461   7.081 -1.8881  0.9867 -2.0183
    1MOL0     H  129   4.051   5.590   7.085  0.9873 -0.0932 -1.4136
    1MOL0     H  130   4.199   5.446   7.317 -0.5325 -0.0627 -0.2218
    1MOL0     H  131   4.123   5.603   7.345 -0.7301  3.3851 -2.9468
    1MOL0     H  132   3.989   5.341   7.235 -1.1720  0.7101 -1.0856
    1MOL0     H  133   3.897   5.488   7.288  0.5131  1.0520 -2.1404
    1MOL0     H  134   3.984   5.278   7.656  0.4084 -0.0832  0.6282
    1MOL0     H  135   4.277   5.993   7.184  0.1327 -0.2888  1.0451
    1MOL0     H  136   4.488   6.234   7.318  0.3656  1.6377 -1.6216
    1MOL0     H  137   4.527   6.202   7.146  0.7413 -2.2522 -0.7697
    1MOL0     H  138   4.358   6.194   7.211  0.1383  0.9539  1.3806
    2MOL0     O  139   0.308   6.780   4.727  0.3340  0.1527  0.3304
    2MOL0     C  140   0.367   6.867   4.657 -0.0227 -1.1357  0.1729
    2MOL0     O  141   0.478   6.936   4.691 -0.3346  0.1448 -0.6614
    2MOL0     C  142   0.545   6.886   4.799 -0.2710  0.4749 -0.2069
    2MOL0     C  143   0.602   6.758   4.798 -0.4660 -0.0756  0.0122
    2MOL0     C  144   0.652   6.708   4.920  0.0624  0.1756 -0.6635
    2MOL0     C  145   0.674   6.797   5.028 -0.7498  0.3862  0.4864
    2MOL0     O  146   0.751   6.750   5.134  0.2736  0.7705  0.2552
    2MOL0     C  147   0.855   6.829   5.183  0.2588 -0.2715 -0.0499
    2MOL0     C  148   0.958   6.760   5.249 -0.5668 -0.5797  0.3046
    2MOL0     C  149   1.017   6.649   5.162  0.2715 -0.4100 -0.0629
    2MOL0     C  150   1.112   6.566   5.242 -0.2857 -0.6787  0.1817
    2MOL0     C  151   1.193   6.478   5.147 -0.7243 -1.1851  0.9016
    2MOL0     C  152   1.273   6.369   5.223 -0.2177 -0.3991  0.2751
    2MOL0     C  153   1.312   6.246   5.143 -0.1378  0.9007  0.1702
    2MOL0     C  154   1.462   6.219   5.158  1.1154  0.0570 -0.2187
    2MOL0     N  155   1.540   6.307   5.069 -0.2644 -0.1043  0.3662
    2MOL0     C  156   1.535   6.306   4.932  0.2648 -0.6250 -0.8608
    2MOL0     C  157   1.650   6.373   4.896  0.1462  0.5228 -0.4382
    2MOL0     C  158   1.697   6.371   4.755  0.3027 -0.4946  0.5847
    2MOL0     C  159   1.828   6.300   4.729  0.7252 -0.3874 -0.6000
    2MOL0     C  160   1.855   6.323   4.576 -0.3310  0.1759 -0.6525
    2MOL0     C  161   1.999   6.265   4.537  0.5897 -0.8458 -0.6712
    2MOL0     O  162   2.035   6.344   4.428 -0.5057  0.3996  0.2049
    2MOL0     C  163   2.156   6.323   4.371 -0.0731  0.1589 -0.2728
    2MOL0     C  164   2.204   6.196   4.348  0.7308 -0.6173 -0.2939
    2MOL0     C  165   2.316   6.163   4.280  0.4534 -0.1600 -0.0085
    2MOL0     C  166   2.344   6.024   4.252 -0.0691  0.3514 -0.5332
    2MOL0     C  167   2.395   6.267   4.234  0.8686 -0.2583 -0.1364
    2MOL0     C  168   2.531   6.257   4.162 -0.3565 -0.0957 -0.2242
    2MOL0     O  169   2.594   6.377   4.136  0.2368 -0.6906 -0.7647
    2MOL0     C  170   2.713   6.392   4.074  0.5692 -0.4707 -0.5523
    2MOL0     C  171   2.818   6.445   4.156  0.2189  0.0936  0.5379
    2MOL0     C  172   2.947   6.428   4.114 -0.5023 -0.5209 -0.1433
    2MOL0     C  173   2.974   6.368   3.989 -0.2500  1.0577 -0.4274
    2MOL0     O  174   3.099   6.336   3.939 -0.5267 -0.0355 -0.0678
    2MOL0     C  175   3.214   6.385   4.011  0.3265 -0.1145 -0.2126
    2MOL0     C  176   3.322   6.348   3.926 -0.1646  0.0139 -0.4770
    2MOL0     C  177   3.344   6.190   3.922  0.2444 -0.1456 -0.3601
    2MOL0     C  178   3.487   6.163   3.884  0.3336 -0.9325  0.4846
    2MOL0     C  179   3.524   6.015   3.932 -0.2898 -0.6527 -0.0563
    2MOL0     C  180   3.665   5.964   3.884  0.2626  0.4482 -0.3286
    2MOL0     C  181   3.665   5.941   3.736 -0.0405 -0.3693 -0.2579
    2MOL0     C  182   3.804   5.907   3.673  0.3156 -0.6895 -0.8947
    2MOL0    Cl  183   3.800   5.883   3.495  0.2292 -0.3404  0.2143
    2MOL0     C  184   2.873   6.334   3.906  0.2945 -0.6184 -0.3581
    2MOL0     C  185   2.738   6.336   3.951 -0.1006 -0.3777  1.0722
    2MOL0     O  186   2.567   6.144   4.125 -0.8179 -0.1697 -0.5736
    2MOL0     C  187   2.353   6.403   4.263  0.1689 -0.4731 -0.0323
    2MOL0     C  188   2.243   6.425   4.342  0.5765 -0.8262 -0.3761
    2MOL0     N  189   1.722   6.415   5.010  0.3630  0.6185  0.0069
    2MOL0     N  190   1.656   6.371   5.108  0.7771 -0.1421  0.3079
    2MOL0     C  191   0.609   6.917   5.035 -0.9519  0.0530 -0.2401
    2MOL0     C  192   0.550   6.962   4.915 -0.2549 -0.0100 -0.6634
    2MOL0     C  193   0.304   6.922   4.535 -0.1537 -0.1949  0.0978
    2MOL0     C  194   0.350   7.043   4.482 -0.0813 -0.8210  1.5897
    2MOL0     C  195   0.289   7.108   4.373  0.0109  0.0786 -0.8129
    2MOL0     C  196   0.173   7.050   4.311 -0.9800 -0.4186  0.5887
    2MOL0     O  197   0.101   7.117   4.210 -0.1819  0.9565 -0.5198
    2MOL0     C  198   0.143   7.239   4.161 -0.1504 -0.1097  0.1283
    2MOL0     C  199   0.048   7.286   4.052 -0.3930  0.5266  0.2822
    2MOL0     C  200   0.055   7.197   3.932 -0.4137 -0.0225  1.1856
    2MOL0     C  201   0.028   7.261   3.795 -0.3543  0.9471  0.6636
    2MOL0     C  202  -0.104   7.321   3.779 -0.3829 -0.2555  0.3068
    2MOL0     C  203  -0.196   7.397   3.789  0.6733 -0.1900  0.3691
    2MOL0     C  204   0.134   6.924   4.360 -0.1530 -0.3691  0.2074
    2MOL0     C  205   0.194   6.864   4.469  0.2418  0.6465 -0.2069
    2MOL0     C  206   0.137   6.733   4.507 -0.5933 -0.6911 -0.1402
    2MOL0     H  207   0.599   6.680   4.722  0.6583  0.9221 -1.1117
    2MOL0     H  208   0.677   6.603   4.931 -0.1671  0.1187 -0.6927
    2MOL0     H  209   0.821   6.908   5.251  1.1376 -2.0287  2.5585
    2MOL0     H  210   0.899   6.884   5.099 -1.2435 -1.9471 -2.0285
    2MOL0     H  211   1.031   6.834   5.283 -0.0316 -1.5314  1.2787
    2MOL0     H  212   0.908   6.714   5.334  0.9106  0.8566  2.0259
    2MOL0     H  213   0.931   6.599   5.117 -0.5554  1.9218 -1.2836
    2MOL0     H  214   1.060   6.696   5.073  2.4601 -2.3905 -0.1454
    2MOL0     H  215   1.173   6.629   5.307 -3.3815  1.7706  0.9730
    2MOL0     H  216   1.055   6.496   5.303  0.1767  0.2403  1.7138
    2MOL0     H  217   1.255   6.535   5.077  0.2127 -0.2285  2.4518
    2MOL0     H  218   1.122   6.422   5.086 -1.1715  0.1726  0.1364
    2MOL0     H  219   1.368   6.413   5.253  0.6143 -2.5555  0.9569
    2MOL0     H  220   1.215   6.335   5.309 -0.3536  2.3001  1.3268
    2MOL0     H  221   1.280   6.261   5.039 -2.2629  1.4524  0.8343
    2MOL0     H  222   1.251   6.160   5.172 -2.5642  1.1364 -3.4221
    2MOL0     H  223   1.487   6.247   5.261 -0.4600  2.0500 -0.3122
    2MOL0     H  224   1.480   6.113   5.135  0.9429  0.5448 -2.9166
    2MOL0     H  225   1.480   6.238   4.867  2.1275  0.4901 -3.8120
    2MOL0     H  226   1.710   6.476   4.727  2.5629 -1.1144 -0.9063
    2MOL0     H  227   1.630   6.316   4.689 -1.0991 -1.0482  2.3728
    2MOL0     H  228   1.910   6.354   4.778 -0.0580  3.1882 -2.8440
    2MOL0     H  229   1.840   6.195   4.756  3.2014  0.3940  1.8085
    2MOL0     H  230   1.780   6.289   4.504  1.0892 -1.1774 -1.5906
    2MOL0     H  231   1.867   6.430   4.560  2.0350  0.1253  0.3774
    2MOL0     H  232   2.063   6.278   4.624  2.2043 -2.3091 -1.5894
    2MOL0     H  233   1.990   6.162   4.501  1.8121 -0.8106 -1.1007
    2MOL0     H  234   2.132   6.120   4.377 -0.9625  1.9403  2.8900
    2MOL0     H  235   2.299   5.951   4.321  1.0220  0.7896  0.6767
    2MOL0     H  236   2.444   6.005   4.292 -0.2691  0.0242 -0.1805
    2MOL0     H  237   2.322   5.998   4.148  3.2363  0.6687 -1.3957
    2MOL0     H  238   2.787   6.475   4.255 -0.9795 -1.7461  0.7757
    2MOL0     H  239   3.031   6.455   4.178  0.7403 -1.2510 -1.4206
    2MOL0     H  240   3.209   6.493   4.022  0.1019 -0.2810  1.5858
    2MOL0     H  241   3.232   6.343   4.110  2.2223 -0.1835 -0.5565
    2MOL0     H  242   3.312   6.387   3.824  0.9169  0.2072 -0.5157
    2MOL0     H  243   3.412   6.403   3.954 -0.9592  1.0385  0.1410
    2MOL0     H  244   3.274   6.151   3.848 -0.8513  2.6497 -0.9281
    2MOL0     H  245   3.312   6.144   4.016  1.1667 -0.2642 -0.0867
    2MOL0     H  246   3.557   6.224   3.942 -1.2880 -0.8119  2.4251
    2MOL0     H  247   3.492   6.166   3.775  3.0153 -1.0822  0.5264
    2MOL0     H  248   3.530   6.016   4.041  1.6919  1.5432 -0.1130
    2MOL0     H  249   3.457   5.936   3.896  1.1736 -1.3739 -1.2922
    2MOL0     H  250   3.700   5.873   3.933 -1.0492 -1.6949 -3.0626
    2MOL0     H  251   3.739   6.043   3.892 -0.2576  1.0686 -1.3763
    2MOL0     H  252   3.625   6.027   3.683 -0.9479  0.5155  1.7681
    2MOL0     H  253   3.602   5.851   3.729 -0.4214 -0.7433  4.6008
    2MOL0     H  254   3.840   5.812   3.714  1.9162 -1.3040 -3.4482
    2MOL0     H  255   3.869   5.993   3.691 -0.1004 -0.3808 -0.8675
    2MOL0     H  256   2.909   6.288   3.815 -0.1066 -0.7860 -0.4360
    2MOL0     H  257   2.665   6.287   3.888  3.5110 -1.0261 -3.0805
    2MOL0     H  258   2.413   6.489   4.233  2.9311 -1.7392  1.4407
    2MOL0     H  259   2.215   6.526   4.370  0.8174 -1.5216  2.6901
    2MOL0     H  260   0.621   6.982   5.121  1.1585 -1.2711  0.5506
    2MOL0     H  261   0.500   7.057   4.900  3.6784  2.4886  0.5649
    2MOL0     H  262   0.435   7.101   4.517 -1.2392 -0.0194  3.1906
    2MOL0     H  263   0.332   7.204   4.348  1.4816 -0.2391  0.3758
    2MOL0     H  264   0.143   7.314   4.241  0.6853  1.4473 -1.2701
    2MOL0     H  265   0.242   7.241   4.114 -0.3619 -2.5486 -0.5280
    2MOL0     H  266   0.066   7.387   4.014 -1.7556  0.6731 -0.0196
    2MOL0     H  267  -0.054   7.283   4.090  0.2215 -2.8619  2.0368
    2MOL0     H  268   0.160   7.165   3.928 -0.4009  0.1318 -1.4418
    2MOL0     H  269  -0.014   7.113   3.946  0.1815 -1.0437 -1.5418
    2MOL0     H  270   0.034   7.182   3.720 -2.1226 -0.6113  2.0428
    2MOL0     H  271   0.112   7.324   3.764  0.8084 -1.8833 -2.5735
    2MOL0     H  272  -0.266   7.476   3.805  0.4023 -0.3326 -0.0987
    2MOL0     H  273   0.053   6.881   4.302 -0.0869  0.7986 -0.8035
    2MOL0     H  274   0.207   6.659   4.467 -2.0704 -0.8601 -2.5637
    2MOL0     H  275   0.113   6.731   4.613 -1.2375  2.4830 -0.1280
    2MOL0     H  276   0.049   6.712   4.446 -3.3217  1.6754  2.6357
    3MOL0     O  277   2.309   2.870   5.539 -0.5762 -0.1261 -0.5693
    3MOL0     C  278   2.276   2.985   5.522  0.2371  0.5132 -0.5660
    3MOL0     O  279   2.323   3.061   5.428 -0.1424  0.4465 -0.0475
    3MOL0     C  280   2.414   3.014   5.337 -0.9089  0.5749  0.1470
    3MOL0     C  281   2.393   2.895   5.255 -0.1948 -0.0604 -0.3018
    3MOL0     C  282   2.490   2.865   5.154  0.7663 -0.2758 -0.0693
    3MOL0     C  283   2.604   2.942   5.136  0.1728 -0.1656  1.0912
    3MOL0     O  284   2.701   2.909   5.049 -0.8211 -0.6933  0.1011
    3MOL0     C  285   2.676   2.804   4.944 -0.0207  0.3498 -0.5720
    3MOL0     C  286   2.748   2.821   4.818 -0.1149  0.7817  0.1817
    3MOL0     C  287   2.893   2.758   4.827  0.5990 -0.2576 -0.4963
    3MOL0     C  288   2.966   2.798   4.700 -0.7359  0.3342 -0.5815
    3MOL0     C  289   3.122   2.781   4.727  0.4155  0.1762 -0.5005
    3MOL0     C  290   3.207   2.801   4.607 -1.3613  0.1074 -0.0654
    3MOL0     C  291   3.356   2.756   4.600 -0.2564 -0.6112 -0.0996
    3MOL0     C  292   3.449   2.799   4.714 -0.3662  0.0363  0.4274
    3MOL0     N  293   3.593   2.766   4.702  0.6716  0.1489 -0.8096
    3MOL0     C  294   3.690   2.824   4.625  0.5262  0.4963 -0.0716
    3MOL0     C  295   3.811   2.768   4.664 -0.1607  0.4844 -0.0991
    3MOL0     C  296   3.948   2.805   4.608 -0.7156 -0.3473 -0.6846
    3MOL0     C  297   3.956   2.795   4.458  0.0152 -0.2565 -0.1388
    3MOL0     C  298   4.094   2.820   4.404 -0.7821 -0.0985 -0.3322
    3MOL0     C  299   4.104   2.815   4.248 -0.4357 -0.1767 -0.9883
    3MOL0     O  300   4.229   2.889   4.215 -0.4154 -0.4520  0.1386
    3MOL0     C  301   4.350   2.836   4.252  0.5948  0.4554 -0.3294
    3MOL0     C  302   4.453   2.931   4.270  0.5148 -0.1083  0.4330
    3MOL0     C  303   4.581   2.892   4.317 -0.0249 -0.4090 -0.1416
    3MOL0     C  304   4.689   2.999   4.316  0.4602  0.2315  0.0241
    3MOL0     C  305   4.609   2.758   4.346 -0.1447  0.2000 -0.3819
    3MOL0     C  306   4.734   2.695   4.378 -0.1571  0.0750 -0.1726
    3MOL0     O  307   4.735   2.619   4.490  0.6945  0.0054 -0.2720
    3MOL0     C  308   4.853   2.576   4.541 -0.3914  0.0976 -0.2939
    3MOL0     C  309   4.875   2.433   4.551  0.9375 -0.8376  0.2896
    3MOL0     C  310   5.001   2.381   4.612  0.7301 -0.1011  0.9242
    3MOL0     C  311   5.094   2.467   4.655  0.2818 -0.2712 -0.1396
    3MOL0     O  312   5.208   2.429   4.716 -0.6931 -0.2934  0.0625
    3MOL0     C  313   5.219   2.306   4.784 -0.3093 -0.6798  0.4202
    3MOL0     C  314   5.352   2.320   4.875  0.7688  0.3124 -0.2722
    3MOL0     C  315   5.476   2.278   4.796  0.1569  0.3401  0.5899
    3MOL0     C  316   5.593   2.259   4.886  0.0067  0.7453 -1.3652
    3MOL0     C  317   5.695   2.164   4.818  0.0530 -0.4837 -0.0937
    3MOL0     C  318   5.821   2.153   4.902  0.4437  0.2392 -0.8245
    3MOL0     C  319   5.934   2.106   4.823 -0.9783 -0.2125  0.9039
    3MOL0     C  320   6.069   2.127   4.892  0.2189  0.6331 -0.4745
    3MOL0    Cl  321   6.192   2.008   4.833  0.4922 -0.1174 -0.2173
    3MOL0     C  322   5.075   2.609   4.653  0.1886  0.7260 -0.5567
    3MOL0     C  323   4.960   2.657   4.593  0.2861  0.2128 -0.4220
    3MOL0     O  324   4.837   2.717   4.314  0.0954 -0.1542  0.0233
    3MOL0     C  325   4.502   2.666   4.341 -0.0117 -0.0226 -0.1438
    3MOL0     C  326   4.376   2.705   4.294 -0.7353 -0.3880 -0.1114
    3MOL0     N  327   3.788   2.680   4.771  0.4340  0.2343 -0.2988
    3MOL0     N  328   3.657   2.676   4.793  0.5455 -0.5927  0.3650
    3MOL0     C  329   2.629   3.048   5.222 -0.6395 -0.1395  0.1782
    3MOL0     C  330   2.537   3.085   5.315  0.2165  0.5689 -0.0846
    3MOL0     C  331   2.161   3.027   5.598  0.5202 -0.4611  0.2925
    3MOL0     C  332   2.085   2.935   5.674 -0.7092 -0.9126 -0.0892
    3MOL0     C  333   1.976   2.975   5.751  0.2211  0.1114 -0.3085
    3MOL0     C  334   1.928   3.109   5.749 -0.9176 -0.5190  0.3436
    3MOL0     O  335   1.814   3.152   5.810  0.4074 -0.2577 -0.1235
    3MOL0     C  336   1.713   3.063   5.864  0.4684  0.3940  0.9050
    3MOL0     C  337   1.634   2.972   5.765  0.1379  0.4062 -0.4321
    3MOL0     C  338   1.529   2.890   5.840 -0.2948 -0.0911  0.3378
    3MOL0     C  339   1.459   2.782   5.761  0.1272 -1.3479 -0.4863
    3MOL0     C  340   1.339   2.731   5.820 -0.3639  1.2161 -0.5977
    3MOL0     C  341   1.236   2.688   5.869  0.3743  0.4883 -0.3030
    3MOL0     C  342   2.006   3.203   5.681 -0.3080  0.2697  0.0813
    3MOL0     C  343   2.117   3.167   5.605 -0.5840  0.2489 -0.3478
    3MOL0     C  344   2.192   3.288   5.550  0.1219 -0.2767  0.1638
    3MOL0     H  345   2.302   2.836   5.247 -0.6200  0.6719 -1.0519
    3MOL0     H  346   2.464   2.782   5.089 -1.2744  0.7455 -0.6754
    3MOL0     H  347   2.570   2.808   4.920  0.0693  0.0524 -1.0396
    3MOL0     H  348   2.698   2.707   4.990  1.3956  0.8193 -0.1867
    3MOL0     H  349   2.694   2.774   4.735 -0.7289  2.3635 -0.3532
    3MOL0     H  350   2.750   2.928   4.797 -0.3267  0.7841  0.1670
    3MOL0     H  351   2.950   2.792   4.913  0.5363  0.8213 -0.8694
    3MOL0     H  352   2.874   2.650   4.830 -3.2188  0.2272 -1.3556
    3MOL0     H  353   2.934   2.735   4.616  2.0629  1.1533 -2.4158
    3MOL0     H  354   2.947   2.903   4.672 -0.4967  0.4511 -0.3012
    3MOL0     H  355   3.134   2.680   4.768  1.1453 -0.4129 -2.0797
    3MOL0     H  356   3.144   2.861   4.799  0.1767  0.4687 -0.7551
    3MOL0     H  357   3.162   2.751   4.520  0.9916 -2.8312  0.2193
    3MOL0     H  358   3.222   2.907   4.587 -0.0001  0.1418  1.0168
    3MOL0     H  359   3.397   2.788   4.503 -0.2703 -2.3115 -0.6995
    3MOL0     H  360   3.361   2.647   4.598  0.0356 -0.6048 -2.4090
    3MOL0     H  361   3.439   2.905   4.741 -3.1055  0.4347 -1.6824
    3MOL0     H  362   3.415   2.744   4.802 -3.7267  1.4227  0.1455
    3MOL0     H  363   3.679   2.882   4.534  1.8920 -1.5830 -1.6653
    3MOL0     H  364   4.032   2.739   4.633 -2.5593 -3.6031 -2.3981
    3MOL0     H  365   3.965   2.907   4.644 -2.5181  0.6416 -2.4485
    3MOL0     H  366   3.938   2.690   4.433  0.5142 -0.2175 -0.6724
    3MOL0     H  367   3.890   2.866   4.408  0.6351 -0.3265 -1.0674
    3MOL0     H  368   4.128   2.919   4.437  0.1676 -0.9875  1.5293
    3MOL0     H  369   4.153   2.734   4.437 -3.7181 -0.9366  3.4537
    3MOL0     H  370   4.093   2.712   4.214 -1.6410 -0.5666  0.4397
    3MOL0     H  371   4.027   2.882   4.210  1.4151  2.9518  0.3435
    3MOL0     H  372   4.426   3.035   4.254 -1.3840 -0.5827  0.2700
    3MOL0     H  373   4.700   3.024   4.210 -1.8012 -3.1796 -1.1769
    3MOL0     H  374   4.789   2.965   4.346  0.4479 -0.7386 -0.9427
    3MOL0     H  375   4.659   3.089   4.371 -1.9656 -0.8999  0.6961
    3MOL0     H  376   4.800   2.361   4.523 -1.0364  1.6542 -1.3012
    3MOL0     H  377   5.014   2.273   4.618  0.1341 -0.1182  2.4515
    3MOL0     H  378   5.139   2.280   4.854 -0.7027 -4.0054 -1.0599
    3MOL0     H  379   5.228   2.226   4.709 -0.1237  0.3039 -0.6359
    3MOL0     H  380   5.353   2.421   4.916 -0.7503  0.2235  0.0348
    3MOL0     H  381   5.341   2.249   4.958  1.6877 -0.5245 -0.8433
    3MOL0     H  382   5.494   2.348   4.713 -2.7873  2.1678  1.3129
    3MOL0     H  383   5.448   2.182   4.752 -2.2906  1.6330 -0.9263
    3MOL0     H  384   5.559   2.217   4.981  0.7210  1.1163 -0.9344
    3MOL0     H  385   5.650   2.351   4.902  0.8035  0.8947 -4.4245
    3MOL0     H  386   5.641   2.069   4.823 -0.7436  0.0161  2.8314
    3MOL0     H  387   5.699   2.210   4.719 -1.5115  1.8285  0.8160
    3MOL0     H  388   5.802   2.077   4.978 -0.0857  0.8550 -0.3351
    3MOL0     H  389   5.857   2.238   4.962  2.1096 -0.3021 -1.0147
    3MOL0     H  390   5.926   2.144   4.721  0.1217 -2.7026 -0.1986
    3MOL0     H  391   5.924   1.999   4.801 -2.5503  0.2466 -0.9234
    3MOL0     H  392   6.063   2.124   5.001  2.1727  0.1594 -0.3314
    3MOL0     H  393   6.114   2.221   4.858 -0.1341  0.9956  0.0532
    3MOL0     H  394   5.153   2.674   4.692  0.7159 -1.4335  2.4485
    3MOL0     H  395   4.952   2.765   4.585  1.2428  0.3376  0.1011
    3MOL0     H  396   4.537   2.568   4.373  2.0729  0.6405 -0.2854
    3MOL0     H  397   4.300   2.629   4.286 -0.1885 -1.0439  0.7603
    3MOL0     H  398   2.720   3.107   5.218  1.5109 -3.0749  1.1537
    3MOL0     H  399   2.562   3.173   5.374 -1.0375  0.2389  1.0006
    3MOL0     H  400   2.112   2.830   5.667 -0.1667 -0.6938 -1.6372
    3MOL0     H  401   1.924   2.894   5.801 -1.0927  1.6771  0.9777
    3MOL0     H  402   1.776   3.007   5.933  0.3341  0.4550  1.0790
    3MOL0     H  403   1.640   3.115   5.927 -0.7552 -2.3037  1.8648
    3MOL0     H  404   1.698   2.900   5.713 -0.2837 -0.2537 -0.0486
    3MOL0     H  405   1.589   3.032   5.685 -1.1206  0.1466  0.0608
    3MOL0     H  406   1.560   2.844   5.934  2.8495  3.1579  1.1311
    3MOL0     H  407   1.451   2.962   5.865 -1.8082 -2.0782  1.6833
    3MOL0     H  408   1.528   2.697   5.752  1.0581 -0.7269  0.5453
    3MOL0     H  409   1.443   2.812   5.657  0.6039 -2.8144 -1.0153
    3MOL0     H  410   1.142   2.645   5.897  1.2156 -1.5358 -0.4467
    3MOL0     H  411   1.962   3.300   5.662  0.8418  1.6480  3.5665
    3MOL0     H  412   2.161   3.292   5.445 -0.3622 -1.4506  0.2460
    3MOL0     H  413   2.175   3.377   5.612  1.3687  0.0538  0.0704
    3MOL0     H  414   2.299   3.263   5.555 -0.2020 -1.8802 -0.5344
    4MOL0     O  415   3.706   4.599   2.134 -0.2461  0.5005  0.3812
    4MOL0     C  416   3.740   4.630   2.248  0.1673 -0.6505 -1.2673
    4MOL0     O  417   3.861   4.622   2.302  0.3002 -1.0207  0.5850
    4MOL0     C  418   3.970   4.606   2.216  0.4333 -0.6594  0.7077
    4MOL0     C  419   3.983   4.487   2.157  0.2122 -0.9422  0.3789
    4MOL0     C  420   4.091   4.467   2.074  0.7061  0.0166  0.4377
    4MOL0     C  421   4.182   4.573   2.052  0.6302  0.2791  0.1000
    4MOL0     O  422   4.293   4.554   1.971  0.2568 -0.1893 -1.1805
    4MOL0     C  423   4.344   4.411   1.958  0.0308  0.8517 -0.6696
    4MOL0     C  424   4.504   4.406   1.965  0.1520 -0.4499 -0.2502
    4MOL0     C  425   4.545   4.258   1.992 -0.4720 -0.4230 -1.1040
    4MOL0     C  426   4.681   4.225   1.939 -0.4742 -0.1753  0.0605
    4MOL0     C  427   4.711   4.077   1.948 -0.5162  1.0911 -0.1415
    4MOL0     C  428   4.856   4.039   1.937 -0.2364  0.0575  0.4041
    4MOL0     C  429   4.883   4.038   1.780 -0.6659  0.0030  0.7476
    4MOL0     C  430   5.022   3.973   1.751  1.5956  0.4855  0.2075
    4MOL0     N  431   5.143   4.038   1.806  0.3296  0.1118  0.4464
    4MOL0     C  432   5.184   4.166   1.801  0.0631 -0.8495 -1.2470
    4MOL0     C  433   5.293   4.174   1.877 -0.1504  0.9592 -0.0615
    4MOL0     C  434   5.366   4.298   1.912  0.7320 -0.0445  0.6803
    4MOL0     C  435   5.453   4.341   1.791  0.4749  0.1355  0.3069
    4MOL0     C  436   5.385   4.444   1.700 -0.7126 -0.1382 -0.0243
    4MOL0     C  437   5.485   4.486   1.592  0.9447  0.4549  0.2732
    4MOL0     O  438   5.605   4.553   1.640 -0.4880  0.4447 -0.1737
    4MOL0     C  439   5.694   4.610   1.558  0.0856  0.3373  0.6043
    4MOL0     C  440   5.750   4.533   1.461  0.3172 -0.0830  1.4740
    4MOL0     C  441   5.839   4.592   1.376 -0.2951 -0.3657 -0.4521
    4MOL0     C  442   5.919   4.508   1.279  0.3100 -0.5858 -0.0841
    4MOL0     C  443   5.873   4.730   1.390  0.4494 -0.6407 -0.5312
    4MOL0     C  444   5.995   4.802   1.332 -0.1879 -0.6009 -0.2219
    4MOL0     O  445   6.051   4.911   1.402  0.1149 -0.4885 -0.4926
    4MOL0     C  446   6.163   4.959   1.342  0.6444 -0.5527 -0.6440
    4MOL0     C  447   6.163   5.095   1.311 -1.0821 -0.2026 -0.3639
    4MOL0     C  448   6.273   5.159   1.261  0.3154 -0.1960 -0.2204
    4MOL0     C  449   6.392   5.083   1.249  0.0752 -0.3052  0.2812
    4MOL0     O  450   6.501   5.142   1.190 -0.0592  0.3661 -0.4785
    4MOL0     C  451   6.547   5.068   1.079  0.2898 -0.1153  0.5376
    4MOL0     C  452   6.643   5.147   0.991 -0.3059 -0.0098  0.1801
    4MOL0     C  453   6.770   5.186   1.059 -0.3899  0.8257 -1.1558
    4MOL0     C  454   6.857   5.306   0.995 -0.3588 -0.1422  0.8215
    4MOL0     C  455   6.971   5.362   1.088  0.5114 -0.0558  1.1283
    4MOL0     C  456   7.102   5.285   1.067 -0.3890  0.6860  0.7200
    4MOL0     C  457   7.112   5.156   1.164  1.0741 -0.2225 -0.5210
    4MOL0     C  458   7.211   5.052   1.108 -0.6976 -0.3290  0.3171
    4MOL0    Cl  459   7.239   4.906   1.202 -0.1875  0.1308 -0.4591
    4MOL0     C  460   6.388   4.949   1.283  0.6909 -0.0566 -0.1707
    4MOL0     C  461   6.274   4.883   1.330 -0.1342 -0.7711 -0.2183
    4MOL0     O  462   6.027   4.760   1.224  0.1685  0.2630  0.4412
    4MOL0     C  463   5.809   4.802   1.488 -0.6595 -0.8962  0.1783
    4MOL0     C  464   5.726   4.745   1.580  0.3346  0.2647 -0.7583
    4MOL0     N  465   5.331   4.052   1.928 -0.0810 -0.0254 -0.0640
    4MOL0     N  466   5.240   3.973   1.878 -0.4376 -0.2398 -0.2257
    4MOL0     C  467   4.161   4.694   2.111  0.2009 -0.2575 -0.1757
    4MOL0     C  468   4.061   4.709   2.200  0.2123  0.8153  0.2604
    4MOL0     C  469   3.630   4.671   2.349  0.1290 -0.4192  0.5304
    4MOL0     C  470   3.495   4.662   2.310 -0.5102 -0.4912 -0.4337
    4MOL0     C  471   3.389   4.715   2.388  1.0256 -0.5870 -1.0596
    4MOL0     C  472   3.414   4.746   2.518 -1.0497  0.7823 -0.4441
    4MOL0     O  473   3.305   4.781   2.585  0.0250  0.5359 -0.5574
    4MOL0     C  474   3.317   4.803   2.728 -0.0846  0.1127  0.0926
    4MOL0     C  475   3.184   4.867   2.776 -0.0410 -0.1178  0.5473
    4MOL0     C  476   3.060   4.764   2.760  0.0209 -0.2408  0.4467
    4MOL0     C  477   2.930   4.814   2.828 -0.4314  0.0477  0.1181
    4MOL0     C  478   2.873   4.932   2.759  0.2212  0.0995 -0.3148
    4MOL0     C  479   2.827   5.015   2.684  0.0929 -0.1610  0.0703
    4MOL0     C  480   3.548   4.764   2.559 -0.0100 -0.5864 -0.0487
    4MOL0     C  481   3.657   4.732   2.476 -0.2466  0.7816 -0.2896
    4MOL0     C  482   3.787   4.766   2.541  0.0783  0.4021 -0.3345
    4MOL0     H  483   3.905   4.412   2.162  1.7014 -2.6572 -0.4810
    4MOL0     H  484   4.093   4.382   2.007  0.2129  0.7724 -0.5617
    4MOL0     H  485   4.318   4.374   1.859 -3.9693  0.9972  0.1859
    4MOL0     H  486   4.306   4.346   2.037 -1.8618  1.6763 -0.8442
    4MOL0     H  487   4.540   4.447   1.870  2.7802 -0.8962  0.4952
    4MOL0     H  488   4.537   4.469   2.048  1.1737  0.1136 -1.0542
    4MOL0     H  489   4.547   4.243   2.101 -0.2845  3.3398 -0.4221
    4MOL0     H  490   4.471   4.190   1.950 -0.8403  0.4714 -1.9404
    4MOL0     H  491   4.687   4.258   1.834  0.9865  0.1145  0.2155
    4MOL0     H  492   4.756   4.281   1.996 -0.9464  0.3994  0.1317
    4MOL0     H  493   4.639   4.018   1.891 -1.1883 -0.3456  2.0696
    4MOL0     H  494   4.689   4.053   2.052  2.8354  1.7637  0.8394
    4MOL0     H  495   4.929   4.108   1.980  1.2663 -1.3744  0.2725
    4MOL0     H  496   4.873   3.940   1.981  0.2157 -1.7235 -3.3406
    4MOL0     H  497   4.892   4.144   1.756 -2.9458 -0.1971 -1.5542
    4MOL0     H  498   4.813   3.984   1.715  0.5761  1.8097 -2.3517
    4MOL0     H  499   5.029   3.868   1.780  0.5484  0.4952  0.5269
    4MOL0     H  500   5.037   3.970   1.642 -0.2904  0.5779 -0.0767
    4MOL0     H  501   5.133   4.247   1.751  1.4651  2.1145  1.7598
    4MOL0     H  502   5.425   4.277   2.001  0.6856  1.5109  1.1052
    4MOL0     H  503   5.288   4.371   1.935  0.4726  0.4928 -1.6001
    4MOL0     H  504   5.548   4.377   1.832  0.5889  1.3735 -0.9690
    4MOL0     H  505   5.462   4.248   1.735 -0.2254  0.4867 -0.4110
    4MOL0     H  506   5.294   4.407   1.651  0.3500 -2.7004 -0.2013
    4MOL0     H  507   5.357   4.522   1.771 -0.4057 -0.5081  0.5083
    4MOL0     H  508   5.512   4.392   1.544 -0.3107  1.3191 -2.2809
    4MOL0     H  509   5.429   4.548   1.522  0.2186 -0.3966  0.0766
    4MOL0     H  510   5.733   4.426   1.450  1.0500 -0.2336  1.7340
    4MOL0     H  511   5.880   4.518   1.177 -1.7061 -2.8919  0.3690
    4MOL0     H  512   5.904   4.404   1.311 -0.9394 -0.4724 -0.2713
    4MOL0     H  513   6.025   4.532   1.289 -0.3669  1.9038  2.3844
    4MOL0     H  514   6.075   5.159   1.318 -0.2369  0.8627  1.0067
    4MOL0     H  515   6.272   5.265   1.240 -1.6093  0.1132  1.1639
    4MOL0     H  516   6.597   4.978   1.117 -0.5360 -0.6122  0.4705
    4MOL0     H  517   6.460   5.039   1.020 -0.2133 -0.3340  1.3702
    4MOL0     H  518   6.666   5.092   0.900  2.3417  1.0148  0.1467
    4MOL0     H  519   6.595   5.237   0.953 -0.9365  0.2451  1.5130
    4MOL0     H  520   6.829   5.094   1.066  0.1173  1.2190  0.0856
    4MOL0     H  521   6.749   5.216   1.162  1.0199 -0.8468 -0.3108
    4MOL0     H  522   6.789   5.389   0.973 -0.9095 -0.4753  1.2181
    4MOL0     H  523   6.901   5.269   0.903 -1.2812 -3.1961  1.5053
    4MOL0     H  524   6.993   5.466   1.062  3.4143 -0.6269  1.0226
    4MOL0     H  525   6.945   5.364   1.194  2.0716  2.4913  1.5483
    4MOL0     H  526   7.181   5.359   1.085 -0.3349  1.2705 -1.5879
    4MOL0     H  527   7.112   5.259   0.962 -1.7424  3.1220 -0.0854
    4MOL0     H  528   7.020   5.101   1.183 -1.6859  4.1172  0.1699
    4MOL0     H  529   7.132   5.192   1.266  1.2314 -0.4988 -0.4525
    4MOL0     H  530   7.307   5.101   1.094 -0.7552 -0.2629  0.1610
    4MOL0     H  531   7.180   5.022   1.008 -0.3685  2.1542 -0.5916
    4MOL0     H  532   6.476   4.888   1.264  0.5552  0.2544 -2.0408
    4MOL0     H  533   6.287   4.781   1.366 -0.8195 -0.0775  2.1293
    4MOL0     H  534   5.837   4.904   1.513 -0.2776 -1.4723  2.3143
    4MOL0     H  535   5.681   4.799   1.662  0.9799 -0.0089 -0.2141
    4MOL0     H  536   4.236   4.773   2.107  2.1788 -2.1008 -1.9524
    4MOL0     H  537   4.064   4.799   2.261  1.5612 -0.3064  1.9341
    4MOL0     H  538   3.469   4.635   2.208  0.5907 -0.0798 -0.8490
    4MOL0     H  539   3.284   4.712   2.358  0.3623 -3.1997  1.1519
    4MOL0     H  540   3.333   4.706   2.775  0.3133 -0.6770 -1.5833
    4MOL0     H  541   3.390   4.880   2.752 -1.9895  1.4695  1.9655
    4MOL0     H  542   3.160   4.969   2.746  2.6885  1.1152  2.1341
    4MOL0     H  543   3.191   4.881   2.884  3.6249 -0.8095  0.5153
    4MOL0     H  544   3.037   4.751   2.654  1.3725  1.9688 -0.1849
    4MOL0     H  545   3.077   4.668   2.808  1.2609  0.4052  1.3533
    4MOL0     H  546   2.946   4.840   2.933 -0.9463 -0.7566  0.4018
    4MOL0     H  547   2.861   4.731   2.811 -0.5327  0.2219 -0.3415
    4MOL0     H  548   2.791   5.093   2.620 -0.4906 -2.4588 -2.5804
    4MOL0     H  549   3.577   4.796   2.658  1.1072 -0.8121 -0.2868
    4MOL0     H  550   3.875   4.788   2.479  2.3668 -0.6939  2.3202
    4MOL0     H  551   3.787   4.851   2.610  0.5713 -0.0784  0.2752
    4MOL0     H  552   3.817   4.678   2.599  0.5613 -0.3048 -1.6200
    5MOL0     O  553   2.132   9.165  11.363 -0.6001  0.2933 -0.5650
    5MOL0     C  554   2.169   9.044  11.374 -0.0131  0.0264 -0.2220
    5MOL0     O  555   2.088   8.931  11.362 -0.8900  1.1393 -0.1885
    5MOL0     C  556   1.954   8.948  11.340  0.2364  0.8773 -1.2036
    5MOL0     C  557   1.862   9.026  11.426 -1.1855  0.0613  0.1178
    5MOL0     C  558   1.730   9.018  11.402 -0.7628  0.1730  0.1549
    5MOL0     C  559   1.665   8.952  11.296 -0.1132  0.5028  0.0879
    5MOL0     O  560   1.532   8.943  11.261  0.1290  1.2245 -0.4232
    5MOL0     C  561   1.448   9.038  11.329 -0.2702 -0.6210 -0.5945
    5MOL0     C  562   1.301   9.032  11.304 -0.7612  0.5568 -0.8371
    5MOL0     C  563   1.252   8.901  11.361  0.2718 -0.7363  0.1008
    5MOL0     C  564   1.102   8.885  11.355 -0.2754 -0.3791 -0.0337
    5MOL0     C  565   1.050   8.878  11.213 -0.2173  0.2659 -0.3181
    5MOL0     C  566   0.894   8.868  11.212 -0.2116  0.0914  0.2651
    5MOL0     C  567   0.849   8.777  11.089 -0.2220  0.2057  0.4926
    5MOL0     C  568   0.711   8.806  11.044  0.1201  0.3815  0.2023
    5MOL0     N  569   0.687   8.719  10.931 -0.7567  0.6790  0.4226
    5MOL0     C  570   0.664   8.760  10.807 -0.0601  0.4296 -0.4693
    5MOL0     C  571   0.672   8.654  10.731  0.3028 -0.6449  0.8474
    5MOL0     C  572   0.668   8.655  10.581 -0.3204 -0.4302  0.7464
    5MOL0     C  573   0.811   8.686  10.532 -0.3563  0.0924 -1.0789
    5MOL0     C  574   0.894   8.560  10.517  0.3838  0.4186 -0.2405
    5MOL0     C  575   1.033   8.576  10.437  0.8775  0.1414  0.6592
    5MOL0     O  576   1.089   8.450  10.389  0.3533 -0.2506  0.0733
    5MOL0     C  577   1.225   8.445  10.418 -0.0810 -0.2277 -0.4492
    5MOL0     C  578   1.273   8.450  10.549  0.6153  0.1870  0.2046
    5MOL0     C  579   1.405   8.448  10.579 -1.0683  1.0694  0.1342
    5MOL0     C  580   1.441   8.438  10.722  0.3184 -0.0401  0.6029
    5MOL0     C  581   1.495   8.459  10.473 -1.2304  0.3142 -0.0930
    5MOL0     C  582   1.644   8.469  10.488 -0.4199  0.4517 -0.2524
    5MOL0     O  583   1.716   8.514  10.382 -0.2626  0.0234  0.4149
    5MOL0     C  584   1.851   8.473  10.383  0.2580  0.6203 -0.4090
    5MOL0     C  585   1.887   8.339  10.382 -0.0182  0.5214 -0.3057
    5MOL0     C  586   2.027   8.300  10.363 -0.1081 -0.4176 -0.2721
    5MOL0     C  587   2.122   8.405  10.377  0.2186 -0.1517  0.5044
    5MOL0     O  588   2.256   8.381  10.391  0.5404  0.4384 -0.2449
    5MOL0     C  589   2.302   8.269  10.307  0.8223 -0.4068 -0.3700
    5MOL0     C  590   2.452   8.282  10.301 -0.1917  0.7507 -0.0614
    5MOL0     C  591   2.510   8.204  10.177 -0.9419 -0.0593 -0.4172
    5MOL0     C  592   2.461   8.067  10.154  0.3968 -0.7023 -0.5224
    5MOL0     C  593   2.552   8.002  10.042  0.1210 -0.1199 -0.2685
    5MOL0     C  594   2.545   7.844  10.055  0.5766  0.6218  0.3092
    5MOL0     C  595   2.638   7.784   9.940 -0.8699  0.5774 -0.2965
    5MOL0     C  596   2.564   7.775   9.811  0.2419  0.5476  0.6661
    5MOL0    Cl  597   2.414   7.667   9.819 -0.1714  0.1861  0.3218
    5MOL0     C  598   2.089   8.542  10.386 -0.0918  1.2133  0.0446
    5MOL0     C  599   1.954   8.572  10.377  0.3374  0.3287 -0.7553
    5MOL0     O  600   1.697   8.433  10.589 -0.2740 -0.6206 -0.3302
    5MOL0     C  601   1.452   8.462  10.340 -0.0734  0.2832 -0.3894
    5MOL0     C  602   1.317   8.453  10.315  0.5012 -1.1743  0.8751
    5MOL0     N  603   0.691   8.545  10.809  0.4396  0.9087 -0.3767
    5MOL0     N  604   0.694   8.585  10.932 -0.1346  0.2052 -0.5958
    5MOL0     C  605   1.753   8.886  11.202 -0.0151 -0.1489 -0.3103
    5MOL0     C  606   1.890   8.876  11.241  0.3073 -0.2492  0.2641
    5MOL0     C  607   2.319   9.024  11.398 -0.0145  0.1102 -0.9593
    5MOL0     C  608   2.385   9.139  11.429 -0.4277  0.3834 -0.6008
    5MOL0     C  609   2.520   9.142  11.454  0.0004 -0.7009 -0.4333
    5MOL0     C  610   2.585   9.018  11.458  0.2362  0.6819  0.9331
    5MOL0     O  611   2.720   9.012  11.493  0.4550  0.3880  0.1954
    5MOL0     C  612   2.805   9.122  11.443  0.4672 -0.2564 -0.5726
    5MOL0     C  613   2.935   9.064  11.393  0.3105 -0.1010  0.3958
    5MOL0     C  614   3.045   9.160  11.371  0.1818  0.9665 -0.0101
    5MOL0     C  615   3.017   9.274  11.267  0.4012  0.1883 -0.2157
    5MOL0     C  616   3.127   9.367  11.264  0.2656  0.5441 -0.7106
    5MOL0     C  617   3.206   9.453  11.271 -0.5689  0.0946  0.3700
    5MOL0     C  618   2.516   8.897  11.432  0.1730  0.5260 -1.0053
    5MOL0     C  619   2.385   8.900  11.403  0.3060 -0.0125  0.0308
    5MOL0     C  620   2.317   8.775  11.369 -0.1902 -0.7442 -0.0215
    5MOL0     H  621   1.903   9.080  11.511  0.3690  0.9160 -1.1338
    5MOL0     H  622   1.675   9.066  11.482  0.6567  2.5509 -0.2032
    5MOL0     H  623   1.483   9.136  11.294 -1.0539  0.0444  0.4010
    5MOL0     H  624   1.468   9.035  11.437  3.3783  1.2965 -1.0480
    5MOL0     H  625   1.251   9.110  11.363 -0.8903 -0.5653  0.5710
    5MOL0     H  626   1.279   9.046  11.198 -3.6714 -2.4433 -0.7677
    5MOL0     H  627   1.293   8.827  11.293  0.7731 -0.0285 -0.3827
    5MOL0     H  628   1.276   8.898  11.468 -2.1057  1.8113  0.8323
    5MOL0     H  629   1.084   8.794  11.413 -0.8141 -0.8187 -0.8728
    5MOL0     H  630   1.049   8.970  11.399 -2.6782 -0.2316 -2.8785
    5MOL0     H  631   1.098   8.792  11.165  0.3941  0.0633  0.6319
    5MOL0     H  632   1.088   8.966  11.161  1.5862 -2.2625 -3.7567
    5MOL0     H  633   0.850   8.819  11.299 -1.2697 -1.8929 -1.3256
    5MOL0     H  634   0.836   8.960  11.201 -1.3953 -0.7460 -0.6622
    5MOL0     H  635   0.876   8.672  11.101 -2.0890 -0.4877 -0.8339
    5MOL0     H  636   0.909   8.819  11.008 -0.4834  0.6079  0.5055
    5MOL0     H  637   0.646   8.780  11.127  0.0411 -2.1409 -0.5638
    5MOL0     H  638   0.701   8.913  11.024 -0.0643  0.0811 -1.4296
    5MOL0     H  639   0.657   8.865  10.780 -2.2902  0.9738  1.8183
    5MOL0     H  640   0.597   8.730  10.547  0.3355  0.6828  1.7413
    5MOL0     H  641   0.632   8.558  10.546 -1.1706  0.3930 -0.7334
    5MOL0     H  642   0.817   8.740  10.437 -0.9169  1.3654 -0.4087
    5MOL0     H  643   0.865   8.753  10.599 -1.8212  0.4913 -0.2575
    5MOL0     H  644   0.916   8.518  10.616  3.3000 -1.7193 -1.6513
    5MOL0     H  645   0.830   8.484  10.471  1.7278 -0.8386 -0.0957
    5MOL0     H  646   1.005   8.632  10.347 -0.9945 -2.2511 -0.3814
    5MOL0     H  647   1.101   8.638  10.496 -0.0136 -0.0593  1.9313
    5MOL0     H  648   1.212   8.459  10.639  2.3670  3.1902  1.2508
    5MOL0     H  649   1.515   8.358  10.731 -0.2612 -0.8340 -1.2450
    5MOL0     H  650   1.358   8.432  10.792 -0.7876  1.8406 -0.4539
    5MOL0     H  651   1.490   8.532  10.750  2.6819 -0.0747 -2.7939
    5MOL0     H  652   1.810   8.262  10.384  2.8257 -2.5001  0.3194
    5MOL0     H  653   2.059   8.196  10.361 -1.4479 -1.0724  3.2721
    5MOL0     H  654   2.270   8.171  10.344  0.1745 -1.0784 -2.5075
    5MOL0     H  655   2.262   8.285  10.206  1.7469  4.0655 -0.2365
    5MOL0     H  656   2.479   8.387  10.286 -0.8151  1.0746  0.9174
    5MOL0     H  657   2.499   8.241  10.391  2.5755  2.4373 -0.6066
    5MOL0     H  658   2.618   8.197  10.188 -0.7269 -1.1049 -2.6324
    5MOL0     H  659   2.489   8.265  10.088  0.1265  1.5450  0.3980
    5MOL0     H  660   2.357   8.061  10.119  0.2574 -1.2055 -0.0235
    5MOL0     H  661   2.455   8.006  10.244  0.5464 -0.5065 -0.3769
    5MOL0     H  662   2.530   8.038   9.941 -0.7531 -2.5137 -0.9970
    5MOL0     H  663   2.656   8.027  10.065  0.4119  1.8563 -3.2558
    5MOL0     H  664   2.440   7.816  10.039  0.5546  0.4447  0.7522
    5MOL0     H  665   2.580   7.819  10.156  6.4679 -1.5367 -1.8324
    5MOL0     H  666   2.680   7.687   9.969  1.9193  1.7477 -0.1045
    5MOL0     H  667   2.726   7.846   9.921 -1.2589  0.4928 -2.7398
    5MOL0     H  668   2.632   7.739   9.733  1.4505 -0.4039  2.0921
    5MOL0     H  669   2.522   7.872   9.786 -1.3096 -0.8050 -2.6691
    5MOL0     H  670   2.170   8.614  10.382 -0.7902  1.9611 -1.8389
    5MOL0     H  671   1.920   8.675  10.379 -0.5326  0.0411  0.5041
    5MOL0     H  672   1.524   8.470  10.259  0.7567  2.2240  0.4784
    5MOL0     H  673   1.262   8.461  10.222 -3.1507 -3.2348  2.6185
    5MOL0     H  674   1.709   8.837  11.116  2.7542 -0.2786 -1.7711
    5MOL0     H  675   1.953   8.822  11.171  2.2450  1.1879  0.8042
    5MOL0     H  676   2.341   9.238  11.426  0.2469  0.7528 -4.3570
    5MOL0     H  677   2.578   9.233  11.467 -0.8147 -0.1008 -0.8820
    5MOL0     H  678   2.759   9.176  11.359 -0.4531 -0.4596 -0.2072
    5MOL0     H  679   2.825   9.193  11.524 -0.5648 -0.4783 -0.1145
    5MOL0     H  680   2.917   8.998  11.307  1.2007  0.2362 -0.0662
    5MOL0     H  681   2.968   9.002  11.477  1.3784 -3.0280 -2.0077
    5MOL0     H  682   3.062   9.189  11.475 -4.7918 -0.7870  1.5740
    5MOL0     H  683   3.128   9.099  11.335  1.4898  1.9252  1.2471
    5MOL0     H  684   2.927   9.325  11.303 -0.8283  0.7589 -3.7313
    5MOL0     H  685   2.999   9.239  11.165  0.9794 -0.5782 -0.0608
    5MOL0     H  686   3.260   9.543  11.248  0.9055 -1.0991 -1.1956
    5MOL0     H  687   2.576   8.807  11.434  3.2468  2.3995 -1.1484
    5MOL0     H  688   2.234   8.757  11.438 -0.1706 -1.1082 -0.0869
    5MOL0     H  689   2.270   8.782  11.270 -1.2511  1.8773  0.5868
    5MOL0     H  690   2.389   8.694  11.384 -2.9372 -3.2664  0.6292
    6MOL0     O  691   6.128   9.776   2.046  0.3300  0.2164  0.1889
    6MOL0     C  692   6.096   9.891   2.039 -0.1818 -0.6754  0.5559
    6MOL0     O  693   6.171   9.993   2.075 -0.2360 -0.5037 -0.2074
    6MOL0     C  694   6.302   9.979   2.084 -0.1960  0.5566  0.3622
    6MOL0     C  695   6.360   9.987   2.213 -0.5448 -0.7420  0.6575
    6MOL0     C  696   6.492   9.951   2.228 -0.0428 -0.4216  0.4759
    6MOL0     C  697   6.579   9.931   2.125  0.4652 -0.7614  0.2511
    6MOL0     O  698   6.715   9.895   2.132 -0.8042 -0.0933 -0.6742
    6MOL0     C  699   6.781   9.929   2.254  0.3683 -0.5474  0.4925
    6MOL0     C  700   6.931   9.918   2.217  0.0790  0.8921 -0.7731
    6MOL0     C  701   7.031   9.982   2.325  0.4448 -0.4183  0.1817
    6MOL0     C  702   7.022   9.904   2.456  0.2484  0.0117 -0.4088
    6MOL0     C  703   7.133   9.943   2.552 -0.6113 -0.0499  0.7861
    6MOL0     C  704   7.114   9.855   2.682 -0.2048 -0.7169 -0.0296
    6MOL0     C  705   7.239   9.868   2.772  0.1037 -0.3750 -0.0605
    6MOL0     C  706   7.243   9.749   2.861  0.0042 -0.3641  0.0782
    6MOL0     N  707   7.355   9.739   2.943 -0.5410 -0.6981  0.0112
    6MOL0     C  708   7.376   9.643   3.041 -0.6677  0.0715  0.4441
    6MOL0     C  709   7.508   9.644   3.070  0.0969 -0.9648 -0.4677
    6MOL0     C  710   7.577   9.563   3.170 -0.3456  0.1809 -0.5702
    6MOL0     C  711   7.629   9.427   3.125 -0.1177  1.0021 -0.0540
    6MOL0     C  712   7.770   9.440   3.063  0.0285 -0.2561  0.0146
    6MOL0     C  713   7.836   9.306   3.006  0.9493  0.0727  0.0844
    6MOL0     O  714   7.894   9.224   3.104  0.2942  0.4228  0.4546
    6MOL0     C  715   7.986   9.273   3.189 -0.7496 -0.2901  0.0087
    6MOL0     C  716   7.990   9.221   3.309 -0.5861 -0.2080  0.2336
    6MOL0     C  717   8.075   9.267   3.413 -0.4580  0.3031  0.6848
    6MOL0     C  718   8.046   9.229   3.550  0.3867  0.2420  0.2566
    6MOL0     C  719   8.171   9.362   3.380 -0.5390  0.0534  0.4373
    6MOL0     C  720   8.259   9.439   3.463 -0.1878 -0.3743 -0.8527
    6MOL0     O  721   8.333   9.538   3.414  0.2238  0.1241 -0.1436
    6MOL0     C  722   8.414   9.626   3.481 -0.9573 -0.0635  0.6321
    6MOL0     C  723   8.497   9.696   3.401 -0.4345 -0.2996 -0.0870
    6MOL0     C  724   8.603   9.774   3.457  0.7406  0.1410 -0.3310
    6MOL0     C  725   8.607   9.802   3.595 -0.0910 -0.2870  0.0608
    6MOL0     O  726   8.697   9.874   3.668 -0.1669 -0.3875 -0.0155
    6MOL0     C  727   8.721   9.997   3.607 -0.3114 -0.0862  0.2187
    6MOL0     C  728   8.604  10.100   3.612  0.4964 -0.1604 -0.3608
    6MOL0     C  729   8.639  10.214   3.519 -1.0575 -0.2033 -0.2933
    6MOL0     C  730   8.552  10.344   3.527  0.2818 -0.2903  0.9196
    6MOL0     C  731   8.597  10.427   3.407  0.1354 -0.2400  0.7116
    6MOL0     C  732   8.511  10.555   3.406  0.2475 -0.5279 -0.4981
    6MOL0     C  733   8.551  10.653   3.299 -0.3334 -0.5073 -0.0553
    6MOL0     C  734   8.467  10.772   3.322  0.4584 -0.2942 -0.3599
    6MOL0    Cl  735   8.505  10.877   3.180 -0.1294 -0.2257 -0.1233
    6MOL0     C  736   8.516   9.736   3.676  0.3977  0.9256  0.8811
    6MOL0     C  737   8.421   9.651   3.617 -0.2935 -0.4476  0.1428
    6MOL0     O  738   8.267   9.396   3.582  0.0351  0.5031  0.4097
    6MOL0     C  739   8.183   9.400   3.240 -0.6777  0.2927  0.5919
    6MOL0     C  740   8.086   9.355   3.148  0.6917  0.1374  0.6196
    6MOL0     N  741   7.568   9.743   3.001  0.9712  0.3815 -0.3334
    6MOL0     N  742   7.484   9.791   2.915 -0.0397  0.7709 -0.4118
    6MOL0     C  743   6.525   9.948   1.992  0.1541 -0.5159  0.1716
    6MOL0     C  744   6.385   9.959   1.975 -0.4103  0.0235 -0.4454
    6MOL0     C  745   5.965   9.926   1.983  0.0615  0.0656 -0.5455
    6MOL0     C  746   5.913  10.053   2.015 -0.5241 -0.0293 -0.1039
    6MOL0     C  747   5.786  10.090   1.975 -0.4871  0.1523  0.0061
    6MOL0     C  748   5.702   9.995   1.919  0.1100  0.1645 -0.6019
    6MOL0     O  749   5.565  10.010   1.904  0.8481 -0.7941  0.4551
    6MOL0     C  750   5.508  10.144   1.901  0.3274  0.1708 -0.0581
    6MOL0     C  751   5.353  10.134   1.894 -0.0425 -0.9042  0.0421
    6MOL0     C  752   5.282  10.273   1.886 -0.7450 -0.0875 -0.8200
    6MOL0     C  753   5.138  10.272   1.885 -0.4319  0.2798 -0.4030
    6MOL0     C  754   5.086  10.273   2.026  0.3101  0.2915 -0.3015
    6MOL0     C  755   5.043  10.268   2.143  0.5904 -0.6149 -0.5908
    6MOL0     C  756   5.755   9.869   1.883  0.4095 -0.8418 -0.4786
    6MOL0     C  757   5.881   9.834   1.922  0.3923  0.2409 -0.1386
    6MOL0     C  758   5.927   9.698   1.874 -0.1078 -0.6332  0.3771
    6MOL0     H  759   6.310  10.023   2.302 -0.1582 -1.0254  0.9972
    6MOL0     H  760   6.534   9.955   2.328  1.1068  0.7324 -0.0337
    6MOL0     H  761   6.744   9.872   2.339 -2.0533  0.3806  0.1271
    6MOL0     H  762   6.760  10.034   2.278 -0.0054 -0.1607 -1.3736
    6MOL0     H  763   6.954   9.816   2.188 -0.4252  0.4667  0.2518
    6MOL0     H  764   6.940   9.979   2.126  2.5541  3.7336  1.1655
    6MOL0     H  765   7.132   9.979   2.284  0.5671  1.7384  0.1703
    6MOL0     H  766   7.015  10.087   2.354  3.0706 -0.9702  4.5741
    6MOL0     H  767   6.922   9.921   2.496  0.4589  2.8268 -0.8173
    6MOL0     H  768   7.031   9.797   2.438  3.0919 -0.4125  2.4582
    6MOL0     H  769   7.140  10.051   2.571  1.1150 -0.3907  2.4369
    6MOL0     H  770   7.225   9.907   2.506 -1.7011 -3.0777  0.7527
    6MOL0     H  771   7.028   9.887   2.743 -1.8226 -1.7788 -1.6447
    6MOL0     H  772   7.095   9.752   2.650  0.9632 -2.1454  3.3733
    6MOL0     H  773   7.223   9.961   2.828  0.8709 -0.8757  1.0274
    6MOL0     H  774   7.326   9.877   2.706  1.0162 -2.0809  0.8320
    6MOL0     H  775   7.152   9.749   2.922  0.6394  0.2357  1.0527
    6MOL0     H  776   7.241   9.660   2.798 -2.6840 -0.7593  0.5749
    6MOL0     H  777   7.307   9.572   3.085 -1.4698 -1.9348 -3.5821
    6MOL0     H  778   7.509   9.555   3.255  1.6670  2.5102  1.4080
    6MOL0     H  779   7.661   9.621   3.207 -0.3354 -1.2466  1.8522
    6MOL0     H  780   7.644   9.360   3.210 -0.2792  0.0637 -0.7445
    6MOL0     H  781   7.563   9.372   3.057 -1.3024  2.7825 -0.4071
    6MOL0     H  782   7.757   9.512   2.981  1.6269  0.3041  0.2261
    6MOL0     H  783   7.843   9.490   3.126 -1.4477 -1.1538  2.5901
    6MOL0     H  784   7.754   9.252   2.958 -0.8869  3.6864 -1.2549
    6MOL0     H  785   7.908   9.328   2.928  1.2328  0.7569  0.5284
    6MOL0     H  786   7.918   9.146   3.341 -0.6930 -0.8222 -1.3566
    6MOL0     H  787   7.947   9.183   3.556  1.6012 -2.4717  0.5738
    6MOL0     H  788   8.044   9.315   3.619  1.4366 -0.0497  0.6814
    6MOL0     H  789   8.122   9.159   3.586  0.6592  0.5547  0.3017
    6MOL0     H  790   8.489   9.696   3.293 -1.1821  1.6535 -0.0728
    6MOL0     H  791   8.675   9.815   3.386  0.0978  1.0023 -0.5052
    6MOL0     H  792   8.800  10.055   3.655  0.2047  1.8963 -2.7201
    6MOL0     H  793   8.740   9.980   3.501 -1.6700  1.7272 -0.3698
    6MOL0     H  794   8.506  10.060   3.583  0.7257 -0.3070 -0.9371
    6MOL0     H  795   8.602  10.149   3.710  2.0885  1.6313 -1.1682
    6MOL0     H  796   8.644  10.168   3.420  0.9549  1.1176 -0.8705
    6MOL0     H  797   8.741  10.243   3.547 -1.3854  0.7772 -0.0748
    6MOL0     H  798   8.559  10.396   3.622 -2.2204 -0.3456  1.1892
    6MOL0     H  799   8.446  10.322   3.511  0.2852 -0.2398  0.8253
    6MOL0     H  800   8.705  10.447   3.405  0.4972 -1.6120 -3.1456
    6MOL0     H  801   8.573  10.380   3.311  1.6035 -0.9756  0.6837
    6MOL0     H  802   8.515  10.603   3.504  2.3060  1.2603 -1.3697
    6MOL0     H  803   8.405  10.530   3.396 -0.5350  0.3889  3.6726
    6MOL0     H  804   8.539  10.612   3.198 -2.0690 -0.4998  0.1213
    6MOL0     H  805   8.656  10.683   3.308 -0.8912  1.4564  0.4578
    6MOL0     H  806   8.493  10.819   3.417  0.4833  0.4149 -0.7154
    6MOL0     H  807   8.363  10.740   3.328 -0.0999  0.9472 -2.3675
    6MOL0     H  808   8.526   9.757   3.783 -0.1124 -0.4768  1.2242
    6MOL0     H  809   8.361   9.597   3.690 -3.1581  3.2558  0.8368
    6MOL0     H  810   8.258   9.472   3.209 -2.0201  0.8618 -1.5766
    6MOL0     H  811   8.101   9.392   3.047 -1.7079  2.8629  1.1145
    6MOL0     H  812   6.583   9.942   1.900  0.6746  0.6722  0.4049
    6MOL0     H  813   6.346   9.943   1.875  1.4933  0.6620 -1.3361
    6MOL0     H  814   5.978  10.118   2.073 -1.3745  0.6771  0.0833
    6MOL0     H  815   5.763  10.190   2.011  0.4676 -0.0923  1.4066
    6MOL0     H  816   5.537  10.200   1.990  0.8929  0.7092 -0.5601
    6MOL0     H  817   5.547  10.199   1.814  1.7757 -2.0480 -0.9129
    6MOL0     H  818   5.307  10.089   1.982  0.4455 -2.2009 -0.3353
    6MOL0     H  819   5.328  10.090   1.797  3.1763 -2.8107 -0.0528
    6MOL0     H  820   5.331  10.333   1.963  4.1676 -2.6197 -1.5685
    6MOL0     H  821   5.301  10.330   1.794 -3.6541  1.3934 -0.6188
    6MOL0     H  822   5.105  10.177   1.843 -1.6566  0.5326 -0.0461
    6MOL0     H  823   5.097  10.352   1.823 -2.3168 -0.2658  0.0821
    6MOL0     H  824   5.017  10.263   2.247 -0.3557 -0.3636 -0.8065
    6MOL0     H  825   5.686   9.797   1.840  2.1017 -4.0903  1.8219
    6MOL0     H  826   5.876   9.680   1.779  0.1487  0.8256 -0.0502
    6MOL0     H  827   6.032   9.694   1.846 -0.9645 -0.4688 -3.3143
    6MOL0     H  828   5.915   9.629   1.958  3.1031  0.4509  1.8660
    7MOL0     O  829   4.051   1.996   8.040 -0.4724  0.4064 -0.2896
    7MOL0     C  830   4.014   1.933   8.136 -0.0350  0.2683  0.6217
    7MOL0     O  831   4.099   1.860   8.215  0.0114  0.2140 -0.1510
    7MOL0     C  832   4.234   1.835   8.183  0.7639  0.4419  0.7886
    7MOL0     C  833   4.288   1.708   8.161  0.2443  0.4456  0.3775
    7MOL0     C  834   4.423   1.693   8.137  0.6762  0.6173 -0.4200
    7MOL0     C  835   4.502   1.809   8.119  0.0005  0.4541  0.1701
    7MOL0     O  836   4.633   1.779   8.091 -0.4620 -0.3878  0.2177
    7MOL0     C  837   4.691   1.839   7.979 -0.0758 -0.3722 -0.4593
    7MOL0     C  838   4.812   1.748   7.943  0.1162  0.5443  0.4141
    7MOL0     C  839   4.916   1.735   8.049 -1.5162  0.3706 -0.1323
    7MOL0     C  840   4.960   1.589   8.074  0.3261 -0.0215  0.1169
    7MOL0     C  841   5.041   1.583   8.200  0.2409  0.0522 -0.5453
    7MOL0     C  842   5.118   1.453   8.239 -0.0862  0.3730  1.1034
    7MOL0     C  843   5.227   1.418   8.135 -0.2414  0.2527 -0.4062
    7MOL0     C  844   5.315   1.293   8.196  0.7781  0.5856 -0.5903
    7MOL0     N  845   5.416   1.328   8.292 -0.5561 -0.0834 -0.4138
    7MOL0     C  846   5.543   1.368   8.255  0.6004 -0.0183 -0.1496
    7MOL0     C  847   5.595   1.413   8.374 -0.5843  0.2248 -0.0560
    7MOL0     C  848   5.738   1.477   8.398  0.1178 -0.0009 -0.1517
    7MOL0     C  849   5.781   1.465   8.543 -0.6912  0.3860 -0.7833
    7MOL0     C  850   5.837   1.327   8.574 -0.1639  0.4635  1.1665
    7MOL0     C  851   5.962   1.262   8.517  0.3379  0.5081  0.2464
    7MOL0     O  852   5.995   1.151   8.599 -0.3699 -0.3733 -0.6833
    7MOL0     C  853   6.118   1.092   8.578  0.0798 -0.4333  0.5315
    7MOL0     C  854   6.156   0.997   8.676 -0.5095  0.6984 -0.2486
    7MOL0     C  855   6.287   0.942   8.695  0.1768  1.0836  0.4358
    7MOL0     C  856   6.309   0.869   8.820  0.3043  0.5821  0.2305
    7MOL0     C  857   6.385   0.980   8.591  0.4321 -0.6221 -0.9343
    7MOL0     C  858   6.522   0.955   8.606 -1.4127 -1.1529  1.4419
    7MOL0     O  859   6.594   0.958   8.483 -1.1883 -0.1078  0.1757
    7MOL0     C  860   6.725   0.906   8.475 -0.2737 -0.3886  0.2955
    7MOL0     C  861   6.771   0.865   8.347 -0.1934  1.3004  0.3175
    7MOL0     C  862   6.898   0.808   8.330  0.0948  0.5668 -0.6842
    7MOL0     C  863   6.990   0.791   8.433  0.5897  0.3469  0.1032
    7MOL0     O  864   7.108   0.731   8.400  0.6214 -0.0114 -0.5384
    7MOL0     C  865   7.228   0.753   8.483  0.0849  0.0483  0.1623
    7MOL0     C  866   7.349   0.693   8.410  0.2034 -0.5406  0.1783
    7MOL0     C  867   7.477   0.701   8.498 -0.2260  0.4937  0.2978
    7MOL0     C  868   7.575   0.584   8.469 -0.2402  0.0586 -0.9835
    7MOL0     C  869   7.708   0.610   8.543  0.1881  0.7510  0.0752
    7MOL0     C  870   7.813   0.506   8.533 -0.6219 -0.0455 -0.1153
    7MOL0     C  871   7.845   0.453   8.392 -0.3352 -0.3708 -0.0515
    7MOL0     C  872   7.894   0.557   8.292  0.0499  0.2175  0.9728
    7MOL0    Cl  873   8.072   0.612   8.315  0.1511  0.5220 -0.0973
    7MOL0     C  874   6.955   0.847   8.554 -0.7951  0.3012  0.6452
    7MOL0     C  875   6.823   0.902   8.579 -0.0439 -0.7717  0.7856
    7MOL0     O  876   6.579   0.939   8.713  0.4433 -1.1117  0.3860
    7MOL0     C  877   6.340   1.058   8.485  1.4097  0.3070 -0.6267
    7MOL0     C  878   6.211   1.121   8.481 -0.4062  0.3093 -0.9070
    7MOL0     N  879   5.504   1.398   8.477 -0.3256  0.1062 -0.1148
    7MOL0     N  880   5.400   1.342   8.427  0.3375 -0.1115 -0.1265
    7MOL0     C  881   4.447   1.937   8.114 -0.0451  0.6329 -0.5325
    7MOL0     C  882   4.311   1.947   8.152 -0.9222 -0.1862  0.1003
    7MOL0     C  883   3.879   1.954   8.184 -0.0379 -0.3443 -0.0342
    7MOL0     C  884   3.785   2.008   8.098  0.9250  0.7879  0.3393
    7MOL0     C  885   3.653   2.032   8.130 -0.0261 -0.2618 -0.4084
    7MOL0     C  886   3.606   1.993   8.260 -0.1131 -0.5304 -0.1917
    7MOL0     O  887   3.470   2.004   8.297 -0.0693 -0.1628 -0.4408
    7MOL0     C  888   3.380   2.062   8.201 -0.7976  0.2801 -0.0513
    7MOL0     C  889   3.337   1.955   8.105  0.1322 -0.5491  0.1920
    7MOL0     C  890   3.209   2.001   8.025 -0.6038 -0.3917 -0.5817
    7MOL0     C  891   3.229   2.112   7.918  0.2910  0.5773 -0.2205
    7MOL0     C  892   3.120   2.122   7.823 -0.4676  0.3313  0.4939
    7MOL0     C  893   3.029   2.133   7.738 -0.8967  0.1709 -0.4352
    7MOL0     C  894   3.696   1.929   8.345  0.0332 -0.3535  0.4856
    7MOL0     C  895   3.832   1.923   8.319  0.4519  1.5551 -0.3055
    7MOL0     C  896   3.913   1.844   8.414  0.6181  0.5783  0.0897
    7MOL0     H  897   4.226   1.620   8.175  2.5247 -1.3735 -0.4171
    7MOL0     H  898   4.462   1.595   8.110 -0.5621 -0.3120  0.9866
    7MOL0     H  899   4.709   1.946   7.992 -3.6774  0.3468 -0.5304
    7MOL0     H  900   4.618   1.825   7.899 -1.6658 -2.8400  1.2534
    7MOL0     H  901   4.766   1.650   7.933  1.2490 -0.0038  0.4141
    7MOL0     H  902   4.865   1.788   7.856  0.8520  0.0631  0.6330
    7MOL0     H  903   5.006   1.788   8.017 -0.6999 -1.2900 -0.6905
    7MOL0     H  904   4.876   1.779   8.141 -0.1561 -3.1819  2.3771
    7MOL0     H  905   4.880   1.515   8.069 -1.5374  1.8922  0.1821
    7MOL0     H  906   5.021   1.562   7.988 -0.3148  2.6595 -1.2909
    7MOL0     H  907   4.972   1.610   8.280  3.2463 -1.0036  2.6915
    7MOL0     H  908   5.116   1.663   8.197  2.6230 -1.7518  2.8863
    7MOL0     H  909   5.164   1.467   8.337 -0.8538  1.2096  1.3650
    7MOL0     H  910   5.051   1.367   8.239  2.7174 -1.9987 -0.3741
    7MOL0     H  911   5.293   1.504   8.115 -0.9704  1.2522  1.2303
    7MOL0     H  912   5.180   1.382   8.044 -0.1538 -0.2495 -0.2526
    7MOL0     H  913   5.250   1.228   8.256  3.4189 -2.2548 -0.5564
    7MOL0     H  914   5.352   1.237   8.109  1.4288  2.3274 -1.4771
    7MOL0     H  915   5.606   1.361   8.167  3.0118  0.4339  1.4158
    7MOL0     H  916   5.720   1.584   8.384 -0.7494  0.0873  1.4032
    7MOL0     H  917   5.812   1.440   8.327  2.0223  1.2364  1.0880
    7MOL0     H  918   5.854   1.536   8.581 -1.7472  0.4677  1.2485
    7MOL0     H  919   5.697   1.476   8.613 -0.4878  0.4600 -0.5511
    7MOL0     H  920   5.862   1.342   8.680  2.3864  0.7218  0.5837
    7MOL0     H  921   5.762   1.250   8.554  0.7442 -0.4915  1.3816
    7MOL0     H  922   5.941   1.228   8.414  2.0408 -0.4177  0.1691
    7MOL0     H  923   6.038   1.339   8.529 -0.2061  0.8193  1.9189
    7MOL0     H  924   6.081   0.975   8.752 -0.6796  0.2831 -0.5330
    7MOL0     H  925   6.217   0.863   8.878  1.7084 -0.7165  2.4952
    7MOL0     H  926   6.374   0.934   8.880 -0.1312 -0.5924  2.0344
    7MOL0     H  927   6.353   0.770   8.806 -0.2629  0.0033  2.2565
    7MOL0     H  928   6.699   0.877   8.267 -0.5131 -1.9386 -0.0405
    7MOL0     H  929   6.919   0.765   8.232 -3.7359  1.9587 -2.3421
    7MOL0     H  930   7.246   0.859   8.501  0.9011 -0.0124 -0.2515
    7MOL0     H  931   7.212   0.707   8.582 -0.7002  1.6613  0.8238
    7MOL0     H  932   7.332   0.588   8.387  0.9829 -0.4766 -0.7683
    7MOL0     H  933   7.365   0.754   8.320  0.4685 -2.1664 -0.9151
    7MOL0     H  934   7.455   0.699   8.605  1.8466  0.1013  0.7645
    7MOL0     H  935   7.521   0.800   8.483 -0.2454  0.3429 -0.8276
    7MOL0     H  936   7.584   0.574   8.361 -0.0620  1.1032 -1.0791
    7MOL0     H  937   7.529   0.491   8.503  0.2180 -0.0322 -0.5921
    7MOL0     H  938   7.747   0.700   8.495 -1.4139  0.4734 -1.8851
    7MOL0     H  939   7.683   0.642   8.644 -1.4148 -1.5697  0.4957
    7MOL0     H  940   7.781   0.422   8.595  0.1159 -0.7392 -0.6511
    7MOL0     H  941   7.909   0.534   8.578  0.4288 -0.6538 -1.8974
    7MOL0     H  942   7.759   0.399   8.351 -0.2710 -1.4712  1.1970
    7MOL0     H  943   7.913   0.367   8.394 -0.5655 -0.6501 -1.8836
    7MOL0     H  944   7.820   0.636   8.282 -0.5028 -0.2440  1.3614
    7MOL0     H  945   7.898   0.512   8.192  2.7850  1.5553  0.3783
    7MOL0     H  946   7.035   0.857   8.626  2.9464  3.1048 -3.3725
    7MOL0     H  947   6.795   0.944   8.675 -0.4265  0.2983  0.2299
    7MOL0     H  948   6.413   1.078   8.407  0.5935 -4.3779 -2.9434
    7MOL0     H  949   6.175   1.176   8.395 -2.1354  0.1359 -0.3398
    7MOL0     H  950   4.500   2.032   8.111  0.5325  0.3044 -1.1248
    7MOL0     H  951   4.255   2.040   8.162 -2.1411 -1.0732  2.6755
    7MOL0     H  952   3.824   2.036   8.000  0.0368 -1.5261 -0.7384
    7MOL0     H  953   3.585   2.078   8.058 -0.6277 -1.0894 -0.3834
    7MOL0     H  954   3.294   2.084   8.265  0.6073 -0.3270  2.1756
    7MOL0     H  955   3.420   2.147   8.145  0.0221 -2.6040 -4.2756
    7MOL0     H  956   3.296   1.870   8.160  1.2733  1.0504  3.7753
    7MOL0     H  957   3.417   1.929   8.035  1.6401 -0.4719  1.8322
    7MOL0     H  958   3.159   1.913   7.982  1.5250 -1.1050 -1.7109
    7MOL0     H  959   3.133   2.053   8.085 -0.4497 -0.0527 -0.6777
    7MOL0     H  960   3.321   2.083   7.866 -0.4525 -2.3496 -0.0993
    7MOL0     H  961   3.242   2.210   7.964 -1.0202  0.4608  0.4382
    7MOL0     H  962   2.942   2.141   7.677 -1.3603 -1.1274  0.0223
    7MOL0     H  963   3.655   1.890   8.437 -3.1889  0.8133 -0.3393
    7MOL0     H  964   3.848   1.826   8.500 -0.1815  0.9729 -0.4263
    7MOL0     H  965   3.944   1.748   8.372  0.5811  1.7248 -2.8363
    7MOL0     H  966   3.999   1.904   8.447 -0.9144  3.0664 -0.2473
    8MOL0     O  967  11.016   6.814  11.417  0.1420 -0.2711 -0.0405
    8MOL0     C  968  10.973   6.750  11.318 -0.6231 -0.9262  0.0735
    8MOL0     O  969  11.058   6.675  11.238  0.8641 -0.0185  0.8632
    8MOL0     C  970  11.195   6.664  11.258 -0.2682  0.1718 -1.0273
    8MOL0     C  971  11.269   6.544  11.246  0.4590  0.8593 -0.7010
    8MOL0     C  972  11.407   6.540  11.266  0.6535  1.2021  0.2405
    8MOL0     C  973  11.479   6.659  11.277  0.2835 -0.1074 -0.1036
    8MOL0     O  974  11.616   6.659  11.271  0.3415 -0.8018  0.6830
    8MOL0     C  975  11.668   6.694  11.405 -0.6874 -0.8848 -0.1257
    8MOL0     C  976  11.817   6.669  11.420  0.0528  0.1852 -0.3187
    8MOL0     C  977  11.893   6.738  11.302 -0.3542 -0.1367 -0.2717
    8MOL0     C  978  12.031   6.685  11.290 -1.0377 -1.2311  0.4218
    8MOL0     C  979  12.125   6.794  11.249 -0.5297 -0.9082 -0.6759
    8MOL0     C  980  12.239   6.741  11.165 -0.3889  0.7006 -0.1650
    8MOL0     C  981  12.333   6.648  11.253 -1.0450 -0.1578  0.2397
    8MOL0     C  982  12.446   6.572  11.173 -0.6170  0.2843 -0.1845
    8MOL0     N  983  12.571   6.541  11.242  0.2577  0.0444 -0.6639
    8MOL0     C  984  12.659   6.635  11.269 -0.0810 -0.0388  1.0772
    8MOL0     C  985  12.745   6.573  11.350  0.0395  1.0086 -0.5638
    8MOL0     C  986  12.865   6.630  11.420 -0.2938 -0.6028  0.5101
    8MOL0     C  987  12.978   6.639  11.323  0.2587 -0.5113 -0.2191
    8MOL0     C  988  13.095   6.725  11.373  0.3256 -0.3899 -0.1734
    8MOL0     C  989  13.226   6.715  11.298 -0.0649  0.3259  0.3724
    8MOL0     O  990  13.286   6.594  11.343 -0.2184 -0.3040 -0.1484
    8MOL0     C  991  13.424   6.563  11.348 -0.1866  0.2696  0.3260
    8MOL0     C  992  13.454   6.461  11.431 -0.2121  0.9157  0.0036
    8MOL0     C  993  13.585   6.404  11.441 -0.9402 -1.0723 -0.3727
    8MOL0     C  994  13.612   6.290  11.538 -0.8878  0.6947 -0.3095
    8MOL0     C  995  13.690   6.463  11.359 -0.0875  0.1029 -0.4594
    8MOL0     C  996  13.824   6.418  11.354 -0.0002  0.3903 -0.9005
    8MOL0     O  997  13.921   6.505  11.336  0.0479 -0.2524 -0.4437
    8MOL0     C  998  14.056   6.466  11.346 -0.1340  0.3684  0.4523
    8MOL0     C  999  14.128   6.470  11.226  0.5797  0.4049  0.6363
    8MOL0     C 1000  14.263   6.431  11.227  0.6908  0.6427  0.7319
    8MOL0     C 1001  14.315   6.369  11.339 -0.2237  0.7184 -0.0756
    8MOL0     O 1002  14.442   6.320  11.325 -0.1783 -0.0816  0.7770
    8MOL0     C 1003  14.453   6.218  11.231  0.0260  0.9368  0.1884
    8MOL0     C 1004  14.600   6.171  11.221 -1.1220  0.1204 -0.2438
    8MOL0     C 1005  14.690   6.271  11.142 -0.2460 -0.1454  0.4461
    8MOL0     C 1006  14.838   6.231  11.159 -0.4082 -0.0010 -0.5830
    8MOL0     C 1007  14.926   6.346  11.118 -0.9116  0.1423  0.0279
    8MOL0     C 1008  14.880   6.422  11.002  0.0054  0.5032 -0.4710
    8MOL0     C 1009  14.998   6.524  10.962  0.6429  1.0504 -1.2167
    8MOL0     C 1010  14.956   6.617  10.848  0.8032  0.6578  0.7136
    8MOL0    Cl 1011  14.878   6.529  10.709  0.1338  0.2725  0.2301
    8MOL0     C 1012  14.250   6.360  11.456  0.1330 -0.6152 -0.2298
    8MOL0     C 1013  14.120   6.412  11.460  0.6586  0.3583 -0.1922
    8MOL0     O 1014  13.838   6.297  11.353 -0.4208  0.5487  1.1238
    8MOL0     C 1015  13.648   6.568  11.275  0.5157 -0.2844  0.2961
    8MOL0     C 1016  13.522   6.622  11.272 -0.6309 -0.5162 -0.4675
    8MOL0     N 1017  12.717   6.444  11.364  0.4313 -0.4051  0.7722
    8MOL0     N 1018  12.621   6.424  11.281 -0.4753  0.7964 -0.8134
    8MOL0     C 1019  11.401   6.773  11.308  0.0047  0.5015 -0.2331
    8MOL0     C 1020  11.265   6.775  11.294  0.2247  0.0674 -0.8945
    8MOL0     C 1021  10.830   6.734  11.304  0.0487  0.0665  0.3573
    8MOL0     C 1022  10.751   6.798  11.409 -0.2635  0.6998 -0.2533
    8MOL0     C 1023  10.608   6.787  11.411 -0.2059 -0.0591 -0.6121
    8MOL0     C 1024  10.539   6.726  11.298  0.6288 -0.2387 -0.5777
    8MOL0     O 1025  10.402   6.704  11.303 -0.0693  0.2543  0.0885
    8MOL0     C 1026  10.391   6.567  11.353  0.0944 -1.0293  0.3322
    8MOL0     C 1027  10.260   6.543  11.415  0.0654  0.4146  0.0292
    8MOL0     C 1028  10.150   6.541  11.310 -0.3932 -1.0272 -0.1983
    8MOL0     C 1029  10.011   6.511  11.369 -0.2806  0.1864  0.6671
    8MOL0     C 1030   9.909   6.495  11.265 -0.4661 -0.8538 -0.4940
    8MOL0     C 1031   9.817   6.499  11.192  0.4400  0.5074 -1.1107
    8MOL0     C 1032  10.622   6.670  11.202  0.0096 -0.2769  0.1857
    8MOL0     C 1033  10.762   6.674  11.199 -0.3754  0.1101  0.7412
    8MOL0     C 1034  10.823   6.613  11.066 -0.8836 -0.4440  0.8147
    8MOL0     H 1035  11.220   6.448  11.239  0.4021  0.5732  2.3356
    8MOL0     H 1036  11.451   6.442  11.250 -1.3886  0.6883 -3.0201
    8MOL0     H 1037  11.627   6.625  11.479  1.8219 -2.1352  0.1919
    8MOL0     H 1038  11.634   6.795  11.430 -0.2283 -0.6729 -0.3604
    8MOL0     H 1039  11.857   6.701  11.517  0.1282 -1.1085  0.1103
    8MOL0     H 1040  11.839   6.561  11.420  2.0274  0.5391  0.3907
    8MOL0     H 1041  11.843   6.717  11.207 -1.4814  0.1953  0.2234
    8MOL0     H 1042  11.895   6.843  11.335 -0.0149 -0.2017 -0.0877
    8MOL0     H 1043  12.059   6.667  11.394 -0.0586 -0.3915  0.3240
    8MOL0     H 1044  12.040   6.591  11.234  0.5094  0.7102 -2.8666
    8MOL0     H 1045  12.164   6.837  11.342 -1.8324  1.7239 -1.2542
    8MOL0     H 1046  12.071   6.878  11.204  1.8868  2.2576  1.8541
    8MOL0     H 1047  12.208   6.677  11.082  0.3144  0.7494 -0.4713
    8MOL0     H 1048  12.296   6.825  11.125 -0.6872  1.5613  1.1509
    8MOL0     H 1049  12.280   6.575  11.316 -0.7403 -2.0042 -1.5114
    8MOL0     H 1050  12.381   6.710  11.329 -1.5976 -0.4777  0.8574
    8MOL0     H 1051  12.411   6.480  11.127 -0.5468  0.5195 -0.7194
    8MOL0     H 1052  12.479   6.627  11.084 -1.1479  1.2073  0.1744
    8MOL0     H 1053  12.657   6.738  11.235  1.1975 -0.4280 -0.2432
    8MOL0     H 1054  12.908   6.558  11.491  0.6975 -0.9439 -0.3996
    8MOL0     H 1055  12.838   6.722  11.473  2.2028  1.1383 -1.0404
    8MOL0     H 1056  13.015   6.537  11.310 -0.2964 -0.9441  1.4382
    8MOL0     H 1057  12.955   6.687  11.227  5.1318  2.1315 -0.4044
    8MOL0     H 1058  13.065   6.830  11.373  2.0527  0.1366  0.5415
    8MOL0     H 1059  13.110   6.699  11.478 -0.4525 -0.9775 -0.1937
    8MOL0     H 1060  13.204   6.711  11.191 -3.2080  3.3322  0.7440
    8MOL0     H 1061  13.283   6.804  11.326 -1.6574  2.2454 -2.0056
    8MOL0     H 1062  13.373   6.412  11.483 -1.0313 -0.5805 -2.5396
    8MOL0     H 1063  13.544   6.304  11.622 -2.8072  0.2416 -1.7081
    8MOL0     H 1064  13.712   6.289  11.583 -1.4141  3.8516  1.2004
    8MOL0     H 1065  13.591   6.196  11.487 -1.7204 -0.1282  1.4774
    8MOL0     H 1066  14.080   6.503  11.134 -0.7365 -0.7817  0.8512
    8MOL0     H 1067  14.323   6.442  11.137  0.4028  0.3086  0.5003
    8MOL0     H 1068  14.397   6.132  11.269  0.8323  0.7213  0.9083
    8MOL0     H 1069  14.429   6.245  11.128 -0.8702  0.1743  0.1800
    8MOL0     H 1070  14.632   6.166  11.326  0.0080  3.5816 -0.3061
    8MOL0     H 1071  14.598   6.070  11.179  0.8115 -0.3083  0.5944
    8MOL0     H 1072  14.681   6.373  11.181 -0.0791 -0.4952  1.4233
    8MOL0     H 1073  14.669   6.274  11.034  2.0432  0.8453 -0.0231
    8MOL0     H 1074  14.860   6.140  11.103  1.3660 -1.2953  1.9978
    8MOL0     H 1075  14.865   6.211  11.263  1.2532  0.2795 -0.9465
    8MOL0     H 1076  14.931   6.415  11.203 -2.4917  0.3338  0.0029
    8MOL0     H 1077  15.022   6.301  11.091 -0.5285  0.9738 -0.0336
    8MOL0     H 1078  14.788   6.477  11.025 -1.4361 -2.2265  0.8188
    8MOL0     H 1079  14.860   6.351  10.920  2.9431 -1.6651  0.5465
    8MOL0     H 1080  15.088   6.467  10.938 -0.2936 -2.3054  2.1425
    8MOL0     H 1081  15.023   6.589  11.046  1.4484  2.1104 -2.2529
    8MOL0     H 1082  15.044   6.673  10.814  1.0196  0.3336  0.7349
    8MOL0     H 1083  14.883   6.689  10.885 -2.6407 -1.3243 -1.7472
    8MOL0     H 1084  14.297   6.315  11.542  1.5955 -0.1983 -0.7788
    8MOL0     H 1085  14.066   6.424  11.554 -3.6157 -2.0214 -2.0603
    8MOL0     H 1086  13.718   6.605  11.201  1.4342 -2.1120  0.2029
    8MOL0     H 1087  13.498   6.703  11.204  4.9197  1.3567 -0.6330
    8MOL0     H 1088  11.455   6.864  11.332 -0.1565  0.3291  0.8261
    8MOL0     H 1089  11.222   6.871  11.321 -0.4287 -0.9576  2.1445
    8MOL0     H 1090  10.791   6.862  11.486  0.4509 -2.7892  2.5764
    8MOL0     H 1091  10.548   6.826  11.493 -0.1156 -2.9239  0.9602
    8MOL0     H 1092  10.412   6.492  11.275  1.2862 -1.6329  1.1949
    8MOL0     H 1093  10.466   6.545  11.430 -0.1395  2.3331  1.6867
    8MOL0     H 1094  10.235   6.621  11.488  0.9970  0.2374  0.5637
    8MOL0     H 1095  10.255   6.447  11.466 -1.8413 -0.4087 -1.6089
    8MOL0     H 1096  10.148   6.637  11.258 -1.7986 -0.7948  0.2379
    8MOL0     H 1097  10.160   6.470  11.226 -4.5952  0.4228 -2.2451
    8MOL0     H 1098   9.977   6.583  11.445 -2.6115 -1.2747  1.1044
    8MOL0     H 1099  10.010   6.417  11.424 -1.6732  1.4206  2.9274
    8MOL0     H 1100   9.742   6.509  11.117  0.5869  3.0753 -1.0279
    8MOL0     H 1101  10.569   6.615  11.124  0.0417 -2.2105  1.4857
    8MOL0     H 1102  10.895   6.678  11.015  1.0719 -3.1441 -0.0442
    8MOL0     H 1103  10.867   6.514  11.080 -2.4875 -1.4919 -1.0571
    8MOL0     H 1104  10.743   6.602  10.992  0.4819  0.8443 -0.9452
    9MOL0     O 1105  11.041   3.298   4.758 -0.3306  0.2281 -0.0447
    9MOL0     C 1106  10.945   3.245   4.699  0.2795  0.1218 -0.0724
    9MOL0     O 1107  10.953   3.153   4.598 -0.2944 -0.3799  0.5336
    9MOL0     C 1108  11.076   3.106   4.562  0.9468  0.0355 -0.1072
    9MOL0     C 1109  11.071   2.966   4.519 -0.4097  0.1563 -0.4879
    9MOL0     C 1110  11.192   2.905   4.470 -0.7124  0.0254 -1.3324
    9MOL0     C 1111  11.317   2.986   4.464  0.5282 -0.1602  0.0054
    9MOL0     O 1112  11.430   2.917   4.434 -0.5607 -0.2568  0.5914
    9MOL0     C 1113  11.555   2.959   4.483 -1.2113  0.2735  0.1979
    9MOL0     C 1114  11.652   2.840   4.465 -0.1440  0.1253 -0.0262
    9MOL0     C 1115  11.789   2.893   4.430  0.2739 -0.2554 -0.1423
    9MOL0     C 1116  11.894   2.790   4.394  0.2658 -0.1019  0.4199
    9MOL0     C 1117  12.019   2.858   4.327  0.3405  0.1890 -0.7115
    9MOL0     C 1118  12.101   2.929   4.440  0.2098  0.7021  0.6654
    9MOL0     C 1119  12.227   2.990   4.379  0.3176 -0.5172 -1.4074
    9MOL0     C 1120  12.330   3.042   4.487 -0.0384  0.5871  0.2167
    9MOL0     N 1121  12.446   2.939   4.513 -0.5915 -0.0974  0.0934
    9MOL0     C 1122  12.447   2.813   4.465 -0.0068 -0.5695 -0.0914
    9MOL0     C 1123  12.568   2.758   4.500 -0.3920 -0.9208  1.3166
    9MOL0     C 1124  12.615   2.619   4.464  0.6261 -0.0931  0.1719
    9MOL0     C 1125  12.757   2.634   4.398  0.4971  0.0998  0.1820
    9MOL0     C 1126  12.771   2.499   4.327 -0.7599  0.1666 -0.3085
    9MOL0     C 1127  12.912   2.472   4.275  0.4469  0.5417 -1.0855
    9MOL0     O 1128  12.986   2.427   4.387  0.0320 -0.2079  0.5290
    9MOL0     C 1129  13.126   2.433   4.391 -0.5287 -0.0406 -0.4420
    9MOL0     C 1130  13.201   2.431   4.274 -0.4531  0.5798  0.3779
    9MOL0     C 1131  13.342   2.429   4.274 -0.6492 -0.0793 -0.4997
    9MOL0     C 1132  13.404   2.454   4.145 -0.1461  0.2365 -0.3960
    9MOL0     C 1133  13.412   2.424   4.396  0.0125  0.6175  0.3294
    9MOL0     C 1134  13.565   2.431   4.417  0.6147 -0.1150 -0.1953
    9MOL0     O 1135  13.645   2.486   4.321 -0.6470 -0.1624 -0.2835
    9MOL0     C 1136  13.767   2.540   4.354  0.4575 -0.0202 -0.5097
    9MOL0     C 1137  13.771   2.659   4.432 -0.2559  0.3624 -0.1596
    9MOL0     C 1138  13.889   2.731   4.440  0.5282  0.2811  0.9754
    9MOL0     C 1139  14.009   2.670   4.392  0.4441 -0.3027 -0.5002
    9MOL0     O 1140  14.120   2.745   4.389  0.7982  0.1271 -0.0218
    9MOL0     C 1141  14.124   2.855   4.296 -0.3430  0.4586  0.5372
    9MOL0     C 1142  14.247   2.943   4.331 -0.0826  0.1939  0.5236
    9MOL0     C 1143  14.384   2.870   4.303 -0.8101 -0.0783 -0.3700
    9MOL0     C 1144  14.504   2.963   4.275 -0.8812 -0.5543 -0.0565
    9MOL0     C 1145  14.619   2.861   4.249 -0.1231 -0.0975 -0.3008
    9MOL0     C 1146  14.742   2.940   4.214 -0.6521 -0.3166  0.1097
    9MOL0     C 1147  14.813   2.860   4.100  0.2866  0.3957 -0.7678
    9MOL0     C 1148  14.955   2.909   4.100 -0.4520 -0.0620 -0.3421
    9MOL0    Cl 1149  15.052   2.789   4.015 -0.4741  0.0440  0.1516
    9MOL0     C 1150  14.000   2.553   4.322 -0.6786 -0.8291 -1.0894
    9MOL0     C 1151  13.883   2.479   4.312  0.7334  0.3578 -0.5616
    9MOL0     O 1152  13.599   2.387   4.523 -0.5589 -0.3096 -0.2321
    9MOL0     C 1153  13.330   2.423   4.511  0.2795  0.2309 -0.4759
    9MOL0     C 1154  13.190   2.421   4.511  1.2957  0.2453 -0.4513
    9MOL0     N 1155  12.639   2.852   4.576 -0.6523  0.3065 -0.0853
    9MOL0     N 1156  12.564   2.963   4.580  0.1384 -0.2456 -0.8652
    9MOL0     C 1157  11.310   3.123   4.490 -0.7851 -0.6965 -0.0071
    9MOL0     C 1158  11.191   3.182   4.539  0.0597  0.3252 -0.2859
    9MOL0     C 1159  10.807   3.316   4.719 -0.4003 -0.1039 -0.0863
    9MOL0     C 1160  10.728   3.316   4.599 -0.4409 -0.1033 -0.5270
    9MOL0     C 1161  10.596   3.364   4.613 -0.5959 -0.5845  0.1720
    9MOL0     C 1162  10.541   3.410   4.732 -0.1680 -0.3098  0.3645
    9MOL0     O 1163  10.412   3.443   4.772  1.0884 -0.3787 -0.1991
    9MOL0     C 1164  10.306   3.400   4.684 -0.6422  0.5779 -0.0985
    9MOL0     C 1165  10.170   3.411   4.751  0.2376 -0.6900 -0.1648
    9MOL0     C 1166  10.143   3.558   4.792 -0.2674  0.2514  0.6724
    9MOL0     C 1167  10.031   3.563   4.895  0.2143  0.3092 -0.3616
    9MOL0     C 1168   9.907   3.484   4.852 -0.5965 -0.2786  0.8080
    9MOL0     C 1169   9.828   3.402   4.810 -0.4529  0.3073  0.1106
    9MOL0     C 1170  10.630   3.428   4.840 -0.3062  0.2790 -0.6936
    9MOL0     C 1171  10.762   3.384   4.832 -0.5342  0.1865 -0.3986
    9MOL0     C 1172  10.856   3.406   4.943  0.0736 -0.2794  0.0245
    9MOL0     H 1173  10.986   2.904   4.543 -0.3190  0.0220 -0.5130
    9MOL0     H 1174  11.189   2.800   4.443 -1.4265 -1.4649  3.4850
    9MOL0     H 1175  11.549   2.976   4.590  2.6359  2.9550  0.1756
    9MOL0     H 1176  11.591   3.046   4.429 -1.5456  0.2049 -0.1462
    9MOL0     H 1177  11.657   2.780   4.557  0.0994  1.9723  1.2184
    9MOL0     H 1178  11.607   2.787   4.380 -2.1385  0.2087  0.9298
    9MOL0     H 1179  11.782   2.962   4.346  3.3559 -0.0824 -0.3938
    9MOL0     H 1180  11.823   2.951   4.516  0.9022 -0.3616 -0.3139
    9MOL0     H 1181  11.925   2.742   4.487  0.7689  1.0837  0.8853
    9MOL0     H 1182  11.840   2.718   4.333 -0.1621 -1.5468  2.4279
    9MOL0     H 1183  11.994   2.930   4.248 -1.5042  0.5626  0.1554
    9MOL0     H 1184  12.084   2.778   4.292  1.6178  1.0096 -0.2831
    9MOL0     H 1185  12.035   2.991   4.501  0.7555 -0.7251  2.8291
    9MOL0     H 1186  12.122   2.844   4.506  0.2954  0.8505  0.8297
    9MOL0     H 1187  12.205   3.076   4.316 -1.3682 -0.6434 -1.0627
    9MOL0     H 1188  12.269   2.909   4.320  2.7039 -1.6381  1.5485
    9MOL0     H 1189  12.374   3.137   4.455 -0.6070  0.1022 -2.2792
    9MOL0     H 1190  12.288   3.070   4.583 -0.0733  1.3626 -0.0165
    9MOL0     H 1191  12.367   2.753   4.423  0.5304  0.3976 -2.6280
    9MOL0     H 1192  12.550   2.588   4.382 -1.0725  0.5901  1.2138
    9MOL0     H 1193  12.611   2.544   4.542  0.4776  0.5142  0.7567
    9MOL0     H 1194  12.758   2.712   4.321  1.6273 -0.1604 -0.0757
    9MOL0     H 1195  12.835   2.653   4.473 -1.6265  0.1893  2.5315
    9MOL0     H 1196  12.754   2.416   4.397  3.2656 -1.0700 -0.4834
    9MOL0     H 1197  12.700   2.493   4.245  2.1711 -0.5508 -3.0179
    9MOL0     H 1198  12.890   2.388   4.209 -2.4220  1.6302 -1.6404
    9MOL0     H 1199  12.971   2.553   4.233  2.2184  0.7487  1.5432
    9MOL0     H 1200  13.147   2.434   4.180  0.1224  0.1275  0.0269
    9MOL0     H 1201  13.454   2.366   4.103  0.0094  0.7233 -1.2602
    9MOL0     H 1202  13.480   2.533   4.142  1.3300 -1.0067  1.5778
    9MOL0     H 1203  13.338   2.489   4.065  1.5955  1.5827 -1.3381
    9MOL0     H 1204  13.685   2.713   4.468  0.2031  1.1432 -0.2055
    9MOL0     H 1205  13.874   2.829   4.485  1.1073  1.0000 -0.3404
    9MOL0     H 1206  14.126   2.817   4.193  3.5310  1.0278  0.2790
    9MOL0     H 1207  14.032   2.910   4.315 -1.2826 -1.0645  0.5942
    9MOL0     H 1208  14.256   3.030   4.266 -1.6377 -1.3976 -2.0294
    9MOL0     H 1209  14.248   2.976   4.435  0.2483 -0.7030  0.8155
    9MOL0     H 1210  14.374   2.808   4.214 -2.1203 -0.1579 -0.1867
    9MOL0     H 1211  14.408   2.807   4.388 -2.1861 -0.5239 -0.2984
    9MOL0     H 1212  14.531   3.031   4.355 -0.2330 -0.4105 -0.3906
    9MOL0     H 1213  14.485   3.025   4.187 -0.6230  0.9885  0.9362
    9MOL0     H 1214  14.638   2.784   4.325  1.5718 -0.0199 -0.6104
    9MOL0     H 1215  14.575   2.806   4.166  0.5446  0.1119 -0.8047
    9MOL0     H 1216  14.809   2.932   4.300 -1.7537 -1.1791  0.9225
    9MOL0     H 1217  14.733   3.044   4.182 -1.4000 -0.2680  0.4540
    9MOL0     H 1218  14.762   2.878   4.005  0.8327  0.5101 -1.0460
    9MOL0     H 1219  14.816   2.754   4.124  0.4486  0.8030  1.1791
    9MOL0     H 1220  15.003   2.922   4.197 -0.3175  1.3648 -0.5837
    9MOL0     H 1221  14.968   3.005   4.050  1.1407 -0.4972 -0.8431
    9MOL0     H 1222  14.095   2.511   4.288 -0.4015  0.2732 -1.7162
    9MOL0     H 1223  13.860   2.389   4.256 -0.3900  0.6502 -0.6033
    9MOL0     H 1224  13.376   2.424   4.610 -2.3959  0.8411  0.8567
    9MOL0     H 1225  13.140   2.422   4.607 -0.0268  0.1702 -1.1268
    9MOL0     H 1226  11.396   3.189   4.490 -1.6719  0.5034 -0.7340
    9MOL0     H 1227  11.185   3.288   4.560 -0.3723 -0.2693  3.2369
    9MOL0     H 1228  10.757   3.282   4.501 -1.8430 -0.7818 -0.7341
    9MOL0     H 1229  10.533   3.370   4.525 -3.0440  2.0318  1.9160
    9MOL0     H 1230  10.307   3.451   4.587 -0.3258  1.9231  0.5927
    9MOL0     H 1231  10.328   3.295   4.660  1.6913  1.5267 -2.6837
    9MOL0     H 1232  10.171   3.355   4.846 -1.4933 -0.4774  0.0133
    9MOL0     H 1233  10.088   3.373   4.690  0.3892 -2.7805  0.8343
    9MOL0     H 1234  10.235   3.608   4.820  0.2742 -0.3416 -0.0032
    9MOL0     H 1235  10.108   3.606   4.699 -0.9343  3.1692  2.3087
    9MOL0     H 1236  10.005   3.667   4.917 -2.1352  0.1140 -1.8535
    9MOL0     H 1237  10.072   3.510   4.981  0.8014  1.2054 -0.0703
    9MOL0     H 1238   9.762   3.321   4.790 -1.9278  1.0798  1.6545
    9MOL0     H 1239  10.582   3.466   4.930  0.4728 -0.0253 -0.1353
    9MOL0     H 1240  10.923   3.489   4.919 -1.7552  0.8418 -1.4004
    9MOL0     H 1241  10.796   3.427   5.032  0.9446 -2.6990  1.2739
    9MOL0     H 1242  10.906   3.314   4.976 -0.3354  0.3165  2.4905
   10MOL0     O 1243   7.649   5.332   3.983 -0.7552 -0.3932 -1.0343
   10MOL0     C 1244   7.663   5.446   4.028  0.0191  0.4985 -0.4459
   10MOL0     O 1245   7.756   5.535   3.991 -0.4095 -0.2754 -0.3555
   10MOL0     C 1246   7.855   5.491   3.901  0.5318 -0.6435 -0.0760
   10MOL0     C 1247   7.977   5.426   3.938 -0.2494  0.7782 -0.3251
   10MOL0     C 1248   8.066   5.391   3.840  0.1803  0.2896 -0.6659
   10MOL0     C 1249   8.043   5.427   3.706  0.5415  0.4914 -0.7789
   10MOL0     O 1250   8.139   5.391   3.617 -0.0338  0.5993 -0.0830
   10MOL0     C 1251   8.116   5.415   3.476 -0.2144  0.0235  0.7233
   10MOL0     C 1252   8.224   5.331   3.409  0.4663 -0.0228 -0.0592
   10MOL0     C 1253   8.202   5.180   3.431 -0.4142 -0.0715 -0.9454
   10MOL0     C 1254   8.294   5.131   3.548 -0.2907 -0.4815  0.0892
   10MOL0     C 1255   8.434   5.116   3.491  0.2417 -0.4549 -1.7039
   10MOL0     C 1256   8.522   5.093   3.613 -0.2808  0.3766  1.2860
   10MOL0     C 1257   8.661   5.048   3.574  0.0809  0.3225  0.5855
   10MOL0     C 1258   8.753   5.158   3.519  0.4466 -0.4298  0.8495
   10MOL0     N 1259   8.806   5.250   3.623  0.1573 -0.5810 -0.1399
   10MOL0     C 1260   8.910   5.217   3.702 -0.5148  0.4411 -0.3523
   10MOL0     C 1261   8.940   5.333   3.766 -0.1990 -0.6949 -0.5010
   10MOL0     C 1262   9.035   5.360   3.879  0.3399  0.0666  0.3832
   10MOL0     C 1263   9.181   5.398   3.829  0.6233 -0.2735  0.9255
   10MOL0     C 1264   9.181   5.545   3.785  0.2993  0.1616 -0.1547
   10MOL0     C 1265   9.305   5.571   3.708 -0.9514  0.1661 -0.2969
   10MOL0     O 1266   9.310   5.709   3.690  0.8835 -0.9063  0.0574
   10MOL0     C 1267   9.416   5.765   3.623  0.7344  0.0612 -0.0386
   10MOL0     C 1268   9.404   5.908   3.592  0.1078  0.4194  0.6165
   10MOL0     C 1269   9.511   5.968   3.522  0.5948  0.4096 -0.8488
   10MOL0     C 1270   9.512   6.110   3.511  0.4547 -0.5165  0.9512
   10MOL0     C 1271   9.613   5.885   3.463  0.4310 -0.7329  0.3796
   10MOL0     C 1272   9.730   5.938   3.376  0.7395  1.0394 -0.7117
   10MOL0     O 1273   9.799   5.838   3.312  0.4711  0.0172  0.5815
   10MOL0     C 1274   9.905   5.869   3.230 -0.3271  0.4890 -0.0124
   10MOL0     C 1275   9.907   5.830   3.101 -0.8085 -1.0084  0.4534
   10MOL0     C 1276  10.019   5.858   3.019  0.0320  0.3077  0.0600
   10MOL0     C 1277  10.135   5.900   3.069  0.4610  0.3097 -0.0755
   10MOL0     O 1278  10.249   5.907   2.986 -0.7237  0.2358  0.3352
   10MOL0     C 1279  10.367   5.974   3.023 -0.6634 -0.5036 -1.0801
   10MOL0     C 1280  10.461   5.969   2.903 -0.5159  0.1871 -0.5371
   10MOL0     C 1281  10.408   6.020   2.771  0.6942 -0.8496 -0.1333
   10MOL0     C 1282  10.469   6.160   2.734  0.2351  0.6642 -0.3083
   10MOL0     C 1283  10.601   6.145   2.654 -0.1821  0.2037 -0.7147
   10MOL0     C 1284  10.677   6.272   2.624 -0.7977  0.4925 -0.5171
   10MOL0     C 1285  10.721   6.341   2.750 -0.2123  0.3290 -0.4090
   10MOL0     C 1286  10.823   6.447   2.726 -1.2642 -0.3283 -0.3980
   10MOL0    Cl 1287  10.948   6.384   2.611 -0.1271  0.1666 -0.3549
   10MOL0     C 1288  10.138   5.924   3.203  0.3229 -0.3590  0.0249
   10MOL0     C 1289  10.026   5.927   3.280 -0.3803 -0.1985  0.6458
   10MOL0     O 1290   9.751   6.060   3.354 -0.1472 -0.3240 -0.4446
   10MOL0     C 1291   9.621   5.748   3.498  0.0921 -0.5951  0.6396
   10MOL0     C 1292   9.528   5.691   3.573 -0.5304  0.5271 -0.5523
   10MOL0     N 1293   8.849   5.434   3.724  0.3090 -0.2208  0.2037
   10MOL0     N 1294   8.770   5.380   3.641 -0.3643 -0.3639 -0.3395
   10MOL0     C 1295   7.921   5.487   3.669 -1.3405  0.5570  0.0334
   10MOL0     C 1296   7.829   5.523   3.762  0.0917  0.0264  0.0351
   10MOL0     C 1297   7.547   5.501   4.105  0.0203  1.0129 -0.2976
   10MOL0     C 1298   7.569   5.629   4.159  0.7830  0.1504 -0.0602
   10MOL0     C 1299   7.476   5.681   4.250 -0.1244 -0.1206  0.2279
   10MOL0     C 1300   7.353   5.625   4.272 -0.2061 -0.2286  0.4797
   10MOL0     O 1301   7.271   5.703   4.349 -0.1774 -0.3710  0.0236
   10MOL0     C 1302   7.130   5.672   4.359 -1.1642 -0.8242  0.5594
   10MOL0     C 1303   7.101   5.550   4.447  0.2553 -0.4015 -0.5412
   10MOL0     C 1304   6.992   5.573   4.548 -0.8842  0.1798  0.8411
   10MOL0     C 1305   6.852   5.542   4.489 -0.6188  0.8406 -0.8977
   10MOL0     C 1306   6.795   5.628   4.381 -0.0217  0.0671 -0.1488
   10MOL0     C 1307   6.751   5.689   4.283 -0.2734 -0.4775 -0.1732
   10MOL0     C 1308   7.328   5.493   4.217  0.8137  0.3393 -0.5580
   10MOL0     C 1309   7.426   5.426   4.143  0.1452  0.2917 -0.1742
   10MOL0     C 1310   7.394   5.286   4.091 -0.3676  0.0168  0.1857
   10MOL0     H 1311   7.989   5.427   4.046  0.7353 -0.5368 -0.3924
   10MOL0     H 1312   8.148   5.333   3.881  0.2296  2.0088  1.8942
   10MOL0     H 1313   8.144   5.517   3.450 -1.7469  0.5620  1.0635
   10MOL0     H 1314   8.019   5.384   3.438  0.4594  0.1191 -1.1448
   10MOL0     H 1315   8.211   5.349   3.302  1.5662 -0.3059 -0.2491
   10MOL0     H 1316   8.326   5.356   3.438 -0.0006  0.7634  0.9617
   10MOL0     H 1317   8.098   5.164   3.462  0.1100 -0.3621  0.7758
   10MOL0     H 1318   8.223   5.125   3.339 -1.5948 -3.2118  0.5221
   10MOL0     H 1319   8.287   5.200   3.633 -1.0386 -0.8760  0.3587
   10MOL0     H 1320   8.258   5.037   3.590  1.0905 -0.3294  1.7423
   10MOL0     H 1321   8.459   5.204   3.431 -0.9102  0.6805 -0.5770
   10MOL0     H 1322   8.438   5.022   3.435 -0.8362 -3.1086  2.2639
   10MOL0     H 1323   8.532   5.181   3.677  0.9278 -1.1711  3.3622
   10MOL0     H 1324   8.476   5.014   3.674  2.9789 -3.5897 -0.8955
   10MOL0     H 1325   8.643   4.970   3.500  2.9183  0.4845 -0.3670
   10MOL0     H 1326   8.703   5.002   3.664  0.1129  1.3857  1.1351
   10MOL0     H 1327   8.836   5.118   3.459 -0.0818  1.0322 -0.9566
   10MOL0     H 1328   8.699   5.216   3.444  1.2567 -0.4530  0.2366
   10MOL0     H 1329   8.955   5.118   3.712 -1.3767  0.2953  3.0854
   10MOL0     H 1330   9.041   5.270   3.942  0.0235  0.2269  0.6455
   10MOL0     H 1331   8.988   5.437   3.941 -0.6405 -1.1877  1.2629
   10MOL0     H 1332   9.251   5.383   3.912  1.5038  1.5438  0.5812
   10MOL0     H 1333   9.200   5.334   3.742  1.4360 -0.7831  1.4617
   10MOL0     H 1334   9.093   5.577   3.730 -1.5898 -0.9037  2.0537
   10MOL0     H 1335   9.184   5.608   3.874 -3.0409  0.9123 -0.4416
   10MOL0     H 1336   9.394   5.553   3.769 -0.8581  0.3318 -0.3802
   10MOL0     H 1337   9.302   5.518   3.612 -0.1937 -1.4397  0.5400
   10MOL0     H 1338   9.317   5.963   3.625 -1.0219  0.8892 -2.7433
   10MOL0     H 1339   9.482   6.122   3.406  0.6180  0.0632  0.9689
   10MOL0     H 1340   9.606   6.154   3.545 -0.9054  0.9677  2.9568
   10MOL0     H 1341   9.435   6.150   3.578 -0.5019 -1.1513  0.2589
   10MOL0     H 1342   9.816   5.782   3.068 -0.0906 -1.8275 -0.4127
   10MOL0     H 1343  10.021   5.837   2.913 -2.0588 -0.7724  0.2063
   10MOL0     H 1344  10.368   6.078   3.055  3.4800 -0.3114 -1.3250
   10MOL0     H 1345  10.404   5.915   3.108 -1.0843 -0.7491 -1.0645
   10MOL0     H 1346  10.550   6.026   2.930  0.4679 -0.7898 -1.5784
   10MOL0     H 1347  10.487   5.863   2.893 -1.7523 -0.3385  1.3279
   10MOL0     H 1348  10.299   6.029   2.768  0.7790  0.2214 -0.5516
   10MOL0     H 1349  10.437   5.951   2.691  0.9499 -3.2420  1.9345
   10MOL0     H 1350  10.478   6.223   2.823  0.7596  0.8543 -0.4909
   10MOL0     H 1351  10.393   6.209   2.671  0.2524  1.6474  0.4088
   10MOL0     H 1352  10.669   6.076   2.706  0.3957  2.0923  1.1901
   10MOL0     H 1353  10.588   6.095   2.557 -2.7153  0.1245 -0.4036
   10MOL0     H 1354  10.602   6.335   2.574  0.7198  2.2784 -0.6309
   10MOL0     H 1355  10.754   6.244   2.551 -0.7315 -0.9733  0.0927
   10MOL0     H 1356  10.749   6.262   2.821 -1.1475  1.1361  0.9135
   10MOL0     H 1357  10.637   6.387   2.802  1.0605 -0.8052  2.9383
   10MOL0     H 1358  10.869   6.497   2.812 -1.2264  0.6648 -0.9728
   10MOL0     H 1359  10.770   6.529   2.675 -0.0867 -1.6321 -4.0684
   10MOL0     H 1360  10.228   5.952   3.258 -0.8525  0.6780  1.4941
   10MOL0     H 1361  10.014   5.970   3.379  1.2539 -0.3271  0.9183
   10MOL0     H 1362   9.704   5.692   3.454  0.4941  1.3572 -1.2557
   10MOL0     H 1363   9.534   5.584   3.593  4.3132  1.0071  2.2270
   10MOL0     H 1364   7.900   5.521   3.568 -1.8863  1.5474  0.4738
   10MOL0     H 1365   7.737   5.567   3.725  0.9726  0.6434 -1.5224
   10MOL0     H 1366   7.655   5.694   4.148 -0.6333  2.1576  0.1895
   10MOL0     H 1367   7.489   5.777   4.299 -2.8280 -1.1527  3.2848
   10MOL0     H 1368   7.086   5.764   4.398  1.1570  0.3304  0.6149
   10MOL0     H 1369   7.091   5.641   4.261 -2.2992  0.4587  0.5741
   10MOL0     H 1370   7.195   5.542   4.502  0.0440 -1.5162 -0.3185
   10MOL0     H 1371   7.086   5.462   4.383  2.4585 -0.6835 -0.7444
   10MOL0     H 1372   7.001   5.504   4.633  0.4434  0.3278  0.8397
   10MOL0     H 1373   6.988   5.677   4.580 -3.8339  0.5459 -0.4060
   10MOL0     H 1374   6.792   5.531   4.580 -0.4733 -1.5838 -1.0146
   10MOL0     H 1375   6.850   5.453   4.424 -1.5423  1.8602 -2.3219
   10MOL0     H 1376   6.707   5.737   4.198 -1.3590  0.7052  1.0188
   10MOL0     H 1377   7.238   5.437   4.240 -0.0440  1.5104 -0.9655
   10MOL0     H 1378   7.364   5.296   3.986  0.2039  2.6319  0.2072
   10MOL0     H 1379   7.478   5.217   4.101 -0.1558 -0.1403 -2.1424
   10MOL0     H 1380   7.318   5.247   4.159  0.1342  1.7716  1.8159
   11MOL0     O 1381   0.029   2.526   2.139  0.3966  0.0185 -0.0538
   11MOL0     C 1382  -0.037   2.628   2.101 -0.3418  0.4002  0.0038
   11MOL0     O 1383  -0.114   2.633   1.989 -0.2002  0.1883 -0.5399
   11MOL0     C 1384  -0.124   2.518   1.909  0.2042  0.0227 -0.4923
   11MOL0     C 1385  -0.013   2.464   1.838  0.3883 -0.0565 -0.0691
   11MOL0     C 1386  -0.022   2.357   1.747 -0.3013  0.4027  0.4534
   11MOL0     C 1387  -0.149   2.294   1.728 -0.6342 -0.7262  0.6436
   11MOL0     O 1388  -0.174   2.205   1.636  0.5114 -0.1324  0.3329
   11MOL0     C 1389  -0.110   2.208   1.510  0.4855  0.1237  0.0696
   11MOL0     C 1390  -0.146   2.086   1.430 -0.7555  0.8992  0.1501
   11MOL0     C 1391  -0.287   2.094   1.382 -0.4673  0.5317  0.0929
   11MOL0     C 1392  -0.316   1.971   1.288 -0.0882  0.0351 -0.2856
   11MOL0     C 1393  -0.343   1.845   1.365  0.3186  0.2803 -1.0925
   11MOL0     C 1394  -0.359   1.727   1.260 -0.5948  0.5585 -0.1139
   11MOL0     C 1395  -0.388   1.590   1.327  0.1255  0.0686  0.0805
   11MOL0     C 1396  -0.274   1.500   1.310  0.0710  0.2610 -0.6029
   11MOL0     N 1397  -0.165   1.563   1.387 -0.3353  0.2144 -0.2154
   11MOL0     C 1398  -0.068   1.644   1.329 -0.4755  0.7386  0.1326
   11MOL0     C 1399   0.012   1.682   1.433 -0.2327 -0.6892 -0.1289
   11MOL0     C 1400   0.125   1.786   1.436  0.5096  0.1354 -0.2098
   11MOL0     C 1401   0.162   1.872   1.306 -0.1664 -0.4121  0.4307
   11MOL0     C 1402   0.281   1.963   1.324  0.2013  0.0722 -0.9646
   11MOL0     C 1403   0.241   2.084   1.411 -0.2742  0.0387  0.3022
   11MOL0     O 1404   0.373   2.157   1.423  0.3641  0.0409  0.1083
   11MOL0     C 1405   0.382   2.286   1.462  0.3302 -0.0297  0.2422
   11MOL0     C 1406   0.447   2.375   1.379 -0.8849  0.2681 -0.2489
   11MOL0     C 1407   0.439   2.509   1.397  0.2582 -0.7309 -0.1685
   11MOL0     C 1408   0.507   2.588   1.304 -0.0139 -0.2604  0.0557
   11MOL0     C 1409   0.388   2.562   1.521 -0.2676 -0.4090  0.7225
   11MOL0     C 1410   0.410   2.705   1.565  0.4630  0.0367  0.1112
   11MOL0     O 1411   0.314   2.749   1.648 -0.1193 -0.4492  0.4552
   11MOL0     C 1412   0.313   2.883   1.694  0.7718  0.3191  0.4771
   11MOL0     C 1413   0.339   2.895   1.832 -0.8532  0.4168  0.3071
   11MOL0     C 1414   0.333   3.011   1.899  0.8319 -0.3755 -0.3530
   11MOL0     C 1415   0.305   3.123   1.826  0.4138  0.0859 -0.0032
   11MOL0     O 1416   0.295   3.236   1.902  0.2686  0.1551 -0.8391
   11MOL0     C 1417   0.200   3.341   1.863 -0.2551  0.4865  0.1268
   11MOL0     C 1418   0.185   3.435   1.981  0.4245  0.0269  0.0922
   11MOL0     C 1419   0.275   3.554   1.972 -0.3932 -1.2109 -0.7452
   11MOL0     C 1420   0.423   3.526   1.957  0.3704 -0.0785  0.4729
   11MOL0     C 1421   0.485   3.665   1.980  0.5209 -0.4321  0.9969
   11MOL0     C 1422   0.532   3.697   1.838  0.5238  0.1741 -0.6357
   11MOL0     C 1423   0.581   3.842   1.833  0.1296 -0.3143 -0.4594
   11MOL0     C 1424   0.664   3.896   1.706  0.2306  0.2833 -0.4664
   11MOL0    Cl 1425   0.549   3.885   1.568 -0.5839  0.1161 -0.2376
   11MOL0     C 1426   0.263   3.113   1.692  0.1622  0.4059  0.1057
   11MOL0     C 1427   0.275   2.992   1.622 -0.2152  0.9955 -0.3554
   11MOL0     O 1428   0.513   2.766   1.540  0.0348  0.2954 -0.5878
   11MOL0     C 1429   0.321   2.463   1.606  0.2291  0.3338 -0.8501
   11MOL0     C 1430   0.310   2.328   1.571 -0.4141  0.2405 -0.7891
   11MOL0     N 1431  -0.038   1.625   1.548 -0.0053  0.5316 -0.0758
   11MOL0     N 1432  -0.148   1.552   1.522 -0.0618  0.5185 -0.1594
   11MOL0     C 1433  -0.257   2.329   1.802  0.5149  1.0573 -0.8634
   11MOL0     C 1434  -0.249   2.437   1.888  0.0105  0.7232  0.9460
   11MOL0     C 1435  -0.023   2.753   2.170 -0.5046  0.4826 -0.0912
   11MOL0     C 1436   0.015   2.857   2.086  0.4783 -0.2738 -0.9975
   11MOL0     C 1437   0.064   2.979   2.137 -0.5147 -0.3711  0.0442
   11MOL0     C 1438   0.073   2.992   2.274 -0.7372  0.0824 -0.3574
   11MOL0     O 1439   0.127   3.101   2.340 -0.1952 -0.2251  0.3983
   11MOL0     C 1440   0.233   3.172   2.278 -0.1134 -0.0645  0.2841
   11MOL0     C 1441   0.369   3.092   2.304  0.8961  0.8990 -0.1523
   11MOL0     C 1442   0.383   3.090   2.456  0.0912  0.2124 -0.2713
   11MOL0     C 1443   0.465   3.216   2.500  0.0815 -0.9926 -0.0435
   11MOL0     C 1444   0.374   3.326   2.533  0.5739 -0.2687  0.0200
   11MOL0     C 1445   0.287   3.412   2.547 -0.5132 -0.1969 -0.2761
   11MOL0     C 1446   0.039   2.887   2.362  0.8527 -0.4182 -0.5478
   11MOL0     C 1447  -0.010   2.764   2.313 -0.1077  0.0238 -0.4038
   11MOL0     C 1448  -0.044   2.656   2.408  0.3073  0.4604  0.3209
   11MOL0     H 1449   0.085   2.511   1.845  1.0246 -0.9422 -2.1354
   11MOL0     H 1450   0.071   2.320   1.706  1.1417  3.2960  0.8273
   11MOL0     H 1451  -0.002   2.204   1.526  0.0642 -1.2103  3.1467
   11MOL0     H 1452  -0.123   2.300   1.451  1.3109  0.3543  0.2380
   11MOL0     H 1453  -0.080   2.073   1.343  1.6552  1.3236  1.8360
   11MOL0     H 1454  -0.124   1.998   1.491  1.5044 -0.7781 -2.7747
   11MOL0     H 1455  -0.347   2.080   1.473  1.4117 -0.6541  1.2079
   11MOL0     H 1456  -0.304   2.191   1.335  1.5355  0.0842 -1.6863
   11MOL0     H 1457  -0.406   1.996   1.232 -0.5302  2.1879  1.2400
   11MOL0     H 1458  -0.239   1.950   1.214 -3.1651 -2.8551 -3.0025
   11MOL0     H 1459  -0.434   1.851   1.425 -0.2618 -0.0478 -1.9090
   11MOL0     H 1460  -0.249   1.826   1.418  0.4520  1.2593 -0.9671
   11MOL0     H 1461  -0.450   1.760   1.209 -1.9279  0.1589  1.8905
   11MOL0     H 1462  -0.281   1.722   1.184 -0.1609 -0.6590  0.3940
   11MOL0     H 1463  -0.472   1.542   1.276  2.3023 -2.0106 -1.8027
   11MOL0     H 1464  -0.416   1.598   1.432 -2.1107  4.4688 -0.6177
   11MOL0     H 1465  -0.295   1.404   1.358  1.3377  0.4364  0.3590
   11MOL0     H 1466  -0.247   1.494   1.204  1.0349 -1.6198 -0.2917
   11MOL0     H 1467  -0.053   1.677   1.227  1.0399 -0.7660 -0.1800
   11MOL0     H 1468   0.208   1.734   1.486 -0.8512  0.1236  2.2087
   11MOL0     H 1469   0.091   1.855   1.514  2.7606  1.5071 -0.3319
   11MOL0     H 1470   0.197   1.808   1.225  0.9191 -2.3809  2.3663
   11MOL0     H 1471   0.069   1.920   1.275 -1.5476 -2.1273  1.7202
   11MOL0     H 1472   0.363   1.901   1.363  0.7475  0.3466 -1.6446
   11MOL0     H 1473   0.319   1.998   1.227 -0.8542  0.3312 -1.2932
   11MOL0     H 1474   0.158   2.138   1.364 -0.7433  0.2956  1.3953
   11MOL0     H 1475   0.213   2.058   1.513 -2.0324  2.0567  0.4152
   11MOL0     H 1476   0.497   2.329   1.294  1.9610 -1.2130  2.0450
   11MOL0     H 1477   0.612   2.600   1.333 -0.0448  0.1162  0.0167
   11MOL0     H 1478   0.453   2.683   1.301 -1.6192 -1.0569  1.7458
   11MOL0     H 1479   0.512   2.530   1.211  1.7003 -0.7502  0.4110
   11MOL0     H 1480   0.360   2.804   1.888  0.4657  0.0089 -0.7905
   11MOL0     H 1481   0.360   3.028   2.003  2.5736  3.1080 -1.1933
   11MOL0     H 1482   0.230   3.397   1.774 -2.8022  0.2968 -0.9373
   11MOL0     H 1483   0.102   3.297   1.845 -1.4349  2.3928  1.4434
   11MOL0     H 1484   0.086   3.478   1.998 -0.3389 -0.3200 -2.9187
   11MOL0     H 1485   0.209   3.380   2.073 -1.3339  2.0522  1.8646
   11MOL0     H 1486   0.252   3.614   2.061  2.4406 -2.8271  1.2529
   11MOL0     H 1487   0.239   3.619   1.892  1.5440  2.1481  0.8549
   11MOL0     H 1488   0.453   3.476   1.864 -0.4200  2.4397 -1.2194
   11MOL0     H 1489   0.448   3.463   2.043  0.5714  3.3142  3.1262
   11MOL0     H 1490   0.417   3.742   2.019 -0.8541 -0.3920 -1.2782
   11MOL0     H 1491   0.562   3.651   2.057  0.7167  3.3542  1.6736
   11MOL0     H 1492   0.441   3.697   1.777  0.6355  2.8581 -0.9232
   11MOL0     H 1493   0.613   3.635   1.799  1.8522  0.6039  1.2878
   11MOL0     H 1494   0.650   3.846   1.918 -2.0977 -2.3216  1.5842
   11MOL0     H 1495   0.497   3.910   1.851  0.6614  0.3918 -0.5707
   11MOL0     H 1496   0.756   3.847   1.673  0.2834 -0.7521  1.0796
   11MOL0     H 1497   0.686   4.001   1.723  0.1902  0.7457 -2.9601
   11MOL0     H 1498   0.229   3.198   1.633  2.2037  0.0850 -1.6789
   11MOL0     H 1499   0.250   2.975   1.518 -0.9129 -0.8638  0.0693
   11MOL0     H 1500   0.274   2.510   1.692  0.1590  0.0181 -0.7145
   11MOL0     H 1501   0.270   2.241   1.622  2.7141 -0.3355  0.8851
   11MOL0     H 1502  -0.352   2.277   1.794  0.7745  0.2081  0.9084
   11MOL0     H 1503  -0.340   2.469   1.938 -1.7545  1.0114 -2.1535
   11MOL0     H 1504   0.019   2.854   1.977  0.0583 -0.4282 -1.0107
   11MOL0     H 1505   0.085   3.061   2.069 -0.0062  0.1464  0.8060
   11MOL0     H 1506   0.222   3.188   2.171 -1.5757  0.8058  0.5369
   11MOL0     H 1507   0.234   3.269   2.329 -0.2240  0.2893 -0.3732
   11MOL0     H 1508   0.451   3.133   2.244  1.8673  0.0991  0.6023
   11MOL0     H 1509   0.339   2.995   2.264 -2.3796  2.0883 -0.9357
   11MOL0     H 1510   0.290   3.074   2.511  0.2772  1.3618  0.4009
   11MOL0     H 1511   0.443   3.000   2.476 -0.9669 -0.3983  0.2607
   11MOL0     H 1512   0.521   3.243   2.410  1.2938  1.6267  1.3895
   11MOL0     H 1513   0.538   3.204   2.581 -0.5285 -2.4236  0.3297
   11MOL0     H 1514   0.200   3.475   2.553 -0.2781  0.1477 -0.4110
   11MOL0     H 1515   0.063   2.908   2.466 -1.5334 -0.2314  0.0166
   11MOL0     H 1516  -0.074   2.695   2.505 -0.3430 -0.2382  0.4102
   11MOL0     H 1517  -0.133   2.604   2.370  0.0147  1.4889 -0.4552
   11MOL0     H 1518   0.045   2.591   2.412 -0.3724 -0.4914  0.4173
   12MOL0     O 1519   1.497   8.872   7.247 -0.7369  0.5100 -0.3000
   12MOL0     C 1520   1.539   8.958   7.327  0.3870  0.1548  0.6178
   12MOL0     O 1521   1.671   8.985   7.352 -0.4711 -0.0957 -0.3594
   12MOL0     C 1522   1.773   8.908   7.295 -0.5342 -0.6574 -1.3724
   12MOL0     C 1523   1.890   8.963   7.236  0.4926 -0.3034  0.6775
   12MOL0     C 1524   1.997   8.885   7.194  0.0515 -0.3014 -0.6882
   12MOL0     C 1525   1.993   8.746   7.201  0.0930 -0.5094  0.8906
   12MOL0     O 1526   2.092   8.669   7.142  0.3409  0.6900  0.2455
   12MOL0     C 1527   2.150   8.563   7.225 -0.4914  0.3342  0.6208
   12MOL0     C 1528   2.305   8.580   7.233 -0.0469  0.1031 -0.8863
   12MOL0     C 1529   2.370   8.570   7.095  0.4319  0.3705 -0.0824
   12MOL0     C 1530   2.403   8.434   7.035  0.6593 -0.6284  0.3232
   12MOL0     C 1531   2.498   8.454   6.914  0.0196  0.6483  0.2289
   12MOL0     C 1532   2.540   8.306   6.873  0.3551 -0.0159 -0.7200
   12MOL0     C 1533   2.583   8.297   6.720 -0.0956 -0.2026  0.4595
   12MOL0     C 1534   2.716   8.357   6.689 -0.5057 -0.0877 -0.0789
   12MOL0     N 1535   2.840   8.287   6.743  0.5186 -0.4399 -0.3407
   12MOL0     C 1536   2.858   8.172   6.812  1.2255  0.2124 -0.1147
   12MOL0     C 1537   2.986   8.169   6.858  0.4635  0.3316  0.4595
   12MOL0     C 1538   3.041   8.068   6.949  0.9650  0.3013 -0.5005
   12MOL0     C 1539   2.949   8.042   7.077 -1.2004 -0.7497 -0.3829
   12MOL0     C 1540   2.936   8.177   7.161 -0.7857  0.4745  0.8741
   12MOL0     C 1541   2.863   8.146   7.295  0.5260 -0.6355 -0.0360
   12MOL0     O 1542   2.725   8.146   7.269  0.8748 -0.3602 -0.0396
   12MOL0     C 1543   2.634   8.126   7.377  0.4390 -0.0218  0.0357
   12MOL0     C 1544   2.669   8.081   7.505 -0.0142  0.3090 -0.2383
   12MOL0     C 1545   2.587   8.059   7.613 -0.5248 -0.2638  0.4245
   12MOL0     C 1546   2.647   8.009   7.740  0.1209  0.3714 -0.0013
   12MOL0     C 1547   2.443   8.080   7.593  0.0607 -0.6269  0.1748
   12MOL0     C 1548   2.346   8.076   7.700 -0.0925  0.2662 -0.7037
   12MOL0     O 1549   2.355   8.143   7.819 -0.2555 -0.1123  0.7575
   12MOL0     C 1550   2.258   8.125   7.920  0.2894 -0.0208  1.0807
   12MOL0     C 1551   2.299   8.067   8.052  1.0555  0.1982  0.1099
   12MOL0     C 1552   2.189   8.050   8.138  0.5153 -0.6506 -0.6659
   12MOL0     C 1553   2.060   8.086   8.113 -0.3479 -1.1974 -0.2403
   12MOL0     O 1554   1.959   8.065   8.213 -0.4715  0.1686  0.0588
   12MOL0     C 1555   1.850   8.156   8.240 -0.0661  0.1259  0.1060
   12MOL0     C 1556   1.757   8.092   8.342 -0.6270 -0.7920 -0.8055
   12MOL0     C 1557   1.656   8.200   8.390 -0.5102  0.1723  0.4716
   12MOL0     C 1558   1.591   8.154   8.517 -0.6452 -0.3454  0.4614
   12MOL0     C 1559   1.500   8.260   8.573 -0.3228 -0.5291  1.0547
   12MOL0     C 1560   1.411   8.203   8.682  0.2812  0.2007  0.1173
   12MOL0     C 1561   1.343   8.302   8.766  0.4798 -0.3804 -0.3743
   12MOL0     C 1562   1.228   8.255   8.851  0.0230  0.0995 -0.7565
   12MOL0    Cl 1563   1.293   8.168   8.995 -0.2891  0.2148 -0.6801
   12MOL0     C 1564   2.029   8.145   7.989  0.2494 -0.8107 -0.5004
   12MOL0     C 1565   2.129   8.160   7.897  0.3964 -0.9308 -0.2115
   12MOL0     O 1566   2.269   7.985   7.680  0.3113 -0.4954  0.5246
   12MOL0     C 1567   2.403   8.132   7.470 -0.3070 -0.9346 -0.6680
   12MOL0     C 1568   2.488   8.143   7.355 -0.2209 -0.1328 -0.1231
   12MOL0     N 1569   3.032   8.294   6.826  0.6530  0.0514  0.9965
   12MOL0     N 1570   2.952   8.365   6.764  0.4981  0.5841  0.3690
   12MOL0     C 1571   1.886   8.683   7.264  0.3117  0.3533 -0.4392
   12MOL0     C 1572   1.777   8.766   7.306  0.1564  0.3203  0.3887
   12MOL0     C 1573   1.438   9.028   7.406  0.0008 -0.1376  0.5054
   12MOL0     C 1574   1.485   9.120   7.501  0.0285 -0.5659  0.0619
   12MOL0     C 1575   1.401   9.177   7.595  0.5206  0.2437  0.0530
   12MOL0     C 1576   1.262   9.162   7.594  0.6369 -0.0944  0.7653
   12MOL0     O 1577   1.194   9.216   7.704  0.5768 -1.0751 -0.0710
   12MOL0     C 1578   1.055   9.182   7.719  0.1033  0.2039 -0.0802
   12MOL0     C 1579   1.039   9.035   7.764  0.4864 -1.0106  0.3705
   12MOL0     C 1580   0.896   8.974   7.753 -0.0337 -0.4971  0.0589
   12MOL0     C 1581   0.805   9.013   7.864  0.8807 -0.3771  0.3258
   12MOL0     C 1582   0.760   9.151   7.863 -0.0451  0.8902  0.1551
   12MOL0     C 1583   0.721   9.269   7.870 -0.1156  0.2566 -0.5331
   12MOL0     C 1584   1.209   9.091   7.485  0.4551  0.2093  0.9858
   12MOL0     C 1585   1.296   9.023   7.391 -0.7946 -0.4519 -0.1390
   12MOL0     C 1586   1.235   8.942   7.280  0.6229 -0.1206  0.5068
   12MOL0     H 1587   1.892   9.071   7.234 -0.0867 -0.2740  1.3121
   12MOL0     H 1588   2.087   8.929   7.153  2.0990 -2.7809  0.8262
   12MOL0     H 1589   2.133   8.465   7.180 -1.5862  0.9464 -0.3642
   12MOL0     H 1590   2.117   8.567   7.330 -0.3313  1.0948  0.6464
   12MOL0     H 1591   2.320   8.680   7.277  0.0882 -0.1444 -0.3637
   12MOL0     H 1592   2.348   8.510   7.305  1.7665  1.7595 -0.2638
   12MOL0     H 1593   2.308   8.623   7.023  2.1823  2.4229 -0.2219
   12MOL0     H 1594   2.467   8.622   7.103 -0.4049  2.8304 -3.5074
   12MOL0     H 1595   2.457   8.374   7.109  0.1886 -2.2886 -0.6207
   12MOL0     H 1596   2.314   8.377   7.007  0.7824 -0.2178 -1.0099
   12MOL0     H 1597   2.589   8.503   6.948  0.8227 -0.5986 -0.0866
   12MOL0     H 1598   2.441   8.493   6.829  0.5133  1.6080  0.3182
   12MOL0     H 1599   2.618   8.262   6.936 -0.5164 -1.4500 -0.6099
   12MOL0     H 1600   2.453   8.243   6.892  0.5422 -0.0882 -0.0670
   12MOL0     H 1601   2.512   8.335   6.646 -2.8678 -1.0449  2.5297
   12MOL0     H 1602   2.592   8.191   6.694 -0.2194 -0.7062  2.3631
   12MOL0     H 1603   2.725   8.368   6.581  0.6636 -1.7126 -0.1883
   12MOL0     H 1604   2.716   8.462   6.718  0.3420  1.1624 -4.0613
   12MOL0     H 1605   2.791   8.086   6.813 -0.2230  1.2905  2.1934
   12MOL0     H 1606   3.145   8.092   6.969  0.1894  1.1362  3.6247
   12MOL0     H 1607   3.035   7.965   6.913 -0.5668  0.3292 -0.4018
   12MOL0     H 1608   2.855   8.003   7.039 -1.6142  1.5750 -1.9811
   12MOL0     H 1609   3.002   7.969   7.140  0.5842 -0.0495 -0.9932
   12MOL0     H 1610   3.039   8.207   7.181  0.6210 -1.3429 -2.7071
   12MOL0     H 1611   2.883   8.253   7.103 -3.3080 -1.9293 -0.2276
   12MOL0     H 1612   2.889   8.050   7.339 -2.4791 -1.1783  0.8274
   12MOL0     H 1613   2.867   8.238   7.354 -2.7214 -0.7482  0.5655
   12MOL0     H 1614   2.773   8.074   7.533 -0.1549  0.5369  0.3616
   12MOL0     H 1615   2.568   7.952   7.791 -0.5691  3.1627  2.2909
   12MOL0     H 1616   2.687   8.084   7.809 -0.1540  0.4379  0.0859
   12MOL0     H 1617   2.730   7.940   7.723 -0.9720 -0.6758 -1.4759
   12MOL0     H 1618   2.396   8.032   8.086  0.2019  1.3068  4.2053
   12MOL0     H 1619   2.211   8.003   8.234  0.5392 -0.5910 -0.6424
   12MOL0     H 1620   1.879   8.259   8.263 -0.9903  0.1259  1.3776
   12MOL0     H 1621   1.788   8.166   8.151 -0.6156  1.6849  0.6362
   12MOL0     H 1622   1.702   8.002   8.314 -1.5887 -0.7278  0.7436
   12MOL0     H 1623   1.817   8.062   8.428  2.7933  1.5081 -2.1887
   12MOL0     H 1624   1.577   8.208   8.315  2.7396 -0.4532 -3.4116
   12MOL0     H 1625   1.699   8.299   8.409 -0.7394  0.2949  0.3558
   12MOL0     H 1626   1.665   8.133   8.595 -0.1143  3.0534  1.0321
   12MOL0     H 1627   1.526   8.069   8.493 -1.2872  0.5793 -1.2718
   12MOL0     H 1628   1.560   8.341   8.617 -0.2128  0.8887 -1.5104
   12MOL0     H 1629   1.436   8.307   8.499  2.5729  3.1664  0.5820
   12MOL0     H 1630   1.476   8.155   8.756  0.7015 -0.0563 -0.4108
   12MOL0     H 1631   1.339   8.127   8.652  0.1843  0.0117  0.8168
   12MOL0     H 1632   1.291   8.375   8.703  0.2225  2.5050  2.9043
   12MOL0     H 1633   1.408   8.360   8.832  0.9412 -1.6097  0.2834
   12MOL0     H 1634   1.168   8.199   8.779  1.5996 -0.5245 -1.6111
   12MOL0     H 1635   1.162   8.338   8.879  1.9500  1.8716 -1.2255
   12MOL0     H 1636   1.926   8.173   7.969  0.6443 -0.4680 -2.2108
   12MOL0     H 1637   2.100   8.169   7.792  0.7311 -1.9322 -0.4087
   12MOL0     H 1638   2.301   8.167   7.462  0.5925  1.9005 -1.2599
   12MOL0     H 1639   2.449   8.170   7.258  0.2569  1.9758  0.2062
   12MOL0     H 1640   1.882   8.574   7.268  1.8317  0.3023  0.3059
   12MOL0     H 1641   1.696   8.721   7.362  1.2761  0.9045  2.5998
   12MOL0     H 1642   1.591   9.142   7.508 -0.6682  4.0985 -0.8117
   12MOL0     H 1643   1.456   9.233   7.669  4.8304  0.8407 -3.2143
   12MOL0     H 1644   1.008   9.256   7.784  3.0438  0.8251  1.5205
   12MOL0     H 1645   1.007   9.186   7.620  0.7726 -1.2241 -0.4880
   12MOL0     H 1646   1.072   9.030   7.868  2.6560  0.9742 -0.1554
   12MOL0     H 1647   1.109   8.972   7.709  1.1662 -1.1443  1.3566
   12MOL0     H 1648   0.851   9.000   7.656  0.5601  0.0926 -0.0618
   12MOL0     H 1649   0.908   8.865   7.761  1.2526 -0.5265 -1.6472
   12MOL0     H 1650   0.848   8.980   7.959  1.0833  1.1050  0.7805
   12MOL0     H 1651   0.717   8.947   7.857 -0.0489  0.6379  1.8036
   12MOL0     H 1652   0.699   9.372   7.887  2.5411  0.7462  0.4235
   12MOL0     H 1653   1.103   9.080   7.465  0.8205  0.4421 -1.4006
   12MOL0     H 1654   1.240   8.835   7.300 -0.0287 -0.0311  1.2012
   12MOL0     H 1655   1.131   8.970   7.266 -0.0202 -1.9522  1.3819
   12MOL0     H 1656   1.288   8.967   7.188  1.1599  1.6329  1.2268
   13MOL0     O 1657   0.768   5.482   5.653 -0.3900  0.8813  0.4309
   13MOL0     C 1658   0.724   5.369   5.619 -0.0147 -0.5148 -0.2822
   13MOL0     O 1659   0.796   5.256   5.634 -0.2016  0.3836 -0.5895
   13MOL0     C 1660   0.926   5.254   5.652 -0.8707 -0.1864  0.4672
   13MOL0     C 1661   0.983   5.137   5.709  1.1785 -0.3609  0.7424
   13MOL0     C 1662   1.122   5.122   5.727  0.5509  0.9397  0.2136
   13MOL0     C 1663   1.213   5.222   5.696  0.8816  0.3032 -0.1932
   13MOL0     O 1664   1.350   5.219   5.697  0.2471 -0.1897 -0.6816
   13MOL0     C 1665   1.415   5.105   5.753 -0.1963  0.4923  0.2260
   13MOL0     C 1666   1.563   5.126   5.749 -0.0943  0.5668  0.3579
   13MOL0     C 1667   1.617   5.167   5.881 -0.8894  1.0657 -0.3237
   13MOL0     C 1668   1.766   5.138   5.897 -1.1077  0.1556  0.3768
   13MOL0     C 1669   1.813   5.183   6.033  0.3462  0.6904 -0.7469
   13MOL0     C 1670   1.962   5.144   6.063 -0.7841 -0.5392  0.7321
   13MOL0     C 1671   2.056   5.219   5.971  0.0812 -0.2894 -0.5676
   13MOL0     C 1672   2.193   5.148   5.964 -0.3732  0.4382  0.1718
   13MOL0     N 1673   2.298   5.233   5.921  0.1855 -0.1224 -0.2173
   13MOL0     C 1674   2.361   5.313   6.014  0.4420 -0.1238  0.2038
   13MOL0     C 1675   2.468   5.369   5.949  0.2898 -0.4151 -0.4604
   13MOL0     C 1676   2.579   5.452   6.013  0.7483 -0.5156 -0.1719
   13MOL0     C 1677   2.716   5.445   5.946 -1.5987 -0.2893  0.5476
   13MOL0     C 1678   2.823   5.521   6.032  0.2700 -0.0770 -0.0127
   13MOL0     C 1679   2.954   5.520   5.953 -0.2372 -0.6356 -0.2929
   13MOL0     O 1680   3.000   5.384   5.954  0.4081  0.7867 -0.6774
   13MOL0     C 1681   3.132   5.367   5.960 -0.7573  0.7791 -0.3943
   13MOL0     C 1682   3.223   5.463   5.921  0.0335 -0.6446 -0.8226
   13MOL0     C 1683   3.363   5.447   5.933  0.3890 -0.8356  0.7903
   13MOL0     C 1684   3.455   5.562   5.903  0.0268 -1.1763  0.2790
   13MOL0     C 1685   3.409   5.324   5.971 -0.5870  0.4623  0.8715
   13MOL0     C 1686   3.550   5.289   5.966 -0.4016  0.1307 -0.7830
   13MOL0     O 1687   3.620   5.315   6.086 -0.0371  0.4206 -0.2524
   13MOL0     C 1688   3.760   5.309   6.077 -0.7491 -0.8298  0.4615
   13MOL0     C 1689   3.822   5.192   6.111 -0.2793  0.1771 -0.0061
   13MOL0     C 1690   3.957   5.169   6.090 -0.0735 -0.9565  0.6577
   13MOL0     C 1691   4.034   5.279   6.050  0.1641  0.5347 -0.8323
   13MOL0     O 1692   4.171   5.256   6.034 -0.5591 -0.2374  0.7482
   13MOL0     C 1693   4.228   5.312   5.906  0.7083  0.8437 -0.6935
   13MOL0     C 1694   4.373   5.273   5.899 -0.2834 -0.6770 -0.0007
   13MOL0     C 1695   4.453   5.354   5.785  0.2911 -0.1087 -0.1952
   13MOL0     C 1696   4.607   5.337   5.788  0.1035 -0.3564 -0.2962
   13MOL0     C 1697   4.679   5.251   5.697 -0.8110 -0.8407 -0.5240
   13MOL0     C 1698   4.690   5.106   5.752 -0.1083 -0.2318  0.7077
   13MOL0     C 1699   4.752   5.016   5.643  0.3349 -0.2213  0.3096
   13MOL0     C 1700   4.865   5.075   5.570 -1.1569 -0.4361 -0.0513
   13MOL0    Cl 1701   5.009   5.079   5.666  0.4814 -0.0845 -0.0858
   13MOL0     C 1702   3.973   5.406   6.030  0.0131  0.0462 -0.0231
   13MOL0     C 1703   3.841   5.426   6.049  0.0136  0.7229 -0.4427
   13MOL0     O 1704   3.592   5.232   5.866 -0.5549  0.6915  0.2900
   13MOL0     C 1705   3.318   5.220   5.993 -0.5326  0.3669 -0.3408
   13MOL0     C 1706   3.184   5.245   6.004 -0.5312  0.4246 -0.0294
   13MOL0     N 1707   2.463   5.330   5.814  0.6289  0.0422 -0.8936
   13MOL0     N 1708   2.359   5.251   5.803 -0.0758  0.9194 -1.0758
   13MOL0     C 1709   1.153   5.339   5.644  0.1521 -0.4156  0.3527
   13MOL0     C 1710   1.017   5.351   5.616 -0.1759  0.6522  0.0325
   13MOL0     C 1711   0.584   5.352   5.573 -0.3819 -0.0959  0.8109
   13MOL0     C 1712   0.524   5.226   5.586 -1.0296  0.0190  0.4021
   13MOL0     C 1713   0.408   5.187   5.526 -0.2093  0.2456  0.1803
   13MOL0     C 1714   0.322   5.285   5.470 -0.3974 -0.1648  0.3612
   13MOL0     O 1715   0.204   5.238   5.407 -0.0890 -0.5328  0.1121
   13MOL0     C 1716   0.102   5.340   5.371 -0.0923 -0.6569  0.4883
   13MOL0     C 1717   0.006   5.353   5.498 -0.4752  0.0621  0.6162
   13MOL0     C 1718  -0.109   5.450   5.469 -0.4062  0.1654 -0.0612
   13MOL0     C 1719  -0.215   5.388   5.384 -0.5459 -1.0181  0.6730
   13MOL0     C 1720  -0.308   5.485   5.328  0.2689 -0.4077  0.6354
   13MOL0     C 1721  -0.392   5.569   5.299 -0.8441 -0.1882  0.0853
   13MOL0     C 1722   0.382   5.410   5.458  0.3821  0.0142  0.7650
   13MOL0     C 1723   0.502   5.447   5.506  0.2987  0.1474 -0.0930
   13MOL0     C 1724   0.552   5.593   5.510  0.1254 -0.1544 -0.3552
   13MOL0     H 1725   0.923   5.060   5.756 -0.3222  0.6254  0.5340
   13MOL0     H 1726   1.151   5.021   5.756  0.8346  0.4403 -1.6721
   13MOL0     H 1727   1.394   5.018   5.690  0.0494  1.4579 -1.2542
   13MOL0     H 1728   1.369   5.094   5.851 -0.1718 -0.8032  0.1001
   13MOL0     H 1729   1.618   5.034   5.730  2.1096  1.1977  3.0211
   13MOL0     H 1730   1.597   5.195   5.671  0.8837 -0.1399  0.1441
   13MOL0     H 1731   1.604   5.274   5.903  0.2511  0.7547  2.2268
   13MOL0     H 1732   1.570   5.100   5.954 -0.4908  0.1561 -0.8936
   13MOL0     H 1733   1.774   5.029   5.892  0.1303  0.2413  0.3085
   13MOL0     H 1734   1.818   5.199   5.822 -2.6757  2.2631  0.8991
   13MOL0     H 1735   1.746   5.124   6.095  1.3258 -0.4775 -0.7579
   13MOL0     H 1736   1.782   5.287   6.045 -3.0076 -0.1711 -0.9041
   13MOL0     H 1737   1.991   5.166   6.166 -0.4305  0.2160  0.4791
   13MOL0     H 1738   1.970   5.035   6.055 -0.4000 -0.5912  1.6220
   13MOL0     H 1739   2.066   5.320   6.010 -1.8917 -0.3796  0.2871
   13MOL0     H 1740   2.024   5.225   5.866 -1.0103  0.7204 -0.1967
   13MOL0     H 1741   2.224   5.110   6.062  1.4415  1.7394  0.1587
   13MOL0     H 1742   2.187   5.066   5.893 -0.8263  0.2005  0.4791
   13MOL0     H 1743   2.336   5.329   6.118 -2.6365  0.3168 -0.5283
   13MOL0     H 1744   2.590   5.413   6.115 -0.0426 -1.7546 -0.5450
   13MOL0     H 1745   2.559   5.559   6.023 -0.0552 -0.4732 -1.9671
   13MOL0     H 1746   2.733   5.339   5.924 -1.1488  0.2124 -1.8008
   13MOL0     H 1747   2.709   5.497   5.850  2.9818  1.1948  0.7411
   13MOL0     H 1748   2.793   5.626   6.039 -0.3337 -0.3556  2.0782
   13MOL0     H 1749   2.836   5.484   6.134  3.0746 -3.5482 -1.3937
   13MOL0     H 1750   2.938   5.552   5.849  1.6184 -0.2312 -0.4981
   13MOL0     H 1751   3.028   5.582   6.004 -1.3203 -0.5421  1.2260
   13MOL0     H 1752   3.190   5.555   5.874  2.3277  0.2292 -0.8742
   13MOL0     H 1753   3.536   5.534   5.835  2.6508 -0.1903  2.7870
   13MOL0     H 1754   3.501   5.604   5.993  0.6805  1.3159 -1.1247
   13MOL0     H 1755   3.406   5.652   5.865  1.4225 -1.1573 -1.6363
   13MOL0     H 1756   3.763   5.105   6.141  1.3141  0.4014  4.4654
   13MOL0     H 1757   3.992   5.068   6.105  1.2997 -0.5291  0.4848
   13MOL0     H 1758   4.184   5.267   5.816  0.8933 -0.4647 -0.1613
   13MOL0     H 1759   4.220   5.420   5.914 -1.2675  0.6174  1.7902
   13MOL0     H 1760   4.410   5.298   5.998 -3.3322 -0.6439  1.2158
   13MOL0     H 1761   4.378   5.164   5.885 -1.3969 -0.8476  0.8195
   13MOL0     H 1762   4.437   5.462   5.786  2.3809  0.2776 -1.7916
   13MOL0     H 1763   4.423   5.309   5.690 -0.7208 -2.1033  1.0012
   13MOL0     H 1764   4.636   5.322   5.892  0.1485  1.4757 -0.0047
   13MOL0     H 1765   4.639   5.436   5.754  0.2829  0.6998  2.6654
   13MOL0     H 1766   4.638   5.254   5.595  0.8369  0.7251 -1.1918
   13MOL0     H 1767   4.773   5.304   5.684 -1.3228 -0.1476 -1.5909
   13MOL0     H 1768   4.594   5.062   5.782  0.6126 -0.5688  2.6360
   13MOL0     H 1769   4.761   5.097   5.834 -1.0890 -0.9378  1.4961
   13MOL0     H 1770   4.669   4.995   5.574 -1.0669  0.9419  1.5700
   13MOL0     H 1771   4.773   4.918   5.687  0.2161  0.6830  2.5004
   13MOL0     H 1772   4.853   5.176   5.529 -0.1463 -0.1215  0.3974
   13MOL0     H 1773   4.875   5.002   5.489 -5.4212 -2.3850  0.8885
   13MOL0     H 1774   4.033   5.494   6.009  0.0834  0.0880  0.3320
   13MOL0     H 1775   3.801   5.524   6.025 -0.0488  1.1412  1.2995
   13MOL0     H 1776   3.353   5.121   6.022  1.8018  0.7307 -1.6967
   13MOL0     H 1777   3.124   5.156   6.021 -1.0246  0.9019  0.7551
   13MOL0     H 1778   1.233   5.410   5.628 -1.0893  0.4541 -2.4205
   13MOL0     H 1779   0.983   5.445   5.573 -2.0386 -0.7532 -1.7101
   13MOL0     H 1780   0.579   5.144   5.631  0.8189 -0.6887 -2.7705
   13MOL0     H 1781   0.388   5.082   5.549 -1.0937  0.1955 -0.7421
   13MOL0     H 1782   0.147   5.435   5.341  1.8156 -2.3507 -2.5018
   13MOL0     H 1783   0.052   5.306   5.280  1.5350 -1.6761 -0.0677
   13MOL0     H 1784   0.058   5.385   5.588  1.6209 -1.7605  0.1280
   13MOL0     H 1785  -0.038   5.255   5.522 -0.3494  0.3142  1.9247
   13MOL0     H 1786  -0.157   5.466   5.566  2.9520 -2.6722  2.2923
   13MOL0     H 1787  -0.067   5.545   5.434 -1.2183 -0.0481 -1.6856
   13MOL0     H 1788  -0.253   5.312   5.453  0.8381 -1.4143  1.0339
   13MOL0     H 1789  -0.173   5.339   5.295 -1.9497 -0.6546 -0.2126
   13MOL0     H 1790  -0.455   5.642   5.252  1.2220  2.2047  0.8350
   13MOL0     H 1791   0.329   5.490   5.408 -0.7189 -2.3124 -2.0774
   13MOL0     H 1792   0.474   5.643   5.452 -1.5949 -2.7455 -0.3972
   13MOL0     H 1793   0.561   5.638   5.610  2.3782 -0.4402 -0.3635
   13MOL0     H 1794   0.648   5.609   5.459  0.7445 -1.7295  0.2663
   14MOL0     O 1795   3.506   5.254   7.447 -0.0858 -0.6707  1.0278
   14MOL0     C 1796   3.416   5.333   7.423  0.8457  0.2490  0.4230
   14MOL0     O 1797   3.403   5.454   7.473 -0.2237  0.2364  0.0924
   14MOL0     C 1798   3.495   5.524   7.542 -0.3587  0.3717  0.2343
   14MOL0     C 1799   3.453   5.646   7.572  0.4345  0.0312 -0.3790
   14MOL0     C 1800   3.534   5.734   7.652 -0.9954 -0.4087 -0.3410
   14MOL0     C 1801   3.663   5.688   7.691  0.1444 -0.0747  0.1805
   14MOL0     O 1802   3.739   5.767   7.770  0.6954  0.7697  0.3344
   14MOL0     C 1803   3.686   5.881   7.834 -0.4245  0.1546  1.1933
   14MOL0     C 1804   3.791   5.927   7.938  0.2442 -0.1952 -0.0140
   14MOL0     C 1805   3.761   6.061   8.000 -0.6013  0.9809 -0.7359
   14MOL0     C 1806   3.834   6.103   8.124  0.5502  0.3345 -0.5021
   14MOL0     C 1807   3.788   6.241   8.164  0.1777 -0.8195  0.0456
   14MOL0     C 1808   3.825   6.355   8.070 -0.5560  1.1787 -0.3087
   14MOL0     C 1809   3.837   6.493   8.136  1.1352 -0.2268 -0.2735
   14MOL0     C 1810   3.706   6.536   8.204 -0.2933 -0.6181 -0.0782
   14MOL0     N 1811   3.607   6.558   8.099  0.4957 -0.0206  0.1688
   14MOL0     C 1812   3.613   6.624   7.975 -0.2060  0.4071  0.0137
   14MOL0     C 1813   3.491   6.614   7.927  0.1912  0.2166  0.5964
   14MOL0     C 1814   3.429   6.674   7.789 -0.0452 -0.4015 -0.5067
   14MOL0     C 1815   3.425   6.561   7.685 -0.1601 -0.1642 -0.3989
   14MOL0     C 1816   3.332   6.596   7.575 -0.0256 -0.1010 -0.1779
   14MOL0     C 1817   3.295   6.470   7.495 -0.8661  0.5576  1.6681
   14MOL0     O 1818   3.211   6.376   7.567 -0.2173 -0.3508 -0.1015
   14MOL0     C 1819   3.109   6.329   7.494  0.3945 -0.0952  0.8082
   14MOL0     C 1820   3.126   6.285   7.363  0.6353  0.4137 -0.0231
   14MOL0     C 1821   3.021   6.236   7.280 -0.6260 -0.5761 -0.7887
   14MOL0     C 1822   3.060   6.222   7.134 -0.5152 -0.0519  0.4372
   14MOL0     C 1823   2.889   6.226   7.336 -0.7590  0.2457  0.3674
   14MOL0     C 1824   2.774   6.168   7.268  0.7730 -0.1670 -0.0689
   14MOL0     O 1825   2.662   6.185   7.344  0.5500  1.0706 -0.5100
   14MOL0     C 1826   2.557   6.116   7.290 -0.2226  0.2523  0.3900
   14MOL0     C 1827   2.556   5.980   7.296  0.5025  0.5596  0.9318
   14MOL0     C 1828   2.436   5.914   7.259 -0.4283  0.3841 -0.8841
   14MOL0     C 1829   2.328   5.995   7.203 -0.2451 -0.3458 -0.5105
   14MOL0     O 1830   2.214   5.933   7.148 -0.3547 -0.9230  0.2156
   14MOL0     C 1831   2.198   5.792   7.153 -0.5258 -0.3442  0.9594
   14MOL0     C 1832   2.150   5.744   7.283 -0.0970  0.2071  0.6509
   14MOL0     C 1833   2.002   5.770   7.316 -0.1244  0.2223  0.0367
   14MOL0     C 1834   1.958   5.913   7.284  0.5003 -0.0193 -0.0060
   14MOL0     C 1835   1.809   5.933   7.327 -0.1398 -0.3079 -0.5673
   14MOL0     C 1836   1.783   5.890   7.476  0.0014 -0.1782 -0.1924
   14MOL0     C 1837   1.623   5.899   7.501 -0.7103 -0.7508  0.1350
   14MOL0     C 1838   1.578   5.850   7.631  0.1994  1.3394 -0.1046
   14MOL0    Cl 1839   1.611   5.984   7.745 -0.1225 -0.2120  0.4339
   14MOL0     C 1840   2.342   6.136   7.179 -0.6606  0.5600 -0.5621
   14MOL0     C 1841   2.453   6.197   7.234  0.1514 -0.4794 -0.1336
   14MOL0     O 1842   2.788   6.112   7.155  0.4527  0.4528  0.8810
   14MOL0     C 1843   2.873   6.259   7.475 -0.1559  0.6506  0.2945
   14MOL0     C 1844   2.983   6.306   7.546 -0.2843 -0.3364 -0.0358
   14MOL0     N 1845   3.419   6.528   8.007  0.4514  0.2975 -0.8651
   14MOL0     N 1846   3.486   6.494   8.105  0.2811  1.1968 -0.2294
   14MOL0     C 1847   3.711   5.568   7.647  0.4128 -0.4211  0.3526
   14MOL0     C 1848   3.627   5.484   7.577 -0.2088 -0.4059  0.3321
   14MOL0     C 1849   3.302   5.287   7.337  0.7684  0.0460 -1.1526
   14MOL0     C 1850   3.290   5.148   7.323  0.2816 -0.7289  0.3431
   14MOL0     C 1851   3.170   5.095   7.274 -0.0111 -0.2937  1.0328
   14MOL0     C 1852   3.077   5.177   7.213 -0.3158 -0.3087  0.5420
   14MOL0     O 1853   2.966   5.119   7.154  0.1972  0.2283 -0.4935
   14MOL0     C 1854   2.958   4.987   7.115 -0.0543  0.6225  0.0806
   14MOL0     C 1855   2.831   4.956   7.042 -0.0373  0.0590  0.3861
   14MOL0     C 1856   2.844   4.811   6.977 -0.4487  0.7069  0.1600
   14MOL0     C 1857   2.748   4.762   6.870 -0.1844 -0.1085 -0.0284
   14MOL0     C 1858   2.781   4.794   6.728 -1.1212 -0.4585 -0.1143
   14MOL0     C 1859   2.828   4.835   6.543  0.2802  1.0540 -0.0644
   14MOL0     C 1860   3.085   5.315   7.229 -0.3148  0.6598  0.5809
   14MOL0     C 1861   3.199   5.373   7.283  0.9951 -0.3104 -0.2151
   14MOL0     C 1862   3.194   5.526   7.287 -0.5632  0.3638 -0.2327
   14MOL0     H 1863   3.353   5.684   7.551 -0.2566  0.3894  2.8720
   14MOL0     H 1864   3.500   5.831   7.687 -2.0895 -0.9116  0.0179
   14MOL0     H 1865   3.596   5.874   7.896 -0.4406  0.9397  1.2661
   14MOL0     H 1866   3.678   5.960   7.759  1.6247 -1.4003 -0.8105
   14MOL0     H 1867   3.783   5.856   8.021  0.5871  2.7197  2.6973
   14MOL0     H 1868   3.890   5.940   7.893 -0.2857  2.3841 -0.5923
   14MOL0     H 1869   3.778   6.141   7.927 -2.5860  1.4625 -0.7424
   14MOL0     H 1870   3.656   6.064   8.031 -0.7494  1.5945 -1.2658
   14MOL0     H 1871   3.807   6.030   8.200 -1.0067  0.6630 -0.7127
   14MOL0     H 1872   3.944   6.104   8.116  1.1222 -1.9879  3.9257
   14MOL0     H 1873   3.825   6.265   8.264 -0.5931  0.8728 -0.0475
   14MOL0     H 1874   3.681   6.249   8.182 -0.0889 -2.4332 -0.6959
   14MOL0     H 1875   3.924   6.326   8.031 -1.6427 -3.7651 -0.1340
   14MOL0     H 1876   3.752   6.352   7.989  3.2025 -3.7313 -4.1900
   14MOL0     H 1877   3.858   6.567   8.059 -1.3628  0.0632 -0.7642
   14MOL0     H 1878   3.919   6.491   8.209  0.6361 -0.5652  0.2929
   14MOL0     H 1879   3.675   6.459   8.276  1.7998 -3.1259 -1.6552
   14MOL0     H 1880   3.721   6.624   8.266  0.4983 -1.3977  0.8699
   14MOL0     H 1881   3.691   6.691   7.938 -0.6542  2.1419  1.9997
   14MOL0     H 1882   3.474   6.763   7.746 -0.1200 -1.0946 -2.0836
   14MOL0     H 1883   3.327   6.698   7.822  0.8209 -1.7523  3.8874
   14MOL0     H 1884   3.527   6.543   7.649 -0.2589  0.6848 -1.1260
   14MOL0     H 1885   3.388   6.473   7.740  0.8099  0.0756  0.6830
   14MOL0     H 1886   3.240   6.636   7.620  0.8527  3.2336 -1.1340
   14MOL0     H 1887   3.368   6.672   7.506  1.5027  0.4736  1.2093
   14MOL0     H 1888   3.244   6.508   7.406  2.9227 -0.4445 -1.1567
   14MOL0     H 1889   3.379   6.407   7.466 -2.1832  0.7283 -3.4805
   14MOL0     H 1890   3.227   6.273   7.327  0.3966  0.2301 -0.6519
   14MOL0     H 1891   3.136   6.145   7.125  1.1121  1.6109 -0.8996
   14MOL0     H 1892   3.100   6.321   7.110 -1.9129  0.6016  0.6819
   14MOL0     H 1893   2.990   6.211   7.051 -0.2582 -1.0012  0.3369
   14MOL0     H 1894   2.637   5.921   7.338  1.7178 -0.6902 -2.7906
   14MOL0     H 1895   2.419   5.809   7.278 -2.2934  0.4786 -1.7222
   14MOL0     H 1896   2.122   5.756   7.082  1.3435  1.3662 -2.1100
   14MOL0     H 1897   2.290   5.741   7.124 -3.2291 -3.5251 -3.4573
   14MOL0     H 1898   2.160   5.636   7.269  0.3081  0.4338 -1.0560
   14MOL0     H 1899   2.212   5.785   7.363  0.0314  4.7556 -1.4551
   14MOL0     H 1900   1.995   5.743   7.422  0.3035  2.1809  0.6107
   14MOL0     H 1901   1.939   5.708   7.252 -1.6730  1.5084  0.2622
   14MOL0     H 1902   1.967   5.941   7.178 -2.4121  2.8310  0.3283
   14MOL0     H 1903   2.026   5.984   7.332  1.6472 -2.0800  1.5545
   14MOL0     H 1904   1.786   6.040   7.323 -3.3603 -0.9304 -1.6800
   14MOL0     H 1905   1.732   5.891   7.262 -1.7754 -0.3214  1.2788
   14MOL0     H 1906   1.836   5.968   7.532  1.7107  1.3469 -3.6180
   14MOL0     H 1907   1.827   5.793   7.501  1.4065  0.7063  0.9151
   14MOL0     H 1908   1.573   5.837   7.426 -1.2714 -1.1369  0.8231
   14MOL0     H 1909   1.586   6.000   7.480 -1.1016 -0.1658  3.1830
   14MOL0     H 1910   1.624   5.755   7.660 -0.0301  1.5480  1.0016
   14MOL0     H 1911   1.472   5.825   7.642  0.2924 -0.4081 -2.4451
   14MOL0     H 1912   2.260   6.189   7.132 -0.6144  0.3164 -0.9263
   14MOL0     H 1913   2.455   6.305   7.235  0.0906 -0.4740 -0.3174
   14MOL0     H 1914   2.774   6.236   7.514 -1.4737  2.2487 -1.7978
   14MOL0     H 1915   2.959   6.325   7.650 -0.4126  0.1546 -0.1511
   14MOL0     H 1916   3.804   5.534   7.690  2.7250  4.5940  0.0736
   14MOL0     H 1917   3.666   5.387   7.547 -0.7594 -0.5507  0.0788
   14MOL0     H 1918   3.360   5.074   7.360 -0.7161 -1.8405  0.0901
   14MOL0     H 1919   3.147   4.991   7.297 -0.1790 -0.2923  0.8734
   14MOL0     H 1920   3.042   4.976   7.047 -2.5756  0.6591 -3.3006
   14MOL0     H 1921   2.977   4.918   7.198 -0.3416  0.7185  0.2286
   14MOL0     H 1922   2.822   5.031   6.962  0.8741  1.9738  2.0062
   14MOL0     H 1923   2.748   4.965   7.112 -1.4253 -2.5413 -0.7564
   14MOL0     H 1924   2.945   4.807   6.935 -1.8501  0.5924 -3.5429
   14MOL0     H 1925   2.850   4.736   7.056  2.2476  1.8433  1.1541
   14MOL0     H 1926   2.657   4.818   6.894  1.0193  1.2949  1.4617
   14MOL0     H 1927   2.722   4.657   6.882 -4.0055  0.7972  1.1702
   14MOL0     H 1928   2.871   4.846   6.446  2.1497 -3.1082  0.0711
   14MOL0     H 1929   3.009   5.378   7.185  0.4904  1.0971 -0.2196
   14MOL0     H 1930   3.114   5.568   7.224  0.2359 -0.6822 -2.0329
   14MOL0     H 1931   3.179   5.550   7.392  4.4401  1.2475  0.4821
   14MOL0     H 1932   3.287   5.567   7.248  0.6877 -2.8883 -1.0606
   15MOL0     O 1933   6.662   8.016   5.652  0.5124 -0.5939 -0.0790
   15MOL0     C 1934   6.653   8.136   5.630  0.0218  0.0532 -0.2871
   15MOL0     O 1935   6.763   8.225   5.649  1.0250  0.7324  0.6168
   15MOL0     C 1936   6.892   8.168   5.656  0.2795  0.6736  0.3116
   15MOL0     C 1937   6.945   8.128   5.784 -0.8202 -1.0233  0.1968
   15MOL0     C 1938   7.073   8.052   5.787  0.0419  0.2876 -0.7049
   15MOL0     C 1939   7.130   8.015   5.673  0.4579  0.4067  0.2325
   15MOL0     O 1940   7.242   7.932   5.689 -0.2522  0.6847  0.2272
   15MOL0     C 1941   7.342   7.944   5.591  0.0950  0.6091  0.2272
   15MOL0     C 1942   7.478   7.874   5.604  0.0926 -0.1350 -0.3112
   15MOL0     C 1943   7.564   7.915   5.733  0.0267 -0.2028  0.4023
   15MOL0     C 1944   7.673   7.817   5.784  1.1480  0.7272 -0.0554
   15MOL0     C 1945   7.740   7.856   5.920 -0.7624 -0.0603  0.1170
   15MOL0     C 1946   7.854   7.750   5.961  0.2051 -1.3160 -0.3117
   15MOL0     C 1947   7.916   7.769   6.102  0.4326  0.6977  0.7804
   15MOL0     C 1948   8.011   7.884   6.116  0.2708  0.4015  0.6251
   15MOL0     N 1949   8.127   7.897   6.031  0.6156  0.3205 -0.8385
   15MOL0     C 1950   8.257   7.897   6.079 -0.0594 -0.1410 -0.1272
   15MOL0     C 1951   8.339   7.880   5.965  0.2844 -0.4847 -0.1159
   15MOL0     C 1952   8.487   7.881   5.962  0.2634 -0.3733  0.3112
   15MOL0     C 1953   8.544   8.018   5.994  0.8725  0.2647 -0.2814
   15MOL0     C 1954   8.561   8.105   5.870  0.3677 -0.3469 -0.0347
   15MOL0     C 1955   8.628   8.228   5.912 -0.1947  0.5915  1.7142
   15MOL0     O 1956   8.559   8.294   6.015  0.4586 -0.4962  0.3935
   15MOL0     C 1957   8.605   8.424   6.033  0.1522 -0.1160 -0.1533
   15MOL0     C 1958   8.525   8.510   6.117 -0.8890  0.0409  0.8493
   15MOL0     C 1959   8.570   8.641   6.144  0.2135  0.5470  0.5017
   15MOL0     C 1960   8.474   8.732   6.218  0.8595  0.5802  0.9886
   15MOL0     C 1961   8.690   8.693   6.087 -0.7134 -0.7951 -0.3221
   15MOL0     C 1962   8.751   8.821   6.124  0.1647  0.3616 -0.1860
   15MOL0     O 1963   8.850   8.863   6.042 -0.2592  0.0276  0.1397
   15MOL0     C 1964   8.917   8.984   6.061  0.0118  0.0559  0.5035
   15MOL0     C 1965   9.055   8.978   6.026 -0.1145 -0.1088  0.9067
   15MOL0     C 1966   9.127   9.094   6.030 -1.0777  0.1348 -0.3141
   15MOL0     C 1967   9.077   9.212   6.081 -0.1079 -0.4321 -0.1353
   15MOL0     O 1968   9.143   9.327   6.059 -0.3859 -0.5399 -1.1643
   15MOL0     C 1969   9.142   9.415   6.170  0.0164 -0.0745 -0.9781
   15MOL0     C 1970   9.236   9.526   6.125 -0.4475 -0.4185  0.3374
   15MOL0     C 1971   9.311   9.614   6.239  0.1957 -0.1293  0.0016
   15MOL0     C 1972   9.418   9.695   6.175  0.3409  0.1890  0.4124
   15MOL0     C 1973   9.470   9.819   6.246  0.8341  0.9432 -0.7128
   15MOL0     C 1974   9.580   9.882   6.160  0.1139  0.2461 -0.0848
   15MOL0     C 1975   9.660   9.982   6.253  0.0312 -0.3397 -0.9364
   15MOL0     C 1976   9.792  10.019   6.185  0.2360  0.3722 -0.1511
   15MOL0    Cl 1977   9.869   9.902   6.080 -0.5114 -0.1051  0.3568
   15MOL0     C 1978   8.942   9.214   6.130  0.8342 -0.6923 -0.0237
   15MOL0     C 1979   8.864   9.108   6.123  0.1518  0.0017 -0.4753
   15MOL0     O 1980   8.728   8.873   6.232  0.1650  0.6547 -0.6477
   15MOL0     C 1981   8.771   8.601   6.018 -0.5554 -0.6376 -0.0155
   15MOL0     C 1982   8.729   8.467   5.985  0.4617  0.5573 -0.4371
   15MOL0     N 1983   8.262   7.909   5.855  0.1716 -0.0407  0.1416
   15MOL0     N 1984   8.136   7.904   5.895  0.2902  0.1891  0.3292
   15MOL0     C 1985   7.075   8.060   5.553 -0.0938 -0.3753  0.7687
   15MOL0     C 1986   6.958   8.132   5.540  0.1585  0.6233 -0.4153
   15MOL0     C 1987   6.511   8.186   5.611 -1.3800 -0.2531  0.5345
   15MOL0     C 1988   6.405   8.084   5.591 -0.6969 -0.7034  0.0840
   15MOL0     C 1989   6.269   8.120   5.585 -0.2486  0.0471  0.2393
   15MOL0     C 1990   6.233   8.254   5.600  0.1623  0.6611 -0.1190
   15MOL0     O 1991   6.099   8.286   5.586  0.0266 -0.2104  0.3588
   15MOL0     C 1992   6.045   8.390   5.666  0.4215 -0.5074 -0.0733
   15MOL0     C 1993   5.892   8.381   5.672  0.2499  0.6817 -0.6061
   15MOL0     C 1994   5.816   8.391   5.539  0.0959  0.5864  0.8291
   15MOL0     C 1995   5.668   8.389   5.582 -1.0183  0.5905  0.7179
   15MOL0     C 1996   5.587   8.381   5.466 -0.0513 -0.9058 -0.5081
   15MOL0     C 1997   5.530   8.357   5.361  0.1959 -0.7441  0.4610
   15MOL0     C 1998   6.333   8.353   5.610  0.2249  0.3743  0.0265
   15MOL0     C 1999   6.467   8.319   5.619  0.0138  0.7200 -0.0970
   15MOL0     C 2000   6.571   8.423   5.650  0.9717 -0.9570 -0.0450
   15MOL0     H 2001   6.888   8.146   5.874 -0.5268 -1.4049  0.4597
   15MOL0     H 2002   7.115   8.021   5.882 -1.6216 -4.7169 -1.3044
   15MOL0     H 2003   7.369   8.048   5.570  1.7035  0.2800  0.4821
   15MOL0     H 2004   7.317   7.898   5.495  3.7520  1.1017 -1.1543
   15MOL0     H 2005   7.467   7.765   5.606  3.2325 -0.5334 -0.4316
   15MOL0     H 2006   7.534   7.909   5.517 -0.4035  0.7161 -0.3024
   15MOL0     H 2007   7.604   8.016   5.718 -2.0546  0.2809 -2.8552
   15MOL0     H 2008   7.495   7.922   5.818 -0.7967  1.3331 -0.3385
   15MOL0     H 2009   7.645   7.712   5.785  1.0861  0.7432 -0.1159
   15MOL0     H 2010   7.746   7.821   5.702  1.4088 -1.2561  0.0378
   15MOL0     H 2011   7.660   7.852   5.995  0.9224 -0.7101  1.9596
   15MOL0     H 2012   7.779   7.958   5.909 -1.8284  0.5324  1.4324
   15MOL0     H 2013   7.796   7.657   5.966 -1.5841 -0.2001  1.8454
   15MOL0     H 2014   7.928   7.745   5.881 -2.1216 -2.5507 -2.5446
   15MOL0     H 2015   7.968   7.675   6.124 -0.8749 -0.3737 -0.5300
   15MOL0     H 2016   7.832   7.779   6.171 -0.2580  1.2719 -0.1279
   15MOL0     H 2017   7.956   7.979   6.121  1.6386  1.1702  1.8739
   15MOL0     H 2018   8.063   7.872   6.212  1.0397  0.5331  0.2260
   15MOL0     H 2019   8.297   7.915   6.178  2.3206  2.6161 -1.4286
   15MOL0     H 2020   8.525   7.846   5.865  2.2753 -2.0007  1.6029
   15MOL0     H 2021   8.529   7.815   6.039  0.1706  2.3766  2.9008
   15MOL0     H 2022   8.484   8.064   6.073  0.2946 -2.1884  0.7950
   15MOL0     H 2023   8.644   8.013   6.039  0.2707 -2.1055  0.9402
   15MOL0     H 2024   8.614   8.059   5.785  1.5120 -2.9191  1.9356
   15MOL0     H 2025   8.462   8.137   5.836  1.5804  1.5761 -2.0818
   15MOL0     H 2026   8.729   8.203   5.946 -0.1271 -2.2491 -0.2023
   15MOL0     H 2027   8.636   8.296   5.826  0.8389 -0.1786  1.1683
   15MOL0     H 2028   8.428   8.470   6.143 -0.8197 -2.7417 -2.5059
   15MOL0     H 2029   8.485   8.727   6.327  0.2459 -3.7291  1.0313
   15MOL0     H 2030   8.371   8.697   6.203 -0.5055  4.1850  0.9713
   15MOL0     H 2031   8.481   8.834   6.178  1.1077  0.1642 -0.0496
   15MOL0     H 2032   9.098   8.889   5.981  1.9336  1.4867 -0.4494
   15MOL0     H 2033   9.222   9.099   5.978 -1.2629 -0.4975 -0.7297
   15MOL0     H 2034   9.042   9.455   6.193 -0.0146 -0.6025 -0.1402
   15MOL0     H 2035   9.188   9.369   6.258  1.8280 -0.8083 -2.2716
   15MOL0     H 2036   9.312   9.492   6.054  1.4917  2.4635  0.8732
   15MOL0     H 2037   9.176   9.595   6.065 -1.8948 -2.3126 -0.4700
   15MOL0     H 2038   9.357   9.543   6.309 -0.7216 -2.3100 -1.5151
   15MOL0     H 2039   9.240   9.684   6.285 -0.5711 -1.1033  0.3467
   15MOL0     H 2040   9.384   9.730   6.077  1.6378 -2.7681 -1.2176
   15MOL0     H 2041   9.506   9.632   6.164  0.3284  0.1300  0.6506
   15MOL0     H 2042   9.396   9.899   6.260 -1.6940 -1.4916  0.9927
   15MOL0     H 2043   9.513   9.785   6.341  1.0517  0.9039 -0.8256
   15MOL0     H 2044   9.546   9.931   6.068  0.6513 -0.3968 -0.6322
   15MOL0     H 2045   9.643   9.799   6.127  1.3145  1.4596 -0.9525
   15MOL0     H 2046   9.679   9.938   6.351  1.0587  0.4716 -0.7482
   15MOL0     H 2047   9.603  10.072   6.279  0.8337 -0.3401  1.0294
   15MOL0     H 2048   9.864  10.054   6.259  0.6664 -0.6969 -0.0503
   15MOL0     H 2049   9.767  10.101   6.117  0.7710  0.6187 -0.0552
   15MOL0     H 2050   8.897   9.296   6.185 -2.3183 -1.7778 -0.7372
   15MOL0     H 2051   8.765   9.120   6.167  1.0783 -0.1793  1.7484
   15MOL0     H 2052   8.872   8.627   5.986 -0.5571 -0.1320  0.3753
   15MOL0     H 2053   8.800   8.408   5.927 -1.9800 -1.5055 -1.4850
   15MOL0     H 2054   7.129   8.046   5.460 -0.5517 -1.5829  0.6582
   15MOL0     H 2055   6.915   8.168   5.447 -4.1878  1.2605  1.5941
   15MOL0     H 2056   6.434   7.980   5.581 -1.1472 -0.7633 -0.6882
   15MOL0     H 2057   6.194   8.042   5.580 -0.8328  0.6829 -1.1939
   15MOL0     H 2058   6.090   8.394   5.765  1.0812 -0.7272 -0.3540
   15MOL0     H 2059   6.056   8.480   5.605  2.0142 -1.5501 -1.4239
   15MOL0     H 2060   5.860   8.451   5.750 -0.1704 -0.7625  0.5628
   15MOL0     H 2061   5.857   8.289   5.719  3.4898 -0.4791 -0.1917
   15MOL0     H 2062   5.842   8.490   5.500 -0.6593  0.2911 -0.4679
   15MOL0     H 2063   5.847   8.308   5.475 -1.6591  1.8970 -1.8823
   15MOL0     H 2064   5.641   8.481   5.634 -1.7687  2.5002 -2.8018
   15MOL0     H 2065   5.656   8.297   5.641  0.2876 -1.0870 -1.4941
   15MOL0     H 2066   5.482   8.339   5.266  1.2006  1.3814 -0.5078
   15MOL0     H 2067   6.297   8.454   5.625 -0.5929 -0.0803  1.2436
   15MOL0     H 2068   6.626   8.398   5.741  1.9255  1.2505  0.0204
   15MOL0     H 2069   6.636   8.436   5.564 -0.3579 -0.2490 -0.9692
   15MOL0     H 2070   6.527   8.522   5.663 -0.5320 -1.6570  0.5765
   16MOL0     O 2071   5.096   8.106   6.548  0.3539  0.9160  0.0233
   16MOL0     C 2072   5.071   8.007   6.623  0.1513  0.2839 -0.6039
   16MOL0     O 2073   4.948   7.977   6.673  0.3034  0.0419 -0.0419
   16MOL0     C 2074   4.840   8.034   6.620 -0.2188  0.5510  0.5563
   16MOL0     C 2075   4.807   8.020   6.484 -0.4277 -0.1170 -0.2140
   16MOL0     C 2076   4.695   8.089   6.439 -0.8929 -0.8493  0.1421
   16MOL0     C 2077   4.630   8.186   6.512 -0.1717  1.0125 -0.3836
   16MOL0     O 2078   4.528   8.257   6.471 -0.1124 -0.1130 -0.2050
   16MOL0     C 2079   4.415   8.265   6.561  0.1649  0.5126 -0.0814
   16MOL0     C 2080   4.361   8.125   6.608 -0.0115  0.3664 -0.0580
   16MOL0     C 2081   4.237   8.106   6.709 -0.0378 -0.4235  0.0261
   16MOL0     C 2082   4.116   8.182   6.658  0.4528 -0.7496 -1.0362
   16MOL0     C 2083   3.975   8.142   6.714 -0.5256 -1.0997  0.2568
   16MOL0     C 2084   3.964   8.151   6.863  0.0770  0.2201 -0.2882
   16MOL0     C 2085   3.998   8.285   6.925 -0.1154 -0.1635 -0.1894
   16MOL0     C 2086   3.876   8.381   6.919  0.2755  0.1168  0.0340
   16MOL0     N 2087   3.908   8.474   6.812 -0.5181 -0.9565 -0.7595
   16MOL0     C 2088   3.954   8.605   6.841  1.2053 -0.2936  0.7289
   16MOL0     C 2089   3.948   8.667   6.720 -0.2513  0.6214  0.0580
   16MOL0     C 2090   3.979   8.812   6.698 -0.4272  0.2189  0.2778
   16MOL0     C 2091   4.087   8.835   6.587  0.4687  0.0656  0.2807
   16MOL0     C 2092   4.093   8.978   6.535  0.6307 -0.4093  0.3792
   16MOL0     C 2093   4.171   9.064   6.634 -0.7338 -0.6567 -0.1449
   16MOL0     O 2094   4.184   9.194   6.585  0.6274 -0.1933  0.2263
   16MOL0     C 2095   4.289   9.275   6.627  0.4413  0.1964 -0.3326
   16MOL0     C 2096   4.363   9.258   6.742  0.4180  0.1654  0.0900
   16MOL0     C 2097   4.469   9.343   6.785 -0.0848 -1.0279 -0.0215
   16MOL0     C 2098   4.549   9.309   6.909 -0.4077  0.4977  0.8242
   16MOL0     C 2099   4.501   9.446   6.692 -1.0555  0.6956 -0.2580
   16MOL0     C 2100   4.626   9.538   6.707  0.0485 -0.8931 -0.2054
   16MOL0     O 2101   4.659   9.616   6.595 -0.2400  0.1080 -0.0560
   16MOL0     C 2102   4.758   9.712   6.579  0.2412 -0.5713 -0.8281
   16MOL0     C 2103   4.829   9.775   6.684  0.1514  0.4477  0.0471
   16MOL0     C 2104   4.924   9.864   6.654 -0.2070 -0.1092 -1.2196
   16MOL0     C 2105   4.961   9.898   6.524  0.2549 -0.2838  0.1770
   16MOL0     O 2106   5.050   9.999   6.490 -0.2725 -0.0968  0.4551
   16MOL0     C 2107   5.175   9.980   6.540  0.0717 -0.0382 -0.5595
   16MOL0     C 2108   5.287  10.035   6.453 -0.2143  0.3934  0.1623
   16MOL0     C 2109   5.419   9.972   6.493  0.0065 -0.8125 -0.6606
   16MOL0     C 2110   5.530   9.986   6.376  0.2993 -0.0699 -0.0764
   16MOL0     C 2111   5.675   9.966   6.418  0.5211 -0.6640  0.2048
   16MOL0     C 2112   5.778  10.040   6.336  0.1507 -0.0141 -1.2800
   16MOL0     C 2113   5.912   9.999   6.399  0.2070 -0.3109  0.5887
   16MOL0     C 2114   6.032  10.082   6.349 -0.0877 -0.1050  0.1701
   16MOL0    Cl 2115   6.066  10.038   6.177  0.1610 -0.4961 -0.3769
   16MOL0     C 2116   4.889   9.839   6.420 -0.2322  0.4390 -0.0383
   16MOL0     C 2117   4.788   9.752   6.451  0.6700 -0.0393  0.2542
   16MOL0     O 2118   4.661   9.561   6.825 -0.2894 -0.7025  0.5452
   16MOL0     C 2119   4.422   9.467   6.574  0.3973 -0.0266  0.7865
   16MOL0     C 2120   4.322   9.385   6.550  1.0553  0.3643 -0.5678
   16MOL0     N 2121   3.902   8.586   6.620 -0.4012 -0.6364 -0.1598
   16MOL0     N 2122   3.881   8.472   6.679  0.4952  0.2898  0.0413
   16MOL0     C 2123   4.684   8.216   6.637 -0.3218 -0.2562  0.0271
   16MOL0     C 2124   4.785   8.140   6.690  0.3746 -0.5462  0.1998
   16MOL0     C 2125   5.174   7.907   6.663 -0.4751 -0.5086  0.0442
   16MOL0     C 2126   5.137   7.795   6.729 -0.2400  0.3176  0.1507
   16MOL0     C 2127   5.225   7.697   6.780  0.8143  0.1167 -0.3895
   16MOL0     C 2128   5.357   7.712   6.753 -0.1729 -0.6493 -0.6523
   16MOL0     O 2129   5.452   7.618   6.784  0.4274 -0.3422 -0.5262
   16MOL0     C 2130   5.475   7.591   6.924  0.0300  0.9565  0.3780
   16MOL0     C 2131   5.575   7.474   6.952  0.8298 -0.0337  1.1995
   16MOL0     C 2132   5.698   7.502   6.870  0.0934 -0.2663 -0.1195
   16MOL0     C 2133   5.780   7.610   6.930 -0.1119  0.0617 -0.6368
   16MOL0     C 2134   5.882   7.644   6.836 -0.1110 -0.2183  0.3580
   16MOL0     C 2135   5.957   7.663   6.747  0.0283  0.6209  0.2246
   16MOL0     C 2136   5.408   7.834   6.692  0.4829 -0.5665 -0.3476
   16MOL0     C 2137   5.317   7.937   6.651  0.0444  0.0240  0.7907
   16MOL0     C 2138   5.383   8.055   6.588 -0.4096 -0.3460  0.0113
   16MOL0     H 2139   4.870   7.948   6.433 -1.1559  0.6788 -2.3429
   16MOL0     H 2140   4.664   8.062   6.339 -0.6599 -0.7104  0.0318
   16MOL0     H 2141   4.333   8.302   6.499  0.0550 -0.5669 -0.6023
   16MOL0     H 2142   4.435   8.335   6.643  0.7035  1.4868 -1.0188
   16MOL0     H 2143   4.328   8.077   6.516 -1.2186 -1.3961  1.2237
   16MOL0     H 2144   4.442   8.063   6.647 -1.9964 -3.2660 -1.2393
   16MOL0     H 2145   4.218   7.999   6.707  0.5701 -0.5353 -0.3068
   16MOL0     H 2146   4.255   8.137   6.812 -0.4687  0.6775 -0.2174
   16MOL0     H 2147   4.134   8.289   6.671 -1.8768 -0.4333 -0.0777
   16MOL0     H 2148   4.097   8.174   6.550 -1.0526 -0.2085 -0.8234
   16MOL0     H 2149   3.962   8.038   6.682  1.4753 -0.3732 -3.5398
   16MOL0     H 2150   3.899   8.198   6.658 -0.8830 -1.5780  0.2566
   16MOL0     H 2151   3.866   8.113   6.893 -1.3096  1.5155 -2.8353
   16MOL0     H 2152   4.038   8.080   6.900 -0.3041 -0.7643 -1.3671
   16MOL0     H 2153   4.084   8.332   6.876  0.2181 -0.5134  0.0569
   16MOL0     H 2154   4.017   8.267   7.031  0.3592 -1.8936 -0.5433
   16MOL0     H 2155   3.780   8.338   6.890 -0.2201 -0.2441  2.0493
   16MOL0     H 2156   3.862   8.433   7.014 -3.7268  0.3228 -0.5193
   16MOL0     H 2157   3.975   8.645   6.940  2.7380 -2.4672  1.3670
   16MOL0     H 2158   4.018   8.841   6.796 -1.4416 -1.5120  1.2497
   16MOL0     H 2159   3.884   8.864   6.683 -1.3145 -1.5064 -0.3473
   16MOL0     H 2160   4.176   8.805   6.642  1.2216  1.6477 -0.0050
   16MOL0     H 2161   4.078   8.764   6.505 -1.3824 -2.0970  2.1961
   16MOL0     H 2162   4.140   8.982   6.437  1.3934  0.2233  0.7511
   16MOL0     H 2163   3.988   9.005   6.515  0.4095 -1.8518 -0.4868
   16MOL0     H 2164   4.113   9.079   6.726 -4.0866 -2.1968 -1.8278
   16MOL0     H 2165   4.270   9.021   6.651  0.7901  2.4134 -0.5150
   16MOL0     H 2166   4.344   9.169   6.801 -1.9044  0.9584  0.6431
   16MOL0     H 2167   4.508   9.214   6.945  2.5379 -0.6772  1.3491
   16MOL0     H 2168   4.548   9.390   6.983  0.4952  1.0814  0.2236
   16MOL0     H 2169   4.654   9.298   6.881 -0.9277  0.1984 -1.1916
   16MOL0     H 2170   4.784   9.766   6.783 -0.6811 -1.2613 -0.4394
   16MOL0     H 2171   4.970   9.906   6.743  1.2606 -2.0623 -0.9965
   16MOL0     H 2172   5.178  10.032   6.637 -2.3253 -0.7182 -0.0462
   16MOL0     H 2173   5.201   9.875   6.555 -1.7633 -0.5551 -0.8218
   16MOL0     H 2174   5.265  10.000   6.351 -0.2262  0.7550  0.0392
   16MOL0     H 2175   5.297  10.143   6.464  1.3567  0.0889  2.3604
   16MOL0     H 2176   5.411   9.868   6.527  0.1112 -0.0744  1.7997
   16MOL0     H 2177   5.455  10.019   6.584 -2.5369 -0.2480  0.1407
   16MOL0     H 2178   5.521  10.088   6.336  0.3488 -0.3967 -0.9593
   16MOL0     H 2179   5.523   9.913   6.294  1.0124  0.3980 -0.5693
   16MOL0     H 2180   5.687   9.986   6.525  2.0543 -0.2144 -0.0294
   16MOL0     H 2181   5.701   9.859   6.415 -1.2790 -1.2075  1.9770
   16MOL0     H 2182   5.772  10.147   6.359 -0.0259  0.5961 -3.7914
   16MOL0     H 2183   5.776  10.021   6.228  0.1513  1.7746 -1.6290
   16MOL0     H 2184   5.927   9.894   6.371 -2.8931 -0.3596 -1.3132
   16MOL0     H 2185   5.897   9.998   6.508 -2.2945 -1.3104  0.3164
   16MOL0     H 2186   6.120  10.053   6.408 -1.1746  1.4229  2.7258
   16MOL0     H 2187   6.005  10.188   6.357 -1.9797 -0.6302  1.5438
   16MOL0     H 2188   4.921   9.864   6.319  1.2015  0.9820  0.5177
   16MOL0     H 2189   4.726   9.714   6.370  0.8494  1.5429 -0.6609
   16MOL0     H 2190   4.433   9.551   6.506 -0.5666 -1.0417 -0.6666
   16MOL0     H 2191   4.263   9.412   6.463 -0.8159 -0.1851  0.4668
   16MOL0     H 2192   4.648   8.295   6.701  2.5316  1.5013 -0.3521
   16MOL0     H 2193   4.827   8.170   6.785  1.9165  3.0625 -1.4253
   16MOL0     H 2194   5.035   7.773   6.759  0.1985 -1.3301  0.5554
   16MOL0     H 2195   5.183   7.607   6.823 -1.8473  0.2622 -2.4174
   16MOL0     H 2196   5.499   7.679   6.984 -2.1119  0.3575  2.2324
   16MOL0     H 2197   5.379   7.562   6.966  0.1166 -1.6358 -0.9942
   16MOL0     H 2198   5.531   7.379   6.920  2.2051  0.5335 -2.9287
   16MOL0     H 2199   5.590   7.470   7.060 -0.7453 -1.2089  1.4246
   16MOL0     H 2200   5.761   7.413   6.880  2.8629  1.5645 -0.3402
   16MOL0     H 2201   5.676   7.518   6.765  3.5509 -1.6168 -1.2040
   16MOL0     H 2202   5.833   7.573   7.018 -1.1083  0.2874  0.0804
   16MOL0     H 2203   5.722   7.694   6.971 -0.0072 -0.6042  0.9585
   16MOL0     H 2204   6.020   7.684   6.662  1.0256  0.2371  0.8451
   16MOL0     H 2205   5.513   7.859   6.707  0.1032  2.6561 -2.0878
   16MOL0     H 2206   5.350   8.146   6.638 -0.9083 -0.0347 -0.8642
   16MOL0     H 2207   5.492   8.060   6.598 -0.5475  1.0591  1.1048
   16MOL0     H 2208   5.346   8.062   6.486 -1.4747 -0.0550  0.4069
   17MOL0     O 2209   7.149   4.627   8.985 -0.3696 -0.6463  0.0321
   17MOL0     C 2210   7.081   4.600   8.886 -0.0165 -0.4339  0.1276
   17MOL0     O 2211   6.957   4.641   8.855  0.3333  0.7098  0.7594
   17MOL0     C 2212   6.879   4.710   8.943  0.2229 -0.3354 -0.2914
   17MOL0     C 2213   6.750   4.666   8.956  0.0679 -0.3790 -1.0319
   17MOL0     C 2214   6.649   4.739   9.038 -0.7849  0.3591  0.0085
   17MOL0     C 2215   6.685   4.858   9.107 -0.8835  0.2135 -1.1287
   17MOL0     O 2216   6.589   4.914   9.188 -0.0220  0.2015  0.0301
   17MOL0     C 2217   6.629   5.007   9.292 -0.0310 -0.0584 -0.3651
   17MOL0     C 2218   6.524   5.031   9.398  0.3983  0.0122  0.4461
   17MOL0     C 2219   6.409   5.113   9.355 -0.1316  0.0920  0.0544
   17MOL0     C 2220   6.298   5.121   9.465  0.3561 -0.9383 -0.1611
   17MOL0     C 2221   6.345   5.163   9.607 -0.0832 -0.1250  0.0127
   17MOL0     C 2222   6.381   5.311   9.622  0.8221 -0.1997 -0.0733
   17MOL0     C 2223   6.411   5.338   9.776  0.1256 -0.4785  0.8501
   17MOL0     C 2224   6.546   5.274   9.820  0.5107  0.5730 -0.3844
   17MOL0     N 2225   6.592   5.358   9.932  0.1508  0.4401  0.7294
   17MOL0     C 2226   6.692   5.442   9.931  0.4093 -0.1000  0.1869
   17MOL0     C 2227   6.689   5.520  10.043  0.6636  0.3143  0.6362
   17MOL0     C 2228   6.765   5.636  10.082 -0.2315 -0.3575 -0.3149
   17MOL0     C 2229   6.897   5.586  10.149 -0.0622  0.2610 -0.6982
   17MOL0     C 2230   6.867   5.500  10.279 -0.0650  0.3248  0.1446
   17MOL0     C 2231   6.999   5.516  10.361  0.3490 -0.2769 -0.0582
   17MOL0     O 2232   7.110   5.465  10.289 -0.6780  0.7891 -0.3217
   17MOL0     C 2233   7.226   5.439  10.353 -0.4943 -0.7331  0.4841
   17MOL0     C 2234   7.246   5.474  10.488 -0.2077  0.9890  0.0247
   17MOL0     C 2235   7.369   5.438  10.552  0.1242  0.1423 -0.0389
   17MOL0     C 2236   7.399   5.485  10.688 -0.1293 -0.3874  0.4535
   17MOL0     C 2237   7.467   5.369  10.478  0.5095 -0.7289  0.4094
   17MOL0     C 2238   7.587   5.313  10.542 -0.9609  0.2167  0.3255
   17MOL0     O 2239   7.684   5.271  10.457 -0.5740 -0.3817 -0.3867
   17MOL0     C 2240   7.788   5.200  10.509 -0.5606 -0.3691 -0.1014
   17MOL0     C 2241   7.904   5.267  10.561 -0.1685  0.2558 -0.3888
   17MOL0     C 2242   8.008   5.200  10.624 -0.3453  0.6062  0.3136
   17MOL0     C 2243   7.999   5.066  10.659  0.4995 -1.7051 -0.4850
   17MOL0     O 2244   8.089   4.991  10.738  0.2491 -0.2110  0.5986
   17MOL0     C 2245   8.222   5.056  10.754 -0.3833 -0.0528  0.0796
   17MOL0     C 2246   8.311   4.944  10.820  0.6643 -0.3043  0.3907
   17MOL0     C 2247   8.325   4.814  10.753  0.2303  0.7023  0.5720
   17MOL0     C 2248   8.452   4.734  10.803  0.4363  0.2912 -0.3219
   17MOL0     C 2249   8.507   4.642  10.686  0.4693 -0.6025  1.0241
   17MOL0     C 2250   8.621   4.543  10.742  0.5029 -0.1576  0.2392
   17MOL0     C 2251   8.610   4.425  10.652 -0.3933 -0.4406 -0.2835
   17MOL0     C 2252   8.716   4.317  10.690 -0.0455  0.6720  0.4388
   17MOL0    Cl 2253   8.876   4.375  10.631  0.1438  0.1397 -0.1143
   17MOL0     C 2254   7.902   5.000  10.596  1.0859  0.7732 -0.1029
   17MOL0     C 2255   7.788   5.065  10.534 -0.2468  0.1392 -0.0869
   17MOL0     O 2256   7.588   5.281  10.661 -1.0614 -0.1158  0.3414
   17MOL0     C 2257   7.446   5.339  10.340 -0.2728 -0.5888  0.0725
   17MOL0     C 2258   7.327   5.375  10.278 -0.2808 -0.0181 -0.5683
   17MOL0     N 2259   6.577   5.485  10.116  0.2971  0.5843  0.3448
   17MOL0     N 2260   6.525   5.385  10.048  0.2050 -0.8527 -0.2352
   17MOL0     C 2261   6.817   4.909   9.077  0.8197  0.1449 -0.2233
   17MOL0     C 2262   6.912   4.831   9.003 -0.4100  0.5615  0.0344
   17MOL0     C 2263   7.137   4.505   8.791  0.1893 -0.2505  0.3785
   17MOL0     C 2264   7.223   4.407   8.832  0.4655  0.7512 -1.1004
   17MOL0     C 2265   7.284   4.319   8.748 -0.4691 -0.3956  0.5413
   17MOL0     C 2266   7.257   4.321   8.616 -0.6474  0.1023  0.2062
   17MOL0     O 2267   7.329   4.233   8.533  0.5299 -0.6946 -0.6555
   17MOL0     C 2268   7.336   4.242   8.389 -0.0400 -0.9415 -0.2173
   17MOL0     C 2269   7.450   4.147   8.340  0.6225  0.0185 -0.2325
   17MOL0     C 2270   7.594   4.191   8.349 -0.2723 -0.0919  0.3005
   17MOL0     C 2271   7.694   4.081   8.350 -0.4309  0.5840 -0.0840
   17MOL0     C 2272   7.840   4.116   8.376 -0.7192  0.2466 -0.1192
   17MOL0     C 2273   7.970   4.131   8.384  0.2986  0.7152  0.3005
   17MOL0     C 2274   7.173   4.425   8.570 -0.1764  0.5810  0.6100
   17MOL0     C 2275   7.098   4.506   8.654 -0.4493 -0.4829  0.0198
   17MOL0     C 2276   7.001   4.598   8.579 -0.9594 -0.6212  0.0606
   17MOL0     H 2277   6.728   4.568   8.915  2.0287 -1.4025  0.2321
   17MOL0     H 2278   6.551   4.701   9.065 -0.4401  1.1018  2.5454
   17MOL0     H 2279   6.662   5.105   9.255 -0.5155  0.0811 -0.4280
   17MOL0     H 2280   6.718   4.965   9.340 -0.1153  0.7921  0.5747
   17MOL0     H 2281   6.482   4.934   9.425  1.9170 -0.9801 -0.5529
   17MOL0     H 2282   6.577   5.067   9.486  1.1152 -0.6239  0.2885
   17MOL0     H 2283   6.461   5.208   9.339  2.8280 -0.9110  2.6302
   17MOL0     H 2284   6.365   5.069   9.265 -0.4887  0.3371  0.1063
   17MOL0     H 2285   6.220   5.192   9.439  0.5487 -0.9595 -0.8071
   17MOL0     H 2286   6.251   5.022   9.475 -0.1059 -0.7920 -0.8204
   17MOL0     H 2287   6.427   5.103   9.649  0.3017 -0.4711 -1.1868
   17MOL0     H 2288   6.255   5.136   9.662 -1.0983 -2.2324 -2.5020
   17MOL0     H 2289   6.467   5.335   9.559  0.0757 -1.7555 -1.7651
   17MOL0     H 2290   6.294   5.374   9.601 -1.8052 -3.1739  1.0547
   17MOL0     H 2291   6.334   5.300   9.844 -0.1644  1.8889  1.9250
   17MOL0     H 2292   6.415   5.445   9.795  3.4413 -0.2350 -0.5602
   17MOL0     H 2293   6.530   5.168   9.845 -2.7536  1.3890  1.5271
   17MOL0     H 2294   6.613   5.260   9.735  0.0046 -2.7082 -0.3816
   17MOL0     H 2295   6.754   5.455   9.842 -0.8443 -1.2585 -0.8982
   17MOL0     H 2296   6.709   5.687  10.162  1.9121  0.8588  0.4874
   17MOL0     H 2297   6.784   5.706  10.000  1.0325  0.3694  0.5623
   17MOL0     H 2298   6.959   5.529  10.079 -1.2782 -2.1373  0.0500
   17MOL0     H 2299   6.951   5.673  10.186 -1.2291  0.0837  1.5970
   17MOL0     H 2300   6.783   5.543  10.334  0.1784  1.6473 -0.4709
   17MOL0     H 2301   6.844   5.396  10.253  1.1321 -0.2515  1.2338
   17MOL0     H 2302   7.023   5.621  10.382 -0.2486  0.1105 -1.1819
   17MOL0     H 2303   6.986   5.455  10.450  2.2085 -0.6378 -0.0039
   17MOL0     H 2304   7.169   5.528  10.543  0.0250  0.6027  0.7396
   17MOL0     H 2305   7.347   5.571  10.731 -0.2196 -1.1224  1.8867
   17MOL0     H 2306   7.503   5.517  10.689  0.5321 -2.2828 -0.9590
   17MOL0     H 2307   7.374   5.396  10.747  0.7671 -2.1112 -1.6110
   17MOL0     H 2308   7.912   5.375  10.565 -1.3071  0.3464 -0.0564
   17MOL0     H 2309   8.098   5.252  10.655 -0.1778 -0.3039  1.4431
   17MOL0     H 2310   8.274   5.082  10.662  0.0176 -0.9741  0.0274
   17MOL0     H 2311   8.218   5.140  10.823 -0.4955  1.3088 -1.5284
   17MOL0     H 2312   8.412   4.982  10.836  0.0575  1.4022  0.3705
   17MOL0     H 2313   8.255   4.923  10.912 -2.4277 -1.1618 -1.5384
   17MOL0     H 2314   8.339   4.819  10.645 -1.2803 -0.5126  0.2872
   17MOL0     H 2315   8.235   4.752  10.762  1.3145 -1.7829 -3.1453
   17MOL0     H 2316   8.425   4.673  10.889  2.4834  0.9166  0.8304
   17MOL0     H 2317   8.527   4.798  10.849  0.1133  0.3358  0.1415
   17MOL0     H 2318   8.423   4.581  10.651  0.7732  0.2010 -1.2197
   17MOL0     H 2319   8.543   4.696  10.598  0.8358 -0.5959  1.1756
   17MOL0     H 2320   8.602   4.518  10.846  0.5340 -1.3347 -0.0302
   17MOL0     H 2321   8.722   4.585  10.742  0.1027  0.8395  0.7494
   17MOL0     H 2322   8.643   4.450  10.551  0.0397  0.3138  0.0413
   17MOL0     H 2323   8.510   4.379  10.646  0.3644 -2.0032 -1.9626
   17MOL0     H 2324   8.699   4.225  10.632  1.2274  1.5917 -1.5114
   17MOL0     H 2325   8.712   4.298  10.797  0.3921 -0.4147  0.2804
   17MOL0     H 2326   7.895   4.893  10.613 -1.9876  0.8407 -0.3562
   17MOL0     H 2327   7.708   5.001  10.499  1.3300 -0.8671 -2.1341
   17MOL0     H 2328   7.514   5.275  10.284 -0.0411 -2.5257  2.3673
   17MOL0     H 2329   7.299   5.356  10.175 -0.9369 -2.5504  0.0078
   17MOL0     H 2330   6.855   4.993   9.134 -0.0451  0.9478 -0.7981
   17MOL0     H 2331   7.014   4.865   9.010 -0.6511  1.1566  0.7151
   17MOL0     H 2332   7.258   4.389   8.933 -1.2265 -2.3912 -0.9641
   17MOL0     H 2333   7.362   4.249   8.774  0.4833  0.9850  1.5784
   17MOL0     H 2334   7.241   4.216   8.341 -0.1061  0.0288 -0.6250
   17MOL0     H 2335   7.346   4.342   8.345 -0.8029 -1.2954 -1.2348
   17MOL0     H 2336   7.442   4.118   8.235  0.5464 -0.5705 -0.0664
   17MOL0     H 2337   7.435   4.056   8.399  1.5291 -1.1586 -1.7313
   17MOL0     H 2338   7.617   4.256   8.264 -0.5972  0.6814  0.7936
   17MOL0     H 2339   7.611   4.258   8.434  3.6884 -0.5807  0.0748
   17MOL0     H 2340   7.684   4.047   8.246  1.8762  0.4548 -0.3241
   17MOL0     H 2341   7.669   4.007   8.426  1.2846 -0.0047 -0.0452
   17MOL0     H 2342   8.072   4.149   8.412  0.3937 -0.6236  0.9294
   17MOL0     H 2343   7.148   4.435   8.465 -2.4982  0.2612  1.0745
   17MOL0     H 2344   7.047   4.695   8.558  0.4862 -1.0014  1.2708
   17MOL0     H 2345   6.982   4.565   8.476 -2.1786  2.2651 -0.7433
   17MOL0     H 2346   6.905   4.613   8.629 -0.0873  1.3868  1.2399
   18MOL0     O 2347   0.394   2.451   5.926  0.1611  0.1896  0.3877
   18MOL0     C 2348   0.366   2.512   6.028  0.2047  0.7674  1.0550
   18MOL0     O 2349   0.453   2.551   6.126 -0.1750  0.1700 -0.5918
   18MOL0     C 2350   0.582   2.529   6.111 -0.5116 -0.2183 -0.0017
   18MOL0     C 2351   0.638   2.394   6.126  0.4687 -0.3646  0.0624
   18MOL0     C 2352   0.781   2.377   6.120  0.2800  0.8775  0.4896
   18MOL0     C 2353   0.865   2.489   6.094 -0.3227 -0.3401 -0.3805
   18MOL0     O 2354   0.999   2.483   6.093  1.0171 -0.9283 -0.0705
   18MOL0     C 2355   1.054   2.427   6.207  0.1440  0.4701  0.7632
   18MOL0     C 2356   1.201   2.462   6.207  0.5077  0.5586 -0.0223
   18MOL0     C 2357   1.281   2.408   6.092  0.9549  0.2679  0.4483
   18MOL0     C 2358   1.428   2.447   6.094 -0.3538 -0.8160 -0.4601
   18MOL0     C 2359   1.500   2.407   5.974  0.6268  0.0373 -0.6017
   18MOL0     C 2360   1.651   2.392   5.995 -0.3906  0.3595 -0.1265
   18MOL0     C 2361   1.723   2.507   6.064 -0.6003 -0.8033  0.7582
   18MOL0     C 2362   1.775   2.619   5.972  0.3445 -0.1341 -0.1485
   18MOL0     N 2363   1.837   2.728   6.051  0.0934  0.4585 -0.3255
   18MOL0     C 2364   1.966   2.742   6.077  0.3649  0.6032  0.0947
   18MOL0     C 2365   1.964   2.854   6.146 -0.4929  0.8976  0.0502
   18MOL0     C 2366   2.089   2.929   6.185 -1.5798 -0.4605  0.5853
   18MOL0     C 2367   2.075   3.003   6.314 -0.3050  0.2319  0.0617
   18MOL0     C 2368   2.212   3.061   6.345 -0.2797 -0.3554 -0.3862
   18MOL0     C 2369   2.227   3.130   6.482  0.0164 -0.0374  0.0761
   18MOL0     O 2370   2.317   3.243   6.483  0.1869 -0.0214 -0.0161
   18MOL0     C 2371   2.450   3.217   6.471 -0.9209 -0.5993  0.1711
   18MOL0     C 2372   2.513   3.138   6.569 -0.1898 -0.7189 -0.4564
   18MOL0     C 2373   2.648   3.100   6.558  0.3347 -0.3963  0.3159
   18MOL0     C 2374   2.694   3.012   6.673 -0.3570  0.4809 -0.0252
   18MOL0     C 2375   2.724   3.150   6.451  0.1734 -0.0819  0.3828
   18MOL0     C 2376   2.863   3.124   6.446  0.1621  0.8932 -0.2400
   18MOL0     O 2377   2.963   3.205   6.500  0.2041 -0.3481  0.3514
   18MOL0     C 2378   3.096   3.171   6.500 -0.0763  0.9275 -0.3504
   18MOL0     C 2379   3.134   3.043   6.539  0.0482 -0.1630 -0.1083
   18MOL0     C 2380   3.272   3.012   6.552  0.4552  0.2841 -0.3691
   18MOL0     C 2381   3.370   3.097   6.521  0.2131 -0.9602 -0.9517
   18MOL0     O 2382   3.502   3.067   6.547  0.7818  0.0840  0.5580
   18MOL0     C 2383   3.556   2.943   6.507 -0.5085 -0.2348 -0.2201
   18MOL0     C 2384   3.701   2.964   6.462 -0.4279 -0.1524  0.2326
   18MOL0     C 2385   3.745   2.855   6.348 -0.9484 -0.3328 -0.3604
   18MOL0     C 2386   3.709   2.707   6.386  0.7217 -0.3607 -0.2964
   18MOL0     C 2387   3.700   2.618   6.265 -0.2418  0.8664  0.6643
   18MOL0     C 2388   3.652   2.478   6.298  0.2700  0.6435 -0.5795
   18MOL0     C 2389   3.608   2.390   6.179  0.7964  0.0718  0.3379
   18MOL0     C 2390   3.571   2.253   6.222 -0.0695  0.6733 -0.0086
   18MOL0    Cl 2391   3.410   2.232   6.311 -0.0011  0.3814  0.0259
   18MOL0     C 2392   3.335   3.223   6.483  0.9948 -0.8578 -0.8123
   18MOL0     C 2393   3.198   3.259   6.475 -0.5101 -0.2092  0.7081
   18MOL0     O 2394   2.882   3.019   6.378 -0.0930  0.6898 -0.6648
   18MOL0     C 2395   2.653   3.206   6.346 -0.4608 -0.2653  0.4564
   18MOL0     C 2396   2.517   3.241   6.351  0.2502 -0.4453  0.1415
   18MOL0     N 2397   1.837   2.911   6.152  0.4620  0.6860  0.0924
   18MOL0     N 2398   1.757   2.831   6.090 -0.5187  0.0685  0.4322
   18MOL0     C 2399   0.810   2.618   6.088 -0.1711  0.4053 -0.4796
   18MOL0     C 2400   0.677   2.634   6.094  1.2897 -1.1555 -0.3842
   18MOL0     C 2401   0.220   2.536   6.036 -0.2870  0.3927 -1.4783
   18MOL0     C 2402   0.122   2.436   6.002 -0.1383 -0.2643 -0.0405
   18MOL0     C 2403  -0.012   2.449   6.015 -0.4718  0.4651 -0.0849
   18MOL0     C 2404  -0.061   2.562   6.082 -0.2054 -0.6207 -0.8181
   18MOL0     O 2405  -0.198   2.574   6.103 -0.6581 -0.2413  0.2095
   18MOL0     C 2406  -0.252   2.660   6.202 -0.0888  0.2342  0.3372
   18MOL0     C 2407  -0.380   2.594   6.252 -0.3983 -0.9347  0.0998
   18MOL0     C 2408  -0.365   2.448   6.295 -0.3800  0.7695  0.0873
   18MOL0     C 2409  -0.504   2.391   6.348 -0.6595 -0.2552  0.5707
   18MOL0     C 2410  -0.549   2.464   6.470  0.0720 -0.1563  0.5700
   18MOL0     C 2411  -0.576   2.530   6.573  0.0865  0.9522  0.1032
   18MOL0     C 2412   0.025   2.663   6.122  0.2982 -0.2327 -0.7092
   18MOL0     C 2413   0.164   2.655   6.100 -0.0934  1.4314  0.5155
   18MOL0     C 2414   0.242   2.777   6.126  0.3842  1.0753 -0.5388
   18MOL0     H 2415   0.575   2.307   6.144  2.1947 -1.8909 -1.0096
   18MOL0     H 2416   0.810   2.272   6.125  0.3658  0.7438 -1.8312
   18MOL0     H 2417   1.047   2.319   6.193  3.9053  0.2049 -0.0084
   18MOL0     H 2418   1.006   2.469   6.296 -1.8395  0.1515 -0.1016
   18MOL0     H 2419   1.215   2.570   6.199 -0.0560  0.5377 -1.5299
   18MOL0     H 2420   1.247   2.428   6.301 -1.9694 -2.9517  0.1008
   18MOL0     H 2421   1.278   2.299   6.087  3.5816  0.1741 -2.1486
   18MOL0     H 2422   1.236   2.455   6.003 -0.8107 -2.1956 -0.0595
   18MOL0     H 2423   1.437   2.556   6.089  0.5097 -0.9195 -1.6123
   18MOL0     H 2424   1.478   2.402   6.180 -1.9482 -1.2717  0.2718
   18MOL0     H 2425   1.493   2.489   5.902  2.4980 -0.5359 -1.5247
   18MOL0     H 2426   1.464   2.315   5.927 -0.7630 -0.4734  1.3238
   18MOL0     H 2427   1.676   2.302   6.053 -0.3704  0.4004 -0.0709
   18MOL0     H 2428   1.702   2.370   5.901 -0.2871  2.9633 -0.7336
   18MOL0     H 2429   1.809   2.454   6.107 -0.3290  1.1284  2.7596
   18MOL0     H 2430   1.669   2.548   6.150 -2.0916 -1.8796  0.3757
   18MOL0     H 2431   1.844   2.573   5.900  1.2606 -1.8289  1.7238
   18MOL0     H 2432   1.694   2.675   5.925  0.8155  0.8697  0.2297
   18MOL0     H 2433   2.053   2.688   6.040 -0.9171 -0.4793 -1.5270
   18MOL0     H 2434   2.102   2.994   6.098  0.1501  0.0916  1.2303
   18MOL0     H 2435   2.169   2.856   6.199 -1.9278 -0.3976  3.7814
   18MOL0     H 2436   2.004   3.086   6.312 -0.5910  0.1441  2.8134
   18MOL0     H 2437   2.045   2.926   6.386  0.3270 -1.2905 -1.2369
   18MOL0     H 2438   2.298   2.993   6.353 -1.5409 -1.9861 -0.1633
   18MOL0     H 2439   2.233   3.135   6.268  0.1976 -1.3921 -1.2800
   18MOL0     H 2440   2.133   3.174   6.516  1.1647  3.6411 -0.9725
   18MOL0     H 2441   2.262   3.057   6.555  0.5166  1.8518  1.8359
   18MOL0     H 2442   2.448   3.118   6.654  0.4829  0.2951  0.3342
   18MOL0     H 2443   2.723   2.915   6.634  1.0053  0.1257  1.7473
   18MOL0     H 2444   2.606   2.991   6.736 -1.3021  0.0054 -1.4550
   18MOL0     H 2445   2.769   3.060   6.737 -1.9999  2.1354  0.7751
   18MOL0     H 2446   3.058   2.972   6.571 -1.6841  1.0302 -1.4120
   18MOL0     H 2447   3.295   2.912   6.588  1.8349  0.7586  0.1214
   18MOL0     H 2448   3.555   2.881   6.598  0.8813  2.0897  1.4885
   18MOL0     H 2449   3.502   2.891   6.427 -0.7998 -0.5163  0.1545
   18MOL0     H 2450   3.723   3.063   6.421 -1.6058 -0.7803 -2.0739
   18MOL0     H 2451   3.765   2.951   6.551 -1.0658  0.8690  0.8547
   18MOL0     H 2452   3.850   2.864   6.320 -0.5927 -4.5412 -0.9405
   18MOL0     H 2453   3.689   2.868   6.255 -1.5065 -1.4612 -0.1901
   18MOL0     H 2454   3.623   2.695   6.452  1.8891 -0.3187  1.2843
   18MOL0     H 2455   3.792   2.672   6.447  0.9381  2.0900  0.9075
   18MOL0     H 2456   3.631   2.664   6.194 -0.0732  1.0768  0.6325
   18MOL0     H 2457   3.789   2.589   6.209 -1.0872 -2.8717  1.0198
   18MOL0     H 2458   3.572   2.487   6.372  0.0382  1.8909 -0.9663
   18MOL0     H 2459   3.736   2.429   6.349 -0.4745 -0.5910 -0.5136
   18MOL0     H 2460   3.674   2.380   6.093 -2.0690  0.4395 -2.0550
   18MOL0     H 2461   3.521   2.433   6.130  1.0302  0.6744  0.4466
   18MOL0     H 2462   3.650   2.204   6.281  0.5220 -0.7656 -1.8916
   18MOL0     H 2463   3.567   2.189   6.133 -1.9559 -1.0209  1.2051
   18MOL0     H 2464   3.411   3.298   6.469 -0.1099  0.4018 -0.3024
   18MOL0     H 2465   3.161   3.355   6.440 -2.4543 -1.6467 -1.3939
   18MOL0     H 2466   2.702   3.247   6.258 -0.5926  0.6136  0.7830
   18MOL0     H 2467   2.468   3.283   6.264 -2.2830  2.0170  2.5510
   18MOL0     H 2468   0.870   2.708   6.087  3.5478 -1.8486 -0.4872
   18MOL0     H 2469   0.638   2.730   6.063 -1.2712 -1.5122  1.3931
   18MOL0     H 2470   0.148   2.340   5.960 -1.3883 -0.0995 -1.2598
   18MOL0     H 2471  -0.076   2.367   5.985 -2.4971  0.7872  2.9137
   18MOL0     H 2472  -0.187   2.695   6.283 -2.8180  0.7877  2.4038
   18MOL0     H 2473  -0.283   2.748   6.145  0.1005 -0.4631 -0.8934
   18MOL0     H 2474  -0.459   2.600   6.176 -1.8775 -2.9432  1.3594
   18MOL0     H 2475  -0.422   2.635   6.345  1.6427 -0.6447  0.9459
   18MOL0     H 2476  -0.350   2.396   6.200 -0.7352 -0.0335  0.4666
   18MOL0     H 2477  -0.287   2.439   6.371  0.7086  2.2488 -0.7993
   18MOL0     H 2478  -0.495   2.287   6.379  1.9075 -1.1155 -2.5028
   18MOL0     H 2479  -0.574   2.390   6.264  1.2101  1.7452 -1.1263
   18MOL0     H 2480  -0.597   2.577   6.666 -0.8195 -1.1213  1.0088
   18MOL0     H 2481  -0.023   2.748   6.171  0.2815  0.0960 -1.2933
   18MOL0     H 2482   0.186   2.867   6.097  0.5781  0.6974 -2.1555
   18MOL0     H 2483   0.267   2.780   6.232  0.1979 -0.3730 -0.4377
   18MOL0     H 2484   0.336   2.767   6.070 -0.6309 -1.5482 -1.9216
   19MOL0     O 2485  10.462   2.751   5.648 -0.0149 -0.0156 -0.1958
   19MOL0     C 2486  10.398   2.817   5.576  0.0414  0.9202  0.8197
   19MOL0     O 2487  10.444   2.918   5.505 -0.3230 -1.1407  0.1219
   19MOL0     C 2488  10.575   2.949   5.520  0.5065 -0.0680  0.1774
   19MOL0     C 2489  10.613   3.049   5.615  0.2449  1.0259  0.1288
   19MOL0     C 2490  10.739   3.106   5.623 -0.1714  1.0499 -0.3965
   19MOL0     C 2491  10.834   3.078   5.526 -0.0609  0.4448 -0.9336
   19MOL0     O 2492  10.957   3.144   5.542  0.7857  0.4611 -0.4712
   19MOL0     C 2493  11.073   3.088   5.491  0.6130 -0.4411 -0.4261
   19MOL0     C 2494  11.204   3.138   5.555  0.9142 -0.6528  0.3365
   19MOL0     C 2495  11.317   3.080   5.477  0.3808  0.9843  0.2808
   19MOL0     C 2496  11.453   3.129   5.524  0.1901  0.4637 -1.0084
   19MOL0     C 2497  11.584   3.087   5.466 -0.0571 -0.4144 -0.3330
   19MOL0     C 2498  11.606   3.139   5.322  0.4604  0.8773 -0.2620
   19MOL0     C 2499  11.745   3.100   5.278  0.0206 -0.1611 -0.2032
   19MOL0     C 2500  11.764   3.108   5.127 -0.5709  0.2460 -0.4566
   19MOL0     N 2501  11.892   3.072   5.076  0.3063  0.4421  0.7929
   19MOL0     C 2502  12.015   3.077   5.133  0.2461 -0.0805 -0.0647
   19MOL0     C 2503  12.099   3.028   5.035  0.0198 -0.4118 -0.1257
   19MOL0     C 2504  12.244   3.009   5.065  1.0341  0.4097  0.1099
   19MOL0     C 2505  12.306   3.149   5.048  0.1429 -0.6532  0.3162
   19MOL0     C 2506  12.350   3.181   4.897  0.3178 -0.0546  0.3146
   19MOL0     C 2507  12.401   3.326   4.889  0.2787 -0.3103 -0.7458
   19MOL0     O 2508  12.535   3.336   4.941  0.1317 -0.3166  0.1688
   19MOL0     C 2509  12.641   3.337   4.857  0.3539  0.2122  0.4201
   19MOL0     C 2510  12.703   3.220   4.840 -0.0500  0.4332  0.3273
   19MOL0     C 2511  12.794   3.200   4.733 -0.0674  0.5887 -0.8808
   19MOL0     C 2512  12.860   3.069   4.717 -0.0197  0.4853 -0.5743
   19MOL0     C 2513  12.830   3.318   4.653  0.1996 -0.1800  0.0104
   19MOL0     C 2514  12.927   3.320   4.544 -0.1733 -0.4053  0.3255
   19MOL0     O 2515  12.922   3.423   4.444 -0.2876  0.7179 -0.4758
   19MOL0     C 2516  13.038   3.449   4.377  0.4323 -0.3886  0.1081
   19MOL0     C 2517  13.053   3.415   4.249 -0.8323  0.3041 -0.4369
   19MOL0     C 2518  13.177   3.437   4.185  0.7786 -0.6651  0.4875
   19MOL0     C 2519  13.284   3.500   4.249 -0.0923  0.1135  0.2986
   19MOL0     O 2520  13.412   3.518   4.200 -0.3747 -0.2363  0.0605
   19MOL0     C 2521  13.450   3.495   4.063  1.1907  0.3691  0.0248
   19MOL0     C 2522  13.604   3.489   4.046 -0.8215 -0.1560  0.5415
   19MOL0     C 2523  13.657   3.640   4.047  0.0885 -0.2074 -0.1321
   19MOL0     C 2524  13.808   3.643   3.999  0.1607  0.1020  0.0215
   19MOL0     C 2525  13.843   3.791   3.984  0.0519 -0.4410  0.2864
   19MOL0     C 2526  13.998   3.792   3.948  0.0023  0.7988 -0.1725
   19MOL0     C 2527  14.046   3.932   3.897  0.3341  0.9415 -0.2796
   19MOL0     C 2528  14.190   3.912   3.843 -0.2213  1.1853  0.2005
   19MOL0    Cl 2529  14.298   3.880   3.990  0.1058  0.4382 -0.0601
   19MOL0     C 2530  13.257   3.537   4.381  0.2657  0.8868  0.0284
   19MOL0     C 2531  13.138   3.513   4.451 -0.6991  0.0228  0.5574
   19MOL0     O 2532  13.021   3.243   4.566  0.2757  0.2953  0.1749
   19MOL0     C 2533  12.760   3.438   4.680 -0.5450  0.1561  0.3558
   19MOL0     C 2534  12.666   3.444   4.774 -0.8527  0.8778  0.0382
   19MOL0     N 2535  12.030   2.986   4.927 -0.6711  1.2826  0.6624
   19MOL0     N 2536  11.910   3.007   4.951 -0.6859  0.4565 -0.9791
   19MOL0     C 2537  10.804   2.972   5.429 -0.0634  0.1418 -0.1487
   19MOL0     C 2538  10.669   2.906   5.434 -0.8865  0.0386  0.6231
   19MOL0     C 2539  10.252   2.779   5.536 -0.1133 -0.6045  0.5877
   19MOL0     C 2540  10.181   2.878   5.458  0.3990  0.9929 -0.1510
   19MOL0     C 2541  10.052   2.850   5.416  0.3527 -0.4504  1.0098
   19MOL0     C 2542   9.989   2.734   5.459  1.0064 -0.0750 -0.9010
   19MOL0     O 2543   9.860   2.691   5.423  0.5963 -0.1431  0.1643
   19MOL0     C 2544   9.801   2.773   5.314 -0.0534  0.3841 -0.5164
   19MOL0     C 2545   9.650   2.744   5.306  0.7145 -0.7505 -0.1107
   19MOL0     C 2546   9.573   2.786   5.430 -0.6079 -0.2991  0.2610
   19MOL0     C 2547   9.558   2.938   5.444  0.4826 -0.6655 -0.0696
   19MOL0     C 2548   9.527   2.982   5.581  0.5316 -0.3341  0.4854
   19MOL0     C 2549   9.490   3.008   5.692  0.0574 -0.3154 -1.2163
   19MOL0     C 2550  10.058   2.638   5.538 -0.6630  0.2517  0.1359
   19MOL0     C 2551  10.192   2.656   5.571  0.3329  0.0307 -0.7021
   19MOL0     C 2552  10.249   2.570   5.670 -0.6045 -0.3833 -0.2609
   19MOL0     H 2553  10.531   3.084   5.676  0.1150  0.0570  0.5328
   19MOL0     H 2554  10.765   3.178   5.701  4.2147 -2.8419  2.2222
   19MOL0     H 2555  11.078   3.114   5.385  0.9031 -2.3101 -0.8956
   19MOL0     H 2556  11.078   2.980   5.504  3.4264 -0.3838 -0.4147
   19MOL0     H 2557  11.203   3.248   5.552 -0.5373 -0.6517 -0.1225
   19MOL0     H 2558  11.200   3.104   5.658 -1.2306 -2.8062 -0.3679
   19MOL0     H 2559  11.322   2.973   5.503  2.2569  0.7947 -0.6696
   19MOL0     H 2560  11.314   3.100   5.370  1.2367  2.7480  0.5619
   19MOL0     H 2561  11.441   3.237   5.517 -0.4488  0.2905 -3.7784
   19MOL0     H 2562  11.462   3.107   5.631 -1.5391 -0.7834 -1.0743
   19MOL0     H 2563  11.593   2.978   5.475 -1.2420 -0.4585  0.4251
   19MOL0     H 2564  11.651   3.137   5.536 -1.9122 -2.6334  3.2871
   19MOL0     H 2565  11.537   3.084   5.259 -1.8126  0.1549  2.6270
   19MOL0     H 2566  11.600   3.248   5.313  2.2062  1.2432  1.8183
   19MOL0     H 2567  11.758   2.995   5.306 -0.1926  0.0059  0.5350
   19MOL0     H 2568  11.829   3.149   5.326 -0.0645 -0.3864  0.1787
   19MOL0     H 2569  11.698   3.045   5.067  0.0882 -0.1513 -0.7733
   19MOL0     H 2570  11.747   3.210   5.091 -4.2228 -0.7769 -2.1464
   19MOL0     H 2571  12.036   3.120   5.231 -0.5675 -0.0932  0.1244
   19MOL0     H 2572  12.297   2.941   4.998  2.7735  1.6984  0.1083
   19MOL0     H 2573  12.254   2.976   5.169  1.6662 -2.8627 -0.8779
   19MOL0     H 2574  12.227   3.221   5.071 -0.7825 -1.9888  1.4655
   19MOL0     H 2575  12.391   3.167   5.113  1.4858  0.0648 -1.5441
   19MOL0     H 2576  12.430   3.111   4.871  0.4134  0.3849 -0.5977
   19MOL0     H 2577  12.258   3.176   4.839  0.0109  0.0969  0.7836
   19MOL0     H 2578  12.401   3.357   4.784 -0.5380 -0.8738 -0.9242
   19MOL0     H 2579  12.335   3.402   4.933 -1.0189  0.6057 -3.9638
   19MOL0     H 2580  12.676   3.142   4.910  0.3032 -0.0517 -0.0654
   19MOL0     H 2581  12.826   2.993   4.787  2.6932  1.2961  1.8102
   19MOL0     H 2582  12.965   3.086   4.744  0.2253 -1.0178 -0.5135
   19MOL0     H 2583  12.846   3.041   4.612  0.7265  3.8970 -1.7249
   19MOL0     H 2584  12.967   3.385   4.189  0.0091  1.7827 -2.4906
   19MOL0     H 2585  13.160   3.418   4.079 -2.4749 -1.0568  0.9806
   19MOL0     H 2586  13.424   3.395   4.027  1.7509  0.3229 -0.2559
   19MOL0     H 2587  13.397   3.567   3.999 -0.9231  1.6176  2.9540
   19MOL0     H 2588  13.651   3.430   4.126 -2.4549 -0.0762  1.6103
   19MOL0     H 2589  13.622   3.432   3.954 -3.5060 -2.0705  1.0801
   19MOL0     H 2590  13.644   3.686   4.145  2.3856  0.9592 -0.3088
   19MOL0     H 2591  13.588   3.700   3.987 -1.1219 -0.1950  1.2336
   19MOL0     H 2592  13.813   3.596   3.900  2.5017  0.8846 -0.2795
   19MOL0     H 2593  13.883   3.588   4.056  0.2236 -1.3818 -1.4207
   19MOL0     H 2594  13.786   3.841   3.905 -0.3852 -1.6679 -0.1921
   19MOL0     H 2595  13.822   3.835   4.083  0.9083 -0.1135  0.3295
   19MOL0     H 2596  14.021   3.726   3.864  0.1142  1.1428 -0.4159
   19MOL0     H 2597  14.054   3.751   4.033 -0.1032  0.1331 -0.4224
   19MOL0     H 2598  14.039   4.009   3.975 -3.8480 -1.3237  1.9160
   19MOL0     H 2599  13.986   3.972   3.814  1.8489  1.9583 -0.9410
   19MOL0     H 2600  14.231   4.003   3.797 -1.4580  2.1514  0.9597
   19MOL0     H 2601  14.188   3.833   3.768  0.6202  0.3980  0.9770
   19MOL0     H 2602  13.321   3.596   4.446 -0.0297 -1.2176  2.3939
   19MOL0     H 2603  13.115   3.551   4.550 -2.9836 -0.2062  0.1646
   19MOL0     H 2604  12.772   3.523   4.614 -1.0766 -1.5030 -2.0151
   19MOL0     H 2605  12.615   3.538   4.791  1.3842  1.7505  2.6362
   19MOL0     H 2606  10.885   2.939   5.365  0.1016 -1.6016  0.8973
   19MOL0     H 2607  10.651   2.838   5.352 -0.7152  1.0051 -0.2412
   19MOL0     H 2608  10.232   2.973   5.449  0.6553  0.8406 -0.2797
   19MOL0     H 2609  10.001   2.915   5.346  0.3979 -2.4938 -1.0266
   19MOL0     H 2610   9.808   2.879   5.342 -1.2788  0.8599 -1.8799
   19MOL0     H 2611   9.850   2.751   5.219  0.5870  0.5883 -0.2414
   19MOL0     H 2612   9.626   2.638   5.295  0.0181 -0.5568 -0.5818
   19MOL0     H 2613   9.601   2.799   5.224  4.4127 -2.3151 -3.7514
   19MOL0     H 2614   9.470   2.751   5.441 -1.3123  1.4940 -0.1854
   19MOL0     H 2615   9.623   2.743   5.518  0.4660 -1.6418 -0.9725
   19MOL0     H 2616   9.467   2.966   5.391 -0.9867  0.0755  2.7040
   19MOL0     H 2617   9.641   2.995   5.401 -0.6404 -0.1852 -1.6901
   19MOL0     H 2618   9.467   3.031   5.794 -0.2015  0.4411 -1.4359
   19MOL0     H 2619  10.002   2.548   5.562 -0.4020 -0.1191 -0.6104
   19MOL0     H 2620  10.320   2.501   5.623 -0.7871 -2.3016  2.1235
   19MOL0     H 2621  10.316   2.609   5.747  1.6841 -1.7977 -1.4207
   19MOL0     H 2622  10.170   2.510   5.717 -0.4883 -0.5826 -0.3169
   20MOL0     O 2623   7.139   4.424   3.043 -0.0787 -0.4779 -0.2187
   20MOL0     C 2624   7.157   4.542   3.020  0.5092 -0.6931 -0.1104
   20MOL0     O 2625   7.270   4.609   3.046  0.6365  0.0957  0.4010
   20MOL0     C 2626   7.372   4.535   3.106 -0.7350 -0.1238 -0.4859
   20MOL0     C 2627   7.438   4.437   3.036 -0.4177 -0.0779 -0.9311
   20MOL0     C 2628   7.544   4.367   3.104  0.6116  0.0167 -0.0478
   20MOL0     C 2629   7.576   4.404   3.233 -0.1931  0.2667 -0.3121
   20MOL0     O 2630   7.653   4.318   3.314 -1.1882 -0.0329  0.3210
   20MOL0     C 2631   7.791   4.357   3.337  0.6678  0.6901  0.1823
   20MOL0     C 2632   7.871   4.224   3.363  0.6819 -0.3971 -0.0579
   20MOL0     C 2633   8.015   4.259   3.387  0.5839 -0.0177  0.2269
   20MOL0     C 2634   8.043   4.318   3.524  0.0685  0.8319  0.1557
   20MOL0     C 2635   8.185   4.333   3.580 -0.6344  0.7762  0.5649
   20MOL0     C 2636   8.192   4.426   3.701 -0.2243  0.0327 -0.0950
   20MOL0     C 2637   8.334   4.462   3.749 -0.2430  0.0217  0.3422
   20MOL0     C 2638   8.325   4.548   3.880  0.0060  0.4431  0.3834
   20MOL0     N 2639   8.260   4.677   3.851  0.1606  0.6260 -0.1056
   20MOL0     C 2640   8.132   4.702   3.891 -0.2580  0.5968 -0.5340
   20MOL0     C 2641   8.113   4.830   3.852  0.1657 -0.0863  0.2753
   20MOL0     C 2642   7.991   4.911   3.877  0.1521  0.3100  1.5414
   20MOL0     C 2643   7.986   4.973   4.022 -0.2559 -0.1608  0.1293
   20MOL0     C 2644   7.885   5.090   4.041 -0.3483 -0.0509  0.5631
   20MOL0     C 2645   7.912   5.185   4.156  0.3183  0.4531 -0.4172
   20MOL0     O 2646   7.911   5.113   4.281 -0.5899  0.4731  0.7359
   20MOL0     C 2647   7.797   5.072   4.347 -0.4284  0.3180  0.3587
   20MOL0     C 2648   7.673   5.124   4.343  0.1684  0.4141  1.0378
   20MOL0     C 2649   7.572   5.064   4.427 -0.5651 -0.5742  0.8229
   20MOL0     C 2650   7.440   5.127   4.415  0.4098  0.2239  0.3997
   20MOL0     C 2651   7.594   4.944   4.501  0.0193 -0.0526 -0.6288
   20MOL0     C 2652   7.493   4.870   4.591  0.4010  0.4605  0.4546
   20MOL0     O 2653   7.549   4.794   4.681 -0.6663 -0.0627  0.2647
   20MOL0     C 2654   7.463   4.736   4.774 -0.5666 -0.2228  0.7206
   20MOL0     C 2655   7.392   4.823   4.853  0.6514  0.8128  0.0503
   20MOL0     C 2656   7.304   4.773   4.959 -0.1965 -0.1279 -0.2513
   20MOL0     C 2657   7.291   4.640   4.985  0.2181  0.8994 -0.6560
   20MOL0     O 2658   7.204   4.597   5.081 -0.4505 -0.3324 -0.2591
   20MOL0     C 2659   7.193   4.455   5.108 -0.4121  0.4643 -0.1859
   20MOL0     C 2660   7.093   4.435   5.227  0.0241  0.2496 -0.5087
   20MOL0     C 2661   6.963   4.512   5.207  0.2447 -0.0313 -0.2616
   20MOL0     C 2662   6.899   4.488   5.064 -0.6305  0.1421 -0.0573
   20MOL0     C 2663   6.744   4.501   5.064  0.7252  0.4576 -1.1858
   20MOL0     C 2664   6.682   4.478   4.931 -0.0828 -0.7811 -0.7183
   20MOL0     C 2665   6.528   4.485   4.940  0.0362 -0.0215  0.1965
   20MOL0     C 2666   6.468   4.435   4.814  0.5967 -0.1542  0.1750
   20MOL0    Cl 2667   6.517   4.512   4.662 -0.2607 -0.0633 -0.0335
   20MOL0     C 2668   7.366   4.554   4.909  0.6410  0.3574  0.3133
   20MOL0     C 2669   7.452   4.598   4.803 -0.4088  0.0825 -1.2235
   20MOL0     O 2670   7.373   4.860   4.562  0.2946  0.1253  1.0254
   20MOL0     C 2671   7.726   4.906   4.511 -0.3146 -0.2397 -1.0830
   20MOL0     C 2672   7.825   4.966   4.433 -0.2828  1.0271  0.2559
   20MOL0     N 2673   8.230   4.874   3.792  0.4240  0.4481 -0.5299
   20MOL0     N 2674   8.315   4.787   3.798 -0.3711 -1.1115 -0.0447
   20MOL0     C 2675   7.509   4.496   3.308  0.8331  0.2394 -0.0217
   20MOL0     C 2676   7.408   4.568   3.241 -0.6864 -0.3035  0.5312
   20MOL0     C 2677   7.043   4.612   2.967 -0.0700  0.8248 -0.3915
   20MOL0     C 2678   7.029   4.751   2.984 -0.1289 -0.5992 -0.9295
   20MOL0     C 2679   6.917   4.817   2.935 -0.6401 -0.4930  0.5040
   20MOL0     C 2680   6.802   4.749   2.872 -0.0874 -0.1233 -0.8626
   20MOL0     O 2681   6.690   4.801   2.812  1.0862 -0.0298 -0.6808
   20MOL0     C 2682   6.673   4.941   2.831 -0.5876  0.3061  0.1810
   20MOL0     C 2683   6.553   5.004   2.759 -0.5148  0.7003  0.5810
   20MOL0     C 2684   6.560   4.959   2.611  0.4351 -0.6335 -0.3881
   20MOL0     C 2685   6.443   5.040   2.546  0.0157  0.8461 -0.4434
   20MOL0     C 2686   6.439   5.011   2.405 -0.1344  0.7624 -0.5411
   20MOL0     C 2687   6.449   4.971   2.285 -0.2362  0.8425  0.2596
   20MOL0     C 2688   6.825   4.617   2.850  0.2331  0.4773  0.0728
   20MOL0     C 2689   6.936   4.549   2.894  0.8158  0.9109 -1.0418
   20MOL0     C 2690   6.943   4.409   2.829  0.0934  0.0304 -0.0000
   20MOL0     H 2691   7.415   4.420   2.931  1.2217  2.1345 -1.7272
   20MOL0     H 2692   7.598   4.291   3.049  0.0980  1.1209 -2.1683
   20MOL0     H 2693   7.802   4.429   3.418  1.6217  0.2115  0.4936
   20MOL0     H 2694   7.827   4.408   3.247  0.0460 -0.6690 -0.8649
   20MOL0     H 2695   7.822   4.168   3.443  1.1713  0.0325  0.5486
   20MOL0     H 2696   7.866   4.167   3.269 -0.8118  0.4871 -0.5412
   20MOL0     H 2697   8.076   4.168   3.391 -1.1282 -1.1932  3.2422
   20MOL0     H 2698   8.040   4.346   3.325 -2.4539  3.0014  2.8062
   20MOL0     H 2699   7.997   4.416   3.535 -1.5754 -0.0310  1.5349
   20MOL0     H 2700   7.993   4.254   3.597 -2.5861  1.6124 -0.8808
   20MOL0     H 2701   8.250   4.376   3.503  1.1641 -0.7147  1.1783
   20MOL0     H 2702   8.234   4.239   3.605  0.4107  0.8204 -1.1760
   20MOL0     H 2703   8.134   4.515   3.678 -1.6404 -0.2137  2.2053
   20MOL0     H 2704   8.130   4.374   3.775 -2.8931  2.4688 -0.4412
   20MOL0     H 2705   8.397   4.520   3.682  4.1405 -0.7573  3.3414
   20MOL0     H 2706   8.400   4.376   3.768  0.6521  0.6601  0.1822
   20MOL0     H 2707   8.273   4.493   3.960 -1.1658  3.4669  1.8427
   20MOL0     H 2708   8.428   4.566   3.913 -0.2194  0.1696  1.2766
   20MOL0     H 2709   8.061   4.626   3.924 -1.0429  1.2215 -0.7343
   20MOL0     H 2710   7.913   4.836   3.863  2.4551 -2.3558  2.1538
   20MOL0     H 2711   7.980   4.987   3.799  1.7196 -0.8399  0.1210
   20MOL0     H 2712   7.959   4.894   4.092 -1.1673  0.8695  0.9812
   20MOL0     H 2713   8.087   5.008   4.045  0.8500 -0.8541 -3.2072
   20MOL0     H 2714   7.891   5.146   3.948 -2.8827 -1.3310 -0.4973
   20MOL0     H 2715   7.778   5.063   4.044 -0.1352 -1.9262 -2.9885
   20MOL0     H 2716   8.009   5.230   4.136  0.2779 -0.4980 -3.3062
   20MOL0     H 2717   7.839   5.267   4.159  0.2256  0.5179 -2.5509
   20MOL0     H 2718   7.663   5.210   4.277 -0.3404 -0.3645  0.0829
   20MOL0     H 2719   7.388   5.129   4.511 -1.7131  0.1981 -0.6897
   20MOL0     H 2720   7.375   5.069   4.348  1.3567 -0.0770 -0.2855
   20MOL0     H 2721   7.437   5.227   4.373 -1.1643 -0.8343 -2.2981
   20MOL0     H 2722   7.397   4.929   4.827  0.6052  0.7063 -0.3988
   20MOL0     H 2723   7.258   4.845   5.025  0.2650  1.3042 -1.4223
   20MOL0     H 2724   7.156   4.407   5.017 -1.9617  2.0940 -0.4766
   20MOL0     H 2725   7.287   4.409   5.141 -0.3799 -1.0914 -2.2293
   20MOL0     H 2726   7.073   4.332   5.258  2.4676 -0.2581 -0.3998
   20MOL0     H 2727   7.139   4.489   5.310 -0.5016  1.4570 -0.9785
   20MOL0     H 2728   6.968   4.620   5.224 -2.8755 -0.0145  1.1315
   20MOL0     H 2729   6.905   4.463   5.285  1.1479 -1.6415 -0.5669
   20MOL0     H 2730   6.927   4.385   5.041 -0.9256  0.2225 -0.7796
   20MOL0     H 2731   6.945   4.552   4.989 -0.2554 -0.2155 -0.1338
   20MOL0     H 2732   6.700   4.431   5.135 -0.9948  3.3808  0.9023
   20MOL0     H 2733   6.715   4.601   5.100 -1.1475  0.4994 -2.6153
   20MOL0     H 2734   6.723   4.385   4.890 -2.0266 -1.4134 -1.3417
   20MOL0     H 2735   6.706   4.558   4.861 -1.0469  0.5004  0.3469
   20MOL0     H 2736   6.506   4.592   4.940 -2.3270 -0.4174  1.9129
   20MOL0     H 2737   6.491   4.436   5.031 -0.8513 -0.4490 -0.3742
   20MOL0     H 2738   6.361   4.453   4.825 -0.2051 -1.7640 -3.4142
   20MOL0     H 2739   6.498   4.330   4.803 -1.6328 -0.5775 -3.6576
   20MOL0     H 2740   7.371   4.448   4.929  0.2567  0.2882  0.0681
   20MOL0     H 2741   7.510   4.527   4.746  0.7499  0.6729 -0.8239
   20MOL0     H 2742   7.766   4.825   4.572  0.7339  0.9944 -0.0875
   20MOL0     H 2743   7.925   4.925   4.424  0.1030  1.7764  1.0451
   20MOL0     H 2744   7.526   4.534   3.408 -0.6611 -0.6382  0.6080
   20MOL0     H 2745   7.358   4.651   3.291  0.3658 -0.4208  1.8495
   20MOL0     H 2746   7.096   4.817   3.038 -5.0404  2.7125  2.0235
   20MOL0     H 2747   6.920   4.925   2.942 -0.9341 -0.2996 -1.7633
   20MOL0     H 2748   6.660   4.959   2.938  0.0124 -3.6838  1.0950
   20MOL0     H 2749   6.769   4.992   2.819  0.0275  0.4510  4.2711
   20MOL0     H 2750   6.563   5.113   2.768  1.6616  0.6157 -0.2419
   20MOL0     H 2751   6.459   4.977   2.809 -0.4052 -1.1158 -0.1212
   20MOL0     H 2752   6.658   4.973   2.566  0.1114 -1.3917 -1.3507
   20MOL0     H 2753   6.542   4.852   2.610 -1.2072 -0.3901 -0.4945
   20MOL0     H 2754   6.461   5.147   2.560  0.4689  0.7383 -0.1607
   20MOL0     H 2755   6.351   5.007   2.596  0.4042  1.6312  0.8454
   20MOL0     H 2756   6.460   4.933   2.186 -1.2957 -0.1429  0.5011
   20MOL0     H 2757   6.755   4.555   2.795 -0.0822  1.0965 -0.2228
   20MOL0     H 2758   6.916   4.422   2.724 -1.7925  1.2892  0.5878
   20MOL0     H 2759   7.046   4.372   2.841 -0.3447 -0.4552  3.1136
   20MOL0     H 2760   6.873   4.333   2.865 -0.0341  0.7996  1.4443
   21MOL0     O 2761   0.453   9.516  10.205  0.5222  0.5727 -0.7020
   21MOL0     C 2762   0.563   9.470  10.213  0.1362 -0.4991 -0.1337
   21MOL0     O 2763   0.653   9.516  10.304 -0.7590 -0.4319 -0.2294
   21MOL0     C 2764   0.730   9.628  10.267  0.0364  0.3694 -0.8682
   21MOL0     C 2765   0.790   9.636  10.140 -0.4567  0.6124 -0.0550
   21MOL0     C 2766   0.868   9.741  10.106 -0.4762  0.3158  0.8296
   21MOL0     C 2767   0.893   9.851  10.200 -0.2820 -0.2937 -0.0993
   21MOL0     O 2768   0.969   9.955  10.167  0.3039 -0.2142  0.0445
   21MOL0     C 2769   1.108   9.930  10.177 -0.3298 -0.8118  0.4694
   21MOL0     C 2770   1.185  10.063  10.188 -0.2370  0.5060  0.0384
   21MOL0     C 2771   1.166  10.136  10.325  0.9850 -0.2233  0.3553
   21MOL0     C 2772   1.202  10.059  10.452  0.1527 -0.2144  0.6643
   21MOL0     C 2773   1.210  10.151  10.567  0.1330  0.3045  1.0521
   21MOL0     C 2774   1.238  10.089  10.706  0.3105 -0.3376  0.4536
   21MOL0     C 2775   1.197  10.175  10.829  0.4849  0.4534  0.4957
   21MOL0     C 2776   1.273  10.149  10.954  0.3560 -0.2814 -0.3385
   21MOL0     N 2777   1.259  10.004  10.984  0.8869  0.6222  0.5670
   21MOL0     C 2778   1.163   9.946  11.064 -0.2850  0.0886  0.8956
   21MOL0     C 2779   1.178   9.817  11.046  0.1441 -0.8738 -0.4620
   21MOL0     C 2780   1.095   9.706  11.100  1.4353 -1.1842  0.1026
   21MOL0     C 2781   1.156   9.631  11.221  0.5239 -0.4198  0.6490
   21MOL0     C 2782   1.290   9.581  11.198 -0.2282 -0.1703 -2.1778
   21MOL0     C 2783   1.289   9.477  11.087 -0.4936 -0.1181 -0.9198
   21MOL0     O 2784   1.399   9.386  11.109 -0.1469 -0.4182  0.1174
   21MOL0     C 2785   1.522   9.425  11.079  0.2605  0.3731  0.0889
   21MOL0     C 2786   1.626   9.340  11.114 -0.6001  0.4255  0.4119
   21MOL0     C 2787   1.754   9.378  11.079  0.5820 -0.5509 -0.2437
   21MOL0     C 2788   1.873   9.292  11.119 -0.0857 -1.0608 -0.0489
   21MOL0     C 2789   1.788   9.503  11.018  0.7348  0.5754 -0.1061
   21MOL0     C 2790   1.927   9.546  10.979 -0.9690 -0.1265 -0.5431
   21MOL0     O 2791   1.948   9.691  10.993 -0.1803  0.3515 -0.2295
   21MOL0     C 2792   2.070   9.742  10.960  0.4658 -0.8111 -0.1918
   21MOL0     C 2793   2.197   9.684  10.965 -0.0906 -0.4855 -0.8854
   21MOL0     C 2794   2.314   9.761  10.944 -0.0419 -0.2971 -1.1189
   21MOL0     C 2795   2.307   9.902  10.914  0.1878 -1.0852  0.1253
   21MOL0     O 2796   2.422   9.982  10.894  0.4779  0.1929  0.4767
   21MOL0     C 2797   2.556   9.939  10.919  0.2866 -0.2380  0.6200
   21MOL0     C 2798   2.628   9.882  10.795  0.8992 -0.2867 -0.2398
   21MOL0     C 2799   2.790   9.885  10.800 -0.6973 -0.2677 -0.2680
   21MOL0     C 2800   2.845   9.886  10.657 -0.4401  1.4088 -0.0131
   21MOL0     C 2801   3.001   9.863  10.658  0.2379 -0.5555 -0.7195
   21MOL0     C 2802   3.067   9.886  10.523  0.1892  0.0145 -0.2364
   21MOL0     C 2803   3.217   9.868  10.544 -0.6907 -0.9635  0.3200
   21MOL0     C 2804   3.255   9.718  10.566  0.1676  0.0792  0.1942
   21MOL0    Cl 2805   3.442   9.703  10.585 -0.2875  0.4145  0.2546
   21MOL0     C 2806   2.180   9.965  10.909 -0.1280 -0.1452  0.0310
   21MOL0     C 2807   2.071   9.885  10.948 -0.2844 -0.2860 -0.2252
   21MOL0     O 2808   2.005   9.463  10.930 -0.1321  0.5141 -0.2372
   21MOL0     C 2809   1.682   9.587  10.997 -0.2195 -0.2188 -0.1368
   21MOL0     C 2810   1.548   9.553  11.023  0.2723 -0.3344 -0.3569
   21MOL0     N 2811   1.270   9.791  10.947 -0.0150 -0.4166 -0.0177
   21MOL0     N 2812   1.322   9.902  10.914  0.0481 -0.2919 -0.0992
   21MOL0     C 2813   0.849   9.842  10.329  0.4169 -0.1965  0.0259
   21MOL0     C 2814   0.763   9.731  10.362  0.9119  0.1479 -0.2140
   21MOL0     C 2815   0.601   9.355  10.126 -0.1327 -0.1144 -0.6143
   21MOL0     C 2816   0.739   9.309  10.120  0.4782  0.5472  0.0671
   21MOL0     C 2817   0.795   9.245  10.008 -0.4104 -0.4008  0.4822
   21MOL0     C 2818   0.719   9.212   9.900  0.4476 -0.2350 -0.0171
   21MOL0     O 2819   0.772   9.128   9.807  0.0136 -0.2598  1.7167
   21MOL0     C 2820   0.702   9.081   9.694 -0.5163 -0.4909  0.6944
   21MOL0     C 2821   0.776   8.965   9.622 -0.3945 -0.2882  0.0785
   21MOL0     C 2822   0.694   8.929   9.500  0.2638 -0.3081  0.1471
   21MOL0     C 2823   0.765   8.826   9.409  0.6552 -0.0105  0.5455
   21MOL0     C 2824   0.737   8.696   9.450 -0.5434 -0.1878 -0.6964
   21MOL0     C 2825   0.706   8.592   9.504 -0.3810 -0.4929  0.0596
   21MOL0     C 2826   0.577   9.250   9.904 -0.2394 -0.3407 -0.1966
   21MOL0     C 2827   0.519   9.315  10.020 -0.0935  0.1186  0.3528
   21MOL0     C 2828   0.365   9.333  10.011  0.1707  0.1022  0.0282
   21MOL0     H 2829   0.766   9.554  10.073 -0.7051 -0.4612  1.3043
   21MOL0     H 2830   0.917   9.745  10.010 -1.3159 -1.9002  0.2311
   21MOL0     H 2831   1.147   9.883  10.086 -0.4286  0.8710 -0.4914
   21MOL0     H 2832   1.139   9.878  10.268  2.8434  1.0789  0.6244
   21MOL0     H 2833   1.290  10.032  10.186 -0.6820 -1.4443  2.3333
   21MOL0     H 2834   1.159  10.133  10.108  1.3987  0.3652 -0.6719
   21MOL0     H 2835   1.228  10.225  10.312  1.1171 -0.1604  1.3840
   21MOL0     H 2836   1.061  10.164  10.331  0.8647 -0.4692 -0.4424
   21MOL0     H 2837   1.123   9.983  10.454  1.1651 -1.3843 -1.0048
   21MOL0     H 2838   1.304  10.020  10.440  0.2542  0.6475 -1.6144
   21MOL0     H 2839   1.112  10.199  10.567  0.2170  0.4773  0.1478
   21MOL0     H 2840   1.283  10.230  10.547 -2.7985  2.5726 -1.6031
   21MOL0     H 2841   1.180   9.996  10.712 -1.2938  0.6730  1.4760
   21MOL0     H 2842   1.339  10.049  10.716 -0.0459 -1.4151 -0.0835
   21MOL0     H 2843   1.088  10.174  10.830  0.4447  0.8359 -1.1879
   21MOL0     H 2844   1.227  10.277  10.802  0.2183  0.0466 -1.5018
   21MOL0     H 2845   1.378  10.175  10.940  0.1267 -0.1515 -1.9753
   21MOL0     H 2846   1.240  10.207  11.041 -0.1064  1.2227 -1.4880
   21MOL0     H 2847   1.085   9.999  11.118 -0.2153  1.6725 -0.4980
   21MOL0     H 2848   1.075   9.640  11.015 -1.7222  0.6472 -0.7314
   21MOL0     H 2849   1.000   9.747  11.134  1.5000  0.6153 -1.6941
   21MOL0     H 2850   1.144   9.694  11.309 -2.8928  1.1671 -0.7706
   21MOL0     H 2851   1.097   9.541  11.241 -2.9104  0.5529 -3.6027
   21MOL0     H 2852   1.357   9.667  11.187 -2.7633  2.0182 -1.7095
   21MOL0     H 2853   1.315   9.530  11.291  2.8562  0.4192 -2.5839
   21MOL0     H 2854   1.200   9.415  11.101 -0.8640  0.4268 -0.8275
   21MOL0     H 2855   1.283   9.518  10.986 -3.4693  3.7150  0.5723
   21MOL0     H 2856   1.609   9.249  11.172  0.0568  0.2281  0.3065
   21MOL0     H 2857   1.908   9.237  11.031  1.0872 -1.0457  0.3929
   21MOL0     H 2858   1.846   9.233  11.207 -0.8563 -0.7110 -0.0427
   21MOL0     H 2859   1.958   9.353  11.151  1.7967 -4.5521  2.2902
   21MOL0     H 2860   2.208   9.580  10.994 -1.6205 -0.0639  1.4748
   21MOL0     H 2861   2.409   9.710  10.943 -0.0948 -0.4009 -0.9602
   21MOL0     H 2862   2.615  10.024  10.955  0.1675 -0.7082  1.9900
   21MOL0     H 2863   2.566   9.870  11.003  2.5857 -0.1201  0.5096
   21MOL0     H 2864   2.592   9.779  10.785 -0.6982  0.2148  0.0703
   21MOL0     H 2865   2.600   9.938  10.706 -1.1060 -0.8490 -0.0062
   21MOL0     H 2866   2.833   9.799  10.854 -0.6665  1.5093  2.7880
   21MOL0     H 2867   2.805   9.980  10.852 -0.9917 -1.6232  2.4886
   21MOL0     H 2868   2.820   9.980  10.607 -0.9811  1.6326  0.6552
   21MOL0     H 2869   2.789   9.807  10.605 -0.9875  3.1695 -2.2495
   21MOL0     H 2870   3.031   9.942  10.727 -1.7256  1.6673 -2.2349
   21MOL0     H 2871   3.023   9.768  10.708  1.7619  0.7946  1.3379
   21MOL0     H 2872   3.043   9.981  10.475  0.2907 -0.5287 -1.4026
   21MOL0     H 2873   3.023   9.810  10.457 -2.3033  2.1399 -1.2319
   21MOL0     H 2874   3.256   9.926  10.629 -1.7641 -0.1674  0.2941
   21MOL0     H 2875   3.274   9.913  10.462  0.3402  0.8471  1.9517
   21MOL0     H 2876   3.225   9.657  10.481  0.5085 -0.8349  0.7172
   21MOL0     H 2877   3.207   9.666  10.649 -2.3054  2.7099  0.5703
   21MOL0     H 2878   2.166  10.070  10.885 -1.8580 -0.6971 -1.6600
   21MOL0     H 2879   1.974   9.934  10.949  0.1371  0.5698  0.0390
   21MOL0     H 2880   1.695   9.690  10.965 -2.2706 -0.3386 -1.5072
   21MOL0     H 2881   1.470   9.624  10.997  2.2821  1.6713 -1.3410
   21MOL0     H 2882   0.870   9.921  10.400  1.5636  0.7924 -1.3679
   21MOL0     H 2883   0.718   9.719  10.460 -0.7605  2.2805 -0.6293
   21MOL0     H 2884   0.807   9.346  10.196 -1.1913 -0.9120  2.4332
   21MOL0     H 2885   0.897   9.209  10.008  1.1459  3.4435  1.0453
   21MOL0     H 2886   0.602   9.045   9.719 -0.3077 -3.4156 -2.0909
   21MOL0     H 2887   0.705   9.162   9.621  0.6393 -1.8687 -0.8562
   21MOL0     H 2888   0.800   8.878   9.683 -0.2186 -2.0329 -2.3318
   21MOL0     H 2889   0.875   8.999   9.590 -0.6794 -1.1456 -1.8396
   21MOL0     H 2890   0.596   8.890   9.527  0.5904  0.4282  2.6454
   21MOL0     H 2891   0.672   9.024   9.451  1.4533 -0.4630 -0.7625
   21MOL0     H 2892   0.872   8.845   9.408  0.7462 -0.3809  1.9227
   21MOL0     H 2893   0.714   8.837   9.313 -2.0129  4.2277  2.1764
   21MOL0     H 2894   0.685   8.494   9.542 -2.7434 -0.1292 -0.1794
   21MOL0     H 2895   0.516   9.218   9.821  0.7246  0.5877 -1.2973
   21MOL0     H 2896   0.327   9.330  10.114 -0.6701 -0.4661 -0.2872
   21MOL0     H 2897   0.342   9.428   9.962  3.0359  1.3385  0.8496
   21MOL0     H 2898   0.331   9.243   9.959  0.6383  1.2210 -2.3349
   22MOL0     O 2899  10.245   6.965   3.100 -0.5620 -0.2602  0.2227
   22MOL0     C 2900  10.223   7.016   2.987  0.0103  0.0701  0.2705
   22MOL0     O 2901  10.313   7.002   2.885  0.6537  0.5509 -0.3540
   22MOL0     C 2902  10.444   6.977   2.920 -0.0292  0.2633 -0.5982
   22MOL0     C 2903  10.527   7.052   3.002  0.5269 -0.1907 -0.9926
   22MOL0     C 2904  10.651   7.004   3.034  0.1609 -0.1007 -0.0215
   22MOL0     C 2905  10.700   6.884   2.994 -0.3293 -0.4749 -0.3213
   22MOL0     O 2906  10.818   6.831   3.032  0.0364 -0.5196 -0.6514
   22MOL0     C 2907  10.906   6.904   3.118  0.2407 -0.0765  0.0149
   22MOL0     C 2908  11.005   6.804   3.185  0.5428 -0.8721 -0.6608
   22MOL0     C 2909  11.124   6.787   3.092 -0.5685  0.7044  0.1585
   22MOL0     C 2910  11.225   6.688   3.157 -0.7652  0.2397  0.7908
   22MOL0     C 2911  11.350   6.685   3.064 -0.9394  0.9250 -0.1468
   22MOL0     C 2912  11.455   6.588   3.118 -0.6611 -0.5291  1.1798
   22MOL0     C 2913  11.597   6.624   3.065  0.6478  0.3264  0.0923
   22MOL0     C 2914  11.700   6.523   3.114  0.4463  0.4734 -0.3102
   22MOL0     N 2915  11.838   6.536   3.061 -0.3277  0.6141 -0.5879
   22MOL0     C 2916  11.882   6.614   2.956 -0.8763  0.2835  0.7840
   22MOL0     C 2917  12.007   6.566   2.935  0.4326  0.2651 -0.2657
   22MOL0     C 2918  12.106   6.618   2.831  0.4569  0.4633 -0.1646
   22MOL0     C 2919  12.141   6.511   2.731  0.2619  0.0803 -0.1112
   22MOL0     C 2920  12.213   6.390   2.790 -0.9531 -0.2703  0.1623
   22MOL0     C 2921  12.327   6.423   2.887 -0.8004 -0.7160 -0.6433
   22MOL0     O 2922  12.445   6.476   2.814  0.3433 -0.6118 -0.5658
   22MOL0     C 2923  12.555   6.393   2.795  0.2868  0.4094 -0.5598
   22MOL0     C 2924  12.668   6.460   2.751 -0.2496  0.2984 -0.3036
   22MOL0     C 2925  12.787   6.395   2.726  0.0329  0.0097  0.8562
   22MOL0     C 2926  12.912   6.465   2.688  0.1297 -0.2637  0.5134
   22MOL0     C 2927  12.789   6.253   2.733 -0.2136  0.5758 -0.2551
   22MOL0     C 2928  12.903   6.169   2.698 -0.5242  0.2476 -0.4802
   22MOL0     O 2929  12.961   6.198   2.577 -0.9681 -0.1430 -0.1804
   22MOL0     C 2930  13.094   6.163   2.558  0.3860  0.1103 -0.2263
   22MOL0     C 2931  13.126   6.064   2.464  0.1387 -0.5195 -0.0777
   22MOL0     C 2932  13.257   6.013   2.456 -0.0741 -0.4041 -0.4879
   22MOL0     C 2933  13.365   6.069   2.528  0.2462 -0.2815 -0.4742
   22MOL0     O 2934  13.503   6.047   2.524  0.0192 -0.1966 -0.4244
   22MOL0     C 2935  13.539   5.914   2.496  0.1896 -0.2432  0.6591
   22MOL0     C 2936  13.693   5.892   2.494 -0.4005 -0.2973 -0.4670
   22MOL0     C 2937  13.748   5.756   2.503  0.0734  0.4773 -0.0372
   22MOL0     C 2938  13.900   5.750   2.464  0.3349 -0.5758  0.4358
   22MOL0     C 2939  13.932   5.696   2.324 -1.4479  0.0607  0.2424
   22MOL0     C 2940  13.922   5.802   2.210  1.5210  0.0201  0.0963
   22MOL0     C 2941  13.967   5.766   2.065 -0.8650  0.1381  1.2354
   22MOL0     C 2942  14.113   5.760   2.049 -0.3153  0.3021 -0.2701
   22MOL0    Cl 2943  14.194   5.917   2.056  0.0303  0.0353 -0.1081
   22MOL0     C 2944  13.330   6.179   2.619  0.2376 -0.1311 -0.2802
   22MOL0     C 2945  13.197   6.222   2.633 -0.2075  0.1726 -0.5711
   22MOL0     O 2946  12.937   6.079   2.778  0.3560 -0.6140  0.0295
   22MOL0     C 2947  12.668   6.180   2.776  0.0398 -0.8725 -1.1324
   22MOL0     C 2948  12.564   6.261   2.811  0.0107  0.5916 -0.6249
   22MOL0     N 2949  12.040   6.466   3.029  0.6319  0.5107  0.2158
   22MOL0     N 2950  11.933   6.450   3.099  0.2006  0.2273 -0.8101
   22MOL0     C 2951  10.618   6.812   2.905 -0.3232 -0.1592  0.1113
   22MOL0     C 2952  10.498   6.861   2.859  0.1940 -1.1816  0.1936
   22MOL0     C 2953  10.090   7.082   2.973  0.3874  0.5082  1.0587
   22MOL0     C 2954  10.009   7.101   3.083 -0.4003  0.3212  0.0164
   22MOL0     C 2955   9.888   7.179   3.070 -0.5955 -0.2856 -0.3432
   22MOL0     C 2956   9.836   7.201   2.937 -0.5207  0.0147  0.4034
   22MOL0     O 2957   9.709   7.250   2.913  0.8495  0.4543 -0.3043
   22MOL0     C 2958   9.632   7.168   2.832 -0.6373 -0.0120  0.3824
   22MOL0     C 2959   9.484   7.161   2.863 -0.1206 -0.5721  0.1857
   22MOL0     C 2960   9.410   7.292   2.869  0.4152 -1.0451 -0.6089
   22MOL0     C 2961   9.280   7.258   2.944 -0.1600  0.5995  0.4528
   22MOL0     C 2962   9.201   7.370   2.978  0.4797  0.2245  0.4697
   22MOL0     C 2963   9.148   7.471   3.014 -1.4443 -0.6647  0.1903
   22MOL0     C 2964   9.916   7.173   2.831  0.8802  0.7457 -0.7856
   22MOL0     C 2965  10.046   7.124   2.843  0.1783 -0.0150 -0.6966
   22MOL0     C 2966  10.130   7.112   2.722  0.5129  0.5646 -0.7180
   22MOL0     H 2967  10.493   7.148   3.040 -0.3200 -0.8887  0.0966
   22MOL0     H 2968  10.714   7.072   3.091  0.3407 -0.5528  0.3173
   22MOL0     H 2969  10.851   6.954   3.198  4.1149  1.1601  2.1746
   22MOL0     H 2970  10.964   6.969   3.051  2.7553 -0.5177  1.6484
   22MOL0     H 2971  11.056   6.855   3.267 -1.5446  1.3421 -0.6195
   22MOL0     H 2972  10.955   6.718   3.229 -3.0280  1.9953  1.4760
   22MOL0     H 2973  11.084   6.742   3.001 -0.5823 -0.9784  0.9720
   22MOL0     H 2974  11.166   6.887   3.081  0.6853  0.2083  0.3121
   22MOL0     H 2975  11.254   6.728   3.255  0.0385 -0.1155  0.7118
   22MOL0     H 2976  11.187   6.588   3.180 -1.2792  0.3395  0.3899
   22MOL0     H 2977  11.407   6.777   3.047  1.8422 -0.5763  0.4210
   22MOL0     H 2978  11.314   6.650   2.967 -1.2915 -1.8485  0.8845
   22MOL0     H 2979  11.460   6.593   3.227  1.6197 -0.9016  1.1366
   22MOL0     H 2980  11.430   6.488   3.082  0.4536 -0.7731  1.0522
   22MOL0     H 2981  11.621   6.725   3.100  0.1080  1.3874 -2.3888
   22MOL0     H 2982  11.590   6.627   2.956  0.1888 -3.0876 -0.0882
   22MOL0     H 2983  11.714   6.551   3.219 -1.0790 -0.9396  0.3064
   22MOL0     H 2984  11.657   6.425   3.095  2.1069 -0.0550 -1.6155
   22MOL0     H 2985  11.834   6.696   2.903 -2.0036 -1.8444 -1.7297
   22MOL0     H 2986  12.189   6.667   2.883 -0.9568  0.4579  2.2740
   22MOL0     H 2987  12.077   6.710   2.778  0.1632  1.5570  1.7825
   22MOL0     H 2988  12.046   6.485   2.685  0.5016 -0.2694 -0.4133
   22MOL0     H 2989  12.213   6.551   2.659  0.9260 -0.2709  0.3443
   22MOL0     H 2990  12.140   6.329   2.843  0.0558 -1.1391  0.5973
   22MOL0     H 2991  12.247   6.333   2.702 -0.8666  1.6344 -1.0971
   22MOL0     H 2992  12.291   6.488   2.968  1.2333 -2.2527  1.6256
   22MOL0     H 2993  12.347   6.333   2.945 -0.9955  0.1832  0.8687
   22MOL0     H 2994  12.666   6.567   2.735  1.2179  0.3122 -0.4750
   22MOL0     H 2995  12.940   6.456   2.583 -1.1066  2.6677 -0.1675
   22MOL0     H 2996  12.988   6.420   2.752  0.2975 -1.8073 -0.7177
   22MOL0     H 2997  12.879   6.569   2.698 -2.6598 -0.9362 -0.6196
   22MOL0     H 2998  13.042   6.024   2.408 -0.7138 -0.7036  1.2971
   22MOL0     H 2999  13.276   5.933   2.385 -2.6293 -0.0302 -1.6833
   22MOL0     H 3000  13.492   5.852   2.572 -3.1716  1.8981  0.5454
   22MOL0     H 3001  13.503   5.871   2.402  0.5413  1.5359 -0.3418
   22MOL0     H 3002  13.726   5.937   2.400 -1.8872 -1.4237 -1.5671
   22MOL0     H 3003  13.747   5.957   2.564 -0.5678 -0.6543  0.0006
   22MOL0     H 3004  13.692   5.682   2.445  1.2679 -1.6852  1.4207
   22MOL0     H 3005  13.748   5.738   2.610  0.5380  2.2478  0.2958
   22MOL0     H 3006  13.946   5.677   2.532  0.8350  1.2971  2.2023
   22MOL0     H 3007  13.939   5.851   2.474 -0.2019 -0.3284  0.0965
   22MOL0     H 3008  14.037   5.665   2.325 -0.2942  3.1256 -2.8014
   22MOL0     H 3009  13.869   5.608   2.308 -0.2769 -1.2132  2.2563
   22MOL0     H 3010  13.965   5.896   2.246 -0.2883  0.1419  2.2194
   22MOL0     H 3011  13.814   5.822   2.205  1.2243 -1.0412  1.4513
   22MOL0     H 3012  13.925   5.838   1.994  1.0705 -2.3157 -2.8248
   22MOL0     H 3013  13.925   5.665   2.058  0.5012 -0.3597 -1.2964
   22MOL0     H 3014  14.142   5.708   1.957 -2.8748  0.3395 -1.1704
   22MOL0     H 3015  14.145   5.701   2.136 -4.1277 -1.5914  0.0490
   22MOL0     H 3016  13.412   6.214   2.680  1.9586 -0.3792 -2.3670
   22MOL0     H 3017  13.179   6.295   2.711 -0.9721 -2.7037  2.1435
   22MOL0     H 3018  12.648   6.074   2.789 -0.8917 -0.7093 -1.1560
   22MOL0     H 3019  12.469   6.213   2.834  0.7402 -0.2006  0.9332
   22MOL0     H 3020  10.649   6.715   2.866 -2.2518 -1.7009  2.1889
   22MOL0     H 3021  10.438   6.812   2.783 -3.3883  0.2246  1.8806
   22MOL0     H 3022  10.057   7.069   3.175 -1.4241 -1.7550 -0.1035
   22MOL0     H 3023   9.821   7.204   3.151  0.1028  0.9075 -0.1077
   22MOL0     H 3024   9.636   7.206   2.729  1.6751  2.2669  1.2021
   22MOL0     H 3025   9.671   7.066   2.823 -0.3910 -0.1929  2.7976
   22MOL0     H 3026   9.483   7.112   2.961  2.2634 -0.8875  0.1157
   22MOL0     H 3027   9.424   7.098   2.798 -0.6992  2.1107 -2.0647
   22MOL0     H 3028   9.459   7.367   2.932  0.9485 -0.7897 -1.3184
   22MOL0     H 3029   9.399   7.318   2.763  0.4052 -0.8364 -0.5582
   22MOL0     H 3030   9.309   7.209   3.037 -0.4978  1.3391  0.9558
   22MOL0     H 3031   9.224   7.185   2.883  1.3605  1.8004 -2.5975
   22MOL0     H 3032   9.093   7.562   3.032 -3.0366 -1.1874 -1.6174
   22MOL0     H 3033   9.885   7.195   2.729  1.4844  2.8797 -0.5617
   22MOL0     H 3034  10.157   7.011   2.688  2.2209  0.4733  0.7824
   22MOL0     H 3035  10.075   7.155   2.638 -1.6344  0.1182  0.4128
   22MOL0     H 3036  10.221   7.171   2.741  0.3477  0.1100  1.7587
   23MOL0     O 3037   1.409   0.411  11.065 -0.0018 -0.4025  0.4401
   23MOL0     C 3038   1.340   0.307  11.061  0.1498 -0.3340 -0.4497
   23MOL0     O 3039   1.353   0.206  10.964 -0.4569  0.0656 -0.7600
   23MOL0     C 3040   1.467   0.218  10.883 -0.3038  0.1863 -0.7034
   23MOL0     C 3041   1.441   0.223  10.744  0.3280  0.5615  0.1498
   23MOL0     C 3042   1.544   0.215  10.650 -0.3363  0.4139  0.3167
   23MOL0     C 3043   1.679   0.212  10.695  0.2197  0.0232 -0.4923
   23MOL0     O 3044   1.777   0.209  10.598  0.5006  0.9096  0.0538
   23MOL0     C 3045   1.911   0.183  10.640 -0.4985  0.0915  0.3022
   23MOL0     C 3046   1.997   0.134  10.521 -0.5751 -0.0901 -0.2807
   23MOL0     C 3047   2.139   0.090  10.562  0.6719 -0.1796 -0.2429
   23MOL0     C 3048   2.225   0.060  10.431  0.2123 -0.3025 -0.0096
   23MOL0     C 3049   2.357   0.008  10.482 -0.0959 -0.4297 -0.5137
   23MOL0     C 3050   2.458  -0.019  10.364  0.0829  0.1321  0.1135
   23MOL0     C 3051   2.563   0.093  10.356  0.2077  0.5853  0.4126
   23MOL0     C 3052   2.688   0.083  10.459  0.4056  0.5079  0.6818
   23MOL0     N 3053   2.798  -0.004  10.408  0.1319 -0.0240  0.0774
   23MOL0     C 3054   2.808  -0.137  10.425  0.2033  0.5639  0.3192
   23MOL0     C 3055   2.934  -0.179  10.384 -0.5125 -0.2522  0.2979
   23MOL0     C 3056   2.980  -0.321  10.375  0.1641 -0.1712  0.7324
   23MOL0     C 3057   3.112  -0.353  10.450 -0.3418 -1.0886  0.3785
   23MOL0     C 3058   3.228  -0.300  10.373 -0.8236 -1.2021 -0.8019
   23MOL0     C 3059   3.369  -0.325  10.424  1.0664  0.7373 -0.0717
   23MOL0     O 3060   3.468  -0.246  10.359 -0.5655 -0.1620  0.0979
   23MOL0     C 3061   3.578  -0.209  10.437  0.2180  0.2373  0.3117
   23MOL0     C 3062   3.651  -0.101  10.405 -0.0183 -0.7828  0.3713
   23MOL0     C 3063   3.770  -0.048  10.470  0.8992  0.5098  0.6064
   23MOL0     C 3064   3.836   0.075  10.404  0.2866 -0.7189  0.8352
   23MOL0     C 3065   3.801  -0.109  10.593 -0.5433  0.1837 -0.2675
   23MOL0     C 3066   3.917  -0.058  10.680 -0.1624  0.6240  1.0437
   23MOL0     O 3067   3.934  -0.135  10.793 -0.3300 -0.0276 -0.7205
   23MOL0     C 3068   4.059  -0.134  10.845 -0.0755 -0.1558 -0.4181
   23MOL0     C 3069   4.091  -0.055  10.956  0.0676 -0.2467  0.0773
   23MOL0     C 3070   4.223  -0.048  11.002  0.8228  0.4862 -0.0916
   23MOL0     C 3071   4.333  -0.118  10.930 -0.1708 -0.2706 -0.2174
   23MOL0     O 3072   4.463  -0.103  10.970 -0.0255 -0.1931  0.0017
   23MOL0     C 3073   4.571  -0.198  10.934 -0.3709 -0.4670  0.0455
   23MOL0     C 3074   4.692  -0.181  11.017 -0.0736 -0.2413  0.0698
   23MOL0     C 3075   4.815  -0.268  11.000  0.3513  0.5123  0.2454
   23MOL0     C 3076   4.801  -0.415  11.013 -0.1239 -0.5869  0.3485
   23MOL0     C 3077   4.941  -0.474  11.045 -0.6351  0.2578  0.0433
   23MOL0     C 3078   4.940  -0.631  11.046 -0.5409  0.8492  0.4137
   23MOL0     C 3079   5.068  -0.687  11.098 -0.2206  0.1891  0.8099
   23MOL0     C 3080   5.069  -0.843  11.080 -0.6357 -1.6677 -0.2492
   23MOL0    Cl 3081   5.236  -0.924  11.109  0.3090  0.2267  0.3350
   23MOL0     C 3082   4.298  -0.201  10.822  0.2626  0.2642 -0.4427
   23MOL0     C 3083   4.159  -0.215  10.784  0.6491 -0.4554 -0.5130
   23MOL0     O 3084   4.000   0.011  10.621 -0.0876  0.7755  0.0284
   23MOL0     C 3085   3.731  -0.229  10.629 -0.4337 -0.1348 -0.2327
   23MOL0     C 3086   3.631  -0.285  10.546  0.6449 -0.5333 -0.3277
   23MOL0     N 3087   2.994  -0.064  10.330  0.4738 -0.5743 -0.4052
   23MOL0     N 3088   2.914   0.039  10.347  0.4822 -0.0067  0.9941
   23MOL0     C 3089   1.707   0.223  10.832  0.2673 -0.0473 -1.0711
   23MOL0     C 3090   1.602   0.223  10.925  0.4601 -0.8426  0.4335
   23MOL0     C 3091   1.219   0.299  11.156 -0.0641 -0.0700  0.0981
   23MOL0     C 3092   1.207   0.395  11.258  0.9528  0.0384  0.3567
   23MOL0     C 3093   1.108   0.391  11.363 -0.1329 -0.2521 -0.1576
   23MOL0     C 3094   1.007   0.294  11.357 -0.3982 -0.9026 -0.1694
   23MOL0     O 3095   0.930   0.290  11.472  0.4170  0.3079  0.6477
   23MOL0     C 3096   0.806   0.217  11.454 -0.4172 -0.6585  0.8545
   23MOL0     C 3097   0.716   0.217  11.582 -1.0018 -0.5288  0.4350
   23MOL0     C 3098   0.783   0.148  11.704  0.2895  0.1614  0.1608
   23MOL0     C 3099   0.726   0.187  11.847  0.4258 -0.2478 -0.5372
   23MOL0     C 3100   0.579   0.179  11.849 -0.6697 -0.6277  0.0995
   23MOL0     C 3101   0.462   0.174  11.851  0.3639  0.5136  0.2986
   23MOL0     C 3102   1.007   0.204  11.244 -1.0046  0.3803  0.0106
   23MOL0     C 3103   1.108   0.205  11.141 -0.8592  0.6945 -0.8456
   23MOL0     C 3104   1.102   0.095  11.027 -0.2471 -0.2264  0.6000
   23MOL0     H 3105   1.342   0.219  10.699 -0.9333 -1.5725  2.8157
   23MOL0     H 3106   1.535   0.222  10.542  3.0097  2.2085  0.0033
   23MOL0     H 3107   1.901   0.114  10.725  1.0136 -1.6779 -0.8873
   23MOL0     H 3108   1.953   0.277  10.677  1.7596 -0.2920 -1.1623
   23MOL0     H 3109   1.961   0.052  10.458 -3.3309  0.8566 -0.0835
   23MOL0     H 3110   2.005   0.227  10.465  2.2512 -1.2811 -2.0732
   23MOL0     H 3111   2.196   0.164  10.619 -0.0425 -1.1087  1.7673
   23MOL0     H 3112   2.133  -0.006  10.615  1.4521 -0.0048  0.1802
   23MOL0     H 3113   2.179  -0.023  10.376 -1.7941  0.0668  1.0274
   23MOL0     H 3114   2.227   0.149  10.368 -1.1932 -0.8630 -0.9177
   23MOL0     H 3115   2.331  -0.092  10.519 -1.2434 -0.7037 -1.9265
   23MOL0     H 3116   2.403   0.070  10.559 -0.8542  1.4103 -1.4924
   23MOL0     H 3117   2.510  -0.114  10.383  1.6864  0.8977 -0.2455
   23MOL0     H 3118   2.406  -0.031  10.268  4.2009  0.3710 -2.3954
   23MOL0     H 3119   2.520   0.193  10.367 -3.0015 -0.5278 -0.8438
   23MOL0     H 3120   2.603   0.083  10.255 -2.0241 -3.5749 -0.2953
   23MOL0     H 3121   2.738   0.180  10.457  0.8768  0.2672  0.7620
   23MOL0     H 3122   2.641   0.051  10.552 -0.5141 -1.4156 -0.3598
   23MOL0     H 3123   2.732  -0.209  10.453  0.5792 -0.1601 -0.4487
   23MOL0     H 3124   2.983  -0.357  10.272 -1.2797 -2.1614  1.3300
   23MOL0     H 3125   2.902  -0.383  10.420  2.0802 -0.6303  3.6922
   23MOL0     H 3126   3.109  -0.299  10.545  1.1443  1.9334 -1.1624
   23MOL0     H 3127   3.113  -0.459  10.478  1.9263 -1.2315 -0.0221
   23MOL0     H 3128   3.235  -0.325  10.267  0.3638  1.1154 -1.3357
   23MOL0     H 3129   3.213  -0.192  10.371 -2.8121 -1.3994  0.1430
   23MOL0     H 3130   3.355  -0.302  10.530  0.2569 -3.6898  0.9616
   23MOL0     H 3131   3.381  -0.433  10.421  1.7848  0.8251 -0.3933
   23MOL0     H 3132   3.620  -0.046  10.316  2.9627  1.5966  0.6335
   23MOL0     H 3133   3.803   0.158  10.468 -1.0008 -1.7325  1.5468
   23MOL0     H 3134   3.797   0.094  10.304 -1.9800 -2.0282  1.4004
   23MOL0     H 3135   3.945   0.067  10.399  0.6230  2.8195 -2.7833
   23MOL0     H 3136   4.026   0.006  11.017 -0.5695 -2.3117  1.6161
   23MOL0     H 3137   4.236   0.020  11.085  3.8564  0.3833 -0.3771
   23MOL0     H 3138   4.549  -0.305  10.939 -0.7903 -0.4954 -1.6485
   23MOL0     H 3139   4.597  -0.176  10.830  0.7312  0.0116  0.4012
   23MOL0     H 3140   4.716  -0.076  11.001 -1.1421  0.2866  1.6534
   23MOL0     H 3141   4.663  -0.175  11.122  3.1417  0.2505  1.0286
   23MOL0     H 3142   4.867  -0.225  11.086 -4.4269  0.7120  3.3648
   23MOL0     H 3143   4.863  -0.245  10.904  0.6872 -1.1001  0.0006
   23MOL0     H 3144   4.748  -0.446  10.923 -1.7840  2.1065  0.2877
   23MOL0     H 3145   4.733  -0.437  11.096 -2.2505  2.0843 -0.5250
   23MOL0     H 3146   5.013  -0.438  10.971  0.7661 -2.0094  0.2008
   23MOL0     H 3147   4.968  -0.436  11.143 -1.4656 -2.4691  1.4351
   23MOL0     H 3148   4.923  -0.657  10.941  1.1755  1.6988 -0.1166
   23MOL0     H 3149   4.860  -0.678  11.104 -1.3939  0.9538 -0.6684
   23MOL0     H 3150   5.083  -0.664  11.204 -0.7078 -1.2761  1.2276
   23MOL0     H 3151   5.158  -0.651  11.048  1.3895 -2.1643  1.7977
   23MOL0     H 3152   5.024  -0.874  10.985 -2.4908 -2.5268  0.8498
   23MOL0     H 3153   4.993  -0.884  11.147  1.0092 -4.4026  0.0901
   23MOL0     H 3154   4.375  -0.246  10.760 -2.2686  0.7065 -4.2512
   23MOL0     H 3155   4.135  -0.278  10.699 -0.9045 -1.0106  0.3057
   23MOL0     H 3156   3.772  -0.284  10.713 -0.1066  0.7670  0.2207
   23MOL0     H 3157   3.580  -0.377  10.573  1.5478 -0.7665  0.6429
   23MOL0     H 3158   1.809   0.230  10.868 -0.4937 -0.8754  1.4212
   23MOL0     H 3159   1.614   0.218  11.033  2.9175 -0.8099  0.2049
   23MOL0     H 3160   1.268   0.485  11.257  1.7040 -0.4637 -0.3808
   23MOL0     H 3161   1.100   0.464  11.442  0.1652  0.1857 -0.5254
   23MOL0     H 3162   0.765   0.253  11.359 -0.8865  0.4370  1.4497
   23MOL0     H 3163   0.842   0.114  11.447  0.9256 -0.2196  0.8624
   23MOL0     H 3164   0.615   0.176  11.568 -0.6890 -1.8286  1.7589
   23MOL0     H 3165   0.711   0.325  11.598  1.0289  0.0148 -2.0123
   23MOL0     H 3166   0.764   0.040  11.698 -0.4076  0.0217  3.2892
   23MOL0     H 3167   0.891   0.164  11.709  1.2250 -1.7563 -5.9862
   23MOL0     H 3168   0.762   0.286  11.878  1.7913 -0.9955  0.3699
   23MOL0     H 3169   0.758   0.117  11.924 -0.9432  0.6868  0.9325
   23MOL0     H 3170   0.355   0.180  11.852  0.3882  0.9002  0.6740
   23MOL0     H 3171   0.933   0.125  11.253 -2.7642  1.8144 -1.0242
   23MOL0     H 3172   1.182   0.024  11.052  0.4753 -0.0261 -1.0269
   23MOL0     H 3173   1.017   0.027  11.032  2.0059 -3.6112 -1.9645
   23MOL0     H 3174   1.107   0.144  10.929 -2.5969  0.1779  0.6304
   24MOL0     O 3175   4.478   1.975   8.869 -0.1822  0.1888  0.2248
   24MOL0     C 3176   4.444   1.862   8.901  1.4476 -0.6829 -0.7874
   24MOL0     O 3177   4.535   1.761   8.931 -0.0272 -0.1090 -0.3642
   24MOL0     C 3178   4.660   1.797   8.978  0.2841  0.0946  0.1189
   24MOL0     C 3179   4.769   1.809   8.895  0.5081  0.1508 -0.8977
   24MOL0     C 3180   4.895   1.858   8.941  0.3470  0.5845  0.5149
   24MOL0     C 3181   4.920   1.889   9.076  0.2165 -0.3187  0.4420
   24MOL0     O 3182   5.048   1.912   9.104  0.0481 -0.3040  0.1954
   24MOL0     C 3183   5.086   1.869   9.240 -1.1819 -1.0457  0.4644
   24MOL0     C 3184   5.237   1.899   9.250 -0.1039 -0.5879  0.8760
   24MOL0     C 3185   5.275   2.041   9.292 -0.4740 -0.2915  0.0234
   24MOL0     C 3186   5.415   2.053   9.358  0.6852 -0.6566 -0.9393
   24MOL0     C 3187   5.521   2.013   9.250  0.0140  0.0706  0.2897
   24MOL0     C 3188   5.657   2.015   9.309 -0.5624  0.1626 -0.5018
   24MOL0     C 3189   5.764   2.037   9.204  0.4608  0.7696  0.7901
   24MOL0     C 3190   5.903   2.017   9.271 -0.6704 -0.5437  0.3888
   24MOL0     N 3191   6.023   2.015   9.187  0.3235 -0.5484  0.3155
   24MOL0     C 3192   6.056   2.095   9.077 -0.0338 -0.5274 -1.1438
   24MOL0     C 3193   6.171   2.053   9.032 -0.2474  0.3174 -0.5990
   24MOL0     C 3194   6.245   2.130   8.924  0.2698  0.2400 -0.5694
   24MOL0     C 3195   6.239   2.055   8.793 -0.5761  0.0870  0.9662
   24MOL0     C 3196   6.324   2.124   8.682 -0.3601 -0.7221 -0.3699
   24MOL0     C 3197   6.476   2.103   8.702 -0.0327 -0.5377  0.5357
   24MOL0     O 3198   6.501   1.964   8.699 -0.2610 -0.4825  0.2195
   24MOL0     C 3199   6.621   1.919   8.653 -0.1544  0.2013 -0.2787
   24MOL0     C 3200   6.735   1.995   8.620  0.4005 -0.4769 -0.1463
   24MOL0     C 3201   6.860   1.943   8.581  0.7398 -0.2060 -0.4099
   24MOL0     C 3202   6.971   2.034   8.541  0.1254 -0.0710  0.0392
   24MOL0     C 3203   6.870   1.799   8.566 -0.3482  0.0997 -0.1889
   24MOL0     C 3204   6.985   1.725   8.519 -0.3572 -0.1277  0.2599
   24MOL0     O 3205   7.105   1.784   8.535 -0.6193 -0.5228 -0.3612
   24MOL0     C 3206   7.210   1.733   8.456 -0.3123  0.0502  0.4178
   24MOL0     C 3207   7.280   1.608   8.482 -0.0518  0.6390  1.0632
   24MOL0     C 3208   7.387   1.558   8.399  0.4378  0.0052 -0.2596
   24MOL0     C 3209   7.420   1.633   8.290 -0.1204 -0.1024  0.6786
   24MOL0     O 3210   7.520   1.599   8.190 -0.2065  0.6323 -0.6946
   24MOL0     C 3211   7.624   1.518   8.243  0.4998 -0.6697 -1.4678
   24MOL0     C 3212   7.737   1.535   8.141  0.7428 -0.1702 -0.0180
   24MOL0     C 3213   7.868   1.462   8.176 -1.4424  0.4175  0.2747
   24MOL0     C 3214   7.940   1.526   8.303  0.3856  0.3860  0.1076
   24MOL0     C 3215   8.064   1.437   8.356 -0.0261 -0.1606 -0.4111
   24MOL0     C 3216   8.136   1.514   8.473  0.6088 -0.0931  0.7336
   24MOL0     C 3217   8.226   1.429   8.563  0.7097 -1.1086 -0.3296
   24MOL0     C 3218   8.356   1.399   8.488 -0.3092  0.9823  0.7292
   24MOL0    Cl 3219   8.467   1.545   8.490  0.2649  0.1745  0.1642
   24MOL0     C 3220   7.342   1.750   8.258  0.2694 -0.4039 -0.4163
   24MOL0     C 3221   7.242   1.792   8.338 -0.2187  0.1140  0.2475
   24MOL0     O 3222   6.970   1.619   8.462  0.7226  0.1106  0.3681
   24MOL0     C 3223   6.759   1.718   8.612 -0.1083  0.0912  0.9574
   24MOL0     C 3224   6.638   1.788   8.643 -0.1854 -0.1037 -1.2487
   24MOL0     N 3225   6.226   1.951   9.111 -0.2499  0.6989  0.2258
   24MOL0     N 3226   6.129   1.928   9.197  0.1634 -0.2099  0.1194
   24MOL0     C 3227   4.802   1.876   9.164 -0.5212  1.1368 -0.8325
   24MOL0     C 3228   4.677   1.826   9.116  0.0002  0.3565  0.8446
   24MOL0     C 3229   4.300   1.818   8.893 -0.1020 -0.7210 -0.4153
   24MOL0     C 3230   4.273   1.676   8.896  0.1781 -0.0321  0.1522
   24MOL0     C 3231   4.135   1.635   8.903  0.3198 -0.5312  0.0827
   24MOL0     C 3232   4.029   1.729   8.883 -0.4058 -0.5871 -0.4681
   24MOL0     O 3233   3.893   1.694   8.891  0.5956 -0.0517  0.6752
   24MOL0     C 3234   3.863   1.555   8.892  0.2592 -0.5291  0.3284
   24MOL0     C 3235   3.702   1.544   8.867 -0.5614  0.0859  0.1839
   24MOL0     C 3236   3.655   1.554   8.726  0.0761  0.2461  0.4722
   24MOL0     C 3237   3.538   1.468   8.708 -0.6555  0.5071  0.0291
   24MOL0     C 3238   3.415   1.526   8.765 -0.8223 -0.2317  0.0125
   24MOL0     C 3239   3.308   1.570   8.809  0.3410  0.4464  0.1215
   24MOL0     C 3240   4.057   1.865   8.884 -0.5243  0.1746 -0.1839
   24MOL0     C 3241   4.191   1.908   8.887 -0.5818 -0.1928  1.0649
   24MOL0     C 3242   4.206   2.048   8.920  0.6811  0.4790 -0.2090
   24MOL0     H 3243   4.747   1.795   8.789 -3.3813 -2.3483  0.0552
   24MOL0     H 3244   4.980   1.869   8.874  0.5322 -0.5401  0.5512
   24MOL0     H 3245   5.068   1.762   9.249 -0.1910 -1.0986  2.5203
   24MOL0     H 3246   5.023   1.923   9.311 -1.8056  0.4363 -1.1377
   24MOL0     H 3247   5.264   1.829   9.330 -1.7841 -3.3280 -0.8141
   24MOL0     H 3248   5.276   1.866   9.154 -1.2253  1.7594 -0.4661
   24MOL0     H 3249   5.284   2.100   9.200 -0.7252  3.4418  2.1811
   24MOL0     H 3250   5.206   2.100   9.352  1.0097  2.2199 -0.5731
   24MOL0     H 3251   5.429   2.157   9.389  2.1845 -2.0975  4.4099
   24MOL0     H 3252   5.399   2.005   9.456  1.2204  0.6233 -0.1941
   24MOL0     H 3253   5.505   2.090   9.174 -0.5500 -0.7203 -0.4096
   24MOL0     H 3254   5.506   1.915   9.202 -0.3431  1.8651 -3.6750
   24MOL0     H 3255   5.667   2.094   9.383  3.4758 -3.2345  3.0712
   24MOL0     H 3256   5.678   1.924   9.365 -0.3622  1.4267  1.5592
   24MOL0     H 3257   5.754   2.140   9.167  1.3844  0.2306 -1.0657
   24MOL0     H 3258   5.757   1.960   9.127  0.3869  1.0499  0.5120
   24MOL0     H 3259   5.920   2.088   9.353 -0.6484 -1.5317  1.2620
   24MOL0     H 3260   5.896   1.920   9.321  1.2312  0.0117  1.8574
   24MOL0     H 3261   6.004   2.183   9.039 -0.4389 -1.1216 -2.0112
   24MOL0     H 3262   6.347   2.149   8.958 -0.0101 -0.1587  0.5223
   24MOL0     H 3263   6.194   2.226   8.915 -0.0054 -0.0087 -1.8508
   24MOL0     H 3264   6.272   1.953   8.815  1.3941  0.6577  0.8646
   24MOL0     H 3265   6.134   2.052   8.761 -0.1108  0.5071 -0.7428
   24MOL0     H 3266   6.293   2.068   8.593 -0.2548 -2.1893  0.4851
   24MOL0     H 3267   6.299   2.230   8.675 -0.1867 -0.4186  2.5465
   24MOL0     H 3268   6.527   2.163   8.626 -0.2057  0.6797  1.3466
   24MOL0     H 3269   6.508   2.154   8.793  1.2607 -2.5588  1.2702
   24MOL0     H 3270   6.727   2.103   8.624  0.3571 -0.5226  1.7844
   24MOL0     H 3271   6.933   2.136   8.555 -2.9298 -0.7736 -2.0762
   24MOL0     H 3272   7.003   2.022   8.437  0.9878  0.6862  0.2048
   24MOL0     H 3273   7.061   2.018   8.602 -0.5547  0.4619  1.2249
   24MOL0     H 3274   7.255   1.556   8.574 -0.3919  1.0021  1.1784
   24MOL0     H 3275   7.440   1.469   8.430  0.3839 -0.1570 -0.6268
   24MOL0     H 3276   7.655   1.570   8.335 -0.1626  0.0602 -1.6486
   24MOL0     H 3277   7.591   1.415   8.255  0.0865 -0.6221 -2.1519
   24MOL0     H 3278   7.699   1.509   8.042 -2.2761  2.1225  0.3881
   24MOL0     H 3279   7.762   1.642   8.140 -0.8296  0.2257  0.0213
   24MOL0     H 3280   7.946   1.466   8.099 -0.1303  2.1214  1.6156
   24MOL0     H 3281   7.846   1.355   8.188  2.2765 -0.2317  3.6252
   24MOL0     H 3282   7.878   1.541   8.391  1.4304 -0.2163  0.9743
   24MOL0     H 3283   7.981   1.626   8.284 -0.5924  0.4727 -1.7652
   24MOL0     H 3284   8.020   1.345   8.395 -2.5567  0.9830 -0.3742
   24MOL0     H 3285   8.143   1.407   8.286 -1.2447 -0.9949 -1.4777
   24MOL0     H 3286   8.070   1.567   8.543  1.3352  1.0690  0.5754
   24MOL0     H 3287   8.193   1.599   8.433 -1.7413  1.5070  0.5975
   24MOL0     H 3288   8.175   1.335   8.587 -1.4763  0.3839  1.1000
   24MOL0     H 3289   8.255   1.485   8.652  0.6231  1.9451 -2.0806
   24MOL0     H 3290   8.351   1.381   8.380  0.0868 -1.0371  1.0042
   24MOL0     H 3291   8.412   1.308   8.512  3.4617  1.9047 -3.3100
   24MOL0     H 3292   7.352   1.794   8.159 -1.8838 -0.9866 -0.9446
   24MOL0     H 3293   7.188   1.877   8.296 -2.3258  0.2002  2.8823
   24MOL0     H 3294   6.757   1.610   8.610  0.1298  0.0451 -2.2632
   24MOL0     H 3295   6.552   1.733   8.679  0.2519  0.9586  1.7057
   24MOL0     H 3296   4.808   1.885   9.272 -0.3849 -2.2845 -0.4385
   24MOL0     H 3297   4.594   1.823   9.186  0.5111 -0.0741  1.4457
   24MOL0     H 3298   4.351   1.603   8.917 -1.4461 -2.3269 -1.2925
   24MOL0     H 3299   4.108   1.532   8.921  0.3616 -0.4417  0.6679
   24MOL0     H 3300   3.909   1.501   8.809 -2.0915 -2.0556 -0.0890
   24MOL0     H 3301   3.869   1.506   8.990  0.4346 -0.5745  0.2951
   24MOL0     H 3302   3.654   1.627   8.920 -1.1331 -0.3889  0.4099
   24MOL0     H 3303   3.671   1.448   8.908 -0.2481  0.3007  0.9567
   24MOL0     H 3304   3.642   1.662   8.717  1.8189  0.6668  2.1215
   24MOL0     H 3305   3.732   1.523   8.654  0.6904  0.3381  1.0694
   24MOL0     H 3306   3.552   1.365   8.743  1.2916  1.7380  3.3904
   24MOL0     H 3307   3.530   1.456   8.600 -0.3219  0.7053 -0.0222
   24MOL0     H 3308   3.221   1.599   8.864 -0.9301 -2.5423 -0.1278
   24MOL0     H 3309   3.972   1.933   8.878 -1.1422 -0.2640  2.2157
   24MOL0     H 3310   4.252   2.101   8.836  1.8555 -1.2355 -0.7108
   24MOL0     H 3311   4.108   2.085   8.951  1.1327  0.8703  0.8212
   24MOL0     H 3312   4.274   2.061   9.005 -1.1513  2.1337  1.1089
   25MOL0     O 3313   9.561   6.252   4.571 -0.3007  0.0444  0.8643
   25MOL0     C 3314   9.483   6.322   4.632 -0.1039 -0.1216 -0.2455
   25MOL0     O 3315   9.510   6.450   4.672 -0.4614 -0.0154  0.3824
   25MOL0     C 3316   9.636   6.505   4.647  1.0738  0.0692  0.6416
   25MOL0     C 3317   9.670   6.541   4.519  0.3499 -0.4609  0.3582
   25MOL0     C 3318   9.795   6.598   4.489  0.8367  0.1152  0.6544
   25MOL0     C 3319   9.894   6.604   4.586  0.8689  0.2009 -1.0036
   25MOL0     O 3320  10.009   6.659   4.561 -0.2431 -0.0189 -0.1317
   25MOL0     C 3321  10.086   6.592   4.460 -0.0487  0.0181 -0.8977
   25MOL0     C 3322  10.219   6.655   4.434  0.5742 -0.5452  0.8813
   25MOL0     C 3323  10.219   6.808   4.437 -1.0546 -0.5441 -0.7084
   25MOL0     C 3324  10.108   6.867   4.353 -0.3480  0.2577  0.6960
   25MOL0     C 3325  10.119   6.856   4.200 -0.1989 -0.2444  0.4693
   25MOL0     C 3326   9.995   6.920   4.127 -0.0542  0.9717 -0.0223
   25MOL0     C 3327  10.009   7.070   4.111  0.2210  0.6185 -0.1007
   25MOL0     C 3328   9.882   7.111   4.034 -0.2960 -0.1361  0.2224
   25MOL0     N 3329   9.897   7.246   3.977 -0.4898 -0.0035 -0.4338
   25MOL0     C 3330   9.855   7.360   4.042 -0.9187 -0.1000  0.5574
   25MOL0     C 3331   9.900   7.459   3.966  0.1714 -0.4710  0.5864
   25MOL0     C 3332   9.896   7.606   4.002  0.0604  0.3458  0.1724
   25MOL0     C 3333  10.032   7.663   4.025  0.0491 -0.1368  0.0603
   25MOL0     C 3334  10.041   7.813   4.076  0.6516  0.0301  0.2509
   25MOL0     C 3335  10.188   7.855   4.108 -0.0973 -0.9372 -0.2311
   25MOL0     O 3336  10.250   7.773   4.206  0.0571 -0.3960  0.2693
   25MOL0     C 3337  10.386   7.811   4.229  0.6514 -0.2913  0.8951
   25MOL0     C 3338  10.460   7.763   4.334  0.4428  0.0874 -0.6426
   25MOL0     C 3339  10.589   7.801   4.373 -0.4852  0.0110  0.3955
   25MOL0     C 3340  10.668   7.737   4.492  0.3958  0.5725  1.2156
   25MOL0     C 3341  10.646   7.905   4.294  0.6169  0.5301  0.7119
   25MOL0     C 3342  10.776   7.977   4.332  0.9882  0.6116  0.3430
   25MOL0     O 3343  10.774   8.069   4.441 -0.2290 -0.4790  0.0128
   25MOL0     C 3344  10.889   8.117   4.496  0.2646  0.2373  0.0146
   25MOL0     C 3345  10.925   8.251   4.475  0.9435 -0.1918 -0.0165
   25MOL0     C 3346  11.053   8.290   4.510  0.4005  0.5796  0.4865
   25MOL0     C 3347  11.139   8.208   4.584  0.4548  0.1549  0.9502
   25MOL0     O 3348  11.269   8.239   4.624 -0.2554  0.1570  0.0112
   25MOL0     C 3349  11.314   8.365   4.578 -0.2754 -0.3636 -0.4372
   25MOL0     C 3350  11.461   8.378   4.611 -0.5054  0.2760 -0.0677
   25MOL0     C 3351  11.544   8.320   4.497 -0.7799 -0.6602  0.0174
   25MOL0     C 3352  11.689   8.365   4.509 -0.6487  0.2909  0.0762
   25MOL0     C 3353  11.769   8.305   4.394  0.1758 -0.7380 -0.2725
   25MOL0     C 3354  11.842   8.424   4.317  0.0432  1.1718  0.3253
   25MOL0     C 3355  11.950   8.378   4.220  0.5872  0.0867  0.6718
   25MOL0     C 3356  12.060   8.321   4.306  0.3796  0.1870 -0.3167
   25MOL0    Cl 3357  12.198   8.300   4.191  0.0930  0.3701 -0.0077
   25MOL0     C 3358  11.091   8.083   4.620  0.5076 -0.5425 -0.1967
   25MOL0     C 3359  10.975   8.039   4.569  0.0023  0.0501 -0.2796
   25MOL0     O 3360  10.877   7.946   4.274 -0.5871  0.6370 -0.1695
   25MOL0     C 3361  10.574   7.957   4.185  0.1462  0.4862  0.1911
   25MOL0     C 3362  10.449   7.916   4.157  0.3293  1.2197  0.7938
   25MOL0     N 3363   9.982   7.396   3.867  0.7126 -0.8088  1.0380
   25MOL0     N 3364   9.965   7.271   3.860  0.3858  0.0000  0.2719
   25MOL0     C 3365   9.863   6.567   4.721 -0.4362  0.5249  0.2667
   25MOL0     C 3366   9.741   6.517   4.745  0.4112  0.3224  0.4232
   25MOL0     C 3367   9.358   6.259   4.673  0.3704 -0.3896  0.8030
   25MOL0     C 3368   9.284   6.318   4.781  0.7670 -0.3479  0.4153
   25MOL0     C 3369   9.162   6.262   4.820  0.1444 -0.0100  0.1475
   25MOL0     C 3370   9.117   6.140   4.768  0.0101 -0.1744 -0.7274
   25MOL0     O 3371   9.010   6.064   4.810  0.0158  0.2744 -0.2096
   25MOL0     C 3372   8.891   6.128   4.862  0.3687 -0.0586  0.3562
   25MOL0     C 3373   8.833   6.241   4.767 -0.2804  0.0007 -0.2241
   25MOL0     C 3374   8.822   6.185   4.624 -0.9709  0.1378  0.4310
   25MOL0     C 3375   8.749   6.271   4.526  0.2211 -1.3686 -0.0982
   25MOL0     C 3376   8.611   6.285   4.562 -0.2622 -0.8341  1.1304
   25MOL0     C 3377   8.489   6.273   4.593 -1.6835 -0.9988  0.3868
   25MOL0     C 3378   9.190   6.090   4.661  0.5777 -0.0537  0.3440
   25MOL0     C 3379   9.306   6.146   4.618  0.9287  0.6042 -0.0898
   25MOL0     C 3380   9.367   6.072   4.501 -0.6002 -0.1461 -0.0699
   25MOL0     H 3381   9.601   6.533   4.435  0.9984  1.8962 -0.4760
   25MOL0     H 3382   9.810   6.633   4.387 -1.5592  0.9348  0.5284
   25MOL0     H 3383  10.040   6.606   4.362  2.7441  0.2975 -2.2772
   25MOL0     H 3384  10.103   6.486   4.480  1.4055  0.0512 -1.7663
   25MOL0     H 3385  10.278   6.613   4.515  2.3357  0.3174  0.0832
   25MOL0     H 3386  10.270   6.617   4.345 -1.3184  1.3754 -1.1580
   25MOL0     H 3387  10.207   6.837   4.542  0.2887 -1.7842 -0.1708
   25MOL0     H 3388  10.315   6.852   4.408 -0.5132 -0.3278  1.2854
   25MOL0     H 3389  10.007   6.832   4.378 -0.5858 -1.1689 -1.8255
   25MOL0     H 3390  10.108   6.973   4.380  0.0014  1.1489 -2.3733
   25MOL0     H 3391  10.118   6.750   4.173 -1.7055 -0.8865  2.7477
   25MOL0     H 3392  10.215   6.896   4.166 -0.0119 -2.2739 -1.6267
   25MOL0     H 3393   9.964   6.864   4.039 -1.9320  0.4149  0.9288
   25MOL0     H 3394   9.905   6.907   4.188  0.5419 -0.9869  0.5053
   25MOL0     H 3395  10.096   7.079   4.046 -0.3542  1.4848 -0.7749
   25MOL0     H 3396  10.022   7.125   4.205 -0.1872 -2.5355  1.9555
   25MOL0     H 3397   9.867   7.052   3.944 -0.9069 -1.1459  0.9626
   25MOL0     H 3398   9.788   7.097   4.089  0.4681 -2.7847  0.9667
   25MOL0     H 3399   9.811   7.364   4.141  1.7647 -0.5909  1.8827
   25MOL0     H 3400   9.825   7.625   4.083 -0.4129  1.3768 -0.4611
   25MOL0     H 3401   9.857   7.671   3.924 -0.0931  0.2061  0.1325
   25MOL0     H 3402  10.087   7.596   4.091 -1.3331  0.1227  1.5332
   25MOL0     H 3403  10.097   7.666   3.937  0.1025  0.1734  0.1100
   25MOL0     H 3404  10.003   7.877   3.996 -1.9479 -0.2289  1.1946
   25MOL0     H 3405   9.969   7.827   4.157 -0.3648  0.8269 -0.7582
   25MOL0     H 3406  10.247   7.847   4.016  0.0458 -0.1010 -0.2246
   25MOL0     H 3407  10.188   7.955   4.152  0.7658 -1.4914  1.0848
   25MOL0     H 3408  10.404   7.698   4.400  0.6060  1.3344  0.7729
   25MOL0     H 3409  10.605   7.664   4.542  0.9186 -1.7401 -1.2962
   25MOL0     H 3410  10.709   7.817   4.556  1.4298  2.7719 -1.9295
   25MOL0     H 3411  10.755   7.682   4.457  0.1827  1.3493 -0.6282
   25MOL0     H 3412  10.848   8.315   4.431  1.3770 -1.5972 -3.0621
   25MOL0     H 3413  11.079   8.395   4.501  0.3324  0.4504 -1.6988
   25MOL0     H 3414  11.292   8.389   4.474 -2.1752  2.2832  0.4837
   25MOL0     H 3415  11.263   8.439   4.639 -0.5245 -0.3550 -0.6546
   25MOL0     H 3416  11.494   8.481   4.627 -0.7359  0.2265  0.7786
   25MOL0     H 3417  11.478   8.325   4.705 -1.9359  1.2880  0.8007
   25MOL0     H 3418  11.508   8.357   4.400  1.6155 -1.8748 -1.4219
   25MOL0     H 3419  11.524   8.213   4.497 -0.4058 -0.7471 -0.9156
   25MOL0     H 3420  11.734   8.320   4.598  3.4338  2.1321 -0.8111
   25MOL0     H 3421  11.701   8.474   4.511 -0.9235  0.3132  0.8282
   25MOL0     H 3422  11.832   8.222   4.429 -0.8512 -1.5331 -0.2445
   25MOL0     H 3423  11.708   8.253   4.320  1.1704 -1.9950 -0.2513
   25MOL0     H 3424  11.887   8.491   4.391  0.0343  2.8972 -1.1763
   25MOL0     H 3425  11.773   8.478   4.252  3.1532  3.9501 -0.9449
   25MOL0     H 3426  11.967   8.462   4.153  2.4923  0.0355  1.0549
   25MOL0     H 3427  11.907   8.297   4.160  0.7046 -0.5577  1.4251
   25MOL0     H 3428  12.039   8.228   4.361  0.4741  1.6752  2.4043
   25MOL0     H 3429  12.084   8.403   4.375  0.8072  0.2550 -0.5450
   25MOL0     H 3430  11.146   8.031   4.697  0.1051  0.2771  0.6632
   25MOL0     H 3431  10.941   7.938   4.592  0.9054 -0.5217 -1.3867
   25MOL0     H 3432  10.623   8.031   4.122  0.8294 -1.2654 -1.4142
   25MOL0     H 3433  10.412   7.970   4.072  0.4182  0.9590  0.5874
   25MOL0     H 3434   9.943   6.575   4.793  0.8335 -3.4665 -0.4471
   25MOL0     H 3435   9.717   6.483   4.845 -0.6467  0.2389  0.1502
   25MOL0     H 3436   9.320   6.409   4.829  0.0934  0.3151 -0.3079
   25MOL0     H 3437   9.111   6.306   4.906 -0.1779  1.4301 -0.7326
   25MOL0     H 3438   8.816   6.050   4.880 -0.4029  0.6856  0.4383
   25MOL0     H 3439   8.917   6.165   4.962  0.9649 -0.9338  0.5379
   25MOL0     H 3440   8.897   6.330   4.764 -0.3788  0.1389  1.0713
   25MOL0     H 3441   8.734   6.272   4.803 -1.8654 -1.7621 -2.7985
   25MOL0     H 3442   8.919   6.160   4.581 -0.2810  1.3001  1.2502
   25MOL0     H 3443   8.769   6.089   4.630 -1.6893  0.5781  1.7655
   25MOL0     H 3444   8.751   6.243   4.420  1.0526 -0.2216 -0.3940
   25MOL0     H 3445   8.800   6.367   4.525 -1.1593 -0.5966 -1.1216
   25MOL0     H 3446   8.388   6.250   4.619 -1.6311 -1.5285  0.1463
   25MOL0     H 3447   9.145   6.004   4.612 -0.1055  0.5308 -0.0615
   25MOL0     H 3448   9.454   6.010   4.523  0.4291  1.9147  2.2144
   25MOL0     H 3449   9.301   6.005   4.447 -0.5497  1.0224 -1.6477
   25MOL0     H 3450   9.401   6.133   4.417  2.3633 -2.9745 -1.1437
   26MOL0     O 3451   6.333   6.498  10.565  0.1675 -0.4402  0.2668
   26MOL0     C 3452   6.235   6.529  10.628 -1.0210 -0.0848 -0.3693
   26MOL0     O 3453   6.234   6.543  10.761  0.1032  0.4345  0.1985
   26MOL0     C 3454   6.346   6.569  10.832  0.5443 -0.7356 -0.4421
   26MOL0     C 3455   6.424   6.673  10.789 -0.3509 -0.8720  0.0923
   26MOL0     C 3456   6.532   6.704  10.872  0.3867  0.3898  0.1738
   26MOL0     C 3457   6.561   6.648  10.994 -0.3091 -0.5373  0.0188
   26MOL0     O 3458   6.665   6.683  11.073 -0.1220 -0.0362  0.5859
   26MOL0     C 3459   6.786   6.635  11.024  0.2203 -0.6188  1.0156
   26MOL0     C 3460   6.900   6.688  11.105 -0.0264 -0.7878  0.7827
   26MOL0     C 3461   6.908   6.841  11.111 -0.0187  0.1976  0.1489
   26MOL0     C 3462   7.016   6.893  11.211 -0.3425  0.3889 -0.2129
   26MOL0     C 3463   6.952   6.886  11.356 -0.3822  1.1601  1.1801
   26MOL0     C 3464   7.039   6.927  11.473 -0.1189 -0.1890 -0.6515
   26MOL0     C 3465   7.102   7.066  11.466 -0.3125 -0.1880  0.0075
   26MOL0     C 3466   7.179   7.109  11.587 -0.4862  0.2021  0.6001
   26MOL0     N 3467   7.315   7.053  11.597  0.7513  0.5731 -0.4757
   26MOL0     C 3468   7.425   7.131  11.587 -0.6128 -0.1042 -0.4875
   26MOL0     C 3469   7.523   7.063  11.651 -0.4717  0.0513  0.5718
   26MOL0     C 3470   7.668   7.089  11.672 -0.9555  0.5685 -0.2880
   26MOL0     C 3471   7.719   7.206  11.589  0.2458  0.4605 -0.1543
   26MOL0     C 3472   7.867   7.249  11.613  0.9142  0.8403 -0.0447
   26MOL0     C 3473   7.965   7.194  11.507 -0.3581  0.6517  0.3702
   26MOL0     O 3474   7.965   7.291  11.406 -0.6276  0.5144  0.1100
   26MOL0     C 3475   8.068   7.308  11.318  0.1058 -0.4392  0.7911
   26MOL0     C 3476   8.083   7.210  11.219 -0.8939  0.3609 -0.0416
   26MOL0     C 3477   8.197   7.215  11.141  0.3299  0.5119 -0.0561
   26MOL0     C 3478   8.209   7.103  11.036 -0.7254 -0.4131 -1.2666
   26MOL0     C 3479   8.298   7.315  11.156  0.2680  1.0591 -1.2723
   26MOL0     C 3480   8.439   7.324  11.101  0.2567  0.0293  0.7349
   26MOL0     O 3481   8.529   7.427  11.137  0.1863  0.1051  0.9389
   26MOL0     C 3482   8.659   7.418  11.115  0.4822 -0.3017 -0.2011
   26MOL0     C 3483   8.723   7.540  11.102  0.0105 -0.6260  0.0823
   26MOL0     C 3484   8.856   7.552  11.077 -0.5569  0.0114  0.8168
   26MOL0     C 3485   8.940   7.439  11.071  0.2622 -0.5207  0.3473
   26MOL0     O 3486   9.078   7.452  11.054  0.4821  0.1601 -0.3106
   26MOL0     C 3487   9.110   7.408  10.925 -0.5640 -0.0284  0.1135
   26MOL0     C 3488   9.231   7.469  10.863  0.5174  1.3258  0.3933
   26MOL0     C 3489   9.219   7.623  10.861 -0.1223 -0.2620 -0.0050
   26MOL0     C 3490   9.349   7.697  10.851  0.0833 -0.7841 -0.3464
   26MOL0     C 3491   9.382   7.718  10.710 -0.3550  0.2423  0.4717
   26MOL0     C 3492   9.510   7.784  10.687 -0.6506 -0.5310 -0.6139
   26MOL0     C 3493   9.552   7.779  10.534  1.0403  0.1277 -0.4074
   26MOL0     C 3494   9.677   7.870  10.511 -0.2073 -0.2120  0.3100
   26MOL0    Cl 3495   9.629   8.045  10.550  0.3238 -0.4081 -0.4128
   26MOL0     C 3496   8.877   7.316  11.087 -0.4669  0.1583 -1.0624
   26MOL0     C 3497   8.734   7.299  11.115 -0.1612 -0.4799  0.3805
   26MOL0     O 3498   8.467   7.237  11.020 -0.3035 -0.3039 -0.1149
   26MOL0     C 3499   8.271   7.416  11.252 -0.1843 -0.0091 -0.8236
   26MOL0     C 3500   8.154   7.413  11.325 -0.9342  0.8726  0.6426
   26MOL0     N 3501   7.471   6.938  11.692  0.5949  0.2891 -0.5630
   26MOL0     N 3502   7.340   6.938  11.664 -0.3681  1.0049  0.2869
   26MOL0     C 3503   6.479   6.544  11.033  0.3724 -0.4558 -0.4059
   26MOL0     C 3504   6.370   6.506  10.954 -0.0073  0.0316  0.5379
   26MOL0     C 3505   6.109   6.560  10.552 -0.3475  0.3432  0.5636
   26MOL0     C 3506   6.020   6.651  10.620  0.5967  0.3863 -0.5786
   26MOL0     C 3507   5.913   6.710  10.554 -0.4235 -0.7652  0.3496
   26MOL0     C 3508   5.874   6.663  10.428  0.7796 -0.5290 -0.0524
   26MOL0     O 3509   5.752   6.715  10.385  0.1554 -0.1574  0.0012
   26MOL0     C 3510   5.735   6.728  10.246 -0.9340  0.6478  0.3858
   26MOL0     C 3511   5.618   6.822  10.202 -0.5759  1.0840  1.0590
   26MOL0     C 3512   5.626   6.951  10.279  0.2529 -0.0415 -0.8038
   26MOL0     C 3513   5.486   7.018  10.271 -0.4524  0.0140 -0.3836
   26MOL0     C 3514   5.494   7.140  10.195  0.6864  0.5821  0.0888
   26MOL0     C 3515   5.504   7.243  10.127 -0.2117  0.0501  0.1195
   26MOL0     C 3516   5.955   6.560  10.365  0.2487 -0.0199 -0.2671
   26MOL0     C 3517   6.068   6.506  10.427 -0.7434 -0.1059 -1.0766
   26MOL0     C 3518   6.152   6.397  10.361  0.5983  0.0381  0.2168
   26MOL0     H 3519   6.394   6.738  10.707  0.1302  2.5148  2.3968
   26MOL0     H 3520   6.589   6.793  10.845 -2.3312  2.6836  1.4461
   26MOL0     H 3521   6.789   6.678  10.923 -1.6279  1.5649  1.7982
   26MOL0     H 3522   6.789   6.527  11.012 -0.1306 -0.4226 -1.3183
   26MOL0     H 3523   6.877   6.631  11.195 -1.2587  0.3098  1.2022
   26MOL0     H 3524   6.993   6.642  11.070  0.7302 -0.2497  2.0174
   26MOL0     H 3525   6.918   6.881  11.010 -0.0357 -2.8270 -1.1770
   26MOL0     H 3526   6.812   6.882  11.145  0.3321  1.1459  0.0232
   26MOL0     H 3527   7.113   6.842  11.208  0.3101  1.5473  0.3432
   26MOL0     H 3528   7.040   6.996  11.184  0.5847  0.5710  1.2148
   26MOL0     H 3529   6.926   6.781  11.373  1.6565  0.3121 -0.4321
   26MOL0     H 3530   6.861   6.944  11.343 -0.0772  0.8615 -6.3962
   26MOL0     H 3531   6.972   6.930  11.560 -0.0936  0.6973 -0.6530
   26MOL0     H 3532   7.115   6.851  11.494 -3.4406 -3.6360 -0.0072
   26MOL0     H 3533   7.008   7.121  11.466 -1.9136 -2.6133  3.3974
   26MOL0     H 3534   7.176   7.066  11.385  2.8757  1.7169  2.6986
   26MOL0     H 3535   7.172   7.216  11.607  0.3840  0.5864 -0.9481
   26MOL0     H 3536   7.126   7.056  11.667 -0.7833 -1.8497 -0.8742
   26MOL0     H 3537   7.436   7.227  11.537  2.0563  0.6535  1.3348
   26MOL0     H 3538   7.736   7.007  11.645  1.5831  2.6526 -0.6757
   26MOL0     H 3539   7.686   7.102  11.779  0.4438 -0.8927 -0.2983
   26MOL0     H 3540   7.693   7.190  11.484 -3.3581 -1.7097  0.8923
   26MOL0     H 3541   7.661   7.294  11.621 -0.2882  0.2923 -0.6527
   26MOL0     H 3542   7.870   7.358  11.606 -0.7951  0.9180 -0.0595
   26MOL0     H 3543   7.895   7.228  11.717 -0.2023  1.9430  0.4990
   26MOL0     H 3544   8.065   7.184  11.550 -0.5653  1.0897  0.9608
   26MOL0     H 3545   7.936   7.095  11.467  2.3067  0.3422 -1.0125
   26MOL0     H 3546   8.007   7.135  11.198  1.2838 -2.6337  1.8601
   26MOL0     H 3547   8.117   7.043  11.036 -0.6646 -0.5085 -1.8236
   26MOL0     H 3548   8.299   7.045  11.060  1.2299  2.2675 -1.7141
   26MOL0     H 3549   8.228   7.128  10.931 -1.7598 -1.6738 -1.7818
   26MOL0     H 3550   8.682   7.640  11.110  2.3970  0.4453  0.0381
   26MOL0     H 3551   8.897   7.652  11.071  0.2529 -0.1970  2.3972
   26MOL0     H 3552   9.116   7.299  10.931 -0.6046 -0.0511 -0.2345
   26MOL0     H 3553   9.023   7.433  10.862  0.6382  2.2347 -0.7597
   26MOL0     H 3554   9.318   7.420  10.907 -0.8603 -2.9908 -1.1512
   26MOL0     H 3555   9.230   7.440  10.758 -0.5183 -2.4771  1.3033
   26MOL0     H 3556   9.182   7.645  10.961 -0.5107  1.5715 -0.5072
   26MOL0     H 3557   9.147   7.644  10.781 -0.9354 -4.4154 -0.6050
   26MOL0     H 3558   9.432   7.642  10.896 -0.6601 -1.0727  0.6994
   26MOL0     H 3559   9.339   7.795  10.897 -0.9690 -0.1556 -1.8535
   26MOL0     H 3560   9.389   7.620  10.663  0.4443 -0.8662  2.7578
   26MOL0     H 3561   9.304   7.781  10.665 -0.2149  0.4886  0.5676
   26MOL0     H 3562   9.577   7.745  10.764 -1.5954 -0.0157  0.5032
   26MOL0     H 3563   9.488   7.887  10.717  0.7126  1.2389 -4.9931
   26MOL0     H 3564   9.475   7.825  10.472  2.3356  2.0467 -0.7144
   26MOL0     H 3565   9.563   7.678  10.495 -1.5140 -0.9079  1.3055
   26MOL0     H 3566   9.719   7.861  10.411  2.1065 -0.6146  1.2641
   26MOL0     H 3567   9.758   7.847  10.580  2.4211  2.0910 -1.7597
   26MOL0     H 3568   8.946   7.232  11.077  2.0082  1.6734  1.8734
   26MOL0     H 3569   8.692   7.200  11.128 -0.1813 -0.3588  1.2538
   26MOL0     H 3570   8.341   7.497  11.267  0.3995 -0.8810  1.5375
   26MOL0     H 3571   8.148   7.498  11.393 -2.7402 -0.6013  2.4452
   26MOL0     H 3572   6.503   6.481  11.118  0.2735  0.7315  0.5258
   26MOL0     H 3573   6.303   6.428  10.988 -1.1953  1.2507  1.0856
   26MOL0     H 3574   6.033   6.692  10.719 -2.8909  1.2513 -0.3331
   26MOL0     H 3575   5.867   6.792  10.608  1.7230 -0.7829  2.3199
   26MOL0     H 3576   5.820   6.774  10.195 -1.7514 -0.8248 -2.4925
   26MOL0     H 3577   5.703   6.627  10.219 -2.2491  1.3467 -0.7833
   26MOL0     H 3578   5.520   6.775  10.213 -1.6933  1.9190 -3.4111
   26MOL0     H 3579   5.628   6.849  10.097  2.5523 -4.3343 -0.3818
   26MOL0     H 3580   5.647   6.951  10.386  1.2474  0.1986 -0.9901
   26MOL0     H 3581   5.704   7.016  10.237 -0.7074  0.5958 -1.6509
   26MOL0     H 3582   5.462   7.044  10.374  2.4177  1.4148  0.0472
   26MOL0     H 3583   5.412   6.947  10.233  1.2783 -1.0080 -2.0359
   26MOL0     H 3584   5.520   7.315  10.049  1.6295 -2.2331 -1.8040
   26MOL0     H 3585   5.933   6.518  10.267  3.1918  0.2788 -1.1414
   26MOL0     H 3586   6.104   6.357  10.271  0.7746 -0.3684  0.3015
   26MOL0     H 3587   6.253   6.434  10.344  0.9818 -0.9098  0.3643
   26MOL0     H 3588   6.174   6.316  10.431  1.0641  1.3289  1.6097
   27MOL0     O 3589   9.563   4.373   8.768  0.0932 -0.1817 -0.4512
   27MOL0     C 3590   9.607   4.273   8.824  0.1636 -0.6575 -0.9924
   27MOL0     O 3591   9.540   4.152   8.826  0.6012  0.1537  0.3127
   27MOL0     C 3592   9.398   4.152   8.844 -0.2471  0.5626 -0.1007
   27MOL0     C 3593   9.333   4.247   8.916  1.7835  0.0587  0.2386
   27MOL0     C 3594   9.201   4.244   8.931  0.4518 -0.1215  0.2991
   27MOL0     C 3595   9.128   4.134   8.881 -0.6633  0.3454  0.7291
   27MOL0     O 3596   8.990   4.118   8.888 -0.8034  0.4024  0.3901
   27MOL0     C 3597   8.910   4.224   8.943 -0.1979  0.0654 -0.2060
   27MOL0     C 3598   8.768   4.180   8.915  0.8947  0.0500  0.0840
   27MOL0     C 3599   8.661   4.276   8.967 -0.1014  0.4381  0.9707
   27MOL0     C 3600   8.662   4.288   9.122 -0.0026  0.2512  0.1275
   27MOL0     C 3601   8.558   4.398   9.159 -0.1343  0.2929  1.0541
   27MOL0     C 3602   8.418   4.342   9.172 -0.2459 -0.3579  0.7613
   27MOL0     C 3603   8.397   4.253   9.298 -0.1668  0.0169 -0.8018
   27MOL0     C 3604   8.258   4.190   9.299  0.6617 -0.1678 -0.2219
   27MOL0     N 3605   8.241   4.133   9.434  0.7942 -0.1633  0.2073
   27MOL0     C 3606   8.291   4.011   9.478  0.1791  0.3401  1.0563
   27MOL0     C 3607   8.287   4.026   9.615  0.1779  1.0259 -0.1601
   27MOL0     C 3608   8.290   3.918   9.717  0.3045  0.7088 -0.5284
   27MOL0     C 3609   8.432   3.902   9.772  0.3057  0.1436  0.2876
   27MOL0     C 3610   8.459   4.006   9.883  1.1272  0.0563  0.7039
   27MOL0     C 3611   8.598   4.010   9.936 -0.2017 -0.3298 -0.1767
   27MOL0     O 3612   8.696   4.039   9.831  0.2011 -0.5842 -0.0898
   27MOL0     C 3613   8.827   4.026   9.850  0.2263  0.5503  0.6487
   27MOL0     C 3614   8.910   4.037   9.732  0.1944 -0.4224 -0.0732
   27MOL0     C 3615   9.048   4.033   9.735 -0.3817 -0.1401  0.8760
   27MOL0     C 3616   9.116   4.046   9.598 -0.7419  0.1550 -0.1698
   27MOL0     C 3617   9.116   4.015   9.856 -0.0809  0.7300 -0.1487
   27MOL0     C 3618   9.261   4.003   9.865 -0.0899 -0.4825 -0.7669
   27MOL0     O 3619   9.332   4.019   9.750 -0.0070 -0.5282 -0.1439
   27MOL0     C 3620   9.467   4.047   9.750 -0.8487  0.1767 -0.2923
   27MOL0     C 3621   9.524   4.137   9.664  0.0440  0.1935 -1.1425
   27MOL0     C 3622   9.659   4.165   9.674  0.2449  0.0423  0.3165
   27MOL0     C 3623   9.748   4.092   9.755 -0.0883 -0.1992  0.7390
   27MOL0     O 3624   9.878   4.146   9.756  0.0862  0.2463  0.2101
   27MOL0     C 3625   9.981   4.048   9.791  0.2597  0.1326 -0.7843
   27MOL0     C 3626  10.013   3.966   9.667  0.3391 -0.1507  1.1393
   27MOL0     C 3627  10.078   3.836   9.712  0.9130  0.1752 -0.0466
   27MOL0     C 3628  10.078   3.725   9.597 -0.5392  0.0486 -0.4599
   27MOL0     C 3629  10.174   3.610   9.623 -0.2260  0.5850  0.2822
   27MOL0     C 3630  10.307   3.663   9.597 -0.1155 -0.6088  0.0864
   27MOL0     C 3631  10.403   3.546   9.566  0.1481 -0.0475 -0.4668
   27MOL0     C 3632  10.543   3.592   9.514  1.2883 -0.6704  0.8902
   27MOL0    Cl 3633  10.639   3.693   9.635  0.0013 -0.0691  0.2502
   27MOL0     C 3634   9.692   3.985   9.830 -1.0426  0.0642 -0.1121
   27MOL0     C 3635   9.554   3.957   9.821 -0.5777  0.0072  0.6828
   27MOL0     O 3636   9.304   3.990   9.976 -0.3855 -0.3359 -0.2319
   27MOL0     C 3637   9.035   4.013   9.972  0.4831 -0.3465  0.2575
   27MOL0     C 3638   8.894   4.024   9.969  0.1062 -0.6546  0.2904
   27MOL0     N 3639   8.247   4.153   9.648 -1.2506 -0.2788  0.1078
   27MOL0     N 3640   8.215   4.212   9.543 -0.1948  0.8737  0.2864
   27MOL0     C 3641   9.189   4.035   8.811 -0.7534  0.4409  0.5392
   27MOL0     C 3642   9.326   4.045   8.789 -0.7733  0.8443 -0.4690
   27MOL0     C 3643   9.739   4.283   8.883 -0.6043 -0.3901 -0.0744
   27MOL0     C 3644   9.791   4.168   8.942  0.4908 -1.0324  0.0688
   27MOL0     C 3645   9.922   4.156   8.981 -0.2119 -0.1007  0.2631
   27MOL0     C 3646  10.009   4.258   8.973  0.1554 -0.5896  0.1306
   27MOL0     O 3647  10.140   4.227   9.004 -0.2054 -0.3855 -0.4234
   27MOL0     C 3648  10.239   4.332   8.983 -0.5899  0.0554 -0.6166
   27MOL0     C 3649  10.366   4.252   8.989 -0.7679  1.5165  0.4026
   27MOL0     C 3650  10.395   4.160   8.869 -0.0736  0.3267  0.7346
   27MOL0     C 3651  10.534   4.119   8.848 -0.2157 -0.1599 -0.1321
   27MOL0     C 3652  10.613   4.214   8.769  0.0505 -0.9619 -0.1527
   27MOL0     C 3653  10.669   4.296   8.701 -0.3590 -0.1343 -0.0571
   27MOL0     C 3654   9.961   4.390   8.932 -0.2406 -0.2271 -0.2694
   27MOL0     C 3655   9.827   4.404   8.882  0.5570  0.2097 -0.4865
   27MOL0     C 3656   9.789   4.542   8.833 -0.0891 -0.2370  0.3188
   27MOL0     H 3657   9.385   4.322   8.975 -0.6077  1.0826  1.1655
   27MOL0     H 3658   9.159   4.322   8.994 -0.6458  0.7955 -1.4758
   27MOL0     H 3659   8.930   4.314   8.884  2.4805 -0.5513 -0.3620
   27MOL0     H 3660   8.925   4.227   9.051 -0.4426 -1.6365 -0.1025
   27MOL0     H 3661   8.759   4.164   8.808  0.8829  1.5119 -0.1632
   27MOL0     H 3662   8.744   4.081   8.955 -0.4439 -0.0775 -0.9562
   27MOL0     H 3663   8.682   4.376   8.928  3.5649 -0.3984  0.4882
   27MOL0     H 3664   8.559   4.259   8.933  0.1075  3.0467 -1.2519
   27MOL0     H 3665   8.652   4.193   9.177 -0.0145  0.0039 -0.2974
   27MOL0     H 3666   8.758   4.325   9.158  0.2853  0.0315 -0.4134
   27MOL0     H 3667   8.557   4.483   9.091 -0.3353 -2.1571 -2.2585
   27MOL0     H 3668   8.586   4.442   9.255  0.0446  1.7803  0.3418
   27MOL0     H 3669   8.362   4.435   9.168  2.0422  1.0731 -2.1433
   27MOL0     H 3670   8.386   4.289   9.082 -0.7117 -1.8720  1.7871
   27MOL0     H 3671   8.415   4.321   9.382  1.1712  2.3034 -2.8147
   27MOL0     H 3672   8.470   4.171   9.296 -1.6397 -1.3532 -3.0449
   27MOL0     H 3673   8.189   4.273   9.281 -1.8133 -1.8173  1.0539
   27MOL0     H 3674   8.249   4.119   9.216 -0.5512  0.6827 -0.8602
   27MOL0     H 3675   8.303   3.924   9.415 -1.0899  0.3440  0.7752
   27MOL0     H 3676   8.243   3.827   9.676 -1.1673 -0.9015  4.1123
   27MOL0     H 3677   8.223   3.940   9.801 -0.8201  1.3164 -1.5459
   27MOL0     H 3678   8.445   3.804   9.819  1.6137  1.2817  2.4261
   27MOL0     H 3679   8.505   3.919   9.691  1.2918 -2.0345  0.6288
   27MOL0     H 3680   8.417   4.105   9.860  1.3703  0.3332  1.4227
   27MOL0     H 3681   8.408   3.976   9.975  2.5367  1.2171  1.9267
   27MOL0     H 3682   8.609   4.088  10.012  0.2108  2.0091 -2.4914
   27MOL0     H 3683   8.616   3.911   9.979 -1.7600 -1.3180 -1.6561
   27MOL0     H 3684   8.850   4.059   9.644 -1.9091  0.8117  1.5956
   27MOL0     H 3685   9.176   4.133   9.624 -0.3383  0.0068 -0.5839
   27MOL0     H 3686   9.044   4.078   9.522 -1.4681  0.1525  0.5070
   27MOL0     H 3687   9.178   3.966   9.556 -0.3538 -0.1994  1.0510
   27MOL0     H 3688   9.453   4.193   9.604 -1.6387  1.2150  1.6455
   27MOL0     H 3689   9.705   4.232   9.603  0.2807 -2.3899 -2.1385
   27MOL0     H 3690  10.069   4.106   9.822 -0.5623  0.4255  1.1118
   27MOL0     H 3691   9.954   3.986   9.877 -2.3164  1.6887 -0.3556
   27MOL0     H 3692   9.919   3.950   9.613  0.9823  1.2978 -0.5219
   27MOL0     H 3693  10.081   4.016   9.597 -0.7844  0.3438  0.3695
   27MOL0     H 3694  10.028   3.786   9.795  0.5002 -1.3449 -1.1561
   27MOL0     H 3695  10.180   3.868   9.736  0.6181 -0.3012  2.0563
   27MOL0     H 3696  10.103   3.771   9.501  2.7571 -0.3695  0.0548
   27MOL0     H 3697   9.979   3.680   9.596  0.5000 -2.4089 -0.1350
   27MOL0     H 3698  10.169   3.575   9.727  0.8935 -0.0102  0.1543
   27MOL0     H 3699  10.152   3.527   9.554 -0.1099 -0.9160  1.9585
   27MOL0     H 3700  10.340   3.708   9.692 -2.2423  1.2803  0.0133
   27MOL0     H 3701  10.319   3.750   9.532  0.3753  0.4313  1.5031
   27MOL0     H 3702  10.364   3.485   9.484 -2.7273  0.4716  0.4019
   27MOL0     H 3703  10.417   3.486   9.657 -1.6702 -0.9035 -0.6951
   27MOL0     H 3704  10.536   3.652   9.422  1.7777  1.1609  2.0004
   27MOL0     H 3705  10.600   3.501   9.493  1.3829 -0.1652 -1.3263
   27MOL0     H 3706   9.760   3.938   9.900  1.9917  0.5877 -2.5141
   27MOL0     H 3707   9.512   3.877   9.882  0.6202  0.9069  2.7761
   27MOL0     H 3708   9.080   4.001  10.070  1.0300  3.1388  0.5729
   27MOL0     H 3709   8.839   4.041  10.061  0.3823 -0.0486  0.3534
   27MOL0     H 3710   9.131   3.957   8.763  0.7996 -0.6615  0.3812
   27MOL0     H 3711   9.365   3.969   8.722 -3.2733 -0.8935 -0.0801
   27MOL0     H 3712   9.738   4.073   8.940 -4.5411  1.4300 -1.3140
   27MOL0     H 3713   9.946   4.056   9.016 -0.0720 -1.2781 -2.9164
   27MOL0     H 3714  10.235   4.383   8.886  1.2666 -0.5101 -1.0529
   27MOL0     H 3715  10.239   4.412   9.057  1.5256  0.0461 -0.5237
   27MOL0     H 3716  10.379   4.200   9.085 -0.1393  1.8760  0.5228
   27MOL0     H 3717  10.441   4.332   8.984  1.8394 -0.6879  1.7186
   27MOL0     H 3718  10.346   4.063   8.881 -1.0728  0.3779 -2.0613
   27MOL0     H 3719  10.356   4.200   8.774  0.5383  2.5654  1.3638
   27MOL0     H 3720  10.531   4.022   8.796 -2.2644  2.0030 -4.6172
   27MOL0     H 3721  10.578   4.103   8.947 -1.2566 -2.2964  0.0515
   27MOL0     H 3722  10.717   4.372   8.642 -2.3245  0.3659 -1.0770
   27MOL0     H 3723  10.033   4.472   8.922  0.7083 -0.9107  0.7595
   27MOL0     H 3724   9.871   4.609   8.860  1.8351 -1.7850 -1.4210
   27MOL0     H 3725   9.792   4.541   8.724  3.1834  2.3677  0.2193
   27MOL0     H 3726   9.687   4.569   8.863 -0.6948 -0.3755 -1.5163
   28MOL0     O 3727   0.050   7.194   2.750  0.1190 -0.5936 -0.2379
   28MOL0     C 3728  -0.004   7.095   2.811  0.2123 -0.3373 -0.9368
   28MOL0     O 3729   0.059   7.010   2.897 -0.5692 -0.0462  0.7724
   28MOL0     C 3730   0.195   7.005   2.893 -0.6205  0.5116 -0.1501
   28MOL0     C 3731   0.268   7.007   3.011 -0.2976  0.8144 -0.4315
   28MOL0     C 3732   0.408   7.015   2.996 -0.1999  0.2861 -0.2710
   28MOL0     C 3733   0.470   6.994   2.881  0.1031 -0.1738  0.4197
   28MOL0     O 3734   0.613   6.981   2.864  0.4223 -0.3293  0.2763
   28MOL0     C 3735   0.698   6.993   2.975 -0.1303 -0.1422 -0.5994
   28MOL0     C 3736   0.844   7.025   2.929  0.1879  0.4160 -0.2339
   28MOL0     C 3737   0.898   6.930   2.826 -0.2639 -0.0667 -0.9999
   28MOL0     C 3738   1.042   6.976   2.787  0.3414 -0.2189  0.4950
   28MOL0     C 3739   1.129   6.847   2.757  0.5827 -0.4192 -0.3725
   28MOL0     C 3740   1.274   6.859   2.700  0.1275  0.9320 -0.3585
   28MOL0     C 3741   1.293   6.973   2.607 -0.2464 -0.6709 -0.1677
   28MOL0     C 3742   1.417   6.965   2.510  0.3284 -1.3521 -0.2148
   28MOL0     N 3743   1.544   6.948   2.569  0.6710  0.5796 -0.2766
   28MOL0     C 3744   1.609   7.038   2.650  0.6394  1.1249 -0.9041
   28MOL0     C 3745   1.691   6.960   2.722  0.2239 -0.1339  0.4069
   28MOL0     C 3746   1.764   6.990   2.848 -0.0761  0.6301 -0.3908
   28MOL0     C 3747   1.916   7.001   2.821  0.6249  0.4403 -0.3257
   28MOL0     C 3748   1.955   7.097   2.714 -0.8568 -0.4360 -0.3747
   28MOL0     C 3749   2.111   7.091   2.662  0.4465  0.1546  0.2215
   28MOL0     O 3750   2.153   6.960   2.636 -0.6345 -0.0035  0.2568
   28MOL0     C 3751   2.283   6.953   2.593 -0.0182 -0.3281  0.3357
   28MOL0     C 3752   2.321   6.833   2.526 -0.1362  1.0420  0.5057
   28MOL0     C 3753   2.450   6.812   2.473  0.9066 -0.2724 -0.9782
   28MOL0     C 3754   2.479   6.690   2.385  0.6670 -0.5826  0.2867
   28MOL0     C 3755   2.544   6.905   2.503  0.0781 -0.0824  0.6030
   28MOL0     C 3756   2.692   6.890   2.456  0.9169  0.0022  0.2991
   28MOL0     O 3757   2.744   6.760   2.457  0.0025 -0.3629 -0.3000
   28MOL0     C 3758   2.877   6.749   2.425  0.3975  0.4921  0.0520
   28MOL0     C 3759   2.974   6.716   2.517 -0.0957 -0.3306  0.7300
   28MOL0     C 3760   3.104   6.705   2.472  0.3336 -0.1193  0.0799
   28MOL0     C 3761   3.139   6.712   2.333 -0.5255  0.4314  0.3244
   28MOL0     O 3762   3.263   6.674   2.291 -0.2939 -0.7786 -0.2927
   28MOL0     C 3763   3.294   6.716   2.161 -0.2316 -0.3241  0.1390
   28MOL0     C 3764   3.442   6.685   2.141 -0.4535  0.1030 -0.9715
   28MOL0     C 3765   3.474   6.532   2.121  0.4413 -0.2290  0.6812
   28MOL0     C 3766   3.611   6.523   2.068  0.2012  1.3499  0.6891
   28MOL0     C 3767   3.655   6.380   2.065 -0.1551  0.4473 -0.5320
   28MOL0     C 3768   3.802   6.358   2.101 -0.5772 -0.3824  0.2569
   28MOL0     C 3769   3.914   6.409   2.015 -0.1974 -0.1444 -0.5190
   28MOL0     C 3770   3.933   6.558   2.011 -0.1323 -0.2105 -0.1199
   28MOL0    Cl 3771   4.108   6.586   1.960  0.2334 -0.2568  0.4525
   28MOL0     C 3772   3.035   6.740   2.245  0.6832  0.2091  0.2068
   28MOL0     C 3773   2.909   6.767   2.288 -0.7313  0.2433  0.8270
   28MOL0     O 3774   2.761   6.992   2.437  0.3164 -0.2860  0.6222
   28MOL0     C 3775   2.509   7.019   2.575  0.8855 -0.7564 -0.5201
   28MOL0     C 3776   2.382   7.047   2.611  0.0695  0.2612 -0.2737
   28MOL0     N 3777   1.680   6.832   2.681 -0.3231  0.2518 -0.0055
   28MOL0     N 3778   1.596   6.822   2.588  0.8484 -0.4476  0.0838
   28MOL0     C 3779   0.395   6.978   2.763  0.0206  0.1093  0.6007
   28MOL0     C 3780   0.262   6.992   2.769  0.5337 -0.2928 -0.3811
   28MOL0     C 3781  -0.146   7.068   2.792  0.5787  0.3345  0.3038
   28MOL0     C 3782  -0.179   6.935   2.749 -0.2986  0.1749 -0.2507
   28MOL0     C 3783  -0.315   6.906   2.730  0.6348  0.2000  0.4303
   28MOL0     C 3784  -0.418   7.000   2.746  0.3651 -0.0871  0.0605
   28MOL0     O 3785  -0.549   6.968   2.715 -0.1866  0.3143  0.7110
   28MOL0     C 3786  -0.641   7.070   2.684  0.3465 -0.5223  0.2826
   28MOL0     C 3787  -0.755   7.010   2.601 -0.0201  0.0981  0.2792
   28MOL0     C 3788  -0.857   7.117   2.552 -0.6254 -0.1948  0.3622
   28MOL0     C 3789  -0.776   7.244   2.485  0.5113  0.7516 -1.7036
   28MOL0     C 3790  -0.722   7.201   2.356  0.4460  0.4931  0.3843
   28MOL0     C 3791  -0.687   7.146   2.259 -0.5634  1.5875 -0.1717
   28MOL0     C 3792  -0.374   7.127   2.792  0.3292  0.1050 -0.1056
   28MOL0     C 3793  -0.242   7.164   2.804 -0.5742 -0.3724 -0.0003
   28MOL0     C 3794  -0.220   7.312   2.843 -0.4404 -1.0986  0.5988
   28MOL0     H 3795   0.215   7.014   3.105 -1.2853 -0.3544 -0.8643
   28MOL0     H 3796   0.463   7.026   3.089  0.1843 -0.2833 -0.4260
   28MOL0     H 3797   0.707   6.898   3.028 -0.1602  0.7473  1.0764
   28MOL0     H 3798   0.670   7.072   3.046  0.1265 -0.5823  0.0037
   28MOL0     H 3799   0.838   7.116   2.869 -1.2439  0.3711 -0.1768
   28MOL0     H 3800   0.907   7.051   3.015  0.1654  3.5286 -1.0133
   28MOL0     H 3801   0.911   6.830   2.869 -1.9870  1.2689  3.0572
   28MOL0     H 3802   0.822   6.928   2.747 -0.1848  0.6682 -1.0941
   28MOL0     H 3803   1.032   7.032   2.694 -0.0140  1.1358  1.3322
   28MOL0     H 3804   1.086   7.036   2.867 -1.0823  1.2677  0.1995
   28MOL0     H 3805   1.072   6.797   2.678  1.5379  0.2175 -1.5100
   28MOL0     H 3806   1.132   6.774   2.838  0.0949 -1.4554 -1.2624
   28MOL0     H 3807   1.330   6.868   2.794 -1.2913 -2.1213  0.9206
   28MOL0     H 3808   1.302   6.767   2.648 -1.6575  1.3756 -2.2178
   28MOL0     H 3809   1.310   7.051   2.682 -0.1614 -1.5007  0.7004
   28MOL0     H 3810   1.206   6.988   2.542 -0.4890  0.2178  0.3477
   28MOL0     H 3811   1.397   6.890   2.432  0.3511 -1.3701 -0.2036
   28MOL0     H 3812   1.426   7.061   2.457 -0.4247 -0.9341  0.4096
   28MOL0     H 3813   1.588   7.144   2.663 -2.8741  0.3633  0.9430
   28MOL0     H 3814   1.743   6.919   2.927 -0.6101 -0.0841 -1.1583
   28MOL0     H 3815   1.726   7.085   2.888 -1.2810  1.6942 -3.6810
   28MOL0     H 3816   1.966   7.026   2.915 -3.0205  0.4879  1.8163
   28MOL0     H 3817   1.953   6.904   2.788  2.2461  0.1145  2.1872
   28MOL0     H 3818   1.899   7.075   2.622  2.5700 -2.4068 -2.2032
   28MOL0     H 3819   1.917   7.196   2.740 -3.0420 -1.5122  0.8574
   28MOL0     H 3820   2.111   7.146   2.567 -0.1152  0.9466  0.6623
   28MOL0     H 3821   2.168   7.150   2.734 -0.6362  2.8783 -1.0018
   28MOL0     H 3822   2.244   6.757   2.517 -0.2031  1.2497 -0.8605
   28MOL0     H 3823   2.511   6.608   2.451 -2.8440  0.2810  3.3904
   28MOL0     H 3824   2.547   6.706   2.301 -1.1236  0.4485 -1.0457
   28MOL0     H 3825   2.397   6.649   2.325  0.5046  0.5127 -0.2709
   28MOL0     H 3826   2.948   6.702   2.622 -2.0538 -0.2812  0.2922
   28MOL0     H 3827   3.178   6.670   2.544  0.2741 -0.5005 -0.0373
   28MOL0     H 3828   3.235   6.662   2.087 -1.8343 -0.2214  1.3017
   28MOL0     H 3829   3.277   6.824   2.158 -1.4411 -0.5164 -0.3401
   28MOL0     H 3830   3.483   6.751   2.064  1.9447  1.4830  1.3016
   28MOL0     H 3831   3.499   6.713   2.230  1.0759  3.0499 -2.7212
   28MOL0     H 3832   3.410   6.476   2.052  3.5638  0.1359 -2.7750
   28MOL0     H 3833   3.470   6.485   2.220 -0.5364  0.7938  1.1464
   28MOL0     H 3834   3.671   6.572   2.144 -1.3927  1.4686  1.9280
   28MOL0     H 3835   3.623   6.572   1.971  1.1587  0.1729  0.1811
   28MOL0     H 3836   3.592   6.333   2.140  1.3664  1.1671  1.2970
   28MOL0     H 3837   3.643   6.340   1.964 -0.8856  1.4557 -0.8610
   28MOL0     H 3838   3.815   6.250   2.093 -0.5856 -0.4718  1.2792
   28MOL0     H 3839   3.824   6.392   2.203 -0.2773  1.9017 -0.5147
   28MOL0     H 3840   3.900   6.384   1.910 -1.7399  1.6177 -0.7865
   28MOL0     H 3841   4.013   6.374   2.047 -1.2777 -0.4740  2.9361
   28MOL0     H 3842   3.917   6.601   2.110 -3.3707 -2.4449  0.4600
   28MOL0     H 3843   3.866   6.604   1.937 -1.6714 -1.3985  0.4838
   28MOL0     H 3844   3.048   6.758   2.139 -2.6090  0.0057 -0.3220
   28MOL0     H 3845   2.838   6.815   2.222 -0.2006  0.3750  0.3480
   28MOL0     H 3846   2.590   7.089   2.595 -0.2269  0.0046  1.6284
   28MOL0     H 3847   2.376   7.137   2.672  0.6923  0.6631 -0.7842
   28MOL0     H 3848   0.440   6.953   2.667  1.2508  0.1752  1.1379
   28MOL0     H 3849   0.198   6.976   2.682 -0.2068  1.0964 -0.1207
   28MOL0     H 3850  -0.098   6.863   2.735  1.0720  1.3578  1.2179
   28MOL0     H 3851  -0.347   6.808   2.696 -0.7225  0.4590  0.8726
   28MOL0     H 3852  -0.682   7.132   2.763  0.1486 -0.3481  0.0461
   28MOL0     H 3853  -0.577   7.134   2.622 -0.5141 -1.6297 -1.8552
   28MOL0     H 3854  -0.805   6.931   2.657  0.8524  0.8965  2.2773
   28MOL0     H 3855  -0.708   6.943   2.528  0.3276 -0.4624  1.0137
   28MOL0     H 3856  -0.925   7.071   2.480 -1.1189  0.4857  0.3843
   28MOL0     H 3857  -0.907   7.137   2.647  1.6533  1.4049  1.3259
   28MOL0     H 3858  -0.707   7.296   2.552  0.0512  1.7011 -1.9445
   28MOL0     H 3859  -0.861   7.304   2.454 -1.4933 -1.3430 -0.6032
   28MOL0     H 3860  -0.666   7.092   2.169  1.6856 -2.9303  2.7114
   28MOL0     H 3861  -0.454   7.198   2.812 -0.2324 -0.2790 -0.9212
   28MOL0     H 3862  -0.151   7.359   2.773 -1.1108 -3.8191 -2.1037
   28MOL0     H 3863  -0.312   7.369   2.829  0.2292 -0.1984 -0.2490
   28MOL0     H 3864  -0.189   7.326   2.947  1.3369  0.8061 -0.1221
   29MOL0     O 3865   1.049   2.425   2.802 -0.3251 -0.0610  0.0757
   29MOL0     C 3866   0.978   2.373   2.885  0.6464 -0.5774 -0.3830
   29MOL0     O 3867   1.016   2.269   2.966  0.3523 -0.0093  0.3784
   29MOL0     C 3868   1.147   2.231   2.951 -0.2337  0.1932  0.5443
   29MOL0     C 3869   1.179   2.143   2.848 -0.0349  0.2288 -0.9074
   29MOL0     C 3870   1.311   2.089   2.836 -0.2068 -0.1791  0.9530
   29MOL0     C 3871   1.411   2.128   2.925 -0.2988  0.6593  0.2504
   29MOL0     O 3872   1.541   2.079   2.897 -0.0084 -0.9272  0.0683
   29MOL0     C 3873   1.649   2.117   2.983  0.6081 -0.5006 -0.4884
   29MOL0     C 3874   1.783   2.064   2.930 -1.1592  0.9992  0.4603
   29MOL0     C 3875   1.884   2.069   3.042  0.2518  0.0884  0.5109
   29MOL0     C 3876   2.026   2.040   2.987 -0.4240  0.1716 -0.6410
   29MOL0     C 3877   2.086   2.167   2.931 -0.3164  0.3632 -0.5824
   29MOL0     C 3878   2.234   2.139   2.894  0.0481  0.2253 -0.1583
   29MOL0     C 3879   2.304   2.267   2.859  0.1573  0.2649  0.2008
   29MOL0     C 3880   2.270   2.329   2.728 -0.0259  0.5680 -0.1242
   29MOL0     N 3881   2.317   2.254   2.611 -1.6298  0.9536 -0.2845
   29MOL0     C 3882   2.240   2.231   2.506 -0.3086 -0.2399  0.6749
   29MOL0     C 3883   2.311   2.141   2.431 -0.8799  0.2417 -0.7947
   29MOL0     C 3884   2.281   2.063   2.306  0.8772 -0.1196  0.2718
   29MOL0     C 3885   2.350   2.142   2.195 -0.3947 -0.1806 -0.4038
   29MOL0     C 3886   2.310   2.094   2.054 -0.7108  0.4720 -0.4725
   29MOL0     C 3887   2.395   2.145   1.938 -0.2672 -0.5002  0.1774
   29MOL0     O 3888   2.431   2.285   1.952 -0.3880  0.9792 -1.1879
   29MOL0     C 3889   2.471   2.343   1.840  0.3831 -0.4226 -0.0600
   29MOL0     C 3890   2.424   2.476   1.822 -0.6065  0.6095  0.4499
   29MOL0     C 3891   2.447   2.545   1.700  1.4484 -0.3105 -0.5995
   29MOL0     C 3892   2.383   2.676   1.700 -0.5880 -0.6232  0.2533
   29MOL0     C 3893   2.507   2.483   1.588 -0.0133  0.0352  0.2477
   29MOL0     C 3894   2.541   2.542   1.457 -0.3738  1.1985 -0.1968
   29MOL0     O 3895   2.457   2.632   1.402  0.3666  0.6194  0.0275
   29MOL0     C 3896   2.492   2.701   1.288  0.5099  0.7538 -0.4947
   29MOL0     C 3897   2.394   2.732   1.192 -0.0626  0.1955  0.6746
   29MOL0     C 3898   2.428   2.797   1.070 -0.7201 -1.0520  1.0087
   29MOL0     C 3899   2.555   2.839   1.045  0.0255 -1.0048 -0.6017
   29MOL0     O 3900   2.589   2.906   0.933  0.0126  0.0988  0.3675
   29MOL0     C 3901   2.699   2.839   0.867  0.0056  0.4405  0.1330
   29MOL0     C 3902   2.661   2.738   0.756  0.9835  1.2056 -0.3636
   29MOL0     C 3903   2.784   2.694   0.676  0.9646  1.0160  1.5389
   29MOL0     C 3904   2.721   2.591   0.575  0.2876 -0.5019 -0.1326
   29MOL0     C 3905   2.847   2.520   0.506  0.3727 -0.2042  0.8617
   29MOL0     C 3906   2.784   2.409   0.418  0.6372 -0.2078 -1.6674
   29MOL0     C 3907   2.904   2.334   0.358  0.1489  1.1061 -0.2142
   29MOL0     C 3908   2.971   2.395   0.233  0.6454  0.5612 -1.2016
   29MOL0    Cl 3909   3.095   2.522   0.277  0.3409  0.1122 -0.0179
   29MOL0     C 3910   2.647   2.830   1.148  0.2222  0.0331  0.6018
   29MOL0     C 3911   2.617   2.764   1.272 -1.4650 -0.0390 -0.6735
   29MOL0     O 3912   2.646   2.499   1.403  0.2160  0.1384  0.1772
   29MOL0     C 3913   2.554   2.350   1.603 -0.0604 -0.3957 -0.0619
   29MOL0     C 3914   2.525   2.284   1.726 -0.5141  1.0957  0.4818
   29MOL0     N 3915   2.428   2.104   2.503  0.4296  0.0528 -0.0471
   29MOL0     N 3916   2.437   2.187   2.605 -0.2775  0.1295  0.5226
   29MOL0     C 3917   1.376   2.215   3.024  0.7945 -0.3002 -0.1813
   29MOL0     C 3918   1.246   2.263   3.040  0.3608  0.1365 -0.5875
   29MOL0     C 3919   0.836   2.402   2.891  0.3353 -0.6479  0.4227
   29MOL0     C 3920   0.758   2.344   2.990  0.3410  0.6724 -0.2091
   29MOL0     C 3921   0.623   2.356   3.009 -0.5767  0.0696 -0.0189
   29MOL0     C 3922   0.548   2.438   2.923 -0.2817  0.3693 -0.7369
   29MOL0     O 3923   0.413   2.440   2.936  0.4156 -0.0732  0.2755
   29MOL0     C 3924   0.325   2.523   2.858 -0.3372 -0.2632  0.8915
   29MOL0     C 3925   0.295   2.471   2.723  0.1901  0.5615 -0.1395
   29MOL0     C 3926   0.195   2.361   2.729  0.0499  1.0860  0.2617
   29MOL0     C 3927   0.179   2.307   2.593 -0.1602  0.7086 -0.6951
   29MOL0     C 3928   0.082   2.210   2.573  0.4782 -0.1439  0.3970
   29MOL0     C 3929  -0.001   2.123   2.561  1.0593  0.3426 -0.0037
   29MOL0     C 3930   0.619   2.501   2.812  0.6913 -0.0196 -0.2138
   29MOL0     C 3931   0.757   2.489   2.800  0.7035  0.7584  0.7896
   29MOL0     C 3932   0.828   2.579   2.696  0.1568  0.3142 -0.8513
   29MOL0     H 3933   1.090   2.117   2.791 -1.8605  1.9623  0.9812
   29MOL0     H 3934   1.329   2.018   2.756  0.6563  0.1317  0.8616
   29MOL0     H 3935   1.630   2.085   3.086  0.1790 -1.8977 -0.9748
   29MOL0     H 3936   1.663   2.225   2.981  0.9406 -0.5472 -2.0401
   29MOL0     H 3937   1.769   1.960   2.896 -1.1998  2.5244 -5.2437
   29MOL0     H 3938   1.815   2.116   2.839 -1.2914  0.9431  0.3798
   29MOL0     H 3939   1.883   2.167   3.089 -0.9651  1.0015 -1.2561
   29MOL0     H 3940   1.869   1.991   3.117  1.0008 -1.7911 -1.1806
   29MOL0     H 3941   2.092   2.005   3.066  1.9649  0.0554 -2.5417
   29MOL0     H 3942   2.036   1.956   2.917 -2.4082 -0.2541 -0.4664
   29MOL0     H 3943   2.078   2.252   3.000 -0.9908  1.8704 -2.4044
   29MOL0     H 3944   2.029   2.211   2.849 -2.3335  0.4045  0.7778
   29MOL0     H 3945   2.292   2.088   2.971 -0.0818  2.3405  1.4415
   29MOL0     H 3946   2.238   2.065   2.814 -0.3842 -3.4726  2.9534
   29MOL0     H 3947   2.413   2.256   2.859  0.5706  3.1731 -2.1048
   29MOL0     H 3948   2.293   2.335   2.944 -0.1910  0.0153  0.3581
   29MOL0     H 3949   2.163   2.345   2.712  0.0477 -0.0456 -1.3623
   29MOL0     H 3950   2.313   2.430   2.727 -1.8286  1.4137  1.3784
   29MOL0     H 3951   2.144   2.277   2.485  0.7609  0.4802 -3.5410
   29MOL0     H 3952   2.173   2.059   2.287  0.7435 -0.0769  1.0005
   29MOL0     H 3953   2.322   1.962   2.319  0.9459 -0.4285 -1.9051
   29MOL0     H 3954   2.324   2.247   2.208  1.9647  0.1738  2.7757
   29MOL0     H 3955   2.459   2.130   2.193  0.0052  2.6743  0.5147
   29MOL0     H 3956   2.306   1.985   2.062 -1.1841  0.6014  1.6477
   29MOL0     H 3957   2.203   2.110   2.041 -0.7569  0.2999 -0.3265
   29MOL0     H 3958   2.491   2.092   1.946 -0.1012 -0.9907 -3.4317
   29MOL0     H 3959   2.346   2.115   1.845  0.3177  0.3895 -0.4314
   29MOL0     H 3960   2.366   2.521   1.901 -0.8501  1.0916  0.0041
   29MOL0     H 3961   2.354   2.710   1.800 -0.2371 -0.9024  0.4516
   29MOL0     H 3962   2.297   2.676   1.632 -1.3951  3.4342  1.0080
   29MOL0     H 3963   2.456   2.752   1.667 -0.2210 -0.4863  1.3509
   29MOL0     H 3964   2.289   2.707   1.208 -0.1511  0.2618  0.2227
   29MOL0     H 3965   2.351   2.830   1.002 -1.6546  3.2965  3.7785
   29MOL0     H 3966   2.751   2.921   0.816 -1.7492  2.3410  1.2523
   29MOL0     H 3967   2.763   2.786   0.937  0.0008 -0.6855 -0.6924
   29MOL0     H 3968   2.621   2.653   0.813 -1.0325  3.9223  2.6587
   29MOL0     H 3969   2.583   2.775   0.688 -0.5189 -1.3055 -0.1346
   29MOL0     H 3970   2.854   2.649   0.746  1.5252 -0.1513  0.2712
   29MOL0     H 3971   2.815   2.778   0.613 -1.0848  0.4216 -0.3845
   29MOL0     H 3972   2.670   2.654   0.502  1.8671  0.4590 -0.4589
   29MOL0     H 3973   2.643   2.525   0.615  1.3531 -3.2045 -2.1427
   29MOL0     H 3974   2.897   2.596   0.446 -1.6218 -0.9102 -1.8844
   29MOL0     H 3975   2.919   2.484   0.580  0.6544 -0.4113  0.4895
   29MOL0     H 3976   2.712   2.446   0.344 -2.2317 -3.3470 -0.6952
   29MOL0     H 3977   2.725   2.357   0.494  1.7868  1.7476  0.7153
   29MOL0     H 3978   2.873   2.233   0.328  3.8774 -1.1367  2.5823
   29MOL0     H 3979   2.976   2.311   0.438 -0.9885 -1.7266  0.1345
   29MOL0     H 3980   2.893   2.434   0.168  0.0239  0.4815 -0.5242
   29MOL0     H 3981   3.016   2.313   0.176 -0.9069 -3.1446  2.3557
   29MOL0     H 3982   2.728   2.900   1.135 -0.0692  0.1097 -0.9773
   29MOL0     H 3983   2.689   2.763   1.352  0.0705  2.6142 -1.8896
   29MOL0     H 3984   2.613   2.298   1.529  1.5500 -0.6634  1.3542
   29MOL0     H 3985   2.566   2.183   1.728  2.2404  2.0379 -1.6611
   29MOL0     H 3986   1.454   2.248   3.093 -0.2586  1.1477  0.3550
   29MOL0     H 3987   1.217   2.330   3.120 -0.4603 -0.4521 -0.3740
   29MOL0     H 3988   0.800   2.264   3.050 -0.1598 -0.4731 -1.3155
   29MOL0     H 3989   0.579   2.286   3.079 -0.9352 -1.9272 -2.1497
   29MOL0     H 3990   0.230   2.541   2.907  0.3066  2.3242  1.3467
   29MOL0     H 3991   0.366   2.623   2.840 -0.8610  0.1257  1.8182
   29MOL0     H 3992   0.389   2.431   2.682 -0.7749 -0.6103 -1.3159
   29MOL0     H 3993   0.253   2.552   2.664  1.2922  0.2513 -1.4037
   29MOL0     H 3994   0.219   2.283   2.802  3.1483  0.2107 -1.5347
   29MOL0     H 3995   0.107   2.419   2.760  1.1523  2.5194  0.7931
   29MOL0     H 3996   0.271   2.278   2.540 -1.3421  0.0526 -2.4973
   29MOL0     H 3997   0.137   2.382   2.524 -1.4315  1.1849  0.5588
   29MOL0     H 3998  -0.061   2.037   2.577  0.6480  0.7215  0.5193
   29MOL0     H 3999   0.556   2.552   2.740  1.6237  1.9279  0.2891
   29MOL0     H 4000   0.903   2.531   2.633  0.8886  3.7017 -2.8132
   29MOL0     H 4001   0.748   2.629   2.640 -0.8383  1.2460  1.2528
   29MOL0     H 4002   0.872   2.655   2.762  0.6620  1.9408 -2.9596
   30MOL0     O 4003   4.622  10.256  11.141 -0.3246  0.4248 -0.6602
   30MOL0     C 4004   4.606  10.150  11.198 -0.3778 -0.1312 -0.6391
   30MOL0     O 4005   4.705  10.056  11.225 -0.5593 -0.3418  0.1245
   30MOL0     C 4006   4.834  10.069  11.190  1.0186 -0.3271 -0.5151
   30MOL0     C 4007   4.931   9.994  11.266  0.3173 -0.2295  0.8886
   30MOL0     C 4008   5.062  10.015  11.245 -0.4234 -0.5788 -0.0145
   30MOL0     C 4009   5.109  10.086  11.136  0.1007 -0.1551 -0.4513
   30MOL0     O 4010   5.241  10.093  11.089  0.2887  0.6579 -0.2985
   30MOL0     C 4011   5.331  10.077  11.196  0.1844  0.0760  0.5062
   30MOL0     C 4012   5.475  10.128  11.172  0.5264 -0.3904  0.5874
   30MOL0     C 4013   5.569  10.077  11.282  0.0440 -0.7987  0.0446
   30MOL0     C 4014   5.592   9.921  11.274 -0.3058 -0.4807 -0.4314
   30MOL0     C 4015   5.679   9.881  11.394  0.1931  0.1325  0.7598
   30MOL0     C 4016   5.701   9.723  11.396 -0.4886 -0.7781  0.2749
   30MOL0     C 4017   5.716   9.661  11.537 -0.1838 -0.1197 -0.3155
   30MOL0     C 4018   5.824   9.722  11.624  0.1452  0.0020 -0.9561
   30MOL0     N 4019   5.954   9.735  11.559 -0.6983  0.4914 -0.3349
   30MOL0     C 4020   6.039   9.846  11.584  0.0034 -0.1238 -0.4995
   30MOL0     C 4021   6.165   9.792  11.575 -0.2386  0.5938  0.2538
   30MOL0     C 4022   6.300   9.856  11.596 -0.1861 -0.1506  0.1279
   30MOL0     C 4023   6.334   9.874  11.736  0.7885 -0.5767 -0.0434
   30MOL0     C 4024   6.478   9.902  11.755  0.2712  0.2671  0.0314
   30MOL0     C 4025   6.515   9.873  11.893  0.9300  0.8481 -0.1628
   30MOL0     O 4026   6.514   9.733  11.908 -0.6839 -0.0814 -0.2928
   30MOL0     C 4027   6.570   9.683  12.024  0.3327  0.0415  0.5497
   30MOL0     C 4028   6.597   9.547  12.013 -0.0183  0.5698 -0.0310
   30MOL0     C 4029   6.659   9.478  12.117 -0.2230 -0.8852 -0.2239
   30MOL0     C 4030   6.687   9.337  12.096  0.9447  0.4660 -0.2903
   30MOL0     C 4031   6.701   9.550  12.232  0.0512 -0.1136 -0.3117
   30MOL0     C 4032   6.754   9.493  12.366 -0.0334 -0.1347  0.8967
   30MOL0     O 4033   6.827   9.561  12.457  0.5322  0.1524 -0.5943
   30MOL0     C 4034   6.863   9.496  12.570  0.0115  0.0374  0.5502
   30MOL0     C 4035   6.782   9.473  12.686  0.0437 -0.7987 -0.2594
   30MOL0     C 4036   6.822   9.407  12.800  0.6942 -0.2030  0.5028
   30MOL0     C 4037   6.948   9.346  12.803 -0.2294 -0.0632  0.5622
   30MOL0     O 4038   7.013   9.264  12.891 -0.5040 -0.0847 -0.1705
   30MOL0     C 4039   6.961   9.261  13.021 -0.1916  0.2536 -0.4897
   30MOL0     C 4040   7.028   9.159  13.107  0.7368 -0.8698 -0.5718
   30MOL0     C 4041   7.001   9.017  13.048 -0.1078 -0.0457 -0.2465
   30MOL0     C 4042   7.021   8.908  13.152 -0.4826 -0.3967  0.5087
   30MOL0     C 4043   7.174   8.877  13.163  0.0559 -0.3139  1.2322
   30MOL0     C 4044   7.210   8.805  13.286 -0.1442  0.6734  0.0549
   30MOL0     C 4045   7.180   8.878  13.416  0.0105 -0.3780  0.1023
   30MOL0     C 4046   7.260   8.814  13.524 -0.1793  0.1815  0.4899
   30MOL0    Cl 4047   7.172   8.679  13.608 -0.1459 -0.0289  0.0606
   30MOL0     C 4048   7.022   9.355  12.684 -0.1146 -0.1302  0.7865
   30MOL0     C 4049   6.986   9.433  12.572 -0.8176 -0.5569 -1.1155
   30MOL0     O 4050   6.715   9.379  12.380 -0.1082 -0.0172  0.1420
   30MOL0     C 4051   6.685   9.692  12.237  0.1958 -0.5039 -0.1258
   30MOL0     C 4052   6.622   9.753  12.129 -0.4648  0.5517 -0.0741
   30MOL0     N 4053   6.151   9.658  11.531 -0.2210  0.8302 -0.3439
   30MOL0     N 4054   6.024   9.621  11.544 -1.0392 -0.4495  0.4671
   30MOL0     C 4055   5.014  10.148  11.050  0.1050  0.4268  0.2353
   30MOL0     C 4056   4.886  10.153  11.087  1.3148  0.5802  0.1104
   30MOL0     C 4057   4.467  10.125  11.238  0.1317 -0.6238  0.3556
   30MOL0     C 4058   4.432   9.991  11.231 -0.1430  0.2311  0.4406
   30MOL0     C 4059   4.301   9.952  11.266 -1.0659  0.2390 -0.4539
   30MOL0     C 4060   4.207  10.042  11.306  0.3018  0.0515  0.4518
   30MOL0     O 4061   4.075  10.009  11.322  0.1290 -0.3745 -1.0280
   30MOL0     C 4062   4.035   9.872  11.279 -0.4008 -0.0873 -0.0477
   30MOL0     C 4063   3.895   9.851  11.315 -0.1219  0.4814  0.4970
   30MOL0     C 4064   3.822   9.719  11.277 -0.1343 -0.2645 -0.4355
   30MOL0     C 4065   3.673   9.730  11.316  0.3839 -0.3438 -0.1611
   30MOL0     C 4066   3.602   9.602  11.283 -0.1744 -0.3700  0.3249
   30MOL0     C 4067   3.547   9.497  11.245  0.0371  0.6197 -0.7345
   30MOL0     C 4068   4.246  10.169  11.329  0.1160 -0.0618 -0.9523
   30MOL0     C 4069   4.372  10.214  11.288 -0.4560  0.2566  0.6618
   30MOL0     C 4070   4.420  10.351  11.314  0.0598 -0.5420 -0.4716
   30MOL0     H 4071   4.906   9.926  11.347  0.5479 -0.5841  0.6618
   30MOL0     H 4072   5.128   9.966  11.315  2.1016  0.0820 -1.8130
   30MOL0     H 4073   5.326   9.968  11.207 -0.6389  0.0877  0.2686
   30MOL0     H 4074   5.301  10.124  11.291  2.9064  1.6975  0.6712
   30MOL0     H 4075   5.511  10.089  11.076  0.3088 -1.2734  0.8591
   30MOL0     H 4076   5.475  10.237  11.166 -0.6241 -0.4329 -0.9945
   30MOL0     H 4077   5.664  10.125  11.257 -1.4020  1.4718 -1.4626
   30MOL0     H 4078   5.527  10.107  11.379 -0.6473  0.8281 -0.7213
   30MOL0     H 4079   5.496   9.869  11.283 -1.4083  1.3567 -1.0910
   30MOL0     H 4080   5.635   9.893  11.178 -1.0523 -1.3921 -0.5185
   30MOL0     H 4081   5.620   9.919  11.478  2.3791  2.3038  1.4519
   30MOL0     H 4082   5.771   9.941  11.395 -0.9160  1.9949 -1.4239
   30MOL0     H 4083   5.604   9.683  11.365 -2.2156  2.6219  0.7641
   30MOL0     H 4084   5.787   9.690  11.336  1.0602  1.6746  0.9852
   30MOL0     H 4085   5.746   9.557  11.519  1.5972  0.5613 -1.5653
   30MOL0     H 4086   5.617   9.651  11.582 -0.2146 -2.0464 -0.7331
   30MOL0     H 4087   5.784   9.818  11.658 -0.2149  0.0540 -1.5099
   30MOL0     H 4088   5.853   9.651  11.702 -0.0642  1.3557  0.3849
   30MOL0     H 4089   6.016   9.948  11.610  0.1654 -0.3852  0.7115
   30MOL0     H 4090   6.303   9.957  11.555 -0.5161  0.1833  0.9137
   30MOL0     H 4091   6.377   9.802  11.540  0.7212  2.3876 -1.2439
   30MOL0     H 4092   6.284   9.959  11.782 -0.4432 -1.4256  0.2358
   30MOL0     H 4093   6.281   9.797  11.793  0.8201  1.6124  3.2119
   30MOL0     H 4094   6.546   9.843  11.693  2.8242  2.3702  0.6393
   30MOL0     H 4095   6.507  10.007  11.745  1.6618  0.2026  2.5781
   30MOL0     H 4096   6.616   9.913  11.906  2.1525 -1.3095 -2.2887
   30MOL0     H 4097   6.443   9.916  11.963 -0.2878 -1.1324 -0.1369
   30MOL0     H 4098   6.566   9.491  11.926  0.9920  0.0193 -0.0463
   30MOL0     H 4099   6.785   9.303  12.131 -0.0387 -4.2979 -1.4674
   30MOL0     H 4100   6.668   9.300  11.995  1.5030 -2.9703  0.7566
   30MOL0     H 4101   6.617   9.284  12.161 -0.8553  1.5772 -1.2542
   30MOL0     H 4102   6.679   9.503  12.703  0.2802 -1.0878  2.0185
   30MOL0     H 4103   6.754   9.408  12.884  1.1406 -0.3023  0.8728
   30MOL0     H 4104   6.985   9.357  13.067 -0.9165  0.1272  0.1818
   30MOL0     H 4105   6.854   9.236  13.016  0.0789 -0.9366 -0.4728
   30MOL0     H 4106   7.133   9.188  13.104  1.1466 -1.5512  2.8172
   30MOL0     H 4107   6.985   9.171  13.207  0.6322  0.7813 -0.7950
   30MOL0     H 4108   7.061   8.997  12.959  1.2550 -1.0024  0.8385
   30MOL0     H 4109   6.897   9.015  13.013 -1.4837  2.1944  3.1298
   30MOL0     H 4110   6.976   8.811  13.128  0.1828 -0.7792  0.7592
   30MOL0     H 4111   6.990   8.954  13.246  2.1985 -0.3849  1.4743
   30MOL0     H 4112   7.214   8.826  13.075  0.7917  0.3836  1.1452
   30MOL0     H 4113   7.218   8.976  13.179 -2.1665  0.5153  2.6092
   30MOL0     H 4114   7.318   8.787  13.284 -0.1160  0.7403  0.7780
   30MOL0     H 4115   7.157   8.710  13.278 -0.1738  0.6313  0.7429
   30MOL0     H 4116   7.077   8.878  13.453  0.1778 -1.6949  0.6179
   30MOL0     H 4117   7.207   8.985  13.415  1.2993 -0.6739 -1.6494
   30MOL0     H 4118   7.306   8.888  13.590 -0.4726 -1.5295  2.7215
   30MOL0     H 4119   7.352   8.769  13.487  2.0591  2.6626  2.6799
   30MOL0     H 4120   7.109   9.294  12.664 -0.9420 -0.1205 -4.1060
   30MOL0     H 4121   7.059   9.429  12.491  1.9184 -2.0436  1.2307
   30MOL0     H 4122   6.724   9.751  12.319 -1.2125 -1.2095  1.0895
   30MOL0     H 4123   6.611   9.860  12.140  2.1160  0.5756  6.0155
   30MOL0     H 4124   5.047  10.186  10.955  2.2498  0.5359  0.9748
   30MOL0     H 4125   4.810  10.207  11.031 -0.3591 -1.4795  0.2611
   30MOL0     H 4126   4.500   9.916  11.193 -3.6248 -2.3005 -1.4381
   30MOL0     H 4127   4.282   9.845  11.265 -2.3725  0.4505  0.1700
   30MOL0     H 4128   4.052   9.853  11.172 -1.3721  1.1290 -0.4431
   30MOL0     H 4129   4.095   9.805  11.341  0.5000  0.8483  0.1166
   30MOL0     H 4130   3.832   9.930  11.271  0.8131  0.3113 -1.2264
   30MOL0     H 4131   3.881   9.864  11.423 -1.9980  2.2852  0.1224
   30MOL0     H 4132   3.834   9.713  11.168  0.9141 -1.5469 -0.2719
   30MOL0     H 4133   3.874   9.634  11.321 -0.8202 -0.1818  0.5630
   30MOL0     H 4134   3.617   9.808  11.264  0.8662 -0.1394 -0.3888
   30MOL0     H 4135   3.658   9.746  11.423 -0.5748  0.0530 -0.3522
   30MOL0     H 4136   3.488   9.415  11.211 -0.2074 -0.3921  1.9100
   30MOL0     H 4137   4.184  10.241  11.381  2.5373  0.7005  1.0781
   30MOL0     H 4138   4.522  10.367  11.349 -0.3018 -0.6970  0.6799
   30MOL0     H 4139   4.395  10.415  11.229 -1.2480 -0.0159  0.2740
   30MOL0     H 4140   4.368  10.377  11.407 -0.4839 -1.0217 -0.6320
   31MOL0     O 4141   1.257   5.554   3.738  0.3977 -0.6986 -0.3117
   31MOL0     C 4142   1.279   5.429   3.730 -0.9888 -0.4842 -0.9083
   31MOL0     O 4143   1.232   5.336   3.817  0.2756  0.1177  0.0947
   31MOL0     C 4144   1.141   5.378   3.914 -0.0158  0.4274  0.6475
   31MOL0     C 4145   1.174   5.468   4.015 -0.3981 -0.1199 -0.0814
   31MOL0     C 4146   1.084   5.506   4.118  0.3981 -0.1867  1.0353
   31MOL0     C 4147   0.953   5.448   4.121 -0.3623 -0.4649  0.4720
   31MOL0     O 4148   0.859   5.463   4.221  1.1050  0.2042 -0.0601
   31MOL0     C 4149   0.888   5.536   4.335 -0.6004  0.0256 -0.3194
   31MOL0     C 4150   0.800   5.460   4.435  0.0408  0.2818  0.2869
   31MOL0     C 4151   0.833   5.517   4.566 -0.1754 -0.4119 -0.3332
   31MOL0     C 4152   0.744   5.441   4.670 -0.2686 -0.0103 -0.0602
   31MOL0     C 4153   0.765   5.491   4.816 -0.2873  0.3664 -0.3117
   31MOL0     C 4154   0.711   5.639   4.833 -0.4690  0.0720  0.2359
   31MOL0     C 4155   0.748   5.704   4.964  1.5556 -0.0099  0.9668
   31MOL0     C 4156   0.650   5.660   5.077  0.1238 -0.5606  0.3165
   31MOL0     N 4157   0.524   5.735   5.079  0.4326 -0.7457  0.5650
   31MOL0     C 4158   0.431   5.759   4.984  0.0137  0.6911  0.6303
   31MOL0     C 4159   0.331   5.834   5.045 -0.1547  0.3012 -0.4763
   31MOL0     C 4160   0.218   5.915   4.983  0.6195  0.4748 -0.1061
   31MOL0     C 4161   0.250   5.987   4.863 -1.1314  0.6688  0.7057
   31MOL0     C 4162   0.138   6.055   4.792  0.1871 -0.7746  0.5415
   31MOL0     C 4163   0.163   6.094   4.646 -0.3082 -0.2667 -0.1261
   31MOL0     O 4164   0.282   6.174   4.628  0.3857 -0.0203  0.4400
   31MOL0     C 4165   0.307   6.196   4.486 -0.1648 -0.1208  0.5222
   31MOL0     C 4166   0.272   6.126   4.375  0.1128 -0.3025 -0.0048
   31MOL0     C 4167   0.297   6.174   4.243 -0.6021  0.0365 -0.3231
   31MOL0     C 4168   0.213   6.123   4.139  0.1472 -0.1070 -0.4881
   31MOL0     C 4169   0.386   6.285   4.228 -0.5086 -0.1758 -0.1466
   31MOL0     C 4170   0.436   6.354   4.092 -0.6688 -0.1736 -0.7203
   31MOL0     O 4171   0.546   6.439   4.102 -0.0478 -0.4442 -1.3843
   31MOL0     C 4172   0.624   6.476   3.997 -0.3409  0.3515 -0.5568
   31MOL0     C 4173   0.588   6.513   3.866  0.6999  0.5587  0.1154
   31MOL0     C 4174   0.681   6.565   3.777  0.4577 -0.5035 -0.0237
   31MOL0     C 4175   0.811   6.575   3.813  0.3780 -0.4620  1.0650
   31MOL0     O 4176   0.899   6.617   3.718  0.2644  0.6043 -0.0158
   31MOL0     C 4177   0.949   6.744   3.734  0.0813  0.1640  0.2607
   31MOL0     C 4178   1.079   6.742   3.813 -0.1262 -0.4133  0.6724
   31MOL0     C 4179   1.149   6.879   3.778  0.1403 -0.5940 -0.2305
   31MOL0     C 4180   1.280   6.858   3.704  0.5436 -0.1716  0.1026
   31MOL0     C 4181   1.344   6.995   3.654 -0.0065 -0.2065 -0.3405
   31MOL0     C 4182   1.484   6.978   3.588  0.3526 -0.1821  0.3226
   31MOL0     C 4183   1.569   7.103   3.560 -0.1284 -0.0425 -0.0056
   31MOL0     C 4184   1.685   7.062   3.478  0.0348 -0.4218  0.1274
   31MOL0    Cl 4185   1.755   7.209   3.420 -0.2156 -0.3490  0.0848
   31MOL0     C 4186   0.858   6.526   3.927  0.0881  0.3064 -0.2994
   31MOL0     C 4187   0.761   6.481   4.022  0.0184  0.9375 -0.8386
   31MOL0     O 4188   0.381   6.317   3.985 -0.1718 -0.5419  0.6221
   31MOL0     C 4189   0.431   6.351   4.344 -0.4117 -0.8217  0.4039
   31MOL0     C 4190   0.388   6.316   4.471  0.0114  0.2132  0.5477
   31MOL0     N 4191   0.366   5.853   5.177  0.6988  0.1582  0.4182
   31MOL0     N 4192   0.479   5.791   5.198  0.3544 -0.1225 -1.0490
   31MOL0     C 4193   0.926   5.357   4.021 -0.6212  0.8476  0.1119
   31MOL0     C 4194   1.014   5.332   3.918 -0.1091  0.4170  0.5102
   31MOL0     C 4195   1.377   5.379   3.624 -0.1193  0.4944 -0.9333
   31MOL0     C 4196   1.398   5.240   3.616 -0.0512 -0.4400 -0.1697
   31MOL0     C 4197   1.489   5.185   3.526 -0.2662  1.3946 -0.1880
   31MOL0     C 4198   1.561   5.266   3.442 -0.0777 -0.1406 -0.0972
   31MOL0     O 4199   1.649   5.208   3.359 -0.2044 -0.5435 -0.3607
   31MOL0     C 4200   1.770   5.158   3.415 -0.0370 -0.1543  0.6423
   31MOL0     C 4201   1.843   5.054   3.332  0.2412  0.4215  0.2067
   31MOL0     C 4202   1.986   5.046   3.390 -0.5066  0.2859  0.2093
   31MOL0     C 4203   2.052   4.913   3.328 -0.0159 -0.5330  0.3621
   31MOL0     C 4204   2.096   4.917   3.185  0.8845 -0.1523  0.0218
   31MOL0     C 4205   2.124   4.915   3.069  0.1493 -0.5142 -0.0881
   31MOL0     C 4206   1.537   5.405   3.440 -0.1124  0.6318  0.7033
   31MOL0     C 4207   1.441   5.458   3.520  0.7127 -0.7844 -0.1017
   31MOL0     C 4208   1.403   5.601   3.481 -0.5031  0.2463 -0.1647
   31MOL0     H 4209   1.275   5.508   4.018 -0.5846  0.2917  1.0049
   31MOL0     H 4210   1.128   5.574   4.190  3.6268 -1.0540  0.0503
   31MOL0     H 4211   0.870   5.642   4.316  2.8068  0.6527 -0.5300
   31MOL0     H 4212   0.992   5.531   4.367 -1.0696  0.7549  1.4599
   31MOL0     H 4213   0.697   5.483   4.405  0.1236  1.0409  0.5534
   31MOL0     H 4214   0.819   5.353   4.434  0.6657  0.3283  2.2853
   31MOL0     H 4215   0.939   5.512   4.590 -0.1591  2.9326  0.8077
   31MOL0     H 4216   0.802   5.622   4.562  2.0841  0.4026  1.5781
   31MOL0     H 4217   0.638   5.441   4.644  0.0550  0.3721 -1.4878
   31MOL0     H 4218   0.792   5.343   4.661  1.7271  1.0398 -1.9600
   31MOL0     H 4219   0.867   5.475   4.853 -0.8936 -1.9435  0.5269
   31MOL0     H 4220   0.711   5.431   4.890  0.3892  1.0333  0.7447
   31MOL0     H 4221   0.775   5.687   4.758  1.8333 -1.0361  1.4018
   31MOL0     H 4222   0.607   5.662   4.806 -0.5913  0.7277  1.2208
   31MOL0     H 4223   0.730   5.810   4.946 -3.3163 -0.6549  0.5408
   31MOL0     H 4224   0.853   5.680   4.982  1.3383 -0.2669  1.9660
   31MOL0     H 4225   0.635   5.553   5.061 -1.0571 -0.6010  1.4632
   31MOL0     H 4226   0.700   5.675   5.174  0.2519 -0.7600  0.2813
   31MOL0     H 4227   0.428   5.740   4.877 -2.8456  0.2211  0.7231
   31MOL0     H 4228   0.186   5.988   5.057  1.4530  1.4794 -0.7094
   31MOL0     H 4229   0.145   5.834   4.974  1.8482 -1.0521  2.4779
   31MOL0     H 4230   0.326   6.066   4.871 -0.8282  1.1011 -3.8435
   31MOL0     H 4231   0.280   5.911   4.790  0.9206  0.1998  1.9702
   31MOL0     H 4232   0.052   5.987   4.795  0.1632 -0.7362  3.2498
   31MOL0     H 4233   0.120   6.148   4.848  0.3411 -0.3776 -0.0661
   31MOL0     H 4234   0.175   5.999   4.592  2.4043 -1.9390  3.0311
   31MOL0     H 4235   0.075   6.151   4.615 -0.2639  1.3096  2.3704
   31MOL0     H 4236   0.219   6.031   4.378  1.6686 -1.3831 -2.9328
   31MOL0     H 4237   0.179   6.210   4.082 -1.7432  0.9345  2.0575
   31MOL0     H 4238   0.130   6.065   4.181  0.3515 -0.4721 -0.5827
   31MOL0     H 4239   0.269   6.053   4.076  0.2535 -1.6953  1.2800
   31MOL0     H 4240   0.486   6.511   3.829  1.6547  0.9709 -2.8023
   31MOL0     H 4241   0.643   6.594   3.679  0.9169 -0.7418 -0.2761
   31MOL0     H 4242   0.983   6.773   3.634  2.9965  0.0143  1.1176
   31MOL0     H 4243   0.872   6.813   3.770  3.0865  2.0738  3.7784
   31MOL0     H 4244   1.050   6.738   3.918 -1.6441  1.6258  0.3937
   31MOL0     H 4245   1.141   6.655   3.791 -0.3225 -0.8273  1.7516
   31MOL0     H 4246   1.165   6.932   3.872 -1.6165  2.8709 -1.6994
   31MOL0     H 4247   1.089   6.943   3.712  0.4810 -0.6307 -0.5828
   31MOL0     H 4248   1.260   6.795   3.617 -2.3283 -1.8035  1.7761
   31MOL0     H 4249   1.355   6.802   3.760 -0.7247 -3.0174 -0.8631
   31MOL0     H 4250   1.269   7.044   3.591 -0.9612  0.4838  1.2484
   31MOL0     H 4251   1.353   7.052   3.748 -1.7551 -0.5616  0.0776
   31MOL0     H 4252   1.470   6.923   3.494  2.6094 -1.5092  0.6741
   31MOL0     H 4253   1.544   6.901   3.639 -1.8809 -1.3823  1.2670
   31MOL0     H 4254   1.603   7.146   3.655  1.1928  0.9543 -0.8806
   31MOL0     H 4255   1.508   7.172   3.501  0.4753  1.2319  0.8102
   31MOL0     H 4256   1.648   7.015   3.387  0.6741  0.8680 -0.8296
   31MOL0     H 4257   1.752   7.001   3.539  2.1173  1.0504 -0.5675
   31MOL0     H 4258   0.960   6.527   3.963 -0.7743 -0.9558  2.4593
   31MOL0     H 4259   0.799   6.466   4.122 -2.2151  1.6338  0.1605
   31MOL0     H 4260   0.500   6.434   4.342 -2.1609  0.7033 -2.0905
   31MOL0     H 4261   0.421   6.381   4.551 -1.4031  4.3220 -1.8863
   31MOL0     H 4262   0.829   5.309   4.019 -1.0844  1.7612 -0.3836
   31MOL0     H 4263   0.989   5.255   3.845  1.5724  0.0554  0.2728
   31MOL0     H 4264   1.346   5.173   3.683 -0.1812 -1.3070 -1.1194
   31MOL0     H 4265   1.497   5.077   3.523  0.6682  1.4712 -2.5757
   31MOL0     H 4266   1.831   5.243   3.449  0.2708 -0.8440  1.8290
   31MOL0     H 4267   1.748   5.117   3.513 -3.0239  0.3353  0.2706
   31MOL0     H 4268   1.844   5.075   3.225 -4.6991  0.6242 -0.0390
   31MOL0     H 4269   1.796   4.956   3.345  0.7135  0.1426 -0.1643
   31MOL0     H 4270   2.050   5.133   3.376  1.8101 -1.0816  1.7111
   31MOL0     H 4271   1.978   5.034   3.498 -3.4724  1.7245  0.2596
   31MOL0     H 4272   1.995   4.820   3.340  2.3553 -2.6584 -2.9712
   31MOL0     H 4273   2.147   4.913   3.381  0.0863 -3.0143  0.2964
   31MOL0     H 4274   2.149   4.921   2.965 -0.5622 -1.6399 -0.3362
   31MOL0     H 4275   1.589   5.471   3.372  0.9184 -1.3597 -0.5539
   31MOL0     H 4276   1.411   5.660   3.572 -0.4938 -0.8430  0.5694
   31MOL0     H 4277   1.477   5.640   3.411  1.0286  2.2560  2.3904
   31MOL0     H 4278   1.304   5.605   3.434 -0.4358  4.0384 -0.2856
   32MOL0     O 4279   1.842  11.254  10.783  0.2554  0.3602 -0.1995
   32MOL0     C 4280   1.792  11.150  10.829  0.2048  0.4175  0.3621
   32MOL0     O 4281   1.856  11.025  10.837  0.1318  0.1309 -0.0053
   32MOL0     C 4282   1.988  11.038  10.807  0.4353 -0.2330  0.7887
   32MOL0     C 4283   2.033  11.067  10.681 -0.0010  0.3428  0.2348
   32MOL0     C 4284   2.173  11.064  10.654 -0.0293  0.7249  0.1425
   32MOL0     C 4285   2.266  11.028  10.755  0.3320  1.0204  0.3545
   32MOL0     O 4286   2.403  11.036  10.729 -0.0031 -0.2310 -0.4181
   32MOL0     C 4287   2.459  11.168  10.757  0.0557  0.5710  0.3020
   32MOL0     C 4288   2.602  11.184  10.718 -0.9738 -0.3863  0.2219
   32MOL0     C 4289   2.695  11.099  10.805  0.1408 -0.6115 -0.4612
   32MOL0     C 4290   2.837  11.081  10.766 -0.2740 -0.3135 -0.0163
   32MOL0     C 4291   2.895  10.964  10.849 -0.0397  0.0753  0.1537
   32MOL0     C 4292   3.036  10.930  10.821 -0.5279 -0.7185  1.1727
   32MOL0     C 4293   3.075  10.785  10.870 -0.5970 -0.3669 -0.6524
   32MOL0     C 4294   3.213  10.751  10.802  0.5803  0.7277  0.2862
   32MOL0     N 4295   3.325  10.839  10.841  0.8103 -0.1437 -0.3622
   32MOL0     C 4296   3.410  10.840  10.955 -0.3460  0.4611  0.3512
   32MOL0     C 4297   3.489  10.950  10.931  0.6047 -0.6227 -0.4906
   32MOL0     C 4298   3.585  11.018  11.035  0.1296 -0.0426 -0.8205
   32MOL0     C 4299   3.727  10.967  11.010  0.4631 -0.1093 -0.2480
   32MOL0     C 4300   3.842  11.003  11.114 -0.0931  0.5976  0.1695
   32MOL0     C 4301   3.850  10.916  11.239  0.4989  0.3973  0.3213
   32MOL0     O 4302   3.981  10.883  11.274 -0.2189 -0.0081 -0.0638
   32MOL0     C 4303   4.073  10.972  11.314  1.0527 -0.1202 -0.5387
   32MOL0     C 4304   4.055  11.097  11.372 -0.3207 -0.3330  0.1323
   32MOL0     C 4305   4.157  11.196  11.389 -0.3237 -0.1383 -0.0077
   32MOL0     C 4306   4.113  11.326  11.448  0.0675 -0.7287  0.0279
   32MOL0     C 4307   4.298  11.154  11.368 -0.2300  0.0630  0.4890
   32MOL0     C 4308   4.417  11.229  11.405 -0.6839 -0.1445  0.8386
   32MOL0     O 4309   4.539  11.164  11.397 -0.2729 -0.0350 -0.1330
   32MOL0     C 4310   4.643  11.224  11.457 -0.3545  0.3336 -0.5810
   32MOL0     C 4311   4.686  11.187  11.585 -0.0959 -0.2694  0.3191
   32MOL0     C 4312   4.816  11.235  11.629 -1.0301 -0.1740  1.5479
   32MOL0     C 4313   4.895  11.310  11.555 -0.4349 -0.3410 -0.1682
   32MOL0     O 4314   5.019  11.347  11.594  0.1385  1.0653 -0.1663
   32MOL0     C 4315   5.087  11.306  11.719  0.2308  0.0233 -0.2559
   32MOL0     C 4316   5.229  11.351  11.699 -0.4757  0.4984  0.3091
   32MOL0     C 4317   5.311  11.313  11.827  0.0160 -0.3567  0.2071
   32MOL0     C 4318   5.447  11.378  11.812  0.2703  0.2621  0.6006
   32MOL0     C 4319   5.538  11.379  11.936  0.0206 -1.4101 -0.6098
   32MOL0     C 4320   5.574  11.233  11.976 -0.2270  1.2460 -0.1381
   32MOL0     C 4321   5.689  11.225  12.078  0.5628  0.4937 -0.1026
   32MOL0     C 4322   5.665  11.300  12.221 -0.9300  0.0415 -0.1446
   32MOL0    Cl 4323   5.511  11.239  12.300  0.1767  0.2060 -0.1987
   32MOL0     C 4324   4.851  11.355  11.436 -0.5327 -0.1736 -0.6633
   32MOL0     C 4325   4.722  11.323  11.386  0.1418  0.0405  0.9736
   32MOL0     O 4326   4.394  11.336  11.453 -0.4592  0.8334 -0.1835
   32MOL0     C 4327   4.310  11.017  11.324  0.2109 -0.9578 -0.1059
   32MOL0     C 4328   4.206  10.934  11.296  0.3198  0.5701 -0.2008
   32MOL0     N 4329   3.467  11.002  10.812  0.3451  0.5569  0.1854
   32MOL0     N 4330   3.371  10.928  10.754 -0.0542  0.0889 -0.2580
   32MOL0     C 4331   2.219  10.999  10.879  0.3524 -0.1021 -0.4018
   32MOL0     C 4332   2.084  11.012  10.905 -0.1657 -0.1719 -0.1673
   32MOL0     C 4333   1.649  11.147  10.875  0.1579 -0.5377  1.0214
   32MOL0     C 4334   1.580  11.269  10.883  0.0759 -0.4640  0.1152
   32MOL0     C 4335   1.438  11.270  10.901  0.0313 -0.2427 -0.8081
   32MOL0     C 4336   1.364  11.155  10.920 -0.5173 -0.8743  0.1748
   32MOL0     O 4337   1.223  11.165  10.939  0.2377 -0.8441  0.3644
   32MOL0     C 4338   1.142  11.045  10.956  0.1776 -0.2182  0.7142
   32MOL0     C 4339   0.994  11.079  10.945  0.5094 -0.6364  0.7697
   32MOL0     C 4340   0.966  11.127  10.804  0.3075 -0.5493  0.0114
   32MOL0     C 4341   0.825  11.191  10.771 -0.4841  0.1071 -0.0372
   32MOL0     C 4342   0.848  11.337  10.753  0.1085 -0.3008  0.4458
   32MOL0     C 4343   0.852  11.452  10.708  0.8476 -0.0671 -0.2337
   32MOL0     C 4344   1.442  11.036  10.929  0.5037 -0.5117 -0.6623
   32MOL0     C 4345   1.574  11.026  10.897  0.0860 -0.1895 -0.5256
   32MOL0     C 4346   1.625  10.882  10.904 -0.0998  0.1988  0.0387
   32MOL0     H 4347   1.961  11.088  10.603 -1.7207 -1.2225  1.3112
   32MOL0     H 4348   2.224  11.077  10.559  0.5560  0.4701  0.4202
   32MOL0     H 4349   2.438  11.186  10.863 -2.1047  0.1731 -0.0113
   32MOL0     H 4350   2.397  11.250  10.718 -1.4013 -0.2303  0.8473
   32MOL0     H 4351   2.606  11.153  10.614  0.1526  2.9296 -0.8546
   32MOL0     H 4352   2.634  11.289  10.720  0.1258 -0.6488 -1.4322
   32MOL0     H 4353   2.694  11.145  10.904  0.7718  0.7080 -1.0364
   32MOL0     H 4354   2.652  10.999  10.811 -1.9373  0.2981  1.2930
   32MOL0     H 4355   2.833  11.049  10.661  0.0017  1.3753 -0.5817
   32MOL0     H 4356   2.888  11.178  10.767 -0.0943 -0.3817 -1.2125
   32MOL0     H 4357   2.830  10.877  10.832 -0.0994  0.0086  0.7175
   32MOL0     H 4358   2.891  10.985  10.956 -0.6317  0.7255  0.0128
   32MOL0     H 4359   3.049  10.916  10.713  0.4718 -2.1965  1.4654
   32MOL0     H 4360   3.098  11.014  10.852 -2.3718  1.6368 -1.0767
   32MOL0     H 4361   2.998  10.711  10.845  0.9182 -1.3557 -2.6098
   32MOL0     H 4362   3.093  10.768  10.977 -0.3111  0.9956 -0.4615
   32MOL0     H 4363   3.242  10.651  10.837 -0.6019  0.4504  0.4931
   32MOL0     H 4364   3.199  10.758  10.694 -2.4064  1.6660  0.6561
   32MOL0     H 4365   3.405  10.780  11.045  0.0171  0.5220  0.4142
   32MOL0     H 4366   3.550  11.004  11.137 -1.5417  3.4701 -0.7541
   32MOL0     H 4367   3.593  11.126  11.020  2.6597 -0.4299 -3.0384
   32MOL0     H 4368   3.733  10.859  11.000 -1.5576 -0.7111  3.2954
   32MOL0     H 4369   3.761  11.013  10.917  2.0195 -0.4634  0.1207
   32MOL0     H 4370   3.938  10.998  11.061 -0.6708 -1.0151 -0.7969
   32MOL0     H 4371   3.830  11.105  11.151 -1.1839  0.3477  0.5562
   32MOL0     H 4372   3.790  10.958  11.320 -1.8751 -1.0672 -0.5708
   32MOL0     H 4373   3.807  10.817  11.223 -1.0354  0.8820  1.2937
   32MOL0     H 4374   3.951  11.123  11.390 -0.1125  0.5757  0.0340
   32MOL0     H 4375   4.006  11.338  11.427  0.4097 -1.2074 -2.2738
   32MOL0     H 4376   4.160  11.414  11.403  0.1403 -0.0652  1.3544
   32MOL0     H 4377   4.131  11.317  11.556 -0.3290  0.7648  0.2418
   32MOL0     H 4378   4.629  11.130  11.658 -2.5703 -0.0024 -1.2766
   32MOL0     H 4379   4.835  11.209  11.733  1.9770  1.4693  1.5229
   32MOL0     H 4380   5.046  11.342  11.814 -0.6645 -2.0853  0.2249
   32MOL0     H 4381   5.085  11.198  11.734  2.9962  0.1307  1.5812
   32MOL0     H 4382   5.273  11.308  11.609 -2.0907  0.5739 -0.5501
   32MOL0     H 4383   5.220  11.460  11.710  0.1794  0.6942 -0.8964
   32MOL0     H 4384   5.323  11.204  11.826  1.3731 -0.2730 -2.5431
   32MOL0     H 4385   5.268  11.348  11.922 -1.1870 -1.8779  0.2784
   32MOL0     H 4386   5.429  11.482  11.787 -2.1904 -0.9138 -3.4952
   32MOL0     H 4387   5.501  11.337  11.726 -0.1925 -0.5676  0.6887
   32MOL0     H 4388   5.619  11.445  11.905 -1.5491  2.6896  3.0125
   32MOL0     H 4389   5.501  11.430  12.025 -1.6131 -1.5618 -1.1529
   32MOL0     H 4390   5.589  11.172  11.887 -2.3614  3.0752 -1.8844
   32MOL0     H 4391   5.488  11.188  12.026 -0.2169  3.4781  2.1355
   32MOL0     H 4392   5.777  11.268  12.029 -0.0797 -0.1980 -1.9591
   32MOL0     H 4393   5.719  11.122  12.099  2.6701  1.4342  1.9227
   32MOL0     H 4394   5.648  11.408  12.208 -2.1214 -0.0468  0.5541
   32MOL0     H 4395   5.752  11.292  12.287  1.0727  0.0051 -2.6342
   32MOL0     H 4396   4.923  11.409  11.375  0.0629 -1.6992 -1.3560
   32MOL0     H 4397   4.691  11.363  11.290 -1.6756  0.1715  1.5814
   32MOL0     H 4398   4.405  10.982  11.284  0.7020  2.4523 -2.4158
   32MOL0     H 4399   4.239  10.838  11.256  1.3749  1.6241 -1.9888
   32MOL0     H 4400   2.286  10.984  10.963 -1.4771  0.6050  1.2773
   32MOL0     H 4401   2.051  10.998  11.007  0.0126 -3.1160 -0.4209
   32MOL0     H 4402   1.636  11.358  10.858 -0.4349 -0.0472  0.4332
   32MOL0     H 4403   1.393  11.368  10.909 -0.5860 -0.4199 -1.9006
   32MOL0     H 4404   1.170  10.962  10.891  2.4860 -0.0415  1.4088
   32MOL0     H 4405   1.160  10.991  11.049 -2.8644 -1.9902  0.3957
   32MOL0     H 4406   0.972  11.165  11.009  1.0099 -0.0319  0.1453
   32MOL0     H 4407   0.933  10.994  10.974 -2.4356  1.4047  0.9407
   32MOL0     H 4408   1.043  11.188  10.756 -0.4774 -0.6639 -1.4797
   32MOL0     H 4409   0.978  11.043  10.736  2.5346  0.8275 -1.4408
   32MOL0     H 4410   0.757  11.177  10.856 -1.2891  2.7070 -0.1769
   32MOL0     H 4411   0.787  11.152  10.676  0.8440 -0.1383 -0.4884
   32MOL0     H 4412   0.849  11.554  10.676  0.7179 -0.1205 -0.3906
   32MOL0     H 4413   1.382  10.949  10.953  1.3144 -1.1467 -0.8675
   32MOL0     H 4414   1.694  10.879  10.988 -1.1263 -0.7416  0.8735
   32MOL0     H 4415   1.540  10.813  10.900  0.7685 -0.8617 -0.7387
   32MOL0     H 4416   1.676  10.871  10.808  0.4125  5.6610 -0.6750
   33MOL0     O 4417   7.445   0.098   1.377 -0.1654 -0.4967  0.6436
   33MOL0     C 4418   7.467   0.219   1.370  0.6548 -0.3021  0.6763
   33MOL0     O 4419   7.580   0.275   1.397 -0.5016 -0.7117  0.0137
   33MOL0     C 4420   7.686   0.185   1.381 -0.3249 -0.7578 -0.6340
   33MOL0     C 4421   7.719   0.100   1.490 -0.1538  0.0627 -0.8124
   33MOL0     C 4422   7.805  -0.007   1.458 -0.5472  0.3363  0.9394
   33MOL0     C 4423   7.867  -0.028   1.330 -0.0718 -0.3493  0.0651
   33MOL0     O 4424   7.941  -0.140   1.293  1.1921 -0.5003  0.5469
   33MOL0     C 4425   7.978  -0.234   1.397 -0.5547  0.2882 -0.8742
   33MOL0     C 4426   7.857  -0.330   1.418 -0.4242 -0.4594  0.3334
   33MOL0     C 4427   7.839  -0.392   1.560 -1.2201 -0.4565 -0.6503
   33MOL0     C 4428   7.968  -0.428   1.621 -0.5413  0.8367 -0.1030
   33MOL0     C 4429   7.957  -0.519   1.740  0.3847 -0.4374  0.2400
   33MOL0     C 4430   8.055  -0.480   1.852  0.4938  0.2978  0.7413
   33MOL0     C 4431   8.015  -0.552   1.981  0.3756 -0.4048  0.2377
   33MOL0     C 4432   8.012  -0.710   1.967 -0.3945  0.6152 -0.0274
   33MOL0     N 4433   8.142  -0.765   1.926 -0.0311 -0.2346 -0.2121
   33MOL0     C 4434   8.252  -0.795   2.005  0.2657 -0.5007  0.2451
   33MOL0     C 4435   8.336  -0.860   1.916  0.4335  0.1076 -0.8847
   33MOL0     C 4436   8.460  -0.916   1.956 -1.0844 -0.4858 -0.6261
   33MOL0     C 4437   8.535  -0.839   2.066 -0.9185  0.9088 -0.4151
   33MOL0     C 4438   8.682  -0.854   2.048 -1.6714 -0.5202 -0.6150
   33MOL0     C 4439   8.745  -0.753   2.142 -0.0507 -0.6478  0.4258
   33MOL0     O 4440   8.886  -0.762   2.147 -0.1117 -0.0939 -0.0436
   33MOL0     C 4441   8.947  -0.657   2.215 -0.1671  0.5802  0.4234
   33MOL0     C 4442   8.893  -0.546   2.273 -0.7708  0.8350  0.3942
   33MOL0     C 4443   8.960  -0.468   2.358 -0.2326 -0.6896 -0.1497
   33MOL0     C 4444   8.884  -0.359   2.429 -0.6450 -0.3611 -0.2743
   33MOL0     C 4445   9.098  -0.480   2.374  0.9321 -0.9624 -0.7612
   33MOL0     C 4446   9.174  -0.404   2.471  0.0240  0.5531 -0.8459
   33MOL0     O 4447   9.125  -0.402   2.594 -0.1708 -0.1191  0.3627
   33MOL0     C 4448   9.186  -0.342   2.709 -0.2303 -0.1023  0.1804
   33MOL0     C 4449   9.300  -0.264   2.724 -0.1014 -0.1973 -0.5870
   33MOL0     C 4450   9.338  -0.208   2.845 -0.3128  0.0987 -0.2631
   33MOL0     C 4451   9.254  -0.215   2.954  0.0178 -0.3980 -0.3355
   33MOL0     O 4452   9.287  -0.155   3.073 -0.4807 -0.2254  0.3418
   33MOL0     C 4453   9.330  -0.021   3.074 -0.6498  0.9829  0.2630
   33MOL0     C 4454   9.368   0.031   3.214 -0.5601  1.1340 -0.3806
   33MOL0     C 4455   9.252   0.008   3.314 -0.0466  0.0680 -0.7957
   33MOL0     C 4456   9.287   0.075   3.448 -0.4649 -0.3532 -0.1083
   33MOL0     C 4457   9.163   0.089   3.532  0.0742  0.3039 -0.0983
   33MOL0     C 4458   9.194   0.154   3.667 -0.6030 -0.0126  0.4950
   33MOL0     C 4459   9.067   0.160   3.748 -0.0918 -0.3560  0.4848
   33MOL0     C 4460   9.074   0.212   3.888  0.1307 -0.5295 -0.0188
   33MOL0    Cl 4461   9.176   0.110   4.000  0.3030  0.2132  0.3937
   33MOL0     C 4462   9.133  -0.276   2.939 -0.4798 -0.4821 -0.2109
   33MOL0     C 4463   9.100  -0.342   2.815  0.5015 -0.0599  0.1512
   33MOL0     O 4464   9.281  -0.353   2.433  0.1709  0.4873 -0.4838
   33MOL0     C 4465   9.162  -0.584   2.308  0.6599  0.1930  0.8495
   33MOL0     C 4466   9.084  -0.672   2.230  0.3976  0.3807  0.6043
   33MOL0     N 4467   8.274  -0.874   1.796 -0.6909 -0.4657 -0.0949
   33MOL0     N 4468   8.160  -0.812   1.800 -0.9652  0.3309 -0.8885
   33MOL0     C 4469   7.837   0.072   1.234  0.7969 -0.7983 -0.0750
   33MOL0     C 4470   7.746   0.175   1.253  0.1387 -0.0625  0.2155
   33MOL0     C 4471   7.359   0.324   1.334 -0.7309  0.6420  0.1634
   33MOL0     C 4472   7.397   0.464   1.341  0.2858 -0.4475  0.0526
   33MOL0     C 4473   7.307   0.564   1.317 -0.8691  0.5365 -0.9230
   33MOL0     C 4474   7.179   0.537   1.287  0.1556  0.5918 -0.0877
   33MOL0     O 4475   7.082   0.626   1.288  0.7033 -0.4313 -0.0644
   33MOL0     C 4476   7.108   0.763   1.258  0.0875 -0.0816 -1.0660
   33MOL0     C 4477   6.985   0.832   1.201  0.4570  0.0625  0.0353
   33MOL0     C 4478   6.871   0.856   1.293  0.0041  0.1863 -0.6034
   33MOL0     C 4479   6.747   0.909   1.211  0.0569 -0.8569 -0.5285
   33MOL0     C 4480   6.774   1.040   1.153 -0.0560  0.5034  0.5773
   33MOL0     C 4481   6.808   1.144   1.096 -0.9300  2.2654 -0.5095
   33MOL0     C 4482   7.138   0.397   1.281  0.4289 -0.2436  0.7113
   33MOL0     C 4483   7.229   0.286   1.292  0.0822 -0.2222 -0.0578
   33MOL0     C 4484   7.186   0.143   1.260 -1.5205 -0.4243 -0.7810
   33MOL0     H 4485   7.682   0.113   1.591  1.5484 -1.2201  0.0240
   33MOL0     H 4486   7.812  -0.074   1.544 -0.3734  1.1248  1.5530
   33MOL0     H 4487   8.010  -0.182   1.487  1.5285 -0.3084 -1.2363
   33MOL0     H 4488   8.065  -0.291   1.363 -0.9882  0.8922 -3.2294
   33MOL0     H 4489   7.770  -0.273   1.386  1.5274  3.2900  1.0583
   33MOL0     H 4490   7.861  -0.408   1.341  2.7997 -1.1512  1.0561
   33MOL0     H 4491   7.791  -0.329   1.635  3.7522  0.8552  1.8706
   33MOL0     H 4492   7.783  -0.486   1.554 -1.7326 -0.1063 -1.7699
   33MOL0     H 4493   8.025  -0.476   1.541 -1.6219 -0.2770 -0.2305
   33MOL0     H 4494   8.032  -0.342   1.642  0.4052 -0.0425  0.7668
   33MOL0     H 4495   7.978  -0.619   1.701  0.4586 -0.3585  0.0788
   33MOL0     H 4496   7.853  -0.532   1.770 -0.2410  0.0362 -1.5909
   33MOL0     H 4497   8.160  -0.501   1.828  0.2824 -2.0622  1.6006
   33MOL0     H 4498   8.041  -0.373   1.871 -0.6727  0.5351 -1.1774
   33MOL0     H 4499   7.908  -0.531   1.995  0.1299 -2.3472  1.7576
   33MOL0     H 4500   8.081  -0.523   2.062 -3.1442  2.7183  2.2923
   33MOL0     H 4501   7.969  -0.758   2.056 -2.6579 -0.2186 -1.4929
   33MOL0     H 4502   7.934  -0.736   1.895  0.2470 -3.2693  0.4713
   33MOL0     H 4503   8.259  -0.785   2.112  2.0601 -1.0009  0.2112
   33MOL0     H 4504   8.520  -0.936   1.867  0.4242  0.2453  0.1780
   33MOL0     H 4505   8.460  -1.018   1.995  3.3587  0.2090  1.9158
   33MOL0     H 4506   8.506  -0.733   2.058 -1.5311  0.6793 -1.4672
   33MOL0     H 4507   8.504  -0.877   2.164  0.1076 -3.5457 -1.6084
   33MOL0     H 4508   8.724  -0.951   2.075 -1.0294  0.1524  0.9442
   33MOL0     H 4509   8.708  -0.832   1.944  2.3142 -0.2491  0.2677
   33MOL0     H 4510   8.714  -0.654   2.108 -1.1952 -0.8382  0.8478
   33MOL0     H 4511   8.712  -0.768   2.245 -0.1977  0.4269  0.5412
   33MOL0     H 4512   8.785  -0.544   2.286 -0.5932  0.2663  2.1891
   33MOL0     H 4513   8.936  -0.263   2.418 -1.0568  0.3435  2.9974
   33MOL0     H 4514   8.877  -0.387   2.535 -1.9414  0.8657 -0.0157
   33MOL0     H 4515   8.788  -0.353   2.377  0.8229 -0.1360 -3.1689
   33MOL0     H 4516   9.372  -0.262   2.643  2.4873 -0.4646  1.5805
   33MOL0     H 4517   9.433  -0.157   2.856 -1.1941  1.2470  3.4051
   33MOL0     H 4518   9.412  -0.002   3.004  0.4924 -0.7190  1.0731
   33MOL0     H 4519   9.256   0.044   3.026  2.2887  2.7366 -2.2751
   33MOL0     H 4520   9.456  -0.022   3.251 -0.3730  2.6761  1.5470
   33MOL0     H 4521   9.408   0.132   3.204 -0.3037  1.1476  0.6433
   33MOL0     H 4522   9.234  -0.098   3.328  4.7250 -0.7867  0.7923
   33MOL0     H 4523   9.161   0.049   3.270  0.1044 -1.5608 -2.7713
   33MOL0     H 4524   9.329   0.171   3.416 -1.6544 -0.0714 -0.8806
   33MOL0     H 4525   9.361   0.013   3.500 -1.7177 -1.7240  0.1175
   33MOL0     H 4526   9.096   0.153   3.474  2.1612  0.6916 -2.2978
   33MOL0     H 4527   9.119  -0.011   3.540  1.6932 -0.6499 -2.0985
   33MOL0     H 4528   9.237   0.254   3.652  0.2034  0.0901  2.9998
   33MOL0     H 4529   9.266   0.097   3.726 -1.3790  0.8006  2.3089
   33MOL0     H 4530   9.022   0.060   3.741  2.5156 -1.5883 -0.2363
   33MOL0     H 4531   8.999   0.218   3.685 -0.9286  1.3614  2.8452
   33MOL0     H 4532   8.972   0.216   3.929  0.8937 -0.8682  2.0575
   33MOL0     H 4533   9.113   0.313   3.871 -0.7595 -0.0803  0.4959
   33MOL0     H 4534   9.060  -0.283   3.019  1.4907  1.2999  1.8884
   33MOL0     H 4535   9.013  -0.406   2.808  0.8337 -0.6676  1.3657
   33MOL0     H 4536   9.271  -0.588   2.311  0.9785  3.7725 -0.8709
   33MOL0     H 4537   9.139  -0.745   2.172  0.4131  0.0919  0.9811
   33MOL0     H 4538   7.881   0.051   1.137  0.2849  0.4780 -0.6063
   33MOL0     H 4539   7.724   0.250   1.177 -1.3108 -0.9246 -0.2762
   33MOL0     H 4540   7.487   0.492   1.393 -0.9600  0.9678  1.5282
   33MOL0     H 4541   7.347   0.665   1.324 -0.5442  0.3098  0.8859
   33MOL0     H 4542   7.125   0.807   1.357 -1.5555 -1.7921  0.0675
   33MOL0     H 4543   7.191   0.774   1.187  3.3868 -0.6558  2.3392
   33MOL0     H 4544   6.957   0.770   1.116 -1.8666  0.3197  0.5409
   33MOL0     H 4545   7.007   0.936   1.173  0.7251  0.7718  2.6204
   33MOL0     H 4546   6.860   0.759   1.343  2.8473 -1.2716 -2.5193
   33MOL0     H 4547   6.892   0.941   1.359 -2.9495  1.3738 -1.0596
   33MOL0     H 4548   6.656   0.909   1.272 -1.4819 -2.1297 -2.6868
   33MOL0     H 4549   6.721   0.843   1.128 -2.5722  2.8057 -2.9801
   33MOL0     H 4550   6.831   1.237   1.047  1.2531  0.5301 -3.0753
   33MOL0     H 4551   7.038   0.393   1.241  0.1195  6.6081 -0.3552
   33MOL0     H 4552   7.274   0.091   1.219  0.8833  3.9501 -1.7556
   33MOL0     H 4553   7.151   0.102   1.356 -1.2781 -0.6210 -0.7739
   33MOL0     H 4554   7.111   0.144   1.181 -1.2266  2.5517 -1.1144
   34MOL0     O 4555   2.733   3.978   8.237 -0.4905  0.5709 -1.0561
   34MOL0     C 4556   2.736   4.090   8.181 -0.4824 -0.1809 -1.0589
   34MOL0     O 4557   2.851   4.159   8.147 -0.4956 -0.0367  1.0004
   34MOL0     C 4558   2.978   4.100   8.187 -0.5111  0.2164 -0.4513
   34MOL0     C 4559   2.997   4.040   8.322 -0.1192 -0.3868 -0.2113
   34MOL0     C 4560   3.119   3.990   8.358  0.5811  0.6053  0.7596
   34MOL0     C 4561   3.227   3.997   8.264 -0.0033  0.1230  0.3597
   34MOL0     O 4562   3.344   3.934   8.293 -0.8132  0.2732 -0.7432
   34MOL0     C 4563   3.413   3.874   8.183  0.5197  0.4374  0.4285
   34MOL0     C 4564   3.481   3.734   8.215  1.0945 -0.0599 -0.0279
   34MOL0     C 4565   3.388   3.612   8.217  0.5721  0.6880 -0.7761
   34MOL0     C 4566   3.464   3.492   8.285 -0.1121  0.4703 -0.7753
   34MOL0     C 4567   3.529   3.402   8.179  0.9946  0.4350  1.0426
   34MOL0     C 4568   3.589   3.271   8.227 -0.7804 -0.1414  0.5706
   34MOL0     C 4569   3.712   3.223   8.141  0.1509 -0.5322  0.1742
   34MOL0     C 4570   3.835   3.309   8.179 -0.3255 -0.3614  0.2099
   34MOL0     N 4571   3.959   3.264   8.116  0.2922 -0.5169  0.2847
   34MOL0     C 4572   4.070   3.206   8.172 -0.1157  0.5096  0.7123
   34MOL0     C 4573   4.158   3.208   8.069 -0.7046 -0.7925 -0.2802
   34MOL0     C 4574   4.307   3.177   8.083  0.2540  0.0985 -0.0837
   34MOL0     C 4575   4.334   3.031   8.046  0.6193  0.5744 -0.5378
   34MOL0     C 4576   4.458   2.972   8.104  0.7469  0.0968 -0.9054
   34MOL0     C 4577   4.460   2.814   8.095  0.4462  0.2427 -0.4764
   34MOL0     O 4578   4.564   2.744   8.165 -0.3598 -0.3810 -0.4647
   34MOL0     C 4579   4.685   2.737   8.118 -0.0078 -0.1436  0.6096
   34MOL0     C 4580   4.724   2.788   7.995  0.2805 -0.0133  1.1826
   34MOL0     C 4581   4.854   2.780   7.940 -0.9412 -0.3139  0.2152
   34MOL0     C 4582   4.874   2.836   7.802  0.1438 -0.7758 -0.5848
   34MOL0     C 4583   4.957   2.731   8.022 -0.7315  1.0187  0.2238
   34MOL0     C 4584   5.100   2.723   7.984 -0.1227 -0.4063 -0.2354
   34MOL0     O 4585   5.191   2.725   8.085  0.0664  0.3609  0.3893
   34MOL0     C 4586   5.317   2.661   8.088  0.4959 -0.4121 -0.8622
   34MOL0     C 4587   5.355   2.558   8.004 -0.0607  0.4864  0.8176
   34MOL0     C 4588   5.485   2.502   8.017  0.1399  0.4423  0.9488
   34MOL0     C 4589   5.562   2.541   8.133  0.4144  0.5568  1.0260
   34MOL0     O 4590   5.693   2.490   8.147 -0.1118  0.6391 -0.1888
   34MOL0     C 4591   5.756   2.399   8.049 -0.1994  0.2986 -0.6502
   34MOL0     C 4592   5.714   2.258   8.095  0.1446  0.3161  0.6346
   34MOL0     C 4593   5.728   2.142   7.990  0.3905 -0.2967 -0.5452
   34MOL0     C 4594   5.699   2.004   8.060 -0.8776 -0.2403 -0.0566
   34MOL0     C 4595   5.728   1.889   7.970 -0.1995  0.0228 -0.0569
   34MOL0     C 4596   5.653   1.758   7.993 -0.3646 -0.0200  0.0246
   34MOL0     C 4597   5.497   1.755   7.967 -0.7380 -0.0164 -0.4895
   34MOL0     C 4598   5.460   1.736   7.826  0.7724  0.1755  0.2412
   34MOL0    Cl 4599   5.288   1.714   7.802  0.1704  0.0719 -0.0355
   34MOL0     C 4600   5.517   2.633   8.229 -0.8340 -0.1668 -0.6477
   34MOL0     C 4601   5.396   2.702   8.207 -0.0468  0.0753  0.4598
   34MOL0     O 4602   5.124   2.727   7.867 -0.0837 -0.2623 -0.1099
   34MOL0     C 4603   4.917   2.666   8.146 -0.9818  0.1136 -0.0048
   34MOL0     C 4604   4.783   2.672   8.189 -0.4855  1.0423 -0.5027
   34MOL0     N 4605   4.094   3.252   7.954  0.3900  0.8258  0.6768
   34MOL0     N 4606   3.975   3.281   7.978 -0.2543 -0.5694 -0.3277
   34MOL0     C 4607   3.213   4.071   8.148  0.2943  0.2153 -0.1475
   34MOL0     C 4608   3.090   4.126   8.105  0.6299  0.6004 -0.2397
   34MOL0     C 4609   2.601   4.133   8.132 -0.0607  0.2256  0.3668
   34MOL0     C 4610   2.490   4.039   8.147  1.3018 -0.0620 -0.5400
   34MOL0     C 4611   2.359   4.062   8.110 -0.3600 -0.2991  0.4468
   34MOL0     C 4612   2.329   4.188   8.059 -0.2311  0.2320  0.1008
   34MOL0     O 4613   2.206   4.221   8.029  0.1058  0.8770 -0.2215
   34MOL0     C 4614   2.181   4.234   7.888 -0.6386 -0.3244 -0.1968
   34MOL0     C 4615   2.043   4.290   7.873 -0.0399 -0.4221 -0.5312
   34MOL0     C 4616   2.031   4.437   7.905  0.0788 -0.3790 -0.3318
   34MOL0     C 4617   1.886   4.481   7.939  0.0139  0.1747 -0.2456
   34MOL0     C 4618   1.783   4.431   7.851  0.8219  0.3851  0.5317
   34MOL0     C 4619   1.693   4.395   7.784 -0.1755 -0.5234 -0.4441
   34MOL0     C 4620   2.434   4.283   8.051 -0.7717  0.2901 -0.3756
   34MOL0     C 4621   2.568   4.258   8.088  0.5263  0.2095  0.3700
   34MOL0     C 4622   2.667   4.369   8.096 -0.4442 -0.6129  0.6023
   34MOL0     H 4623   2.913   4.033   8.391  0.6455  0.4586  0.8345
   34MOL0     H 4624   3.128   3.934   8.451  2.5013 -1.7913 -0.7552
   34MOL0     H 4625   3.491   3.946   8.155 -0.0633  0.4556 -1.2415
   34MOL0     H 4626   3.355   3.857   8.092  2.0449  0.1186 -0.5355
   34MOL0     H 4627   3.559   3.724   8.138  1.0459 -1.1929  0.0523
   34MOL0     H 4628   3.521   3.743   8.316 -0.5562  2.1421  0.5188
   34MOL0     H 4629   3.297   3.628   8.276  0.4026 -1.1058 -0.4891
   34MOL0     H 4630   3.336   3.596   8.122 -1.2190  2.7693 -0.2269
   34MOL0     H 4631   3.546   3.526   8.348 -0.3029  1.2010 -0.9153
   34MOL0     H 4632   3.389   3.431   8.336  0.2307 -0.3507 -1.2407
   34MOL0     H 4633   3.605   3.462   8.128 -2.0711  1.9600 -2.1344
   34MOL0     H 4634   3.461   3.373   8.099  1.1433  0.3398  0.9503
   34MOL0     H 4635   3.631   3.296   8.325  1.1573 -0.4430 -0.1358
   34MOL0     H 4636   3.517   3.190   8.238 -0.5082 -0.8370 -2.0985
   34MOL0     H 4637   3.687   3.225   8.035 -1.5346 -1.4208  0.5203
   34MOL0     H 4638   3.733   3.119   8.168 -1.5166 -0.6097  1.3288
   34MOL0     H 4639   3.814   3.413   8.152 -0.7547 -0.4161  0.3213
   34MOL0     H 4640   3.847   3.310   8.288 -0.2823 -0.1997  0.2035
   34MOL0     H 4641   4.088   3.179   8.275  0.1184 -2.6715 -0.0767
   34MOL0     H 4642   4.336   3.201   8.186 -0.5035  1.4389 -0.1656
   34MOL0     H 4643   4.354   3.251   8.018 -0.0089  1.3140  1.0587
   34MOL0     H 4644   4.252   2.974   8.090  1.9104  0.6618  2.1405
   34MOL0     H 4645   4.331   3.013   7.938 -1.6213  1.0350 -0.5986
   34MOL0     H 4646   4.542   3.009   8.044  0.5945 -1.2286 -1.9903
   34MOL0     H 4647   4.472   3.009   8.206  0.6488  0.8273 -1.1509
   34MOL0     H 4648   4.374   2.783   8.155  0.6481  0.6256  0.0144
   34MOL0     H 4649   4.447   2.773   7.994  0.4983 -0.1693 -0.3163
   34MOL0     H 4650   4.651   2.837   7.931 -2.0284 -2.1137  2.0159
   34MOL0     H 4651   4.943   2.778   7.740 -0.0283  0.5313 -2.0549
   34MOL0     H 4652   4.887   2.944   7.795 -1.5760 -0.6231 -2.6311
   34MOL0     H 4653   4.776   2.813   7.758  0.1983  2.5297 -2.8599
   34MOL0     H 4654   5.290   2.526   7.923  0.9387  3.3662 -1.3028
   34MOL0     H 4655   5.505   2.434   7.935 -0.1498 -0.5659  1.6920
   34MOL0     H 4656   5.728   2.409   7.944  0.4181  0.2866 -0.8216
   34MOL0     H 4657   5.865   2.403   8.048 -0.1000 -1.5914 -1.6187
   34MOL0     H 4658   5.771   2.228   8.184 -0.6160 -1.0321  0.6958
   34MOL0     H 4659   5.613   2.268   8.137 -0.4149 -1.8286 -0.0626
   34MOL0     H 4660   5.828   2.127   7.949 -0.5920 -1.4359 -2.7014
   34MOL0     H 4661   5.656   2.164   7.911 -2.1524  1.7435  2.0902
   34MOL0     H 4662   5.596   1.999   8.098 -1.5901  0.1002 -1.8651
   34MOL0     H 4663   5.766   1.991   8.146  1.1503 -0.2395 -1.5682
   34MOL0     H 4664   5.702   1.920   7.868  0.4225 -0.8443 -0.4913
   34MOL0     H 4665   5.835   1.872   7.987 -0.2567 -0.6998 -0.3713
   34MOL0     H 4666   5.683   1.710   8.087 -1.1683  0.0449  0.3229
   34MOL0     H 4667   5.709   1.696   7.923  0.5031  1.1721 -0.3766
   34MOL0     H 4668   5.450   1.834   8.026 -1.0641 -0.8776  0.4184
   34MOL0     H 4669   5.469   1.670   8.029  0.1304  0.3464  0.4370
   34MOL0     H 4670   5.521   1.652   7.790  2.3157  1.4000 -0.1040
   34MOL0     H 4671   5.489   1.834   7.786  1.0174  0.0843  0.1925
   34MOL0     H 4672   5.574   2.642   8.321  2.9386  0.3525 -2.8550
   34MOL0     H 4673   5.368   2.776   8.280  1.0787 -0.2377  1.2354
   34MOL0     H 4674   4.992   2.619   8.209 -2.9737 -0.4737  2.0324
   34MOL0     H 4675   4.748   2.631   8.283 -0.5973 -1.2070 -1.4625
   34MOL0     H 4676   3.290   4.087   8.073  0.2125  1.8954  0.0816
   34MOL0     H 4677   3.087   4.182   8.011  3.0061  0.7790 -0.2608
   34MOL0     H 4678   2.502   3.940   8.189 -2.6865 -1.6904 -2.6119
   34MOL0     H 4679   2.277   3.991   8.109  1.1934 -2.2062 -1.5200
   34MOL0     H 4680   2.257   4.296   7.840  2.4745 -3.2332  0.5826
   34MOL0     H 4681   2.179   4.138   7.835  1.0802  0.5922 -2.0673
   34MOL0     H 4682   1.981   4.238   7.947  2.5913 -2.6685  0.2580
   34MOL0     H 4683   2.005   4.274   7.772 -1.6017  2.0398 -0.4091
   34MOL0     H 4684   2.094   4.448   7.994 -1.3748  1.3718  0.5503
   34MOL0     H 4685   2.078   4.507   7.835  0.7817  0.0614  0.5578
   34MOL0     H 4686   1.877   4.590   7.948 -2.4574 -0.1557  3.6385
   34MOL0     H 4687   1.864   4.449   8.041 -2.2698 -0.5517 -0.9210
   34MOL0     H 4688   1.630   4.341   7.716  0.5388 -0.0109 -1.5423
   34MOL0     H 4689   2.404   4.380   8.013 -0.1666 -0.0671 -1.8177
   34MOL0     H 4690   2.625   4.459   8.051  2.7027  0.8149  0.2520
   34MOL0     H 4691   2.678   4.395   8.202  1.2871  0.3788  0.2091
   34MOL0     H 4692   2.761   4.350   8.045 -0.1885  0.7508  0.5245
   35MOL0     O 4693   0.891   5.428   3.172  0.4790 -0.2249  0.8808
   35MOL0     C 4694   0.996   5.397   3.228  0.4752 -0.7439 -0.7923
   35MOL0     O 4695   1.017   5.410   3.363 -0.0243 -0.0326 -0.0397
   35MOL0     C 4696   0.919   5.420   3.455 -0.7510 -0.7060 -1.0682
   35MOL0     C 4697   0.942   5.475   3.583 -0.2009  1.1054 -0.7394
   35MOL0     C 4698   0.836   5.479   3.675 -0.7349  0.1292  0.3419
   35MOL0     C 4699   0.709   5.416   3.652  0.0553 -0.8463 -0.0238
   35MOL0     O 4700   0.618   5.435   3.752  0.6173 -0.1843  0.5582
   35MOL0     C 4701   0.481   5.390   3.717  0.4889 -0.0827 -0.7483
   35MOL0     C 4702   0.381   5.412   3.836  0.0305 -0.0735  0.6855
   35MOL0     C 4703   0.429   5.334   3.956 -1.1747  0.2186  0.1306
   35MOL0     C 4704   0.405   5.404   4.092  0.5379 -1.2224 -0.3080
   35MOL0     C 4705   0.485   5.360   4.211  1.0649 -1.0322 -0.2641
   35MOL0     C 4706   0.432   5.234   4.272  0.1536 -0.0657  0.0098
   35MOL0     C 4707   0.509   5.188   4.396 -0.4654 -0.2587  0.5219
   35MOL0     C 4708   0.639   5.114   4.372  1.0558 -0.3960  0.5709
   35MOL0     N 4709   0.688   5.027   4.482  0.3034  0.2353 -1.2926
   35MOL0     C 4710   0.596   4.958   4.563  0.3476  0.0526  0.2864
   35MOL0     C 4711   0.642   4.965   4.686  0.4327 -0.3265 -0.2216
   35MOL0     C 4712   0.596   4.886   4.810 -0.4440  0.0921 -0.8089
   35MOL0     C 4713   0.701   4.781   4.850 -0.3757 -0.1793  1.3487
   35MOL0     C 4714   0.665   4.737   4.994 -0.2179 -0.2262  0.1806
   35MOL0     C 4715   0.557   4.632   4.994 -0.1962  0.6611  0.6842
   35MOL0     O 4716   0.587   4.538   4.897 -0.7047  1.1766  0.3266
   35MOL0     C 4717   0.479   4.467   4.838 -0.5439  0.0451 -0.0224
   35MOL0     C 4718   0.356   4.438   4.893  0.3079  0.5959 -0.5528
   35MOL0     C 4719   0.266   4.357   4.817  0.3206 -0.0833 -0.2946
   35MOL0     C 4720   0.135   4.326   4.884  0.0437  0.4456  0.3139
   35MOL0     C 4721   0.296   4.319   4.682  0.7848  0.1759 -0.2603
   35MOL0     C 4722   0.200   4.256   4.580  0.0289  0.4778 -0.7361
   35MOL0     O 4723   0.251   4.236   4.460  0.5223 -0.0146 -0.0494
   35MOL0     C 4724   0.154   4.224   4.361 -0.6284  0.1654  0.1169
   35MOL0     C 4725   0.126   4.094   4.303 -0.0012  0.2527 -1.1989
   35MOL0     C 4726   0.054   4.068   4.185  0.0789 -0.9506  0.7201
   35MOL0     C 4727  -0.011   4.181   4.120 -0.0194  0.3020  0.1343
   35MOL0     O 4728  -0.080   4.161   4.005  0.4443  0.4075  0.1755
   35MOL0     C 4729  -0.111   4.270   3.919  0.1587 -1.1165  0.8595
   35MOL0     C 4730  -0.197   4.222   3.800  0.4656  0.1994  0.1596
   35MOL0     C 4731  -0.133   4.109   3.712 -0.4528 -0.2255 -0.4611
   35MOL0     C 4732  -0.017   4.176   3.635  0.1036 -0.2455 -0.3243
   35MOL0     C 4733  -0.066   4.227   3.504  0.1491 -0.1374 -0.6224
   35MOL0     C 4734   0.048   4.266   3.413  0.2655  0.6664 -0.1949
   35MOL0     C 4735   0.002   4.363   3.295  1.2551  0.9095  0.4500
   35MOL0     C 4736   0.118   4.414   3.220  0.3898 -0.0420 -0.0082
   35MOL0    Cl 4737   0.235   4.504   3.319  0.1772  0.0821 -0.1285
   35MOL0     C 4738   0.017   4.307   4.178 -0.0712 -0.5554  0.0986
   35MOL0     C 4739   0.098   4.327   4.289  0.7610  0.4978 -0.3915
   35MOL0     O 4740   0.081   4.252   4.612 -0.4663  0.9943 -0.4816
   35MOL0     C 4741   0.423   4.343   4.636  0.8571  0.4566 -0.1336
   35MOL0     C 4742   0.507   4.413   4.710 -0.2097 -0.0901  0.1498
   35MOL0     N 4743   0.763   5.040   4.680  0.0858 -0.6198  0.0549
   35MOL0     N 4744   0.791   5.067   4.554  0.3290 -0.2616 -0.6831
   35MOL0     C 4745   0.692   5.353   3.531  0.3385  0.1031 -0.0542
   35MOL0     C 4746   0.793   5.356   3.435  0.1245  1.2463  0.2668
   35MOL0     C 4747   1.122   5.366   3.153  0.0966  0.8914 -0.2431
   35MOL0     C 4748   1.240   5.340   3.227 -0.0515  0.1991  0.2552
   35MOL0     C 4749   1.367   5.332   3.163  0.1266 -0.1851  0.1940
   35MOL0     C 4750   1.379   5.339   3.025  0.6346  0.0870  0.7277
   35MOL0     O 4751   1.492   5.333   2.953  0.2933 -0.4092 -0.0836
   35MOL0     C 4752   1.612   5.275   3.008  0.0315  0.7229  0.2545
   35MOL0     C 4753   1.725   5.238   2.905 -0.0147 -0.4538  0.6561
   35MOL0     C 4754   1.727   5.091   2.875  0.5277 -0.2594  0.8065
   35MOL0     C 4755   1.630   5.048   2.762  0.1640  0.2202 -0.7021
   35MOL0     C 4756   1.651   4.909   2.715  0.1319  0.0926  0.3773
   35MOL0     C 4757   1.670   4.796   2.681 -1.0743 -0.1334 -0.5778
   35MOL0     C 4758   1.259   5.370   2.952  0.4575  0.3343 -0.1586
   35MOL0     C 4759   1.134   5.382   3.012  0.5800 -1.0340 -0.4829
   35MOL0     C 4760   1.029   5.438   2.913 -0.2536  0.3733 -0.0613
   35MOL0     H 4761   1.040   5.517   3.604  0.8029 -0.6989 -1.5538
   35MOL0     H 4762   0.853   5.519   3.775  1.6912 -0.6173  0.2791
   35MOL0     H 4763   0.488   5.282   3.697  0.2966 -1.2330  4.1403
   35MOL0     H 4764   0.438   5.449   3.636  0.4572  1.5777  0.4290
   35MOL0     H 4765   0.381   5.521   3.849 -0.4268 -0.2448  2.2375
   35MOL0     H 4766   0.286   5.369   3.803 -0.3453  0.6475  0.8076
   35MOL0     H 4767   0.375   5.239   3.954  1.0092 -1.0863 -0.6009
   35MOL0     H 4768   0.536   5.313   3.949 -1.4287 -1.6065  1.2291
   35MOL0     H 4769   0.428   5.510   4.084  1.7305 -1.5255 -1.1098
   35MOL0     H 4770   0.300   5.382   4.116 -0.6971  1.4472 -2.6218
   35MOL0     H 4771   0.475   5.440   4.284 -0.4555 -0.4588 -1.0538
   35MOL0     H 4772   0.589   5.340   4.184  0.8475 -2.3810 -0.1769
   35MOL0     H 4773   0.326   5.247   4.292 -0.4651 -2.5293 -1.2729
   35MOL0     H 4774   0.435   5.157   4.194  1.6282 -0.0803  0.0356
   35MOL0     H 4775   0.444   5.129   4.461  1.1858 -0.8475  1.7124
   35MOL0     H 4776   0.523   5.281   4.451 -3.1550  0.7043 -0.2962
   35MOL0     H 4777   0.616   5.046   4.289  1.2061 -0.6531  0.7381
   35MOL0     H 4778   0.712   5.192   4.351  0.3390  0.1893  0.2246
   35MOL0     H 4779   0.509   4.907   4.525  0.3176  0.1766  0.1906
   35MOL0     H 4780   0.505   4.838   4.773 -0.3015 -0.1780 -0.8107
   35MOL0     H 4781   0.574   4.950   4.897  0.5582 -0.6168 -0.0075
   35MOL0     H 4782   0.714   4.694   4.785  1.5442 -0.9995  2.7391
   35MOL0     H 4783   0.798   4.830   4.861 -0.1749  0.1117 -1.1003
   35MOL0     H 4784   0.753   4.699   5.045  0.7055  1.8563  0.2681
   35MOL0     H 4785   0.633   4.821   5.056 -3.2499 -0.7840 -0.4678
   35MOL0     H 4786   0.542   4.594   5.096 -3.7427  2.5919  1.0337
   35MOL0     H 4787   0.463   4.681   4.967 -0.5153  0.0937  0.7479
   35MOL0     H 4788   0.338   4.461   4.998 -1.6815 -3.2054  0.1177
   35MOL0     H 4789   0.049   4.369   4.831 -0.3520  0.0499  0.6230
   35MOL0     H 4790   0.130   4.365   4.986  0.9028  1.1128  0.1043
   35MOL0     H 4791   0.117   4.218   4.884 -1.0227  0.5901 -0.9509
   35MOL0     H 4792   0.171   4.010   4.355 -0.7644  0.6401  0.1365
   35MOL0     H 4793   0.047   3.965   4.150 -2.1275 -1.6878  3.0374
   35MOL0     H 4794  -0.168   4.348   3.971 -0.4228 -0.5131 -0.6198
   35MOL0     H 4795  -0.029   4.322   3.870 -0.4718 -0.2945  0.6546
   35MOL0     H 4796  -0.298   4.186   3.820  1.3694 -3.3364 -0.9125
   35MOL0     H 4797  -0.197   4.312   3.738  0.6254  0.5199  0.6181
   35MOL0     H 4798  -0.211   4.068   3.648  1.1129  0.1155 -2.7114
   35MOL0     H 4799  -0.083   4.038   3.778 -1.0063 -1.0038 -0.8603
   35MOL0     H 4800   0.059   4.101   3.611  1.1645  0.6685  0.1379
   35MOL0     H 4801   0.037   4.255   3.687  0.6255  0.3218 -1.6805
   35MOL0     H 4802  -0.139   4.159   3.460 -1.6374  2.2122 -1.4717
   35MOL0     H 4803  -0.124   4.319   3.512  1.0333  0.4822 -1.0747
   35MOL0     H 4804   0.077   4.173   3.362 -1.6171  0.5166 -1.0959
   35MOL0     H 4805   0.134   4.296   3.473  0.6961  0.1038 -0.5149
   35MOL0     H 4806  -0.053   4.444   3.343 -0.4869 -1.4778  2.8220
   35MOL0     H 4807  -0.067   4.318   3.223  1.6913 -0.5145  0.8755
   35MOL0     H 4808   0.079   4.479   3.140 -0.8984  1.0969  1.4799
   35MOL0     H 4809   0.181   4.333   3.183  0.8041 -0.9925  2.6046
   35MOL0     H 4810  -0.039   4.395   4.148 -2.6653 -1.7329  1.1893
   35MOL0     H 4811   0.098   4.427   4.332  0.6560 -1.2412  4.2302
   35MOL0     H 4812   0.469   4.297   4.548  0.4338  0.8939 -0.5866
   35MOL0     H 4813   0.600   4.438   4.660 -0.2052  0.2246  0.3102
   35MOL0     H 4814   0.599   5.310   3.497 -0.5850  1.1002  1.1247
   35MOL0     H 4815   0.772   5.296   3.347  2.3289  0.4005  0.2679
   35MOL0     H 4816   1.238   5.333   3.335  0.9960 -0.6872  0.2264
   35MOL0     H 4817   1.462   5.346   3.215 -0.4657  3.6083  0.5643
   35MOL0     H 4818   1.648   5.346   3.084  0.9082  2.5130 -1.7182
   35MOL0     H 4819   1.590   5.178   3.053 -0.0545 -0.8854 -3.0105
   35MOL0     H 4820   1.817   5.276   2.952 -0.5897  2.2190 -0.1967
   35MOL0     H 4821   1.706   5.290   2.811 -3.9127  1.6225  2.3667
   35MOL0     H 4822   1.830   5.061   2.855  1.2349  1.8817  1.0276
   35MOL0     H 4823   1.708   5.026   2.961 -3.0447 -1.4292 -0.6828
   35MOL0     H 4824   1.646   5.115   2.677  2.2424 -0.5390 -0.9705
   35MOL0     H 4825   1.531   5.047   2.808  2.2940 -2.0688  4.5627
   35MOL0     H 4826   1.685   4.696   2.645  3.1110  0.1967 -0.2706
   35MOL0     H 4827   1.285   5.386   2.848  1.0027 -2.3121 -0.5107
   35MOL0     H 4828   1.021   5.547   2.907  0.5188  0.4388  0.0147
   35MOL0     H 4829   1.048   5.406   2.810 -1.8146 -1.2800  0.1056
   35MOL0     H 4830   0.934   5.389   2.937 -0.2548 -0.3517 -1.4410
   36MOL0     O 4831   1.327   6.123   5.754 -0.0715  0.1435 -0.5523
   36MOL0     C 4832   1.265   6.023   5.727 -0.1147 -0.4133  0.0100
   36MOL0     O 4833   1.313   5.915   5.655 -0.5792  0.2118 -0.9224
   36MOL0     C 4834   1.433   5.919   5.591  0.2384 -0.4652 -0.8939
   36MOL0     C 4835   1.479   6.039   5.523  0.1282  0.9600 -0.3582
   36MOL0     C 4836   1.583   6.039   5.434  0.1292 -1.0150  0.3892
   36MOL0     C 4837   1.654   5.916   5.411 -0.5017  0.5200 -1.0809
   36MOL0     O 4838   1.739   5.916   5.313 -0.2979  0.2020  0.2311
   36MOL0     C 4839   1.878   5.917   5.366  0.0149  0.5063  0.5135
   36MOL0     C 4840   1.963   5.975   5.257 -0.1601  0.5982  0.5620
   36MOL0     C 4841   1.916   6.123   5.236  0.4837  0.4791 -0.3005
   36MOL0     C 4842   2.020   6.222   5.194  0.2844  0.3843 -1.0468
   36MOL0     C 4843   2.067   6.197   5.048 -0.3869  0.7641  0.5012
   36MOL0     C 4844   2.162   6.310   5.004 -0.1356  0.0724 -0.2168
   36MOL0     C 4845   2.283   6.329   5.092 -0.7736 -0.4557 -1.3986
   36MOL0     C 4846   2.417   6.382   5.030 -0.3708  0.3252  0.0120
   36MOL0     N 4847   2.400   6.515   4.981 -0.8490 -0.7650 -0.2664
   36MOL0     C 4848   2.329   6.550   4.870  0.7485  0.1352  0.6797
   36MOL0     C 4849   2.330   6.686   4.850 -0.6524  0.2053  0.0708
   36MOL0     C 4850   2.257   6.769   4.754  0.2028 -0.0274  0.8752
   36MOL0     C 4851   2.341   6.803   4.629  0.3384  0.3924  0.0682
   36MOL0     C 4852   2.455   6.903   4.651  0.0154  0.3965 -0.1737
   36MOL0     C 4853   2.529   6.928   4.522 -0.0314  0.1674  0.0626
   36MOL0     O 4854   2.563   6.801   4.461  0.2414  0.0091 -0.4336
   36MOL0     C 4855   2.689   6.785   4.407  0.5051 -0.1405  0.1252
   36MOL0     C 4856   2.772   6.699   4.462 -0.7253 -0.3254 -0.6764
   36MOL0     C 4857   2.905   6.693   4.403 -0.0390 -0.2650 -0.1194
   36MOL0     C 4858   3.000   6.599   4.476  1.0247 -0.0836 -0.1747
   36MOL0     C 4859   2.940   6.761   4.280 -0.4849 -0.1744 -0.0992
   36MOL0     C 4860   3.073   6.770   4.221  0.1132  0.2366 -0.1020
   36MOL0     O 4861   3.095   6.880   4.147  0.1771  0.0081  0.0396
   36MOL0     C 4862   3.221   6.931   4.112  0.1099 -0.4922 -0.8948
   36MOL0     C 4863   3.229   7.004   3.995 -1.4195 -0.1606 -0.2360
   36MOL0     C 4864   3.351   7.072   3.961  0.7585 -0.2090 -0.5918
   36MOL0     C 4865   3.459   7.067   4.051 -0.4550 -0.4427  0.0189
   36MOL0     O 4866   3.567   7.148   4.008 -0.1208 -0.1108 -0.1029
   36MOL0     C 4867   3.667   7.177   4.105 -0.8484  0.4900  0.2159
   36MOL0     C 4868   3.783   7.259   4.043 -0.1064  0.4941  0.2420
   36MOL0     C 4869   3.735   7.384   3.979 -0.7807 -0.3245  0.8797
   36MOL0     C 4870   3.703   7.497   4.082 -0.3908 -0.2689 -0.6981
   36MOL0     C 4871   3.554   7.530   4.066  0.2817  0.3730 -0.9713
   36MOL0     C 4872   3.505   7.656   4.136 -0.5627 -0.0806 -0.4718
   36MOL0     C 4873   3.377   7.720   4.081  0.4850 -0.4516  0.1683
   36MOL0     C 4874   3.365   7.864   4.139 -0.1411 -0.1718  0.9094
   36MOL0    Cl 4875   3.500   7.983   4.098  0.0262  0.0791 -0.2976
   36MOL0     C 4876   3.453   6.989   4.170 -0.1372 -0.4779  0.5815
   36MOL0     C 4877   3.334   6.920   4.198 -0.3822  0.3272 -0.0570
   36MOL0     O 4878   3.152   6.675   4.228  0.0349  0.0584 -0.2897
   36MOL0     C 4879   2.840   6.847   4.233  0.4928 -1.0805  0.5773
   36MOL0     C 4880   2.721   6.858   4.293  1.2078 -0.1253 -0.2091
   36MOL0     N 4881   2.398   6.730   4.966  0.5605 -0.6870  0.4363
   36MOL0     N 4882   2.441   6.634   5.034  0.4515  0.2414  0.2441
   36MOL0     C 4883   1.625   5.798   5.488  0.1688  0.0435  0.4813
   36MOL0     C 4884   1.518   5.803   5.579 -0.1446 -0.3510 -0.3825
   36MOL0     C 4885   1.128   6.011   5.782  0.9975  0.5075  0.1421
   36MOL0     C 4886   1.055   5.892   5.741  0.4274  0.5460 -0.3134
   36MOL0     C 4887   0.919   5.872   5.779  0.4047  0.7661  0.0908
   36MOL0     C 4888   0.849   5.969   5.853  0.3803  0.1743 -0.3971
   36MOL0     O 4889   0.719   5.944   5.891  0.5346  0.0260  0.3097
   36MOL0     C 4890   0.615   6.020   5.822 -0.0149  1.1214  0.4399
   36MOL0     C 4891   0.594   5.964   5.685 -0.0490 -0.6734  0.2630
   36MOL0     C 4892   0.489   6.049   5.615  0.0188 -0.9382 -0.1315
   36MOL0     C 4893   0.477   6.011   5.470  0.1963  0.6474 -0.3980
   36MOL0     C 4894   0.389   6.105   5.399 -0.4155  0.8747  0.0295
   36MOL0     C 4895   0.315   6.173   5.337  0.5242 -0.6466 -0.3859
   36MOL0     C 4896   0.926   6.078   5.895 -0.8825 -0.7803 -0.0490
   36MOL0     C 4897   1.059   6.113   5.870 -0.0741  0.5116  0.6680
   36MOL0     C 4898   1.104   6.246   5.916  0.2829  0.8534 -0.4511
   36MOL0     H 4899   1.426   6.134   5.527  0.1724  0.9475  0.5454
   36MOL0     H 4900   1.630   6.115   5.372  0.3715 -3.1817 -2.2592
   36MOL0     H 4901   1.911   5.814   5.376 -3.1539 -0.7895 -0.9084
   36MOL0     H 4902   1.883   5.958   5.467 -0.6885 -2.6043  1.9230
   36MOL0     H 4903   2.060   5.988   5.306  1.3112  0.3484 -2.1095
   36MOL0     H 4904   1.962   5.925   5.160 -1.3883 -1.0187  1.3581
   36MOL0     H 4905   1.841   6.131   5.157  0.7306  2.5535 -0.3749
   36MOL0     H 4906   1.873   6.153   5.332  0.9887  1.1823 -0.2806
   36MOL0     H 4907   1.978   6.322   5.206  3.1511  1.5987 -0.2693
   36MOL0     H 4908   2.106   6.228   5.261 -1.0803 -1.0842  0.9387
   36MOL0     H 4909   1.985   6.179   4.978 -0.4224  1.8484  0.2381
   36MOL0     H 4910   2.123   6.104   5.035 -0.0175  1.3707 -4.3414
   36MOL0     H 4911   2.214   6.267   4.918  0.4684  0.1633  0.0914
   36MOL0     H 4912   2.119   6.408   4.985  2.7546  1.1999 -1.4571
   36MOL0     H 4913   2.310   6.233   5.137  2.1526  0.9602  0.2408
   36MOL0     H 4914   2.253   6.388   5.179  2.1560 -0.8861  0.0278
   36MOL0     H 4915   2.502   6.366   5.097 -1.4757 -0.9692  1.1641
   36MOL0     H 4916   2.437   6.306   4.953 -1.0861  0.6670 -0.5130
   36MOL0     H 4917   2.267   6.484   4.810  0.1719 -0.3318  1.7526
   36MOL0     H 4918   2.220   6.861   4.800 -0.8933  0.2386 -0.5104
   36MOL0     H 4919   2.168   6.712   4.729 -0.6701  0.7714  2.0768
   36MOL0     H 4920   2.369   6.705   4.589 -1.6238  0.2997 -1.2053
   36MOL0     H 4921   2.271   6.846   4.557  0.2480  1.3033  0.6826
   36MOL0     H 4922   2.414   6.993   4.696  2.1760  0.3753  2.0758
   36MOL0     H 4923   2.527   6.857   4.719  0.7487 -0.0379 -1.2160
   36MOL0     H 4924   2.467   6.993   4.460 -1.0550 -2.2095 -1.5615
   36MOL0     H 4925   2.623   6.982   4.539  0.3265  0.6634 -2.9759
   36MOL0     H 4926   2.739   6.633   4.541 -1.0570  1.8101  1.0851
   36MOL0     H 4927   3.086   6.651   4.519 -0.2060  1.2814  0.7231
   36MOL0     H 4928   3.034   6.524   4.404  0.0065 -0.5715 -0.1703
   36MOL0     H 4929   2.945   6.555   4.560 -2.0677  2.1019 -0.8955
   36MOL0     H 4930   3.147   7.014   3.924 -0.3798  1.5009 -1.2746
   36MOL0     H 4931   3.359   7.138   3.875  1.2398  1.3792  0.6356
   36MOL0     H 4932   3.623   7.227   4.192 -1.3136 -2.2213  1.6569
   36MOL0     H 4933   3.713   7.088   4.149 -0.3242  1.8009  2.4993
   36MOL0     H 4934   3.863   7.293   4.109  2.6558 -1.2986 -1.9928
   36MOL0     H 4935   3.830   7.189   3.973  1.3152  2.1370 -0.5374
   36MOL0     H 4936   3.649   7.362   3.914 -0.1903 -0.2239  0.0394
   36MOL0     H 4937   3.812   7.427   3.914 -0.3268 -0.4074  1.3667
   36MOL0     H 4938   3.766   7.582   4.056 -0.1825 -0.0550  0.4479
   36MOL0     H 4939   3.729   7.479   4.187  1.2238  0.2221 -0.9896
   36MOL0     H 4940   3.535   7.539   3.959  0.4633 -3.5437 -1.5029
   36MOL0     H 4941   3.507   7.437   4.100  1.1037 -0.5432 -2.2605
   36MOL0     H 4942   3.592   7.720   4.118 -0.5223  0.0414  0.1483
   36MOL0     H 4943   3.481   7.629   4.239  0.9645  0.1285 -0.0288
   36MOL0     H 4944   3.286   7.667   4.109  0.2286 -0.5192 -0.7630
   36MOL0     H 4945   3.368   7.732   3.973 -0.6447  1.0180  0.3833
   36MOL0     H 4946   3.359   7.854   4.248 -0.1582  3.2946  1.3335
   36MOL0     H 4947   3.274   7.914   4.107 -0.3150 -1.1807 -0.2371
   36MOL0     H 4948   3.528   6.999   4.248 -1.9555 -1.2918  2.5435
   36MOL0     H 4949   3.330   6.872   4.295  3.2966 -1.0159 -0.3800
   36MOL0     H 4950   2.849   6.904   4.141 -0.1456 -3.1497 -0.8383
   36MOL0     H 4951   2.653   6.926   4.244  1.2314 -0.1291 -0.2477
   36MOL0     H 4952   1.676   5.705   5.465  2.6300  1.5046 -0.2941
   36MOL0     H 4953   1.477   5.714   5.627 -2.0517 -0.0693 -1.4122
   36MOL0     H 4954   1.108   5.826   5.673  0.2915  1.4377 -1.2970
   36MOL0     H 4955   0.867   5.787   5.736  3.3927 -1.0365 -0.2235
   36MOL0     H 4956   0.521   6.017   5.877 -0.4458  0.1220 -0.3218
   36MOL0     H 4957   0.652   6.123   5.810  4.1419  0.0339  2.1512
   36MOL0     H 4958   0.569   5.858   5.689  0.0539 -0.7292 -0.3695
   36MOL0     H 4959   0.677   5.979   5.615  0.6190  1.2273  1.3833
   36MOL0     H 4960   0.393   6.036   5.665  0.8691  2.2810  2.7096
   36MOL0     H 4961   0.517   6.155   5.618 -2.3532 -0.2839  0.8564
   36MOL0     H 4962   0.426   5.916   5.450 -1.1383  1.0654  0.8262
   36MOL0     H 4963   0.578   6.018   5.430  1.3095  0.8284  2.2579
   36MOL0     H 4964   0.243   6.228   5.280 -0.9223 -1.1557  0.8946
   36MOL0     H 4965   0.872   6.162   5.939 -2.9165 -1.0980 -1.7575
   36MOL0     H 4966   1.197   6.233   5.972  0.3442  0.2166 -0.7035
   36MOL0     H 4967   1.130   6.321   5.840  2.4651  2.8111  2.0163
   36MOL0     H 4968   1.032   6.305   5.974 -0.8369 -0.8572 -0.0158
   37MOL0     O 4969  10.387   1.806   5.826  0.1100  0.7588  0.2573
   37MOL0     C 4970  10.341   1.834   5.715  1.1487 -0.1200 -0.5175
   37MOL0     O 4971  10.408   1.864   5.603  0.3201  0.1807  0.6926
   37MOL0     C 4972  10.544   1.861   5.617  0.0252  0.4252  0.1693
   37MOL0     C 4973  10.599   1.741   5.576  0.4783  0.9040 -0.5911
   37MOL0     C 4974  10.741   1.727   5.592  0.1443 -0.6709 -0.1657
   37MOL0     C 4975  10.819   1.828   5.639 -0.1040  0.3651 -0.3048
   37MOL0     O 4976  10.953   1.798   5.672  0.4791 -0.2597  0.5903
   37MOL0     C 4977  11.030   1.893   5.742 -0.2833  0.3286  0.0946
   37MOL0     C 4978  11.162   1.833   5.793 -0.4003  0.2302  0.0181
   37MOL0     C 4979  11.228   1.744   5.688 -0.7074  0.2938  0.7970
   37MOL0     C 4980  11.352   1.680   5.755 -0.4312 -0.2651  0.5778
   37MOL0     C 4981  11.455   1.621   5.654  1.5888 -0.5876 -0.2429
   37MOL0     C 4982  11.579   1.585   5.732  0.2074  0.0461  0.8962
   37MOL0     C 4983  11.674   1.505   5.649 -0.4094  0.2679  0.1096
   37MOL0     C 4984  11.788   1.456   5.735  0.7069  0.2433 -0.4289
   37MOL0     N 4985  11.893   1.414   5.648  0.1171 -0.5444 -0.2191
   37MOL0     C 4986  11.876   1.323   5.546 -0.4589  0.1557  0.0873
   37MOL0     C 4987  11.994   1.316   5.490 -0.1546  0.9455 -0.1355
   37MOL0     C 4988  12.028   1.220   5.389 -0.6993 -0.6716 -0.4373
   37MOL0     C 4989  12.117   1.284   5.279  0.3003  0.2722 -0.2500
   37MOL0     C 4990  12.193   1.172   5.197  0.9245  1.1366 -0.5488
   37MOL0     C 4991  12.091   1.074   5.142 -0.0744 -0.7171  0.1316
   37MOL0     O 4992  11.975   1.147   5.094 -0.5834  0.2878  0.4877
   37MOL0     C 4993  11.846   1.087   5.095 -0.6965 -0.8527  0.4065
   37MOL0     C 4994  11.826   0.945   5.108  0.5628  0.7118  0.2256
   37MOL0     C 4995  11.693   0.893   5.118  0.1924  0.7676 -0.3733
   37MOL0     C 4996  11.678   0.746   5.143  0.1503 -0.5622 -0.9563
   37MOL0     C 4997  11.584   0.985   5.106 -0.3215 -0.3151  1.3588
   37MOL0     C 4998  11.438   0.958   5.126  0.5108  0.4531  0.8772
   37MOL0     O 4999  11.361   1.063   5.106  0.4242  0.1279  0.2810
   37MOL0     C 5000  11.226   1.068   5.122  0.9341  0.6759  0.4735
   37MOL0     C 5001  11.149   1.173   5.059 -0.5470 -0.1211  0.7757
   37MOL0     C 5002  11.008   1.182   5.065  0.3557 -0.4682 -0.3632
   37MOL0     C 5003  10.936   1.087   5.132  0.5177 -0.6003 -0.2559
   37MOL0     O 5004  10.799   1.092   5.123  0.4341  0.1387  0.6179
   37MOL0     C 5005  10.716   0.982   5.138 -0.2100  0.8178  0.8689
   37MOL0     C 5006  10.565   1.016   5.141  0.4410 -0.6900  0.8482
   37MOL0     C 5007  10.549   1.110   5.250 -0.2958  0.6010  0.5367
   37MOL0     C 5008  10.408   1.167   5.273 -0.0414  0.1779  0.3582
   37MOL0     C 5009  10.299   1.063   5.276  0.5981 -0.3210 -0.3813
   37MOL0     C 5010  10.172   1.085   5.356  0.7442  0.5345 -0.1507
   37MOL0     C 5011  10.076   0.958   5.361  0.3640 -0.0782  0.1416
   37MOL0     C 5012   9.953   0.997   5.445 -0.7005  0.2490  0.4864
   37MOL0    Cl 5013   9.797   0.915   5.394 -0.1134 -0.0251  0.2650
   37MOL0     C 5014  11.005   0.990   5.197 -0.2962  0.0445  0.1233
   37MOL0     C 5015  11.141   0.980   5.192 -0.1267  0.5795  0.2460
   37MOL0     O 5016  11.399   0.843   5.147  0.9577 -0.5645 -0.1949
   37MOL0     C 5017  11.615   1.125   5.079  0.1531  0.2450  0.7587
   37MOL0     C 5018  11.739   1.171   5.077 -0.3991  0.3556  0.3478
   37MOL0     N 5019  12.079   1.403   5.554 -0.3106  0.2661 -0.5851
   37MOL0     N 5020  12.014   1.469   5.640  0.5929 -0.4502 -0.4747
   37MOL0     C 5021  10.754   1.947   5.678  0.1184 -0.0157  0.2263
   37MOL0     C 5022  10.619   1.964   5.674  0.0145 -0.5106  0.2077
   37MOL0     C 5023  10.190   1.836   5.711  0.1274 -0.2978  0.4880
   37MOL0     C 5024  10.138   1.886   5.584 -0.0694  0.3825  0.7289
   37MOL0     C 5025   9.995   1.870   5.552 -1.0768  0.3441  0.0220
   37MOL0     C 5026   9.907   1.810   5.648  0.6213 -0.5468 -1.2175
   37MOL0     O 5027   9.772   1.789   5.621 -0.5189 -0.5006 -0.2953
   37MOL0     C 5028   9.669   1.832   5.712  0.0677  0.2598 -0.6569
   37MOL0     C 5029   9.670   1.988   5.737 -0.3522 -0.1425  0.3832
   37MOL0     C 5030   9.556   2.024   5.823 -0.8614 -0.1480  0.0330
   37MOL0     C 5031   9.588   2.011   5.972  0.2387 -0.0349 -0.0730
   37MOL0     C 5032   9.659   2.132   6.021  0.3362 -0.3679 -0.3367
   37MOL0     C 5033   9.720   2.237   6.047 -0.3665  0.6869  0.7984
   37MOL0     C 5034   9.957   1.773   5.772  0.0137  0.7130 -0.4674
   37MOL0     C 5035  10.088   1.786   5.806 -0.2383  0.0694 -0.1070
   37MOL0     C 5036  10.128   1.743   5.940  0.6423  0.1693 -0.5861
   37MOL0     H 5037  10.527   1.676   5.529 -0.8113  1.2022  0.8932
   37MOL0     H 5038  10.791   1.632   5.582  1.1847 -0.6092  3.0538
   37MOL0     H 5039  10.979   1.940   5.826 -0.8241  1.6173 -0.9080
   37MOL0     H 5040  11.057   1.975   5.674 -1.8553  1.0873  0.3248
   37MOL0     H 5041  11.224   1.919   5.820 -0.3938  0.5187 -0.8792
   37MOL0     H 5042  11.139   1.781   5.886 -1.3750  0.8380  0.1392
   37MOL0     H 5043  11.173   1.660   5.645  2.1501 -0.3972 -1.8536
   37MOL0     H 5044  11.262   1.808   5.606  1.2951 -0.6335  0.8575
   37MOL0     H 5045  11.398   1.761   5.812  1.0913  1.9756 -3.4165
   37MOL0     H 5046  11.314   1.601   5.819  0.9582 -2.0297 -0.6504
   37MOL0     H 5047  11.486   1.690   5.576  1.6976  0.3085  0.5746
   37MOL0     H 5048  11.412   1.535   5.601  3.9342 -1.1200 -1.3673
   37MOL0     H 5049  11.612   1.683   5.768  0.2376  0.8538 -1.1956
   37MOL0     H 5050  11.557   1.514   5.812 -1.1965 -0.5427  0.0314
   37MOL0     H 5051  11.719   1.575   5.578 -0.2264  0.0399  0.0012
   37MOL0     H 5052  11.629   1.418   5.602 -2.6338  0.5874  1.4990
   37MOL0     H 5053  11.821   1.533   5.806 -1.5696  1.0885 -0.2286
   37MOL0     H 5054  11.757   1.370   5.796 -3.9171  4.0795  3.4163
   37MOL0     H 5055  11.779   1.283   5.518 -0.4363 -1.2454  1.8317
   37MOL0     H 5056  11.932   1.186   5.347 -1.1448  1.0995 -0.9465
   37MOL0     H 5057  12.080   1.144   5.447  0.4843  0.1487 -0.3991
   37MOL0     H 5058  12.056   1.351   5.217  0.4647 -0.3202 -1.0664
   37MOL0     H 5059  12.194   1.352   5.315  0.7593  1.3950 -3.1289
   37MOL0     H 5060  12.245   1.215   5.112  0.6101  2.5934 -0.0381
   37MOL0     H 5061  12.274   1.123   5.251 -0.3891 -2.1509 -1.3500
   37MOL0     H 5062  12.138   1.025   5.056  2.2512  3.1202 -1.0468
   37MOL0     H 5063  12.065   1.000   5.219 -1.6307 -0.4970 -0.1575
   37MOL0     H 5064  11.907   0.874   5.122  0.4018  0.3713 -0.5127
   37MOL0     H 5065  11.773   0.699   5.115  0.9778  0.7607 -0.4648
   37MOL0     H 5066  11.606   0.702   5.073 -0.9097 -0.7117  0.1945
   37MOL0     H 5067  11.650   0.720   5.245 -0.5205 -0.1343 -1.0214
   37MOL0     H 5068  11.193   1.246   4.992 -0.4045 -3.3608 -3.0279
   37MOL0     H 5069  10.957   1.257   5.006  1.2432 -1.2346 -2.1844
   37MOL0     H 5070  10.738   0.916   5.054  0.5446  3.4558 -1.1244
   37MOL0     H 5071  10.755   0.928   5.225  3.1691 -0.3862 -1.2109
   37MOL0     H 5072  10.537   1.072   5.051 -0.9662  0.1066  1.7556
   37MOL0     H 5073  10.510   0.922   5.152 -0.0744 -0.1137  4.6093
   37MOL0     H 5074  10.622   1.189   5.231  0.0300  0.0161 -0.7734
   37MOL0     H 5075  10.572   1.057   5.343 -2.3603 -2.1064 -0.3569
   37MOL0     H 5076  10.380   1.242   5.199 -3.4909 -1.2860 -0.0063
   37MOL0     H 5077  10.412   1.217   5.370 -0.0132  2.2968 -0.6769
   37MOL0     H 5078  10.266   1.021   5.180  0.2850 -2.1551  0.4788
   37MOL0     H 5079  10.352   0.981   5.325  1.4656 -0.8226 -2.0772
   37MOL0     H 5080  10.120   1.165   5.301  2.9004  2.0952 -0.0278
   37MOL0     H 5081  10.182   1.109   5.462 -1.4017  0.2548  0.1650
   37MOL0     H 5082  10.127   0.868   5.396  1.1585  0.9798  1.8259
   37MOL0     H 5083  10.035   0.931   5.263  0.5133  0.4511 -0.0694
   37MOL0     H 5084   9.945   1.106   5.435 -1.9504  0.2463  1.2834
   37MOL0     H 5085   9.972   0.957   5.545 -0.1215 -2.5800 -0.6618
   37MOL0     H 5086  10.953   0.914   5.255 -3.1220  3.0321  1.9121
   37MOL0     H 5087  11.188   0.896   5.243 -2.2455 -0.6869  0.2844
   37MOL0     H 5088  11.537   1.200   5.077  0.3741  0.4724 -1.4638
   37MOL0     H 5089  11.759   1.274   5.048 -0.1392 -0.4618 -2.7409
   37MOL0     H 5090  10.806   2.032   5.722 -0.1054 -0.1560  0.7649
   37MOL0     H 5091  10.568   2.054   5.704 -0.4926 -1.3023  1.8731
   37MOL0     H 5092  10.204   1.931   5.510  1.2567 -2.0060  0.3699
   37MOL0     H 5093   9.956   1.917   5.462 -0.7449 -0.4391 -0.5432
   37MOL0     H 5094   9.583   1.795   5.657  3.0041 -1.5563 -4.5011
   37MOL0     H 5095   9.685   1.765   5.797  2.1967 -2.4240 -2.9570
   37MOL0     H 5096   9.647   2.037   5.642  1.3077 -3.4026 -1.9207
   37MOL0     H 5097   9.757   2.032   5.787 -0.8813 -0.6411  1.7797
   37MOL0     H 5098   9.532   2.131   5.817 -1.9331 -0.3392  0.6159
   37MOL0     H 5099   9.470   1.960   5.802  0.0790 -1.5211  0.2416
   37MOL0     H 5100   9.652   1.929   6.004  0.0298 -0.1439  0.0677
   37MOL0     H 5101   9.493   1.996   6.026  0.3078  2.5530  0.9229
   37MOL0     H 5102   9.771   2.328   6.073  2.1806  0.2773 -2.1867
   37MOL0     H 5103   9.889   1.723   5.840 -1.2100 -2.2779 -3.5625
   37MOL0     H 5104  10.179   1.646   5.931  0.5312 -0.0538  0.9533
   37MOL0     H 5105  10.200   1.808   5.989  1.0540 -1.5094  1.1439
   37MOL0     H 5106  10.050   1.730   6.015  2.1533  1.9017  1.3955
   38MOL0     O 5107   9.237   7.719   1.301 -0.9229  0.0145 -0.3021
   38MOL0     C 5108   9.213   7.598   1.317  0.3837 -0.3988 -0.5775
   38MOL0     O 5109   9.309   7.511   1.348 -0.1414 -0.0617 -0.1884
   38MOL0     C 5110   9.440   7.540   1.336 -0.5027 -0.4787 -0.2312
   38MOL0     C 5111   9.497   7.557   1.212 -0.1648 -0.1555 -0.2884
   38MOL0     C 5112   9.629   7.598   1.189  0.3224  0.3720 -0.1263
   38MOL0     C 5113   9.713   7.605   1.295 -0.3748  0.9596 -0.5433
   38MOL0     O 5114   9.846   7.622   1.301  0.5216  0.6470  0.7206
   38MOL0     C 5115   9.903   7.688   1.184 -0.4690  0.6722 -0.2129
   38MOL0     C 5116  10.048   7.667   1.181 -0.2630  0.8508 -0.2905
   38MOL0     C 5117  10.088   7.520   1.186  0.4790 -0.2755  0.3318
   38MOL0     C 5118  10.230   7.490   1.146 -0.3214  1.0056  0.5720
   38MOL0     C 5119  10.269   7.344   1.196  0.2960 -0.0715 -0.2300
   38MOL0     C 5120  10.193   7.234   1.118 -0.0355  0.1733  0.0638
   38MOL0     C 5121  10.239   7.098   1.164  0.5876 -0.6725  0.4673
   38MOL0     C 5122  10.165   7.046   1.289  0.4254 -0.3133  0.6922
   38MOL0     N 5123  10.021   7.046   1.271 -0.5821 -0.8713 -0.1055
   38MOL0     C 5124   9.938   7.040   1.380 -0.0709  0.1219  0.1907
   38MOL0     C 5125   9.813   7.018   1.328  0.1054  0.1839 -0.2710
   38MOL0     C 5126   9.689   6.983   1.410 -0.4852  0.1046 -0.2694
   38MOL0     C 5127   9.626   7.110   1.472  0.1295 -0.3731 -0.1953
   38MOL0     C 5128   9.500   7.073   1.531  0.7060  0.3574 -0.4720
   38MOL0     C 5129   9.414   7.196   1.567  0.2574 -0.0310 -0.5327
   38MOL0     O 5130   9.296   7.137   1.638  0.1829 -0.3361 -0.5414
   38MOL0     C 5131   9.196   7.231   1.671 -0.9144 -0.7685  0.1926
   38MOL0     C 5132   9.213   7.363   1.689 -0.2931  0.0140 -0.5888
   38MOL0     C 5133   9.102   7.435   1.733  0.0675 -0.2683  0.2254
   38MOL0     C 5134   9.131   7.590   1.736  0.4770  0.2748  0.9298
   38MOL0     C 5135   8.974   7.382   1.749  0.6684 -0.1958 -0.0645
   38MOL0     C 5136   8.852   7.454   1.792  0.1679  0.6513  0.0994
   38MOL0     O 5137   8.829   7.579   1.749  0.0720  0.0864 -0.2367
   38MOL0     C 5138   8.709   7.639   1.788 -1.2324  0.2669 -0.3887
   38MOL0     C 5139   8.593   7.606   1.723 -0.1656 -0.1353 -0.3074
   38MOL0     C 5140   8.469   7.680   1.757 -0.8051  0.3436 -0.0085
   38MOL0     C 5141   8.463   7.767   1.865 -0.4004 -0.8102  0.1880
   38MOL0     O 5142   8.351   7.830   1.923  0.7704  0.5266 -0.2809
   38MOL0     C 5143   8.219   7.776   1.904  0.0030  0.0299 -0.0105
   38MOL0     C 5144   8.190   7.651   1.998 -1.0258  0.1224 -0.3323
   38MOL0     C 5145   8.048   7.577   1.986 -0.5791 -0.3522 -0.1344
   38MOL0     C 5146   7.960   7.640   2.089  0.2607 -0.1391 -0.1045
   38MOL0     C 5147   7.827   7.565   2.090 -0.4185 -0.6651 -0.5227
   38MOL0     C 5148   7.820   7.443   2.180  0.2923  0.1395 -0.3992
   38MOL0     C 5149   7.681   7.385   2.221  0.3361  0.4153 -0.2838
   38MOL0     C 5150   7.694   7.240   2.264 -0.2267 -0.0093  0.1094
   38MOL0    Cl 5151   7.729   7.140   2.119 -0.0174  0.3211 -0.1140
   38MOL0     C 5152   8.583   7.794   1.924 -0.2480  0.4786 -0.4559
   38MOL0     C 5153   8.708   7.742   1.887  0.5594  1.2173 -0.2620
   38MOL0     O 5154   8.778   7.383   1.860  0.4031 -0.7685 -0.1077
   38MOL0     C 5155   8.962   7.242   1.731 -0.1419  0.2256  0.7300
   38MOL0     C 5156   9.074   7.165   1.698  0.3643  0.1915 -0.2953
   38MOL0     N 5157   9.831   7.007   1.190 -0.2556 -0.3918  0.3860
   38MOL0     N 5158   9.954   7.021   1.158 -0.2401 -0.9624 -0.2119
   38MOL0     C 5159   9.653   7.567   1.422 -0.9608  0.7892 -0.4967
   38MOL0     C 5160   9.524   7.553   1.444  0.3263  0.4174  0.0763
   38MOL0     C 5161   9.073   7.558   1.334 -0.1430  0.1970  0.4091
   38MOL0     C 5162   9.045   7.435   1.389  0.9766 -0.7132 -0.3083
   38MOL0     C 5163   8.920   7.390   1.420  0.3117 -0.7081 -0.0554
   38MOL0     C 5164   8.811   7.470   1.383 -1.0719 -1.4312  0.5613
   38MOL0     O 5165   8.675   7.447   1.391  0.2403 -0.0347 -0.1389
   38MOL0     C 5166   8.659   7.320   1.460  0.0731 -0.8928 -0.5525
   38MOL0     C 5167   8.507   7.297   1.488  0.2967 -0.0928  0.0261
   38MOL0     C 5168   8.453   7.206   1.384  1.1333  0.2931 -1.0661
   38MOL0     C 5169   8.305   7.168   1.399 -0.4524  0.0620 -0.8417
   38MOL0     C 5170   8.226   7.290   1.381  0.3737  0.3708 -0.4802
   38MOL0     C 5171   8.148   7.384   1.376 -0.7654 -0.1380  0.6430
   38MOL0     C 5172   8.837   7.595   1.331  0.1048  0.4249 -0.0115
   38MOL0     C 5173   8.962   7.637   1.296 -0.1038 -0.5503 -0.4133
   38MOL0     C 5174   8.971   7.773   1.232 -0.5472 -0.3665 -0.3835
   38MOL0     H 5175   9.436   7.543   1.124 -0.2494  1.5723 -0.5383
   38MOL0     H 5176   9.652   7.614   1.085 -1.2575 -3.1053 -1.1687
   38MOL0     H 5177   9.876   7.793   1.198 -0.4367  1.1475 -3.1478
   38MOL0     H 5178   9.857   7.653   1.091  0.3291 -0.6589 -0.1258
   38MOL0     H 5179  10.099   7.707   1.093 -0.1273 -1.0989 -1.1430
   38MOL0     H 5180  10.096   7.711   1.269  0.9376 -1.9163  0.5401
   38MOL0     H 5181  10.086   7.502   1.294  3.3150 -1.8427  0.2192
   38MOL0     H 5182  10.015   7.456   1.136 -1.6396  1.6766  0.7386
   38MOL0     H 5183  10.240   7.499   1.037 -1.4089  4.9175  0.6338
   38MOL0     H 5184  10.297   7.564   1.191  1.7798 -0.9250  0.8090
   38MOL0     H 5185  10.235   7.340   1.300  2.7745  3.1412  0.8964
   38MOL0     H 5186  10.376   7.320   1.195 -0.0085 -1.8244  1.6095
   38MOL0     H 5187  10.085   7.242   1.129  0.0050 -0.8787  1.4143
   38MOL0     H 5188  10.219   7.247   1.012  0.2417  0.9535  0.2202
   38MOL0     H 5189  10.342   7.096   1.199  0.7779 -1.6957 -0.1385
   38MOL0     H 5190  10.218   7.029   1.081  1.1594 -0.0100 -0.2405
   38MOL0     H 5191  10.194   6.940   1.294  0.6593 -0.7240 -4.5204
   38MOL0     H 5192  10.201   7.096   1.379  1.4225  1.0338 -0.4181
   38MOL0     H 5193   9.968   7.031   1.484  2.9084  1.4840 -0.4507
   38MOL0     H 5194   9.720   6.903   1.479  0.3980  1.1153  0.5511
   38MOL0     H 5195   9.613   6.944   1.341 -0.5979 -1.6482  0.7678
   38MOL0     H 5196   9.693   7.138   1.554  1.3961 -0.9005 -1.0105
   38MOL0     H 5197   9.615   7.193   1.401  1.0024 -1.1607 -1.2954
   38MOL0     H 5198   9.440   7.015   1.461  0.7069 -0.3019  0.0728
   38MOL0     H 5199   9.505   7.013   1.622 -0.0444  0.3253 -0.4519
   38MOL0     H 5200   9.477   7.267   1.622  0.4158 -0.5810  0.0137
   38MOL0     H 5201   9.371   7.252   1.483 -1.5855 -0.9144 -0.2122
   38MOL0     H 5202   9.307   7.416   1.678  0.3285 -1.2120 -1.3257
   38MOL0     H 5203   9.112   7.644   1.830 -4.5570  2.3104 -0.9240
   38MOL0     H 5204   9.063   7.624   1.657  1.0637 -2.9627 -1.1526
   38MOL0     H 5205   9.232   7.603   1.696 -0.4879  0.0665 -1.7678
   38MOL0     H 5206   8.600   7.539   1.638  0.3960 -2.2270  1.3098
   38MOL0     H 5207   8.376   7.658   1.704 -0.6935  1.6900 -0.8174
   38MOL0     H 5208   8.146   7.854   1.928  1.0320  1.2323 -0.6593
   38MOL0     H 5209   8.207   7.751   1.798  0.4474  0.8251 -0.2533
   38MOL0     H 5210   8.260   7.576   1.961 -1.4032 -0.5732  0.3365
   38MOL0     H 5211   8.217   7.661   2.103 -2.6063 -3.7849  0.6208
   38MOL0     H 5212   8.068   7.470   1.999  1.1540 -0.1760 -0.9788
   38MOL0     H 5213   8.002   7.581   1.887 -1.1150  1.1174  0.1608
   38MOL0     H 5214   7.940   7.747   2.079  0.3186 -0.0382  0.7505
   38MOL0     H 5215   7.996   7.635   2.193  1.5681 -0.7519 -0.5720
   38MOL0     H 5216   7.754   7.643   2.112  2.6798  1.9375  1.3461
   38MOL0     H 5217   7.795   7.522   1.994 -1.1171 -0.4067 -0.4105
   38MOL0     H 5218   7.883   7.460   2.268 -0.5001  2.1213 -0.1853
   38MOL0     H 5219   7.870   7.365   2.121  1.6891  1.6797 -1.3189
   38MOL0     H 5220   7.618   7.399   2.133 -1.6412  1.5555  1.2250
   38MOL0     H 5221   7.629   7.435   2.304 -0.9059  1.0314 -1.3932
   38MOL0     H 5222   7.605   7.200   2.311 -0.3241 -2.4532 -1.9424
   38MOL0     H 5223   7.783   7.230   2.327  1.9930  1.4052 -2.5236
   38MOL0     H 5224   8.576   7.869   2.002 -1.7484  1.6585 -1.6560
   38MOL0     H 5225   8.803   7.746   1.939 -0.7015 -1.1850  2.4972
   38MOL0     H 5226   8.870   7.185   1.741  2.0013 -3.8571 -0.4725
   38MOL0     H 5227   9.076   7.057   1.698 -1.0783  0.0980  1.6891
   38MOL0     H 5228   9.717   7.555   1.508  0.3311 -1.2775 -1.6596
   38MOL0     H 5229   9.494   7.519   1.543 -0.8269 -3.6165 -1.4537
   38MOL0     H 5230   9.118   7.356   1.407 -0.7844 -3.1689 -2.9718
   38MOL0     H 5231   8.904   7.285   1.445  3.5318 -1.7991 -1.9585
   38MOL0     H 5232   8.699   7.236   1.402 -1.3809 -0.9861 -1.4777
   38MOL0     H 5233   8.695   7.320   1.563 -1.7458  0.7754  0.1271
   38MOL0     H 5234   8.443   7.386   1.489 -1.1437 -1.0773  1.7547
   38MOL0     H 5235   8.508   7.242   1.582 -1.5092 -0.2448 -0.0151
   38MOL0     H 5236   8.473   7.251   1.287 -0.0685  1.5556 -0.7649
   38MOL0     H 5237   8.509   7.115   1.406 -0.3295  0.3093  3.9508
   38MOL0     H 5238   8.284   7.118   1.494 -0.4217 -1.5283 -1.6326
   38MOL0     H 5239   8.287   7.092   1.322  3.3337 -3.4672  1.3721
   38MOL0     H 5240   8.079   7.466   1.376  0.1563  0.7730 -2.0230
   38MOL0     H 5241   8.756   7.664   1.310  0.0938  0.3249 -0.2992
   38MOL0     H 5242   9.027   7.845   1.292  2.4141 -4.1031  1.7156
   38MOL0     H 5243   9.022   7.776   1.136 -0.6067  1.6676 -0.3867
   38MOL0     H 5244   8.873   7.815   1.207  1.3389  2.6611 -3.4919
   39MOL0     O 5245   5.536   0.912  10.283 -0.2625  0.5604  0.3450
   39MOL0     C 5246   5.546   0.905  10.165 -0.2306 -0.1507  0.1966
   39MOL0     O 5247   5.653   0.936  10.094  0.0857 -0.5078  0.5736
   39MOL0     C 5248   5.776   0.964  10.144  0.1613 -0.7944  0.0994
   39MOL0     C 5249   5.850   1.074  10.097  0.3931 -0.4514  0.8288
   39MOL0     C 5250   5.988   1.088  10.157  0.5922 -0.5076 -0.2221
   39MOL0     C 5251   6.037   0.995  10.246 -0.4426 -0.3294 -0.4131
   39MOL0     O 5252   6.177   1.004  10.258 -0.2140  0.4987  0.2566
   39MOL0     C 5253   6.234   0.915  10.350 -0.6054 -0.4380  0.0902
   39MOL0     C 5254   6.369   0.974  10.379 -0.6566 -0.1754  0.2376
   39MOL0     C 5255   6.478   0.911  10.295  0.6100  0.4384  1.1715
   39MOL0     C 5256   6.608   0.913  10.371  0.2488 -0.4482 -0.4287
   39MOL0     C 5257   6.742   0.909  10.280  0.1104  0.8605  0.3698
   39MOL0     C 5258   6.857   0.902  10.367  0.1312 -0.5947 -0.6825
   39MOL0     C 5259   6.990   0.928  10.290  0.7968 -0.0101 -0.4115
   39MOL0     C 5260   7.061   0.789  10.267 -1.0295 -0.5155  0.2621
   39MOL0     N 5261   7.174   0.790  10.180 -0.0959 -0.0430  0.3077
   39MOL0     C 5262   7.296   0.831  10.226  0.0426 -0.4493 -0.1502
   39MOL0     C 5263   7.376   0.823  10.119  0.8686  0.5235 -0.1868
   39MOL0     C 5264   7.505   0.894  10.120 -0.3513  0.5937  0.2488
   39MOL0     C 5265   7.619   0.834  10.215  0.8773  1.1253 -0.0129
   39MOL0     C 5266   7.601   0.684  10.232  0.1678  0.9976  0.6524
   39MOL0     C 5267   7.726   0.618  10.293  0.3231  0.1855 -0.7563
   39MOL0     O 5268   7.734   0.671  10.428  0.1489 -0.6573 -0.0528
   39MOL0     C 5269   7.858   0.654  10.490  0.1588  0.2922 -0.9963
   39MOL0     C 5270   7.956   0.553  10.467  0.8765 -0.7545 -0.3434
   39MOL0     C 5271   8.078   0.546  10.536  0.5868 -1.1618  0.3675
   39MOL0     C 5272   8.181   0.455  10.477  0.7777 -0.3574 -1.0064
   39MOL0     C 5273   8.093   0.640  10.644  0.8800  0.4273  0.5485
   39MOL0     C 5274   8.224   0.633  10.720 -0.2984 -0.1625 -0.0286
   39MOL0     O 5275   8.271   0.752  10.764  0.3372  0.3231  0.6063
   39MOL0     C 5276   8.400   0.773  10.814 -0.3187  0.0866  0.6124
   39MOL0     C 5277   8.415   0.846  10.931  0.0989 -0.1806 -0.4413
   39MOL0     C 5278   8.541   0.867  10.996  0.1664 -0.6172  0.7893
   39MOL0     C 5279   8.656   0.821  10.925 -0.1780 -0.2351 -0.5369
   39MOL0     O 5280   8.779   0.827  10.979 -0.3766 -0.1020  0.0045
   39MOL0     C 5281   8.815   0.857  11.113 -0.1839 -0.0614  0.3437
   39MOL0     C 5282   8.951   0.790  11.142 -1.0880 -0.5307  0.9487
   39MOL0     C 5283   8.962   0.647  11.123 -0.3420  0.0474  0.1653
   39MOL0     C 5284   9.088   0.601  11.184  0.1057 -0.1603  0.4801
   39MOL0     C 5285   9.213   0.653  11.124  0.9717 -0.4279 -0.2997
   39MOL0     C 5286   9.233   0.656  10.970  0.0659  0.0338 -0.6205
   39MOL0     C 5287   9.215   0.516  10.905 -0.1040  0.5951 -0.0016
   39MOL0     C 5288   9.287   0.505  10.765 -0.0372 -1.0623 -1.2213
   39MOL0    Cl 5289   9.299   0.344  10.706  0.0988 -0.2327  0.2635
   39MOL0     C 5290   8.648   0.755  10.799 -0.5384 -0.1623 -0.4043
   39MOL0     C 5291   8.521   0.733  10.750  0.2485 -0.3466  0.0571
   39MOL0     O 5292   8.290   0.532  10.728 -0.0705  0.1739 -1.3530
   39MOL0     C 5293   7.996   0.743  10.674 -0.2188  0.3170  0.0888
   39MOL0     C 5294   7.888   0.748  10.597  0.2693 -0.1452  0.4381
   39MOL0     N 5295   7.303   0.764  10.011  1.1294 -1.3590  0.4296
   39MOL0     N 5296   7.180   0.753  10.048  0.2425 -0.2146 -0.4728
   39MOL0     C 5297   5.953   0.903  10.305 -0.1792 -0.0063  1.2852
   39MOL0     C 5298   5.829   0.881  10.243 -0.3440  0.2718  0.0374
   39MOL0     C 5299   5.427   0.847  10.085  0.4777  0.3503 -0.4985
   39MOL0     C 5300   5.386   0.919   9.978 -0.8610  0.4768  0.8451
   39MOL0     C 5301   5.281   0.876   9.894 -0.7952 -0.1168  0.4817
   39MOL0     C 5302   5.196   0.771   9.932  0.2009 -0.0839  0.0068
   39MOL0     O 5303   5.088   0.724   9.867  0.2156  0.3569 -0.4316
   39MOL0     C 5304   5.037   0.807   9.767 -0.1341  0.6100  0.3268
   39MOL0     C 5305   4.914   0.739   9.699 -0.8508  0.0983 -1.1160
   39MOL0     C 5306   4.851   0.836   9.589 -0.3884 -0.7522  0.0972
   39MOL0     C 5307   4.743   0.780   9.495  0.3125  0.5749  0.5936
   39MOL0     C 5308   4.625   0.738   9.575 -0.4118 -0.0356 -0.7218
   39MOL0     C 5309   4.534   0.692   9.641 -0.0248 -0.5714 -0.1104
   39MOL0     C 5310   5.241   0.693  10.043 -0.1815  0.2514  0.8425
   39MOL0     C 5311   5.355   0.725  10.113  0.3091  0.1458 -0.4289
   39MOL0     C 5312   5.398   0.630  10.227  0.3264  0.0531  0.0036
   39MOL0     H 5313   5.820   1.140  10.016  2.0261  0.1613  0.6892
   39MOL0     H 5314   6.055   1.167  10.123  3.6158 -2.5918  0.5641
   39MOL0     H 5315   6.238   0.814  10.311  1.0594 -0.7427  0.9251
   39MOL0     H 5316   6.176   0.913  10.443 -2.3726 -1.9784 -1.0032
   39MOL0     H 5317   6.371   1.083  10.367 -0.3333 -0.1622  0.4143
   39MOL0     H 5318   6.397   0.939  10.478  1.6773 -2.4222 -1.1269
   39MOL0     H 5319   6.456   0.816  10.245  0.3885  0.6524  0.8600
   39MOL0     H 5320   6.489   0.979  10.210 -0.8704 -0.5597  0.1388
   39MOL0     H 5321   6.622   1.004  10.430  3.0197  0.8860 -2.9201
   39MOL0     H 5322   6.603   0.834  10.447  5.3067 -1.7738 -1.1011
   39MOL0     H 5323   6.745   0.988  10.205  1.1493  1.2320  0.7769
   39MOL0     H 5324   6.739   0.814  10.227 -2.0811  1.4441 -0.6268
   39MOL0     H 5325   6.844   0.977  10.445 -0.9689  1.0926 -2.4250
   39MOL0     H 5326   6.855   0.806  10.420 -2.4660  0.3767  1.1443
   39MOL0     H 5327   7.064   0.979  10.354  2.0950  1.5265 -2.9722
   39MOL0     H 5328   6.981   0.983  10.196  0.4942 -0.9048 -0.9212
   39MOL0     H 5329   7.101   0.754  10.363  0.1408 -0.1395 -0.0761
   39MOL0     H 5330   6.986   0.730  10.212 -3.3274  5.1327 -3.6107
   39MOL0     H 5331   7.319   0.879  10.320  0.8398 -2.0569  0.5123
   39MOL0     H 5332   7.483   0.998  10.148  0.0018  1.0422 -1.0596
   39MOL0     H 5333   7.549   0.889  10.020  1.9584  0.6377  1.2142
   39MOL0     H 5334   7.714   0.856  10.166  0.8164 -0.2002 -0.7759
   39MOL0     H 5335   7.607   0.886  10.311  2.4547  1.7598 -0.1337
   39MOL0     H 5336   7.515   0.675  10.298  0.5040  0.1942  0.9870
   39MOL0     H 5337   7.578   0.639  10.135 -0.2378 -1.1193  1.6925
   39MOL0     H 5338   7.707   0.511  10.295 -2.8716  0.6639  0.0236
   39MOL0     H 5339   7.811   0.651  10.232 -0.7627  0.9094 -1.9170
   39MOL0     H 5340   7.925   0.488  10.386 -0.8026 -0.9210  0.3804
   39MOL0     H 5341   8.283   0.467  10.512  1.1613  2.7590 -2.8092
   39MOL0     H 5342   8.188   0.468  10.369  1.1086 -0.4716 -0.9975
   39MOL0     H 5343   8.137   0.356  10.493  0.5770  0.0153  1.0243
   39MOL0     H 5344   8.325   0.876  10.984 -0.2267 -0.5555 -0.7696
   39MOL0     H 5345   8.553   0.922  11.089  2.4998 -0.5285  0.5022
   39MOL0     H 5346   8.832   0.965  11.121  1.6053 -0.3028  0.0303
   39MOL0     H 5347   8.741   0.813  11.180 -0.6725 -1.1953 -0.8872
   39MOL0     H 5348   9.028   0.845  11.088 -0.8875  1.4385  3.0764
   39MOL0     H 5349   8.959   0.816  11.248  0.9568 -0.1106  0.7160
   39MOL0     H 5350   8.952   0.613  11.020  0.8087  2.2571 -0.7277
   39MOL0     H 5351   8.877   0.592  11.165 -0.8921 -0.9907 -2.1803
   39MOL0     H 5352   9.085   0.492  11.168  1.4055 -0.2696  0.8885
   39MOL0     H 5353   9.084   0.626  11.290 -2.5149 -0.6152  0.5566
   39MOL0     H 5354   9.236   0.753  11.162  1.1778 -0.6203  0.0957
   39MOL0     H 5355   9.289   0.585  11.164  1.1415 -1.8869 -2.9180
   39MOL0     H 5356   9.323   0.715  10.948 -1.0834  1.7299 -0.8906
   39MOL0     H 5357   9.157   0.724  10.931 -1.2509 -0.0265  1.6398
   39MOL0     H 5358   9.109   0.489  10.898 -0.1591  1.1825 -2.0603
   39MOL0     H 5359   9.261   0.450  10.979 -1.7783 -0.5941  0.0419
   39MOL0     H 5360   9.384   0.554  10.777 -1.0801  0.4035  3.0422
   39MOL0     H 5361   9.241   0.568  10.689  1.9483  1.2193 -0.6719
   39MOL0     H 5362   8.739   0.717  10.754 -0.5453  0.6383 -1.1079
   39MOL0     H 5363   8.511   0.677  10.658 -0.3586  0.2685 -0.2609
   39MOL0     H 5364   8.007   0.816  10.753 -0.0196 -0.1612  0.5058
   39MOL0     H 5365   7.824   0.833  10.617 -0.2050  0.1770 -2.0430
   39MOL0     H 5366   5.990   0.829  10.375  1.5604  1.0777  1.5748
   39MOL0     H 5367   5.786   0.786  10.275  2.4224 -0.7047  1.1499
   39MOL0     H 5368   5.446   1.001   9.939  0.2066  0.0411  1.5082
   39MOL0     H 5369   5.268   0.928   9.800  1.4904 -2.9726 -1.5992
   39MOL0     H 5370   5.011   0.906   9.803  0.5118  1.2990 -1.0159
   39MOL0     H 5371   5.117   0.805   9.692  0.7143 -1.8769  1.1717
   39MOL0     H 5372   4.834   0.719   9.772 -0.1262 -2.6411 -0.9718
   39MOL0     H 5373   4.941   0.640   9.662  2.8249  0.6086 -0.1440
   39MOL0     H 5374   4.811   0.928   9.632  1.9698  1.1784 -1.5752
   39MOL0     H 5375   4.936   0.867   9.528  1.1444 -0.2030  2.3810
   39MOL0     H 5376   4.775   0.685   9.451  0.4802 -0.1737  2.2575
   39MOL0     H 5377   4.708   0.851   9.420 -2.2455  0.1036  1.2188
   39MOL0     H 5378   4.450   0.647   9.691  0.7744 -1.7134  0.2567
   39MOL0     H 5379   5.192   0.600  10.070  0.6145 -1.1610 -2.1393
   39MOL0     H 5380   5.326   0.551  10.250  0.0683  0.4566  0.6108
   39MOL0     H 5381   5.492   0.586  10.192  0.3800  0.8519 -0.9216
   39MOL0     H 5382   5.416   0.683  10.321 -0.5124 -0.8110  0.6784
   40MOL0     O 5383   4.869   3.600   5.539  0.3726 -0.8566 -0.8020
   40MOL0     C 5384   4.813   3.662   5.629  0.0657 -0.6030  0.3715
   40MOL0     O 5385   4.881   3.731   5.719 -0.1671  0.0470  0.1308
   40MOL0     C 5386   4.987   3.665   5.784 -0.1961 -0.4863 -0.3152
   40MOL0     C 5387   5.084   3.748   5.848  0.0938 -0.8002  1.1063
   40MOL0     C 5388   5.197   3.689   5.914  0.0474  0.0075 -0.7960
   40MOL0     C 5389   5.202   3.550   5.935  0.4813 -0.2807  0.5425
   40MOL0     O 5390   5.289   3.482   6.019  0.3810  0.3011 -0.1160
   40MOL0     C 5391   5.286   3.521   6.161  0.4580 -0.3196 -0.5686
   40MOL0     C 5392   5.406   3.463   6.231  0.5409 -0.4092 -0.8827
   40MOL0     C 5393   5.404   3.466   6.379  0.7627  0.5140 -0.8530
   40MOL0     C 5394   5.523   3.397   6.444  1.0420 -0.3001 -0.0816
   40MOL0     C 5395   5.508   3.418   6.596 -0.1682 -0.0512 -0.6049
   40MOL0     C 5396   5.635   3.360   6.673  0.1945  0.5459 -0.3033
   40MOL0     C 5397   5.619   3.370   6.819  0.3087 -0.1424 -1.1539
   40MOL0     C 5398   5.754   3.342   6.888  0.9527 -0.1736 -0.5033
   40MOL0     N 5399   5.748   3.357   7.035 -1.1983  1.0447 -0.7892
   40MOL0     C 5400   5.653   3.301   7.122 -0.5380  0.1271 -0.0006
   40MOL0     C 5401   5.697   3.333   7.247  0.3205  0.9476  0.4236
   40MOL0     C 5402   5.618   3.309   7.378 -0.1551 -0.4591  0.7472
   40MOL0     C 5403   5.712   3.273   7.497 -0.2493 -0.1042  0.0079
   40MOL0     C 5404   5.782   3.137   7.483  0.3194  0.1387 -0.3060
   40MOL0     C 5405   5.861   3.094   7.605  0.6757  0.3406  0.3982
   40MOL0     O 5406   5.985   3.173   7.617  0.2326  0.6963 -0.2909
   40MOL0     C 5407   6.095   3.108   7.665 -0.2837  0.0254  0.0249
   40MOL0     C 5408   6.222   3.135   7.607  0.0533 -0.5403 -0.2787
   40MOL0     C 5409   6.341   3.079   7.656 -0.6359  0.2802  0.3590
   40MOL0     C 5410   6.475   3.114   7.584 -0.1856 -0.7156  0.5905
   40MOL0     C 5411   6.327   2.980   7.751  0.2902  0.9188 -0.0806
   40MOL0     C 5412   6.444   2.907   7.791  0.0339  0.7271 -0.4427
   40MOL0     O 5413   6.426   2.860   7.919  0.0578 -0.1396 -0.3566
   40MOL0     C 5414   6.522   2.785   7.984  0.0909 -0.3870 -0.5191
   40MOL0     C 5415   6.641   2.838   8.016 -1.2243 -0.0430 -0.5815
   40MOL0     C 5416   6.746   2.760   8.066  0.4504 -0.5519  0.0555
   40MOL0     C 5417   6.727   2.621   8.085 -0.1617 -0.3472  0.2955
   40MOL0     O 5418   6.831   2.545   8.138  0.0077  0.0327 -0.6584
   40MOL0     C 5419   6.791   2.416   8.201 -0.2306 -0.2198  0.0680
   40MOL0     C 5420   6.908   2.367   8.287 -0.0015  0.7588  0.1052
   40MOL0     C 5421   7.024   2.313   8.199 -0.2868  0.3564 -0.8524
   40MOL0     C 5422   7.168   2.356   8.262  0.8566  0.0033 -0.1776
   40MOL0     C 5423   7.272   2.306   8.166  0.7563 -0.0262  0.4553
   40MOL0     C 5424   7.399   2.365   8.220 -0.0281 -0.2584  0.6781
   40MOL0     C 5425   7.525   2.310   8.150 -0.0816 -0.4812  0.1874
   40MOL0     C 5426   7.647   2.385   8.198 -0.2127  0.1661 -0.8088
   40MOL0    Cl 5427   7.784   2.285   8.143 -0.1298  0.1072 -0.2385
   40MOL0     C 5428   6.605   2.566   8.051  0.2224 -0.6917 -0.0148
   40MOL0     C 5429   6.496   2.651   8.007  0.1076 -0.3942 -0.4578
   40MOL0     O 5430   6.548   2.888   7.733 -0.5602 -0.8604  0.3882
   40MOL0     C 5431   6.205   2.944   7.806  0.2546 -0.4356 -0.0024
   40MOL0     C 5432   6.093   3.013   7.761  0.3349  0.3569 -1.0255
   40MOL0     N 5433   5.819   3.399   7.232 -0.7487  0.1352 -0.0122
   40MOL0     N 5434   5.847   3.409   7.113 -0.4575  0.7027  0.1312
   40MOL0     C 5435   5.103   3.472   5.875  0.6091 -0.2335  0.0841
   40MOL0     C 5436   5.010   3.525   5.788 -0.6955 -0.0328  0.1665
   40MOL0     C 5437   4.664   3.694   5.617 -0.6148  0.4015 -0.5893
   40MOL0     C 5438   4.594   3.679   5.736 -0.3945 -0.2588  0.2855
   40MOL0     C 5439   4.463   3.709   5.744  0.3968  0.0866 -0.0461
   40MOL0     C 5440   4.397   3.755   5.627 -0.1465  0.0050  0.2204
   40MOL0     O 5441   4.268   3.790   5.641  0.1253  0.3992  0.4582
   40MOL0     C 5442   4.192   3.835   5.524 -1.3792  0.2895 -1.3724
   40MOL0     C 5443   4.068   3.867   5.598 -1.1193  0.2976 -0.1044
   40MOL0     C 5444   3.957   3.878   5.491  0.3413 -0.0896  0.4054
   40MOL0     C 5445   3.831   3.875   5.573 -0.8833  0.9756  0.3333
   40MOL0     C 5446   3.714   3.894   5.484  0.3116  0.2024 -0.6335
   40MOL0     C 5447   3.611   3.903   5.427 -0.1265  0.4191  0.5849
   40MOL0     C 5448   4.461   3.770   5.504  0.3217  0.1472 -0.8893
   40MOL0     C 5449   4.598   3.732   5.497  0.7913  0.5191  0.1646
   40MOL0     C 5450   4.663   3.749   5.370 -0.2338  0.8652 -0.1935
   40MOL0     H 5451   5.079   3.855   5.830 -2.6632 -0.9166  0.7943
   40MOL0     H 5452   5.269   3.757   5.956 -2.5494  0.8068  2.7882
   40MOL0     H 5453   5.191   3.488   6.203 -0.3487  0.5022 -1.7052
   40MOL0     H 5454   5.289   3.630   6.170  3.4756 -0.4082  0.9019
   40MOL0     H 5455   5.415   3.357   6.205 -2.4099 -0.8839 -0.3024
   40MOL0     H 5456   5.494   3.525   6.210  0.4836  0.8832  2.1476
   40MOL0     H 5457   5.412   3.569   6.413  0.4347  0.9856 -2.1635
   40MOL0     H 5458   5.315   3.414   6.416  1.8565 -0.2609  0.7951
   40MOL0     H 5459   5.528   3.294   6.407 -1.8391  0.0428 -1.7595
   40MOL0     H 5460   5.614   3.451   6.417  0.3163  2.9035  3.0707
   40MOL0     H 5461   5.422   3.360   6.632 -0.8474  1.0167 -0.4556
   40MOL0     H 5462   5.510   3.522   6.628  1.2675 -0.4337  0.6841
   40MOL0     H 5463   5.626   3.253   6.656  0.9166  0.5021 -0.4146
   40MOL0     H 5464   5.732   3.392   6.635  0.4203 -2.0372 -2.1320
   40MOL0     H 5465   5.533   3.312   6.855  0.8889  0.7404  1.9655
   40MOL0     H 5466   5.594   3.471   6.853 -0.2738 -1.3973  2.5612
   40MOL0     H 5467   5.798   3.245   6.862  1.4879  0.0933 -0.6118
   40MOL0     H 5468   5.818   3.423   6.853 -0.3054  1.0376 -0.0630
   40MOL0     H 5469   5.567   3.240   7.093 -1.5968  0.7905  1.5971
   40MOL0     H 5470   5.552   3.225   7.354  2.2789 -2.3494  0.2990
   40MOL0     H 5471   5.567   3.401   7.408 -1.1036 -1.6687  3.1228
   40MOL0     H 5472   5.787   3.348   7.523  0.6650 -0.3557 -1.7449
   40MOL0     H 5473   5.649   3.288   7.585  1.4213 -0.9264  1.4078
   40MOL0     H 5474   5.706   3.063   7.459 -0.8192  0.7373  1.2505
   40MOL0     H 5475   5.865   3.136   7.412  0.9846  0.0852  0.4529
   40MOL0     H 5476   5.793   3.104   7.691 -1.3604  2.5218 -1.3388
   40MOL0     H 5477   5.884   2.987   7.596 -2.7706 -0.5755  0.9510
   40MOL0     H 5478   6.228   3.213   7.532 -0.4696 -0.0552  0.1746
   40MOL0     H 5479   6.554   3.144   7.653  1.3730  2.6790 -2.3139
   40MOL0     H 5480   6.457   3.189   7.506 -0.4828 -2.3273 -0.9740
   40MOL0     H 5481   6.525   3.045   7.515 -0.8373 -0.1808 -0.4399
   40MOL0     H 5482   6.652   2.943   7.991  0.4615 -0.7672 -3.1841
   40MOL0     H 5483   6.838   2.807   8.098  0.7360 -0.6569 -0.6044
   40MOL0     H 5484   6.699   2.430   8.259 -1.1741  2.8557 -1.9329
   40MOL0     H 5485   6.764   2.338   8.128 -0.4896 -0.0826  0.0158
   40MOL0     H 5486   6.931   2.460   8.339  2.0643  1.0930 -1.2879
   40MOL0     H 5487   6.891   2.288   8.361  3.5840  0.2857  0.6219
   40MOL0     H 5488   7.021   2.353   8.097 -2.4898 -0.2811 -1.0876
   40MOL0     H 5489   7.018   2.204   8.192 -1.6225  0.1861  1.8958
   40MOL0     H 5490   7.171   2.297   8.355 -2.1455  1.9991  1.3538
   40MOL0     H 5491   7.178   2.463   8.279 -0.7616  0.0751  0.4873
   40MOL0     H 5492   7.275   2.197   8.166 -1.1152 -0.1730 -2.0354
   40MOL0     H 5493   7.249   2.335   8.063 -2.3256 -1.4308  0.6150
   40MOL0     H 5494   7.393   2.328   8.323 -0.1955  0.3531  0.8927
   40MOL0     H 5495   7.396   2.474   8.213 -2.4286 -0.3081 -0.2533
   40MOL0     H 5496   7.512   2.334   8.044  1.7520  0.7340  0.1803
   40MOL0     H 5497   7.533   2.202   8.165 -1.4911 -0.5299  0.6619
   40MOL0     H 5498   7.639   2.401   8.306  2.4600  0.0938 -0.5356
   40MOL0     H 5499   7.654   2.485   8.154  1.3847  0.3484 -0.1770
   40MOL0     H 5500   6.584   2.459   8.051 -1.1864 -0.4558  1.3818
   40MOL0     H 5501   6.391   2.621   8.002  0.0016 -0.2060  0.4885
   40MOL0     H 5502   6.205   2.859   7.874  0.1249  1.4141  2.4207
   40MOL0     H 5503   6.004   2.979   7.813  2.0884  0.8976  2.6228
   40MOL0     H 5504   5.120   3.369   5.907 -0.4445 -0.7337 -0.8974
   40MOL0     H 5505   4.949   3.460   5.725  0.1315 -0.9262  0.2728
   40MOL0     H 5506   4.646   3.640   5.823 -0.2642 -1.5103 -0.3318
   40MOL0     H 5507   4.409   3.704   5.839  0.3282 -0.9708 -0.1201
   40MOL0     H 5508   4.251   3.915   5.479 -0.1291  1.0378  1.4153
   40MOL0     H 5509   4.166   3.751   5.459 -1.9593 -0.4707 -0.1851
   40MOL0     H 5510   4.075   3.959   5.657  1.6044 -0.6132  1.1537
   40MOL0     H 5511   4.051   3.795   5.678 -2.3051  1.9350  1.1996
   40MOL0     H 5512   3.961   3.959   5.419 -4.6173 -1.8256 -2.3022
   40MOL0     H 5513   3.961   3.791   5.426  2.6113  1.6862 -2.0077
   40MOL0     H 5514   3.834   3.951   5.651 -1.8050  2.1486 -0.7423
   40MOL0     H 5515   3.825   3.775   5.616  1.8409  0.3500 -0.5483
   40MOL0     H 5516   3.522   3.910   5.368 -0.7956 -1.9227  1.1987
   40MOL0     H 5517   4.411   3.802   5.413 -0.4285 -0.5684 -0.7395
   40MOL0     H 5518   4.765   3.780   5.393  0.6404 -1.8506 -0.0579
   40MOL0     H 5519   4.662   3.652   5.319 -0.3789  0.6213  0.2623
   40MOL0     H 5520   4.613   3.827   5.312 -1.4313 -0.2864 -0.7750
   41MOL0     O 5521   8.671   6.182  10.825  0.3559  0.1067  0.7109
   41MOL0     C 5522   8.676   6.294  10.778  0.3361  0.0624 -0.7593
   41MOL0     O 5523   8.745   6.327  10.667  0.2414  0.3372 -0.1080
   41MOL0     C 5524   8.817   6.250  10.589  0.2220  0.0952 -0.5047
   41MOL0     C 5525   8.907   6.151  10.630  0.4979  0.4247 -0.8520
   41MOL0     C 5526   8.998   6.089  10.546  0.5632 -0.3072  0.5043
   41MOL0     C 5527   8.988   6.115  10.408 -0.4936 -0.3204  0.3762
   41MOL0     O 5528   9.069   6.041  10.321  0.2208  0.3172  0.5365
   41MOL0     C 5529   9.028   6.008  10.190 -0.0694 -0.1335  0.6690
   41MOL0     C 5530   9.154   5.950  10.118 -0.2771 -0.2352 -0.3473
   41MOL0     C 5531   9.184   5.807  10.161  0.5871  0.6573  0.1626
   41MOL0     C 5532   9.278   5.740  10.068  0.4588 -0.6536  0.3832
   41MOL0     C 5533   9.318   5.603  10.118  0.1923 -0.3378  0.6224
   41MOL0     C 5534   9.400   5.616  10.242 -0.6287 -0.2673  0.4606
   41MOL0     C 5535   9.430   5.473  10.292 -0.3196 -0.8721  0.0611
   41MOL0     C 5536   9.519   5.388  10.195  0.2907 -0.6672 -0.5052
   41MOL0     N 5537   9.562   5.265  10.266  0.3688 -0.6205  0.2433
   41MOL0     C 5538   9.661   5.248  10.361  0.0423 -0.0771  0.8200
   41MOL0     C 5539   9.678   5.118  10.372  0.3313  0.0220 -0.3131
   41MOL0     C 5540   9.770   5.059  10.480 -0.1678  0.3026 -0.2139
   41MOL0     C 5541   9.917   5.118  10.481  0.7314  0.1659  0.0254
   41MOL0     C 5542  10.008   5.091  10.366 -0.0629  0.3684  0.6200
   41MOL0     C 5543  10.144   5.153  10.377 -0.0551  0.6974 -0.3783
   41MOL0     O 5544  10.221   5.097  10.271 -0.6270 -0.0269 -0.3139
   41MOL0     C 5545  10.333   5.165  10.237 -0.3801  0.1223  0.0757
   41MOL0     C 5546  10.384   5.146  10.106  0.1097 -0.3651  0.5290
   41MOL0     C 5547  10.503   5.207  10.053  0.6874  0.1263  0.8512
   41MOL0     C 5548  10.532   5.194   9.901 -0.3378 -0.2514  0.3862
   41MOL0     C 5549  10.579   5.279  10.143  0.5060 -0.6037 -0.3942
   41MOL0     C 5550  10.702   5.341  10.109  0.2753  0.1207 -0.0740
   41MOL0     O 5551  10.710   5.410   9.991 -0.3972 -0.1448 -0.1909
   41MOL0     C 5552  10.830   5.467   9.961 -0.4619 -0.9988  0.5902
   41MOL0     C 5553  10.891   5.427   9.842 -0.3657 -0.3592 -0.5635
   41MOL0     C 5554  11.026   5.465   9.819  1.1410  0.5365  0.1417
   41MOL0     C 5555  11.092   5.556   9.904 -1.2754  0.7576 -0.5461
   41MOL0     O 5556  11.219   5.613   9.889 -0.0110  0.0077  0.8242
   41MOL0     C 5557  11.315   5.557   9.793 -0.6229  0.0828 -0.0794
   41MOL0     C 5558  11.401   5.658   9.715  0.0094 -0.4460  0.0041
   41MOL0     C 5559  11.496   5.731   9.803 -0.3083 -0.7364 -0.4712
   41MOL0     C 5560  11.612   5.648   9.864 -0.1969  0.0415 -0.3489
   41MOL0     C 5561  11.702   5.746   9.936  0.5349  0.4376 -0.3593
   41MOL0     C 5562  11.830   5.667   9.985  0.9717  0.0364  0.3224
   41MOL0     C 5563  11.910   5.753  10.090 -0.0020 -0.0484  0.7124
   41MOL0     C 5564  11.948   5.895  10.038 -0.6312  0.5903  0.4147
   41MOL0    Cl 5565  12.078   5.957  10.131  0.0656  0.7431 -0.3651
   41MOL0     C 5566  11.021   5.608  10.008  0.7581 -0.3056  0.5761
   41MOL0     C 5567  10.894   5.560  10.039  0.4689 -0.2372 -1.1826
   41MOL0     O 5568  10.800   5.316  10.179 -0.7072  0.0673 -0.3045
   41MOL0     C 5569  10.521   5.306  10.272 -0.2604 -0.5200  0.9306
   41MOL0     C 5570  10.410   5.240  10.317 -0.6451  0.2481  0.0945
   41MOL0     N 5571   9.571   5.063  10.300  0.0919  0.8305  0.5321
   41MOL0     N 5572   9.506   5.148  10.236 -1.2376 -0.1571 -0.4685
   41MOL0     C 5573   8.886   6.202  10.362  0.6540 -0.0940 -0.1124
   41MOL0     C 5574   8.801   6.272  10.450 -0.2583 -0.5616  0.9040
   41MOL0     C 5575   8.592   6.385  10.860  0.0500 -0.4917 -0.2510
   41MOL0     C 5576   8.541   6.345  10.985 -0.1293 -0.2037 -0.3010
   41MOL0     C 5577   8.454   6.427  11.067 -1.3930 -0.0133 -0.4141
   41MOL0     C 5578   8.410   6.550  11.008 -0.7979  0.2264 -0.4031
   41MOL0     O 5579   8.313   6.636  11.058 -0.3232  0.4182 -0.0011
   41MOL0     C 5580   8.279   6.629  11.197 -0.1840  0.1682 -0.6115
   41MOL0     C 5581   8.144   6.694  11.228  0.5520 -0.7363 -0.7880
   41MOL0     C 5582   8.087   6.652  11.366  0.2739  0.0432  0.2835
   41MOL0     C 5583   7.971   6.740  11.414  0.0191  0.0291 -0.5545
   41MOL0     C 5584   7.927   6.701  11.555  0.4023  0.1247 -0.3955
   41MOL0     C 5585   7.900   6.685  11.675 -0.1509 -0.0757  0.8052
   41MOL0     C 5586   8.465   6.599  10.889 -0.0074  0.7018  0.0092
   41MOL0     C 5587   8.556   6.512  10.814 -0.2349 -0.7434 -0.0819
   41MOL0     C 5588   8.616   6.582  10.687 -0.5200  0.3789 -0.2116
   41MOL0     H 5589   8.899   6.120  10.733 -0.6086 -1.8902 -1.5780
   41MOL0     H 5590   9.052   6.005  10.588 -0.3503 -0.0643  2.2858
   41MOL0     H 5591   9.006   6.103  10.139  0.9308 -1.0737 -1.6451
   41MOL0     H 5592   8.938   5.947  10.179 -0.6616  1.0976 -2.0327
   41MOL0     H 5593   9.130   5.935  10.013 -1.1512  3.1193 -0.7452
   41MOL0     H 5594   9.241   6.015  10.129  0.9574 -2.1070  2.1591
   41MOL0     H 5595   9.221   5.813  10.264 -1.5129  1.3159  0.9273
   41MOL0     H 5596   9.093   5.747  10.153  1.3573 -1.1984  3.3808
   41MOL0     H 5597   9.235   5.709   9.973  2.3926 -2.2000 -0.0423
   41MOL0     H 5598   9.362   5.806  10.045  0.6702 -1.0714 -0.0409
   41MOL0     H 5599   9.379   5.551  10.043 -4.2114 -1.0470 -2.9654
   41MOL0     H 5600   9.225   5.548  10.137  0.2063 -0.7587 -0.4449
   41MOL0     H 5601   9.489   5.676  10.221 -1.6429  1.9399  1.9686
   41MOL0     H 5602   9.338   5.655  10.324 -3.7223 -1.6179 -1.0752
   41MOL0     H 5603   9.333   5.424  10.294 -2.3969  2.6720 -1.8620
   41MOL0     H 5604   9.470   5.479  10.393  0.7162 -0.7533 -0.3369
   41MOL0     H 5605   9.454   5.366  10.110 -4.5245  1.4408  2.1984
   41MOL0     H 5606   9.603   5.449  10.159  2.0745 -1.7158  1.5849
   41MOL0     H 5607   9.718   5.329  10.404  1.0404  0.0872 -0.7193
   41MOL0     H 5608   9.774   4.951  10.466 -0.9613  0.3468 -0.8455
   41MOL0     H 5609   9.725   5.083  10.577  0.1361  4.1698 -0.8744
   41MOL0     H 5610   9.905   5.223  10.510 -4.2687  0.0442 -0.6842
   41MOL0     H 5611   9.959   5.071  10.570 -0.1652  0.7262  0.7654
   41MOL0     H 5612  10.012   4.982  10.366  0.0736  0.2737  3.5558
   41MOL0     H 5613   9.970   5.131  10.272 -0.1598  0.5395  0.7300
   41MOL0     H 5614  10.133   5.262  10.374 -2.8074  0.5566  1.0844
   41MOL0     H 5615  10.195   5.125  10.470  0.2154 -1.4754 -1.1307
   41MOL0     H 5616  10.320   5.081  10.047 -0.5999  1.1132 -0.3961
   41MOL0     H 5617  10.495   5.288   9.860  0.1265  0.7502  2.1342
   41MOL0     H 5618  10.489   5.108   9.850  1.7509 -1.0390 -0.1431
   41MOL0     H 5619  10.639   5.198   9.875 -0.4717  0.7073 -0.0732
   41MOL0     H 5620  10.833   5.357   9.782  0.7373 -0.1181 -1.9660
   41MOL0     H 5621  11.069   5.424   9.728  0.0047  0.9334 -0.5875
   41MOL0     H 5622  11.385   5.495   9.850 -1.6314 -0.4905  0.5649
   41MOL0     H 5623  11.267   5.493   9.719 -0.9102 -2.2582  1.9756
   41MOL0     H 5624  11.460   5.609   9.637 -0.5629  2.3583 -2.3858
   41MOL0     H 5625  11.344   5.735   9.661 -0.1860 -1.0064 -0.5962
   41MOL0     H 5626  11.441   5.784   9.881 -0.0807  0.5402 -1.1615
   41MOL0     H 5627  11.540   5.815   9.750  2.3089 -0.1733  2.2679
   41MOL0     H 5628  11.674   5.605   9.785  2.0138  2.5033 -0.0976
   41MOL0     H 5629  11.589   5.567   9.934  0.8775  0.0455  0.0184
   41MOL0     H 5630  11.732   5.835   9.880  0.1417  1.2833  0.7201
   41MOL0     H 5631  11.643   5.806  10.006  1.5680  3.4728 -1.9157
   41MOL0     H 5632  11.893   5.655   9.896 -0.2040 -0.6378 -0.4389
   41MOL0     H 5633  11.819   5.568  10.031  0.5031 -0.8284 -1.5672
   41MOL0     H 5634  12.005   5.702  10.108  0.8206  1.7603  1.7663
   41MOL0     H 5635  11.862   5.757  10.188  2.6452 -2.7639  2.2924
   41MOL0     H 5636  11.862   5.962  10.044 -0.7618  0.3109  2.3406
   41MOL0     H 5637  11.984   5.884   9.935 -2.3858 -2.5156  0.0183
   41MOL0     H 5638  11.066   5.682  10.073 -0.9187 -0.5287  2.0466
   41MOL0     H 5639  10.852   5.599  10.132  1.2639 -2.4373  0.1907
   41MOL0     H 5640  10.565   5.385  10.333  0.6360 -0.3025  0.0184
   41MOL0     H 5641  10.369   5.256  10.416  1.6142 -0.8933  1.3040
   41MOL0     H 5642   8.875   6.232  10.258  1.8686 -2.3493 -0.9659
   41MOL0     H 5643   8.737   6.353  10.416 -0.2767 -0.8221  0.2974
   41MOL0     H 5644   8.564   6.247  11.028 -0.1461 -0.2123 -0.3116
   41MOL0     H 5645   8.421   6.393  11.164  1.5583 -0.2613  0.6148
   41MOL0     H 5646   8.284   6.523  11.222  0.7743  0.0600 -1.1944
   41MOL0     H 5647   8.356   6.685  11.252 -1.7211 -1.8028  4.0440
   41MOL0     H 5648   8.076   6.669  11.147  0.3976  0.4904 -1.0599
   41MOL0     H 5649   8.152   6.803  11.240 -1.1610 -0.6736  0.2361
   41MOL0     H 5650   8.050   6.550  11.351 -0.5974  0.7914 -3.8133
   41MOL0     H 5651   8.168   6.649  11.440  1.7293 -2.5484 -1.2358
   41MOL0     H 5652   7.887   6.734  11.345 -0.5156  0.3618  0.0542
   41MOL0     H 5653   8.007   6.842  11.404 -0.5501  0.2500 -0.3770
   41MOL0     H 5654   7.868   6.673  11.777 -4.1122 -0.0441 -0.2495
   41MOL0     H 5655   8.441   6.697  10.850  0.7588  0.6972 -0.4985
   41MOL0     H 5656   8.724   6.596  10.695 -0.9234  3.6496  1.3715
   41MOL0     H 5657   8.590   6.531  10.594 -0.2802  0.2692 -0.2184
   41MOL0     H 5658   8.572   6.681  10.672 -1.8419 -0.1118  0.2985
   42MOL0     O 5659   5.094   6.322   4.451  0.0623  0.2907  0.1279
   42MOL0     C 5660   5.117   6.365   4.565  0.5180 -0.6968  0.2495
   42MOL0     O 5661   5.213   6.313   4.646  0.1315  0.4665 -0.9288
   42MOL0     C 5662   5.325   6.263   4.594 -0.1408 -0.8929  0.1848
   42MOL0     C 5663   5.430   6.342   4.544 -0.6016 -0.2465  0.0227
   42MOL0     C 5664   5.546   6.307   4.483  0.0264  0.0352 -0.1577
   42MOL0     C 5665   5.559   6.163   4.466  0.4205  0.2083  0.0524
   42MOL0     O 5666   5.661   6.095   4.395 -0.4243 -0.2681 -0.6917
   42MOL0     C 5667   5.772   6.184   4.357 -0.3141 -0.7914 -0.0857
   42MOL0     C 5668   5.870   6.210   4.472  0.2848  0.2204 -0.2058
   42MOL0     C 5669   5.973   6.312   4.435  0.9533  0.0450  0.6411
   42MOL0     C 5670   6.093   6.248   4.359 -0.5547 -0.0263  0.0586
   42MOL0     C 5671   6.204   6.351   4.323  0.4182  0.0022 -0.3978
   42MOL0     C 5672   6.306   6.282   4.240 -0.7499  0.8368  0.6169
   42MOL0     C 5673   6.398   6.374   4.156 -0.2539  1.0425  0.0616
   42MOL0     C 5674   6.466   6.481   4.240 -0.0917 -0.2288  0.0080
   42MOL0     N 5675   6.562   6.429   4.349 -1.3410 -0.2580  0.5341
   42MOL0     C 5676   6.639   6.317   4.343  0.4094 -0.2519  0.6816
   42MOL0     C 5677   6.698   6.299   4.470 -0.6251 -0.5018  0.8286
   42MOL0     C 5678   6.810   6.206   4.515  0.1168  0.6793  0.1644
   42MOL0     C 5679   6.756   6.061   4.529  0.5272 -0.0654  0.3134
   42MOL0     C 5680   6.863   5.950   4.566  0.5615  0.5409  1.8956
   42MOL0     C 5681   6.937   5.975   4.694 -0.7767  0.5681 -0.4254
   42MOL0     O 5682   7.078   5.926   4.698 -0.2636 -0.5457  0.2977
   42MOL0     C 5683   7.181   5.990   4.628 -0.4365  0.0994 -0.7482
   42MOL0     C 5684   7.184   6.122   4.578  0.6541 -0.0395  0.6872
   42MOL0     C 5685   7.282   6.171   4.487 -0.6828  0.2122  0.2733
   42MOL0     C 5686   7.271   6.316   4.439  0.2285  0.7679 -0.1953
   42MOL0     C 5687   7.398   6.082   4.461 -0.1166 -0.8220 -0.0753
   42MOL0     C 5688   7.511   6.110   4.361 -0.6693 -0.0906  0.5078
   42MOL0     O 5689   7.624   6.036   4.392  0.3264  0.1555  0.3300
   42MOL0     C 5690   7.725   5.994   4.300 -0.3736  0.7325  0.3027
   42MOL0     C 5691   7.795   5.880   4.337 -0.1916 -0.0535  0.4392
   42MOL0     C 5692   7.895   5.834   4.243  0.5655  0.2195 -0.1300
   42MOL0     C 5693   7.939   5.909   4.131 -0.8936  0.4433 -0.3836
   42MOL0     O 5694   8.035   5.867   4.046  0.2114 -0.1323 -0.0434
   42MOL0     C 5695   8.088   5.734   4.045 -0.0069  0.1352 -0.1915
   42MOL0     C 5696   8.205   5.707   4.144  0.0093  0.1246  0.4730
   42MOL0     C 5697   8.269   5.573   4.123  1.3286 -0.6985  0.3409
   42MOL0     C 5698   8.239   5.493   4.249 -0.3150 -0.0909 -0.1980
   42MOL0     C 5699   8.302   5.350   4.222 -0.1295 -0.4784  1.5035
   42MOL0     C 5700   8.291   5.268   4.350  0.3544 -0.2457  0.3532
   42MOL0     C 5701   8.318   5.120   4.323 -0.1006 -0.5581  0.4695
   42MOL0     C 5702   8.224   5.027   4.403 -0.3970 -0.9512  0.2065
   42MOL0    Cl 5703   8.169   4.885   4.302 -0.2986 -0.0456  0.2144
   42MOL0     C 5704   7.876   6.022   4.093  1.0410  0.8400 -0.3727
   42MOL0     C 5705   7.765   6.065   4.182  0.0573  0.4007  0.1685
   42MOL0     O 5706   7.503   6.177   4.259 -0.2456 -0.3330 -0.7933
   42MOL0     C 5707   7.393   5.957   4.522 -0.1589 -0.7657 -0.3403
   42MOL0     C 5708   7.294   5.916   4.605 -0.0792  0.0602  0.1485
   42MOL0     N 5709   6.652   6.414   4.539  0.0335 -0.6437 -0.0804
   42MOL0     N 5710   6.576   6.489   4.466  0.3561 -0.3990 -0.1605
   42MOL0     C 5711   5.464   6.077   4.529 -0.1188 -0.4399 -0.7343
   42MOL0     C 5712   5.339   6.125   4.585 -0.0889  0.1178  0.0015
   42MOL0     C 5713   5.024   6.466   4.624  0.1618 -0.8265  0.3215
   42MOL0     C 5714   5.031   6.476   4.767  0.4343  0.1019 -0.1520
   42MOL0     C 5715   4.953   6.569   4.837 -0.3307 -0.7212  0.3901
   42MOL0     C 5716   4.860   6.650   4.773  0.1264  1.0122  0.3695
   42MOL0     O 5717   4.765   6.719   4.832 -0.5408 -0.4718  0.0437
   42MOL0     C 5718   4.731   6.684   4.965  0.2660  0.2596 -0.6624
   42MOL0     C 5719   4.612   6.755   5.022  1.1856  0.0346 -0.3273
   42MOL0     C 5720   4.471   6.708   4.970  0.4911 -0.5852  0.1635
   42MOL0     C 5721   4.350   6.801   4.972  0.4331 -0.7576 -0.9802
   42MOL0     C 5722   4.326   6.835   5.115 -0.0563  0.3068  0.1676
   42MOL0     C 5723   4.290   6.880   5.222 -0.1561  0.0070  0.1564
   42MOL0     C 5724   4.859   6.635   4.629 -0.4552  0.7315  0.1988
   42MOL0     C 5725   4.935   6.545   4.552 -0.1024 -0.7185 -0.3032
   42MOL0     C 5726   4.945   6.561   4.400  0.2483  0.1882 -0.0426
   42MOL0     H 5727   5.415   6.449   4.552 -1.5705 -0.4856  1.9407
   42MOL0     H 5728   5.620   6.376   4.442 -0.6620  1.7956  1.4019
   42MOL0     H 5729   5.751   6.284   4.316  1.4309 -0.9198 -1.3790
   42MOL0     H 5730   5.821   6.127   4.278 -1.3027 -1.9772  0.1244
   42MOL0     H 5731   5.796   6.236   4.548 -3.3885 -1.1545 -3.0129
   42MOL0     H 5732   5.917   6.114   4.494 -1.7638 -0.8553 -0.2106
   42MOL0     H 5733   5.926   6.398   4.385 -0.0059  0.0794  1.5757
   42MOL0     H 5734   6.004   6.353   4.532  1.7867  0.1748  0.3318
   42MOL0     H 5735   6.134   6.169   4.422 -1.2447  0.5201  1.2419
   42MOL0     H 5736   6.065   6.206   4.262 -0.5380 -1.0360  0.4776
   42MOL0     H 5737   6.251   6.389   4.415  1.4108  2.4061 -1.8139
   42MOL0     H 5738   6.159   6.435   4.269  0.1458  0.1841  0.1005
   42MOL0     H 5739   6.368   6.224   4.309 -3.9662  0.8972  3.8393
   42MOL0     H 5740   6.245   6.216   4.177 -3.8955 -0.0656  4.1760
   42MOL0     H 5741   6.328   6.408   4.079 -1.1129 -0.2041  0.2559
   42MOL0     H 5742   6.470   6.307   4.107 -1.0682 -0.4562  0.8290
   42MOL0     H 5743   6.498   6.560   4.172 -0.5191  1.1137  1.3330
   42MOL0     H 5744   6.387   6.524   4.302 -3.8140 -1.8569 -3.2031
   42MOL0     H 5745   6.664   6.263   4.252  2.8964 -2.1237  2.3214
   42MOL0     H 5746   6.850   6.240   4.611  0.8414 -3.7760  1.6394
   42MOL0     H 5747   6.883   6.204   4.434 -0.0648  1.0541 -0.0135
   42MOL0     H 5748   6.683   6.066   4.610 -0.4249  3.4943 -0.5685
   42MOL0     H 5749   6.692   6.037   4.443 -1.1892 -0.1546  1.5591
   42MOL0     H 5750   6.818   5.854   4.592  4.1278 -1.8586 -0.0190
   42MOL0     H 5751   6.924   5.938   4.477  0.7125 -2.1041  2.2886
   42MOL0     H 5752   6.942   6.084   4.702  2.6666  0.5457 -0.6653
   42MOL0     H 5753   6.878   5.933   4.775 -1.6693  1.1319 -0.7700
   42MOL0     H 5754   7.102   6.187   4.608  1.5568  0.4771  2.1241
   42MOL0     H 5755   7.249   6.382   4.523  0.3564 -1.5459  1.7593
   42MOL0     H 5756   7.181   6.332   4.378 -2.2104  0.3595  3.0429
   42MOL0     H 5757   7.359   6.355   4.387  1.7454 -1.3513  0.6564
   42MOL0     H 5758   7.774   5.827   4.430  2.8728 -0.4280  1.0077
   42MOL0     H 5759   7.944   5.742   4.276 -1.2583 -0.2513  1.4322
   42MOL0     H 5760   8.006   5.664   4.062 -0.7113  1.4969  2.4818
   42MOL0     H 5761   8.124   5.722   3.942 -1.8982  1.1920 -1.0346
   42MOL0     H 5762   8.283   5.782   4.123 -1.0777  0.8661 -1.1693
   42MOL0     H 5763   8.167   5.719   4.246 -0.9344  0.1575  0.1220
   42MOL0     H 5764   8.374   5.581   4.095  1.0481  1.0544 -0.3106
   42MOL0     H 5765   8.212   5.522   4.044 -4.8841  0.4993  3.4458
   42MOL0     H 5766   8.133   5.477   4.268 -0.1669  0.6086  1.2815
   42MOL0     H 5767   8.291   5.534   4.336  0.7843  2.4651 -1.9060
   42MOL0     H 5768   8.238   5.306   4.146 -1.6592  3.0103  0.5584
   42MOL0     H 5769   8.406   5.363   4.191 -0.0668 -1.3737  1.3270
   42MOL0     H 5770   8.191   5.285   4.390  0.2683  2.7384 -0.8765
   42MOL0     H 5771   8.364   5.302   4.424  2.0900  4.4856 -3.0212
   42MOL0     H 5772   8.423   5.097   4.342  0.0321  0.8244  1.5566
   42MOL0     H 5773   8.288   5.090   4.222 -3.3292  0.0090  1.1333
   42MOL0     H 5774   8.142   5.098   4.421 -0.5099 -0.1357 -2.9093
   42MOL0     H 5775   8.265   4.997   4.499 -0.5690 -1.7937  0.0245
   42MOL0     H 5776   7.909   6.066   3.999 -2.8802 -1.9138 -3.4287
   42MOL0     H 5777   7.709   6.154   4.156 -1.0432 -0.5918 -0.9375
   42MOL0     H 5778   7.474   5.886   4.508  0.1652 -0.8845  1.7499
   42MOL0     H 5779   7.317   5.821   4.651  2.7699  0.7159  0.2430
   42MOL0     H 5780   5.482   5.970   4.527  1.8610 -0.1247 -1.4426
   42MOL0     H 5781   5.260   6.063   4.627 -0.9132 -0.8029 -2.6718
   42MOL0     H 5782   5.100   6.410   4.819 -1.8530 -1.5543  0.9703
   42MOL0     H 5783   4.971   6.588   4.942 -3.5886  1.8746  0.6492
   42MOL0     H 5784   4.730   6.575   4.971  0.0832  0.1974 -1.7304
   42MOL0     H 5785   4.817   6.715   5.025  0.6589  0.0470 -1.1157
   42MOL0     H 5786   4.622   6.862   5.003 -4.1742  1.0815  1.2232
   42MOL0     H 5787   4.608   6.736   5.130 -3.5574 -1.0468 -0.5074
   42MOL0     H 5788   4.483   6.675   4.867 -0.1059  2.1457 -0.8625
   42MOL0     H 5789   4.443   6.622   5.032  0.3003  1.0779  2.5262
   42MOL0     H 5790   4.261   6.761   4.923 -0.4909  0.8090 -0.6565
   42MOL0     H 5791   4.373   6.900   4.930 -1.9812  0.2199 -0.1905
   42MOL0     H 5792   4.245   6.916   5.312  0.8172  0.7693  0.3478
   42MOL0     H 5793   4.786   6.700   4.581  1.0160  1.2545 -1.4441
   42MOL0     H 5794   4.865   6.502   4.354  0.6740  0.2174 -0.8216
   42MOL0     H 5795   4.933   6.665   4.370  0.0989  0.3846  0.6602
   42MOL0     H 5796   5.046   6.541   4.363  0.1526 -0.6868  0.1456
   43MOL0     O 5797   8.421   4.572   4.905  0.7637 -0.5944 -0.5188
   43MOL0     C 5798   8.414   4.525   4.793 -0.3039 -0.0844  0.0083
   43MOL0     O 5799   8.388   4.387   4.768 -0.3520 -0.0065  0.2640
   43MOL0     C 5800   8.375   4.282   4.861  0.0908  0.7864  0.4586
   43MOL0     C 5801   8.316   4.166   4.821 -0.0590 -0.2488  0.3631
   43MOL0     C 5802   8.311   4.052   4.902  0.0314  0.0382 -0.0534
   43MOL0     C 5803   8.376   4.056   5.026  0.7134 -0.2804 -0.6507
   43MOL0     O 5804   8.387   3.955   5.118  0.3266 -0.4550  0.5879
   43MOL0     C 5805   8.365   3.817   5.066 -0.0750 -0.2272  0.0584
   43MOL0     C 5806   8.474   3.756   4.975  0.2564  0.2216  0.1361
   43MOL0     C 5807   8.610   3.721   5.038  0.0360 -0.3125 -0.0326
   43MOL0     C 5808   8.697   3.849   5.034  0.9533 -0.3790 -0.9359
   43MOL0     C 5809   8.837   3.826   5.091 -0.5271 -0.0746 -0.7590
   43MOL0     C 5810   8.938   3.765   4.988 -0.3901  0.0603  0.0148
   43MOL0     C 5811   9.073   3.770   5.042  0.1031 -0.4241 -0.1154
   43MOL0     C 5812   9.184   3.762   4.946  0.8545 -0.0630 -0.3799
   43MOL0     N 5813   9.182   3.876   4.854  0.6189  0.3319  0.2632
   43MOL0     C 5814   9.267   3.978   4.870 -0.1836 -0.4851  0.3880
   43MOL0     C 5815   9.253   4.040   4.750  0.0616  0.5921 -0.2798
   43MOL0     C 5816   9.335   4.159   4.721 -0.1006 -0.2111  0.6673
   43MOL0     C 5817   9.258   4.285   4.660 -0.8549 -0.2839 -0.4845
   43MOL0     C 5818   9.332   4.385   4.570  0.6047  0.3619  0.6359
   43MOL0     C 5819   9.406   4.497   4.644 -0.1409  0.4260  0.0645
   43MOL0     O 5820   9.521   4.537   4.561  0.6611 -0.2751  0.3504
   43MOL0     C 5821   9.613   4.620   4.622  0.6352 -0.4498 -0.4019
   43MOL0     C 5822   9.743   4.605   4.579 -0.3648 -0.7271  0.0172
   43MOL0     C 5823   9.848   4.686   4.615  0.2438  0.2511  0.9153
   43MOL0     C 5824   9.971   4.673   4.529 -0.1041  0.2447 -0.1041
   43MOL0     C 5825   9.814   4.791   4.708 -0.3757  0.1116  0.4345
   43MOL0     C 5826   9.918   4.872   4.775  0.6391  0.1086 -0.0345
   43MOL0     O 5827  10.045   4.828   4.764  0.2161  0.0466 -0.4482
   43MOL0     C 5828  10.159   4.903   4.790 -0.3863 -0.0994  0.1185
   43MOL0     C 5829  10.278   4.834   4.791  0.1680 -0.1717  0.4414
   43MOL0     C 5830  10.392   4.894   4.822 -1.4678  0.0756  0.3655
   43MOL0     C 5831  10.403   5.031   4.833 -0.9000 -0.2636  0.0240
   43MOL0     O 5832  10.531   5.079   4.876 -0.2151  0.4312  0.9411
   43MOL0     C 5833  10.551   5.214   4.923 -0.0053  0.5002  0.0074
   43MOL0     C 5834  10.693   5.239   4.973 -0.8368  0.8760  0.1509
   43MOL0     C 5835  10.709   5.182   5.112 -0.6698 -0.0272 -0.1281
   43MOL0     C 5836  10.859   5.219   5.172  0.0566 -0.2832 -0.3805
   43MOL0     C 5837  10.880   5.149   5.306  0.0833 -0.1948  0.3266
   43MOL0     C 5838  10.977   5.031   5.288 -0.1955 -0.0630 -0.2163
   43MOL0     C 5839  11.003   4.939   5.408 -0.8565  0.0305 -0.5464
   43MOL0     C 5840  11.061   4.808   5.370 -0.3065 -0.1585 -0.5148
   43MOL0    Cl 5841  11.218   4.836   5.303  0.1286  0.0352 -0.1789
   43MOL0     C 5842  10.286   5.106   4.814 -0.1116 -0.0378 -0.1874
   43MOL0     C 5843  10.162   5.041   4.787  0.3915  0.4816 -0.2513
   43MOL0     O 5844   9.882   4.967   4.830 -0.0513 -0.2477 -0.5165
   43MOL0     C 5845   9.683   4.804   4.759 -0.2572 -0.1199 -0.2013
   43MOL0     C 5846   9.589   4.717   4.720 -0.1583  0.3206 -0.0285
   43MOL0     N 5847   9.159   3.978   4.668  0.1796  0.3356 -0.4218
   43MOL0     N 5848   9.119   3.874   4.729 -0.0775 -0.3460 -0.4133
   43MOL0     C 5849   8.429   4.175   5.077  0.3799 -0.5785 -1.0167
   43MOL0     C 5850   8.430   4.293   4.996 -0.0821  0.3378  0.3899
   43MOL0     C 5851   8.432   4.601   4.667  0.6157 -0.6887  0.1903
   43MOL0     C 5852   8.405   4.534   4.542  0.0508  0.1165 -0.8027
   43MOL0     C 5853   8.444   4.592   4.414  0.0026  0.2888 -0.2846
   43MOL0     C 5854   8.500   4.721   4.417  0.6789 -0.1227 -0.2314
   43MOL0     O 5855   8.526   4.799   4.308 -0.1289 -0.0741  0.6630
   43MOL0     C 5856   8.499   4.754   4.177 -0.5919  0.5433 -0.5556
   43MOL0     C 5857   8.496   4.864   4.079  0.3972 -0.8555 -0.2168
   43MOL0     C 5858   8.613   4.972   4.086  0.7170 -0.1260 -0.0884
   43MOL0     C 5859   8.608   5.065   3.971  0.2669 -0.2816 -0.6628
   43MOL0     C 5860   8.661   5.195   4.011 -0.0543  0.1431  0.2787
   43MOL0     C 5861   8.705   5.302   4.027 -0.2907 -0.2481  0.8177
   43MOL0     C 5862   8.515   4.790   4.537  0.2679  0.4475 -0.2740
   43MOL0     C 5863   8.489   4.725   4.656 -0.7869 -0.2482 -1.0355
   43MOL0     C 5864   8.536   4.799   4.783  0.8687 -0.0771  1.0784
   43MOL0     H 5865   8.275   4.160   4.721  1.2644 -2.6118 -0.1220
   43MOL0     H 5866   8.254   3.967   4.866  2.5741 -1.9979  0.4436
   43MOL0     H 5867   8.264   3.815   5.023  1.3394  3.2822 -4.2182
   43MOL0     H 5868   8.372   3.761   5.160  1.3256 -0.5661 -0.2187
   43MOL0     H 5869   8.437   3.670   4.918  1.9737 -0.6529  0.2602
   43MOL0     H 5870   8.493   3.840   4.907  3.6520  0.4350  1.1513
   43MOL0     H 5871   8.599   3.691   5.143 -1.6523 -2.1464 -0.6608
   43MOL0     H 5872   8.662   3.650   4.972 -1.2410 -0.3471 -1.0557
   43MOL0     H 5873   8.704   3.888   4.932 -0.5005  0.0690 -0.8859
   43MOL0     H 5874   8.647   3.933   5.083  1.2176 -0.3469 -0.7187
   43MOL0     H 5875   8.832   3.755   5.174 -0.0639 -0.8202 -1.3519
   43MOL0     H 5876   8.878   3.920   5.128  2.2421 -0.5580 -2.2815
   43MOL0     H 5877   8.902   3.662   4.975 -1.1487  0.3918 -0.5997
   43MOL0     H 5878   8.937   3.809   4.888  0.5290  0.2486  0.0832
   43MOL0     H 5879   9.082   3.688   5.114 -5.0542  0.4793  1.9923
   43MOL0     H 5880   9.102   3.860   5.097 -0.1771 -1.4308  1.7854
   43MOL0     H 5881   9.282   3.757   4.996  0.8784  0.2545 -0.3881
   43MOL0     H 5882   9.166   3.673   4.886  0.0458  1.4653 -2.5353
   43MOL0     H 5883   9.319   4.011   4.960 -1.4829  0.5307  0.7936
   43MOL0     H 5884   9.416   4.127   4.655 -0.0384 -1.5551  1.3787
   43MOL0     H 5885   9.385   4.180   4.816  1.3882 -2.5944  0.4827
   43MOL0     H 5886   9.192   4.226   4.595  0.4348 -1.7803 -0.5036
   43MOL0     H 5887   9.212   4.342   4.741  0.4212  0.8302 -0.5143
   43MOL0     H 5888   9.407   4.319   4.525  2.3622  1.6059  1.6184
   43MOL0     H 5889   9.267   4.418   4.489  1.6294 -1.9039 -1.2046
   43MOL0     H 5890   9.324   4.568   4.660 -1.8520 -1.2862 -0.7310
   43MOL0     H 5891   9.442   4.452   4.737 -2.0671 -2.3106 -0.4134
   43MOL0     H 5892   9.762   4.530   4.504  0.2616 -0.5440 -0.0163
   43MOL0     H 5893  10.018   4.771   4.518  0.3779 -0.0832 -1.1337
   43MOL0     H 5894   9.958   4.631   4.429  1.1371  2.0931 -1.1196
   43MOL0     H 5895  10.052   4.620   4.580  0.2627  0.3785 -0.5341
   43MOL0     H 5896  10.279   4.727   4.769  1.6415 -0.2864  0.9400
   43MOL0     H 5897  10.482   4.834   4.837  0.9232  3.2544 -0.1497
   43MOL0     H 5898  10.534   5.290   4.846  0.5591  0.9558  0.3226
   43MOL0     H 5899  10.483   5.244   5.004  2.2498  1.7883  1.5304
   43MOL0     H 5900  10.767   5.194   4.906  0.6417 -0.2551  2.4205
   43MOL0     H 5901  10.713   5.346   4.972  0.0591  0.9051 -4.8023
   43MOL0     H 5902  10.690   5.074   5.110  0.5737 -0.2907  0.9741
   43MOL0     H 5903  10.631   5.220   5.179 -0.7411  0.6565 -0.5901
   43MOL0     H 5904  10.869   5.327   5.188  0.4110 -0.1802 -1.2373
   43MOL0     H 5905  10.941   5.189   5.106 -0.0176  0.8601 -1.0202
   43MOL0     H 5906  10.940   5.221   5.363  1.4169  0.9814 -2.3777
   43MOL0     H 5907  10.782   5.124   5.347  0.5483  0.8610  2.1869
   43MOL0     H 5908  11.072   5.064   5.245 -0.6162  0.2573 -0.9125
   43MOL0     H 5909  10.930   4.968   5.211  0.2155  0.4838 -0.9290
   43MOL0     H 5910  10.904   4.913   5.448 -0.7759 -1.7942 -1.4261
   43MOL0     H 5911  11.070   4.979   5.485 -0.2103 -2.2820  0.1754
   43MOL0     H 5912  11.001   4.758   5.293  0.1771  0.8062 -1.5413
   43MOL0     H 5913  11.070   4.731   5.447  0.9171 -0.2519 -0.7325
   43MOL0     H 5914  10.279   5.214   4.822 -0.6758 -0.1536  1.3356
   43MOL0     H 5915  10.076   5.106   4.781  0.3552  0.5844  1.0566
   43MOL0     H 5916   9.655   4.881   4.831  0.7539  0.5852 -0.5454
   43MOL0     H 5917   9.488   4.728   4.758 -0.4097 -3.2548  0.6876
   43MOL0     H 5918   8.479   4.171   5.173  4.3748 -3.2159 -2.9061
   43MOL0     H 5919   8.477   4.379   5.043 -1.3845  0.6825  1.1106
   43MOL0     H 5920   8.376   4.429   4.541 -2.7233  0.6695  2.6341
   43MOL0     H 5921   8.421   4.547   4.318  2.6454 -1.3138 -0.2772
   43MOL0     H 5922   8.568   4.678   4.138 -0.9919  0.5291 -1.2688
   43MOL0     H 5923   8.401   4.704   4.174 -0.5421  0.4753 -1.1745
   43MOL0     H 5924   8.407   4.915   4.117  1.9034  0.2712  2.0241
   43MOL0     H 5925   8.485   4.820   3.980  1.1305 -2.1958  0.2692
   43MOL0     H 5926   8.613   5.040   4.172  2.4231  3.1698 -2.4524
   43MOL0     H 5927   8.712   4.925   4.081  0.7865  0.1133 -1.4018
   43MOL0     H 5928   8.504   5.069   3.938 -0.0242 -0.4149  0.2114
   43MOL0     H 5929   8.667   5.035   3.884  0.6455 -2.3227  0.2536
   43MOL0     H 5930   8.746   5.399   4.048  0.0097 -0.4108  0.9881
   43MOL0     H 5931   8.564   4.887   4.541  0.0308  0.5611 -0.0593
   43MOL0     H 5932   8.580   4.729   4.855 -2.6131 -3.7672 -0.0508
   43MOL0     H 5933   8.608   4.879   4.761  0.9206 -0.9333 -2.2971
   43MOL0     H 5934   8.452   4.851   4.831  1.1926  2.4478 -0.8968
   44MOL0     O 5935   9.989   0.466   1.536  0.1684  0.4368  0.6576
   44MOL0     C 5936   9.995   0.589   1.537 -0.0407 -0.4276  1.1339
   44MOL0     O 5937   9.985   0.665   1.656 -0.3617  0.1953 -0.6295
   44MOL0     C 5938   9.968   0.591   1.772 -0.3955 -0.4803  0.5152
   44MOL0     C 5939   9.843   0.529   1.799  0.5881  1.8704 -0.5074
   44MOL0     C 5940   9.816   0.448   1.912  0.0817 -0.1427  0.7143
   44MOL0     C 5941   9.925   0.434   2.003  0.1021  0.3173 -0.2283
   44MOL0     O 5942   9.920   0.356   2.121 -0.2413  0.7911 -0.3361
   44MOL0     C 5943   9.794   0.296   2.148  0.0088  0.1434 -0.4933
   44MOL0     C 5944   9.807   0.243   2.291  0.4654  0.2556  0.3988
   44MOL0     C 5945   9.790   0.368   2.381 -0.3164  1.1703  0.0746
   44MOL0     C 5946   9.751   0.335   2.536 -0.2175  1.1197  0.2243
   44MOL0     C 5947   9.716   0.458   2.615  0.2011  0.3866 -0.9039
   44MOL0     C 5948   9.827   0.564   2.609  0.2705 -0.0471 -0.1908
   44MOL0     C 5949   9.966   0.516   2.660 -0.1492 -0.3870 -0.2433
   44MOL0     C 5950  10.058   0.636   2.654 -0.5837 -0.2141 -0.3368
   44MOL0     N 5951  10.196   0.592   2.670 -0.2060  0.4732  0.4006
   44MOL0     C 5952  10.249   0.556   2.797 -0.4986 -0.5359 -0.1729
   44MOL0     C 5953  10.377   0.523   2.766 -0.1837  0.3434 -0.2326
   44MOL0     C 5954  10.469   0.454   2.866  0.4012  0.3223  0.4194
   44MOL0     C 5955  10.611   0.508   2.869  1.0497  0.7133 -0.0342
   44MOL0     C 5956  10.686   0.441   2.980  0.2174 -0.0353  0.3535
   44MOL0     C 5957  10.839   0.475   2.967  0.2992 -0.2300  0.4834
   44MOL0     O 5958  10.917   0.413   3.074 -0.0766 -0.2413 -0.5290
   44MOL0     C 5959  11.038   0.471   3.104  0.6584 -0.7879 -1.0265
   44MOL0     C 5960  11.113   0.559   3.021  0.0884  0.6180 -0.7796
   44MOL0     C 5961  11.237   0.604   3.056 -0.6777 -0.4125  0.9566
   44MOL0     C 5962  11.308   0.688   2.949 -0.7230 -0.4248  0.0862
   44MOL0     C 5963  11.305   0.558   3.174  0.9516 -0.3907 -0.5631
   44MOL0     C 5964  11.455   0.590   3.217  0.0679 -0.1629  0.1780
   44MOL0     O 5965  11.493   0.554   3.339 -0.0594 -0.2197 -0.6728
   44MOL0     C 5966  11.612   0.590   3.401 -0.2130  1.1275  0.0628
   44MOL0     C 5967  11.705   0.690   3.359  0.2753  0.7004 -0.4367
   44MOL0     C 5968  11.824   0.709   3.430  0.4672  0.3120 -0.2637
   44MOL0     C 5969  11.851   0.644   3.554 -0.1361 -0.4565  0.3968
   44MOL0     O 5970  11.969   0.653   3.626  0.1981  1.3490  0.1479
   44MOL0     C 5971  12.076   0.731   3.569 -0.1978 -0.0023  0.3686
   44MOL0     C 5972  12.195   0.727   3.664 -0.2082  0.3652 -0.4289
   44MOL0     C 5973  12.324   0.794   3.613 -1.1727  0.2499  0.9939
   44MOL0     C 5974  12.437   0.800   3.719 -0.0650 -0.3136 -0.2525
   44MOL0     C 5975  12.544   0.892   3.677 -0.3536  0.6501 -0.5172
   44MOL0     C 5976  12.656   0.907   3.776  0.0432 -0.0794 -0.2023
   44MOL0     C 5977  12.779   0.980   3.729 -1.1175 -0.9394 -0.1811
   44MOL0     C 5978  12.857   0.905   3.615  0.5944  0.9000  0.0789
   44MOL0    Cl 5979  12.982   1.014   3.530  0.4631 -0.0965 -0.2847
   44MOL0     C 5980  11.751   0.562   3.605  0.0888 -0.5525 -0.0686
   44MOL0     C 5981  11.635   0.531   3.527 -0.5140  0.2231 -0.7657
   44MOL0     O 5982  11.527   0.644   3.131  0.8870 -0.2062  0.3739
   44MOL0     C 5983  11.226   0.480   3.264 -1.0567  0.4340 -0.2617
   44MOL0     C 5984  11.092   0.446   3.229 -0.2700 -0.1218  0.4756
   44MOL0     N 5985  10.394   0.538   2.629 -0.6379  0.1357 -0.2048
   44MOL0     N 5986  10.282   0.565   2.571  0.7683 -0.0692  0.0711
   44MOL0     C 5987  10.044   0.499   1.985  0.7892 -1.0064 -0.4096
   44MOL0     C 5988  10.061   0.578   1.871 -0.0068  0.3172 -0.7940
   44MOL0     C 5989  10.026   0.661   1.405 -0.1643 -0.2144 -0.0694
   44MOL0     C 5990  10.098   0.772   1.418  1.2022 -0.4252  0.0527
   44MOL0     C 5991  10.142   0.836   1.302  0.3475 -0.2521  0.2204
   44MOL0     C 5992  10.131   0.794   1.180  0.6510  0.4070 -0.4031
   44MOL0     O 5993  10.168   0.864   1.071 -0.2739  0.4541  0.2777
   44MOL0     C 5994  10.128   1.002   1.078  0.7860 -1.2350 -0.4992
   44MOL0     C 5995  10.133   1.077   0.941  0.0259 -0.0419 -0.5590
   44MOL0     C 5996  10.014   1.041   0.846 -0.5880  0.5888 -0.0471
   44MOL0     C 5997  10.036   1.098   0.708 -0.0195  0.4720 -0.5961
   44MOL0     C 5998  10.020   1.244   0.713 -0.2136 -0.1807  0.5802
   44MOL0     C 5999  10.006   1.358   0.744  0.0465 -0.0878 -0.1581
   44MOL0     C 6000  10.062   0.676   1.162  0.2653  1.0925 -1.0272
   44MOL0     C 6001  10.005   0.607   1.277  0.9825 -0.2030 -0.2809
   44MOL0     C 6002   9.918   0.489   1.247 -0.4496  0.2232 -0.2805
   44MOL0     H 6003   9.762   0.529   1.727 -1.2487 -1.1182  1.3502
   44MOL0     H 6004   9.724   0.392   1.922 -1.7029  2.1143 -1.6650
   44MOL0     H 6005   9.770   0.216   2.077 -0.3553 -0.0967 -0.1037
   44MOL0     H 6006   9.721   0.375   2.132 -0.9813 -0.5086  0.6809
   44MOL0     H 6007   9.723   0.175   2.304 -0.3972  1.0597 -0.7246
   44MOL0     H 6008   9.901   0.189   2.304  1.1170  0.2688 -3.2218
   44MOL0     H 6009   9.886   0.421   2.388  0.1619  0.1349  2.2805
   44MOL0     H 6010   9.719   0.433   2.330  0.1324  1.3892 -0.2810
   44MOL0     H 6011   9.670   0.262   2.545  0.6615 -0.0584 -1.0051
   44MOL0     H 6012   9.840   0.284   2.574 -0.9555  0.3032  0.9085
   44MOL0     H 6013   9.686   0.439   2.719  1.4174 -2.3996 -0.9728
   44MOL0     H 6014   9.623   0.488   2.564  0.2817 -0.2254 -1.4298
   44MOL0     H 6015   9.847   0.587   2.504 -0.2567  0.8619 -0.1110
   44MOL0     H 6016   9.801   0.656   2.662 -1.7135 -0.5524 -0.2077
   44MOL0     H 6017  10.014   0.437   2.602 -3.3993 -1.8216 -1.1932
   44MOL0     H 6018   9.961   0.472   2.761 -1.8027 -1.1427 -0.6225
   44MOL0     H 6019  10.052   0.683   2.556 -1.1614 -2.7384 -1.5845
   44MOL0     H 6020  10.025   0.713   2.725 -0.9737  0.0991 -0.8535
   44MOL0     H 6021  10.195   0.556   2.891 -0.2347 -1.0836 -0.0203
   44MOL0     H 6022  10.473   0.351   2.828  0.8576  0.6709 -0.5033
   44MOL0     H 6023  10.424   0.453   2.966 -2.0783  0.4173 -0.6128
   44MOL0     H 6024  10.655   0.471   2.776  0.4016 -0.0328 -0.0532
   44MOL0     H 6025  10.622   0.617   2.870  1.2304  0.7077  2.0513
   44MOL0     H 6026  10.647   0.481   3.074  1.4613  2.0389  0.0389
   44MOL0     H 6027  10.670   0.333   2.966  1.0415  0.0114 -1.1927
   44MOL0     H 6028  10.860   0.442   2.865 -1.9924  0.6257 -0.3358
   44MOL0     H 6029  10.847   0.584   2.967 -1.2118 -0.0976  0.7145
   44MOL0     H 6030  11.080   0.583   2.920  0.3397 -2.5181 -1.7054
   44MOL0     H 6031  11.327   0.790   2.986 -0.5308  0.1559 -1.5484
   44MOL0     H 6032  11.245   0.707   2.862 -0.6921  1.4919  0.4232
   44MOL0     H 6033  11.400   0.639   2.916  0.5591 -0.5515  3.3872
   44MOL0     H 6034  11.701   0.735   3.260 -0.1666 -1.0053 -1.2289
   44MOL0     H 6035  11.884   0.790   3.389 -1.2276  2.1410  0.6671
   44MOL0     H 6036  12.095   0.708   3.463 -0.9882  0.6775  0.0613
   44MOL0     H 6037  12.043   0.836   3.564 -1.7106 -0.3957  1.5689
   44MOL0     H 6038  12.161   0.777   3.754  1.1287  0.3763  0.0924
   44MOL0     H 6039  12.207   0.627   3.706 -0.3124 -0.4092 -2.1479
   44MOL0     H 6040  12.309   0.897   3.579 -1.3124 -0.4460 -1.2472
   44MOL0     H 6041  12.362   0.744   3.523  0.6490 -0.0907  1.9090
   44MOL0     H 6042  12.480   0.706   3.754 -1.6165 -1.1725 -0.5534
   44MOL0     H 6043  12.390   0.837   3.810 -0.5993 -2.2752  0.3267
   44MOL0     H 6044  12.602   0.845   3.597 -0.1794 -2.3021  1.1986
   44MOL0     H 6045  12.503   0.988   3.643 -1.3212 -0.0978 -1.5557
   44MOL0     H 6046  12.688   0.804   3.793 -0.4707 -0.0679  0.9373
   44MOL0     H 6047  12.628   0.961   3.867  2.3202  0.6699  0.1276
   44MOL0     H 6048  12.842   0.985   3.819 -4.7408 -0.1199  2.5301
   44MOL0     H 6049  12.748   1.081   3.702 -1.7082 -0.6596  1.4420
   44MOL0     H 6050  12.787   0.879   3.535 -0.3924  2.8288  0.2546
   44MOL0     H 6051  12.902   0.808   3.638  2.7155  1.5620 -1.0264
   44MOL0     H 6052  11.762   0.524   3.706 -2.0522 -0.3485  0.2778
   44MOL0     H 6053  11.569   0.452   3.562 -0.3105 -0.1194 -1.1443
   44MOL0     H 6054  11.269   0.449   3.359 -1.5708  1.2820  0.2575
   44MOL0     H 6055  11.044   0.396   3.312  2.1819  0.4351  2.3563
   44MOL0     H 6056  10.128   0.490   2.053 -1.0359 -4.3326  1.6856
   44MOL0     H 6057  10.149   0.640   1.860 -0.0505  0.3473 -0.9764
   44MOL0     H 6058  10.129   0.809   1.515 -2.8026 -0.6488  1.6183
   44MOL0     H 6059  10.194   0.929   1.320  1.3811 -0.9341  0.8364
   44MOL0     H 6060  10.028   1.028   1.113  0.8906  0.2779 -1.2536
   44MOL0     H 6061  10.181   1.063   1.152  0.0497 -0.9847 -0.1735
   44MOL0     H 6062  10.227   1.053   0.892 -0.9242  0.0802 -2.5184
   44MOL0     H 6063  10.122   1.185   0.959  1.2792 -0.0407  0.3077
   44MOL0     H 6064  10.019   0.932   0.830 -0.0377  0.4619  0.9386
   44MOL0     H 6065   9.923   1.070   0.899 -0.1226  1.8609  0.0788
   44MOL0     H 6066   9.963   1.041   0.650 -1.5580 -0.1409  1.8029
   44MOL0     H 6067  10.132   1.060   0.672 -0.0014 -1.2033  1.0754
   44MOL0     H 6068  10.004   1.461   0.774  0.2292  0.4091 -1.7509
   44MOL0     H 6069  10.039   0.647   1.060 -0.3635  0.4993 -0.7271
   44MOL0     H 6070   9.876   0.487   1.146  2.7929 -1.4259 -1.7357
   44MOL0     H 6071   9.968   0.392   1.246 -2.1734 -0.8402  2.7312
   44MOL0     H 6072   9.843   0.479   1.326 -0.3647 -0.4743 -0.2792
   45MOL0     O 6073   6.122   0.024   5.679 -0.1925  0.2210 -0.5162
   45MOL0     C 6074   6.104  -0.093   5.658  0.4423  0.7138  0.5867
   45MOL0     O 6075   6.186  -0.169   5.578 -0.0136  0.1334  0.1642
   45MOL0     C 6076   6.307  -0.123   5.559 -0.0142  0.9371  0.3897
   45MOL0     C 6077   6.358  -0.088   5.437  0.0253  0.2769 -0.1601
   45MOL0     C 6078   6.482  -0.043   5.412  0.3133 -0.9238  0.4755
   45MOL0     C 6079   6.579  -0.027   5.516  0.2233  0.2219 -0.2456
   45MOL0     O 6080   6.711   0.002   5.501 -0.0943  0.3122 -0.5134
   45MOL0     C 6081   6.741   0.122   5.441  0.8303  0.0155  0.4547
   45MOL0     C 6082   6.794   0.224   5.544  1.1259  0.6905  0.1149
   45MOL0     C 6083   6.691   0.280   5.645 -0.1688 -0.1299 -0.0325
   45MOL0     C 6084   6.610   0.397   5.588 -0.8232 -0.2053 -0.9299
   45MOL0     C 6085   6.504   0.440   5.683  0.1524 -0.3898 -0.5044
   45MOL0     C 6086   6.401   0.334   5.721 -0.6812 -0.5051  0.5389
   45MOL0     C 6087   6.269   0.406   5.761  0.1787  0.1290  0.2271
   45MOL0     C 6088   6.175   0.310   5.841  0.0778 -0.0227 -0.4197
   45MOL0     N 6089   6.064   0.380   5.902  0.4380 -0.0691  0.3080
   45MOL0     C 6090   5.934   0.376   5.855 -0.3786  0.1196 -0.4006
   45MOL0     C 6091   5.866   0.467   5.925 -0.7092 -0.6022 -0.1766
   45MOL0     C 6092   5.727   0.515   5.905 -0.2724 -0.5776 -0.3790
   45MOL0     C 6093   5.639   0.472   6.019  0.2876  0.2481 -0.2711
   45MOL0     C 6094   5.502   0.534   6.031  0.0914 -0.8942 -0.2608
   45MOL0     C 6095   5.403   0.448   6.105 -0.1765 -0.2890 -0.6553
   45MOL0     O 6096   5.282   0.533   6.116  0.0613  0.5401  0.1052
   45MOL0     C 6097   5.171   0.502   6.043 -0.4129  0.1312  0.2811
   45MOL0     C 6098   5.106   0.608   5.989 -0.1424 -0.6527  0.1288
   45MOL0     C 6099   4.989   0.597   5.910 -0.4071 -1.0877  0.2100
   45MOL0     C 6100   4.927   0.725   5.857 -0.6495  0.4634  0.1295
   45MOL0     C 6101   4.931   0.462   5.897  1.0109 -0.0271  1.1121
   45MOL0     C 6102   4.799   0.437   5.830 -0.0921 -0.6183 -0.0390
   45MOL0     O 6103   4.772   0.301   5.831 -0.2482 -0.5680 -0.0107
   45MOL0     C 6104   4.660   0.260   5.771 -0.5776  1.0581  1.0694
   45MOL0     C 6105   4.582   0.169   5.840  0.4233  0.7234 -0.4376
   45MOL0     C 6106   4.460   0.125   5.788 -0.2896  0.0397  0.1771
   45MOL0     C 6107   4.402   0.175   5.669 -0.3720 -0.8567  0.5280
   45MOL0     O 6108   4.276   0.142   5.613  0.1394 -0.4770  0.5666
   45MOL0     C 6109   4.213   0.027   5.663 -0.0735 -0.0116 -0.2496
   45MOL0     C 6110   4.100  -0.005   5.559  0.3211  0.2789  1.2940
   45MOL0     C 6111   4.134  -0.042   5.408 -0.1221 -0.6638 -0.2298
   45MOL0     C 6112   4.261  -0.126   5.403  0.0610  0.4118 -0.8889
   45MOL0     C 6113   4.293  -0.184   5.261  0.6854 -0.3671 -0.5397
   45MOL0     C 6114   4.357  -0.076   5.171 -0.3168 -0.2646  0.5400
   45MOL0     C 6115   4.265  -0.063   5.050  0.7982 -0.6596 -0.6874
   45MOL0     C 6116   4.264  -0.170   4.945 -0.6644  0.0063 -0.5630
   45MOL0    Cl 6117   4.117  -0.143   4.835 -0.5248  0.2362  0.3791
   45MOL0     C 6118   4.482   0.268   5.593 -0.5052 -0.4702  0.0612
   45MOL0     C 6119   4.610   0.303   5.644  1.1992  0.1199  0.4867
   45MOL0     O 6120   4.739   0.529   5.771 -0.2767 -0.0719 -0.0467
   45MOL0     C 6121   4.992   0.351   5.956 -0.9626 -0.0338  0.3500
   45MOL0     C 6122   5.123   0.375   6.020  0.9581  1.1812  0.5845
   45MOL0     N 6123   5.948   0.536   6.011  0.3411 -0.2502 -0.0473
   45MOL0     N 6124   6.063   0.476   6.004 -0.2984 -0.4137 -0.5676
   45MOL0     C 6125   6.530  -0.070   5.639  0.3432  0.6051 -0.7118
   45MOL0     C 6126   6.397  -0.104   5.667 -0.0908 -0.0007 -0.8254
   45MOL0     C 6127   5.969  -0.154   5.702 -1.1860  0.0384 -0.1091
   45MOL0     C 6128   5.948  -0.281   5.662  0.5128 -0.5875  0.6431
   45MOL0     C 6129   5.820  -0.344   5.670 -0.9378  0.7336 -0.0643
   45MOL0     C 6130   5.712  -0.274   5.727  0.1380 -0.4748 -0.4044
   45MOL0     O 6131   5.586  -0.313   5.731  0.1607 -0.3830 -0.1122
   45MOL0     C 6132   5.551  -0.423   5.642  0.0421 -0.2169 -0.0565
   45MOL0     C 6133   5.430  -0.504   5.704 -1.0110 -0.3614  0.0962
   45MOL0     C 6134   5.318  -0.408   5.739  0.3957 -0.5846  0.2695
   45MOL0     C 6135   5.179  -0.467   5.752 -0.0513 -0.0234  0.3581
   45MOL0     C 6136   5.143  -0.553   5.636 -1.2336  0.7639 -0.2121
   45MOL0     C 6137   5.118  -0.611   5.536  0.2073 -0.1300 -0.2442
   45MOL0     C 6138   5.741  -0.153   5.784  0.0414  0.1493 -0.8282
   45MOL0     C 6139   5.866  -0.092   5.766 -0.1562 -0.5931 -0.9954
   45MOL0     C 6140   5.877   0.037   5.845  0.5414  0.3346  0.0160
   45MOL0     H 6141   6.298  -0.097   5.347  0.1719  0.1639 -0.2465
   45MOL0     H 6142   6.510  -0.027   5.308 -1.1606  0.4137  0.2544
   45MOL0     H 6143   6.649   0.165   5.401  0.2893 -0.9803  0.5882
   45MOL0     H 6144   6.811   0.109   5.358  0.2316  0.3948 -0.1176
   45MOL0     H 6145   6.864   0.162   5.600 -1.5167  0.3835  3.3591
   45MOL0     H 6146   6.843   0.306   5.490 -2.2105  3.0603  0.4414
   45MOL0     H 6147   6.620   0.199   5.661  0.3807 -0.4925  0.6216
   45MOL0     H 6148   6.751   0.316   5.729 -0.4332 -1.8402  0.9247
   45MOL0     H 6149   6.677   0.482   5.570 -0.5945 -0.2043 -0.1149
   45MOL0     H 6150   6.577   0.371   5.487 -0.2155 -1.2974 -0.8585
   45MOL0     H 6151   6.456   0.520   5.626  3.1101  1.4151 -0.6740
   45MOL0     H 6152   6.554   0.495   5.764  1.0938  2.1143 -2.6685
   45MOL0     H 6153   6.381   0.281   5.628  1.1013  0.8584 -0.6787
   45MOL0     H 6154   6.438   0.259   5.792  1.4160 -1.1065 -1.0941
   45MOL0     H 6155   6.210   0.440   5.676 -0.8521 -0.0636  0.8510
   45MOL0     H 6156   6.289   0.495   5.821 -1.6173  2.6376 -2.6537
   45MOL0     H 6157   6.135   0.234   5.773 -1.2637  0.5424 -0.2901
   45MOL0     H 6158   6.221   0.266   5.930 -1.3782 -1.3963 -0.2921
   45MOL0     H 6159   5.900   0.308   5.778  3.1759 -2.3909 -0.0143
   45MOL0     H 6160   5.687   0.477   5.811  0.1770  1.7674 -1.5989
   45MOL0     H 6161   5.738   0.623   5.896  3.1182 -1.0227 -3.4173
   45MOL0     H 6162   5.618   0.365   6.019 -1.3262  0.4987  1.5295
   45MOL0     H 6163   5.687   0.489   6.116 -2.4396  0.1474  1.2339
   45MOL0     H 6164   5.511   0.625   6.091  0.2827  0.5055 -2.3047
   45MOL0     H 6165   5.463   0.550   5.929  1.4129  3.2117 -0.3188
   45MOL0     H 6166   5.392   0.349   6.060  2.2476 -0.1602 -1.6850
   45MOL0     H 6167   5.449   0.435   6.203  1.8282 -0.3199 -1.5658
   45MOL0     H 6168   5.137   0.711   6.006 -0.8484 -0.7540  2.3170
   45MOL0     H 6169   4.997   0.806   5.877  0.2302 -0.2513  0.0621
   45MOL0     H 6170   4.824   0.736   5.891 -0.9522  0.1871 -0.6603
   45MOL0     H 6171   4.911   0.710   5.749 -3.6218 -0.1883  0.5809
   45MOL0     H 6172   4.614   0.146   5.941 -0.4743 -0.3996 -0.3916
   45MOL0     H 6173   4.400   0.045   5.829  0.8538 -1.7698 -1.5165
   45MOL0     H 6174   4.281  -0.058   5.674 -3.4239 -3.0760 -1.1544
   45MOL0     H 6175   4.166   0.050   5.759  0.4750  2.6860 -0.5560
   45MOL0     H 6176   4.046  -0.091   5.600 -2.9097  0.1921 -2.5778
   45MOL0     H 6177   4.033   0.081   5.564 -1.9558 -1.4715  3.5088
   45MOL0     H 6178   4.156   0.040   5.339  2.3905 -1.5163 -0.5643
   45MOL0     H 6179   4.047  -0.091   5.365 -0.8647  0.0005  0.4909
   45MOL0     H 6180   4.247  -0.214   5.466  2.1498  0.7484  0.1092
   45MOL0     H 6181   4.343  -0.065   5.441  0.3240 -0.7229  0.3966
   45MOL0     H 6182   4.362  -0.265   5.285  0.7949 -0.3344 -0.7379
   45MOL0     H 6183   4.203  -0.230   5.220 -1.4583  1.0127  2.2542
   45MOL0     H 6184   4.460  -0.108   5.151 -0.3433 -1.6167  2.2740
   45MOL0     H 6185   4.376   0.024   5.211  0.2028  0.0614 -0.5069
   45MOL0     H 6186   4.274   0.033   4.999 -0.3333 -0.1738  0.0028
   45MOL0     H 6187   4.166  -0.050   5.094  1.3079  2.4458 -0.2719
   45MOL0     H 6188   4.264  -0.270   4.990 -2.0060  0.0697 -0.3921
   45MOL0     H 6189   4.352  -0.175   4.881  1.5322  0.3063  2.2227
   45MOL0     H 6190   4.455   0.299   5.492 -1.4746 -1.0673  0.1143
   45MOL0     H 6191   4.663   0.360   5.569  1.4861 -1.5845 -0.6798
   45MOL0     H 6192   4.964   0.247   5.943  4.7745 -2.3108  2.8005
   45MOL0     H 6193   5.180   0.292   6.061 -0.7446 -0.9395 -1.1099
   45MOL0     H 6194   6.607  -0.078   5.715  0.3641 -2.0002 -0.9361
   45MOL0     H 6195   6.367  -0.137   5.766 -0.6491  1.7014 -0.3930
   45MOL0     H 6196   6.017  -0.351   5.615 -2.8217 -0.7990 -4.9023
   45MOL0     H 6197   5.822  -0.440   5.619 -0.4985  1.0025 -0.5680
   45MOL0     H 6198   5.521  -0.385   5.544  1.4720  4.0056  0.9309
   45MOL0     H 6199   5.624  -0.502   5.623  0.4019 -0.1693  1.0385
   45MOL0     H 6200   5.461  -0.556   5.795 -2.0266 -1.6308 -0.2597
   45MOL0     H 6201   5.411  -0.587   5.636  2.1402 -1.2775  0.1590
   45MOL0     H 6202   5.327  -0.361   5.837 -0.8873 -2.2733  1.2499
   45MOL0     H 6203   5.311  -0.344   5.651  0.9032 -0.6864  0.1504
   45MOL0     H 6204   5.108  -0.385   5.761  0.7295  0.6774  0.3069
   45MOL0     H 6205   5.158  -0.521   5.845 -2.2228  2.0780  1.1999
   45MOL0     H 6206   5.087  -0.655   5.443 -2.1082 -1.2949  0.9861
   45MOL0     H 6207   5.659  -0.108   5.840 -0.4786 -0.5081 -1.0410
   45MOL0     H 6208   5.974   0.086   5.863  0.8062  0.4548 -1.6479
   45MOL0     H 6209   5.824   0.117   5.793 -0.6850  1.4607  2.7950
   45MOL0     H 6210   5.829   0.005   5.938 -0.7422 -1.6096 -1.2420
   46MOL0     O 6211   7.490   8.829   7.236 -0.0431  0.1485  0.2111
   46MOL0     C 6212   7.397   8.905   7.216  0.2890  0.1886 -0.4522
   46MOL0     O 6213   7.411   9.042   7.206  0.5975  0.2008 -0.1152
   46MOL0     C 6214   7.537   9.093   7.212 -0.1585 -0.0337 -0.2227
   46MOL0     C 6215   7.627   9.063   7.102  0.4999 -0.1501 -0.0431
   46MOL0     C 6216   7.761   9.095   7.110  0.3283  0.2984  0.4548
   46MOL0     C 6217   7.808   9.163   7.227 -0.2456 -0.2202  0.2385
   46MOL0     O 6218   7.943   9.195   7.242  0.3075  0.6154 -0.1338
   46MOL0     C 6219   8.046   9.190   7.142 -0.2031 -0.5383 -0.0423
   46MOL0     C 6220   8.184   9.238   7.201  1.0648  0.6598  0.3428
   46MOL0     C 6221   8.190   9.390   7.226 -0.2808  0.1079 -0.2177
   46MOL0     C 6222   8.341   9.433   7.232  0.3734 -1.0740 -0.1883
   46MOL0     C 6223   8.353   9.581   7.254  0.6556 -0.2928  0.0422
   46MOL0     C 6224   8.504   9.628   7.250  0.6312  0.8576 -0.3320
   46MOL0     C 6225   8.593   9.573   7.361 -0.1768 -0.4016 -0.7534
   46MOL0     C 6226   8.740   9.573   7.324 -0.3865  0.2150  0.3222
   46MOL0     N 6227   8.779   9.472   7.225 -0.0796 -0.2991 -0.1681
   46MOL0     C 6228   8.787   9.337   7.250 -0.0331 -0.4796  0.0653
   46MOL0     C 6229   8.836   9.293   7.137  0.1830  0.1716  0.1108
   46MOL0     C 6230   8.875   9.151   7.102 -0.1729  0.3555 -1.0861
   46MOL0     C 6231   8.781   9.059   7.037 -0.0512 -0.1059  0.2008
   46MOL0     C 6232   8.827   8.921   6.996  0.2646 -0.0765  1.0137
   46MOL0     C 6233   8.863   8.831   7.113  0.4359 -0.2541  0.2691
   46MOL0     O 6234   8.910   8.703   7.077  0.0387 -0.0024  0.2786
   46MOL0     C 6235   9.047   8.697   7.068 -0.9882 -0.1956 -0.3795
   46MOL0     C 6236   9.134   8.804   7.049 -0.3924 -0.1324 -1.0687
   46MOL0     C 6237   9.271   8.773   7.025  0.2122  0.2226 -0.1035
   46MOL0     C 6238   9.354   8.897   7.001  0.2824 -0.4308  0.1913
   46MOL0     C 6239   9.320   8.640   7.029 -0.2980 -0.4566 -0.2433
   46MOL0     C 6240   9.461   8.604   6.999  1.2669  0.3788  0.8119
   46MOL0     O 6241   9.550   8.712   6.979 -1.1513 -0.3719 -0.0886
   46MOL0     C 6242   9.688   8.690   6.979 -0.7664  0.1002  0.5193
   46MOL0     C 6243   9.765   8.595   7.058 -0.2800  0.0175  0.4088
   46MOL0     C 6244   9.902   8.592   7.030  0.0975  0.0867 -0.5957
   46MOL0     C 6245   9.966   8.661   6.930 -0.3774  0.6342  0.8772
   46MOL0     O 6246  10.102   8.635   6.910 -0.3281  0.2871 -0.0248
   46MOL0     C 6247  10.169   8.730   6.826 -0.9010 -0.0538  0.7976
   46MOL0     C 6248  10.320   8.711   6.806  0.2003 -1.0368 -0.9603
   46MOL0     C 6249  10.387   8.790   6.921 -0.0788 -0.8685 -0.3023
   46MOL0     C 6250  10.540   8.763   6.918  0.4070  0.5001 -0.1988
   46MOL0     C 6251  10.616   8.852   7.025  0.3336  0.7303 -0.4624
   46MOL0     C 6252  10.777   8.833   7.006 -0.7356 -0.3973  0.3270
   46MOL0     C 6253  10.868   8.921   7.093  0.1446  0.3540  0.8558
   46MOL0     C 6254  10.875   9.064   7.067 -0.2552  0.2958  0.5157
   46MOL0    Cl 6255  11.016   9.125   7.156 -0.2900 -0.0120 -0.5296
   46MOL0     C 6256   9.891   8.740   6.838  1.3461 -0.6943 -0.2810
   46MOL0     C 6257   9.755   8.759   6.869  0.1737  0.2451  0.1152
   46MOL0     O 6258   9.495   8.483   6.983 -0.3902 -0.2963  1.3435
   46MOL0     C 6259   9.231   8.542   7.047 -0.0398  0.2980 -0.9014
   46MOL0     C 6260   9.094   8.568   7.066  0.2779  0.3626 -0.3324
   46MOL0     N 6261   8.865   9.397   7.049 -0.0055 -0.0928 -0.6457
   46MOL0     N 6262   8.839   9.508   7.107 -0.1917 -0.9564  0.1235
   46MOL0     C 6263   7.715   9.198   7.330 -1.2996  0.3603 -0.6671
   46MOL0     C 6264   7.582   9.174   7.316  0.3544 -0.7571 -0.3503
   46MOL0     C 6265   7.261   8.850   7.215  0.3177  0.2141 -0.2898
   46MOL0     C 6266   7.150   8.940   7.236  0.0665  0.1952  0.4540
   46MOL0     C 6267   7.015   8.887   7.243 -0.8474  0.4896  0.0979
   46MOL0     C 6268   6.992   8.752   7.226  0.1188 -0.2109  0.0977
   46MOL0     O 6269   6.866   8.720   7.245  0.5336  0.6028 -0.1546
   46MOL0     C 6270   6.842   8.583   7.293 -0.3648  0.1004  0.8358
   46MOL0     C 6271   6.706   8.552   7.338 -0.7857 -0.7679  0.4541
   46MOL0     C 6272   6.612   8.556   7.219 -0.3004 -0.3801 -0.5326
   46MOL0     C 6273   6.466   8.571   7.278 -0.6819 -0.5742  0.7117
   46MOL0     C 6274   6.377   8.598   7.165  0.2288 -0.6137  0.3860
   46MOL0     C 6275   6.295   8.621   7.077 -0.2407 -0.0123 -0.0311
   46MOL0     C 6276   7.105   8.664   7.208 -0.6810 -0.8596  0.1329
   46MOL0     C 6277   7.237   8.708   7.212 -0.3904  0.4533  0.5380
   46MOL0     C 6278   7.335   8.597   7.216 -0.0039 -0.0480 -0.1993
   46MOL0     H 6279   7.583   9.024   7.010  2.5869  3.1777 -2.7115
   46MOL0     H 6280   7.833   9.082   7.030  1.0101  2.0786  0.7146
   46MOL0     H 6281   8.007   9.267   7.075 -4.2191 -1.2855  1.1922
   46MOL0     H 6282   8.052   9.089   7.101 -1.6805 -1.1906  1.2647
   46MOL0     H 6283   8.206   9.186   7.295  0.3043  0.9214  0.6773
   46MOL0     H 6284   8.257   9.197   7.130  0.4758 -3.2738  1.7275
   46MOL0     H 6285   8.125   9.445   7.158 -2.0028 -2.1442 -0.5171
   46MOL0     H 6286   8.149   9.414   7.324  0.0757 -2.1219  0.5487
   46MOL0     H 6287   8.388   9.374   7.311 -1.1657 -0.7860  1.0028
   46MOL0     H 6288   8.383   9.413   7.133 -1.7508  1.1256 -1.6447
   46MOL0     H 6289   8.308   9.617   7.347 -1.4729 -1.9181 -0.2825
   46MOL0     H 6290   8.301   9.632   7.173 -2.6726 -0.9443  1.6172
   46MOL0     H 6291   8.532   9.573   7.159 -0.8682 -1.0782  0.2994
   46MOL0     H 6292   8.498   9.737   7.245  1.9113  1.0506  1.3383
   46MOL0     H 6293   8.584   9.467   7.383  2.8398 -0.7769 -0.9398
   46MOL0     H 6294   8.585   9.636   7.450  0.3587 -0.5971 -0.5650
   46MOL0     H 6295   8.763   9.671   7.281 -0.7763  0.9665  1.7644
   46MOL0     H 6296   8.804   9.580   7.413 -1.0371 -0.6123  0.8669
   46MOL0     H 6297   8.755   9.281   7.338 -0.3028 -0.2558  0.1089
   46MOL0     H 6298   8.920   9.095   7.185  0.3364  0.0926 -1.5294
   46MOL0     H 6299   8.957   9.156   7.029 -1.3297 -1.3449 -2.5799
   46MOL0     H 6300   8.701   9.045   7.111  0.0909  0.1579  0.4086
   46MOL0     H 6301   8.749   9.115   6.949  2.0330  2.0145  0.6816
   46MOL0     H 6302   8.752   8.875   6.930  1.3675  1.4043 -1.3650
   46MOL0     H 6303   8.913   8.924   6.930 -0.2847  0.6534  0.3173
   46MOL0     H 6304   8.933   8.885   7.177  0.6378 -0.5086  0.2648
   46MOL0     H 6305   8.765   8.822   7.162 -1.8073  3.7271 -2.8541
   46MOL0     H 6306   9.099   8.906   7.036  1.0274  0.7340  1.3232
   46MOL0     H 6307   9.404   8.891   6.904  1.6429  0.3790  0.8175
   46MOL0     H 6308   9.426   8.924   7.078 -0.1310  2.9261 -0.4647
   46MOL0     H 6309   9.294   8.986   6.979  1.9713  0.9346  0.9124
   46MOL0     H 6310   9.721   8.528   7.131  0.1496 -0.1562  0.5149
   46MOL0     H 6311   9.963   8.532   7.095  1.0753  0.2491 -1.3390
   46MOL0     H 6312  10.125   8.722   6.726  0.2046 -0.9073  0.3557
   46MOL0     H 6313  10.147   8.832   6.859 -3.5633 -0.4466  0.4649
   46MOL0     H 6314  10.329   8.603   6.814 -5.5238 -1.9469 -2.2478
   46MOL0     H 6315  10.351   8.757   6.712  0.5207  0.1929 -0.2793
   46MOL0     H 6316  10.350   8.768   7.022  2.3445  0.2938  0.9445
   46MOL0     H 6317  10.360   8.895   6.906  0.7039 -0.8445 -1.6609
   46MOL0     H 6318  10.572   8.794   6.818 -1.2610  2.8647 -0.0752
   46MOL0     H 6319  10.561   8.658   6.940 -1.5244  0.2158  0.4495
   46MOL0     H 6320  10.582   8.955   7.009 -3.6498 -0.3037  0.1834
   46MOL0     H 6321  10.593   8.818   7.126  1.9494  0.1364 -0.2610
   46MOL0     H 6322  10.816   8.829   6.904  0.2231 -2.9410  0.7201
   46MOL0     H 6323  10.795   8.728   7.034 -0.2991 -1.0870 -2.3341
   46MOL0     H 6324  10.968   8.881   7.078 -0.5047 -1.4412  1.0085
   46MOL0     H 6325  10.836   8.901   7.196 -1.6298 -1.7678 -0.0058
   46MOL0     H 6326  10.779   9.115   7.082  0.2410  1.8395 -1.2063
   46MOL0     H 6327  10.892   9.076   6.960  2.6449  3.5331  1.1541
   46MOL0     H 6328   9.932   8.787   6.749  1.1315  0.7754  0.3765
   46MOL0     H 6329   9.707   8.835   6.808  3.0087  0.0306 -2.6555
   46MOL0     H 6330   9.261   8.438   7.047  0.5088  0.4554 -0.2479
   46MOL0     H 6331   9.019   8.489   7.068  1.8250 -1.1788 -0.4273
   46MOL0     H 6332   7.751   9.260   7.411  1.4585  0.9216 -2.2024
   46MOL0     H 6333   7.512   9.202   7.394  1.3065  1.9934 -0.3621
   46MOL0     H 6334   7.175   9.044   7.251  3.7560 -0.2235 -1.6375
   46MOL0     H 6335   6.930   8.954   7.254  0.9246  2.7928  0.4536
   46MOL0     H 6336   6.863   8.513   7.211  0.5435  1.3436 -0.0187
   46MOL0     H 6337   6.919   8.558   7.368 -0.5635 -0.8424  0.7437
   46MOL0     H 6338   6.691   8.627   7.417 -0.3071 -0.8376  0.6203
   46MOL0     H 6339   6.707   8.450   7.378 -2.0236 -1.0573 -0.1999
   46MOL0     H 6340   6.640   8.634   7.147  3.0940 -0.1535  0.8690
   46MOL0     H 6341   6.619   8.464   7.161  1.0876 -0.8961  0.4204
   46MOL0     H 6342   6.462   8.662   7.338 -0.5623 -0.6770  0.8763
   46MOL0     H 6343   6.438   8.482   7.336  1.7160 -1.5313  0.5057
   46MOL0     H 6344   6.235   8.653   6.995  2.0995 -1.1510 -2.3328
   46MOL0     H 6345   7.092   8.556   7.205  2.0858 -1.2399 -1.2373
   46MOL0     H 6346   7.303   8.493   7.227  2.3725 -1.1492 -2.4689
   46MOL0     H 6347   7.393   8.596   7.123 -0.6904 -1.0895 -0.6327
   46MOL0     H 6348   7.408   8.614   7.295  1.7516  2.1749 -2.1235
   47MOL0     O 6349   1.444   6.889   5.712  0.1265 -0.0989 -0.5826
   47MOL0     C 6350   1.475   6.994   5.775 -0.1137  0.7847  0.0710
   47MOL0     O 6351   1.600   7.054   5.774  0.7330 -0.2280  0.0652
   47MOL0     C 6352   1.715   6.978   5.752  0.2831 -0.3707 -0.1699
   47MOL0     C 6353   1.730   6.841   5.780  0.1355  0.6716 -1.0577
   47MOL0     C 6354   1.848   6.772   5.744  0.8785 -0.2731  0.8259
   47MOL0     C 6355   1.954   6.845   5.687 -0.4959  0.3889 -0.0779
   47MOL0     O 6356   2.080   6.786   5.654 -0.4130  0.2969 -0.5356
   47MOL0     C 6357   2.131   6.702   5.760 -0.0310 -0.4318  0.1349
   47MOL0     C 6358   2.278   6.682   5.731 -0.7780 -0.1080 -0.0618
   47MOL0     C 6359   2.383   6.802   5.763  0.7527  0.5543 -0.2101
   47MOL0     C 6360   2.358   6.921   5.660 -0.4302  0.3976  0.4220
   47MOL0     C 6361   2.476   7.006   5.623 -0.7580  0.0875 -0.1174
   47MOL0     C 6362   2.549   7.062   5.744 -0.2568  0.2159  0.3201
   47MOL0     C 6363   2.675   7.142   5.706 -0.1607 -0.1114 -0.4255
   47MOL0     C 6364   2.769   7.177   5.827 -0.6045  0.8630  0.9396
   47MOL0     N 6365   2.737   7.302   5.899 -0.2010 -0.4321 -0.1640
   47MOL0     C 6366   2.625   7.315   5.985 -0.1591 -0.0380 -0.2879
   47MOL0     C 6367   2.629   7.446   6.017  0.1083 -0.4827 -0.3943
   47MOL0     C 6368   2.522   7.501   6.104 -0.1123 -0.2339  0.0669
   47MOL0     C 6369   2.486   7.644   6.058  0.9070  0.3707  0.3360
   47MOL0     C 6370   2.346   7.674   6.115  0.6401 -0.9869 -0.4878
   47MOL0     C 6371   2.335   7.701   6.274  1.0290  0.9226  0.6781
   47MOL0     O 6372   2.197   7.715   6.309 -0.0469 -0.3877  0.3733
   47MOL0     C 6373   2.159   7.716   6.443 -0.5962  0.0111 -0.8360
   47MOL0     C 6374   2.204   7.625   6.545 -0.0435 -0.0567  0.0237
   47MOL0     C 6375   2.140   7.615   6.664  0.2156 -0.3062  0.2971
   47MOL0     C 6376   2.203   7.519   6.763  0.1057  0.5181  0.3536
   47MOL0     C 6377   2.028   7.691   6.690 -0.5082 -0.3772  0.0550
   47MOL0     C 6378   1.953   7.668   6.811  0.0430 -0.5507  0.6843
   47MOL0     O 6379   1.913   7.542   6.814 -0.4844 -0.2427  0.1204
   47MOL0     C 6380   1.841   7.507   6.922  0.3847 -0.2898  0.1500
   47MOL0     C 6381   1.698   7.530   6.921 -0.3860  0.4123  0.2842
   47MOL0     C 6382   1.627   7.475   7.029  0.0233  0.3243 -0.1193
   47MOL0     C 6383   1.685   7.418   7.141  0.3888  0.0942 -0.5318
   47MOL0     O 6384   1.597   7.376   7.232 -0.1599  0.3448 -0.3399
   47MOL0     C 6385   1.649   7.295   7.331 -0.1548  0.0105 -0.1050
   47MOL0     C 6386   1.526   7.246   7.407 -0.0537  0.8850  0.2632
   47MOL0     C 6387   1.546   7.131   7.507  0.8220  0.2914  0.3472
   47MOL0     C 6388   1.414   7.115   7.591 -0.5813 -0.7047  0.6560
   47MOL0     C 6389   1.414   7.003   7.701  0.8403 -0.0644 -0.3757
   47MOL0     C 6390   1.489   7.051   7.826 -0.0375 -0.1577 -0.5114
   47MOL0     C 6391   1.483   6.945   7.944  0.5003 -1.1573 -0.1806
   47MOL0     C 6392   1.548   6.815   7.914  1.2024  0.9328  0.5169
   47MOL0    Cl 6393   1.726   6.831   7.878  0.3406 -0.0220  0.6065
   47MOL0     C 6394   1.826   7.418   7.147  0.3897 -0.3258 -1.2523
   47MOL0     C 6395   1.896   7.455   7.034 -0.6538 -0.5038 -0.0894
   47MOL0     O 6396   1.937   7.756   6.901  0.2750  0.2188  0.4603
   47MOL0     C 6397   1.992   7.787   6.599 -0.2867 -0.0476  0.1043
   47MOL0     C 6398   2.058   7.804   6.481 -0.1098  0.1262 -0.1297
   47MOL0     N 6399   2.731   7.508   5.953 -0.1995  1.3057  0.0385
   47MOL0     N 6400   2.809   7.419   5.894 -0.2132  0.3432  0.6455
   47MOL0     C 6401   1.940   6.985   5.667  0.1296  0.4057 -0.3404
   47MOL0     C 6402   1.829   7.050   5.709  0.6088 -0.7277  0.5324
   47MOL0     C 6403   1.370   7.075   5.837 -0.5322 -0.7317  0.4065
   47MOL0     C 6404   1.235   7.058   5.798  0.4868  0.4187  0.0126
   47MOL0     C 6405   1.134   7.130   5.865 -0.0375  0.1423  0.0914
   47MOL0     C 6406   1.165   7.229   5.955  0.0143 -0.2894  0.3877
   47MOL0     O 6407   1.064   7.298   6.016 -0.6602  0.2737 -0.6014
   47MOL0     C 6408   0.930   7.282   5.974  0.1502 -0.6119 -0.4364
   47MOL0     C 6409   0.833   7.329   6.085 -0.4414 -0.7423  0.6298
   47MOL0     C 6410   0.698   7.262   6.058 -1.8222  0.0045 -0.5705
   47MOL0     C 6411   0.579   7.343   6.122 -0.6514  0.2731 -0.1924
   47MOL0     C 6412   0.446   7.279   6.108 -0.1693 -0.4062 -0.6191
   47MOL0     C 6413   0.335   7.233   6.086 -0.8061 -0.0036 -1.2081
   47MOL0     C 6414   1.297   7.265   5.973 -0.2071  0.2589 -1.0947
   47MOL0     C 6415   1.399   7.187   5.925  0.6117  0.1449  1.2282
   47MOL0     C 6416   1.532   7.224   5.980  0.1818  0.4594  1.0390
   47MOL0     H 6417   1.649   6.794   5.834 -0.2070  4.0498  1.6777
   47MOL0     H 6418   1.868   6.667   5.764 -0.2414 -1.1311 -2.0595
   47MOL0     H 6419   2.078   6.606   5.756  1.6737 -1.3801 -0.2285
   47MOL0     H 6420   2.119   6.746   5.860 -2.9723 -3.9000  1.5413
   47MOL0     H 6421   2.308   6.589   5.779  1.2877  0.3565 -0.3197
   47MOL0     H 6422   2.298   6.667   5.624 -0.2971  1.1835 -0.1755
   47MOL0     H 6423   2.389   6.826   5.870 -0.0655 -2.1876  0.5339
   47MOL0     H 6424   2.481   6.760   5.736  0.9969  0.8181  0.2478
   47MOL0     H 6425   2.329   6.876   5.564  2.9849  1.5191 -1.3022
   47MOL0     H 6426   2.282   6.983   5.708  0.7085  0.4471  2.2197
   47MOL0     H 6427   2.457   7.089   5.555  1.4822  0.3530 -0.5135
   47MOL0     H 6428   2.539   6.934   5.569  0.6531  0.6928  0.6733
   47MOL0     H 6429   2.481   7.130   5.796  0.0405 -0.3246  1.4444
   47MOL0     H 6430   2.583   6.975   5.801  1.1457  0.5247 -0.0121
   47MOL0     H 6431   2.644   7.236   5.661 -2.4874 -1.3976 -1.7109
   47MOL0     H 6432   2.738   7.097   5.629 -0.3657  0.6906 -1.0753
   47MOL0     H 6433   2.764   7.102   5.907 -3.2168 -0.0449  0.0525
   47MOL0     H 6434   2.872   7.186   5.791 -0.9074  2.4070  0.3821
   47MOL0     H 6435   2.563   7.229   6.008  0.0340 -0.2535 -0.5688
   47MOL0     H 6436   2.573   7.509   6.201 -0.1409 -2.8840  0.3912
   47MOL0     H 6437   2.439   7.430   6.092  0.0343 -0.1671 -1.5034
   47MOL0     H 6438   2.555   7.720   6.097  1.1963  0.6742 -0.7359
   47MOL0     H 6439   2.493   7.652   5.949 -0.4066 -0.1945  0.1893
   47MOL0     H 6440   2.313   7.772   6.079  1.9743 -0.1749  0.4023
   47MOL0     H 6441   2.278   7.593   6.089 -3.8284  1.4780  2.1475
   47MOL0     H 6442   2.399   7.627   6.324  0.5167  1.0824  1.6024
   47MOL0     H 6443   2.377   7.797   6.307 -0.4964  2.8155 -2.3596
   47MOL0     H 6444   2.288   7.558   6.531  0.4437  0.1947  1.5991
   47MOL0     H 6445   2.204   7.416   6.725  1.0340  0.3725  0.7615
   47MOL0     H 6446   2.140   7.509   6.852 -1.7139 -2.1422 -1.0824
   47MOL0     H 6447   2.307   7.545   6.783 -0.3856  1.1915  2.2383
   47MOL0     H 6448   1.665   7.563   6.823  1.8331  1.0570 -0.3089
   47MOL0     H 6449   1.521   7.457   7.014  0.2279 -2.0290  0.7469
   47MOL0     H 6450   1.704   7.215   7.281  1.5121  0.2993  1.1588
   47MOL0     H 6451   1.720   7.338   7.402  1.0377  0.3908 -1.4783
   47MOL0     H 6452   1.475   7.330   7.455  1.0123  1.0571  1.1230
   47MOL0     H 6453   1.454   7.220   7.328  0.8705  0.5623 -0.4914
   47MOL0     H 6454   1.631   7.159   7.569  2.1663 -3.0319  0.2164
   47MOL0     H 6455   1.565   7.038   7.452  3.3436  1.2989 -0.6233
   47MOL0     H 6456   1.323   7.098   7.533 -1.9563 -1.8391  3.0092
   47MOL0     H 6457   1.414   7.216   7.633 -0.5505  1.2604 -3.5835
   47MOL0     H 6458   1.316   6.965   7.732  0.3122 -0.8459 -2.7311
   47MOL0     H 6459   1.453   6.909   7.661  3.7919  1.7908 -2.2305
   47MOL0     H 6460   1.447   7.140   7.873  0.2912 -0.9851  1.4555
   47MOL0     H 6461   1.593   7.070   7.801 -0.4984  3.1190 -0.3703
   47MOL0     H 6462   1.375   6.936   7.961  0.3160  0.1645 -0.5303
   47MOL0     H 6463   1.527   6.993   8.032 -0.7559  2.9525 -1.5365
   47MOL0     H 6464   1.484   6.775   7.836 -0.9901  0.1146  2.5929
   47MOL0     H 6465   1.524   6.751   8.000  0.0703 -1.3730 -1.4146
   47MOL0     H 6466   1.883   7.375   7.230 -1.3549 -3.0236 -1.3134
   47MOL0     H 6467   2.004   7.443   7.033  0.2107  4.5389  2.2040
   47MOL0     H 6468   1.902   7.846   6.613 -0.9792 -1.1618  0.4206
   47MOL0     H 6469   2.009   7.879   6.419  0.1136  0.4831  0.1241
   47MOL0     H 6470   2.020   7.048   5.629  0.9749 -0.3114  0.2140
   47MOL0     H 6471   1.824   7.155   5.683 -3.1484 -1.0238 -0.6042
   47MOL0     H 6472   1.204   6.983   5.726 -1.0640 -0.1813  1.2480
   47MOL0     H 6473   1.030   7.119   5.834  0.0613  1.2239 -0.7053
   47MOL0     H 6474   0.916   7.333   5.879  1.4152 -1.2056 -0.9554
   47MOL0     H 6475   0.906   7.176   5.964  1.6986 -0.7605 -3.8174
   47MOL0     H 6476   0.819   7.437   6.076 -1.6153 -1.0785 -3.3056
   47MOL0     H 6477   0.862   7.281   6.179 -3.4963 -3.3544  0.3996
   47MOL0     H 6478   0.666   7.237   5.957 -2.0041 -1.4337 -0.1809
   47MOL0     H 6479   0.701   7.167   6.112 -0.1397  1.0847  1.4021
   47MOL0     H 6480   0.583   7.445   6.083  2.1033 -0.0920 -1.1495
   47MOL0     H 6481   0.606   7.349   6.228  1.2380  0.0322 -0.6140
   47MOL0     H 6482   0.239   7.219   6.041 -0.8497  2.5990 -2.0874
   47MOL0     H 6483   1.320   7.337   6.051  1.3801 -0.9819 -0.3535
   47MOL0     H 6484   1.524   7.261   6.083  2.1714  3.0471  0.3799
   47MOL0     H 6485   1.600   7.138   5.987  0.9551  1.1088  1.7546
   47MOL0     H 6486   1.578   7.303   5.920 -2.0099  0.1007 -1.2439
   48MOL0     O 6487   8.273   8.796   2.308 -0.5046  0.5813  0.6092
   48MOL0     C 6488   8.248   8.695   2.253  0.1738 -0.6452  0.1390
   48MOL0     O 6489   8.299   8.651   2.143 -0.0302 -0.1806  0.0480
   48MOL0     C 6490   8.378   8.731   2.053 -0.0672 -0.2003  0.7775
   48MOL0     C 6491   8.435   8.861   2.071  0.7477 -0.3079  0.6321
   48MOL0     C 6492   8.498   8.930   1.965  0.1753 -0.1346 -0.8904
   48MOL0     C 6493   8.492   8.881   1.837 -0.1421  0.0013 -0.3840
   48MOL0     O 6494   8.553   8.958   1.739 -0.0912  0.1357 -0.0828
   48MOL0     C 6495   8.572   8.892   1.606 -0.5541 -0.0386 -0.1607
   48MOL0     C 6496   8.679   8.978   1.540  0.1454 -0.2681  0.2962
   48MOL0     C 6497   8.729   8.930   1.401 -0.2304  0.4235 -0.7691
   48MOL0     C 6498   8.789   8.783   1.402  0.3929 -0.3545 -0.2105
   48MOL0     C 6499   8.856   8.749   1.271  0.2306 -0.1373 -0.5777
   48MOL0     C 6500   8.876   8.594   1.262  0.5122  0.1212 -0.1997
   48MOL0     C 6501   8.947   8.549   1.132  1.2715  0.0562 -0.7300
   48MOL0     C 6502   9.078   8.625   1.118 -0.6087  0.4250 -0.8248
   48MOL0     N 6503   9.154   8.557   1.015 -0.0077 -0.8247  0.4144
   48MOL0     C 6504   9.267   8.478   1.017  0.9692 -0.0026 -0.2483
   48MOL0     C 6505   9.291   8.449   0.892  1.0194 -0.1066 -0.6606
   48MOL0     C 6506   9.411   8.372   0.859 -0.1269  0.6145 -0.1249
   48MOL0     C 6507   9.391   8.306   0.714  0.0816 -0.1730 -0.5533
   48MOL0     C 6508   9.512   8.211   0.684  0.3797 -0.2337  0.5119
   48MOL0     C 6509   9.503   8.149   0.557 -0.9498 -0.0636  0.4354
   48MOL0     O 6510   9.614   8.066   0.531 -0.2936  0.0960  0.5930
   48MOL0     C 6511   9.748   8.116   0.521  0.9247  0.3560 -1.2402
   48MOL0     C 6512   9.845   8.026   0.545 -0.0559  0.7299  0.0238
   48MOL0     C 6513   9.979   8.059   0.538  0.6337 -0.5934  0.5808
   48MOL0     C 6514  10.083   7.952   0.567 -0.0275 -0.4108  0.9611
   48MOL0     C 6515  10.012   8.196   0.516 -0.2943  0.0030 -0.0894
   48MOL0     C 6516  10.149   8.251   0.500 -0.5417 -0.3740  0.9288
   48MOL0     O 6517  10.171   8.384   0.497  0.4380  0.8933 -0.5570
   48MOL0     C 6518  10.297   8.437   0.510  0.4934  0.2183  0.1678
   48MOL0     C 6519  10.302   8.575   0.512 -0.4920 -0.7250  0.8008
   48MOL0     C 6520  10.426   8.643   0.532  0.1406  0.1576  0.1881
   48MOL0     C 6521  10.542   8.574   0.555 -0.3066  1.1535 -0.7133
   48MOL0     O 6522  10.653   8.649   0.575  0.1746  0.6075  0.7858
   48MOL0     C 6523  10.779   8.600   0.539  0.1831 -0.2895 -0.1252
   48MOL0     C 6524  10.884   8.708   0.570  0.3601 -0.3540  0.3464
   48MOL0     C 6525  10.984   8.733   0.454  1.0268 -0.0410 -0.2889
   48MOL0     C 6526  11.088   8.623   0.458 -0.5279 -0.6570 -0.2456
   48MOL0     C 6527  11.224   8.650   0.390 -0.5756  0.2567 -0.2846
   48MOL0     C 6528  11.199   8.657   0.242  0.0321  0.2719  0.0877
   48MOL0     C 6529  11.331   8.630   0.165 -0.8508  0.6845  0.9387
   48MOL0     C 6530  11.346   8.717   0.036 -0.2514 -0.1499  0.4181
   48MOL0    Cl 6531  11.263   8.664  -0.112  0.3507  0.0320 -0.1957
   48MOL0     C 6532  10.534   8.434   0.563 -0.3146  0.1803 -0.2946
   48MOL0     C 6533  10.414   8.368   0.530 -0.8393 -0.7921 -0.2705
   48MOL0     O 6534  10.231   8.172   0.461  0.6582  0.6224 -0.1436
   48MOL0     C 6535   9.906   8.296   0.499 -0.2897  0.0620 -0.3649
   48MOL0     C 6536   9.776   8.251   0.500 -0.0048 -0.0362 -0.0053
   48MOL0     N 6537   9.196   8.490   0.805  0.9496 -0.0803  1.1613
   48MOL0     N 6538   9.110   8.556   0.879 -0.1491  0.4616 -1.3412
   48MOL0     C 6539   8.432   8.758   1.812 -0.2121 -0.4021  0.1789
   48MOL0     C 6540   8.391   8.687   1.921  0.6341 -0.2354  0.3245
   48MOL0     C 6541   8.159   8.619   2.335 -0.2611 -0.5534 -0.1365
   48MOL0     C 6542   8.083   8.680   2.442 -0.7961  0.2004 -0.6772
   48MOL0     C 6543   7.990   8.612   2.516 -0.2814  0.5119  0.8820
   48MOL0     C 6544   7.960   8.477   2.484 -0.2877 -0.9620  0.1700
   48MOL0     O 6545   7.865   8.404   2.554  0.2983 -0.0496 -0.3737
   48MOL0     C 6546   7.781   8.463   2.653 -0.1488  0.4598  0.7152
   48MOL0     C 6547   7.692   8.365   2.715 -0.2747 -0.0384  0.1212
   48MOL0     C 6548   7.613   8.285   2.612  0.3862  0.0025  0.0239
   48MOL0     C 6549   7.467   8.300   2.639 -0.0701  0.7166 -0.8585
   48MOL0     C 6550   7.416   8.434   2.593 -0.5559  0.8427 -0.9847
   48MOL0     C 6551   7.356   8.532   2.562  0.5511 -0.4141 -0.6132
   48MOL0     C 6552   8.038   8.421   2.385  0.5867 -0.2146  0.3665
   48MOL0     C 6553   8.135   8.482   2.310  0.4049  0.0512  0.6715
   48MOL0     C 6554   8.208   8.399   2.214 -0.1064  0.2822 -0.2855
   48MOL0     H 6555   8.422   8.905   2.169  0.6446 -1.6814  1.2708
   48MOL0     H 6556   8.537   9.031   1.970  0.8061 -0.4281  1.2991
   48MOL0     H 6557   8.481   8.890   1.546 -0.7034  0.2768  0.0559
   48MOL0     H 6558   8.609   8.791   1.627 -2.1532 -0.9466 -1.4398
   48MOL0     H 6559   8.638   9.079   1.533  1.3809  0.2689  0.5727
   48MOL0     H 6560   8.767   8.995   1.602 -1.1318  5.8395  0.9866
   48MOL0     H 6561   8.638   8.934   1.340 -0.2470  3.0362 -0.6656
   48MOL0     H 6562   8.802   9.004   1.368 -0.4129  1.0556  0.2011
   48MOL0     H 6563   8.855   8.771   1.488  1.5376  0.2318 -0.9821
   48MOL0     H 6564   8.710   8.711   1.425 -0.3501  0.7217  0.7439
   48MOL0     H 6565   8.946   8.811   1.266  0.1614  0.1881  1.3744
   48MOL0     H 6566   8.794   8.772   1.184 -0.9590 -1.4583 -0.1287
   48MOL0     H 6567   8.952   8.568   1.336  3.0359  3.8891 -1.1923
   48MOL0     H 6568   8.791   8.529   1.284  1.0290  0.3144  2.8298
   48MOL0     H 6569   8.881   8.573   1.048 -3.2142 -3.2047  1.4557
   48MOL0     H 6570   8.965   8.441   1.134  1.0301 -0.0705 -2.9425
   48MOL0     H 6571   9.049   8.728   1.096 -2.0206  0.5207  1.2023
   48MOL0     H 6572   9.125   8.636   1.216  1.9792 -0.6885 -1.8409
   48MOL0     H 6573   9.316   8.459   1.112 -0.7145 -0.0644  0.6480
   48MOL0     H 6574   9.438   8.294   0.931  1.1725 -1.4068 -2.6263
   48MOL0     H 6575   9.491   8.447   0.862  1.5600 -0.9803 -2.1227
   48MOL0     H 6576   9.287   8.273   0.702  0.2385 -1.6641  1.4892
   48MOL0     H 6577   9.402   8.388   0.643  2.7233  1.7492  1.8518
   48MOL0     H 6578   9.601   8.273   0.673 -0.0005  0.5093  1.4147
   48MOL0     H 6579   9.528   8.140   0.766 -0.9288 -2.5564 -1.1333
   48MOL0     H 6580   9.415   8.085   0.565  1.5698 -4.5296 -3.1081
   48MOL0     H 6581   9.495   8.210   0.466 -1.4225 -0.4594  0.2030
   48MOL0     H 6582   9.816   7.923   0.564 -1.0059  0.8501 -0.6838
   48MOL0     H 6583  10.035   7.868   0.619 -0.2725 -0.3870  0.7746
   48MOL0     H 6584  10.174   7.988   0.617  2.5286  0.1814 -3.5250
   48MOL0     H 6585  10.126   7.913   0.474  1.0335 -1.5347  1.8832
   48MOL0     H 6586  10.214   8.632   0.481  0.1508  0.1907  0.6244
   48MOL0     H 6587  10.429   8.750   0.514 -0.9938  0.4472  1.5578
   48MOL0     H 6588  10.818   8.507   0.582 -2.1714 -1.6096 -0.6865
   48MOL0     H 6589  10.765   8.582   0.432 -2.1051 -0.6352  0.1701
   48MOL0     H 6590  10.821   8.796   0.582  2.7519  1.5950 -0.5597
   48MOL0     H 6591  10.934   8.703   0.667 -1.5948  0.9762  1.4970
   48MOL0     H 6592  11.029   8.830   0.477 -0.3090  0.1008  2.0031
   48MOL0     H 6593  10.929   8.745   0.361 -1.4811  0.6201  1.2018
   48MOL0     H 6594  11.042   8.534   0.415 -4.3276  1.4723 -1.0047
   48MOL0     H 6595  11.117   8.603   0.562 -3.2022 -1.8123  0.3550
   48MOL0     H 6596  11.287   8.731   0.429  0.5893 -0.5413 -0.5019
   48MOL0     H 6597  11.284   8.561   0.407  2.1070  1.8116 -1.1126
   48MOL0     H 6598  11.162   8.759   0.226 -0.5054  0.7947  3.6319
   48MOL0     H 6599  11.123   8.579   0.230 -1.4438  1.0965  3.0113
   48MOL0     H 6600  11.341   8.525   0.135  0.4020  1.6460 -2.5514
   48MOL0     H 6601  11.412   8.638   0.237 -0.8137  0.7886  0.8860
   48MOL0     H 6602  11.455   8.718   0.031 -0.2629  0.3657  0.1586
   48MOL0     H 6603  11.310   8.814   0.072 -0.1484 -0.1043  0.3995
   48MOL0     H 6604  10.618   8.373   0.593 -1.2938 -1.0503  0.0525
   48MOL0     H 6605  10.425   8.260   0.537  0.8211 -0.8583 -2.5998
   48MOL0     H 6606   9.932   8.399   0.481  2.5291 -0.9160 -2.5390
   48MOL0     H 6607   9.703   8.329   0.479  0.5594  0.6735  0.6327
   48MOL0     H 6608   8.425   8.716   1.712 -0.7016  2.4940 -1.1185
   48MOL0     H 6609   8.350   8.587   1.911 -0.5959  0.4713 -2.8855
   48MOL0     H 6610   8.103   8.783   2.469 -0.1212 -0.1381  0.1477
   48MOL0     H 6611   7.950   8.660   2.605 -1.6490 -1.2993  1.2895
   48MOL0     H 6612   7.851   8.509   2.723  1.0180 -1.9214  1.2196
   48MOL0     H 6613   7.723   8.536   2.596  1.7312  1.0897 -0.4965
   48MOL0     H 6614   7.630   8.415   2.790 -0.1682 -0.7925  0.7284
   48MOL0     H 6615   7.752   8.290   2.767  1.6119 -0.7581 -2.8661
   48MOL0     H 6616   7.629   8.313   2.507 -3.0504 -1.3836 -1.0152
   48MOL0     H 6617   7.648   8.183   2.629  0.0313  0.1600  1.9740
   48MOL0     H 6618   7.461   8.280   2.746 -0.3043 -2.3211 -1.3544
   48MOL0     H 6619   7.414   8.217   2.592  0.0748 -0.0597  0.3174
   48MOL0     H 6620   7.291   8.616   2.548 -0.9855 -1.2361  1.2238
   48MOL0     H 6621   8.017   8.318   2.357  1.9938 -0.0090 -1.7202
   48MOL0     H 6622   8.316   8.409   2.222 -0.3634  2.1729  1.9222
   48MOL0     H 6623   8.191   8.297   2.248 -0.4843  0.4371  0.0005
   48MOL0     H 6624   8.171   8.422   2.113 -1.0339 -1.6125 -0.4204
   49MOL0     O 6625   8.466   2.136   8.956  0.4599 -0.4099  0.0443
   49MOL0     C 6626   8.466   2.017   8.938 -0.5407  1.3937 -0.3511
   49MOL0     O 6627   8.547   1.926   9.001  0.4305  0.4326  0.2084
   49MOL0     C 6628   8.671   1.969   9.035 -0.3922  0.1753 -1.1654
   49MOL0     C 6629   8.704   2.055   9.147 -0.5216 -0.1443  1.3414
   49MOL0     C 6630   8.838   2.084   9.174  0.7178 -0.5142 -0.6667
   49MOL0     C 6631   8.944   2.029   9.107  0.0448  0.2891  1.3141
   49MOL0     O 6632   9.074   2.071   9.139 -0.1031 -0.0384  0.4772
   49MOL0     C 6633   9.184   1.982   9.133  0.4835  0.5891  0.7622
   49MOL0     C 6634   9.270   2.035   9.247 -0.7036  0.1258 -0.4446
   49MOL0     C 6635   9.414   1.974   9.244  0.5408 -0.3175 -0.0347
   49MOL0     C 6636   9.503   2.031   9.353  0.5677 -0.3724  0.0521
   49MOL0     C 6637   9.637   1.949   9.351 -0.6682  0.3473 -0.3618
   49MOL0     C 6638   9.712   1.968   9.229 -0.1593  0.4805 -0.3365
   49MOL0     C 6639   9.854   1.904   9.227 -0.2562  0.7933 -0.0390
   49MOL0     C 6640   9.940   1.965   9.343  0.0884  0.6907 -0.2641
   49MOL0     N 6641  10.085   1.926   9.320 -0.1189  0.2930  0.1910
   49MOL0     C 6642  10.175   2.001   9.249 -0.6791  0.3592  0.1052
   49MOL0     C 6643  10.282   1.927   9.263  0.1991 -0.0036 -0.0417
   49MOL0     C 6644  10.416   1.963   9.193  0.0669  0.4225  0.1383
   49MOL0     C 6645  10.530   1.859   9.215  0.9643  0.2242 -0.5750
   49MOL0     C 6646  10.654   1.899   9.147 -0.2855 -0.2281  0.5686
   49MOL0     C 6647  10.760   1.782   9.159 -0.0455 -0.1653  0.5906
   49MOL0     O 6648  10.733   1.664   9.099  0.1369 -0.0853  0.4102
   49MOL0     C 6649  10.786   1.546   9.133  0.6730  0.0202  0.5103
   49MOL0     C 6650  10.890   1.530   9.219  0.2362  0.5870  0.2119
   49MOL0     C 6651  10.920   1.399   9.267  0.7129 -0.0218 -0.4977
   49MOL0     C 6652  11.019   1.399   9.386  0.1344  1.3049 -0.1841
   49MOL0     C 6653  10.847   1.289   9.233 -1.2443  1.0228  0.0089
   49MOL0     C 6654  10.882   1.149   9.274 -0.3618  0.1441 -0.4336
   49MOL0     O 6655  10.997   1.098   9.217 -0.5569  0.1635 -0.3313
   49MOL0     C 6656  11.055   0.979   9.249 -0.2069  0.0210 -0.5402
   49MOL0     C 6657  11.035   0.894   9.355 -0.0222 -0.5229  0.2334
   49MOL0     C 6658  11.117   0.773   9.361 -0.1097  0.2474 -0.1663
   49MOL0     C 6659  11.220   0.744   9.273 -0.3083  0.1185  0.0839
   49MOL0     O 6660  11.311   0.647   9.290  0.4885 -0.1737  0.4566
   49MOL0     C 6661  11.324   0.594   9.424 -0.0678  0.0842 -1.2260
   49MOL0     C 6662  11.452   0.509   9.441  0.3961  0.7743  0.9419
   49MOL0     C 6663  11.472   0.407   9.328  0.2560  0.6210 -0.5099
   49MOL0     C 6664  11.563   0.448   9.209  0.2135 -0.2700  0.8674
   49MOL0     C 6665  11.585   0.329   9.114 -0.2948  0.3264  0.4408
   49MOL0     C 6666  11.633   0.383   8.977  0.1835 -0.1891 -0.3460
   49MOL0     C 6667  11.778   0.438   8.971  1.0750  1.0339 -0.3226
   49MOL0     C 6668  11.816   0.492   8.837 -0.7081 -0.8321 -0.0733
   49MOL0    Cl 6669  11.984   0.523   8.853 -0.1653 -0.1516 -0.5042
   49MOL0     C 6670  11.240   0.833   9.175  0.1959 -0.4706 -0.5518
   49MOL0     C 6671  11.161   0.947   9.162  0.5935 -0.4606 -0.7214
   49MOL0     O 6672  10.801   1.085   9.338  0.1407  0.6331  0.1103
   49MOL0     C 6673  10.751   1.295   9.145  0.6053  0.3346  0.4273
   49MOL0     C 6674  10.714   1.423   9.090 -0.3551 -0.1641 -0.0335
   49MOL0     N 6675  10.268   1.823   9.348 -0.4145 -0.1783 -0.1598
   49MOL0     N 6676  10.138   1.813   9.370  0.5222  0.1401  0.8457
   49MOL0     C 6677   8.907   1.947   8.995 -0.2219  0.1170  0.3932
   49MOL0     C 6678   8.774   1.905   8.968  0.7079  0.0578  0.0524
   49MOL0     C 6679   8.362   1.965   8.835 -0.1159  0.2582 -0.5989
   49MOL0     C 6680   8.252   2.051   8.807 -0.7405  0.1147  0.3323
   49MOL0     C 6681   8.156   2.019   8.714 -0.4102  0.0786 -0.1358
   49MOL0     C 6682   8.163   1.893   8.658  0.5892  0.1477 -0.0519
   49MOL0     O 6683   8.077   1.836   8.568  0.3030 -0.0960 -0.6824
   49MOL0     C 6684   7.951   1.910   8.546 -0.0554 -1.0407  0.2400
   49MOL0     C 6685   7.859   1.836   8.454  0.7609  0.3778  1.1119
   49MOL0     C 6686   7.714   1.870   8.466 -0.1344 -1.1713 -0.1972
   49MOL0     C 6687   7.692   2.023   8.449  0.5636 -0.2931  0.1110
   49MOL0     C 6688   7.548   2.061   8.462  0.5675 -0.1832 -1.1745
   49MOL0     C 6689   7.427   2.081   8.464 -0.5266  1.2932 -1.2419
   49MOL0     C 6690   8.273   1.810   8.677  0.4986 -0.0358  0.3059
   49MOL0     C 6691   8.370   1.842   8.764  0.0872 -0.3892  0.1550
   49MOL0     C 6692   8.483   1.738   8.778 -0.7250  0.6237  0.1878
   49MOL0     H 6693   8.621   2.104   9.196  1.2858  0.2906  4.2107
   49MOL0     H 6694   8.848   2.161   9.249  2.2276 -1.6426  0.3611
   49MOL0     H 6695   9.229   1.984   9.033 -0.9293 -3.7797 -0.1618
   49MOL0     H 6696   9.139   1.884   9.154 -3.0816  1.3447 -2.2630
   49MOL0     H 6697   9.279   2.142   9.228 -3.2648  0.6579  0.9199
   49MOL0     H 6698   9.230   2.006   9.344  0.0498 -0.0886 -0.1892
   49MOL0     H 6699   9.421   1.865   9.253  1.9424 -0.2890 -0.4083
   49MOL0     H 6700   9.466   1.995   9.150  2.0900  2.2151  1.2804
   49MOL0     H 6701   9.527   2.135   9.331 -0.7714 -0.4777 -2.2653
   49MOL0     H 6702   9.464   2.036   9.455  2.4370  0.6886  0.7587
   49MOL0     H 6703   9.620   1.845   9.380  3.3782 -0.5368 -0.5545
   49MOL0     H 6704   9.698   1.982   9.436 -1.1213 -0.2949  0.2235
   49MOL0     H 6705   9.655   1.921   9.149 -2.6499 -0.0209  1.6193
   49MOL0     H 6706   9.722   2.074   9.206  1.7171 -0.2136 -3.2975
   49MOL0     H 6707   9.910   1.917   9.133  1.0277  1.4210  0.7779
   49MOL0     H 6708   9.851   1.796   9.240 -1.3087  0.7534 -0.5502
   49MOL0     H 6709   9.936   2.074   9.348  0.8091  0.6913  0.5142
   49MOL0     H 6710   9.906   1.917   9.435  4.3644 -2.6297 -0.0976
   49MOL0     H 6711  10.150   2.092   9.194 -0.3224  0.3672 -0.0477
   49MOL0     H 6712  10.454   2.065   9.202  1.9678 -0.0852 -1.5843
   49MOL0     H 6713  10.392   1.952   9.087  1.1134 -0.5294 -0.0177
   49MOL0     H 6714  10.545   1.857   9.324  0.8560  3.4294 -0.3930
   49MOL0     H 6715  10.503   1.757   9.188  1.2809  0.5688 -2.3085
   49MOL0     H 6716  10.630   1.928   9.044 -1.8509  1.3599  1.3302
   49MOL0     H 6717  10.700   1.984   9.198 -0.3711 -0.1252  0.4764
   49MOL0     H 6718  10.852   1.817   9.111  0.8412  0.2475  2.5186
   49MOL0     H 6719  10.793   1.767   9.262 -1.5481 -0.5066  1.0310
   49MOL0     H 6720  10.945   1.619   9.249  0.3276 -0.0359  2.0123
   49MOL0     H 6721  10.987   1.317   9.451  2.8946  0.9394  0.8079
   49MOL0     H 6722  11.052   1.490   9.438  3.7294 -1.2709  2.5425
   49MOL0     H 6723  11.113   1.357   9.350 -0.8629 -2.3984  1.0729
   49MOL0     H 6724  10.958   0.915   9.429 -0.8618  3.0937 -1.4634
   49MOL0     H 6725  11.089   0.704   9.440 -1.4845  1.9480  0.9198
   49MOL0     H 6726  11.327   0.675   9.497  1.4159 -2.2836  1.5487
   49MOL0     H 6727  11.237   0.527   9.432  0.7988 -1.0989 -1.4849
   49MOL0     H 6728  11.536   0.578   9.430 -0.5881  1.6879 -1.7176
   49MOL0     H 6729  11.445   0.454   9.535 -0.4296 -1.7150 -0.4824
   49MOL0     H 6730  11.375   0.369   9.293  1.0995 -0.7584 -1.4360
   49MOL0     H 6731  11.522   0.321   9.374  1.3630  1.9808  0.9200
   49MOL0     H 6732  11.659   0.487   9.247 -0.9098  4.6377 -0.5728
   49MOL0     H 6733  11.504   0.522   9.154 -3.0259 -2.7040  0.7763
   49MOL0     H 6734  11.656   0.257   9.155  2.1887  2.5219  0.2594
   49MOL0     H 6735  11.489   0.277   9.109  0.5309 -1.3823  1.4451
   49MOL0     H 6736  11.552   0.451   8.952 -1.5079 -1.4776  1.3742
   49MOL0     H 6737  11.628   0.295   8.912  0.4449 -2.4987  2.5243
   49MOL0     H 6738  11.841   0.351   8.994  0.7512  1.6178  3.3319
   49MOL0     H 6739  11.796   0.510   9.051 -0.9895 -0.3353  1.4787
   49MOL0     H 6740  11.772   0.589   8.812  2.5101  1.5245  2.5706
   49MOL0     H 6741  11.808   0.410   8.764 -0.0583 -1.0422  0.0839
   49MOL0     H 6742  11.334   0.828   9.121  0.3344  2.5565 -0.7923
   49MOL0     H 6743  11.190   1.025   9.093  1.0764 -0.5829 -0.6599
   49MOL0     H 6744  10.691   1.209   9.118 -0.2696  0.3509  2.1648
   49MOL0     H 6745  10.624   1.442   9.033 -3.1705  0.5033  4.1382
   49MOL0     H 6746   8.982   1.899   8.934  0.6853  0.6210  1.0804
   49MOL0     H 6747   8.749   1.840   8.886  1.3556 -0.3563  0.1758
   49MOL0     H 6748   8.246   2.145   8.862  2.9360  2.2260 -2.4256
   49MOL0     H 6749   8.075   2.088   8.694  0.7119  1.4772 -0.0596
   49MOL0     H 6750   7.906   1.912   8.646 -2.0523  2.6640 -0.5305
   49MOL0     H 6751   7.951   2.011   8.504 -1.9998 -0.2463  1.9797
   49MOL0     H 6752   7.866   1.729   8.479 -0.1478 -1.0448 -3.7408
   49MOL0     H 6753   7.892   1.853   8.352  1.7465  1.2038  1.5555
   49MOL0     H 6754   7.664   1.806   8.393  0.3674 -0.2952 -1.3428
   49MOL0     H 6755   7.689   1.848   8.571 -1.9753  2.2035  0.2237
   49MOL0     H 6756   7.741   2.051   8.356  0.3628  0.4866  0.2323
   49MOL0     H 6757   7.740   2.070   8.536  0.4137 -0.6738  0.4047
   49MOL0     H 6758   7.322   2.085   8.484 -0.1227  0.4947  1.4126
   49MOL0     H 6759   8.276   1.714   8.627 -1.2749 -0.6015  1.1871
   49MOL0     H 6760   8.580   1.785   8.755 -0.7499 -0.1847 -1.7621
   49MOL0     H 6761   8.490   1.700   8.880  1.3881 -0.0706 -0.1527
   49MOL0     H 6762   8.465   1.645   8.724  0.4004 -0.5788  1.7609
   50MOL0     O 6763   3.187  10.307   6.881 -0.1641  0.1567 -0.1283
   50MOL0     C 6764   3.122  10.380   6.809  0.4036 -0.0135  0.3285
   50MOL0     O 6765   3.143  10.510   6.777 -1.2564 -0.8578 -0.4054
   50MOL0     C 6766   3.266  10.555   6.820  0.4026  0.0449  0.0037
   50MOL0     C 6767   3.255  10.668   6.901 -0.0767 -0.4346  0.0951
   50MOL0     C 6768   3.370  10.723   6.961 -0.6050  0.8301 -0.4937
   50MOL0     C 6769   3.496  10.677   6.929  0.3381 -0.7352 -0.0775
   50MOL0     O 6770   3.602  10.746   6.990  0.5772 -0.3626 -0.6631
   50MOL0     C 6771   3.729  10.766   6.916  0.6646  0.5102 -0.0065
   50MOL0     C 6772   3.832  10.756   7.022 -0.8413 -0.5771  1.1534
   50MOL0     C 6773   3.970  10.812   6.979  0.3211  0.2998 -0.1134
   50MOL0     C 6774   4.080  10.748   7.068 -0.0499 -0.3301 -0.7022
   50MOL0     C 6775   4.221  10.797   7.019 -0.0884 -0.7868  0.6308
   50MOL0     C 6776   4.270  10.925   7.083 -0.2653 -0.2460  0.4038
   50MOL0     C 6777   4.419  10.948   7.085  0.2837  0.1387 -0.2411
   50MOL0     C 6778   4.453  11.101   7.113  0.4293 -1.2417  0.0417
   50MOL0     N 6779   4.586  11.113   7.069 -0.0887 -0.1784 -0.0164
   50MOL0     C 6780   4.632  11.189   6.968  0.0803 -0.3865  0.1105
   50MOL0     C 6781   4.765  11.186   6.983 -0.1726  0.0952 -0.0644
   50MOL0     C 6782   4.862  11.256   6.897 -0.3492 -0.7273 -0.4428
   50MOL0     C 6783   4.915  11.388   6.952  0.3945  0.0114  0.3373
   50MOL0     C 6784   4.816  11.498   6.962  0.3095 -0.3868  0.7661
   50MOL0     C 6785   4.740  11.502   7.100  0.5921 -0.6746 -0.3603
   50MOL0     O 6786   4.836  11.547   7.201  0.0290  0.1817  0.4088
   50MOL0     C 6787   4.814  11.493   7.323  0.0986 -0.2627 -0.4326
   50MOL0     C 6788   4.785  11.583   7.432 -1.3270  0.1960  0.4467
   50MOL0     C 6789   4.785  11.537   7.564 -0.0433  0.2525 -0.2496
   50MOL0     C 6790   4.748  11.638   7.668  0.5941  1.1314  0.3796
   50MOL0     C 6791   4.798  11.402   7.581  0.4818  0.4505  1.0447
   50MOL0     C 6792   4.788  11.331   7.712  0.6189 -0.5813  0.2563
   50MOL0     O 6793   4.832  11.401   7.826 -0.6038  0.4147  0.0015
   50MOL0     C 6794   4.786  11.355   7.944 -0.3753 -0.3621  0.5867
   50MOL0     C 6795   4.868  11.289   8.039  0.2454 -0.2187 -0.0256
   50MOL0     C 6796   4.815  11.233   8.151 -0.1925 -0.5271 -0.3970
   50MOL0     C 6797   4.675  11.233   8.174 -0.4022  0.2567  0.5759
   50MOL0     O 6798   4.611  11.190   8.286  0.6590 -0.4150  0.0156
   50MOL0     C 6799   4.694  11.153   8.401  0.7263  0.9814  0.2724
   50MOL0     C 6800   4.608  11.071   8.497 -0.0458 -1.0536  0.4000
   50MOL0     C 6801   4.523  10.961   8.428 -0.1798 -0.8840 -0.2067
   50MOL0     C 6802   4.598  10.861   8.339  0.3496 -0.1202 -0.7918
   50MOL0     C 6803   4.488  10.777   8.259 -0.5785 -0.5774  0.8247
   50MOL0     C 6804   4.395  10.705   8.349  0.0823 -0.0405  0.4152
   50MOL0     C 6805   4.298  10.615   8.271 -0.0107 -0.8961 -1.2937
   50MOL0     C 6806   4.212  10.532   8.373  0.1737 -0.0441 -0.1674
   50MOL0    Cl 6807   4.096  10.418   8.293 -0.0983 -0.0974  0.1960
   50MOL0     C 6808   4.590  11.301   8.084  0.5818 -0.4496  0.0227
   50MOL0     C 6809   4.650  11.368   7.971 -0.1472  0.1864 -0.7546
   50MOL0     O 6810   4.739  11.218   7.707 -0.0497 -0.1487 -0.0887
   50MOL0     C 6811   4.830  11.320   7.475 -0.5739 -0.1038 -0.9014
   50MOL0     C 6812   4.848  11.366   7.348  1.3168  0.1366 -0.4504
   50MOL0     N 6813   4.798  11.118   7.107 -0.0323 -0.1911  0.6700
   50MOL0     N 6814   4.681  11.079   7.156 -0.2425  1.1019  0.4922
   50MOL0     C 6815   3.509  10.570   6.851 -0.3760  0.3261  1.0146
   50MOL0     C 6816   3.396  10.510   6.782  0.5050  0.2445  0.2596
   50MOL0     C 6817   3.011  10.306   6.736 -0.7788  0.3620  0.2252
   50MOL0     C 6818   2.987  10.351   6.606 -0.3517 -0.7690 -0.7025
   50MOL0     C 6819   2.893  10.288   6.526 -0.5676 -0.0933 -0.9135
   50MOL0     C 6820   2.816  10.191   6.582 -0.6420 -0.5617 -0.1788
   50MOL0     O 6821   2.708  10.142   6.504  0.5946 -0.0242  0.2486
   50MOL0     C 6822   2.646  10.017   6.539 -0.2228  0.2284 -0.2682
   50MOL0     C 6823   2.548   9.989   6.428  0.2671 -0.2771  0.6227
   50MOL0     C 6824   2.447   9.886   6.463 -0.1337  0.0916 -1.3927
   50MOL0     C 6825   2.352   9.861   6.344 -0.2960  0.4510 -0.7750
   50MOL0     C 6826   2.244   9.772   6.391 -0.2731  0.2265 -0.4033
   50MOL0     C 6827   2.167   9.687   6.445  0.2164 -0.7561 -0.4288
   50MOL0     C 6828   2.851  10.133   6.703 -0.3338  0.6444 -0.0043
   50MOL0     C 6829   2.942  10.196   6.792  0.7274 -0.5367 -0.5119
   50MOL0     C 6830   2.971  10.152   6.936 -0.6085  0.5741 -0.4897
   50MOL0     H 6831   3.157  10.710   6.921  0.2966 -0.0667  1.2397
   50MOL0     H 6832   3.350  10.808   7.026 -0.3572  0.1503  0.4995
   50MOL0     H 6833   3.729  10.859   6.859 -0.1333 -0.6212 -1.9770
   50MOL0     H 6834   3.729  10.682   6.845 -0.3322  1.1956 -0.8443
   50MOL0     H 6835   3.796  10.803   7.114 -0.5691  2.8958 -0.3289
   50MOL0     H 6836   3.846  10.649   7.036  1.0075 -0.0379  4.2850
   50MOL0     H 6837   3.998  10.802   6.874  0.2681 -0.3590 -0.0702
   50MOL0     H 6838   3.968  10.919   6.999 -0.6645  0.1274  0.8657
   50MOL0     H 6839   4.067  10.763   7.176  2.1597 -0.4057 -0.3872
   50MOL0     H 6840   4.088  10.639   7.060  0.2424 -0.5310  1.5129
   50MOL0     H 6841   4.236  10.794   6.911 -2.0535 -0.7165  0.3060
   50MOL0     H 6842   4.299  10.726   7.046 -0.1406 -0.1975  2.4671
   50MOL0     H 6843   4.224  11.001   7.019 -0.3502 -0.4076  0.2726
   50MOL0     H 6844   4.232  10.939   7.185 -0.1771  1.3285  0.2540
   50MOL0     H 6845   4.478  10.917   6.999  2.3265  0.1770  1.0657
   50MOL0     H 6846   4.457  10.891   7.171 -1.5595 -0.4423  0.2261
   50MOL0     H 6847   4.386  11.142   7.037 -0.7944  1.7871  2.4792
   50MOL0     H 6848   4.439  11.148   7.211 -1.4079 -2.7476  0.5630
   50MOL0     H 6849   4.568  11.243   6.899 -2.3520 -1.0957  1.6775
   50MOL0     H 6850   4.810  11.287   6.807 -0.7381  0.4930  0.1820
   50MOL0     H 6851   4.944  11.193   6.862  0.4576  1.1076 -1.9851
   50MOL0     H 6852   4.961  11.368   7.049 -0.6847 -0.9366  0.6768
   50MOL0     H 6853   5.006  11.411   6.896  0.3761 -1.9529 -0.5971
   50MOL0     H 6854   4.869  11.593   6.947  1.1134 -0.5981  2.1072
   50MOL0     H 6855   4.741  11.489   6.883  1.2704 -0.8592 -0.1156
   50MOL0     H 6856   4.671  11.586   7.086 -1.2447 -1.9771  0.4475
   50MOL0     H 6857   4.681  11.416   7.136  0.8305 -1.2155 -1.2321
   50MOL0     H 6858   4.759  11.685   7.405  0.0453 -0.3185 -3.4630
   50MOL0     H 6859   4.759  11.737   7.622 -0.6468  1.1596  0.1052
   50MOL0     H 6860   4.811  11.625   7.757  0.4354 -0.3434  0.3001
   50MOL0     H 6861   4.642  11.641   7.691  0.0542  2.4329 -1.9849
   50MOL0     H 6862   4.977  11.290   8.036  0.5440 -1.2853  4.1587
   50MOL0     H 6863   4.885  11.188   8.221  2.2947 -1.7127 -3.4167
   50MOL0     H 6864   4.776  11.090   8.368 -0.6162  1.0500 -3.7006
   50MOL0     H 6865   4.728  11.242   8.455 -0.9166 -0.7389  4.5314
   50MOL0     H 6866   4.665  11.020   8.575 -2.8233 -0.8740  2.7022
   50MOL0     H 6867   4.539  11.144   8.540  0.7944 -1.2600  2.1656
   50MOL0     H 6868   4.438  11.002   8.373 -1.4867 -2.1912  0.7666
   50MOL0     H 6869   4.475  10.904   8.508 -0.8330  0.8620  0.7161
   50MOL0     H 6870   4.660  10.802   8.408  1.2353  2.8374  1.1554
   50MOL0     H 6871   4.667  10.906   8.267  1.9446 -3.0253 -1.2148
   50MOL0     H 6872   4.425  10.846   8.201  0.7401 -0.2759 -0.3035
   50MOL0     H 6873   4.531  10.705   8.189  0.2384  0.7426 -0.0932
   50MOL0     H 6874   4.338  10.780   8.406  1.0434  1.0253  0.0215
   50MOL0     H 6875   4.448  10.638   8.417  0.6734  0.5533  0.5539
   50MOL0     H 6876   4.349  10.536   8.215  2.0428 -1.3224  1.0577
   50MOL0     H 6877   4.238  10.684   8.210  0.3490 -0.2167 -0.8880
   50MOL0     H 6878   4.157  10.597   8.442  0.0825 -0.3432  0.0477
   50MOL0     H 6879   4.285  10.480   8.437 -0.9807  1.2719  2.3565
   50MOL0     H 6880   4.487  11.315   8.117  1.9798 -0.2723  5.2948
   50MOL0     H 6881   4.587  11.434   7.912 -2.4539 -0.9176  0.3326
   50MOL0     H 6882   4.844  11.215   7.499 -2.3519 -0.2183 -0.1759
   50MOL0     H 6883   4.870  11.305   7.261  0.8579  1.5395 -1.5843
   50MOL0     H 6884   3.605  10.533   6.816 -2.5309 -0.8943 -4.5938
   50MOL0     H 6885   3.400  10.443   6.698  0.8311 -1.1903  1.3860
   50MOL0     H 6886   3.047  10.432   6.565 -1.1533 -0.3849 -1.1283
   50MOL0     H 6887   2.889  10.347   6.435  0.1281  1.4557  0.0148
   50MOL0     H 6888   2.724   9.939   6.538  2.2967  2.4655  2.4065
   50MOL0     H 6889   2.595  10.026   6.635  3.1488  1.7089  1.5554
   50MOL0     H 6890   2.601   9.957   6.338 -1.7482 -1.2827 -0.2633
   50MOL0     H 6891   2.499  10.078   6.389 -1.4424 -0.0383  3.0976
   50MOL0     H 6892   2.500   9.796   6.495  0.8201  2.1877  3.9278
   50MOL0     H 6893   2.389   9.920   6.550  2.3960 -0.6769  0.7031
   50MOL0     H 6894   2.414   9.815   6.266  0.5636  0.6708 -0.2456
   50MOL0     H 6895   2.311   9.958   6.316 -1.9979  0.5622  1.7450
   50MOL0     H 6896   2.107   9.611   6.490 -2.7210  2.3146  1.3925
   50MOL0     H 6897   2.781  10.052   6.722 -2.3695  0.8221 -5.1387
   50MOL0     H 6898   2.908  10.070   6.973  0.9857  0.3476  2.0291
   50MOL0     H 6899   3.067  10.099   6.945 -0.1059  1.7816  1.9515
   50MOL0     H 6900   2.979  10.234   7.008 -0.4756 -1.0444  1.4386
   51MOL0     O 6901   3.008   0.604   2.955  0.6156  0.9016 -0.5012
   51MOL0     C 6902   2.903   0.618   2.896  0.0925  1.0210  0.5858
   51MOL0     O 6903   2.885   0.709   2.796 -0.2621  0.3066 -0.2818
   51MOL0     C 6904   2.966   0.693   2.688  0.3959  0.6861 -0.4123
   51MOL0     C 6905   2.937   0.603   2.593  0.4968 -0.1811  0.4297
   51MOL0     C 6906   3.027   0.588   2.488  0.8424 -0.1370 -0.6378
   51MOL0     C 6907   3.138   0.669   2.472 -0.0359  0.4775 -0.2116
   51MOL0     O 6908   3.231   0.633   2.374 -0.2660  0.0146 -0.3715
   51MOL0     C 6909   3.354   0.701   2.357  0.3915 -0.4129 -0.1098
   51MOL0     C 6910   3.456   0.662   2.467  0.8423  0.6456  0.7605
   51MOL0     C 6911   3.585   0.748   2.450  0.0493  0.2139  0.0736
   51MOL0     C 6912   3.673   0.695   2.332 -0.7863  0.4549 -0.3635
   51MOL0     C 6913   3.787   0.789   2.310 -0.2557 -0.7245  0.7472
   51MOL0     C 6914   3.903   0.736   2.219  0.3012 -0.1641  0.5550
   51MOL0     C 6915   4.016   0.841   2.214  0.1180  0.2405  0.6041
   51MOL0     C 6916   4.126   0.805   2.108  0.3706  0.0720 -0.1864
   51MOL0     N 6917   4.235   0.902   2.113  0.0859 -0.2344 -0.3797
   51MOL0     C 6918   4.333   0.902   2.210 -0.1198 -1.1304 -0.3573
   51MOL0     C 6919   4.432   0.977   2.157  0.2093 -0.9449  0.0792
   51MOL0     C 6920   4.558   1.000   2.225 -0.2502 -0.1979  0.4370
   51MOL0     C 6921   4.648   1.104   2.153 -0.2712  0.8186 -0.1919
   51MOL0     C 6922   4.798   1.098   2.185 -0.5967  0.2430  0.1604
   51MOL0     C 6923   4.877   1.217   2.118  0.2810  1.0440 -0.3177
   51MOL0     O 6924   5.005   1.201   2.167 -0.7123  0.0996 -0.1409
   51MOL0     C 6925   5.094   1.303   2.145 -0.2313 -1.2687  0.4300
   51MOL0     C 6926   5.219   1.296   2.201 -0.3850  0.0087 -0.8849
   51MOL0     C 6927   5.317   1.398   2.184  0.0710  0.2684 -0.9847
   51MOL0     C 6928   5.442   1.355   2.253 -1.3600  1.2496  0.3079
   51MOL0     C 6929   5.284   1.509   2.108  0.6504 -0.3758 -0.4877
   51MOL0     C 6930   5.376   1.610   2.076  0.4712 -0.3242  0.2490
   51MOL0     O 6931   5.465   1.655   2.172  0.5126  0.3530 -0.9719
   51MOL0     C 6932   5.554   1.756   2.159  0.2055  0.2999 -0.3936
   51MOL0     C 6933   5.593   1.838   2.274  0.3259 -0.0072  0.6238
   51MOL0     C 6934   5.677   1.950   2.258 -0.2500  0.6308 -0.6485
   51MOL0     C 6935   5.753   1.965   2.145 -0.0662  0.0760  0.8915
   51MOL0     O 6936   5.844   2.059   2.130 -0.0331 -0.2558 -0.0430
   51MOL0     C 6937   5.967   2.035   2.207 -0.2686  0.3301  0.1798
   51MOL0     C 6938   6.077   2.134   2.161  0.0651 -1.1536  0.3609
   51MOL0     C 6939   6.188   2.074   2.066  0.0219 -0.8978 -0.0131
   51MOL0     C 6940   6.261   2.185   1.990  0.1090  0.3403 -0.7181
   51MOL0     C 6941   6.373   2.248   2.068  0.0025 -0.1194  0.8709
   51MOL0     C 6942   6.451   2.331   1.967 -0.1155 -0.1335  0.5449
   51MOL0     C 6943   6.557   2.425   2.028  0.2255 -0.6826  0.4845
   51MOL0     C 6944   6.643   2.382   2.151  0.0412 -0.4851  0.0029
   51MOL0    Cl 6945   6.773   2.503   2.183 -0.3381 -0.3828 -0.0256
   51MOL0     C 6946   5.718   1.882   2.039 -0.2730 -0.2284  1.1724
   51MOL0     C 6947   5.618   1.784   2.047 -1.1511  0.9563 -0.8116
   51MOL0     O 6948   5.375   1.649   1.961 -1.3007  0.4935  0.4822
   51MOL0     C 6949   5.156   1.521   2.054 -0.0008  0.6971 -0.0017
   51MOL0     C 6950   5.064   1.418   2.074 -0.2705  0.2490 -0.1547
   51MOL0     N 6951   4.386   1.023   2.033 -0.4936  0.3831  0.2499
   51MOL0     N 6952   4.273   0.984   2.008  0.1191 -0.1832  0.6574
   51MOL0     C 6953   3.159   0.767   2.565 -0.3584 -0.2637  1.4936
   51MOL0     C 6954   3.082   0.779   2.673  0.9120  0.2478 -0.0913
   51MOL0     C 6955   2.779   0.555   2.954  0.8099 -0.5076  0.3487
   51MOL0     C 6956   2.783   0.508   3.079 -0.4153  0.1655  0.5012
   51MOL0     C 6957   2.679   0.452   3.146  0.1700 -0.0692 -0.1547
   51MOL0     C 6958   2.555   0.442   3.081  0.2312  0.2899  0.8893
   51MOL0     O 6959   2.451   0.379   3.141  0.2934  0.2492 -0.6619
   51MOL0     C 6960   2.441   0.236   3.122  0.4779  0.0348 -0.5290
   51MOL0     C 6961   2.297   0.190   3.150  0.3615  0.7624  0.9629
   51MOL0     C 6962   2.181   0.283   3.113 -0.0806  0.0580 -0.1658
   51MOL0     C 6963   2.041   0.250   3.167 -0.3503  0.1230  1.0239
   51MOL0     C 6964   2.015   0.105   3.158 -0.8010  0.7926  0.5815
   51MOL0     C 6965   1.988  -0.011   3.142  0.3546 -0.7691  0.3399
   51MOL0     C 6966   2.540   0.485   2.949 -0.3405 -0.6599  0.4138
   51MOL0     C 6967   2.653   0.551   2.883  0.1172  0.6421 -0.7105
   51MOL0     C 6968   2.620   0.605   2.749  0.7969 -0.1971  0.2059
   51MOL0     H 6969   2.855   0.531   2.596  0.0436  0.0694 -2.5986
   51MOL0     H 6970   3.000   0.512   2.415 -1.4724 -0.7262  0.7296
   51MOL0     H 6971   3.328   0.807   2.356 -0.8232 -0.6447 -3.1712
   51MOL0     H 6972   3.388   0.681   2.255  0.9730 -1.3079  0.2443
   51MOL0     H 6973   3.409   0.683   2.563  1.4097 -1.7977  1.6470
   51MOL0     H 6974   3.472   0.554   2.464  2.7792  0.9087  0.6795
   51MOL0     H 6975   3.565   0.850   2.419 -0.8026 -0.7369 -2.7894
   51MOL0     H 6976   3.639   0.755   2.545  2.0959  3.2571 -1.1604
   51MOL0     H 6977   3.713   0.598   2.360 -0.3260  0.3847 -1.2393
   51MOL0     H 6978   3.628   0.690   2.233 -0.2829 -0.9639 -0.5393
   51MOL0     H 6979   3.836   0.810   2.405 -3.5305  2.1259  2.0356
   51MOL0     H 6980   3.745   0.881   2.269  1.8170  1.0739  2.4486
   51MOL0     H 6981   3.941   0.638   2.247 -1.0713 -1.4499 -1.7664
   51MOL0     H 6982   3.863   0.727   2.117 -1.4685  2.0726  0.9701
   51MOL0     H 6983   4.057   0.867   2.312  0.0828 -0.6512  0.8616
   51MOL0     H 6984   3.977   0.941   2.191 -1.0267  0.0269  1.5099
   51MOL0     H 6985   4.174   0.707   2.120  1.9491  0.1380 -4.3687
   51MOL0     H 6986   4.080   0.821   2.010 -1.1086  1.2145  0.6381
   51MOL0     H 6987   4.333   0.852   2.307  1.3565  0.4353  0.5068
   51MOL0     H 6988   4.602   0.901   2.220  2.0673  0.6304  2.4290
   51MOL0     H 6989   4.553   1.010   2.334  1.1121 -0.6763  0.5610
   51MOL0     H 6990   4.648   1.097   2.044  1.1281  1.6677 -0.2753
   51MOL0     H 6991   4.619   1.209   2.170 -1.9400  0.0299  2.4300
   51MOL0     H 6992   4.817   1.107   2.292  0.1789  1.0345 -0.0369
   51MOL0     H 6993   4.837   0.999   2.159  2.0892  0.9836  1.0977
   51MOL0     H 6994   4.861   1.216   2.010 -1.5136 -1.6396 -0.1271
   51MOL0     H 6995   4.829   1.306   2.160 -2.5536  0.7362 -2.5910
   51MOL0     H 6996   5.249   1.206   2.254  1.0693  1.6523  1.2365
   51MOL0     H 6997   5.523   1.429   2.255 -1.1507  1.0978 -1.0533
   51MOL0     H 6998   5.481   1.266   2.202 -1.4624  1.5440 -0.2952
   51MOL0     H 6999   5.431   1.329   2.358  1.2009 -1.8409 -0.0403
   51MOL0     H 7000   5.541   1.814   2.366 -0.8913 -2.4349 -0.5950
   51MOL0     H 7001   5.694   2.024   2.335  0.5314  2.3654 -2.3849
   51MOL0     H 7002   5.956   2.066   2.311  0.1212  3.8940 -0.7032
   51MOL0     H 7003   5.991   1.929   2.198 -0.3791  0.0541  2.4768
   51MOL0     H 7004   6.032   2.226   2.122  2.0914 -0.6978 -1.0616
   51MOL0     H 7005   6.138   2.171   2.244 -0.8769  0.1011  0.5265
   51MOL0     H 7006   6.136   2.014   1.991 -0.3436  1.6774 -1.9732
   51MOL0     H 7007   6.257   2.006   2.117  0.5681 -0.6706 -0.4334
   51MOL0     H 7008   6.190   2.267   1.975  0.2375  0.7064  0.5115
   51MOL0     H 7009   6.305   2.149   1.897  4.2790  0.6574  0.8834
   51MOL0     H 7010   6.339   2.307   2.154 -3.0326 -1.7818  0.8999
   51MOL0     H 7011   6.442   2.169   2.098 -1.2490 -0.5447  2.7800
   51MOL0     H 7012   6.388   2.395   1.904  3.7592  2.5395 -1.0003
   51MOL0     H 7013   6.507   2.264   1.900  0.7410  0.0646  1.0568
   51MOL0     H 7014   6.512   2.521   2.058  1.3746  1.3856 -3.6417
   51MOL0     H 7015   6.622   2.444   1.942 -2.0537  1.8660 -0.8225
   51MOL0     H 7016   6.695   2.289   2.128 -3.5909 -2.4753 -0.9007
   51MOL0     H 7017   6.577   2.371   2.238  0.0283  1.3364  0.2784
   51MOL0     H 7018   5.763   1.898   1.942 -0.8605 -0.7083  0.8051
   51MOL0     H 7019   5.610   1.719   1.960 -1.6745 -1.7558  1.1371
   51MOL0     H 7020   5.123   1.605   1.993 -0.5011 -0.1369 -0.9154
   51MOL0     H 7021   4.971   1.418   2.018  0.0931 -2.3758 -0.8708
   51MOL0     H 7022   3.236   0.842   2.578 -0.2920 -0.2534  1.0320
   51MOL0     H 7023   3.083   0.852   2.754 -0.4524 -0.3341  0.4852
   51MOL0     H 7024   2.872   0.526   3.138  0.1537  0.4853 -0.4370
   51MOL0     H 7025   2.704   0.405   3.240  2.0313  0.6859 -0.2321
   51MOL0     H 7026   2.470   0.209   3.020 -0.8704 -1.0993 -0.6415
   51MOL0     H 7027   2.505   0.194   3.200 -0.7953 -1.8015 -0.4095
   51MOL0     H 7028   2.286   0.170   3.257 -2.1514  1.1075  0.8509
   51MOL0     H 7029   2.275   0.098   3.095 -0.8317  0.9784  1.0383
   51MOL0     H 7030   2.200   0.390   3.128  4.3686 -0.6159  0.5405
   51MOL0     H 7031   2.175   0.281   3.004 -0.3537 -2.0203 -0.1507
   51MOL0     H 7032   1.958   0.287   3.105 -1.5247 -4.2010 -0.3175
   51MOL0     H 7033   2.030   0.286   3.270  2.7135  4.4120  0.1420
   51MOL0     H 7034   1.967  -0.115   3.126  0.2664 -1.2594  3.1744
   51MOL0     H 7035   2.448   0.466   2.896  0.6301  0.3021 -1.7407
   51MOL0     H 7036   2.667   0.538   2.677  1.0048 -0.6071  0.7120
   51MOL0     H 7037   2.514   0.600   2.721  0.9133 -2.3409  0.0109
   51MOL0     H 7038   2.658   0.706   2.734  0.7026 -0.6185 -4.1609
   52MOL0     O 7039   1.972   3.340   2.989  0.4378  0.6759  0.0621
   52MOL0     C 7040   1.897   3.422   3.037 -0.5915 -0.4127  0.2383
   52MOL0     O 7041   1.934   3.526   3.117  0.3497 -0.4760 -0.1421
   52MOL0     C 7042   2.068   3.554   3.133  0.8460  0.6467  0.5954
   52MOL0     C 7043   2.143   3.470   3.215 -0.6509 -0.0529 -0.1675
   52MOL0     C 7044   2.289   3.482   3.222 -0.7798 -0.0635  0.1819
   52MOL0     C 7045   2.348   3.584   3.155  0.1006  0.6457  0.0947
   52MOL0     O 7046   2.485   3.591   3.175  0.0739  0.1354 -0.5168
   52MOL0     C 7047   2.558   3.645   3.074 -0.5710 -0.9933  1.1944
   52MOL0     C 7048   2.712   3.653   3.091  0.4733  0.3558  0.2610
   52MOL0     C 7049   2.758   3.524   3.134  0.1310  0.2924 -0.4164
   52MOL0     C 7050   2.912   3.523   3.152  0.0715 -0.2217  0.6958
   52MOL0     C 7051   2.970   3.412   3.225  0.7276 -0.0121 -0.6127
   52MOL0     C 7052   3.123   3.432   3.237  0.3936 -0.1135  0.3882
   52MOL0     C 7053   3.182   3.303   3.294 -0.3301  0.3244  0.0947
   52MOL0     C 7054   3.333   3.299   3.303  0.7005 -0.2646 -0.7964
   52MOL0     N 7055   3.397   3.426   3.351  0.3183 -0.1499  0.3221
   52MOL0     C 7056   3.434   3.525   3.264 -0.4276  0.2578  0.2528
   52MOL0     C 7057   3.502   3.614   3.337 -0.0780 -0.7728  0.6190
   52MOL0     C 7058   3.565   3.736   3.289  0.2975 -0.8798  0.0714
   52MOL0     C 7059   3.717   3.734   3.293 -0.3808  0.1435 -0.4970
   52MOL0     C 7060   3.778   3.861   3.232 -0.1584 -0.3443 -0.1146
   52MOL0     C 7061   3.934   3.850   3.251 -0.2084 -0.2925  0.3636
   52MOL0     O 7062   3.989   3.744   3.170 -0.5849 -0.0371  0.2704
   52MOL0     C 7063   4.122   3.761   3.122 -0.2001  0.5577  0.4340
   52MOL0     C 7064   4.150   3.745   2.987  0.9890 -0.6861  1.0202
   52MOL0     C 7065   4.272   3.759   2.927 -1.0302  0.2306 -1.2793
   52MOL0     C 7066   4.288   3.703   2.787  0.2005  0.0916  0.3169
   52MOL0     C 7067   4.386   3.807   3.002  0.3981  0.4502 -0.2160
   52MOL0     C 7068   4.522   3.826   2.943  0.7745 -0.0259  0.4388
   52MOL0     O 7069   4.615   3.809   3.037  0.9031  0.2276 -0.8686
   52MOL0     C 7070   4.742   3.821   2.989  0.3894 -0.2784  0.3979
   52MOL0     C 7071   4.804   3.713   2.917  0.4993  0.3334 -0.6323
   52MOL0     C 7072   4.931   3.721   2.855  1.4938 -0.6274  0.6719
   52MOL0     C 7073   5.009   3.833   2.885  0.4483  0.3432  0.6288
   52MOL0     O 7074   5.147   3.843   2.858  0.6423  0.2287 -0.5125
   52MOL0     C 7075   5.199   3.789   2.732  0.3658  0.0952 -0.3505
   52MOL0     C 7076   5.345   3.828   2.714 -0.1325  0.3041 -0.3723
   52MOL0     C 7077   5.439   3.777   2.826  0.7482  0.7320 -0.3991
   52MOL0     C 7078   5.418   3.630   2.874 -0.0750 -0.3781  0.0911
   52MOL0     C 7079   5.520   3.601   2.989 -0.6247  0.6049 -0.3016
   52MOL0     C 7080   5.611   3.479   2.962  0.5141  0.3086 -0.5053
   52MOL0     C 7081   5.714   3.474   2.850  0.8140 -0.2078 -0.2721
   52MOL0     C 7082   5.802   3.357   2.835  0.0623 -0.5023  0.3089
   52MOL0    Cl 7083   5.950   3.380   2.929  0.5538 -0.0837 -0.0423
   52MOL0     C 7084   4.955   3.943   2.964 -0.2446  0.1431 -0.2770
   52MOL0     C 7085   4.826   3.940   3.013 -0.2457 -0.1544 -0.2977
   52MOL0     O 7086   4.544   3.846   2.819  0.5257 -0.1861 -0.5435
   52MOL0     C 7087   4.363   3.825   3.142  1.2100 -0.5349  0.7330
   52MOL0     C 7088   4.236   3.800   3.197  0.0996 -0.1350  0.5710
   52MOL0     N 7089   3.505   3.576   3.467 -0.2202  0.4441  0.1521
   52MOL0     N 7090   3.437   3.466   3.474 -0.7003 -0.0960 -0.4428
   52MOL0     C 7091   2.270   3.676   3.083 -0.1209  0.3559  0.1176
   52MOL0     C 7092   2.133   3.659   3.065  0.1328 -0.1055  0.1138
   52MOL0     C 7093   1.755   3.406   3.016  0.0961 -0.7602 -0.0789
   52MOL0     C 7094   1.724   3.345   2.899 -0.3849  0.6979  0.0505
   52MOL0     C 7095   1.595   3.319   2.870  0.3713  0.3500  0.4954
   52MOL0     C 7096   1.498   3.339   2.958  0.6570 -0.1784  0.5086
   52MOL0     O 7097   1.369   3.303   2.921 -0.2911 -0.7439 -0.7863
   52MOL0     C 7098   1.251   3.335   2.996 -0.1252 -0.4282 -0.0669
   52MOL0     C 7099   1.129   3.246   2.964  0.0920 -1.3025  0.2205
   52MOL0     C 7100   1.102   3.253   2.805 -0.2324 -0.1586  0.1253
   52MOL0     C 7101   0.978   3.163   2.785  0.0669 -0.2303  0.2792
   52MOL0     C 7102   0.864   3.253   2.805 -1.0801  0.3887 -0.3005
   52MOL0     C 7103   0.761   3.313   2.834  0.5387  0.2767  0.0912
   52MOL0     C 7104   1.525   3.397   3.077  0.7266 -0.4741 -0.1241
   52MOL0     C 7105   1.653   3.429   3.112  0.6059 -0.3205 -0.1505
   52MOL0     C 7106   1.681   3.496   3.246 -0.6396 -0.2701 -0.3540
   52MOL0     H 7107   2.090   3.396   3.275 -2.5112 -2.0731 -3.9317
   52MOL0     H 7108   2.343   3.410   3.282 -1.4032 -2.3304 -1.8448
   52MOL0     H 7109   2.528   3.750   3.068  0.5032 -0.6956  0.6346
   52MOL0     H 7110   2.532   3.596   2.980  1.2638 -1.7858  1.0402
   52MOL0     H 7111   2.753   3.674   2.992 -0.5553 -2.9377 -0.9788
   52MOL0     H 7112   2.730   3.730   3.167  0.2360 -0.1732  0.8576
   52MOL0     H 7113   2.710   3.503   3.230 -0.8450 -1.1760 -1.1801
   52MOL0     H 7114   2.720   3.444   3.070 -0.6336  2.3175 -2.6370
   52MOL0     H 7115   2.971   3.527   3.061 -0.1659 -4.7788  0.1157
   52MOL0     H 7116   2.937   3.615   3.206  1.3945 -1.2652  1.9359
   52MOL0     H 7117   2.948   3.311   3.188 -0.8459  0.2433 -0.4455
   52MOL0     H 7118   2.922   3.414   3.323  1.0444 -0.6459 -0.4388
   52MOL0     H 7119   3.164   3.471   3.144 -2.2111 -0.5455 -1.0230
   52MOL0     H 7120   3.137   3.518   3.303  2.9828  0.0014 -0.2333
   52MOL0     H 7121   3.147   3.222   3.230  0.9908  0.4959 -0.8769
   52MOL0     H 7122   3.136   3.279   3.390  1.2523 -2.8097  0.1975
   52MOL0     H 7123   3.347   3.223   3.382  0.1867 -0.2033 -0.6469
   52MOL0     H 7124   3.377   3.265   3.209  0.0896 -0.2093 -1.1034
   52MOL0     H 7125   3.415   3.522   3.157  0.9396  0.0351 -0.0052
   52MOL0     H 7126   3.518   3.819   3.343  2.4973 -0.0318  0.7944
   52MOL0     H 7127   3.529   3.749   3.186 -1.7567 -1.5306  0.6488
   52MOL0     H 7128   3.750   3.715   3.395  0.9851 -0.5277 -1.0383
   52MOL0     H 7129   3.758   3.652   3.234 -1.5722  1.4800 -3.4156
   52MOL0     H 7130   3.758   3.870   3.125 -2.5990 -1.9756  0.1132
   52MOL0     H 7131   3.728   3.946   3.280 -0.4918  0.2920 -1.5319
   52MOL0     H 7132   3.968   3.947   3.214  0.5191 -0.4405  0.6286
   52MOL0     H 7133   3.964   3.846   3.356 -0.4714  1.0057  0.5049
   52MOL0     H 7134   4.066   3.717   2.923 -0.6883 -0.7118  3.1215
   52MOL0     H 7135   4.193   3.682   2.738  0.0220  1.2797  0.1339
   52MOL0     H 7136   4.349   3.613   2.802  1.3241  0.9716  1.1968
   52MOL0     H 7137   4.335   3.775   2.720 -1.2964  0.1111 -0.7635
   52MOL0     H 7138   4.753   3.618   2.903  0.8515 -0.1297  0.9829
   52MOL0     H 7139   4.970   3.634   2.803 -0.3168 -1.6697  0.9691
   52MOL0     H 7140   5.179   3.682   2.725  3.2145 -1.1942  5.4116
   52MOL0     H 7141   5.139   3.844   2.658  1.9867  0.7494 -1.2130
   52MOL0     H 7142   5.373   3.790   2.615 -2.9759  1.8579 -1.9250
   52MOL0     H 7143   5.365   3.935   2.721  0.2150  0.2172 -0.0093
   52MOL0     H 7144   5.428   3.826   2.924  1.2524 -2.6825  1.5227
   52MOL0     H 7145   5.544   3.796   2.804  1.9532 -0.7440  3.2451
   52MOL0     H 7146   5.440   3.562   2.791  3.1831 -1.0341  1.3321
   52MOL0     H 7147   5.318   3.624   2.920 -0.0446 -0.2532  0.1736
   52MOL0     H 7148   5.576   3.693   3.006 -0.7768  0.5570  0.4894
   52MOL0     H 7149   5.458   3.576   3.076 -0.3663 -0.2943 -0.3637
   52MOL0     H 7150   5.540   3.395   2.964 -0.2387  0.9086 -1.1716
   52MOL0     H 7151   5.665   3.456   3.054  1.4562 -1.6022 -1.4577
   52MOL0     H 7152   5.773   3.566   2.854 -0.9061  0.9712 -0.6838
   52MOL0     H 7153   5.649   3.470   2.763 -1.6103  0.5808  1.3893
   52MOL0     H 7154   5.824   3.346   2.728  0.5915 -1.4967  0.5094
   52MOL0     H 7155   5.757   3.261   2.860 -1.8981  0.2513 -0.1542
   52MOL0     H 7156   5.026   4.019   2.996  2.8464 -2.6419  0.1371
   52MOL0     H 7157   4.786   4.023   3.069  0.4324  0.4947 -0.7649
   52MOL0     H 7158   4.449   3.858   3.199  2.5772 -1.2459 -0.8396
   52MOL0     H 7159   4.211   3.831   3.298  0.9493 -1.7383  1.2966
   52MOL0     H 7160   2.317   3.761   3.035  1.8434 -0.5031  0.4273
   52MOL0     H 7161   2.078   3.723   2.998 -3.5015 -2.7568  0.2726
   52MOL0     H 7162   1.799   3.320   2.826  0.1602  1.7247  0.2324
   52MOL0     H 7163   1.581   3.283   2.768  3.2497 -0.5703  0.3370
   52MOL0     H 7164   1.255   3.324   3.105 -2.7324  0.5657  0.2026
   52MOL0     H 7165   1.220   3.439   2.979 -4.2061 -1.0652  2.1570
   52MOL0     H 7166   1.047   3.287   3.023  0.8453  3.7050 -1.6249
   52MOL0     H 7167   1.152   3.143   2.992  2.1365 -0.8043  0.5466
   52MOL0     H 7168   1.091   3.357   2.772  4.3573 -0.2882 -2.5319
   52MOL0     H 7169   1.182   3.209   2.746 -2.0405 -1.9810 -1.0993
   52MOL0     H 7170   0.975   3.084   2.860 -1.0931  0.6674  1.2292
   52MOL0     H 7171   0.972   3.120   2.685  5.1655  0.8637 -0.7925
   52MOL0     H 7172   0.683   3.385   2.851 -0.5585 -0.1478 -2.5876
   52MOL0     H 7173   1.448   3.407   3.153  0.7080 -1.0536 -0.0670
   52MOL0     H 7174   1.689   3.605   3.246 -2.4906 -0.0796  0.7716
   52MOL0     H 7175   1.597   3.477   3.313 -0.8006 -1.2824 -0.8224
   52MOL0     H 7176   1.768   3.451   3.293 -1.8734 -0.5684  1.7728
   53MOL0     O 7177   1.497   4.311   0.278 -0.3079 -0.1577 -0.0001
   53MOL0     C 7178   1.579   4.302   0.369 -0.2290  0.0201 -0.0803
   53MOL0     O 7179   1.715   4.273   0.350 -1.3645  0.1984 -0.2164
   53MOL0     C 7180   1.746   4.194   0.240 -0.3464  0.6118  0.1216
   53MOL0     C 7181   1.861   4.231   0.172 -0.3723 -0.8541 -0.1679
   53MOL0     C 7182   1.884   4.171   0.052 -0.1204  0.1169  0.7858
   53MOL0     C 7183   1.802   4.083  -0.007  0.0411  0.3336 -0.5250
   53MOL0     O 7184   1.829   4.014  -0.129  0.8837 -0.1685  0.6358
   53MOL0     C 7185   1.953   4.031  -0.198  0.4975 -0.5286 -0.2825
   53MOL0     C 7186   1.980   3.914  -0.303  0.8974  0.0647 -0.5087
   53MOL0     C 7187   1.905   3.944  -0.430  0.3161 -0.4146  0.2688
   53MOL0     C 7188   1.911   3.827  -0.533 -0.1063 -1.2212 -0.3035
   53MOL0     C 7189   1.811   3.853  -0.645 -0.1102 -0.6813  0.3853
   53MOL0     C 7190   1.808   3.759  -0.768 -0.5326  0.1568 -0.4399
   53MOL0     C 7191   1.737   3.624  -0.730 -0.1744  0.9398  0.5920
   53MOL0     C 7192   1.709   3.540  -0.857  0.5875  0.6469 -0.0912
   53MOL0     N 7193   1.828   3.530  -0.945  0.8138 -0.4083 -0.0648
   53MOL0     C 7194   1.939   3.453  -0.915  0.3508 -0.0171  0.9949
   53MOL0     C 7195   2.005   3.441  -1.037 -0.0840 -0.3556 -0.5027
   53MOL0     C 7196   2.110   3.342  -1.081  0.1985  0.4113 -0.0370
   53MOL0     C 7197   2.059   3.274  -1.204  0.3834 -0.6052  0.1395
   53MOL0     C 7198   2.133   3.153  -1.253  0.7782  0.0100 -1.1122
   53MOL0     C 7199   2.089   3.112  -1.401 -0.1668  0.8333 -0.1270
   53MOL0     O 7200   2.102   2.969  -1.435  0.0613 -0.5622 -0.0154
   53MOL0     C 7201   2.221   2.910  -1.428 -0.7171 -0.0418  0.1513
   53MOL0     C 7202   2.343   2.978  -1.455  0.6615  0.5508  0.3154
   53MOL0     C 7203   2.459   2.907  -1.451  0.0442  0.4093 -0.0454
   53MOL0     C 7204   2.591   2.976  -1.466 -0.2744 -0.3680  0.5085
   53MOL0     C 7205   2.456   2.763  -1.457 -0.0040  0.5924  0.5678
   53MOL0     C 7206   2.575   2.678  -1.465  0.7732  0.8050  0.2514
   53MOL0     O 7207   2.551   2.556  -1.524  0.2646 -0.5165 -0.2583
   53MOL0     C 7208   2.651   2.459  -1.509 -0.0198 -0.0975  0.5899
   53MOL0     C 7209   2.729   2.405  -1.610 -0.8762  0.3810 -0.3103
   53MOL0     C 7210   2.810   2.287  -1.593  0.3468 -0.1445  0.1070
   53MOL0     C 7211   2.826   2.233  -1.463 -0.2278 -0.4902 -0.5258
   53MOL0     O 7212   2.907   2.120  -1.453  0.2505 -0.3112 -0.9564
   53MOL0     C 7213   2.933   2.087  -1.317  0.0480  0.6301 -0.5401
   53MOL0     C 7214   3.046   1.986  -1.306  0.5331  0.1988  0.4213
   53MOL0     C 7215   3.181   2.057  -1.280  0.0622 -0.4170  0.6116
   53MOL0     C 7216   3.304   1.956  -1.261  0.0537 -0.4920 -0.0942
   53MOL0     C 7217   3.438   2.026  -1.239  0.1798 -0.2355 -0.1355
   53MOL0     C 7218   3.562   1.932  -1.229  0.0647  0.8307 -0.1357
   53MOL0     C 7219   3.699   1.996  -1.225 -0.2432 -0.1100  0.0738
   53MOL0     C 7220   3.795   1.891  -1.176 -0.8132  0.5638 -0.2182
   53MOL0    Cl 7221   3.952   1.977  -1.148  0.2361 -0.3387  0.0501
   53MOL0     C 7222   2.750   2.289  -1.354  0.1037  0.6151  0.3039
   53MOL0     C 7223   2.662   2.402  -1.383 -0.2586 -0.5340  0.3368
   53MOL0     O 7224   2.683   2.710  -1.416  0.0220  0.3843 -1.2714
   53MOL0     C 7225   2.333   2.692  -1.461 -0.6179  0.2103  0.3499
   53MOL0     C 7226   2.223   2.772  -1.442 -0.0104 -1.0786 -0.5768
   53MOL0     N 7227   1.951   3.549  -1.120 -0.4992  0.1144 -0.8785
   53MOL0     N 7228   1.851   3.601  -1.057  0.0438  0.2279  0.0908
   53MOL0     C 7229   1.693   4.045   0.062 -0.5165  0.6350 -0.3394
   53MOL0     C 7230   1.673   4.088   0.188  0.3361 -0.1845 -1.2918
   53MOL0     C 7231   1.541   4.333   0.509  0.9526 -0.2995 -0.5450
   53MOL0     C 7232   1.587   4.231   0.601  0.1816 -1.0918 -0.1464
   53MOL0     C 7233   1.550   4.245   0.735 -0.2340 -1.2218 -0.6338
   53MOL0     C 7234   1.478   4.356   0.782  0.3454 -0.9854  0.2758
   53MOL0     O 7235   1.461   4.365   0.914 -0.0202  0.0844 -0.0347
   53MOL0     C 7236   1.358   4.447   0.951 -1.0700 -0.9053 -0.5282
   53MOL0     C 7237   1.330   4.438   1.102  0.1526  1.1617  0.0833
   53MOL0     C 7238   1.288   4.293   1.151  0.2515  0.7056 -0.4033
   53MOL0     C 7239   1.222   4.303   1.294  0.3958 -0.0110  0.4569
   53MOL0     C 7240   1.303   4.381   1.385  0.9377  0.7636 -0.4118
   53MOL0     C 7241   1.351   4.444   1.478 -0.4738 -0.4375 -1.0534
   53MOL0     C 7242   1.431   4.449   0.682  0.4751  0.2381 -0.0104
   53MOL0     C 7243   1.456   4.432   0.548  0.6122 -0.4491 -0.0105
   53MOL0     C 7244   1.391   4.517   0.455  1.0162 -0.7315 -0.2057
   53MOL0     H 7245   1.913   4.314   0.219 -3.1931  1.4223 -0.7545
   53MOL0     H 7246   1.973   4.207   0.001  0.0368  1.2128  1.7832
   53MOL0     H 7247   2.035   4.024  -0.126 -0.6052 -0.3295  1.0364
   53MOL0     H 7248   1.947   4.129  -0.246 -1.2854  1.3222  3.3267
   53MOL0     H 7249   2.086   3.919  -0.328  0.8229 -0.9233 -1.0845
   53MOL0     H 7250   1.958   3.816  -0.261  0.1647  1.1615  1.8132
   53MOL0     H 7251   1.803   3.971  -0.403 -0.0164 -1.1171 -0.2520
   53MOL0     H 7252   1.946   4.038  -0.469  1.1029  0.6828  3.4352
   53MOL0     H 7253   2.014   3.827  -0.569 -0.9715 -1.1238 -3.0405
   53MOL0     H 7254   1.897   3.729  -0.486  1.6243 -1.9665 -1.2552
   53MOL0     H 7255   1.834   3.955  -0.676 -0.1821 -0.9933 -0.7518
   53MOL0     H 7256   1.716   3.843  -0.593 -0.3147  0.5995  0.2750
   53MOL0     H 7257   1.755   3.812  -0.847 -1.0381 -1.7905 -1.4631
   53MOL0     H 7258   1.903   3.740  -0.819 -0.7634 -0.9224 -0.4853
   53MOL0     H 7259   1.638   3.659  -0.698 -0.9889  0.9476 -1.7623
   53MOL0     H 7260   1.797   3.567  -0.659 -0.1455 -2.1275 -1.7210
   53MOL0     H 7261   1.684   3.436  -0.837 -0.1763  0.4711 -1.8128
   53MOL0     H 7262   1.626   3.588  -0.909  1.1506  0.9891 -0.6926
   53MOL0     H 7263   1.946   3.388  -0.829 -1.1879  0.1386  1.2699
   53MOL0     H 7264   2.126   3.264  -1.006  0.7375  0.7693  0.2219
   53MOL0     H 7265   2.206   3.392  -1.094  1.5028 -0.9808  3.2617
   53MOL0     H 7266   1.951   3.254  -1.204  0.2479  0.0939 -0.4079
   53MOL0     H 7267   2.080   3.347  -1.282  2.4419 -1.0590  0.2183
   53MOL0     H 7268   2.239   3.180  -1.256  1.1720 -1.4658 -1.0264
   53MOL0     H 7269   2.106   3.069  -1.189 -1.4066  1.9500  0.7308
   53MOL0     H 7270   1.988   3.144  -1.429 -0.4519 -0.7939 -1.0798
   53MOL0     H 7271   2.149   3.161  -1.477  1.4215  0.4627  0.8455
   53MOL0     H 7272   2.344   3.086  -1.461 -0.3530  0.5100 -1.1024
   53MOL0     H 7273   2.590   3.084  -1.483 -0.9400 -0.6477 -1.4373
   53MOL0     H 7274   2.644   2.931  -1.551  1.5796 -0.5764  1.7035
   53MOL0     H 7275   2.666   2.952  -1.390  1.0971 -1.6080 -1.1408
   53MOL0     H 7276   2.702   2.437  -1.710 -0.7867 -1.6095 -1.0179
   53MOL0     H 7277   2.867   2.250  -1.677  1.7161 -0.3312  1.0972
   53MOL0     H 7278   2.969   2.181  -1.274 -2.0474  0.5232  1.7184
   53MOL0     H 7279   2.844   2.063  -1.257  0.4183 -0.8249 -0.5220
   53MOL0     H 7280   3.027   1.921  -1.220  2.3724  1.7651  2.1148
   53MOL0     H 7281   3.047   1.924  -1.397 -3.0671  2.4568 -1.3869
   53MOL0     H 7282   3.182   2.123  -1.193 -0.2835  1.3899 -0.6816
   53MOL0     H 7283   3.196   2.129  -1.361 -1.3060  3.0620  3.2068
   53MOL0     H 7284   3.323   1.887  -1.344  0.1520 -1.5361  0.7690
   53MOL0     H 7285   3.278   1.890  -1.178 -1.9245  0.7642  0.3463
   53MOL0     H 7286   3.448   2.099  -1.320 -2.8126  1.7218  1.0846
   53MOL0     H 7287   3.422   2.084  -1.148 -3.2824  1.4660 -1.6266
   53MOL0     H 7288   3.550   1.867  -1.316 -2.3508  3.5384 -2.0091
   53MOL0     H 7289   3.545   1.867  -1.143 -0.2790 -1.5054 -1.8621
   53MOL0     H 7290   3.687   2.083  -1.160  1.7778  0.1312  0.1897
   53MOL0     H 7291   3.727   2.027  -1.327  0.1701 -2.2830 -0.5391
   53MOL0     H 7292   3.800   1.811  -1.251 -0.8935  1.0586 -0.7600
   53MOL0     H 7293   3.760   1.847  -1.083  0.6041 -0.3897 -0.1113
   53MOL0     H 7294   2.749   2.251  -1.252 -0.8149 -0.3364 -0.0459
   53MOL0     H 7295   2.604   2.459  -1.312  0.5779  2.1226 -0.9875
   53MOL0     H 7296   2.326   2.584  -1.468  1.5775  0.0227  0.3552
   53MOL0     H 7297   2.126   2.726  -1.434 -0.0364 -0.9791 -0.3294
   53MOL0     H 7298   1.629   3.970   0.018  1.4784 -0.1131 -2.1800
   53MOL0     H 7299   1.588   4.050   0.243 -0.6117  0.7450 -2.0818
   53MOL0     H 7300   1.652   4.152   0.563  1.1575  0.6155 -2.2634
   53MOL0     H 7301   1.582   4.167   0.804  0.2913 -0.2905  0.2106
   53MOL0     H 7302   1.396   4.548   0.935  0.7859 -1.5747 -0.5502
   53MOL0     H 7303   1.268   4.434   0.890 -0.4554 -0.2235 -1.6112
   53MOL0     H 7304   1.244   4.500   1.125  0.0494  2.1196 -2.5540
   53MOL0     H 7305   1.410   4.478   1.165  0.4295 -0.8368  1.0945
   53MOL0     H 7306   1.214   4.244   1.086  1.4053 -2.0602  0.1952
   53MOL0     H 7307   1.373   4.224   1.147  0.4177  0.9307 -0.8734
   53MOL0     H 7308   1.227   4.204   1.339  0.0602 -0.6359 -0.8324
   53MOL0     H 7309   1.119   4.337   1.285  0.6560  0.8076  0.5043
   53MOL0     H 7310   1.386   4.500   1.562 -1.1516  0.8689 -1.5998
   53MOL0     H 7311   1.361   4.524   0.718 -0.3287 -1.4436  2.1314
   53MOL0     H 7312   1.332   4.456   0.386 -2.1068  0.7438  0.9502
   53MOL0     H 7313   1.323   4.592   0.498  0.2645  0.1899 -2.7889
   53MOL0     H 7314   1.471   4.559   0.393 -0.0286  0.3135 -0.8936
   54MOL0     O 7315   7.722   2.380   1.747 -0.2275  0.2994  0.6992
   54MOL0     C 7316   7.810   2.301   1.719  0.1212 -0.6549  0.0910
   54MOL0     O 7317   7.782   2.190   1.655 -0.6849  0.3522 -0.7741
   54MOL0     C 7318   7.653   2.169   1.605 -0.5477  0.0237 -0.6648
   54MOL0     C 7319   7.632   2.181   1.476  0.6988  0.4550 -0.7202
   54MOL0     C 7320   7.507   2.165   1.422 -0.3011 -0.7429 -0.2393
   54MOL0     C 7321   7.395   2.135   1.503  0.2616 -0.2748 -0.6444
   54MOL0     O 7322   7.274   2.114   1.444 -0.2047  0.2088 -0.1526
   54MOL0     C 7323   7.170   2.019   1.483 -0.9738  0.9055 -0.7775
   54MOL0     C 7324   7.034   2.055   1.417 -0.9252 -0.5423 -0.6674
   54MOL0     C 7325   6.918   1.991   1.487  0.5867  0.0153 -1.5531
   54MOL0     C 7326   6.929   1.841   1.535 -0.2102  0.2149 -0.0350
   54MOL0     C 7327   6.943   1.734   1.426 -0.0047  0.1242  0.5917
   54MOL0     C 7328   6.818   1.727   1.332  0.0997  0.2703 -0.0825
   54MOL0     C 7329   6.809   1.596   1.252  0.1459  0.5363  0.5886
   54MOL0     C 7330   6.755   1.599   1.105 -0.2337 -0.4081 -0.0810
   54MOL0     N 7331   6.810   1.710   1.025  0.7235  0.2021 -0.7613
   54MOL0     C 7332   6.945   1.709   0.984 -0.8149  0.3197 -0.6567
   54MOL0     C 7333   6.957   1.817   0.898  0.1870  0.1562 -0.7982
   54MOL0     C 7334   7.070   1.853   0.813  0.8545 -0.7464  0.2827
   54MOL0     C 7335   7.024   1.859   0.671  0.5767 -0.0245 -0.1905
   54MOL0     C 7336   7.149   1.848   0.576 -0.1794 -0.2169  0.0389
   54MOL0     C 7337   7.242   1.965   0.572  0.5558  0.2654 -0.2163
   54MOL0     O 7338   7.367   1.929   0.507  0.5000 -0.3404  0.1864
   54MOL0     C 7339   7.471   1.894   0.575 -0.0208 -0.8770 -0.3297
   54MOL0     C 7340   7.596   1.968   0.561 -0.5302  0.1278 -0.1819
   54MOL0     C 7341   7.710   1.945   0.637  0.1174  0.1795  0.4830
   54MOL0     C 7342   7.839   2.025   0.614 -0.0425  0.2992 -0.4813
   54MOL0     C 7343   7.699   1.838   0.737  0.2974 -0.3409 -0.3380
   54MOL0     C 7344   7.808   1.787   0.824  0.3737 -1.5011 -0.6367
   54MOL0     O 7345   7.804   1.660   0.875  0.0030  0.1483  0.0814
   54MOL0     C 7346   7.903   1.608   0.956 -0.2316  0.8029  1.2127
   54MOL0     C 7347   7.858   1.543   1.071  0.3618 -0.0173 -0.7116
   54MOL0     C 7348   7.944   1.490   1.163 -0.4379  0.6345 -0.1030
   54MOL0     C 7349   8.086   1.499   1.140  0.1976  0.3808 -0.2870
   54MOL0     O 7350   8.179   1.427   1.205 -0.2366  0.3595 -0.8058
   54MOL0     C 7351   8.137   1.317   1.289 -0.2415  0.1853 -0.0554
   54MOL0     C 7352   8.248   1.229   1.350 -0.8263  0.1776  0.2310
   54MOL0     C 7353   8.324   1.302   1.468  0.2580  0.6430 -0.1999
   54MOL0     C 7354   8.422   1.396   1.422 -0.2812  0.0703  0.3370
   54MOL0     C 7355   8.495   1.474   1.533 -0.2407 -0.4088 -0.4703
   54MOL0     C 7356   8.638   1.443   1.553  0.1099  0.0835 -0.4909
   54MOL0     C 7357   8.728   1.448   1.416  0.0868  0.0577 -0.0653
   54MOL0     C 7358   8.698   1.585   1.355  0.6092  1.0948 -0.4819
   54MOL0    Cl 7359   8.750   1.719   1.457 -0.1689  0.2685  0.3474
   54MOL0     C 7360   8.130   1.562   1.024  0.9691  1.0676  1.1988
   54MOL0     C 7361   8.038   1.611   0.927 -1.3827 -1.3223 -0.2564
   54MOL0     O 7362   7.899   1.868   0.845  0.6128 -0.2003  0.6464
   54MOL0     C 7363   7.581   1.764   0.753  0.6520  0.2288 -0.1948
   54MOL0     C 7364   7.466   1.794   0.675 -0.2206  0.2912  0.3670
   54MOL0     N 7365   6.835   1.886   0.899  0.3410  0.3510 -0.3657
   54MOL0     N 7366   6.753   1.823   0.977 -0.0508  0.3953  0.4647
   54MOL0     C 7367   7.418   2.127   1.641  0.4406 -1.0301  0.0774
   54MOL0     C 7368   7.546   2.144   1.692  0.3792 -0.7170  0.6672
   54MOL0     C 7369   7.944   2.324   1.776 -0.5916  0.4087 -0.0387
   54MOL0     C 7370   7.955   2.397   1.895  0.2506 -0.9229  0.4943
   54MOL0     C 7371   8.076   2.401   1.976  0.8560 -0.1769 -0.6241
   54MOL0     C 7372   8.184   2.327   1.923 -0.0419 -0.2313  0.2605
   54MOL0     O 7373   8.298   2.323   2.008 -0.0990 -0.0516  0.1961
   54MOL0     C 7374   8.410   2.239   1.976 -0.1693  0.5482 -0.2104
   54MOL0     C 7375   8.399   2.091   2.020  0.1014 -0.3271  0.2857
   54MOL0     C 7376   8.353   2.075   2.167  0.1245  0.3927 -0.2273
   54MOL0     C 7377   8.455   2.110   2.276 -0.7775 -0.5679 -0.5078
   54MOL0     C 7378   8.416   2.068   2.407 -0.0156 -0.3218 -0.2824
   54MOL0     C 7379   8.366   2.022   2.500  0.0848 -0.4489 -0.6334
   54MOL0     C 7380   8.177   2.262   1.800 -0.3277 -0.1224 -0.3173
   54MOL0     C 7381   8.062   2.269   1.723  1.2608  0.8149 -0.0123
   54MOL0     C 7382   8.074   2.214   1.582 -0.2896  0.2381 -0.4374
   54MOL0     H 7383   7.720   2.206   1.417  2.2441 -1.8763  0.4387
   54MOL0     H 7384   7.485   2.187   1.318  0.3751 -1.0228 -0.4504
   54MOL0     H 7385   7.166   2.028   1.592  0.2948 -0.8272 -0.5526
   54MOL0     H 7386   7.200   1.916   1.464  0.0816  0.3399  3.0182
   54MOL0     H 7387   7.023   2.163   1.403 -0.1912 -0.4848 -0.8652
   54MOL0     H 7388   7.038   2.013   1.316 -0.1469  1.4298 -1.5217
   54MOL0     H 7389   6.904   2.043   1.582 -1.6475 -0.5579 -1.4977
   54MOL0     H 7390   6.837   2.010   1.415  0.4212 -1.9958 -1.9669
   54MOL0     H 7391   7.013   1.831   1.604 -0.3063 -0.9955 -0.0816
   54MOL0     H 7392   6.839   1.814   1.591  0.6591  1.9640  2.3577
   54MOL0     H 7393   6.952   1.640   1.480  1.3602 -0.3905 -0.4779
   54MOL0     H 7394   7.031   1.761   1.367  0.6250  1.4959  2.1080
   54MOL0     H 7395   6.726   1.746   1.390  0.8029  0.1792  1.1008
   54MOL0     H 7396   6.828   1.816   1.269 -0.8625 -0.0545 -0.7242
   54MOL0     H 7397   6.758   1.516   1.307 -0.8768  0.6176 -0.1910
   54MOL0     H 7398   6.904   1.546   1.231  0.1058 -0.6010  2.8185
   54MOL0     H 7399   6.780   1.506   1.052  0.6650  0.6624 -1.6384
   54MOL0     H 7400   6.646   1.611   1.107 -0.1321  0.4862  0.9535
   54MOL0     H 7401   7.005   1.621   1.001  2.0328  2.2279 -0.1683
   54MOL0     H 7402   7.151   1.780   0.818  2.0885  0.2169 -2.8472
   54MOL0     H 7403   7.101   1.954   0.843 -2.2294 -0.1456  1.8113
   54MOL0     H 7404   6.946   1.784   0.659  2.6487 -2.7997  2.2375
   54MOL0     H 7405   6.968   1.950   0.650 -0.5987 -0.9227 -1.0343
   54MOL0     H 7406   7.196   1.750   0.594 -1.2984 -0.9762 -1.0426
   54MOL0     H 7407   7.102   1.844   0.477  0.2945 -2.8990 -0.1453
   54MOL0     H 7408   7.190   2.039   0.511 -1.5208 -1.0297 -0.0924
   54MOL0     H 7409   7.264   2.008   0.671  1.1771 -0.9786  0.2080
   54MOL0     H 7410   7.584   2.056   0.498 -1.0163  0.8471  0.8844
   54MOL0     H 7411   7.867   2.086   0.701 -0.2679 -1.3460  0.7881
   54MOL0     H 7412   7.822   2.093   0.530 -1.8921  0.2676 -0.1713
   54MOL0     H 7413   7.922   1.955   0.600  0.5133  0.9722 -0.6095
   54MOL0     H 7414   7.750   1.542   1.080  0.3650  1.8608  0.1640
   54MOL0     H 7415   7.890   1.433   1.238 -2.2534  0.6244 -1.3579
   54MOL0     H 7416   8.081   1.360   1.374 -0.4240 -1.1448  0.5255
   54MOL0     H 7417   8.067   1.255   1.232 -1.3571  0.8904  0.5077
   54MOL0     H 7418   8.213   1.136   1.395 -2.5246  0.7137  0.0644
   54MOL0     H 7419   8.316   1.200   1.269 -3.4366 -1.1022 -1.6212
   54MOL0     H 7420   8.373   1.232   1.536  1.7683  1.1381 -0.7295
   54MOL0     H 7421   8.253   1.362   1.526 -0.3360 -0.4657  0.2594
   54MOL0     H 7422   8.381   1.473   1.357  5.7854  2.5845 -1.2414
   54MOL0     H 7423   8.495   1.339   1.363  1.7471  0.3038  2.4421
   54MOL0     H 7424   8.476   1.580   1.516  0.8528  0.2705  2.1143
   54MOL0     H 7425   8.445   1.454   1.628 -2.1983 -0.2530 -1.4200
   54MOL0     H 7426   8.645   1.350   1.610 -0.6602  2.2149  3.4360
   54MOL0     H 7427   8.667   1.519   1.626  0.5043 -2.3834  2.0888
   54MOL0     H 7428   8.690   1.372   1.346 -0.1406 -2.0829  2.2399
   54MOL0     H 7429   8.835   1.432   1.434  0.0672 -0.5005 -0.3966
   54MOL0     H 7430   8.591   1.600   1.338  0.9236  1.3989 -2.4287
   54MOL0     H 7431   8.757   1.586   1.263 -0.2250 -1.3667 -1.1139
   54MOL0     H 7432   8.233   1.561   0.991  0.8846  0.8636  0.9370
   54MOL0     H 7433   8.084   1.657   0.841  1.1248 -2.3313  0.4700
   54MOL0     H 7434   7.564   1.694   0.834 -4.1074  1.0963 -0.1761
   54MOL0     H 7435   7.373   1.748   0.706  0.3682 -0.2589  1.3752
   54MOL0     H 7436   7.330   2.110   1.703 -0.5266  2.9069  0.1086
   54MOL0     H 7437   7.574   2.141   1.796 -0.3411  2.9302  1.1023
   54MOL0     H 7438   7.874   2.444   1.949 -0.0436 -3.0276  2.0021
   54MOL0     H 7439   8.082   2.447   2.074 -1.5213 -2.6861  0.8478
   54MOL0     H 7440   8.423   2.241   1.867 -0.0231 -1.3670 -0.2681
   54MOL0     H 7441   8.496   2.286   2.024 -1.8310  0.8183  2.7109
   54MOL0     H 7442   8.499   2.046   2.017  0.2000 -0.0931 -1.9563
   54MOL0     H 7443   8.332   2.034   1.955 -0.8718  0.9564  0.1237
   54MOL0     H 7444   8.263   2.135   2.184 -2.1785 -2.2265 -2.1434
   54MOL0     H 7445   8.339   1.967   2.176  3.4437 -0.2877 -1.5640
   54MOL0     H 7446   8.472   2.218   2.275 -3.1678 -0.1211 -0.2790
   54MOL0     H 7447   8.551   2.061   2.260  0.9787  3.3874 -3.8824
   54MOL0     H 7448   8.322   1.999   2.595  0.1702  1.2418 -0.1576
   54MOL0     H 7449   8.266   2.224   1.751 -0.8375  0.2883 -1.6179
   54MOL0     H 7450   8.015   2.270   1.508 -0.1942 -0.8763 -1.3846
   54MOL0     H 7451   8.175   2.200   1.544  1.0864  0.9370  2.6861
   54MOL0     H 7452   8.027   2.115   1.582  1.3515 -0.6221  1.5874
   55MOL0     O 7453   3.636   2.607   0.264 -0.1338  0.3008  0.3875
   55MOL0     C 7454   3.685   2.702   0.325  0.4938  0.6237  0.5731
   55MOL0     O 7455   3.806   2.767   0.299 -0.0589 -0.1362  0.5608
   55MOL0     C 7456   3.894   2.703   0.208  0.6704  0.1690  0.1545
   55MOL0     C 7457   3.932   2.566   0.218 -0.5247 -0.6067 -0.5011
   55MOL0     C 7458   4.034   2.515   0.136 -0.2550  0.4940  0.5533
   55MOL0     C 7459   4.109   2.597   0.052 -0.4506 -0.4464  0.0770
   55MOL0     O 7460   4.212   2.541  -0.000  0.4754  0.6349 -0.5804
   55MOL0     C 7461   4.216   2.527  -0.145  0.2275 -0.1366 -0.3718
   55MOL0     C 7462   4.290   2.399  -0.182 -0.0124 -0.2126 -0.4451
   55MOL0     C 7463   4.331   2.403  -0.329 -0.1415  0.6303 -0.0208
   55MOL0     C 7464   4.468   2.480  -0.350  0.2364  0.1987 -0.2454
   55MOL0     C 7465   4.505   2.493  -0.503 -0.1621  0.2428  0.1489
   55MOL0     C 7466   4.631   2.576  -0.528  1.4219 -0.0770  1.3345
   55MOL0     C 7467   4.741   2.506  -0.458  0.2328  0.3192 -0.3592
   55MOL0     C 7468   4.853   2.464  -0.557 -0.0084  0.2783  0.2205
   55MOL0     N 7469   4.925   2.571  -0.621 -0.0834  0.3139 -0.3894
   55MOL0     C 7470   4.999   2.662  -0.559 -0.0548  0.2230 -0.5075
   55MOL0     C 7471   5.044   2.730  -0.667 -1.2200 -0.5575 -0.1037
   55MOL0     C 7472   5.138   2.848  -0.658 -0.4838  0.3020  0.1490
   55MOL0     C 7473   5.291   2.818  -0.688 -0.0461 -0.1399  0.5451
   55MOL0     C 7474   5.313   2.805  -0.840 -0.2392  0.2085  0.9098
   55MOL0     C 7475   5.453   2.746  -0.886  0.4235 -0.6619 -0.2263
   55MOL0     O 7476   5.561   2.810  -0.813 -0.0040 -0.1122 -0.7702
   55MOL0     C 7477   5.689   2.787  -0.841 -0.4889  1.0027  0.6294
   55MOL0     C 7478   5.791   2.824  -0.754 -0.0189  0.3877 -0.5356
   55MOL0     C 7479   5.928   2.812  -0.788 -0.3954 -0.0466 -0.5109
   55MOL0     C 7480   6.017   2.880  -0.694  0.1427  1.0171  0.4391
   55MOL0     C 7481   5.963   2.741  -0.907  0.3252  0.5049 -0.7099
   55MOL0     C 7482   6.106   2.727  -0.964  0.1133 -0.4772 -0.6986
   55MOL0     O 7483   6.194   2.817  -0.921  0.4563 -0.5352  0.3107
   55MOL0     C 7484   6.325   2.800  -0.901  0.1713 -0.6592  0.5291
   55MOL0     C 7485   6.367   2.906  -0.823 -0.0476 -0.0159 -0.2710
   55MOL0     C 7486   6.505   2.918  -0.787 -0.4643  0.5089  1.0613
   55MOL0     C 7487   6.601   2.822  -0.830  0.9469  0.4939  0.1161
   55MOL0     O 7488   6.727   2.822  -0.778  0.0436 -0.2167 -0.1574
   55MOL0     C 7489   6.824   2.759  -0.858  1.7385  0.0857 -0.7678
   55MOL0     C 7490   6.954   2.752  -0.777  0.0941  0.1487  0.2811
   55MOL0     C 7491   7.034   2.612  -0.782  0.2717 -0.4368  0.6369
   55MOL0     C 7492   7.152   2.614  -0.677 -0.8599  0.4008  0.7487
   55MOL0     C 7493   7.289   2.634  -0.741 -0.0122 -0.1410  0.7418
   55MOL0     C 7494   7.398   2.692  -0.653 -0.1762  0.2675  0.2908
   55MOL0     C 7495   7.463   2.578  -0.560  0.5890  0.3910  0.7456
   55MOL0     C 7496   7.606   2.579  -0.517  0.6666  0.2267 -0.3198
   55MOL0    Cl 7497   7.649   2.724  -0.421 -0.3618 -0.5759 -0.0733
   55MOL0     C 7498   6.552   2.729  -0.934 -0.3845  0.0678 -0.1035
   55MOL0     C 7499   6.421   2.722  -0.973 -0.7627  0.0077 -0.1225
   55MOL0     O 7500   6.126   2.631  -1.029  1.2889  0.9550  0.7967
   55MOL0     C 7501   5.855   2.709  -0.997 -0.5233  0.2317 -0.4679
   55MOL0     C 7502   5.727   2.745  -0.975  0.1754 -0.4592  0.9210
   55MOL0     N 7503   5.013   2.665  -0.788 -0.0900  0.1986  0.8770
   55MOL0     N 7504   4.935   2.577  -0.758  0.2584 -0.6410 -0.0507
   55MOL0     C 7505   4.083   2.731   0.047 -0.6408 -0.2854  0.4702
   55MOL0     C 7506   3.970   2.786   0.123 -0.6982  0.5339  0.3912
   55MOL0     C 7507   3.599   2.763   0.428  0.9862  0.1030 -0.1776
   55MOL0     C 7508   3.618   2.893   0.454 -0.4055 -0.3568  0.2331
   55MOL0     C 7509   3.532   2.964   0.540 -0.0643  0.8393  0.1650
   55MOL0     C 7510   3.428   2.910   0.603 -0.4506  0.2557  0.3489
   55MOL0     O 7511   3.360   2.986   0.689  1.0034 -0.3376 -0.3683
   55MOL0     C 7512   3.246   2.923   0.763 -0.2182  0.0479 -0.1265
   55MOL0     C 7513   3.122   2.927   0.673 -0.2365  0.0128 -0.1797
   55MOL0     C 7514   3.074   3.069   0.625 -0.2831  0.8766 -0.1841
   55MOL0     C 7515   3.065   3.169   0.735  0.7645 -0.0028  0.0688
   55MOL0     C 7516   2.987   3.125   0.851  0.1069 -0.1218  0.6617
   55MOL0     C 7517   2.930   3.100   0.950  0.2616 -0.7382 -0.0358
   55MOL0     C 7518   3.407   2.774   0.578  0.4028  0.1225  0.3173
   55MOL0     C 7519   3.498   2.693   0.497 -0.5633  0.1592 -0.2582
   55MOL0     C 7520   3.450   2.552   0.468  0.5676  0.2954  0.2179
   55MOL0     H 7521   3.876   2.497   0.280  0.2391  1.3417  2.6041
   55MOL0     H 7522   4.056   2.409   0.138 -0.8796  0.3484  3.0919
   55MOL0     H 7523   4.267   2.616  -0.183  0.4340  0.0430  0.3006
   55MOL0     H 7524   4.119   2.533  -0.194  0.6030 -0.7208 -1.2060
   55MOL0     H 7525   4.382   2.389  -0.123 -0.2827  2.2193  0.5499
   55MOL0     H 7526   4.233   2.311  -0.151  0.8801 -0.5763  0.1900
   55MOL0     H 7527   4.339   2.301  -0.370 -0.3116  0.5299  0.1964
   55MOL0     H 7528   4.249   2.447  -0.387  0.1110  1.6181  0.3610
   55MOL0     H 7529   4.460   2.582  -0.312 -0.5036  0.4577 -1.0468
   55MOL0     H 7530   4.551   2.434  -0.296 -0.3840 -1.7173 -0.8326
   55MOL0     H 7531   4.414   2.525  -0.555 -0.4545  0.3481  0.7206
   55MOL0     H 7532   4.513   2.394  -0.548 -2.3054 -0.0390  0.2694
   55MOL0     H 7533   4.643   2.576  -0.637 -2.4248  0.1226  0.7740
   55MOL0     H 7534   4.632   2.683  -0.507  0.5787  0.5566 -1.4282
   55MOL0     H 7535   4.708   2.411  -0.416 -3.1880  1.0302 -1.1406
   55MOL0     H 7536   4.787   2.567  -0.379 -0.3193  0.1280  0.1128
   55MOL0     H 7537   4.929   2.412  -0.498  0.7520 -0.4427 -1.3358
   55MOL0     H 7538   4.806   2.395  -0.628  0.0295  0.2787  0.1952
   55MOL0     H 7539   5.009   2.680  -0.452 -1.8187 -0.2247 -0.2365
   55MOL0     H 7540   5.131   2.890  -0.557 -1.5375  1.8533 -0.5334
   55MOL0     H 7541   5.095   2.928  -0.720 -1.7443  0.1316  0.7579
   55MOL0     H 7542   5.349   2.903  -0.648  1.0006 -1.1326  1.2081
   55MOL0     H 7543   5.332   2.728  -0.642  1.1408 -1.3250 -2.5526
   55MOL0     H 7544   5.228   2.748  -0.879  0.6539  0.5258 -1.7406
   55MOL0     H 7545   5.301   2.910  -0.868  0.9981  0.7812  2.4014
   55MOL0     H 7546   5.450   2.637  -0.877 -3.0054 -0.6741 -0.3864
   55MOL0     H 7547   5.464   2.749  -0.995 -0.7452 -3.2371 -0.4932
   55MOL0     H 7548   5.749   2.878  -0.669 -0.0387  1.6295 -1.3021
   55MOL0     H 7549   6.060   2.963  -0.751  1.4256  0.5414  0.6715
   55MOL0     H 7550   6.090   2.801  -0.669 -1.3980 -0.5373  0.2285
   55MOL0     H 7551   5.960   2.920  -0.609  0.8754  3.7585 -0.2652
   55MOL0     H 7552   6.294   2.976  -0.783 -0.6000 -1.1837  0.8492
   55MOL0     H 7553   6.533   3.005  -0.730  2.0046 -1.3033  2.8599
   55MOL0     H 7554   6.795   2.656  -0.882 -3.3946  1.0951 -0.1314
   55MOL0     H 7555   6.830   2.819  -0.949 -2.4523 -0.0843 -1.3481
   55MOL0     H 7556   7.023   2.826  -0.818 -0.7115  1.1405  0.6706
   55MOL0     H 7557   6.925   2.784  -0.676 -1.9743 -0.6407 -0.0198
   55MOL0     H 7558   7.069   2.594  -0.884 -3.0321 -2.0696 -0.3630
   55MOL0     H 7559   6.959   2.535  -0.762  0.0229 -0.4387 -0.2568
   55MOL0     H 7560   7.164   2.523  -0.617  6.4087  0.6111  0.4569
   55MOL0     H 7561   7.135   2.701  -0.613 -1.6192  0.2803  0.7189
   55MOL0     H 7562   7.322   2.533  -0.766 -2.6196 -1.0546  0.6752
   55MOL0     H 7563   7.272   2.699  -0.828 -2.5520 -1.0543  0.4507
   55MOL0     H 7564   7.357   2.764  -0.583 -0.6040 -1.7926  2.2715
   55MOL0     H 7565   7.482   2.716  -0.719  0.8201  0.1468  1.4953
   55MOL0     H 7566   7.449   2.482  -0.611 -2.4669  0.8934  0.4572
   55MOL0     H 7567   7.399   2.564  -0.472 -0.4247  0.7465  0.0809
   55MOL0     H 7568   7.667   2.571  -0.608  1.7501 -4.7733  0.5306
   55MOL0     H 7569   7.633   2.486  -0.466  2.6109  0.2405 -1.2245
   55MOL0     H 7570   6.622   2.656  -0.973 -2.8721 -2.5363 -0.0673
   55MOL0     H 7571   6.389   2.650  -1.048 -0.1906  0.1565 -0.5177
   55MOL0     H 7572   5.866   2.660  -1.093 -0.0730 -1.7217  0.5250
   55MOL0     H 7573   5.653   2.724  -1.051  0.5553 -0.3535  0.5200
   55MOL0     H 7574   4.142   2.795  -0.017  0.7076 -3.0182 -1.1675
   55MOL0     H 7575   3.946   2.890   0.103  3.5582  1.6449  0.0745
   55MOL0     H 7576   3.699   2.951   0.410 -0.2820 -0.9159 -0.2777
   55MOL0     H 7577   3.552   3.070   0.550  2.3953  0.4328  0.1694
   55MOL0     H 7578   3.276   2.822   0.790 -1.3193 -0.2628 -0.0079
   55MOL0     H 7579   3.225   2.983   0.852  1.8049 -0.0305  0.4527
   55MOL0     H 7580   3.036   2.873   0.715 -0.2584  0.4472  0.3527
   55MOL0     H 7581   3.144   2.870   0.582 -1.3761  0.5640 -0.8156
   55MOL0     H 7582   3.150   3.116   0.563 -1.5497  1.9845 -0.9514
   55MOL0     H 7583   2.983   3.056   0.566 -0.3787 -1.4920  0.3767
   55MOL0     H 7584   3.013   3.257   0.695 -0.9297 -0.8706  0.2522
   55MOL0     H 7585   3.170   3.184   0.762  0.8826 -1.5631  0.5696
   55MOL0     H 7586   2.861   3.080   1.030  1.5563 -1.7648  0.8781
   55MOL0     H 7587   3.339   2.712   0.635  2.3233 -1.7251  0.7654
   55MOL0     H 7588   3.399   2.511   0.555  0.5068  3.0156  1.5850
   55MOL0     H 7589   3.374   2.556   0.389  0.9989 -0.4704 -0.2393
   55MOL0     H 7590   3.532   2.483   0.448 -0.7373 -0.9514 -1.1306
   56MOL0     O 7591   6.771  11.417  11.382  0.5256  0.2363 -0.2578
   56MOL0     C 7592   6.741  11.411  11.262 -0.5336 -1.1755 -0.4330
   56MOL0     O 7593   6.834  11.406  11.167  0.2996 -0.1862  0.5462
   56MOL0     C 7594   6.960  11.382  11.209 -0.8495 -0.1508 -0.3587
   56MOL0     C 7595   7.001  11.249  11.222 -0.2486  0.4637  0.1947
   56MOL0     C 7596   7.133  11.231  11.264  0.4919 -0.1386 -0.3796
   56MOL0     C 7597   7.223  11.336  11.288  0.5270 -0.4394 -0.1682
   56MOL0     O 7598   7.351  11.325  11.329  0.1072  0.1042 -0.3653
   56MOL0     C 7599   7.433  11.245  11.241 -0.1552  0.0287  0.0218
   56MOL0     C 7600   7.583  11.247  11.297  0.8520 -0.1941 -0.1402
   56MOL0     C 7601   7.596  11.151  11.419  0.5742  0.1244 -0.0965
   56MOL0     C 7602   7.733  11.175  11.497 -0.1756  0.3081  0.0404
   56MOL0     C 7603   7.849  11.077  11.460  0.3147 -0.5725 -1.0546
   56MOL0     C 7604   7.987  11.137  11.504  1.2867  0.4690 -0.4766
   56MOL0     C 7605   8.104  11.051  11.458 -1.1334 -0.1332 -0.3509
   56MOL0     C 7606   8.113  10.895  11.505  0.0649  0.2409 -0.2258
   56MOL0     N 7607   8.118  10.898  11.653  0.2521 -1.0247  0.2700
   56MOL0     C 7608   8.221  10.954  11.724 -0.7799 -0.1482 -0.3087
   56MOL0     C 7609   8.181  10.933  11.857  1.0659  0.5461 -0.0931
   56MOL0     C 7610   8.258  10.978  11.971  0.6893  0.5588 -0.5122
   56MOL0     C 7611   8.412  10.965  11.957  0.5945 -0.0976 -0.1943
   56MOL0     C 7612   8.451  10.815  11.946  0.5459  0.5133 -1.0545
   56MOL0     C 7613   8.603  10.805  11.925  1.2441  0.0391 -1.1172
   56MOL0     O 7614   8.673  10.912  11.994 -0.4394 -0.6686 -0.3138
   56MOL0     C 7615   8.808  10.927  11.967 -0.1130  0.8824  0.0363
   56MOL0     C 7616   8.884  10.845  11.880  0.0122 -0.3037  0.3054
   56MOL0     C 7617   9.025  10.859  11.870  0.4922 -0.6084 -0.5807
   56MOL0     C 7618   9.096  10.758  11.783 -0.0058 -0.2258 -0.3908
   56MOL0     C 7619   9.094  10.952  11.953  0.3347 -0.6224 -1.0020
   56MOL0     C 7620   9.240  10.988  11.956 -0.3748 -0.1316  0.2933
   56MOL0     O 7621   9.264  11.110  12.015 -0.6175  0.3732 -0.1302
   56MOL0     C 7622   9.398  11.154  11.994  0.9492  0.4182  1.0942
   56MOL0     C 7623   9.422  11.254  11.898 -0.6370  0.6032  0.8479
   56MOL0     C 7624   9.557  11.288  11.878 -0.1763  0.2038 -0.7799
   56MOL0     C 7625   9.664  11.217  11.944  0.4129 -0.7124  0.7592
   56MOL0     O 7626   9.794  11.249  11.932  0.3917  0.2692  0.1085
   56MOL0     C 7627   9.839  11.278  11.799  0.3252  0.0919 -0.6311
   56MOL0     C 7628   9.993  11.294  11.796 -0.0446  0.0318 -0.4543
   56MOL0     C 7629  10.051  11.401  11.890  0.3605  0.1880 -0.3766
   56MOL0     C 7630   9.980  11.534  11.871  0.1508 -0.3617 -0.3823
   56MOL0     C 7631  10.059  11.651  11.934 -1.3839 -0.3577 -0.1894
   56MOL0     C 7632   9.988  11.697  12.061  0.3383  0.9265  0.7573
   56MOL0     C 7633   9.995  11.834  12.091 -0.4984  0.4398 -0.4057
   56MOL0     C 7634   9.915  11.920  11.996  0.0577 -0.3994 -0.4968
   56MOL0    Cl 7635   9.959  12.097  12.004  0.0195  0.3379 -0.4586
   56MOL0     C 7636   9.639  11.124  12.044  0.8153 -0.0829  0.0503
   56MOL0     C 7637   9.504  11.101  12.073 -0.5033  0.3382  0.8448
   56MOL0     O 7638   9.329  10.909  11.926 -0.0393 -0.1219 -1.1581
   56MOL0     C 7639   9.012  11.021  12.047  0.3473 -0.2219 -0.5596
   56MOL0     C 7640   8.873  11.023  12.045  0.4110  0.8007 -0.0221
   56MOL0     N 7641   8.069  10.852  11.858  0.6554 -1.0323 -0.2906
   56MOL0     N 7642   8.022  10.850  11.738 -0.4375 -0.5443  0.0948
   56MOL0     C 7643   7.177  11.467  11.278 -0.0334 -0.2136 -0.7125
   56MOL0     C 7644   7.045  11.490  11.234 -0.4166 -0.1385  0.6872
   56MOL0     C 7645   6.604  11.436  11.227  0.3030 -0.1064  0.0756
   56MOL0     C 7646   6.572  11.405  11.100 -0.2468  0.1948 -0.6411
   56MOL0     C 7647   6.450  11.432  11.043 -0.1998 -0.4486 -0.4476
   56MOL0     C 7648   6.348  11.484  11.116  0.2993 -0.4599 -0.3674
   56MOL0     O 7649   6.221  11.500  11.053  0.6152  0.3201  0.1850
   56MOL0     C 7650   6.125  11.585  11.114  0.2796 -0.0991 -0.0761
   56MOL0     C 7651   6.026  11.485  11.184 -0.9082  0.0831  0.1622
   56MOL0     C 7652   5.924  11.550  11.280 -0.0768 -0.2802 -0.0292
   56MOL0     C 7653   5.811  11.626  11.202  0.0647 -0.8769  0.5925
   56MOL0     C 7654   5.718  11.533  11.127  0.3505 -0.4341  0.0808
   56MOL0     C 7655   5.638  11.467  11.064 -0.4806  0.1560  0.4215
   56MOL0     C 7656   6.371  11.509  11.252 -0.0282  0.5393  0.0058
   56MOL0     C 7657   6.497  11.487  11.314  0.0824  0.7434  0.5414
   56MOL0     C 7658   6.527  11.531  11.453 -0.5741  0.0540  0.3340
   56MOL0     H 7659   6.931  11.167  11.218  0.2886 -0.0245  0.6541
   56MOL0     H 7660   7.151  11.124  11.272 -0.4018 -0.2909 -0.2871
   56MOL0     H 7661   7.418  11.273  11.136  2.2742 -4.8732 -1.9882
   56MOL0     H 7662   7.392  11.143  11.247  2.0039 -0.8285  1.3358
   56MOL0     H 7663   7.651  11.215  11.218 -0.2529 -3.1574 -0.0328
   56MOL0     H 7664   7.588  11.353  11.324 -0.5189 -0.0526 -0.3472
   56MOL0     H 7665   7.513  11.179  11.485  0.3983  1.2570 -0.7798
   56MOL0     H 7666   7.570  11.050  11.385  1.4461  0.4767 -1.8844
   56MOL0     H 7667   7.770  11.276  11.476 -0.3042  0.3544  0.0337
   56MOL0     H 7668   7.731  11.167  11.606  0.6240 -0.7494 -0.0032
   56MOL0     H 7669   7.847  11.079  11.351  0.5342 -1.1764 -1.0731
   56MOL0     H 7670   7.834  10.975  11.495 -1.3211  0.2580  0.8997
   56MOL0     H 7671   7.994  11.228  11.445 -0.1314  0.7388 -0.2620
   56MOL0     H 7672   8.004  11.152  11.612  0.4995 -2.8147  0.2212
   56MOL0     H 7673   8.195  11.101  11.495 -1.6243  0.2858  0.3142
   56MOL0     H 7674   8.111  11.048  11.349 -1.6708 -0.8432 -0.3693
   56MOL0     H 7675   8.026  10.841  11.466  1.3152 -2.9272  1.0660
   56MOL0     H 7676   8.204  10.851  11.463 -1.6274 -1.5146 -2.3122
   56MOL0     H 7677   8.286  11.033  11.688 -2.8851  0.7839 -2.3368
   56MOL0     H 7678   8.229  10.919  12.059  0.7136  0.3820 -0.6228
   56MOL0     H 7679   8.237  11.083  11.997  1.3041  0.6679 -0.4259
   56MOL0     H 7680   8.433  11.015  11.862  0.6798  1.3153  0.5370
   56MOL0     H 7681   8.461  11.027  12.033  0.4428 -3.6671  3.1271
   56MOL0     H 7682   8.429  10.752  12.033  2.4721  1.9514  0.5706
   56MOL0     H 7683   8.401  10.772  11.859 -1.3820 -2.2270  1.2364
   56MOL0     H 7684   8.631  10.706  11.963 -0.2958 -0.1638 -0.4123
   56MOL0     H 7685   8.610  10.808  11.816 -1.8435 -2.2433 -1.5247
   56MOL0     H 7686   8.834  10.777  11.812 -0.2572  0.8354 -0.6590
   56MOL0     H 7687   9.197  10.738  11.820 -0.6445 -1.3316  0.8309
   56MOL0     H 7688   9.098  10.798  11.681  2.3094  0.5932 -0.0749
   56MOL0     H 7689   9.041  10.665  11.800  1.5321 -0.8393  1.5704
   56MOL0     H 7690   9.347  11.305  11.838 -0.7378  2.6516  2.5978
   56MOL0     H 7691   9.582  11.381  11.828  0.9745  0.3333 -0.0016
   56MOL0     H 7692   9.820  11.194  11.733  3.5617 -0.4256 -1.1060
   56MOL0     H 7693   9.796  11.369  11.757 -1.5975  0.2489  1.4535
   56MOL0     H 7694  10.038  11.195  11.807  3.4160  1.1611 -2.7134
   56MOL0     H 7695  10.031  11.316  11.696  0.6351  0.3326 -0.1384
   56MOL0     H 7696  10.158  11.409  11.870  0.4808  1.2047  0.6008
   56MOL0     H 7697  10.035  11.364  11.992  0.2303  1.0143 -0.0896
   56MOL0     H 7698   9.885  11.515  11.921  1.0820 -0.6986  1.3115
   56MOL0     H 7699   9.959  11.559  11.766  0.9163  3.8091  0.2978
   56MOL0     H 7700  10.161  11.624  11.966 -0.8177  3.3823  1.7562
   56MOL0     H 7701  10.067  11.737  11.868 -0.9747 -0.7445 -0.6547
   56MOL0     H 7702  10.038  11.647  12.145  2.5176  6.1146  2.9578
   56MOL0     H 7703   9.882  11.671  12.055  0.2790  1.0225  1.3238
   56MOL0     H 7704  10.101  11.855  12.076 -0.0019 -0.6088  1.4324
   56MOL0     H 7705   9.971  11.839  12.198 -3.3838  1.0132 -0.9783
   56MOL0     H 7706   9.808  11.922  12.019  0.3643 -0.5363  1.0147
   56MOL0     H 7707   9.922  11.892  11.891 -0.5919  0.4566 -0.7892
   56MOL0     H 7708   9.727  11.102  12.105  2.0163  0.4402 -1.4366
   56MOL0     H 7709   9.493  11.032  12.155  1.3950 -4.0532 -2.1924
   56MOL0     H 7710   9.047  11.100  12.113  0.3397 -0.6257 -0.0703
   56MOL0     H 7711   8.811  11.077  12.116 -1.5289 -1.5441  0.1935
   56MOL0     H 7712   7.239  11.553  11.303 -3.3123  2.3975 -0.7402
   56MOL0     H 7713   7.001  11.589  11.232 -0.9414 -0.3710  0.2488
   56MOL0     H 7714   6.646  11.365  11.031  0.5515 -1.8476  1.2674
   56MOL0     H 7715   6.437  11.417  10.937  2.1475 -0.0179 -0.8484
   56MOL0     H 7716   6.169  11.660  11.180 -0.0282  0.1294 -0.1286
   56MOL0     H 7717   6.070  11.641  11.039 -0.2346 -0.4800  0.0094
   56MOL0     H 7718   6.088  11.424  11.251 -2.0074 -0.6169  0.5773
   56MOL0     H 7719   5.983  11.422  11.106  0.2456  1.4370 -1.6422
   56MOL0     H 7720   5.871  11.479  11.344 -0.7856 -2.2361 -2.6060
   56MOL0     H 7721   5.974  11.615  11.352  0.9301 -0.2632 -0.7340
   56MOL0     H 7722   5.861  11.695  11.134  0.1081 -0.2179  1.2690
   56MOL0     H 7723   5.747  11.673  11.278 -1.1295  0.5166 -1.2139
   56MOL0     H 7724   5.561  11.407  11.019 -0.5689  1.1656 -0.8247
   56MOL0     H 7725   6.289  11.537  11.318 -0.4779 -0.8338  0.0424
   56MOL0     H 7726   6.514  11.447  11.521  0.5747  0.0797  0.5983
   56MOL0     H 7727   6.622  11.578  11.480 -1.7415  1.4843  2.2326
   56MOL0     H 7728   6.455  11.612  11.470 -0.0378  1.0341 -1.6880
   57MOL0     O 7729   9.132   3.942  10.392  0.7454  0.1988  0.1804
   57MOL0     C 7730   9.025   3.988  10.357  0.5635  0.2766  0.5174
   57MOL0     O 7731   9.011   4.115  10.310  0.1019 -0.2085 -0.3582
   57MOL0     C 7732   9.114   4.210  10.304  1.1238 -0.2348 -0.3260
   57MOL0     C 7733   9.237   4.177  10.259 -0.4120  0.1057 -0.4286
   57MOL0     C 7734   9.341   4.280  10.254  1.4331 -0.0817  0.4264
   57MOL0     C 7735   9.311   4.412  10.287  0.5102  0.1149  0.3685
   57MOL0     O 7736   9.405   4.508  10.260 -1.0017 -0.2888 -0.0625
   57MOL0     C 7737   9.396   4.644  10.282  0.0239 -0.4852  0.2700
   57MOL0     C 7738   9.498   4.713  10.181 -0.4213  0.7062  0.2499
   57MOL0     C 7739   9.450   4.719  10.036 -0.2534 -0.0051  0.3199
   57MOL0     C 7740   9.350   4.833  10.029 -1.0245  0.2350  0.0083
   57MOL0     C 7741   9.329   4.893   9.892 -0.1323 -0.9382  0.4893
   57MOL0     C 7742   9.249   5.029   9.896 -0.5694  0.0741  0.1663
   57MOL0     C 7743   9.091   5.016   9.884 -0.0541  0.5543 -0.1540
   57MOL0     C 7744   9.041   4.971   9.752  0.5668 -0.3776  0.2978
   57MOL0     N 7745   8.900   4.938   9.766 -0.5476 -0.3414 -0.1552
   57MOL0     C 7746   8.796   5.025   9.766  0.2003  0.4381 -0.3757
   57MOL0     C 7747   8.693   4.939   9.771  0.0557  0.7042  0.3630
   57MOL0     C 7748   8.539   4.976   9.765  0.1990 -0.1888  0.6304
   57MOL0     C 7749   8.481   4.907   9.640 -0.4381 -0.3917 -0.1992
   57MOL0     C 7750   8.348   4.969   9.605 -0.8529 -0.0211 -1.3432
   57MOL0     C 7751   8.254   4.905   9.497 -0.5306  0.3624  0.1925
   57MOL0     O 7752   8.255   4.763   9.526  0.3636  0.0821  0.5804
   57MOL0     C 7753   8.169   4.700   9.617  0.7827 -1.1069 -0.9131
   57MOL0     C 7754   8.102   4.776   9.719 -0.1633  0.3274  0.8224
   57MOL0     C 7755   8.003   4.713   9.800  0.3789 -0.1753  0.6073
   57MOL0     C 7756   7.934   4.809   9.884  0.1388  0.0619 -0.5533
   57MOL0     C 7757   7.980   4.577   9.788  0.6796 -0.1164  0.3003
   57MOL0     C 7758   7.886   4.514   9.881  0.0080  0.2098 -0.1240
   57MOL0     O 7759   7.893   4.551  10.010 -0.0895  0.0490  0.1572
   57MOL0     C 7760   7.819   4.488  10.106  0.0071 -0.1302  0.0136
   57MOL0     C 7761   7.709   4.556  10.162 -0.3887 -0.3637 -0.5007
   57MOL0     C 7762   7.636   4.496  10.261 -0.4540 -0.2258 -0.5538
   57MOL0     C 7763   7.663   4.364  10.300 -0.4590 -0.3086 -0.3353
   57MOL0     O 7764   7.595   4.299  10.403  0.1311 -0.2692 -0.0778
   57MOL0     C 7765   7.526   4.377  10.499 -0.0154 -0.5586  0.4166
   57MOL0     C 7766   7.620   4.453  10.580 -0.3682  0.2614  0.3424
   57MOL0     C 7767   7.685   4.363  10.681  0.3103 -0.2105  0.2899
   57MOL0     C 7768   7.762   4.445  10.784  0.2891  1.4338 -0.5069
   57MOL0     C 7769   7.883   4.361  10.841 -0.1771  1.4220 -0.6049
   57MOL0     C 7770   7.834   4.245  10.923  0.3027 -0.6043  0.1409
   57MOL0     C 7771   7.959   4.175  10.974  0.0895  0.5813  0.7710
   57MOL0     C 7772   7.924   4.056  11.072 -0.1634  0.0198  0.0733
   57MOL0    Cl 7773   7.828   4.117  11.207  0.1234 -0.0212 -0.3337
   57MOL0     C 7774   7.769   4.293  10.236 -0.4103  0.3717 -0.5214
   57MOL0     C 7775   7.850   4.354  10.135  0.8947 -0.8748 -0.0966
   57MOL0     O 7776   7.821   4.426   9.833  0.0996 -0.2978 -0.5549
   57MOL0     C 7777   8.053   4.501   9.695  0.3408 -0.6995 -0.2278
   57MOL0     C 7778   8.141   4.563   9.605  0.1775 -0.4005  0.7593
   57MOL0     N 7779   8.743   4.807   9.797  0.4919 -0.1353 -0.0679
   57MOL0     N 7780   8.864   4.810   9.787  0.5027 -0.1190  0.8768
   57MOL0     C 7781   9.184   4.441  10.346 -0.9584  0.3718 -0.4570
   57MOL0     C 7782   9.085   4.336  10.347 -0.2220  1.3826 -0.5328
   57MOL0     C 7783   8.908   3.893  10.374  0.1160  0.9767  0.3844
   57MOL0     C 7784   8.946   3.758  10.418  0.7269 -0.3724 -0.1682
   57MOL0     C 7785   8.853   3.662  10.454  0.0507  0.1329  0.2232
   57MOL0     C 7786   8.717   3.690  10.439  0.3434  0.2847  0.0693
   57MOL0     O 7787   8.629   3.581  10.460  0.0992  0.8072 -0.3398
   57MOL0     C 7788   8.489   3.600  10.463 -0.0976  0.5352  0.1861
   57MOL0     C 7789   8.442   3.582  10.314  0.4885  0.4998 -0.7953
   57MOL0     C 7790   8.301   3.631  10.306  1.2779 -0.6871  0.2773
   57MOL0     C 7791   8.208   3.536  10.379 -0.5769  0.5214 -1.1995
   57MOL0     C 7792   8.070   3.571  10.368 -0.3142 -0.7347  0.4605
   57MOL0     C 7793   7.952   3.589  10.358  0.3815  0.0384 -0.5247
   57MOL0     C 7794   8.681   3.824  10.414  0.9262 -0.0770  0.2718
   57MOL0     C 7795   8.771   3.919  10.365 -1.7404  0.2907 -0.4433
   57MOL0     C 7796   8.719   4.058  10.360  0.3185  0.1333 -0.4637
   57MOL0     H 7797   9.266   4.078  10.227  1.0458  0.8102 -1.4074
   57MOL0     H 7798   9.438   4.258  10.209  2.3619 -1.2397  2.8104
   57MOL0     H 7799   9.428   4.674  10.382 -1.0729 -0.5599  0.6624
   57MOL0     H 7800   9.296   4.683  10.260  1.3368  1.7843 -2.3193
   57MOL0     H 7801   9.520   4.811  10.223 -2.7275  0.3949  2.3725
   57MOL0     H 7802   9.588   4.650  10.179 -0.5121  0.5733 -1.8623
   57MOL0     H 7803   9.529   4.732   9.961 -1.1849 -2.2750 -1.1494
   57MOL0     H 7804   9.400   4.624  10.021  1.8050 -1.5166  2.2736
   57MOL0     H 7805   9.247   4.800  10.044 -1.3539  0.1206 -2.1651
   57MOL0     H 7806   9.380   4.907  10.104 -1.4521  0.2938  0.1237
   57MOL0     H 7807   9.284   4.812   9.833 -3.2171  1.1695 -0.3053
   57MOL0     H 7808   9.429   4.914   9.853 -0.7920 -0.8787 -1.2189
   57MOL0     H 7809   9.281   5.089   9.982 -0.6648  1.5655 -0.7900
   57MOL0     H 7810   9.287   5.090   9.813  0.8759 -0.9615  0.0299
   57MOL0     H 7811   9.053   5.115   9.909 -0.9912 -0.4578  2.7827
   57MOL0     H 7812   9.046   4.945   9.953 -0.2556 -0.3608 -1.2007
   57MOL0     H 7813   9.064   5.042   9.672  1.8995 -2.1589 -1.0174
   57MOL0     H 7814   9.095   4.884   9.714  0.1348 -1.1961  1.5089
   57MOL0     H 7815   8.798   5.133   9.753  2.6970  1.2820  4.5757
   57MOL0     H 7816   8.537   5.083   9.745  2.6791 -0.1075  0.4905
   57MOL0     H 7817   8.495   4.946   9.860 -3.6234  1.3391 -0.4875
   57MOL0     H 7818   8.550   4.917   9.555  0.1481 -0.6080  0.2405
   57MOL0     H 7819   8.467   4.801   9.660 -0.7636 -0.5340 -1.0993
   57MOL0     H 7820   8.294   4.968   9.700  1.9639 -1.2051  0.3879
   57MOL0     H 7821   8.360   5.074   9.576  0.1449 -0.1829 -1.5359
   57MOL0     H 7822   8.153   4.946   9.498 -0.7644 -0.2012  0.0321
   57MOL0     H 7823   8.301   4.914   9.399  1.7665 -1.3748  1.0356
   57MOL0     H 7824   8.108   4.884   9.717 -0.3401  0.3774  2.1976
   57MOL0     H 7825   7.826   4.802   9.867  0.2895  0.8675 -2.0016
   57MOL0     H 7826   7.950   4.913   9.856 -0.4525  0.5379  0.7995
   57MOL0     H 7827   7.968   4.796   9.987 -1.1219 -1.8940 -0.3277
   57MOL0     H 7828   7.696   4.660  10.135 -1.8889 -0.0343  1.2457
   57MOL0     H 7829   7.570   4.565  10.312 -0.5869 -1.7080  1.3537
   57MOL0     H 7830   7.461   4.451  10.451 -0.6852 -0.9804  0.6713
   57MOL0     H 7831   7.459   4.314  10.557 -0.6156 -2.4650 -2.1769
   57MOL0     H 7832   7.688   4.517  10.523 -0.1802 -1.0044 -0.9282
   57MOL0     H 7833   7.551   4.518  10.633 -1.4315 -1.1248  0.7078
   57MOL0     H 7834   7.757   4.314  10.615 -0.8401  0.2675 -1.3922
   57MOL0     H 7835   7.611   4.292  10.719  0.7604 -0.1426  1.3219
   57MOL0     H 7836   7.689   4.461  10.864  0.1752 -0.4833 -0.1899
   57MOL0     H 7837   7.798   4.539  10.741  2.0491  1.3737  0.7159
   57MOL0     H 7838   7.953   4.335  10.762 -0.4905  3.1655 -1.5253
   57MOL0     H 7839   7.936   4.431  10.907 -2.8913  2.7951  0.2950
   57MOL0     H 7840   7.770   4.181  10.861 -0.0958 -2.0929  1.9889
   57MOL0     H 7841   7.783   4.279  11.013  2.1291 -4.6984  3.0520
   57MOL0     H 7842   8.029   4.244  11.023 -0.1424  2.5327 -1.4811
   57MOL0     H 7843   8.002   4.127  10.885  0.0145 -1.2065  1.6453
   57MOL0     H 7844   8.015   4.015  11.116 -0.5144 -2.2534 -1.1552
   57MOL0     H 7845   7.868   3.982  11.013 -0.0615 -0.7741  0.9510
   57MOL0     H 7846   7.780   4.188  10.264  3.5639  0.5162 -0.9821
   57MOL0     H 7847   7.930   4.309  10.077  2.3957  2.8041 -1.2116
   57MOL0     H 7848   8.048   4.393   9.690 -1.9820 -0.5751 -2.2733
   57MOL0     H 7849   8.196   4.500   9.536 -1.2374  1.4263 -2.2402
   57MOL0     H 7850   9.158   4.533  10.396  2.3417  1.5312 -0.6872
   57MOL0     H 7851   8.985   4.354  10.387 -0.8604 -0.8139 -0.9817
   57MOL0     H 7852   9.047   3.718  10.418 -0.3842 -3.4319 -0.3142
   57MOL0     H 7853   8.888   3.564  10.482  0.6511 -0.0181 -0.9929
   57MOL0     H 7854   8.439   3.533  10.534 -1.8944  1.7554  0.1358
   57MOL0     H 7855   8.461   3.703  10.487  0.5895  0.4392  1.4810
   57MOL0     H 7856   8.452   3.476  10.291  1.7291  0.2493  0.7145
   57MOL0     H 7857   8.498   3.646  10.245 -1.7089  0.2008 -3.0050
   57MOL0     H 7858   8.305   3.734  10.343 -0.9357 -1.0727  1.7913
   57MOL0     H 7859   8.265   3.634  10.203 -0.6274 -3.5056  0.7584
   57MOL0     H 7860   8.237   3.546  10.484  0.8685  1.1646 -1.6378
   57MOL0     H 7861   8.223   3.433  10.345 -2.2421 -0.2578  0.2683
   57MOL0     H 7862   7.853   3.627  10.347  0.6219  0.6717 -0.6026
   57MOL0     H 7863   8.576   3.850  10.402  0.9305  0.2753  0.9467
   57MOL0     H 7864   8.634   4.070  10.427  1.9438  0.3046  1.6529
   57MOL0     H 7865   8.788   4.137  10.392 -1.9216  1.2410  1.9533
   57MOL0     H 7866   8.684   4.081  10.258  1.8068 -1.4753 -1.3897
   58MOL0     O 7867  10.829   7.754  11.308 -0.2420 -0.4988  0.4151
   58MOL0     C 7868  10.806   7.782  11.427  0.6430  0.7076  0.3227
   58MOL0     O 7869  10.897   7.849  11.514  0.5152  0.2839  0.9217
   58MOL0     C 7870  11.022   7.884  11.467 -0.3830 -0.6316 -0.1694
   58MOL0     C 7871  11.131   7.818  11.514  0.2716  0.4653 -0.2367
   58MOL0     C 7872  11.261   7.839  11.478 -0.1622 -0.0289 -0.3421
   58MOL0     C 7873  11.291   7.942  11.394  0.0710 -0.4001  0.2523
   58MOL0     O 7874  11.425   7.965  11.377  0.5512 -0.7125  0.3879
   58MOL0     C 7875  11.468   8.075  11.292 -0.0090 -0.3121 -0.9994
   58MOL0     C 7876  11.508   8.194  11.380 -0.0826  0.2452  0.6375
   58MOL0     C 7877  11.574   8.295  11.294  0.6620  0.3944  0.3443
   58MOL0     C 7878  11.628   8.405  11.394  0.2961  0.7056 -0.0025
   58MOL0     C 7879  11.681   8.526  11.327  0.0953 -0.4809 -0.2968
   58MOL0     C 7880  11.732   8.625  11.429 -0.1347  1.1891  0.4938
   58MOL0     C 7881  11.874   8.589  11.480  0.3327 -0.3354 -0.7765
   58MOL0     C 7882  11.982   8.620  11.376 -0.3928 -0.2901  0.5691
   58MOL0     N 7883  12.120   8.585  11.429 -0.5905  0.3377  0.1110
   58MOL0     C 7884  12.195   8.472  11.415 -0.2332  0.4546  0.2866
   58MOL0     C 7885  12.321   8.504  11.456 -0.2598 -0.7465  0.4152
   58MOL0     C 7886  12.447   8.426  11.452  0.5773  0.5687  0.2594
   58MOL0     C 7887  12.518   8.422  11.318  1.0541 -0.9078 -0.3847
   58MOL0     C 7888  12.446   8.348  11.217  0.3180 -0.2964  0.0595
   58MOL0     C 7889  12.508   8.356  11.076  0.7654 -0.0178  0.1850
   58MOL0     O 7890  12.452   8.471  11.017 -1.1153 -0.3111 -0.1921
   58MOL0     C 7891  12.547   8.561  10.968 -0.2719 -0.4415 -0.1695
   58MOL0     C 7892  12.684   8.568  11.012 -0.1228  0.0445 -0.4821
   58MOL0     C 7893  12.765   8.673  10.962  0.0789  0.2671  0.4719
   58MOL0     C 7894  12.902   8.680  11.031 -0.2274  0.0365 -0.5995
   58MOL0     C 7895  12.713   8.762  10.869  0.3053  0.2668  0.8871
   58MOL0     C 7896  12.796   8.861  10.800 -1.1968  0.3691 -0.3601
   58MOL0     O 7897  12.897   8.931  10.865  0.0696 -0.0649 -0.3244
   58MOL0     C 7898  13.008   8.987  10.804  0.5701 -0.0063 -0.3341
   58MOL0     C 7899  13.056   9.106  10.854 -1.0306  0.8475  0.3507
   58MOL0     C 7900  13.183   9.148  10.803  0.5712  0.4352 -0.2481
   58MOL0     C 7901  13.260   9.073  10.717  0.3445 -0.0379  0.4260
   58MOL0     O 7902  13.391   9.101  10.682 -0.0608 -0.1943 -0.1986
   58MOL0     C 7903  13.455   9.218  10.723 -0.6178 -0.0272  0.0028
   58MOL0     C 7904  13.586   9.240  10.644  0.5038  0.1296 -0.2724
   58MOL0     C 7905  13.666   9.344  10.724 -0.1395  0.0036 -0.0179
   58MOL0     C 7906  13.809   9.364  10.662  1.2949  0.1969 -0.5120
   58MOL0     C 7907  13.909   9.438  10.747 -0.4654 -0.0511  0.4035
   58MOL0     C 7908  14.030   9.455  10.649  0.0653 -0.3954 -0.6276
   58MOL0     C 7909  14.146   9.499  10.732  0.5181 -0.1875  0.5587
   58MOL0     C 7910  14.268   9.510  10.643 -0.5769  0.2006  0.3716
   58MOL0    Cl 7911  14.411   9.524  10.754 -0.0178 -0.1477  0.1587
   58MOL0     C 7912  13.203   8.963  10.663 -0.1986 -0.1057 -0.0358
   58MOL0     C 7913  13.075   8.917  10.697  0.0391 -0.0438  0.2500
   58MOL0     O 7914  12.766   8.877  10.681 -0.5069 -0.2819 -0.4730
   58MOL0     C 7915  12.577   8.753  10.828  0.5638 -0.3738 -0.1100
   58MOL0     C 7916  12.500   8.648  10.862 -0.1566  0.1899  0.4535
   58MOL0     N 7917  12.318   8.629  11.512 -0.2789 -0.1049 -0.3359
   58MOL0     N 7918  12.201   8.681  11.485 -0.1999 -0.0189 -0.2662
   58MOL0     C 7919  11.183   8.022  11.346  0.2179 -0.3775 -0.3935
   58MOL0     C 7920  11.046   7.990  11.380 -1.4330  0.5594  0.0047
   58MOL0     C 7921  10.684   7.739  11.485 -0.1238 -0.6284  0.2426
   58MOL0     C 7922  10.692   7.664  11.605  0.4976  1.0152  0.2474
   58MOL0     C 7923  10.578   7.611  11.667  0.4555 -0.0327  0.1374
   58MOL0     C 7924  10.450   7.647  11.607 -1.0279  0.4007 -0.4210
   58MOL0     O 7925  10.342   7.605  11.680  0.2275 -0.4100 -0.0163
   58MOL0     C 7926  10.214   7.638  11.627  0.8728  0.3457  0.2426
   58MOL0     C 7927  10.110   7.581  11.723  0.4870 -0.6384 -0.1020
   58MOL0     C 7928   9.958   7.624  11.677  0.1372  0.3658  0.2414
   58MOL0     C 7929   9.883   7.641  11.811  0.1200  0.4404  0.4005
   58MOL0     C 7930   9.740   7.667  11.793 -0.3628 -0.5119  0.2594
   58MOL0     C 7931   9.621   7.679  11.779 -0.6953 -0.0845 -0.6321
   58MOL0     C 7932  10.447   7.722  11.493 -0.4334  0.0129  0.3178
   58MOL0     C 7933  10.561   7.774  11.430  0.4801 -0.2805 -0.7973
   58MOL0     C 7934  10.545   7.873  11.312  0.0120  0.2957  0.4194
   58MOL0     H 7935  11.110   7.733  11.578 -1.8144 -1.1305 -2.8282
   58MOL0     H 7936  11.351   7.794  11.517 -0.9817 -2.6063 -1.2435
   58MOL0     H 7937  11.395   8.104  11.216  0.5041 -1.4258 -1.9463
   58MOL0     H 7938  11.561   8.041  11.244  2.2346 -1.1425  3.4154
   58MOL0     H 7939  11.425   8.241  11.434  1.8580  2.2938  2.0234
   58MOL0     H 7940  11.570   8.155  11.461  0.1872 -4.5611 -1.5599
   58MOL0     H 7941  11.656   8.252  11.236  2.3568 -0.0355  2.8842
   58MOL0     H 7942  11.500   8.347  11.232  0.3656 -1.1967 -0.6924
   58MOL0     H 7943  11.552   8.440  11.465 -0.4886  0.7600 -0.8443
   58MOL0     H 7944  11.702   8.351  11.453 -0.7387 -0.8547 -0.0695
   58MOL0     H 7945  11.597   8.566  11.269 -0.9545 -2.7936 -0.4777
   58MOL0     H 7946  11.751   8.478  11.258 -0.3007 -1.8578  0.2437
   58MOL0     H 7947  11.728   8.719  11.373 -3.6691  1.8318  1.5600
   58MOL0     H 7948  11.660   8.633  11.512 -0.5483 -0.0604  0.2795
   58MOL0     H 7949  11.879   8.480  11.494  3.0579 -0.4895 -2.2839
   58MOL0     H 7950  11.903   8.623  11.580 -2.6509 -0.7934  0.3565
   58MOL0     H 7951  11.968   8.563  11.284 -0.1667 -0.2780  0.5260
   58MOL0     H 7952  11.981   8.727  11.357 -0.1634 -0.1325  1.3986
   58MOL0     H 7953  12.157   8.378  11.377 -1.4092  1.2082 -0.4681
   58MOL0     H 7954  12.427   8.323  11.483  2.6469 -0.3191 -1.0682
   58MOL0     H 7955  12.513   8.450  11.536 -1.1793 -2.2407  2.6490
   58MOL0     H 7956  12.527   8.526  11.287  1.2876 -0.6939  0.3719
   58MOL0     H 7957  12.612   8.367  11.328  2.3596  1.4981  2.0730
   58MOL0     H 7958  12.442   8.243  11.246  0.8375 -0.9643 -2.0862
   58MOL0     H 7959  12.346   8.391  11.209 -0.5371 -2.4430 -1.6936
   58MOL0     H 7960  12.615   8.337  11.077  0.8940  0.5639  2.3595
   58MOL0     H 7961  12.470   8.263  11.033  0.2609  0.7014 -1.0016
   58MOL0     H 7962  12.735   8.512  11.090  0.3962 -3.6144 -3.1761
   58MOL0     H 7963  12.893   8.709  11.136  0.7493 -2.0896  0.1338
   58MOL0     H 7964  12.968   8.754  10.985  2.2626 -0.7483  1.4936
   58MOL0     H 7965  12.953   8.583  11.024  2.2486  1.2949 -1.1384
   58MOL0     H 7966  13.010   9.146  10.943  2.0775  0.9573  2.0355
   58MOL0     H 7967  13.234   9.236  10.841  2.5045 -0.7440  0.0322
   58MOL0     H 7968  13.383   9.301  10.721 -0.1907  0.4688  2.0450
   58MOL0     H 7969  13.483   9.210  10.829 -0.0119 -0.3639 -0.1807
   58MOL0     H 7970  13.651   9.153  10.634 -1.0185 -1.9176  4.6271
   58MOL0     H 7971  13.546   9.282  10.551  0.5683  3.0179  0.8874
   58MOL0     H 7972  13.668   9.310  10.828 -0.8016  1.0491  0.3555
   58MOL0     H 7973  13.611   9.439  10.721 -2.2063 -1.1397  0.1045
   58MOL0     H 7974  13.809   9.415  10.565  1.3575  0.3978 -0.4074
   58MOL0     H 7975  13.849   9.263  10.655  1.1490 -0.0306  1.3749
   58MOL0     H 7976  13.878   9.536  10.784 -2.0562 -0.5215  0.4073
   58MOL0     H 7977  13.932   9.376  10.834 -1.0625  0.0377  0.6276
   58MOL0     H 7978  13.991   9.529  10.579  1.6089  0.3271 -0.7569
   58MOL0     H 7979  14.059   9.367  10.590 -1.3812 -0.7595 -0.8249
   58MOL0     H 7980  14.161   9.421  10.807 -3.3444 -1.5900  0.0909
   58MOL0     H 7981  14.128   9.595  10.781 -1.4341  0.7607 -1.8017
   58MOL0     H 7982  14.269   9.599  10.579  3.0637  0.1671  0.1852
   58MOL0     H 7983  14.287   9.426  10.574  1.3072 -2.3754  3.7176
   58MOL0     H 7984  13.264   8.902  10.598  0.1062 -0.3172  0.4399
   58MOL0     H 7985  13.023   8.834  10.650  2.0303 -1.1518 -0.0985
   58MOL0     H 7986  12.533   8.828  10.764 -2.4276 -1.0133  1.0563
   58MOL0     H 7987  12.399   8.638  10.823  1.1629 -1.9434 -2.8207
   58MOL0     H 7988  11.196   8.116  11.291 -0.2461  0.7794  1.3960
   58MOL0     H 7989  10.963   8.048  11.343 -2.5482 -0.6057  0.5863
   58MOL0     H 7990  10.788   7.667  11.656  1.3852  1.9107 -1.3975
   58MOL0     H 7991  10.583   7.555  11.761  4.4173 -3.9452 -2.0365
   58MOL0     H 7992  10.193   7.745  11.627  0.7914  0.3850 -2.6376
   58MOL0     H 7993  10.199   7.593  11.529  1.1901 -2.0116  1.2049
   58MOL0     H 7994  10.132   7.620  11.823  2.8370  0.0702 -0.8362
   58MOL0     H 7995  10.116   7.472  11.730  0.7956 -0.5689  0.8061
   58MOL0     H 7996   9.961   7.712  11.613  2.0392  0.2413  0.0962
   58MOL0     H 7997   9.907   7.546  11.620  1.4819 -2.5006  2.6904
   58MOL0     H 7998   9.919   7.725  11.871 -1.4567  1.7775 -0.4339
   58MOL0     H 7999   9.891   7.553  11.875 -2.4902  1.1505  1.8462
   58MOL0     H 8000   9.521   7.703  11.748 -2.0731  0.0917  3.4250
   58MOL0     H 8001  10.353   7.737  11.441 -0.1638 -2.4462 -1.0405
   58MOL0     H 8002  10.580   7.970  11.349  2.7606 -0.1464 -0.7814
   58MOL0     H 8003  10.606   7.837  11.229 -0.7914 -1.4965  0.5530
   58MOL0     H 8004  10.441   7.891  11.282 -0.9756 -0.1445  3.3163
   59MOL0     O 8005  10.217   1.256   3.802 -0.7900 -0.3798 -0.3216
   59MOL0     C 8006  10.153   1.360   3.812  0.0086  0.6903  0.7631
   59MOL0     O 8007  10.195   1.473   3.866 -0.4285 -0.6079 -0.4321
   59MOL0     C 8008  10.312   1.478   3.936 -0.3412 -0.6086 -0.1609
   59MOL0     C 8009  10.441   1.469   3.881  0.6244  0.0716  0.6645
   59MOL0     C 8010  10.556   1.481   3.962 -0.1456  0.9101  0.3626
   59MOL0     C 8011  10.546   1.484   4.106 -0.2294 -0.2316  0.2982
   59MOL0     O 8012  10.651   1.468   4.193 -0.2109  0.1743 -0.2630
   59MOL0     C 8013  10.727   1.347   4.171 -0.2677 -1.3349  0.1922
   59MOL0     C 8014  10.831   1.331   4.283  0.0221  0.7201 -0.0013
   59MOL0     C 8015  10.963   1.404   4.269 -0.2145  0.0010  0.3770
   59MOL0     C 8016  11.047   1.360   4.139  0.3817 -0.4800 -0.2054
   59MOL0     C 8017  11.196   1.376   4.146  0.4056 -0.4111 -0.0663
   59MOL0     C 8018  11.257   1.513   4.111  0.4716 -0.6571 -0.0842
   59MOL0     C 8019  11.412   1.521   4.130 -0.9790 -0.3715  0.0354
   59MOL0     C 8020  11.467   1.650   4.062  0.0517  0.0951 -0.4473
   59MOL0     N 8021  11.614   1.661   4.103 -0.1653  0.6768  1.0004
   59MOL0     C 8022  11.721   1.578   4.058  0.3552 -0.6751  0.4153
   59MOL0     C 8023  11.827   1.607   4.141  0.1545  0.0750 -0.1447
   59MOL0     C 8024  11.964   1.545   4.124  0.3068 -0.1645 -0.0106
   59MOL0     C 8025  12.016   1.487   4.256 -0.0032 -0.2630  0.4809
   59MOL0     C 8026  12.162   1.433   4.246  0.1082 -1.2396 -0.4759
   59MOL0     C 8027  12.216   1.393   4.386 -0.1595 -0.9076  0.3853
   59MOL0     O 8028  12.346   1.329   4.388  0.7628  0.4891 -0.1874
   59MOL0     C 8029  12.462   1.399   4.361  0.2323  0.1098  1.1423
   59MOL0     C 8030  12.478   1.534   4.319  0.3034 -0.3044 -0.0877
   59MOL0     C 8031  12.602   1.599   4.283  0.2095  0.5416 -0.8173
   59MOL0     C 8032  12.600   1.742   4.241 -0.1620  0.1767 -0.2978
   59MOL0     C 8033  12.725   1.522   4.297  0.2319 -0.8810  0.1317
   59MOL0     C 8034  12.862   1.585   4.296  0.1802  0.4835  0.2492
   59MOL0     O 8035  12.967   1.501   4.273 -0.7962 -0.5418 -0.4128
   59MOL0     C 8036  13.094   1.560   4.266  0.4851 -1.3703  0.0589
   59MOL0     C 8037  13.176   1.562   4.150 -1.1139 -0.5043  1.2864
   59MOL0     C 8038  13.310   1.609   4.156  0.1439 -0.0544 -0.4361
   59MOL0     C 8039  13.356   1.677   4.272 -0.0928 -0.6048  1.0312
   59MOL0     O 8040  13.480   1.736   4.276 -0.1624  0.0982 -0.1317
   59MOL0     C 8041  13.486   1.870   4.332 -0.0051 -0.4911  0.3142
   59MOL0     C 8042  13.601   1.944   4.273  0.6835 -0.1292  0.8626
   59MOL0     C 8043  13.728   1.879   4.313  0.1289  0.0929 -0.1741
   59MOL0     C 8044  13.839   1.979   4.277 -0.2749  1.0889 -0.0081
   59MOL0     C 8045  13.882   1.975   4.130 -0.5474  0.2742  0.8254
   59MOL0     C 8046  13.990   2.081   4.086  1.0171  0.3751 -0.4390
   59MOL0     C 8047  14.130   2.042   4.142  0.4681 -0.9054  0.1079
   59MOL0     C 8048  14.248   2.094   4.051 -0.8459 -0.8723 -0.0199
   59MOL0    Cl 8049  14.248   2.039   3.878 -0.0768  0.1313 -0.2076
   59MOL0     C 8050  13.273   1.665   4.388  0.1117  0.2521 -0.1823
   59MOL0     C 8051  13.147   1.614   4.387  0.4136  0.0264  0.4948
   59MOL0     O 8052  12.871   1.704   4.318 -0.1517  0.3878 -0.6880
   59MOL0     C 8053  12.706   1.380   4.315  0.0960  0.2541  0.1958
   59MOL0     C 8054  12.583   1.318   4.345  0.2257  0.1802  0.3990
   59MOL0     N 8055  11.785   1.718   4.225  0.8972  0.0885 -0.5559
   59MOL0     N 8056  11.663   1.752   4.194  0.4575 -0.5849 -0.0489
   59MOL0     C 8057  10.419   1.501   4.164 -0.1790  0.2346 -0.1439
   59MOL0     C 8058  10.310   1.488   4.081 -0.0247 -0.4791 -0.4682
   59MOL0     C 8059  10.013   1.356   3.748 -1.4361 -0.0056  0.0820
   59MOL0     C 8060   9.988   1.275   3.635 -0.4351 -0.4268 -0.0496
   59MOL0     C 8061   9.866   1.272   3.567  0.3604  0.2900  0.0913
   59MOL0     C 8062   9.755   1.345   3.623 -0.8636 -0.0790 -0.3229
   59MOL0     O 8063   9.624   1.331   3.582 -0.9102 -0.4151  0.0036
   59MOL0     C 8064   9.584   1.240   3.473  0.1239  0.1892 -0.2820
   59MOL0     C 8065   9.435   1.262   3.447  0.0382 -0.8208 -0.0508
   59MOL0     C 8066   9.400   1.396   3.377 -0.2780 -0.1403 -0.6903
   59MOL0     C 8067   9.257   1.422   3.388  0.6745  0.9100 -0.6856
   59MOL0     C 8068   9.238   1.563   3.362 -0.1233  0.1398  0.2125
   59MOL0     C 8069   9.247   1.681   3.329 -0.2145  0.3821  0.1787
   59MOL0     C 8070   9.776   1.424   3.732 -1.0566 -0.0939  0.0372
   59MOL0     C 8071   9.903   1.433   3.794 -0.5832  0.3158 -0.7676
   59MOL0     C 8072   9.912   1.516   3.922 -0.0741 -0.1739  0.7377
   59MOL0     H 8073  10.436   1.467   3.773 -1.7900 -1.3134  0.7446
   59MOL0     H 8074  10.645   1.470   3.902 -0.9778 -0.5961 -0.6517
   59MOL0     H 8075  10.780   1.346   4.076 -0.9084 -0.2741 -0.2045
   59MOL0     H 8076  10.656   1.264   4.169 -0.9743 -0.7425 -0.4638
   59MOL0     H 8077  10.786   1.339   4.382 -0.2417  0.9344 -0.1387
   59MOL0     H 8078  10.848   1.223   4.281 -1.2818  0.5080 -0.6901
   59MOL0     H 8079  10.935   1.510   4.272 -1.1949 -0.2646  0.9749
   59MOL0     H 8080  11.025   1.379   4.355 -1.6867  1.0523  1.7932
   59MOL0     H 8081  11.021   1.256   4.117  2.1470 -1.2616  1.1495
   59MOL0     H 8082  11.009   1.420   4.056  0.0059  3.4666  2.4964
   59MOL0     H 8083  11.239   1.309   4.071  1.6727 -0.3529  0.5750
   59MOL0     H 8084  11.224   1.327   4.240  0.7285 -1.4635 -0.6874
   59MOL0     H 8085  11.228   1.534   4.008  0.0292 -1.7544 -0.1973
   59MOL0     H 8086  11.224   1.589   4.182 -2.8354 -3.7458  2.0836
   59MOL0     H 8087  11.448   1.437   4.070 -0.5269  1.3795 -2.3289
   59MOL0     H 8088  11.440   1.509   4.234  0.6141  1.5174 -0.1260
   59MOL0     H 8089  11.459   1.657   3.953 -0.4623 -0.5420 -0.4590
   59MOL0     H 8090  11.410   1.736   4.098 -0.0179  0.1700 -0.7336
   59MOL0     H 8091  11.737   1.508   3.977  1.7020 -3.1396  2.6257
   59MOL0     H 8092  12.031   1.626   4.095  0.3756 -0.2190 -0.0022
   59MOL0     H 8093  11.941   1.472   4.047 -1.1096  1.3441 -1.0926
   59MOL0     H 8094  11.993   1.553   4.340  0.6728  1.8992 -0.9445
   59MOL0     H 8095  11.949   1.403   4.274  1.5691 -1.7953 -0.4996
   59MOL0     H 8096  12.164   1.344   4.182  2.7964 -3.6148  2.5784
   59MOL0     H 8097  12.230   1.512   4.215  2.0321 -2.5299  0.3155
   59MOL0     H 8098  12.213   1.484   4.445 -1.7751 -0.0912 -0.8712
   59MOL0     H 8099  12.155   1.318   4.437  0.6589 -0.9146  1.3770
   59MOL0     H 8100  12.395   1.604   4.323  0.3866 -0.0427 -2.0184
   59MOL0     H 8101  12.630   1.805   4.326  2.6368 -1.6587  0.1963
   59MOL0     H 8102  12.502   1.774   4.204 -0.7474 -1.3854 -0.1373
   59MOL0     H 8103  12.664   1.767   4.156  1.1673  2.5275  1.2671
   59MOL0     H 8104  13.138   1.524   4.056 -0.2129 -0.7719  1.0150
   59MOL0     H 8105  13.380   1.612   4.072  1.8127 -0.2519  0.8941
   59MOL0     H 8106  13.401   1.937   4.315  1.8164  1.4026 -1.8589
   59MOL0     H 8107  13.496   1.862   4.441 -0.5240 -0.1076  0.3955
   59MOL0     H 8108  13.582   1.957   4.166 -0.0036  1.3105  1.1288
   59MOL0     H 8109  13.597   2.046   4.313  1.2297  0.3342 -0.2031
   59MOL0     H 8110  13.752   1.787   4.259  1.6253  0.8068 -0.7683
   59MOL0     H 8111  13.722   1.862   4.421  0.6857  1.2917  0.0673
   59MOL0     H 8112  13.928   1.954   4.336  0.7022  5.2907  0.6137
   59MOL0     H 8113  13.807   2.078   4.310 -1.7772  0.5156  0.3156
   59MOL0     H 8114  13.930   1.877   4.119  0.1495  0.6519  0.4488
   59MOL0     H 8115  13.800   1.970   4.058  1.2201  2.0759 -1.4521
   59MOL0     H 8116  13.959   2.184   4.106  1.8449  0.9972 -2.1597
   59MOL0     H 8117  13.996   2.060   3.979  0.1319 -3.4749  0.1236
   59MOL0     H 8118  14.138   1.934   4.155  1.6876 -0.8677 -0.1598
   59MOL0     H 8119  14.142   2.079   4.245 -0.5692  0.5272 -0.2461
   59MOL0     H 8120  14.340   2.077   4.106  0.9169  2.8782 -1.4430
   59MOL0     H 8121  14.246   2.203   4.051  0.0022 -0.8466 -0.4599
   59MOL0     H 8122  13.318   1.705   4.478 -1.0977  2.0626 -0.3097
   59MOL0     H 8123  13.081   1.612   4.474 -1.1203 -3.4094 -0.5394
   59MOL0     H 8124  12.800   1.329   4.296  2.2797  3.5394  1.2809
   59MOL0     H 8125  12.580   1.212   4.367  2.1755  0.1240  0.5756
   59MOL0     H 8126  10.407   1.501   4.272  1.5719  1.2298  0.1017
   59MOL0     H 8127  10.210   1.464   4.115 -0.1918 -3.2510 -2.4817
   59MOL0     H 8128  10.068   1.221   3.585  0.2568  0.7114 -0.2197
   59MOL0     H 8129   9.851   1.207   3.482 -0.9539 -0.2976  0.7571
   59MOL0     H 8130   9.645   1.256   3.384  2.6563 -0.7393  1.1785
   59MOL0     H 8131   9.601   1.136   3.500  1.0137  0.5793  0.7289
   59MOL0     H 8132   9.372   1.256   3.536  0.9705  1.3824  0.8050
   59MOL0     H 8133   9.405   1.184   3.376  0.0932  0.4753 -1.5452
   59MOL0     H 8134   9.451   1.479   3.426 -0.4781  1.6260 -3.2671
   59MOL0     H 8135   9.438   1.401   3.274  0.0914  0.7289 -0.5155
   59MOL0     H 8136   9.219   1.403   3.488  0.9038 -4.1401 -1.2918
   59MOL0     H 8137   9.194   1.373   3.313 -1.6542  3.0927 -0.2801
   59MOL0     H 8138   9.240   1.788   3.322  0.3140  0.3583 -0.8195
   59MOL0     H 8139   9.693   1.487   3.763 -0.6627  1.0497 -1.1749
   59MOL0     H 8140   9.958   1.613   3.900 -0.8068  0.7391  2.9325
   59MOL0     H 8141   9.809   1.530   3.959 -1.2834 -0.9439 -2.0678
   59MOL0     H 8142   9.971   1.475   4.004  0.6365 -0.3353  0.1552
   60MOL0     O 8143   3.936   8.760   3.746  0.8800  0.5770  0.4589
   60MOL0     C 8144   3.901   8.812   3.853 -0.2126  0.1601 -0.3275
   60MOL0     O 8145   3.977   8.838   3.956 -0.2254 -0.3558  0.3836
   60MOL0     C 8146   4.107   8.786   3.970  0.5532 -0.3891  0.1381
   60MOL0     C 8147   4.151   8.725   4.086  0.3975  0.4825  0.0499
   60MOL0     C 8148   4.275   8.667   4.099  0.1613 -0.0999  0.1240
   60MOL0     C 8149   4.367   8.677   3.990  0.0900  0.7045  0.0693
   60MOL0     O 8150   4.492   8.628   4.013 -0.4133 -0.3407 -0.3085
   60MOL0     C 8151   4.590   8.653   3.916 -0.5738  0.1424  0.0579
   60MOL0     C 8152   4.726   8.632   3.977 -0.1877 -0.2364 -0.5559
   60MOL0     C 8153   4.760   8.707   4.109 -0.8175  0.6975 -0.0590
   60MOL0     C 8154   4.912   8.716   4.140 -0.6090  0.0332  0.0287
   60MOL0     C 8155   4.939   8.774   4.274 -1.1260 -0.2313  0.0452
   60MOL0     C 8156   5.087   8.767   4.317  0.0891 -0.7451  0.8074
   60MOL0     C 8157   5.111   8.826   4.461 -0.5909  0.4698  0.5354
   60MOL0     C 8158   5.254   8.807   4.502 -0.5159  0.9413 -0.1934
   60MOL0     N 8159   5.273   8.844   4.647 -0.4708 -1.0985  1.1104
   60MOL0     C 8160   5.343   8.778   4.742 -1.0637  0.4944 -0.9842
   60MOL0     C 8161   5.345   8.853   4.856 -0.0189 -0.0959  0.7086
   60MOL0     C 8162   5.412   8.813   4.988 -0.3174 -0.0003  0.5873
   60MOL0     C 8163   5.562   8.859   4.991 -0.0759 -0.5373 -0.3702
   60MOL0     C 8164   5.642   8.746   4.919  0.3273 -0.5750  0.7077
   60MOL0     C 8165   5.655   8.604   4.992  0.1192 -0.3048  0.8521
   60MOL0     O 8166   5.708   8.604   5.120  0.5572 -0.1490 -0.1482
   60MOL0     C 8167   5.842   8.640   5.131  1.1775 -0.5886  0.0449
   60MOL0     C 8168   5.897   8.654   5.259  1.1868  0.6514  0.4917
   60MOL0     C 8169   6.032   8.685   5.292  0.1103  0.1624 -0.0658
   60MOL0     C 8170   6.057   8.733   5.433  1.2852 -0.0730  0.1681
   60MOL0     C 8171   6.125   8.676   5.183 -0.2271  0.9553 -0.2314
   60MOL0     C 8172   6.272   8.691   5.209 -0.6022  0.9178  0.1551
   60MOL0     O 8173   6.321   8.714   5.333  0.3287 -0.4801 -0.3990
   60MOL0     C 8174   6.456   8.706   5.355 -0.6055  0.0596 -0.1954
   60MOL0     C 8175   6.521   8.780   5.457 -0.2905 -0.5761  0.0937
   60MOL0     C 8176   6.654   8.755   5.496 -1.2249 -0.0385  0.5607
   60MOL0     C 8177   6.735   8.651   5.441 -0.9202 -1.1329 -0.1717
   60MOL0     O 8178   6.867   8.639   5.489 -0.2299 -0.3360  0.3890
   60MOL0     C 8179   6.935   8.509   5.460  0.2491  0.0819 -0.3981
   60MOL0     C 8180   7.078   8.520   5.509 -0.0178 -0.2765 -0.3207
   60MOL0     C 8181   7.163   8.435   5.419 -0.4969  0.1279  0.8083
   60MOL0     C 8182   7.296   8.400   5.485  0.0341 -0.3782 -0.3177
   60MOL0     C 8183   7.417   8.363   5.387  0.3523  0.8330 -0.5132
   60MOL0     C 8184   7.382   8.248   5.292 -0.5089  0.3208  0.1407
   60MOL0     C 8185   7.496   8.232   5.189 -0.0332 -0.5838  0.6522
   60MOL0     C 8186   7.638   8.223   5.234  0.1983  0.6971 -0.8405
   60MOL0    Cl 8187   7.669   8.088   5.357  0.3469  0.1078 -0.3112
   60MOL0     C 8188   6.674   8.575   5.340  0.3367  0.4682 -0.4474
   60MOL0     C 8189   6.543   8.603   5.296  0.2378  0.3968 -0.9062
   60MOL0     O 8190   6.345   8.689   5.107 -0.1491  0.9918  0.9148
   60MOL0     C 8191   6.074   8.664   5.053  0.0896 -0.3727 -0.3799
   60MOL0     C 8192   5.936   8.638   5.028 -0.0599  0.2067  1.1300
   60MOL0     N 8193   5.271   8.964   4.825 -0.2938 -0.8427  0.2909
   60MOL0     N 8194   5.218   8.956   4.703 -0.2920  0.0574 -0.2452
   60MOL0     C 8195   4.326   8.743   3.871 -0.4102  0.1777  0.0372
   60MOL0     C 8196   4.201   8.794   3.862 -1.0523 -0.0428 -0.0838
   60MOL0     C 8197   3.761   8.868   3.853 -0.4561  0.3619 -0.0015
   60MOL0     C 8198   3.734   8.971   3.943 -0.0156  0.3762 -0.5165
   60MOL0     C 8199   3.609   9.020   3.966 -0.0415 -0.6314 -0.3921
   60MOL0     C 8200   3.502   8.980   3.889 -0.7624  0.4169  0.3052
   60MOL0     O 8201   3.385   9.056   3.914 -0.6664  0.2218  0.2640
   60MOL0     C 8202   3.263   9.000   3.875  1.0219 -0.6672 -0.1043
   60MOL0     C 8203   3.223   9.066   3.748  0.2624  0.5481 -0.0609
   60MOL0     C 8204   3.116   8.989   3.661  0.2049 -0.6944  0.5402
   60MOL0     C 8205   3.168   8.868   3.579  0.4820  0.6965 -0.0378
   60MOL0     C 8206   3.229   8.922   3.453 -0.6330  0.2082  0.6018
   60MOL0     C 8207   3.272   8.959   3.341 -0.1369 -1.2554 -0.5059
   60MOL0     C 8208   3.527   8.897   3.773  0.5060  0.6845 -0.2363
   60MOL0     C 8209   3.651   8.830   3.764  0.8071 -0.2848  0.0851
   60MOL0     C 8210   3.657   8.722   3.651 -0.7458 -1.0026 -0.2451
   60MOL0     H 8211   4.087   8.718   4.173 -2.5967 -1.9513 -2.1018
   60MOL0     H 8212   4.316   8.612   4.183  0.8189 -1.1524 -0.8618
   60MOL0     H 8213   4.591   8.757   3.882 -0.9242 -0.0683 -0.6050
   60MOL0     H 8214   4.582   8.595   3.824 -0.6636  1.2011 -0.6164
   60MOL0     H 8215   4.740   8.525   3.994  1.8848  0.2505  1.3081
   60MOL0     H 8216   4.794   8.677   3.904 -0.0597  1.0242  0.2990
   60MOL0     H 8217   4.708   8.803   4.114 -1.1483  0.5599 -0.7091
   60MOL0     H 8218   4.721   8.647   4.193 -1.7677 -0.5560 -1.3422
   60MOL0     H 8219   4.954   8.615   4.142 -1.1579 -0.2071 -0.5184
   60MOL0     H 8220   4.969   8.780   4.072 -2.6542  0.7842 -1.0502
   60MOL0     H 8221   4.873   8.725   4.345  0.2874  0.6056  2.0365
   60MOL0     H 8222   4.903   8.878   4.277 -1.0853 -0.1603 -1.1871
   60MOL0     H 8223   5.123   8.665   4.302  2.0306 -0.1538  1.1255
   60MOL0     H 8224   5.145   8.831   4.250 -0.9354 -1.0655 -0.4043
   60MOL0     H 8225   5.045   8.774   4.532 -2.0169  1.0894 -0.3003
   60MOL0     H 8226   5.087   8.932   4.454 -0.7259  0.5252  1.5616
   60MOL0     H 8227   5.279   8.702   4.482 -3.3411 -0.2304  1.6572
   60MOL0     H 8228   5.316   8.883   4.455  0.9708 -0.3013 -0.2988
   60MOL0     H 8229   5.390   8.681   4.727  0.5567  1.2257 -0.8351
   60MOL0     H 8230   5.411   8.704   4.999 -3.0914  0.0625  1.6566
   60MOL0     H 8231   5.348   8.857   5.064  1.1481  1.2455  1.1501
   60MOL0     H 8232   5.577   8.957   4.946 -2.9919 -0.4638 -1.4214
   60MOL0     H 8233   5.598   8.866   5.094 -0.1800 -1.6511 -0.2401
   60MOL0     H 8234   5.613   8.744   4.814 -1.9814  1.3330  1.2119
   60MOL0     H 8235   5.741   8.792   4.911 -0.4712  0.8472 -3.4659
   60MOL0     H 8236   5.557   8.556   4.983 -1.4030  2.5952  0.8207
   60MOL0     H 8237   5.711   8.541   4.921 -1.1414  1.4745 -1.9089
   60MOL0     H 8238   5.826   8.655   5.341  1.1693 -0.8674  0.5168
   60MOL0     H 8239   6.123   8.664   5.488 -1.2722 -0.5511  2.9399
   60MOL0     H 8240   5.964   8.729   5.491  0.7986 -1.1203 -0.6661
   60MOL0     H 8241   6.098   8.834   5.439 -2.6352  1.6462  1.5889
   60MOL0     H 8242   6.465   8.853   5.515 -0.6447 -0.4811 -0.3677
   60MOL0     H 8243   6.709   8.807   5.574  2.4270  0.4978 -2.0940
   60MOL0     H 8244   6.880   8.433   5.516  2.1895 -1.7601 -0.8561
   60MOL0     H 8245   6.946   8.481   5.355  2.2298 -3.0524  0.4998
   60MOL0     H 8246   7.116   8.622   5.503  0.5074 -0.2557  2.1380
   60MOL0     H 8247   7.079   8.483   5.612  2.0484  2.5401  0.8007
   60MOL0     H 8248   7.181   8.483   5.322 -0.9354 -0.2232  0.5520
   60MOL0     H 8249   7.115   8.340   5.398 -0.4659  0.3236 -0.2149
   60MOL0     H 8250   7.277   8.318   5.555 -2.0833  1.3619  1.2972
   60MOL0     H 8251   7.335   8.483   5.546  1.0486  0.3318 -1.8622
   60MOL0     H 8252   7.444   8.449   5.326 -1.9119  1.3899 -0.8208
   60MOL0     H 8253   7.507   8.330   5.441  0.3074  2.0106  0.3119
   60MOL0     H 8254   7.281   8.264   5.255  0.0963  1.4452 -1.1398
   60MOL0     H 8255   7.375   8.158   5.353 -0.9425  0.5101  0.3754
   60MOL0     H 8256   7.481   8.326   5.135 -0.0753  1.3432  3.7749
   60MOL0     H 8257   7.475   8.139   5.134  2.5099 -0.2660 -1.0160
   60MOL0     H 8258   7.659   8.324   5.269 -0.0436  0.4237  0.1093
   60MOL0     H 8259   7.697   8.197   5.146  1.0843 -1.8967  0.4169
   60MOL0     H 8260   6.725   8.488   5.300 -0.1469 -0.8157  1.5271
   60MOL0     H 8261   6.497   8.528   5.232  0.1959 -0.2697 -0.1080
   60MOL0     H 8262   6.138   8.671   4.966  0.8399 -0.9431  0.1110
   60MOL0     H 8263   5.912   8.628   4.923  4.4284  0.4354 -0.1589
   60MOL0     H 8264   4.391   8.757   3.785 -1.4052 -0.3092 -0.8157
   60MOL0     H 8265   4.177   8.845   3.769 -1.4498  0.8187  0.4747
   60MOL0     H 8266   3.816   9.010   4.003  0.1809 -1.4372  0.4588
   60MOL0     H 8267   3.586   9.080   4.053 -0.1581  0.4563 -1.1524
   60MOL0     H 8268   3.279   8.895   3.850  0.5267 -0.2224 -2.4980
   60MOL0     H 8269   3.182   9.027   3.944 -1.7033  1.6771 -3.8513
   60MOL0     H 8270   3.311   9.085   3.686 -0.4154  1.8470 -0.6632
   60MOL0     H 8271   3.185   9.166   3.772 -2.0639 -0.9256  3.2128
   60MOL0     H 8272   3.040   8.954   3.733 -0.3932  2.4641  1.6002
   60MOL0     H 8273   3.058   9.057   3.599 -0.2510 -1.1880  0.4244
   60MOL0     H 8274   3.079   8.809   3.555  0.0894  1.7824 -1.4171
   60MOL0     H 8275   3.240   8.811   3.637 -1.1784  0.5139  1.9635
   60MOL0     H 8276   3.311   8.987   3.245 -1.9624  0.7711 -0.7311
   60MOL0     H 8277   3.442   8.867   3.714  0.6416  0.6528 -0.4163
   60MOL0     H 8278   3.705   8.775   3.568 -2.7333 -0.7196 -1.2661
   60MOL0     H 8279   3.707   8.627   3.669 -1.1929 -0.9814  1.2491
   60MOL0     H 8280   3.556   8.696   3.620 -1.4669  1.7110 -0.5004
   61MOL0     O 8281   8.495  11.204  10.306 -0.0421 -0.2629 -0.2337
   61MOL0     C 8282   8.460  11.096  10.264 -0.5573 -0.1898  0.2359
   61MOL0     O 8283   8.523  11.029  10.162  0.5497 -0.0306 -0.0994
   61MOL0     C 8284   8.618  11.093  10.092 -0.5390  0.6670 -0.1553
   61MOL0     C 8285   8.591  11.217  10.019  0.5739  0.3080 -0.5729
   61MOL0     C 8286   8.694  11.281   9.947 -0.9991 -0.5151  0.2779
   61MOL0     C 8287   8.824  11.226   9.949  0.9924  0.5299  0.5276
   61MOL0     O 8288   8.924  11.289   9.876 -0.3775 -0.3053  0.7262
   61MOL0     C 8289   8.887  11.395   9.786  0.3551  0.1822 -0.0367
   61MOL0     C 8290   9.011  11.442   9.713  0.1654 -0.1987  0.2103
   61MOL0     C 8291   8.965  11.560   9.622  0.1532  0.5779 -0.5762
   61MOL0     C 8292   9.092  11.637   9.585 -0.0585 -0.3359  0.6311
   61MOL0     C 8293   9.063  11.741   9.480  0.5157  0.4258 -0.5435
   61MOL0     C 8294   9.191  11.810   9.446  0.3252  0.1058  0.2800
   61MOL0     C 8295   9.273  11.744   9.338  0.3669 -0.2406  0.4901
   61MOL0     C 8296   9.400  11.833   9.329  0.5668  0.6846 -0.3634
   61MOL0     N 8297   9.504  11.774   9.247 -0.2151  0.1415  0.1920
   61MOL0     C 8298   9.627  11.837   9.216  1.1128  0.2482  0.5259
   61MOL0     C 8299   9.709  11.736   9.167  0.9200 -0.6955 -0.8130
   61MOL0     C 8300   9.834  11.761   9.088 -0.0502  0.1572  0.1169
   61MOL0     C 8301   9.795  11.830   8.954 -0.4724 -0.1020 -1.0961
   61MOL0     C 8302   9.915  11.871   8.875 -0.0534  0.2826  0.3148
   61MOL0     C 8303  10.033  11.768   8.865  1.1281  0.3841  0.6796
   61MOL0     O 8304  10.115  11.775   8.977  0.0943 -0.4831  0.3454
   61MOL0     C 8305  10.215  11.683   8.977 -0.7361  0.4321 -0.2541
   61MOL0     C 8306  10.275  11.613   8.869  0.3730  0.2908 -1.2038
   61MOL0     C 8307  10.375  11.520   8.885 -0.7528  1.0903 -0.2369
   61MOL0     C 8308  10.446  11.443   8.772 -0.2909  0.1752 -0.3177
   61MOL0     C 8309  10.420  11.490   9.023  0.0129 -0.3672  0.3461
   61MOL0     C 8310  10.519  11.384   9.059  0.3019 -0.6331  1.1608
   61MOL0     O 8311  10.515  11.259   8.993  0.5462 -0.8372  0.2006
   61MOL0     C 8312  10.618  11.169   9.016  0.0145 -1.3652 -0.2903
   61MOL0     C 8313  10.676  11.121   8.900  0.2474  0.7442 -0.4576
   61MOL0     C 8314  10.783  11.032   8.902 -0.7157 -0.6362  0.2719
   61MOL0     C 8315  10.814  10.974   9.024 -0.1377 -0.1724 -0.2095
   61MOL0     O 8316  10.903  10.870   9.037  1.0103  0.3319  0.2642
   61MOL0     C 8317  10.892  10.762   8.945 -0.6412  0.2688  0.5789
   61MOL0     C 8318  11.001  10.761   8.834 -0.2389 -0.0456 -0.4541
   61MOL0     C 8319  11.029  10.616   8.785 -0.1389  0.1170  0.2673
   61MOL0     C 8320  11.116  10.630   8.656  0.2878 -0.1336  0.1490
   61MOL0     C 8321  11.155  10.488   8.616  0.6243 -0.3705 -0.0381
   61MOL0     C 8322  11.298  10.479   8.599  0.2986  0.3165  0.2209
   61MOL0     C 8323  11.357  10.337   8.569 -0.5833 -0.3585 -0.1071
   61MOL0     C 8324  11.507  10.330   8.605  1.0419 -0.5693 -0.5609
   61MOL0    Cl 8325  11.614  10.449   8.537  0.2745 -0.0928  0.4630
   61MOL0     C 8326  10.743  11.016   9.137 -0.1252  0.7149  0.3776
   61MOL0     C 8327  10.661  11.121   9.136 -0.3649 -1.0068  0.3458
   61MOL0     O 8328  10.604  11.415   9.147  0.5592  0.6547 -0.1196
   61MOL0     C 8329  10.364  11.575   9.127 -0.3913 -0.0772 -0.1202
   61MOL0     C 8330  10.267  11.667   9.103  0.9341  0.3790 -1.3316
   61MOL0     N 8331   9.636  11.619   9.163 -0.2110  0.0549 -0.3982
   61MOL0     N 8332   9.521  11.643   9.209  0.1611  0.6624 -0.3101
   61MOL0     C 8333   8.852  11.095  10.008 -1.0697  0.8813 -0.0250
   61MOL0     C 8334   8.751  11.033  10.084  0.1491 -0.1706 -0.0588
   61MOL0     C 8335   8.328  11.048  10.323  0.3933 -0.2048 -0.5547
   61MOL0     C 8336   8.264  10.948  10.246  0.0629  0.4240  0.5310
   61MOL0     C 8337   8.138  10.901  10.281 -0.3593  0.0035  0.9397
   61MOL0     C 8338   8.070  10.950  10.388 -0.0921  0.9250 -0.1882
   61MOL0     O 8339   7.941  10.900  10.394  0.3794  0.2693  0.5703
   61MOL0     C 8340   7.863  10.922  10.501 -0.0218 -0.0247 -0.5455
   61MOL0     C 8341   7.810  11.061  10.511 -0.1413  0.4806 -0.3531
   61MOL0     C 8342   7.663  11.085  10.541 -1.1093  1.4511  0.2423
   61MOL0     C 8343   7.565  11.087  10.423  0.0098  0.3227  0.0800
   61MOL0     C 8344   7.542  10.961  10.350 -0.3257 -0.1488  0.3398
   61MOL0     C 8345   7.513  10.862  10.291 -0.3966  1.1196 -1.4496
   61MOL0     C 8346   8.129  11.045  10.469 -0.7327 -0.7752  0.0298
   61MOL0     C 8347   8.261  11.090  10.441  0.8852  0.1405  0.0506
   61MOL0     C 8348   8.328  11.171  10.546 -0.9472  0.0685  0.4114
   61MOL0     H 8349   8.496  11.267  10.036  2.0891  2.7582  1.5650
   61MOL0     H 8350   8.672  11.377   9.903  0.2235 -0.0234  0.6952
   61MOL0     H 8351   8.838  11.474   9.844  0.2407 -1.2266  1.8891
   61MOL0     H 8352   8.823  11.356   9.706 -1.1167  2.3064 -0.0102
   61MOL0     H 8353   9.088  11.464   9.787 -0.5944 -0.5080  1.1169
   61MOL0     H 8354   9.061  11.362   9.656  1.6253 -0.1777  1.3935
   61MOL0     H 8355   8.919  11.518   9.532 -1.4848  3.5320 -1.2343
   61MOL0     H 8356   8.892  11.624   9.672 -2.8303 -1.8063 -1.5830
   61MOL0     H 8357   9.135  11.687   9.673 -0.6077 -2.2740  2.0858
   61MOL0     H 8358   9.169  11.572   9.543 -0.1741  1.5320 -2.8017
   61MOL0     H 8359   8.991  11.813   9.519  0.6380  0.0750  0.3435
   61MOL0     H 8360   9.018  11.688   9.395  1.7474 -1.5859  0.0014
   61MOL0     H 8361   9.163  11.906   9.402  1.7196  0.3163 -0.2238
   61MOL0     H 8362   9.252  11.827   9.535 -2.6014 -0.1499  2.4772
   61MOL0     H 8363   9.224  11.747   9.241  0.0932 -0.8842  0.6032
   61MOL0     H 8364   9.304  11.643   9.367 -2.0103 -0.6353  1.9239
   61MOL0     H 8365   9.382  11.927   9.277  0.2056 -0.0106 -1.5328
   61MOL0     H 8366   9.449  11.838   9.427 -3.8080  1.0401  2.0743
   61MOL0     H 8367   9.647  11.943   9.229 -0.9324  0.9500 -1.2648
   61MOL0     H 8368   9.885  11.667   9.065 -0.4498  0.1963 -0.9932
   61MOL0     H 8369   9.901  11.823   9.148  0.7502 -0.1823 -0.4016
   61MOL0     H 8370   9.742  11.754   8.896  0.3189 -0.7504 -0.9832
   61MOL0     H 8371   9.723  11.911   8.968  1.3270  1.5970 -1.1985
   61MOL0     H 8372   9.882  11.885   8.771  1.5433  0.1619 -0.2445
   61MOL0     H 8373   9.952  11.967   8.913  1.0474  0.0284 -0.0884
   61MOL0     H 8374  10.001  11.666   8.841  1.7596  0.4140 -0.3497
   61MOL0     H 8375  10.098  11.803   8.784  0.2450 -1.6549 -0.9996
   61MOL0     H 8376  10.241  11.633   8.768 -0.6520  0.9143 -0.7487
   61MOL0     H 8377  10.413  11.341   8.748  1.1821 -0.8218  1.5034
   61MOL0     H 8378  10.554  11.443   8.792 -0.2393  0.9006 -0.5624
   61MOL0     H 8379  10.435  11.503   8.682  0.4659  0.2818 -0.3451
   61MOL0     H 8380  10.641  11.148   8.801 -1.5051  2.1268  0.4811
   61MOL0     H 8381  10.830  11.008   8.807 -1.6305  2.3318 -1.0515
   61MOL0     H 8382  10.877  10.668   8.998 -0.2767 -0.4964 -0.6468
   61MOL0     H 8383  10.794  10.764   8.897 -1.2626 -0.3448  1.7927
   61MOL0     H 8384  10.950  10.821   8.759 -0.9442  0.0256  0.0673
   61MOL0     H 8385  11.087  10.808   8.883  0.0187 -1.7520  0.8398
   61MOL0     H 8386  10.931  10.583   8.749 -1.1803 -0.3014  3.2183
   61MOL0     H 8387  11.073  10.543   8.853 -0.1827 -2.3749 -2.1932
   61MOL0     H 8388  11.211  10.683   8.667  0.1903  0.1526 -0.3708
   61MOL0     H 8389  11.068  10.689   8.578 -3.6046  1.3327  3.3318
   61MOL0     H 8390  11.112  10.422   8.693 -0.5235  1.7679  1.2460
   61MOL0     H 8391  11.097  10.463   8.526 -0.9876  1.3772  0.4478
   61MOL0     H 8392  11.332  10.509   8.698  0.8557 -2.2991  0.8957
   61MOL0     H 8393  11.332  10.554   8.526  0.8394 -0.0185  0.1239
   61MOL0     H 8394  11.354  10.298   8.466  4.1665 -1.2148 -0.1755
   61MOL0     H 8395  11.313  10.264   8.637 -2.2683 -0.9681 -1.7517
   61MOL0     H 8396  11.545  10.230   8.584  1.8449 -0.9603  2.2998
   61MOL0     H 8397  11.520  10.332   8.714  0.0002 -3.1580 -0.3151
   61MOL0     H 8398  10.752  10.960   9.230 -2.0878 -1.0244 -0.3960
   61MOL0     H 8399  10.622  11.162   9.229  0.3569 -0.6703  0.5079
   61MOL0     H 8400  10.385  11.556   9.232  1.5570  0.5584 -0.3620
   61MOL0     H 8401  10.213  11.716   9.183 -0.6903  1.0349 -2.7673
   61MOL0     H 8402   8.953  11.056  10.010 -1.4947 -0.2203  1.2100
   61MOL0     H 8403   8.774  10.935  10.124  2.0302  0.4072  0.3946
   61MOL0     H 8404   8.315  10.912  10.157 -1.1929 -0.4074  0.1302
   61MOL0     H 8405   8.085  10.837  10.211 -0.5528  1.8147 -0.6440
   61MOL0     H 8406   7.773  10.861  10.488  1.3109 -2.2509  0.1334
   61MOL0     H 8407   7.918  10.893  10.590  0.7920 -0.9030 -1.3142
   61MOL0     H 8408   7.833  11.110  10.416 -0.0496 -0.3230 -0.7542
   61MOL0     H 8409   7.867  11.116  10.586  0.7281  0.9098 -1.3097
   61MOL0     H 8410   7.636  11.014  10.619 -6.5144  0.1582 -2.3764
   61MOL0     H 8411   7.651  11.183  10.589 -1.0447  1.6032 -0.0482
   61MOL0     H 8412   7.599  11.162  10.352 -0.1522 -1.6279 -2.1621
   61MOL0     H 8413   7.467  11.117  10.462 -0.3682 -1.2387  0.4186
   61MOL0     H 8414   7.498  10.772  10.233  0.1303 -3.0038  4.0085
   61MOL0     H 8415   8.070  11.100  10.542 -0.1436 -0.7525  0.4969
   61MOL0     H 8416   8.434  11.145  10.545  0.3877  4.6058 -2.5475
   61MOL0     H 8417   8.315  11.279  10.537 -2.2645 -0.2538 -2.7236
   61MOL0     H 8418   8.300  11.135  10.646 -1.1190 -1.8843 -0.2865
   62MOL0     O 8419   7.896   4.486   6.108 -0.3659 -0.2044  0.3298
   62MOL0     C 8420   7.817   4.392   6.109 -0.0996 -0.3517 -0.0788
   62MOL0     O 8421   7.842   4.260   6.073  0.7928  0.4686 -0.8750
   62MOL0     C 8422   7.958   4.229   5.999 -0.6069 -0.9904 -0.1712
   62MOL0     C 8423   7.958   4.249   5.859  0.1915  0.1592  0.5745
   62MOL0     C 8424   8.087   4.234   5.801  0.5068 -0.2321  0.6513
   62MOL0     C 8425   8.201   4.198   5.865 -0.0657 -0.3454  0.1908
   62MOL0     O 8426   8.326   4.208   5.807 -0.1899 -0.7026 -0.1107
   62MOL0     C 8427   8.334   4.189   5.663 -0.4684  0.2777  0.1022
   62MOL0     C 8428   8.331   4.328   5.589 -0.0195  0.9953 -0.2830
   62MOL0     C 8429   8.426   4.322   5.470  0.1673  0.5720 -0.3709
   62MOL0     C 8430   8.407   4.460   5.406  0.6439  0.3867 -0.4128
   62MOL0     C 8431   8.484   4.564   5.495 -1.1212 -0.7514 -0.4154
   62MOL0     C 8432   8.511   4.680   5.395 -0.7565  0.3341  0.2358
   62MOL0     C 8433   8.649   4.648   5.325 -1.1052  0.1983  0.2919
   62MOL0     C 8434   8.699   4.750   5.220  0.6188  0.1825  0.2304
   62MOL0     N 8435   8.846   4.730   5.196 -0.1487 -1.1693 -1.1033
   62MOL0     C 8436   8.917   4.785   5.094  0.9929 -0.1219 -0.5291
   62MOL0     C 8437   9.048   4.766   5.123  0.0668 -0.0315  0.1434
   62MOL0     C 8438   9.176   4.816   5.036 -0.9663 -0.2342 -0.0251
   62MOL0     C 8439   9.301   4.830   5.126  0.0844  0.2956 -0.0321
   62MOL0     C 8440   9.414   4.913   5.057 -0.2428 -0.2222 -0.1261
   62MOL0     C 8441   9.552   4.889   5.117  0.0418 -0.5610  0.3144
   62MOL0     O 8442   9.606   4.761   5.083 -0.2715 -0.4747 -0.9816
   62MOL0     C 8443   9.742   4.734   5.066  0.1933  0.4793 -0.0846
   62MOL0     C 8444   9.782   4.616   5.013 -1.0303 -0.2303  0.5208
   62MOL0     C 8445   9.920   4.587   5.002  0.0845 -0.9129  0.6387
   62MOL0     C 8446   9.952   4.450   4.948  0.4410  0.5566 -0.6782
   62MOL0     C 8447  10.023   4.669   5.056 -0.2484 -0.5770  0.3426
   62MOL0     C 8448  10.169   4.634   5.067  0.4361  0.1846  0.2743
   62MOL0     O 8449  10.243   4.729   5.136 -0.0379  0.3351  0.2560
   62MOL0     C 8450  10.368   4.705   5.190 -0.2151  0.5428  0.2531
   62MOL0     C 8451  10.408   4.577   5.238  1.3301  0.3259 -0.4906
   62MOL0     C 8452  10.536   4.564   5.301  0.9619  0.6491 -0.3330
   62MOL0     C 8453  10.601   4.671   5.331 -1.2654  0.0657 -0.2580
   62MOL0     O 8454  10.723   4.658   5.389  0.4000  0.2761 -0.2543
   62MOL0     C 8455  10.758   4.549   5.473 -0.6287  0.7172 -0.2770
   62MOL0     C 8456  10.866   4.469   5.402  0.3447 -0.4737  0.1119
   62MOL0     C 8457  10.933   4.370   5.486  0.0002  0.5212  0.0654
   62MOL0     C 8458  11.046   4.432   5.564  0.5654  0.4429  0.0930
   62MOL0     C 8459  11.121   4.317   5.625 -0.8781  0.2767  0.1591
   62MOL0     C 8460  11.222   4.377   5.725 -0.3692  0.9881 -0.1036
   62MOL0     C 8461  11.321   4.269   5.765  0.3821  0.3570 -0.3791
   62MOL0     C 8462  11.394   4.329   5.887 -0.0288 -0.5581 -0.9823
   62MOL0    Cl 8463  11.543   4.232   5.911 -0.2802 -0.3219 -0.1064
   62MOL0     C 8464  10.559   4.802   5.293 -0.1588 -0.6635 -0.2066
   62MOL0     C 8465  10.447   4.814   5.214 -0.0116  0.2570 -0.0586
   62MOL0     O 8466  10.213   4.529   5.019  0.7136  0.4350 -0.8826
   62MOL0     C 8467   9.976   4.789   5.118 -0.0500 -0.3744  0.3766
   62MOL0     C 8468   9.838   4.818   5.125 -0.0093 -0.0659  0.1542
   62MOL0     N 8469   9.057   4.688   5.234  0.7651  0.0010 -0.1891
   62MOL0     N 8470   8.937   4.671   5.280 -0.1995 -0.4926  0.3934
   62MOL0     C 8471   8.193   4.177   5.999  0.5705 -0.0468 -0.1095
   62MOL0     C 8472   8.076   4.197   6.071  1.0010 -0.2962  0.3255
   62MOL0     C 8473   7.696   4.405   6.188 -0.4149  0.5821 -0.4265
   62MOL0     C 8474   7.708   4.457   6.315 -0.0594 -0.0836 -0.0507
   62MOL0     C 8475   7.603   4.465   6.402  0.0844  0.0042 -0.6964
   62MOL0     C 8476   7.477   4.427   6.359  0.5265 -0.1240 -0.4991
   62MOL0     O 8477   7.375   4.452   6.452  0.3394  0.1015  0.1479
   62MOL0     C 8478   7.237   4.437   6.409  0.4770 -0.0273 -0.3341
   62MOL0     C 8479   7.136   4.475   6.524 -1.0127  0.3887 -0.6892
   62MOL0     C 8480   6.984   4.463   6.485 -0.7419 -0.5748  0.6483
   62MOL0     C 8481   6.932   4.570   6.387 -0.5470 -0.5844 -0.6412
   62MOL0     C 8482   6.970   4.713   6.413  0.5206  0.7789  0.2574
   62MOL0     C 8483   6.995   4.826   6.450  0.5109 -0.5186  0.0766
   62MOL0     C 8484   7.453   4.376   6.228  0.1960 -0.2174 -0.5650
   62MOL0     C 8485   7.571   4.367   6.143  0.7740 -0.0295  0.4938
   62MOL0     C 8486   7.526   4.310   6.006 -0.0860 -0.5478 -0.1305
   62MOL0     H 8487   7.867   4.281   5.809  0.2545 -2.1317 -1.1868
   62MOL0     H 8488   8.086   4.270   5.698 -2.8316 -1.9271 -0.0597
   62MOL0     H 8489   8.256   4.122   5.627  1.2427 -1.1421 -1.0993
   62MOL0     H 8490   8.429   4.145   5.631 -0.4068  1.0309 -0.8047
   62MOL0     H 8491   8.232   4.350   5.549  0.6462  3.0004 -0.9477
   62MOL0     H 8492   8.361   4.405   5.661 -0.3279  1.3141 -0.4945
   62MOL0     H 8493   8.528   4.305   5.504  0.7091 -1.9266 -2.8777
   62MOL0     H 8494   8.393   4.235   5.412  0.3026  0.4659 -0.2884
   62MOL0     H 8495   8.438   4.454   5.302 -1.5448  1.9176 -1.2365
   62MOL0     H 8496   8.302   4.489   5.398  1.2434  2.9239 -0.1295
   62MOL0     H 8497   8.576   4.520   5.536  0.8615  3.3243 -0.0103
   62MOL0     H 8498   8.422   4.595   5.580 -2.3964 -0.4500 -1.4266
   62MOL0     H 8499   8.434   4.683   5.317  0.1363 -2.2107 -0.8544
   62MOL0     H 8500   8.517   4.775   5.449 -1.2227  1.6964 -1.9530
   62MOL0     H 8501   8.650   4.544   5.289  3.3451  0.2740 -0.3198
   62MOL0     H 8502   8.724   4.659   5.404  1.6822 -0.0209 -2.1468
   62MOL0     H 8503   8.644   4.728   5.128  2.2758  2.7591 -1.4894
   62MOL0     H 8504   8.676   4.853   5.246  0.2158 -0.1555  1.2593
   62MOL0     H 8505   8.878   4.841   5.009  3.2994  0.4081 -1.3091
   62MOL0     H 8506   9.162   4.914   4.991  3.4196  0.9423  0.7081
   62MOL0     H 8507   9.202   4.750   4.953 -1.3180 -0.3681 -0.0314
   62MOL0     H 8508   9.279   4.888   5.216  1.1725  0.9571 -0.1748
   62MOL0     H 8509   9.333   4.728   5.149 -0.3856 -0.1985 -1.4564
   62MOL0     H 8510   9.423   4.908   4.948 -3.1242 -2.9820 -0.3952
   62MOL0     H 8511   9.380   5.013   5.085 -2.4845 -1.4334  1.7856
   62MOL0     H 8512   9.622   4.970   5.095  1.5211 -1.6294  0.8326
   62MOL0     H 8513   9.523   4.910   5.221 -1.8055 -0.5927 -0.1618
   62MOL0     H 8514   9.714   4.534   4.992 -3.5911  1.9040 -0.1456
   62MOL0     H 8515  10.034   4.457   4.875  1.1391 -1.0894 -0.0982
   62MOL0     H 8516   9.865   4.400   4.905  0.8841 -1.9985  1.1700
   62MOL0     H 8517   9.977   4.379   5.027  2.3730  1.8658 -0.0433
   62MOL0     H 8518  10.356   4.483   5.224 -2.8734  1.7366  3.1159
   62MOL0     H 8519  10.565   4.463   5.326  1.6255  1.4302  2.3894
   62MOL0     H 8520  10.799   4.584   5.568  1.5724  2.5236 -1.7792
   62MOL0     H 8521  10.676   4.482   5.502  0.3751 -1.9101 -3.0499
   62MOL0     H 8522  10.825   4.427   5.309  0.7446 -0.5771 -0.0181
   62MOL0     H 8523  10.932   4.546   5.362 -0.4706  0.2343  0.1059
   62MOL0     H 8524  10.966   4.283   5.429 -0.5107 -0.2188  0.8945
   62MOL0     H 8525  10.854   4.331   5.550 -0.1333 -2.2284 -1.6307
   62MOL0     H 8526  11.022   4.502   5.645 -1.7665 -0.9616  0.7319
   62MOL0     H 8527  11.110   4.487   5.496 -0.3279  1.9386  0.4218
   62MOL0     H 8528  11.053   4.260   5.689  0.1764  0.7481  1.7511
   62MOL0     H 8529  11.169   4.254   5.549  0.5543  1.4390  0.0529
   62MOL0     H 8530  11.156   4.415   5.804  0.0497  0.4675  0.5046
   62MOL0     H 8531  11.285   4.460   5.692  0.5234 -0.0931 -1.2116
   62MOL0     H 8532  11.385   4.245   5.679 -2.2121 -2.9141 -1.6037
   62MOL0     H 8533  11.270   4.178   5.798  0.0723  0.6682  0.0037
   62MOL0     H 8534  11.332   4.336   5.976  1.3462  0.2627 -0.0575
   62MOL0     H 8535  11.408   4.435   5.862  1.8705 -0.2277  1.1879
   62MOL0     H 8536  10.630   4.877   5.326  1.5234 -3.0530  2.0677
   62MOL0     H 8537  10.424   4.912   5.172  1.1180  2.0768  3.1738
   62MOL0     H 8538  10.040   4.864   5.163  1.6923 -2.4607  1.6028
   62MOL0     H 8539   9.797   4.906   5.175 -2.3602 -0.7825 -0.4368
   62MOL0     H 8540   8.278   4.158   6.063  1.7043  0.0869 -1.5200
   62MOL0     H 8541   8.079   4.179   6.178  1.6274 -0.4353  0.2882
   62MOL0     H 8542   7.807   4.485   6.352 -0.0010  1.3541 -1.1942
   62MOL0     H 8543   7.631   4.492   6.503 -0.8273  0.3899 -0.5368
   62MOL0     H 8544   7.219   4.512   6.331  0.1868  0.0615 -0.1818
   62MOL0     H 8545   7.219   4.335   6.373  1.7040 -0.8171  1.1909
   62MOL0     H 8546   7.163   4.573   6.563  2.2831 -0.4178 -0.6718
   62MOL0     H 8547   7.160   4.414   6.611  0.2889  0.8654 -0.6933
   62MOL0     H 8548   6.947   4.367   6.449 -0.6327  0.4046 -2.3934
   62MOL0     H 8549   6.943   4.489   6.583  3.1540  1.1066  2.0208
   62MOL0     H 8550   6.824   4.553   6.392 -0.9459  1.8290 -0.3064
   62MOL0     H 8551   6.977   4.550   6.289  2.1018 -1.3424  0.6203
   62MOL0     H 8552   7.036   4.920   6.483 -0.1700 -1.0476  2.6793
   62MOL0     H 8553   7.354   4.346   6.193 -0.3968 -1.9216  2.2278
   62MOL0     H 8554   7.617   4.315   5.945  0.6764  1.5900  1.0626
   62MOL0     H 8555   7.487   4.209   6.017  2.5402 -1.5346  0.8751
   62MOL0     H 8556   7.448   4.375   5.963 -1.0911 -0.7048  1.3889
   63MOL0     O 8557   1.466  10.249   2.368  0.4799  0.0906 -0.1551
   63MOL0     C 8558   1.400  10.275   2.272 -0.7739  0.0356 -0.1050
   63MOL0     O 8559   1.449  10.346   2.168 -0.3936 -0.5408 -0.2848
   63MOL0     C 8560   1.556  10.436   2.176  0.3790 -0.4303 -0.7786
   63MOL0     C 8561   1.639  10.475   2.283 -0.7315  0.1150 -0.5616
   63MOL0     C 8562   1.746  10.568   2.268 -0.9684  0.5371  0.5387
   63MOL0     C 8563   1.773  10.619   2.140 -0.7095  0.5709 -0.2908
   63MOL0     O 8564   1.872  10.702   2.113 -0.5632 -0.7025  0.1086
   63MOL0     C 8565   1.958  10.757   2.216 -0.5478  0.1562  0.2985
   63MOL0     C 8566   2.061  10.852   2.161 -0.0002  0.0567 -0.7320
   63MOL0     C 8567   2.150  10.778   2.049 -0.2635  0.0567 -1.2226
   63MOL0     C 8568   2.299  10.815   2.044  0.5066 -0.3298  0.7181
   63MOL0     C 8569   2.374  10.738   1.933  0.1070 -0.5983  0.0100
   63MOL0     C 8570   2.526  10.767   1.937 -0.1282  0.1152 -0.1258
   63MOL0     C 8571   2.597  10.741   1.803 -1.0767  0.1848  0.1256
   63MOL0     C 8572   2.745  10.721   1.834  0.7588  0.4688 -0.2519
   63MOL0     N 8573   2.814  10.840   1.878 -0.6983 -0.6346 -0.3177
   63MOL0     C 8574   2.848  10.928   1.786 -0.4994 -1.0768 -0.4847
   63MOL0     C 8575   2.924  11.018   1.862  1.2814 -0.7667  1.3288
   63MOL0     C 8576   3.003  11.139   1.811 -0.2740 -0.2135 -0.0945
   63MOL0     C 8577   3.154  11.147   1.855 -0.5510  0.3336  0.4547
   63MOL0     C 8578   3.240  11.239   1.759  0.3224 -0.5432  0.2766
   63MOL0     C 8579   3.377  11.281   1.805  0.0868  0.5114  0.5961
   63MOL0     O 8580   3.378  11.356   1.930 -0.0299  0.4345  0.1666
   63MOL0     C 8581   3.475  11.447   1.955 -0.1096 -0.1961  0.0817
   63MOL0     C 8582   3.461  11.517   2.070 -0.0484 -0.0194  0.4944
   63MOL0     C 8583   3.535  11.630   2.104 -0.2848  0.8326  0.7848
   63MOL0     C 8584   3.518  11.677   2.246 -0.1546 -0.0309 -0.2699
   63MOL0     C 8585   3.636  11.678   2.010 -0.2255 -0.4540 -0.7710
   63MOL0     C 8586   3.736  11.784   2.033  0.2654 -0.1437 -0.0445
   63MOL0     O 8587   3.817  11.806   1.934 -0.7527 -0.2190  0.6809
   63MOL0     C 8588   3.956  11.816   1.955  0.0022  0.2294 -0.2173
   63MOL0     C 8589   4.020  11.894   1.863  0.0735 -0.5427 -0.3468
   63MOL0     C 8590   4.158  11.906   1.858 -0.1279  0.3137  0.0016
   63MOL0     C 8591   4.238  11.842   1.953  0.5262 -0.1840 -0.6009
   63MOL0     O 8592   4.375  11.857   1.958 -0.4652 -0.5124  0.1325
   63MOL0     C 8593   4.432  11.978   1.911  0.1261  0.7475  0.5034
   63MOL0     C 8594   4.582  11.982   1.932  0.4355 -0.5160  0.8178
   63MOL0     C 8595   4.614  12.000   2.085 -0.3515  0.3486 -0.4910
   63MOL0     C 8596   4.763  12.009   2.118  0.5412 -0.1442  0.0967
   63MOL0     C 8597   4.825  11.865   2.096  0.9582 -0.1844 -0.2730
   63MOL0     C 8598   4.983  11.859   2.108  0.9198 -0.3234 -0.4546
   63MOL0     C 8599   5.033  11.913   2.242  0.0142 -1.4841 -0.2903
   63MOL0     C 8600   5.168  11.851   2.287 -0.1506  0.2365 -0.5467
   63MOL0    Cl 8601   5.234  11.920   2.443  0.2625 -0.2436  0.3948
   63MOL0     C 8602   4.173  11.768   2.051  0.1153  0.2763 -0.2004
   63MOL0     C 8603   4.033  11.756   2.056  0.0644  0.4773 -0.1358
   63MOL0     O 8604   3.744  11.822   2.148 -0.2211  0.3069  0.2682
   63MOL0     C 8605   3.647  11.602   1.893  0.6082  1.4385  0.1425
   63MOL0     C 8606   3.572  11.490   1.859 -0.8534  0.0341 -1.0749
   63MOL0     N 8607   2.933  10.973   1.997 -0.7143  0.3338 -0.3506
   63MOL0     N 8608   2.872  10.860   2.007 -0.2257 -0.4117  1.3827
   63MOL0     C 8609   1.692  10.577   2.035 -0.3854 -0.0303  0.3338
   63MOL0     C 8610   1.581  10.499   2.055  0.3783  0.1590  0.4902
   63MOL0     C 8611   1.260  10.234   2.278  0.2208 -0.5213 -0.1718
   63MOL0     C 8612   1.208  10.154   2.389 -0.2585  0.5594  0.0473
   63MOL0     C 8613   1.074  10.116   2.401 -1.2551  0.1801 -0.4752
   63MOL0     C 8614   0.984  10.153   2.305  0.3617 -0.3851 -0.2486
   63MOL0     O 8615   0.847  10.125   2.309  0.1361  0.5709  0.0453
   63MOL0     C 8616   0.764  10.079   2.190 -0.0124 -0.5588  0.1314
   63MOL0     C 8617   0.689   9.949   2.208  0.7569 -0.6634 -0.2757
   63MOL0     C 8618   0.789   9.828   2.230 -0.2106 -1.3534 -0.2186
   63MOL0     C 8619   0.716   9.696   2.275 -1.0262 -0.5004  0.4624
   63MOL0     C 8620   0.628   9.657   2.171  0.0190  0.7228 -0.3023
   63MOL0     C 8621   0.546   9.624   2.084 -0.5956  0.9092  0.3243
   63MOL0     C 8622   1.031  10.233   2.198  0.1743  0.9571 -0.4465
   63MOL0     C 8623   1.161  10.273   2.183 -0.8755  1.0788  0.2609
   63MOL0     C 8624   1.208  10.349   2.054  0.0374 -0.4463 -0.1792
   63MOL0     H 8625   1.612  10.433   2.379 -0.6528 -0.9792 -1.0050
   63MOL0     H 8626   1.804  10.585   2.358 -1.9361  0.7394  1.1390
   63MOL0     H 8627   2.001  10.684   2.286 -4.0296 -0.4103  2.0700
   63MOL0     H 8628   1.889  10.804   2.287 -2.2628 -2.9655  0.9193
   63MOL0     H 8629   2.013  10.934   2.108  0.4570  1.0809  0.3851
   63MOL0     H 8630   2.119  10.889   2.246 -0.8106 -0.4878  0.0688
   63MOL0     H 8631   2.152  10.674   2.082 -3.3353  0.8529  2.1090
   63MOL0     H 8632   2.091  10.798   1.958 -4.9422 -0.8261  1.2740
   63MOL0     H 8633   2.305  10.924   2.029  0.2592 -0.5316 -1.0553
   63MOL0     H 8634   2.350  10.788   2.137  0.7882  3.0032  1.6633
   63MOL0     H 8635   2.331  10.767   1.836  2.7854  1.2310 -0.7499
   63MOL0     H 8636   2.367  10.630   1.940  0.7948 -0.6370  0.1915
   63MOL0     H 8637   2.533  10.874   1.958  0.6688  0.0688 -0.1315
   63MOL0     H 8638   2.570  10.716   2.023 -1.1686 -0.1539  0.2587
   63MOL0     H 8639   2.585  10.832   1.744  2.8113  1.5799  1.1709
   63MOL0     H 8640   2.564  10.655   1.744 -0.5038 -1.5817  2.2278
   63MOL0     H 8641   2.763  10.645   1.911 -0.5308 -0.2912 -0.6635
   63MOL0     H 8642   2.790  10.681   1.742  0.4948 -1.8153  0.5376
   63MOL0     H 8643   2.827  10.936   1.680 -2.1780  1.8977 -0.0466
   63MOL0     H 8644   2.943  11.222   1.850 -1.6100  0.8269 -3.8737
   63MOL0     H 8645   2.992  11.138   1.702 -0.8386 -1.5173 -0.0436
   63MOL0     H 8646   3.168  11.177   1.959 -1.3499  0.5694  0.4961
   63MOL0     H 8647   3.201  11.048   1.852 -0.0920  0.4745  2.1230
   63MOL0     H 8648   3.247  11.191   1.661 -0.4771 -3.0049  1.3519
   63MOL0     H 8649   3.177  11.329   1.761 -0.6647 -1.0619 -2.5774
   63MOL0     H 8650   3.442  11.193   1.807 -0.2772  0.2417  0.5884
   63MOL0     H 8651   3.419  11.333   1.718 -1.7654 -0.5874 -1.0554
   63MOL0     H 8652   3.379  11.478   2.129  1.0057 -2.2705  0.5621
   63MOL0     H 8653   3.424  11.651   2.295 -1.4844  3.1213 -0.9095
   63MOL0     H 8654   3.515  11.786   2.244 -0.8631 -0.0086 -3.3135
   63MOL0     H 8655   3.601  11.640   2.307  0.9084  0.1112 -1.5812
   63MOL0     H 8656   3.955  11.952   1.798  3.0037 -0.0510 -3.0776
   63MOL0     H 8657   4.195  11.980   1.788 -3.9181  1.5357 -0.9568
   63MOL0     H 8658   4.401  11.990   1.807 -0.6711 -1.9679  0.3449
   63MOL0     H 8659   4.388  12.054   1.977  1.1535  1.7280  0.0948
   63MOL0     H 8660   4.618  11.892   1.881  0.3407  0.3361 -0.8205
   63MOL0     H 8661   4.621  12.065   1.873  0.2605 -0.2144  1.1244
   63MOL0     H 8662   4.571  11.923   2.150 -0.5718  0.6177 -0.3144
   63MOL0     H 8663   4.576  12.097   2.120 -1.2697  1.0580 -3.1386
   63MOL0     H 8664   4.784  12.041   2.220 -2.8580  1.1174  0.5112
   63MOL0     H 8665   4.810  12.086   2.056 -1.7096  2.6086  1.5520
   63MOL0     H 8666   4.793  11.804   2.180  2.3838  0.4494  0.7811
   63MOL0     H 8667   4.795  11.813   2.004  1.2908  0.0914 -0.5435
   63MOL0     H 8668   5.032  11.916   2.029  1.2997 -0.7097 -0.5003
   63MOL0     H 8669   5.010  11.755   2.092 -4.8436 -2.0345 -1.4413
   63MOL0     H 8670   4.958  11.894   2.320  0.0037  1.3776  0.4740
   63MOL0     H 8671   5.052  12.019   2.225 -0.5339 -1.0793  1.3805
   63MOL0     H 8672   5.255  11.864   2.222  0.1238  0.9197 -0.0595
   63MOL0     H 8673   5.146  11.744   2.296 -1.4791  0.1341 -3.6930
   63MOL0     H 8674   4.228  11.718   2.131 -1.5097 -2.4886 -0.6919
   63MOL0     H 8675   3.979  11.706   2.135 -2.0154  0.3766 -1.5556
   63MOL0     H 8676   3.717  11.634   1.816  0.0966 -1.8117 -1.8416
   63MOL0     H 8677   3.594  11.439   1.766  1.9923  1.6336 -1.3785
   63MOL0     H 8678   1.701  10.616   1.933 -1.1183 -2.4118 -0.7138
   63MOL0     H 8679   1.510  10.482   1.974  1.5826  1.3072 -0.8646
   63MOL0     H 8680   1.272  10.135   2.475 -2.8281  1.4749  2.3143
   63MOL0     H 8681   1.029  10.075   2.491 -0.8463 -1.1590 -0.8556
   63MOL0     H 8682   0.691  10.157   2.166  0.1219 -0.3756  0.3179
   63MOL0     H 8683   0.839  10.057   2.113  0.8244 -2.3943  1.3885
   63MOL0     H 8684   0.617   9.926   2.130 -1.8329 -0.1534  1.8229
   63MOL0     H 8685   0.626   9.962   2.297 -3.1286 -0.2305 -2.8700
   63MOL0     H 8686   0.846   9.810   2.138  0.3026  0.3059 -0.2513
   63MOL0     H 8687   0.852   9.860   2.312  0.1449 -1.5518 -0.4116
   63MOL0     H 8688   0.650   9.714   2.360 -0.5917  1.2997  0.4483
   63MOL0     H 8689   0.791   9.618   2.295  1.3327  1.9093  1.6674
   63MOL0     H 8690   0.483   9.584   2.007 -1.5731  4.3479 -0.8573
   63MOL0     H 8691   0.963  10.277   2.125 -0.7891 -0.0961 -0.2163
   63MOL0     H 8692   1.125  10.357   1.983  0.1519  0.6755 -0.1961
   63MOL0     H 8693   1.248  10.450   2.067  1.0031 -1.0656  2.0883
   63MOL0     H 8694   1.273  10.279   1.999  1.7234 -0.0083  1.1635
   64MOL0     O 8695   9.021   9.267   8.235 -0.1038 -0.5274 -0.5566
   64MOL0     C 8696   8.943   9.362   8.217 -0.1601 -0.2011 -0.1164
   64MOL0     O 8697   8.986   9.486   8.179  0.4354 -0.6549  0.0860
   64MOL0     C 8698   9.117   9.506   8.190  0.2299 -0.1955  0.0931
   64MOL0     C 8699   9.156   9.572   8.306 -0.1107 -0.3539  0.2306
   64MOL0     C 8700   9.292   9.571   8.342 -0.5553 -0.3603  0.5340
   64MOL0     C 8701   9.395   9.538   8.250 -0.0719 -0.4842  0.4273
   64MOL0     O 8702   9.533   9.551   8.286  0.1572 -0.3748 -0.2972
   64MOL0     C 8703   9.629   9.528   8.192 -0.3344 -0.0124  1.0933
   64MOL0     C 8704   9.764   9.580   8.229  0.7239 -0.8112  0.2815
   64MOL0     C 8705   9.876   9.491   8.180  0.7503 -0.1380  0.0275
   64MOL0     C 8706  10.014   9.525   8.226 -0.2521  0.1782  0.7918
   64MOL0     C 8707  10.126   9.464   8.135 -0.6077 -0.5627 -0.0307
   64MOL0     C 8708  10.178   9.335   8.185  0.1066  0.4064  0.5095
   64MOL0     C 8709  10.288   9.268   8.100  0.1096 -0.3324 -0.0766
   64MOL0     C 8710  10.331   9.130   8.146  0.4037 -1.1843  1.0466
   64MOL0     N 8711  10.385   9.046   8.036 -0.0978  0.6537 -0.5028
   64MOL0     C 8712  10.344   8.923   7.987  0.3714  0.8245  0.0899
   64MOL0     C 8713  10.431   8.889   7.887 -0.7656 -0.0155  0.8478
   64MOL0     C 8714  10.436   8.751   7.812 -0.6418  0.1540 -0.2683
   64MOL0     C 8715  10.516   8.653   7.894  0.0126 -0.0851 -0.2470
   64MOL0     C 8716  10.665   8.686   7.907  1.9247 -0.5202  0.0675
   64MOL0     C 8717  10.747   8.580   7.976  0.5083  0.3154 -0.0653
   64MOL0     O 8718  10.764   8.460   7.900 -0.1682 -0.3965 -0.1816
   64MOL0     C 8719  10.879   8.431   7.833 -0.8099  0.5205 -0.1929
   64MOL0     C 8720  10.932   8.299   7.829  0.5866  0.6220  0.3373
   64MOL0     C 8721  11.046   8.267   7.757 -0.4915  0.3562 -0.2259
   64MOL0     C 8722  11.086   8.127   7.756 -0.6682 -0.6669  0.0925
   64MOL0     C 8723  11.117   8.374   7.687  1.0273 -0.4332 -0.0716
   64MOL0     C 8724  11.251   8.355   7.630  0.4289 -0.8715  0.8449
   64MOL0     O 8725  11.309   8.463   7.596  0.1697 -0.5739 -0.0078
   64MOL0     C 8726  11.384   8.470   7.487 -0.4448  0.2202  0.4882
   64MOL0     C 8727  11.493   8.555   7.494  0.6128 -0.0042  1.0216
   64MOL0     C 8728  11.581   8.581   7.382  0.9515 -0.0800 -0.2742
   64MOL0     C 8729  11.550   8.530   7.256 -0.0470 -0.9216 -0.7792
   64MOL0     O 8730  11.626   8.554   7.145 -0.2941  0.3590 -0.1248
   64MOL0     C 8731  11.768   8.559   7.160 -0.4091 -0.2605  0.0779
   64MOL0     C 8732  11.838   8.530   7.027 -0.2915  0.4400  0.0676
   64MOL0     C 8733  11.790   8.603   6.903  0.2107  0.7365  0.0373
   64MOL0     C 8734  11.853   8.545   6.773 -0.6936 -0.0940  0.0144
   64MOL0     C 8735  11.808   8.623   6.646 -0.4405  0.0617  0.1485
   64MOL0     C 8736  11.757   8.531   6.539 -0.0635  0.7207 -0.3585
   64MOL0     C 8737  11.713   8.610   6.409 -0.2227 -0.3011 -0.6055
   64MOL0     C 8738  11.620   8.538   6.309  0.7335  0.6937  0.1128
   64MOL0    Cl 8739  11.676   8.366   6.270  0.0200 -0.1560  0.2776
   64MOL0     C 8740  11.433   8.451   7.244 -0.0674  0.9507  0.4072
   64MOL0     C 8741  11.354   8.424   7.357  0.4378  0.3721 -0.7501
   64MOL0     O 8742  11.295   8.242   7.608 -0.0410 -0.1754 -0.5473
   64MOL0     C 8743  11.058   8.504   7.699 -0.4581  0.9240 -0.1944
   64MOL0     C 8744  10.950   8.528   7.773  0.7894  0.0186 -0.4264
   64MOL0     N 8745  10.524   8.991   7.873 -1.5561 -0.2109  0.2173
   64MOL0     N 8746  10.495   9.079   7.966 -0.0186  0.2013  0.8142
   64MOL0     C 8747   9.353   9.491   8.128  0.6850 -0.2484 -0.7092
   64MOL0     C 8748   9.216   9.464   8.101 -0.1263 -0.6275 -0.0226
   64MOL0     C 8749   8.791   9.323   8.219 -0.5984  0.3253  0.1317
   64MOL0     C 8750   8.753   9.197   8.258  0.3145 -0.9232 -0.7730
   64MOL0     C 8751   8.616   9.165   8.276  0.0422 -0.1227  1.1937
   64MOL0     C 8752   8.518   9.259   8.254 -0.2125 -0.2229 -0.1087
   64MOL0     O 8753   8.392   9.218   8.298  0.6190  0.5811  0.6638
   64MOL0     C 8754   8.286   9.318   8.300 -0.2654  0.3353 -0.5697
   64MOL0     C 8755   8.219   9.331   8.167  0.6959  0.5042 -0.2344
   64MOL0     C 8756   8.125   9.214   8.126  0.7550  0.3830  0.3752
   64MOL0     C 8757   8.192   9.077   8.096 -0.5157  0.4494  0.1944
   64MOL0     C 8758   8.090   8.978   8.054 -0.2498 -0.5810  0.3692
   64MOL0     C 8759   8.007   8.899   8.011 -0.5758 -0.3219 -0.3157
   64MOL0     C 8760   8.552   9.391   8.219 -0.5829  0.1859 -0.7277
   64MOL0     C 8761   8.696   9.417   8.197  1.1880  0.2754 -0.0699
   64MOL0     C 8762   8.717   9.557   8.148  0.5222 -1.3484 -0.4614
   64MOL0     H 8763   9.088   9.624   8.374 -0.9344 -1.3129  0.1551
   64MOL0     H 8764   9.322   9.598   8.443 -1.4339 -2.4260  1.4181
   64MOL0     H 8765   9.609   9.572   8.093 -1.8794  0.1938  1.4652
   64MOL0     H 8766   9.631   9.419   8.182 -1.9696 -0.1211  1.6770
   64MOL0     H 8767   9.776   9.679   8.185 -0.8380 -0.0237  1.5314
   64MOL0     H 8768   9.775   9.586   8.338 -1.3745  0.7896  0.4469
   64MOL0     H 8769   9.855   9.393   8.223  0.4934  0.1530  0.5685
   64MOL0     H 8770   9.871   9.469   8.073 -1.5351 -3.2518  0.6328
   64MOL0     H 8771  10.034   9.632   8.219 -0.2164  0.1432  0.3326
   64MOL0     H 8772  10.030   9.505   8.332  1.3669  4.3609  1.5397
   64MOL0     H 8773  10.211   9.532   8.135  1.3175 -2.8195 -1.0779
   64MOL0     H 8774  10.092   9.465   8.031 -0.8296 -0.1235  0.0416
   64MOL0     H 8775  10.212   9.354   8.287  0.9578  0.9275  0.1311
   64MOL0     H 8776  10.090   9.271   8.195  1.3767 -1.6599 -0.9262
   64MOL0     H 8777  10.370   9.340   8.095 -0.7094  0.5761 -3.7572
   64MOL0     H 8778  10.255   9.259   7.996  1.1370 -1.3539 -0.3344
   64MOL0     H 8779  10.404   9.139   8.227  1.3224 -0.9286  0.1994
   64MOL0     H 8780  10.236   9.093   8.186 -0.8294  0.8624  0.1491
   64MOL0     H 8781  10.266   8.853   8.016  1.3429 -0.8720 -1.1852
   64MOL0     H 8782  10.483   8.760   7.714 -1.8190 -1.2846 -1.0240
   64MOL0     H 8783  10.333   8.714   7.811 -0.5945 -0.1330  1.5975
   64MOL0     H 8784  10.478   8.660   7.996  1.5108  1.6766  0.2432
   64MOL0     H 8785  10.495   8.555   7.851 -1.1135 -0.6176  1.4316
   64MOL0     H 8786  10.699   8.709   7.806 -0.0810  3.3246  0.0729
   64MOL0     H 8787  10.669   8.774   7.972 -1.1315  0.5528 -1.0007
   64MOL0     H 8788  10.847   8.617   7.999  0.6166 -0.0668  0.0729
   64MOL0     H 8789  10.704   8.551   8.072  0.2860 -1.7311 -0.7513
   64MOL0     H 8790  10.879   8.219   7.880  0.1992  0.9203  0.4133
   64MOL0     H 8791  11.075   8.101   7.650 -3.6152  1.3443 -0.2175
   64MOL0     H 8792  11.019   8.059   7.809 -0.9975 -1.3589 -1.1565
   64MOL0     H 8793  11.187   8.113   7.795 -0.7351  1.2110  1.0360
   64MOL0     H 8794  11.516   8.595   7.593 -2.3587  1.9551  1.0429
   64MOL0     H 8795  11.672   8.636   7.405  0.7625 -0.5429  1.8286
   64MOL0     H 8796  11.798   8.658   7.196 -0.0602  0.0028 -0.9205
   64MOL0     H 8797  11.793   8.482   7.233  0.1328  0.5689  0.7930
   64MOL0     H 8798  11.945   8.551   7.040 -0.4405  1.7372 -0.6107
   64MOL0     H 8799  11.837   8.421   7.019  2.5793  0.1542  1.8856
   64MOL0     H 8800  11.806   8.710   6.917 -1.2593  0.5813  4.3712
   64MOL0     H 8801  11.684   8.579   6.891  0.4046 -0.2143  0.1630
   64MOL0     H 8802  11.823   8.439   6.774 -0.4850 -0.2720  4.0310
   64MOL0     H 8803  11.961   8.543   6.792 -0.7699 -1.9762  0.5275
   64MOL0     H 8804  11.728   8.696   6.666 -2.1694 -1.4882 -0.8090
   64MOL0     H 8805  11.897   8.682   6.621  0.2087  0.1169  2.3834
   64MOL0     H 8806  11.667   8.480   6.576  0.7157  0.6082  1.4773
   64MOL0     H 8807  11.831   8.456   6.511 -1.0520 -1.2744  1.9755
   64MOL0     H 8808  11.805   8.643   6.360 -0.1628  2.2783  1.0549
   64MOL0     H 8809  11.660   8.702   6.435 -0.7418 -1.2539  2.0313
   64MOL0     H 8810  11.611   8.599   6.218 -2.9033  0.8465  0.3980
   64MOL0     H 8811  11.523   8.531   6.360  1.4183  0.7406  1.4487
   64MOL0     H 8812  11.406   8.420   7.144  1.6620  1.2868 -0.2094
   64MOL0     H 8813  11.269   8.357   7.347 -0.0810  0.7507  0.9007
   64MOL0     H 8814  11.102   8.585   7.643 -0.3229  0.2243 -1.1257
   64MOL0     H 8815  10.910   8.629   7.764 -1.6591 -0.9548 -1.0218
   64MOL0     H 8816   9.428   9.463   8.055 -2.2695 -0.3941 -3.9433
   64MOL0     H 8817   9.195   9.400   8.016  2.1263 -1.1581 -0.2347
   64MOL0     H 8818   8.827   9.118   8.273 -0.5169 -1.3340  1.8034
   64MOL0     H 8819   8.589   9.066   8.311 -1.8654  0.0100  0.2305
   64MOL0     H 8820   8.217   9.290   8.380 -0.8554  1.4654 -0.6614
   64MOL0     H 8821   8.330   9.413   8.332  0.1006 -0.0931  0.2272
   64MOL0     H 8822   8.296   9.351   8.092 -1.2947 -0.3880 -2.6703
   64MOL0     H 8823   8.160   9.423   8.167 -1.4577 -0.7989 -0.8749
   64MOL0     H 8824   8.057   9.183   8.206  1.7410 -3.9512 -0.1921
   64MOL0     H 8825   8.074   9.242   8.033 -0.6249 -3.0116 -0.0690
   64MOL0     H 8826   8.243   9.039   8.185 -2.5937  0.6528  1.5061
   64MOL0     H 8827   8.255   9.096   8.008  0.1205  0.9610  0.7503
   64MOL0     H 8828   7.935   8.828   7.975 -0.2406 -0.7248 -0.2046
   64MOL0     H 8829   8.482   9.474   8.211 -2.1074 -0.9973 -0.1328
   64MOL0     H 8830   8.778   9.608   8.223  0.5774 -1.2734 -0.5569
   64MOL0     H 8831   8.770   9.565   8.053  0.2245  1.2795 -0.4643
   64MOL0     H 8832   8.627   9.618   8.136  2.5013  2.3244  1.6510
   65MOL0     O 8833   4.256   5.172   4.399 -0.6397  0.2968 -0.0339
   65MOL0     C 8834   4.139   5.141   4.363  1.2776 -0.7214 -0.0751
   65MOL0     O 8835   4.115   5.051   4.265 -0.0310 -0.5706  0.0975
   65MOL0     C 8836   4.215   4.983   4.202 -0.5355 -0.4157  0.0917
   65MOL0     C 8837   4.281   4.868   4.239 -0.0448  1.1314  0.0885
   65MOL0     C 8838   4.368   4.805   4.144  0.9795  0.4558  0.8594
   65MOL0     C 8839   4.400   4.862   4.019  0.2061  1.2199 -0.4427
   65MOL0     O 8840   4.495   4.808   3.941  0.4554  0.3788  0.1829
   65MOL0     C 8841   4.617   4.777   4.009  0.2570 -0.7886 -0.3811
   65MOL0     C 8842   4.649   4.632   3.986 -0.4049 -0.2238 -0.4249
   65MOL0     C 8843   4.694   4.594   3.842  0.2050  0.1591  0.7247
   65MOL0     C 8844   4.799   4.481   3.834  0.3391  0.4643  0.0248
   65MOL0     C 8845   4.863   4.483   3.695  0.8258  0.9982  0.1284
   65MOL0     C 8846   4.971   4.381   3.680 -0.4868 -0.0497 -0.1583
   65MOL0     C 8847   5.000   4.364   3.532  0.5609  0.7318  0.0211
   65MOL0     C 8848   5.095   4.253   3.517 -0.0216 -0.9210 -0.0859
   65MOL0     N 8849   5.142   4.240   3.376  0.3845 -0.2502  0.4641
   65MOL0     C 8850   5.219   4.131   3.351 -0.3664 -0.0806  0.3584
   65MOL0     C 8851   5.255   4.145   3.221  0.2312 -0.6037  0.1999
   65MOL0     C 8852   5.339   4.055   3.139  0.6589 -0.0276 -0.5795
   65MOL0     C 8853   5.492   4.058   3.156 -0.8545  0.4525 -0.6354
   65MOL0     C 8854   5.545   4.185   3.225 -0.4561 -0.0161 -0.1429
   65MOL0     C 8855   5.696   4.183   3.224 -0.0366  0.6039 -0.2618
   65MOL0     O 8856   5.734   4.118   3.344  0.0930 -0.1001 -0.0724
   65MOL0     C 8857   5.867   4.102   3.369 -0.0913 -0.3572  0.4039
   65MOL0     C 8858   5.977   4.172   3.310  0.2851  0.9683 -0.0773
   65MOL0     C 8859   6.109   4.134   3.333 -0.7321 -0.5815  0.1915
   65MOL0     C 8860   6.217   4.206   3.256 -0.6747  0.1183  1.0400
   65MOL0     C 8861   6.136   4.045   3.438  0.2999  0.9240  0.6422
   65MOL0     C 8862   6.274   3.987   3.467 -0.8249 -1.3867  0.5614
   65MOL0     O 8863   6.295   3.942   3.593 -0.0016  0.2065 -0.3660
   65MOL0     C 8864   6.416   3.905   3.635 -0.0715 -0.0926 -0.1595
   65MOL0     C 8865   6.431   3.789   3.710  0.0096 -0.5408 -0.0852
   65MOL0     C 8866   6.555   3.745   3.738 -0.2537 -1.3929 -0.5454
   65MOL0     C 8867   6.673   3.814   3.702  0.8483  0.5484 -0.1021
   65MOL0     O 8868   6.802   3.776   3.725  0.1816 -0.0793  0.1678
   65MOL0     C 8869   6.819   3.630   3.730  0.1132 -0.4319  0.1996
   65MOL0     C 8870   6.965   3.572   3.715 -0.1091 -0.4270  0.7556
   65MOL0     C 8871   6.983   3.442   3.784  1.3056 -0.1467 -0.0346
   65MOL0     C 8872   7.135   3.402   3.797 -0.6101  0.4431 -0.3307
   65MOL0     C 8873   7.141   3.254   3.839 -0.8875 -1.1273  0.1352
   65MOL0     C 8874   7.291   3.217   3.855  0.9921  0.0997  0.2245
   65MOL0     C 8875   7.304   3.068   3.896  0.6654 -0.1378 -0.3937
   65MOL0     C 8876   7.430   2.985   3.855 -0.0806 -0.0909  0.2778
   65MOL0    Cl 8877   7.556   3.049   3.981 -0.0380  0.6796  0.2134
   65MOL0     C 8878   6.655   3.938   3.628  0.1221 -0.0885  0.0247
   65MOL0     C 8879   6.529   3.981   3.597 -1.1875 -0.2713  0.5925
   65MOL0     O 8880   6.354   3.973   3.376 -0.0128 -0.2859 -1.0230
   65MOL0     C 8881   6.024   3.986   3.508 -0.0566  0.5114  0.1313
   65MOL0     C 8882   5.893   4.018   3.472 -0.5824  0.3158 -0.1324
   65MOL0     N 8883   5.199   4.264   3.170 -0.2470 -0.2429 -0.2526
   65MOL0     N 8884   5.128   4.317   3.266 -0.3604 -0.3120 -0.1867
   65MOL0     C 8885   4.343   4.981   3.986 -0.2723  0.3667  0.3158
   65MOL0     C 8886   4.256   5.042   4.073 -0.3685 -0.1707  0.7750
   65MOL0     C 8887   4.024   5.230   4.409 -0.0548  0.5161  0.6602
   65MOL0     C 8888   4.037   5.312   4.522  0.7791 -0.4295  0.2174
   65MOL0     C 8889   3.939   5.411   4.543 -0.4201  0.2428  0.0051
   65MOL0     C 8890   3.835   5.436   4.451  0.0966  0.9679  0.7394
   65MOL0     O 8891   3.736   5.528   4.455  0.0496 -0.5291  0.1669
   65MOL0     C 8892   3.745   5.620   4.558 -0.0946  0.6687 -0.0495
   65MOL0     C 8893   3.619   5.711   4.552  0.0496  0.2101 -0.7394
   65MOL0     C 8894   3.597   5.781   4.417 -0.3553  0.4187 -0.3209
   65MOL0     C 8895   3.474   5.879   4.429 -0.1336 -0.8488  0.6358
   65MOL0     C 8896   3.492   5.988   4.518 -0.6695 -0.1220 -0.8249
   65MOL0     C 8897   3.507   6.091   4.584  0.3022 -0.1983  0.0450
   65MOL0     C 8898   3.817   5.353   4.341 -0.1660  0.4384  0.2340
   65MOL0     C 8899   3.909   5.251   4.320 -0.7443  0.5634  0.7695
   65MOL0     C 8900   3.886   5.173   4.189  0.2424 -0.4751  0.0998
   65MOL0     H 8901   4.245   4.811   4.324 -0.4078  1.1850 -0.0269
   65MOL0     H 8902   4.398   4.704   4.170  3.1823 -0.0123 -2.8430
   65MOL0     H 8903   4.602   4.804   4.114 -1.0177 -1.7370 -0.2958
   65MOL0     H 8904   4.689   4.842   3.958  2.4402 -2.1844  0.7840
   65MOL0     H 8905   4.741   4.621   4.045 -1.0722  0.2083  0.7250
   65MOL0     H 8906   4.566   4.570   4.021  0.5884 -0.3955  1.7704
   65MOL0     H 8907   4.602   4.562   3.792 -0.5346  0.3770  1.8963
   65MOL0     H 8908   4.740   4.679   3.792  0.9339  0.9758  2.6705
   65MOL0     H 8909   4.868   4.493   3.918  1.3116  0.0447 -0.6955
   65MOL0     H 8910   4.753   4.385   3.859  4.5010 -1.0041  3.3913
   65MOL0     H 8911   4.904   4.584   3.684  0.9952  0.8546 -0.6411
   65MOL0     H 8912   4.783   4.467   3.623  0.1673  0.8886  0.8796
   65MOL0     H 8913   5.045   4.415   3.753 -3.0609  0.9563  2.1460
   65MOL0     H 8914   4.931   4.288   3.721  0.5490 -1.2627 -1.7612
   65MOL0     H 8915   5.028   4.459   3.488  2.1037  0.8135  1.0871
   65MOL0     H 8916   4.904   4.335   3.488  0.5739  0.4344  0.1830
   65MOL0     H 8917   5.182   4.277   3.579  0.5082 -1.0029 -0.7984
   65MOL0     H 8918   5.065   4.156   3.558 -2.1559 -0.1966  0.1908
   65MOL0     H 8919   5.242   4.043   3.410 -2.0343  1.3304  3.3514
   65MOL0     H 8920   5.316   4.065   3.033  1.1790 -1.5340 -0.8656
   65MOL0     H 8921   5.310   3.952   3.164  2.4201 -0.3027  0.5530
   65MOL0     H 8922   5.525   3.974   3.218 -2.1498  1.3955  1.4745
   65MOL0     H 8923   5.529   4.052   3.053 -1.9353  1.1034 -1.0769
   65MOL0     H 8924   5.508   4.273   3.170  1.0472  1.6171  1.3355
   65MOL0     H 8925   5.511   4.208   3.327 -0.3682  0.7236 -0.2745
   65MOL0     H 8926   5.735   4.127   3.138 -2.3556  1.6064 -2.0826
   65MOL0     H 8927   5.723   4.289   3.215 -4.1941  1.7797 -0.8488
   65MOL0     H 8928   5.948   4.234   3.226  0.0437 -0.6125 -1.1987
   65MOL0     H 8929   6.291   4.238   3.329  0.0788 -1.3939  0.9837
   65MOL0     H 8930   6.185   4.300   3.210 -1.7662 -1.4046 -1.5488
   65MOL0     H 8931   6.259   4.145   3.175  0.3959  1.7321  0.3345
   65MOL0     H 8932   6.349   3.727   3.744  1.8547 -2.4948  1.0883
   65MOL0     H 8933   6.580   3.665   3.807 -0.9107 -0.0509  1.3482
   65MOL0     H 8934   6.780   3.589   3.823  0.1775 -0.6693  0.1236
   65MOL0     H 8935   6.755   3.582   3.655 -1.5921 -1.5278  2.2575
   65MOL0     H 8936   7.001   3.581   3.612 -0.2271 -0.0813  0.7413
   65MOL0     H 8937   7.026   3.642   3.772  0.4784 -0.1982 -0.1372
   65MOL0     H 8938   6.929   3.366   3.728 -1.9644  1.2956  0.9439
   65MOL0     H 8939   6.941   3.444   3.885 -1.2185  2.1363 -1.0058
   65MOL0     H 8940   7.176   3.471   3.870 -3.2967  1.5317  0.2706
   65MOL0     H 8941   7.190   3.411   3.703 -1.2586 -0.7897 -0.8460
   65MOL0     H 8942   7.089   3.249   3.935 -0.6968 -2.5984  0.1859
   65MOL0     H 8943   7.091   3.209   3.752 -0.0634 -0.8810 -0.4779
   65MOL0     H 8944   7.329   3.282   3.935  1.1700 -1.4246  1.4246
   65MOL0     H 8945   7.340   3.233   3.759 -0.1388  2.4883 -0.0250
   65MOL0     H 8946   7.211   3.016   3.874  0.3014 -0.4003  1.6251
   65MOL0     H 8947   7.298   3.056   4.004  0.9225 -0.3498 -0.4015
   65MOL0     H 8948   7.456   2.996   3.749 -0.1804  0.6265  0.3194
   65MOL0     H 8949   7.425   2.877   3.869  3.1999 -0.2762  0.6873
   65MOL0     H 8950   6.743   3.995   3.602 -0.0341  0.1870  0.0903
   65MOL0     H 8951   6.515   4.073   3.542 -0.5810  1.4850  3.1679
   65MOL0     H 8952   6.046   3.897   3.567  1.6225 -0.0279 -1.2174
   65MOL0     H 8953   5.801   3.973   3.508 -0.7863 -0.2872 -1.3419
   65MOL0     H 8954   4.373   5.040   3.900  2.4028 -0.8248  0.3154
   65MOL0     H 8955   4.218   5.139   4.042  3.8752  0.8217 -2.1206
   65MOL0     H 8956   4.123   5.297   4.586 -0.7144  2.2992  3.1472
   65MOL0     H 8957   3.956   5.482   4.623 -0.1739 -1.2788  1.3706
   65MOL0     H 8958   3.761   5.570   4.654  1.7986 -3.5262 -2.2806
   65MOL0     H 8959   3.833   5.684   4.544  0.1275  1.2118  3.1107
   65MOL0     H 8960   3.636   5.779   4.636 -1.6389 -1.9628  1.4727
   65MOL0     H 8961   3.532   5.649   4.570 -0.9811  1.4771 -1.2049
   65MOL0     H 8962   3.682   5.838   4.377 -0.8982  2.3274  1.1249
   65MOL0     H 8963   3.577   5.698   4.349  4.1083 -0.0251 -1.4636
   65MOL0     H 8964   3.393   5.814   4.464 -0.2284 -2.3584 -2.0933
   65MOL0     H 8965   3.464   5.918   4.327  1.2220 -4.6821 -1.1661
   65MOL0     H 8966   3.511   6.183   4.638 -0.9323 -0.6415  0.9414
   65MOL0     H 8967   3.738   5.364   4.267 -0.1502 -2.5725 -0.3280
   65MOL0     H 8968   3.880   5.065   4.207  0.3261 -0.2817  1.4034
   65MOL0     H 8969   3.798   5.209   4.137  1.1326  1.4687 -0.1284
   65MOL0     H 8970   3.960   5.193   4.111 -0.4582 -1.6026 -0.8909
   66MOL0     O 8971   3.785   0.332   5.133 -0.2639  0.4390  0.6487
   66MOL0     C 8972   3.841   0.296   5.236 -1.3214 -0.4930  0.4595
   66MOL0     O 8973   3.847   0.168   5.282 -0.0352  0.6828  0.6842
   66MOL0     C 8974   3.796   0.068   5.197 -0.2062  0.1210 -0.2506
   66MOL0     C 8975   3.671   0.010   5.219 -0.2880 -0.2911 -0.3669
   66MOL0     C 8976   3.639  -0.108   5.150 -0.4828 -0.4416 -0.0286
   66MOL0     C 8977   3.718  -0.170   5.059 -0.3257  0.0215 -0.2772
   66MOL0     O 8978   3.679  -0.283   4.996  0.6644  0.8597 -0.3971
   66MOL0     C 8979   3.596  -0.372   5.077  0.1849  0.5087  0.2213
   66MOL0     C 8980   3.612  -0.514   5.038 -0.1833  0.4299 -0.5308
   66MOL0     C 8981   3.742  -0.576   5.087 -0.0344  0.7206 -0.0672
   66MOL0     C 8982   3.868  -0.490   5.112  0.0566  0.2599  0.1465
   66MOL0     C 8983   3.989  -0.583   5.145  1.0060  0.4789  0.6486
   66MOL0     C 8984   4.128  -0.511   5.118 -0.2422  0.3737 -0.0829
   66MOL0     C 8985   4.237  -0.615   5.165 -0.0548  0.4932  0.3526
   66MOL0     C 8986   4.348  -0.656   5.059  0.8118  0.3584 -1.1045
   66MOL0     N 8987   4.438  -0.539   5.021  1.4861  0.1649  0.1152
   66MOL0     C 8988   4.488  -0.439   5.109  0.1454  0.1393  0.1844
   66MOL0     C 8989   4.588  -0.392   5.030 -0.5361 -0.1484  0.2170
   66MOL0     C 8990   4.692  -0.302   5.083  0.2700 -0.0749  0.5359
   66MOL0     C 8991   4.740  -0.338   5.219  0.0057  0.3393  0.2097
   66MOL0     C 8992   4.855  -0.236   5.266 -0.7442 -0.0333 -0.0825
   66MOL0     C 8993   4.941  -0.308   5.368 -0.7567  0.1593  0.0485
   66MOL0     O 8994   5.039  -0.212   5.413  0.0954 -0.3156 -0.0015
   66MOL0     C 8995   5.168  -0.210   5.353 -0.1850  0.1314  0.3889
   66MOL0     C 8996   5.205  -0.255   5.224  0.7782  0.9319 -0.0668
   66MOL0     C 8997   5.332  -0.245   5.164 -0.0043 -0.2335 -1.2116
   66MOL0     C 8998   5.357  -0.275   5.015  0.3819 -0.7234 -0.3777
   66MOL0     C 8999   5.435  -0.219   5.249 -0.3898 -0.1662 -1.1495
   66MOL0     C 9000   5.578  -0.247   5.218 -0.3741  0.3638 -0.8676
   66MOL0     O 9001   5.661  -0.239   5.329 -1.1367  0.0569  1.0802
   66MOL0     C 9002   5.793  -0.272   5.309  0.3868 -0.8628  0.7881
   66MOL0     C 9003   5.888  -0.180   5.275  0.4765 -0.5625 -0.8307
   66MOL0     C 9004   6.021  -0.223   5.259  1.1960 -0.4810 -0.3199
   66MOL0     C 9005   6.058  -0.354   5.291  0.8556 -0.0279 -0.2802
   66MOL0     O 9006   6.189  -0.388   5.275 -0.2335 -0.0943 -0.3552
   66MOL0     C 9007   6.240  -0.524   5.310 -0.4214  0.3652 -0.0286
   66MOL0     C 9008   6.386  -0.535   5.275  0.1398 -0.3271 -0.4958
   66MOL0     C 9009   6.466  -0.439   5.353 -0.0808 -0.8502 -0.0132
   66MOL0     C 9010   6.621  -0.473   5.344  0.8960 -0.3278  0.1103
   66MOL0     C 9011   6.703  -0.382   5.429 -0.5345 -0.3557  0.7547
   66MOL0     C 9012   6.851  -0.426   5.428  0.2784  0.3457 -0.0347
   66MOL0     C 9013   6.921  -0.392   5.293 -1.1342  0.5857  0.4374
   66MOL0     C 9014   7.033  -0.488   5.260 -0.1924  0.1718 -0.4349
   66MOL0    Cl 9015   7.162  -0.460   5.386 -0.0228 -0.1490 -0.1661
   66MOL0     C 9016   5.958  -0.445   5.324 -0.5262 -0.1061  0.5747
   66MOL0     C 9017   5.825  -0.405   5.345 -0.2286  0.7780  0.6351
   66MOL0     O 9018   5.620  -0.259   5.105  0.2733  0.2419 -0.3206
   66MOL0     C 9019   5.404  -0.171   5.383 -0.8412 -0.4065  0.4120
   66MOL0     C 9020   5.274  -0.157   5.424  0.5301  0.3186 -0.4750
   66MOL0     N 9021   4.587  -0.442   4.901 -0.4448 -0.0674  0.0117
   66MOL0     N 9022   4.504  -0.530   4.899  0.7174  0.3969  0.3141
   66MOL0     C 9023   3.840  -0.099   5.027 -0.5756  0.5137  0.1700
   66MOL0     C 9024   3.876   0.016   5.096 -0.4071  0.5682  0.1936
   66MOL0     C 9025   3.925   0.393   5.308 -0.7137 -0.1561 -0.0320
   66MOL0     C 9026   4.042   0.340   5.366  0.5278  0.0764  0.7182
   66MOL0     C 9027   4.148   0.420   5.412  0.5567  0.4221 -0.0385
   66MOL0     C 9028   4.126   0.561   5.425  0.0915  0.0742 -0.7037
   66MOL0     O 9029   4.206   0.643   5.500 -0.2020 -0.0084  0.1670
   66MOL0     C 9030   4.339   0.603   5.532  0.2799  0.0549  0.5207
   66MOL0     C 9031   4.421   0.718   5.576 -0.0138 -0.0380  0.2828
   66MOL0     C 9032   4.421   0.832   5.473 -0.4759  0.3252  0.8687
   66MOL0     C 9033   4.482   0.960   5.524  0.3375  0.0865 -0.8678
   66MOL0     C 9034   4.630   0.950   5.534 -0.0578 -0.6129  0.6701
   66MOL0     C 9035   4.747   0.922   5.547  0.4539  0.1390 -0.6186
   66MOL0     C 9036   4.003   0.609   5.396 -0.1447 -0.2155  1.1145
   66MOL0     C 9037   3.904   0.529   5.330 -0.1025 -1.2098 -0.1542
   66MOL0     C 9038   3.775   0.600   5.285  0.6555  0.7244  0.5641
   66MOL0     H 9039   3.602   0.059   5.287 -1.4475 -0.0894 -1.6336
   66MOL0     H 9040   3.550  -0.164   5.178  0.4209 -1.6056  0.6419
   66MOL0     H 9041   3.489  -0.350   5.065  0.7178  4.9740  1.6308
   66MOL0     H 9042   3.624  -0.361   5.182 -0.3956 -0.4748  0.4928
   66MOL0     H 9043   3.522  -0.549   5.090 -0.2113  1.6847  0.3016
   66MOL0     H 9044   3.596  -0.544   4.934  1.5112  0.5625 -0.8577
   66MOL0     H 9045   3.725  -0.626   5.182 -1.0882  0.4850 -0.3644
   66MOL0     H 9046   3.763  -0.661   5.021  0.7656 -0.1001  1.2136
   66MOL0     H 9047   3.883  -0.434   5.020 -0.3705 -2.1530 -1.4895
   66MOL0     H 9048   3.857  -0.417   5.193  1.7832  0.8295 -0.0746
   66MOL0     H 9049   3.977  -0.670   5.081  0.7665 -0.5065  1.9995
   66MOL0     H 9050   3.990  -0.613   5.250 -1.0075 -3.7998 -0.3251
   66MOL0     H 9051   4.143  -0.487   5.012 -0.6091 -2.7668 -0.9501
   66MOL0     H 9052   4.135  -0.422   5.180 -1.1986  0.5462 -0.2139
   66MOL0     H 9053   4.184  -0.699   5.210 -1.5329  1.4063  0.3775
   66MOL0     H 9054   4.290  -0.569   5.249  0.9734  0.0298 -0.0258
   66MOL0     H 9055   4.412  -0.734   5.101 -0.4934 -0.0434  0.2013
   66MOL0     H 9056   4.307  -0.709   4.972 -0.1280 -0.2541 -0.3105
   66MOL0     H 9057   4.470  -0.418   5.214 -1.0413 -0.7001  0.1668
   66MOL0     H 9058   4.654  -0.200   5.090 -0.4923 -0.4571  2.6866
   66MOL0     H 9059   4.779  -0.300   5.017  1.3940 -0.3653  1.9415
   66MOL0     H 9060   4.656  -0.323   5.286 -0.2068 -2.2708  0.6231
   66MOL0     H 9061   4.768  -0.441   5.240  2.6421  0.9419  0.0308
   66MOL0     H 9062   4.923  -0.206   5.186 -0.0442  1.5414  1.0561
   66MOL0     H 9063   4.803  -0.150   5.309 -1.6253 -1.0446  0.9395
   66MOL0     H 9064   4.885  -0.334   5.459  0.2408 -0.5116  0.4867
   66MOL0     H 9065   4.986  -0.396   5.322  0.0744 -0.4150  1.8512
   66MOL0     H 9066   5.120  -0.288   5.165 -0.9431  3.2011  1.0189
   66MOL0     H 9067   5.262  -0.296   4.964  0.1301 -0.9781  0.1855
   66MOL0     H 9068   5.422  -0.361   4.993  2.9006  0.5850  1.4730
   66MOL0     H 9069   5.384  -0.184   4.960 -0.4688 -1.6408 -2.4358
   66MOL0     H 9070   5.862  -0.075   5.272 -0.2686 -0.6460  0.9272
   66MOL0     H 9071   6.090  -0.144   5.231 -1.6623  2.4011  0.2584
   66MOL0     H 9072   6.232  -0.535   5.419 -1.2969 -3.1491 -0.3197
   66MOL0     H 9073   6.190  -0.603   5.253 -0.2438 -0.6626  1.1842
   66MOL0     H 9074   6.432  -0.632   5.295  2.3495  0.6116 -0.7093
   66MOL0     H 9075   6.397  -0.517   5.167 -2.7502 -3.0475 -1.4016
   66MOL0     H 9076   6.431  -0.429   5.456 -0.8769  1.2867 -0.4313
   66MOL0     H 9077   6.461  -0.338   5.311  1.8514  0.5738  2.8037
   66MOL0     H 9078   6.649  -0.463   5.239 -0.6065 -0.2895 -0.3127
   66MOL0     H 9079   6.636  -0.576   5.379  1.9828  0.1142  1.0073
   66MOL0     H 9080   6.688  -0.276   5.404 -0.4135 -0.3972  0.4958
   66MOL0     H 9081   6.670  -0.396   5.532 -0.6193  2.2423  1.1528
   66MOL0     H 9082   6.858  -0.533   5.453  1.7048  0.5779  0.6697
   66MOL0     H 9083   6.904  -0.369   5.505  0.8193  0.5210 -0.5363
   66MOL0     H 9084   6.955  -0.289   5.295  0.3640  0.1086  2.9988
   66MOL0     H 9085   6.846  -0.398   5.213  0.3198 -1.9490 -0.8585
   66MOL0     H 9086   7.088  -0.460   5.169 -0.7231  1.3963 -0.3967
   66MOL0     H 9087   7.004  -0.593   5.255 -3.8559  1.0438  0.2354
   66MOL0     H 9088   5.981  -0.551   5.334  2.0075  0.2254 -0.7993
   66MOL0     H 9089   5.749  -0.478   5.370 -0.8558  1.4588  0.7313
   66MOL0     H 9090   5.482  -0.142   5.452  2.0312 -2.5123 -1.6803
   66MOL0     H 9091   5.248  -0.119   5.523 -1.1604  1.7142 -1.3914
   66MOL0     H 9092   3.904  -0.145   4.953 -1.8493  1.1472 -1.3840
   66MOL0     H 9093   3.968   0.070   5.077 -1.2336  1.5953 -1.0431
   66MOL0     H 9094   4.051   0.232   5.359 -2.6813 -0.2879  0.4617
   66MOL0     H 9095   4.240   0.377   5.449  0.5087  0.4939  0.1676
   66MOL0     H 9096   4.330   0.524   5.607  1.3220 -0.1844  0.4058
   66MOL0     H 9097   4.383   0.553   5.445 -0.5739  0.2374 -0.0323
   66MOL0     H 9098   4.519   0.672   5.595  1.3924  1.9818 -1.6619
   66MOL0     H 9099   4.381   0.752   5.672 -1.6725  1.1908 -0.8018
   66MOL0     H 9100   4.482   0.810   5.385 -2.4547  0.8039 -0.6962
   66MOL0     H 9101   4.321   0.860   5.438 -0.2493 -1.8567 -1.9128
   66MOL0     H 9102   4.438   0.982   5.622  1.0283  0.1597 -0.5674
   66MOL0     H 9103   4.453   1.048   5.466  0.0574  0.7219  0.2111
   66MOL0     H 9104   4.841   0.870   5.544  0.3625 -0.0234 -0.6771
   66MOL0     H 9105   3.967   0.711   5.401 -2.0592 -0.7035 -0.9567
   66MOL0     H 9106   3.784   0.708   5.272 -4.2145  1.5353  2.0747
   66MOL0     H 9107   3.727   0.567   5.192  0.8036  1.7671  0.0951
   66MOL0     H 9108   3.696   0.608   5.359  0.7186 -2.4693  1.1170
   67MOL0     O 9109   1.723   5.564   7.516 -0.4127  0.0670 -0.0543
   67MOL0     C 9110   1.670   5.449   7.514 -0.0125  1.1166  0.9309
   67MOL0     O 9111   1.663   5.365   7.400 -0.2646 -0.0439 -0.1313
   67MOL0     C 9112   1.708   5.423   7.282  0.1691 -0.3117  0.0210
   67MOL0     C 9113   1.634   5.527   7.225 -0.2357  0.2396  0.9370
   67MOL0     C 9114   1.682   5.570   7.099 -0.1988 -0.5605 -0.7920
   67MOL0     C 9115   1.796   5.535   7.033  0.9805 -0.2205  0.4136
   67MOL0     O 9116   1.804   5.580   6.906 -0.6885  0.3570  0.3404
   67MOL0     C 9117   1.919   5.541   6.823  0.1663 -0.6704  0.3609
   67MOL0     C 9118   1.933   5.654   6.723  0.2538 -0.3061 -0.2836
   67MOL0     C 9119   2.019   5.619   6.605 -0.5272  0.0072 -0.8750
   67MOL0     C 9120   2.175   5.621   6.639 -0.4642 -0.3029  0.5649
   67MOL0     C 9121   2.251   5.584   6.519 -0.1030  0.3698 -0.6085
   67MOL0     C 9122   2.404   5.572   6.542  0.6772  0.1031  0.8581
   67MOL0     C 9123   2.468   5.490   6.429  0.6586 -0.3192 -0.1834
   67MOL0     C 9124   2.618   5.527   6.409 -0.0563  0.3195  0.2858
   67MOL0     N 9125   2.643   5.664   6.349 -0.7490  0.0897  0.1524
   67MOL0     C 9126   2.768   5.705   6.316 -0.1914  0.0844 -0.0938
   67MOL0     C 9127   2.750   5.834   6.290  0.3138 -0.0844 -0.2759
   67MOL0     C 9128   2.858   5.929   6.258 -1.1899 -0.4482 -0.6284
   67MOL0     C 9129   2.981   5.871   6.170 -0.0394  0.6265  0.0695
   67MOL0     C 9130   3.076   5.990   6.141 -0.8903  0.2531  0.4426
   67MOL0     C 9131   3.206   5.944   6.080 -0.4267  0.5071  0.0004
   67MOL0     O 9132   3.301   6.050   6.061  0.3337 -0.1310  0.2380
   67MOL0     C 9133   3.423   6.016   6.017 -0.6276 -0.9413 -0.4808
   67MOL0     C 9134   3.479   6.089   5.916  0.0383  0.2417  0.6141
   67MOL0     C 9135   3.602   6.066   5.846  0.2042 -0.5375 -0.8865
   67MOL0     C 9136   3.636   6.147   5.728 -0.0062 -0.3362 -0.0804
   67MOL0     C 9137   3.680   5.962   5.901 -0.0817  1.6586  0.6708
   67MOL0     C 9138   3.811   5.905   5.842  0.2076  0.4248  0.0011
   67MOL0     O 9139   3.871   5.789   5.909  0.6786 -0.3045 -0.0710
   67MOL0     C 9140   3.992   5.760   5.857 -0.3237 -0.5223 -0.3888
   67MOL0     C 9141   4.010   5.656   5.763  0.0537 -0.3959 -0.0081
   67MOL0     C 9142   4.141   5.633   5.705  0.4628  0.0862  0.1173
   67MOL0     C 9143   4.243   5.713   5.732 -0.6589  0.0584  0.3465
   67MOL0     O 9144   4.370   5.711   5.673 -0.1909 -0.0888 -0.0160
   67MOL0     C 9145   4.375   5.682   5.534  0.3115  0.4246 -0.5438
   67MOL0     C 9146   4.513   5.718   5.480 -0.7977  0.3659  0.3406
   67MOL0     C 9147   4.623   5.628   5.523 -0.4803  0.1521 -0.8690
   67MOL0     C 9148   4.766   5.665   5.475  0.5508 -0.4545  0.7874
   67MOL0     C 9149   4.864   5.567   5.536 -0.6477  0.0184  0.6839
   67MOL0     C 9150   5.000   5.604   5.477 -0.3048 -0.0804  0.8378
   67MOL0     C 9151   5.105   5.501   5.529 -0.3729 -0.5572 -0.8783
   67MOL0     C 9152   5.239   5.538   5.481  0.2944  0.0542 -0.2483
   67MOL0    Cl 9153   5.275   5.703   5.542  0.1136 -0.0479 -0.1537
   67MOL0     C 9154   4.225   5.814   5.826  0.8849 -0.3505  0.2549
   67MOL0     C 9155   4.105   5.838   5.887  1.0667 -0.4897  0.3019
   67MOL0     O 9156   3.863   5.961   5.750  0.6854  0.0433 -0.0274
   67MOL0     C 9157   3.624   5.886   6.009  0.2853 -0.5799  0.4153
   67MOL0     C 9158   3.500   5.917   6.068 -0.4677 -0.3504 -0.1863
   67MOL0     N 9159   2.623   5.869   6.283  0.3308 -0.1128  0.2096
   67MOL0     N 9160   2.556   5.768   6.324 -1.0601  0.3229  0.1182
   67MOL0     C 9161   1.866   5.434   7.096 -1.1424  0.9459 -1.9851
   67MOL0     C 9162   1.827   5.378   7.219  0.2401 -0.1118 -0.0209
   67MOL0     C 9163   1.589   5.418   7.640  0.0341  0.4828  0.8940
   67MOL0     C 9164   1.630   5.479   7.762 -0.2704  0.1151  0.1659
   67MOL0     C 9165   1.571   5.451   7.889  0.1677  0.0837  0.1271
   67MOL0     C 9166   1.450   5.383   7.897 -0.0002  0.6310 -0.5057
   67MOL0     O 9167   1.384   5.367   8.018 -0.5011  0.2220 -0.0839
   67MOL0     C 9168   1.247   5.333   8.026  0.0587  0.2681 -0.2635
   67MOL0     C 9169   1.209   5.403   8.159 -0.4097  0.4876 -0.1732
   67MOL0     C 9170   1.218   5.554   8.160  0.5088 -0.2979  0.3542
   67MOL0     C 9171   1.138   5.620   8.272  0.2570  0.6639 -0.5770
   67MOL0     C 9172   1.186   5.607   8.406  0.1863  0.2229  0.2499
   67MOL0     C 9173   1.218   5.619   8.524  1.0100 -0.1758  0.9511
   67MOL0     C 9174   1.405   5.323   7.774  0.9814  0.2727 -0.2699
   67MOL0     C 9175   1.474   5.337   7.645  0.6321 -0.4187 -0.9523
   67MOL0     C 9176   1.415   5.271   7.530  0.1590  0.4269  0.2037
   67MOL0     H 9177   1.538   5.561   7.261 -0.1240  1.0338  0.5159
   67MOL0     H 9178   1.628   5.649   7.049  0.1783 -0.4297 -0.9939
   67MOL0     H 9179   1.900   5.449   6.766 -0.8409  0.5342 -1.3718
   67MOL0     H 9180   2.011   5.540   6.882 -0.7247 -0.2274  1.8097
   67MOL0     H 9181   1.840   5.685   6.674 -0.2348 -2.5187 -0.8631
   67MOL0     H 9182   1.960   5.740   6.785 -0.7570 -1.9397  2.6371
   67MOL0     H 9183   1.997   5.515   6.577 -1.1180  0.1426 -0.9299
   67MOL0     H 9184   1.997   5.692   6.526  0.2507  0.9318 -0.2620
   67MOL0     H 9185   2.202   5.724   6.663  2.1439 -1.1627  1.7633
   67MOL0     H 9186   2.209   5.554   6.718 -1.0470  0.0138  1.0900
   67MOL0     H 9187   2.218   5.649   6.437  1.5189  3.3677  0.9443
   67MOL0     H 9188   2.223   5.482   6.492 -0.7604  0.8044 -1.6246
   67MOL0     H 9189   2.446   5.673   6.545 -1.2847  1.0334 -0.9833
   67MOL0     H 9190   2.425   5.525   6.639  1.0710  1.4088  1.4430
   67MOL0     H 9191   2.410   5.495   6.337 -2.6188  1.0316  1.8168
   67MOL0     H 9192   2.453   5.384   6.452 -0.0802 -0.6664 -2.1203
   67MOL0     H 9193   2.670   5.517   6.505  0.4538 -0.6446 -0.0868
   67MOL0     H 9194   2.654   5.446   6.345 -2.5682  1.0071 -2.2101
   67MOL0     H 9195   2.865   5.656   6.313 -0.0993  0.2921 -0.8024
   67MOL0     H 9196   2.900   5.958   6.355  1.1411 -1.9436 -1.1000
   67MOL0     H 9197   2.813   6.016   6.208  1.7053  2.9637  2.0866
   67MOL0     H 9198   3.034   5.793   6.225 -0.6030  1.1439  1.3779
   67MOL0     H 9199   2.925   5.834   6.084  1.3046 -0.1704 -0.4909
   67MOL0     H 9200   3.028   6.051   6.064 -0.8972 -0.3917 -0.0759
   67MOL0     H 9201   3.095   6.049   6.231  0.4972  2.7545 -1.3870
   67MOL0     H 9202   3.243   5.858   6.137 -0.9187 -0.7107 -1.4423
   67MOL0     H 9203   3.182   5.900   5.982 -0.1001  0.7416 -0.1861
   67MOL0     H 9204   3.424   6.173   5.875 -2.6194 -0.0056  3.2847
   67MOL0     H 9205   3.653   6.076   5.646  2.0101 -0.3023  0.2701
   67MOL0     H 9206   3.731   6.201   5.737  0.6377 -1.4214 -0.2138
   67MOL0     H 9207   3.558   6.215   5.692  0.4474 -1.1970 -2.9520
   67MOL0     H 9208   3.926   5.593   5.738 -2.4092  2.2457  1.1128
   67MOL0     H 9209   4.162   5.540   5.653  0.1250 -2.5745  4.2567
   67MOL0     H 9210   4.349   5.576   5.522 -0.8200  0.6141  0.0673
   67MOL0     H 9211   4.305   5.751   5.485 -0.2732 -1.7934 -3.0679
   67MOL0     H 9212   4.499   5.713   5.372  2.1387 -3.4580 -0.0546
   67MOL0     H 9213   4.530   5.823   5.506  1.3238  0.3506 -0.8195
   67MOL0     H 9214   4.620   5.523   5.490  1.9329 -1.0597  2.2495
   67MOL0     H 9215   4.619   5.609   5.631 -1.5711 -1.0435 -1.0982
   67MOL0     H 9216   4.777   5.771   5.499 -2.0853  0.0221  0.2376
   67MOL0     H 9217   4.764   5.654   5.367 -0.5828 -0.8305  0.8275
   67MOL0     H 9218   4.871   5.586   5.643 -2.6755  0.9201  0.6983
   67MOL0     H 9219   4.840   5.465   5.504  2.1833 -0.2838 -0.8205
   67MOL0     H 9220   5.023   5.704   5.515 -0.9602  0.3991 -0.0076
   67MOL0     H 9221   5.006   5.605   5.368 -0.9053  3.0463  0.7425
   67MOL0     H 9222   5.084   5.396   5.504 -1.1811 -1.9001  4.2525
   67MOL0     H 9223   5.110   5.506   5.638 -0.3222 -0.2448 -0.8941
   67MOL0     H 9224   5.244   5.544   5.372  1.3375  3.1610 -0.1083
   67MOL0     H 9225   5.318   5.468   5.511  1.2234  0.2365 -2.1024
   67MOL0     H 9226   4.308   5.877   5.857  1.0585 -1.0397  1.2389
   67MOL0     H 9227   4.085   5.924   5.950 -1.6129  1.3464 -2.7361
   67MOL0     H 9228   3.674   5.799   6.051 -0.8563 -0.4317  2.1486
   67MOL0     H 9229   3.458   5.856   6.147 -1.7028  0.7135  0.0254
   67MOL0     H 9230   1.953   5.383   7.055 -2.1647 -0.5755 -2.3097
   67MOL0     H 9231   1.888   5.313   7.281  1.0602 -0.4655 -1.1784
   67MOL0     H 9232   1.713   5.550   7.764 -0.3994  0.2480  1.7189
   67MOL0     H 9233   1.602   5.502   7.979  0.2624  0.0478  0.1147
   67MOL0     H 9234   1.178   5.375   7.951 -0.7724  0.9369  0.8473
   67MOL0     H 9235   1.229   5.225   8.027  4.1337 -0.6260 -2.3794
   67MOL0     H 9236   1.278   5.372   8.239 -1.1296  0.9339  0.6376
   67MOL0     H 9237   1.106   5.383   8.188 -1.1354 -1.9811 -3.7763
   67MOL0     H 9238   1.325   5.577   8.159  0.4382  0.0526  0.7193
   67MOL0     H 9239   1.177   5.582   8.062  3.4066 -0.3039 -0.9424
   67MOL0     H 9240   1.033   5.589   8.277  1.0053 -1.9421  0.9937
   67MOL0     H 9241   1.138   5.728   8.258  1.6596  0.7637  0.0223
   67MOL0     H 9242   1.235   5.635   8.628 -0.9609  0.0081  1.2682
   67MOL0     H 9243   1.324   5.252   7.772  1.3227 -0.1082 -1.4759
   67MOL0     H 9244   1.457   5.170   7.522 -1.7321 -0.3585 -0.5362
   67MOL0     H 9245   1.306   5.279   7.529  0.2558  3.9025  2.0454
   67MOL0     H 9246   1.438   5.325   7.438 -2.5553 -0.6137 -1.2060
   68MOL0     O 9247   3.188   3.307   2.007  0.1134 -0.4993  0.9513
   68MOL0     C 9248   3.211   3.198   1.955 -0.5892  0.3426  0.2200
   68MOL0     O 9249   3.298   3.172   1.859 -0.4072  0.0621  0.0077
   68MOL0     C 9250   3.420   3.228   1.865  0.3425 -0.6167 -0.9925
   68MOL0     C 9251   3.472   3.313   1.963  0.2426 -0.0026 -0.5739
   68MOL0     C 9252   3.586   3.394   1.941  0.3453 -0.3683  0.4205
   68MOL0     C 9253   3.666   3.373   1.834  0.0353 -0.5826  0.6845
   68MOL0     O 9254   3.767   3.456   1.793 -0.1018 -0.0009  0.2471
   68MOL0     C 9255   3.856   3.508   1.904 -0.2366  1.2675  0.4567
   68MOL0     C 9256   3.937   3.396   1.968  0.4573  0.1177  0.8483
   68MOL0     C 9257   4.031   3.456   2.077  0.7149  0.1245  0.5568
   68MOL0     C 9258   4.102   3.360   2.183 -0.3149  0.0622  0.2069
   68MOL0     C 9259   4.194   3.261   2.107  0.2091  0.2466  0.1423
   68MOL0     C 9260   4.333   3.315   2.053 -0.1844 -0.0610 -0.6304
   68MOL0     C 9261   4.322   3.392   1.928 -0.5442 -0.8379 -1.2534
   68MOL0     C 9262   4.464   3.423   1.868  0.4515  1.2592  0.1506
   68MOL0     N 9263   4.537   3.308   1.810 -0.7792  0.3749  0.6444
   68MOL0     C 9264   4.654   3.261   1.857 -1.2810  0.2410  0.0713
   68MOL0     C 9265   4.670   3.146   1.789 -0.3940 -0.5816  0.0863
   68MOL0     C 9266   4.756   3.029   1.820  0.2697 -0.8764  0.2581
   68MOL0     C 9267   4.866   3.021   1.712  0.3405  0.8173  0.1782
   68MOL0     C 9268   4.949   2.888   1.736 -0.4540 -0.6681 -0.7282
   68MOL0     C 9269   5.082   2.905   1.659  0.3615  0.3404 -0.1872
   68MOL0     O 9270   5.062   2.929   1.520 -0.1731 -0.2187 -0.1931
   68MOL0     C 9271   5.172   2.958   1.449 -0.0261  0.1925  0.7184
   68MOL0     C 9272   5.160   2.966   1.307 -0.3076 -0.1189 -0.5974
   68MOL0     C 9273   5.265   3.003   1.220 -0.7759  0.0656  0.2493
   68MOL0     C 9274   5.224   3.039   1.081 -0.1940 -0.4838 -0.4297
   68MOL0     C 9275   5.391   3.043   1.274 -0.2153  0.7215 -1.4657
   68MOL0     C 9276   5.501   3.095   1.202  0.0045  0.2477  0.5808
   68MOL0     O 9277   5.506   3.062   1.069 -0.2619  0.3156 -0.4918
   68MOL0     C 9278   5.585   3.131   0.980 -0.9759  0.4286 -0.6493
   68MOL0     C 9279   5.677   3.061   0.902  0.4879 -0.7953  0.3228
   68MOL0     C 9280   5.768   3.125   0.819 -0.0584  0.5866 -0.1214
   68MOL0     C 9281   5.765   3.266   0.810  0.0721  0.3104  0.1605
   68MOL0     O 9282   5.856   3.333   0.737 -0.0461 -0.6858  0.5249
   68MOL0     C 9283   5.997   3.328   0.769 -0.5728  0.2397  0.2315
   68MOL0     C 9284   6.073   3.397   0.651 -0.0232  0.6957  0.3956
   68MOL0     C 9285   6.067   3.313   0.526 -0.2975  0.2548  0.3338
   68MOL0     C 9286   6.152   3.359   0.408 -0.7183 -0.0050 -0.8294
   68MOL0     C 9287   6.150   3.262   0.284  0.2721  0.9154  1.1208
   68MOL0     C 9288   6.240   3.325   0.174 -0.1098  0.8172 -0.2750
   68MOL0     C 9289   6.158   3.382   0.055  0.2831  0.1161 -0.3045
   68MOL0     C 9290   6.234   3.464  -0.045 -0.4805  0.5828 -0.2275
   68MOL0    Cl 9291   6.355   3.355  -0.117  0.2355 -0.1091 -0.3441
   68MOL0     C 9292   5.680   3.338   0.893 -0.0745 -0.2136 -0.4545
   68MOL0     C 9293   5.582   3.271   0.971  1.1244  0.4339 -0.2579
   68MOL0     O 9294   5.568   3.188   1.256 -0.2992  0.2362 -0.4472
   68MOL0     C 9295   5.410   3.023   1.412  0.8343  0.4192 -0.5105
   68MOL0     C 9296   5.301   2.975   1.499 -0.0697  0.5132 -0.1424
   68MOL0     N 9297   4.571   3.144   1.690 -0.2748  0.0724  0.2629
   68MOL0     N 9298   4.495   3.244   1.702  0.5498  0.1419  0.6065
   68MOL0     C 9299   3.625   3.275   1.752  0.4760  0.6202 -0.0798
   68MOL0     C 9300   3.507   3.203   1.760 -0.4739  0.5186 -0.0997
   68MOL0     C 9301   3.144   3.085   2.014  1.1293  0.1188  0.1963
   68MOL0     C 9302   3.229   2.977   2.063  0.6318 -0.8025 -0.4515
   68MOL0     C 9303   3.172   2.863   2.116  0.1103  0.1656  0.7311
   68MOL0     C 9304   3.037   2.852   2.112  0.3578 -0.1903  1.1315
   68MOL0     O 9305   2.986   2.734   2.155  0.0186  0.0262  0.8227
   68MOL0     C 9306   2.853   2.689   2.139  0.3227 -0.0208 -0.7447
   68MOL0     C 9307   2.859   2.580   2.039 -0.4113  0.0500 -0.1593
   68MOL0     C 9308   2.875   2.642   1.896 -0.7604  0.8875  0.8254
   68MOL0     C 9309   2.846   2.545   1.786  0.0462  0.4214 -0.8186
   68MOL0     C 9310   2.957   2.441   1.785  0.4532  0.0624  0.8604
   68MOL0     C 9311   3.051   2.371   1.760  1.1264 -0.0432  0.7824
   68MOL0     C 9312   2.956   2.959   2.052 -0.3551  0.8776 -0.7205
   68MOL0     C 9313   3.008   3.074   2.008  0.5514 -0.5237  0.4890
   68MOL0     C 9314   2.927   3.189   1.956 -0.4225  0.5489  0.1363
   68MOL0     H 9315   3.430   3.324   2.063 -0.0615  1.8401 -0.8560
   68MOL0     H 9316   3.620   3.457   2.023 -0.1539  0.0292  0.3316
   68MOL0     H 9317   3.793   3.562   1.975 -0.4760  2.7573 -0.8298
   68MOL0     H 9318   3.921   3.575   1.848 -2.5330  3.7657  0.5993
   68MOL0     H 9319   3.868   3.326   2.017 -0.9059 -0.2135 -1.3855
   68MOL0     H 9320   3.995   3.348   1.889  1.9045 -2.1166  3.1039
   68MOL0     H 9321   4.100   3.528   2.032 -1.8962  1.2695 -1.9280
   68MOL0     H 9322   3.962   3.515   2.139  0.0811 -1.7970  1.7636
   68MOL0     H 9323   4.145   3.425   2.259  0.2389 -1.4621  1.2517
   68MOL0     H 9324   4.023   3.303   2.233 -0.6741 -0.3003 -0.7394
   68MOL0     H 9325   4.131   3.220   2.027 -0.8787  0.1685  1.0134
   68MOL0     H 9326   4.207   3.170   2.167  1.6616 -1.6049 -2.7405
   68MOL0     H 9327   4.380   3.390   2.117  0.1358  2.4520 -3.5801
   68MOL0     H 9328   4.396   3.226   2.041 -1.6564 -0.9784 -1.9528
   68MOL0     H 9329   4.272   3.487   1.948 -2.0036 -2.0004  1.0233
   68MOL0     H 9330   4.254   3.342   1.857  1.2392 -1.9808 -2.2347
   68MOL0     H 9331   4.443   3.491   1.785 -0.9809 -0.6095 -1.1001
   68MOL0     H 9332   4.522   3.470   1.949 -0.7040  1.4900  0.8799
   68MOL0     H 9333   4.704   3.294   1.948 -0.7957 -1.7207  0.5472
   68MOL0     H 9334   4.692   2.942   1.832 -1.6421  0.5469  0.7464
   68MOL0     H 9335   4.791   3.036   1.923 -0.0198  0.6989  0.2819
   68MOL0     H 9336   4.821   3.016   1.612 -1.9934 -2.8394  1.2403
   68MOL0     H 9337   4.934   3.107   1.718  0.3808  0.8291 -0.3361
   68MOL0     H 9338   4.963   2.884   1.844 -0.2695 -0.7637 -0.7559
   68MOL0     H 9339   4.894   2.797   1.710 -0.8667 -0.9433  0.9705
   68MOL0     H 9340   5.141   2.984   1.705 -1.9349  0.3158  3.1101
   68MOL0     H 9341   5.140   2.813   1.672  2.2839  1.7531  1.9680
   68MOL0     H 9342   5.063   2.946   1.263 -1.1620  1.8114  0.2850
   68MOL0     H 9343   5.238   2.963   1.004 -0.0830 -0.0188 -0.8769
   68MOL0     H 9344   5.290   3.120   1.047  0.1104 -0.3144  0.5147
   68MOL0     H 9345   5.121   3.073   1.076 -0.9819 -2.7687 -0.6125
   68MOL0     H 9346   5.677   2.955   0.927 -1.7005 -0.8110  0.4001
   68MOL0     H 9347   5.844   3.069   0.766  0.0751  0.1288  0.5349
   68MOL0     H 9348   6.016   3.374   0.867 -0.8998 -0.3768  0.5881
   68MOL0     H 9349   6.033   3.225   0.778 -1.6663 -0.0384  1.8075
   68MOL0     H 9350   6.016   3.489   0.634  0.0218  0.9364  1.4722
   68MOL0     H 9351   6.180   3.415   0.666  0.3938  0.3560 -1.7632
   68MOL0     H 9352   5.964   3.310   0.490 -0.6425  1.2025  1.1854
   68MOL0     H 9353   6.104   3.215   0.556 -0.2094  0.0889 -0.3069
   68MOL0     H 9354   6.257   3.361   0.440 -0.6322  3.1388 -0.9649
   68MOL0     H 9355   6.129   3.462   0.377  0.6945  1.1496  1.6006
   68MOL0     H 9356   6.178   3.159   0.307 -0.6823  0.9694  2.6569
   68MOL0     H 9357   6.052   3.255   0.236  1.0113  1.2816 -0.4948
   68MOL0     H 9358   6.302   3.245   0.133  2.1744  1.9896  0.6777
   68MOL0     H 9359   6.310   3.397   0.218 -0.7016 -0.1490  2.4425
   68MOL0     H 9360   6.089   3.455   0.100  1.8623 -0.3456  3.2648
   68MOL0     H 9361   6.100   3.303   0.007  0.7800 -0.7510  0.4918
   68MOL0     H 9362   6.294   3.545  -0.001 -1.6037  2.2618 -1.6405
   68MOL0     H 9363   6.164   3.506  -0.118 -0.2574 -4.0760 -3.5779
   68MOL0     H 9364   5.692   3.446   0.899 -2.4631  0.3513 -3.3194
   68MOL0     H 9365   5.512   3.330   1.029  0.5492 -2.7322  2.6414
   68MOL0     H 9366   5.501   3.041   1.469  1.1029 -1.7266 -0.1654
   68MOL0     H 9367   5.315   2.981   1.606 -1.1837  2.9115 -0.0555
   68MOL0     H 9368   3.689   3.250   1.668  0.7731  0.8759  0.0636
   68MOL0     H 9369   3.499   3.121   1.689  2.2894  0.4172 -0.3674
   68MOL0     H 9370   3.338   2.984   2.067  0.6110 -0.6337 -0.1363
   68MOL0     H 9371   3.243   2.798   2.167  0.4886  1.0402  1.3550
   68MOL0     H 9372   2.820   2.642   2.232 -1.8085 -0.6356 -1.7451
   68MOL0     H 9373   2.777   2.766   2.120  1.6650  1.9510  1.3120
   68MOL0     H 9374   2.763   2.528   2.052  1.0389 -3.2912 -1.5046
   68MOL0     H 9375   2.934   2.505   2.065  2.1867  2.5596  0.0509
   68MOL0     H 9376   2.816   2.735   1.894  1.2564  2.2592  1.8048
   68MOL0     H 9377   2.975   2.676   1.871  0.0872 -0.8636  1.6317
   68MOL0     H 9378   2.845   2.594   1.688 -2.4303 -0.9807 -1.5632
   68MOL0     H 9379   2.749   2.500   1.806  0.0933  0.9570  0.8392
   68MOL0     H 9380   3.138   2.309   1.747  0.9139 -0.1594 -0.1417
   68MOL0     H 9381   2.848   2.954   2.061 -0.2154  0.1719  0.9627
   68MOL0     H 9382   2.971   3.228   1.864 -1.5643  1.8134  0.1109
   68MOL0     H 9383   2.822   3.161   1.944  0.0288 -1.4452  0.4282
   68MOL0     H 9384   2.938   3.261   2.038 -0.0926  0.6059  0.0449
   69MOL0     O 9385   0.261   1.508   5.188 -0.3675 -0.2795 -0.6687
   69MOL0     C 9386   0.254   1.620   5.144  0.2917  0.8384 -0.5064
   69MOL0     O 9387   0.365   1.685   5.108  1.2780 -0.5754  0.2915
   69MOL0     C 9388   0.488   1.641   5.146  0.0925  0.7361 -0.0561
   69MOL0     C 9389   0.590   1.629   5.054  0.0829  0.9074 -0.0191
   69MOL0     C 9390   0.724   1.628   5.091 -0.2048 -0.6442 -1.0295
   69MOL0     C 9391   0.762   1.628   5.230 -0.0655 -0.6261 -0.6032
   69MOL0     O 9392   0.895   1.604   5.275  0.0050  0.4978  0.1976
   69MOL0     C 9393   0.991   1.565   5.168 -0.7547 -0.5894 -0.0215
   69MOL0     C 9394   1.119   1.538   5.242  0.2929  0.0181  0.2467
   69MOL0     C 9395   1.132   1.394   5.289 -0.1729 -0.3235 -0.5699
   69MOL0     C 9396   1.221   1.372   5.413  0.5325  0.1197 -1.3196
   69MOL0     C 9397   1.368   1.414   5.408 -0.1250 -0.5070  0.1511
   69MOL0     C 9398   1.432   1.452   5.545 -0.8084  0.3158 -0.3429
   69MOL0     C 9399   1.507   1.588   5.527  0.1056 -0.1822  0.1136
   69MOL0     C 9400   1.601   1.619   5.638  0.9902 -0.2692 -0.5779
   69MOL0     N 9401   1.512   1.646   5.755 -0.5298 -0.0215 -0.3063
   69MOL0     C 9402   1.466   1.765   5.799  0.0722  0.4626 -0.5436
   69MOL0     C 9403   1.421   1.742   5.929  0.6285  0.0414 -0.0189
   69MOL0     C 9404   1.376   1.853   6.012 -0.1359  0.0791 -1.2241
   69MOL0     C 9405   1.235   1.846   6.067  0.6252 -0.2780 -0.0821
   69MOL0     C 9406   1.198   1.981   6.148  0.4294 -0.0210  0.5631
   69MOL0     C 9407   1.056   1.969   6.191  0.0558 -0.4738 -1.4343
   69MOL0     O 9408   1.032   2.074   6.294  0.8456 -0.4391 -0.2140
   69MOL0     C 9409   0.894   2.080   6.338 -0.2124 -0.6101 -0.3648
   69MOL0     C 9410   0.871   2.176   6.431  0.1419 -0.0134 -0.7430
   69MOL0     C 9411   0.739   2.222   6.472  0.8508  0.5614  0.2841
   69MOL0     C 9412   0.720   2.349   6.559  0.3091  0.0611 -0.9054
   69MOL0     C 9413   0.622   2.150   6.417 -0.2342  0.0549  0.4306
   69MOL0     C 9414   0.483   2.183   6.445 -0.1019 -0.3888  0.4488
   69MOL0     O 9415   0.452   2.294   6.519  0.4268 -0.1557  0.2379
   69MOL0     C 9416   0.322   2.333   6.530 -0.3667  0.4847  0.1939
   69MOL0     C 9417   0.259   2.345   6.652  0.1795  0.6386 -1.1410
   69MOL0     C 9418   0.129   2.400   6.662 -0.5730 -0.1129  0.0112
   69MOL0     C 9419   0.062   2.442   6.542 -0.0880  0.9420 -1.0581
   69MOL0     O 9420  -0.075   2.476   6.545 -0.2958  0.0351  0.6858
   69MOL0     C 9421  -0.108   2.587   6.624  0.0974 -0.2107 -0.7909
   69MOL0     C 9422  -0.243   2.638   6.586  0.1501 -0.2372 -0.1679
   69MOL0     C 9423  -0.255   2.793   6.596 -0.6870  0.7345  0.9180
   69MOL0     C 9424  -0.392   2.846   6.618  0.1694  0.8617 -0.7648
   69MOL0     C 9425  -0.388   3.003   6.610 -0.1100  0.1774  0.6099
   69MOL0     C 9426  -0.518   3.065   6.639  0.6996  0.0495  1.2875
   69MOL0     C 9427  -0.566   3.037   6.784 -0.4008 -0.0541 -0.4127
   69MOL0     C 9428  -0.701   3.112   6.816  1.0666  0.3499  0.3882
   69MOL0    Cl 9429  -0.828   3.057   6.707  0.0121  0.2942  0.5949
   69MOL0     C 9430   0.122   2.421   6.422 -0.0251 -0.9917  0.3967
   69MOL0     C 9431   0.253   2.366   6.410  0.2940  0.1199 -0.5533
   69MOL0     O 9432   0.397   2.118   6.386  0.0401  0.2263 -0.6074
   69MOL0     C 9433   0.652   2.038   6.329 -0.2719  0.0371 -0.5075
   69MOL0     C 9434   0.781   2.014   6.287 -0.0433 -0.1834  1.0821
   69MOL0     N 9435   1.431   1.606   5.949  0.2911  0.9560  0.4762
   69MOL0     N 9436   1.499   1.555   5.850  0.2752  0.2436 -0.1894
   69MOL0     C 9437   0.660   1.632   5.321  0.6646  0.6204 -1.2630
   69MOL0     C 9438   0.528   1.640   5.282 -0.2946  0.3149 -0.4573
   69MOL0     C 9439   0.121   1.673   5.113 -0.0934  0.9507 -0.0229
   69MOL0     C 9440   0.129   1.800   5.050  0.3815 -0.4828  0.3561
   69MOL0     C 9441   0.018   1.870   5.022 -0.1358 -0.0252 -0.0803
   69MOL0     C 9442  -0.106   1.814   5.038  0.2576  0.0247 -0.5991
   69MOL0     O 9443  -0.224   1.867   4.998 -0.1826  0.1918  0.3392
   69MOL0     C 9444  -0.233   1.997   4.944 -0.0311 -0.6777  0.1573
   69MOL0     C 9445  -0.389   2.022   4.937  0.0774 -0.1815  0.4987
   69MOL0     C 9446  -0.425   2.167   4.960  0.3930  0.1436 -0.2347
   69MOL0     C 9447  -0.476   2.243   4.837 -0.2498 -0.3396 -0.6941
   69MOL0     C 9448  -0.385   2.235   4.727 -0.4838 -0.1941  0.7715
   69MOL0     C 9449  -0.312   2.202   4.640  0.3810 -0.0498  0.1973
   69MOL0     C 9450  -0.122   1.684   5.095 -0.4864 -0.7048  0.3647
   69MOL0     C 9451  -0.004   1.615   5.137 -0.1434  0.2169 -0.4908
   69MOL0     C 9452  -0.019   1.472   5.164  0.2111 -0.4487  0.8142
   69MOL0     H 9453   0.558   1.631   4.950  0.1534  1.3641 -0.0318
   69MOL0     H 9454   0.800   1.635   5.014 -0.1998  2.0762 -0.8868
   69MOL0     H 9455   1.023   1.649   5.105  0.0602 -1.8305 -1.3362
   69MOL0     H 9456   0.948   1.483   5.109 -1.8835  1.9660 -3.0329
   69MOL0     H 9457   1.208   1.557   5.180  0.6195  0.0372  0.7119
   69MOL0     H 9458   1.126   1.611   5.323  1.2055  0.3339 -0.0945
   69MOL0     H 9459   1.033   1.359   5.318  0.6450  0.3754  3.8612
   69MOL0     H 9460   1.166   1.329   5.208 -1.7945 -0.3413 -1.2627
   69MOL0     H 9461   1.176   1.442   5.483 -1.4188 -3.1948  0.9569
   69MOL0     H 9462   1.209   1.268   5.443 -0.6249  0.4923 -0.4471
   69MOL0     H 9463   1.368   1.497   5.337 -2.4451 -0.8212 -0.2960
   69MOL0     H 9464   1.428   1.333   5.365  1.5798 -0.1742  1.7701
   69MOL0     H 9465   1.351   1.461   5.618 -0.2761 -0.3940  0.3463
   69MOL0     H 9466   1.498   1.368   5.569 -1.7395 -0.5747 -0.8321
   69MOL0     H 9467   1.432   1.667   5.514 -0.5154 -1.1618 -2.9438
   69MOL0     H 9468   1.557   1.587   5.430 -1.5699 -0.7032 -0.7848
   69MOL0     H 9469   1.674   1.543   5.666  1.5237  0.6670  0.6670
   69MOL0     H 9470   1.655   1.712   5.615 -1.3397  1.4766  0.5456
   69MOL0     H 9471   1.471   1.862   5.752  2.7136  0.1107 -1.1567
   69MOL0     H 9472   1.399   1.944   5.955 -0.7592  1.3267  0.4284
   69MOL0     H 9473   1.440   1.849   6.101  1.3802  4.4489 -1.8705
   69MOL0     H 9474   1.172   1.820   5.981  1.5108 -0.1811 -0.7759
   69MOL0     H 9475   1.228   1.763   6.139  0.5073  1.4992  2.0649
   69MOL0     H 9476   1.262   1.988   6.236 -3.7938 -0.3945  4.0520
   69MOL0     H 9477   1.209   2.071   6.087  0.5296 -0.5266 -0.1818
   69MOL0     H 9478   0.994   1.992   6.104 -0.0843 -0.9963 -1.4756
   69MOL0     H 9479   1.023   1.873   6.231 -2.3177  0.7392 -0.2039
   69MOL0     H 9480   0.961   2.220   6.473 -1.1173  0.7303  1.3006
   69MOL0     H 9481   0.814   2.372   6.610 -0.2203  1.2452 -0.4296
   69MOL0     H 9482   0.646   2.352   6.640  1.0451 -0.7934 -0.1782
   69MOL0     H 9483   0.695   2.439   6.502  1.5106  1.8009  1.1384
   69MOL0     H 9484   0.315   2.322   6.742  0.5268  0.8585 -1.2998
   69MOL0     H 9485   0.066   2.411   6.750 -2.2645 -1.1729 -1.0146
   69MOL0     H 9486  -0.104   2.565   6.730  3.8562 -0.6371 -0.9144
   69MOL0     H 9487  -0.033   2.661   6.596 -2.3211  2.7395 -0.0732
   69MOL0     H 9488  -0.257   2.627   6.478 -1.1271  0.9096 -0.1522
   69MOL0     H 9489  -0.308   2.581   6.652  0.0813  0.2848  0.2199
   69MOL0     H 9490  -0.236   2.832   6.496 -1.4342  0.3944  0.6382
   69MOL0     H 9491  -0.189   2.835   6.672  0.5410  0.9178 -0.2070
   69MOL0     H 9492  -0.426   2.809   6.715  0.0946  3.3275  0.2174
   69MOL0     H 9493  -0.470   2.800   6.555 -0.3867 -0.2523  0.6782
   69MOL0     H 9494  -0.322   3.045   6.687 -0.9533 -0.5656  1.7562
   69MOL0     H 9495  -0.340   3.050   6.523  2.2850  0.2934  1.8974
   69MOL0     H 9496  -0.582   3.009   6.570  2.1242 -0.4033  0.2741
   69MOL0     H 9497  -0.527   3.171   6.616 -1.7933 -0.2403  0.6757
   69MOL0     H 9498  -0.489   3.071   6.854 -0.9064 -1.5531  0.9197
   69MOL0     H 9499  -0.576   2.929   6.793 -0.9270 -0.0447 -0.8696
   69MOL0     H 9500  -0.691   3.218   6.792  1.1902 -0.2956 -2.8250
   69MOL0     H 9501  -0.724   3.094   6.922 -0.5057 -0.9890 -0.1397
   69MOL0     H 9502   0.066   2.438   6.330 -1.7526 -0.9532  1.4119
   69MOL0     H 9503   0.284   2.340   6.310 -3.9565 -0.0689 -2.0086
   69MOL0     H 9504   0.580   1.973   6.281  0.1660 -0.3534 -0.6380
   69MOL0     H 9505   0.799   1.938   6.211 -0.5310 -2.7010  3.3235
   69MOL0     H 9506   0.676   1.623   5.428  0.9643  1.3843 -1.2406
   69MOL0     H 9507   0.456   1.647   5.363  1.2970  0.4346  1.0069
   69MOL0     H 9508   0.224   1.846   5.025 -0.9545  2.2698 -0.0520
   69MOL0     H 9509   0.030   1.965   4.970 -1.2200 -0.1906 -0.6614
   69MOL0     H 9510  -0.187   2.071   5.010  0.1794 -0.8829  0.2404
   69MOL0     H 9511  -0.196   2.009   4.842 -0.9965  0.3741 -0.1047
   69MOL0     H 9512  -0.439   1.979   5.024  1.0854  0.4563  1.4275
   69MOL0     H 9513  -0.444   1.970   4.858 -1.3861  0.9473  0.7390
   69MOL0     H 9514  -0.498   2.177   5.041  1.5417  0.0758  0.8473
   69MOL0     H 9515  -0.346   2.221   5.013  0.1191 -3.1605  4.1050
   69MOL0     H 9516  -0.502   2.348   4.852 -0.0303 -0.2439 -0.9736
   69MOL0     H 9517  -0.562   2.197   4.789 -0.4785  2.3725 -3.1453
   69MOL0     H 9518  -0.238   2.176   4.566 -2.0337 -0.3120 -2.2867
   69MOL0     H 9519  -0.220   1.637   5.090 -0.8163  0.0378 -0.3768
   69MOL0     H 9520   0.026   1.428   5.075  1.2482  0.3383  0.9400
   69MOL0     H 9521   0.029   1.462   5.262 -0.4770  3.1265  1.6496
   69MOL0     H 9522  -0.125   1.444   5.172 -0.0342 -1.0828 -2.9493
   70MOL0     O 9523   4.432   8.208   2.853 -0.7174 -0.3581  0.4208
   70MOL0     C 9524   4.366   8.303   2.827  0.2546  0.0209  0.2752
   70MOL0     O 9525   4.378   8.428   2.870  0.5016 -0.0252 -0.2648
   70MOL0     C 9526   4.465   8.457   2.967 -0.8981 -0.3502 -0.4022
   70MOL0     C 9527   4.574   8.533   2.938  0.1707 -0.4616  0.3434
   70MOL0     C 9528   4.670   8.560   3.040  0.7757 -1.0196 -0.3861
   70MOL0     C 9529   4.663   8.496   3.173  0.2446  0.2857  0.2947
   70MOL0     O 9530   4.769   8.509   3.262  0.1685  0.2073 -0.1607
   70MOL0     C 9531   4.873   8.598   3.235  0.8886 -0.8839 -0.5906
   70MOL0     C 9532   4.972   8.604   3.345  0.1771  0.1501  0.6718
   70MOL0     C 9533   5.075   8.497   3.323 -0.6714  0.2030  0.2333
   70MOL0     C 9534   5.198   8.517   3.419  0.2364 -0.2978 -0.0419
   70MOL0     C 9535   5.297   8.397   3.418  0.2693 -0.2053  0.7956
   70MOL0     C 9536   5.417   8.415   3.514  0.3704 -0.2419  0.2108
   70MOL0     C 9537   5.372   8.420   3.653 -0.0525 -0.0940 -0.1911
   70MOL0     C 9538   5.474   8.386   3.762 -1.0013  0.5156  0.2708
   70MOL0     N 9539   5.588   8.481   3.734 -0.2128 -0.2945  0.6675
   70MOL0     C 9540   5.577   8.617   3.719 -0.3818 -0.1530  0.0649
   70MOL0     C 9541   5.704   8.666   3.726  0.5777  0.3154 -0.3209
   70MOL0     C 9542   5.754   8.800   3.708  0.1229 -0.0596  0.3576
   70MOL0     C 9543   5.821   8.848   3.831  0.5873  0.1039  0.0298
   70MOL0     C 9544   5.884   8.988   3.823  0.4193 -0.2794 -0.0911
   70MOL0     C 9545   5.909   9.042   3.963  0.1905  0.0152  0.0854
   70MOL0     O 9546   6.050   9.071   3.985  0.2184 -0.0364  0.2646
   70MOL0     C 9547   6.091   9.108   4.109  0.3743 -0.4871 -0.8659
   70MOL0     C 9548   6.010   9.142   4.220  0.3823  0.4634  0.4294
   70MOL0     C 9549   6.061   9.204   4.330  0.3892  0.1203 -0.1322
   70MOL0     C 9550   5.967   9.256   4.438 -0.0343 -0.1516  0.2846
   70MOL0     C 9551   6.201   9.224   4.338 -0.8080  0.9623  0.7038
   70MOL0     C 9552   6.273   9.274   4.459  0.4116  0.1761 -0.4137
   70MOL0     O 9553   6.405   9.297   4.441  0.5831  0.1508 -0.9587
   70MOL0     C 9554   6.477   9.393   4.518 -0.8338 -0.7869  0.0837
   70MOL0     C 9555   6.425   9.500   4.591 -0.2454 -0.0688 -0.0777
   70MOL0     C 9556   6.496   9.575   4.681 -0.1713 -0.3141  0.4528
   70MOL0     C 9557   6.633   9.548   4.703 -0.3626 -0.2544 -0.1826
   70MOL0     O 9558   6.704   9.623   4.795  0.4585 -0.1315  0.9284
   70MOL0     C 9559   6.759   9.742   4.730  0.0281 -0.4733 -0.6308
   70MOL0     C 9560   6.776   9.850   4.827 -0.0670  0.4417 -0.5984
   70MOL0     C 9561   6.646   9.890   4.893  0.5042 -0.7727 -0.0134
   70MOL0     C 9562   6.662  10.027   4.974  0.4881  0.4038  0.5674
   70MOL0     C 9563   6.543  10.121   4.994 -0.4035 -0.3746 -0.0220
   70MOL0     C 9564   6.432  10.039   5.059 -0.5769  0.3125 -0.2186
   70MOL0     C 9565   6.479   9.981   5.190  0.1931 -0.0620 -0.7874
   70MOL0     C 9566   6.365   9.923   5.269  0.0253  0.3752 -0.7387
   70MOL0    Cl 9567   6.265   9.816   5.179 -0.0963  0.2758  0.3533
   70MOL0     C 9568   6.687   9.446   4.624 -0.3571  0.8329 -0.2285
   70MOL0     C 9569   6.613   9.367   4.538 -0.2903 -0.2430  0.5921
   70MOL0     O 9570   6.211   9.305   4.562 -0.0839  0.5625  1.2095
   70MOL0     C 9571   6.282   9.183   4.232  0.4183  0.1993  0.1745
   70MOL0     C 9572   6.229   9.131   4.114  0.0847  0.1464 -0.0268
   70MOL0     N 9573   5.791   8.561   3.708 -0.3068 -0.2753  0.3257
   70MOL0     N 9574   5.723   8.456   3.722 -0.3020 -0.5545  0.6066
   70MOL0     C 9575   4.549   8.441   3.204 -0.0386  0.5869  0.2988
   70MOL0     C 9576   4.450   8.415   3.100  0.4573 -0.7263  0.8710
   70MOL0     C 9577   4.245   8.277   2.743 -0.3784 -0.7335  0.5279
   70MOL0     C 9578   4.130   8.365   2.755  0.2873 -0.8761 -0.3828
   70MOL0     C 9579   4.011   8.353   2.695  0.1352  0.3473  0.1820
   70MOL0     C 9580   3.980   8.237   2.625 -0.2995  0.7517  0.5408
   70MOL0     O 9581   3.851   8.216   2.587  0.7242  1.1126 -0.3751
   70MOL0     C 9582   3.815   8.097   2.521  0.7845 -0.5168  0.7321
   70MOL0     C 9583   3.787   7.984   2.626 -0.1330 -0.8873  0.0883
   70MOL0     C 9584   3.719   7.865   2.556  0.4962 -0.9272  0.0566
   70MOL0     C 9585   3.702   7.747   2.641 -0.4735 -0.1995 -0.3252
   70MOL0     C 9586   3.602   7.661   2.582  0.7558 -0.0914 -0.3472
   70MOL0     C 9587   3.520   7.597   2.525 -0.5665  0.3000 -0.5389
   70MOL0     C 9588   4.086   8.140   2.618 -0.1834  0.0070  1.1232
   70MOL0     C 9589   4.221   8.163   2.666 -0.1010 -0.5605  1.0500
   70MOL0     C 9590   4.332   8.065   2.623  0.3973 -0.4709 -0.4461
   70MOL0     H 9591   4.583   8.572   2.838  0.4692 -0.3681  0.4056
   70MOL0     H 9592   4.754   8.622   3.014  0.8530 -0.8596  0.2435
   70MOL0     H 9593   4.828   8.698   3.230 -1.1947 -1.7294  0.1504
   70MOL0     H 9594   4.922   8.589   3.138  0.7822  0.7506 -0.8359
   70MOL0     H 9595   5.022   8.702   3.350  3.2177 -1.0495 -2.1908
   70MOL0     H 9596   4.931   8.585   3.444  1.0141 -2.5626  0.5636
   70MOL0     H 9597   5.022   8.405   3.350  2.6521 -1.8359  0.4127
   70MOL0     H 9598   5.112   8.496   3.220  0.8778  1.8553  0.7185
   70MOL0     H 9599   5.257   8.601   3.383 -1.4434  0.5421 -0.9062
   70MOL0     H 9600   5.171   8.545   3.521 -0.1329  2.8823 -0.9044
   70MOL0     H 9601   5.335   8.370   3.319 -0.7985  3.3456 -0.7328
   70MOL0     H 9602   5.242   8.309   3.453 -1.8040  1.2050  1.2777
   70MOL0     H 9603   5.475   8.323   3.497 -1.6958 -1.0654 -3.8450
   70MOL0     H 9604   5.475   8.497   3.471 -0.2996 -1.2545 -2.9354
   70MOL0     H 9605   5.302   8.336   3.662  0.2459 -0.5504 -1.8225
   70MOL0     H 9606   5.328   8.515   3.685 -3.1493 -1.5383  0.2375
   70MOL0     H 9607   5.425   8.405   3.858 -1.5286  0.7038 -0.0334
   70MOL0     H 9608   5.503   8.281   3.753 -0.8817  0.4107  1.6213
   70MOL0     H 9609   5.490   8.680   3.706 -0.1918  0.3365  1.0749
   70MOL0     H 9610   5.669   8.863   3.681 -0.4078  0.7079  3.4722
   70MOL0     H 9611   5.828   8.798   3.627  1.5036 -1.3612  1.5910
   70MOL0     H 9612   5.744   8.838   3.908  1.7077  1.6099  1.4285
   70MOL0     H 9613   5.891   8.770   3.862 -2.0094 -2.0175  0.9146
   70MOL0     H 9614   5.975   8.995   3.762  1.6816  2.1779  1.8602
   70MOL0     H 9615   5.802   9.050   3.785 -0.3771 -3.5151 -4.3528
   70MOL0     H 9616   5.838   9.117   3.999 -3.2846 -3.0281  0.0570
   70MOL0     H 9617   5.885   8.972   4.043 -1.5307  1.7496  1.1665
   70MOL0     H 9618   5.902   9.144   4.204  0.5567  4.0820 -1.1006
   70MOL0     H 9619   5.964   9.365   4.443 -0.1415 -0.1517  0.2276
   70MOL0     H 9620   5.989   9.209   4.535 -0.2208 -2.0922 -0.5682
   70MOL0     H 9621   5.864   9.223   4.422  0.0513 -0.1691 -0.2297
   70MOL0     H 9622   6.317   9.514   4.588 -0.7390 -2.5018  2.2800
   70MOL0     H 9623   6.450   9.655   4.737 -1.4423 -0.6974 -0.0202
   70MOL0     H 9624   6.861   9.723   4.696  0.0408 -3.0442  0.6143
   70MOL0     H 9625   6.696   9.778   4.649  1.2355  1.6692 -0.6876
   70MOL0     H 9626   6.850   9.826   4.904  1.1573  3.1236 -0.8454
   70MOL0     H 9627   6.819   9.931   4.768  3.2494 -0.2155  0.6743
   70MOL0     H 9628   6.629   9.813   4.969 -1.6030 -0.9358 -0.5959
   70MOL0     H 9629   6.562   9.886   4.823 -1.6194  1.3378  2.1900
   70MOL0     H 9630   6.735  10.093   4.926 -0.5501 -0.4065 -2.3541
   70MOL0     H 9631   6.709  10.008   5.071  1.4852 -0.3414 -0.0458
   70MOL0     H 9632   6.560  10.201   5.067  2.4321 -1.5627  0.7865
   70MOL0     H 9633   6.505  10.167   4.903  0.3398  2.2642  0.9103
   70MOL0     H 9634   6.398   9.962   4.989  0.9079 -0.9538  0.4050
   70MOL0     H 9635   6.341  10.098   5.075 -0.3509  0.9702 -1.2540
   70MOL0     H 9636   6.519  10.067   5.244  1.5841 -1.1063 -0.0868
   70MOL0     H 9637   6.552   9.900   5.187  0.5588  0.2538 -0.5158
   70MOL0     H 9638   6.297  10.003   5.300  0.1826  0.6497 -1.0910
   70MOL0     H 9639   6.399   9.864   5.354  2.5192  1.7816 -0.6495
   70MOL0     H 9640   6.787   9.405   4.628 -0.6850 -0.0474 -0.8070
   70MOL0     H 9641   6.640   9.277   4.483 -0.1147 -0.7170  1.4293
   70MOL0     H 9642   6.390   9.190   4.235  0.4970 -0.4536 -0.8490
   70MOL0     H 9643   6.293   9.104   4.031 -0.2362  1.9135 -0.8803
   70MOL0     H 9644   4.524   8.409   3.305  0.9699  1.6898  0.9237
   70MOL0     H 9645   4.364   8.352   3.121 -0.7804 -0.3041 -2.2990
   70MOL0     H 9646   4.140   8.459   2.809 -0.0685 -0.0432 -1.7196
   70MOL0     H 9647   3.927   8.420   2.708  0.2325  0.5254 -0.1011
   70MOL0     H 9648   3.725   8.121   2.462  0.2875  2.6954  2.5682
   70MOL0     H 9649   3.893   8.059   2.454 -0.2651 -3.8064  1.1872
   70MOL0     H 9650   3.728   8.014   2.713  0.3416  1.0124 -0.2108
   70MOL0     H 9651   3.888   7.955   2.657 -0.6493 -0.2143  2.5678
   70MOL0     H 9652   3.621   7.897   2.520 -0.0663 -1.9031  0.6711
   70MOL0     H 9653   3.761   7.828   2.462 -1.5264 -2.2500 -0.3962
   70MOL0     H 9654   3.663   7.772   2.741  1.9501 -0.6454  0.8149
   70MOL0     H 9655   3.796   7.690   2.648 -0.0423  0.5555  0.3160
   70MOL0     H 9656   3.452   7.541   2.464  0.2565  1.7707 -2.9486
   70MOL0     H 9657   4.081   8.051   2.556 -3.7733  1.2508 -0.6116
   70MOL0     H 9658   4.314   8.019   2.526  1.2545 -0.1318 -0.7712
   70MOL0     H 9659   4.432   8.110   2.619  0.9980 -1.8253 -1.0841
   70MOL0     H 9660   4.328   7.999   2.710 -2.8394  2.0304  1.5563
   71MOL0     O 9661  10.979   1.778   0.395  0.6502 -0.2910  0.2370
   71MOL0     C 9662  10.925   1.879   0.344 -0.7843  0.0235 -0.6537
   71MOL0     O 9663  10.994   1.980   0.277 -0.9218 -0.5685  0.9517
   71MOL0     C 9664  11.116   1.955   0.222  0.5530 -0.1412  0.2177
   71MOL0     C 9665  11.123   1.905   0.090 -0.7097  0.6707  0.5793
   71MOL0     C 9666  11.248   1.899   0.027 -0.6173  0.6048  0.3754
   71MOL0     C 9667  11.368   1.904   0.110 -0.3085 -0.2993 -0.4499
   71MOL0     O 9668  11.483   1.853   0.065  0.1060 -0.7704 -0.1895
   71MOL0     C 9669  11.524   1.736   0.137 -0.7420  0.1856 -0.1965
   71MOL0     C 9670  11.665   1.696   0.093 -0.4018  0.3844  0.1801
   71MOL0     C 9671  11.678   1.692  -0.062  0.2435  0.5467 -0.7314
   71MOL0     C 9672  11.825   1.665  -0.100  1.0224  0.3947 -0.3131
   71MOL0     C 9673  11.837   1.602  -0.238  0.6845 -1.4091 -0.1350
   71MOL0     C 9674  11.980   1.578  -0.294  1.1594 -0.8743 -0.6300
   71MOL0     C 9675  11.970   1.512  -0.432  0.6441 -0.0719 -0.5136
   71MOL0     C 9676  12.090   1.532  -0.521 -0.2346  0.3717 -0.0891
   71MOL0     N 9677  12.209   1.473  -0.463  0.9890 -0.3732  0.1675
   71MOL0     C 9678  12.257   1.349  -0.487  0.2964 -0.1739  0.2290
   71MOL0     C 9679  12.350   1.328  -0.389  0.1556  1.3039  0.2747
   71MOL0     C 9680  12.410   1.194  -0.361  0.0822 -0.0218  1.5117
   71MOL0     C 9681  12.559   1.196  -0.323 -0.4019 -0.2980 -0.1525
   71MOL0     C 9682  12.594   1.051  -0.273 -0.3851  0.9357  0.0852
   71MOL0     C 9683  12.741   1.018  -0.306 -0.6765 -0.4466  0.2467
   71MOL0     O 9684  12.823   1.122  -0.259 -0.2856 -0.9632  0.1835
   71MOL0     C 9685  12.945   1.088  -0.233 -0.1397 -0.5552 -0.3329
   71MOL0     C 9686  12.965   1.035  -0.108 -0.1492 -1.0226  0.0276
   71MOL0     C 9687  13.090   0.983  -0.071 -0.3918  0.6929 -0.7940
   71MOL0     C 9688  13.111   0.936   0.077  0.6557 -0.3657 -1.1640
   71MOL0     C 9689  13.201   0.985  -0.163  0.3815  0.4528 -0.2761
   71MOL0     C 9690  13.337   0.921  -0.140 -0.1120 -0.0329 -0.8465
   71MOL0     O 9691  13.339   0.837  -0.035 -0.3064  0.6135  0.7254
   71MOL0     C 9692  13.443   0.750  -0.018 -0.5250 -0.3961  0.1491
   71MOL0     C 9693  13.404   0.631   0.025 -0.4480  0.9134 -0.5464
   71MOL0     C 9694  13.504   0.532   0.062  0.0746  0.5242 -0.4360
   71MOL0     C 9695  13.639   0.561   0.050 -0.6138  0.3533 -0.4652
   71MOL0     O 9696  13.713   0.453   0.091 -0.9346  0.5002  0.1713
   71MOL0     C 9697  13.856   0.470   0.078 -0.0923  0.9674  0.6061
   71MOL0     C 9698  13.907   0.443  -0.068  1.2086  0.0760  0.1940
   71MOL0     C 9699  14.056   0.451  -0.063 -0.0435 -0.7831  0.1746
   71MOL0     C 9700  14.111   0.398  -0.199  0.7982  0.3293  0.6649
   71MOL0     C 9701  14.255   0.433  -0.219 -0.5053 -0.4668 -0.2298
   71MOL0     C 9702  14.346   0.370  -0.110 -0.8577  0.7738  0.0949
   71MOL0     C 9703  14.489   0.376  -0.167  0.4441 -0.0569 -0.6791
   71MOL0     C 9704  14.514   0.271  -0.281 -0.1049 -0.4906  0.1846
   71MOL0    Cl 9705  14.686   0.264  -0.328  0.1977 -0.0866 -0.1255
   71MOL0     C 9706  13.676   0.681  -0.002 -0.1437  0.5823 -0.0769
   71MOL0     C 9707  13.578   0.779  -0.031  0.2703  0.4504 -0.2877
   71MOL0     O 9708  13.428   0.944  -0.218 -0.4024  0.6445  0.5727
   71MOL0     C 9709  13.179   1.052  -0.286  0.0345 -0.1121 -0.3910
   71MOL0     C 9710  13.055   1.104  -0.323 -0.1922 -0.3574 -0.8326
   71MOL0     N 9711  12.366   1.445  -0.319 -0.4164 -0.2044 -0.6907
   71MOL0     N 9712  12.280   1.533  -0.368 -0.5837 -0.0339  0.1766
   71MOL0     C 9713  11.360   1.948   0.240  0.2583 -0.1730 -0.6520
   71MOL0     C 9714  11.232   1.979   0.296 -0.1183  0.5556  0.4005
   71MOL0     C 9715  10.786   1.912   0.379 -0.0266 -0.0102  0.2087
   71MOL0     C 9716  10.720   1.998   0.283 -0.5977  1.4610 -1.1634
   71MOL0     C 9717  10.585   2.022   0.288 -0.3638  0.8834 -0.1408
   71MOL0     C 9718  10.507   1.979   0.394 -0.3228  0.6893 -0.3299
   71MOL0     O 9719  10.371   1.998   0.387 -0.8424  0.0238 -0.1116
   71MOL0     C 9720  10.299   1.972   0.501 -0.2458  0.2406 -0.1747
   71MOL0     C 9721  10.143   1.976   0.485 -0.8074  0.0698  0.0929
   71MOL0     C 9722  10.093   1.840   0.430 -0.6265 -0.1087  0.0058
   71MOL0     C 9723  10.063   1.739   0.547 -1.5101 -0.4102  0.3427
   71MOL0     C 9724   9.996   1.617   0.500 -0.1054  0.3106 -0.0985
   71MOL0     C 9725   9.929   1.522   0.465 -0.0591 -0.0714 -0.2238
   71MOL0     C 9726  10.577   1.896   0.498  0.6677 -0.2126  0.3559
   71MOL0     C 9727  10.710   1.863   0.482 -0.7629 -0.0579 -0.3580
   71MOL0     C 9728  10.776   1.780   0.599  0.1005 -0.3792  0.1731
   71MOL0     H 9729  11.026   1.881   0.048  0.8517 -2.3024 -1.6790
   71MOL0     H 9730  11.252   1.868  -0.077  0.4638 -0.4128  0.7029
   71MOL0     H 9731  11.448   1.661   0.114 -1.4794  1.3596 -1.7718
   71MOL0     H 9732  11.539   1.750   0.245  2.5556 -1.5792 -0.3050
   71MOL0     H 9733  11.748   1.751   0.138  4.8724 -3.4876 -3.5559
   71MOL0     H 9734  11.686   1.595   0.129 -0.5993 -0.3690 -1.7050
   71MOL0     H 9735  11.629   1.603  -0.104  1.5079 -0.6326  0.2091
   71MOL0     H 9736  11.645   1.785  -0.109  0.9499  1.3637  0.3428
   71MOL0     H 9737  11.872   1.763  -0.092 -1.0176  1.3896  0.0876
   71MOL0     H 9738  11.865   1.594  -0.027  0.6949  0.1503 -0.3653
   71MOL0     H 9739  11.791   1.666  -0.313  1.1452  0.8795  1.4274
   71MOL0     H 9740  11.780   1.510  -0.226 -1.2247 -0.1883  0.7479
   71MOL0     H 9741  12.027   1.676  -0.299  1.5473 -0.9685  0.8453
   71MOL0     H 9742  12.044   1.507  -0.241  0.3943 -2.2728 -1.5038
   71MOL0     H 9743  11.879   1.545  -0.482  0.2158  2.6083  1.7697
   71MOL0     H 9744  11.952   1.406  -0.413  0.6776 -0.1758 -1.0557
   71MOL0     H 9745  12.076   1.488  -0.620  2.0544  1.5726 -0.9981
   71MOL0     H 9746  12.105   1.639  -0.536  0.4819  0.2717 -0.1324
   71MOL0     H 9747  12.217   1.273  -0.553  0.2676  1.6864 -2.0423
   71MOL0     H 9748  12.399   1.141  -0.456 -1.6455  4.3222 -1.0040
   71MOL0     H 9749  12.346   1.156  -0.280 -1.5283 -1.0621 -0.1841
   71MOL0     H 9750  12.613   1.232  -0.411  1.9290  1.3245  1.8396
   71MOL0     H 9751  12.586   1.272  -0.250  1.4635 -1.8201  0.8141
   71MOL0     H 9752  12.554   1.051  -0.171 -3.0163 -0.9431 -0.8392
   71MOL0     H 9753  12.533   0.975  -0.324  0.5699  2.2082 -3.1895
   71MOL0     H 9754  12.768   0.922  -0.263  3.8560  1.3085  1.9740
   71MOL0     H 9755  12.760   1.003  -0.413 -0.7943 -2.3501  0.4660
   71MOL0     H 9756  12.882   1.035  -0.038  1.4409  3.0659  2.2394
   71MOL0     H 9757  13.086   0.830   0.085  0.0284 -0.1223  0.9785
   71MOL0     H 9758  13.044   0.990   0.145  2.4817  1.9060 -1.0527
   71MOL0     H 9759  13.212   0.964   0.109 -0.0214  1.2805 -0.2967
   71MOL0     H 9760  13.296   0.620   0.033 -0.2006 -1.3290  0.2702
   71MOL0     H 9761  13.467   0.441   0.108 -1.2794  1.7855  1.1212
   71MOL0     H 9762  13.904   0.561   0.116  1.2731  0.3753  0.3773
   71MOL0     H 9763  13.896   0.390   0.141 -1.9284 -0.5235 -0.0431
   71MOL0     H 9764  13.877   0.343  -0.101  1.8184  0.3823 -1.3831
   71MOL0     H 9765  13.860   0.506  -0.144  0.1882  0.6052  1.2429
   71MOL0     H 9766  14.095   0.388   0.017 -0.3423 -0.8473  0.2692
   71MOL0     H 9767  14.082   0.556  -0.049  0.5454 -0.8655 -0.2564
   71MOL0     H 9768  14.057   0.431  -0.289  0.3768 -0.1382  0.7380
   71MOL0     H 9769  14.092   0.290  -0.200 -0.0745  0.4515 -1.5598
   71MOL0     H 9770  14.273   0.385  -0.316  0.0278 -0.7013 -0.0219
   71MOL0     H 9771  14.266   0.541  -0.224 -1.8769 -0.2371  1.1289
   71MOL0     H 9772  14.323   0.268  -0.078 -1.5338  1.3056  1.3585
   71MOL0     H 9773  14.337   0.432  -0.020  0.3832  1.2119 -0.0617
   71MOL0     H 9774  14.575   0.357  -0.101 -0.3131  1.3852  0.8157
   71MOL0     H 9775  14.502   0.480  -0.200 -0.4317  1.1571  2.3424
   71MOL0     H 9776  14.464   0.288  -0.377 -0.6817  0.0191  0.5640
   71MOL0     H 9777  14.482   0.173  -0.247 -1.9627 -1.4237 -3.6540
   71MOL0     H 9778  13.782   0.701  -0.009 -0.1592  0.9104  0.5669
   71MOL0     H 9779  13.607   0.880  -0.060  0.7791  0.3460 -0.1607
   71MOL0     H 9780  13.262   1.049  -0.355 -1.0245  0.5042 -1.7311
   71MOL0     H 9781  13.043   1.132  -0.427 -2.7824 -3.3656 -1.5029
   71MOL0     H 9782  11.442   1.954   0.311 -0.9172 -2.5957  1.0177
   71MOL0     H 9783  11.227   1.993   0.403  0.2804 -3.2107  1.0520
   71MOL0     H 9784  10.773   2.035   0.196  1.1132 -1.4215 -1.4718
   71MOL0     H 9785  10.532   2.068   0.205 -0.5516 -0.5482 -0.8674
   71MOL0     H 9786  10.321   1.880   0.556  0.3618 -0.0595 -0.9025
   71MOL0     H 9787  10.327   2.056   0.567  0.6007  1.0587 -1.5312
   71MOL0     H 9788  10.129   2.057   0.412  0.6540 -1.7624 -2.4056
   71MOL0     H 9789  10.098   2.003   0.581 -3.0934  1.1950 -1.2121
   71MOL0     H 9790  10.000   1.858   0.375  0.9806  1.2482 -2.3943
   71MOL0     H 9791  10.165   1.798   0.360 -1.2397 -1.2362  0.0191
   71MOL0     H 9792   9.998   1.787   0.620  1.2107  0.4784  2.3062
   71MOL0     H 9793  10.156   1.725   0.603 -0.0009  4.6908 -0.3988
   71MOL0     H 9794   9.903   1.427   0.424  3.3419 -1.2393  0.0707
   71MOL0     H 9795  10.530   1.853   0.585 -0.2715 -0.7743 -0.4135
   71MOL0     H 9796  10.727   1.817   0.690 -1.9185 -0.3288 -0.8790
   71MOL0     H 9797  10.774   1.671   0.593  0.9589 -0.4373  0.7529
   71MOL0     H 9798  10.880   1.812   0.614 -0.0148 -0.7811  2.1537
   72MOL0     O 9799  10.119   4.833   6.298 -0.5492 -0.2120 -0.4321
   72MOL0     C 9800  10.126   4.769   6.192  0.2896  0.0779 -0.0223
   72MOL0     O 9801  10.214   4.795   6.091  0.3079  0.7480  0.7025
   72MOL0     C 9802  10.326   4.874   6.093 -0.1144 -0.2292 -0.1206
   72MOL0     C 9803  10.349   4.969   6.197  0.2633  0.1098 -0.1257
   72MOL0     C 9804  10.467   5.034   6.199 -0.0980 -0.0308 -0.8168
   72MOL0     C 9805  10.565   5.019   6.096 -0.8055 -0.0184  0.5024
   72MOL0     O 9806  10.684   5.088   6.092  0.1078  0.1844 -0.4398
   72MOL0     C 9807  10.690   5.215   6.161 -0.0830  0.5229 -0.2337
   72MOL0     C 9808  10.784   5.309   6.084  0.9131  0.1481 -0.3606
   72MOL0     C 9809  10.866   5.401   6.184 -0.2578  0.0250  0.1624
   72MOL0     C 9810  10.953   5.480   6.084  0.6143  0.8186  0.1491
   72MOL0     C 9811  11.056   5.572   6.149 -0.5538  0.2338  0.2539
   72MOL0     C 9812  11.141   5.639   6.039 -0.1742 -0.3547  0.0221
   72MOL0     C 9813  11.232   5.749   6.100  0.0668  0.1054  1.2224
   72MOL0     C 9814  11.326   5.785   5.983  0.9115 -0.0714 -0.2438
   72MOL0     N 9815  11.409   5.901   6.021  1.0201  0.3121 -0.3581
   72MOL0     C 9816  11.370   6.032   6.010  0.5991 -0.7025  1.0207
   72MOL0     C 9817  11.451   6.101   6.091 -0.1538 -0.3792  0.3277
   72MOL0     C 9818  11.457   6.245   6.110  0.0158 -0.7745  0.1003
   72MOL0     C 9819  11.499   6.279   6.260  0.3446  1.0629  0.1678
   72MOL0     C 9820  11.538   6.429   6.262  0.3837 -0.0876 -1.2544
   72MOL0     C 9821  11.601   6.473   6.391 -0.2868 -0.4765  0.0788
   72MOL0     O 9822  11.744   6.446   6.379 -0.2002  0.3660  0.3994
   72MOL0     C 9823  11.828   6.452   6.485  0.4640  0.2818  0.3771
   72MOL0     C 9824  11.812   6.497   6.614 -0.7202 -0.1664  0.5581
   72MOL0     C 9825  11.922   6.504   6.704 -0.7031  0.1531 -0.3524
   72MOL0     C 9826  11.907   6.559   6.838  0.5741 -0.1012 -0.1400
   72MOL0     C 9827  12.052   6.461   6.655  0.3335 -0.1900 -0.2329
   72MOL0     C 9828  12.175   6.461   6.742 -0.9957  0.3923 -0.5448
   72MOL0     O 9829  12.288   6.505   6.673 -0.1281 -0.0000 -0.4444
   72MOL0     C 9830  12.412   6.513   6.734  0.5197  0.0462  0.4048
   72MOL0     C 9831  12.425   6.562   6.860 -0.6509 -0.2816 -0.0440
   72MOL0     C 9832  12.556   6.546   6.923  0.7739  0.0631 -0.0306
   72MOL0     C 9833  12.666   6.495   6.853  1.0334 -0.0107 -0.4567
   72MOL0     O 9834  12.793   6.493   6.900 -0.1650  0.5302  0.4512
   72MOL0     C 9835  12.825   6.572   7.016 -0.4082  0.6287  0.1903
   72MOL0     C 9836  12.972   6.572   7.064 -0.9955  0.2272  0.2501
   72MOL0     C 9837  13.033   6.432   7.079  0.3173 -0.8161 -0.5938
   72MOL0     C 9838  13.162   6.442   7.158  0.8745  0.6601  0.6400
   72MOL0     C 9839  13.232   6.306   7.163  0.3136  0.0653  0.0532
   72MOL0     C 9840  13.384   6.308   7.206  0.8920  0.3885  0.9649
   72MOL0     C 9841  13.397   6.379   7.343 -0.0371 -0.2188  0.4676
   72MOL0     C 9842  13.530   6.355   7.412  0.0496 -0.2899 -0.1671
   72MOL0    Cl 9843  13.650   6.452   7.311  0.0843  0.2437  0.1894
   72MOL0     C 9844  12.648   6.450   6.721 -0.0696 -0.2311  0.6983
   72MOL0     C 9845  12.524   6.471   6.654 -0.7714 -0.1963  0.0177
   72MOL0     O 9846  12.179   6.431   6.859  0.4488 -0.3235 -0.0041
   72MOL0     C 9847  12.068   6.423   6.521 -0.7927  0.0085  0.6052
   72MOL0     C 9848  11.954   6.415   6.442  0.5261  0.0882 -0.8906
   72MOL0     N 9849  11.543   6.010   6.142  0.2626  0.0171 -0.2607
   72MOL0     N 9850  11.519   5.890   6.099 -0.0134  0.8473 -0.3907
   72MOL0     C 9851  10.542   4.925   5.997  0.0635 -0.4370  0.4572
   72MOL0     C 9852  10.422   4.848   6.003  0.0133 -0.3810  0.3773
   72MOL0     C 9853  10.023   4.662   6.175 -0.4058 -0.0493  0.2036
   72MOL0     C 9854   9.916   4.660   6.266  0.8511 -1.0535  0.4275
   72MOL0     C 9855   9.814   4.566   6.264 -0.4491 -0.2789  0.3901
   72MOL0     C 9856   9.827   4.456   6.183 -0.0731 -0.0708 -0.5687
   72MOL0     O 9857   9.744   4.347   6.177  0.3326  0.1463 -0.7124
   72MOL0     C 9858   9.600   4.377   6.189  0.8528  0.2248 -0.6882
   72MOL0     C 9859   9.535   4.269   6.092 -0.1954 -0.7255 -0.7318
   72MOL0     C 9860   9.596   4.271   5.948 -0.3315  0.3084 -0.4549
   72MOL0     C 9861   9.689   4.154   5.930  0.3593  0.1130 -0.1504
   72MOL0     C 9862   9.786   4.166   5.817 -0.0478 -0.6985  0.9538
   72MOL0     C 9863   9.870   4.173   5.733 -0.5233 -1.0117  0.0896
   72MOL0     C 9864   9.929   4.449   6.099 -0.6402 -0.0676  0.5529
   72MOL0     C 9865  10.034   4.549   6.089  0.5625  0.2704  0.4979
   72MOL0     C 9866  10.140   4.523   5.992 -1.0246 -0.3130  0.5405
   72MOL0     H 9867  10.274   4.997   6.271 -3.1860  0.6598 -3.5064
   72MOL0     H 9868  10.497   5.100   6.280  0.0346  0.2720 -1.1089
   72MOL0     H 9869  10.734   5.200   6.260  3.5044  1.5835 -1.5020
   72MOL0     H 9870  10.596   5.271   6.159  0.9426  2.4128  1.4714
   72MOL0     H 9871  10.846   5.247   6.018  0.1269  0.7162 -1.6529
   72MOL0     H 9872  10.726   5.373   6.017  1.9120 -0.5059 -1.9051
   72MOL0     H 9873  10.791   5.464   6.233  0.8346  1.0515  0.5592
   72MOL0     H 9874  10.943   5.352   6.244  0.2191  3.2948  2.5077
   72MOL0     H 9875  10.998   5.411   6.012  0.1517 -0.2539  0.8637
   72MOL0     H 9876  10.880   5.540   6.029 -0.4920 -1.9943 -1.6781
   72MOL0     H 9877  11.117   5.512   6.217  3.4281  2.1389 -1.2862
   72MOL0     H 9878  11.000   5.644   6.209 -0.4405 -1.4755  2.5127
   72MOL0     H 9879  11.209   5.560   6.006 -1.7282 -1.7225 -0.0038
   72MOL0     H 9880  11.082   5.675   5.955  2.1592  1.5480 -0.9240
   72MOL0     H 9881  11.294   5.700   6.176  2.0322  0.4757 -0.0863
   72MOL0     H 9882  11.184   5.843   6.128 -0.7642  0.8315 -2.2299
   72MOL0     H 9883  11.397   5.705   5.960  1.5042  0.7372 -1.3316
   72MOL0     H 9884  11.265   5.816   5.897 -2.2504  1.2442  2.2477
   72MOL0     H 9885  11.276   6.075   5.976 -0.0970 -1.5013  1.8734
   72MOL0     H 9886  11.362   6.298   6.098 -0.3858 -1.2418  1.0977
   72MOL0     H 9887  11.545   6.280   6.055  1.2714 -2.5829  0.8535
   72MOL0     H 9888  11.414   6.261   6.327 -0.9393 -0.0055 -1.6755
   72MOL0     H 9889  11.579   6.206   6.275 -2.0675 -1.5394  1.3016
   72MOL0     H 9890  11.609   6.436   6.179  1.2732 -3.1489 -0.8590
   72MOL0     H 9891  11.449   6.490   6.245 -3.2430 -3.0675  3.9815
   72MOL0     H 9892  11.595   6.581   6.405  1.9207  0.0871 -2.4048
   72MOL0     H 9893  11.549   6.436   6.479 -0.1527  4.3484  2.5471
   72MOL0     H 9894  11.713   6.529   6.645 -0.9451  1.9072 -1.9533
   72MOL0     H 9895  11.955   6.507   6.922  0.6332 -0.0562 -0.1448
   72MOL0     H 9896  11.801   6.570   6.861  0.2277 -0.8091 -1.3241
   72MOL0     H 9897  11.946   6.661   6.842 -0.6610  0.4310  4.2352
   72MOL0     H 9898  12.339   6.609   6.907 -0.2356  1.3052 -0.8278
   72MOL0     H 9899  12.558   6.568   7.030 -2.5488  1.1591 -0.0847
   72MOL0     H 9900  12.775   6.669   7.007 -3.1390 -0.8910 -4.0501
   72MOL0     H 9901  12.779   6.524   7.102  1.2751 -0.7731  0.3767
   72MOL0     H 9902  13.028   6.623   6.985  0.3735 -1.6789 -0.0911
   72MOL0     H 9903  12.982   6.627   7.158 -2.5674 -1.7912  1.6810
   72MOL0     H 9904  13.054   6.403   6.976  0.5214 -1.1450 -0.4631
   72MOL0     H 9905  12.959   6.365   7.125 -1.3709 -0.0808 -2.1119
   72MOL0     H 9906  13.142   6.478   7.260 -1.4711 -1.9996  1.2533
   72MOL0     H 9907  13.234   6.511   7.114 -0.3489  1.9618  0.6213
   72MOL0     H 9908  13.177   6.253   7.242  1.0540 -2.2207 -0.8887
   72MOL0     H 9909  13.215   6.251   7.070  0.7804 -1.6668  0.9539
   72MOL0     H 9910  13.450   6.358   7.134 -0.7930  0.4157 -0.6450
   72MOL0     H 9911  13.413   6.202   7.214  0.8115 -0.1995 -3.6124
   72MOL0     H 9912  13.318   6.335   7.405 -1.5457 -0.0715 -1.2368
   72MOL0     H 9913  13.377   6.486   7.333 -0.5757 -0.4873 -2.4487
   72MOL0     H 9914  13.558   6.250   7.412 -2.5230 -1.0575 -1.0198
   72MOL0     H 9915  13.518   6.386   7.516 -0.9278 -0.5496 -0.1898
   72MOL0     H 9916  12.728   6.401   6.667 -0.1236  2.2598 -1.9185
   72MOL0     H 9917  12.511   6.426   6.556  0.6857 -0.8006  0.0812
   72MOL0     H 9918  12.161   6.387   6.478 -1.7614  0.2234 -1.8019
   72MOL0     H 9919  11.963   6.382   6.339  0.0117 -3.0342 -0.0191
   72MOL0     H 9920  10.609   4.906   5.914 -2.1193 -0.3702 -1.4452
   72MOL0     H 9921  10.415   4.772   5.926  0.5677  0.8257 -0.8985
   72MOL0     H 9922   9.906   4.744   6.335 -1.3734  0.6319 -1.7794
   72MOL0     H 9923   9.743   4.569   6.346  1.2094 -0.1666  1.8873
   72MOL0     H 9924   9.558   4.376   6.290 -0.5150 -0.1514 -1.2354
   72MOL0     H 9925   9.579   4.477   6.150  0.9209  2.0915  3.5187
   72MOL0     H 9926   9.428   4.286   6.079  0.0769  1.1886 -0.7441
   72MOL0     H 9927   9.546   4.165   6.124  0.2135 -1.1840 -2.2521
   72MOL0     H 9928   9.514   4.263   5.876  0.3135 -1.4019 -1.0485
   72MOL0     H 9929   9.650   4.364   5.926 -0.8244  0.8534  0.5713
   72MOL0     H 9930   9.618   4.073   5.909  0.5953 -0.1254 -0.0366
   72MOL0     H 9931   9.755   4.136   6.016  0.9836  0.5765 -0.5268
   72MOL0     H 9932   9.946   4.163   5.658  0.7293 -0.6128  1.2474
   72MOL0     H 9933   9.926   4.368   6.026  2.0218  0.9755 -0.8377
   72MOL0     H 9934  10.160   4.603   5.920 -1.7704  0.6146  1.3272
   72MOL0     H 9935  10.240   4.517   6.037 -1.4828  3.1510  2.3657
   72MOL0     H 9936  10.114   4.434   5.935 -0.4343  2.0097 -3.7975
   73MOL0     O 9937   8.726   5.513   1.810 -0.1362 -0.6051  0.1760
   73MOL0     C 9938   8.739   5.419   1.739  0.4311 -0.2060 -0.2639
   73MOL0     O 9939   8.852   5.362   1.700  0.5255  0.2713  0.3298
   73MOL0     C 9940   8.977   5.421   1.690 -0.7421 -0.4676  0.2805
   73MOL0     C 9941   9.091   5.335   1.673  0.7081 -0.3074 -0.8350
   73MOL0     C 9942   9.214   5.397   1.671 -0.0205  0.3963  0.3802
   73MOL0     C 9943   9.229   5.534   1.654  0.8734 -0.2674  0.4943
   73MOL0     O 9944   9.358   5.582   1.641  0.6019 -0.3196 -0.1911
   73MOL0     C 9945   9.390   5.719   1.617  0.9662 -0.2313 -0.0059
   73MOL0     C 9946   9.515   5.713   1.535  0.0817  0.4165  0.0585
   73MOL0     C 9947   9.603   5.832   1.567 -1.1458  0.2275  0.5171
   73MOL0     C 9948   9.705   5.866   1.461 -0.1274  0.1773 -0.7052
   73MOL0     C 9949   9.811   5.963   1.502 -0.2898 -0.7189  0.7280
   73MOL0     C 9950   9.900   5.973   1.377 -0.6484  0.3549  0.8138
   73MOL0     C 9951  10.019   6.062   1.414  0.0058 -0.0561 -0.0386
   73MOL0     C 9952  10.098   6.109   1.294 -0.2819  0.3906 -0.1603
   73MOL0     N 9953  10.213   6.191   1.331  0.6432  0.6647 -0.8318
   73MOL0     C 9954  10.270   6.298   1.264  0.4152 -0.6720 -0.1500
   73MOL0     C 9955  10.387   6.305   1.321 -0.4331 -0.1241 -0.4741
   73MOL0     C 9956  10.489   6.414   1.314 -0.3621 -0.2668 -0.1502
   73MOL0     C 9957  10.594   6.369   1.218 -0.4898  0.2015  0.8849
   73MOL0     C 9958  10.650   6.496   1.152 -0.4262 -0.2847  0.3041
   73MOL0     C 9959  10.741   6.470   1.032  0.4938 -0.4153 -0.4232
   73MOL0     O 9960  10.853   6.395   1.084 -1.4432  0.0915 -0.4880
   73MOL0     C 9961  10.976   6.406   1.018 -0.0037 -0.2374 -0.6323
   73MOL0     C 9962  11.004   6.466   0.891  0.0977 -0.0246  0.1014
   73MOL0     C 9963  11.128   6.468   0.831  0.4333  0.5633 -0.0310
   73MOL0     C 9964  11.148   6.511   0.695 -0.1842  0.6810 -0.1753
   73MOL0     C 9965  11.231   6.405   0.911 -0.7692 -0.0307  0.5991
   73MOL0     C 9966  11.372   6.400   0.862 -0.2327  0.2862  0.8557
   73MOL0     O 9967  11.462   6.466   0.938  0.1513  0.0094 -0.7564
   73MOL0     C 9968  11.596   6.424   0.934 -0.3337  0.4092  0.0533
   73MOL0     C 9969  11.649   6.303   0.870 -0.2387  0.0438 -0.0274
   73MOL0     C 9970  11.783   6.270   0.885  0.1301  0.0894 -0.4038
   73MOL0     C 9971  11.871   6.352   0.957  0.4871  0.0971 -0.0808
   73MOL0     O 9972  12.003   6.323   0.950  0.3734  0.6934 -0.1644
   73MOL0     C 9973  12.080   6.364   0.834  0.6787  0.3769  0.4578
   73MOL0     C 9974  12.181   6.255   0.814 -0.8441  0.2040 -0.7320
   73MOL0     C 9975  12.288   6.292   0.710  0.5897  0.2321  0.1659
   73MOL0     C 9976  12.385   6.171   0.696 -0.3160  0.6424  0.7358
   73MOL0     C 9977  12.470   6.187   0.570  0.2544  0.2680 -0.5648
   73MOL0     C 9978  12.387   6.161   0.441 -1.0122  0.4672  0.8585
   73MOL0     C 9979  12.481   6.157   0.323 -0.0742 -0.0990 -0.3268
   73MOL0     C 9980  12.417   6.103   0.197 -0.2029 -0.0612 -0.2387
   73MOL0    Cl 9981  12.355   5.943   0.244 -0.0587 -0.0769  0.6950
   73MOL0     C 9982  11.819   6.471   1.016 -0.0618  0.1070  0.0652
   73MOL0     C 9983  11.688   6.505   1.000  0.9740 -0.5585  0.0545
   73MOL0     O 9984  11.395   6.342   0.752  0.0073 -0.2732 -0.3879
   73MOL0     C 9985  11.209   6.342   1.029  0.1997 -0.9441 -0.1800
   73MOL0     C 9986  11.079   6.343   1.082 -0.1268 -0.0979 -0.7726
   73MOL0     N 9987  10.412   6.206   1.415  0.7318  0.2665 -0.0249
   73MOL0     N 9988  10.296   6.143   1.429 -0.7895 -0.1858  0.5230
   73MOL0     C 9989   9.113   5.615   1.655  0.4201  0.2265 -0.7052
   73MOL0     C 9990   8.984   5.557   1.675 -1.2877  0.6203 -0.3940
   73MOL0     C 9991   8.622   5.339   1.723 -0.7653 -0.3740  0.2155
   73MOL0     C 9992   8.611   5.266   1.605  0.5138  0.0385  0.8571
   73MOL0     C 9993   8.493   5.201   1.574  0.1777 -0.3888 -0.1304
   73MOL0     C 9994   8.391   5.188   1.663  0.5992  0.4832 -1.0222
   73MOL0     O 9995   8.272   5.124   1.635  0.0821  0.2280  0.3243
   73MOL0     C 9996   8.264   5.031   1.522 -0.3433  0.7828 -0.3792
   73MOL0     C 9997   8.335   4.897   1.556 -0.1938 -0.1241  0.3753
   73MOL0     C 9998   8.243   4.823   1.651 -0.3775 -0.4053  0.1187
   73MOL0     C 9999   8.315   4.686   1.681  0.4644  0.3622  0.4539
   73MOL0     C10000   8.222   4.607   1.758  0.4373 -0.7606  0.6242
   73MOL0     C10001   8.146   4.538   1.810  0.2272 -0.1307 -0.7563
   73MOL0     C10002   8.406   5.248   1.787  0.8633 -0.1340  0.4502
   73MOL0     C10003   8.526   5.313   1.826 -1.0639  0.3266  0.1329
   73MOL0     C10004   8.540   5.358   1.973  0.0866  0.3689 -0.1644
   73MOL0     H10005   9.080   5.227   1.675 -0.9346 -0.2071  1.8045
   73MOL0     H10006   9.305   5.338   1.663  0.6738  1.0522  2.7931
   73MOL0     H10007   9.406   5.775   1.709 -3.2001  1.9678 -0.3896
   73MOL0     H10008   9.313   5.773   1.561 -1.5445  1.0573  4.2422
   73MOL0     H10009   9.570   5.619   1.547 -0.7122 -0.4200 -2.3686
   73MOL0     H10010   9.497   5.707   1.428  1.8984  2.5445 -0.4393
   73MOL0     H10011   9.535   5.916   1.584 -1.0348  1.2428 -3.1787
   73MOL0     H10012   9.658   5.823   1.661 -0.0322  3.1823  0.2420
   73MOL0     H10013   9.770   5.780   1.444  0.8303  0.6318  0.5161
   73MOL0     H10014   9.660   5.911   1.371 -2.8875 -3.2335 -1.2464
   73MOL0     H10015   9.866   5.919   1.586  1.2316 -0.8953 -0.3229
   73MOL0     H10016   9.770   6.061   1.529  0.0855 -0.5183  0.5886
   73MOL0     H10017   9.930   5.872   1.350  3.6632  1.8116 -0.6501
   73MOL0     H10018   9.848   6.013   1.289  0.2212  0.7663  0.4838
   73MOL0     H10019  10.083   6.010   1.486 -1.9542 -1.6395  0.6742
   73MOL0     H10020   9.979   6.146   1.471  0.0708 -0.9733  1.4135
   73MOL0     H10021  10.140   6.014   1.261 -1.7348  0.1045 -1.2743
   73MOL0     H10022  10.030   6.152   1.220  1.3707  0.2736 -1.8215
   73MOL0     H10023  10.214   6.366   1.201 -1.4751  0.7828  2.8874
   73MOL0     H10024  10.541   6.433   1.409 -1.7430  0.0026  0.5802
   73MOL0     H10025  10.452   6.512   1.282  0.7094  0.6154  1.2210
   73MOL0     H10026  10.674   6.322   1.275  0.6956  1.6144  0.4320
   73MOL0     H10027  10.565   6.296   1.142  1.1748 -0.1351  0.5319
   73MOL0     H10028  10.570   6.562   1.118 -0.8436 -0.1164  1.5405
   73MOL0     H10029  10.710   6.556   1.221  0.7750  0.2728 -1.1860
   73MOL0     H10030  10.697   6.408   0.954  0.3504 -1.0031  0.1239
   73MOL0     H10031  10.779   6.569   1.003  0.7253 -0.0986  0.8978
   73MOL0     H10032  10.922   6.523   0.848 -1.6084 -0.4475  2.5505
   73MOL0     H10033  11.250   6.543   0.673  0.4151  0.2903  1.8954
   73MOL0     H10034  11.084   6.594   0.664  0.9803  1.2432 -1.1497
   73MOL0     H10035  11.112   6.431   0.629 -3.8759  0.8987  1.3003
   73MOL0     H10036  11.584   6.239   0.812  1.1858 -2.0552  0.5859
   73MOL0     H10037  11.826   6.183   0.836  0.8451  0.2388 -0.0563
   73MOL0     H10038  12.017   6.367   0.745 -3.5848 -0.2298  3.1575
   73MOL0     H10039  12.116   6.466   0.854 -2.9720  1.9481 -0.1832
   73MOL0     H10040  12.241   6.245   0.905 -1.0251  2.2448 -0.3494
   73MOL0     H10041  12.130   6.161   0.795 -3.6594  0.9364  2.3099
   73MOL0     H10042  12.344   6.378   0.750  0.6607  0.8588 -1.2421
   73MOL0     H10043  12.240   6.325   0.618  0.3980 -0.9762 -0.1883
   73MOL0     H10044  12.327   6.078   0.691  1.4839 -0.5453  1.2635
   73MOL0     H10045  12.456   6.170   0.779  2.2749  3.0512 -1.2596
   73MOL0     H10046  12.515   6.286   0.562 -1.7909  1.3149  0.4005
   73MOL0     H10047  12.550   6.112   0.572  0.5518  0.4552 -2.7116
   73MOL0     H10048  12.320   6.243   0.415  1.0998  2.2213  0.7408
   73MOL0     H10049  12.329   6.069   0.457  1.2340 -1.2006 -0.0694
   73MOL0     H10050  12.570   6.099   0.352  1.4524  2.2857  0.0656
   73MOL0     H10051  12.525   6.255   0.300 -0.0233 -0.3651 -1.4037
   73MOL0     H10052  12.484   6.101   0.111  0.0288 -2.4518 -0.0905
   73MOL0     H10053  12.328   6.160   0.167  0.2231  0.5766 -0.3052
   73MOL0     H10054  11.890   6.531   1.071  0.9702 -1.2747  0.2887
   73MOL0     H10055  11.652   6.595   1.049  2.5220  0.2957 -0.3221
   73MOL0     H10056  11.283   6.295   1.092  1.0896  1.3154  0.5607
   73MOL0     H10057  11.047   6.297   1.175 -0.6520 -0.4364 -1.1095
   73MOL0     H10058   9.122   5.723   1.658 -1.1552  0.5031 -3.1834
   73MOL0     H10059   8.895   5.620   1.670 -0.4874  1.6930 -2.2597
   73MOL0     H10060   8.693   5.254   1.535  0.1232  0.7573  0.2539
   73MOL0     H10061   8.482   5.156   1.476  1.5724  0.3836 -0.6762
   73MOL0     H10062   8.158   5.015   1.500 -1.3223  3.1170  2.1494
   73MOL0     H10063   8.309   5.068   1.429 -1.5124 -0.3100 -1.4199
   73MOL0     H10064   8.437   4.907   1.595  0.7183 -2.7183 -1.0919
   73MOL0     H10065   8.338   4.840   1.463  1.0782  1.7073 -0.7630
   73MOL0     H10066   8.239   4.891   1.737 -0.3360  1.4556 -1.2957
   73MOL0     H10067   8.144   4.812   1.606  0.4963 -1.7627 -1.5722
   73MOL0     H10068   8.406   4.702   1.740 -0.2816  0.5706  1.5791
   73MOL0     H10069   8.336   4.639   1.584 -1.5619  0.1345  0.0750
   73MOL0     H10070   8.074   4.472   1.854 -2.9172  1.2618 -3.3882
   73MOL0     H10071   8.318   5.235   1.849 -0.5750  0.8824 -1.2765
   73MOL0     H10072   8.463   5.313   2.035 -1.3291  2.3588 -0.3799
   73MOL0     H10073   8.640   5.325   2.004 -0.2596  2.6859  4.3580
   73MOL0     H10074   8.532   5.464   2.000 -0.3671  0.1813  0.4484
   74MOL0     O10075   3.389   0.734   5.174  0.0871 -0.1730 -0.8782
   74MOL0     C10076   3.320   0.828   5.202 -0.0683 -0.1971  0.2947
   74MOL0     O10077   3.352   0.941   5.262 -0.6840  0.1543  0.5017
   74MOL0     C10078   3.482   0.956   5.303 -0.4280  1.0174 -0.1430
   74MOL0     C10079   3.570   1.028   5.223 -0.2122 -0.5167  0.0745
   74MOL0     C10080   3.702   1.048   5.270 -0.2835  0.3794  0.7055
   74MOL0     C10081   3.749   0.997   5.389  0.9201  0.2395  0.4959
   74MOL0     O10082   3.882   1.014   5.413  0.4818 -0.3531 -0.1300
   74MOL0     C10083   3.922   1.003   5.547 -0.0525  0.9963 -0.1029
   74MOL0     C10084   4.076   1.011   5.561 -0.2082  0.2237  0.6996
   74MOL0     C10085   4.142   1.116   5.470 -0.3825  1.2881 -0.2642
   74MOL0     C10086   4.121   1.257   5.531 -0.3236 -1.0326 -0.8727
   74MOL0     C10087   4.242   1.347   5.508  0.4233 -0.1808 -1.0889
   74MOL0     C10088   4.345   1.321   5.619  0.4663 -0.0726  0.4730
   74MOL0     C10089   4.465   1.414   5.594 -0.5481  0.3318 -0.7669
   74MOL0     C10090   4.537   1.457   5.718  0.0582 -0.4756 -0.8284
   74MOL0     N10091   4.676   1.487   5.689 -0.0865 -0.3295  0.7974
   74MOL0     C10092   4.773   1.397   5.705 -0.4983  0.5880 -0.3108
   74MOL0     C10093   4.886   1.456   5.671  0.3043 -0.2166 -0.4900
   74MOL0     C10094   5.019   1.390   5.664 -0.5010 -0.5668 -0.6509
   74MOL0     C10095   5.028   1.239   5.673  0.2567 -0.8747 -0.5685
   74MOL0     C10096   5.158   1.207   5.613 -0.0359  0.9388 -0.3955
   74MOL0     C10097   5.177   1.053   5.616  0.0213  0.2989 -0.1824
   74MOL0     O10098   5.169   0.995   5.743 -0.6129  0.2086  0.6141
   74MOL0     C10099   5.279   1.007   5.819  0.2377 -0.2974  0.2150
   74MOL0     C10100   5.266   0.952   5.946 -0.9656 -0.0382  0.1690
   74MOL0     C10101   5.370   0.945   6.048  0.2037  0.2690 -0.7584
   74MOL0     C10102   5.341   0.897   6.187 -0.2900 -0.3807  0.0747
   74MOL0     C10103   5.499   0.998   6.016 -0.5521 -1.5037 -0.5322
   74MOL0     C10104   5.625   1.002   6.100 -0.5344  1.1805  0.3621
   74MOL0     O10105   5.729   1.069   6.045  1.0545 -0.0414 -0.7679
   74MOL0     C10106   5.853   1.040   6.094 -0.1260  0.5521 -1.1789
   74MOL0     C10107   5.952   1.139   6.102  0.6237  0.3950 -0.2813
   74MOL0     C10108   6.082   1.110   6.147 -0.9557  0.0249  0.0194
   74MOL0     C10109   6.120   0.980   6.188 -0.4885 -0.5794  0.4479
   74MOL0     O10110   6.246   0.937   6.201  0.8297 -0.6917  0.6178
   74MOL0     C10111   6.340   1.031   6.259 -0.5164 -0.4120 -0.4457
   74MOL0     C10112   6.461   0.961   6.293 -0.5903 -0.6174  0.9886
   74MOL0     C10113   6.551   0.920   6.174 -0.4747 -0.1287  0.9088
   74MOL0     C10114   6.670   0.835   6.216  0.8756 -0.1930  0.2914
   74MOL0     C10115   6.790   0.920   6.268  0.3951 -0.8256  0.9948
   74MOL0     C10116   6.918   0.835   6.284  0.5558 -0.3903 -0.8246
   74MOL0     C10117   7.040   0.928   6.325 -0.2258  0.3498 -0.1418
   74MOL0     C10118   7.174   0.855   6.340  0.5270 -0.1455 -0.3796
   74MOL0    Cl10119   7.158   0.742   6.466  0.0423  0.1896 -0.2618
   74MOL0     C10120   6.023   0.881   6.190 -0.0289  0.0904 -0.3707
   74MOL0     C10121   5.894   0.913   6.135 -0.0486  0.3720  0.4037
   74MOL0     O10122   5.623   0.952   6.212  0.0326 -0.1638  0.4735
   74MOL0     C10123   5.510   1.052   5.886  1.0571  0.0148 -0.1015
   74MOL0     C10124   5.403   1.063   5.792 -0.3554 -0.2847  0.7031
   74MOL0     N10125   4.859   1.576   5.624  0.3908 -0.1738  0.5293
   74MOL0     N10126   4.736   1.606   5.654  0.6704  0.3376  0.3329
   74MOL0     C10127   3.657   0.924   5.469 -0.0742  0.0093  0.1583
   74MOL0     C10128   3.527   0.908   5.427  0.0728  0.1226 -0.9170
   74MOL0     C10129   3.171   0.805   5.185 -0.0925 -0.1510 -0.0800
   74MOL0     C10130   3.092   0.818   5.302  0.9591  0.1690  1.0468
   74MOL0     C10131   2.961   0.768   5.308 -0.3670  0.5842  0.0446
   74MOL0     C10132   2.894   0.727   5.188 -0.1111  0.2432  0.3482
   74MOL0     O10133   2.759   0.711   5.200  0.2111  0.1251  0.2947
   74MOL0     C10134   2.699   0.609   5.115 -0.4164  0.8156 -0.3720
   74MOL0     C10135   2.621   0.668   5.005  0.7695  0.8009 -0.5925
   74MOL0     C10136   2.478   0.690   5.041  0.1326 -0.4632 -0.0195
   74MOL0     C10137   2.398   0.570   5.080 -0.2257  0.3095  0.3812
   74MOL0     C10138   2.252   0.602   5.063  0.2668  0.0524 -0.3933
   74MOL0     C10139   2.136   0.642   5.059 -0.2572  0.3243 -0.4611
   74MOL0     C10140   2.970   0.724   5.065 -0.5035  0.1907  0.3496
   74MOL0     C10141   3.111   0.766   5.065 -0.1714 -0.5987  0.4928
   74MOL0     C10142   3.191   0.743   4.936 -0.3100  0.4650  0.8771
   74MOL0     H10143   3.519   1.078   5.141 -0.8102  2.1059  1.9411
   74MOL0     H10144   3.779   1.099   5.213 -1.0943  1.5548  0.6167
   74MOL0     H10145   3.891   0.902   5.576 -0.7284  0.8752 -1.1892
   74MOL0     H10146   3.877   1.078   5.613 -1.2614 -0.4222  0.7648
   74MOL0     H10147   4.100   1.032   5.666  0.9072 -1.2944  0.7742
   74MOL0     H10148   4.126   0.916   5.542  1.8075  1.5035 -0.7019
   74MOL0     H10149   4.249   1.093   5.464 -0.9373 -1.0410 -3.1864
   74MOL0     H10150   4.101   1.120   5.369 -1.6077 -2.1178 -0.0134
   74MOL0     H10151   4.042   1.303   5.472  0.3432  1.3404 -0.0021
   74MOL0     H10152   4.098   1.255   5.638  0.5429  1.1940 -0.6061
   74MOL0     H10153   4.219   1.453   5.524  2.3085  0.0614  0.4840
   74MOL0     H10154   4.282   1.341   5.406 -1.9931 -1.5160 -2.0309
   74MOL0     H10155   4.304   1.350   5.716  1.5401 -2.1117  1.5961
   74MOL0     H10156   4.382   1.218   5.607 -1.2008 -0.7727  1.0701
   74MOL0     H10157   4.428   1.505   5.546 -1.3520  1.1436  1.2911
   74MOL0     H10158   4.535   1.373   5.520  0.6400 -0.3258  0.6522
   74MOL0     H10159   4.486   1.541   5.766  0.8369 -0.6097  0.2533
   74MOL0     H10160   4.543   1.383   5.797  0.3762  0.4083 -0.0102
   74MOL0     H10161   4.752   1.293   5.730 -3.7714  0.2137 -3.6635
   74MOL0     H10162   5.077   1.442   5.740 -1.3617 -0.4315 -0.0716
   74MOL0     H10163   5.068   1.406   5.568  2.2809 -1.9339  0.4588
   74MOL0     H10164   5.023   1.211   5.778 -1.0650  2.0956  0.2860
   74MOL0     H10165   4.943   1.193   5.620 -2.0136 -0.6282  2.5972
   74MOL0     H10166   5.177   1.227   5.508  3.0262 -2.1849 -0.6106
   74MOL0     H10167   5.237   1.253   5.673 -0.4836 -1.2592  2.0679
   74MOL0     H10168   5.085   1.021   5.566 -0.2001  2.0109 -0.9284
   74MOL0     H10169   5.260   1.013   5.557  1.2851  2.0248  0.3596
   74MOL0     H10170   5.164   0.926   5.974 -1.1915  2.1017  1.5313
   74MOL0     H10171   5.383   0.968   6.259 -0.7091 -1.8153  1.8160
   74MOL0     H10172   5.368   0.794   6.216 -2.6258 -0.2327  3.4231
   74MOL0     H10173   5.232   0.900   6.200 -0.2742 -3.2082  1.8033
   74MOL0     H10174   5.932   1.243   6.078  0.2570  0.3808 -0.0586
   74MOL0     H10175   6.162   1.184   6.139 -1.0016  0.0573 -0.1543
   74MOL0     H10176   6.370   1.110   6.190 -1.5750  1.1170  0.7713
   74MOL0     H10177   6.297   1.084   6.345 -0.0419  1.1227 -1.1325
   74MOL0     H10178   6.522   1.022   6.361 -0.0104  1.6971 -1.4528
   74MOL0     H10179   6.428   0.868   6.341 -0.6386 -0.9035  0.4086
   74MOL0     H10180   6.576   1.004   6.108  0.3393 -1.2271 -0.2420
   74MOL0     H10181   6.492   0.853   6.111  0.2612  1.8498 -2.0743
   74MOL0     H10182   6.707   0.783   6.127 -0.5493  1.1050 -1.1279
   74MOL0     H10183   6.635   0.767   6.295  2.2824  0.7027  1.7463
   74MOL0     H10184   6.817   1.001   6.200 -0.8442 -1.7569 -0.6737
   74MOL0     H10185   6.765   0.951   6.370 -0.5741 -0.4557  0.6516
   74MOL0     H10186   6.951   0.778   6.197 -0.4606  0.4572 -1.8078
   74MOL0     H10187   6.898   0.766   6.366  2.1394 -0.4039 -0.4269
   74MOL0     H10188   7.009   0.980   6.416  1.1745 -0.7777  1.0268
   74MOL0     H10189   7.065   1.000   6.247 -1.2510  2.2254  1.1899
   74MOL0     H10190   7.248   0.933   6.359  1.8707 -1.1044 -1.4461
   74MOL0     H10191   7.201   0.812   6.243 -0.0094 -0.5639 -0.3476
   74MOL0     H10192   6.043   0.776   6.213 -2.9765 -0.2269  1.3221
   74MOL0     H10193   5.825   0.830   6.128 -2.3954  2.2831 -0.3002
   74MOL0     H10194   5.604   1.088   5.845  2.1414  1.6243  3.4153
   74MOL0     H10195   5.423   1.109   5.696 -0.5736  1.2390  1.3557
   74MOL0     H10196   3.672   0.887   5.570 -0.7653 -1.4102 -0.2305
   74MOL0     H10197   3.455   0.853   5.486  1.5010 -1.4103 -0.5204
   74MOL0     H10198   3.134   0.847   5.398  1.0291  0.9291  0.7880
   74MOL0     H10199   2.907   0.771   5.402 -0.4232  1.6811 -0.0099
   74MOL0     H10200   2.783   0.550   5.075  0.7729  1.7257  0.6973
   74MOL0     H10201   2.648   0.533   5.175 -0.4056  1.2048  0.1374
   74MOL0     H10202   2.627   0.602   4.917 -0.0308 -0.9315  0.5872
   74MOL0     H10203   2.666   0.766   4.990 -1.1087  1.5474 -1.6536
   74MOL0     H10204   2.487   0.765   5.119  0.3895 -0.5810  0.0665
   74MOL0     H10205   2.424   0.746   4.964  2.1031 -0.6609 -1.6296
   74MOL0     H10206   2.413   0.548   5.186  0.7456  1.3487  0.4758
   74MOL0     H10207   2.431   0.486   5.018 -0.0177  1.6804 -1.4520
   74MOL0     H10208   2.032   0.669   5.054 -0.7391 -0.3321  3.0167
   74MOL0     H10209   2.917   0.704   4.973  0.4575  0.2493 -0.2326
   74MOL0     H10210   3.265   0.664   4.949 -2.6490 -1.9246  0.4204
   74MOL0     H10211   3.131   0.722   4.848  1.3339  1.9793 -0.6772
   74MOL0     H10212   3.239   0.839   4.915  2.1576 -1.0521 -0.8850
   75MOL0     O10213   8.163   1.653   5.307  0.2190  0.4257  0.8426
   75MOL0     C10214   8.121   1.584   5.206  0.7445 -0.2835 -1.0762
   75MOL0     O10215   8.150   1.458   5.180  0.6186  0.1225 -0.2229
   75MOL0     C10216   8.209   1.391   5.285  0.6310  0.3982 -0.5011
   75MOL0     C10217   8.131   1.354   5.397  0.1867 -0.0469 -0.3893
   75MOL0     C10218   8.181   1.276   5.496  0.5459 -0.3747  0.6002
   75MOL0     C10219   8.302   1.217   5.489 -0.2977 -0.1742 -0.2421
   75MOL0     O10220   8.338   1.152   5.603 -0.2486 -0.3366  0.5532
   75MOL0     C10221   8.464   1.087   5.609 -0.5978  0.5520  1.2031
   75MOL0     C10222   8.469   0.970   5.703  0.5174 -0.6398  0.3052
   75MOL0     C10223   8.571   0.863   5.669  0.6705  0.3788 -0.0827
   75MOL0     C10224   8.701   0.903   5.727 -0.1015  0.1947  0.3282
   75MOL0     C10225   8.813   0.806   5.681 -0.5470  0.1897  0.1336
   75MOL0     C10226   8.940   0.828   5.758 -0.6178 -0.6171  0.2853
   75MOL0     C10227   9.044   0.734   5.701  0.2794 -0.1206 -0.5402
   75MOL0     C10228   9.188   0.773   5.738  0.1002  0.6583 -0.5595
   75MOL0     N10229   9.295   0.679   5.693  0.0338 -0.5979 -0.2428
   75MOL0     C10230   9.350   0.685   5.572  0.2821  0.0736  0.0547
   75MOL0     C10231   9.446   0.590   5.571  0.0483 -0.1572 -0.8752
   75MOL0     C10232   9.505   0.536   5.449  0.1450  0.4342  0.2627
   75MOL0     C10233   9.649   0.581   5.429 -0.5922  0.0249 -1.0719
   75MOL0     C10234   9.749   0.519   5.522  0.2324  1.4886 -0.1834
   75MOL0     C10235   9.894   0.550   5.486  1.1513  0.7702  0.2387
   75MOL0     O10236   9.912   0.515   5.343  0.1307 -0.1772 -0.4822
   75MOL0     C10237  10.034   0.541   5.292 -0.7506 -0.0873 -1.0855
   75MOL0     C10238  10.046   0.577   5.156 -0.5421 -0.1071 -0.5931
   75MOL0     C10239  10.166   0.604   5.090 -0.2791  0.4049  0.5693
   75MOL0     C10240  10.152   0.664   4.952  0.6442 -0.0901  0.3049
   75MOL0     C10241  10.289   0.598   5.162  0.5312 -0.4044  0.2799
   75MOL0     C10242  10.425   0.622   5.109 -0.4623 -1.0719  0.2445
   75MOL0     O10243  10.436   0.618   4.970 -0.2698 -0.7139 -0.0055
   75MOL0     C10244  10.559   0.659   4.925 -0.1262  0.2992  0.0409
   75MOL0     C10245  10.671   0.584   4.943 -0.9846  0.7001 -0.5837
   75MOL0     C10246  10.799   0.628   4.898  1.1278  0.0683  0.2668
   75MOL0     C10247  10.808   0.743   4.828  0.1722  0.2755  0.0804
   75MOL0     O10248  10.928   0.787   4.777  0.0808 -0.4203  0.3101
   75MOL0     C10249  10.997   0.869   4.867 -0.0018  0.2524 -0.8982
   75MOL0     C10250  11.069   0.967   4.775  0.0005  0.7638  0.0103
   75MOL0     C10251  11.179   0.891   4.696 -0.3921 -0.3890  0.3657
   75MOL0     C10252  11.286   0.814   4.771 -0.8519 -0.4661  0.6794
   75MOL0     C10253  11.401   0.783   4.680  0.2718 -0.6616 -0.3643
   75MOL0     C10254  11.511   0.696   4.754  1.1510 -0.7525  0.7547
   75MOL0     C10255  11.633   0.662   4.659 -0.4861 -0.5940  0.2349
   75MOL0     C10256  11.736   0.550   4.700  0.0333 -0.3490 -0.1106
   75MOL0    Cl10257  11.847   0.618   4.828  0.0307  0.4099  0.3399
   75MOL0     C10258  10.691   0.824   4.806  0.0355  0.1896 -0.4209
   75MOL0     C10259  10.573   0.780   4.866 -0.3236  0.1065  0.4080
   75MOL0     O10260  10.519   0.647   5.190  0.3936  1.0013  0.6518
   75MOL0     C10261  10.284   0.560   5.296  0.5061  0.1349  0.7942
   75MOL0     C10262  10.156   0.523   5.358  0.3382  0.2414  0.0988
   75MOL0     N10263   9.448   0.535   5.702  0.2116  0.1155  0.4423
   75MOL0     N10264   9.351   0.584   5.769  0.1957  0.0045 -0.7828
   75MOL0     C10265   8.381   1.249   5.377  0.9808  0.3461 -0.8285
   75MOL0     C10266   8.328   1.331   5.276 -0.2637 -0.0061  0.5337
   75MOL0     C10267   8.038   1.652   5.098 -0.3625  0.9562 -0.1221
   75MOL0     C10268   8.075   1.789   5.069 -0.2609  0.0057  0.4892
   75MOL0     C10269   8.027   1.843   4.949  1.1023 -0.8669  0.9581
   75MOL0     C10270   7.916   1.782   4.880 -0.9341  0.1709  0.8719
   75MOL0     O10271   7.859   1.850   4.774 -0.4484 -0.1980  0.0819
   75MOL0     C10272   7.786   1.966   4.817  0.1918 -0.6850 -0.3843
   75MOL0     C10273   7.636   1.946   4.857 -0.3712  0.3114 -0.7503
   75MOL0     C10274   7.582   2.074   4.929 -0.6567 -0.1078  0.3657
   75MOL0     C10275   7.438   2.060   4.977  0.9664  0.1172  0.1525
   75MOL0     C10276   7.395   2.162   5.079  0.6745  0.3580 -0.3100
   75MOL0     C10277   7.354   2.223   5.178  0.3995  1.0552  0.0224
   75MOL0     C10278   7.876   1.649   4.914  0.9266 -0.3974  0.1305
   75MOL0     C10279   7.934   1.583   5.022  0.6456  0.2663  0.2372
   75MOL0     C10280   7.890   1.447   5.059 -0.2046 -0.9126 -0.0623
   75MOL0     H10281   8.028   1.385   5.413 -0.9363 -3.1128 -1.0795
   75MOL0     H10282   8.124   1.265   5.587 -3.1989  0.4776 -1.4449
   75MOL0     H10283   8.535   1.161   5.646  1.3232 -1.2725  1.3116
   75MOL0     H10284   8.494   1.041   5.514 -1.7336 -2.2144  2.0832
   75MOL0     H10285   8.465   1.005   5.807 -2.4666  0.4347 -0.1022
   75MOL0     H10286   8.375   0.915   5.694  0.2023 -0.4828  2.2023
   75MOL0     H10287   8.546   0.760   5.695  0.4156  0.9369  2.1716
   75MOL0     H10288   8.591   0.868   5.562 -0.5225  0.0637 -0.3402
   75MOL0     H10289   8.735   1.004   5.706 -1.1339  0.2313 -1.3742
   75MOL0     H10290   8.684   0.884   5.834  1.6366 -0.0952  0.5884
   75MOL0     H10291   8.822   0.810   5.573 -1.9362  1.6656  0.0338
   75MOL0     H10292   8.770   0.707   5.701 -0.7507  0.1661 -0.4269
   75MOL0     H10293   8.973   0.931   5.740  0.1539 -0.7479  0.8936
   75MOL0     H10294   8.932   0.817   5.866 -0.9745 -0.5936  0.2631
   75MOL0     H10295   9.039   0.735   5.592 -1.9952 -1.4541 -0.5096
   75MOL0     H10296   9.013   0.638   5.744  2.3219 -0.4623  0.3088
   75MOL0     H10297   9.213   0.876   5.710  4.1539 -0.7772 -3.0985
   75MOL0     H10298   9.195   0.766   5.847  4.9560  0.5875 -0.6353
   75MOL0     H10299   9.307   0.739   5.488 -1.9821  3.7413  3.2379
   75MOL0     H10300   9.455   0.570   5.358  1.7585 -0.9095 -1.2080
   75MOL0     H10301   9.502   0.427   5.457 -4.3319  0.1721 -2.1247
   75MOL0     H10302   9.689   0.554   5.331  3.4421 -2.8969  1.1091
   75MOL0     H10303   9.651   0.689   5.447  0.2611 -0.5222  2.8720
   75MOL0     H10304   9.744   0.544   5.629  2.3503 -2.9715  1.2074
   75MOL0     H10305   9.737   0.411   5.518  0.0203  1.5356 -0.8574
   75MOL0     H10306   9.896   0.659   5.501 -3.4571  0.9499  0.9306
   75MOL0     H10307   9.965   0.497   5.550 -2.0287 -2.8330  1.1046
   75MOL0     H10308   9.947   0.573   5.113 -2.0513  0.8843  2.4887
   75MOL0     H10309  10.050   0.696   4.927  0.7989  0.0343 -0.1898
   75MOL0     H10310  10.168   0.588   4.875  1.6326  1.9991 -1.6784
   75MOL0     H10311  10.214   0.753   4.934  4.3188 -2.0039  2.3052
   75MOL0     H10312  10.661   0.496   5.006  2.9577 -0.4651 -1.3507
   75MOL0     H10313  10.887   0.580   4.939  0.6815  1.2146  2.7725
   75MOL0     H10314  10.925   0.916   4.935  2.2025 -0.2377  1.9860
   75MOL0     H10315  11.063   0.814   4.934 -1.6512 -0.0612  0.5469
   75MOL0     H10316  11.001   0.998   4.695  0.0365 -0.2536 -0.4314
   75MOL0     H10317  11.107   1.061   4.815 -0.1651  2.3411 -3.2416
   75MOL0     H10318  11.230   0.970   4.640  0.6122 -1.5056 -0.3463
   75MOL0     H10319  11.140   0.817   4.626 -0.5946 -0.0188  0.0820
   75MOL0     H10320  11.247   0.729   4.828 -2.6362 -1.7950 -2.2458
   75MOL0     H10321  11.331   0.880   4.846 -1.4768  0.2435  0.4502
   75MOL0     H10322  11.361   0.741   4.587 -1.9570 -0.7421  0.5675
   75MOL0     H10323  11.458   0.873   4.659 -0.9213  0.2810  0.3082
   75MOL0     H10324  11.468   0.609   4.804  1.1978 -0.6831  0.9198
   75MOL0     H10325  11.540   0.753   4.843  0.0836  1.2938 -0.1450
   75MOL0     H10326  11.677   0.762   4.649  1.6772 -1.4587  0.6104
   75MOL0     H10327  11.597   0.643   4.557 -0.6180 -0.1805  0.2026
   75MOL0     H10328  11.807   0.541   4.617  2.4512  0.9347  1.6864
   75MOL0     H10329  11.682   0.460   4.732  2.4191 -1.8847 -0.1029
   75MOL0     H10330  10.699   0.916   4.749 -2.8367 -0.3265 -1.7974
   75MOL0     H10331  10.490   0.851   4.867  0.4456  1.0438 -0.3570
   75MOL0     H10332  10.379   0.561   5.348  1.2524  1.8870 -0.5091
   75MOL0     H10333  10.155   0.502   5.464  1.7856  2.1621  0.5450
   75MOL0     H10334   8.483   1.215   5.363 -0.2282 -4.2949  0.0825
   75MOL0     H10335   8.385   1.353   5.186 -2.1864  2.6374 -0.1597
   75MOL0     H10336   8.139   1.847   5.135  1.0824 -1.8703  0.9273
   75MOL0     H10337   8.062   1.939   4.911  4.0804 -2.2267 -0.0077
   75MOL0     H10338   7.846   2.004   4.900  0.5183 -0.8918 -0.5229
   75MOL0     H10339   7.787   2.045   4.741 -1.3372  2.4764  2.5797
   75MOL0     H10340   7.631   1.859   4.923 -2.6506  0.6935 -0.3403
   75MOL0     H10341   7.572   1.920   4.772 -5.1878  1.1643  2.2821
   75MOL0     H10342   7.648   2.106   5.010 -2.0025  4.8919 -0.1401
   75MOL0     H10343   7.587   2.159   4.860  1.0128 -0.6662 -0.2513
   75MOL0     H10344   7.418   1.963   5.022 -0.1210 -0.5738 -1.7261
   75MOL0     H10345   7.367   2.072   4.895  0.7138  2.9966  0.6647
   75MOL0     H10346   7.309   2.278   5.259  1.0298  0.0495  1.0892
   75MOL0     H10347   7.808   1.594   4.849  0.5629 -0.8501  0.8873
   75MOL0     H10348   7.935   1.389   4.979 -0.4667  0.2115 -1.0665
   75MOL0     H10349   7.923   1.419   5.159  1.8441 -0.3003 -0.5354
   75MOL0     H10350   7.782   1.432   5.049 -0.5865  1.0293  0.5978
   76MOL0     O10351  11.025   6.124   5.298 -0.9733  0.1561  0.6113
   76MOL0     C10352  11.029   6.138   5.173 -0.4447  0.2527  0.1895
   76MOL0     O10353  11.136   6.080   5.088 -0.2621 -0.8356 -0.7709
   76MOL0     C10354  11.237   6.018   5.162  0.1648  0.1265  0.3164
   76MOL0     C10355  11.237   5.877   5.148  0.1003 -0.3246  0.7095
   76MOL0     C10356  11.318   5.792   5.221 -0.3825  0.1302  0.2013
   76MOL0     C10357  11.419   5.845   5.298  0.9637  0.0051 -0.9188
   76MOL0     O10358  11.506   5.747   5.352 -0.1018  0.4026 -0.5581
   76MOL0     C10359  11.591   5.787   5.461  0.4614  0.4484  0.4614
   76MOL0     C10360  11.497   5.781   5.588  0.2071  0.4577 -1.0317
   76MOL0     C10361  11.571   5.813   5.721 -0.1590 -0.3745 -0.4824
   76MOL0     C10362  11.687   5.709   5.747 -0.2435 -1.1149 -0.3005
   76MOL0     C10363  11.736   5.698   5.889  0.0535 -0.0911 -0.4902
   76MOL0     C10364  11.844   5.589   5.906  0.3270  0.4038  0.2291
   76MOL0     C10365  11.919   5.603   6.050  0.7187 -0.1657 -0.4507
   76MOL0     C10366  12.033   5.709   6.067 -0.2402 -0.0455 -1.3595
   76MOL0     N10367  12.077   5.713   6.206 -0.6797 -0.8085 -1.3781
   76MOL0     C10368  12.162   5.618   6.261 -0.2676 -0.0703  0.5275
   76MOL0     C10369  12.169   5.645   6.394  0.5171  0.1868  0.4413
   76MOL0     C10370  12.263   5.571   6.484  1.2108  0.3727 -0.7968
   76MOL0     C10371  12.252   5.620   6.628  0.0571 -0.0278 -0.6502
   76MOL0     C10372  12.293   5.509   6.726 -0.1170  0.7014  0.6458
   76MOL0     C10373  12.446   5.475   6.722 -1.2098  0.5765  0.5282
   76MOL0     O10374  12.498   5.409   6.602  0.0465 -1.0407 -0.4816
   76MOL0     C10375  12.630   5.425   6.577 -0.8894 -0.0623 -0.4023
   76MOL0     C10376  12.726   5.439   6.676 -0.1102  0.4410  0.4724
   76MOL0     C10377  12.865   5.457   6.654  0.6597  0.1397  0.2967
   76MOL0     C10378  12.953   5.481   6.774  0.0193  0.7822  0.1862
   76MOL0     C10379  12.914   5.431   6.521  0.0007  0.7231  0.4046
   76MOL0     C10380  13.055   5.422   6.488 -0.5110 -0.1541  0.2892
   76MOL0     O10381  13.090   5.431   6.353 -0.1164  0.4919  0.0480
   76MOL0     C10382  13.218   5.467   6.315  0.4297  0.0470 -0.3321
   76MOL0     C10383  13.319   5.377   6.335 -0.3640  0.7473  0.6799
   76MOL0     C10384  13.453   5.400   6.307 -0.0659  1.1039 -0.1328
   76MOL0     C10385  13.483   5.529   6.255 -0.5410  0.4063  0.4432
   76MOL0     O10386  13.614   5.539   6.211  0.1301  0.5209  0.0489
   76MOL0     C10387  13.659   5.655   6.148  0.1541  0.5463 -0.1243
   76MOL0     C10388  13.640   5.657   6.005  0.3224  0.4395  0.0195
   76MOL0     C10389  13.662   5.804   5.946  0.3366  0.5002  0.6196
   76MOL0     C10390  13.817   5.825   5.949  0.8046 -0.0623 -0.6607
   76MOL0     C10391  13.846   5.974   5.911 -0.6640  0.2640  0.5045
   76MOL0     C10392  14.000   5.987   5.924  0.6161 -0.2586 -1.1887
   76MOL0     C10393  14.043   6.121   5.858 -0.7363 -0.9297  0.5064
   76MOL0     C10394  14.198   6.128   5.812 -0.4374 -0.6675  0.5082
   76MOL0    Cl10395  14.236   6.289   5.736 -0.1527 -0.5615  0.5281
   76MOL0     C10396  13.377   5.622   6.235  0.1050  0.2088  0.1084
   76MOL0     C10397  13.250   5.589   6.270 -0.3013 -1.0738  0.2186
   76MOL0     O10398  13.133   5.401   6.579  0.2615  0.2103  0.1984
   76MOL0     C10399  12.815   5.409   6.420 -1.1552 -0.2665 -0.1389
   76MOL0     C10400  12.681   5.412   6.449 -0.5105 -0.2042  0.0348
   76MOL0     N10401  12.080   5.751   6.424  0.1031 -0.0751  0.6026
   76MOL0     N10402  12.029   5.792   6.307 -0.7901 -0.1808 -0.4832
   76MOL0     C10403  11.406   5.993   5.325  0.4688  0.1673 -0.1771
   76MOL0     C10404  11.321   6.073   5.258  0.3797 -0.6324  0.3977
   76MOL0     C10405  10.936   6.219   5.099 -0.4479 -0.2829  0.6826
   76MOL0     C10406  10.994   6.311   5.014 -0.3332  0.2313 -0.0589
   76MOL0     C10407  10.915   6.412   4.957  0.3652 -0.1820  0.1655
   76MOL0     C10408  10.775   6.399   4.960  0.2983  0.5206 -0.4783
   76MOL0     O10409  10.677   6.470   4.889 -0.1314  0.3019 -0.3749
   76MOL0     C10410  10.719   6.563   4.791 -0.5517 -0.1252 -0.0572
   76MOL0     C10411  10.586   6.610   4.735 -0.0905 -0.4571  0.4451
   76MOL0     C10412  10.512   6.717   4.821  0.2473 -0.6237 -0.2110
   76MOL0     C10413  10.373   6.757   4.761  0.0756 -0.3896  0.0582
   76MOL0     C10414  10.317   6.859   4.852  0.3224  0.1282  0.5779
   76MOL0     C10415  10.254   6.943   4.914  0.1332  0.2530  0.6985
   76MOL0     C10416  10.728   6.300   5.043  0.4300  0.5444  0.0017
   76MOL0     C10417  10.802   6.212   5.115  0.2046 -1.0598 -0.7589
   76MOL0     C10418  10.738   6.114   5.213  0.3030 -0.3910  0.5360
   76MOL0     H10419  11.184   5.827   5.068 -0.1857 -1.6194  1.6628
   76MOL0     H10420  11.310   5.684   5.207  3.2628 -0.4095  1.0377
   76MOL0     H10421  11.633   5.888   5.455  0.1584  0.5285 -0.6664
   76MOL0     H10422  11.680   5.725   5.474 -0.5109 -1.8134 -2.4397
   76MOL0     H10423  11.412   5.847   5.569  0.0263  1.1787  1.8566
   76MOL0     H10424  11.461   5.678   5.602  3.4222 -0.5570  0.9737
   76MOL0     H10425  11.606   5.916   5.731 -1.5360 -0.0495  1.9277
   76MOL0     H10426  11.500   5.806   5.804  1.2513 -1.3939  0.6804
   76MOL0     H10427  11.658   5.605   5.731  0.6768 -1.7276  1.6548
   76MOL0     H10428  11.773   5.740   5.687 -1.9210 -0.8198 -2.6506
   76MOL0     H10429  11.643   5.673   5.942  1.1663 -0.8967  1.1453
   76MOL0     H10430  11.778   5.795   5.919  2.1001 -0.6429 -1.4608
   76MOL0     H10431  11.793   5.492   5.908 -0.4647  0.8176  0.4665
   76MOL0     H10432  11.918   5.578   5.826  0.0485  3.9678 -0.6787
   76MOL0     H10433  11.961   5.505   6.072 -0.1102 -0.6705 -1.0678
   76MOL0     H10434  11.847   5.630   6.129  0.6772 -0.4002 -0.4085
   76MOL0     H10435  12.117   5.679   6.003 -1.4178 -1.7900 -2.1645
   76MOL0     H10436  11.999   5.808   6.034 -1.2674 -0.9366 -3.1629
   76MOL0     H10437  12.202   5.531   6.212 -0.8865 -0.6929  1.0974
   76MOL0     H10438  12.367   5.573   6.449  1.4940 -0.0899 -0.0068
   76MOL0     H10439  12.241   5.464   6.490 -0.1540  0.6548 -0.4427
   76MOL0     H10440  12.320   5.701   6.658 -1.4419  1.3090 -0.6801
   76MOL0     H10441  12.149   5.651   6.650  0.6898  0.5307  1.8759
   76MOL0     H10442  12.272   5.544   6.827  0.1537  0.1926  0.8832
   76MOL0     H10443  12.237   5.417   6.711 -2.1017  2.0123 -0.2980
   76MOL0     H10444  12.506   5.565   6.740  2.5043 -1.7130  0.5900
   76MOL0     H10445  12.472   5.413   6.809 -1.4684 -0.9743 -0.4742
   76MOL0     H10446  12.702   5.445   6.782  2.4462 -2.4978  1.3830
   76MOL0     H10447  13.010   5.393   6.803  2.9238  1.5459 -2.5415
   76MOL0     H10448  12.894   5.522   6.856  0.9650  0.4490  1.0525
   76MOL0     H10449  13.027   5.559   6.752 -0.7024  1.6539  0.7723
   76MOL0     H10450  13.305   5.279   6.380  0.9749  0.7365  1.1132
   76MOL0     H10451  13.529   5.327   6.332 -0.9749 -0.3466 -1.4232
   76MOL0     H10452  13.602   5.737   6.193 -0.9279 -0.0376 -0.3761
   76MOL0     H10453  13.766   5.650   6.168  0.0432 -3.3866  0.2774
   76MOL0     H10454  13.708   5.586   5.955  0.2365  1.1749 -1.1820
   76MOL0     H10455  13.538   5.621   5.990  0.4242 -0.0031  0.3917
   76MOL0     H10456  13.627   5.891   6.002  0.1647  1.3192 -0.7101
   76MOL0     H10457  13.614   5.825   5.850 -3.5861  0.1632  2.3174
   76MOL0     H10458  13.862   5.764   5.870 -0.9421  0.0353 -1.7821
   76MOL0     H10459  13.857   5.798   6.047  1.9053  3.3333 -0.0448
   76MOL0     H10460  13.813   5.997   5.809 -2.1253 -0.0288  0.8946
   76MOL0     H10461  13.794   6.044   5.978 -1.0558 -0.7657  1.2998
   76MOL0     H10462  14.050   5.904   5.873 -1.8762 -1.9137 -1.0887
   76MOL0     H10463  14.033   5.991   6.029 -0.2873 -1.1005 -0.8615
   76MOL0     H10464  14.034   6.202   5.932 -1.4325 -0.9380  0.4388
   76MOL0     H10465  13.984   6.137   5.768  1.2304 -0.9975 -0.8498
   76MOL0     H10466  14.202   6.049   5.737 -2.4031  0.9581 -1.4621
   76MOL0     H10467  14.274   6.098   5.885 -1.1511  0.4285  1.7670
   76MOL0     H10468  13.382   5.724   6.197  2.2493  0.8322  1.8253
   76MOL0     H10469  13.166   5.657   6.259  1.3443  0.8747 -1.0850
   76MOL0     H10470  12.850   5.402   6.317 -0.4817  4.1724 -0.3989
   76MOL0     H10471  12.605   5.407   6.371 -1.3868  2.3358  0.6203
   76MOL0     H10472  11.481   6.038   5.388  0.2076  1.2976 -0.6397
   76MOL0     H10473  11.322   6.180   5.276 -2.9833 -0.4902  0.2897
   76MOL0     H10474  11.102   6.313   5.016 -0.2837 -1.4841  1.2226
   76MOL0     H10475  10.960   6.500   4.911  2.2768 -0.7029  0.9361
   76MOL0     H10476  10.774   6.646   4.835  0.2890  0.2771 -1.7902
   76MOL0     H10477  10.778   6.524   4.708 -0.6233 -0.7709  0.1897
   76MOL0     H10478  10.521   6.526   4.706 -0.6698  0.6591 -1.6907
   76MOL0     H10479  10.608   6.670   4.647 -1.5428  1.7880  1.5158
   76MOL0     H10480  10.497   6.687   4.925 -0.2207 -0.9368 -0.3656
   76MOL0     H10481  10.569   6.810   4.821  0.2011 -0.5450 -2.3653
   76MOL0     H10482  10.308   6.670   4.746  1.4324 -1.3803 -0.2201
   76MOL0     H10483  10.389   6.805   4.664  2.7759  1.7762  1.4406
   76MOL0     H10484  10.202   7.020   4.967 -0.7660  1.4266 -1.7280
   76MOL0     H10485  10.621   6.304   5.057  0.8463  0.4478  4.2425
   76MOL0     H10486  10.735   6.152   5.315 -0.2746  0.1022  0.3376
   76MOL0     H10487  10.634   6.097   5.184  0.8658 -0.4741 -1.5693
   76MOL0     H10488  10.783   6.014   5.207  0.9431 -0.0034 -2.2280
   77MOL0     O10489   5.601   0.547   8.608  0.1908 -0.4881  0.0858
   77MOL0     C10490   5.648   0.434   8.601  0.3979 -0.2518 -0.7639
   77MOL0     O10491   5.728   0.376   8.699  0.4320  0.2726  0.0248
   77MOL0     C10492   5.746   0.444   8.815 -0.0214 -0.1393  0.8105
   77MOL0     C10493   5.847   0.535   8.832  0.2292  0.2466  0.0896
   77MOL0     C10494   5.880   0.585   8.958  0.8647  0.0267 -0.0611
   77MOL0     C10495   5.811   0.540   9.068 -0.1875 -0.4174 -0.4296
   77MOL0     O10496   5.849   0.592   9.185  0.3771 -0.0962 -0.2859
   77MOL0     C10497   5.739   0.619   9.277 -0.5063 -0.3498  0.0862
   77MOL0     C10498   5.806   0.671   9.408 -0.4521  0.0702 -0.3308
   77MOL0     C10499   5.859   0.543   9.487  0.8250  0.3471 -0.1607
   77MOL0     C10500   5.963   0.567   9.596  0.4291  0.0276  0.5986
   77MOL0     C10501   6.016   0.434   9.636 -0.0592  0.7410 -0.5554
   77MOL0     C10502   6.166   0.434   9.673 -0.4376  0.5124 -0.3496
   77MOL0     C10503   6.212   0.286   9.655  0.5014 -0.6157 -0.4015
   77MOL0     C10504   6.355   0.266   9.700  0.5015 -0.0979  0.1132
   77MOL0     N10505   6.450   0.305   9.598 -0.2827  0.3050 -0.5110
   77MOL0     C10506   6.588   0.323   9.612  1.0999 -0.1921 -0.3005
   77MOL0     C10507   6.635   0.382   9.501  0.2583 -0.6457 -0.1024
   77MOL0     C10508   6.775   0.390   9.469  0.0446 -0.2833  0.3746
   77MOL0     C10509   6.857   0.498   9.540 -0.6083  0.6456  0.5631
   77MOL0     C10510   6.987   0.529   9.469  0.2278  0.0774  0.0426
   77MOL0     C10511   7.079   0.614   9.551  0.6587  0.3103 -0.3731
   77MOL0     O10512   7.187   0.627   9.469 -0.0771 -0.3082  0.6950
   77MOL0     C10513   7.308   0.676   9.530 -0.4077 -0.5204  0.6065
   77MOL0     C10514   7.423   0.688   9.451 -1.1350 -0.6063  0.5983
   77MOL0     C10515   7.551   0.728   9.503 -0.2104  0.3800  0.0420
   77MOL0     C10516   7.659   0.730   9.401  0.1388 -0.0977 -0.3906
   77MOL0     C10517   7.570   0.741   9.643  0.1281  0.2201 -1.1096
   77MOL0     C10518   7.699   0.751   9.712  0.3143 -0.1731 -0.1328
   77MOL0     O10519   7.704   0.742   9.846 -0.4570  0.1547  0.0374
   77MOL0     C10520   7.823   0.751   9.908 -0.4025  0.4822  0.0828
   77MOL0     C10521   7.893   0.632   9.946 -0.4267 -0.1586 -0.5026
   77MOL0     C10522   8.019   0.660  10.009 -0.6432  0.8772  1.0251
   77MOL0     C10523   8.062   0.791  10.045  0.9034  0.1979  0.3653
   77MOL0     O10524   8.176   0.802  10.124 -0.3375 -0.0969  0.4590
   77MOL0     C10525   8.180   0.902  10.219  0.4340 -0.2358 -0.1673
   77MOL0     C10526   8.263   0.845  10.333 -0.3252  0.2192 -0.0568
   77MOL0     C10527   8.406   0.821  10.272  1.2010 -0.0135  0.2525
   77MOL0     C10528   8.509   0.784  10.373 -0.7830 -1.4310  0.7537
   77MOL0     C10529   8.649   0.743  10.295 -1.0458 -0.3336  1.1842
   77MOL0     C10530   8.754   0.715  10.399 -0.6098 -0.5509 -0.6677
   77MOL0     C10531   8.894   0.676  10.347  0.4904 -0.3997 -0.0530
   77MOL0     C10532   8.991   0.668  10.459  0.1822 -0.2700  0.5330
   77MOL0    Cl10533   8.928   0.547  10.574 -0.1117  0.1849  0.1247
   77MOL0     C10534   7.976   0.894  10.009 -0.7941 -0.0399  0.1414
   77MOL0     C10535   7.869   0.880   9.928 -0.2274  1.0690 -0.2323
   77MOL0     O10536   7.793   0.778   9.645 -0.3284  0.3173  0.8617
   77MOL0     C10537   7.454   0.721   9.724  0.2845  1.0642 -0.0322
   77MOL0     C10538   7.328   0.699   9.662 -0.6615 -1.3603  0.6423
   77MOL0     N10539   6.528   0.403   9.413 -0.1069 -0.4466  0.0774
   77MOL0     N10540   6.424   0.341   9.467  0.3881 -0.1380  0.1695
   77MOL0     C10541   5.707   0.448   9.047  0.0390  0.9450  0.2104
   77MOL0     C10542   5.669   0.410   8.923  0.8288  0.0443 -0.9007
   77MOL0     C10543   5.611   0.343   8.484 -0.6424  0.5583 -1.2683
   77MOL0     C10544   5.473   0.317   8.469 -0.2015 -1.4186  0.6699
   77MOL0     C10545   5.425   0.259   8.358 -0.0352 -0.1879 -0.7930
   77MOL0     C10546   5.512   0.209   8.264  0.3029 -0.7455  0.3852
   77MOL0     O10547   5.456   0.164   8.144  0.0132 -0.4553 -0.1879
   77MOL0     C10548   5.522   0.168   8.014 -0.4210  0.4554 -0.2952
   77MOL0     C10549   5.559   0.318   7.984  0.4184  0.6771 -0.7015
   77MOL0     C10550   5.511   0.361   7.848 -0.0694 -0.2786  0.5784
   77MOL0     C10551   5.363   0.378   7.837  0.3049  0.1652  0.5816
   77MOL0     C10552   5.314   0.473   7.936 -0.0181  0.3006  0.6464
   77MOL0     C10553   5.264   0.557   8.006 -0.4210  0.7976 -0.2673
   77MOL0     C10554   5.648   0.215   8.293  0.4850  0.4413 -0.3767
   77MOL0     C10555   5.699   0.288   8.390  0.7654 -0.1994  0.4149
   77MOL0     C10556   5.841   0.339   8.378  0.3794 -0.4873 -0.7536
   77MOL0     H10557   5.901   0.553   8.740  1.6273  1.9500  1.1751
   77MOL0     H10558   5.944   0.671   8.969 -0.2194  1.0300 -1.1724
   77MOL0     H10559   5.686   0.526   9.299 -0.8979 -0.5123 -1.4200
   77MOL0     H10560   5.669   0.697   9.245 -0.7194 -0.0276  1.2910
   77MOL0     H10561   5.886   0.744   9.389 -0.4259  0.1558  0.0945
   77MOL0     H10562   5.728   0.724   9.464 -1.6149 -1.0727 -0.8350
   77MOL0     H10563   5.772   0.488   9.525  2.4423 -0.9224  1.9555
   77MOL0     H10564   5.903   0.475   9.413 -3.5419 -1.4822 -1.3980
   77MOL0     H10565   6.040   0.637   9.562 -2.0684  1.9237 -1.6358
   77MOL0     H10566   5.922   0.616   9.685  2.1592  0.6032  1.1278
   77MOL0     H10567   5.992   0.350   9.570 -0.7307  0.2855  0.2521
   77MOL0     H10568   5.970   0.401   9.729  1.5989  1.6002  0.6156
   77MOL0     H10569   6.217   0.502   9.605  1.3916 -1.8667 -1.5346
   77MOL0     H10570   6.188   0.479   9.770 -0.8734  1.2015 -0.5688
   77MOL0     H10571   6.198   0.252   9.552 -0.5523  1.1151 -0.8796
   77MOL0     H10572   6.141   0.221   9.707  0.4811 -1.3781 -1.3517
   77MOL0     H10573   6.370   0.310   9.799 -0.3543 -0.2518  0.3197
   77MOL0     H10574   6.373   0.159   9.712  0.8223 -0.0483  0.0974
   77MOL0     H10575   6.645   0.305   9.703  0.5247  0.4713  0.2046
   77MOL0     H10576   6.787   0.392   9.360  3.0734 -2.5553  0.5100
   77MOL0     H10577   6.818   0.297   9.508 -0.2777  0.0088  1.4460
   77MOL0     H10578   6.801   0.592   9.538 -0.7898  0.5321 -0.7698
   77MOL0     H10579   6.876   0.480   9.646  0.3727  3.3075  0.9082
   77MOL0     H10580   7.040   0.435   9.446  0.9449  0.3156  0.6716
   77MOL0     H10581   6.968   0.579   9.373 -1.0941  2.2226  1.3466
   77MOL0     H10582   7.032   0.707   9.586  0.7970 -0.0321  0.7714
   77MOL0     H10583   7.106   0.569   9.647  0.7728  2.2794  0.5806
   77MOL0     H10584   7.416   0.676   9.343  1.6622 -3.7639  0.6180
   77MOL0     H10585   7.635   0.705   9.297 -0.3643 -0.8143 -0.1044
   77MOL0     H10586   7.739   0.657   9.419  0.8873  1.0834  1.3444
   77MOL0     H10587   7.699   0.832   9.411 -2.0597  0.6987  0.7945
   77MOL0     H10588   7.855   0.531   9.934  1.8479 -0.9933 -1.1737
   77MOL0     H10589   8.081   0.578  10.045 -2.6497 -0.0255  2.6580
   77MOL0     H10590   8.235   0.991  10.187  0.8285 -0.1461  0.7065
   77MOL0     H10591   8.078   0.932  10.246 -0.5583 -1.3608 -2.4401
   77MOL0     H10592   8.271   0.921  10.412  0.6781  2.4248 -2.1214
   77MOL0     H10593   8.221   0.750  10.366 -0.4888 -1.1674 -3.8256
   77MOL0     H10594   8.449   0.912  10.228  3.5387 -1.3794 -0.4575
   77MOL0     H10595   8.399   0.745  10.195  1.3284  0.0227  0.2041
   77MOL0     H10596   8.480   0.697  10.433  1.4508 -1.5024  1.8536
   77MOL0     H10597   8.527   0.870  10.438  1.5185 -0.7698 -0.6380
   77MOL0     H10598   8.643   0.653  10.234  1.5437  0.5318 -0.4727
   77MOL0     H10599   8.673   0.823  10.225 -3.2718  0.0565  0.7973
   77MOL0     H10600   8.713   0.636  10.463 -0.1648  0.4858  0.9485
   77MOL0     H10601   8.772   0.805  10.458 -0.5841  0.1914 -1.7781
   77MOL0     H10602   8.933   0.758  10.286  2.3083 -1.8178 -0.9342
   77MOL0     H10603   8.883   0.593  10.276  0.2109  1.5162 -2.3672
   77MOL0     H10604   9.000   0.762  10.514  0.5750 -1.2514  2.2585
   77MOL0     H10605   9.081   0.626  10.414  0.9040 -0.4568  2.0637
   77MOL0     H10606   8.010   0.993  10.036 -2.1464 -0.1191  2.3069
   77MOL0     H10607   7.819   0.963   9.881 -2.2645 -0.5011 -0.9812
   77MOL0     H10608   7.462   0.723   9.833 -0.8090 -2.1636  0.2117
   77MOL0     H10609   7.240   0.711   9.726 -2.3477  1.4149 -1.9704
   77MOL0     H10610   5.657   0.399   9.130  0.0629 -0.7727 -0.7616
   77MOL0     H10611   5.596   0.330   8.921 -1.0714  1.6872  0.0917
   77MOL0     H10612   5.411   0.368   8.543  0.2091  1.2898 -0.7214
   77MOL0     H10613   5.320   0.266   8.333 -0.5822 -2.4269  0.6333
   77MOL0     H10614   5.615   0.112   8.029  0.3163  2.1177  1.8122
   77MOL0     H10615   5.454   0.126   7.940  0.4179 -0.4380 -0.5801
   77MOL0     H10616   5.668   0.328   7.980  0.3284  1.4177 -2.0373
   77MOL0     H10617   5.524   0.393   8.055 -0.3224  0.6076 -0.9889
   77MOL0     H10618   5.562   0.454   7.818  2.2096 -1.8768 -0.8075
   77MOL0     H10619   5.547   0.287   7.776  0.5779  0.2675  0.3203
   77MOL0     H10620   5.322   0.281   7.866 -0.9616  0.7084  0.6614
   77MOL0     H10621   5.322   0.388   7.736  1.2028  0.1063  0.2023
   77MOL0     H10622   5.208   0.625   8.066  1.2366  0.8234  1.3216
   77MOL0     H10623   5.727   0.170   8.233  1.4957 -0.8762  1.8106
   77MOL0     H10624   5.894   0.307   8.287  2.6529  1.2497 -0.1196
   77MOL0     H10625   5.853   0.447   8.383  1.0574 -0.5414 -1.0913
   77MOL0     H10626   5.895   0.298   8.464  0.1724  0.0768 -0.3496
   78MOL0     O10627   2.940   6.449   3.183 -0.4933  0.8910  1.0322
   78MOL0     C10628   2.995   6.413   3.286  0.5451  0.0563  0.3182
   78MOL0     O10629   2.929   6.411   3.407  0.2811  0.3931 -0.0496
   78MOL0     C10630   2.802   6.463   3.433  0.0362 -0.1633 -0.0150
   78MOL0     C10631   2.745   6.426   3.555 -0.9487 -0.3998 -0.3729
   78MOL0     C10632   2.615   6.459   3.587 -0.6891  0.5335  0.0288
   78MOL0     C10633   2.536   6.530   3.485 -0.5078 -1.0653 -0.2709
   78MOL0     O10634   2.401   6.542   3.527 -0.4892 -0.1633  0.1004
   78MOL0     C10635   2.312   6.568   3.424 -0.3428  0.0819 -0.6113
   78MOL0     C10636   2.177   6.545   3.487  1.0313  0.4591  0.8508
   78MOL0     C10637   2.149   6.653   3.593  0.4171  0.3139 -0.5104
   78MOL0     C10638   2.002   6.671   3.621 -0.2299 -0.6367 -0.7263
   78MOL0     C10639   1.972   6.776   3.725 -0.4685 -0.1189  0.8881
   78MOL0     C10640   1.836   6.755   3.796  0.5916 -0.4085 -1.1171
   78MOL0     C10641   1.827   6.861   3.905 -0.6959  1.0518 -0.1530
   78MOL0     C10642   1.706   6.837   4.004 -0.5612  0.2306  1.0221
   78MOL0     N10643   1.663   6.963   4.058  0.5768 -0.6578  0.2951
   78MOL0     C10644   1.718   7.035   4.162 -0.7187 -0.3774  0.4390
   78MOL0     C10645   1.638   7.137   4.181 -0.8634 -0.9968  0.0463
   78MOL0     C10646   1.654   7.251   4.277 -0.0394 -0.1021 -0.0016
   78MOL0     C10647   1.760   7.351   4.249  0.1952 -0.4160 -0.3025
   78MOL0     C10648   1.898   7.304   4.298  0.0167  0.9820  0.2380
   78MOL0     C10649   2.004   7.411   4.321  0.0262  0.3169  0.6484
   78MOL0     O10650   2.109   7.338   4.389 -0.4600  0.1386 -0.5128
   78MOL0     C10651   2.202   7.409   4.461 -0.6940  0.0534 -0.2635
   78MOL0     C10652   2.264   7.341   4.569 -0.4123  0.4576  0.2128
   78MOL0     C10653   2.373   7.393   4.643  0.1231  0.6411  0.4372
   78MOL0     C10654   2.419   7.311   4.762  0.0544  0.2628  0.3652
   78MOL0     C10655   2.417   7.522   4.609  0.1725  0.0689 -0.3907
   78MOL0     C10656   2.542   7.578   4.659  0.4708  0.1568 -0.2444
   78MOL0     O10657   2.553   7.714   4.673 -0.3758  0.2169 -0.0070
   78MOL0     C10658   2.677   7.755   4.712  0.4868 -0.4588 -0.7195
   78MOL0     C10659   2.683   7.830   4.827 -0.7375 -0.9592 -0.8857
   78MOL0     C10660   2.805   7.894   4.873  0.5749 -0.0394  0.0411
   78MOL0     C10661   2.921   7.878   4.793 -0.1607 -0.4344  0.0795
   78MOL0     O10662   3.049   7.894   4.830  0.3028 -0.7542 -0.3391
   78MOL0     C10663   3.061   7.923   4.970  0.4455 -0.3624  0.2762
   78MOL0     C10664   3.207   7.890   4.994  0.6055  0.3059 -0.6130
   78MOL0     C10665   3.241   7.868   5.146 -0.0091 -0.2607  0.7111
   78MOL0     C10666   3.203   7.727   5.190 -0.4006  0.0263 -0.7270
   78MOL0     C10667   3.266   7.604   5.116  0.1169 -0.0062  0.4883
   78MOL0     C10668   3.263   7.484   5.220  0.5219 -0.5969 -0.6956
   78MOL0     C10669   3.317   7.348   5.165 -0.1044 -0.0934 -0.1878
   78MOL0     C10670   3.360   7.258   5.280  0.2236  0.9548  0.4087
   78MOL0    Cl10671   3.216   7.172   5.357  0.4699 -0.4006  0.0340
   78MOL0     C10672   2.909   7.803   4.670  0.1942 -0.3156  0.1866
   78MOL0     C10673   2.784   7.744   4.628  0.0348  0.1444 -0.5981
   78MOL0     O10674   2.640   7.500   4.652 -0.5104 -0.2032 -0.3114
   78MOL0     C10675   2.352   7.594   4.500 -0.7584  0.4311  0.2829
   78MOL0     C10676   2.249   7.541   4.421  0.1645 -0.0631  0.4085
   78MOL0     N10677   1.533   7.125   4.092 -0.0112  0.9715  0.6527
   78MOL0     N10678   1.550   7.023   4.013  0.4562 -0.4664  0.1475
   78MOL0     C10679   2.596   6.569   3.366 -1.1998  0.5785 -0.9696
   78MOL0     C10680   2.733   6.544   3.347  0.1152 -1.0026 -0.2557
   78MOL0     C10681   3.134   6.369   3.274 -0.3846  0.3757  0.4798
   78MOL0     C10682   3.221   6.408   3.376 -0.3181 -0.3463  0.5792
   78MOL0     C10683   3.351   6.361   3.385 -0.0911 -0.2200  0.1541
   78MOL0     C10684   3.403   6.294   3.269  0.7620 -0.5533 -0.1587
   78MOL0     O10685   3.541   6.289   3.267  0.0702  0.6158  0.0823
   78MOL0     C10686   3.603   6.186   3.192  0.0584 -0.2664 -0.1958
   78MOL0     C10687   3.752   6.181   3.229  0.7644  0.2519 -0.3003
   78MOL0     C10688   3.836   6.065   3.173 -0.1263 -0.7882  0.2525
   78MOL0     C10689   3.978   6.043   3.240  0.2494  0.0291  0.3676
   78MOL0     C10690   4.065   6.157   3.189  0.6208 -0.3527 -0.6946
   78MOL0     C10691   4.114   6.259   3.147  1.1974  0.5416  1.4086
   78MOL0     C10692   3.317   6.262   3.164 -0.0461  0.4683 -0.0910
   78MOL0     C10693   3.179   6.296   3.161 -0.4423 -0.4470 -0.6539
   78MOL0     C10694   3.089   6.250   3.045  0.0935 -0.7201  0.0528
   78MOL0     H10695   2.808   6.369   3.623 -2.3707  0.5946  1.8906
   78MOL0     H10696   2.561   6.430   3.676 -0.0688  3.0055  1.2919
   78MOL0     H10697   2.326   6.503   3.337 -1.2362  1.0233 -1.4942
   78MOL0     H10698   2.334   6.672   3.397  1.6548 -0.3263 -0.7226
   78MOL0     H10699   2.100   6.552   3.410  3.1013 -0.6605 -1.4486
   78MOL0     H10700   2.173   6.441   3.521 -1.4635 -0.9346 -2.9970
   78MOL0     H10701   2.194   6.628   3.689  0.5956 -0.3509 -0.7594
   78MOL0     H10702   2.181   6.749   3.550 -3.8695  1.9965 -0.3897
   78MOL0     H10703   1.956   6.698   3.525 -0.3458 -0.0688 -0.5153
   78MOL0     H10704   1.966   6.577   3.664  1.0488 -0.2501  1.3131
   78MOL0     H10705   1.978   6.876   3.682  1.7305  0.3298  2.0707
   78MOL0     H10706   2.048   6.769   3.804  0.5874  2.6253  0.2237
   78MOL0     H10707   1.747   6.755   3.732  1.2279 -0.7700 -2.0386
   78MOL0     H10708   1.825   6.654   3.838 -0.0995  0.4005  0.7471
   78MOL0     H10709   1.810   6.956   3.853  1.3300  1.2934 -0.4686
   78MOL0     H10710   1.915   6.865   3.970 -1.6723 -2.1877  1.5645
   78MOL0     H10711   1.619   6.804   3.947  0.9614 -0.9579 -0.7391
   78MOL0     H10712   1.741   6.764   4.078 -1.3975  0.9822  2.2104
   78MOL0     H10713   1.801   7.004   4.226 -0.8094  0.7991  1.1562
   78MOL0     H10714   1.662   7.211   4.378 -0.4950  0.7607  0.3870
   78MOL0     H10715   1.554   7.294   4.269 -0.0191  0.2144  1.2448
   78MOL0     H10716   1.754   7.387   4.146  0.3332 -0.0721 -0.1936
   78MOL0     H10717   1.739   7.443   4.305  0.8484 -1.9527  2.7139
   78MOL0     H10718   1.883   7.252   4.393 -1.2686  0.0225 -0.4676
   78MOL0     H10719   1.934   7.234   4.222 -0.3483  2.2635 -1.1637
   78MOL0     H10720   2.044   7.449   4.226 -0.2366 -1.2123 -0.1187
   78MOL0     H10721   1.964   7.494   4.381  1.5590  0.5135  1.4387
   78MOL0     H10722   2.230   7.243   4.601  2.3051 -0.9352 -0.8907
   78MOL0     H10723   2.398   7.367   4.854 -0.5387  1.0035 -0.2133
   78MOL0     H10724   2.527   7.295   4.760  0.2224  1.0994  1.5936
   78MOL0     H10725   2.374   7.211   4.752 -0.3856  0.6395 -1.7408
   78MOL0     H10726   2.593   7.834   4.886 -0.5001 -2.5869 -0.3543
   78MOL0     H10727   2.809   7.939   4.972  0.1778 -0.8798  0.4563
   78MOL0     H10728   3.022   8.022   4.996 -0.2844 -0.7581  0.7450
   78MOL0     H10729   3.008   7.848   5.029 -0.2470  1.9724  2.8542
   78MOL0     H10730   3.243   7.797   4.948  2.8876  0.9357 -0.2211
   78MOL0     H10731   3.269   7.974   4.962  0.2729  0.9738  0.4636
   78MOL0     H10732   3.200   7.940   5.218  0.6190 -0.7730  1.6058
   78MOL0     H10733   3.349   7.888   5.149 -0.1349  1.1337 -1.5763
   78MOL0     H10734   3.097   7.707   5.176 -0.3304 -0.1287 -1.0481
   78MOL0     H10735   3.220   7.718   5.298 -1.1797  1.3243 -0.4827
   78MOL0     H10736   3.211   7.589   5.023 -0.6194  0.1684  0.8930
   78MOL0     H10737   3.369   7.613   5.080 -0.3798  1.3734 -0.7307
   78MOL0     H10738   3.163   7.470   5.261  0.2815  1.5447 -0.4508
   78MOL0     H10739   3.323   7.520   5.304 -1.2381  0.0202  0.3341
   78MOL0     H10740   3.402   7.374   5.102  0.6873  2.3042  1.6935
   78MOL0     H10741   3.234   7.303   5.109  0.2261 -0.2778 -0.5248
   78MOL0     H10742   3.414   7.323   5.349 -0.3330  1.6455  0.2094
   78MOL0     H10743   3.434   7.185   5.247 -0.5132 -0.8460  2.4646
   78MOL0     H10744   2.998   7.806   4.608  0.4524  1.1063  0.5795
   78MOL0     H10745   2.774   7.684   4.538 -1.1168  2.0714 -1.8354
   78MOL0     H10746   2.388   7.694   4.477 -3.9138  1.4004 -0.9786
   78MOL0     H10747   2.201   7.597   4.341 -0.7115  0.4810  1.2741
   78MOL0     H10748   2.549   6.622   3.284 -0.8931  2.6535  0.1161
   78MOL0     H10749   2.780   6.581   3.257  1.5294 -0.5473  0.6461
   78MOL0     H10750   3.185   6.478   3.451 -0.3955  0.1862  0.0472
   78MOL0     H10751   3.419   6.389   3.465  2.0768 -2.3853 -0.7734
   78MOL0     H10752   3.551   6.094   3.219  0.8228 -1.1582 -1.5716
   78MOL0     H10753   3.599   6.210   3.085 -0.4196 -2.1422 -0.6505
   78MOL0     H10754   3.754   6.195   3.338  0.1582 -3.6114  0.3379
   78MOL0     H10755   3.802   6.269   3.188  1.6506  2.0967  4.1031
   78MOL0     H10756   3.771   5.977   3.178 -1.5059  0.2469  1.1143
   78MOL0     H10757   3.848   6.085   3.066  0.8041  1.0173  0.6566
   78MOL0     H10758   4.020   5.944   3.220 -1.2990 -0.5113 -0.3066
   78MOL0     H10759   3.966   6.038   3.349 -1.6229 -0.0474  0.1947
   78MOL0     H10760   4.147   6.347   3.095  1.0870  1.5667  3.0172
   78MOL0     H10761   3.360   6.228   3.070  0.8202  0.9269  0.1309
   78MOL0     H10762   3.129   6.172   2.979  1.2132 -0.2423  0.1532
   78MOL0     H10763   2.999   6.200   3.084  0.0382 -0.5760  0.1085
   78MOL0     H10764   3.043   6.332   2.989  0.7939 -0.2478  0.1602
   79MOL0     O10765   3.097   7.607  10.750  0.2158 -0.2560 -0.0035
   79MOL0     C10766   3.130   7.721  10.794 -0.4911  0.5907  0.5668
   79MOL0     O10767   3.084   7.777  10.909  0.5128 -0.0690 -0.1264
   79MOL0     C10768   2.975   7.734  10.979 -0.6452  0.4633 -0.4980
   79MOL0     C10769   2.858   7.682  10.916  1.1434 -0.0525 -1.0544
   79MOL0     C10770   2.752   7.643  10.993  0.1152  0.2701 -0.9900
   79MOL0     C10771   2.747   7.653  11.135 -1.0205  0.4213 -0.2454
   79MOL0     O10772   2.632   7.632  11.208  0.3895 -0.1786  0.2183
   79MOL0     C10773   2.513   7.706  11.170  0.4160 -0.3235 -0.8087
   79MOL0     C10774   2.415   7.736  11.287 -0.9112  0.4449  0.0881
   79MOL0     C10775   2.458   7.818  11.408  0.1261  0.5089  1.1893
   79MOL0     C10776   2.376   7.829  11.537 -0.4832 -0.0517 -0.4487
   79MOL0     C10777   2.459   7.879  11.653  0.2899  0.0828 -1.0153
   79MOL0     C10778   2.523   8.018  11.619 -0.1541 -0.4569 -0.9878
   79MOL0     C10779   2.597   8.073  11.751 -0.2242 -0.2104  0.3121
   79MOL0     C10780   2.498   8.135  11.857 -0.2775 -0.3913  0.0915
   79MOL0     N10781   2.572   8.185  11.980 -0.2194  0.2570  0.3345
   79MOL0     C10782   2.550   8.138  12.108 -0.2297 -0.1019 -0.4810
   79MOL0     C10783   2.624   8.226  12.183 -1.0505 -0.9112 -0.0908
   79MOL0     C10784   2.632   8.237  12.337  0.0811  0.0707  0.3807
   79MOL0     C10785   2.644   8.103  12.412 -0.3659  0.8570  0.7720
   79MOL0     C10786   2.674   8.133  12.562  0.2571  0.3793  0.6146
   79MOL0     C10787   2.821   8.122  12.585 -0.2038  0.3872 -0.1604
   79MOL0     O10788   2.854   8.183  12.709 -0.0784  0.1290 -0.6798
   79MOL0     C10789   2.976   8.240  12.720 -0.2068 -0.2226 -0.0044
   79MOL0     C10790   3.021   8.343  12.629 -0.0068  0.4000  0.1297
   79MOL0     C10791   3.146   8.397  12.641 -0.7266  0.5185  0.8201
   79MOL0     C10792   3.171   8.536  12.570 -0.1223 -0.1665  0.8449
   79MOL0     C10793   3.239   8.344  12.732  0.3274 -0.7143 -0.0998
   79MOL0     C10794   3.381   8.395  12.750 -1.3328  0.9521 -0.4681
   79MOL0     O10795   3.453   8.355  12.862  0.1749  0.1614  0.6914
   79MOL0     C10796   3.582   8.394  12.879 -0.1536  0.1480 -0.1190
   79MOL0     C10797   3.632   8.522  12.860 -0.3202  0.5931 -0.4228
   79MOL0     C10798   3.766   8.549  12.887  0.4456 -1.2111  0.1289
   79MOL0     C10799   3.847   8.451  12.940 -0.4276 -0.0668 -0.1490
   79MOL0     O10800   3.969   8.503  12.984  0.3356 -0.3584  0.6707
   79MOL0     C10801   4.059   8.412  13.047 -0.0274 -0.0289  0.1277
   79MOL0     C10802   4.174   8.500  13.102 -0.3311  0.3835  0.6080
   79MOL0     C10803   4.253   8.567  12.981  0.4579  0.1045 -0.2089
   79MOL0     C10804   4.389   8.614  13.031  0.2425  0.0769 -0.7424
   79MOL0     C10805   4.394   8.767  13.042  0.3704  0.3304  0.2596
   79MOL0     C10806   4.301   8.836  13.152 -0.5070  0.2770 -0.1745
   79MOL0     C10807   4.321   8.988  13.143 -0.0492 -1.4593  0.5226
   79MOL0     C10808   4.467   9.034  13.179 -0.5831 -0.5680  0.3156
   79MOL0    Cl10809   4.523   8.975  13.341  0.0773  0.1187 -0.4579
   79MOL0     C10810   3.805   8.324  12.949 -0.6593 -1.5826 -0.4825
   79MOL0     C10811   3.676   8.288  12.907 -0.2337 -0.2042  0.1272
   79MOL0     O10812   3.416   8.462  12.655 -0.6621 -0.2052  0.0542
   79MOL0     C10813   3.196   8.242  12.823 -0.1028  0.1046  0.5156
   79MOL0     C10814   3.063   8.197  12.812  0.3660  0.4400 -0.5172
   79MOL0     N10815   2.687   8.318  12.097 -0.0515 -0.7135 -0.6028
   79MOL0     N10816   2.654   8.293  11.975  0.5432  1.4422 -0.4422
   79MOL0     C10817   2.864   7.717  11.194  0.9815  0.4112 -0.0226
   79MOL0     C10818   2.983   7.742  11.118  1.0563  0.1445  0.6110
   79MOL0     C10819   3.242   7.796  10.729  0.2625 -0.0490 -0.1068
   79MOL0     C10820   3.317   7.878  10.814 -0.4105 -1.7154 -0.0102
   79MOL0     C10821   3.426   7.959  10.771  1.0238  0.0488  0.5501
   79MOL0     C10822   3.476   7.939  10.637 -0.1719  0.1500  0.4803
   79MOL0     O10823   3.583   7.997  10.570  0.5939 -0.5919 -0.2113
   79MOL0     C10824   3.635   8.108  10.641 -0.0942  1.1557  0.5420
   79MOL0     C10825   3.718   8.182  10.545  0.2025 -0.7454 -0.4548
   79MOL0     C10826   3.834   8.100  10.516 -0.3169  0.2867  0.6900
   79MOL0     C10827   3.951   8.176  10.450  0.1455 -0.1378  0.3111
   79MOL0     C10828   3.995   8.278  10.542 -0.4064 -0.3081 -0.0226
   79MOL0     C10829   4.041   8.365  10.624 -0.3136  0.4996  0.9337
   79MOL0     C10830   3.392   7.865  10.552  0.0932 -0.4696  0.5394
   79MOL0     C10831   3.278   7.797  10.592 -0.1495 -0.6747 -0.3620
   79MOL0     C10832   3.194   7.729  10.488  0.3850  0.1181  0.7272
   79MOL0     H10833   2.846   7.681  10.808  1.6396  1.4229 -1.1406
   79MOL0     H10834   2.668   7.592  10.946 -0.0358 -1.6324  1.1746
   79MOL0     H10835   2.468   7.637  11.098  1.9163 -2.0685 -0.1508
   79MOL0     H10836   2.549   7.798  11.123  0.4714  0.5931  0.9175
   79MOL0     H10837   2.321   7.780  11.252 -2.1891 -1.4108  1.0705
   79MOL0     H10838   2.367   7.642  11.315 -2.8048  1.3462  0.0032
   79MOL0     H10839   2.556   7.777  11.433  0.7079  0.1749 -1.4005
   79MOL0     H10840   2.461   7.922  11.374 -1.4845  0.4164  0.6450
   79MOL0     H10841   2.290   7.897  11.535 -0.2225  0.2666 -0.9137
   79MOL0     H10842   2.337   7.730  11.563 -0.5290  0.1322  0.2083
   79MOL0     H10843   2.538   7.806  11.675 -1.7900 -2.1045 -0.4222
   79MOL0     H10844   2.394   7.893  11.739 -0.8919  1.6009 -2.1101
   79MOL0     H10845   2.597   8.009  11.539  1.3321  2.3104 -0.0695
   79MOL0     H10846   2.451   8.088  11.574  0.5328 -1.2997 -3.5588
   79MOL0     H10847   2.666   8.148  11.713 -1.8752  0.6658 -1.0975
   79MOL0     H10848   2.649   7.991  11.801  0.2765 -0.7632 -1.0789
   79MOL0     H10849   2.457   8.216  11.797  0.6595 -1.7492 -2.5501
   79MOL0     H10850   2.416   8.072  11.891 -1.1593  1.6060  1.8935
   79MOL0     H10851   2.483   8.060  12.144 -0.9629  0.7740  0.0771
   79MOL0     H10852   2.540   8.287  12.371 -0.3815  0.3621 -1.2300
   79MOL0     H10853   2.709   8.308  12.371 -2.4015  2.5923  1.1464
   79MOL0     H10854   2.553   8.044  12.396 -0.0488  0.6152 -0.2733
   79MOL0     H10855   2.724   8.048  12.361 -1.2942 -1.9739  2.1699
   79MOL0     H10856   2.640   8.233  12.592  0.3434  0.4492  0.4815
   79MOL0     H10857   2.625   8.058  12.625 -0.6723  0.0317 -0.4928
   79MOL0     H10858   2.848   8.017  12.595 -1.4408  0.2293  1.9503
   79MOL0     H10859   2.885   8.165  12.507  0.4954  1.0705  0.7587
   79MOL0     H10860   2.943   8.379  12.561  0.3540  2.9690  0.9616
   79MOL0     H10861   3.252   8.532  12.495  0.0828  0.8872  1.0030
   79MOL0     H10862   3.192   8.612  12.646 -0.2277  0.4943  0.2246
   79MOL0     H10863   3.081   8.574  12.522  0.8474  1.5639  0.3260
   79MOL0     H10864   3.554   8.590  12.826 -0.4394 -0.3067 -2.0482
   79MOL0     H10865   3.813   8.647  12.882 -0.2194 -0.9534 -1.8051
   79MOL0     H10866   4.017   8.357  13.131  0.6338 -0.9161 -0.1130
   79MOL0     H10867   4.106   8.343  12.976  4.0391  0.0289  2.4321
   79MOL0     H10868   4.125   8.571  13.169  1.9962  1.0704  1.6526
   79MOL0     H10869   4.234   8.428  13.158 -0.0159 -1.0085 -1.4187
   79MOL0     H10870   4.190   8.642  12.932 -0.6296 -0.0844  0.8264
   79MOL0     H10871   4.260   8.493  12.902 -0.1376 -0.9682  0.7012
   79MOL0     H10872   4.473   8.595  12.964  1.5186  2.3243  0.1077
   79MOL0     H10873   4.398   8.567  13.130 -1.0343  0.6635 -0.3318
   79MOL0     H10874   4.500   8.779  13.068  0.5325 -0.8645  0.2114
   79MOL0     H10875   4.371   8.817  12.948  1.4314 -0.9022 -0.7040
   79MOL0     H10876   4.318   8.798  13.253 -3.2182 -3.1472 -0.8090
   79MOL0     H10877   4.197   8.812  13.129 -0.9678  1.6752  0.3908
   79MOL0     H10878   4.255   9.041  13.212  1.5601  2.0846 -0.4279
   79MOL0     H10879   4.294   9.031  13.046  3.8059  1.2781  0.4345
   79MOL0     H10880   4.469   9.143  13.178 -0.1699 -0.5110  2.6075
   79MOL0     H10881   4.533   9.001  13.098  1.2409 -0.3337  1.6471
   79MOL0     H10882   3.856   8.239  12.993 -1.8669 -1.8820  0.4097
   79MOL0     H10883   3.639   8.186  12.909  0.4636 -0.4733 -0.4881
   79MOL0     H10884   3.256   8.213  12.908 -3.6477  3.5001  4.6718
   79MOL0     H10885   3.033   8.115  12.877  3.8503 -1.6686 -1.2707
   79MOL0     H10886   2.870   7.738  11.301  1.2277  0.4146 -0.0376
   79MOL0     H10887   3.066   7.804  11.150  0.7961  1.6225 -1.3948
   79MOL0     H10888   3.294   7.892  10.919  0.4471 -1.9882  0.2180
   79MOL0     H10889   3.488   8.016  10.840  1.1775  2.0894 -1.1479
   79MOL0     H10890   3.566   8.174  10.695 -0.3393 -1.4097  3.6937
   79MOL0     H10891   3.693   8.072  10.726 -0.7293 -2.8316 -0.5046
   79MOL0     H10892   3.747   8.277  10.589  1.3003 -1.0695 -0.4504
   79MOL0     H10893   3.659   8.205  10.456 -0.6201  0.0626  0.2852
   79MOL0     H10894   3.875   8.044  10.600  2.1779  1.2367  0.1964
   79MOL0     H10895   3.811   8.021  10.443  0.0622 -0.9262  1.8527
   79MOL0     H10896   3.918   8.220  10.356 -0.5818 -2.9138 -0.8558
   79MOL0     H10897   4.034   8.109  10.428  0.7219  0.6094  0.1886
   79MOL0     H10898   4.093   8.425  10.697 -1.3586  0.0980  2.0520
   79MOL0     H10899   3.433   7.855  10.452  1.7318 -2.8480  1.3474
   79MOL0     H10900   3.094   7.772  10.498  0.0261 -0.8603  1.4971
   79MOL0     H10901   3.224   7.753  10.386  1.7593 -0.5906  0.9408
   79MOL0     H10902   3.187   7.622  10.509 -1.6642  0.1933  0.5469
   80MOL0     O10903   6.820   1.521   7.433 -0.9346 -0.0949 -0.6140
   80MOL0     C10904   6.737   1.611   7.432  1.6407  0.2770  0.0378
   80MOL0     O10905   6.768   1.740   7.429  0.1612  0.3253  0.2235
   80MOL0     C10906   6.901   1.781   7.403 -0.2187  0.2798 -0.7244
   80MOL0     C10907   6.983   1.752   7.292 -0.0715  0.3339 -0.5722
   80MOL0     C10908   7.117   1.798   7.283  0.5147 -0.3118  0.6363
   80MOL0     C10909   7.172   1.877   7.381  0.1030  0.2510 -0.9601
   80MOL0     O10910   7.303   1.925   7.363 -0.4851  0.2589 -0.3509
   80MOL0     C10911   7.374   1.994   7.475  0.0191  0.5864  0.1795
   80MOL0     C10912   7.516   2.014   7.430 -0.5329  0.3471 -0.6400
   80MOL0     C10913   7.597   2.094   7.528 -0.3543  0.1348 -0.3156
   80MOL0     C10914   7.738   2.090   7.487  0.5568  0.3295  0.0041
   80MOL0     C10915   7.833   2.096   7.609  0.6560  0.0963 -0.0426
   80MOL0     C10916   7.978   2.089   7.576 -0.3369  0.2276 -1.0929
   80MOL0     C10917   8.047   2.094   7.714 -0.2062 -0.2040 -0.0727
   80MOL0     C10918   8.201   2.088   7.708 -0.2796  0.3156 -0.8003
   80MOL0     N10919   8.277   2.189   7.796 -0.0775 -0.6571  0.4347
   80MOL0     C10920   8.358   2.294   7.747 -0.2950 -0.4431 -0.0161
   80MOL0     C10921   8.416   2.347   7.863  0.0716 -0.4661  0.0159
   80MOL0     C10922   8.530   2.445   7.872  0.1271 -0.8016  0.4876
   80MOL0     C10923   8.654   2.389   7.799  0.8011  0.0440 -0.0752
   80MOL0     C10924   8.711   2.519   7.739 -0.2329 -0.6586 -0.7890
   80MOL0     C10925   8.857   2.499   7.689  0.4312  0.2127 -0.3684
   80MOL0     O10926   8.889   2.612   7.600  0.2774 -0.2207 -0.2629
   80MOL0     C10927   9.023   2.621   7.567  0.0995  0.0633 -0.6455
   80MOL0     C10928   9.057   2.727   7.485 -0.2308 -0.3088  0.3681
   80MOL0     C10929   9.196   2.762   7.454 -0.6102 -0.5159  0.3110
   80MOL0     C10930   9.216   2.885   7.360 -0.3446 -0.9906 -0.0454
   80MOL0     C10931   9.297   2.670   7.490  0.3423 -0.9397  0.3446
   80MOL0     C10932   9.438   2.700   7.453 -0.2099  0.6028  0.0070
   80MOL0     O10933   9.472   2.830   7.434 -0.8212 -0.3301  0.3208
   80MOL0     C10934   9.596   2.871   7.396  0.1047  0.6628 -0.2093
   80MOL0     C10935   9.714   2.809   7.453 -0.2520  0.0050  0.6189
   80MOL0     C10936   9.841   2.835   7.396  0.1598  0.3783 -0.3948
   80MOL0     C10937   9.852   2.917   7.281 -0.4781 -0.0562  0.1760
   80MOL0     O10938   9.979   2.937   7.242 -0.0732  0.2862  0.5539
   80MOL0     C10939   9.996   3.041   7.150 -0.0539 -0.6799 -0.2690
   80MOL0     C10940  10.138   3.073   7.103 -0.1286  0.4277 -0.1155
   80MOL0     C10941  10.197   3.005   6.984  0.4145 -0.1100  0.0922
   80MOL0     C10942  10.183   2.851   7.002  0.3144 -0.4434 -0.3247
   80MOL0     C10943  10.262   2.776   6.898  0.1436  0.1940  0.4209
   80MOL0     C10944  10.409   2.777   6.932  0.1118 -0.4463  0.9535
   80MOL0     C10945  10.492   2.716   6.821 -0.5981 -0.2903  0.2643
   80MOL0     C10946  10.640   2.731   6.857 -0.3275 -0.3159 -0.3789
   80MOL0    Cl10947  10.690   2.605   6.975 -0.0485  0.3112  0.0304
   80MOL0     C10948   9.735   2.984   7.235  0.1800 -0.0986  0.8432
   80MOL0     C10949   9.611   2.955   7.293  0.1589 -0.1113 -0.9382
   80MOL0     O10950   9.517   2.603   7.470  0.5714  0.2194 -0.5611
   80MOL0     C10951   9.263   2.563   7.566  0.3380  0.0888  0.0208
   80MOL0     C10952   9.129   2.530   7.602 -0.3740 -0.7827  0.1474
   80MOL0     N10953   8.361   2.278   7.968 -0.3828 -0.0886  0.6335
   80MOL0     N10954   8.279   2.188   7.933  0.1570  0.2322 -0.2531
   80MOL0     C10955   7.100   1.907   7.494  0.2765  0.0299 -0.2199
   80MOL0     C10956   6.966   1.860   7.506  0.4844 -0.9643 -0.6580
   80MOL0     C10957   6.591   1.576   7.450  0.1586 -0.6251  1.2229
   80MOL0     C10958   6.555   1.448   7.415  0.3180  0.5040  0.6903
   80MOL0     C10959   6.421   1.404   7.426 -0.7249 -0.3377  0.5799
   80MOL0     C10960   6.320   1.492   7.461 -0.8506 -0.1431 -0.4700
   80MOL0     O10961   6.189   1.453   7.476 -0.6083 -0.7936  0.1509
   80MOL0     C10962   6.128   1.363   7.378 -0.6069  0.4466 -0.3231
   80MOL0     C10963   6.083   1.233   7.437  0.5742  0.1178 -0.0699
   80MOL0     C10964   6.197   1.143   7.475 -0.4126  0.7404 -0.8372
   80MOL0     C10965   6.137   1.011   7.523  0.1720 -0.3920  0.1844
   80MOL0     C10966   6.056   1.022   7.638 -0.4155 -0.8435 -0.3854
   80MOL0     C10967   5.985   0.996   7.730 -0.7478  0.0008  0.1485
   80MOL0     C10968   6.354   1.625   7.490  0.6707 -0.7823  0.6335
   80MOL0     C10969   6.488   1.673   7.477  0.8382 -0.4213 -0.2075
   80MOL0     C10970   6.505   1.815   7.503 -0.2384 -0.3634  0.3286
   80MOL0     H10971   6.948   1.684   7.215 -2.3556  0.8961 -0.0929
   80MOL0     H10972   7.182   1.789   7.197  1.0665  0.0917  1.0116
   80MOL0     H10973   7.369   1.939   7.569 -0.6288 -0.6415 -0.5420
   80MOL0     H10974   7.328   2.093   7.482  1.3264  1.5266 -2.8864
   80MOL0     H10975   7.567   1.918   7.419 -2.4525 -0.7981 -0.0860
   80MOL0     H10976   7.507   2.068   7.336 -2.7652 -1.0227 -1.3014
   80MOL0     H10977   7.564   2.198   7.523 -1.2624 -0.1542 -0.5803
   80MOL0     H10978   7.578   2.063   7.631 -2.1847  2.7645  0.2439
   80MOL0     H10979   7.765   2.004   7.425  0.4219 -0.0512  0.4694
   80MOL0     H10980   7.769   2.175   7.425  5.4657  0.5087  2.2409
   80MOL0     H10981   7.801   2.012   7.673 -1.0778  0.1440 -0.7913
   80MOL0     H10982   7.808   2.186   7.665  0.2483 -0.1177  0.1260
   80MOL0     H10983   7.988   1.985   7.544 -0.3473  0.3140 -1.3829
   80MOL0     H10984   8.014   2.159   7.500  1.2096  0.2271 -0.3963
   80MOL0     H10985   8.020   1.998   7.756  1.3126 -0.9163 -0.6497
   80MOL0     H10986   7.998   2.171   7.774 -0.6616 -1.6271  1.4141
   80MOL0     H10987   8.241   1.994   7.748 -0.2041 -0.5415 -2.7568
   80MOL0     H10988   8.238   2.096   7.605  2.8225  0.0788  0.1857
   80MOL0     H10989   8.381   2.309   7.642 -2.6272  1.1018 -0.3756
   80MOL0     H10990   8.561   2.482   7.970  1.1197  1.5387 -0.6088
   80MOL0     H10991   8.487   2.532   7.820  2.6928  0.1706 -0.1674
   80MOL0     H10992   8.719   2.342   7.873  0.8827  0.7900  0.3428
   80MOL0     H10993   8.632   2.316   7.721 -0.0013  1.7158 -1.4669
   80MOL0     H10994   8.660   2.541   7.645  1.4231  1.4277 -1.2771
   80MOL0     H10995   8.710   2.608   7.803 -1.3166 -0.9964 -0.3122
   80MOL0     H10996   8.930   2.498   7.771 -0.0364 -1.5830  0.0716
   80MOL0     H10997   8.863   2.401   7.641 -0.0466  0.1497 -0.2989
   80MOL0     H10998   8.980   2.794   7.446  1.7236  0.4752 -2.4503
   80MOL0     H10999   9.249   2.973   7.417 -0.7875 -0.4446 -0.6139
   80MOL0     H11000   9.127   2.925   7.312  0.6812  2.4758  0.6313
   80MOL0     H11001   9.282   2.856   7.278  1.0813 -1.0810  1.0724
   80MOL0     H11002   9.708   2.737   7.534  0.4005 -3.9004 -2.4999
   80MOL0     H11003   9.927   2.791   7.447 -1.8439 -0.2078  2.7719
   80MOL0     H11004   9.933   3.033   7.061 -0.4594 -3.0158  0.1725
   80MOL0     H11005   9.961   3.136   7.193  2.5995  0.7048 -0.9270
   80MOL0     H11006  10.131   3.181   7.087 -2.1048  0.6751  1.8864
   80MOL0     H11007  10.211   3.069   7.183 -1.1979 -0.3249  0.8626
   80MOL0     H11008  10.301   3.038   6.982  1.4899 -2.9786  1.6613
   80MOL0     H11009  10.144   3.021   6.890 -1.0042  0.8128  1.0266
   80MOL0     H11010  10.082   2.811   6.984  0.3367  0.0600 -1.6519
   80MOL0     H11011  10.212   2.821   7.103 -0.3872  2.0507  0.6825
   80MOL0     H11012  10.226   2.672   6.890  1.2557 -0.1732  0.0472
   80MOL0     H11013  10.242   2.826   6.803  0.7495  1.6581  1.0394
   80MOL0     H11014  10.416   2.714   7.022 -1.4782 -1.2907  0.5424
   80MOL0     H11015  10.431   2.882   6.950 -0.6940 -0.3932  1.7120
   80MOL0     H11016  10.491   2.778   6.731  0.8905 -0.7887 -0.1234
   80MOL0     H11017  10.447   2.617   6.807 -1.5915  0.3768 -1.4779
   80MOL0     H11018  10.661   2.832   6.893 -1.4845 -0.1983 -0.0113
   80MOL0     H11019  10.700   2.718   6.766 -0.8253 -2.8003 -0.4067
   80MOL0     H11020   9.733   3.065   7.164 -1.8757 -1.5925 -0.9363
   80MOL0     H11021   9.521   2.993   7.246  0.2643 -0.3827 -1.3638
   80MOL0     H11022   9.346   2.502   7.601  1.0170  0.8388 -0.2512
   80MOL0     H11023   9.122   2.429   7.641 -0.9505 -0.8881 -0.2252
   80MOL0     H11024   7.136   1.969   7.574  2.9588 -1.0659 -0.4731
   80MOL0     H11025   6.907   1.888   7.593  0.8751 -0.3369 -0.5939
   80MOL0     H11026   6.629   1.375   7.383 -1.5930 -1.5116  0.5805
   80MOL0     H11027   6.413   1.298   7.405  1.4915 -0.2541 -1.0197
   80MOL0     H11028   6.041   1.412   7.334 -1.3448  0.0628  0.6764
   80MOL0     H11029   6.204   1.347   7.301  1.2345 -0.1561  1.5229
   80MOL0     H11030   6.022   1.188   7.357  0.0600  0.9738 -0.1664
   80MOL0     H11031   6.017   1.260   7.520  1.1578 -1.9218  1.1189
   80MOL0     H11032   6.272   1.117   7.399  3.0392 -2.6389  3.2212
   80MOL0     H11033   6.255   1.179   7.560  0.2999  1.5883 -1.6517
   80MOL0     H11034   6.221   0.945   7.545  0.5453 -0.4823 -1.4527
   80MOL0     H11035   6.076   0.969   7.442 -1.2169  1.3170  0.2622
   80MOL0     H11036   5.920   0.976   7.812  0.1899  2.7506  1.7151
   80MOL0     H11037   6.270   1.690   7.512 -0.0681 -1.0660 -1.1529
   80MOL0     H11038   6.521   1.871   7.411  2.3112  2.4705  2.2888
   80MOL0     H11039   6.423   1.867   7.555 -0.3948 -0.7590  0.4805
   80MOL0     H11040   6.584   1.818   7.578 -0.6377 -0.8152  0.7785
   81MOL0     O11041   8.582   8.405   1.639  0.5410  0.5328  0.0822
   81MOL0     C11042   8.597   8.280   1.645  0.8444  0.4669 -0.0598
   81MOL0     O11043   8.513   8.196   1.721  0.4788 -0.8654 -0.9208
   81MOL0     C11044   8.380   8.225   1.759 -0.1416  0.0227 -0.6172
   81MOL0     C11045   8.325   8.140   1.855 -0.3783 -0.2041 -0.4008
   81MOL0     C11046   8.202   8.170   1.911 -0.1869 -0.6848 -0.1764
   81MOL0     C11047   8.124   8.278   1.868 -0.4076  0.2400  0.9016
   81MOL0     O11048   8.004   8.291   1.934 -0.3738 -0.1176 -0.1462
   81MOL0     C11049   7.891   8.350   1.875 -0.2170  0.3314  0.2458
   81MOL0     C11050   7.763   8.347   1.963  0.3262 -0.1525 -0.2016
   81MOL0     C11051   7.774   8.416   2.104 -0.1156 -1.0276  0.1722
   81MOL0     C11052   7.793   8.569   2.108  0.3460  0.0075 -0.1554
   81MOL0     C11053   7.708   8.646   2.011 -0.2897  0.0717  0.5576
   81MOL0     C11054   7.676   8.796   2.019 -0.5413  0.8184 -0.0806
   81MOL0     C11055   7.799   8.882   2.049  0.1176  0.0930 -0.0883
   81MOL0     C11056   7.783   9.036   2.033  0.2119 -0.0155 -0.8258
   81MOL0     N11057   7.910   9.106   2.072 -0.5590  1.0269  0.0685
   81MOL0     C11058   8.007   9.054   2.166 -0.3085 -0.0787  0.1284
   81MOL0     C11059   8.085   9.162   2.192 -0.1424  0.6344 -0.2794
   81MOL0     C11060   8.211   9.156   2.273  0.9552  0.4180 -0.3169
   81MOL0     C11061   8.207   9.263   2.385 -0.6638 -0.4768  0.2529
   81MOL0     C11062   8.138   9.209   2.523 -0.9131  0.5495  0.3836
   81MOL0     C11063   8.130   9.319   2.629 -0.0511  0.1634 -0.4885
   81MOL0     O11064   8.261   9.356   2.664 -0.3708  0.1714  0.7594
   81MOL0     C11065   8.290   9.449   2.756 -0.3395  0.1387 -0.0176
   81MOL0     C11066   8.205   9.516   2.845  0.0022 -0.0868 -0.3336
   81MOL0     C11067   8.250   9.620   2.923  0.6294 -0.2099 -0.8617
   81MOL0     C11068   8.151   9.674   3.025  0.9970 -0.4547 -0.0022
   81MOL0     C11069   8.385   9.657   2.918 -0.0437  0.4213 -0.2726
   81MOL0     C11070   8.444   9.762   3.001  0.0772  0.5209 -0.6920
   81MOL0     O11071   8.572   9.802   2.969 -0.2352  0.6517  1.0623
   81MOL0     C11072   8.629   9.907   3.027  0.2410 -0.6012 -0.3176
   81MOL0     C11073   8.748   9.898   3.089  0.0237 -0.1627  0.6081
   81MOL0     C11074   8.809  10.014   3.137 -0.0619 -0.3380  0.3344
   81MOL0     C11075   8.753  10.147   3.128 -0.6367 -0.3456 -0.5987
   81MOL0     O11076   8.811  10.267   3.163 -0.0113  0.9320  0.8588
   81MOL0     C11077   8.931  10.270   3.244  0.6549 -0.3672  0.1297
   81MOL0     C11078   8.990  10.408   3.232  0.7404  0.5561  0.2530
   81MOL0     C11079   9.130  10.414   3.284  0.5703  0.8693  0.2037
   81MOL0     C11080   9.233  10.339   3.193 -1.4768 -0.8129  0.1337
   81MOL0     C11081   9.359  10.317   3.277 -0.4652 -0.7900 -0.6769
   81MOL0     C11082   9.477  10.290   3.180 -0.5874  0.3505  0.2222
   81MOL0     C11083   9.611  10.279   3.250 -0.4311  0.8887 -0.9098
   81MOL0     C11084   9.733  10.289   3.162  0.3623  0.5693  0.2162
   81MOL0    Cl11085   9.872  10.231   3.254  0.0077 -0.1986  0.1042
   81MOL0     C11086   8.632  10.143   3.069 -0.3810 -0.7321  0.7311
   81MOL0     C11087   8.571  10.029   3.013 -0.9200 -0.4463  0.7648
   81MOL0     O11088   8.383   9.805   3.102 -0.3127 -0.5275 -0.0167
   81MOL0     C11089   8.473   9.588   2.837 -0.0566 -0.2440 -0.2907
   81MOL0     C11090   8.419   9.487   2.762 -0.0695 -0.4212  0.1497
   81MOL0     N11091   8.047   9.271   2.122  0.8220 -0.1992 -0.4046
   81MOL0     N11092   7.935   9.238   2.059 -0.3801 -0.0177 -1.7087
   81MOL0     C11093   8.172   8.356   1.758  0.5105 -0.2748 -0.0082
   81MOL0     C11094   8.295   8.329   1.705 -0.4050 -0.2744 -0.2104
   81MOL0     C11095   8.699   8.217   1.556 -1.5122 -0.1028  0.5240
   81MOL0     C11096   8.770   8.303   1.474 -0.5875  0.1838 -0.2217
   81MOL0     C11097   8.864   8.264   1.385 -0.1701  0.1199  0.0728
   81MOL0     C11098   8.906   8.131   1.377  0.2203 -0.5933  0.5668
   81MOL0     O11099   8.999   8.080   1.287  0.5657  0.0706 -0.0066
   81MOL0     C11100   9.098   8.169   1.236 -0.9394  0.1022  1.1403
   81MOL0     C11101   9.190   8.110   1.128  0.2682  0.6156 -0.6148
   81MOL0     C11102   9.302   8.039   1.201 -0.6098  0.2837  0.4021
   81MOL0     C11103   9.387   7.966   1.099  0.4544  0.6679  0.9592
   81MOL0     C11104   9.326   7.845   1.027  0.9749  0.6553  0.3787
   81MOL0     C11105   9.267   7.751   0.966  0.0905  0.1454 -0.1353
   81MOL0     C11106   8.844   8.046   1.463 -0.8448  0.0942 -0.5841
   81MOL0     C11107   8.741   8.087   1.550 -0.2873  0.2717 -0.1446
   81MOL0     C11108   8.681   7.982   1.642  0.8214 -0.4341  0.0212
   81MOL0     H11109   8.391   8.060   1.887  1.3094  1.9661  1.9027
   81MOL0     H11110   8.148   8.113   1.985 -0.9816 -1.2311 -1.1500
   81MOL0     H11111   7.863   8.286   1.791  0.4730  0.2737  0.0556
   81MOL0     H11112   7.907   8.455   1.847  3.2475 -0.1113  0.2170
   81MOL0     H11113   7.677   8.386   1.908  0.9059 -0.6127 -1.4723
   81MOL0     H11114   7.737   8.242   1.977 -0.7691  0.2396  0.9109
   81MOL0     H11115   7.684   8.392   2.163  0.5051 -3.1402  0.3436
   81MOL0     H11116   7.861   8.374   2.155  0.2088 -2.6117 -1.5653
   81MOL0     H11117   7.764   8.598   2.210  0.6103 -0.4962  0.0680
   81MOL0     H11118   7.899   8.592   2.092  0.5998 -0.5972  0.5814
   81MOL0     H11119   7.609   8.602   2.005  0.0297 -0.4614 -2.7933
   81MOL0     H11120   7.746   8.624   1.911  1.7216  2.1701  0.7749
   81MOL0     H11121   7.644   8.833   1.922  1.2981  0.4856 -0.8553
   81MOL0     H11122   7.596   8.822   2.089  0.0766  1.4889  0.3971
   81MOL0     H11123   7.872   8.847   1.975 -2.0578 -1.7526 -1.5032
   81MOL0     H11124   7.830   8.851   2.150 -2.0249  0.0088  0.5851
   81MOL0     H11125   7.760   9.070   1.932 -0.2588  0.6231 -0.5082
   81MOL0     H11126   7.706   9.076   2.100  1.6025  0.6895  0.4368
   81MOL0     H11127   8.021   8.951   2.197 -0.1939  0.3872  1.7182
   81MOL0     H11128   8.297   9.176   2.208  1.0203 -3.2023 -1.5760
   81MOL0     H11129   8.227   9.060   2.324  0.4734  2.1208  3.3686
   81MOL0     H11130   8.312   9.291   2.394 -0.9590  2.2092 -3.0371
   81MOL0     H11131   8.147   9.346   2.347  0.2212  0.9867  1.9131
   81MOL0     H11132   8.039   9.167   2.503 -0.4415 -2.4177  3.4847
   81MOL0     H11133   8.198   9.123   2.553 -1.7772  0.3120  1.4932
   81MOL0     H11134   8.082   9.407   2.584 -3.1818 -1.3106 -0.3397
   81MOL0     H11135   8.076   9.284   2.718 -0.1307 -1.7984 -1.2497
   81MOL0     H11136   8.105   9.477   2.859  0.1766  0.2687  2.7170
   81MOL0     H11137   8.054   9.624   3.009  0.4919 -0.0067  1.5061
   81MOL0     H11138   8.141   9.781   3.006  1.2045 -0.3580  0.4346
   81MOL0     H11139   8.180   9.655   3.128 -0.2156  1.1331  0.6601
   81MOL0     H11140   8.801   9.804   3.076  3.2472  1.8251 -2.6011
   81MOL0     H11141   8.910  10.004   3.178  0.0206  0.5858  0.3809
   81MOL0     H11142   8.906  10.243   3.346 -0.7282 -2.4976 -0.7023
   81MOL0     H11143   9.004  10.201   3.200 -0.6183 -0.0662 -2.6795
   81MOL0     H11144   8.989  10.435   3.126  3.6199  2.2707  0.5473
   81MOL0     H11145   8.930  10.483   3.285 -1.4121 -1.5223  0.9253
   81MOL0     H11146   9.137  10.365   3.382 -1.9711  0.3330  0.1842
   81MOL0     H11147   9.151  10.517   3.315  0.8199 -0.0344  3.3413
   81MOL0     H11148   9.256  10.409   3.112  1.3372  0.2526  1.7040
   81MOL0     H11149   9.211  10.240   3.152  0.8124 -0.2123 -2.9275
   81MOL0     H11150   9.377  10.413   3.327 -3.0819 -0.7916  0.4802
   81MOL0     H11151   9.351  10.247   3.361  2.3792  0.4781  0.7815
   81MOL0     H11152   9.483  10.377   3.114  1.6255 -0.3360 -0.5880
   81MOL0     H11153   9.458  10.204   3.116 -0.3981  0.8221 -0.4744
   81MOL0     H11154   9.621  10.181   3.298 -1.5559  0.9370 -0.5499
   81MOL0     H11155   9.619  10.350   3.333  1.7362  1.0884 -1.2287
   81MOL0     H11156   9.743  10.389   3.120 -0.5034 -0.2194 -2.0295
   81MOL0     H11157   9.717  10.214   3.084 -1.5153  1.4909 -0.3333
   81MOL0     H11158   8.588  10.242   3.059  1.9522  0.4958  1.8242
   81MOL0     H11159   8.479  10.051   2.961  0.7492  1.8000 -1.5219
   81MOL0     H11160   8.578   9.608   2.818  0.1892 -1.5352 -0.3783
   81MOL0     H11161   8.486   9.449   2.686  0.7955  1.6217 -0.1745
   81MOL0     H11162   8.105   8.429   1.713  0.1770 -1.2016 -1.0439
   81MOL0     H11163   8.340   8.381   1.621  1.1337  0.8396  1.2264
   81MOL0     H11164   8.748   8.409   1.464 -1.7501 -0.1947 -2.1983
   81MOL0     H11165   8.919   8.338   1.328  0.2864  0.1595  0.5675
   81MOL0     H11166   9.054   8.261   1.196  0.4218  0.0259 -0.6757
   81MOL0     H11167   9.158   8.188   1.325 -1.7985  1.6768  1.4284
   81MOL0     H11168   9.242   8.174   1.056  1.7748 -1.0741 -1.0955
   81MOL0     H11169   9.137   8.037   1.065 -1.1441 -0.4882  1.7024
   81MOL0     H11170   9.359   8.109   1.262  0.7458 -0.9221  0.5746
   81MOL0     H11171   9.265   7.970   1.277  0.3258  2.2722  2.7719
   81MOL0     H11172   9.476   7.930   1.152  1.2833 -2.1101 -1.9920
   81MOL0     H11173   9.417   8.038   1.023  0.1210 -0.4364 -0.2620
   81MOL0     H11174   9.206   7.685   0.908 -2.5460  0.4835  2.0464
   81MOL0     H11175   8.852   7.938   1.452 -0.1712 -0.0533  1.0959
   81MOL0     H11176   8.690   8.017   1.745 -1.3253 -1.7854  0.7279
   81MOL0     H11177   8.580   7.956   1.609 -0.0693  0.8039  1.6529
   81MOL0     H11178   8.729   7.884   1.642  0.3256 -0.6752  0.0826
   82MOL0     O11179   7.740   9.529   5.404  0.3456 -0.4139 -0.1202
   82MOL0     C11180   7.744   9.511   5.526  0.2176  0.3219 -0.0312
   82MOL0     O11181   7.640   9.452   5.597  0.3723  0.3465 -0.2989
   82MOL0     C11182   7.521   9.424   5.543  0.6634  0.9157 -0.6648
   82MOL0     C11183   7.487   9.283   5.554 -0.7534 -0.2548  0.2211
   82MOL0     C11184   7.365   9.230   5.500  0.0706 -0.1469  1.3679
   82MOL0     C11185   7.284   9.308   5.413  0.5088 -0.1467  1.0584
   82MOL0     O11186   7.174   9.265   5.341 -0.4386  0.2479 -0.5997
   82MOL0     C11187   7.075   9.194   5.418  0.8980  0.4116  0.1909
   82MOL0     C11188   6.934   9.247   5.378 -0.2550 -0.2728  0.1809
   82MOL0     C11189   6.829   9.157   5.434  1.1619  0.5798 -1.0852
   82MOL0     C11190   6.690   9.228   5.424  0.0166  0.6404  0.1395
   82MOL0     C11191   6.571   9.136   5.475 -0.4496 -0.9855 -0.3027
   82MOL0     C11192   6.452   9.220   5.507 -0.0003 -0.2703  0.5998
   82MOL0     C11193   6.339   9.134   5.552 -1.6763  1.2142  0.3010
   82MOL0     C11194   6.345   9.106   5.707  0.8518 -0.3967  0.8163
   82MOL0     N11195   6.240   9.010   5.747 -0.2114 -0.2331  0.7428
   82MOL0     C11196   6.259   8.886   5.803  0.5999 -0.4955 -0.0171
   82MOL0     C11197   6.130   8.838   5.813 -0.4445 -0.4871  0.1156
   82MOL0     C11198   6.090   8.700   5.867 -0.2856  0.5373  0.4323
   82MOL0     C11199   6.106   8.688   6.024 -0.3354  0.0716  0.9131
   82MOL0     C11200   6.075   8.540   6.067  1.1629  0.6027  0.1991
   82MOL0     C11201   6.187   8.470   6.142 -0.8048  0.2728 -0.1014
   82MOL0     O11202   6.312   8.498   6.080  0.5037 -0.2086  0.0734
   82MOL0     C11203   6.421   8.427   6.124 -1.0313 -0.3504  0.0319
   82MOL0     C11204   6.422   8.347   6.243 -0.3066 -0.9560  0.4341
   82MOL0     C11205   6.522   8.261   6.274 -0.0507 -0.1703  0.1948
   82MOL0     C11206   6.493   8.185   6.402 -0.2090 -0.5332 -0.3446
   82MOL0     C11207   6.639   8.256   6.194  0.5822 -0.0633  0.3208
   82MOL0     C11208   6.753   8.174   6.233 -0.4945  0.2716  0.1720
   82MOL0     O11209   6.848   8.138   6.135  0.0806 -0.2011  0.9476
   82MOL0     C11210   6.965   8.078   6.179  0.2479 -0.2225  0.0755
   82MOL0     C11211   6.956   7.950   6.246  0.0598 -0.9243  0.4954
   82MOL0     C11212   7.072   7.872   6.285 -0.4530 -0.3148 -0.0401
   82MOL0     C11213   7.197   7.919   6.258  0.1889 -0.3828  0.8355
   82MOL0     O11214   7.304   7.857   6.309  0.9545 -0.3720 -0.6565
   82MOL0     C11215   7.424   7.940   6.312 -0.5297  0.0393 -0.1962
   82MOL0     C11216   7.530   7.879   6.397 -0.1074 -0.3530 -0.0079
   82MOL0     C11217   7.574   7.738   6.345 -0.6983  0.5117 -0.4053
   82MOL0     C11218   7.679   7.663   6.420 -0.3043 -0.0383  0.4721
   82MOL0     C11219   7.699   7.521   6.360 -0.2337 -0.3441  0.1592
   82MOL0     C11220   7.835   7.465   6.421  0.2262  0.2614  0.5752
   82MOL0     C11221   7.875   7.322   6.391 -0.2771  0.5330 -0.1824
   82MOL0     C11222   7.953   7.326   6.255  0.2402 -0.7256  1.2007
   82MOL0    Cl11223   7.911   7.170   6.163 -0.1847 -0.2868 -0.2689
   82MOL0     C11224   7.204   8.037   6.181  0.0346 -0.7472 -0.2514
   82MOL0     C11225   7.088   8.117   6.146 -0.1777 -0.4761  0.4661
   82MOL0     O11226   6.770   8.149   6.355 -0.3424 -0.3891 -0.4343
   82MOL0     C11227   6.632   8.342   6.075  0.3998 -0.2438  1.2462
   82MOL0     C11228   6.523   8.418   6.034  0.0701  0.5649 -0.0988
   82MOL0     N11229   6.039   8.939   5.772 -1.0160  0.0717 -0.2792
   82MOL0     N11230   6.113   9.031   5.718  0.0635 -0.6207  0.5489
   82MOL0     C11231   7.328   9.438   5.384 -0.3584  0.5890  0.3218
   82MOL0     C11232   7.439   9.494   5.457  0.5793  0.6514  0.3659
   82MOL0     C11233   7.854   9.571   5.604 -0.0694 -0.2009  0.6958
   82MOL0     C11234   7.962   9.620   5.523  0.6793 -0.7274  0.2804
   82MOL0     C11235   8.069   9.696   5.589 -0.0442  0.4788  0.3245
   82MOL0     C11236   8.079   9.694   5.729  0.2437 -0.4915 -0.4699
   82MOL0     O11237   8.197   9.741   5.775 -0.0052 -0.3759 -0.0422
   82MOL0     C11238   8.230   9.747   5.913 -0.1656 -0.1645 -0.0583
   82MOL0     C11239   8.297   9.617   5.943 -0.4366 -0.1222 -0.5045
   82MOL0     C11240   8.317   9.596   6.096 -0.1019 -0.2881  0.6840
   82MOL0     C11241   8.402   9.480   6.125  0.1198  0.1046 -1.1568
   82MOL0     C11242   8.433   9.478   6.270 -0.2419  0.7720  0.2466
   82MOL0     C11243   8.459   9.487   6.385  1.1291 -0.0410 -0.2211
   82MOL0     C11244   7.970   9.636   5.808  0.1800 -0.2035 -0.2757
   82MOL0     C11245   7.863   9.576   5.741  0.7099 -0.1335 -0.0777
   82MOL0     C11246   7.755   9.519   5.841 -0.3408  0.8688  0.4043
   82MOL0     H11247   7.556   9.225   5.615 -0.1044 -0.2618 -0.4989
   82MOL0     H11248   7.347   9.125   5.521 -0.1298 -0.1034  1.4101
   82MOL0     H11249   7.089   9.207   5.526 -0.4255  0.0920  0.4204
   82MOL0     H11250   7.083   9.087   5.397  4.3640  0.2974  1.4642
   82MOL0     H11251   6.930   9.349   5.418  1.8182  0.3445 -1.0571
   82MOL0     H11252   6.931   9.260   5.270 -0.4425 -0.0472  0.2113
   82MOL0     H11253   6.819   9.055   5.395  0.2737 -0.5756  1.8193
   82MOL0     H11254   6.863   9.137   5.536 -0.8424  0.9924 -0.2935
   82MOL0     H11255   6.694   9.325   5.476  1.2038  0.7520 -0.1338
   82MOL0     H11256   6.672   9.259   5.321  1.3582 -0.2044 -0.3706
   82MOL0     H11257   6.602   9.073   5.559 -3.9343 -0.7006  1.3683
   82MOL0     H11258   6.556   9.064   5.394  2.2531  0.3441 -2.1609
   82MOL0     H11259   6.474   9.302   5.575  0.8496 -0.0566  0.0708
   82MOL0     H11260   6.413   9.265   5.415 -0.1325 -1.4799  0.0385
   82MOL0     H11261   6.343   9.039   5.498  0.8852  0.4568  1.6746
   82MOL0     H11262   6.247   9.181   5.517 -0.4285  1.7899 -2.4628
   82MOL0     H11263   6.446   9.079   5.741 -0.5821 -3.5593  3.0686
   82MOL0     H11264   6.325   9.199   5.760 -0.0235  0.3943 -0.8413
   82MOL0     H11265   6.349   8.841   5.842  0.5850  1.6171  2.7416
   82MOL0     H11266   6.150   8.621   5.821 -0.7278  0.5408 -0.1573
   82MOL0     H11267   5.988   8.675   5.838  0.8479 -1.5754 -2.2350
   82MOL0     H11268   6.207   8.715   6.059  0.4553 -0.7970 -0.5949
   82MOL0     H11269   6.035   8.758   6.069 -2.1567 -0.8758 -0.3988
   82MOL0     H11270   5.993   8.524   6.137  0.2280 -2.5425 -1.4332
   82MOL0     H11271   6.062   8.480   5.976  0.2385 -0.4193  0.9818
   82MOL0     H11272   6.204   8.509   6.243  1.4347  2.3238 -1.1675
   82MOL0     H11273   6.170   8.363   6.154  1.6375 -0.2480 -0.7894
   82MOL0     H11274   6.334   8.360   6.306 -0.2097  1.8573  0.1045
   82MOL0     H11275   6.511   8.082   6.370  1.4960  0.3341 -2.3984
   82MOL0     H11276   6.388   8.203   6.427  0.3893  1.5302  0.9765
   82MOL0     H11277   6.563   8.221   6.479  1.0514  1.3069 -2.2312
   82MOL0     H11278   6.854   7.918   6.263 -2.0983  1.9164 -4.7899
   82MOL0     H11279   7.062   7.775   6.332  3.7668 -0.6247  0.6362
   82MOL0     H11280   7.472   7.949   6.215 -0.1329 -0.1374 -0.0169
   82MOL0     H11281   7.397   8.032   6.364 -0.0242 -1.1086  2.2566
   82MOL0     H11282   7.619   7.942   6.387 -0.1867 -0.0374  1.1490
   82MOL0     H11283   7.500   7.875   6.502  3.6200  0.8221  1.2645
   82MOL0     H11284   7.600   7.760   6.241 -3.4287  2.6765 -0.7311
   82MOL0     H11285   7.493   7.665   6.337  0.5457 -0.8126 -1.8191
   82MOL0     H11286   7.646   7.656   6.524 -1.8845  2.0149  0.1698
   82MOL0     H11287   7.777   7.711   6.428 -0.4431  0.2697  0.3251
   82MOL0     H11288   7.611   7.461   6.387  0.3965 -0.0128  3.3468
   82MOL0     H11289   7.686   7.526   6.252  0.1268  0.6830  0.1571
   82MOL0     H11290   7.839   7.485   6.529 -2.6171  1.3176  0.5659
   82MOL0     H11291   7.922   7.521   6.387  1.5825 -1.6179  0.7755
   82MOL0     H11292   7.786   7.260   6.384 -1.5655  2.2775  0.0050
   82MOL0     H11293   7.947   7.287   6.465  0.7601  4.3372  0.8705
   82MOL0     H11294   8.058   7.337   6.282  0.1058 -0.0482  1.4663
   82MOL0     H11295   7.925   7.408   6.189  2.2668  0.4757  1.7829
   82MOL0     H11296   7.296   8.081   6.145  0.5812 -2.2425 -0.7734
   82MOL0     H11297   7.104   8.197   6.074  1.2998 -0.7184  0.4957
   82MOL0     H11298   6.712   8.324   6.004 -1.4730 -2.1434 -0.5169
   82MOL0     H11299   6.510   8.461   5.935  0.6753 -0.0851 -0.4604
   82MOL0     H11300   7.275   9.501   5.313  0.3022  4.4480  2.9415
   82MOL0     H11301   7.471   9.597   5.443 -0.7203  0.7531 -2.4774
   82MOL0     H11302   7.969   9.621   5.415  1.2450  0.0237  0.3167
   82MOL0     H11303   8.147   9.728   5.521 -1.7693 -1.8291 -3.0410
   82MOL0     H11304   8.303   9.828   5.921 -0.7831  0.1989  2.9914
   82MOL0     H11305   8.144   9.768   5.977 -0.8677  0.8468 -1.2805
   82MOL0     H11306   8.393   9.608   5.891 -0.0833  0.6451  0.0018
   82MOL0     H11307   8.235   9.529   5.923  1.0625 -1.4218  0.3293
   82MOL0     H11308   8.354   9.689   6.140 -3.7752  1.7722 -0.1609
   82MOL0     H11309   8.219   9.583   6.143  0.0761  0.1648  1.1784
   82MOL0     H11310   8.493   9.503   6.068  1.5259 -0.0344  0.9323
   82MOL0     H11311   8.355   9.386   6.092 -0.4521 -0.5772  1.3919
   82MOL0     H11312   8.464   9.513   6.489 -0.7121 -1.4111  0.2500
   82MOL0     H11313   7.977   9.654   5.915  2.8763  1.1071 -0.5998
   82MOL0     H11314   7.745   9.410   5.833 -3.6480  0.9192  2.1866
   82MOL0     H11315   7.767   9.542   5.947  0.1915 -0.1983  0.5958
   82MOL0     H11316   7.651   9.545   5.821 -0.2817  0.3121 -0.7482
   83MOL0     O11317  10.114   3.341   8.033  0.0563  0.0719 -0.4996
   83MOL0     C11318  10.049   3.392   7.939  0.6958 -1.6966 -0.0801
   83MOL0     O11319  10.079   3.508   7.884  0.7343 -0.0056 -0.1447
   83MOL0     C11320  10.181   3.594   7.931  0.1011 -0.1598  0.8447
   83MOL0     C11321  10.256   3.588   8.043  0.9404  0.0292 -0.2841
   83MOL0     C11322  10.350   3.695   8.075 -0.3456  0.1472  0.6888
   83MOL0     C11323  10.373   3.800   7.988  0.9112 -0.0293  0.6134
   83MOL0     O11324  10.468   3.891   8.019 -0.1425 -1.1569  0.1843
   83MOL0     C11325  10.470   4.014   7.946  0.0337  0.1988 -0.3655
   83MOL0     C11326  10.594   4.091   7.990  0.1231  0.0622 -0.6456
   83MOL0     C11327  10.725   4.019   7.951  0.5873 -0.3044 -1.0899
   83MOL0     C11328  10.854   4.095   8.003  1.1352  1.4442  0.8919
   83MOL0     C11329  10.960   3.993   8.032 -0.4839 -0.4925  0.7882
   83MOL0     C11330  11.092   4.050   7.970 -0.1305 -0.1663 -0.3618
   83MOL0     C11331  11.208   3.949   7.957  0.3812  0.0365 -0.7387
   83MOL0     C11332  11.242   3.896   8.100  0.1959 -0.1120 -0.3196
   83MOL0     N11333  11.358   3.804   8.095 -0.2674 -0.5733  0.3771
   83MOL0     C11334  11.475   3.794   8.171 -0.1123 -1.1241 -0.3684
   83MOL0     C11335  11.532   3.682   8.127 -0.8886 -0.2891  0.3736
   83MOL0     C11336  11.668   3.640   8.181 -0.4239 -0.6153 -0.6181
   83MOL0     C11337  11.782   3.710   8.113 -1.0458 -0.8128  0.6973
   83MOL0     C11338  11.910   3.643   8.141  0.0035  0.0038 -0.1623
   83MOL0     C11339  12.037   3.710   8.093  0.3064  0.3465  0.2406
   83MOL0     O11340  12.021   3.792   7.974 -0.6704 -0.2579 -0.7269
   83MOL0     C11341  12.135   3.817   7.908 -1.2070 -0.1953  0.3357
   83MOL0     C11342  12.115   3.860   7.773  0.1936 -0.1618 -0.0750
   83MOL0     C11343  12.226   3.884   7.689  0.6690 -0.0551 -1.0187
   83MOL0     C11344  12.191   3.942   7.550 -0.3985 -0.6811  0.0386
   83MOL0     C11345  12.357   3.859   7.737  0.3303  1.0472  1.1266
   83MOL0     C11346  12.476   3.883   7.656  0.4699  0.7935 -0.0854
   83MOL0     O11347  12.578   3.931   7.721  0.0428 -0.4665  0.5290
   83MOL0     C11348  12.710   3.924   7.674 -0.9441  0.1176  0.5692
   83MOL0     C11349  12.802   4.004   7.738 -0.1805  0.1464 -0.1784
   83MOL0     C11350  12.933   3.986   7.725  0.6671  0.7446 -0.3866
   83MOL0     C11351  12.990   3.897   7.626  0.0970 -0.0560 -0.1130
   83MOL0     O11352  13.120   3.888   7.583 -0.8492 -0.2093  0.3900
   83MOL0     C11353  13.219   3.933   7.675  0.7586 -0.2732 -0.0761
   83MOL0     C11354  13.358   3.928   7.605  0.2937  0.1068 -0.4784
   83MOL0     C11355  13.404   3.779   7.588  0.3591  0.7210  0.1342
   83MOL0     C11356  13.406   3.690   7.722 -0.1041  0.0564  0.3739
   83MOL0     C11357  13.513   3.722   7.820  0.3637  0.9795 -0.8065
   83MOL0     C11358  13.653   3.718   7.757 -0.4268 -0.8362  0.4446
   83MOL0     C11359  13.771   3.759   7.853  0.4954  0.1486  0.1004
   83MOL0     C11360  13.905   3.748   7.795  0.2646  0.0101 -0.4538
   83MOL0    Cl11361  14.025   3.785   7.917  0.5811 -0.1972 -0.0482
   83MOL0     C11362  12.895   3.819   7.550  0.0538 -0.0427 -0.4178
   83MOL0     C11363  12.757   3.827   7.578  0.3318  0.1047 -0.1335
   83MOL0     O11364  12.477   3.850   7.538  0.3000 -0.7395 -0.4632
   83MOL0     C11365  12.368   3.819   7.868 -0.1043  0.5877 -0.6730
   83MOL0     C11366  12.266   3.793   7.954  0.4672  0.1112  0.3682
   83MOL0     N11367  11.468   3.630   8.022 -0.2705  0.4452  0.5090
   83MOL0     N11368  11.364   3.699   8.000  0.2575 -0.2943  0.2222
   83MOL0     C11369  10.300   3.792   7.869  0.5068  0.6279 -0.3989
   83MOL0     C11370  10.211   3.689   7.840  0.0277 -0.9741 -0.0457
   83MOL0     C11371   9.929   3.326   7.890  0.9763  1.0481 -0.9426
   83MOL0     C11372   9.920   3.186   7.923 -0.1458 -0.0017 -0.3149
   83MOL0     C11373   9.812   3.098   7.900 -0.0235  0.2992 -0.8668
   83MOL0     C11374   9.712   3.135   7.812  0.7620 -0.3085  0.1550
   83MOL0     O11375   9.598   3.051   7.804 -0.9361  0.0122 -0.0817
   83MOL0     C11376   9.489   3.073   7.711  0.1272 -1.0177  0.2103
   83MOL0     C11377   9.381   3.163   7.777 -0.2679 -1.2705 -0.6194
   83MOL0     C11378   9.249   3.162   7.700 -0.6218  0.7170 -0.6096
   83MOL0     C11379   9.151   3.262   7.756  0.0799 -0.3312 -0.0118
   83MOL0     C11380   9.012   3.217   7.734  0.0495  0.0094  0.2216
   83MOL0     C11381   8.900   3.177   7.719 -0.0080  0.4502  0.4906
   83MOL0     C11382   9.718   3.271   7.759  0.6272 -0.9034  0.0765
   83MOL0     C11383   9.820   3.367   7.798  0.5800  0.4292 -0.4908
   83MOL0     C11384   9.833   3.503   7.729 -0.1873  0.6600  0.6600
   83MOL0     H11385  10.227   3.517   8.120 -2.0333 -0.8315 -2.0079
   83MOL0     H11386  10.407   3.706   8.166 -1.1476 -0.1904  1.2445
   83MOL0     H11387  10.377   4.066   7.973 -0.1473 -0.2242 -0.1638
   83MOL0     H11388  10.472   4.003   7.838  1.1058 -0.8355 -0.2612
   83MOL0     H11389  10.592   4.192   7.949 -0.8086  0.9083  1.3432
   83MOL0     H11390  10.597   4.109   8.098 -2.1381  3.5701 -1.0101
   83MOL0     H11391  10.725   3.919   7.995  2.6438  0.4123  0.7564
   83MOL0     H11392  10.725   4.004   7.842 -0.6353 -2.4593 -0.8373
   83MOL0     H11393  10.883   4.170   7.928  0.6299  0.1624 -0.6248
   83MOL0     H11394  10.835   4.140   8.101 -0.2804 -0.3817  1.5160
   83MOL0     H11395  10.934   3.894   7.991  0.0256 -0.8747  1.3687
   83MOL0     H11396  10.968   3.982   8.140 -0.8185  1.1687  1.0033
   83MOL0     H11397  11.070   4.090   7.871 -0.9029  0.2153 -0.0357
   83MOL0     H11398  11.128   4.138   8.023  0.9277  0.4003 -1.9610
   83MOL0     H11399  11.293   3.999   7.908 -0.5294  0.3000 -2.1240
   83MOL0     H11400  11.186   3.861   7.896  0.2753 -0.4574  0.0145
   83MOL0     H11401  11.263   3.973   8.175  2.6253 -0.0998 -0.9167
   83MOL0     H11402  11.156   3.844   8.142 -0.6236  1.3669 -0.0915
   83MOL0     H11403  11.503   3.864   8.248  1.4949  0.4039 -2.2192
   83MOL0     H11404  11.688   3.533   8.172  4.2258 -0.1540  1.6141
   83MOL0     H11405  11.682   3.672   8.284  1.2239  2.2658 -1.6206
   83MOL0     H11406  11.767   3.712   8.005  1.0099 -0.2727  0.3641
   83MOL0     H11407  11.780   3.812   8.153 -0.6784 -0.8924  0.9209
   83MOL0     H11408  11.914   3.649   8.250  1.0929  2.9425 -0.2756
   83MOL0     H11409  11.913   3.537   8.114 -2.7105 -1.0810  3.0379
   83MOL0     H11410  12.083   3.773   8.170  1.5172  1.1938 -1.1205
   83MOL0     H11411  12.103   3.627   8.067  1.7319  1.5792 -0.2375
   83MOL0     H11412  12.013   3.880   7.741  0.9522 -0.0206 -2.5874
   83MOL0     H11413  12.244   4.037   7.558  0.0220 -0.7684 -1.3784
   83MOL0     H11414  12.085   3.971   7.544 -0.3401 -0.7085 -1.8892
   83MOL0     H11415  12.226   3.871   7.474  2.6860  0.4360  0.2719
   83MOL0     H11416  12.756   4.067   7.814  0.3589 -2.0914  2.1460
   83MOL0     H11417  12.999   4.036   7.795  0.5554  0.0745  0.2038
   83MOL0     H11418  13.200   4.040   7.683 -0.6992 -0.5672  0.7046
   83MOL0     H11419  13.216   3.881   7.772  1.4378 -0.3852 -0.1094
   83MOL0     H11420  13.356   3.975   7.506 -0.5787 -0.4193 -0.7165
   83MOL0     H11421  13.439   3.974   7.662  0.8784 -1.1627 -0.2570
   83MOL0     H11422  13.502   3.792   7.541  0.1965 -2.1683 -1.2595
   83MOL0     H11423  13.342   3.727   7.514  3.9010 -1.7617 -1.3965
   83MOL0     H11424  13.428   3.586   7.698  1.8502 -0.2778  3.1822
   83MOL0     H11425  13.310   3.682   7.774 -0.3811 -4.0192 -0.4791
   83MOL0     H11426  13.481   3.822   7.852 -4.0855 -1.0268  1.9060
   83MOL0     H11427  13.508   3.648   7.900  0.5187  2.2354  0.4106
   83MOL0     H11428  13.661   3.793   7.678 -1.7538  0.0998  1.1604
   83MOL0     H11429  13.673   3.625   7.702 -0.6753  0.0998 -1.2946
   83MOL0     H11430  13.765   3.680   7.929 -0.0981 -0.7482 -0.8388
   83MOL0     H11431  13.768   3.861   7.891  1.5119  0.3589 -0.3518
   83MOL0     H11432  13.913   3.819   7.713  2.5222 -0.9846 -1.1735
   83MOL0     H11433  13.921   3.644   7.765 -2.2445 -0.9719  1.3015
   83MOL0     H11434  12.934   3.738   7.489  1.8159  0.9444 -0.6553
   83MOL0     H11435  12.684   3.757   7.538 -0.0012  0.8995 -0.9460
   83MOL0     H11436  12.468   3.816   7.910 -1.2570 -1.7144  2.3219
   83MOL0     H11437  12.286   3.752   8.052 -1.2311 -0.9588  0.3035
   83MOL0     H11438  10.333   3.861   7.791  2.3539 -0.2684 -0.4719
   83MOL0     H11439  10.151   3.700   7.750 -0.9019  1.0500  0.7582
   83MOL0     H11440   9.991   3.145   7.994 -1.3793 -0.6427  0.5929
   83MOL0     H11441   9.800   3.008   7.959  1.8330 -2.1811 -3.9973
   83MOL0     H11442   9.525   3.112   7.615  1.7929  0.1523  1.2572
   83MOL0     H11443   9.437   2.980   7.690  2.3763 -2.2727 -0.1254
   83MOL0     H11444   9.414   3.268   7.776 -0.0922 -1.1682  2.8696
   83MOL0     H11445   9.370   3.117   7.876  2.2600  0.8414  0.7631
   83MOL0     H11446   9.273   3.186   7.596 -0.1131 -0.5188 -0.7996
   83MOL0     H11447   9.210   3.059   7.694 -1.4950  1.1237 -2.6006
   83MOL0     H11448   9.162   3.359   7.707 -1.7500  0.0845  0.3084
   83MOL0     H11449   9.170   3.268   7.863 -0.5872  3.3272  0.0148
   83MOL0     H11450   8.807   3.123   7.724 -0.0019  0.5399  2.3926
   83MOL0     H11451   9.647   3.305   7.684 -1.1814 -1.8890  1.2484
   83MOL0     H11452   9.828   3.583   7.804  0.3430  1.4722 -0.1444
   83MOL0     H11453   9.925   3.520   7.673 -0.7650  1.5624 -0.0566
   83MOL0     H11454   9.743   3.516   7.667 -0.1083 -1.1055  0.1162
   84MOL0     O11455   8.026   3.386   4.989 -0.5372  0.6632  0.0215
   84MOL0     C11456   8.033   3.390   5.113  0.0716 -0.0377  0.4245
   84MOL0     O11457   8.136   3.349   5.188 -0.1546 -0.4338  0.5795
   84MOL0     C11458   8.260   3.324   5.142  0.2102 -1.2110  0.6011
   84MOL0     C11459   8.353   3.423   5.098 -0.1050 -0.0702 -0.7940
   84MOL0     C11460   8.470   3.385   5.034 -0.7782  0.0506  1.0095
   84MOL0     C11461   8.511   3.250   5.023 -0.0617 -0.1850 -0.0023
   84MOL0     O11462   8.638   3.216   4.966 -0.0553 -0.3605  0.2816
   84MOL0     C11463   8.669   3.080   4.940 -0.2577  0.0540 -0.3250
   84MOL0     C11464   8.796   3.059   4.891 -0.7631 -0.5932  0.7149
   84MOL0     C11465   8.917   3.110   4.965 -0.1328 -0.0467 -0.1134
   84MOL0     C11466   9.044   3.061   4.893  0.3854  0.0338 -0.3416
   84MOL0     C11467   9.171   3.091   4.980  0.1074  0.3037 -0.9142
   84MOL0     C11468   9.298   3.032   4.915 -0.3046 -0.0130 -0.3719
   84MOL0     C11469   9.431   3.043   4.994  1.0141  0.1823 -0.0928
   84MOL0     C11470   9.557   3.044   4.913  0.2648 -0.0972  0.4591
   84MOL0     N11471   9.680   3.037   4.992 -0.3614 -0.0570 -0.0840
   84MOL0     C11472   9.725   3.147   5.065 -0.0778 -0.1409 -0.6784
   84MOL0     C11473   9.852   3.111   5.094 -0.2967 -0.7323 -0.6058
   84MOL0     C11474   9.952   3.190   5.167 -0.3756 -0.3288  0.5248
   84MOL0     C11475  10.093   3.158   5.117 -0.0387  0.4717 -0.5419
   84MOL0     C11476  10.185   3.264   5.176 -0.2965 -0.8999 -0.5706
   84MOL0     C11477  10.326   3.229   5.195  0.7302  0.1569 -0.1178
   84MOL0     O11478  10.364   3.169   5.076 -0.3769  0.8310  0.7112
   84MOL0     C11479  10.502   3.128   5.060  0.8387  0.2082 -0.2291
   84MOL0     C11480  10.543   3.073   4.943  0.2539  0.8185 -0.6188
   84MOL0     C11481  10.672   3.038   4.924 -0.9662 -0.7360  0.5975
   84MOL0     C11482  10.699   2.982   4.784  0.2552 -0.4609  0.5231
   84MOL0     C11483  10.771   3.062   5.021  0.7195 -0.7528 -0.2794
   84MOL0     C11484  10.921   3.023   5.005 -0.8048 -0.3687 -0.6849
   84MOL0     O11485  10.965   2.979   4.884 -0.2659  0.7666  0.1001
   84MOL0     C11486  11.090   2.923   4.871  0.2990  0.1450 -0.4743
   84MOL0     C11487  11.096   2.791   4.830  0.0506 -0.3821  0.3493
   84MOL0     C11488  11.221   2.725   4.816 -0.0971 -0.2344 -0.6295
   84MOL0     C11489  11.342   2.792   4.848 -0.0594  0.5604 -0.8372
   84MOL0     O11490  11.464   2.737   4.819 -0.1808  0.6059  0.2093
   84MOL0     C11491  11.507   2.617   4.884 -0.6723  0.1759  0.7153
   84MOL0     C11492  11.641   2.580   4.831 -0.4938 -0.4846  0.0202
   84MOL0     C11493  11.753   2.635   4.916  0.1630 -0.1291 -0.4519
   84MOL0     C11494  11.885   2.612   4.848  0.0432 -0.7320 -0.8125
   84MOL0     C11495  11.918   2.464   4.860 -0.7708  0.2088 -0.4965
   84MOL0     C11496  12.043   2.419   4.789 -0.1212  0.0364 -1.1005
   84MOL0     C11497  12.014   2.408   4.643 -0.4467  0.2483 -0.3913
   84MOL0     C11498  12.135   2.374   4.555  0.1270 -0.3414 -0.4325
   84MOL0    Cl11499  12.262   2.502   4.566  0.3770  0.2979 -0.0018
   84MOL0     C11500  11.332   2.927   4.880 -0.4265 -0.2896  0.4058
   84MOL0     C11501  11.209   2.997   4.892  0.3401  0.4164  0.6974
   84MOL0     O11502  10.988   3.031   5.107  0.3780  0.4056 -0.6353
   84MOL0     C11503  10.727   3.119   5.142 -0.4907  0.0987 -0.4711
   84MOL0     C11504  10.600   3.157   5.159 -0.0395 -0.0560  0.2064
   84MOL0     N11505   9.883   2.992   5.025 -0.5421 -0.7645  0.5298
   84MOL0     N11506   9.782   2.946   4.973  1.2462  0.6218  0.4801
   84MOL0     C11507   8.416   3.146   5.069 -0.2680 -0.7446 -0.8569
   84MOL0     C11508   8.292   3.191   5.123 -0.1777  0.5533  0.2509
   84MOL0     C11509   7.917   3.440   5.184 -0.6435  0.2563 -1.0802
   84MOL0     C11510   7.942   3.478   5.315 -0.6378  0.0861 -0.0618
   84MOL0     C11511   7.844   3.525   5.385 -0.0619 -0.4316 -0.6308
   84MOL0     C11512   7.714   3.543   5.343  0.5711 -0.5349  0.2795
   84MOL0     O11513   7.628   3.605   5.427  0.0598 -0.4327 -0.2831
   84MOL0     C11514   7.501   3.662   5.383  0.0507  0.1956  0.6025
   84MOL0     C11515   7.525   3.771   5.276  0.2111 -0.8956 -0.1606
   84MOL0     C11516   7.392   3.836   5.242  0.2239 -0.5635  0.3858
   84MOL0     C11517   7.407   3.930   5.121  0.4961  0.9751 -0.4599
   84MOL0     C11518   7.275   3.987   5.083 -0.8710 -0.9475  0.7211
   84MOL0     C11519   7.170   4.039   5.049  0.0728 -0.4540 -0.1106
   84MOL0     C11520   7.685   3.494   5.208 -0.4411 -0.4687  0.3596
   84MOL0     C11521   7.785   3.442   5.133  0.4251  0.4436  0.0923
   84MOL0     C11522   7.747   3.370   5.005 -0.3883  0.0468  0.8234
   84MOL0     H11523   8.334   3.528   5.119 -3.1439 -0.4217 -1.2982
   84MOL0     H11524   8.543   3.455   4.994 -3.8582  0.5329 -5.0401
   84MOL0     H11525   8.587   3.050   4.875 -1.0677 -0.6362  0.9760
   84MOL0     H11526   8.667   3.025   5.035  3.8049  1.5360  0.8492
   84MOL0     H11527   8.809   2.951   4.891  3.4667 -0.2996 -1.1719
   84MOL0     H11528   8.793   3.100   4.790  1.4715  0.2780  0.9278
   84MOL0     H11529   8.907   3.219   4.958 -0.7901 -0.2037 -2.7135
   84MOL0     H11530   8.918   3.079   5.070  2.5158 -2.4453 -0.7351
   84MOL0     H11531   9.042   2.952   4.880 -1.3224  0.1079 -0.8467
   84MOL0     H11532   9.053   3.108   4.795  0.3028  1.4623  0.3140
   84MOL0     H11533   9.167   3.044   5.079 -2.2192  2.0134 -0.1018
   84MOL0     H11534   9.179   3.200   4.989 -0.8599  0.2131  2.2356
   84MOL0     H11535   9.284   2.923   4.907  0.3759 -0.0818 -0.7504
   84MOL0     H11536   9.309   3.068   4.813  0.5582 -1.3967 -0.8004
   84MOL0     H11537   9.438   2.957   5.061  0.5816  1.5793  1.8468
   84MOL0     H11538   9.419   3.130   5.060 -0.8169  0.2712 -0.4780
   84MOL0     H11539   9.554   2.958   4.846 -2.7712 -0.2404  0.6361
   84MOL0     H11540   9.555   3.134   4.851  1.2521 -0.4830 -0.1599
   84MOL0     H11541   9.669   3.230   5.104  0.0913 -0.8897  1.2427
   84MOL0     H11542   9.953   3.172   5.275  2.9818 -2.1927  0.2926
   84MOL0     H11543   9.926   3.295   5.150  0.9736 -0.2253 -1.1489
   84MOL0     H11544  10.134   3.067   5.161  0.5215  0.6869 -0.6174
   84MOL0     H11545  10.095   3.154   5.007  0.0970  0.4022 -0.5369
   84MOL0     H11546  10.180   3.359   5.122  0.1222  0.9887  2.4392
   84MOL0     H11547  10.147   3.290   5.275  2.8829  0.5198  0.4152
   84MOL0     H11548  10.381   3.316   5.232 -0.3082  1.0059 -0.5391
   84MOL0     H11549  10.327   3.147   5.268  1.4788 -0.2585 -0.5804
   84MOL0     H11550  10.467   3.060   4.866 -2.3099  0.1149  1.8602
   84MOL0     H11551  10.606   2.944   4.740  0.4571  0.8353 -1.0942
   84MOL0     H11552  10.767   2.897   4.795 -1.4422 -1.7514  1.4762
   84MOL0     H11553  10.738   3.056   4.714  1.6559  0.8791  2.5791
   84MOL0     H11554  11.003   2.737   4.813  0.8773 -1.2763 -1.7454
   84MOL0     H11555  11.225   2.625   4.776  1.3816 -0.7704  0.7704
   84MOL0     H11556  11.520   2.635   4.991  1.5501 -1.3134  0.7522
   84MOL0     H11557  11.435   2.535   4.870 -0.2281 -0.2757  1.0384
   84MOL0     H11558  11.648   2.471   4.821  1.8236 -0.2301 -2.3181
   84MOL0     H11559  11.650   2.631   4.734  0.5481 -0.6409  0.0239
   84MOL0     H11560  11.746   2.587   5.014 -1.9473 -0.5792 -0.7829
   84MOL0     H11561  11.735   2.742   4.927 -1.8122 -0.5178  0.4810
   84MOL0     H11562  11.959   2.671   4.903 -3.6435  0.6928  3.2369
   84MOL0     H11563  11.891   2.633   4.741  0.6215  2.6960 -0.2248
   84MOL0     H11564  11.937   2.428   4.962  0.7809 -1.5569 -1.3465
   84MOL0     H11565  11.833   2.408   4.822  0.3388  0.9847 -4.5698
   84MOL0     H11566  12.068   2.319   4.827 -1.1979  0.2138  0.1284
   84MOL0     H11567  12.126   2.486   4.815 -0.5677 -0.2100  1.1845
   84MOL0     H11568  11.985   2.502   4.595  2.4085  1.8333  0.7886
   84MOL0     H11569  11.937   2.332   4.624 -1.9221  0.7219  3.0386
   84MOL0     H11570  12.092   2.376   4.455 -1.3165 -0.1558  0.1612
   84MOL0     H11571  12.166   2.273   4.583  2.2468  0.5942  0.9093
   84MOL0     H11572  11.422   2.984   4.900  0.7652 -2.0998  0.4973
   84MOL0     H11573  11.210   3.103   4.914  0.1069  0.4008  0.7906
   84MOL0     H11574  10.793   3.140   5.225 -1.2821  0.0068  0.1961
   84MOL0     H11575  10.562   3.210   5.246  0.4012 -1.1546  1.0872
   84MOL0     H11576   8.438   3.040   5.064 -0.9628 -0.8989 -0.8477
   84MOL0     H11577   8.219   3.120   5.162  0.0040  1.0039  1.4775
   84MOL0     H11578   8.042   3.461   5.354 -0.6967 -1.0808 -0.3656
   84MOL0     H11579   7.873   3.546   5.487  1.7626 -1.8529 -0.8059
   84MOL0     H11580   7.440   3.587   5.333 -0.2757  0.5814  0.4185
   84MOL0     H11581   7.450   3.706   5.469 -0.3342  0.8393  0.0573
   84MOL0     H11582   7.557   3.734   5.178 -2.1597 -0.8128 -1.0272
   84MOL0     H11583   7.596   3.845   5.313 -0.3866 -1.9043  3.3178
   84MOL0     H11584   7.309   3.768   5.219  0.5065 -0.6295 -0.4784
   84MOL0     H11585   7.354   3.892   5.328 -1.3496  0.0112 -0.6314
   84MOL0     H11586   7.449   3.867   5.043  0.1098  1.1578 -0.8178
   84MOL0     H11587   7.482   4.008   5.138  0.5040  1.0700 -0.9328
   84MOL0     H11588   7.075   4.084   5.030  0.9235  1.1828 -0.7182
   84MOL0     H11589   7.587   3.489   5.162 -0.0974  0.1049 -0.4544
   84MOL0     H11590   7.776   3.433   4.921  3.1998 -1.3856  0.8235
   84MOL0     H11591   7.799   3.275   5.010  3.2293  1.9247  2.9526
   84MOL0     H11592   7.638   3.356   5.011 -0.2468 -0.9734  1.0586
   85MOL0     O11593   8.450   1.992   6.422 -0.4161 -0.0070 -0.3110
   85MOL0     C11594   8.437   1.972   6.302 -0.4076  0.7968 -0.6900
   85MOL0     O11595   8.546   1.953   6.216 -0.3502 -0.5942  0.0495
   85MOL0     C11596   8.673   1.942   6.276 -0.2370 -0.4534  0.2858
   85MOL0     C11597   8.753   2.055   6.302  0.3016  0.2333 -0.3369
   85MOL0     C11598   8.875   2.044   6.365  0.1347 -0.8636 -0.3418
   85MOL0     C11599   8.926   1.920   6.405  0.4864 -0.2451 -0.2149
   85MOL0     O11600   9.052   1.902   6.450 -0.2834 -0.0747 -0.1403
   85MOL0     C11601   9.097   1.994   6.555 -0.4469 -0.2051 -0.7221
   85MOL0     C11602   9.190   1.920   6.652 -0.3568 -0.5769 -0.3649
   85MOL0     C11603   9.239   2.003   6.780  0.1337 -0.1245 -0.1187
   85MOL0     C11604   9.309   1.912   6.890 -0.3694 -0.1338 -0.6557
   85MOL0     C11605   9.460   1.893   6.874  0.0444  0.9845  0.3321
   85MOL0     C11606   9.538   2.011   6.915  0.0939 -0.1973 -0.0005
   85MOL0     C11607   9.690   1.991   6.911 -0.0962 -0.8176 -0.1699
   85MOL0     C11608   9.732   2.035   6.774  0.5212  0.1508 -0.1542
   85MOL0     N11609   9.874   2.042   6.763 -0.1208 -0.4886 -0.4338
   85MOL0     C11610   9.956   2.137   6.820  1.2357 -0.6802  0.0624
   85MOL0     C11611  10.081   2.103   6.773  0.1760 -0.3126 -0.2175
   85MOL0     C11612  10.192   2.191   6.822  0.8255  0.4252 -0.0662
   85MOL0     C11613  10.330   2.168   6.762 -0.1397  0.5876 -0.1953
   85MOL0     C11614  10.400   2.041   6.806 -0.2347 -0.2952 -0.1756
   85MOL0     C11615  10.547   2.018   6.771 -0.2490 -0.2970 -0.1732
   85MOL0     O11616  10.609   2.145   6.742 -0.8900  0.9211  0.0548
   85MOL0     C11617  10.745   2.137   6.737 -0.3613 -0.5768 -0.4319
   85MOL0     C11618  10.821   2.234   6.803 -0.6891 -0.2383 -0.6184
   85MOL0     C11619  10.959   2.249   6.778  0.1355  0.3989  0.7504
   85MOL0     C11620  11.029   2.369   6.850  0.4520 -0.1142  1.0822
   85MOL0     C11621  11.027   2.150   6.707  0.4427  0.0373 -0.5681
   85MOL0     C11622  11.173   2.134   6.714 -0.7940  0.3578  0.6180
   85MOL0     O11623  11.216   2.010   6.668 -0.1875  0.0872  0.3616
   85MOL0     C11624  11.348   1.966   6.678  0.1683  0.3411 -0.1413
   85MOL0     C11625  11.441   2.007   6.581  0.2708  0.6996 -0.1570
   85MOL0     C11626  11.562   1.948   6.578  0.1826  0.1901 -0.2019
   85MOL0     C11627  11.606   1.874   6.686 -0.3786  0.0368  0.3937
   85MOL0     O11628  11.727   1.814   6.692 -0.2758  0.1483  0.1230
   85MOL0     C11629  11.827   1.845   6.599  0.1428 -0.2962  0.8921
   85MOL0     C11630  11.950   1.779   6.643 -0.1707  0.3938 -0.9476
   85MOL0     C11631  12.077   1.813   6.561 -0.7317 -0.2543 -0.1418
   85MOL0     C11632  12.187   1.700   6.568  0.5416  0.2283 -0.4596
   85MOL0     C11633  12.288   1.708   6.452  0.6085 -0.0626  1.0487
   85MOL0     C11634  12.366   1.578   6.437 -0.7982  0.4841  0.2640
   85MOL0     C11635  12.482   1.596   6.338  0.4051 -0.4526  1.0513
   85MOL0     C11636  12.586   1.482   6.340  0.5036 -0.1116 -0.6515
   85MOL0    Cl11637  12.518   1.309   6.313  0.5471  0.1327  0.2584
   85MOL0     C11638  11.527   1.852   6.794  0.1198  0.2748 -0.2596
   85MOL0     C11639  11.395   1.896   6.791 -0.2645 -0.2402 -0.2789
   85MOL0     O11640  11.252   2.220   6.752 -0.4019 -0.4559 -0.0825
   85MOL0     C11641  10.953   2.054   6.637  0.5540  0.4328  0.4382
   85MOL0     C11642  10.815   2.050   6.651  0.3941  0.0981  0.0989
   85MOL0     N11643  10.078   1.986   6.710 -1.3862 -0.0088  0.2719
   85MOL0     N11644   9.953   1.958   6.704 -0.4330 -0.0846  0.4006
   85MOL0     C11645   8.849   1.808   6.391  0.2067 -0.4381  0.1080
   85MOL0     C11646   8.717   1.815   6.331  0.0167 -0.0499  0.1736
   85MOL0     C11647   8.298   1.984   6.243 -0.2552  0.4955 -0.1272
   85MOL0     C11648   8.291   1.979   6.105 -0.0672  0.3805 -0.5886
   85MOL0     C11649   8.178   1.978   6.037 -0.9341  0.4287  0.0927
   85MOL0     C11650   8.063   1.966   6.098  0.0879 -0.5155  0.4062
   85MOL0     O11651   7.951   1.951   6.024  0.0722 -0.5184  0.5588
   85MOL0     C11652   7.845   2.040   6.059  0.0133 -0.1136  0.5061
   85MOL0     C11653   7.758   2.056   5.937  0.0315  0.6046  0.2533
   85MOL0     C11654   7.629   1.972   5.945  0.0377 -1.0105  0.2551
   85MOL0     C11655   7.518   2.049   6.021  0.0088  0.6245  0.0002
   85MOL0     C11656   7.543   2.081   6.161 -0.5730 -0.0338 -0.5849
   85MOL0     C11657   7.561   2.106   6.280 -0.9453 -0.4499  0.4595
   85MOL0     C11658   8.062   1.950   6.236 -0.7432  0.2794 -0.4978
   85MOL0     C11659   8.180   1.966   6.314 -0.7069 -0.4135 -0.1845
   85MOL0     C11660   8.167   1.941   6.465 -0.3751 -0.2954 -0.6008
   85MOL0     H11661   8.706   2.148   6.271  1.4324  1.6214  1.8227
   85MOL0     H11662   8.931   2.137   6.374 -1.0248 -0.1516 -0.3754
   85MOL0     H11663   9.019   2.033   6.621 -0.2238  0.1938 -0.6953
   85MOL0     H11664   9.150   2.080   6.514  0.7535 -0.0168  1.1219
   85MOL0     H11665   9.130   1.838   6.694 -1.0668  0.2539  0.2726
   85MOL0     H11666   9.273   1.874   6.597  0.5021 -0.1874  0.5802
   85MOL0     H11667   9.304   2.082   6.741 -0.3974  0.9534  1.0947
   85MOL0     H11668   9.155   2.043   6.836  0.8919  2.1352 -0.4885
   85MOL0     H11669   9.287   1.951   6.990 -1.6175 -0.6117 -0.7309
   85MOL0     H11670   9.264   1.813   6.892 -4.3660  1.4030  3.4533
   85MOL0     H11671   9.495   1.864   6.775  1.2383  0.7377  0.8058
   85MOL0     H11672   9.492   1.809   6.935 -1.9237  1.1512  1.6989
   85MOL0     H11673   9.505   2.098   6.857 -0.5826  0.6595  1.5976
   85MOL0     H11674   9.518   2.029   7.021 -1.2828  1.8658 -0.5651
   85MOL0     H11675   9.718   1.885   6.902  0.3780 -0.5433 -2.3744
   85MOL0     H11676   9.743   2.033   6.997  2.6445  0.9122 -2.5213
   85MOL0     H11677   9.690   1.969   6.697  1.0650  1.4332 -1.6129
   85MOL0     H11678   9.691   2.132   6.745  0.1848  0.5038  1.4409
   85MOL0     H11679   9.925   2.216   6.886 -0.8635  0.9865 -2.7057
   85MOL0     H11680  10.200   2.175   6.930  2.1571  1.3854 -0.0067
   85MOL0     H11681  10.165   2.296   6.805  1.6297  0.8255  1.0135
   85MOL0     H11682  10.318   2.172   6.653 -0.2036 -2.7218 -0.4000
   85MOL0     H11683  10.392   2.251   6.797 -0.8369 -0.1060  2.9787
   85MOL0     H11684  10.385   2.036   6.914  2.8761 -0.3655  0.3226
   85MOL0     H11685  10.345   1.959   6.758 -0.9537  0.4000 -0.5676
   85MOL0     H11686  10.608   1.972   6.849  0.7683 -3.4093 -2.6205
   85MOL0     H11687  10.562   1.957   6.681 -0.2704 -0.2896 -0.1816
   85MOL0     H11688  10.768   2.299   6.873  0.8740  0.9594 -0.5042
   85MOL0     H11689  11.094   2.410   6.772 -0.3438 -0.9790 -0.0669
   85MOL0     H11690  11.097   2.330   6.926 -0.1006 -2.9167  0.2704
   85MOL0     H11691  10.963   2.450   6.881  1.9734  1.9076 -0.6765
   85MOL0     H11692  11.402   2.073   6.504  1.3299 -1.0865 -2.3279
   85MOL0     H11693  11.625   1.965   6.491  1.5798 -1.6239  0.4010
   85MOL0     H11694  11.803   1.822   6.495 -1.6785  1.7164  0.7760
   85MOL0     H11695  11.846   1.953   6.600  2.5035 -0.6433 -0.5186
   85MOL0     H11696  11.966   1.795   6.750  5.3747 -2.3788 -1.0059
   85MOL0     H11697  11.937   1.672   6.628  3.8322 -0.5738  1.0863
   85MOL0     H11698  12.124   1.906   6.593 -0.7126  0.3068 -1.6917
   85MOL0     H11699  12.046   1.821   6.456 -0.4969 -1.0789 -0.2792
   85MOL0     H11700  12.129   1.608   6.562  0.8529  0.0343 -0.4788
   85MOL0     H11701  12.238   1.709   6.664  0.6739 -2.1340 -0.2596
   85MOL0     H11702  12.241   1.730   6.356  1.0293  0.1160  0.8793
   85MOL0     H11703  12.360   1.787   6.477  0.7719 -0.2486  1.1666
   85MOL0     H11704  12.292   1.503   6.409 -0.9167  0.3628  0.8960
   85MOL0     H11705  12.416   1.551   6.531 -1.0895 -0.1053  0.2514
   85MOL0     H11706  12.531   1.692   6.356 -0.5519  0.1528  0.4800
   85MOL0     H11707  12.436   1.596   6.239  0.1537 -1.1940  1.1646
   85MOL0     H11708  12.638   1.489   6.437 -1.6727  1.8327  0.4629
   85MOL0     H11709  12.647   1.492   6.249 -1.2337 -1.8951 -2.0884
   85MOL0     H11710  11.564   1.794   6.878 -1.8795  0.1229  0.5713
   85MOL0     H11711  11.329   1.862   6.870 -2.6183 -1.0363 -2.4431
   85MOL0     H11712  10.999   1.994   6.558 -0.6230  1.2375 -0.9021
   85MOL0     H11713  10.761   1.968   6.605  2.6185 -2.4094  1.6137
   85MOL0     H11714   8.879   1.710   6.425 -0.7883 -0.3720  1.2187
   85MOL0     H11715   8.654   1.727   6.321  0.3746 -0.4302  1.1299
   85MOL0     H11716   8.390   1.975   6.060  0.6251 -1.9598  0.9797
   85MOL0     H11717   8.185   1.971   5.929  3.5190 -1.7985  0.2751
   85MOL0     H11718   7.792   2.003   6.147 -1.5275 -2.5818 -1.3370
   85MOL0     H11719   7.890   2.136   6.088  0.4845 -0.0843 -0.3043
   85MOL0     H11720   7.814   2.026   5.848  0.0027 -0.9335  0.7244
   85MOL0     H11721   7.729   2.161   5.933 -1.8988  0.0770 -1.5590
   85MOL0     H11722   7.600   1.951   5.841  2.8544  3.3496 -1.7032
   85MOL0     H11723   7.645   1.874   5.991 -0.3561 -1.5229 -0.6724
   85MOL0     H11724   7.423   1.997   6.005  1.0539 -0.9187 -1.5761
   85MOL0     H11725   7.505   2.140   5.962 -0.9638 -0.9567 -2.3797
   85MOL0     H11726   7.574   2.143   6.379  0.0152 -0.1673  0.2397
   85MOL0     H11727   7.966   1.921   6.278 -0.1131 -0.6834  0.3397
   85MOL0     H11728   8.066   1.912   6.493 -1.3124  2.1693 -1.1758
   85MOL0     H11729   8.232   1.861   6.502 -0.0363 -0.1239 -0.8153
   85MOL0     H11730   8.191   2.030   6.524 -1.5765  0.8446 -1.7788
   86MOL0     O11731   4.939   7.085  10.916 -0.5459  0.1938 -0.2388
   86MOL0     C11732   4.886   7.051  10.809  0.1100 -0.3081  0.4381
   86MOL0     O11733   4.950   7.060  10.686 -0.0567 -0.0783  0.2710
   86MOL0     C11734   5.084   7.090  10.679  0.3128  0.0886  0.7562
   86MOL0     C11735   5.168   6.992  10.640  0.1167 -0.1629  0.5542
   86MOL0     C11736   5.302   7.022  10.632 -1.2803 -0.5052  0.2704
   86MOL0     C11737   5.360   7.145  10.664  0.0647  0.6008  0.0991
   86MOL0     O11738   5.493   7.163  10.650 -0.1476 -0.0821 -0.1215
   86MOL0     C11739   5.544   7.291  10.596  0.1872  0.4073 -0.0494
   86MOL0     C11740   5.676   7.252  10.535 -0.1829 -0.1458  0.5330
   86MOL0     C11741   5.773   7.185  10.633 -0.4593 -0.3481 -0.5316
   86MOL0     C11742   5.905   7.169  10.557 -0.5403 -0.1178  0.4164
   86MOL0     C11743   6.033   7.157  10.647  0.0890 -0.0670 -0.4047
   86MOL0     C11744   6.159   7.090  10.582 -0.0509 -0.5374 -0.4050
   86MOL0     C11745   6.249   7.191  10.530  0.2717 -0.3194 -0.1408
   86MOL0     C11746   6.373   7.126  10.475  0.1761 -0.6186 -0.3640
   86MOL0     N11747   6.484   7.107  10.569 -1.1866  0.0195  0.3119
   86MOL0     C11748   6.616   7.128  10.534  0.0919  0.8532 -0.5114
   86MOL0     C11749   6.685   7.102  10.645  0.2357 -0.8490 -0.5192
   86MOL0     C11750   6.832   7.085  10.641 -0.0377  1.0049 -0.3393
   86MOL0     C11751   6.876   6.943  10.702 -0.0141  0.3250  0.8708
   86MOL0     C11752   7.018   6.894  10.667  0.2691 -0.3643  0.3005
   86MOL0     C11753   7.123   7.009  10.680  1.0151 -0.5034  0.9751
   86MOL0     O11754   7.247   6.953  10.667 -0.1307 -0.5039  1.3384
   86MOL0     C11755   7.361   7.036  10.677 -0.3391 -0.2297 -0.2715
   86MOL0     C11756   7.354   7.171  10.664  0.3226 -0.0219  1.4701
   86MOL0     C11757   7.464   7.255  10.682 -0.0379 -0.5424 -0.3080
   86MOL0     C11758   7.437   7.405  10.678  0.2654 -0.2428  0.5514
   86MOL0     C11759   7.593   7.198  10.704 -0.3494 -0.3016 -0.2285
   86MOL0     C11760   7.714   7.278  10.726 -0.0044 -0.2851 -0.0903
   86MOL0     O11761   7.813   7.221  10.810 -0.1888  0.0123  0.2348
   86MOL0     C11762   7.935   7.293  10.818  0.3291 -0.1125 -0.1473
   86MOL0     C11763   8.043   7.255  10.744  0.2880 -0.6938 -0.2124
   86MOL0     C11764   8.148   7.345  10.747 -0.0049  0.8175  0.1677
   86MOL0     C11765   8.167   7.456  10.827  0.2579  0.4269  0.0660
   86MOL0     O11766   8.283   7.531  10.833 -0.3073  0.1572  0.0194
   86MOL0     C11767   8.407   7.476  10.764 -0.6242 -0.2848 -0.0772
   86MOL0     C11768   8.525   7.574  10.775  0.0048 -0.5769  0.4614
   86MOL0     C11769   8.520   7.723  10.720  0.3863  0.5171  0.0123
   86MOL0     C11770   8.643   7.800  10.769 -0.2872 -0.3510  0.8499
   86MOL0     C11771   8.640   7.944  10.720 -0.5836 -0.3541 -0.1494
   86MOL0     C11772   8.778   8.027  10.728  0.5055  0.5222  0.3327
   86MOL0     C11773   8.861   8.021  10.858  0.0137 -0.8206  0.5504
   86MOL0     C11774   9.007   8.060  10.854 -0.4255 -0.2111  0.6370
   86MOL0    Cl11775   9.084   7.947  10.740 -0.4491  0.3061 -0.5442
   86MOL0     C11776   8.057   7.498  10.902 -0.5101  0.3298 -0.2527
   86MOL0     C11777   7.946   7.412  10.900 -0.1188 -0.4153 -0.5677
   86MOL0     O11778   7.727   7.389  10.669  0.8122 -0.4236 -0.5198
   86MOL0     C11779   7.603   7.053  10.729  0.3844 -0.5861 -0.4269
   86MOL0     C11780   7.490   6.974  10.701 -0.2462  0.2671  0.4621
   86MOL0     N11781   6.596   7.099  10.754 -0.7147 -0.1787  0.6889
   86MOL0     N11782   6.478   7.115  10.706  0.0513 -0.5549  0.5271
   86MOL0     C11783   5.271   7.245  10.721 -0.4296 -0.1828  0.7356
   86MOL0     C11784   5.130   7.214  10.724 -1.1959 -0.7856  0.2842
   86MOL0     C11785   4.752   6.996  10.799 -0.2723 -0.3680 -0.0316
   86MOL0     C11786   4.720   6.915  10.688 -0.6124  0.3204 -0.0517
   86MOL0     C11787   4.600   6.849  10.690  0.4398 -0.0172  0.5441
   86MOL0     C11788   4.496   6.866  10.778  0.3588 -0.4948 -0.6193
   86MOL0     O11789   4.368   6.817  10.776 -0.2506 -0.2610  0.0165
   86MOL0     C11790   4.322   6.769  10.643 -0.0644  0.1936 -0.4911
   86MOL0     C11791   4.187   6.717  10.662  0.3003 -0.0866 -0.4038
   86MOL0     C11792   4.091   6.821  10.724  0.1357  0.3037 -0.4646
   86MOL0     C11793   3.949   6.772  10.749 -0.9055 -0.8855 -0.0205
   86MOL0     C11794   3.906   6.632  10.732  1.2279  0.1347 -0.8986
   86MOL0     C11795   3.873   6.516  10.728 -0.9631  0.6316 -0.0800
   86MOL0     C11796   4.526   6.946  10.888  0.1526 -0.8186  0.3667
   86MOL0     C11797   4.652   7.010  10.897  0.4397 -0.3354  0.2321
   86MOL0     C11798   4.674   7.092  11.022 -0.3207  0.3679 -0.1761
   86MOL0     H11799   5.124   6.898  10.606 -2.3161  1.0025  0.2744
   86MOL0     H11800   5.366   6.944  10.591 -0.7516  0.7126 -1.3181
   86MOL0     H11801   5.553   7.363  10.677 -1.1401  0.9682 -0.3649
   86MOL0     H11802   5.483   7.324  10.511  1.2871 -1.0323 -1.4686
   86MOL0     H11803   5.659   7.183  10.451  2.1156  0.4093 -0.4855
   86MOL0     H11804   5.716   7.344  10.490 -4.9558  1.8629 -0.2538
   86MOL0     H11805   5.796   7.253  10.715  2.9678  0.1276 -1.7205
   86MOL0     H11806   5.733   7.089  10.666 -0.5158 -0.3317 -0.5512
   86MOL0     H11807   5.900   7.074  10.503 -1.6192 -0.0736  0.4123
   86MOL0     H11808   5.937   7.253  10.494 -1.1756 -0.9174 -1.0339
   86MOL0     H11809   5.998   7.097  10.732 -1.8711 -2.7478 -2.8877
   86MOL0     H11810   6.057   7.260  10.675 -0.6709 -0.6990  3.1125
   86MOL0     H11811   6.212   7.041  10.664 -1.7017  0.3044  1.2470
   86MOL0     H11812   6.128   7.020  10.504  1.3910 -2.2892  0.5051
   86MOL0     H11813   6.279   7.266  10.604 -1.8157  0.2528  0.1970
   86MOL0     H11814   6.197   7.250  10.453 -0.8796  2.6458  2.6604
   86MOL0     H11815   6.340   7.029  10.437 -0.9529  0.1113 -1.3568
   86MOL0     H11816   6.392   7.187  10.386  1.9422 -2.2838 -1.2127
   86MOL0     H11817   6.667   7.129  10.438  1.8991 -2.9127  0.2096
   86MOL0     H11818   6.874   7.167  10.699 -2.7336  0.7834  2.1359
   86MOL0     H11819   6.864   7.084  10.536  0.1041 -2.2686 -0.3802
   86MOL0     H11820   6.876   6.955  10.811  1.0882 -0.9925  1.0527
   86MOL0     H11821   6.806   6.864  10.671 -0.1024 -0.1884  2.2963
   86MOL0     H11822   7.043   6.814  10.737 -0.9276  0.7692  2.1191
   86MOL0     H11823   7.018   6.854  10.565 -0.6511  1.0920 -0.3117
   86MOL0     H11824   7.115   7.086  10.603  1.9006 -0.9060  0.4617
   86MOL0     H11825   7.117   7.052  10.781  3.6890  0.4793  0.7921
   86MOL0     H11826   7.261   7.226  10.667  0.4001  0.5945 -2.3104
   86MOL0     H11827   7.461   7.448  10.580 -0.0192  1.5535  1.2529
   86MOL0     H11828   7.493   7.462  10.752 -0.8905 -1.9450  2.8729
   86MOL0     H11829   7.332   7.434  10.690  1.1406  2.9792  1.2705
   86MOL0     H11830   8.039   7.163  10.686 -0.9889 -2.2972  2.2408
   86MOL0     H11831   8.238   7.319  10.693  0.5751  0.5762  1.2454
   86MOL0     H11832   8.436   7.386  10.819  0.7593  0.4743  0.4612
   86MOL0     H11833   8.395   7.448  10.659 -0.7255  0.1667 -0.1883
   86MOL0     H11834   8.549   7.583  10.881 -0.5032  3.4688  0.3805
   86MOL0     H11835   8.603   7.522  10.719 -2.1359 -2.1477 -1.2463
   86MOL0     H11836   8.429   7.777  10.748  0.7248  1.8100 -1.2705
   86MOL0     H11837   8.509   7.726  10.611  0.4488  4.5069 -0.0270
   86MOL0     H11838   8.732   7.753  10.726 -1.2950  1.2081 -3.3907
   86MOL0     H11839   8.654   7.793  10.878 -0.4219 -1.1869  0.8201
   86MOL0     H11840   8.605   7.948  10.617 -3.4951  0.5384  0.7818
   86MOL0     H11841   8.576   7.998  10.791  0.4342  0.5880  0.0908
   86MOL0     H11842   8.751   8.132  10.724 -0.2589  0.3101 -0.2788
   86MOL0     H11843   8.849   7.993  10.652 -1.4714  3.0099 -2.8404
   86MOL0     H11844   8.850   7.922  10.905 -0.0771  0.5465  3.6594
   86MOL0     H11845   8.806   8.079  10.933  0.2555 -0.9644  0.8402
   86MOL0     H11846   9.059   8.057  10.950  0.0337  0.2878  0.4086
   86MOL0     H11847   9.007   8.164  10.820 -0.6677 -0.1760  0.7431
   86MOL0     H11848   8.055   7.588  10.962 -1.6478  1.8942 -2.4785
   86MOL0     H11849   7.865   7.442  10.966  2.1973  1.4103  1.6089
   86MOL0     H11850   7.699   7.008  10.752 -0.6252 -1.7894  1.7352
   86MOL0     H11851   7.498   6.866  10.701  2.2347  0.3934 -0.7272
   86MOL0     H11852   5.310   7.343  10.747  1.7958 -0.7177 -0.3640
   86MOL0     H11853   5.067   7.292  10.765  0.2511  0.2019  0.6946
   86MOL0     H11854   4.784   6.877  10.609 -0.9197  0.2384 -0.2619
   86MOL0     H11855   4.590   6.781  10.606  0.2819  2.9526 -2.0147
   86MOL0     H11856   4.319   6.857  10.579 -1.0470  1.5767  1.3671
   86MOL0     H11857   4.389   6.694  10.599  3.0137  2.5984 -0.3016
   86MOL0     H11858   4.197   6.628  10.724 -1.2511  0.3356  0.4865
   86MOL0     H11859   4.146   6.676  10.569  0.0605  1.0343 -0.8085
   86MOL0     H11860   4.138   6.871  10.809 -0.4247  2.3686 -1.2982
   86MOL0     H11861   4.081   6.903  10.651  0.6507 -0.5133 -1.4764
   86MOL0     H11862   3.888   6.833  10.681  1.2144  0.0487 -1.1877
   86MOL0     H11863   3.921   6.805  10.849  0.5086 -1.1135  0.4647
   86MOL0     H11864   3.849   6.411  10.730 -0.1072  0.4299  0.2992
   86MOL0     H11865   4.442   6.957  10.955 -2.1718  0.3954 -2.5030
   86MOL0     H11866   4.692   7.198  11.001 -2.3982  0.6826 -0.5476
   86MOL0     H11867   4.586   7.088  11.087  1.7659  0.1311  2.8452
   86MOL0     H11868   4.754   7.047  11.082 -0.1900 -0.2624 -0.8067
   87MOL0     O11869   9.244   5.090   8.809 -0.1287 -0.0597  0.4196
   87MOL0     C11870   9.235   5.211   8.790 -0.6437  0.1265 -0.1210
   87MOL0     O11871   9.136   5.274   8.727 -0.2384  0.4385  0.4893
   87MOL0     C11872   9.030   5.194   8.688 -0.3161 -0.0269  0.4280
   87MOL0     C11873   8.915   5.187   8.765  0.3280  0.5461 -0.3416
   87MOL0     C11874   8.807   5.102   8.727 -0.2799  0.3173  0.9539
   87MOL0     C11875   8.817   5.023   8.616 -0.2179  0.0453  0.0123
   87MOL0     O11876   8.712   4.936   8.580  0.0262 -0.2813 -0.3163
   87MOL0     C11877   8.711   4.859   8.468 -0.6229  0.7845  0.6327
   87MOL0     C11878   8.578   4.793   8.450 -0.2276  0.5525 -0.6846
   87MOL0     C11879   8.553   4.663   8.361  0.3804  0.1538 -0.2964
   87MOL0     C11880   8.461   4.555   8.429  0.4503 -1.3733  0.3948
   87MOL0     C11881   8.318   4.603   8.393 -0.1806  1.0434 -0.3341
   87MOL0     C11882   8.221   4.538   8.484 -0.2345 -0.4504  0.4437
   87MOL0     C11883   8.085   4.600   8.490  0.5930  0.7940 -0.2723
   87MOL0     C11884   7.996   4.521   8.596  0.1902  0.9650  0.3485
   87MOL0     N11885   7.857   4.542   8.581 -0.2081  0.5001 -0.4224
   87MOL0     C11886   7.775   4.527   8.686 -0.6268 -0.3584 -1.5602
   87MOL0     C11887   7.657   4.567   8.626  0.4208  0.3217 -0.1882
   87MOL0     C11888   7.537   4.610   8.695  0.3128 -0.0433 -0.6096
   87MOL0     C11889   7.574   4.721   8.797  0.6035  0.3136 -0.1665
   87MOL0     C11890   7.439   4.776   8.860 -0.6733  0.0346 -0.3557
   87MOL0     C11891   7.462   4.842   8.989  0.2537 -1.3005 -0.4449
   87MOL0     O11892   7.527   4.977   8.978  0.2708  0.1631  0.3390
   87MOL0     C11893   7.644   5.008   9.045  0.5522  0.5846 -0.8087
   87MOL0     C11894   7.669   5.144   9.052 -0.6248 -0.4740 -0.5357
   87MOL0     C11895   7.771   5.196   9.134  0.0912  0.2513 -0.1493
   87MOL0     C11896   7.783   5.351   9.146  0.1803  0.1509 -0.2856
   87MOL0     C11897   7.865   5.106   9.187  0.7723  0.5562  0.1388
   87MOL0     C11898   7.978   5.147   9.272  0.0711  0.7822 -0.6238
   87MOL0     O11899   7.963   5.266   9.345 -0.6142  0.6751 -0.6552
   87MOL0     C11900   8.049   5.281   9.457  0.0133  0.3881 -0.3354
   87MOL0     C11901   8.187   5.317   9.444 -0.0992 -0.9763  0.2030
   87MOL0     C11902   8.259   5.328   9.561 -0.3411 -0.1948  0.3024
   87MOL0     C11903   8.198   5.322   9.688 -0.9562  0.3135 -0.5689
   87MOL0     O11904   8.250   5.363   9.809 -0.0159 -0.0790 -0.1972
   87MOL0     C11905   8.392   5.351   9.818 -0.1711  0.4239  0.1678
   87MOL0     C11906   8.428   5.363   9.967 -0.8040  0.3773 -0.3055
   87MOL0     C11907   8.375   5.486  10.032  0.9835  0.4639 -0.5749
   87MOL0     C11908   8.397   5.625   9.973 -0.3658  1.1972 -0.4290
   87MOL0     C11909   8.353   5.734  10.060  0.2307  0.4397  0.8529
   87MOL0     C11910   8.380   5.864   9.998  0.4348 -0.8738 -0.3261
   87MOL0     C11911   8.300   5.982  10.058 -0.2203 -0.4029 -0.0805
   87MOL0     C11912   8.151   5.981  10.018 -0.4439 -0.6155 -0.3853
   87MOL0    Cl11913   8.070   6.145  10.068 -0.1865  0.0348 -0.2442
   87MOL0     C11914   8.061   5.279   9.700 -1.2611  0.5693  0.1967
   87MOL0     C11915   7.994   5.263   9.587  0.3498  0.4975  0.2690
   87MOL0     O11916   8.079   5.079   9.267 -1.0426  0.7983  0.4343
   87MOL0     C11917   7.844   4.967   9.171  0.2108  0.2093  0.2276
   87MOL0     C11918   7.740   4.924   9.097  0.2486 -0.0909 -0.3224
   87MOL0     N11919   7.668   4.594   8.492  0.3519  0.2025 -0.1285
   87MOL0     N11920   7.789   4.576   8.466  0.3776  0.6213 -0.4031
   87MOL0     C11921   8.930   5.030   8.540  0.4750 -0.3931  0.0281
   87MOL0     C11922   9.034   5.115   8.577  0.3925 -0.2828 -0.2074
   87MOL0     C11923   9.348   5.280   8.834  0.3500  0.5016 -0.1518
   87MOL0     C11924   9.400   5.266   8.966 -0.2644  0.3803 -0.9823
   87MOL0     C11925   9.501   5.353   9.013 -0.1069  0.4006 -0.3139
   87MOL0     C11926   9.557   5.448   8.926 -0.0054 -0.3066  0.5626
   87MOL0     O11927   9.646   5.540   8.979 -0.2422 -0.6611  0.3301
   87MOL0     C11928   9.706   5.645   8.892 -0.5643  0.9426 -0.5582
   87MOL0     C11929   9.757   5.756   8.976  0.2473 -0.2680 -0.1939
   87MOL0     C11930   9.866   5.839   8.907  0.0679 -0.1239 -0.1065
   87MOL0     C11931   9.806   5.934   8.804 -0.4707 -0.2250 -0.8945
   87MOL0     C11932   9.921   5.999   8.750 -0.2704  0.1461  0.4162
   87MOL0     C11933  10.016   6.054   8.690  0.0055 -0.7665  0.7649
   87MOL0     C11934   9.522   5.442   8.792 -0.5747  0.3656 -0.0275
   87MOL0     C11935   9.412   5.361   8.745 -0.7373  1.5637 -0.2549
   87MOL0     C11936   9.390   5.368   8.599  0.2387 -0.5836  0.2127
   87MOL0     H11937   8.913   5.247   8.855  0.5666  0.2719 -0.1533
   87MOL0     H11938   8.724   5.094   8.796  0.1789  0.3217  1.5121
   87MOL0     H11939   8.791   4.784   8.466  0.6988  2.1118 -1.7484
   87MOL0     H11940   8.724   4.916   8.375  4.3649  1.2355  1.3244
   87MOL0     H11941   8.536   4.775   8.549  1.1865 -1.8118 -0.4431
   87MOL0     H11942   8.523   4.869   8.394  1.5595  0.3315 -2.9381
   87MOL0     H11943   8.520   4.691   8.261  0.2495  1.5824  0.1269
   87MOL0     H11944   8.649   4.612   8.343  0.3342 -1.9013  3.8761
   87MOL0     H11945   8.484   4.452   8.400 -0.3386 -1.6265  0.6310
   87MOL0     H11946   8.480   4.555   8.536  0.4104  0.8410  0.4623
   87MOL0     H11947   8.285   4.564   8.296  1.1321 -0.9765 -0.0406
   87MOL0     H11948   8.307   4.710   8.408 -1.7257  1.1394 -1.8547
   87MOL0     H11949   8.208   4.438   8.442  0.2241 -1.0513  1.6793
   87MOL0     H11950   8.260   4.533   8.586 -0.0462 -2.1965  0.3162
   87MOL0     H11951   8.051   4.581   8.388  0.4906  1.9246 -0.4563
   87MOL0     H11952   8.084   4.707   8.512 -3.3579  0.6860  0.8393
   87MOL0     H11953   8.021   4.416   8.581 -2.4780  0.3153  0.0301
   87MOL0     H11954   8.032   4.560   8.692 -0.8530  0.2682  1.0396
   87MOL0     H11955   7.792   4.519   8.793 -1.1932  2.6452 -1.1520
   87MOL0     H11956   7.484   4.529   8.747  0.9560 -0.0828  0.0156
   87MOL0     H11957   7.471   4.659   8.624 -2.8651  0.2369  2.2462
   87MOL0     H11958   7.653   4.696   8.867  2.1907 -1.0066 -2.3022
   87MOL0     H11959   7.624   4.794   8.733  0.7811 -1.3271 -2.0201
   87MOL0     H11960   7.391   4.848   8.793  1.0081  1.3741 -0.1735
   87MOL0     H11961   7.379   4.686   8.877 -0.5358  0.0061 -0.0130
   87MOL0     H11962   7.365   4.858   9.037  0.6869  1.1095 -0.2335
   87MOL0     H11963   7.515   4.765   9.046  0.8456 -0.6718 -0.1282
   87MOL0     H11964   7.594   5.203   9.000  1.2352  2.3342 -0.2432
   87MOL0     H11965   7.728   5.393   9.062  2.6079  0.5401 -1.7475
   87MOL0     H11966   7.886   5.387   9.142  1.0357 -1.5832  2.5808
   87MOL0     H11967   7.744   5.387   9.242  1.6416  3.0383 -0.6944
   87MOL0     H11968   8.235   5.347   9.351  2.8046 -1.1672  1.5377
   87MOL0     H11969   8.365   5.351   9.555  0.3745 -2.5183  2.4144
   87MOL0     H11970   8.422   5.253   9.780  0.9738  0.7955  0.0644
   87MOL0     H11971   8.446   5.430   9.765  1.6312 -1.1336 -0.4422
   87MOL0     H11972   8.383   5.279  10.021  0.0570 -1.2394 -2.0162
   87MOL0     H11973   8.537   5.357   9.978 -0.6524  2.0482 -0.6895
   87MOL0     H11974   8.418   5.493  10.133  2.7513  1.5378 -1.3481
   87MOL0     H11975   8.269   5.465  10.050  1.8446 -2.6356  1.8194
   87MOL0     H11976   8.329   5.626   9.887 -0.1528 -1.9998 -0.7639
   87MOL0     H11977   8.502   5.644   9.949  0.8968 -1.1944  2.4739
   87MOL0     H11978   8.248   5.721  10.086  0.0425  0.7202  0.2501
   87MOL0     H11979   8.406   5.717  10.155  1.9559  1.9701  0.2445
   87MOL0     H11980   8.354   5.854   9.892 -1.4592 -4.3967  0.3355
   87MOL0     H11981   8.487   5.890   9.998  0.2844  0.0792 -2.6969
   87MOL0     H11982   8.344   6.069  10.009  2.7801 -1.6205  0.2534
   87MOL0     H11983   8.327   5.994  10.164  1.2676  1.0716 -0.5840
   87MOL0     H11984   8.105   5.893  10.065  0.8559 -2.2405 -2.0417
   87MOL0     H11985   8.142   5.968   9.910 -1.3164 -0.9979 -0.2842
   87MOL0     H11986   8.020   5.257   9.799  0.3212  1.0327  0.9810
   87MOL0     H11987   7.891   5.231   9.605 -0.5331  1.3963 -2.5958
   87MOL0     H11988   7.921   4.894   9.194  0.2913  0.6239  1.3155
   87MOL0     H11989   7.742   4.817   9.078  1.2768 -0.3331  1.0021
   87MOL0     H11990   8.938   4.980   8.444 -1.2193  1.3716 -1.1161
   87MOL0     H11991   9.121   5.110   8.512 -0.4136 -0.3419 -1.3108
   87MOL0     H11992   9.340   5.199   9.027  1.3678  1.5648  2.1478
   87MOL0     H11993   9.531   5.359   9.118 -1.3007  0.6220  0.0243
   87MOL0     H11994   9.785   5.595   8.835 -0.7347  0.7044 -0.5904
   87MOL0     H11995   9.633   5.693   8.826 -0.1779  0.4048 -1.3852
   87MOL0     H11996   9.806   5.709   9.062 -1.7074 -1.9316  0.1129
   87MOL0     H11997   9.683   5.822   9.022  0.1430 -1.7071  1.8947
   87MOL0     H11998   9.910   5.904   8.983  0.9364  2.3413 -2.5742
   87MOL0     H11999   9.946   5.780   8.862  0.6976  1.0272 -0.5346
   87MOL0     H12000   9.743   6.013   8.845 -0.3961  1.0682 -3.0945
   87MOL0     H12001   9.743   5.898   8.722 -1.1886  2.0864 -1.4338
   87MOL0     H12002  10.104   6.094   8.644 -0.3514 -0.1493  0.6100
   87MOL0     H12003   9.556   5.505   8.710 -1.2280  1.9235  0.8677
   87MOL0     H12004   9.341   5.460   8.567  1.7007  0.2329  0.2427
   87MOL0     H12005   9.482   5.368   8.540  0.1106 -3.7876 -0.1743
   87MOL0     H12006   9.319   5.291   8.567 -1.0582  0.7677 -0.2402
   88MOL0     O12007   9.675   1.454   7.953  0.1074  0.2542  1.2191
   88MOL0     C12008   9.611   1.503   7.858  0.7470  0.9681 -0.3768
   88MOL0     O12009   9.657   1.504   7.729 -0.1897 -0.5069  0.5412
   88MOL0     C12010   9.793   1.476   7.716 -0.5821  0.1567 -0.6104
   88MOL0     C12011   9.887   1.566   7.757 -0.0833  0.0950 -1.2790
   88MOL0     C12012  10.027   1.541   7.743  0.1911  0.0281  0.3219
   88MOL0     C12013  10.072   1.419   7.687  0.6771 -0.6006 -1.1338
   88MOL0     O12014  10.203   1.397   7.653  0.7968 -0.3337 -0.6102
   88MOL0     C12015  10.297   1.424   7.753 -0.7663 -0.1461 -0.3078
   88MOL0     C12016  10.268   1.360   7.889 -0.2020 -0.2010  0.3152
   88MOL0     C12017  10.389   1.337   7.979 -0.5100  0.3625  0.5300
   88MOL0     C12018  10.450   1.468   8.024 -0.0424 -0.5234 -0.1405
   88MOL0     C12019  10.573   1.451   8.128 -0.2574 -0.3784  0.7250
   88MOL0     C12020  10.638   1.586   8.149 -0.4536 -1.0377  0.7165
   88MOL0     C12021  10.789   1.566   8.186  0.6926 -0.2608  0.0532
   88MOL0     C12022  10.866   1.686   8.237 -0.6842  0.1429  0.1762
   88MOL0     N12023  11.011   1.640   8.280  0.0851 -0.1849  0.8740
   88MOL0     C12024  11.044   1.610   8.405 -0.9200  0.8697 -0.6410
   88MOL0     C12025  11.180   1.574   8.393  0.3654  0.2312 -0.1817
   88MOL0     C12026  11.263   1.508   8.493 -0.2414  0.6117  1.2908
   88MOL0     C12027  11.416   1.501   8.456  0.9855 -0.1001 -0.2863
   88MOL0     C12028  11.506   1.483   8.575 -0.3592 -0.2362  0.3883
   88MOL0     C12029  11.483   1.354   8.647 -0.3766 -0.7757 -0.3154
   88MOL0     O12030  11.572   1.319   8.752 -0.3470  0.2421 -0.3906
   88MOL0     C12031  11.701   1.299   8.727  0.8421  0.0893  0.6079
   88MOL0     C12032  11.787   1.293   8.835 -0.0880  0.1326  0.1425
   88MOL0     C12033  11.924   1.272   8.822  0.4208 -0.3050  0.1068
   88MOL0     C12034  11.999   1.265   8.951 -0.6077 -0.3214 -0.0955
   88MOL0     C12035  11.981   1.268   8.687 -0.1163 -0.6010  0.3600
   88MOL0     C12036  12.131   1.249   8.663 -1.0662 -0.0610  0.9333
   88MOL0     O12037  12.160   1.175   8.543 -0.2739 -0.3093  0.5311
   88MOL0     C12038  12.289   1.139   8.514  0.8778  0.3716  1.1193
   88MOL0     C12039  12.394   1.223   8.532  0.0105 -0.6869  0.3961
   88MOL0     C12040  12.522   1.174   8.503  0.6667 -0.2907  0.3078
   88MOL0     C12041  12.535   1.044   8.441 -0.9075 -0.6635  0.6211
   88MOL0     O12042  12.659   0.993   8.402 -0.2346  0.2269  0.1103
   88MOL0     C12043  12.774   1.071   8.423  0.1437 -0.3843 -0.9986
   88MOL0     C12044  12.896   1.001   8.386 -0.8907  0.1969  1.4084
   88MOL0     C12045  13.038   1.085   8.404  0.9195 -0.0704  0.7412
   88MOL0     C12046  13.173   1.007   8.383 -0.7067 -0.7663 -0.7558
   88MOL0     C12047  13.302   1.089   8.417 -0.2125 -0.2332 -0.5338
   88MOL0     C12048  13.309   1.212   8.320  0.5233  0.2588 -0.3064
   88MOL0     C12049  13.448   1.279   8.317  1.0120  0.0169 -0.3120
   88MOL0     C12050  13.465   1.332   8.171  0.1246 -0.2746 -0.1719
   88MOL0    Cl12051  13.606   1.438   8.153  0.1209 -0.0171 -0.3322
   88MOL0     C12052  12.420   0.968   8.410  0.0151  0.0122  0.5003
   88MOL0     C12053  12.300   1.017   8.450 -0.0850  0.2029 -0.3333
   88MOL0     O12054  12.212   1.294   8.746 -0.1054  0.2508 -0.1933
   88MOL0     C12055  11.894   1.261   8.585 -0.6078  0.5604 -0.4719
   88MOL0     C12056  11.759   1.277   8.600  0.1933  0.1140 -0.6788
   88MOL0     N12057  11.219   1.598   8.259  0.2673  0.3342 -0.4869
   88MOL0     N12058  11.120   1.637   8.193  0.4812  0.6480  0.5687
   88MOL0     C12059   9.977   1.332   7.642  0.0742  0.4988 -0.0557
   88MOL0     C12060   9.840   1.364   7.659 -0.1060  0.2298  0.8597
   88MOL0     C12061   9.466   1.554   7.889  0.6877  0.1090  0.6110
   88MOL0     C12062   9.394   1.607   7.778 -0.1639 -0.2973 -0.0535
   88MOL0     C12063   9.277   1.678   7.798  0.5571  0.0803 -0.1152
   88MOL0     C12064   9.208   1.670   7.921 -0.8939 -0.8452 -0.1465
   88MOL0     O12065   9.075   1.713   7.938 -0.0010  0.3613 -0.2515
   88MOL0     C12066   8.978   1.645   8.025  0.7140 -0.2157 -0.2565
   88MOL0     C12067   8.959   1.697   8.172  0.5542 -0.6471 -0.4938
   88MOL0     C12068   8.862   1.608   8.243 -0.0563 -0.0836 -0.5329
   88MOL0     C12069   8.935   1.532   8.357 -0.0867 -0.8419 -1.7107
   88MOL0     C12070   9.044   1.453   8.306 -0.1818 -0.7251  0.1818
   88MOL0     C12071   9.125   1.389   8.244 -0.8584 -1.0013 -0.8673
   88MOL0     C12072   9.269   1.596   8.022  0.8200  0.3190 -0.2037
   88MOL0     C12073   9.394   1.537   8.007 -0.5938 -0.1551  0.6084
   88MOL0     C12074   9.456   1.458   8.118  0.3610 -0.5121  0.2342
   88MOL0     H12075   9.844   1.653   7.806 -1.9430 -1.0377 -0.7664
   88MOL0     H12076  10.093   1.622   7.773 -2.7891  1.8762  2.3876
   88MOL0     H12077  10.304   1.532   7.767  2.6746 -0.4025  1.1991
   88MOL0     H12078  10.395   1.397   7.712 -0.4524 -0.4095  0.5790
   88MOL0     H12079  10.201   1.424   7.946  1.8163  0.1150  2.4663
   88MOL0     H12080  10.220   1.264   7.868  1.2979 -0.3631 -3.1251
   88MOL0     H12081  10.363   1.267   8.059  1.1234 -3.2798 -1.8910
   88MOL0     H12082  10.474   1.291   7.929 -0.0869 -1.7198  2.9444
   88MOL0     H12083  10.467   1.533   7.939 -1.6946  1.8377  1.2305
   88MOL0     H12084  10.376   1.512   8.092  0.7797 -2.0308  1.8616
   88MOL0     H12085  10.650   1.386   8.086 -0.2566 -0.0902  0.2801
   88MOL0     H12086  10.549   1.417   8.230  1.0406  1.7485  1.7936
   88MOL0     H12087  10.626   1.641   8.055 -1.5803 -1.0437  0.8435
   88MOL0     H12088  10.579   1.634   8.228 -0.8468 -0.1473 -0.1025
   88MOL0     H12089  10.838   1.536   8.093 -0.1309 -0.9186 -0.1789
   88MOL0     H12090  10.793   1.488   8.263  0.9014  0.2642  0.5872
   88MOL0     H12091  10.887   1.757   8.157 -0.4590  1.4842  1.3976
   88MOL0     H12092  10.822   1.740   8.321 -0.8188 -1.0307  0.8938
   88MOL0     H12093  10.983   1.604   8.495  2.9221 -3.6496  2.0982
   88MOL0     H12094  11.232   1.405   8.509  2.7432 -0.5070  0.5234
   88MOL0     H12095  11.245   1.557   8.589  1.4135  3.6646  0.2086
   88MOL0     H12096  11.433   1.408   8.401  1.2866 -0.4885  0.4450
   88MOL0     H12097  11.444   1.594   8.405  2.1621  0.3498  1.1163
   88MOL0     H12098  11.610   1.482   8.541  0.0713  0.0764  1.6376
   88MOL0     H12099  11.509   1.565   8.647  2.1799  0.5757 -0.5331
   88MOL0     H12100  11.390   1.363   8.704  0.3573  3.6828  0.5080
   88MOL0     H12101  11.474   1.273   8.574  1.8229 -1.1816 -0.2057
   88MOL0     H12102  11.752   1.314   8.935  0.6285 -1.2873  0.7185
   88MOL0     H12103  12.094   1.210   8.946 -1.1197 -1.3037  0.6738
   88MOL0     H12104  11.941   1.216   9.029 -0.5074  1.6884  1.3119
   88MOL0     H12105  12.028   1.364   8.985  0.1769 -1.3896  2.5994
   88MOL0     H12106  12.391   1.327   8.562 -3.1296 -1.1128  1.8971
   88MOL0     H12107  12.601   1.247   8.514  0.2067  0.4154 -0.8991
   88MOL0     H12108  12.761   1.163   8.365  0.5883  0.6071  0.4132
   88MOL0     H12109  12.796   1.087   8.529 -2.4098 -1.2642 -0.2718
   88MOL0     H12110  12.900   0.920   8.458  0.9435 -0.2741  0.8207
   88MOL0     H12111  12.896   0.964   8.283  0.4176  3.4500  0.0828
   88MOL0     H12112  13.035   1.120   8.507 -1.1650 -0.6634  0.9241
   88MOL0     H12113  13.045   1.167   8.332  0.6858  0.4591  1.3101
   88MOL0     H12114  13.181   0.958   8.285  2.3272 -0.8511 -0.5421
   88MOL0     H12115  13.176   0.936   8.467 -0.6808  0.2320  0.1036
   88MOL0     H12116  13.318   1.130   8.517  2.4595  0.6367 -1.2310
   88MOL0     H12117  13.387   1.024   8.398  0.1548  0.5889 -1.8502
   88MOL0     H12118  13.236   1.287   8.351  0.1867  0.4176 -1.4307
   88MOL0     H12119  13.281   1.175   8.221 -0.8186 -0.0676  0.1623
   88MOL0     H12120  13.521   1.206   8.351  0.4910  1.1278  3.7029
   88MOL0     H12121  13.444   1.362   8.389 -2.4898 -1.1772  1.0501
   88MOL0     H12122  13.383   1.399   8.143  1.3313  2.0484  1.4665
   88MOL0     H12123  13.468   1.248   8.100  2.1223  1.7540 -2.7011
   88MOL0     H12124  12.435   0.872   8.362  0.4991  0.4884 -0.3070
   88MOL0     H12125  12.216   0.950   8.439 -0.3075  0.0644  1.6755
   88MOL0     H12126  11.941   1.242   8.489  0.1364 -3.0059  0.4392
   88MOL0     H12127  11.698   1.275   8.510 -0.2652  2.2351 -0.4548
   88MOL0     H12128  10.014   1.239   7.600  4.0807  2.1601 -0.7344
   88MOL0     H12129   9.763   1.295   7.626 -0.1864  0.2761  0.9460
   88MOL0     H12130   9.435   1.604   7.678 -1.2633  0.8385 -0.5782
   88MOL0     H12131   9.231   1.735   7.718 -1.1923 -1.4485 -0.2609
   88MOL0     H12132   8.877   1.645   7.983 -0.9482  1.1666  3.3788
   88MOL0     H12133   9.014   1.542   8.036  1.9039  0.3933  2.4549
   88MOL0     H12134   8.920   1.799   8.178 -0.8889 -1.1515 -0.8169
   88MOL0     H12135   9.053   1.705   8.227 -0.0298 -1.1591  0.6125
   88MOL0     H12136   8.771   1.658   8.276  0.3846 -1.2516  2.7860
   88MOL0     H12137   8.819   1.529   8.180  0.4535 -0.9528  0.1817
   88MOL0     H12138   8.872   1.463   8.413 -1.1943  1.9426  0.7339
   88MOL0     H12139   8.981   1.597   8.432 -0.5891 -0.4464 -1.7422
   88MOL0     H12140   9.181   1.322   8.181  3.3299 -0.3156  1.7197
   88MOL0     H12141   9.213   1.590   8.115  2.6032  4.4044  1.3564
   88MOL0     H12142   9.385   1.456   8.202 -1.2316  0.8424 -1.0007
   88MOL0     H12143   9.471   1.357   8.080 -0.0458 -0.2681 -0.6051
   88MOL0     H12144   9.547   1.503   8.157  0.9028 -2.2917  1.1182
   89MOL0     O12145   6.413  10.113   8.586  0.2546 -0.2520  0.6558
   89MOL0     C12146   6.513  10.073   8.530  0.3361 -0.4353 -0.0713
   89MOL0     O12147   6.611  10.011   8.598 -0.3588  0.0660 -0.0669
   89MOL0     C12148   6.632  10.003   8.735 -0.8431  0.2260  0.4243
   89MOL0     C12149   6.698   9.890   8.784  0.2905  0.1072 -0.1392
   89MOL0     C12150   6.727   9.879   8.923  0.1144 -1.1946 -0.0941
   89MOL0     C12151   6.682   9.981   9.010 -0.0835  0.4436 -0.5325
   89MOL0     O12152   6.685   9.962   9.144 -0.0641  0.2844  0.0377
   89MOL0     C12153   6.808   9.922   9.202 -0.6133  0.0685  0.2659
   89MOL0     C12154   6.875  10.021   9.288  0.4250  0.0439  0.1225
   89MOL0     C12155   6.912  10.148   9.214 -0.4353  0.2144 -0.7064
   89MOL0     C12156   6.944  10.263   9.312 -0.6981 -0.3480 -0.0968
   89MOL0     C12157   6.974  10.393   9.231  0.3109  0.4689 -0.4678
   89MOL0     C12158   7.018  10.493   9.331  0.0268 -0.5039 -0.5063
   89MOL0     C12159   6.906  10.563   9.399 -0.1322  0.5867  0.2761
   89MOL0     C12160   6.961  10.682   9.484 -0.0583 -0.4624  0.3390
   89MOL0     N12161   6.993  10.635   9.617 -0.6206  0.6938  0.7922
   89MOL0     C12162   7.100  10.549   9.639 -0.2385  0.4080 -0.2127
   89MOL0     C12163   7.078  10.489   9.762 -0.1294  0.6760  0.3711
   89MOL0     C12164   7.172  10.395   9.828 -0.1902  0.9987 -1.1967
   89MOL0     C12165   7.130  10.247   9.811  0.7066  0.1478  1.2374
   89MOL0     C12166   7.125  10.197   9.663 -0.3814 -0.1425 -0.6658
   89MOL0     C12167   7.261  10.185   9.598  0.0860 -0.1002  0.3342
   89MOL0     O12168   7.285  10.283   9.492 -0.1319 -0.3893  0.1666
   89MOL0     C12169   7.413  10.255   9.434  1.3130  0.3972 -0.0478
   89MOL0     C12170   7.489  10.135   9.447 -0.2296  0.1267 -0.4254
   89MOL0     C12171   7.610  10.109   9.373  0.4041  0.3410 -0.0727
   89MOL0     C12172   7.665   9.967   9.380  0.0407 -0.3234  0.1623
   89MOL0     C12173   7.655  10.210   9.279 -1.2516  0.0870 -0.7056
   89MOL0     C12174   7.770  10.186   9.185  0.6102 -0.9755  0.8277
   89MOL0     O12175   7.827  10.295   9.137 -0.3655  0.1451 -0.3572
   89MOL0     C12176   7.939  10.274   9.063 -0.2010  0.0752 -0.4675
   89MOL0     C12177   7.935  10.301   8.923  0.3732  0.6075 -0.2510
   89MOL0     C12178   8.049  10.322   8.846  0.0205  0.3046 -0.1689
   89MOL0     C12179   8.179  10.326   8.913  0.3904  0.3261  1.1681
   89MOL0     O12180   8.298  10.351   8.854 -0.1743  0.0210 -0.8530
   89MOL0     C12181   8.317  10.356   8.710  0.0720 -0.4608  0.5588
   89MOL0     C12182   8.450  10.416   8.676 -0.0649 -0.1501  0.2292
   89MOL0     C12183   8.554  10.314   8.708 -0.0797 -0.7368 -0.0010
   89MOL0     C12184   8.688  10.384   8.712 -0.4706  0.0668  0.1790
   89MOL0     C12185   8.800  10.297   8.759 -0.5799 -0.4755 -0.2114
   89MOL0     C12186   8.924  10.378   8.802  0.1791 -0.4670  0.3096
   89MOL0     C12187   9.032  10.285   8.854 -0.0559 -0.1188 -0.8183
   89MOL0     C12188   9.106  10.207   8.742  0.2725 -0.1886 -0.0247
   89MOL0    Cl12189   9.235  10.125   8.821  0.0221 -0.1464  0.0656
   89MOL0     C12190   8.182  10.300   9.056 -0.5404 -0.3919 -0.3041
   89MOL0     C12191   8.062  10.275   9.128  0.7860 -1.1328 -0.2386
   89MOL0     O12192   7.800  10.073   9.154  0.6911  0.1022  0.5919
   89MOL0     C12193   7.584  10.331   9.286 -1.1470 -1.0061 -0.0822
   89MOL0     C12194   7.467  10.349   9.357  0.7220 -0.8035 -0.6224
   89MOL0     N12195   6.960  10.535   9.807 -0.8125 -0.3320  0.2611
   89MOL0     N12196   6.905  10.623   9.722  0.2469 -0.3635  0.1893
   89MOL0     C12197   6.630  10.100   8.956  0.0823  0.4302  0.3913
   89MOL0     C12198   6.606  10.111   8.816  0.6702 -0.6256 -0.3015
   89MOL0     C12199   6.507  10.065   8.384 -0.6482 -0.2056  0.8233
   89MOL0     C12200   6.628  10.069   8.311  0.2191 -0.2065 -0.5051
   89MOL0     C12201   6.637  10.054   8.174  0.1643  0.3858  1.2551
   89MOL0     C12202   6.516  10.051   8.103  0.3625  0.2199  0.2523
   89MOL0     O12203   6.514  10.042   7.965 -0.3002 -0.2381 -0.1839
   89MOL0     C12204   6.634   9.998   7.891  0.1879 -0.6218 -0.2771
   89MOL0     C12205   6.608  10.014   7.742  0.2048 -0.0645 -0.4612
   89MOL0     C12206   6.593  10.155   7.686 -0.2235 -0.6472 -0.3595
   89MOL0     C12207   6.726  10.221   7.663 -0.2161 -0.0518  0.3705
   89MOL0     C12208   6.796  10.160   7.547  0.3430  0.7759 -0.8035
   89MOL0     C12209   6.840  10.107   7.447  0.0744  0.5659 -0.8349
   89MOL0     C12210   6.390  10.034   8.169 -0.4923  0.5597  0.8056
   89MOL0     C12211   6.386  10.040   8.310  0.1267  0.2568 -0.0195
   89MOL0     C12212   6.248  10.009   8.377 -0.0275  0.2361 -0.2793
   89MOL0     H12213   6.719   9.817   8.708  0.3437  0.1813 -0.1962
   89MOL0     H12214   6.769   9.789   8.966  2.1867 -0.8791 -1.3313
   89MOL0     H12215   6.884   9.908   9.125 -0.7722  0.4194  0.0432
   89MOL0     H12216   6.811   9.828   9.258  2.1059  0.2995  0.6118
   89MOL0     H12217   6.809  10.037   9.374  0.7456 -2.8814  1.0056
   89MOL0     H12218   6.957   9.972   9.341  0.2604 -0.1310  0.2170
   89MOL0     H12219   7.000  10.120   9.156  0.6311 -1.9584  1.7843
   89MOL0     H12220   6.823  10.180   9.159 -1.3510  1.2761  1.2608
   89MOL0     H12221   6.858  10.285   9.375 -1.5212  0.4062 -1.4191
   89MOL0     H12222   7.030  10.239   9.375 -0.4792 -1.0349 -0.6337
   89MOL0     H12223   6.878  10.422   9.188  0.1008  2.3542  1.1249
   89MOL0     H12224   7.045  10.382   9.149  1.3052  1.3639  0.2414
   89MOL0     H12225   7.092  10.453   9.401  1.0631  0.8869 -0.7567
   89MOL0     H12226   7.059  10.569   9.263 -0.8697  0.3905 -0.0789
   89MOL0     H12227   6.859  10.495   9.471 -2.2331  0.9758 -0.6862
   89MOL0     H12228   6.833  10.593   9.324 -1.7058  1.5881  2.1144
   89MOL0     H12229   7.050  10.723   9.435 -0.2390 -0.7706 -0.2557
   89MOL0     H12230   6.885  10.759   9.473  0.7628  0.2379 -0.6791
   89MOL0     H12231   7.194  10.533   9.587 -0.6270 -0.6655 -0.6334
   89MOL0     H12232   7.182  10.420   9.934  0.6013 -0.7968 -0.7972
   89MOL0     H12233   7.265  10.411   9.773  0.8967  3.4877  1.1653
   89MOL0     H12234   7.197  10.186   9.873  0.0541 -0.6297  1.1922
   89MOL0     H12235   7.029  10.231   9.850  0.8559  1.4186  2.1850
   89MOL0     H12236   7.076  10.100   9.659 -1.6036  0.3502  1.2328
   89MOL0     H12237   7.065  10.263   9.598  0.1159  0.2221 -0.7568
   89MOL0     H12238   7.347  10.179   9.665 -0.1686  2.6443  1.0281
   89MOL0     H12239   7.250  10.086   9.552 -0.0957 -0.5061  1.2293
   89MOL0     H12240   7.452  10.050   9.503 -1.2010 -0.3203 -1.6699
   89MOL0     H12241   7.623   9.918   9.468 -1.0146 -0.4014 -0.3759
   89MOL0     H12242   7.773   9.956   9.394  0.1494  0.0240 -0.3640
   89MOL0     H12243   7.648   9.906   9.291 -2.4079  1.5287 -0.7492
   89MOL0     H12244   7.848  10.308   8.859 -1.3810 -0.6097  1.8385
   89MOL0     H12245   8.032  10.340   8.740 -1.3020 -1.6106 -0.3181
   89MOL0     H12246   8.306  10.252   8.677  0.0506 -0.4298  0.4691
   89MOL0     H12247   8.243  10.412   8.653  2.4781  2.8491  0.3979
   89MOL0     H12248   8.453  10.448   8.572 -0.3349  0.3726  0.3775
   89MOL0     H12249   8.477  10.502   8.738  0.4445  0.7123 -1.1548
   89MOL0     H12250   8.548  10.241   8.626 -0.3060  0.9729 -1.5919
   89MOL0     H12251   8.524  10.256   8.796 -1.3840  0.2417  0.2187
   89MOL0     H12252   8.685  10.468   8.782 -3.1125  2.1765 -2.2386
   89MOL0     H12253   8.709  10.433   8.616  0.0105  4.6546  2.3719
   89MOL0     H12254   8.753  10.240   8.840 -2.6285 -0.3769 -1.2609
   89MOL0     H12255   8.829  10.231   8.677 -0.2679 -0.6365  0.0295
   89MOL0     H12256   8.890  10.439   8.885  2.7108  3.0935 -1.0232
   89MOL0     H12257   8.977  10.437   8.726  1.1780 -1.3935  0.2506
   89MOL0     H12258   8.987  10.217   8.927  1.0110  0.4060  0.3651
   89MOL0     H12259   9.092  10.357   8.910 -0.7746 -0.3084  0.2378
   89MOL0     H12260   9.143  10.286   8.676 -0.1462  1.6224  1.8108
   89MOL0     H12261   9.046  10.135   8.686 -0.5468  0.5994 -0.1717
   89MOL0     H12262   8.286  10.304   9.086 -0.1229  2.2139 -1.7594
   89MOL0     H12263   8.071  10.265   9.235  1.5428  0.1583 -0.1676
   89MOL0     H12264   7.621  10.416   9.231  3.3746 -3.3133 -1.0571
   89MOL0     H12265   7.408  10.438   9.341 -0.3290 -1.4573 -0.5031
   89MOL0     H12266   6.591  10.187   9.007 -3.6922 -1.8917  1.8960
   89MOL0     H12267   6.558  10.200   8.775 -0.2184 -0.6681  0.6084
   89MOL0     H12268   6.716  10.078   8.374 -1.1488 -2.1794  1.8595
   89MOL0     H12269   6.735  10.068   8.130 -0.3232  1.5731  0.4788
   89MOL0     H12270   6.728  10.049   7.914 -0.5309  0.1100  1.2030
   89MOL0     H12271   6.665   9.897   7.918  3.0981  0.7642  2.1437
   89MOL0     H12272   6.520   9.959   7.707 -0.7588  1.4050 -0.4338
   89MOL0     H12273   6.692   9.964   7.693  2.2488  0.7329  1.9928
   89MOL0     H12274   6.547  10.157   7.587 -0.8688 -1.1073 -0.0803
   89MOL0     H12275   6.538  10.211   7.762 -0.4597 -0.6977 -0.4890
   89MOL0     H12276   6.795  10.225   7.748  1.3842  2.6697 -0.9340
   89MOL0     H12277   6.713  10.327   7.643 -1.5512  0.0109  1.4464
   89MOL0     H12278   6.881  10.058   7.361  2.3361  2.6185 -1.0482
   89MOL0     H12279   6.295  10.026   8.117  0.8333  0.9278 -1.8306
   89MOL0     H12280   6.178   9.968   8.304 -1.2903  0.7086  0.6261
   89MOL0     H12281   6.263   9.942   8.462 -3.3844 -0.1516  0.1437
   89MOL0     H12282   6.216  10.107   8.412  0.0278 -0.4504  1.8528
   90MOL0     O12283   6.614   3.314   4.476  0.8979  0.3748  0.1524
   90MOL0     C12284   6.585   3.307   4.600 -0.0779 -0.3076  0.3402
   90MOL0     O12285   6.664   3.242   4.690 -0.0937  0.8071  0.0373
   90MOL0     C12286   6.788   3.196   4.644  0.0160 -0.1042 -0.3819
   90MOL0     C12287   6.807   3.061   4.625  0.8525 -0.1311 -0.5978
   90MOL0     C12288   6.941   3.014   4.597  1.1949  0.4625  0.8980
   90MOL0     C12289   7.048   3.098   4.601 -0.3712  0.3265  0.3143
   90MOL0     O12290   7.174   3.056   4.583 -0.1738 -0.1763  0.2427
   90MOL0     C12291   7.216   2.921   4.589  0.5506 -0.0099  0.1632
   90MOL0     C12292   7.359   2.932   4.533  0.0587 -0.1316 -0.4176
   90MOL0     C12293   7.425   2.800   4.546  0.0284 -0.0339 -0.0294
   90MOL0     C12294   7.573   2.803   4.514  0.2375  0.2564  0.7880
   90MOL0     C12295   7.640   2.666   4.500 -0.7627 -0.2251 -0.2934
   90MOL0     C12296   7.613   2.563   4.610 -0.3346  0.5877 -0.1741
   90MOL0     C12297   7.678   2.424   4.573  0.8732 -0.1352  0.0708
   90MOL0     C12298   7.827   2.438   4.558 -0.9077 -0.3242 -0.1694
   90MOL0     N12299   7.889   2.309   4.591 -0.2347  0.7654  0.2488
   90MOL0     C12300   7.926   2.209   4.503 -0.0677 -0.6318  0.1942
   90MOL0     C12301   8.001   2.123   4.574 -0.6154  0.0157  0.1551
   90MOL0     C12302   8.065   1.991   4.532  0.2569  0.6975 -0.5029
   90MOL0     C12303   8.219   1.989   4.561  0.2577 -0.2641  0.6771
   90MOL0     C12304   8.269   2.036   4.697 -0.0090  0.0649 -0.6561
   90MOL0     C12305   8.415   2.022   4.708  0.2620 -0.6235  0.3254
   90MOL0     O12306   8.444   2.050   4.842 -0.3721  0.0771 -0.2175
   90MOL0     C12307   8.564   2.011   4.892  0.9021 -0.2895 -0.3190
   90MOL0     C12308   8.574   2.022   5.032 -0.2358  0.2816 -0.3024
   90MOL0     C12309   8.690   1.971   5.101 -0.2569  0.9642  1.0524
   90MOL0     C12310   8.695   1.967   5.252 -0.3570  0.3225 -0.1402
   90MOL0     C12311   8.800   1.923   5.025  0.5088 -0.2591  0.1032
   90MOL0     C12312   8.935   1.879   5.082  0.4945 -0.6140  0.0428
   90MOL0     O12313   9.018   1.814   4.999 -0.1401 -0.1982 -0.0383
   90MOL0     C12314   9.113   1.735   5.059 -0.1091  0.6285 -0.4403
   90MOL0     C12315   9.089   1.636   5.164  0.9283 -1.1417 -0.1790
   90MOL0     C12316   9.188   1.557   5.209  0.0816  0.8400  0.0067
   90MOL0     C12317   9.314   1.553   5.150 -0.4123  0.1019  0.4811
   90MOL0     O12318   9.407   1.470   5.208  0.4479  0.1177  0.4815
   90MOL0     C12319   9.545   1.499   5.173 -0.2512 -0.9194 -0.1791
   90MOL0     C12320   9.645   1.411   5.242  0.1331  0.1896  0.1475
   90MOL0     C12321   9.648   1.438   5.394 -0.3221 -0.4896  0.1314
   90MOL0     C12322   9.725   1.326   5.468  0.2151 -0.2940 -0.2339
   90MOL0     C12323   9.733   1.356   5.623  0.4344 -0.4029  0.5754
   90MOL0     C12324   9.818   1.246   5.684  0.3658 -0.5651  0.2544
   90MOL0     C12325   9.836   1.266   5.834  0.2905  0.1688  0.6254
   90MOL0     C12326   9.841   1.136   5.905  0.0458 -0.0010 -0.1908
   90MOL0    Cl12327   9.818   1.147   6.081 -0.4699  0.2075 -0.2114
   90MOL0     C12328   9.342   1.644   5.039  0.8571  0.3732 -0.0573
   90MOL0     C12329   9.239   1.733   4.996 -0.3419  0.5099 -0.8652
   90MOL0     O12330   8.957   1.899   5.203  0.6865 -0.4515 -0.3452
   90MOL0     C12331   8.782   1.909   4.881  0.2510 -0.2496 -0.2971
   90MOL0     C12332   8.668   1.957   4.816  0.3061 -0.6373  0.8939
   90MOL0     N12333   8.002   2.174   4.706 -1.3716 -0.6392 -0.3580
   90MOL0     N12334   7.946   2.288   4.707 -0.1032  0.0994 -0.1737
   90MOL0     C12335   7.028   3.238   4.622 -0.0466  0.3012  0.6642
   90MOL0     C12336   6.897   3.283   4.635  0.1423  0.0625  0.4292
   90MOL0     C12337   6.455   3.360   4.648  0.2573 -1.6664 -1.0691
   90MOL0     C12338   6.406   3.482   4.594 -0.3253  0.1234  0.0329
   90MOL0     C12339   6.291   3.554   4.630 -0.0689  0.0095  0.4579
   90MOL0     C12340   6.212   3.499   4.733 -0.7603  0.3590 -0.1807
   90MOL0     O12341   6.094   3.546   4.782  0.3091 -0.2944 -0.6298
   90MOL0     C12342   6.000   3.578   4.682  0.3206 -0.2672  0.0784
   90MOL0     C12343   5.857   3.554   4.722  0.7002 -1.0742  0.0217
   90MOL0     C12344   5.764   3.586   4.604  0.1862  0.6811  0.2622
   90MOL0     C12345   5.756   3.735   4.557 -0.6217  0.3164 -0.5545
   90MOL0     C12346   5.710   3.829   4.659 -0.5340  0.1563 -0.2998
   90MOL0     C12347   5.654   3.896   4.748  0.6824  1.1719  0.2553
   90MOL0     C12348   6.257   3.378   4.786  0.2363 -0.8026  0.5642
   90MOL0     C12349   6.373   3.308   4.745  0.4721  1.1510  0.2061
   90MOL0     C12350   6.409   3.171   4.805 -0.4870 -0.8824  0.3703
   90MOL0     H12351   6.718   2.998   4.628  0.0060  0.9979 -1.1697
   90MOL0     H12352   6.956   2.908   4.577 -2.2421  0.4250 -2.5945
   90MOL0     H12353   7.163   2.850   4.525 -0.4442  2.4589 -1.9648
   90MOL0     H12354   7.219   2.879   4.690 -2.4883  1.8204  1.1366
   90MOL0     H12355   7.352   2.955   4.427 -2.0057  0.2009 -0.2608
   90MOL0     H12356   7.412   3.005   4.594  1.2363 -4.2419  4.1477
   90MOL0     H12357   7.417   2.762   4.648 -1.8587 -2.3999 -0.9668
   90MOL0     H12358   7.374   2.726   4.483 -2.3970  0.2751  1.4209
   90MOL0     H12359   7.580   2.853   4.417  1.0377 -0.6039  0.3895
   90MOL0     H12360   7.635   2.861   4.583  0.6892  0.4403  0.2373
   90MOL0     H12361   7.746   2.692   4.496 -1.1885  1.5768 -0.4682
   90MOL0     H12362   7.614   2.620   4.404  0.8686 -0.2826 -0.7388
   90MOL0     H12363   7.649   2.601   4.706 -1.0710 -0.1390  0.4073
   90MOL0     H12364   7.505   2.544   4.614 -0.6785  1.3974 -3.2772
   90MOL0     H12365   7.620   2.384   4.489 -0.1810  0.3298  0.5661
   90MOL0     H12366   7.663   2.355   4.656  3.8363  1.1123  1.8189
   90MOL0     H12367   7.847   2.459   4.452 -0.5591 -1.9709 -0.4577
   90MOL0     H12368   7.864   2.523   4.615  0.8523 -0.2121 -1.3887
   90MOL0     H12369   7.889   2.205   4.401 -1.6701  4.6992  0.2318
   90MOL0     H12370   8.060   1.985   4.423  0.3868 -1.2803 -0.4348
   90MOL0     H12371   8.005   1.914   4.581  1.6517  0.6540  1.2320
   90MOL0     H12372   8.240   1.882   4.546 -1.5314 -0.7730  1.5351
   90MOL0     H12373   8.276   2.050   4.491  2.6438  0.8316  3.3872
   90MOL0     H12374   8.239   2.140   4.715 -1.6496 -0.9038  3.1406
   90MOL0     H12375   8.229   1.973   4.776 -1.3249 -0.1129 -1.4278
   90MOL0     H12376   8.452   1.926   4.673 -0.8249 -2.0847  2.9180
   90MOL0     H12377   8.473   2.100   4.658  3.1107 -1.8236  1.5158
   90MOL0     H12378   8.496   2.053   5.100  1.9150 -1.4141  3.2230
   90MOL0     H12379   8.751   2.055   5.285  0.2232 -0.5100  1.1803
   90MOL0     H12380   8.738   1.876   5.294  0.6603  1.7740  2.1447
   90MOL0     H12381   8.591   1.982   5.284 -1.0503 -1.9278 -1.1506
   90MOL0     H12382   8.994   1.645   5.216  1.0406 -1.5488  0.0966
   90MOL0     H12383   9.166   1.489   5.290 -2.9116 -0.6101 -1.8543
   90MOL0     H12384   9.563   1.480   5.067 -3.0606  0.5949 -1.0226
   90MOL0     H12385   9.568   1.602   5.201 -0.7165 -1.3555  1.9926
   90MOL0     H12386   9.614   1.308   5.222  1.5393 -0.4273  1.0169
   90MOL0     H12387   9.746   1.422   5.200  0.3977 -3.1118 -0.3828
   90MOL0     H12388   9.549   1.448   5.438  0.0002  3.1171  0.3568
   90MOL0     H12389   9.697   1.534   5.414  2.2558 -1.5099 -0.7471
   90MOL0     H12390   9.826   1.321   5.425  0.4726  0.7315  0.2113
   90MOL0     H12391   9.664   1.235   5.462 -1.1171  0.0845  4.0610
   90MOL0     H12392   9.777   1.456   5.634  0.8413 -0.6185  0.9807
   90MOL0     H12393   9.628   1.347   5.652 -0.5285 -3.0105 -3.0304
   90MOL0     H12394   9.914   1.238   5.633 -0.4573 -2.5767 -1.1206
   90MOL0     H12395   9.761   1.153   5.669 -0.8307  0.0465  0.8501
   90MOL0     H12396   9.751   1.330   5.858 -0.1169  0.2676 -0.9140
   90MOL0     H12397   9.927   1.323   5.854  1.2501 -0.9656 -0.3606
   90MOL0     H12398   9.932   1.078   5.886  0.5934  0.8586 -0.2582
   90MOL0     H12399   9.761   1.073   5.864  1.5547 -2.2095  0.0671
   90MOL0     H12400   9.435   1.630   4.985  0.7431  2.5263 -0.9165
   90MOL0     H12401   9.254   1.794   4.908 -3.1442  0.8623 -1.1811
   90MOL0     H12402   8.859   1.864   4.819  0.3694 -2.2878  1.2273
   90MOL0     H12403   8.668   1.944   4.708 -0.0614 -1.9727  1.0403
   90MOL0     H12404   7.118   3.299   4.621  0.2260 -0.0867 -1.1464
   90MOL0     H12405   6.885   3.386   4.665 -2.5597  0.0534 -0.4314
   90MOL0     H12406   6.470   3.535   4.524  3.4992 -1.3001  2.1439
   90MOL0     H12407   6.266   3.644   4.574 -0.1981  0.6270  1.4785
   90MOL0     H12408   6.011   3.682   4.649  1.0734 -1.4676 -3.8875
   90MOL0     H12409   6.024   3.523   4.591  4.6068  0.1686  0.7251
   90MOL0     H12410   5.832   3.615   4.810  0.3895 -4.0343  2.1443
   90MOL0     H12411   5.833   3.449   4.744  0.8824 -1.8097 -2.9373
   90MOL0     H12412   5.802   3.526   4.522  3.3156  0.9836  1.3467
   90MOL0     H12413   5.664   3.558   4.639 -0.2097  1.4293 -0.2367
   90MOL0     H12414   5.689   3.742   4.471 -2.7552  0.9039  1.0963
   90MOL0     H12415   5.858   3.751   4.519 -0.5339  0.2180 -0.3631
   90MOL0     H12416   5.610   3.944   4.834 -0.8320  2.1203 -0.9745
   90MOL0     H12417   6.185   3.331   4.853  0.0316  0.7878  1.5009
   90MOL0     H12418   6.420   3.097   4.725  0.9240  1.2578 -1.5369
   90MOL0     H12419   6.502   3.188   4.860 -0.7517 -1.0328  0.8679
   90MOL0     H12420   6.328   3.136   4.870  0.5876 -1.0127  1.6845
   91MOL0     O12421   6.916   9.282   4.341  0.3876 -0.8129 -0.7534
   91MOL0     C12422   6.923   9.161   4.325 -0.3084 -0.4269 -0.0203
   91MOL0     O12423   7.035   9.085   4.328  0.0780 -0.0612  0.7121
   91MOL0     C12424   7.153   9.142   4.268 -0.1970  0.5029  0.5631
   91MOL0     C12425   7.280   9.108   4.323 -0.1891 -0.4708  0.1289
   91MOL0     C12426   7.402   9.145   4.262  1.7491  0.1763  0.2698
   91MOL0     C12427   7.394   9.242   4.168  0.7841 -0.5411 -0.0098
   91MOL0     O12428   7.519   9.278   4.120 -0.0523  1.0203  0.1720
   91MOL0     C12429   7.525   9.365   4.001  0.5339 -0.3446 -0.4493
   91MOL0     C12430   7.667   9.392   3.956 -0.4248  0.8267  0.6830
   91MOL0     C12431   7.744   9.255   3.938  0.6135 -0.0920 -0.4002
   91MOL0     C12432   7.878   9.262   3.863  0.5032  0.2119  0.0314
   91MOL0     C12433   7.984   9.343   3.948 -0.2796 -0.2952  0.3178
   91MOL0     C12434   8.130   9.335   3.908 -0.0876  0.3554 -0.3812
   91MOL0     C12435   8.190   9.192   3.910  1.1826 -0.0025  0.3643
   91MOL0     C12436   8.342   9.220   3.918  0.1793  0.4983 -0.2420
   91MOL0     N12437   8.424   9.112   3.958  0.7367  0.3896  0.3145
   91MOL0     C12438   8.430   8.990   3.888  0.5200 -0.0247 -0.9786
   91MOL0     C12439   8.519   8.918   3.962  0.5189 -0.1430 -0.4941
   91MOL0     C12440   8.556   8.773   3.936  0.4705 -0.5928  0.5248
   91MOL0     C12441   8.688   8.765   3.864 -1.1122 -0.0584  1.2012
   91MOL0     C12442   8.748   8.624   3.853  0.5274 -0.2939  1.4046
   91MOL0     C12443   8.884   8.606   3.795  0.1942  0.8013  0.3268
   91MOL0     O12444   8.894   8.659   3.655 -0.3672  0.1973 -0.1494
   91MOL0     C12445   9.009   8.648   3.585  0.2693 -0.0718  0.2875
   91MOL0     C12446   9.022   8.726   3.470 -0.3121 -0.5584  0.7638
   91MOL0     C12447   9.136   8.733   3.391  0.5415 -0.2799 -0.6391
   91MOL0     C12448   9.137   8.830   3.282  0.4120  0.3493 -0.6773
   91MOL0     C12449   9.248   8.648   3.428 -0.8129 -0.3994  0.0926
   91MOL0     C12450   9.381   8.651   3.359  0.4705 -0.7375 -0.0999
   91MOL0     O12451   9.489   8.636   3.440 -0.6267 -0.0909  0.0756
   91MOL0     C12452   9.611   8.651   3.379  0.1621 -0.0637  0.3234
   91MOL0     C12453   9.658   8.763   3.304 -0.5957  0.5121 -1.0448
   91MOL0     C12454   9.785   8.763   3.233  0.9614  0.1629 -0.8599
   91MOL0     C12455   9.862   8.650   3.238  1.2653  0.3372  0.0215
   91MOL0     O12456   9.978   8.650   3.166 -0.8717 -0.0157 -0.3364
   91MOL0     C12457  10.066   8.766   3.178 -0.1336  0.0437 -0.3483
   91MOL0     C12458  10.206   8.736   3.122  0.5232  0.6056  0.5654
   91MOL0     C12459  10.320   8.825   3.171 -1.1476  0.2349  0.3185
   91MOL0     C12460  10.352   8.951   3.085 -0.5042  0.5599 -0.0288
   91MOL0     C12461  10.469   9.024   3.152  0.9785  0.3129 -0.3532
   91MOL0     C12462  10.523   9.139   3.067  0.3118  0.4742 -0.0148
   91MOL0     C12463  10.646   9.192   3.135  0.2903 -0.4009 -0.3667
   91MOL0     C12464  10.701   9.325   3.067  0.4184 -0.5258  0.2095
   91MOL0    Cl12465  10.851   9.385   3.133 -0.1936  0.3628  0.4763
   91MOL0     C12466   9.820   8.541   3.310 -0.5640  1.0128 -0.3884
   91MOL0     C12467   9.699   8.535   3.378 -0.4775  0.1147 -0.4013
   91MOL0     O12468   9.383   8.668   3.235 -0.4032  0.0576 -0.1196
   91MOL0     C12469   9.230   8.560   3.535  0.3489 -0.9160  0.4509
   91MOL0     C12470   9.117   8.568   3.612 -0.0161  0.6742  0.6326
   91MOL0     N12471   8.555   8.995   4.068 -0.1840 -1.0343  0.4841
   91MOL0     N12472   8.499   9.109   4.072  0.2894 -0.1117  0.1624
   91MOL0     C12473   7.273   9.282   4.114  0.9231  0.1263 -0.1222
   91MOL0     C12474   7.149   9.233   4.164 -0.4021 -1.3840 -0.2067
   91MOL0     C12475   6.807   9.081   4.331  0.7238  0.5486  0.0838
   91MOL0     C12476   6.793   8.988   4.432  0.0522  0.6874 -0.5195
   91MOL0     C12477   6.680   8.898   4.442 -0.1540  1.2161  0.3163
   91MOL0     C12478   6.586   8.890   4.337 -0.6003  0.0377 -0.7489
   91MOL0     O12479   6.489   8.796   4.345 -0.3850 -1.2085 -0.5840
   91MOL0     C12480   6.362   8.829   4.282  0.2731  0.0477 -0.2122
   91MOL0     C12481   6.273   8.703   4.307  0.1135 -0.7617  0.8630
   91MOL0     C12482   6.124   8.735   4.271  0.3608 -1.5408  0.5592
   91MOL0     C12483   6.111   8.766   4.119  0.3869  1.0709  0.6563
   91MOL0     C12484   6.139   8.647   4.042 -0.6307  0.5123 -0.4089
   91MOL0     C12485   6.159   8.531   4.008  0.7622  0.1392  0.2043
   91MOL0     C12486   6.604   8.976   4.237  0.0261 -0.5566 -0.2039
   91MOL0     C12487   6.714   9.074   4.224  0.1381  0.4420 -0.3313
   91MOL0     C12488   6.711   9.167   4.105  0.3311 -0.6173 -0.6677
   91MOL0     H12489   7.289   9.035   4.403 -4.6091 -2.4095 -0.8412
   91MOL0     H12490   7.496   9.099   4.289  0.0751 -2.8206  1.5471
   91MOL0     H12491   7.453   9.445   4.019  0.3369 -0.4046 -0.9494
   91MOL0     H12492   7.470   9.314   3.920 -0.5761  0.4577 -0.2296
   91MOL0     H12493   7.658   9.432   3.854 -0.6835 -0.0335  0.3567
   91MOL0     H12494   7.720   9.465   4.018  1.2039  1.3861 -1.2459
   91MOL0     H12495   7.762   9.216   4.038 -3.2448 -0.5319  0.3031
   91MOL0     H12496   7.682   9.188   3.878  1.3100 -0.3679 -0.8173
   91MOL0     H12497   7.906   9.157   3.846 -2.9120 -1.3123  2.7070
   91MOL0     H12498   7.858   9.314   3.769 -1.2633 -0.1205  0.1989
   91MOL0     H12499   7.976   9.312   4.053  1.1003 -1.6455  0.0600
   91MOL0     H12500   7.947   9.446   3.939  1.3964  0.8208  4.0648
   91MOL0     H12501   8.145   9.384   3.811 -2.1835  1.2711 -0.3091
   91MOL0     H12502   8.180   9.398   3.982  0.5057 -2.1432  1.4640
   91MOL0     H12503   8.157   9.133   3.824 -1.9603  0.3436  1.1861
   91MOL0     H12504   8.154   9.138   3.997 -1.0042 -0.9715 -1.0426
   91MOL0     H12505   8.373   9.253   3.818 -2.1741 -0.5146 -1.3934
   91MOL0     H12506   8.359   9.302   3.989 -0.4679 -0.0358  0.5503
   91MOL0     H12507   8.384   8.965   3.793  0.4575  1.0835 -1.2581
   91MOL0     H12508   8.481   8.722   3.875  0.5835  1.8405 -1.8886
   91MOL0     H12509   8.557   8.720   4.031  0.4657  0.5444  1.1763
   91MOL0     H12510   8.687   8.807   3.763  2.6867 -0.5625  0.7991
   91MOL0     H12511   8.764   8.810   3.930  1.0302 -0.1966 -1.0424
   91MOL0     H12512   8.737   8.568   3.946  1.5009 -1.3642  0.8895
   91MOL0     H12513   8.679   8.572   3.787 -1.1853  4.2105 -0.7729
   91MOL0     H12514   8.960   8.653   3.858  1.6122  0.8928 -1.3902
   91MOL0     H12515   8.902   8.498   3.801  1.8068  0.9740 -0.8142
   91MOL0     H12516   8.936   8.781   3.435 -1.5113 -2.4685  0.5519
   91MOL0     H12517   9.098   8.927   3.315  3.4354  1.3440  0.3516
   91MOL0     H12518   9.075   8.801   3.196 -1.4760  1.7272  0.1447
   91MOL0     H12519   9.236   8.841   3.236  0.3771  0.6053 -0.6926
   91MOL0     H12520   9.598   8.853   3.312  0.0864  0.9130 -0.2131
   91MOL0     H12521   9.823   8.845   3.173  1.1785  1.6792  1.2109
   91MOL0     H12522  10.017   8.844   3.119 -4.3826 -0.0291  2.6167
   91MOL0     H12523  10.087   8.789   3.283 -1.2620  0.1059 -0.1174
   91MOL0     H12524  10.232   8.631   3.141  0.8492 -0.2291 -3.4658
   91MOL0     H12525  10.188   8.743   3.014 -2.9626 -0.4104  0.9518
   91MOL0     H12526  10.417   8.775   3.166  1.1480  4.2864 -2.5259
   91MOL0     H12527  10.302   8.854   3.275  0.2801 -1.3068  1.0377
   91MOL0     H12528  10.257   9.007   3.089 -2.3789 -2.2756 -1.5443
   91MOL0     H12529  10.381   8.920   2.985 -3.1422  2.5062 -1.5363
   91MOL0     H12530  10.441   9.063   3.250  1.7453  1.1043 -0.4298
   91MOL0     H12531  10.548   8.949   3.158  0.4209 -0.2224  0.4135
   91MOL0     H12532  10.454   9.222   3.047  2.6431  2.6451  0.3261
   91MOL0     H12533  10.559   9.101   2.971 -0.0416  0.7945 -0.2783
   91MOL0     H12534  10.723   9.115   3.135 -0.3101 -1.0223  0.5478
   91MOL0     H12535  10.617   9.209   3.239  0.9198  2.1109 -0.5264
   91MOL0     H12536  10.629   9.407   3.079 -0.2939 -0.9100 -1.2512
   91MOL0     H12537  10.703   9.306   2.960  0.5482 -1.5930  0.3960
   91MOL0     H12538   9.892   8.461   3.323 -0.3750  1.2310 -0.0696
   91MOL0     H12539   9.668   8.444   3.429 -2.2368 -0.1503 -1.8344
   91MOL0     H12540   9.314   8.498   3.565 -0.1088 -1.2687  1.0338
   91MOL0     H12541   9.123   8.507   3.701 -0.7362 -0.3569 -0.0026
   91MOL0     H12542   7.282   9.353   4.032  1.9352  0.4313  0.2356
   91MOL0     H12543   7.058   9.273   4.122  1.4091  1.7805 -1.4626
   91MOL0     H12544   6.872   8.979   4.505  0.5004 -3.1326 -1.2986
   91MOL0     H12545   6.674   8.831   4.527  0.7020  3.0258  1.8787
   91MOL0     H12546   6.314   8.920   4.320  0.1282 -0.0386 -0.1860
   91MOL0     H12547   6.375   8.848   4.175  1.4297 -0.6718 -0.2181
   91MOL0     H12548   6.292   8.668   4.409 -0.5686 -1.7817  0.6489
   91MOL0     H12549   6.306   8.626   4.237  1.9211  1.6805 -1.1357
   91MOL0     H12550   6.057   8.660   4.314  1.8832 -1.3333  3.5336
   91MOL0     H12551   6.084   8.825   4.318  1.5728 -2.0951  2.7668
   91MOL0     H12552   6.181   8.841   4.082 -1.9432  2.3515 -1.4262
   91MOL0     H12553   6.009   8.801   4.103  0.8984  1.9802 -0.8920
   91MOL0     H12554   6.182   8.427   4.000  1.4140  0.1186  1.9410
   91MOL0     H12555   6.535   8.968   4.154 -4.7807  0.5044  3.2430
   91MOL0     H12556   6.633   9.242   4.120  1.5175  0.5019  0.1265
   91MOL0     H12557   6.801   9.229   4.100 -0.5637  0.7453 -0.1840
   91MOL0     H12558   6.683   9.127   4.007  1.5319  0.7706 -1.6306
   92MOL0     O12559   3.141   8.255   3.253  0.2753  0.3933 -0.3281
   92MOL0     C12560   3.171   8.350   3.330  0.2109 -0.6057 -0.6847
   92MOL0     O12561   3.084   8.418   3.408  0.5661  0.3172 -0.2057
   92MOL0     C12562   2.951   8.386   3.423  0.2081  0.5692  0.3841
   92MOL0     C12563   2.866   8.499   3.430 -0.1716 -0.3508  0.0885
   92MOL0     C12564   2.726   8.487   3.450  0.0607 -0.0256 -0.3505
   92MOL0     C12565   2.667   8.364   3.461 -0.4806  0.9890  0.1273
   92MOL0     O12566   2.533   8.357   3.491  0.2976 -0.0932 -1.6180
   92MOL0     C12567   2.496   8.255   3.582 -0.0607  0.2546  0.1456
   92MOL0     C12568   2.548   8.270   3.725 -1.2008  1.1318  0.7640
   92MOL0     C12569   2.516   8.397   3.791  0.1830 -0.2825 -0.0158
   92MOL0     C12570   2.540   8.391   3.943  0.0480 -0.4841 -0.1268
   92MOL0     C12571   2.509   8.521   4.026 -0.3977  1.1394  0.8573
   92MOL0     C12572   2.369   8.580   3.987 -0.2259  0.2825 -0.7726
   92MOL0     C12573   2.345   8.709   4.055  0.6915  0.4719 -0.5330
   92MOL0     C12574   2.200   8.765   4.012  0.1304 -0.3834  0.0065
   92MOL0     N12575   2.163   8.886   4.088  0.0818  0.3605 -0.2033
   92MOL0     C12576   2.251   8.988   4.122  0.8410 -0.2270 -0.9864
   92MOL0     C12577   2.188   9.080   4.198 -0.0477 -0.1870  0.4621
   92MOL0     C12578   2.229   9.207   4.261 -0.6583  0.1355  0.5126
   92MOL0     C12579   2.304   9.296   4.158  0.4201 -0.4690 -0.2984
   92MOL0     C12580   2.336   9.430   4.224 -0.1337 -0.5507  0.5948
   92MOL0     C12581   2.368   9.542   4.118 -0.2917  0.7152  0.4131
   92MOL0     O12582   2.480   9.503   4.031  0.3700 -0.4178  0.7224
   92MOL0     C12583   2.612   9.521   4.066 -0.1735 -0.0097  0.9364
   92MOL0     C12584   2.699   9.451   3.980 -0.4079 -0.6362 -0.3205
   92MOL0     C12585   2.836   9.433   4.006 -0.1478 -0.0678  0.0418
   92MOL0     C12586   2.908   9.356   3.902  0.6560  0.5413 -0.7446
   92MOL0     C12587   2.884   9.490   4.133  0.6312  0.2241  0.0387
   92MOL0     C12588   3.023   9.479   4.173  0.3477 -0.3999  0.0427
   92MOL0     O12589   3.118   9.449   4.075  0.5222 -0.1466  0.0471
   92MOL0     C12590   3.248   9.465   4.111  0.5908 -0.7794 -0.0552
   92MOL0     C12591   3.293   9.553   4.208  0.0494 -0.0390  0.2667
   92MOL0     C12592   3.428   9.571   4.206 -0.7811 -0.6722 -0.3309
   92MOL0     C12593   3.527   9.509   4.122 -0.0081 -0.6300 -0.5211
   92MOL0     O12594   3.651   9.547   4.144  0.0247 -0.0603 -0.0857
   92MOL0     C12595   3.764   9.498   4.068  1.3037  0.0050 -0.6286
   92MOL0     C12596   3.881   9.584   4.105 -0.5690  0.0413 -0.1019
   92MOL0     C12597   3.847   9.739   4.102 -0.9430  0.5787  0.3411
   92MOL0     C12598   3.805   9.797   3.971  0.1137 -0.7726 -0.7688
   92MOL0     C12599   3.769   9.947   3.965 -0.2498 -0.4777 -0.4004
   92MOL0     C12600   3.695   9.970   3.837  0.1841  0.6938  0.6282
   92MOL0     C12601   3.771   9.943   3.709  0.8446 -0.4745  0.0231
   92MOL0     C12602   3.685  10.006   3.594  0.3000  1.6273 -0.9496
   92MOL0    Cl12603   3.520   9.941   3.582 -0.4181 -0.0778 -0.1540
   92MOL0     C12604   3.479   9.420   4.029  0.0668  1.0605 -0.3525
   92MOL0     C12605   3.340   9.398   4.024 -0.4835  0.0018  0.0478
   92MOL0     O12606   3.036   9.461   4.294 -0.4942  0.3684 -0.4185
   92MOL0     C12607   2.800   9.566   4.211 -0.6814 -0.0975 -0.5269
   92MOL0     C12608   2.661   9.583   4.179 -0.1025 -0.6368  1.0731
   92MOL0     N12609   2.058   9.039   4.202 -0.4895 -0.5710  0.1610
   92MOL0     N12610   2.050   8.918   4.146  0.4938  0.1233 -0.2232
   92MOL0     C12611   2.751   8.247   3.446  0.4608  0.7503  0.6252
   92MOL0     C12612   2.890   8.255   3.434  0.0521  0.3752  0.5077
   92MOL0     C12613   3.314   8.405   3.320  0.9878 -0.2531 -1.1127
   92MOL0     C12614   3.343   8.515   3.404 -0.3792  0.1599  0.5616
   92MOL0     C12615   3.460   8.579   3.392 -0.2601 -0.1521  0.2893
   92MOL0     C12616   3.563   8.534   3.317 -0.8568  0.8644 -0.3486
   92MOL0     O12617   3.681   8.601   3.338 -0.5569 -0.1183 -0.0101
   92MOL0     C12618   3.791   8.584   3.245  0.1489 -0.1811 -0.2298
   92MOL0     C12619   3.914   8.639   3.311  0.2296  0.3170 -0.0225
   92MOL0     C12620   4.029   8.640   3.208 -0.7822 -0.3375 -0.5213
   92MOL0     C12621   4.096   8.510   3.163  0.6906  0.0869  0.2151
   92MOL0     C12622   4.095   8.407   3.267 -0.5015  0.3595 -0.2180
   92MOL0     C12623   4.107   8.321   3.356  0.0033 -0.7695  0.1733
   92MOL0     C12624   3.549   8.405   3.253 -0.0937 -0.2985  0.2432
   92MOL0     C12625   3.420   8.345   3.244  0.3143  0.0080 -0.8886
   92MOL0     C12626   3.412   8.211   3.161  0.7008 -0.7332  0.5219
   92MOL0     H12627   2.906   8.598   3.411  1.4710 -1.3277 -1.8396
   92MOL0     H12628   2.676   8.581   3.471  2.1954  0.6419  2.4012
   92MOL0     H12629   2.516   8.156   3.540  0.5699  0.5644 -0.3196
   92MOL0     H12630   2.387   8.258   3.583 -0.0824  3.7263  2.0061
   92MOL0     H12631   2.506   8.185   3.779 -1.1798 -0.4809 -1.6195
   92MOL0     H12632   2.657   8.270   3.735 -1.1491  1.4741  0.2638
   92MOL0     H12633   2.576   8.474   3.742  2.1239 -1.4626  0.3818
   92MOL0     H12634   2.411   8.420   3.772  0.6571  0.7272 -1.6013
   92MOL0     H12635   2.468   8.315   3.974 -1.9234  0.9987 -0.8572
   92MOL0     H12636   2.642   8.354   3.952  0.5238  0.9082  0.4661
   92MOL0     H12637   2.584   8.598   4.005 -2.0329  2.7047  0.4965
   92MOL0     H12638   2.526   8.492   4.130  0.7267 -1.0068  0.1305
   92MOL0     H12639   2.348   8.580   3.880  0.2972  2.7397 -0.9380
   92MOL0     H12640   2.304   8.506   4.034  0.6375  0.4552  0.7594
   92MOL0     H12641   2.428   8.779   4.038  1.0148  0.5347  1.1455
   92MOL0     H12642   2.333   8.706   4.163  0.7446 -1.7019 -0.5485
   92MOL0     H12643   2.204   8.788   3.905 -1.5692 -0.4784 -0.1026
   92MOL0     H12644   2.124   8.688   4.026  1.6896 -2.4969 -2.2167
   92MOL0     H12645   2.360   8.989   4.114  0.9950 -0.8899  0.6532
   92MOL0     H12646   2.303   9.189   4.340  0.4750  3.8161  0.4405
   92MOL0     H12647   2.145   9.264   4.302 -1.3533 -0.2098 -0.3996
   92MOL0     H12648   2.388   9.240   4.117  0.2325 -1.1543  0.2188
   92MOL0     H12649   2.227   9.308   4.081 -1.5155  1.0315  1.7370
   92MOL0     H12650   2.252   9.463   4.285  0.7599  0.5316  1.2767
   92MOL0     H12651   2.423   9.407   4.286  0.5659 -3.4870 -1.2845
   92MOL0     H12652   2.283   9.553   4.049 -0.3238 -1.1248  0.1159
   92MOL0     H12653   2.372   9.639   4.168 -1.0473  1.7348 -1.3699
   92MOL0     H12654   2.655   9.416   3.887  0.2263 -0.8607 -0.5376
   92MOL0     H12655   2.941   9.265   3.954  2.0676  0.5722 -1.5299
   92MOL0     H12656   2.995   9.414   3.870  0.3828  0.1387 -2.2764
   92MOL0     H12657   2.844   9.349   3.814 -2.5921 -1.5430  1.5250
   92MOL0     H12658   3.228   9.610   4.273  0.8972  2.2863 -0.8072
   92MOL0     H12659   3.472   9.648   4.268 -0.0324 -0.1092 -1.5114
   92MOL0     H12660   3.778   9.391   4.086 -3.3010 -1.0916 -2.1925
   92MOL0     H12661   3.738   9.506   3.962 -1.7718 -1.0539 -0.0793
   92MOL0     H12662   3.917   9.556   4.205 -2.6680 -1.8501  0.1867
   92MOL0     H12663   3.964   9.561   4.037 -0.4556  0.4079 -0.0922
   92MOL0     H12664   3.943   9.787   4.126 -0.5994 -0.0072  0.1733
   92MOL0     H12665   3.783   9.761   4.188  0.7937 -2.9530  2.7874
   92MOL0     H12666   3.720   9.737   3.935 -1.9586 -0.8750  3.6355
   92MOL0     H12667   3.883   9.786   3.895 -0.6398  0.9783 -1.8521
   92MOL0     H12668   3.697   9.975   4.042  3.8036  4.1580  2.2709
   92MOL0     H12669   3.860  10.007   3.957 -1.0659  0.8456  0.0319
   92MOL0     H12670   3.659  10.073   3.841 -3.4535 -0.3794 -0.5019
   92MOL0     H12671   3.606   9.906   3.834  0.2241  0.6389 -2.8456
   92MOL0     H12672   3.790   9.836   3.710  0.8938 -0.5881 -3.1752
   92MOL0     H12673   3.862  10.004   3.705  2.2390 -2.3036  1.9868
   92MOL0     H12674   3.737   9.987   3.499 -1.4301 -1.8577 -1.3698
   92MOL0     H12675   3.671  10.112   3.613 -1.6253  1.0649  1.2849
   92MOL0     H12676   3.546   9.363   3.966  0.2539  0.2339  0.5781
   92MOL0     H12677   3.306   9.316   3.962  1.3797 -1.2773  0.6325
   92MOL0     H12678   2.834   9.606   4.306  0.5764 -1.7166 -0.2466
   92MOL0     H12679   2.590   9.639   4.239 -1.5504 -1.2212 -0.0284
   92MOL0     H12680   2.697   8.153   3.449 -3.4504  2.6316 -2.0524
   92MOL0     H12681   2.962   8.175   3.422  1.0708  1.4721 -1.1992
   92MOL0     H12682   3.270   8.553   3.475  0.2192  3.1090 -0.2731
   92MOL0     H12683   3.457   8.680   3.432 -1.3028 -0.0235 -0.0656
   92MOL0     H12684   3.810   8.478   3.225  0.5801 -0.5262  1.8070
   92MOL0     H12685   3.766   8.626   3.147 -2.1312 -0.4704  0.1643
   92MOL0     H12686   3.930   8.585   3.405  1.1909 -0.9904 -0.8941
   92MOL0     H12687   3.896   8.741   3.345  0.0003 -0.4948  2.5031
   92MOL0     H12688   3.986   8.688   3.119  0.3268  1.7859  0.0106
   92MOL0     H12689   4.110   8.706   3.240 -2.0405 -0.7041  4.1413
   92MOL0     H12690   4.198   8.539   3.137  0.6954 -0.3994 -0.3208
   92MOL0     H12691   4.048   8.472   3.072 -0.0632  1.7626 -0.1395
   92MOL0     H12692   4.114   8.243   3.429  1.0633 -1.2079 -0.3688
   92MOL0     H12693   3.630   8.345   3.213  2.0284  2.4038  0.1539
   92MOL0     H12694   3.506   8.166   3.128 -1.0625 -3.4134 -1.2174
   92MOL0     H12695   3.373   8.144   3.238 -2.3364 -0.1417 -0.3726
   92MOL0     H12696   3.334   8.214   3.084 -1.0817  0.7438  2.2846
   93MOL0     O12697   7.588   1.256   9.009 -0.4843 -0.6580  0.3265
   93MOL0     C12698   7.476   1.268   8.959 -0.8614 -0.2847  0.2546
   93MOL0     O12699   7.449   1.247   8.826 -0.2041  0.5008 -0.6667
   93MOL0     C12700   7.548   1.177   8.752  0.3016  0.4982  0.4025
   93MOL0     C12701   7.558   1.039   8.758 -0.8346 -0.4986 -0.4504
   93MOL0     C12702   7.671   0.974   8.707  0.4267  0.5002 -0.7801
   93MOL0     C12703   7.764   1.044   8.639  0.0835 -0.2593  0.1964
   93MOL0     O12704   7.861   0.970   8.581  0.1462 -0.5212 -0.4268
   93MOL0     C12705   7.965   1.040   8.516  0.4402  0.2587 -0.1140
   93MOL0     C12706   8.050   0.933   8.458 -0.2316 -0.3012 -0.6307
   93MOL0     C12707   8.154   1.006   8.370 -0.2625  0.3185 -0.1206
   93MOL0     C12708   8.260   0.910   8.298  0.9574  0.2754 -0.4678
   93MOL0     C12709   8.364   0.872   8.408  0.2402 -0.1320  0.4592
   93MOL0     C12710   8.461   0.770   8.357  0.4386 -0.1827 -0.7135
   93MOL0     C12711   8.575   0.738   8.467  0.9121 -0.6714 -0.1077
   93MOL0     C12712   8.659   0.863   8.505  0.1439  0.7498 -0.2452
   93MOL0     N12713   8.725   0.944   8.400  0.6833 -0.3786  0.1482
   93MOL0     C12714   8.784   0.895   8.284  0.5626 -0.7185 -0.0410
   93MOL0     C12715   8.854   1.001   8.227 -0.3277  0.4545 -0.2508
   93MOL0     C12716   8.929   0.993   8.094 -0.0368  0.6146  0.2716
   93MOL0     C12717   9.075   0.961   8.089 -0.8826 -0.5623 -0.3495
   93MOL0     C12718   9.147   0.994   7.950 -0.4178 -0.0654 -0.4438
   93MOL0     C12719   9.276   1.076   7.978 -0.2466  0.1752 -1.2952
   93MOL0     O12720   9.347   1.090   7.851  0.4477  0.7561  0.0124
   93MOL0     C12721   9.480   1.073   7.839  0.0982 -0.2463  0.1052
   93MOL0     C12722   9.568   1.115   7.943  0.4460 -0.5549 -0.3149
   93MOL0     C12723   9.704   1.094   7.934 -0.4150  0.2441 -0.1025
   93MOL0     C12724   9.799   1.143   8.035  0.8337  0.1942  0.2864
   93MOL0     C12725   9.767   1.026   7.823  0.5678 -0.4070  0.0660
   93MOL0     C12726   9.906   0.990   7.810 -0.3741  0.8596 -1.0168
   93MOL0     O12727   9.955   0.969   7.687  0.0974  0.4239 -0.0255
   93MOL0     C12728  10.082   0.921   7.684  0.0318 -0.1590  0.4219
   93MOL0     C12729  10.185   1.018   7.697 -0.1835  0.2005 -0.6343
   93MOL0     C12730  10.323   0.977   7.695  0.3024 -0.7685 -0.5529
   93MOL0     C12731  10.355   0.845   7.673  0.2079 -0.4301  0.1134
   93MOL0     O12732  10.487   0.820   7.649  0.6797 -0.3229  0.2499
   93MOL0     C12733  10.536   0.697   7.583 -0.6203  0.0166  0.2762
   93MOL0     C12734  10.678   0.711   7.516  0.3838  0.2760  0.1187
   93MOL0     C12735  10.792   0.752   7.606 -0.6953 -0.4253 -0.3803
   93MOL0     C12736  10.929   0.746   7.542 -0.5131 -1.0499  0.5315
   93MOL0     C12737  11.034   0.761   7.646  0.2236 -1.0453  0.3801
   93MOL0     C12738  11.172   0.759   7.582  0.1681  0.4942  0.0285
   93MOL0     C12739  11.284   0.725   7.688 -0.6127 -0.4013 -0.2985
   93MOL0     C12740  11.392   0.644   7.614  0.6255 -0.3142  0.6289
   93MOL0    Cl12741  11.476   0.757   7.503 -0.5230  0.3114  0.1081
   93MOL0     C12742  10.253   0.743   7.665 -0.3162 -0.3966 -0.2887
   93MOL0     C12743  10.123   0.783   7.683 -0.1568  0.1321  0.6475
   93MOL0     O12744   9.967   0.957   7.913  0.3245 -0.4997  0.1748
   93MOL0     C12745   9.672   0.984   7.724 -0.1601 -0.6553 -0.4856
   93MOL0     C12746   9.531   1.009   7.727 -0.5089  0.3015  0.1177
   93MOL0     N12747   8.834   1.108   8.314 -0.1899  0.3030  0.9722
   93MOL0     N12748   8.753   1.072   8.409  0.6503 -0.3551 -0.1518
   93MOL0     C12749   7.750   1.182   8.621  0.0246  0.7475 -0.4633
   93MOL0     C12750   7.635   1.243   8.668  0.5137 -0.7216 -0.0305
   93MOL0     C12751   7.348   1.303   9.036 -0.3393 -0.1879 -0.7036
   93MOL0     C12752   7.230   1.334   8.966 -1.1962 -0.4448 -0.4259
   93MOL0     C12753   7.117   1.355   9.039  0.3173 -0.6003  0.0655
   93MOL0     C12754   7.111   1.333   9.176 -0.6054 -0.6332 -0.2492
   93MOL0     O12755   7.001   1.368   9.253 -0.1171  0.0211 -0.2969
   93MOL0     C12756   6.899   1.449   9.211 -0.6815  0.5231  0.5570
   93MOL0     C12757   6.773   1.437   9.293  0.0376 -0.4485 -0.1248
   93MOL0     C12758   6.666   1.525   9.230 -0.6233 -0.8333  0.3415
   93MOL0     C12759   6.546   1.512   9.309  0.4485 -0.0417 -0.1849
   93MOL0     C12760   6.433   1.580   9.246 -1.1097  0.5118 -0.2000
   93MOL0     C12761   6.343   1.622   9.182  0.0022 -0.5310 -1.4160
   93MOL0     C12762   7.218   1.281   9.237  0.0220 -0.8895 -0.5612
   93MOL0     C12763   7.344   1.282   9.178  0.5083 -0.5453  0.0168
   93MOL0     C12764   7.457   1.261   9.264 -0.1527 -0.2795 -0.6657
   93MOL0     H12765   7.500   0.977   8.826  1.1852  0.7864  2.6692
   93MOL0     H12766   7.691   0.869   8.726  4.2642  1.5150  2.1231
   93MOL0     H12767   8.026   1.094   8.589  0.5078  0.7610 -0.5329
   93MOL0     H12768   7.920   1.105   8.440 -1.0601 -0.4684  0.1334
   93MOL0     H12769   8.106   0.888   8.540 -2.1679  2.0675  2.1776
   93MOL0     H12770   7.996   0.855   8.404  2.9793 -3.4626  0.3541
   93MOL0     H12771   8.090   1.049   8.293  0.9926  1.5100 -0.5529
   93MOL0     H12772   8.207   1.088   8.420  0.4233 -1.4469  2.1923
   93MOL0     H12773   8.222   0.817   8.256  2.4550 -0.8299  0.5226
   93MOL0     H12774   8.309   0.959   8.212 -0.1853  0.2291 -1.1655
   93MOL0     H12775   8.311   0.833   8.495  3.1996  0.0106  2.4839
   93MOL0     H12776   8.421   0.962   8.433  1.4603  0.2679 -3.1996
   93MOL0     H12777   8.412   0.675   8.332  2.2415 -1.3912  0.1183
   93MOL0     H12778   8.520   0.808   8.274  3.9699 -0.0367  1.6378
   93MOL0     H12779   8.634   0.652   8.434  0.8959 -2.1086  3.1946
   93MOL0     H12780   8.522   0.690   8.550 -1.1605 -0.7883 -1.4448
   93MOL0     H12781   8.601   0.917   8.581 -0.3207 -2.1695  1.6243
   93MOL0     H12782   8.738   0.811   8.558 -1.5071 -0.2176  1.3854
   93MOL0     H12783   8.774   0.795   8.244 -0.9299 -0.9636  0.8745
   93MOL0     H12784   8.915   1.092   8.050  2.7507  0.1229 -2.0636
   93MOL0     H12785   8.875   0.916   8.038  0.6658 -1.7559  2.6500
   93MOL0     H12786   9.126   1.016   8.169  1.0899  0.6223 -2.3151
   93MOL0     H12787   9.095   0.856   8.110  3.7924  0.3681  0.8577
   93MOL0     H12788   9.178   0.909   7.889  2.4086  1.0912 -0.7943
   93MOL0     H12789   9.088   1.042   7.872 -1.4103 -1.6346 -0.6856
   93MOL0     H12790   9.250   1.172   8.024 -0.3008 -0.6462  0.4778
   93MOL0     H12791   9.341   1.017   8.044  0.4301  0.0271 -2.0808
   93MOL0     H12792   9.529   1.163   8.033  0.1423 -2.3362  0.5365
   93MOL0     H12793   9.824   1.064   8.107 -1.3496 -0.5735  0.2840
   93MOL0     H12794   9.741   1.215   8.094  1.4645  1.1646 -0.2483
   93MOL0     H12795   9.888   1.182   7.985 -1.0030  1.3286 -2.3169
   93MOL0     H12796  10.149   1.120   7.685  0.1303  0.3524 -0.2924
   93MOL0     H12797  10.402   1.051   7.692  0.5947 -1.0168  0.5178
   93MOL0     H12798  10.546   0.611   7.650 -0.8463  0.1660  0.5037
   93MOL0     H12799  10.461   0.669   7.508  0.7896 -1.3447 -0.6799
   93MOL0     H12800  10.707   0.614   7.476  2.3506  0.9751 -0.2656
   93MOL0     H12801  10.678   0.785   7.436 -1.2545 -0.3878 -0.5407
   93MOL0     H12802  10.791   0.671   7.679 -1.4751 -1.3315 -1.3559
   93MOL0     H12803  10.780   0.852   7.650  1.0001 -0.3706 -0.0057
   93MOL0     H12804  10.943   0.829   7.471 -1.4650 -0.9795  0.4179
   93MOL0     H12805  10.952   0.656   7.485  3.7414 -0.3916  0.8508
   93MOL0     H12806  11.017   0.860   7.689  0.5039 -1.1321  0.6957
   93MOL0     H12807  11.019   0.681   7.720 -0.7942  0.0276  1.3724
   93MOL0     H12808  11.186   0.851   7.524 -0.5814 -1.4501 -3.5094
   93MOL0     H12809  11.179   0.687   7.501  2.3511  1.4939 -0.7375
   93MOL0     H12810  11.242   0.665   7.769  0.5584  0.6484  1.1432
   93MOL0     H12811  11.341   0.804   7.739 -0.8269 -0.7360  0.4666
   93MOL0     H12812  11.345   0.563   7.557  2.7957 -0.8525 -0.4947
   93MOL0     H12813  11.453   0.597   7.691  0.0571 -0.4411  1.0145
   93MOL0     H12814  10.272   0.636   7.654  0.8880 -0.1724 -0.5822
   93MOL0     H12815  10.041   0.711   7.678 -0.4700  0.5233 -0.0959
   93MOL0     H12816   9.711   0.941   7.633 -2.2496 -1.1468 -1.2219
   93MOL0     H12817   9.475   0.966   7.645 -2.1473  1.7695  0.4125
   93MOL0     H12818   7.819   1.252   8.575  1.5248  1.7820  2.9733
   93MOL0     H12819   7.620   1.351   8.662 -0.1176 -0.8725 -3.3108
   93MOL0     H12820   7.238   1.348   8.859  2.7053 -1.5834 -0.4099
   93MOL0     H12821   7.033   1.401   8.988  0.4117  0.9658  1.2396
   93MOL0     H12822   6.922   1.555   9.204 -1.1714  0.5244 -1.7862
   93MOL0     H12823   6.865   1.411   9.114  2.6182 -1.6609  0.0992
   93MOL0     H12824   6.787   1.493   9.386 -2.5916  0.9962 -0.5122
   93MOL0     H12825   6.735   1.337   9.314  3.4034 -1.3069  2.7880
   93MOL0     H12826   6.702   1.628   9.241  0.2378 -1.1943  0.9645
   93MOL0     H12827   6.642   1.502   9.126 -3.7146 -2.9374  1.3807
   93MOL0     H12828   6.564   1.553   9.409  0.8061 -0.2851 -0.1470
   93MOL0     H12829   6.525   1.406   9.328  1.5858 -0.1071  0.8730
   93MOL0     H12830   6.265   1.659   9.119 -0.0459  0.3592 -0.8516
   93MOL0     H12831   7.204   1.254   9.341 -0.3003 -0.6339 -0.5389
   93MOL0     H12832   7.429   1.288   9.366  1.7571 -3.0243  0.6991
   93MOL0     H12833   7.492   1.158   9.268 -2.2373 -0.9995  0.3237
   93MOL0     H12834   7.541   1.328   9.242 -0.9354  1.0894  0.3273
   94MOL0     O12835   0.424   2.367   5.669  0.1105  0.1413 -0.4653
   94MOL0     C12836   0.337   2.288   5.659  0.2111  0.6454 -0.1115
   94MOL0     O12837   0.347   2.155   5.664 -0.5615  0.3574 -0.7153
   94MOL0     C12838   0.460   2.097   5.726  0.6233  0.1830 -0.7673
   94MOL0     C12839   0.552   2.153   5.829  0.1291 -0.2318 -0.2462
   94MOL0     C12840   0.673   2.081   5.847 -0.3891  0.5196  0.8058
   94MOL0     C12841   0.710   1.962   5.781  0.8663 -0.1141  0.7205
   94MOL0     O12842   0.825   1.898   5.819  0.0321 -0.2618  0.5935
   94MOL0     C12843   0.862   1.767   5.753 -0.0310  0.0194 -1.0379
   94MOL0     C12844   0.980   1.703   5.817 -0.2236 -0.1540 -0.1948
   94MOL0     C12845   1.010   1.557   5.772 -0.1371 -0.6027 -0.1570
   94MOL0     C12846   1.126   1.491   5.838  0.4292 -1.0711  0.2354
   94MOL0     C12847   1.101   1.336   5.805  0.0685 -0.7404  0.5698
   94MOL0     C12848   1.204   1.235   5.850 -0.0169 -0.0758 -0.3263
   94MOL0     C12849   1.213   1.219   6.003  0.2633 -0.0205  0.2396
   94MOL0     C12850   1.289   1.093   6.047  0.3417 -0.1123 -0.4447
   94MOL0     N12851   1.420   1.073   5.988 -0.9904  0.3558  0.3027
   94MOL0     C12852   1.534   1.154   6.002  0.4983 -0.4913 -0.0492
   94MOL0     C12853   1.620   1.118   5.910 -0.0868  0.3746  0.6410
   94MOL0     C12854   1.754   1.177   5.881 -0.2569 -0.3516 -0.1018
   94MOL0     C12855   1.857   1.104   5.979  0.0205 -0.5374 -0.1156
   94MOL0     C12856   1.878   1.152   6.132 -0.5084  0.0458 -0.5709
   94MOL0     C12857   1.914   1.304   6.143 -1.2891 -0.1112  0.4658
   94MOL0     O12858   2.036   1.324   6.068 -0.0233 -0.0795 -0.2360
   94MOL0     C12859   2.093   1.448   6.057 -0.2634  0.2110 -0.4327
   94MOL0     C12860   2.192   1.463   5.964 -1.3485  0.7417  0.4935
   94MOL0     C12861   2.268   1.580   5.943  0.0608  0.0911  0.6211
   94MOL0     C12862   2.379   1.565   5.843  0.4838 -0.3749 -0.0078
   94MOL0     C12863   2.235   1.692   6.016  0.2467 -1.1741 -0.2827
   94MOL0     C12864   2.304   1.821   6.012 -0.4893 -0.3744 -1.1552
   94MOL0     O12865   2.418   1.836   5.949  0.4931 -0.9289 -0.5918
   94MOL0     C12866   2.515   1.928   5.974  0.6095 -0.6249 -0.2908
   94MOL0     C12867   2.607   1.945   5.866  1.2759 -0.1109 -1.1944
   94MOL0     C12868   2.727   2.009   5.887  0.6736  0.7602 -0.2146
   94MOL0     C12869   2.756   2.057   6.016 -1.1141  0.0863 -0.1269
   94MOL0     O12870   2.875   2.122   6.051  0.1296 -0.2149  0.4060
   94MOL0     C12871   2.987   2.094   5.962  0.4430 -0.2822 -0.1081
   94MOL0     C12872   3.112   2.153   6.030  0.2420  0.7301  1.0431
   94MOL0     C12873   3.220   2.183   5.926 -0.8471  0.7313 -0.0493
   94MOL0     C12874   3.316   2.060   5.910 -0.0202 -0.2140 -0.5794
   94MOL0     C12875   3.423   2.070   5.801  0.3362 -0.1807 -0.8750
   94MOL0     C12876   3.478   2.202   5.767  0.4775 -0.4148  0.4116
   94MOL0     C12877   3.599   2.175   5.679 -0.7963 -0.1901  0.1118
   94MOL0     C12878   3.584   2.212   5.533  0.6956 -0.4615 -0.0401
   94MOL0    Cl12879   3.477   2.089   5.460 -0.0205  0.2965  0.0437
   94MOL0     C12880   2.663   2.048   6.117  0.6889 -0.5857  0.2505
   94MOL0     C12881   2.537   1.993   6.103 -0.3802 -0.9864  0.4687
   94MOL0     O12882   2.249   1.913   6.071 -0.9643 -0.2616 -0.3631
   94MOL0     C12883   2.125   1.682   6.106 -0.1312  0.1338  0.6823
   94MOL0     C12884   2.055   1.560   6.124  0.4318 -0.5352  0.3643
   94MOL0     N12885   1.565   1.015   5.837 -0.7883 -0.4141 -0.0469
   94MOL0     N12886   1.448   0.992   5.887 -0.1467  0.0326 -0.0833
   94MOL0     C12887   0.620   1.913   5.686 -0.6278  0.1891  0.2655
   94MOL0     C12888   0.497   1.976   5.663 -0.4783  0.1985 -0.0253
   94MOL0     C12889   0.200   2.347   5.661  0.0965 -0.2174  0.3442
   94MOL0     C12890   0.187   2.485   5.643 -0.6074  0.6853  0.8725
   94MOL0     C12891   0.065   2.551   5.626 -0.1439 -0.2063  0.7162
   94MOL0     C12892  -0.055   2.476   5.649 -0.3259  0.0537  0.0292
   94MOL0     O12893  -0.184   2.528   5.633  1.0277  0.1745 -0.0821
   94MOL0     C12894  -0.214   2.670   5.638 -0.1273  0.4919  1.1321
   94MOL0     C12895  -0.363   2.669   5.691 -0.1079  0.1068 -0.3102
   94MOL0     C12896  -0.466   2.621   5.586 -0.3119  0.6353  0.8212
   94MOL0     C12897  -0.610   2.635   5.626  0.0623  0.8555  0.3391
   94MOL0     C12898  -0.662   2.548   5.730 -0.3173 -0.3520  0.2762
   94MOL0     C12899  -0.719   2.483   5.814 -0.8235 -0.0520 -0.2528
   94MOL0     C12900  -0.044   2.337   5.671 -0.0983  0.2868 -0.9268
   94MOL0     C12901   0.080   2.282   5.691 -0.6611  0.3687  0.0915
   94MOL0     C12902   0.087   2.126   5.724 -0.9483  0.0799  0.3251
   94MOL0     H12903   0.552   2.247   5.882  0.7500 -1.3374  1.8282
   94MOL0     H12904   0.728   2.123   5.931 -1.2949  3.3698  0.0895
   94MOL0     H12905   0.880   1.798   5.649 -0.5337 -3.7583 -2.4003
   94MOL0     H12906   0.774   1.702   5.763 -0.7856  0.9424 -1.4691
   94MOL0     H12907   1.068   1.763   5.790 -1.5237  1.9590 -0.0179
   94MOL0     H12908   0.984   1.700   5.926  3.3259 -1.6339 -0.2168
   94MOL0     H12909   0.912   1.510   5.782 -0.9420  0.7936 -1.0609
   94MOL0     H12910   1.025   1.566   5.664 -0.3466  1.2801 -0.0616
   94MOL0     H12911   1.209   1.519   5.773 -0.1574 -0.6240 -0.3412
   94MOL0     H12912   1.126   1.512   5.945 -2.2717  0.3430  0.0598
   94MOL0     H12913   1.085   1.326   5.697  3.8588  0.5079 -0.2690
   94MOL0     H12914   1.011   1.314   5.862 -0.4854 -1.5070 -0.5537
   94MOL0     H12915   1.189   1.144   5.790 -0.0741  0.7543 -1.6209
   94MOL0     H12916   1.302   1.272   5.820 -0.5268  0.7965 -0.9781
   94MOL0     H12917   1.114   1.218   6.049 -0.9145 -0.6441 -2.1222
   94MOL0     H12918   1.265   1.309   6.039  1.8867 -0.2455 -1.3740
   94MOL0     H12919   1.299   1.101   6.156 -5.3461 -2.0015  0.5582
   94MOL0     H12920   1.229   1.004   6.023 -4.3691  2.0825  1.8071
   94MOL0     H12921   1.546   1.233   6.075  0.4431 -1.2968  0.8639
   94MOL0     H12922   1.750   1.286   5.881  2.3930 -0.1047  2.3226
   94MOL0     H12923   1.778   1.152   5.777  0.0356 -0.8010  0.0676
   94MOL0     H12924   1.823   1.001   5.987  1.1650 -0.8206  1.7766
   94MOL0     H12925   1.955   1.103   5.929  1.0372  1.9307  1.6121
   94MOL0     H12926   1.787   1.135   6.189 -0.1537 -0.4669 -0.1526
   94MOL0     H12927   1.961   1.092   6.169 -0.9570 -0.7472 -0.8246
   94MOL0     H12928   1.841   1.372   6.097  0.4087 -0.2552 -2.6633
   94MOL0     H12929   1.931   1.338   6.246 -0.5114  1.9180 -0.2739
   94MOL0     H12930   2.211   1.375   5.905 -0.0680  0.5732  1.0998
   94MOL0     H12931   2.405   1.461   5.824  1.2400 -0.5214  1.6311
   94MOL0     H12932   2.473   1.612   5.875  0.6439  2.4509 -3.8375
   94MOL0     H12933   2.360   1.616   5.748  4.9333  2.7478  0.4697
   94MOL0     H12934   2.576   1.901   5.771 -1.8745  0.5003 -0.5644
   94MOL0     H12935   2.792   2.016   5.799  4.1965 -0.8142  2.0452
   94MOL0     H12936   3.007   1.987   5.949  0.1328 -0.4695  0.8734
   94MOL0     H12937   2.977   2.140   5.863 -0.3185  3.0905  1.4075
   94MOL0     H12938   3.089   2.244   6.086  0.4484  0.8952  0.8615
   94MOL0     H12939   3.145   2.072   6.096  3.8957  1.1772  0.0108
   94MOL0     H12940   3.267   2.274   5.963  1.9846 -1.4883  2.3868
   94MOL0     H12941   3.171   2.213   5.833  3.0126  0.0860 -2.5439
   94MOL0     H12942   3.253   1.974   5.885 -0.8247 -0.0579  0.8249
   94MOL0     H12943   3.367   2.049   6.007 -2.2209  1.3351  0.8336
   94MOL0     H12944   3.508   2.013   5.840  0.4996 -0.5490 -1.7554
   94MOL0     H12945   3.387   2.029   5.706  0.6411 -2.7934  0.0561
   94MOL0     H12946   3.520   2.257   5.852  1.0980 -0.5567  0.2044
   94MOL0     H12947   3.401   2.262   5.717  2.0790  0.8944 -0.6186
   94MOL0     H12948   3.643   2.076   5.683  0.3202  0.2390 -1.0432
   94MOL0     H12949   3.679   2.228   5.732  1.4018 -2.6879 -0.5214
   94MOL0     H12950   3.684   2.197   5.492  1.4022 -0.3734  1.5747
   94MOL0     H12951   3.561   2.319   5.530 -1.4281 -0.8062  1.6485
   94MOL0     H12952   2.713   2.092   6.203  1.8679  0.2367 -0.8134
   94MOL0     H12953   2.459   2.005   6.179  0.9666  3.9770  1.4547
   94MOL0     H12954   2.094   1.767   6.166  3.3793 -0.0378  3.0720
   94MOL0     H12955   1.965   1.565   6.185  0.8109 -0.4037  0.9231
   94MOL0     H12956   0.624   1.821   5.630 -4.8426  0.9215 -1.6039
   94MOL0     H12957   0.432   1.938   5.585 -1.3182  1.7277 -0.1065
   94MOL0     H12958   0.274   2.547   5.628 -1.3659  1.5367 -0.1336
   94MOL0     H12959   0.063   2.655   5.596 -0.1235 -0.4960 -0.2984
   94MOL0     H12960  -0.151   2.717   5.714  1.5789  0.4669 -0.1932
   94MOL0     H12961  -0.190   2.723   5.545  1.6520 -0.7265  0.8304
   94MOL0     H12962  -0.382   2.770   5.727  2.2844  0.3571  0.4165
   94MOL0     H12963  -0.368   2.601   5.776 -0.2142 -0.8407 -1.0487
   94MOL0     H12964  -0.458   2.666   5.487  1.8161 -0.7991  0.2791
   94MOL0     H12965  -0.439   2.516   5.570 -0.4609  0.8330 -0.9936
   94MOL0     H12966  -0.664   2.617   5.532  0.0707 -0.1828  0.5211
   94MOL0     H12967  -0.638   2.734   5.663 -1.0020 -0.1344  2.3720
   94MOL0     H12968  -0.768   2.421   5.887  3.0432 -2.5043  0.5626
   94MOL0     H12969  -0.141   2.290   5.686  0.5510 -1.6375 -2.3352
   94MOL0     H12970  -0.006   2.072   5.745  0.0962 -1.9313  0.0030
   94MOL0     H12971   0.124   2.076   5.635 -1.0347  0.1297  0.2614
   94MOL0     H12972   0.160   2.128   5.805  2.1394  2.3301 -2.2717
   95MOL0     O12973   8.352   0.822   4.270 -0.1777 -0.6161 -0.5069
   95MOL0     C12974   8.352   0.770   4.380  0.5653  0.1474  0.5171
   95MOL0     O12975   8.446   0.697   4.433 -0.2787 -0.0120  0.1952
   95MOL0     C12976   8.565   0.649   4.377 -0.3121 -0.5359  0.2596
   95MOL0     C12977   8.636   0.571   4.470 -0.6205 -0.8543 -0.8215
   95MOL0     C12978   8.770   0.528   4.428 -0.0700  0.2304 -0.2328
   95MOL0     C12979   8.824   0.558   4.306 -0.0805  0.6997  0.3277
   95MOL0     O12980   8.951   0.516   4.276 -0.9355  0.2060 -0.4676
   95MOL0     C12981   9.003   0.516   4.135  0.3703 -1.3367 -0.0683
   95MOL0     C12982   9.147   0.463   4.138  0.6427  0.3633 -0.3950
   95MOL0     C12983   9.239   0.554   4.223 -0.2041 -0.3999 -0.4595
   95MOL0     C12984   9.374   0.493   4.216 -0.4630 -1.2159 -0.6276
   95MOL0     C12985   9.481   0.552   4.309  0.1643  0.6997 -0.0143
   95MOL0     C12986   9.438   0.546   4.455  0.5545  0.6047  0.1507
   95MOL0     C12987   9.551   0.564   4.552  1.4281  0.1976 -0.1653
   95MOL0     C12988   9.607   0.708   4.553  0.8572  0.5504 -0.4487
   95MOL0     N12989   9.743   0.716   4.499  1.3392 -0.1604 -0.2717
   95MOL0     C12990   9.853   0.669   4.567 -0.7407 -0.4185 -0.7599
   95MOL0     C12991   9.961   0.702   4.488 -0.5339  0.7568  1.1181
   95MOL0     C12992  10.106   0.678   4.530  0.7220  0.3861  0.2599
   95MOL0     C12993  10.171   0.820   4.559 -0.0004 -0.0299  0.1809
   95MOL0     C12994  10.316   0.821   4.623  0.7881  0.1599  0.3771
   95MOL0     C12995  10.424   0.798   4.516 -0.6519 -0.8836  1.3755
   95MOL0     O12996  10.440   0.656   4.486  0.3406 -0.0820 -0.6548
   95MOL0     C12997  10.568   0.620   4.463 -0.1557  0.1387 -0.0790
   95MOL0     C12998  10.611   0.586   4.332 -0.6586  0.0513 -0.1650
   95MOL0     C12999  10.742   0.547   4.300 -0.5132 -0.4676 -0.3448
   95MOL0     C13000  10.772   0.519   4.158  0.4096  0.3140 -0.3313
   95MOL0     C13001  10.838   0.522   4.407  0.2084  1.0241  0.1872
   95MOL0     C13002  10.978   0.466   4.382 -0.9761 -0.8437 -1.2721
   95MOL0     O13003  11.050   0.457   4.503 -0.1429 -0.2464  0.6520
   95MOL0     C13004  11.170   0.387   4.501  0.5884 -0.6806 -0.7770
   95MOL0     C13005  11.255   0.413   4.611  0.7787 -0.6785  0.7994
   95MOL0     C13006  11.374   0.352   4.630  0.0319  0.0838 -0.8542
   95MOL0     C13007  11.414   0.254   4.534 -0.1562  0.2896  0.1853
   95MOL0     O13008  11.532   0.179   4.554  0.3200 -0.3761 -0.1493
   95MOL0     C13009  11.560   0.074   4.455 -0.2619 -0.0333  0.1981
   95MOL0     C13010  11.706   0.040   4.484 -0.0823  1.2913 -0.6922
   95MOL0     C13011  11.803   0.145   4.443  0.2237  1.3488  0.3105
   95MOL0     C13012  11.948   0.092   4.474  0.0144 -0.2454  0.1314
   95MOL0     C13013  12.054   0.210   4.453 -0.1173  0.7328 -0.3545
   95MOL0     C13014  12.199   0.158   4.467  0.6453 -1.8355 -0.1368
   95MOL0     C13015  12.302   0.251   4.396  0.7598  0.2451  0.2845
   95MOL0     C13016  12.310   0.396   4.443 -0.3503  0.2581 -0.9007
   95MOL0    Cl13017  12.387   0.410   4.604  0.0994 -0.6106 -0.1319
   95MOL0     C13018  11.321   0.229   4.430 -0.2859 -0.2124  0.3358
   95MOL0     C13019  11.203   0.285   4.406  0.2283 -0.8262  0.4314
   95MOL0     O13020  11.023   0.456   4.269  0.3715 -0.0044 -0.0773
   95MOL0     C13021  10.786   0.541   4.543  0.8166  0.4763  0.6513
   95MOL0     C13022  10.655   0.585   4.566  0.4569  0.2666  0.5462
   95MOL0     N13023   9.912   0.747   4.364  0.4018 -0.4497 -0.0056
   95MOL0     N13024   9.779   0.768   4.377 -0.9406  0.3814  0.0564
   95MOL0     C13025   8.740   0.613   4.214  0.3546  0.0034  1.2556
   95MOL0     C13026   8.611   0.661   4.244 -0.5273  0.2001 -0.2941
   95MOL0     C13027   8.226   0.773   4.449 -0.0063 -0.1119 -0.0725
   95MOL0     C13028   8.110   0.735   4.370  0.0302 -0.0919  0.3196
   95MOL0     C13029   7.987   0.727   4.431 -0.1807 -0.2236 -0.1325
   95MOL0     C13030   7.970   0.756   4.563 -0.7172  0.0041 -0.4895
   95MOL0     O13031   7.857   0.748   4.635 -0.2195  0.2802 -0.7146
   95MOL0     C13032   7.748   0.682   4.570 -0.5504  0.7615 -0.2491
   95MOL0     C13033   7.629   0.639   4.655  0.9236  0.0619 -0.8724
   95MOL0     C13034   7.661   0.547   4.778 -0.4772  0.2981  0.6226
   95MOL0     C13035   7.712   0.633   4.902 -0.3754  0.5029  0.1324
   95MOL0     C13036   7.747   0.552   5.013  0.7038 -0.4022 -0.0308
   95MOL0     C13037   7.773   0.475   5.104 -0.3191 -0.4140  0.5145
   95MOL0     C13038   8.084   0.798   4.635  0.3380  0.1205  0.0255
   95MOL0     C13039   8.213   0.810   4.582 -0.7323  0.7476  0.1210
   95MOL0     C13040   8.339   0.843   4.666  0.2338  0.3179  0.0096
   95MOL0     H13041   8.595   0.537   4.564  2.5224 -0.3244  0.8430
   95MOL0     H13042   8.830   0.472   4.499 -0.3006 -0.4561 -0.5704
   95MOL0     H13043   9.011   0.617   4.093 -0.0272 -0.6441  1.4429
   95MOL0     H13044   8.939   0.445   4.082 -0.8622  0.3617 -0.9621
   95MOL0     H13045   9.145   0.359   4.172  1.6891  0.5459  0.2834
   95MOL0     H13046   9.188   0.459   4.036  0.3291 -0.6560 -0.4919
   95MOL0     H13047   9.239   0.659   4.193 -0.0035 -0.8936 -2.3344
   95MOL0     H13048   9.209   0.560   4.328 -0.2636  0.2432 -0.5097
   95MOL0     H13049   9.366   0.387   4.242 -2.0948 -0.2646  3.6063
   95MOL0     H13050   9.421   0.515   4.120 -2.2678 -2.1333 -1.7792
   95MOL0     H13051   9.500   0.656   4.279 -2.3737  1.9043  2.1146
   95MOL0     H13052   9.577   0.500   4.297 -0.5789 -0.8572  0.4927
   95MOL0     H13053   9.364   0.625   4.474 -0.3205 -0.3932  1.0378
   95MOL0     H13054   9.392   0.451   4.481 -2.4507  1.8898 -0.0600
   95MOL0     H13055   9.632   0.492   4.534  0.5756 -1.3345  1.7179
   95MOL0     H13056   9.515   0.537   4.652  0.4774  0.9696 -0.2846
   95MOL0     H13057   9.545   0.769   4.486 -1.7448 -2.0000 -0.5506
   95MOL0     H13058   9.602   0.748   4.655  0.1631 -0.3863 -0.0965
   95MOL0     H13059   9.851   0.619   4.663 -2.3346  2.9463  1.1463
   95MOL0     H13060  10.162   0.626   4.452 -0.7717  3.6430 -3.2697
   95MOL0     H13061  10.115   0.615   4.619  0.9019 -1.6712 -1.1387
   95MOL0     H13062  10.177   0.873   4.463  1.2821 -1.5080 -0.5979
   95MOL0     H13063  10.106   0.875   4.628 -1.0068 -2.7357  1.5278
   95MOL0     H13064  10.321   0.921   4.668  1.1416  0.4704 -0.3469
   95MOL0     H13065  10.329   0.750   4.705  0.8691  0.1743  0.3768
   95MOL0     H13066  10.401   0.852   4.423  1.9551 -1.3392  0.4030
   95MOL0     H13067  10.512   0.838   4.567 -1.7193  0.4893  2.2412
   95MOL0     H13068  10.534   0.608   4.258 -0.6515 -0.3222 -0.2827
   95MOL0     H13069  10.683   0.539   4.099 -0.3478  2.0895  1.2985
   95MOL0     H13070  10.781   0.410   4.153  1.4929  0.3994 -0.5768
   95MOL0     H13071  10.862   0.564   4.115  0.0603 -1.6972 -3.4313
   95MOL0     H13072  11.221   0.487   4.683  1.8755  0.9504 -0.2651
   95MOL0     H13073  11.426   0.368   4.724 -0.4216 -4.1540  0.3593
   95MOL0     H13074  11.503  -0.019   4.468 -3.3130  1.4250 -1.7860
   95MOL0     H13075  11.562   0.108   4.352  4.3309  1.5194  0.5865
   95MOL0     H13076  11.711   0.012   4.590  1.1475  0.0870 -1.0328
   95MOL0     H13077  11.746  -0.053   4.443  0.1272  1.6899 -1.4191
   95MOL0     H13078  11.784   0.242   4.491 -1.9270  0.4589  1.4002
   95MOL0     H13079  11.789   0.163   4.336  0.9350 -0.1334 -0.0448
   95MOL0     H13080  11.962   0.013   4.400 -3.4027  0.1427 -1.0936
   95MOL0     H13081  11.969   0.054   4.575 -0.0367  0.7930  0.5565
   95MOL0     H13082  12.031   0.245   4.352 -0.7235  2.0749  0.2175
   95MOL0     H13083  12.033   0.285   4.531  0.6077  2.6516 -1.9147
   95MOL0     H13084  12.218   0.062   4.417  2.9926 -0.7147 -1.5568
   95MOL0     H13085  12.230   0.154   4.572  2.9187 -0.3678 -0.6892
   95MOL0     H13086  12.278   0.253   4.289 -0.1151 -1.5730  0.4202
   95MOL0     H13087  12.401   0.206   4.408  0.0804 -0.7048  3.0845
   95MOL0     H13088  12.213   0.445   4.455  0.5788  2.4735 -2.0264
   95MOL0     H13089  12.379   0.440   4.371  0.7615 -1.0260 -0.6795
   95MOL0     H13090  11.338   0.140   4.370 -0.7627 -1.2244  1.6501
   95MOL0     H13091  11.128   0.240   4.341  0.1032 -2.9179  1.9407
   95MOL0     H13092  10.855   0.514   4.622  1.7910  0.9651 -0.0025
   95MOL0     H13093  10.624   0.592   4.670 -1.2047 -2.7032  0.3516
   95MOL0     H13094   8.775   0.613   4.111  0.8372  0.2267  1.4188
   95MOL0     H13095   8.560   0.714   4.164  1.9294 -1.2881 -3.0053
   95MOL0     H13096   8.106   0.714   4.264 -0.4908  1.0631  0.0996
   95MOL0     H13097   7.907   0.702   4.362  0.2309 -0.9868 -0.3529
   95MOL0     H13098   7.714   0.749   4.490 -2.1112 -1.0132 -1.1414
   95MOL0     H13099   7.783   0.586   4.530  1.4768  1.4195 -0.1798
   95MOL0     H13100   7.549   0.592   4.597  0.8748  0.8287 -1.4408
   95MOL0     H13101   7.576   0.727   4.693 -2.1402 -2.0575  0.1607
   95MOL0     H13102   7.567   0.499   4.805 -1.1361  1.1977 -0.0292
   95MOL0     H13103   7.731   0.469   4.746 -0.5128  0.7263 -0.5385
   95MOL0     H13104   7.647   0.714   4.936 -0.6132 -0.2637  1.5580
   95MOL0     H13105   7.806   0.684   4.882  0.2009  0.7388  3.0669
   95MOL0     H13106   7.798   0.389   5.163  2.3483 -0.5671 -0.7032
   95MOL0     H13107   8.072   0.832   4.737 -0.6696  0.1670 -0.1023
   95MOL0     H13108   8.419   0.889   4.606 -0.8051  1.4690 -0.5372
   95MOL0     H13109   8.301   0.904   4.748 -2.7291 -2.1501  0.6500
   95MOL0     H13110   8.372   0.749   4.712 -0.3949  0.5047  0.8532
   96MOL0     O13111   9.993   0.966  10.067  0.5541 -0.5512  0.0166
   96MOL0     C13112  10.111   0.974  10.056 -0.3835  0.2642  0.2586
   96MOL0     O13113  10.192   0.879  10.000  0.0265  0.1143  0.5116
   96MOL0     C13114  10.162   0.767   9.937  0.1921 -0.0126 -0.0403
   96MOL0     C13115  10.045   0.728   9.890  0.0905  0.4637 -0.1832
   96MOL0     C13116  10.029   0.606   9.831  0.8405  0.1415  0.0436
   96MOL0     C13117  10.129   0.505   9.818  0.0931 -0.4966  0.7042
   96MOL0     O13118  10.099   0.387   9.749 -0.6408 -0.3352 -0.1357
   96MOL0     C13119  10.140   0.259   9.815 -0.4067 -0.6057 -0.7311
   96MOL0     C13120  10.074   0.140   9.746 -0.1457  0.2904 -0.8785
   96MOL0     C13121  10.092   0.126   9.594 -0.9249  0.4943  0.2463
   96MOL0     C13122   9.948   0.121   9.528 -0.1130  0.5204 -0.0564
   96MOL0     C13123   9.943   0.101   9.381 -0.7864  0.2745  0.8346
   96MOL0     C13124  10.029  -0.015   9.330 -0.5097 -0.0930 -0.1571
   96MOL0     C13125   9.963  -0.088   9.195 -0.2805 -0.3542 -0.8491
   96MOL0     C13126   9.845  -0.176   9.222  0.5197  0.6093  0.0663
   96MOL0     N13127   9.774  -0.196   9.097  0.1768 -0.4456  0.2004
   96MOL0     C13128   9.692  -0.113   9.021  0.3617  0.7882 -0.4071
   96MOL0     C13129   9.685  -0.161   8.899 -0.3786  0.6962  0.3598
   96MOL0     C13130   9.610  -0.120   8.775 -0.2819 -0.8414 -0.3551
   96MOL0     C13131   9.697  -0.024   8.691  0.3216  0.5226  0.7497
   96MOL0     C13132   9.618   0.047   8.579 -0.3965  0.7193 -0.4024
   96MOL0     C13133   9.562  -0.058   8.483  0.2058  0.4779 -0.2862
   96MOL0     O13134   9.430  -0.113   8.504  0.0454 -0.7172 -0.1892
   96MOL0     C13135   9.316  -0.056   8.463  0.2365  0.3368  0.0109
   96MOL0     C13136   9.305   0.078   8.415 -0.1613 -0.2522 -0.0303
   96MOL0     C13137   9.181   0.135   8.361  0.4036  0.3578 -0.3488
   96MOL0     C13138   9.184   0.276   8.305 -1.1505  0.9810 -0.3511
   96MOL0     C13139   9.066   0.049   8.368  0.2116  0.8733 -0.1924
   96MOL0     C13140   8.936   0.079   8.309  0.0964 -0.2134 -0.4803
   96MOL0     O13141   8.825   0.001   8.342 -0.6090  0.5214 -0.0856
   96MOL0     C13142   8.707  -0.000   8.263 -0.5848  0.2380 -0.1236
   96MOL0     C13143   8.652   0.102   8.182 -0.4417  0.2083  0.3564
   96MOL0     C13144   8.536   0.075   8.108  0.1666  0.3456 -0.0199
   96MOL0     C13145   8.476  -0.047   8.111  0.1592  0.3605  0.3479
   96MOL0     O13146   8.367  -0.068   8.029 -0.5342 -0.1080 -0.2851
   96MOL0     C13147   8.275  -0.172   8.076 -0.3025  0.0583  0.0296
   96MOL0     C13148   8.135  -0.146   8.005  1.1426 -0.2363  0.1510
   96MOL0     C13149   8.072  -0.009   8.046 -0.6890  0.4643 -0.6071
   96MOL0     C13150   7.933   0.000   7.999  0.2321  0.3704  0.2161
   96MOL0     C13151   7.855   0.129   8.047  0.1092 -0.2734 -0.0357
   96MOL0     C13152   7.707   0.092   8.011 -0.2706  0.2619  0.5602
   96MOL0     C13153   7.598   0.205   8.025 -0.6599 -0.1344  0.1272
   96MOL0     C13154   7.484   0.196   7.935  0.9497  1.3619  0.0658
   96MOL0    Cl13155   7.363   0.077   7.993  0.3684 -0.0589  0.0500
   96MOL0     C13156   8.540  -0.160   8.174  0.2990 -0.0416  0.5338
   96MOL0     C13157   8.642  -0.124   8.261 -0.1394  0.8883  0.4617
   96MOL0     O13158   8.933   0.169   8.231  0.2665  0.1191 -0.2270
   96MOL0     C13159   9.073  -0.077   8.432  0.0871 -0.1498  0.3834
   96MOL0     C13160   9.198  -0.125   8.482 -0.2879  0.3554 -0.3848
   96MOL0     N13161   9.778  -0.272   8.892  0.7788 -0.1205 -0.6344
   96MOL0     N13162   9.814  -0.295   9.009 -0.2599  0.3456  0.4391
   96MOL0     C13163  10.250   0.545   9.871 -0.6058 -1.4354  0.2988
   96MOL0     C13164  10.269   0.673   9.931  1.5865  1.1186 -0.3947
   96MOL0     C13165  10.179   1.099  10.091 -0.2580 -0.6743  0.2680
   96MOL0     C13166  10.287   1.133  10.005 -0.4411 -0.1445 -0.3731
   96MOL0     C13167  10.354   1.253  10.017 -0.0100  0.1892  0.1311
   96MOL0     C13168  10.328   1.340  10.123 -0.2761 -0.4666  0.1291
   96MOL0     O13169  10.397   1.463  10.135  0.5493  0.1341 -0.6909
   96MOL0     C13170  10.310   1.576  10.127  0.1357  0.3178 -0.3983
   96MOL0     C13171  10.268   1.601   9.977  0.5389  0.6916  0.0432
   96MOL0     C13172  10.372   1.700   9.920 -0.1024  0.0544  0.3479
   96MOL0     C13173  10.352   1.725   9.766  0.0018 -0.4467 -0.5401
   96MOL0     C13174  10.209   1.747   9.724  0.8016  0.1642 -0.7058
   96MOL0     C13175  10.096   1.774   9.691  0.2399 -0.2367 -0.2332
   96MOL0     C13176  10.233   1.301  10.213 -0.0879  0.2709 -0.3943
   96MOL0     C13177  10.151   1.188  10.198  1.0489 -0.0680 -0.5282
   96MOL0     C13178  10.035   1.161  10.289 -0.0350  0.1984 -0.5861
   96MOL0     H13179   9.954   0.786   9.878  0.9247  1.7618 -0.5641
   96MOL0     H13180   9.932   0.591   9.785  0.2942  2.0488  0.5127
   96MOL0     H13181  10.103   0.263   9.918  0.7242  0.7068 -0.3402
   96MOL0     H13182  10.248   0.242   9.817 -0.4252 -0.6880 -0.2467
   96MOL0     H13183  10.099   0.046   9.795 -0.2403  0.3701 -0.6767
   96MOL0     H13184   9.967   0.146   9.763  0.2220  1.1288  1.4392
   96MOL0     H13185  10.153   0.203   9.545 -1.7616  0.9196 -0.1461
   96MOL0     H13186  10.147   0.031   9.588  1.2691  1.6779  0.5137
   96MOL0     H13187   9.896   0.035   9.570  0.0921  1.5067  2.3630
   96MOL0     H13188   9.881   0.204   9.548 -2.8096 -1.1302 -1.6764
   96MOL0     H13189   9.955   0.198   9.333  2.2198 -0.4737 -0.1980
   96MOL0     H13190   9.839   0.075   9.363 -1.0755 -0.8883  3.5516
   96MOL0     H13191  10.129   0.027   9.310 -0.4437  0.1863  0.7184
   96MOL0     H13192  10.049  -0.090   9.407  0.9560 -0.4488 -0.8437
   96MOL0     H13193  10.046  -0.155   9.171  0.8788  1.0896 -1.0009
   96MOL0     H13194   9.936  -0.011   9.122 -0.3671 -0.6289 -1.1044
   96MOL0     H13195   9.895  -0.268   9.253 -1.7317 -0.1100  1.8182
   96MOL0     H13196   9.783  -0.134   9.301 -0.0045 -0.6507  0.3436
   96MOL0     H13197   9.657  -0.015   9.051  1.5561  1.2285 -0.4097
   96MOL0     H13198   9.515  -0.070   8.792 -1.4401 -1.4576 -4.2790
   96MOL0     H13199   9.572  -0.209   8.725 -2.5827 -1.6801  2.5752
   96MOL0     H13200   9.731   0.052   8.762  0.5685  2.2803 -1.1495
   96MOL0     H13201   9.780  -0.067   8.634 -1.4096  0.7138 -2.1428
   96MOL0     H13202   9.546   0.116   8.624  0.8674  2.4405 -0.9288
   96MOL0     H13203   9.679   0.118   8.523  0.9049 -0.1493 -0.1353
   96MOL0     H13204   9.561   0.000   8.390  0.8941  2.0680  0.6590
   96MOL0     H13205   9.639  -0.135   8.472 -2.1683 -1.7883 -2.4538
   96MOL0     H13206   9.397   0.136   8.408  0.1487 -0.8675 -1.5046
   96MOL0     H13207   9.186   0.263   8.197 -0.1976 -0.6958 -0.1781
   96MOL0     H13208   9.279   0.322   8.332 -0.2871 -0.2114 -1.2313
   96MOL0     H13209   9.101   0.339   8.338 -1.3921  0.9020 -0.8054
   96MOL0     H13210   8.689   0.203   8.194  0.9372 -0.2080 -0.2201
   96MOL0     H13211   8.491   0.154   8.048  0.0907  0.7112  0.5060
   96MOL0     H13212   8.312  -0.272   8.054 -0.2199 -0.2213  1.3379
   96MOL0     H13213   8.259  -0.150   8.182  0.8290  1.1274  0.0044
   96MOL0     H13214   8.151  -0.151   7.897  0.8267 -2.2704  0.1609
   96MOL0     H13215   8.067  -0.228   8.029  1.4865 -0.5393  0.1035
   96MOL0     H13216   8.133   0.068   7.999 -1.3139  0.7297 -0.9944
   96MOL0     H13217   8.067   0.012   8.153 -0.1414  1.0305 -0.6866
   96MOL0     H13218   7.882  -0.093   8.025  0.9672  0.4375  2.0339
   96MOL0     H13219   7.945   0.004   7.890  0.7471 -1.2439  0.1886
   96MOL0     H13220   7.862   0.154   8.153  0.4111 -0.0070 -0.1197
   96MOL0     H13221   7.888   0.220   7.996  0.5940  1.1397  2.6329
   96MOL0     H13222   7.672   0.011   8.075  1.1134  0.5524  1.7291
   96MOL0     H13223   7.702   0.050   7.910 -1.0143  1.1698  0.2024
   96MOL0     H13224   7.637   0.307   8.019  1.2139 -0.5518  3.3717
   96MOL0     H13225   7.565   0.199   8.129  1.2319 -3.2520  0.6669
   96MOL0     H13226   7.516   0.178   7.832  1.6052  0.8610  0.3474
   96MOL0     H13227   7.439   0.295   7.923 -2.2373  0.6915  3.9518
   96MOL0     H13228   8.506  -0.263   8.166  0.4939 -0.3592  3.0688
   96MOL0     H13229   8.682  -0.201   8.326  0.4539  0.2816 -0.5918
   96MOL0     H13230   8.984  -0.139   8.440 -1.4561  1.6733 -1.5016
   96MOL0     H13231   9.196  -0.220   8.536 -1.5075  1.2374  1.2377
   96MOL0     H13232  10.336   0.487   9.839 -0.2150 -0.3727 -0.6294
   96MOL0     H13233  10.369   0.699   9.967  2.5419  0.2287 -2.2574
   96MOL0     H13234  10.320   1.069   9.924  1.8035 -1.3886  1.4067
   96MOL0     H13235  10.424   1.290   9.943  1.3769  2.1355  2.2871
   96MOL0     H13236  10.219   1.582  10.188  0.0894  2.2638 -0.5734
   96MOL0     H13237  10.354   1.664  10.175 -1.1383  1.6946 -1.6679
   96MOL0     H13238  10.168   1.644   9.980 -1.4920 -3.5588  1.3843
   96MOL0     H13239  10.262   1.508   9.919  1.7753  0.6139  0.0124
   96MOL0     H13240  10.358   1.791   9.979  0.1046 -0.1609  0.7283
   96MOL0     H13241  10.467   1.655   9.951  0.1152 -0.3432 -0.8387
   96MOL0     H13242  10.387   1.640   9.707 -1.4520 -0.8015 -0.9325
   96MOL0     H13243  10.409   1.813   9.732  0.6717 -1.1721 -1.3506
   96MOL0     H13244   9.992   1.779   9.667  0.2233 -3.9416 -1.5034
   96MOL0     H13245  10.222   1.375  10.291 -3.6642 -0.3373 -0.1476
   96MOL0     H13246  10.017   1.057  10.315 -2.6229  0.8372  0.4486
   96MOL0     H13247  10.053   1.214  10.383 -2.0656  0.4080 -0.2881
   96MOL0     H13248   9.941   1.205  10.256 -0.1791  0.0219 -0.4060
   97MOL0     O13249   1.352  10.521   4.932 -0.3363 -0.0240 -0.5469
   97MOL0     C13250   1.241  10.529   4.981  1.6882 -0.5196  0.8376
   97MOL0     O13251   1.188  10.638   5.052 -0.2116 -0.2190  0.9250
   97MOL0     C13252   1.272  10.735   5.095 -0.1760  0.4496 -1.1780
   97MOL0     C13253   1.368  10.699   5.191  0.6778 -0.4793  0.1898
   97MOL0     C13254   1.446  10.803   5.255 -0.0949  0.1017 -0.8983
   97MOL0     C13255   1.433  10.937   5.214  0.0208  0.5282 -0.5403
   97MOL0     O13256   1.508  11.045   5.259  0.5823  0.6460 -0.4589
   97MOL0     C13257   1.650  11.019   5.253  0.1475 -0.2106 -0.2066
   97MOL0     C13258   1.729  11.118   5.342  0.4308  0.0155  0.7497
   97MOL0     C13259   1.879  11.089   5.329 -0.4458  0.2957 -0.5896
   97MOL0     C13260   1.960  11.172   5.436 -0.3395 -0.1946  0.3520
   97MOL0     C13261   2.114  11.168   5.406  0.0082 -0.3114 -0.4723
   97MOL0     C13262   2.189  11.271   5.497 -0.2883  0.5925  0.2589
   97MOL0     C13263   2.336  11.251   5.461  0.3366 -0.5843 -0.3755
   97MOL0     C13264   2.409  11.364   5.528 -0.0810 -0.4529  0.4222
   97MOL0     N13265   2.555  11.331   5.513  0.7178 -0.6480  0.0580
   97MOL0     C13266   2.615  11.209   5.526  0.0513 -0.1409  0.4276
   97MOL0     C13267   2.748  11.243   5.542 -0.6871  0.4771 -0.0107
   97MOL0     C13268   2.861  11.143   5.560  0.2865 -0.3550  0.4837
   97MOL0     C13269   2.987  11.203   5.618  0.8236 -0.3522 -0.8180
   97MOL0     C13270   3.082  11.087   5.661  0.1890 -1.2381  0.0018
   97MOL0     C13271   3.221  11.138   5.721 -0.0822  0.0144 -0.4646
   97MOL0     O13272   3.283  11.211   5.622  0.2149  0.3594  0.2374
   97MOL0     C13273   3.397  11.279   5.660  0.2092 -0.4215 -0.0813
   97MOL0     C13274   3.465  11.267   5.782 -0.6594 -0.1169  0.5861
   97MOL0     C13275   3.585  11.348   5.808 -0.6933  0.3660 -0.8391
   97MOL0     C13276   3.655  11.327   5.943  0.4267  0.3791  0.8719
   97MOL0     C13277   3.631  11.449   5.718  0.5053  0.0396 -0.3047
   97MOL0     C13278   3.735  11.558   5.728  0.1813 -0.1666  1.0167
   97MOL0     O13279   3.830  11.533   5.822 -0.0125  0.8004  0.0722
   97MOL0     C13280   3.921  11.628   5.844 -0.3637 -0.2609  0.2054
   97MOL0     C13281   3.948  11.639   5.987  0.4560  0.1392  0.0827
   97MOL0     C13282   4.059  11.718   6.033  0.2356 -0.2479  0.5300
   97MOL0     C13283   4.146  11.782   5.939 -0.4258 -0.9451 -0.0013
   97MOL0     O13284   4.244  11.859   6.005  0.0370  0.1660 -0.2130
   97MOL0     C13285   4.342  11.924   5.930  0.2567 -0.0900 -0.4530
   97MOL0     C13286   4.450  11.999   6.016  0.6129  0.6952 -1.1574
   97MOL0     C13287   4.539  11.897   6.093 -0.2012  0.3039 -0.9220
   97MOL0     C13288   4.673  11.964   6.143 -0.1649 -0.3429  0.1199
   97MOL0     C13289   4.754  11.879   6.235  0.0401 -0.2086 -0.2290
   97MOL0     C13290   4.883  11.938   6.289  0.0494 -1.4486  0.3037
   97MOL0     C13291   4.966  11.835   6.369 -0.3726  0.3420  0.4641
   97MOL0     C13292   5.098  11.889   6.431 -0.3705  1.1286  0.0485
   97MOL0    Cl13293   5.063  11.995   6.561 -0.4731  0.2703  0.2392
   97MOL0     C13294   4.122  11.766   5.802 -0.3664  0.0077 -0.1070
   97MOL0     C13295   4.008  11.693   5.750  0.5483 -0.2134  0.0243
   97MOL0     O13296   3.712  11.666   5.673 -0.0789 -0.5373  0.3720
   97MOL0     C13297   3.558  11.447   5.599 -0.9462  0.5160 -0.1703
   97MOL0     C13298   3.451  11.372   5.568  0.5670  0.0166  0.2035
   97MOL0     N13299   2.767  11.378   5.541 -0.3933 -0.4036 -0.1791
   97MOL0     N13300   2.644  11.432   5.528  0.5484 -0.5621 -0.1937
   97MOL0     C13301   1.340  10.967   5.117  1.0590 -0.1348  0.3035
   97MOL0     C13302   1.255  10.869   5.057 -0.4315 -0.0087  0.8233
   97MOL0     C13303   1.130  10.418   4.973 -0.9366 -0.3243 -1.0993
   97MOL0     C13304   0.999  10.455   4.928 -0.1499  0.1261  0.6435
   97MOL0     C13305   0.892  10.372   4.931  0.0169 -0.3458  0.1324
   97MOL0     C13306   0.915  10.243   4.981 -0.0179  0.1081 -0.3133
   97MOL0     O13307   0.809  10.155   4.992  0.3599  0.3335 -0.5611
   97MOL0     C13308   0.674  10.204   4.987  0.0903  0.0772  0.2663
   97MOL0     C13309   0.625  10.213   4.845  0.1599 -0.6658 -0.9187
   97MOL0     C13310   0.496  10.299   4.832  0.5478 -0.3299 -0.9875
   97MOL0     C13311   0.404  10.257   4.717  0.5170  0.2319 -0.1861
   97MOL0     C13312   0.336  10.122   4.730  0.6103  0.6200  0.4237
   97MOL0     C13313   0.275  10.017   4.739 -0.9977 -0.6452 -0.9837
   97MOL0     C13314   1.039  10.202   5.027  0.0512 -0.3248  0.5364
   97MOL0     C13315   1.146  10.288   5.022  0.0657  0.9474 -0.4414
   97MOL0     C13316   1.277  10.232   5.078  0.5243  0.0078  0.1957
   97MOL0     H13317   1.364  10.597   5.227 -3.6240 -1.8386 -3.2486
   97MOL0     H13318   1.514  10.769   5.332 -2.3123 -4.3776 -0.5427
   97MOL0     H13319   1.693  11.032   5.153  1.0255  0.2768  0.2165
   97MOL0     H13320   1.676  10.918   5.285  0.2627  0.5528  2.3826
   97MOL0     H13321   1.718  11.219   5.302 -0.0539  0.4368  1.8977
   97MOL0     H13322   1.694  11.119   5.446 -1.3438 -0.2649  0.1948
   97MOL0     H13323   1.908  10.986   5.354  3.4641  1.8482  2.3295
   97MOL0     H13324   1.915  11.113   5.228  2.5234 -0.1791  0.2575
   97MOL0     H13325   1.924  11.276   5.436 -3.2796 -1.0444 -2.3771
   97MOL0     H13326   1.948  11.123   5.533 -1.8804 -0.7663 -0.0953
   97MOL0     H13327   2.138  11.184   5.300  2.8077  2.0252  0.3809
   97MOL0     H13328   2.156  11.070   5.428  2.4591  0.8022  0.1471
   97MOL0     H13329   2.160  11.374   5.474 -0.6368  0.4636  0.1179
   97MOL0     H13330   2.176  11.257   5.604  1.2393 -0.5132  0.3429
   97MOL0     H13331   2.365  11.239   5.357 -3.0636 -0.0306 -1.5267
   97MOL0     H13332   2.358  11.163   5.523 -3.0114 -0.4331  1.2970
   97MOL0     H13333   2.381  11.464   5.493 -0.1146 -0.1839  1.1790
   97MOL0     H13334   2.391  11.354   5.636 -0.1491 -0.8883  0.3733
   97MOL0     H13335   2.568  11.111   5.516 -0.8844  0.4125 -0.8314
   97MOL0     H13336   2.894  11.120   5.458 -0.1000 -1.2031  0.5394
   97MOL0     H13337   2.822  11.055   5.612 -0.2908  0.9679  2.4372
   97MOL0     H13338   3.034  11.282   5.559 -0.4566 -0.3395 -1.8584
   97MOL0     H13339   2.953  11.256   5.708  0.3533 -1.6895 -0.1716
   97MOL0     H13340   3.027  11.030   5.736 -0.7964  1.2058  1.2408
   97MOL0     H13341   3.111  11.022   5.578  0.0868 -0.8104 -0.3714
   97MOL0     H13342   3.207  11.194   5.814  0.8412 -0.4770 -0.0209
   97MOL0     H13343   3.284  11.050   5.732 -0.8908 -0.8173 -2.1441
   97MOL0     H13344   3.427  11.199   5.857  0.3031  1.8592  3.0363
   97MOL0     H13345   3.744  11.264   5.947 -0.0559 -0.4542 -0.7987
   97MOL0     H13346   3.582  11.276   6.008 -0.2161  1.8176  1.3275
   97MOL0     H13347   3.678  11.423   5.991 -0.3175  1.4183 -0.7746
   97MOL0     H13348   3.887  11.581   6.055  0.7129  0.8208  0.9137
   97MOL0     H13349   4.079  11.726   6.139 -1.7314  0.8676  0.8603
   97MOL0     H13350   4.387  11.846   5.868  1.5407 -0.2791  0.6626
   97MOL0     H13351   4.288  12.002   5.876  0.6098  0.4467 -0.0452
   97MOL0     H13352   4.511  12.059   5.948 -1.3370  2.6178 -1.3434
   97MOL0     H13353   4.404  12.066   6.089  2.6656 -0.1664  1.0317
   97MOL0     H13354   4.558  11.798   6.049 -3.8612 -0.8800 -0.1828
   97MOL0     H13355   4.484  11.865   6.182  2.7972 -1.3036  0.5336
   97MOL0     H13356   4.655  12.064   6.185  0.6144  0.1320 -0.6633
   97MOL0     H13357   4.730  11.984   6.052  1.8879 -2.1365  0.9344
   97MOL0     H13358   4.686  11.859   6.319 -1.1355 -2.2845 -1.5933
   97MOL0     H13359   4.777  11.786   6.182  1.2121 -0.3210  0.4384
   97MOL0     H13360   4.859  12.020   6.357 -0.8393 -1.8802  0.5267
   97MOL0     H13361   4.942  11.978   6.206 -1.7195 -1.0937 -0.8475
   97MOL0     H13362   4.990  11.760   6.293 -3.6252 -1.4084  0.9706
   97MOL0     H13363   4.902  11.786   6.443 -1.3108  0.0690 -0.4938
   97MOL0     H13364   5.162  11.924   6.350 -0.8009 -2.3142 -2.0003
   97MOL0     H13365   5.152  11.800   6.465  0.8007  1.2396 -1.4129
   97MOL0     H13366   4.202  11.798   5.737  1.1349 -1.9887  0.6573
   97MOL0     H13367   3.999  11.670   5.644  0.2554 -0.7264  0.1568
   97MOL0     H13368   3.580  11.519   5.521 -1.1648 -0.8041 -1.4983
   97MOL0     H13369   3.414  11.381   5.467 -0.2239  0.3205  0.5119
   97MOL0     H13370   1.325  11.069   5.083 -0.3678  0.4225  2.3723
   97MOL0     H13371   1.183  10.897   4.981  1.5518  1.8586 -0.4716
   97MOL0     H13372   0.988  10.559   4.897  0.4501 -0.8410 -3.2706
   97MOL0     H13373   0.794  10.400   4.894 -0.6375 -3.4313 -0.7357
   97MOL0     H13374   0.609  10.129   5.031 -0.1622 -0.2015 -0.5647
   97MOL0     H13375   0.665  10.299   5.041  1.7762  0.2854  0.2495
   97MOL0     H13376   0.602  10.117   4.798 -2.8264 -0.3223 -0.3468
   97MOL0     H13377   0.708  10.256   4.788 -0.5276  1.3500 -0.5008
   97MOL0     H13378   0.434  10.276   4.919 -0.1111  1.5566 -0.9197
   97MOL0     H13379   0.536  10.401   4.836  2.8410 -1.1888 -0.2924
   97MOL0     H13380   0.460  10.253   4.623 -0.3663 -2.7528 -0.6990
   97MOL0     H13381   0.324  10.329   4.699 -1.6009 -0.8818  3.7652
   97MOL0     H13382   0.207   9.937   4.757 -0.1424 -1.2016 -0.1255
   97MOL0     H13383   1.049  10.101   5.065  2.0991  0.1893  1.4886
   97MOL0     H13384   1.313  10.286   5.166  1.9110  0.5088 -0.6510
   97MOL0     H13385   1.276  10.123   5.092  1.8889 -0.3958 -2.2267
   97MOL0     H13386   1.345  10.242   4.993 -0.7798 -2.4294 -1.2683
   98MOL0     O13387  11.296   2.245   5.182 -0.0678 -0.0386 -0.0533
   98MOL0     C13388  11.343   2.145   5.241  0.7386 -0.0513  0.5798
   98MOL0     O13389  11.261   2.057   5.320  0.0290  0.0843  0.2888
   98MOL0     C13390  11.128   2.082   5.338  0.2148 -0.4067 -0.2817
   98MOL0     C13391  11.086   2.212   5.370  0.0909 -0.4697 -0.0047
   98MOL0     C13392  10.946   2.243   5.387 -0.8060 -0.2419 -0.3528
   98MOL0     C13393  10.856   2.140   5.367 -0.1399  0.2863  0.1512
   98MOL0     O13394  10.717   2.161   5.381  0.3545  0.4910  1.0437
   98MOL0     C13395  10.676   2.283   5.448  1.0555 -0.5849  0.1160
   98MOL0     C13396  10.533   2.274   5.482 -0.2183 -0.4748 -0.0608
   98MOL0     C13397  10.433   2.316   5.370  0.0948 -0.2830  0.5278
   98MOL0     C13398  10.290   2.261   5.387 -0.4759 -0.2204 -0.3865
   98MOL0     C13399  10.196   2.289   5.274  0.2813 -0.8773  2.1613
   98MOL0     C13400  10.054   2.278   5.315  0.0516  0.5094 -0.0412
   98MOL0     C13401   9.963   2.329   5.199  0.0083 -0.2755 -0.2004
   98MOL0     C13402   9.824   2.354   5.246 -1.1842  0.4548 -1.2607
   98MOL0     N13403   9.756   2.232   5.270  0.9895  0.1149  0.5638
   98MOL0     C13404   9.689   2.156   5.173  0.2616 -0.7662 -1.2489
   98MOL0     C13405   9.682   2.035   5.228  0.4534  0.5036 -0.4388
   98MOL0     C13406   9.623   1.910   5.152 -0.2599 -1.2636  0.0164
   98MOL0     C13407   9.715   1.860   5.042  0.1679  0.2272  0.1840
   98MOL0     C13408   9.852   1.810   5.093 -0.0578  0.2345  0.2764
   98MOL0     C13409   9.925   1.736   4.988  0.7159  0.4180  0.2807
   98MOL0     O13410   9.894   1.596   5.012  0.5435  0.0216  0.9705
   98MOL0     C13411   9.972   1.511   4.940  0.9863  0.7113 -0.2809
   98MOL0     C13412  10.002   1.380   4.989 -0.0639  0.5697  0.2531
   98MOL0     C13413  10.088   1.296   4.920 -0.3690  0.0661  0.3208
   98MOL0     C13414  10.125   1.168   4.999  0.3389  0.3240  0.5111
   98MOL0     C13415  10.148   1.341   4.795  0.9033  0.1693 -0.5601
   98MOL0     C13416  10.247   1.253   4.719 -0.2543  0.1320  0.6416
   98MOL0     O13417  10.300   1.306   4.613  0.4179 -0.0028  0.0711
   98MOL0     C13418  10.392   1.227   4.552  0.3847 -0.0732  0.2392
   98MOL0     C13419  10.380   1.187   4.418  0.8435  0.0254  0.0652
   98MOL0     C13420  10.485   1.114   4.357  0.8465  0.8142  0.1827
   98MOL0     C13421  10.599   1.087   4.432  0.0085  0.4623 -0.0949
   98MOL0     O13422  10.691   1.001   4.367  0.0869 -0.2534 -1.0934
   98MOL0     C13423  10.812   0.963   4.430  1.0316 -0.3122 -0.3304
   98MOL0     C13424  10.901   0.917   4.320 -0.4915 -0.8052  0.2004
   98MOL0     C13425  11.055   0.915   4.373  0.7296  0.9953 -0.5949
   98MOL0     C13426  11.151   0.893   4.246  0.2826  0.8130 -0.0200
   98MOL0     C13427  11.291   0.878   4.305 -0.6873  0.9771  0.1612
   98MOL0     C13428  11.400   0.885   4.190  0.0224 -0.1873 -0.0843
   98MOL0     C13429  11.422   1.038   4.163  0.1175  0.1881  0.6983
   98MOL0     C13430  11.567   1.068   4.111  0.7373  0.9116 -0.9708
   98MOL0    Cl13431  11.594   1.238   4.058  0.3731  0.1522 -0.0348
   98MOL0     C13432  10.604   1.114   4.572 -0.4376  1.0200  0.3641
   98MOL0     C13433  10.510   1.201   4.625  0.7261  0.2343 -0.3704
   98MOL0     O13434  10.268   1.135   4.755 -0.2943 -0.6022 -0.8223
   98MOL0     C13435  10.115   1.465   4.750 -0.5160  0.3654  0.5933
   98MOL0     C13436  10.031   1.546   4.818 -0.2015 -0.0741  0.2341
   98MOL0     N13437   9.728   2.031   5.360  0.4839 -0.5789 -0.1100
   98MOL0     N13438   9.772   2.148   5.374 -0.0962 -0.1214 -0.1306
   98MOL0     C13439  10.903   2.012   5.356  0.0716  0.0117 -0.0675
   98MOL0     C13440  11.034   1.978   5.329 -0.4003  0.0428 -0.0690
   98MOL0     C13441  11.491   2.119   5.237 -0.6300 -0.8756 -0.5107
   98MOL0     C13442  11.578   2.205   5.162  0.6420 -0.1933 -0.3628
   98MOL0     C13443  11.711   2.209   5.168 -0.1103  0.1458  1.1616
   98MOL0     C13444  11.782   2.118   5.241 -0.6000  0.5012  0.3847
   98MOL0     O13445  11.922   2.109   5.249 -0.1752  0.3471 -0.0898
   98MOL0     C13446  11.984   2.217   5.305 -0.0674 -0.5316 -0.9564
   98MOL0     C13447  12.139   2.225   5.291 -0.5040  0.0371 -0.0757
   98MOL0     C13448  12.208   2.116   5.373 -0.4081 -0.0638 -0.1840
   98MOL0     C13449  12.363   2.130   5.366  0.3737 -0.2148  0.0446
   98MOL0     C13450  12.432   2.028   5.441  0.9996 -1.1449  0.1605
   98MOL0     C13451  12.493   1.943   5.496  0.1822  0.1479  0.2768
   98MOL0     C13452  11.707   2.007   5.299 -0.0419 -0.3451 -0.8378
   98MOL0     C13453  11.564   2.008   5.298  0.8695  0.2607 -0.8276
   98MOL0     C13454  11.492   1.895   5.371  0.5646  0.2593 -0.0711
   98MOL0     H13455  11.157   2.292   5.389 -0.4676  0.0169  0.0656
   98MOL0     H13456  10.918   2.343   5.416  0.3533  0.9679 -3.0636
   98MOL0     H13457  10.692   2.376   5.391  0.6696 -0.1059  0.7794
   98MOL0     H13458  10.721   2.288   5.547 -2.3926 -1.4110  1.9061
   98MOL0     H13459  10.511   2.173   5.518  1.0964 -0.9587 -0.5494
   98MOL0     H13460  10.518   2.346   5.563  1.3056  2.0058 -1.8380
   98MOL0     H13461  10.434   2.425   5.359  0.6786 -0.4764 -1.7435
   98MOL0     H13462  10.469   2.287   5.271 -1.9290  0.7070 -0.5670
   98MOL0     H13463  10.286   2.152   5.398 -0.7472 -0.2398 -0.6464
   98MOL0     H13464  10.238   2.294   5.477 -0.4050 -3.0188  0.7946
   98MOL0     H13465  10.203   2.227   5.185 -4.9009 -2.0286  2.2550
   98MOL0     H13466  10.202   2.393   5.241 -1.8664 -1.1459  0.8082
   98MOL0     H13467  10.029   2.172   5.328 -0.6271  0.7101  0.3334
   98MOL0     H13468  10.033   2.338   5.403 -1.3713  1.6713 -1.1204
   98MOL0     H13469   9.959   2.263   5.112 -1.8460 -0.4101 -0.0523
   98MOL0     H13470   9.994   2.426   5.160 -0.7014  0.7351  1.6167
   98MOL0     H13471   9.830   2.426   5.328  1.2268  0.5897 -1.4671
   98MOL0     H13472   9.774   2.398   5.160  0.8499 -1.3675 -3.5012
   98MOL0     H13473   9.661   2.174   5.069  1.8263 -0.6300 -1.6639
   98MOL0     H13474   9.525   1.930   5.109 -0.4533  1.0288  1.3332
   98MOL0     H13475   9.588   1.826   5.214 -0.5536 -1.1175  0.0502
   98MOL0     H13476   9.664   1.787   4.978  0.9556 -0.3796  0.2325
   98MOL0     H13477   9.740   1.949   4.984 -3.2175  3.0617  2.6142
   98MOL0     H13478   9.917   1.893   5.125 -1.8792  1.6193  0.5265
   98MOL0     H13479   9.835   1.746   5.180 -0.3891 -1.7960 -1.1947
   98MOL0     H13480   9.903   1.772   4.887 -0.3730 -4.1824 -1.3925
   98MOL0     H13481  10.033   1.750   5.005  0.5169  1.4267  0.7519
   98MOL0     H13482   9.953   1.348   5.081  1.8709 -0.3401  1.0294
   98MOL0     H13483  10.228   1.165   5.037  0.6609  0.5281 -0.3235
   98MOL0     H13484  10.110   1.083   4.932 -1.6938  0.9260  0.1556
   98MOL0     H13485  10.053   1.149   5.079 -3.8216 -0.0152 -3.0090
   98MOL0     H13486  10.287   1.210   4.366  0.1466  0.6749  1.5306
   98MOL0     H13487  10.476   1.085   4.253 -1.0292 -3.7480  1.3830
   98MOL0     H13488  10.859   1.050   4.478 -1.6373  1.1029 -0.0725
   98MOL0     H13489  10.788   0.879   4.495 -0.7071 -0.7007 -1.3939
   98MOL0     H13490  10.876   0.814   4.292 -0.0259 -1.3833  1.7458
   98MOL0     H13491  10.887   0.977   4.230  2.2580 -2.5885 -1.5552
   98MOL0     H13492  11.062   0.826   4.436 -2.2404 -0.9038 -2.6660
   98MOL0     H13493  11.074   1.005   4.432  2.5212 -1.1683  2.4054
   98MOL0     H13494  11.132   0.977   4.178 -2.3588 -1.5391 -2.4620
   98MOL0     H13495  11.114   0.806   4.191 -2.6158  1.2774  0.9861
   98MOL0     H13496  11.313   0.943   4.390 -1.2649 -1.8583  2.6269
   98MOL0     H13497  11.297   0.772   4.330  3.6300  0.9758 -0.0501
   98MOL0     H13498  11.365   0.818   4.111  1.3309 -0.4233 -0.4880
   98MOL0     H13499  11.494   0.838   4.222  0.1248  1.2881  1.9519
   98MOL0     H13500  11.410   1.110   4.245  0.1851  0.9131  0.0783
   98MOL0     H13501  11.347   1.062   4.087 -1.7412 -2.4715  1.5099
   98MOL0     H13502  11.591   1.005   4.025 -0.1686  0.4839 -0.9171
   98MOL0     H13503  11.640   1.049   4.190  0.4373  1.0585 -0.6578
   98MOL0     H13504  10.696   1.102   4.627  1.0051  0.6056 -1.9826
   98MOL0     H13505  10.527   1.240   4.725 -0.6351  0.8069 -0.3511
   98MOL0     H13506  10.149   1.490   4.650 -3.0435 -0.8438 -0.6545
   98MOL0     H13507  10.011   1.643   4.773 -1.6729 -0.8928 -0.9297
   98MOL0     H13508  10.828   1.936   5.370 -1.8102  1.8579  0.3428
   98MOL0     H13509  11.056   1.874   5.310 -0.7565 -0.5226  2.2458
   98MOL0     H13510  11.518   2.260   5.090  1.3853  0.0123 -0.8301
   98MOL0     H13511  11.765   2.273   5.099 -0.9949  0.1191  0.4159
   98MOL0     H13512  11.940   2.312   5.273 -0.6949 -0.5493 -0.1932
   98MOL0     H13513  11.965   2.208   5.413  1.8865 -1.3297 -0.6499
   98MOL0     H13514  12.163   2.325   5.330 -0.7710 -0.0936  0.4337
   98MOL0     H13515  12.175   2.224   5.188  1.2049 -4.5696  0.3666
   98MOL0     H13516  12.171   2.128   5.475 -2.0639  1.0426 -0.8809
   98MOL0     H13517  12.192   2.020   5.324  1.9154 -1.1656  1.0480
   98MOL0     H13518  12.391   2.229   5.404  0.2176 -0.6009  1.2288
   98MOL0     H13519  12.397   2.115   5.264 -1.8792 -1.3432 -0.6229
   98MOL0     H13520  12.552   1.860   5.530  2.1143  0.2097 -2.5819
   98MOL0     H13521  11.760   1.920   5.337 -0.0030 -0.5666 -1.3896
   98MOL0     H13522  11.451   1.934   5.464 -0.8071 -0.1174 -0.5041
   98MOL0     H13523  11.410   1.855   5.311 -0.5911  1.8984  0.3535
   98MOL0     H13524  11.563   1.814   5.394  1.7671  1.0226 -1.0074
   99MOL0     O13525   3.477   1.501   5.286 -0.5748  0.3413 -0.1593
   99MOL0     C13526   3.481   1.403   5.220  0.3302  0.9580 -0.1188
   99MOL0     O13527   3.571   1.385   5.115  0.6657 -0.8118 -0.5327
   99MOL0     C13528   3.689   1.455   5.123 -0.6637 -0.4601  0.4712
   99MOL0     C13529   3.778   1.414   5.226 -0.2122 -0.6854  0.0800
   99MOL0     C13530   3.904   1.480   5.238  0.1929 -0.0608 -0.5447
   99MOL0     C13531   3.940   1.580   5.140  0.3569  0.9255  0.2344
   99MOL0     O13532   4.052   1.656   5.149 -1.5901 -0.5508 -0.2414
   99MOL0     C13533   4.132   1.651   5.266 -0.0081 -0.3144 -1.3479
   99MOL0     C13534   4.241   1.762   5.247  0.5391  0.1404  0.3082
   99MOL0     C13535   4.384   1.712   5.278  0.4075 -0.1365  0.3697
   99MOL0     C13536   4.482   1.819   5.256  0.5424  0.5130  0.3032
   99MOL0     C13537   4.619   1.786   5.307 -1.4982  0.0778  0.0392
   99MOL0     C13538   4.720   1.899   5.271 -0.4095 -0.4317 -0.2775
   99MOL0     C13539   4.850   1.884   5.352 -0.1244  0.1838 -0.7447
   99MOL0     C13540   4.941   2.002   5.356 -0.0641 -0.3828 -0.2083
   99MOL0     N13541   5.047   1.983   5.462 -0.1403  0.0302  0.3535
   99MOL0     C13542   5.038   1.949   5.596  0.2714  0.0201  1.0475
   99MOL0     C13543   5.162   1.913   5.631 -0.6433 -0.7989 -0.2009
   99MOL0     C13544   5.205   1.881   5.776  0.4841  0.6336 -0.1562
   99MOL0     C13545   5.103   1.766   5.831 -0.7228  0.3602 -0.1032
   99MOL0     C13546   5.172   1.701   5.955 -0.1565  0.5093 -0.1155
   99MOL0     C13547   5.307   1.643   5.915  0.0386  1.7739  0.3971
   99MOL0     O13548   5.411   1.725   5.978 -0.0871  0.4825 -0.0138
   99MOL0     C13549   5.534   1.667   5.993 -0.3551 -0.0732  0.0675
   99MOL0     C13550   5.578   1.558   5.914 -0.0023  0.4204 -0.2368
   99MOL0     C13551   5.712   1.505   5.931 -0.1851  0.5726  0.0416
   99MOL0     C13552   5.751   1.374   5.867 -0.1887 -0.2027  0.6031
   99MOL0     C13553   5.800   1.573   6.014  0.3834  0.2922 -0.2212
   99MOL0     C13554   5.935   1.514   6.046  0.2654  0.8987 -0.7499
   99MOL0     O13555   5.975   1.505   6.181  0.0569  0.2237 -0.3183
   99MOL0     C13556   6.103   1.458   6.209 -0.9900 -0.5405 -2.0901
   99MOL0     C13557   6.219   1.492   6.137  0.3354  0.3087 -0.3208
   99MOL0     C13558   6.341   1.456   6.188 -0.6438 -0.7727 -1.1483
   99MOL0     C13559   6.364   1.374   6.300  0.9515 -0.1860 -0.2969
   99MOL0     O13560   6.476   1.332   6.365 -0.4828  0.9472 -0.1666
   99MOL0     C13561   6.611   1.350   6.299  0.5780 -0.2467  0.1448
   99MOL0     C13562   6.707   1.285   6.399 -0.1464  0.0105  0.3468
   99MOL0     C13563   6.857   1.293   6.358  0.6031  0.1741 -0.0421
   99MOL0     C13564   6.956   1.273   6.469 -0.2526 -0.0244  0.4375
   99MOL0     C13565   7.093   1.313   6.423  0.5027 -0.2463 -0.4927
   99MOL0     C13566   7.189   1.275   6.533 -0.4296 -0.5465  1.1415
   99MOL0     C13567   7.325   1.322   6.494  0.0794 -0.3126 -0.5000
   99MOL0     C13568   7.426   1.216   6.543 -0.4395 -0.8564  0.2990
   99MOL0    Cl13569   7.427   1.068   6.442  0.3255  0.1156 -0.3294
   99MOL0     C13570   6.239   1.342   6.362 -0.7767  0.3784 -0.2094
   99MOL0     C13571   6.116   1.380   6.325 -0.3943 -0.5354 -0.1266
   99MOL0     O13572   6.004   1.475   5.945  0.2117 -0.1304  0.1312
   99MOL0     C13573   5.760   1.690   6.069 -0.8470 -0.0988 -0.4207
   99MOL0     C13574   5.635   1.736   6.058  1.0150 -0.0844 -0.2786
   99MOL0     N13575   5.243   1.946   5.527 -0.2732 -0.1377 -0.1261
   99MOL0     N13576   5.178   1.988   5.429 -0.5490 -0.0277 -0.0773
   99MOL0     C13577   3.852   1.612   5.029 -0.8953 -0.0168 -0.4326
   99MOL0     C13578   3.729   1.550   5.022  1.0166 -0.8804 -0.8298
   99MOL0     C13579   3.358   1.320   5.217  0.5224 -0.7095 -0.6349
   99MOL0     C13580   3.301   1.290   5.095 -0.3930  0.5023  0.4003
   99MOL0     C13581   3.184   1.222   5.088 -0.7000 -0.4312 -0.1522
   99MOL0     C13582   3.110   1.193   5.201  0.9893  0.2694 -0.3730
   99MOL0     O13583   2.989   1.134   5.181 -0.8459  0.7976  0.0046
   99MOL0     C13584   2.894   1.138   5.287  0.1938  0.2245 -0.6744
   99MOL0     C13585   2.757   1.084   5.258 -0.5131  0.0719  0.2165
   99MOL0     C13586   2.682   1.017   5.371  0.5228  1.0737 -0.3192
   99MOL0     C13587   2.600   1.108   5.458 -0.3411 -0.8442 -0.0119
   99MOL0     C13588   2.496   1.035   5.532 -0.0442  0.0190 -0.1681
   99MOL0     C13589   2.423   0.962   5.591  1.0519 -0.0528 -0.1530
   99MOL0     C13590   3.158   1.233   5.328  0.0428  0.4153 -0.2354
   99MOL0     C13591   3.285   1.293   5.335  0.7584  0.2797  0.2715
   99MOL0     C13592   3.344   1.308   5.476  0.2416 -1.3574  0.0468
   99MOL0     H13593   3.744   1.343   5.300 -1.9129  0.5007  0.4959
   99MOL0     H13594   3.968   1.450   5.320 -2.3079  0.1540  1.5970
   99MOL0     H13595   4.183   1.558   5.291  0.2567  0.1999  0.1770
   99MOL0     H13596   4.074   1.684   5.353  1.4074 -0.0154 -0.4812
   99MOL0     H13597   4.233   1.794   5.143 -0.8805  0.4625  0.4967
   99MOL0     H13598   4.219   1.854   5.302  3.1323  1.0343 -0.0402
   99MOL0     H13599   4.384   1.687   5.385 -1.8202  1.6568  0.8658
   99MOL0     H13600   4.406   1.627   5.212  1.7022  0.6150 -0.2156
   99MOL0     H13601   4.482   1.853   5.152 -4.1720  1.4083  0.3648
   99MOL0     H13602   4.447   1.907   5.311  0.9386  0.2397  1.0086
   99MOL0     H13603   4.673   1.697   5.275  1.4558  2.5618 -2.5044
   99MOL0     H13604   4.607   1.788   5.416 -1.6143  1.1913  0.0174
   99MOL0     H13605   4.752   1.896   5.167  1.2404  0.7665  0.1598
   99MOL0     H13606   4.668   1.991   5.301  1.6078  0.5192  0.5286
   99MOL0     H13607   4.907   1.803   5.305 -3.5646 -3.6798  1.0495
   99MOL0     H13608   4.831   1.852   5.456  0.2902  0.0420 -0.7112
   99MOL0     H13609   4.983   2.011   5.255  0.8094 -0.7758  0.1080
   99MOL0     H13610   4.899   2.100   5.381  2.1283  0.5400  0.1134
   99MOL0     H13611   4.942   1.929   5.644 -1.7019  1.6862 -1.8639
   99MOL0     H13612   5.183   1.961   5.847 -0.9510 -0.7000  0.9686
   99MOL0     H13613   5.308   1.845   5.780  0.1410 -0.2152  2.6395
   99MOL0     H13614   5.011   1.815   5.864 -0.4522  1.2262 -0.5989
   99MOL0     H13615   5.094   1.699   5.745 -0.3668  3.1300 -2.4727
   99MOL0     H13616   5.191   1.776   6.032  0.0089  0.2732  0.0767
   99MOL0     H13617   5.102   1.634   6.007 -1.1097  1.4655 -0.1352
   99MOL0     H13618   5.294   1.541   5.952 -3.0949  2.4961  1.6491
   99MOL0     H13619   5.325   1.636   5.807  2.4844  1.9040  0.7391
   99MOL0     H13620   5.523   1.510   5.834 -2.1722  0.8258  0.9219
   99MOL0     H13621   5.665   1.336   5.812  0.1409 -1.7900  1.1521
   99MOL0     H13622   5.776   1.295   5.938 -2.3883 -1.7299 -0.2171
   99MOL0     H13623   5.829   1.395   5.792  0.0011  0.7889  1.0548
   99MOL0     H13624   6.222   1.566   6.057 -3.4642 -0.4597 -1.3331
   99MOL0     H13625   6.436   1.482   6.144  0.4293 -0.8959  0.9931
   99MOL0     H13626   6.614   1.302   6.201 -1.3609  1.4295 -0.8264
   99MOL0     H13627   6.621   1.457   6.277 -2.8025 -0.0619 -1.1806
   99MOL0     H13628   6.681   1.330   6.495 -3.8905 -3.7623  1.3889
   99MOL0     H13629   6.681   1.180   6.413 -2.0006  0.2847 -0.6821
   99MOL0     H13630   6.878   1.391   6.314  1.3692  1.7427  3.5011
   99MOL0     H13631   6.883   1.232   6.270  4.1441  1.2618  0.1349
   99MOL0     H13632   6.952   1.167   6.496 -0.7005  0.3397  1.8851
   99MOL0     H13633   6.939   1.330   6.561  3.6754 -1.5141  2.2904
   99MOL0     H13634   7.108   1.262   6.328  0.8011 -0.0493 -0.5518
   99MOL0     H13635   7.093   1.421   6.411 -1.1357 -0.2010 -0.2835
   99MOL0     H13636   7.192   1.168   6.555 -0.9466 -0.0534  4.0241
   99MOL0     H13637   7.161   1.325   6.627 -1.6557  0.6192  0.1886
   99MOL0     H13638   7.345   1.414   6.550 -1.4229 -1.3475  1.9155
   99MOL0     H13639   7.334   1.343   6.387 -1.0835  0.7282 -0.4176
   99MOL0     H13640   7.413   1.191   6.649  0.6528 -0.7599  0.4674
   99MOL0     H13641   7.528   1.253   6.532 -0.7808  0.4961  1.3142
   99MOL0     H13642   6.233   1.278   6.449 -2.6223  0.9077  0.0993
   99MOL0     H13643   6.019   1.353   6.365 -1.1186  0.8932 -0.8406
   99MOL0     H13644   5.832   1.740   6.132 -0.2480 -0.6082 -0.6955
   99MOL0     H13645   5.604   1.826   6.111 -3.1603 -1.2437 -0.4369
   99MOL0     H13646   3.869   1.691   4.956 -0.2388 -0.0604 -0.3285
   99MOL0     H13647   3.654   1.584   4.950 -0.5132 -0.5545  0.8565
   99MOL0     H13648   3.342   1.325   5.001 -1.0660 -0.8356 -0.4095
   99MOL0     H13649   3.145   1.191   4.992 -1.0853  0.1740 -0.1936
   99MOL0     H13650   2.942   1.071   5.359  4.1245  3.7303  0.3175
   99MOL0     H13651   2.888   1.241   5.321 -0.6849 -0.5485  1.7521
   99MOL0     H13652   2.771   1.005   5.184 -1.1430 -1.0248  1.2348
   99MOL0     H13653   2.704   1.168   5.212  1.1162  1.8752  1.5041
   99MOL0     H13654   2.615   0.937   5.337  1.3482 -0.9805  2.4647
   99MOL0     H13655   2.741   0.955   5.440 -2.7446 -1.5906  0.3890
   99MOL0     H13656   2.545   1.183   5.400 -3.6486 -1.4835  2.0082
   99MOL0     H13657   2.662   1.172   5.523 -1.1099  1.5668 -1.4987
   99MOL0     H13658   2.355   0.891   5.631  2.3918 -2.3860 -1.7434
   99MOL0     H13659   3.109   1.202   5.419 -1.5880  1.8941 -0.5525
   99MOL0     H13660   3.451   1.283   5.478  1.7585  3.7966 -1.3648
   99MOL0     H13661   3.342   1.415   5.501 -1.6130 -1.3937  0.1872
   99MOL0     H13662   3.295   1.243   5.549  0.4241 -0.1945  1.2358
  100MOL0     O13663   1.287   2.563   8.058  0.3627 -0.2356 -0.1745
  100MOL0     C13664   1.296   2.682   8.074 -0.0613  0.0748 -0.6330
  100MOL0     O13665   1.395   2.764   8.014  0.9900 -0.2424  0.0955
  100MOL0     C13666   1.483   2.690   7.943  1.1918  0.1023 -0.3861
  100MOL0     C13667   1.440   2.626   7.819 -0.2014  0.0568  0.5552
  100MOL0     C13668   1.540   2.547   7.755  0.3383  0.1101  0.3871
  100MOL0     C13669   1.666   2.536   7.808  0.2647 -0.1157  0.3945
  100MOL0     O13670   1.765   2.476   7.735 -0.1643 -0.3369 -0.5146
  100MOL0     C13671   1.732   2.346   7.689 -0.5009 -0.7624 -0.1184
  100MOL0     C13672   1.865   2.279   7.688  0.3798  0.5064 -0.0168
  100MOL0     C13673   1.871   2.116   7.682 -0.2900  1.0505 -0.0162
  100MOL0     C13674   1.870   2.058   7.822  0.1786  0.8182 -0.0668
  100MOL0     C13675   1.872   1.899   7.812  0.5214 -0.0081 -0.3622
  100MOL0     C13676   1.845   1.837   7.953 -0.3144  0.2246 -0.4076
  100MOL0     C13677   1.825   1.678   7.962  0.4529 -0.0664 -0.0357
  100MOL0     C13678   1.690   1.629   7.909 -0.3058 -0.7387 -0.2603
  100MOL0     N13679   1.662   1.484   7.935  0.4345 -0.1362 -0.7267
  100MOL0     C13680   1.580   1.394   7.867 -0.0075 -0.1313 -0.2923
  100MOL0     C13681   1.592   1.282   7.935 -0.0778 -0.5481 -0.4485
  100MOL0     C13682   1.510   1.156   7.927  0.3412 -0.5039 -0.9073
  100MOL0     C13683   1.396   1.151   8.030  0.1243  0.0305  0.6961
  100MOL0     C13684   1.301   1.035   8.012 -0.3751 -0.7393 -0.2640
  100MOL0     C13685   1.172   1.068   8.088  0.3648 -0.2965  0.1102
  100MOL0     O13686   1.084   1.138   7.995 -0.2552  0.2025 -0.0314
  100MOL0     C13687   0.988   1.211   8.058 -0.8229  0.4732 -0.2484
  100MOL0     C13688   0.860   1.160   8.079  0.3270 -0.3270 -0.9220
  100MOL0     C13689   0.774   1.225   8.159  0.0225 -1.2668 -0.3328
  100MOL0     C13690   0.657   1.147   8.193 -0.7034  0.4268 -0.6226
  100MOL0     C13691   0.801   1.353   8.219 -0.4256  0.3269  0.2748
  100MOL0     C13692   0.700   1.423   8.302  0.2698  0.1818 -0.5804
  100MOL0     O13693   0.763   1.511   8.383  0.3765 -0.2712 -0.0014
  100MOL0     C13694   0.697   1.626   8.412 -0.8093  0.0847 -0.3899
  100MOL0     C13695   0.582   1.620   8.499 -0.4270 -0.7995  0.5720
  100MOL0     C13696   0.526   1.736   8.554  0.1667  0.2320 -0.1328
  100MOL0     C13697   0.586   1.859   8.542 -0.1992  0.4075 -0.5242
  100MOL0     O13698   0.541   1.969   8.613  0.7409 -0.2411  0.8974
  100MOL0     C13699   0.407   2.014   8.588  0.0198 -0.3228  0.5683
  100MOL0     C13700   0.417   2.154   8.512 -0.2926  0.0777 -0.6677
  100MOL0     C13701   0.437   2.279   8.603 -0.1269  0.6767  0.2807
  100MOL0     C13702   0.327   2.296   8.704  0.0703  0.0142 -0.0247
  100MOL0     C13703   0.355   2.420   8.783  0.0686  0.0543 -0.5930
  100MOL0     C13704   0.236   2.437   8.886 -1.4528  0.2832  0.3390
  100MOL0     C13705   0.259   2.548   8.983 -0.0001  0.3678  0.3873
  100MOL0     C13706   0.141   2.578   9.074  0.0037  0.1609  0.2695
  100MOL0    Cl13707   0.205   2.715   9.173 -0.1677 -0.1400 -0.0411
  100MOL0     C13708   0.714   1.862   8.483 -0.1102 -0.0138 -0.1884
  100MOL0     C13709   0.755   1.750   8.404 -0.0527 -0.2234  0.3872
  100MOL0     O13710   0.587   1.405   8.290 -0.0632 -0.3337 -0.1195
  100MOL0     C13711   0.931   1.410   8.185  0.1940  0.6467 -1.2080
  100MOL0     C13712   1.021   1.331   8.113 -0.0201  0.2439 -0.2829
  100MOL0     N13713   1.671   1.304   8.044 -0.8585  0.8363 -0.3913
  100MOL0     N13714   1.730   1.415   8.033  0.3772 -0.6988 -0.0429
  100MOL0     C13715   1.707   2.606   7.924 -0.0655  0.3566 -0.2117
  100MOL0     C13716   1.611   2.687   7.992 -0.6076  0.2908  0.2080
  100MOL0     C13717   1.209   2.749   8.170  0.4887  0.6229  0.2994
  100MOL0     C13718   1.220   2.885   8.194 -0.4752  0.0086  0.1059
  100MOL0     C13719   1.141   2.956   8.289 -0.6275 -0.3402  0.7308
  100MOL0     C13720   1.028   2.892   8.349  0.7069 -0.4129 -1.2948
  100MOL0     O13721   0.933   2.957   8.427 -0.3527 -0.8016  0.8636
  100MOL0     C13722   0.918   3.102   8.415 -0.1119  0.2258 -0.4697
  100MOL0     C13723   0.773   3.140   8.456  0.6554  0.1585 -0.5122
  100MOL0     C13724   0.746   3.143   8.604 -0.0213 -0.7967 -0.8264
  100MOL0     C13725   0.841   3.248   8.680  0.1201 -0.3234  0.6983
  100MOL0     C13726   0.820   3.385   8.621  0.1667  0.3186  0.9704
  100MOL0     C13727   0.809   3.501   8.590  0.3316  0.1670 -0.7726
  100MOL0     C13728   1.020   2.750   8.334  0.3877 -1.1045  0.9476
  100MOL0     C13729   1.106   2.682   8.243  0.0029  0.2355  0.1513
  100MOL0     C13730   1.086   2.533   8.237 -0.2953  0.3910  0.2943
  100MOL0     H13731   1.338   2.629   7.780 -0.3519 -4.1493  0.2606
  100MOL0     H13732   1.514   2.506   7.658 -0.9305  2.8019 -0.5257
  100MOL0     H13733   1.680   2.352   7.593 -0.4746  2.2551 -0.0348
  100MOL0     H13734   1.666   2.292   7.758  0.3736  0.1586  1.4937
  100MOL0     H13735   1.906   2.314   7.593 -0.3477 -2.3365 -1.5192
  100MOL0     H13736   1.927   2.321   7.768  1.2613 -0.9754  0.1310
  100MOL0     H13737   1.798   2.075   7.611  0.9433 -3.8150  1.1331
  100MOL0     H13738   1.966   2.091   7.633 -0.4990 -2.0379  0.9372
  100MOL0     H13739   1.963   2.099   7.862  0.6751  0.3977 -0.7668
  100MOL0     H13740   1.779   2.089   7.873  1.1949  0.4080  2.1154
  100MOL0     H13741   1.962   1.863   7.760  1.0164  2.7894 -1.6229
  100MOL0     H13742   1.788   1.875   7.746 -1.4832  1.1844  1.6473
  100MOL0     H13743   1.930   1.849   8.020 -0.5400 -1.8047  0.2895
  100MOL0     H13744   1.752   1.886   7.983 -1.3041  0.6905 -3.7995
  100MOL0     H13745   1.829   1.648   8.067 -0.7827 -0.8580 -0.1943
  100MOL0     H13746   1.894   1.625   7.896  1.0203  0.7892 -0.1481
  100MOL0     H13747   1.611   1.689   7.957  0.2948  0.2139 -0.4286
  100MOL0     H13748   1.681   1.658   7.803 -1.4225  6.2521  1.2223
  100MOL0     H13749   1.508   1.407   7.786 -0.7034  1.7072  0.5431
  100MOL0     H13750   1.570   1.067   7.948  0.3254 -0.0013  1.5748
  100MOL0     H13751   1.465   1.151   7.828 -2.1427 -0.7811  0.1459
  100MOL0     H13752   1.446   1.155   8.127  2.8819  1.3059 -0.6606
  100MOL0     H13753   1.333   1.241   8.033 -3.2880 -2.0469 -1.5497
  100MOL0     H13754   1.288   1.008   7.906 -0.8345  0.7773 -0.6153
  100MOL0     H13755   1.348   0.944   8.050  1.4079 -0.2707 -1.1931
  100MOL0     H13756   1.124   0.981   8.135 -1.3047 -0.3850 -1.6190
  100MOL0     H13757   1.194   1.135   8.172  1.7732  2.2061 -2.0994
  100MOL0     H13758   0.848   1.060   8.038  1.3792 -0.4625 -0.9388
  100MOL0     H13759   0.665   1.053   8.137  1.8451  1.3901 -2.0522
  100MOL0     H13760   0.567   1.195   8.153 -1.7031  1.2024  2.3339
  100MOL0     H13761   0.648   1.121   8.299 -1.9466 -0.6063 -0.9468
  100MOL0     H13762   0.555   1.519   8.530  0.6176 -1.9052 -1.8638
  100MOL0     H13763   0.437   1.732   8.615 -0.4944  3.8977 -0.6117
  100MOL0     H13764   0.347   1.941   8.532 -2.6835  2.2949 -0.2533
  100MOL0     H13765   0.358   2.018   8.686 -1.8408  1.3303 -0.3723
  100MOL0     H13766   0.501   2.149   8.443  1.8528 -0.5504  1.8478
  100MOL0     H13767   0.325   2.180   8.457  0.5341  0.5982 -1.8512
  100MOL0     H13768   0.437   2.368   8.539  2.0613 -0.4220 -1.3753
  100MOL0     H13769   0.531   2.273   8.657 -0.6371 -1.2848  1.0166
  100MOL0     H13770   0.332   2.220   8.783 -0.6157  2.0692  2.1293
  100MOL0     H13771   0.228   2.301   8.658 -0.1353 -0.8904  0.3021
  100MOL0     H13772   0.457   2.414   8.823  0.2285 -0.7630 -1.0907
  100MOL0     H13773   0.344   2.502   8.712  1.1591  0.8113  0.0895
  100MOL0     H13774   0.219   2.346   8.944 -0.3120 -0.4622 -0.4519
  100MOL0     H13775   0.145   2.455   8.827 -0.1192  0.9047 -1.6312
  100MOL0     H13776   0.279   2.640   8.927 -2.8229  0.4623 -0.6432
  100MOL0     H13777   0.345   2.516   9.042  0.2897 -1.6382 -1.0432
  100MOL0     H13778   0.123   2.489   9.135 -1.5947 -1.0646 -1.8835
  100MOL0     H13779   0.048   2.598   9.021 -0.3724  0.0932  0.8841
  100MOL0     H13780   0.772   1.951   8.461  1.7090 -1.6931 -2.7520
  100MOL0     H13781   0.829   1.774   8.328 -2.6077  3.6610 -1.1804
  100MOL0     H13782   0.960   1.502   8.236  2.0196 -2.2832  3.7277
  100MOL0     H13783   1.120   1.368   8.088  1.4121 -1.7423  1.9149
  100MOL0     H13784   1.807   2.599   7.965 -0.4268 -0.5560  0.5469
  100MOL0     H13785   1.647   2.739   8.080 -2.5032  2.4280 -0.1768
  100MOL0     H13786   1.303   2.937   8.147  0.1887  1.3934  2.6188
  100MOL0     H13787   1.165   3.060   8.312  0.1274 -0.1858 -0.6353
  100MOL0     H13788   0.986   3.156   8.482  0.5339 -0.7575 -0.3188
  100MOL0     H13789   0.934   3.136   8.312  2.6566 -0.8338 -0.4842
  100MOL0     H13790   0.703   3.081   8.398 -0.2542  2.1902 -1.5978
  100MOL0     H13791   0.758   3.239   8.412  0.0363 -0.5987 -2.0782
  100MOL0     H13792   0.642   3.166   8.628  0.3367 -2.1359  2.7641
  100MOL0     H13793   0.778   3.049   8.651  0.1735 -0.9030 -1.1733
  100MOL0     H13794   0.947   3.222   8.682 -0.0201 -1.0489 -0.2969
  100MOL0     H13795   0.809   3.253   8.784  1.3351  1.1579  1.0340
  100MOL0     H13796   0.793   3.599   8.550 -2.3154  0.1393  0.0416
  100MOL0     H13797   0.930   2.707   8.377 -2.1806  0.8226 -2.0818
  100MOL0     H13798   1.177   2.474   8.250 -0.9143 -1.1902 -1.9771
  100MOL0     H13799   1.015   2.493   8.311 -1.6190 -0.9611 -1.6235
  100MOL0     H13800   1.042   2.497   8.144  1.1557  2.1326 -1.1348
  101MOL0     O13801   5.522   9.460   6.694 -0.6946  0.5683 -0.2800
  101MOL0     C13802   5.557   9.512   6.796  0.1067  0.3774  0.0399
  101MOL0     O13803   5.683   9.530   6.832  0.4281 -0.1157 -0.7291
  101MOL0     C13804   5.773   9.566   6.737  0.1721 -0.2307 -0.4592
  101MOL0     C13805   5.843   9.685   6.767  0.0539 -0.7971 -0.2242
  101MOL0     C13806   5.935   9.734   6.665  0.1193 -0.4051  0.0581
  101MOL0     C13807   5.969   9.654   6.555 -1.2128  0.0422 -0.4736
  101MOL0     O13808   6.061   9.695   6.461  0.2908  0.1453 -0.0124
  101MOL0     C13809   6.188   9.748   6.501 -0.0909  0.1872 -0.0577
  101MOL0     C13810   6.288   9.705   6.397 -0.5131  1.1580  0.3128
  101MOL0     C13811   6.298   9.555   6.363  0.1226 -0.3163 -0.0317
  101MOL0     C13812   6.390   9.529   6.235 -0.0142 -1.0191 -1.0577
  101MOL0     C13813   6.412   9.384   6.194  0.6598  0.4369 -0.7943
  101MOL0     C13814   6.526   9.359   6.101  0.0982 -1.6075 -0.8464
  101MOL0     C13815   6.536   9.215   6.051 -0.0349  0.1027 -0.2124
  101MOL0     C13816   6.602   9.122   6.160 -1.1038 -0.3084 -0.0828
  101MOL0     N13817   6.622   8.988   6.106 -0.2644 -0.4953  0.3168
  101MOL0     C13818   6.725   8.949   6.026  0.1994  0.2436  0.0228
  101MOL0     C13819   6.701   8.821   5.984  0.1275  0.0917 -0.2109
  101MOL0     C13820   6.794   8.749   5.891  0.0236 -0.2808  0.6190
  101MOL0     C13821   6.861   8.642   5.965  0.1894  0.1008 -0.3803
  101MOL0     C13822   6.957   8.550   5.883  0.6703 -0.3238 -0.3649
  101MOL0     C13823   7.065   8.499   5.984  0.0163 -0.5335  0.1576
  101MOL0     O13824   7.175   8.438   5.917 -1.6982  0.2509 -0.1408
  101MOL0     C13825   7.275   8.385   5.992  0.2121  0.3122  0.4258
  101MOL0     C13826   7.298   8.397   6.131 -0.4093 -0.7622  0.0760
  101MOL0     C13827   7.409   8.349   6.191  0.1988  0.3417 -0.1093
  101MOL0     C13828   7.433   8.386   6.338  0.4795  0.4055 -0.8714
  101MOL0     C13829   7.505   8.270   6.115 -0.6878  0.6554 -0.2709
  101MOL0     C13830   7.635   8.216   6.166 -0.0123  0.0703  0.6398
  101MOL0     O13831   7.680   8.262   6.281 -0.0066  0.1243  0.2832
  101MOL0     C13832   7.813   8.260   6.325  0.5746  0.0322 -0.0200
  101MOL0     C13833   7.835   8.256   6.460 -0.9114 -0.5051  0.7120
  101MOL0     C13834   7.973   8.255   6.505 -0.7758  0.3666 -0.3495
  101MOL0     C13835   8.077   8.271   6.404  0.1456 -0.1270  0.5538
  101MOL0     O13836   8.206   8.273   6.435 -0.1116  0.0081  0.3511
  101MOL0     C13837   8.289   8.170   6.391  0.0783  0.4320  0.1214
  101MOL0     C13838   8.436   8.205   6.373  0.0880 -0.5233  0.2445
  101MOL0     C13839   8.526   8.211   6.505 -0.6580  0.5537  0.3904
  101MOL0     C13840   8.673   8.240   6.466 -0.3838 -0.2612 -0.4135
  101MOL0     C13841   8.716   8.153   6.349 -0.0661  0.5989 -0.6857
  101MOL0     C13842   8.868   8.141   6.345 -0.2782 -0.1129 -0.7494
  101MOL0     C13843   8.922   8.055   6.235  0.1453  0.2284  0.0857
  101MOL0     C13844   9.080   8.048   6.247  0.0450 -0.3145  1.2432
  101MOL0    Cl13845   9.155   7.977   6.393 -0.3979  0.0402 -0.3895
  101MOL0     C13846   8.041   8.281   6.276 -0.0578  0.4041 -0.1814
  101MOL0     C13847   7.913   8.275   6.232 -0.4305  0.3965 -0.0487
  101MOL0     O13848   7.692   8.131   6.092  0.5484  0.6852 -0.5648
  101MOL0     C13849   7.474   8.245   5.978 -0.3391 -0.1460  0.7859
  101MOL0     C13850   7.364   8.307   5.917  0.6562 -0.2106  0.0537
  101MOL0     N13851   6.577   8.787   6.037 -0.5032  1.4617 -0.3865
  101MOL0     N13852   6.527   8.888   6.104 -0.2249  0.5238 -0.1149
  101MOL0     C13853   5.916   9.530   6.547 -0.6415  0.4094  0.1001
  101MOL0     C13854   5.810   9.486   6.634  0.4227  0.6001  0.0417
  101MOL0     C13855   5.446   9.512   6.897 -0.7375  0.1379  0.2740
  101MOL0     C13856   5.486   9.499   7.028 -0.1633  0.1712 -1.0226
  101MOL0     C13857   5.402   9.489   7.141  0.1833 -0.9020  1.1000
  101MOL0     C13858   5.265   9.482   7.127 -0.3804 -0.6734  0.6065
  101MOL0     O13859   5.199   9.465   7.238 -0.2295 -0.2104 -0.0161
  101MOL0     C13860   5.057   9.438   7.226  1.1221 -0.1744 -0.0371
  101MOL0     C13861   5.014   9.295   7.196  0.4220  0.5551 -0.8346
  101MOL0     C13862   4.869   9.271   7.147  0.2542 -0.4373  0.3638
  101MOL0     C13863   4.779   9.310   7.260  0.1861  0.1916  0.0730
  101MOL0     C13864   4.647   9.249   7.242 -0.1585 -0.0978  0.7520
  101MOL0     C13865   4.541   9.197   7.224  0.2932 -0.2001 -0.3316
  101MOL0     C13866   5.214   9.495   6.991 -0.3458 -0.9969 -0.2850
  101MOL0     C13867   5.306   9.518   6.874  0.4865 -0.3888 -0.7193
  101MOL0     C13868   5.246   9.549   6.738 -0.2917 -0.4709  0.4502
  101MOL0     H13869   5.817   9.742   6.855  0.5851 -1.3147  0.2747
  101MOL0     H13870   5.970   9.835   6.685 -0.1328 -0.0370 -1.2516
  101MOL0     H13871   6.214   9.706   6.599  0.5178  1.1752  0.2195
  101MOL0     H13872   6.176   9.855   6.522 -0.4307  0.1391 -0.0080
  101MOL0     H13873   6.243   9.748   6.307 -0.1359 -1.4986 -1.2479
  101MOL0     H13874   6.386   9.747   6.421 -0.7628  0.4550  2.8838
  101MOL0     H13875   6.322   9.481   6.439 -0.2549 -1.0926 -0.6488
  101MOL0     H13876   6.203   9.510   6.334 -0.7208 -0.2480  2.4635
  101MOL0     H13877   6.353   9.587   6.150  1.0604  1.4167  0.0178
  101MOL0     H13878   6.492   9.565   6.252 -0.3963 -0.6423  0.6497
  101MOL0     H13879   6.317   9.352   6.151  0.9645  0.8461 -1.7812
  101MOL0     H13880   6.424   9.333   6.290  0.5437  1.1414 -0.3906
  101MOL0     H13881   6.516   9.423   6.013 -1.1044 -1.4694 -0.6305
  101MOL0     H13882   6.617   9.387   6.153  0.8379 -3.6276 -0.9672
  101MOL0     H13883   6.592   9.223   5.957  0.0930 -1.4450 -0.2910
  101MOL0     H13884   6.437   9.173   6.031  0.7192 -1.0544 -1.7200
  101MOL0     H13885   6.702   9.160   6.182 -0.9314 -1.5545  1.5231
  101MOL0     H13886   6.542   9.115   6.251 -1.8073  1.4111 -0.3754
  101MOL0     H13887   6.799   9.022   5.996  1.6017 -0.0397  2.5293
  101MOL0     H13888   6.861   8.822   5.845 -2.7136  1.8539 -0.2711
  101MOL0     H13889   6.739   8.705   5.807  0.7192  1.8545 -1.0460
  101MOL0     H13890   6.915   8.672   6.056  0.9035 -0.8013 -0.4919
  101MOL0     H13891   6.784   8.575   6.005 -0.2877  1.7081  1.5824
  101MOL0     H13892   6.901   8.474   5.828  0.6931  0.7693 -1.9780
  101MOL0     H13893   7.011   8.611   5.810  1.5083 -2.4682 -1.6223
  101MOL0     H13894   7.111   8.586   6.032  1.3997 -0.4552 -1.2456
  101MOL0     H13895   7.023   8.428   6.056 -0.2145 -0.0728  0.4834
  101MOL0     H13896   7.231   8.455   6.195  0.7448 -0.4970  1.0901
  101MOL0     H13897   7.440   8.302   6.407 -2.0981  0.8427  0.0294
  101MOL0     H13898   7.347   8.447   6.367 -1.0895 -1.0863 -2.1148
  101MOL0     H13899   7.520   8.452   6.333 -1.3575  3.0906  0.3513
  101MOL0     H13900   7.747   8.256   6.522 -3.0702  3.8590 -1.8683
  101MOL0     H13901   7.996   8.259   6.611  0.4848  0.8620 -0.6364
  101MOL0     H13902   8.284   8.085   6.459  0.1099  0.3041 -0.0380
  101MOL0     H13903   8.250   8.139   6.294  1.5879  0.1326 -0.4138
  101MOL0     H13904   8.471   8.137   6.295 -2.1130  1.2823 -2.5409
  101MOL0     H13905   8.438   8.306   6.330  4.4833 -0.1044  1.0237
  101MOL0     H13906   8.532   8.117   6.561  0.5533  0.4958  0.1983
  101MOL0     H13907   8.489   8.287   6.574 -2.0878 -0.5572  0.8941
  101MOL0     H13908   8.738   8.214   6.550 -0.7645 -1.0333 -0.3531
  101MOL0     H13909   8.683   8.344   6.432 -0.8055 -0.5715 -1.5367
  101MOL0     H13910   8.673   8.052   6.351  2.2653 -0.5595 -3.1966
  101MOL0     H13911   8.691   8.197   6.252  1.5823 -2.4518 -2.6560
  101MOL0     H13912   8.894   8.088   6.437  3.5399 -0.0425 -1.6240
  101MOL0     H13913   8.927   8.233   6.337  0.2285 -0.1959  1.4396
  101MOL0     H13914   8.892   8.086   6.135  2.9084 -3.1884 -2.0102
  101MOL0     H13915   8.880   7.955   6.246  0.6387  0.2481  3.0791
  101MOL0     H13916   9.113   8.149   6.223  0.2260 -1.0498 -2.0095
  101MOL0     H13917   9.107   7.979   6.166 -2.1084 -0.1053  0.2877
  101MOL0     H13918   8.119   8.302   6.203  1.0006  0.2848  0.8820
  101MOL0     H13919   7.888   8.308   6.132  2.9335  0.9931 -0.8100
  101MOL0     H13920   7.539   8.205   5.901 -1.0358 -0.7242  0.4875
  101MOL0     H13921   7.354   8.314   5.809  0.3273  0.4415  0.1178
  101MOL0     H13922   5.952   9.460   6.472 -3.6166  0.7997 -1.8344
  101MOL0     H13923   5.774   9.383   6.630  1.1110  0.3188  0.7518
  101MOL0     H13924   5.590   9.495   7.058 -0.6140 -0.4293  0.5619
  101MOL0     H13925   5.457   9.497   7.234  2.9963 -0.1051 -0.5275
  101MOL0     H13926   5.024   9.450   7.329  0.0052 -1.2747 -0.2488
  101MOL0     H13927   5.006   9.515   7.168 -0.3141 -0.4023  0.8927
  101MOL0     H13928   5.024   9.232   7.285 -0.2653  1.5555 -0.0322
  101MOL0     H13929   5.082   9.256   7.120  3.1159 -1.0232  2.1569
  101MOL0     H13930   4.837   9.327   7.059 -2.1858 -1.2706  0.6471
  101MOL0     H13931   4.853   9.168   7.115 -0.5461 -0.0182 -0.6332
  101MOL0     H13932   4.771   9.419   7.267 -1.7277  0.2075 -1.6109
  101MOL0     H13933   4.823   9.284   7.357 -1.5829 -2.2560  0.2956
  101MOL0     H13934   4.452   9.142   7.202 -0.4036  0.9728 -0.5474
  101MOL0     H13935   5.107   9.500   6.974 -0.1675  0.6933 -1.1241
  101MOL0     H13936   5.207   9.453   6.703 -2.4173  0.2250  0.8155
  101MOL0     H13937   5.166   9.623   6.748 -1.0066 -0.6096 -3.1439
  101MOL0     H13938   5.323   9.584   6.668  0.5764 -1.1958  1.0061
  102MOL0     O13939   0.856   0.644   7.912 -0.3415  0.1702 -0.1047
  102MOL0     C13940   0.866   0.745   7.847 -0.4728  1.4540  0.6886
  102MOL0     O13941   0.975   0.786   7.779 -0.1513 -0.3851  0.1183
  102MOL0     C13942   1.098   0.752   7.829 -0.2257 -0.0652 -0.0959
  102MOL0     C13943   1.211   0.768   7.756 -0.2681 -0.4454  0.7322
  102MOL0     C13944   1.345   0.745   7.798  0.5053  0.0248 -0.6908
  102MOL0     C13945   1.366   0.701   7.933  1.2040  0.3978 -0.1486
  102MOL0     O13946   1.484   0.656   7.989  0.2437  0.4230 -0.2259
  102MOL0     C13947   1.611   0.696   7.930 -1.0379 -0.6422 -0.4964
  102MOL0     C13948   1.700   0.723   8.059  0.6594  0.0711 -0.2757
  102MOL0     C13949   1.849   0.750   8.033  0.0761  0.9736  0.9836
  102MOL0     C13950   1.936   0.644   7.962 -0.1373  0.6650 -0.1676
  102MOL0     C13951   2.067   0.714   7.910  0.4874  1.0341 -0.5422
  102MOL0     C13952   2.119   0.820   8.017 -0.2461 -0.1880 -0.3588
  102MOL0     C13953   2.266   0.862   8.007  0.8723 -0.3227 -0.0939
  102MOL0     C13954   2.299   0.952   7.877 -0.1845 -0.3992 -1.0855
  102MOL0     N13955   2.239   1.083   7.861 -0.5418  0.6970  0.4364
  102MOL0     C13956   2.118   1.105   7.804 -0.2286  0.4420 -0.2009
  102MOL0     C13957   2.099   1.241   7.812  0.4422 -0.4070 -0.1682
  102MOL0     C13958   1.977   1.302   7.756 -0.4817 -0.0796  0.0618
  102MOL0     C13959   2.023   1.406   7.648 -0.4716  0.1270  0.1911
  102MOL0     C13960   1.916   1.497   7.597 -0.0459  0.3563  0.4431
  102MOL0     C13961   1.961   1.630   7.533 -1.0122  1.2962 -0.0367
  102MOL0     O13962   2.018   1.587   7.409 -0.6425  0.1484 -0.2987
  102MOL0     C13963   2.123   1.656   7.341  0.0005  0.1855 -0.2289
  102MOL0     C13964   2.154   1.791   7.371 -0.7885  1.1128 -0.3633
  102MOL0     C13965   2.239   1.872   7.301 -0.1342 -0.0559  0.2690
  102MOL0     C13966   2.241   2.021   7.328  0.4506  1.2708  0.2422
  102MOL0     C13967   2.309   1.819   7.192 -0.5922  1.1201 -0.2405
  102MOL0     C13968   2.405   1.892   7.108  0.0005  0.8729 -0.0577
  102MOL0     O13969   2.487   1.976   7.167  0.2336 -0.5178 -0.0327
  102MOL0     C13970   2.576   2.040   7.091 -0.4668  0.5189 -0.7174
  102MOL0     C13971   2.536   2.150   7.014 -0.3947 -0.8163 -0.5080
  102MOL0     C13972   2.636   2.230   6.952 -0.3172 -0.0987  0.4292
  102MOL0     C13973   2.769   2.194   6.966  0.6044  0.4852  0.5045
  102MOL0     O13974   2.849   2.269   6.890 -0.7994 -0.4301 -0.1755
  102MOL0     C13975   2.988   2.246   6.869  0.8332  0.7124  0.1244
  102MOL0     C13976   3.066   2.275   7.002 -0.3019  0.2355  0.5473
  102MOL0     C13977   3.210   2.328   6.979  0.8773  0.1474  0.8257
  102MOL0     C13978   3.293   2.381   7.092  0.2417  0.3240  0.6540
  102MOL0     C13979   3.436   2.420   7.060 -0.8062  0.1343 -0.3869
  102MOL0     C13980   3.509   2.438   7.192  0.4928  0.5616  0.0896
  102MOL0     C13981   3.641   2.519   7.173  0.3262  0.2207  0.5400
  102MOL0     C13982   3.719   2.543   7.293 -0.3463 -0.5959  0.7370
  102MOL0    Cl13983   3.849   2.669   7.261  0.1321 -0.0716 -0.3036
  102MOL0     C13984   2.805   2.082   7.039 -0.2202 -1.3048 -0.6074
  102MOL0     C13985   2.711   2.012   7.108 -1.2307 -0.1022 -0.0069
  102MOL0     O13986   2.380   1.889   6.988 -0.3896 -0.4619 -0.3940
  102MOL0     C13987   2.281   1.682   7.155  0.1493  1.0331 -1.1007
  102MOL0     C13988   2.190   1.600   7.225 -0.0722  0.2068 -0.2189
  102MOL0     N13989   2.199   1.295   7.881 -0.2621 -0.4441  0.5770
  102MOL0     N13990   2.286   1.202   7.913  0.0954  0.2902 -0.0052
  102MOL0     C13991   1.255   0.699   8.018  0.3576 -0.4149 -0.9168
  102MOL0     C13992   1.124   0.725   7.972 -0.0182  0.0738  0.9319
  102MOL0     C13993   0.741   0.822   7.820  0.5752 -0.1485  0.8001
  102MOL0     C13994   0.757   0.954   7.786  0.2398 -0.1736  0.0212
  102MOL0     C13995   0.648   1.048   7.757  0.2343  0.2192  0.2064
  102MOL0     C13996   0.521   0.992   7.748  0.0984  0.9430 -0.0552
  102MOL0     O13997   0.421   1.073   7.723 -0.0377 -0.2571  0.1976
  102MOL0     C13998   0.305   1.074   7.808 -0.3161  0.4084 -0.1044
  102MOL0     C13999   0.330   1.174   7.921 -0.0699 -0.6710 -0.8011
  102MOL0     C14000   0.372   1.320   7.894 -0.1684  0.4128  0.0438
  102MOL0     C14001   0.281   1.432   7.955  0.1369 -0.5443  0.6944
  102MOL0     C14002   0.284   1.437   8.101 -0.4059 -0.5037  0.1503
  102MOL0     C14003   0.263   1.447   8.221 -0.5738 -0.9971  0.6198
  102MOL0     C14004   0.499   0.855   7.771  0.9217  0.4547  1.2735
  102MOL0     C14005   0.602   0.773   7.810  0.1840 -0.2679  0.1012
  102MOL0     C14006   0.564   0.630   7.832  0.0649 -0.9432 -0.4143
  102MOL0     H14007   1.177   0.777   7.653 -1.8458 -0.8867  1.1883
  102MOL0     H14008   1.434   0.757   7.737  1.9300  1.0461  1.4510
  102MOL0     H14009   1.603   0.790   7.874  0.1107 -0.8196 -1.0058
  102MOL0     H14010   1.650   0.620   7.861 -2.8659 -0.4933 -1.7655
  102MOL0     H14011   1.648   0.802   8.113 -1.7937 -1.8812  0.4066
  102MOL0     H14012   1.696   0.632   8.120  1.3552  0.6736  0.7050
  102MOL0     H14013   1.854   0.840   7.972 -1.4792  2.3302  2.7245
  102MOL0     H14014   1.894   0.769   8.131  4.2063 -2.8101  0.1310
  102MOL0     H14015   1.949   0.567   8.039 -1.3906  1.0973  0.5014
  102MOL0     H14016   1.873   0.608   7.880  2.5067 -1.7677 -1.3078
  102MOL0     H14017   2.054   0.758   7.810  1.1111  1.4401 -0.4513
  102MOL0     H14018   2.141   0.636   7.895 -1.4247 -1.0705  0.4458
  102MOL0     H14019   2.063   0.914   8.008 -1.9752 -1.1029  0.2196
  102MOL0     H14020   2.107   0.783   8.119 -0.0236  1.9134  0.4803
  102MOL0     H14021   2.329   0.774   7.996  0.8449 -0.4706  0.8530
  102MOL0     H14022   2.292   0.918   8.097  0.2995  0.6607 -0.5233
  102MOL0     H14023   2.407   0.968   7.872 -0.0385 -0.3048  1.0593
  102MOL0     H14024   2.270   0.886   7.795 -1.7763 -2.2994  0.8645
  102MOL0     H14025   2.049   1.035   7.757 -0.2565 -2.2145  3.3428
  102MOL0     H14026   1.928   1.345   7.844  1.9973  1.0496  0.9846
  102MOL0     H14027   1.905   1.234   7.709 -1.4295  0.3355  0.8764
  102MOL0     H14028   2.096   1.473   7.695  1.4432 -1.7632  0.0460
  102MOL0     H14029   2.063   1.350   7.563 -0.1111 -1.6466  1.4821
  102MOL0     H14030   1.861   1.446   7.517  1.3627  2.3802 -1.9569
  102MOL0     H14031   1.850   1.508   7.683  0.4138 -3.2341  1.3821
  102MOL0     H14032   1.872   1.692   7.519 -1.4917  0.2093 -2.2184
  102MOL0     H14033   2.028   1.679   7.604 -1.8359  2.2494  0.1126
  102MOL0     H14034   2.112   1.836   7.460  2.4295  0.0044  1.9380
  102MOL0     H14035   2.276   2.086   7.247  0.0143  1.2726  0.0560
  102MOL0     H14036   2.308   2.037   7.413  0.4611 -0.2107  0.5453
  102MOL0     H14037   2.142   2.052   7.361 -0.2156 -0.3947 -0.0898
  102MOL0     H14038   2.431   2.174   7.007 -0.0538  1.6326  1.3964
  102MOL0     H14039   2.603   2.306   6.881 -0.6838 -0.0087  0.6903
  102MOL0     H14040   3.014   2.142   6.847  2.3851  0.6260  2.0521
  102MOL0     H14041   3.049   2.299   6.794  1.9254  1.3331  1.4111
  102MOL0     H14042   3.007   2.349   7.057 -2.0733 -2.7744  3.0430
  102MOL0     H14043   3.075   2.176   7.047  2.5002 -0.3692 -1.1233
  102MOL0     H14044   3.179   2.413   6.917 -0.4455 -1.3515 -0.6497
  102MOL0     H14045   3.269   2.255   6.923  3.4666 -0.5749  4.1750
  102MOL0     H14046   3.298   2.295   7.160  1.1276 -0.8913 -0.8644
  102MOL0     H14047   3.242   2.470   7.129  2.4750  2.1253 -0.3333
  102MOL0     H14048   3.489   2.348   6.997 -2.3967  0.3263 -2.0354
  102MOL0     H14049   3.429   2.507   6.995 -1.2439 -1.4017 -2.5207
  102MOL0     H14050   3.539   2.338   7.225  0.2150  0.0045 -1.2463
  102MOL0     H14051   3.439   2.485   7.261 -1.8331 -1.2052 -0.9129
  102MOL0     H14052   3.602   2.618   7.145 -0.2432  0.3804  1.8068
  102MOL0     H14053   3.697   2.476   7.090 -0.6895 -0.2812  0.0962
  102MOL0     H14054   3.765   2.448   7.322  0.3930 -0.4942 -0.0596
  102MOL0     H14055   3.646   2.573   7.369 -0.7247 -1.9360  0.9150
  102MOL0     H14056   2.909   2.058   7.058  1.0222  2.5528 -1.5891
  102MOL0     H14057   2.744   1.947   7.188  3.5053  2.0250  0.0789
  102MOL0     H14058   2.328   1.635   7.070 -0.2138 -3.5198  0.9059
  102MOL0     H14059   2.166   1.502   7.186  2.0016 -0.1190 -0.8442
  102MOL0     H14060   1.265   0.659   8.118  0.2919  1.6621 -0.0228
  102MOL0     H14061   1.051   0.729   8.052 -1.3143 -0.4948 -0.1803
  102MOL0     H14062   0.853   1.005   7.779  0.4365 -0.4433  0.6681
  102MOL0     H14063   0.669   1.153   7.737 -1.2724  0.2747 -1.2376
  102MOL0     H14064   0.217   1.107   7.752 -1.7902  0.0480  1.8797
  102MOL0     H14065   0.292   0.974   7.851 -0.7256  0.7674  0.6349
  102MOL0     H14066   0.403   1.123   7.985  0.0229 -0.2345 -0.5484
  102MOL0     H14067   0.238   1.187   7.980  0.9597  4.2717  0.1976
  102MOL0     H14068   0.475   1.334   7.929 -1.6154  1.7544  4.4989
  102MOL0     H14069   0.380   1.327   7.785  0.2037  0.8406  0.0930
  102MOL0     H14070   0.181   1.428   7.911  1.7600 -0.4264 -3.4447
  102MOL0     H14071   0.323   1.528   7.925 -1.9994  0.8988  2.0543
  102MOL0     H14072   0.272   1.462   8.326  1.3695 -2.0147  0.6544
  102MOL0     H14073   0.397   0.823   7.755  1.1942 -0.1354  0.6224
  102MOL0     H14074   0.564   0.612   7.939 -1.7408  0.6549 -0.0811
  102MOL0     H14075   0.462   0.604   7.802  0.0690  1.6832 -3.2981
  102MOL0     H14076   0.641   0.568   7.786  1.0784 -0.8063  1.0360
  103MOL0     O14077   0.655   8.311   7.902  0.2934 -0.4870 -0.4997
  103MOL0     C14078   0.772   8.295   7.926 -0.4690 -1.1684  0.0887
  103MOL0     O14079   0.824   8.244   8.045 -0.2851  0.4527  0.2016
  103MOL0     C14080   0.733   8.228   8.146 -0.4278  0.0603 -1.0521
  103MOL0     C14081   0.622   8.143   8.135  0.1175  0.0473  0.5058
  103MOL0     C14082   0.527   8.138   8.245 -0.6727 -0.2507  1.0944
  103MOL0     C14083   0.548   8.222   8.360  0.6285 -0.4078 -0.1915
  103MOL0     O14084   0.444   8.203   8.455 -0.6346  0.3686  0.4511
  103MOL0     C14085   0.456   8.278   8.576  0.1048 -0.2122  0.4269
  103MOL0     C14086   0.376   8.203   8.684  0.0727 -0.3897 -0.1216
  103MOL0     C14087   0.469   8.101   8.758  0.6581 -0.0804  0.7008
  103MOL0     C14088   0.380   8.025   8.868  0.4117 -0.1996 -0.2292
  103MOL0     C14089   0.443   7.917   8.953 -0.0503 -0.3883  0.4754
  103MOL0     C14090   0.563   7.968   9.025 -0.0651  0.6085  0.7637
  103MOL0     C14091   0.634   7.855   9.091  1.2932  0.7501  0.1589
  103MOL0     C14092   0.761   7.898   9.153  0.1980  0.1254  0.0849
  103MOL0     N14093   0.866   7.921   9.053  0.0659 -0.1631 -0.0413
  103MOL0     C14094   0.954   7.821   9.009  0.1343 -0.4147  0.5644
  103MOL0     C14095   1.032   7.879   8.918  0.2934 -0.1036  0.2216
  103MOL0     C14096   1.130   7.820   8.828  0.2597  0.6937  0.1344
  103MOL0     C14097   1.279   7.823   8.873 -0.5639 -0.2602  0.6711
  103MOL0     C14098   1.359   7.757   8.762  0.5306 -0.3682  1.0841
  103MOL0     C14099   1.498   7.755   8.798 -0.1336 -0.0716 -0.1074
  103MOL0     O14100   1.571   7.677   8.701  0.9153  0.4547 -0.2776
  103MOL0     C14101   1.692   7.728   8.687 -0.5702  0.0330 -0.8578
  103MOL0     C14102   1.783   7.730   8.797 -0.2444  0.7471 -0.3848
  103MOL0     C14103   1.918   7.747   8.780 -0.5598  0.9854  1.2366
  103MOL0     C14104   2.000   7.745   8.907 -0.6098 -0.1811  0.4621
  103MOL0     C14105   1.965   7.777   8.653  0.2799  0.2507 -0.7210
  103MOL0     C14106   2.114   7.805   8.618 -0.0725 -0.0505  0.1391
  103MOL0     O14107   2.148   7.866   8.496 -0.3351 -0.0742  0.5390
  103MOL0     C14108   2.271   7.919   8.478  0.1392  0.9472 -0.4726
  103MOL0     C14109   2.381   7.841   8.436  0.5702  0.3953 -0.3768
  103MOL0     C14110   2.503   7.899   8.411  0.4532  0.2834 -0.4068
  103MOL0     C14111   2.534   8.032   8.442 -0.1660 -0.5070 -0.2308
  103MOL0     O14112   2.661   8.097   8.426  0.8554  0.3253  0.3713
  103MOL0     C14113   2.727   8.047   8.308 -0.0955  0.7345 -0.3049
  103MOL0     C14114   2.848   8.139   8.258  0.2542  0.0840 -1.0599
  103MOL0     C14115   2.962   8.146   8.368 -0.0829  0.2491  0.0766
  103MOL0     C14116   3.092   8.236   8.346  0.2340  0.0898  0.0953
  103MOL0     C14117   3.195   8.207   8.451  0.5539 -0.6871 -0.1847
  103MOL0     C14118   3.266   8.071   8.437  0.2576 -0.3742  0.2954
  103MOL0     C14119   3.365   8.066   8.551 -0.4148  0.3505 -0.0505
  103MOL0     C14120   3.466   7.956   8.513 -0.2285  0.6846 -0.5852
  103MOL0    Cl14121   3.383   7.795   8.491 -0.2433 -0.2620  0.1169
  103MOL0     C14122   2.430   8.103   8.488  0.1920 -0.1409  0.0196
  103MOL0     C14123   2.303   8.046   8.511  0.9662  0.7768 -0.9765
  103MOL0     O14124   2.196   7.744   8.683 -0.5130  0.0097  0.1844
  103MOL0     C14125   1.875   7.792   8.548 -0.1597  0.5989 -0.0705
  103MOL0     C14126   1.739   7.767   8.563  0.2435 -0.4726 -0.5610
  103MOL0     N14127   0.994   8.014   8.899 -0.2815  0.7133 -0.1083
  103MOL0     N14128   0.898   8.041   8.991 -0.2403  0.3482 -0.3748
  103MOL0     C14129   0.669   8.292   8.371 -0.9863  0.2817  0.5661
  103MOL0     C14130   0.758   8.302   8.262 -0.7520  0.4308  1.3587
  103MOL0     C14131   0.861   8.335   7.812 -0.0248 -0.1727  0.3490
  103MOL0     C14132   0.927   8.230   7.753  0.7447  0.2346 -1.6027
  103MOL0     C14133   0.989   8.251   7.631 -0.2231 -1.2953  0.5571
  103MOL0     C14134   1.003   8.376   7.578 -0.7057  0.0828  0.1294
  103MOL0     O14135   1.076   8.385   7.462  0.0148  0.2512 -0.3551
  103MOL0     C14136   1.067   8.503   7.381  0.3655 -0.5701 -0.1622
  103MOL0     C14137   1.126   8.481   7.248  0.1476  0.4478  0.1493
  103MOL0     C14138   1.063   8.366   7.166  0.2915  0.5809  0.1131
  103MOL0     C14139   0.910   8.365   7.156 -0.2631  0.0189  0.0487
  103MOL0     C14140   0.889   8.481   7.080  0.6573 -0.3653  0.2490
  103MOL0     C14141   0.861   8.578   7.013  0.1778  0.3806  0.1500
  103MOL0     C14142   0.942   8.485   7.650 -0.6678 -0.9466 -0.1293
  103MOL0     C14143   0.870   8.469   7.763  0.5467  0.2185 -0.6675
  103MOL0     C14144   0.817   8.587   7.843 -0.6912  0.0834  0.6137
  103MOL0     H14145   0.604   8.075   8.052 -1.7874  1.1620 -0.0616
  103MOL0     H14146   0.431   8.087   8.247 -1.6039  1.3392 -0.3283
  103MOL0     H14147   0.420   8.378   8.552  1.2731 -0.5689 -3.4050
  103MOL0     H14148   0.560   8.280   8.610 -0.2287  0.2719  1.4599
  103MOL0     H14149   0.343   8.277   8.757 -0.3365 -0.1837 -0.5076
  103MOL0     H14150   0.292   8.148   8.640  0.9078 -2.6301  0.9497
  103MOL0     H14151   0.511   8.026   8.689 -1.8533 -0.2848 -0.7472
  103MOL0     H14152   0.545   8.167   8.801 -1.9286  2.3959  1.7720
  103MOL0     H14153   0.351   8.109   8.932 -1.4015 -0.4034 -0.7343
  103MOL0     H14154   0.285   7.990   8.826 -0.5833  0.3471  1.4681
  103MOL0     H14155   0.463   7.825   8.897  1.6292  0.3141 -0.1454
  103MOL0     H14156   0.380   7.885   9.036 -0.2743  1.4186  1.0395
  103MOL0     H14157   0.621   8.010   8.942 -1.6176 -1.1168 -1.3294
  103MOL0     H14158   0.543   8.047   9.098 -2.2047  1.5309 -0.7119
  103MOL0     H14159   0.666   7.777   9.021 -3.6811 -2.3663  0.8761
  103MOL0     H14160   0.567   7.803   9.160 -2.3723  1.0286 -2.8559
  103MOL0     H14161   0.740   7.995   9.199 -2.5742  0.0851 -0.8836
  103MOL0     H14162   0.785   7.820   9.226 -0.0605 -1.9155 -1.8742
  103MOL0     H14163   0.938   7.716   9.028  1.4620 -0.2370  3.2502
  103MOL0     H14164   1.133   7.868   8.730  1.6686  1.2669  0.4337
  103MOL0     H14165   1.109   7.714   8.812  0.7514  0.9293 -2.5204
  103MOL0     H14166   1.308   7.929   8.880  0.0421 -0.3536 -0.2659
  103MOL0     H14167   1.294   7.770   8.967  0.6477 -0.2044  0.5245
  103MOL0     H14168   1.333   7.653   8.742 -0.5375 -0.0270  0.6239
  103MOL0     H14169   1.348   7.801   8.663  2.7483 -3.9959 -1.0168
  103MOL0     H14170   1.528   7.860   8.801  0.4475 -0.2316 -0.2370
  103MOL0     H14171   1.507   7.709   8.896 -3.7255 -1.0944 -0.1285
  103MOL0     H14172   1.750   7.701   8.896 -2.1158 -3.4164 -2.0192
  103MOL0     H14173   1.942   7.760   8.999 -1.5875 -0.6538 -0.0592
  103MOL0     H14174   2.076   7.823   8.911  0.9622 -1.6200 -0.1959
  103MOL0     H14175   2.051   7.649   8.917 -1.2344 -0.5108  0.5600
  103MOL0     H14176   2.372   7.742   8.392  1.7563 -0.4213  1.1308
  103MOL0     H14177   2.577   7.824   8.387  0.5943  0.5479 -0.8158
  103MOL0     H14178   2.766   7.949   8.337 -0.7736  0.3660 -0.6209
  103MOL0     H14179   2.658   8.044   8.223 -1.9557 -2.6654  1.1199
  103MOL0     H14180   2.893   8.096   8.169 -0.7268  1.3001 -2.1833
  103MOL0     H14181   2.795   8.233   8.239  0.0871  0.5841  1.4258
  103MOL0     H14182   2.985   8.040   8.375  1.9556  0.6128 -0.3516
  103MOL0     H14183   2.920   8.180   8.463  0.0001 -1.6163  0.8067
  103MOL0     H14184   3.060   8.340   8.344  0.6987  0.2283 -1.0954
  103MOL0     H14185   3.136   8.215   8.248  0.1228 -0.6140  0.1917
  103MOL0     H14186   3.275   8.282   8.456 -1.1662  1.2132  0.3628
  103MOL0     H14187   3.143   8.210   8.547  2.5063  3.0133  0.9449
  103MOL0     H14188   3.321   8.065   8.343  0.5151  0.0032  0.4221
  103MOL0     H14189   3.198   7.986   8.448  0.7262 -0.5346  2.4854
  103MOL0     H14190   3.318   8.035   8.644  1.2425  1.5641  1.2581
  103MOL0     H14191   3.418   8.160   8.567  0.3761 -0.1940  0.6270
  103MOL0     H14192   3.542   7.936   8.589 -1.2481 -3.5989 -0.4541
  103MOL0     H14193   3.521   7.985   8.424 -1.3223 -0.1360 -1.5610
  103MOL0     H14194   2.447   8.209   8.506 -0.8218 -0.0703  0.6384
  103MOL0     H14195   2.231   8.104   8.569  2.1257  0.6390  0.6691
  103MOL0     H14196   1.915   7.810   8.449  1.9437  3.2776  1.1067
  103MOL0     H14197   1.667   7.765   8.482  0.0803 -2.6651 -0.4143
  103MOL0     H14198   0.703   8.336   8.465  0.5062 -1.3917  0.8506
  103MOL0     H14199   0.860   8.339   8.261 -0.2225 -0.8241 -2.1989
  103MOL0     H14200   0.918   8.125   7.780 -0.5717 -0.2295 -3.6463
  103MOL0     H14201   1.043   8.176   7.575 -0.4656 -0.0912 -1.3992
  103MOL0     H14202   0.960   8.525   7.380  0.2758 -0.9442  0.6673
  103MOL0     H14203   1.120   8.592   7.418 -2.7010  1.5605 -0.5765
  103MOL0     H14204   1.229   8.449   7.265 -0.3553 -1.0572  0.5185
  103MOL0     H14205   1.113   8.578   7.200 -0.5415 -1.2645 -3.4340
  103MOL0     H14206   1.109   8.347   7.069  0.7220  0.7954  0.2729
  103MOL0     H14207   1.106   8.272   7.203 -1.5063 -1.6061 -2.8928
  103MOL0     H14208   0.854   8.363   7.250 -3.7996  1.2609 -1.8302
  103MOL0     H14209   0.870   8.278   7.103  0.9375 -0.1844 -0.5542
  103MOL0     H14210   0.826   8.657   6.950 -0.6996 -0.2372 -0.1715
  103MOL0     H14211   0.953   8.583   7.604 -1.6677 -2.1443 -3.1142
  103MOL0     H14212   0.761   8.656   7.780  1.6297  1.5731  0.0805
  103MOL0     H14213   0.762   8.549   7.930 -0.7392 -0.3140  0.4121
  103MOL0     H14214   0.899   8.642   7.889  0.6292 -2.6289  1.7551
  104MOL0     O14215   2.585   1.072   4.509  0.6849  0.3467  0.3601
  104MOL0     C14216   2.566   1.052   4.632  0.0670 -0.6195  0.1753
  104MOL0     O14217   2.654   1.060   4.730 -0.6586  0.1628  0.3274
  104MOL0     C14218   2.787   1.086   4.701 -0.4164  0.3650 -0.1804
  104MOL0     C14219   2.885   0.984   4.683  0.1301 -0.6189  0.7410
  104MOL0     C14220   3.024   1.013   4.674  0.7552 -0.1891 -0.5206
  104MOL0     C14221   3.070   1.151   4.685 -0.3639  0.2488  0.5672
  104MOL0     O14222   3.200   1.186   4.682 -0.0577  0.3105  0.8845
  104MOL0     C14223   3.301   1.103   4.736 -0.3737  0.4153  0.2589
  104MOL0     C14224   3.430   1.193   4.714  0.2227 -0.8250  0.2346
  104MOL0     C14225   3.559   1.128   4.767 -0.0038 -0.3297 -0.3084
  104MOL0     C14226   3.673   1.229   4.751 -0.3796  0.1594  0.5008
  104MOL0     C14227   3.791   1.192   4.852  0.0945 -0.6648  0.3259
  104MOL0     C14228   3.925   1.263   4.817  0.2090  0.2801 -0.2926
  104MOL0     C14229   4.055   1.189   4.867  0.8053  0.6484 -0.6352
  104MOL0     C14230   4.061   1.181   5.021 -0.5931 -0.5916 -0.1340
  104MOL0     N14231   4.200   1.163   5.064 -0.6533  0.0725 -0.4667
  104MOL0     C14232   4.284   1.266   5.093  0.2137 -1.1077 -0.8048
  104MOL0     C14233   4.394   1.221   5.148  0.1244 -0.1756 -0.9034
  104MOL0     C14234   4.517   1.316   5.191 -0.1764 -0.7765  0.2514
  104MOL0     C14235   4.659   1.262   5.195  0.0111 -0.0441 -0.4241
  104MOL0     C14236   4.776   1.356   5.233 -0.5322  0.1109 -0.4534
  104MOL0     C14237   4.928   1.305   5.231 -0.1196  0.5647 -0.2696
  104MOL0     O14238   5.010   1.424   5.220 -0.1933  0.4976 -0.1543
  104MOL0     C14239   5.127   1.415   5.284 -0.9706 -0.0805  0.9032
  104MOL0     C14240   5.171   1.520   5.364  0.3577 -0.2809  0.7716
  104MOL0     C14241   5.299   1.499   5.423 -0.5666  0.6872  0.1345
  104MOL0     C14242   5.337   1.605   5.519  1.4099  0.4779  0.6273
  104MOL0     C14243   5.384   1.383   5.405 -0.1158  0.0869  0.9067
  104MOL0     C14244   5.516   1.363   5.467 -0.0449 -0.6723  1.1935
  104MOL0     O14245   5.617   1.305   5.390 -0.2288  0.4041 -0.4114
  104MOL0     C14246   5.744   1.297   5.448  0.1738 -0.8002  0.0641
  104MOL0     C14247   5.825   1.414   5.457  0.4885  0.3446  0.2991
  104MOL0     C14248   5.946   1.413   5.535 -0.2819  0.2023 -0.2734
  104MOL0     C14249   5.978   1.290   5.607 -0.2141  0.0130  0.2927
  104MOL0     O14250   6.093   1.305   5.678  0.1341  0.5798 -0.5488
  104MOL0     C14251   6.135   1.192   5.762 -0.6410 -0.6130 -0.1549
  104MOL0     C14252   6.242   1.249   5.856 -0.9500 -0.5980  0.9077
  104MOL0     C14253   6.364   1.303   5.771  0.3666  0.1541  0.3765
  104MOL0     C14254   6.459   1.386   5.853  0.2983 -0.5094 -0.4601
  104MOL0     C14255   6.587   1.429   5.774 -1.2953 -0.4622 -0.0870
  104MOL0     C14256   6.701   1.471   5.864  0.0166 -0.2068 -0.3479
  104MOL0     C14257   6.681   1.613   5.918  0.6254 -0.2008  0.2709
  104MOL0     C14258   6.817   1.700   5.917 -0.2102  0.0929  0.0941
  104MOL0    Cl14259   6.915   1.644   6.063  0.5636  0.2260 -0.7694
  104MOL0     C14260   5.894   1.179   5.598 -0.0276  0.2265  0.4546
  104MOL0     C14261   5.782   1.181   5.514 -0.3710  0.2238 -0.2893
  104MOL0     O14262   5.530   1.390   5.590  0.2751  0.0495  0.3772
  104MOL0     C14263   5.344   1.292   5.306 -0.3809  0.0489 -0.7013
  104MOL0     C14264   5.213   1.305   5.248 -1.0238  0.0941  0.7949
  104MOL0     N14265   4.373   1.085   5.180  0.0805 -0.1551  0.6815
  104MOL0     N14266   4.257   1.053   5.128 -0.3388  0.1151 -0.3284
  104MOL0     C14267   2.977   1.247   4.696  0.2488 -0.7892 -0.1709
  104MOL0     C14268   2.835   1.221   4.704  0.1663  0.4925 -0.1293
  104MOL0     C14269   2.431   1.012   4.670 -0.3603 -0.4739 -0.1363
  104MOL0     C14270   2.342   1.112   4.692  1.0614 -0.4733  0.8227
  104MOL0     C14271   2.206   1.084   4.721 -0.3311  0.2776 -0.1041
  104MOL0     C14272   2.172   0.949   4.749  0.2410  0.3051 -0.0284
  104MOL0     O14273   2.042   0.903   4.782  0.1003 -0.3951  0.0132
  104MOL0     C14274   1.937   1.001   4.797 -0.2918 -0.5726 -0.7275
  104MOL0     C14275   1.799   0.944   4.835  0.0353 -0.3920  0.5708
  104MOL0     C14276   1.684   1.044   4.815 -0.9149 -0.1795 -0.5095
  104MOL0     C14277   1.649   1.049   4.656 -0.1633 -0.7708 -0.0685
  104MOL0     C14278   1.748   1.105   4.562  0.0407  0.3941  0.5483
  104MOL0     C14279   1.817   1.145   4.470 -0.0419  0.1995  0.0003
  104MOL0     C14280   2.273   0.848   4.735 -0.2344 -0.0420  0.9157
  104MOL0     C14281   2.404   0.879   4.687  0.5500  0.2167 -0.0310
  104MOL0     C14282   2.498   0.764   4.643  0.2877 -0.1833  0.1956
  104MOL0     H14283   2.849   0.883   4.666 -0.7405  0.1062 -2.5197
  104MOL0     H14284   3.099   0.936   4.657  2.7012  1.7001 -0.9048
  104MOL0     H14285   3.317   1.018   4.669 -1.9798 -0.9665  1.5309
  104MOL0     H14286   3.283   1.067   4.838 -0.6085 -2.9220 -0.8105
  104MOL0     H14287   3.447   1.231   4.613  1.9747 -2.0405  0.0253
  104MOL0     H14288   3.424   1.289   4.766 -0.9815  0.4544 -2.0972
  104MOL0     H14289   3.549   1.119   4.875 -1.5602  1.3733 -0.2597
  104MOL0     H14290   3.574   1.028   4.726 -0.1448 -0.5402  0.1467
  104MOL0     H14291   3.700   1.230   4.645  0.5053  1.5506  0.7052
  104MOL0     H14292   3.651   1.333   4.776 -1.6233 -0.2926  1.3598
  104MOL0     H14293   3.805   1.086   4.832  1.4405 -0.6558  1.1255
  104MOL0     H14294   3.758   1.201   4.956 -0.5859  0.0075  0.0590
  104MOL0     H14295   3.935   1.267   4.708 -1.7713  2.0811 -0.4671
  104MOL0     H14296   3.917   1.367   4.851  0.2240  0.0194  0.5099
  104MOL0     H14297   4.147   1.235   4.829  1.0068  1.2366  0.5237
  104MOL0     H14298   4.049   1.084   4.834 -1.0351  1.2791 -2.5435
  104MOL0     H14299   4.022   1.274   5.064  2.6635  1.3981 -1.0814
  104MOL0     H14300   3.991   1.108   5.062 -1.3267  2.3352  4.6091
  104MOL0     H14301   4.272   1.368   5.057 -0.7758 -1.4175 -1.3947
  104MOL0     H14302   4.499   1.354   5.293 -0.4696 -3.7244  1.3872
  104MOL0     H14303   4.519   1.401   5.123  1.8361  0.3452  1.6119
  104MOL0     H14304   4.650   1.177   5.264  0.3269 -0.2748 -0.6634
  104MOL0     H14305   4.679   1.218   5.097  2.6291 -4.6856  1.8439
  104MOL0     H14306   4.767   1.449   5.175 -3.1781 -0.6701 -1.4181
  104MOL0     H14307   4.753   1.392   5.333 -1.4173 -1.0579 -0.2257
  104MOL0     H14308   4.947   1.252   5.325 -0.3845 -0.5603 -0.8266
  104MOL0     H14309   4.941   1.236   5.147  0.5061  0.2869  0.0427
  104MOL0     H14310   5.109   1.606   5.385 -0.8308 -0.9196 -0.0309
  104MOL0     H14311   5.258   1.680   5.514 -0.6974 -1.4612  2.3698
  104MOL0     H14312   5.426   1.654   5.480  0.8448 -1.3475 -3.4289
  104MOL0     H14313   5.356   1.573   5.622  1.5028 -0.6090  0.2917
  104MOL0     H14314   5.789   1.506   5.413  0.9612  0.7036  0.6436
  104MOL0     H14315   6.006   1.503   5.541 -2.0590  1.3519  1.4575
  104MOL0     H14316   6.054   1.140   5.813 -0.3438 -0.7548  0.1777
  104MOL0     H14317   6.180   1.120   5.694 -0.9572  0.6229 -1.7442
  104MOL0     H14318   6.206   1.337   5.910 -0.9313 -0.2439  0.3401
  104MOL0     H14319   6.269   1.173   5.931 -1.3277  0.0139  1.6787
  104MOL0     H14320   6.335   1.377   5.696 -3.1791 -1.1382  0.2634
  104MOL0     H14321   6.400   1.220   5.709 -1.5932 -1.2568  1.0177
  104MOL0     H14322   6.481   1.337   5.948  2.8117 -1.3941 -1.4206
  104MOL0     H14323   6.408   1.479   5.879  3.3990  1.5968 -1.3613
  104MOL0     H14324   6.630   1.348   5.714 -0.8629  1.3704 -2.3998
  104MOL0     H14325   6.556   1.504   5.702 -0.2794 -1.6283 -1.8210
  104MOL0     H14326   6.785   1.454   5.796 -2.7035 -0.8412 -3.8148
  104MOL0     H14327   6.710   1.403   5.950  4.5289  1.3425  0.7059
  104MOL0     H14328   6.634   1.590   6.014 -2.8453  1.4159 -0.8634
  104MOL0     H14329   6.620   1.673   5.849 -0.3859 -0.7398  0.6750
  104MOL0     H14330   6.794   1.807   5.914  2.3879  0.7031 -0.9030
  104MOL0     H14331   6.881   1.683   5.830  2.0926  0.7041  1.5667
  104MOL0     H14332   5.915   1.086   5.649  0.4682  0.6933  1.1212
  104MOL0     H14333   5.720   1.092   5.520  2.3904 -1.7554  1.5057
  104MOL0     H14334   5.404   1.203   5.290  1.4591  0.9252  0.8910
  104MOL0     H14335   5.180   1.227   5.180  3.8631 -2.6373  1.1245
  104MOL0     H14336   3.013   1.348   4.708  0.7352 -1.1785  2.1276
  104MOL0     H14337   2.763   1.300   4.723  2.8919  3.3197 -0.7718
  104MOL0     H14338   2.386   1.210   4.680 -0.6508  0.6134  2.6837
  104MOL0     H14339   2.142   1.170   4.733 -1.1818 -0.6504  3.0819
  104MOL0     H14340   1.955   1.072   4.878 -0.0197  1.3728 -2.4107
  104MOL0     H14341   1.937   1.068   4.710  1.4168  2.2279  1.2682
  104MOL0     H14342   1.806   0.909   4.938  2.1934 -1.8342  0.0037
  104MOL0     H14343   1.779   0.860   4.769  0.5038 -1.3379  1.6068
  104MOL0     H14344   1.591   1.020   4.867 -0.6521  0.1357  0.1160
  104MOL0     H14345   1.722   1.141   4.846 -0.3532  0.5309 -3.1691
  104MOL0     H14346   1.567   1.121   4.652 -0.8405 -1.4373  1.2723
  104MOL0     H14347   1.605   0.955   4.622 -1.7943 -0.1765  0.2871
  104MOL0     H14348   1.875   1.191   4.393  0.6940  2.1329  1.6262
  104MOL0     H14349   2.239   0.745   4.743  1.0585 -0.4685  1.1752
  104MOL0     H14350   2.570   0.744   4.723  0.4253  0.1218  0.1478
  104MOL0     H14351   2.448   0.667   4.632  2.3878 -1.2788 -0.2923
  104MOL0     H14352   2.561   0.787   4.556 -1.3889  1.9953 -0.5363
  105MOL0     O14353   7.937   4.998   2.246  0.1276 -0.5518 -0.5523
  105MOL0     C14354   7.918   5.100   2.183  0.3912  0.4795 -0.0168
  105MOL0     O14355   8.013   5.166   2.104 -0.2399 -0.3570 -0.0830
  105MOL0     C14356   8.143   5.114   2.101  0.4784  0.0414 -0.8679
  105MOL0     C14357   8.170   5.008   2.013 -0.0461  0.1483  0.8553
  105MOL0     C14358   8.296   4.953   2.018  0.1712  1.2070 -0.4520
  105MOL0     C14359   8.393   4.989   2.111  0.2306  0.0383 -0.6963
  105MOL0     O14360   8.524   4.942   2.113  0.4051  0.1438 -0.3912
  105MOL0     C14361   8.583   4.912   1.980 -0.2365 -0.1120 -0.1357
  105MOL0     C14362   8.733   4.868   1.995 -0.8292 -0.7201 -1.0750
  105MOL0     C14363   8.813   4.993   2.050 -0.1246 -0.6831 -0.0579
  105MOL0     C14364   8.938   4.959   2.127 -0.2951 -0.7999  0.9585
  105MOL0     C14365   8.990   5.107   2.171  0.6640  0.3178 -0.5504
  105MOL0     C14366   9.114   5.076   2.245  0.9387 -0.2588 -1.0894
  105MOL0     C14367   9.237   5.056   2.164  0.6862  0.1956 -0.4631
  105MOL0     C14368   9.297   5.190   2.112  0.3221 -0.0287 -0.0135
  105MOL0     N14369   9.402   5.179   1.999  1.2702 -0.1636  0.1056
  105MOL0     C14370   9.512   5.102   2.003  0.0285 -0.0110 -0.0070
  105MOL0     C14371   9.576   5.135   1.892  0.5685  0.5861 -0.0344
  105MOL0     C14372   9.697   5.068   1.842  0.4463  0.4420  0.5893
  105MOL0     C14373   9.824   5.116   1.899 -0.7238  0.4773  0.3167
  105MOL0     C14374   9.946   5.017   1.870  0.1872 -0.5141 -0.9626
  105MOL0     C14375   9.955   4.988   1.716 -0.4173 -0.8101 -0.2828
  105MOL0     O14376   9.872   4.877   1.669  0.1193  0.0917 -0.0482
  105MOL0     C14377   9.904   4.804   1.561 -0.3882 -0.2336  0.2307
  105MOL0     C14378   9.982   4.845   1.461 -0.9679 -0.4642  0.0001
  105MOL0     C14379  10.023   4.758   1.360 -1.2986  1.1561  0.1402
  105MOL0     C14380  10.132   4.807   1.265  0.3580  1.2781  0.2358
  105MOL0     C14381   9.961   4.628   1.339 -0.0411 -0.3708  0.0275
  105MOL0     C14382   9.984   4.540   1.224 -1.1045 -1.2544  0.8900
  105MOL0     O14383   9.998   4.597   1.098 -0.0707 -0.2049 -0.5576
  105MOL0     C14384  10.035   4.515   0.992  0.7464 -0.7100 -0.2189
  105MOL0     C14385  10.162   4.460   0.983  0.2315 -0.9367 -0.8336
  105MOL0     C14386  10.197   4.365   0.889 -1.2543  0.3824  0.5177
  105MOL0     C14387  10.100   4.321   0.797 -0.1985 -0.1403 -0.5467
  105MOL0     O14388  10.132   4.234   0.698 -0.8033  0.5748  0.1763
  105MOL0     C14389  10.258   4.238   0.636 -0.2073  0.8243 -0.7476
  105MOL0     C14390  10.248   4.125   0.526 -0.6258 -0.1241 -0.2502
  105MOL0     C14391  10.390   4.115   0.459  0.5598 -1.0849  1.1107
  105MOL0     C14392  10.371   4.028   0.328  0.0190 -0.3400 -0.5405
  105MOL0     C14393  10.484   4.061   0.230  0.0465 -0.0858 -1.0469
  105MOL0     C14394  10.479   3.984   0.099  0.0566 -0.6733 -0.1555
  105MOL0     C14395  10.549   3.854   0.125  0.9062  0.0815  0.4584
  105MOL0     C14396  10.516   3.752   0.009  0.9263 -0.9244 -0.0620
  105MOL0    Cl14397  10.609   3.600   0.037  0.1067  0.0580  0.2856
  105MOL0     C14398   9.976   4.376   0.808 -0.2022 -0.7611  0.8817
  105MOL0     C14399   9.937   4.469   0.902  0.6613 -0.3074  0.0199
  105MOL0     O14400   9.997   4.421   1.244 -0.2469  0.1837 -0.3465
  105MOL0     C14401   9.878   4.583   1.436 -0.0876 -0.7810 -0.5317
  105MOL0     C14402   9.854   4.668   1.554  0.1638  0.3873  0.8457
  105MOL0     N14403   9.503   5.239   1.830 -1.3287  0.3834 -0.5106
  105MOL0     N14404   9.403   5.263   1.896 -0.4919  1.4165  0.1348
  105MOL0     C14405   8.363   5.085   2.205 -0.0873 -0.5674  0.7896
  105MOL0     C14406   8.241   5.149   2.198 -0.3200 -0.6248 -0.4147
  105MOL0     C14407   7.775   5.152   2.177  0.5152 -0.5968 -0.8303
  105MOL0     C14408   7.742   5.232   2.070  0.2925 -0.6465 -0.0441
  105MOL0     C14409   7.606   5.266   2.044 -0.1708 -0.3925  0.3699
  105MOL0     C14410   7.508   5.236   2.137  1.0941 -0.5975 -0.2478
  105MOL0     O14411   7.379   5.287   2.102 -0.2517  0.1764 -0.6434
  105MOL0     C14412   7.270   5.276   2.190  0.1066  0.0345  1.0294
  105MOL0     C14413   7.149   5.271   2.107  0.3422  0.3553  0.5404
  105MOL0     C14414   7.033   5.236   2.201  0.2377  0.5799 -0.0287
  105MOL0     C14415   6.913   5.192   2.126  0.1431  0.1698 -0.3680
  105MOL0     C14416   6.796   5.202   2.218 -0.8562  0.2142 -0.0269
  105MOL0     C14417   6.709   5.222   2.300 -0.9865  0.2212 -0.5072
  105MOL0     C14418   7.540   5.164   2.247  0.7966 -0.2951 -1.6177
  105MOL0     C14419   7.670   5.122   2.275  0.9282  0.3686  0.7273
  105MOL0     C14420   7.702   5.059   2.412  0.1390 -0.3865  0.2813
  105MOL0     H14421   8.096   4.989   1.935 -0.0279 -2.0580  1.3192
  105MOL0     H14422   8.319   4.871   1.950  3.5850  1.9074 -0.3086
  105MOL0     H14423   8.569   5.005   1.925 -1.8096  0.4755  1.1944
  105MOL0     H14424   8.529   4.833   1.926 -2.2264  0.6377  0.6858
  105MOL0     H14425   8.735   4.780   2.060 -1.2441 -1.3361 -1.8605
  105MOL0     H14426   8.766   4.829   1.898 -0.7655  0.8179 -1.7021
  105MOL0     H14427   8.848   5.062   1.972  0.9328  1.3713  2.1125
  105MOL0     H14428   8.749   5.039   2.126  0.3957 -0.0135 -0.0173
  105MOL0     H14429   8.916   4.901   2.217  1.6400 -0.5104  1.6665
  105MOL0     H14430   9.006   4.903   2.063  2.9414  3.0293  0.6731
  105MOL0     H14431   8.923   5.154   2.243  1.6140  1.9830 -0.7123
  105MOL0     H14432   9.002   5.169   2.082 -0.9332 -1.1481 -1.8521
  105MOL0     H14433   9.125   5.162   2.311 -5.0906 -0.5313  0.8302
  105MOL0     H14434   9.083   4.987   2.301 -0.1675  0.9254  0.2502
  105MOL0     H14435   9.218   4.980   2.087 -0.5501  0.0808 -0.0602
  105MOL0     H14436   9.317   5.013   2.225 -1.8509 -1.5573  1.8167
  105MOL0     H14437   9.222   5.262   2.079  2.4542  0.9445 -3.1080
  105MOL0     H14438   9.351   5.235   2.196  3.0583  3.9638 -3.5615
  105MOL0     H14439   9.541   5.027   2.076  3.5405  0.0748 -1.1193
  105MOL0     H14440   9.698   5.085   1.733 -1.7771 -0.6262  0.3321
  105MOL0     H14441   9.701   4.961   1.863 -0.2145  0.7522  2.4795
  105MOL0     H14442   9.844   5.219   1.867  0.8562  0.6670  1.7778
  105MOL0     H14443   9.821   5.115   2.008 -0.9142 -0.5838  0.3134
  105MOL0     H14444  10.041   5.052   1.912 -0.8411  2.0758 -0.6232
  105MOL0     H14445   9.924   4.925   1.925  1.4188 -2.1363 -3.0063
  105MOL0     H14446   9.919   5.066   1.649 -1.1213 -0.2728  0.6954
  105MOL0     H14447  10.063   4.989   1.694 -0.9713  1.4576 -3.5482
  105MOL0     H14448  10.029   4.943   1.460  1.7431 -1.6681  0.3249
  105MOL0     H14449  10.210   4.854   1.325  1.0687 -2.2370  2.3778
  105MOL0     H14450  10.088   4.875   1.193 -1.1715 -0.7427 -0.8328
  105MOL0     H14451  10.176   4.729   1.202  1.5853  2.0446  0.0941
  105MOL0     H14452  10.243   4.496   1.047  0.6427 -1.6616 -0.9335
  105MOL0     H14453  10.301   4.334   0.892 -0.4654  2.4243 -2.0315
  105MOL0     H14454  10.291   4.327   0.583  1.4654  0.4191 -0.4525
  105MOL0     H14455  10.318   4.191   0.715 -2.0224  0.1804  0.2991
  105MOL0     H14456  10.224   4.031   0.578 -2.9086 -0.1722 -1.2938
  105MOL0     H14457  10.172   4.159   0.455  1.5808  2.0902 -1.7422
  105MOL0     H14458  10.464   4.064   0.521  1.3535  0.7355  1.7267
  105MOL0     H14459  10.418   4.217   0.430 -0.3548 -2.1397 -4.7596
  105MOL0     H14460  10.279   4.042   0.271  0.5973  0.2021 -1.3823
  105MOL0     H14461  10.369   3.922   0.355  2.3808 -0.2403  0.2453
  105MOL0     H14462  10.492   4.168   0.211 -2.2004  0.7780  1.9395
  105MOL0     H14463  10.571   4.034   0.291 -1.9912  3.1635  3.9515
  105MOL0     H14464  10.530   4.028   0.013  1.8385 -0.7514  0.8162
  105MOL0     H14465  10.376   3.966   0.068 -1.3958  2.1625  2.5067
  105MOL0     H14466  10.521   3.796   0.214  2.8464 -0.6090  0.6574
  105MOL0     H14467  10.656   3.872   0.125  1.2991 -1.8807 -1.1047
  105MOL0     H14468  10.542   3.793  -0.089 -0.5510  0.0586 -0.0739
  105MOL0     H14469  10.408   3.735   0.010  0.3817  2.0325  0.0652
  105MOL0     H14470   9.895   4.354   0.738 -0.3048  4.4737 -1.0938
  105MOL0     H14471   9.838   4.513   0.910  0.1142 -1.7222  1.9529
  105MOL0     H14472   9.831   4.485   1.439 -3.3568  0.6433 -0.7667
  105MOL0     H14473   9.797   4.630   1.638  2.9305 -1.9332  1.8427
  105MOL0     H14474   8.441   5.121   2.272  2.2109 -2.2978 -0.7801
  105MOL0     H14475   8.224   5.227   2.271 -1.5061  1.6231 -2.9365
  105MOL0     H14476   7.816   5.259   1.995 -0.8186  2.3052 -0.2290
  105MOL0     H14477   7.581   5.327   1.958  0.9297  0.3171  0.5334
  105MOL0     H14478   7.275   5.187   2.252 -1.0742 -1.0715 -0.3927
  105MOL0     H14479   7.254   5.368   2.248  4.1632  2.3615 -1.0994
  105MOL0     H14480   7.161   5.187   2.038 -0.4775  0.1168  0.6719
  105MOL0     H14481   7.132   5.369   2.060  2.6827  0.5411 -0.0291
  105MOL0     H14482   7.056   5.145   2.258  0.6695  1.5316  1.3492
  105MOL0     H14483   7.014   5.323   2.263 -0.1093  0.3981  0.1216
  105MOL0     H14484   6.924   5.089   2.091  2.0377  0.5618 -1.0529
  105MOL0     H14485   6.906   5.265   2.044  2.5173  1.8266  0.7822
  105MOL0     H14486   6.623   5.216   2.364 -0.4248  3.1487  0.7203
  105MOL0     H14487   7.463   5.142   2.320  1.6687  1.5093 -0.0822
  105MOL0     H14488   7.797   5.098   2.448  0.0238  0.3106 -0.1597
  105MOL0     H14489   7.624   5.091   2.482  0.4972 -1.3673  1.1510
  105MOL0     H14490   7.707   4.950   2.406  3.6389 -0.3344  0.2394
  106MOL0     O14491   8.899   8.018  11.180  0.1831  0.7215  0.1798
  106MOL0     C14492   8.892   8.064  11.296 -0.2900 -0.2210  0.1729
  106MOL0     O14493   8.997   8.113  11.361 -0.2735  0.2324  0.1929
  106MOL0     C14494   9.114   8.141  11.299 -0.1027  0.1400  0.8834
  106MOL0     C14495   9.187   8.042  11.243 -0.4872  0.6638  0.4141
  106MOL0     C14496   9.298   8.059  11.168  0.8411 -0.4805 -0.4046
  106MOL0     C14497   9.346   8.189  11.151  0.2459  0.3091  1.2273
  106MOL0     O14498   9.463   8.227  11.090  1.2645  0.3724 -0.0955
  106MOL0     C14499   9.473   8.200  10.951 -0.0453  0.4410  0.3710
  106MOL0     C14500   9.596   8.274  10.898  0.0052 -0.2595  1.0332
  106MOL0     C14501   9.727   8.226  10.944  0.0254 -0.1004 -0.1555
  106MOL0     C14502   9.777   8.116  10.853 -0.3555 -0.4696  0.1967
  106MOL0     C14503   9.910   8.068  10.907 -1.1097  0.0575 -0.9140
  106MOL0     C14504   9.929   7.922  10.873 -0.3987  0.5054  0.0088
  106MOL0     C14505   9.840   7.832  10.966 -0.8006  0.6695  0.2337
  106MOL0     C14506   9.890   7.816  11.111 -0.3353  0.0981 -0.2680
  106MOL0     N14507  10.030   7.775  11.137 -0.8292 -0.8168 -0.0161
  106MOL0     C14508  10.099   7.677  11.066  0.3403 -0.4725 -0.1186
  106MOL0     C14509  10.232   7.686  11.109  0.9017  0.5123 -1.2312
  106MOL0     C14510  10.354   7.616  11.050  0.5921 -0.3343  1.2781
  106MOL0     C14511  10.419   7.704  10.943 -0.1064 -0.3712  0.0666
  106MOL0     C14512  10.568   7.673  10.912 -0.1202 -0.5278 -0.1996
  106MOL0     C14513  10.650   7.782  10.852 -0.1875 -0.6035 -0.5357
  106MOL0     O14514  10.768   7.723  10.786 -0.2779 -0.0327 -1.0036
  106MOL0     C14515  10.894   7.769  10.806 -0.3645 -0.3958  0.3359
  106MOL0     C14516  10.993   7.780  10.701  0.3920 -0.5433  0.6383
  106MOL0     C14517  11.133   7.823  10.715  0.0974  0.6211  0.3982
  106MOL0     C14518  11.207   7.847  10.589  0.0324  0.3231  0.1175
  106MOL0     C14519  11.170   7.852  10.851  0.6509 -0.6049  0.3974
  106MOL0     C14520  11.309   7.902  10.875 -1.5694 -0.6719 -1.4109
  106MOL0     O14521  11.410   7.910  10.780  0.5705 -0.0269 -0.2259
  106MOL0     C14522  11.534   7.961  10.795  0.0364 -0.2502  0.0893
  106MOL0     C14523  11.634   7.913  10.703 -0.3242 -0.1509  0.2557
  106MOL0     C14524  11.756   7.971  10.699 -0.6012 -0.4132  1.3704
  106MOL0     C14525  11.788   8.077  10.782 -0.3505 -1.0671  0.7226
  106MOL0     O14526  11.914   8.123  10.772 -0.6937  0.5839 -0.0862
  106MOL0     C14527  11.935   8.263  10.764  0.2676 -0.2986  0.4190
  106MOL0     C14528  11.843   8.333  10.652 -0.0502  0.1366  0.6056
  106MOL0     C14529  11.879   8.288  10.512  0.6639  0.2212 -0.3297
  106MOL0     C14530  11.800   8.352  10.397  0.4515  0.1478  0.5219
  106MOL0     C14531  11.806   8.274  10.264  0.4860 -0.8141  0.5175
  106MOL0     C14532  11.943   8.299  10.202  0.1242 -0.1564 -0.2226
  106MOL0     C14533  11.979   8.231  10.069 -0.8716  0.1322  1.2803
  106MOL0     C14534  12.075   8.316   9.983 -0.8212 -1.0724 -1.0133
  106MOL0    Cl14535  12.146   8.223   9.842 -0.0092 -0.2064 -0.3229
  106MOL0     C14536  11.697   8.118  10.884  0.1019  0.5956  0.4329
  106MOL0     C14537  11.568   8.061  10.885  0.3185  0.0987 -0.4085
  106MOL0     O14538  11.325   7.935  10.997  0.0613  0.0394  0.0124
  106MOL0     C14539  11.070   7.850  10.957  0.3162 -0.5137  0.1350
  106MOL0     C14540  10.938   7.810  10.933  0.2346  0.3017  0.0859
  106MOL0     N14541  10.241   7.789  11.206  0.8387 -0.3288  0.6823
  106MOL0     N14542  10.118   7.839  11.220  0.4182 -1.0097 -0.4166
  106MOL0     C14543   9.275   8.292  11.211  0.7527 -0.6237 -0.0900
  106MOL0     C14544   9.156   8.275  11.286  0.4162 -0.5423  0.4860
  106MOL0     C14545   8.759   8.080  11.358 -1.2911  0.7154 -0.6478
  106MOL0     C14546   8.727   8.197  11.424  0.1817 -0.8211 -0.3039
  106MOL0     C14547   8.606   8.223  11.487 -0.6707  0.2879  0.3588
  106MOL0     C14548   8.510   8.112  11.492 -0.5041  0.0059 -0.6502
  106MOL0     O14549   8.377   8.133  11.538  0.6120 -0.7311 -0.1923
  106MOL0     C14550   8.272   8.051  11.478  0.0629 -0.0292  0.2701
  106MOL0     C14551   8.147   8.119  11.522  0.3099  0.0466  0.5368
  106MOL0     C14552   8.138   8.262  11.459 -0.5711 -0.0419 -0.4434
  106MOL0     C14553   7.995   8.296  11.415 -0.2658  0.0395  0.1718
  106MOL0     C14554   7.942   8.209  11.308 -0.4036  0.1306 -0.3480
  106MOL0     C14555   7.914   8.125  11.226 -0.2952 -0.0137 -0.8196
  106MOL0     C14556   8.550   7.996  11.430 -0.2971 -0.0136 -0.1028
  106MOL0     C14557   8.675   7.977  11.366  0.1845 -0.5274  0.4514
  106MOL0     C14558   8.706   7.839  11.300  0.4441  0.2078 -0.4127
  106MOL0     H14559   9.152   7.939  11.244 -1.6231  0.8663 -3.2481
  106MOL0     H14560   9.348   7.971  11.129 -0.6739 -1.2320 -0.7063
  106MOL0     H14561   9.384   8.242  10.903 -0.1194 -0.1568 -0.0389
  106MOL0     H14562   9.482   8.094  10.924  1.6554  0.5728  0.3137
  106MOL0     H14563   9.603   8.270  10.789 -1.3938 -0.1535  0.9212
  106MOL0     H14564   9.584   8.381  10.920  1.0387  0.0961 -0.0312
  106MOL0     H14565   9.803   8.305  10.950  0.8440 -0.9463  1.0151
  106MOL0     H14566   9.714   8.188  11.046  0.3354 -2.5821 -0.9817
  106MOL0     H14567   9.707   8.037  10.822  0.4304 -1.9564  1.9743
  106MOL0     H14568   9.798   8.152  10.752 -1.7920 -1.3659 -0.4602
  106MOL0     H14569   9.919   8.080  11.016  0.3596 -1.1862 -0.8651
  106MOL0     H14570   9.995   8.115  10.857  0.1295  0.3109  1.2937
  106MOL0     H14571   9.896   7.897  10.772  0.5008 -2.3154  0.3023
  106MOL0     H14572  10.035   7.894  10.879 -0.2975  1.0781  1.0736
  106MOL0     H14573   9.839   7.733  10.919  3.5539  0.8142 -0.6275
  106MOL0     H14574   9.740   7.876  10.976 -0.2820  2.0141 -0.2745
  106MOL0     H14575   9.872   7.908  11.168 -3.3089  1.6765 -3.3730
  106MOL0     H14576   9.826   7.737  11.153 -0.3737 -1.0605 -2.3631
  106MOL0     H14577  10.047   7.623  10.987 -0.7312  1.3721 -0.7318
  106MOL0     H14578  10.327   7.518  11.010  0.6124 -0.2912  1.1549
  106MOL0     H14579  10.430   7.611  11.128  0.6431  0.3442  1.2810
  106MOL0     H14580  10.362   7.691  10.850  0.5745  2.0455 -0.7811
  106MOL0     H14581  10.399   7.808  10.973 -1.7352  0.1141 -2.3605
  106MOL0     H14582  10.620   7.629  10.998 -2.7743 -0.3153  1.6264
  106MOL0     H14583  10.566   7.595  10.836 -2.1872 -2.9039  2.0770
  106MOL0     H14584  10.597   7.826  10.768  0.0697 -0.6023 -0.6984
  106MOL0     H14585  10.667   7.861  10.926  2.0423 -2.2054  0.8112
  106MOL0     H14586  10.952   7.755  10.604 -2.0072  3.3414  0.4093
  106MOL0     H14587  11.151   7.805  10.505  0.2075  2.4138 -1.0826
  106MOL0     H14588  11.305   7.798  10.600  0.1229  0.4039 -0.3118
  106MOL0     H14589  11.208   7.955  10.572 -2.3987  0.1323 -1.8081
  106MOL0     H14590  11.612   7.833  10.634 -0.2986 -1.9165  2.1952
  106MOL0     H14591  11.823   7.927  10.625 -2.1043 -0.0104 -0.3104
  106MOL0     H14592  11.914   8.309  10.860  1.5081 -0.5585  0.8368
  106MOL0     H14593  12.040   8.292  10.749 -0.8844  4.1277 -0.4991
  106MOL0     H14594  11.736   8.318  10.669 -0.8300  3.6499 -0.3439
  106MOL0     H14595  11.858   8.441  10.665  1.1169  0.0588 -0.0213
  106MOL0     H14596  11.864   8.180  10.511 -0.7962  0.3935 -2.0223
  106MOL0     H14597  11.986   8.295  10.491  0.7616 -2.3558 -1.0518
  106MOL0     H14598  11.821   8.459  10.386  0.4106  0.0367 -0.8023
  106MOL0     H14599  11.693   8.355  10.420 -0.3344  4.6497 -2.4550
  106MOL0     H14600  11.792   8.166  10.280  0.2005 -0.6394  1.5976
  106MOL0     H14601  11.724   8.310  10.202  2.6393  1.2988 -1.2465
  106MOL0     H14602  12.024   8.289  10.275  0.7930  2.2816 -0.5583
  106MOL0     H14603  11.949   8.406  10.182  0.2815 -0.4728 -2.0337
  106MOL0     H14604  11.882   8.218  10.019  1.2457 -1.2712 -2.9523
  106MOL0     H14605  12.033   8.136  10.080 -0.0872  0.3133 -0.6634
  106MOL0     H14606  12.146   8.359  10.055 -1.4473  0.0854 -1.0546
  106MOL0     H14607  12.024   8.407   9.950 -1.4562 -0.6614  0.9747
  106MOL0     H14608  11.717   8.198  10.955  0.1066  0.3158  0.7490
  106MOL0     H14609  11.495   8.090  10.960  1.4001 -1.2151  1.2028
  106MOL0     H14610  11.102   7.860  11.060 -1.4870  0.7254  0.6154
  106MOL0     H14611  10.886   7.793  11.027 -0.9689 -0.9921 -0.7821
  106MOL0     H14612   9.291   8.397  11.190  1.7485 -1.0498 -1.6750
  106MOL0     H14613   9.093   8.360  11.310 -1.9169 -2.0516  0.0079
  106MOL0     H14614   8.802   8.275  11.420 -1.0113  0.3335 -0.6494
  106MOL0     H14615   8.584   8.316  11.538 -0.9369 -0.2941  1.3395
  106MOL0     H14616   8.276   8.055  11.369 -0.6645  0.3898  0.2559
  106MOL0     H14617   8.277   7.945  11.506  0.3165 -0.3205 -0.8526
  106MOL0     H14618   8.146   8.118  11.631 -1.5624 -0.0701  0.5577
  106MOL0     H14619   8.058   8.058  11.501  1.2098 -1.2461  0.3306
  106MOL0     H14620   8.157   8.338  11.535  1.1901 -0.2031 -0.6912
  106MOL0     H14621   8.196   8.277  11.368  0.5542 -1.5165 -0.0039
  106MOL0     H14622   8.000   8.402  11.391 -2.8034  0.4555  1.1835
  106MOL0     H14623   7.931   8.276  11.502 -1.7629 -1.6071 -1.2206
  106MOL0     H14624   7.887   8.036  11.173 -1.3735  0.1286 -0.5125
  106MOL0     H14625   8.478   7.915  11.431 -1.6241  1.1200  0.1065
  106MOL0     H14626   8.667   7.837  11.198  0.8250 -2.0357 -0.5643
  106MOL0     H14627   8.814   7.822  11.300  0.8849  2.5133 -2.0724
  106MOL0     H14628   8.655   7.762  11.360 -1.7534  1.7690 -0.1222
  107MOL0     O14629   4.347   4.240   5.729 -0.2616  1.0602  0.1180
  107MOL0     C14630   4.336   4.132   5.784 -0.5339  0.2603  1.2159
  107MOL0     O14631   4.430   4.037   5.781  0.1139  0.2302 -1.1794
  107MOL0     C14632   4.556   4.056   5.721  0.9523  0.1106  0.2371
  107MOL0     C14633   4.562   4.090   5.585  0.3286 -0.3090 -0.5413
  107MOL0     C14634   4.690   4.103   5.530 -0.1355 -0.3012 -1.0277
  107MOL0     C14635   4.806   4.075   5.602  0.4740  0.7285  0.8614
  107MOL0     O14636   4.917   4.090   5.536 -0.2855  0.1774 -0.1737
  107MOL0     C14637   4.990   3.970   5.532  0.3497 -0.3158  0.3255
  107MOL0     C14638   5.102   3.995   5.435 -0.1263 -0.5577 -0.0518
  107MOL0     C14639   5.201   3.876   5.416  0.0564  0.0292 -0.4973
  107MOL0     C14640   5.292   3.856   5.537 -0.4184 -0.2988 -0.3927
  107MOL0     C14641   5.345   3.713   5.554  0.5183 -0.4094 -0.9546
  107MOL0     C14642   5.461   3.724   5.652 -0.1945 -0.0578 -0.4546
  107MOL0     C14643   5.525   3.578   5.673  0.3394  0.4400  0.4319
  107MOL0     C14644   5.620   3.593   5.798  0.7988 -0.3212  0.2291
  107MOL0     N14645   5.677   3.467   5.828  0.2380 -0.0333 -1.0382
  107MOL0     C14646   5.636   3.383   5.930  0.2149 -0.1605 -0.2169
  107MOL0     C14647   5.743   3.303   5.954 -0.6141  0.2639  0.8371
  107MOL0     C14648   5.747   3.201   6.068  0.9040 -0.3937  0.1950
  107MOL0     C14649   5.796   3.251   6.193  0.2611 -0.4861  0.1668
  107MOL0     C14650   5.942   3.285   6.180  0.5089  0.3427 -0.2442
  107MOL0     C14651   6.001   3.311   6.315 -0.2125 -0.2261 -0.2534
  107MOL0     O14652   6.147   3.338   6.314  0.8472 -0.3238  0.4689
  107MOL0     C14653   6.222   3.333   6.427  0.3831 -0.8909 -0.1855
  107MOL0     C14654   6.177   3.337   6.559  0.0973 -0.6588  0.2497
  107MOL0     C14655   6.273   3.320   6.665 -0.8665 -0.2632  0.1534
  107MOL0     C14656   6.224   3.327   6.804 -0.2360  0.2462  0.1883
  107MOL0     C14657   6.417   3.302   6.634  0.2394 -0.5439 -0.1774
  107MOL0     C14658   6.521   3.282   6.731  0.2096 -0.0910 -0.9516
  107MOL0     O14659   6.640   3.326   6.688 -0.4008 -0.2413 -0.1627
  107MOL0     C14660   6.761   3.287   6.752  0.1064 -0.3855 -0.6573
  107MOL0     C14661   6.859   3.393   6.770 -0.0532  1.1926 -0.2656
  107MOL0     C14662   6.984   3.361   6.823 -0.4358  0.4882  0.1744
  107MOL0     C14663   7.020   3.224   6.861  0.5388  0.9336  0.2803
  107MOL0     O14664   7.150   3.185   6.901  0.2122 -0.5922 -0.3892
  107MOL0     C14665   7.259   3.279   6.912  0.2494  0.0421 -0.6089
  107MOL0     C14666   7.366   3.187   6.973  0.0713  0.5873 -1.2707
  107MOL0     C14667   7.511   3.241   6.972  0.2610 -0.1587  0.2394
  107MOL0     C14668   7.619   3.130   6.993 -0.0835 -0.1804  0.0258
  107MOL0     C14669   7.762   3.181   6.983 -0.1167  0.1361 -0.2894
  107MOL0     C14670   7.811   3.199   7.124  0.1066  0.1364  0.4169
  107MOL0     C14671   7.942   3.268   7.138 -0.5836  0.1787 -0.1819
  107MOL0     C14672   7.945   3.412   7.079 -1.2998 -0.5445  0.2250
  107MOL0    Cl14673   8.053   3.419   6.949 -0.3433 -0.8112 -0.0390
  107MOL0     C14674   6.912   3.131   6.847  0.1150 -0.5778  0.5390
  107MOL0     C14675   6.793   3.164   6.789 -0.0330  0.4998 -0.8239
  107MOL0     O14676   6.496   3.264   6.852  0.2013 -0.1316  0.5011
  107MOL0     C14677   6.453   3.307   6.499 -1.0011 -0.0549  0.5654
  107MOL0     C14678   6.358   3.319   6.401  1.1363  0.1203  0.2972
  107MOL0     N14679   5.843   3.329   5.851  0.3525  0.2820  0.6033
  107MOL0     N14680   5.794   3.426   5.774 -1.3183  0.5547 -0.2425
  107MOL0     C14681   4.797   4.023   5.726 -0.2602 -0.4897 -0.0491
  107MOL0     C14682   4.671   4.017   5.790  0.3013  0.7925 -0.5326
  107MOL0     C14683   4.208   4.110   5.844  1.4791 -0.1339 -0.2588
  107MOL0     C14684   4.206   4.019   5.953  0.1622  0.8400 -0.2950
  107MOL0     C14685   4.085   3.962   6.005 -0.2679  0.1573 -0.1104
  107MOL0     C14686   3.967   4.012   5.953  0.8658  0.6877 -0.6248
  107MOL0     O14687   3.849   3.963   5.997  0.0675 -0.2159 -0.1965
  107MOL0     C14688   3.838   3.836   6.064  0.2122 -0.8420 -0.1856
  107MOL0     C14689   3.704   3.785   6.035  0.2867  0.7499 -0.0640
  107MOL0     C14690   3.655   3.777   5.888 -0.4382 -0.4845 -0.0566
  107MOL0     C14691   3.513   3.717   5.876  0.2705 -0.8558  0.3065
  107MOL0     C14692   3.471   3.619   5.979 -0.1202 -0.1299  0.1235
  107MOL0     C14693   3.451   3.536   6.061  0.5915  0.3006  0.2638
  107MOL0     C14694   3.969   4.116   5.863 -0.2662  0.0688 -1.2439
  107MOL0     C14695   4.085   4.171   5.813  0.2855 -0.3220 -0.1356
  107MOL0     C14696   4.069   4.292   5.727 -0.4133 -1.0379 -0.5456
  107MOL0     H14697   4.476   4.092   5.518  4.6999 -0.0435 -7.0306
  107MOL0     H14698   4.693   4.139   5.428  0.6988  0.4958 -0.7438
  107MOL0     H14699   4.923   3.888   5.504 -0.2879  0.7517 -1.3778
  107MOL0     H14700   5.039   3.954   5.629  1.3857  0.0090 -0.1239
  107MOL0     H14701   5.057   4.029   5.341 -1.3129 -1.9048 -0.0095
  107MOL0     H14702   5.159   4.076   5.481  0.1746 -1.0634  0.4896
  107MOL0     H14703   5.147   3.783   5.400  1.5804 -1.0972  0.6069
  107MOL0     H14704   5.263   3.903   5.330  2.1221  1.4494  1.2873
  107MOL0     H14705   5.380   3.920   5.523  1.2042 -2.0891  1.0569
  107MOL0     H14706   5.240   3.895   5.625 -0.2688  0.3310 -0.5772
  107MOL0     H14707   5.354   3.678   5.451  2.5705 -0.1269 -0.9146
  107MOL0     H14708   5.270   3.646   5.597 -0.0756  0.3144 -0.8481
  107MOL0     H14709   5.544   3.783   5.611  1.6535 -2.7317 -0.8168
  107MOL0     H14710   5.430   3.770   5.746 -0.4288 -0.1916 -0.4672
  107MOL0     H14711   5.586   3.548   5.587  2.3283  3.0036  0.8006
  107MOL0     H14712   5.445   3.509   5.697  0.6146 -0.6746 -1.6100
  107MOL0     H14713   5.697   3.669   5.782 -0.5070  0.5645 -2.6952
  107MOL0     H14714   5.565   3.628   5.885  1.1597 -1.0057  0.7372
  107MOL0     H14715   5.544   3.393   5.985  0.5002  2.7819 -0.1110
  107MOL0     H14716   5.798   3.114   6.027 -0.4225 -0.4988 -1.3097
  107MOL0     H14717   5.642   3.173   6.082  0.8942  0.5275  2.5722
  107MOL0     H14718   5.732   3.336   6.219  1.4009 -0.3033  2.6366
  107MOL0     H14719   5.783   3.185   6.279  4.1370  2.5563  3.5123
  107MOL0     H14720   5.993   3.196   6.142  3.1179  2.4019 -1.8914
  107MOL0     H14721   5.959   3.371   6.114 -1.2831  0.1113 -1.0785
  107MOL0     H14722   5.940   3.381   6.373 -0.1332  0.7091 -1.2823
  107MOL0     H14723   5.985   3.221   6.376 -0.8354  0.2663  0.3300
  107MOL0     H14724   6.071   3.338   6.583  0.1535  0.6256  0.5138
  107MOL0     H14725   6.118   3.355   6.809 -0.3890  0.3875 -2.4417
  107MOL0     H14726   6.282   3.401   6.860 -2.1038 -0.5065  3.3885
  107MOL0     H14727   6.243   3.238   6.863  0.0506  0.5777  0.6010
  107MOL0     H14728   6.834   3.497   6.752  0.9586  1.3678 -0.7460
  107MOL0     H14729   7.060   3.434   6.849 -0.3847 -0.9748  5.2592
  107MOL0     H14730   7.292   3.310   6.812 -0.4744  0.6691 -0.6644
  107MOL0     H14731   7.240   3.367   6.975  0.4716 -0.2032 -0.1990
  107MOL0     H14732   7.349   3.174   7.080  0.7591  0.0943 -1.2093
  107MOL0     H14733   7.358   3.090   6.923  1.5050 -0.0987 -0.2421
  107MOL0     H14734   7.510   3.305   7.060 -2.4917 -1.7097  1.4967
  107MOL0     H14735   7.527   3.295   6.878 -1.0220  0.2477  0.2279
  107MOL0     H14736   7.607   3.046   6.924 -1.4491 -0.7956  0.9556
  107MOL0     H14737   7.601   3.098   7.096  2.7618 -3.3861 -0.3205
  107MOL0     H14738   7.838   3.117   6.937  1.5373  2.0773 -0.3770
  107MOL0     H14739   7.767   3.269   6.918  1.6489 -1.8454 -3.0935
  107MOL0     H14740   7.813   3.100   7.171  2.3653  0.1795  0.5132
  107MOL0     H14741   7.750   3.264   7.188  1.0033 -0.0061  1.4398
  107MOL0     H14742   8.025   3.213   7.093  0.5650  0.3193  1.6842
  107MOL0     H14743   7.969   3.278   7.244  0.9738  1.9289 -0.6836
  107MOL0     H14744   7.983   3.489   7.147 -1.5023  0.3318 -0.6236
  107MOL0     H14745   7.846   3.437   7.040 -1.3815 -0.9094  0.1910
  107MOL0     H14746   6.915   3.026   6.870  0.9495 -0.3606  1.4458
  107MOL0     H14747   6.721   3.084   6.773 -0.9779  0.9098  1.1441
  107MOL0     H14748   6.558   3.314   6.474 -1.1079  1.2964  0.3805
  107MOL0     H14749   6.394   3.334   6.299 -0.0613 -0.3988 -0.2151
  107MOL0     H14750   4.879   3.990   5.790 -0.1720  4.0641  2.6210
  107MOL0     H14751   4.663   3.972   5.888  0.2168 -0.7127 -1.1966
  107MOL0     H14752   4.295   3.971   5.992 -0.7311 -1.7441 -1.2189
  107MOL0     H14753   4.094   3.876   6.070 -0.6857  0.4870  0.3891
  107MOL0     H14754   3.914   3.769   6.023 -1.1340 -2.1278 -0.7101
  107MOL0     H14755   3.851   3.862   6.169 -1.5617 -1.0474  0.1277
  107MOL0     H14756   3.635   3.851   6.088 -0.9665  1.3275 -2.2625
  107MOL0     H14757   3.716   3.687   6.081  3.0863  1.7717  1.6437
  107MOL0     H14758   3.659   3.873   5.835  0.1202 -0.8110 -0.6151
  107MOL0     H14759   3.719   3.709   5.831 -0.0268 -0.0703 -0.0964
  107MOL0     H14760   3.493   3.682   5.775  0.2573 -2.7486  0.9255
  107MOL0     H14761   3.442   3.799   5.889  1.3386  0.1354  0.0667
  107MOL0     H14762   3.431   3.472   6.145 -0.6459 -2.1639 -1.7524
  107MOL0     H14763   3.877   4.165   5.832  0.1444  1.5359 -0.2981
  107MOL0     H14764   3.968   4.322   5.698  0.0739  0.4430 -0.7955
  107MOL0     H14765   4.116   4.385   5.761  0.2055 -1.2106 -0.9210
  107MOL0     H14766   4.112   4.273   5.629  1.7616 -0.3239  0.2163
  108MOL0     O14767   5.967   0.426   7.144 -0.3503 -0.2116 -0.1991
  108MOL0     C14768   5.866   0.496   7.154  0.3271  0.4947  0.9734
  108MOL0     O14769   5.873   0.632   7.123 -0.5207  0.2601  0.4102
  108MOL0     C14770   6.005   0.684   7.114 -0.3131  0.1620  0.3314
  108MOL0     C14771   6.058   0.735   7.229 -0.1533 -0.8071 -0.1497
  108MOL0     C14772   6.183   0.796   7.223  0.7443  0.6375  0.7214
  108MOL0     C14773   6.263   0.812   7.104  0.1795  0.3971  1.5386
  108MOL0     O14774   6.382   0.880   7.118 -0.2247 -0.2711  0.0626
  108MOL0     C14775   6.470   0.869   7.008 -0.8510 -0.1871 -0.1166
  108MOL0     C14776   6.576   0.760   7.039  0.9827 -0.5095 -0.1189
  108MOL0     C14777   6.500   0.620   7.027  0.1485 -0.0483  0.0246
  108MOL0     C14778   6.596   0.506   7.018  0.8334 -0.5540 -0.0625
  108MOL0     C14779   6.639   0.507   6.867  0.9494 -0.1179 -0.3891
  108MOL0     C14780   6.715   0.388   6.832 -0.2620 -0.0511 -0.2700
  108MOL0     C14781   6.823   0.327   6.924 -0.4123 -0.2273 -0.2673
  108MOL0     C14782   6.764   0.237   7.034 -0.0472  1.1804  0.4820
  108MOL0     N14783   6.865   0.158   7.102 -0.3233 -0.6232  0.2078
  108MOL0     C14784   6.913   0.037   7.061  0.4260 -0.6578  0.3063
  108MOL0     C14785   7.023   0.015   7.133 -0.0082  0.0591 -0.7370
  108MOL0     C14786   7.127  -0.098   7.134 -0.3405  0.1458 -0.3606
  108MOL0     C14787   7.144  -0.160   7.277 -0.2552 -0.1606 -0.8329
  108MOL0     C14788   7.280  -0.234   7.278  0.6452 -0.3854 -0.2791
  108MOL0     C14789   7.394  -0.146   7.319 -0.2394 -0.5787  0.5904
  108MOL0     O14790   7.494  -0.247   7.324  0.4133  0.4172 -0.6716
  108MOL0     C14791   7.616  -0.213   7.362 -0.4135 -0.8805 -0.4085
  108MOL0     C14792   7.717  -0.272   7.295  0.2782  0.3876 -0.0250
  108MOL0     C14793   7.850  -0.241   7.322  0.1983  0.0024  0.4683
  108MOL0     C14794   7.953  -0.301   7.226  0.2463 -0.1623  1.2226
  108MOL0     C14795   7.874  -0.160   7.432 -1.0791 -0.1067 -0.0407
  108MOL0     C14796   8.017  -0.134   7.475  0.0331 -0.4326  0.6795
  108MOL0     O14797   8.060  -0.169   7.600  0.1866  0.1228  0.5557
  108MOL0     C14798   8.193  -0.148   7.628 -0.5656  1.0371 -0.0730
  108MOL0     C14799   8.302  -0.234   7.601  0.1736  0.2564  0.1024
  108MOL0     C14800   8.426  -0.203   7.640 -0.3169 -0.4000 -0.3835
  108MOL0     C14801   8.456  -0.087   7.712  0.3046 -0.7120 -0.4566
  108MOL0     O14802   8.591  -0.060   7.739 -0.6601 -0.3013  0.3564
  108MOL0     C14803   8.637   0.067   7.746 -0.1537  0.2586 -0.2068
  108MOL0     C14804   8.787   0.058   7.764 -0.4466  0.5563 -0.8850
  108MOL0     C14805   8.825   0.193   7.813  0.6085  0.7398  0.1724
  108MOL0     C14806   8.972   0.209   7.796  0.0274  0.2009 -0.5845
  108MOL0     C14807   9.042   0.113   7.900 -1.1022 -0.6874 -0.1944
  108MOL0     C14808   9.194   0.150   7.916  0.7548 -0.0642  0.1078
  108MOL0     C14809   9.262   0.060   8.016  0.2533  0.1050 -0.1544
  108MOL0     C14810   9.419   0.087   8.021 -0.0121  0.4442 -0.5263
  108MOL0    Cl14811   9.442   0.237   8.115 -0.3597  0.4046  0.3624
  108MOL0     C14812   8.348   0.006   7.736 -0.8198  0.0714  0.4925
  108MOL0     C14813   8.226  -0.030   7.692  0.2398  0.0394  0.8433
  108MOL0     O14814   8.092  -0.076   7.394 -0.9252  0.0461 -0.1905
  108MOL0     C14815   7.773  -0.105   7.510  0.2418  0.6035  0.5776
  108MOL0     C14816   7.640  -0.126   7.470 -1.3394  1.2999  0.0780
  108MOL0     N14817   7.046   0.117   7.210  0.4729 -0.2076  0.4142
  108MOL0     N14818   6.949   0.203   7.204 -0.4569  0.7033  0.4078
  108MOL0     C14819   6.204   0.761   6.982  0.7464  0.1040  0.5252
  108MOL0     C14820   6.070   0.701   6.989 -1.1858 -0.3795  0.9537
  108MOL0     C14821   5.733   0.439   7.165  0.1335  0.4351  0.5564
  108MOL0     C14822   5.732   0.307   7.220 -0.1380  0.0559 -0.4880
  108MOL0     C14823   5.620   0.239   7.269  0.2406 -0.7790  0.3652
  108MOL0     C14824   5.494   0.286   7.235  0.6707 -0.6431 -0.5227
  108MOL0     O14825   5.378   0.209   7.258 -0.0057  0.1235 -0.8360
  108MOL0     C14826   5.346   0.207   7.392 -0.3203  0.6313  0.6706
  108MOL0     C14827   5.220   0.122   7.425 -0.0063 -0.4703 -0.5880
  108MOL0     C14828   5.189   0.133   7.583  0.2431  0.0614  0.0301
  108MOL0     C14829   5.284   0.047   7.672 -1.2674 -0.2562  0.6004
  108MOL0     C14830   5.256  -0.094   7.642 -0.6821  0.7651  0.6274
  108MOL0     C14831   5.252  -0.211   7.612  0.2446 -0.1348  0.0481
  108MOL0     C14832   5.485   0.420   7.177  0.4393  0.8375  0.4834
  108MOL0     C14833   5.603   0.496   7.140 -0.2621  0.3132  0.8199
  108MOL0     C14834   5.582   0.636   7.105  0.5152 -0.2661  0.3706
  108MOL0     H14835   5.985   0.722   7.308 -1.7747 -2.0170 -1.7582
  108MOL0     H14836   6.219   0.834   7.319  2.5890  1.2926 -0.1804
  108MOL0     H14837   6.520   0.966   7.001  0.0687 -0.5234  1.4440
  108MOL0     H14838   6.420   0.856   6.911 -0.1554 -5.3249 -0.0778
  108MOL0     H14839   6.655   0.775   6.966  1.7771  0.8126  0.9741
  108MOL0     H14840   6.615   0.770   7.141 -0.6271 -0.2451  0.5154
  108MOL0     H14841   6.436   0.609   7.115  0.5212  1.7286  0.5661
  108MOL0     H14842   6.428   0.619   6.946 -0.3289 -3.0839  0.3869
  108MOL0     H14843   6.686   0.516   7.080  0.2719  0.4590  0.6283
  108MOL0     H14844   6.535   0.419   7.045  0.4228 -0.0027  0.8611
  108MOL0     H14845   6.692   0.600   6.846  0.7721  0.1106  0.1564
  108MOL0     H14846   6.546   0.517   6.810 -2.1007  2.4531  4.3474
  108MOL0     H14847   6.651   0.310   6.789  1.9394 -0.2299 -3.6407
  108MOL0     H14848   6.776   0.415   6.745  3.1579  0.1448  2.0093
  108MOL0     H14849   6.872   0.411   6.975 -1.9790  2.0727 -2.2886
  108MOL0     H14850   6.901   0.278   6.865 -0.5417 -0.2053 -0.4538
  108MOL0     H14851   6.710   0.296   7.109 -2.4919 -0.9670  0.5500
  108MOL0     H14852   6.696   0.163   6.992  0.1411  3.3565 -4.2334
  108MOL0     H14853   6.861  -0.025   6.989 -0.8471  1.2123 -0.4533
  108MOL0     H14854   7.215  -0.048   7.092  1.7053 -3.3754 -0.5951
  108MOL0     H14855   7.104  -0.173   7.058  0.2325  0.7304 -1.1197
  108MOL0     H14856   7.143  -0.086   7.357 -3.2732  1.2524 -2.0038
  108MOL0     H14857   7.063  -0.231   7.298  0.4735 -1.5185 -2.3703
  108MOL0     H14858   7.267  -0.307   7.358  2.4017 -1.0246 -0.5401
  108MOL0     H14859   7.301  -0.268   7.176  1.4570 -3.5127  0.8291
  108MOL0     H14860   7.416  -0.059   7.256  0.8388 -1.6933 -0.6353
  108MOL0     H14861   7.369  -0.099   7.414 -0.3164  0.5977  0.0134
  108MOL0     H14862   7.689  -0.343   7.218 -0.5960 -0.8082  1.3411
  108MOL0     H14863   7.903  -0.358   7.148 -1.5917  0.6574  1.7596
  108MOL0     H14864   8.025  -0.369   7.273  0.1439 -2.3813 -1.6094
  108MOL0     H14865   7.992  -0.217   7.168 -2.1638 -0.6730 -1.3447
  108MOL0     H14866   8.282  -0.331   7.556  0.1937  0.1064  0.4130
  108MOL0     H14867   8.509  -0.271   7.628  0.4936  0.6152 -0.7526
  108MOL0     H14868   8.625   0.115   7.648  0.5413 -2.6020 -1.8129
  108MOL0     H14869   8.579   0.122   7.821 -1.2366  0.4786 -1.1670
  108MOL0     H14870   8.802  -0.027   7.831 -2.1137  0.5644 -0.4695
  108MOL0     H14871   8.846   0.034   7.674 -0.4119  1.0773 -1.0060
  108MOL0     H14872   8.789   0.210   7.914  3.0042  0.2054  1.1919
  108MOL0     H14873   8.775   0.271   7.754 -0.7762 -0.3841 -0.2054
  108MOL0     H14874   8.984   0.316   7.817 -1.6870  0.2524  0.3236
  108MOL0     H14875   8.993   0.192   7.690 -1.2450 -0.4965 -0.7472
  108MOL0     H14876   8.996   0.115   7.999 -0.2535  0.1724  0.2046
  108MOL0     H14877   9.036   0.009   7.866  1.4637 -0.9637  0.0127
  108MOL0     H14878   9.211   0.256   7.940  1.6715  0.4445 -2.4866
  108MOL0     H14879   9.239   0.135   7.818 -0.6558 -2.3779 -0.2433
  108MOL0     H14880   9.249  -0.041   7.976 -0.6915  1.2751 -3.0877
  108MOL0     H14881   9.210   0.071   8.111 -0.5570 -2.7663 -0.1660
  108MOL0     H14882   9.463   0.088   7.921 -1.0663  0.1185 -1.0111
  108MOL0     H14883   9.458  -0.003   8.071  0.0611 -0.8192 -2.7333
  108MOL0     H14884   8.373   0.104   7.777  0.3712  0.7163 -1.6234
  108MOL0     H14885   8.141   0.037   7.701 -1.8308 -2.1049 -1.3574
  108MOL0     H14886   7.791  -0.044   7.598 -0.5324  0.8770  0.5539
  108MOL0     H14887   7.559  -0.082   7.528 -0.2503  3.0740  0.3144
  108MOL0     H14888   6.248   0.783   6.885  0.2280 -0.4031  0.1706
  108MOL0     H14889   6.011   0.693   6.898  0.6978 -0.9079 -0.2795
  108MOL0     H14890   5.827   0.259   7.243  0.8025  1.6147 -0.9407
  108MOL0     H14891   5.638   0.155   7.335  2.7375 -0.1738  0.5502
  108MOL0     H14892   5.431   0.172   7.451 -1.6499 -2.6860  0.8591
  108MOL0     H14893   5.333   0.311   7.422  0.6902  0.1981  2.7654
  108MOL0     H14894   5.246   0.020   7.397 -0.9351 -0.4179 -1.6978
  108MOL0     H14895   5.127   0.145   7.374 -1.3607 -0.1738  1.8644
  108MOL0     H14896   5.188   0.241   7.602  1.8699 -0.1823  1.6732
  108MOL0     H14897   5.090   0.089   7.602  0.2461 -0.4172 -1.0071
  108MOL0     H14898   5.257   0.063   7.777  1.7831 -1.0467  1.6234
  108MOL0     H14899   5.385   0.083   7.647 -1.9618  1.2482 -0.1718
  108MOL0     H14900   5.231  -0.312   7.582  1.2694  0.1310 -1.6573
  108MOL0     H14901   5.384   0.451   7.153 -0.0069  0.1317  1.4201
  108MOL0     H14902   5.668   0.693   7.068  1.2548  0.0905  2.5363
  108MOL0     H14903   5.507   0.638   7.025  2.2916 -2.0015 -1.4426
  108MOL0     H14904   5.539   0.687   7.192  1.7838  1.8779 -0.1723
  109MOL0     O14905   3.613   2.114   2.365  0.3790  0.1472  0.7831
  109MOL0     C14906   3.602   2.107   2.488  0.1925 -0.3401 -0.0824
  109MOL0     O14907   3.697   2.058   2.581  0.3013  0.0633 -0.3613
  109MOL0     C14908   3.829   2.054   2.534 -0.0318 -0.0319 -0.4136
  109MOL0     C14909   3.909   2.160   2.568  0.0086  0.0979 -0.2733
  109MOL0     C14910   4.038   2.182   2.517 -0.2779  0.1700  0.4738
  109MOL0     C14911   4.092   2.079   2.434 -0.7301 -0.1093 -0.6650
  109MOL0     O14912   4.220   2.074   2.381 -0.2263  0.6021 -0.1877
  109MOL0     C14913   4.291   2.196   2.349  0.7815 -0.1545  0.2919
  109MOL0     C14914   4.251   2.274   2.225 -0.7201  0.2719 -0.0107
  109MOL0     C14915   4.322   2.410   2.217  0.2364 -0.0244 -0.5483
  109MOL0     C14916   4.260   2.492   2.104  0.4978  0.2007 -0.2235
  109MOL0     C14917   4.290   2.434   1.966  0.5912  0.0282  0.6713
  109MOL0     C14918   4.191   2.490   1.855  0.7922 -0.5230 -0.4174
  109MOL0     C14919   4.236   2.446   1.717 -0.2630 -0.2916  0.0919
  109MOL0     C14920   4.168   2.525   1.608  0.6879  0.1575 -0.4346
  109MOL0     N14921   4.195   2.464   1.478 -0.2618 -0.4796  0.4646
  109MOL0     C14922   4.305   2.498   1.402  0.5337 -0.1450  0.3059
  109MOL0     C14923   4.298   2.406   1.301 -0.2376 -0.0683  0.1963
  109MOL0     C14924   4.392   2.393   1.182 -0.9220 -0.4742  0.6086
  109MOL0     C14925   4.437   2.520   1.106 -0.4277 -0.3193 -0.1038
  109MOL0     C14926   4.517   2.471   0.988 -0.4407  0.0201  0.0712
  109MOL0     C14927   4.432   2.424   0.867 -0.3285  0.0452 -0.0422
  109MOL0     O14928   4.521   2.397   0.755  0.2015 -0.0901 -0.4378
  109MOL0     C14929   4.574   2.499   0.683  0.5112 -0.9954 -0.6136
  109MOL0     C14930   4.532   2.632   0.679 -0.1136 -0.7078  0.0676
  109MOL0     C14931   4.589   2.730   0.592  0.7955  0.4201 -1.0077
  109MOL0     C14932   4.534   2.869   0.605 -0.0799 -0.5151  0.3747
  109MOL0     C14933   4.703   2.696   0.516  0.2014  0.1511  0.5398
  109MOL0     C14934   4.776   2.785   0.429 -0.4305  0.1730  0.6228
  109MOL0     O14935   4.913   2.756   0.424  0.8220 -0.7178  0.1071
  109MOL0     C14936   5.003   2.828   0.355  0.0717 -0.1111  0.5930
  109MOL0     C14937   5.104   2.751   0.298 -1.6758  0.0605  0.0131
  109MOL0     C14938   5.208   2.810   0.225 -0.4505 -0.2953  0.7840
  109MOL0     C14939   5.211   2.948   0.197 -0.4861  0.1754  0.0580
  109MOL0     O14940   5.315   2.992   0.120  0.4011 -0.2613  0.9135
  109MOL0     C14941   5.323   3.129   0.113  1.1579 -1.2474  0.3231
  109MOL0     C14942   5.445   3.167   0.045 -0.1422  0.0672  0.1925
  109MOL0     C14943   5.455   3.313   0.015  0.4265 -0.1261 -0.3762
  109MOL0     C14944   5.384   3.344  -0.111 -0.3198 -0.5824  0.0101
  109MOL0     C14945   5.372   3.486  -0.161 -0.9995 -0.0279  0.7765
  109MOL0     C14946   5.257   3.503  -0.272 -0.2148  0.1855  0.5054
  109MOL0     C14947   5.216   3.648  -0.288  0.3244 -0.2032  0.2435
  109MOL0     C14948   5.304   3.724  -0.374  0.5443  0.0085 -0.3176
  109MOL0    Cl14949   5.227   3.875  -0.431  0.0925  0.0372 -0.1786
  109MOL0     C14950   5.104   3.025   0.248  0.3492  0.3074 -0.0266
  109MOL0     C14951   5.008   2.966   0.337 -0.0465 -0.6088  0.0493
  109MOL0     O14952   4.719   2.859   0.353  0.0627  0.9141 -0.1809
  109MOL0     C14953   4.744   2.565   0.524 -0.6720 -0.2418  0.3991
  109MOL0     C14954   4.682   2.466   0.596  0.5229  0.3301  0.6327
  109MOL0     N14955   4.179   2.333   1.308  0.1987  0.3646 -0.6175
  109MOL0     N14956   4.113   2.373   1.412  0.0610  0.1297  0.0749
  109MOL0     C14957   4.012   1.972   2.400  0.3066  0.5196 -0.0343
  109MOL0     C14958   3.882   1.953   2.453  0.3252 -0.4613  0.0285
  109MOL0     C14959   3.481   2.144   2.558 -0.0883  0.7463 -0.1892
  109MOL0     C14960   3.490   2.208   2.684  0.4517  0.2021 -0.2818
  109MOL0     C14961   3.383   2.242   2.764 -0.8531 -0.0458  0.0040
  109MOL0     C14962   3.262   2.235   2.701  0.5967 -0.1396 -0.7009
  109MOL0     O14963   3.150   2.301   2.736 -0.5308  0.2664 -0.1176
  109MOL0     C14964   3.125   2.311   2.879 -0.0561  0.2159 -0.6446
  109MOL0     C14965   2.997   2.366   2.940  0.2427  1.3765 -0.2064
  109MOL0     C14966   2.885   2.271   2.906 -0.2966  0.0852  0.6663
  109MOL0     C14967   2.753   2.311   2.967 -0.1923 -0.3307  0.1748
  109MOL0     C14968   2.691   2.429   2.899 -0.2316 -0.3703 -0.4051
  109MOL0     C14969   2.633   2.510   2.828 -1.4423  0.5003 -0.4075
  109MOL0     C14970   3.241   2.185   2.578  0.6849  1.2621  0.6248
  109MOL0     C14971   3.352   2.141   2.508 -0.1076 -0.9942  0.3856
  109MOL0     C14972   3.316   2.083   2.368 -0.4738  0.4301 -0.5763
  109MOL0     H14973   3.867   2.242   2.626 -2.2180 -2.1341  1.4854
  109MOL0     H14974   4.113   2.251   2.553  0.7192 -1.2322  1.2016
  109MOL0     H14975   4.393   2.163   2.325  0.9568 -0.2298  1.1054
  109MOL0     H14976   4.292   2.255   2.442 -0.9533 -0.4131  0.5026
  109MOL0     H14977   4.282   2.209   2.143  1.9163 -0.5399  1.5069
  109MOL0     H14978   4.142   2.283   2.220 -0.6983  0.8732  0.4465
  109MOL0     H14979   4.309   2.469   2.309 -2.3496 -1.2927 -0.0207
  109MOL0     H14980   4.428   2.394   2.198 -0.2982 -2.4010 -1.9095
  109MOL0     H14981   4.152   2.489   2.120  0.5748 -1.1689  0.1328
  109MOL0     H14982   4.305   2.591   2.120  1.0631 -0.3980  2.3618
  109MOL0     H14983   4.290   2.325   1.956  1.5819  0.1490 -1.1526
  109MOL0     H14984   4.392   2.460   1.935  1.6426 -3.3371  0.8250
  109MOL0     H14985   4.093   2.446   1.873  0.9902  0.0433  2.5953
  109MOL0     H14986   4.177   2.598   1.866 -2.2487 -0.9258  0.5969
  109MOL0     H14987   4.231   2.337   1.706 -1.5121 -0.2218 -0.1527
  109MOL0     H14988   4.344   2.466   1.717 -0.0670 -1.2910 -0.1670
  109MOL0     H14989   4.060   2.508   1.616  0.9867 -1.2646  1.1980
  109MOL0     H14990   4.196   2.630   1.609 -0.3840  0.4555 -0.5157
  109MOL0     H14991   4.382   2.573   1.418  1.4043 -0.9571 -0.0293
  109MOL0     H14992   4.339   2.336   1.106 -0.2478  0.1102 -0.3291
  109MOL0     H14993   4.480   2.336   1.213 -0.1569 -0.3283 -1.1691
  109MOL0     H14994   4.353   2.581   1.074  1.8552  2.3744 -1.3912
  109MOL0     H14995   4.493   2.580   1.179  1.3073 -1.3376 -0.5250
  109MOL0     H14996   4.584   2.551   0.958 -1.2137  1.3981  1.8672
  109MOL0     H14997   4.577   2.384   1.017 -1.3464 -1.0747 -1.2283
  109MOL0     H14998   4.384   2.329   0.891  0.5100 -0.6618 -1.0658
  109MOL0     H14999   4.352   2.493   0.838 -0.9940 -0.7262 -0.0729
  109MOL0     H15000   4.439   2.667   0.722  0.0684 -0.1035 -0.0179
  109MOL0     H15001   4.494   2.900   0.508  0.1338 -0.2438  0.3735
  109MOL0     H15002   4.608   2.942   0.641 -1.3840  0.7504  0.5738
  109MOL0     H15003   4.453   2.870   0.679  0.2095 -1.4794  0.7275
  109MOL0     H15004   5.109   2.643   0.310  1.8641  0.1786  0.7756
  109MOL0     H15005   5.284   2.747   0.178 -2.1511 -1.8117 -0.0854
  109MOL0     H15006   5.233   3.167   0.063  1.4864 -1.5982 -0.5528
  109MOL0     H15007   5.317   3.183   0.208  1.0700  0.6781 -0.7270
  109MOL0     H15008   5.537   3.138   0.097  0.1289 -1.7569 -1.1968
  109MOL0     H15009   5.461   3.108  -0.046  1.3220 -0.9797  1.0815
  109MOL0     H15010   5.563   3.333   0.012  0.5046 -0.5891 -0.8425
  109MOL0     H15011   5.415   3.371   0.099 -1.2318 -2.3780  0.4530
  109MOL0     H15012   5.281   3.311  -0.093 -1.1817  2.1233  0.4628
  109MOL0     H15013   5.425   3.282  -0.190 -2.5915 -0.9988 -0.9267
  109MOL0     H15014   5.344   3.552  -0.078 -1.7389 -1.3529  1.6151
  109MOL0     H15015   5.465   3.521  -0.205 -1.3021  2.4834  1.9304
  109MOL0     H15016   5.180   3.443  -0.222 -0.4879  1.0564  1.1615
  109MOL0     H15017   5.275   3.460  -0.371  2.4554  2.1384  0.0399
  109MOL0     H15018   5.202   3.694  -0.190 -0.2368  1.0794 -0.4176
  109MOL0     H15019   5.121   3.653  -0.341 -0.3933 -0.0027  1.5105
  109MOL0     H15020   5.321   3.660  -0.462  0.1772  0.8247 -0.9925
  109MOL0     H15021   5.395   3.740  -0.316 -0.7711  1.5644  1.4282
  109MOL0     H15022   5.089   3.133   0.246 -2.2249  0.0053 -1.8099
  109MOL0     H15023   4.941   3.036   0.386 -2.0304 -2.2155 -0.2650
  109MOL0     H15024   4.836   2.540   0.473  0.8317  3.0673  1.1937
  109MOL0     H15025   4.723   2.366   0.602 -1.5302 -0.7385 -1.4782
  109MOL0     H15026   4.045   1.888   2.340  1.0245 -0.6684  1.9308
  109MOL0     H15027   3.824   1.864   2.432 -0.8896 -0.2982  2.2741
  109MOL0     H15028   3.585   2.203   2.737 -0.2467 -0.4984  0.9500
  109MOL0     H15029   3.405   2.274   2.865 -0.6516 -0.8051  0.2103
  109MOL0     H15030   3.148   2.213   2.921  0.9251  1.8583  3.0714
  109MOL0     H15031   3.207   2.378   2.907 -0.9669  1.1675 -0.1780
  109MOL0     H15032   2.984   2.470   2.909 -2.9421  1.4670  1.0335
  109MOL0     H15033   3.001   2.373   3.049 -1.1639 -1.0131  0.0713
  109MOL0     H15034   2.888   2.260   2.797 -0.3336  1.3647  0.5300
  109MOL0     H15035   2.912   2.173   2.947  3.0223 -0.4863 -2.3352
  109MOL0     H15036   2.757   2.337   3.073 -1.8672 -1.2998  0.5211
  109MOL0     H15037   2.693   2.220   2.957 -0.9062  0.2470 -1.1867
  109MOL0     H15038   2.570   2.589   2.793 -3.2664 -1.1072 -0.9951
  109MOL0     H15039   3.147   2.202   2.526  0.9254 -0.2049 -0.3564
  109MOL0     H15040   3.362   1.985   2.352  3.3677  2.3821 -2.9972
  109MOL0     H15041   3.209   2.069   2.351 -0.4167  1.2760 -1.7465
  109MOL0     H15042   3.363   2.141   2.288  2.2680  1.3534  1.5845
  110MOL0     O15043   3.211   6.235   1.766  0.4919  0.2282 -0.1204
  110MOL0     C15044   3.159   6.199   1.661  0.1608 -0.0421  0.0522
  110MOL0     O15045   3.226   6.189   1.540  0.3292  0.3805  0.0037
  110MOL0     C15046   3.358   6.207   1.531 -0.1445 -0.6169  0.6784
  110MOL0     C15047   3.455   6.191   1.632  0.3602 -0.1816 -0.0902
  110MOL0     C15048   3.589   6.196   1.613 -0.1531 -0.3576 -0.7835
  110MOL0     C15049   3.644   6.228   1.488  0.2766  0.1050  0.1589
  110MOL0     O15050   3.778   6.230   1.466  0.4743  0.8880 -0.5975
  110MOL0     C15051   3.848   6.330   1.536 -0.2120  0.0861  0.1295
  110MOL0     C15052   3.988   6.312   1.482  0.5981  0.5830 -0.2949
  110MOL0     C15053   4.090   6.392   1.559 -0.0350  0.2006  0.1348
  110MOL0     C15054   4.233   6.355   1.530 -0.6648  0.8247  0.1861
  110MOL0     C15055   4.326   6.412   1.632 -0.1235  0.5290 -0.3122
  110MOL0     C15056   4.466   6.361   1.595 -0.4196 -0.6481 -1.1553
  110MOL0     C15057   4.563   6.439   1.684  0.3478 -0.9454  0.2076
  110MOL0     C15058   4.577   6.592   1.638  0.3415 -0.5744 -0.6475
  110MOL0     N15059   4.601   6.682   1.754  0.0029  0.3310  0.6591
  110MOL0     C15060   4.509   6.724   1.838  1.3035 -0.2760 -0.0365
  110MOL0     C15061   4.575   6.819   1.910 -0.2533 -0.7954  0.0649
  110MOL0     C15062   4.512   6.905   2.013 -0.3271 -0.2826  0.1239
  110MOL0     C15063   4.564   6.864   2.154 -0.2906  0.0763  0.4398
  110MOL0     C15064   4.487   6.948   2.267  1.2374 -0.4803  0.4432
  110MOL0     C15065   4.572   6.980   2.386  0.5008  0.1563  0.3822
  110MOL0     O15066   4.642   6.862   2.438  0.7744 -0.4589  0.0315
  110MOL0     C15067   4.775   6.873   2.467  0.7082  0.3279 -0.5025
  110MOL0     C15068   4.849   6.751   2.462  1.5936 -0.2455 -0.1937
  110MOL0     C15069   4.977   6.736   2.508  0.0890 -0.0132  1.2037
  110MOL0     C15070   5.040   6.593   2.519  0.0309  0.5785 -0.1482
  110MOL0     C15071   5.031   6.851   2.568 -0.8933 -0.7239  0.1826
  110MOL0     C15072   5.167   6.850   2.631 -0.6164 -0.5137 -0.3611
  110MOL0     O15073   5.194   6.943   2.732  0.1639  0.4583 -0.0808
  110MOL0     C15074   5.323   6.963   2.778  0.2411  0.9525 -0.1917
  110MOL0     C15075   5.368   6.879   2.875 -0.0566  0.2733 -0.0354
  110MOL0     C15076   5.498   6.877   2.912 -0.2593  0.4207  0.0057
  110MOL0     C15077   5.592   6.968   2.857 -0.5245 -0.1288  0.3483
  110MOL0     O15078   5.714   6.964   2.915  0.7114  0.1718  0.7931
  110MOL0     C15079   5.810   7.069   2.876  1.3544  0.7845  0.2251
  110MOL0     C15080   5.765   7.206   2.927  0.4191  0.0695  0.3409
  110MOL0     C15081   5.870   7.315   2.939  0.0095 -0.2119  0.0476
  110MOL0     C15082   5.977   7.304   3.048 -0.3254  0.7056 -0.4597
  110MOL0     C15083   6.086   7.407   3.038 -1.3491 -0.2978  0.1450
  110MOL0     C15084   6.195   7.406   3.139  0.4134  0.4053 -0.0790
  110MOL0     C15085   6.290   7.281   3.124 -1.0762  0.1477 -0.6881
  110MOL0     C15086   6.400   7.290   3.229 -0.7955  0.1163 -0.1414
  110MOL0    Cl15087   6.527   7.413   3.176  0.0397 -0.2550 -0.3602
  110MOL0     C15088   5.546   7.054   2.753  0.5908  0.4189  0.2526
  110MOL0     C15089   5.414   7.043   2.710  0.5873 -0.7681  0.7068
  110MOL0     O15090   5.250   6.762   2.600  0.2867 -0.3625  0.0879
  110MOL0     C15091   4.953   6.964   2.575  0.4052 -0.9480 -0.4778
  110MOL0     C15092   4.826   6.984   2.525 -0.2292  0.6040  0.3554
  110MOL0     N15093   4.710   6.815   1.874  0.0813 -0.7870 -0.1264
  110MOL0     N15094   4.726   6.723   1.793  0.2444  0.7013 -0.2606
  110MOL0     C15095   3.548   6.255   1.382  0.4433 -0.2716 -0.2083
  110MOL0     C15096   3.411   6.237   1.404  0.8653 -0.7672 -0.0915
  110MOL0     C15097   3.012   6.179   1.660  0.4262 -0.0414 -0.6571
  110MOL0     C15098   2.944   6.225   1.778 -0.2273  0.4791 -0.6828
  110MOL0     C15099   2.806   6.218   1.775 -0.0241  0.1311 -0.5210
  110MOL0     C15100   2.729   6.164   1.668  0.6972 -0.2422 -0.2988
  110MOL0     O15101   2.594   6.139   1.689 -0.0167 -0.0509 -0.0046
  110MOL0     C15102   2.527   6.169   1.821  0.0351  0.0946 -0.4645
  110MOL0     C15103   2.383   6.122   1.815  0.4585 -0.0100  0.5946
  110MOL0     C15104   2.276   6.195   1.903 -0.9477  0.5217  0.0404
  110MOL0     C15105   2.253   6.137   2.039 -0.2062 -0.1901 -0.2920
  110MOL0     C15106   2.168   6.023   2.019 -0.0826  0.5267  0.2312
  110MOL0     C15107   2.104   5.917   2.021 -0.7528 -0.5393 -0.5857
  110MOL0     C15108   2.801   6.116   1.567 -0.8184  0.1231  0.4152
  110MOL0     C15109   2.938   6.129   1.553  0.2219 -0.3943 -0.3661
  110MOL0     C15110   3.003   6.061   1.433 -0.0639 -0.1950 -0.9829
  110MOL0     H15111   3.430   6.170   1.735  3.6901  1.3474  1.2030
  110MOL0     H15112   3.654   6.182   1.699 -0.9008 -2.7556 -0.5151
  110MOL0     H15113   3.851   6.297   1.641  1.7696  0.7126  0.3165
  110MOL0     H15114   3.810   6.431   1.518 -2.0249 -0.6405 -0.3058
  110MOL0     H15115   4.017   6.206   1.483  1.0359  0.5763 -3.3163
  110MOL0     H15116   3.982   6.336   1.376 -0.4441 -0.0992 -0.4049
  110MOL0     H15117   4.074   6.497   1.534 -3.4259 -0.0305  0.9048
  110MOL0     H15118   4.072   6.379   1.666  1.1414  3.3533  0.8271
  110MOL0     H15119   4.240   6.246   1.540 -1.9998  0.5611 -1.3314
  110MOL0     H15120   4.248   6.390   1.427 -1.6146  0.1141 -0.2162
  110MOL0     H15121   4.291   6.391   1.733  1.0708  0.5692  0.1299
  110MOL0     H15122   4.313   6.520   1.617 -0.7440  0.2456 -2.1512
  110MOL0     H15123   4.475   6.256   1.624  1.4277 -0.6967 -1.8166
  110MOL0     H15124   4.502   6.371   1.492  2.6827  1.9416  0.0055
  110MOL0     H15125   4.661   6.392   1.673  2.0735  2.2124  0.9409
  110MOL0     H15126   4.546   6.428   1.791 -1.4610  1.6059  0.2641
  110MOL0     H15127   4.655   6.600   1.562 -1.2221 -0.9241 -2.3529
  110MOL0     H15128   4.489   6.628   1.585 -0.6291  0.4512  1.5410
  110MOL0     H15129   4.406   6.689   1.843  1.1864  0.1826  1.0939
  110MOL0     H15130   4.404   6.911   2.005 -0.1986  2.1263 -0.6085
  110MOL0     H15131   4.543   7.009   1.995 -0.3352 -0.2572  0.2510
  110MOL0     H15132   4.558   6.758   2.178  0.0327 -0.0672 -0.0971
  110MOL0     H15133   4.669   6.892   2.157  0.1125 -1.2170 -0.6575
  110MOL0     H15134   4.464   7.045   2.222  0.0620  0.0622  2.1163
  110MOL0     H15135   4.400   6.889   2.296  1.5031 -2.1501 -1.8478
  110MOL0     H15136   4.641   7.061   2.363 -1.1646  1.0808 -1.6196
  110MOL0     H15137   4.512   7.014   2.471  2.3834  0.9808  1.4386
  110MOL0     H15138   4.802   6.663   2.420 -0.8488 -0.6474  2.9767
  110MOL0     H15139   5.080   6.580   2.619 -0.0570  0.1378 -0.1711
  110MOL0     H15140   5.119   6.576   2.445 -0.3703  1.1773 -0.7294
  110MOL0     H15141   4.958   6.524   2.498 -1.5842  2.5371 -0.6447
  110MOL0     H15142   5.301   6.806   2.918 -2.0707  2.2335  0.3258
  110MOL0     H15143   5.537   6.815   2.992 -3.2031 -2.7336 -0.7860
  110MOL0     H15144   5.908   7.049   2.921  0.8144  0.4715  1.2813
  110MOL0     H15145   5.838   7.063   2.770  1.9090  0.2835  0.3941
  110MOL0     H15146   5.678   7.250   2.878 -0.1313 -0.3275  0.9327
  110MOL0     H15147   5.721   7.178   3.023 -0.8972 -1.9889 -0.8036
  110MOL0     H15148   5.811   7.404   2.965 -2.7556 -2.2224  1.1208
  110MOL0     H15149   5.927   7.336   2.848  0.8116  0.7863  0.7472
  110MOL0     H15150   6.029   7.208   3.043 -1.0484  0.2879  0.0031
  110MOL0     H15151   5.924   7.314   3.143  0.0246  0.7261 -0.2631
  110MOL0     H15152   6.141   7.390   2.945  0.0629  0.5618  0.7879
  110MOL0     H15153   6.043   7.508   3.037  0.8866  0.7176  0.6662
  110MOL0     H15154   6.150   7.409   3.239 -0.0598 -1.7523 -0.1724
  110MOL0     H15155   6.257   7.493   3.117 -0.9937  1.0929 -1.5245
  110MOL0     H15156   6.341   7.281   3.028  0.9265 -0.5921  0.3247
  110MOL0     H15157   6.240   7.189   3.153  2.6017 -1.6975  0.4657
  110MOL0     H15158   6.442   7.192   3.255 -0.9088 -0.4704 -2.0404
  110MOL0     H15159   6.351   7.321   3.322 -2.0916 -2.2706  0.0435
  110MOL0     H15160   5.617   7.110   2.693 -0.6193 -0.8811 -2.6036
  110MOL0     H15161   5.378   7.097   2.623  0.6804 -0.6769  0.7261
  110MOL0     H15162   4.998   7.050   2.624 -0.8146  1.2337 -2.9325
  110MOL0     H15163   4.766   7.065   2.565  0.0050  0.5875  0.7422
  110MOL0     H15164   3.588   6.265   1.282 -0.6097  0.3549 -0.5867
  110MOL0     H15165   3.342   6.258   1.323  0.1895 -4.2897 -0.5784
  110MOL0     H15166   2.992   6.269   1.865 -2.4209 -0.2634  1.0079
  110MOL0     H15167   2.753   6.267   1.856 -0.6342 -0.5508 -0.4954
  110MOL0     H15168   2.575   6.122   1.907  2.4490  1.6380 -0.8827
  110MOL0     H15169   2.523   6.275   1.846  1.1145 -0.1364  0.7925
  110MOL0     H15170   2.384   6.014   1.833 -2.1120 -0.2214 -0.1481
  110MOL0     H15171   2.357   6.128   1.709  1.4970 -1.2710  0.2422
  110MOL0     H15172   2.324   6.293   1.908  2.9442 -1.1612 -1.0467
  110MOL0     H15173   2.193   6.201   1.832  0.6537  0.8093 -1.8731
  110MOL0     H15174   2.196   6.216   2.088 -0.9837  1.5483 -3.6921
  110MOL0     H15175   2.349   6.102   2.078  0.2359  2.3890  1.0843
  110MOL0     H15176   2.057   5.822   2.037  0.9031 -1.1721  0.6600
  110MOL0     H15177   2.742   6.072   1.487  0.8425 -0.1218 -0.7201
  110MOL0     H15178   3.074   5.982   1.460  3.0790  2.6179 -0.3907
  110MOL0     H15179   2.925   6.030   1.364 -2.6173  2.1243  0.6759
  110MOL0     H15180   3.062   6.138   1.382 -0.1347 -0.6920 -1.8450
  111MOL0     O15181   7.405   4.319   7.480 -0.6503  0.6102 -0.1518
  111MOL0     C15182   7.309   4.261   7.433 -0.3309  0.3499 -0.1721
  111MOL0     O15183   7.304   4.174   7.329  0.1451 -0.3364 -0.1602
  111MOL0     C15184   7.423   4.144   7.266  0.1671  0.9061 -0.8525
  111MOL0     C15185   7.480   4.228   7.176  0.7921 -0.1330  0.2106
  111MOL0     C15186   7.594   4.199   7.104  0.6905 -0.5419  0.3055
  111MOL0     C15187   7.663   4.092   7.138 -0.1241 -0.4620 -0.4488
  111MOL0     O15188   7.781   4.067   7.081 -0.1202  0.2860  0.3773
  111MOL0     C15189   7.876   4.177   7.085 -0.2349  0.1967  0.3171
  111MOL0     C15190   8.021   4.129   7.056 -0.1416  0.2956 -0.2864
  111MOL0     C15191   8.107   4.220   6.976 -0.5998 -0.3886 -0.5446
  111MOL0     C15192   8.149   4.352   7.038 -0.3470 -0.6102  0.0540
  111MOL0     C15193   8.202   4.462   6.944 -0.0223 -0.4826 -0.0864
  111MOL0     C15194   8.227   4.595   7.021 -0.2823  0.4039  0.1849
  111MOL0     C15195   8.265   4.723   6.940  0.0928 -0.5451  0.2843
  111MOL0     C15196   8.164   4.760   6.838  0.5489 -0.4437  0.6771
  111MOL0     N15197   8.060   4.856   6.871  0.5801 -0.8200  0.0078
  111MOL0     C15198   7.977   4.851   6.983  0.2238  0.2227  0.0381
  111MOL0     C15199   7.938   4.971   7.006 -0.3086 -1.0441 -1.2441
  111MOL0     C15200   7.825   5.017   7.101  0.3984 -0.2847 -0.5074
  111MOL0     C15201   7.682   5.032   7.046  0.5503 -0.2078  0.3883
  111MOL0     C15202   7.641   4.913   6.956  0.4387 -0.0786  0.6925
  111MOL0     C15203   7.491   4.901   6.953  0.3202 -0.1453  1.0151
  111MOL0     O15204   7.427   4.991   6.856 -0.3408  0.1455  0.2354
  111MOL0     C15205   7.412   4.950   6.723 -0.6645 -0.2504 -0.4693
  111MOL0     C15206   7.389   5.049   6.634 -0.1737 -1.0980  1.0283
  111MOL0     C15207   7.352   5.030   6.496  0.2324  0.5533 -0.0223
  111MOL0     C15208   7.289   5.140   6.419 -0.1314 -1.4915  0.3845
  111MOL0     C15209   7.362   4.896   6.450 -1.3845  1.3156 -0.5507
  111MOL0     C15210   7.335   4.862   6.318 -0.3562 -0.1699  0.1749
  111MOL0     O15211   7.288   4.736   6.290  0.0666  0.4438  0.0946
  111MOL0     C15212   7.286   4.703   6.158  0.2488  0.2530 -0.3210
  111MOL0     C15213   7.168   4.672   6.092 -0.3460 -0.5311  0.6854
  111MOL0     C15214   7.153   4.633   5.961 -1.5530 -0.2355 -0.6211
  111MOL0     C15215   7.271   4.639   5.874  0.2990 -0.0994  0.0411
  111MOL0     O15216   7.260   4.607   5.746  0.2744 -0.2795 -0.0760
  111MOL0     C15217   7.187   4.708   5.674  0.2714  0.1106  0.6985
  111MOL0     C15218   7.276   4.809   5.608  0.6711  0.2571  0.0933
  111MOL0     C15219   7.360   4.759   5.492  0.0795  0.3518 -0.0676
  111MOL0     C15220   7.436   4.882   5.437 -0.2859  0.0588 -0.0820
  111MOL0     C15221   7.489   4.859   5.297  0.3379  0.8197  0.2192
  111MOL0     C15222   7.580   4.735   5.303 -0.1245  0.1270 -0.2651
  111MOL0     C15223   7.667   4.720   5.177  0.4434 -0.2653 -0.4347
  111MOL0     C15224   7.733   4.580   5.165  0.0544  0.2178  0.6043
  111MOL0    Cl15225   7.820   4.530   5.309 -0.0899  0.4760 -0.2921
  111MOL0     C15226   7.397   4.651   5.935  0.0540 -0.1138 -0.2057
  111MOL0     C15227   7.403   4.675   6.079 -0.1796  0.0244  0.2302
  111MOL0     O15228   7.358   4.946   6.232 -1.0702  0.5618  0.0114
  111MOL0     C15229   7.406   4.800   6.540 -0.8964 -0.3252 -0.7100
  111MOL0     C15230   7.434   4.825   6.672 -0.2731  0.0186 -0.3819
  111MOL0     N15231   7.990   5.053   6.904  0.2237  0.0738 -0.7168
  111MOL0     N15232   8.058   4.983   6.819 -0.7707  0.1428 -0.1351
  111MOL0     C15233   7.610   3.993   7.223 -0.2700 -0.1846  0.4637
  111MOL0     C15234   7.495   4.021   7.296  0.8779 -0.1655  0.8436
  111MOL0     C15235   7.181   4.275   7.504  0.1498  0.0405 -0.3344
  111MOL0     C15236   7.132   4.410   7.514  0.4750 -0.9128  0.4552
  111MOL0     C15237   7.007   4.432   7.579 -0.5550  0.1985  0.0383
  111MOL0     C15238   6.940   4.327   7.650  0.2164 -0.6858  0.5447
  111MOL0     O15239   6.834   4.348   7.733 -0.1480 -0.2515  0.2829
  111MOL0     C15240   6.785   4.484   7.754 -0.0895  0.2577  0.2051
  111MOL0     C15241   6.699   4.530   7.640  0.0196  0.0059 -0.0688
  111MOL0     C15242   6.663   4.681   7.666  0.5908 -0.2494  0.3890
  111MOL0     C15243   6.782   4.780   7.643  0.6516 -0.2126  0.0390
  111MOL0     C15244   6.741   4.904   7.709 -0.4976 -0.6079  0.1529
  111MOL0     C15245   6.708   5.002   7.773  1.0492 -0.3518  0.3123
  111MOL0     C15246   7.000   4.202   7.644 -0.5888 -0.0412 -0.2864
  111MOL0     C15247   7.122   4.172   7.579 -0.0615  0.8535  0.1335
  111MOL0     C15248   7.184   4.031   7.590  0.3682 -0.1302 -0.4658
  111MOL0     H15249   7.432   4.324   7.163 -0.0394 -0.3187  1.7406
  111MOL0     H15250   7.631   4.254   7.019  1.8736 -1.9898 -0.1509
  111MOL0     H15251   7.880   4.220   7.186  2.4897  0.6179  0.1044
  111MOL0     H15252   7.853   4.263   7.022  1.4136  0.5484  0.1562
  111MOL0     H15253   8.069   4.111   7.153  1.7355  0.0201 -1.2213
  111MOL0     H15254   8.020   4.037   6.997 -1.6440  0.9849 -1.4056
  111MOL0     H15255   8.198   4.163   6.955  1.2288  0.9747  2.8865
  111MOL0     H15256   8.056   4.257   6.887 -2.6785  2.9582  1.8163
  111MOL0     H15257   8.055   4.397   7.073 -2.7092 -1.1989 -4.6891
  111MOL0     H15258   8.215   4.336   7.124  0.9936 -1.3798 -1.0789
  111MOL0     H15259   8.120   4.471   6.872 -1.6965 -3.3869  1.2509
  111MOL0     H15260   8.295   4.424   6.902  0.0249 -2.7372  1.8276
  111MOL0     H15261   8.135   4.631   7.067  0.7231 -0.7913  3.3805
  111MOL0     H15262   8.301   4.572   7.098 -1.3539 -1.3410  0.7425
  111MOL0     H15263   8.353   4.696   6.882 -0.1457 -0.6705 -0.0198
  111MOL0     H15264   8.283   4.808   7.007  1.4777  0.0994 -0.8364
  111MOL0     H15265   8.215   4.794   6.748  1.0838  1.5277  1.6624
  111MOL0     H15266   8.105   4.674   6.807 -1.2611  1.1415 -0.4503
  111MOL0     H15267   7.941   4.761   7.033  1.3605  1.4692  3.3748
  111MOL0     H15268   7.860   5.115   7.135  0.1955 -0.8200  1.3214
  111MOL0     H15269   7.818   4.950   7.187  1.2329 -0.0146 -0.2299
  111MOL0     H15270   7.625   5.042   7.139  2.8130  0.3596  1.7708
  111MOL0     H15271   7.674   5.119   6.981  3.0045 -1.5916 -1.9252
  111MOL0     H15272   7.671   4.934   6.853 -1.8665  0.0301 -0.0013
  111MOL0     H15273   7.678   4.819   6.998  1.2276  0.7544  1.9276
  111MOL0     H15274   7.467   4.795   6.935  1.8954 -1.2108  4.3669
  111MOL0     H15275   7.452   4.922   7.053 -1.7380 -2.8075  0.8907
  111MOL0     H15276   7.397   5.150   6.674  0.1591 -1.7185  2.5713
  111MOL0     H15277   7.350   5.188   6.342 -2.2365 -2.7212 -2.2237
  111MOL0     H15278   7.258   5.223   6.483 -0.9486 -0.1203 -1.7053
  111MOL0     H15279   7.199   5.104   6.368  1.5481 -2.1579 -2.3091
  111MOL0     H15280   7.081   4.695   6.154 -0.7687  3.2696 -1.0019
  111MOL0     H15281   7.054   4.611   5.922 -1.3044  0.4349 -1.6708
  111MOL0     H15282   7.123   4.658   5.601 -2.0746  1.8313  1.4512
  111MOL0     H15283   7.118   4.765   5.737 -0.2735  1.1590 -0.7989
  111MOL0     H15284   7.215   4.892   5.570  2.8264  1.3290 -1.1949
  111MOL0     H15285   7.345   4.843   5.685  2.3305  1.5132 -1.8573
  111MOL0     H15286   7.290   4.709   5.424 -1.9684 -0.6452  2.5911
  111MOL0     H15287   7.433   4.687   5.531 -0.4271 -0.0505  0.1418
  111MOL0     H15288   7.517   4.890   5.510  0.5491 -0.4812 -0.9225
  111MOL0     H15289   7.377   4.973   5.434  1.7014  1.5327  2.3107
  111MOL0     H15290   7.416   4.855   5.215  1.7477 -2.9134 -1.0978
  111MOL0     H15291   7.548   4.948   5.273  3.2880 -1.1726 -0.4025
  111MOL0     H15292   7.515   4.648   5.312 -1.0393  0.8161 -0.0270
  111MOL0     H15293   7.639   4.740   5.396 -0.1877  0.1643 -0.2263
  111MOL0     H15294   7.743   4.796   5.199  0.0632  0.1491 -0.5310
  111MOL0     H15295   7.604   4.739   5.090 -0.7848  0.9718  0.6660
  111MOL0     H15296   7.799   4.573   5.079 -0.2417 -0.3025  0.4113
  111MOL0     H15297   7.651   4.510   5.143  0.9893 -0.3097 -1.3834
  111MOL0     H15298   7.484   4.648   5.871 -0.9030  3.3823 -1.9438
  111MOL0     H15299   7.500   4.696   6.122  0.1114  0.4189 -0.5899
  111MOL0     H15300   7.428   4.698   6.509  0.4275 -0.3843  0.3225
  111MOL0     H15301   7.478   4.750   6.737  2.7811  1.4651 -0.6206
  111MOL0     H15302   7.663   3.902   7.247  0.6261  0.1457 -0.1724
  111MOL0     H15303   7.450   3.947   7.361  2.8440  0.2752  2.8151
  111MOL0     H15304   7.179   4.500   7.476 -2.5582 -0.3196 -2.3367
  111MOL0     H15305   6.973   4.534   7.590 -3.4604 -0.8547  1.9127
  111MOL0     H15306   6.730   4.497   7.848  1.7261 -0.3627  1.4090
  111MOL0     H15307   6.870   4.548   7.780  1.2286 -1.4002  0.1821
  111MOL0     H15308   6.619   4.457   7.621  0.2785 -0.6309  1.2004
  111MOL0     H15309   6.765   4.517   7.553 -0.2474 -0.2083 -0.2443
  111MOL0     H15310   6.588   4.711   7.593  1.2134  2.5820  0.8063
  111MOL0     H15311   6.620   4.681   7.766 -0.3523  1.7414  0.0234
  111MOL0     H15312   6.788   4.809   7.538 -3.4149  0.2445 -0.2361
  111MOL0     H15313   6.875   4.746   7.688  3.1722  1.6060 -3.3929
  111MOL0     H15314   6.698   5.081   7.845  0.5629 -0.8692  0.8191
  111MOL0     H15315   6.947   4.119   7.690 -0.9463 -0.3770 -1.2873
  111MOL0     H15316   7.122   3.972   7.522 -1.3521  1.3640 -0.2656
  111MOL0     H15317   7.288   4.031   7.559  1.0815 -0.5812  1.7325
  111MOL0     H15318   7.170   4.000   7.695 -0.8651 -0.9192 -0.8316
  112MOL0     O15319   8.408  10.359   9.358 -0.2440 -0.6134  0.3102
  112MOL0     C15320   8.457  10.260   9.305  0.3218 -0.0017  0.0328
  112MOL0     O15321   8.569  10.262   9.221  0.9691  0.8255  0.5875
  112MOL0     C15322   8.627  10.380   9.197 -0.0505  0.2990 -0.5396
  112MOL0     C15323   8.705  10.442   9.291  0.1209  0.1760  0.6503
  112MOL0     C15324   8.760  10.568   9.261 -0.2864  0.1091  0.6632
  112MOL0     C15325   8.738  10.641   9.144 -0.8931  0.8713 -0.2644
  112MOL0     O15326   8.810  10.747   9.092 -0.0735  0.1531 -0.1241
  112MOL0     C15327   8.908  10.809   9.177 -0.3399  0.4092  0.7260
  112MOL0     C15328   9.033  10.720   9.190  0.0992  0.9615 -0.2115
  112MOL0     C15329   9.130  10.730   9.310 -0.3910 -0.5391 -0.8237
  112MOL0     C15330   9.072  10.670   9.439  1.0803  0.6590 -0.7644
  112MOL0     C15331   9.149  10.717   9.561  0.2319  0.0177  1.1078
  112MOL0     C15332   9.062  10.680   9.678 -0.4247  0.0839 -0.6460
  112MOL0     C15333   9.132  10.707   9.809  0.4655 -0.3397 -0.2359
  112MOL0     C15334   9.050  10.665   9.927 -0.5061  0.7202  0.3936
  112MOL0     N15335   9.031  10.519   9.923 -0.5240  0.3660  0.4464
  112MOL0     C15336   9.130  10.434   9.957 -0.4554  0.3039 -0.3543
  112MOL0     C15337   9.071  10.312   9.948 -0.0793  1.1463 -0.1508
  112MOL0     C15338   9.147  10.181   9.969  1.1456 -0.2284 -0.6216
  112MOL0     C15339   9.077  10.060   9.904  0.2830  0.3408  0.4940
  112MOL0     C15340   9.145   9.921   9.938 -0.1986 -0.1794  0.0715
  112MOL0     C15341   9.170   9.844   9.811 -0.3361 -0.3042  0.1501
  112MOL0     O15342   9.281   9.900   9.743  0.2752 -0.9012 -0.7701
  112MOL0     C15343   9.410   9.877   9.788 -0.1861  0.8244  0.3441
  112MOL0     C15344   9.515   9.949   9.732  0.4006 -0.1596 -0.0496
  112MOL0     C15345   9.653   9.923   9.761  0.2533  0.3233  0.0233
  112MOL0     C15346   9.760  10.003   9.688  0.2634  0.2040  0.5258
  112MOL0     C15347   9.691   9.820   9.849 -0.2954  0.1140  0.9480
  112MOL0     C15348   9.826   9.791   9.908  0.8564 -0.0018  0.2474
  112MOL0     O15349   9.936   9.827   9.835  0.4522 -0.2175  0.4701
  112MOL0     C15350  10.056   9.832   9.903  1.1701  0.3184  0.2053
  112MOL0     C15351  10.149   9.733   9.886 -0.2499  0.6533  0.8406
  112MOL0     C15352  10.266   9.735   9.956  0.1432 -0.0653  0.4594
  112MOL0     C15353  10.285   9.845  10.054  1.2326  0.4785 -1.0022
  112MOL0     O15354  10.394   9.849  10.141 -0.1130 -0.0643  0.1318
  112MOL0     C15355  10.495   9.745  10.139  0.1651  0.5093  0.2093
  112MOL0     C15356  10.567   9.744  10.269  0.1020  0.5444  0.8949
  112MOL0     C15357  10.638   9.880  10.305  0.4899  0.0670 -0.2327
  112MOL0     C15358  10.769   9.860  10.383  0.3208  0.1591 -0.1321
  112MOL0     C15359  10.748   9.808  10.525 -0.1896  0.9001  0.1262
  112MOL0     C15360  10.886   9.809  10.599 -0.5080  0.5998 -0.6695
  112MOL0     C15361  10.894   9.938  10.666 -0.1306 -0.8942 -0.2965
  112MOL0     C15362  11.041   9.979  10.696  0.1782  0.3149 -0.9265
  112MOL0    Cl15363  11.112  10.076  10.561  0.0924  0.1397  0.5180
  112MOL0     C15364  10.184   9.939  10.074  1.1729 -0.4482 -1.1465
  112MOL0     C15365  10.074   9.937   9.995 -0.3015  0.5751  0.4559
  112MOL0     O15366   9.823   9.758  10.028 -0.7715 -0.6803 -0.6644
  112MOL0     C15367   9.578   9.746   9.915  0.1005 -1.0279  0.5512
  112MOL0     C15368   9.450   9.788   9.882 -0.2592  0.7406 -0.1526
  112MOL0     N15369   8.941  10.324   9.931  0.3212 -0.1341 -0.0942
  112MOL0     N15370   8.916  10.451   9.921 -1.0162  0.2005  0.0770
  112MOL0     C15371   8.666  10.575   9.048 -0.6160  0.5370 -0.9292
  112MOL0     C15372   8.610  10.448   9.079  0.0372  0.0992  0.6012
  112MOL0     C15373   8.383  10.133   9.328 -0.1552 -0.4841  0.7332
  112MOL0     C15374   8.296  10.123   9.433  0.4206 -0.2813  0.0957
  112MOL0     C15375   8.242  10.002   9.471 -0.0014  0.7312  0.2542
  112MOL0     C15376   8.261   9.888   9.399  0.0972 -0.0325  0.4561
  112MOL0     O15377   8.198   9.766   9.417 -0.4022 -0.4228 -0.0891
  112MOL0     C15378   8.137   9.721   9.536 -0.3507 -0.2102 -0.1858
  112MOL0     C15379   8.249   9.683   9.633 -0.1251 -0.3548 -0.4414
  112MOL0     C15380   8.209   9.563   9.724  0.7891 -0.3734 -0.2527
  112MOL0     C15381   8.070   9.589   9.792 -0.3539 -0.1443 -0.3018
  112MOL0     C15382   7.976   9.490   9.753  0.1604 -0.0766  0.4943
  112MOL0     C15383   7.894   9.409   9.716  0.0857  0.1535  0.5966
  112MOL0     C15384   8.332   9.897   9.285 -0.7004  0.1736  0.1268
  112MOL0     C15385   8.402  10.019   9.249 -0.5812  0.5141  0.2027
  112MOL0     C15386   8.465  10.016   9.115 -0.4026  0.3643  0.3761
  112MOL0     H15387   8.722  10.387   9.382  0.8881 -0.5618  0.0749
  112MOL0     H15388   8.820  10.610   9.341 -0.1215  0.5484  0.3080
  112MOL0     H15389   8.870  10.839   9.275  0.0411  4.2623 -0.1457
  112MOL0     H15390   8.944  10.896   9.122  1.9884 -2.1344 -2.1873
  112MOL0     H15391   9.004  10.615   9.181 -0.6239  0.9450  1.6933
  112MOL0     H15392   9.094  10.732   9.100  2.0154  1.3591  1.0828
  112MOL0     H15393   9.211  10.659   9.292 -0.0120 -0.1951 -0.4802
  112MOL0     H15394   9.155  10.836   9.322  0.6234 -0.8194 -0.4012
  112MOL0     H15395   8.967  10.694   9.457  1.3430  0.5190  1.1798
  112MOL0     H15396   9.069  10.561   9.426 -1.1149  0.6436 -0.5563
  112MOL0     H15397   9.163  10.825   9.551  1.3284 -0.0005  2.1112
  112MOL0     H15398   9.251  10.677   9.566 -0.1909 -1.2805 -0.0610
  112MOL0     H15399   8.970  10.738   9.683  0.4393  1.4153  2.6194
  112MOL0     H15400   9.030  10.576   9.664 -1.2189  0.5933 -3.0427
  112MOL0     H15401   9.162  10.812   9.819 -0.0435  0.0062 -1.9813
  112MOL0     H15402   9.228  10.654   9.810  0.5824 -0.1223  0.5121
  112MOL0     H15403   9.084  10.712  10.020 -2.0417  0.7433  0.9749
  112MOL0     H15404   8.952  10.712   9.914 -1.1524 -0.6617  0.1082
  112MOL0     H15405   9.233  10.430   9.992 -0.3088 -0.1570 -0.8308
  112MOL0     H15406   9.151  10.173  10.078 -0.1113  1.3729 -0.4180
  112MOL0     H15407   9.253  10.186   9.943  1.3562 -1.9772 -0.2336
  112MOL0     H15408   8.976  10.049   9.945 -0.9119 -0.4042 -2.3548
  112MOL0     H15409   9.067  10.063   9.795 -0.4263  0.8847  0.5602
  112MOL0     H15410   9.233   9.932  10.002 -1.8012  1.0769  2.2080
  112MOL0     H15411   9.067   9.869   9.994  0.6174 -1.1357  0.3568
  112MOL0     H15412   9.195   9.740   9.837 -1.1277 -0.2639  1.1020
  112MOL0     H15413   9.080   9.846   9.748  0.0136 -0.1184 -0.3526
  112MOL0     H15414   9.480  10.019   9.658  1.0901  0.3673  0.1102
  112MOL0     H15415   9.714  10.042   9.597 -0.3510 -2.1350 -0.2440
  112MOL0     H15416   9.840   9.938   9.651  1.0977  0.7667  1.2825
  112MOL0     H15417   9.805  10.081   9.751 -0.6101 -0.9406  2.6979
  112MOL0     H15418  10.139   9.648   9.819  1.5006  1.1621 -0.1106
  112MOL0     H15419  10.344   9.661   9.940  1.5904  1.5000  0.0346
  112MOL0     H15420  10.455   9.643  10.135  2.4856 -0.4207 -1.2158
  112MOL0     H15421  10.571   9.764  10.063  1.5731 -2.9417  0.5717
  112MOL0     H15422  10.501   9.699  10.344  1.2168 -4.1548 -0.5732
  112MOL0     H15423  10.643   9.667  10.253 -0.4570  0.2072 -0.3040
  112MOL0     H15424  10.563   9.945  10.349  0.2904  0.1790 -0.7285
  112MOL0     H15425  10.665   9.920  10.206 -0.9782 -0.1245 -0.7254
  112MOL0     H15426  10.818   9.957  10.391 -1.2418  1.2264 -2.4331
  112MOL0     H15427  10.841   9.797  10.329 -0.4224  1.0394 -2.2651
  112MOL0     H15428  10.678   9.870  10.582  1.3403  1.0217  1.9660
  112MOL0     H15429  10.708   9.706  10.524 -1.0324  1.1605  2.3729
  112MOL0     H15430  10.970   9.784  10.533 -0.0881  0.6508 -0.1611
  112MOL0     H15431  10.887   9.731  10.676  1.2184  1.8252  0.6464
  112MOL0     H15432  10.831   9.943  10.755  1.4131  2.6537  0.7587
  112MOL0     H15433  10.849  10.018  10.606 -0.2751 -1.5144 -1.0408
  112MOL0     H15434  11.111   9.899  10.721  0.9033  0.2920 -2.8637
  112MOL0     H15435  11.029  10.050  10.779 -0.7812  1.3419 -1.9134
  112MOL0     H15436  10.194  10.024  10.140  0.9628  0.5884 -2.4178
  112MOL0     H15437   9.990  10.005  10.001 -0.9657  0.0188 -1.6639
  112MOL0     H15438   9.604   9.676   9.994  1.6277 -0.2434  0.7841
  112MOL0     H15439   9.373   9.751   9.949  0.2563  2.5240  1.5214
  112MOL0     H15440   8.648  10.615   8.949  0.3723  0.6412 -1.0714
  112MOL0     H15441   8.540  10.407   9.008  1.7467 -1.9593  0.0042
  112MOL0     H15442   8.272  10.208   9.497 -0.7992  1.3409 -2.3517
  112MOL0     H15443   8.181   9.995   9.561  2.6810 -0.4009  2.0977
  112MOL0     H15444   8.073   9.802   9.575  1.4105  0.3592  1.6734
  112MOL0     H15445   8.074   9.634   9.514  0.5787 -0.4104 -2.3750
  112MOL0     H15446   8.279   9.765   9.698  1.6285 -1.8549  0.7255
  112MOL0     H15447   8.334   9.663   9.568 -0.1579  0.2893 -0.6898
  112MOL0     H15448   8.211   9.465   9.676 -1.7835  0.3959 -2.1280
  112MOL0     H15449   8.280   9.560   9.808 -1.0596 -1.7397  1.3510
  112MOL0     H15450   8.038   9.691   9.767  0.2420  0.2787  0.6135
  112MOL0     H15451   8.075   9.580   9.901  2.8217 -0.8170 -0.4130
  112MOL0     H15452   7.818   9.340   9.687  0.9997 -1.7163  2.3857
  112MOL0     H15453   8.326   9.818   9.211 -2.6121  0.0359  0.3645
  112MOL0     H15454   8.425   9.935   9.053 -3.0208  1.6671  0.2562
  112MOL0     H15455   8.436  10.102   9.054 -1.5883 -2.2138 -3.0301
  112MOL0     H15456   8.571   9.991   9.122 -0.5601 -0.4388  0.0320
  113MOL0     O15457  10.779   9.283   1.657 -0.9578 -0.1638  0.6413
  113MOL0     C15458  10.808   9.289   1.771 -0.1447 -0.0320  1.7985
  113MOL0     O15459  10.929   9.257   1.823  0.3401 -0.6676 -0.0575
  113MOL0     C15460  11.051   9.244   1.750  0.3253 -0.0134  0.8308
  113MOL0     C15461  11.156   9.238   1.828 -0.3310  0.0182 -0.2120
  113MOL0     C15462  11.287   9.217   1.778  0.4964 -0.3453 -0.6704
  113MOL0     C15463  11.316   9.194   1.641 -0.1155 -0.1497 -1.1262
  113MOL0     O15464  11.435   9.156   1.592  0.6115 -1.2230  0.6096
  113MOL0     C15465  11.538   9.254   1.569  0.3869 -0.7225 -0.2742
  113MOL0     C15466  11.665   9.182   1.518  0.2469 -1.0375 -0.0673
  113MOL0     C15467  11.725   9.092   1.625  0.1290 -0.2036  0.0491
  113MOL0     C15468  11.853   9.027   1.579  0.6309  1.1999 -0.0980
  113MOL0     C15469  11.926   8.965   1.701  0.1673  0.7923 -0.3751
  113MOL0     C15470  12.071   8.918   1.658 -0.2980 -0.5232 -0.1545
  113MOL0     C15471  12.145   8.834   1.767 -0.8078 -0.6038  0.0674
  113MOL0     C15472  12.288   8.803   1.731 -0.0651 -0.5369 -0.2889
  113MOL0     N15473  12.387   8.914   1.715  0.2536 -0.5005 -1.0065
  113MOL0     C15474  12.439   8.949   1.599 -1.0688  0.2795  0.1472
  113MOL0     C15475  12.540   9.036   1.632  0.2178 -0.6020  0.0744
  113MOL0     C15476  12.646   9.093   1.537  0.0615  0.7282  0.2186
  113MOL0     C15477  12.720   8.988   1.446  0.3858  0.6245  0.4118
  113MOL0     C15478  12.846   9.039   1.381  0.1161 -0.0167 -0.1242
  113MOL0     C15479  12.825   9.160   1.294 -0.4321  0.4550  0.3788
  113MOL0     O15480  12.963   9.189   1.253  0.1705 -0.9527  0.1769
  113MOL0     C15481  12.986   9.280   1.152  0.8426 -0.0264 -0.1782
  113MOL0     C15482  12.880   9.345   1.079  0.4053 -0.6479 -0.0434
  113MOL0     C15483  12.910   9.432   0.977  0.1041  0.7036  0.1442
  113MOL0     C15484  12.793   9.486   0.910  0.2232  0.3450  0.4223
  113MOL0     C15485  13.045   9.472   0.958 -0.1542 -0.3842  0.5614
  113MOL0     C15486  13.072   9.572   0.854  0.4355  0.0732  0.3233
  113MOL0     O15487  13.148   9.674   0.887  0.1081  0.1926  0.0571
  113MOL0     C15488  13.178   9.773   0.798 -0.1788  0.0029 -0.0600
  113MOL0     C15489  13.282   9.752   0.702 -0.8916  0.5753  0.3174
  113MOL0     C15490  13.326   9.854   0.614  0.0467 -0.3622 -0.4654
  113MOL0     C15491  13.277   9.979   0.630  0.7557  0.5039  0.1812
  113MOL0     O15492  13.330  10.076   0.548  0.4377  0.0701 -0.1146
  113MOL0     C15493  13.250  10.194   0.520  0.2389  0.6270  0.4380
  113MOL0     C15494  13.289  10.311   0.604  0.5864 -0.0831 -0.2509
  113MOL0     C15495  13.180  10.431   0.593  0.1165 -0.8105 -0.0381
  113MOL0     C15496  13.071  10.416   0.705  0.0134 -0.5003  0.6429
  113MOL0     C15497  12.971  10.535   0.731  0.0654 -0.1253 -0.0563
  113MOL0     C15498  12.885  10.572   0.609 -0.0867  0.1125 -0.0444
  113MOL0     C15499  12.830  10.708   0.629  0.8993 -0.2388 -0.9260
  113MOL0     C15500  12.757  10.756   0.509 -0.2294  0.2099  0.1920
  113MOL0    Cl15501  12.609  10.664   0.466 -0.4304  0.6726  0.4454
  113MOL0     C15502  13.170  10.004   0.725 -0.1136 -0.2330  0.0198
  113MOL0     C15503  13.126   9.904   0.809  0.0688 -0.3351  0.7234
  113MOL0     O15504  13.025   9.557   0.740  0.0671 -0.2413  0.2654
  113MOL0     C15505  13.150   9.421   1.029 -0.4432 -0.1082 -0.4752
  113MOL0     C15506  13.119   9.324   1.131  0.6988  0.6927 -1.0609
  113MOL0     N15507  12.539   9.053   1.774  0.5847  0.4048  0.3898
  113MOL0     N15508  12.450   8.975   1.820 -0.4317  0.4607  0.5018
  113MOL0     C15509  11.196   9.197   1.559 -0.3433 -0.2239  0.3353
  113MOL0     C15510  11.065   9.209   1.614 -0.3408  0.2084 -0.2009
  113MOL0     C15511  10.703   9.335   1.867 -0.8954 -0.9089  0.2659
  113MOL0     C15512  10.613   9.433   1.820  1.0785 -0.4320  0.2994
  113MOL0     C15513  10.527   9.503   1.918 -0.5678  0.3701  1.1636
  113MOL0     C15514  10.516   9.456   2.040 -0.4250 -0.4573 -0.5107
  113MOL0     O15515  10.444   9.517   2.145  0.0312  0.2911 -0.6879
  113MOL0     C15516  10.312   9.580   2.122 -0.9021  0.0668  0.0387
  113MOL0     C15517  10.196   9.498   2.185  0.0148 -0.5977  1.0080
  113MOL0     C15518  10.149   9.519   2.325  0.5155 -0.0589  0.8044
  113MOL0     C15519   9.993   9.546   2.341  0.0276  0.8952  0.1075
  113MOL0     C15520   9.952   9.575   2.476  0.0699 -0.8617 -0.3194
  113MOL0     C15521   9.931   9.573   2.597 -0.1297 -0.1120  0.0446
  113MOL0     C15522  10.597   9.349   2.076 -0.5323 -0.4039 -0.3919
  113MOL0     C15523  10.691   9.292   1.995 -0.1467  0.3826 -0.3725
  113MOL0     C15524  10.776   9.191   2.057  0.0208  0.4969  0.1414
  113MOL0     H15525  11.138   9.259   1.933  0.8009  2.8917 -0.5198
  113MOL0     H15526  11.375   9.215   1.842  0.8737 -0.1989 -1.1789
  113MOL0     H15527  11.560   9.296   1.668  1.8189 -0.7484 -0.5637
  113MOL0     H15528  11.510   9.329   1.495 -1.1442 -0.4526  0.5151
  113MOL0     H15529  11.642   9.133   1.423  0.0148 -1.3283  0.1341
  113MOL0     H15530  11.737   9.260   1.494  0.8438 -1.7425 -0.6101
  113MOL0     H15531  11.740   9.152   1.715 -3.4499  1.0792 -0.0550
  113MOL0     H15532  11.653   9.014   1.647  0.4402 -0.2785  0.8283
  113MOL0     H15533  11.829   8.947   1.508  0.4091 -0.4835  1.7707
  113MOL0     H15534  11.917   9.102   1.532  1.2091  0.2714 -0.8224
  113MOL0     H15535  11.865   8.884   1.742 -1.4154  1.7211 -0.7804
  113MOL0     H15536  11.948   9.034   1.783  0.9081 -2.0676  1.9847
  113MOL0     H15537  12.061   8.866   1.562  0.0818 -1.0123  0.0643
  113MOL0     H15538  12.132   9.008   1.646 -0.2277 -0.4376  0.7556
  113MOL0     H15539  12.078   8.747   1.775  0.1023 -1.3209  0.1419
  113MOL0     H15540  12.146   8.891   1.860  0.3400 -1.4797  0.6176
  113MOL0     H15541  12.320   8.733   1.808  2.5468 -0.8768 -1.5746
  113MOL0     H15542  12.292   8.752   1.635 -0.2321  0.6122 -0.9285
  113MOL0     H15543  12.411   8.908   1.503 -0.9677  1.1189 -0.2541
  113MOL0     H15544  12.718   9.148   1.598 -2.1533  3.0710  0.8825
  113MOL0     H15545  12.595   9.156   1.464  0.2831  0.1730 -0.4258
  113MOL0     H15546  12.743   8.899   1.506  0.1822 -0.5918 -1.2238
  113MOL0     H15547  12.651   8.952   1.369 -1.0039  2.2707  0.8481
  113MOL0     H15548  12.910   9.078   1.460 -0.7294  0.2479  0.4398
  113MOL0     H15549  12.905   8.960   1.333  2.3748  1.0394  0.7417
  113MOL0     H15550  12.770   9.132   1.204  0.9761 -0.0461 -0.3693
  113MOL0     H15551  12.775   9.244   1.341  1.4366  3.0002 -1.8585
  113MOL0     H15552  12.780   9.304   1.082 -1.0406  2.5552 -1.0709
  113MOL0     H15553  12.708   9.469   0.977 -0.2161 -0.9297 -0.4198
  113MOL0     H15554  12.775   9.442   0.811  0.1480  1.4453 -0.0772
  113MOL0     H15555  12.813   9.592   0.892  3.4839 -0.2418  0.0900
  113MOL0     H15556  13.346   9.664   0.697  1.3627  2.2014 -2.6052
  113MOL0     H15557  13.410   9.834   0.549  1.5626  1.6468  0.7601
  113MOL0     H15558  13.268  10.230   0.418 -3.0149 -0.6067 -0.7370
  113MOL0     H15559  13.145  10.168   0.536  0.5726 -0.5071  0.8755
  113MOL0     H15560  13.299  10.282   0.709 -1.9351  2.2349  0.7392
  113MOL0     H15561  13.385  10.354   0.575  0.1247  1.2338  0.0978
  113MOL0     H15562  13.138  10.415   0.494 -2.2683  3.2454  0.1206
  113MOL0     H15563  13.224  10.531   0.593 -0.8026 -0.3699  1.3214
  113MOL0     H15564  13.131  10.396   0.794 -1.2258  0.6797  1.7702
  113MOL0     H15565  13.008  10.330   0.682  0.0190 -0.1313 -0.8894
  113MOL0     H15566  12.908  10.516   0.818  1.5190  0.0522  1.0910
  113MOL0     H15567  13.036  10.620   0.755 -0.7708 -0.1044  2.3772
  113MOL0     H15568  12.808  10.495   0.604  0.4521 -0.3924 -0.7173
  113MOL0     H15569  12.954  10.573   0.524  2.5372 -2.4896  1.7974
  113MOL0     H15570  12.905  10.784   0.651 -0.0148  0.6057 -0.6455
  113MOL0     H15571  12.761  10.694   0.713  2.2886 -0.8725  0.1488
  113MOL0     H15572  12.819  10.760   0.419 -3.8174  1.6597 -2.4325
  113MOL0     H15573  12.735  10.862   0.525  2.2179  0.7641  0.2482
  113MOL0     H15574  13.125  10.100   0.752 -0.8813 -1.4019  3.3193
  113MOL0     H15575  13.042   9.927   0.875 -0.1698  2.3584 -0.4075
  113MOL0     H15576  13.254   9.445   1.009  0.0058 -0.0042  1.7715
  113MOL0     H15577  13.189   9.275   1.198  0.4785 -0.8173 -1.8928
  113MOL0     H15578  11.211   9.160   1.458  2.2970 -0.8148  0.8665
  113MOL0     H15579  10.983   9.188   1.547 -0.0016 -1.1381 -0.2162
  113MOL0     H15580  10.614   9.472   1.719  0.5778 -0.1809  0.3907
  113MOL0     H15581  10.468   9.590   1.893 -3.8587 -2.4373 -2.0995
  113MOL0     H15582  10.316   9.681   2.165 -0.3481  0.3115 -0.5637
  113MOL0     H15583  10.282   9.597   2.019  2.6171  2.0985 -0.8445
  113MOL0     H15584  10.205   9.392   2.164  0.3373 -0.0534 -1.9773
  113MOL0     H15585  10.116   9.543   2.125  0.4283 -0.7102  0.3715
  113MOL0     H15586  10.176   9.424   2.373 -1.7947 -1.8453 -1.1815
  113MOL0     H15587  10.197   9.603   2.375 -0.9854 -0.2046  2.5967
  113MOL0     H15588   9.938   9.458   2.307  0.9628  0.4042 -0.1636
  113MOL0     H15589   9.976   9.631   2.275 -2.3536 -0.7157 -1.5054
  113MOL0     H15590   9.915   9.584   2.702 -1.2479 -1.2661  0.0199
  113MOL0     H15591  10.588   9.311   2.177  0.0792 -2.0806 -0.9260
  113MOL0     H15592  10.783   9.102   1.995  1.5578  0.3880  0.4336
  113MOL0     H15593  10.880   9.224   2.070  1.0196 -2.4042  0.2442
  113MOL0     H15594  10.742   9.152   2.153  0.5888  0.9203  0.5219
  114MOL0     O15595   1.245  10.571   0.968 -0.6295  0.2723 -0.2904
  114MOL0     C15596   1.213  10.487   1.054  1.5609  0.5199 -0.0340
  114MOL0     O15597   1.244  10.489   1.187 -0.0548 -0.1549  0.6026
  114MOL0     C15598   1.340  10.582   1.219 -0.4382 -0.1592 -0.2403
  114MOL0     C15599   1.307  10.647   1.342 -0.2835 -0.2980  0.0134
  114MOL0     C15600   1.405  10.742   1.385  0.2607  0.2905 -0.3527
  114MOL0     C15601   1.513  10.784   1.300 -0.7373  0.4897  0.2439
  114MOL0     O15602   1.591  10.890   1.319  0.1830 -1.0816  0.3981
  114MOL0     C15603   1.557  10.984   1.423  0.7392  0.3017 -0.0727
  114MOL0     C15604   1.623  11.117   1.390 -0.3080 -0.3943 -0.2864
  114MOL0     C15605   1.778  11.112   1.406  0.2741 -0.3237 -1.4055
  114MOL0     C15606   1.837  11.250   1.413  0.3201  0.0022  0.7172
  114MOL0     C15607   1.985  11.253   1.384 -0.9227  0.3899  0.2804
  114MOL0     C15608   2.043  11.391   1.375 -0.5412 -0.1651  0.0941
  114MOL0     C15609   1.995  11.468   1.250 -0.0554  0.2391  0.4429
  114MOL0     C15610   2.121  11.480   1.160  0.4756  0.1548 -0.2974
  114MOL0     N15611   2.184  11.358   1.108  0.3124 -0.1316 -0.3529
  114MOL0     C15612   2.313  11.341   1.130  0.1663  0.6819 -0.5096
  114MOL0     C15613   2.367  11.290   1.021 -0.5275 -0.0065  0.4304
  114MOL0     C15614   2.509  11.247   0.999  0.8453 -0.3830 -0.0496
  114MOL0     C15615   2.546  11.130   1.102  0.6282 -0.0014  0.0418
  114MOL0     C15616   2.664  11.053   1.044  0.3816 -0.3447 -0.2481
  114MOL0     C15617   2.791  11.126   1.040  0.3124 -0.0111 -0.7375
  114MOL0     O15618   2.886  11.031   0.988  0.2180 -0.2088 -0.3841
  114MOL0     C15619   3.024  11.046   1.012 -0.0147  0.5862  0.6479
  114MOL0     C15620   3.096  11.158   1.005 -0.0309 -0.5940 -0.4825
  114MOL0     C15621   3.235  11.164   1.010  0.7775  0.0419  0.4822
  114MOL0     C15622   3.304  11.294   0.978 -0.4726 -0.8916  0.6717
  114MOL0     C15623   3.306  11.047   1.025 -0.1773 -0.0430 -0.8337
  114MOL0     C15624   3.460  11.043   1.028  0.2257  0.1865  0.2123
  114MOL0     O15625   3.531  11.134   1.102  0.2670  0.2964  0.3426
  114MOL0     C15626   3.672  11.124   1.112 -0.4929  0.2197 -0.3932
  114MOL0     C15627   3.758  11.232   1.090 -0.1234  0.1876  0.2001
  114MOL0     C15628   3.895  11.223   1.116 -0.0638 -0.8218  0.7196
  114MOL0     C15629   3.955  11.099   1.153  0.1849 -0.2710  0.2956
  114MOL0     O15630   4.089  11.088   1.182 -0.3167  0.1975 -0.3041
  114MOL0     C15631   4.172  11.177   1.110 -1.4555  0.5293  0.5533
  114MOL0     C15632   4.313  11.125   1.112 -0.0652  0.3083  0.5087
  114MOL0     C15633   4.381  11.176   1.232 -0.0453 -0.6121 -0.0126
  114MOL0     C15634   4.532  11.142   1.235  0.8034  1.6945 -0.2303
  114MOL0     C15635   4.594  11.197   1.361 -0.9391 -0.0172 -0.2626
  114MOL0     C15636   4.744  11.173   1.339  0.4883 -0.0199  1.1057
  114MOL0     C15637   4.828  11.222   1.454  0.6148  0.5854 -0.2075
  114MOL0     C15638   4.848  11.112   1.553  0.3491  0.7130  0.2607
  114MOL0    Cl15639   4.957  11.156   1.682 -0.2352  0.0363 -0.2537
  114MOL0     C15640   3.870  10.999   1.175 -0.8083 -0.1793  0.3909
  114MOL0     C15641   3.728  11.013   1.167  0.1553 -0.2371 -0.0384
  114MOL0     O15642   3.511  10.951   0.965  0.4261  0.4932 -1.1579
  114MOL0     C15643   3.238  10.927   1.047 -0.7184 -0.4624 -0.1627
  114MOL0     C15644   3.096  10.924   1.029 -0.2854  0.1155  0.5946
  114MOL0     N15645   2.259  11.262   0.938  0.0387  0.4984 -0.2794
  114MOL0     N15646   2.142  11.293   0.998 -0.0301 -0.2492 -0.0496
  114MOL0     C15647   1.548  10.706   1.192  0.6554  0.7345  0.5334
  114MOL0     C15648   1.462  10.604   1.153 -0.0172 -0.0733  0.1822
  114MOL0     C15649   1.108  10.384   1.008  0.2927 -0.7443 -1.3004
  114MOL0     C15650   1.017  10.343   1.109 -0.0838  0.2273  0.7385
  114MOL0     C15651   0.929  10.231   1.080 -1.0922 -0.2361 -0.1171
  114MOL0     C15652   0.920  10.186   0.947  0.6469 -0.0807 -0.4779
  114MOL0     O15653   0.806  10.103   0.929 -0.9263  0.4849  0.3333
  114MOL0     C15654   0.780  10.079   0.787 -0.1279 -0.1207  0.1277
  114MOL0     C15655   0.696   9.952   0.794 -0.1262  0.0881 -0.1472
  114MOL0     C15656   0.575   9.958   0.890 -0.5494 -0.2650 -0.3795
  114MOL0     C15657   0.474   9.847   0.863 -0.4036  0.2622 -0.3473
  114MOL0     C15658   0.399   9.848   0.731 -0.6541  0.5136 -0.2372
  114MOL0     C15659   0.335   9.840   0.633  0.6842 -0.2744  0.0269
  114MOL0     C15660   0.997  10.248   0.848  0.0082  0.4228 -0.7888
  114MOL0     C15661   1.090  10.341   0.876 -0.0715 -0.3170  0.3833
  114MOL0     C15662   1.178  10.373   0.758 -0.1365  0.3274  0.3934
  114MOL0     H15663   1.208  10.639   1.386 -0.6337  2.8644  0.0325
  114MOL0     H15664   1.387  10.799   1.476  2.7120 -1.9808  1.7187
  114MOL0     H15665   1.586  10.943   1.521 -1.4325  1.0711  0.9612
  114MOL0     H15666   1.451  11.009   1.417  1.2196  2.0544 -3.2043
  114MOL0     H15667   1.594  11.158   1.293 -0.9541 -1.9726 -0.7842
  114MOL0     H15668   1.572  11.186   1.458  2.3397  0.6857  0.7409
  114MOL0     H15669   1.811  11.064   1.499  0.3637  1.6540 -0.3775
  114MOL0     H15670   1.829  11.043   1.338  2.4715 -0.5039  0.3197
  114MOL0     H15671   1.794  11.307   1.330  1.8016 -1.5893 -1.2485
  114MOL0     H15672   1.807  11.292   1.509 -1.2016 -1.3572  0.8944
  114MOL0     H15673   2.001  11.200   1.290 -0.4573  1.1345 -0.0687
  114MOL0     H15674   2.034  11.200   1.466 -2.2389 -0.6357  0.4385
  114MOL0     H15675   2.030  11.439   1.473  2.2518  0.2699  0.3402
  114MOL0     H15676   2.151  11.374   1.365 -0.6117  0.0879 -1.2287
  114MOL0     H15677   1.951  11.566   1.273  0.7736  0.5849  0.6048
  114MOL0     H15678   1.920  11.413   1.193 -1.0957 -0.0171  1.9776
  114MOL0     H15679   2.101  11.541   1.071  0.9149  2.4898  1.1046
  114MOL0     H15680   2.192  11.531   1.225 -1.4980 -0.2497  2.3272
  114MOL0     H15681   2.369  11.373   1.217 -0.1100  3.9328 -1.4139
  114MOL0     H15682   2.569  11.338   1.005 -1.2597  1.2470 -1.8584
  114MOL0     H15683   2.506  11.209   0.896 -1.9822  2.1771 -1.0825
  114MOL0     H15684   2.559  11.166   1.204 -0.8177  1.5055 -0.2436
  114MOL0     H15685   2.467  11.054   1.100 -0.8024  1.4207 -1.3769
  114MOL0     H15686   2.688  10.959   1.094 -0.1207  0.4820  1.6492
  114MOL0     H15687   2.631  11.034   0.942 -0.5160  1.5473 -0.3547
  114MOL0     H15688   2.795  11.219   0.983 -0.6704  1.5459  1.5559
  114MOL0     H15689   2.815  11.156   1.143  3.2470 -2.8076 -0.4158
  114MOL0     H15690   3.044  11.252   0.989  3.2358  1.5241  0.1912
  114MOL0     H15691   3.290  11.365   1.059 -1.2714 -0.3168  0.0521
  114MOL0     H15692   3.258  11.331   0.885 -1.5216 -1.1946  1.0545
  114MOL0     H15693   3.408  11.281   0.946 -1.2590 -1.4703 -1.9448
  114MOL0     H15694   3.724  11.321   1.038  0.8406  0.9723  0.9095
  114MOL0     H15695   3.957  11.308   1.090 -2.6281  0.6364 -1.1358
  114MOL0     H15696   4.143  11.178   1.004  3.1916 -1.6080 -1.0443
  114MOL0     H15697   4.163  11.276   1.155 -0.2164  0.7041  0.4551
  114MOL0     H15698   4.320  11.016   1.107  1.0694  0.3313 -4.8757
  114MOL0     H15699   4.364  11.171   1.027  1.7892  1.4683  2.1764
  114MOL0     H15700   4.335  11.131   1.321  1.7947 -0.5630  1.0087
  114MOL0     H15701   4.378  11.285   1.232 -0.1377 -0.4731 -4.0446
  114MOL0     H15702   4.593  11.175   1.150  2.7903  0.2540  0.5557
  114MOL0     H15703   4.556  11.036   1.238  3.1152  2.1723  0.0981
  114MOL0     H15704   4.578  11.302   1.389  1.0217 -0.3401  2.4752
  114MOL0     H15705   4.567  11.126   1.440  1.7333 -0.9207 -0.0711
  114MOL0     H15706   4.777  11.236   1.256 -1.3524  0.2831  0.5687
  114MOL0     H15707   4.768  11.070   1.312  1.8239  0.5571 -0.0707
  114MOL0     H15708   4.781  11.307   1.505 -1.6296  0.0603 -1.2968
  114MOL0     H15709   4.918  11.266   1.411 -0.0653  0.4930 -1.7832
  114MOL0     H15710   4.884  11.027   1.495 -3.0195 -1.1528  0.6265
  114MOL0     H15711   4.752  11.076   1.593  1.7997 -4.0256  0.1518
  114MOL0     H15712   3.917  10.911   1.218  4.8658  1.0713 -2.3104
  114MOL0     H15713   3.662  10.937   1.207 -1.5057  0.1880 -1.8512
  114MOL0     H15714   3.287  10.833   1.071 -4.0206 -1.8083  2.1463
  114MOL0     H15715   3.043  10.830   1.024 -0.0711 -0.0209  0.9084
  114MOL0     H15716   1.621  10.740   1.119 -0.6617 -1.0721 -1.7608
  114MOL0     H15717   1.497  10.543   1.070  0.1508  3.4183 -2.5959
  114MOL0     H15718   1.002  10.386   1.207  0.0805 -0.6487  1.1612
  114MOL0     H15719   0.856  10.180   1.142 -3.1084  3.2038  0.5829
  114MOL0     H15720   0.725  10.163   0.744 -0.1682  0.7662  1.8184
  114MOL0     H15721   0.870  10.045   0.735  0.5741 -1.6350  2.1826
  114MOL0     H15722   0.772   9.879   0.822  1.3014  1.6252  0.1013
  114MOL0     H15723   0.660   9.918   0.697  2.7347  1.0903 -1.6823
  114MOL0     H15724   0.609   9.944   0.993 -2.9208  0.2991  0.5559
  114MOL0     H15725   0.528  10.057   0.893 -0.7817 -0.3963  1.5894
  114MOL0     H15726   0.401   9.845   0.945  0.7464  0.1221  0.6874
  114MOL0     H15727   0.523   9.750   0.875 -0.9911 -0.0134 -0.1226
  114MOL0     H15728   0.286   9.820   0.540  0.0639 -1.1811  0.5441
  114MOL0     H15729   0.978  10.221   0.745 -2.7050  4.9762 -1.7995
  114MOL0     H15730   1.186  10.286   0.693  0.6647  0.8042 -0.1640
  114MOL0     H15731   1.139  10.460   0.705  3.0991  0.8597 -1.3755
  114MOL0     H15732   1.279  10.405   0.788  0.1390 -0.2412  0.0846
  115MOL0     O15733   6.432   9.162   3.229 -0.1804  0.5724 -0.2790
  115MOL0     C15734   6.466   9.151   3.113  0.7769  0.3747 -0.1286
  115MOL0     O15735   6.380   9.103   3.018 -0.2634 -0.2219 -0.1425
  115MOL0     C15736   6.246   9.111   3.046 -0.8777  1.0394 -0.9261
  115MOL0     C15737   6.182   9.230   3.080 -0.4535 -0.1989 -0.3137
  115MOL0     C15738   6.042   9.247   3.074 -0.3992  0.1754  0.1683
  115MOL0     C15739   5.954   9.137   3.039 -0.9249  0.2952 -0.6485
  115MOL0     O15740   5.820   9.145   3.025 -0.0972 -0.6436 -0.5105
  115MOL0     C15741   5.749   9.075   2.925 -0.2653 -0.2707 -0.3240
  115MOL0     C15742   5.614   9.143   2.911 -0.3463 -0.2451  0.4862
  115MOL0     C15743   5.537   9.095   2.787  0.9029  0.2921  0.6747
  115MOL0     C15744   5.450   8.983   2.832 -0.3646 -0.1164 -0.4518
  115MOL0     C15745   5.356   8.928   2.728  0.3129 -0.6941  0.5297
  115MOL0     C15746   5.267   9.038   2.665 -0.6542  0.3401 -0.0096
  115MOL0     C15747   5.169   8.980   2.564  0.1955  0.5967  0.2322
  115MOL0     C15748   5.223   8.911   2.440  0.6723  0.0180 -0.0597
  115MOL0     N15749   5.231   9.004   2.324 -0.4645 -0.0760 -0.5520
  115MOL0     C15750   5.186   8.980   2.195 -0.6835 -0.3893 -0.0990
  115MOL0     C15751   5.208   9.091   2.113  0.8571  0.2467 -0.1142
  115MOL0     C15752   5.189   9.093   1.960 -0.4911  0.3430 -0.0999
  115MOL0     C15753   5.304   9.158   1.883  0.2498  0.1563  0.1911
  115MOL0     C15754   5.259   9.180   1.740 -0.4804 -0.6994  0.5680
  115MOL0     C15755   5.359   9.247   1.650  0.4471  0.2748 -0.4367
  115MOL0     O15756   5.472   9.162   1.624 -0.9249  0.0692  0.3686
  115MOL0     C15757   5.603   9.177   1.670 -0.4383 -0.9766  0.6984
  115MOL0     C15758   5.630   9.253   1.786  0.8968  0.4934 -0.3772
  115MOL0     C15759   5.763   9.275   1.830  0.6918  0.2921  0.8607
  115MOL0     C15760   5.782   9.347   1.955 -0.1025  0.2204 -0.5329
  115MOL0     C15761   5.860   9.206   1.767  0.6580  0.0992 -0.0992
  115MOL0     C15762   6.007   9.207   1.808  0.8724  0.4238  0.1548
  115MOL0     O15763   6.049   9.327   1.861 -0.4576  0.7499 -0.3415
  115MOL0     C15764   6.172   9.350   1.925 -0.5667  0.3012 -0.2517
  115MOL0     C15765   6.280   9.263   1.922  0.2904 -1.0893  0.3821
  115MOL0     C15766   6.392   9.284   2.001 -0.2141 -0.5487 -0.8822
  115MOL0     C15767   6.402   9.396   2.090  0.0399  0.3885 -1.1753
  115MOL0     O15768   6.519   9.415   2.167  0.3965 -0.3455 -0.0365
  115MOL0     C15769   6.526   9.530   2.253 -0.5718  0.1930  0.3798
  115MOL0     C15770   6.659   9.522   2.336 -0.0981 -0.2685  0.1830
  115MOL0     C15771   6.772   9.533   2.240  0.1071  0.3392 -0.2200
  115MOL0     C15772   6.896   9.494   2.316 -0.1416 -0.1538 -0.8623
  115MOL0     C15773   7.033   9.488   2.237 -1.0005  1.0187 -0.3312
  115MOL0     C15774   7.160   9.465   2.318  0.1017 -0.0773  0.5874
  115MOL0     C15775   7.283   9.502   2.236 -0.4476 -0.3370  0.3206
  115MOL0     C15776   7.339   9.639   2.266  0.2456  0.3734 -0.7779
  115MOL0    Cl15777   7.416   9.665   2.424 -0.3902 -0.0793 -0.7350
  115MOL0     C15778   6.290   9.487   2.087  0.2326 -0.6612  0.1373
  115MOL0     C15779   6.179   9.458   2.012  0.0278 -0.0109 -0.0146
  115MOL0     O15780   6.076   9.104   1.805  0.2898 -0.1655  0.0313
  115MOL0     C15781   5.832   9.124   1.659  0.7037  0.3948 -0.4190
  115MOL0     C15782   5.705   9.113   1.612  0.0630  0.1484 -0.8474
  115MOL0     N15783   5.262   9.184   2.196 -0.2996 -0.0451  0.1986
  115MOL0     N15784   5.280   9.134   2.314  0.1937 -0.5710  0.1786
  115MOL0     C15785   6.021   9.027   2.991 -0.5381  0.8883  0.4664
  115MOL0     C15786   6.161   9.006   2.999 -0.1966 -0.9910  0.3309
  115MOL0     C15787   6.609   9.164   3.077 -0.5898  0.1523  0.2031
  115MOL0     C15788   6.696   9.179   3.185  0.5764 -0.7705 -0.7089
  115MOL0     C15789   6.828   9.192   3.167 -0.8169 -0.5764 -0.1146
  115MOL0     C15790   6.884   9.216   3.039  0.2534  0.8436  0.6717
  115MOL0     O15791   7.013   9.258   3.021  1.1237  0.4600 -0.5224
  115MOL0     C15792   7.110   9.162   2.980  0.2029  0.3030  0.7246
  115MOL0     C15793   7.229   9.254   2.953 -0.7368 -0.9208  0.0955
  115MOL0     C15794   7.358   9.167   2.984 -1.1750  0.3612 -0.5596
  115MOL0     C15795   7.383   9.151   3.137 -0.4194  0.0756  0.1552
  115MOL0     C15796   7.506   9.078   3.170 -0.0803  0.1203 -0.0138
  115MOL0     C15797   7.624   9.041   3.186 -0.2567 -0.8756 -0.6495
  115MOL0     C15798   6.807   9.204   2.928  0.5976  0.1361  0.2020
  115MOL0     C15799   6.664   9.184   2.937 -0.1950 -0.5841 -0.5819
  115MOL0     C15800   6.572   9.186   2.827  0.8037  0.3044  0.8362
  115MOL0     H15801   6.252   9.311   3.095  1.2693 -1.0480 -3.0370
  115MOL0     H15802   6.000   9.346   3.090  1.1294  0.7992  0.5129
  115MOL0     H15803   5.749   8.966   2.939  1.0718 -0.3798 -1.0600
  115MOL0     H15804   5.799   9.092   2.829 -3.0174  0.1023 -1.8254
  115MOL0     H15805   5.553   9.133   3.001 -1.8134  1.2269 -0.3109
  115MOL0     H15806   5.638   9.248   2.893 -1.7066  0.1089  0.6476
  115MOL0     H15807   5.476   9.176   2.747 -2.2325 -1.2832  1.9506
  115MOL0     H15808   5.604   9.068   2.705  1.9030 -3.0407  2.4055
  115MOL0     H15809   5.524   8.906   2.856  0.4635 -0.5700 -3.9960
  115MOL0     H15810   5.386   9.007   2.917 -0.3706  0.5991 -0.6547
  115MOL0     H15811   5.288   8.847   2.758  1.4120 -0.8679  2.7985
  115MOL0     H15812   5.406   8.875   2.647 -0.6157  0.1835 -0.6546
  115MOL0     H15813   5.216   9.094   2.743  1.2090  1.6344  0.3396
  115MOL0     H15814   5.333   9.114   2.620  2.0580 -2.1490 -0.5524
  115MOL0     H15815   5.099   9.060   2.538  1.2689  2.0533  1.6429
  115MOL0     H15816   5.096   8.914   2.611 -0.8837 -0.2919 -2.4762
  115MOL0     H15817   5.318   8.860   2.462  1.2906  0.8823 -0.6976
  115MOL0     H15818   5.159   8.829   2.407  0.2142  0.3362  0.0295
  115MOL0     H15819   5.148   8.884   2.160  1.2847 -1.3303  0.1728
  115MOL0     H15820   5.099   9.153   1.940 -1.6602 -1.4542 -0.4339
  115MOL0     H15821   5.176   8.991   1.924 -3.0760  0.1160  1.2679
  115MOL0     H15822   5.330   9.252   1.933  0.7805 -0.2031  0.5948
  115MOL0     H15823   5.394   9.098   1.896 -0.3219 -0.2081  3.2360
  115MOL0     H15824   5.226   9.089   1.690 -0.9232  1.4919 -3.6177
  115MOL0     H15825   5.165   9.236   1.736  0.0694  0.2930  0.8984
  115MOL0     H15826   5.305   9.261   1.556  0.6882  2.5793 -0.2850
  115MOL0     H15827   5.383   9.343   1.697  1.0507 -0.6081  1.1373
  115MOL0     H15828   5.557   9.310   1.843 -0.2649 -0.0139 -1.3149
  115MOL0     H15829   5.808   9.272   2.031  4.3443 -0.5499 -2.5385
  115MOL0     H15830   5.691   9.398   1.989  0.6159 -0.0977  2.1101
  115MOL0     H15831   5.860   9.422   1.948  1.0803 -0.9939 -0.7441
  115MOL0     H15832   6.280   9.172   1.862 -1.4792  0.5403 -2.2850
  115MOL0     H15833   6.469   9.207   1.993  0.8767  0.3745  0.1613
  115MOL0     H15834   6.527   9.626   2.199 -0.0322  1.0984  1.9256
  115MOL0     H15835   6.441   9.521   2.320 -1.2149  1.1678 -0.2793
  115MOL0     H15836   6.666   9.599   2.413  1.1797  1.7058 -1.7853
  115MOL0     H15837   6.663   9.422   2.379 -1.1439 -2.0213 -3.3652
  115MOL0     H15838   6.786   9.636   2.207  0.2649  1.0726  1.9811
  115MOL0     H15839   6.749   9.464   2.158  0.0347  1.8440 -1.5026
  115MOL0     H15840   6.879   9.392   2.353 -0.1254 -0.1886 -0.9540
  115MOL0     H15841   6.908   9.559   2.403 -1.5390 -1.9665  0.8014
  115MOL0     H15842   7.022   9.415   2.156 -0.0290  0.8623 -0.3326
  115MOL0     H15843   7.047   9.587   2.194  0.9880  1.1521  0.5334
  115MOL0     H15844   7.176   9.361   2.348 -0.5739 -0.0086  1.2180
  115MOL0     H15845   7.161   9.530   2.406  2.1108  3.2669 -1.7338
  115MOL0     H15846   7.263   9.503   2.129 -2.2329  0.4482  0.6312
  115MOL0     H15847   7.371   9.446   2.269 -0.1911 -0.1810 -0.0863
  115MOL0     H15848   7.259   9.712   2.252 -2.6804 -1.8669  2.5021
  115MOL0     H15849   7.425   9.649   2.200  1.6660  0.0174  0.9514
  115MOL0     H15850   6.288   9.571   2.154  0.3348  1.1609 -2.0268
  115MOL0     H15851   6.085   9.511   2.023 -0.0176  1.0717 -3.9878
  115MOL0     H15852   5.909   9.075   1.601  0.3050 -0.9020  0.1011
  115MOL0     H15853   5.697   9.041   1.531  3.8482  0.3179 -1.5394
  115MOL0     H15854   5.961   8.940   2.964 -0.3942  0.7509  0.5917
  115MOL0     H15855   6.208   8.922   2.949  2.4188 -0.8825  2.4152
  115MOL0     H15856   6.657   9.170   3.286  0.6184  1.4658 -0.4377
  115MOL0     H15857   6.891   9.191   3.255 -1.2087  1.1851  0.2182
  115MOL0     H15858   7.123   9.093   3.064  0.4444 -1.1987 -0.5227
  115MOL0     H15859   7.075   9.094   2.903 -0.6019 -0.5500  1.8128
  115MOL0     H15860   7.222   9.340   3.021 -2.2251 -1.4361  0.6255
  115MOL0     H15861   7.224   9.293   2.851  3.0690  0.3089  0.2187
  115MOL0     H15862   7.356   9.072   2.930 -1.6020 -2.0191  3.2551
  115MOL0     H15863   7.445   9.217   2.941 -1.9434  1.1508 -1.2463
  115MOL0     H15864   7.300   9.112   3.196  0.0734  1.1666  1.6086
  115MOL0     H15865   7.404   9.251   3.176  0.9224  0.2198 -0.8642
  115MOL0     H15866   7.724   9.017   3.216 -1.0144 -2.0321  1.1496
  115MOL0     H15867   6.850   9.216   2.829 -0.3975 -1.8987 -0.5247
  115MOL0     H15868   6.486   9.251   2.842  0.5044  0.2709 -0.5502
  115MOL0     H15869   6.632   9.213   2.740  1.2295 -0.5314  0.8600
  115MOL0     H15870   6.532   9.085   2.812 -1.2359  1.0429  0.9986
  116MOL0     O15871   6.457  11.351   2.893  0.2959  0.0784  0.0190
  116MOL0     C15872   6.552  11.331   2.958  0.2342 -0.8790 -1.2366
  116MOL0     O15873   6.550  11.301   3.092  0.0188  0.3722  0.0421
  116MOL0     C15874   6.427  11.278   3.139 -0.2543  0.6101 -0.1281
  116MOL0     C15875   6.348  11.378   3.192  0.6345 -0.2674  0.3937
  116MOL0     C15876   6.223  11.352   3.248  0.2121  0.5247 -0.9158
  116MOL0     C15877   6.180  11.223   3.279  0.1614  0.3846  0.3997
  116MOL0     O15878   6.069  11.205   3.354 -0.5961 -0.4547 -0.2302
  116MOL0     C15879   6.005  11.077   3.364 -0.1437 -0.6459 -0.6116
  116MOL0     C15880   5.868  11.107   3.441 -0.2984  0.0532 -0.1265
  116MOL0     C15881   5.778  10.980   3.456  0.8974  0.5294  0.5744
  116MOL0     C15882   5.703  10.949   3.324 -0.0488  0.2159 -0.0498
  116MOL0     C15883   5.614  10.832   3.342 -0.4560  0.0881  0.0419
  116MOL0     C15884   5.666  10.694   3.410  0.3788 -0.3585 -0.2499
  116MOL0     C15885   5.785  10.640   3.328  0.5061  0.2185  0.5370
  116MOL0     C15886   5.800  10.493   3.360  0.4293 -0.8270  1.3733
  116MOL0     N15887   5.893  10.481   3.475  0.3852 -0.7233  0.1479
  116MOL0     C15888   6.027  10.463   3.468  0.5643 -0.0537 -0.3065
  116MOL0     C15889   6.070  10.450   3.593 -0.1598  0.4975 -0.0890
  116MOL0     C15890   6.216  10.431   3.632 -0.4142 -0.3913  0.2023
  116MOL0     C15891   6.259  10.490   3.768 -0.0355  0.0236 -0.5913
  116MOL0     C15892   6.391  10.435   3.804 -0.1407 -0.0678  0.4388
  116MOL0     C15893   6.495  10.473   3.713  0.9416 -1.0581  0.4122
  116MOL0     O15894   6.617  10.439   3.780  0.5881 -0.3924  0.2040
  116MOL0     C15895   6.713  10.534   3.761  0.7467  0.4999  0.4109
  116MOL0     C15896   6.712  10.654   3.825  0.5304  0.3625 -0.6672
  116MOL0     C15897   6.819  10.745   3.819 -0.7208  0.0742 -0.9318
  116MOL0     C15898   6.808  10.861   3.923 -0.5281 -0.0365 -0.0130
  116MOL0     C15899   6.927  10.724   3.724  0.6346 -0.1966  0.1657
  116MOL0     C15900   7.043  10.809   3.696  0.7731  0.8398 -0.6357
  116MOL0     O15901   7.126  10.775   3.592 -0.1715  0.1750 -0.0239
  116MOL0     C15902   7.243  10.831   3.581  0.0247  0.7064 -0.5740
  116MOL0     C15903   7.251  10.967   3.554  0.3696  0.1072 -0.2271
  116MOL0     C15904   7.370  11.039   3.543  0.2958  1.0287 -0.2732
  116MOL0     C15905   7.488  10.962   3.565  0.3885  0.0480 -0.9114
  116MOL0     O15906   7.618  11.010   3.559  0.1288  0.4559  0.5968
  116MOL0     C15907   7.619  11.157   3.547  0.4961  0.3690 -0.7621
  116MOL0     C15908   7.769  11.197   3.525  0.0690  0.1746 -0.3622
  116MOL0     C15909   7.832  11.174   3.395  0.1704  0.1186 -0.2170
  116MOL0     C15910   7.985  11.165   3.407 -0.1590  0.4257  0.0304
  116MOL0     C15911   8.044  11.119   3.275  0.9269 -0.1822  0.6990
  116MOL0     C15912   8.199  11.145   3.264 -0.6420  0.2298  0.1320
  116MOL0     C15913   8.232  11.286   3.233  0.2220 -0.2978  0.4629
  116MOL0     C15914   8.380  11.313   3.180  0.8096 -0.0238 -0.6646
  116MOL0    Cl15915   8.382  11.487   3.153  0.0260 -0.0549  0.2917
  116MOL0     C15916   7.481  10.822   3.594  1.0229  0.0765  0.7954
  116MOL0     C15917   7.358  10.759   3.597  0.0333  0.8074 -0.1089
  116MOL0     O15918   7.056  10.900   3.777  0.1799  0.0195  0.5615
  116MOL0     C15919   6.917  10.604   3.649  0.5054 -0.3227 -0.8480
  116MOL0     C15920   6.815  10.512   3.674  0.3942  0.2403  0.1504
  116MOL0     N15921   5.965  10.478   3.677  0.8169  1.3341 -0.2527
  116MOL0     N15922   5.863  10.506   3.603  0.2503  1.0101  0.2109
  116MOL0     C15923   6.254  11.123   3.223  0.0238 -0.3990  0.0917
  116MOL0     C15924   6.379  11.150   3.162  0.3949 -0.3675 -0.0043
  116MOL0     C15925   6.688  11.349   2.899 -0.8239 -0.2575  0.1561
  116MOL0     C15926   6.733  11.468   2.843  0.7662 -0.7555 -0.8991
  116MOL0     C15927   6.851  11.484   2.767  0.2096 -0.1038  0.9001
  116MOL0     C15928   6.932  11.371   2.750 -0.3879 -0.5486  0.4669
  116MOL0     O15929   7.051  11.395   2.681 -0.1520 -0.9627  0.0922
  116MOL0     C15930   7.130  11.277   2.647  0.2198  0.0990 -0.2552
  116MOL0     C15931   7.262  11.320   2.582 -0.0640  0.4559  0.2088
  116MOL0     C15932   7.366  11.211   2.550  0.3913  0.5686 -0.4005
  116MOL0     C15933   7.408  11.118   2.670 -0.4742 -0.3271  0.2516
  116MOL0     C15934   7.487  11.002   2.627 -0.3501  0.2768  0.7383
  116MOL0     C15935   7.546  10.899   2.589  0.3194 -0.4379 -0.7149
  116MOL0     C15936   6.895  11.247   2.809  0.0865 -0.3420  0.0814
  116MOL0     C15937   6.771  11.238   2.879  0.1376  0.7069 -0.3591
  116MOL0     C15938   6.739  11.096   2.940 -0.3128  0.2969 -0.1376
  116MOL0     H15939   6.379  11.481   3.198 -0.7457  0.1912  0.1433
  116MOL0     H15940   6.157  11.427   3.291  0.4557  0.2512 -0.0363
  116MOL0     H15941   6.070  11.014   3.425  0.0204 -2.2598 -2.3820
  116MOL0     H15942   5.982  11.026   3.270  0.4202 -4.0996  0.9707
  116MOL0     H15943   5.885  11.151   3.540  0.1014  1.3772 -0.7522
  116MOL0     H15944   5.816  11.185   3.385 -0.0491  0.1979 -0.1584
  116MOL0     H15945   5.841  10.898   3.492 -0.7356 -0.1989  1.8870
  116MOL0     H15946   5.707  11.000   3.537  2.3330  1.0635  1.7377
  116MOL0     H15947   5.634  11.030   3.295  0.0572  0.5207  0.5339
  116MOL0     H15948   5.772  10.930   3.241  0.8059 -2.4743  1.1821
  116MOL0     H15949   5.575  10.801   3.244  2.1554 -1.1458 -0.6799
  116MOL0     H15950   5.524  10.861   3.398  0.4296 -1.8743  2.6768
  116MOL0     H15951   5.704  10.722   3.508 -1.2546 -1.5237  0.7624
  116MOL0     H15952   5.582  10.625   3.419 -0.9098  0.3782 -4.2380
  116MOL0     H15953   5.880  10.688   3.355  1.8877 -2.7763  1.4543
  116MOL0     H15954   5.776  10.648   3.219 -3.0128  1.4685  0.7886
  116MOL0     H15955   5.709  10.454   3.406  0.4179 -0.5272  1.6112
  116MOL0     H15956   5.817  10.434   3.270  0.3197 -0.5901  1.1951
  116MOL0     H15957   6.079  10.436   3.377  0.4655 -3.3812  0.4910
  116MOL0     H15958   6.283  10.469   3.555 -0.3741 -0.5201  0.1735
  116MOL0     H15959   6.223  10.322   3.643 -1.6454 -0.4012  1.0791
  116MOL0     H15960   6.260  10.598   3.753 -1.2157  0.2808  1.0037
  116MOL0     H15961   6.184  10.457   3.840  0.8039 -0.2033  0.2077
  116MOL0     H15962   6.420  10.471   3.903  0.3993 -1.4185  0.7942
  116MOL0     H15963   6.374  10.327   3.806 -0.2038 -0.1020 -0.8760
  116MOL0     H15964   6.487  10.430   3.613  3.5875  1.7923 -1.1823
  116MOL0     H15965   6.490  10.581   3.699  2.4270 -1.2138 -1.8376
  116MOL0     H15966   6.630  10.680   3.892 -0.4243 -5.2040  0.8379
  116MOL0     H15967   6.722  10.855   3.990 -1.9923  1.6674 -1.6539
  116MOL0     H15968   6.816  10.956   3.870 -0.0109 -1.5140 -2.7538
  116MOL0     H15969   6.886  10.860   4.001 -0.5509  0.9887  0.0426
  116MOL0     H15970   7.160  11.020   3.528  1.9188  3.4559  0.6465
  116MOL0     H15971   7.349  11.144   3.526 -0.6902  1.0837  1.0830
  116MOL0     H15972   7.561  11.196   3.463 -0.7206  5.0869  1.9125
  116MOL0     H15973   7.578  11.196   3.640  0.0238  0.0163 -0.8197
  116MOL0     H15974   7.771  11.300   3.563  0.1757  1.0724 -2.6151
  116MOL0     H15975   7.827  11.144   3.600 -0.0196 -0.0969 -0.4845
  116MOL0     H15976   7.799  11.255   3.330 -2.7052  0.0072  0.9349
  116MOL0     H15977   7.802  11.076   3.357 -1.9221 -0.2885  2.1712
  116MOL0     H15978   8.014  11.095   3.486 -0.3901 -0.0818 -0.3267
  116MOL0     H15979   8.035  11.260   3.428  0.2800  0.3862 -0.7793
  116MOL0     H15980   8.032  11.012   3.260 -2.4795  0.1643  0.1459
  116MOL0     H15981   7.982  11.162   3.196 -0.5725 -3.6091 -0.1691
  116MOL0     H15982   8.247  11.087   3.185  2.4784  1.3041  1.1153
  116MOL0     H15983   8.249  11.114   3.356  0.5783  1.0307 -0.2449
  116MOL0     H15984   8.208  11.346   3.321  1.7089  2.9105 -1.1390
  116MOL0     H15985   8.153  11.315   3.163 -2.2344 -2.7942  1.9591
  116MOL0     H15986   8.388  11.268   3.080 -0.3105 -0.0665 -0.7426
  116MOL0     H15987   8.455  11.281   3.254 -0.2731 -1.0298  0.0356
  116MOL0     H15988   7.571  10.762   3.595 -0.3482 -2.1111  0.7512
  116MOL0     H15989   7.345  10.651   3.602 -2.4044  0.9601 -1.4630
  116MOL0     H15990   6.992  10.575   3.575  1.9515 -0.2281  0.5157
  116MOL0     H15991   6.818  10.423   3.611  2.2950  1.0462 -0.9887
  116MOL0     H15992   6.231  11.018   3.240  2.3346 -1.0705 -0.6050
  116MOL0     H15993   6.435  11.064   3.126  0.4995  0.4549 -1.9135
  116MOL0     H15994   6.666  11.553   2.855 -0.9216 -2.3253  1.6091
  116MOL0     H15995   6.886  11.580   2.730 -0.9089  0.4597  1.2258
  116MOL0     H15996   7.149  11.225   2.741  0.6450  3.1978  1.4884
  116MOL0     H15997   7.068  11.217   2.580 -1.1455 -0.5551  1.5112
  116MOL0     H15998   7.312  11.396   2.642  0.9543  1.8571 -2.2325
  116MOL0     H15999   7.237  11.380   2.493 -0.8557 -0.3324 -0.1217
  116MOL0     H16000   7.324  11.150   2.470 -1.6842  2.2580 -0.6967
  116MOL0     H16001   7.459  11.258   2.519  0.4404  0.6498 -0.1289
  116MOL0     H16002   7.320  11.072   2.715  0.5545 -0.2850  2.4413
  116MOL0     H16003   7.443  11.181   2.752 -2.7585  0.8906  0.3555
  116MOL0     H16004   7.602  10.809   2.578  0.7481 -0.4039  0.9671
  116MOL0     H16005   6.961  11.161   2.820  0.6432 -0.2566 -2.1156
  116MOL0     H16006   6.789  11.015   2.887  1.1222 -0.7808  2.6455
  116MOL0     H16007   6.766  11.073   3.043 -1.5787 -2.4676 -0.3220
  116MOL0     H16008   6.633  11.075   2.928  0.3784 -2.3481 -2.5432
  117MOL0     O16009   4.594   2.757   6.730  0.0126 -0.2769 -0.2536
  117MOL0     C16010   4.581   2.642   6.764 -0.4967 -0.0570  0.5754
  117MOL0     O16011   4.553   2.599   6.889  0.3911  0.2933 -0.8805
  117MOL0     C16012   4.542   2.686   6.998 -0.0194  0.0676  0.1008
  117MOL0     C16013   4.525   2.613   7.120 -0.2467 -0.3240  0.4722
  117MOL0     C16014   4.503   2.681   7.244 -0.9566  0.1660 -0.3077
  117MOL0     C16015   4.513   2.818   7.247  0.5613  0.5402  0.1736
  117MOL0     O16016   4.506   2.871   7.373  0.2742  0.6554  0.4316
  117MOL0     C16017   4.434   2.992   7.393  0.0145  0.1855 -0.0387
  117MOL0     C16018   4.473   3.035   7.532 -0.2548 -0.5115 -0.8393
  117MOL0     C16019   4.608   3.116   7.520  0.5773  0.3555 -0.0528
  117MOL0     C16020   4.634   3.181   7.655 -0.8950  0.4155 -0.5249
  117MOL0     C16021   4.785   3.212   7.670 -0.4948  0.8614 -0.4066
  117MOL0     C16022   4.821   3.333   7.592  0.6383 -0.2874 -0.4622
  117MOL0     C16023   4.965   3.383   7.593 -0.3274  0.7931 -1.3279
  117MOL0     C16024   5.007   3.463   7.482  0.6436  0.9002  0.2650
  117MOL0     N16025   5.143   3.509   7.510  0.0521  0.4886  0.7085
  117MOL0     C16026   5.166   3.607   7.599  0.0125  0.4340  0.1560
  117MOL0     C16027   5.294   3.636   7.575 -0.6641 -0.8885  0.3476
  117MOL0     C16028   5.379   3.734   7.651 -0.7023 -1.1384  0.9642
  117MOL0     C16029   5.473   3.670   7.754 -0.5415 -0.7022  0.4127
  117MOL0     C16030   5.570   3.568   7.692 -0.2428  0.0494 -0.1582
  117MOL0     C16031   5.679   3.512   7.786 -0.1290 -0.0462 -0.1945
  117MOL0     O16032   5.609   3.480   7.907 -0.2534 -0.1825  0.2632
  117MOL0     C16033   5.672   3.388   7.993  0.5261  0.1009  0.0926
  117MOL0     C16034   5.591   3.344   8.099  0.0868  0.6771  0.3040
  117MOL0     C16035   5.632   3.236   8.186  0.4596  0.0314  0.3354
  117MOL0     C16036   5.528   3.184   8.284  0.2195  0.3896  0.6599
  117MOL0     C16037   5.767   3.181   8.176 -0.2129 -0.9318  0.5480
  117MOL0     C16038   5.818   3.071   8.266 -0.4399 -0.2268  0.3910
  117MOL0     O16039   5.953   3.050   8.265  0.0389  0.3641 -0.1955
  117MOL0     C16040   6.010   2.919   8.279  0.9711 -0.0377 -0.7174
  117MOL0     C16041   6.132   2.900   8.347  0.6009 -1.0217  0.2503
  117MOL0     C16042   6.207   2.780   8.338  0.5670 -0.1970  0.2158
  117MOL0     C16043   6.157   2.666   8.264  0.2390  0.0530 -0.7679
  117MOL0     O16044   6.221   2.544   8.260  0.1431  0.0690 -0.4584
  117MOL0     C16045   6.132   2.433   8.284  0.2493  0.3395  0.5810
  117MOL0     C16046   6.197   2.294   8.286  0.0924 -0.0578 -1.4842
  117MOL0     C16047   6.231   2.251   8.145 -0.6590 -0.0223  0.5814
  117MOL0     C16048   6.332   2.136   8.136  0.2808  0.2861 -0.0408
  117MOL0     C16049   6.463   2.137   8.213  0.7758  0.3535  0.5283
  117MOL0     C16050   6.555   2.019   8.176  0.3824  0.3459 -0.9801
  117MOL0     C16051   6.688   2.024   8.250  0.6206 -0.2954 -0.0321
  117MOL0     C16052   6.782   1.923   8.197 -0.1284  0.4524  0.1635
  117MOL0    Cl16053   6.694   1.755   8.171  0.0100  0.1067  0.2248
  117MOL0     C16054   6.043   2.692   8.190  0.4050 -0.5996  0.0750
  117MOL0     C16055   5.971   2.810   8.195  0.2446 -0.1598  0.9083
  117MOL0     O16056   5.740   2.993   8.322 -0.0193 -0.5228  0.1303
  117MOL0     C16057   5.853   3.247   8.084  0.3597  0.3136  0.1605
  117MOL0     C16058   5.810   3.344   7.994  0.5523 -0.4107 -1.0941
  117MOL0     N16059   5.338   3.552   7.478  0.1097  0.0550  0.3960
  117MOL0     N16060   5.246   3.475   7.442  0.5069  0.2115  0.6857
  117MOL0     C16061   4.526   2.891   7.126  0.7257  0.4092 -0.4132
  117MOL0     C16062   4.532   2.825   7.002 -0.6122  0.2806 -0.3977
  117MOL0     C16063   4.575   2.536   6.661  0.4305 -0.5994  0.6994
  117MOL0     C16064   4.487   2.428   6.667 -0.5150  0.4066  0.1080
  117MOL0     C16065   4.486   2.326   6.570  0.0662 -0.2263  0.9138
  117MOL0     C16066   4.584   2.328   6.465  0.3098  0.3535 -0.7346
  117MOL0     O16067   4.602   2.218   6.374 -0.0632 -0.4652  0.1241
  117MOL0     C16068   4.595   2.256   6.234 -0.9386 -0.1878  0.2020
  117MOL0     C16069   4.496   2.158   6.172 -0.1440 -0.2919  0.5802
  117MOL0     C16070   4.504   2.140   6.021 -0.1700 -0.1945 -0.5510
  117MOL0     C16071   4.430   2.002   5.980  0.5070 -0.9733  0.6104
  117MOL0     C16072   4.512   1.884   5.975  0.8863  0.4415  0.5098
  117MOL0     C16073   4.590   1.790   5.977  0.8105  0.3346 -0.5345
  117MOL0     C16074   4.673   2.431   6.459  0.2990  0.2569  0.2502
  117MOL0     C16075   4.669   2.538   6.548  0.3155  0.1563  0.1085
  117MOL0     C16076   4.766   2.652   6.535 -0.5925 -0.4612 -0.5178
  117MOL0     H16077   4.526   2.506   7.138 -1.2598 -0.0046  2.7798
  117MOL0     H16078   4.500   2.634   7.342 -1.4230  1.2345  0.2116
  117MOL0     H16079   4.327   2.985   7.373  0.0224 -0.8143  0.2555
  117MOL0     H16080   4.457   3.078   7.329 -0.1957  1.1145  1.1064
  117MOL0     H16081   4.403   3.095   7.590  1.8932 -1.2412  2.8426
  117MOL0     H16082   4.495   2.945   7.589 -0.6066  0.6912  1.2695
  117MOL0     H16083   4.692   3.053   7.488  1.6176  1.0660  1.2074
  117MOL0     H16084   4.602   3.194   7.444 -0.6339  0.6121  0.2988
  117MOL0     H16085   4.582   3.277   7.662  2.8628  2.6254 -0.4045
  117MOL0     H16086   4.614   3.108   7.734  0.6079  1.6703  1.0922
  117MOL0     H16087   4.852   3.136   7.629  0.2329  1.1834  0.1663
  117MOL0     H16088   4.804   3.229   7.776 -0.0002 -0.9736 -0.1587
  117MOL0     H16089   4.776   3.321   7.493 -1.3168  1.3935  0.1305
  117MOL0     H16090   4.775   3.415   7.650  1.3683  0.0556 -0.3530
  117MOL0     H16091   5.026   3.292   7.598  0.2042  1.1791  2.9990
  117MOL0     H16092   4.969   3.430   7.691  0.4620  0.8918 -1.3958
  117MOL0     H16093   4.999   3.413   7.385 -0.7696  3.1119 -0.8523
  117MOL0     H16094   4.950   3.557   7.480  0.1938  0.6206 -0.8506
  117MOL0     H16095   5.106   3.669   7.665  0.0490  1.6100 -0.8582
  117MOL0     H16096   5.313   3.799   7.709  0.1146 -0.1176  0.7687
  117MOL0     H16097   5.435   3.795   7.580  0.0306 -2.0691  0.7168
  117MOL0     H16098   5.523   3.758   7.795 -2.0882 -0.5293  2.0452
  117MOL0     H16099   5.416   3.626   7.836  1.2308 -0.6894  1.6948
  117MOL0     H16100   5.501   3.488   7.663 -0.0204 -0.1560 -0.1254
  117MOL0     H16101   5.615   3.615   7.604  0.4323  3.5464  1.8647
  117MOL0     H16102   5.737   3.434   7.736 -1.6268 -1.5401  0.3013
  117MOL0     H16103   5.748   3.592   7.814 -0.2502  0.3359 -0.9521
  117MOL0     H16104   5.488   3.376   8.105 -0.2851  0.0678 -2.0612
  117MOL0     H16105   5.428   3.217   8.253  1.1997  1.8195 -1.2370
  117MOL0     H16106   5.554   3.208   8.388 -1.5006 -0.5404  1.3475
  117MOL0     H16107   5.523   3.075   8.279 -0.5337  0.3763  1.3764
  117MOL0     H16108   6.180   2.978   8.406  0.9203 -0.1952 -1.0760
  117MOL0     H16109   6.301   2.780   8.392 -0.1456  1.6442  1.5520
  117MOL0     H16110   6.081   2.465   8.375 -1.6819  1.6679 -0.8923
  117MOL0     H16111   6.059   2.424   8.202 -1.5571  1.8692  1.9405
  117MOL0     H16112   6.281   2.290   8.356 -1.3034 -0.3193  0.2498
  117MOL0     H16113   6.133   2.215   8.326  0.5076  0.3746  0.0976
  117MOL0     H16114   6.281   2.327   8.084  1.8981 -0.0642  2.4444
  117MOL0     H16115   6.137   2.229   8.093  1.8349 -0.6519 -4.2354
  117MOL0     H16116   6.352   2.093   8.037  0.5528 -2.1769  1.0200
  117MOL0     H16117   6.273   2.051   8.171  2.0308 -0.5926  0.8586
  117MOL0     H16118   6.510   2.234   8.195 -2.0348  1.2286 -3.2693
  117MOL0     H16119   6.429   2.138   8.317 -3.6436 -2.6075 -0.5906
  117MOL0     H16120   6.569   2.016   8.068  0.3345  0.4402 -0.9893
  117MOL0     H16121   6.501   1.926   8.197  0.9440  0.2344  0.0590
  117MOL0     H16122   6.674   2.021   8.359  1.0866 -0.0550  0.0375
  117MOL0     H16123   6.733   2.121   8.227  0.1846  0.5811  2.4505
  117MOL0     H16124   6.861   1.911   8.272 -1.1426 -0.2954  1.1385
  117MOL0     H16125   6.827   1.958   8.104 -1.7771  0.8387 -0.5316
  117MOL0     H16126   6.013   2.614   8.120  3.0068 -0.6841 -1.0272
  117MOL0     H16127   5.878   2.824   8.142 -0.4884  1.5156  2.5333
  117MOL0     H16128   5.958   3.222   8.070  0.2698  0.5974 -1.1244
  117MOL0     H16129   5.880   3.385   7.922  1.4991 -2.8973 -1.6994
  117MOL0     H16130   4.544   2.998   7.116 -1.8337  0.7023 -3.4783
  117MOL0     H16131   4.540   2.879   6.908  0.2174 -2.8525 -2.2930
  117MOL0     H16132   4.413   2.429   6.747  1.5535 -0.8332  2.1754
  117MOL0     H16133   4.416   2.244   6.583 -0.0984 -0.9193 -2.9226
  117MOL0     H16134   4.547   2.354   6.223 -1.7065 -0.7370 -2.0753
  117MOL0     H16135   4.694   2.267   6.189 -0.7286  2.9629  1.2229
  117MOL0     H16136   4.395   2.191   6.199 -0.3698 -0.8381  0.4126
  117MOL0     H16137   4.520   2.059   6.212 -0.5092 -2.1772 -3.3926
  117MOL0     H16138   4.452   2.229   5.986 -0.8682  1.4569  3.9765
  117MOL0     H16139   4.608   2.122   5.992  0.4120 -2.2381  2.4111
  117MOL0     H16140   4.386   2.016   5.881 -0.4772  1.9485  1.3793
  117MOL0     H16141   4.346   1.970   6.042 -0.2484  0.1971  0.2199
  117MOL0     H16142   4.669   1.718   5.968 -0.7685 -1.4250 -1.2701
  117MOL0     H16143   4.751   2.425   6.384 -0.0086  1.3220 -0.1727
  117MOL0     H16144   4.827   2.664   6.625  0.0464  2.8386 -1.2543
  117MOL0     H16145   4.837   2.624   6.456  0.4295  0.6078  0.0028
  117MOL0     H16146   4.731   2.754   6.515  2.3178  0.9825  1.1102
  118MOL0     O16147   4.000   3.836   0.817  0.0623 -0.2038 -0.0509
  118MOL0     C16148   4.034   3.728   0.868 -0.7445  0.3978 -0.1136
  118MOL0     O16149   3.950   3.634   0.925 -0.0476 -0.4910  0.3510
  118MOL0     C16150   3.811   3.634   0.922 -0.3135  0.0689  0.6752
  118MOL0     C16151   3.749   3.540   1.000 -0.4904  0.2317 -0.2725
  118MOL0     C16152   3.613   3.528   0.994 -0.0735  1.6739  0.4846
  118MOL0     C16153   3.535   3.588   0.900  0.4129 -0.0748  0.3727
  118MOL0     O16154   3.398   3.576   0.885  0.3576 -1.6974  0.1014
  118MOL0     C16155   3.326   3.575   1.003  0.5599  0.0450  0.7441
  118MOL0     C16156   3.181   3.511   0.969  0.1463 -0.1678 -0.5329
  118MOL0     C16157   3.102   3.609   0.888  0.1137  0.5524 -0.1551
  118MOL0     C16158   2.971   3.551   0.837  0.1914 -0.3991  0.4704
  118MOL0     C16159   2.850   3.541   0.939  1.0003 -0.0663 -0.1853
  118MOL0     C16160   2.718   3.495   0.880 -0.4542  0.3433  0.8981
  118MOL0     C16161   2.604   3.527   0.974 -0.5088 -0.4504 -1.2918
  118MOL0     C16162   2.611   3.435   1.098 -0.3673  0.6720 -0.8648
  118MOL0     N16163   2.520   3.471   1.201  0.6683 -0.2145 -0.3123
  118MOL0     C16164   2.495   3.595   1.253 -0.1115  1.0453  0.8906
  118MOL0     C16165   2.420   3.576   1.361  0.4424  0.1320 -1.0390
  118MOL0     C16166   2.366   3.692   1.457 -0.0948  0.5043 -1.0749
  118MOL0     C16167   2.389   3.673   1.606  0.5483  0.3129 -0.1699
  118MOL0     C16168   2.535   3.688   1.647 -0.1423 -0.0609  0.0272
  118MOL0     C16169   2.585   3.835   1.653 -0.2188 -0.8158 -0.0065
  118MOL0     O16170   2.728   3.853   1.692  0.1742  0.5088 -0.0773
  118MOL0     C16171   2.822   3.831   1.594  0.6037  0.9566 -0.0549
  118MOL0     C16172   2.803   3.789   1.461 -0.6139  0.9103  0.2079
  118MOL0     C16173   2.912   3.778   1.370 -0.4074  1.0697 -0.3092
  118MOL0     C16174   2.873   3.714   1.237  0.0019 -0.7606 -0.6901
  118MOL0     C16175   3.048   3.815   1.403 -0.2252 -0.7205  0.1233
  118MOL0     C16176   3.167   3.826   1.319 -0.4923  0.9122 -0.2164
  118MOL0     O16177   3.272   3.911   1.357  0.5189 -0.5807  0.1212
  118MOL0     C16178   3.342   3.964   1.245 -0.1469 -0.0422 -0.2990
  118MOL0     C16179   3.442   3.890   1.184  0.2453  0.3853  0.8873
  118MOL0     C16180   3.504   3.943   1.070 -0.1208 -0.0997  0.0067
  118MOL0     C16181   3.467   4.068   1.019  0.3376  1.4397  0.1953
  118MOL0     O16182   3.539   4.105   0.906  0.0180 -0.5947 -0.4669
  118MOL0     C16183   3.545   4.243   0.862  0.4999 -0.4667 -0.0544
  118MOL0     C16184   3.634   4.270   0.743  0.1878  0.1212 -0.1338
  118MOL0     C16185   3.779   4.254   0.794  0.0505  0.2260 -0.1369
  118MOL0     C16186   3.878   4.218   0.695 -0.1826 -0.2684  0.5606
  118MOL0     C16187   4.019   4.213   0.759 -0.7283  0.2246  0.4042
  118MOL0     C16188   4.129   4.205   0.649  0.2071 -0.1533  0.0490
  118MOL0     C16189   4.265   4.194   0.707 -0.5092 -0.2559 -0.1260
  118MOL0     C16190   4.370   4.223   0.603 -0.8906  0.5513  0.6811
  118MOL0    Cl16191   4.410   4.399   0.593  0.2382  0.2224 -0.0009
  118MOL0     C16192   3.366   4.139   1.080  0.4854  0.3519  0.1935
  118MOL0     C16193   3.302   4.089   1.193  0.2678  0.0128 -0.6091
  118MOL0     O16194   3.160   3.774   1.208  0.4194  0.2950 -0.0043
  118MOL0     C16195   3.055   3.872   1.530  0.3773 -0.1247 -0.1330
  118MOL0     C16196   2.948   3.872   1.621 -0.0768 -0.1994 -0.2489
  118MOL0     N16197   2.376   3.442   1.361  1.0371  0.3181  0.3833
  118MOL0     N16198   2.438   3.375   1.269  0.4843 -0.3492  0.3825
  118MOL0     C16199   3.599   3.685   0.823  0.6664 -0.8982  0.1895
  118MOL0     C16200   3.735   3.715   0.825 -0.5121 -0.3269 -1.2408
  118MOL0     C16201   4.173   3.685   0.862 -0.6724 -0.2379  0.4696
  118MOL0     C16202   4.240   3.697   0.736  0.0902 -0.4686 -0.4397
  118MOL0     C16203   4.373   3.667   0.720 -0.4771 -0.4332  0.7234
  118MOL0     C16204   4.452   3.629   0.836  0.5013  0.7029  0.0565
  118MOL0     O16205   4.573   3.585   0.805 -1.0380  0.4630 -0.3413
  118MOL0     C16206   4.646   3.524   0.912  0.0796 -0.6016 -1.4072
  118MOL0     C16207   4.770   3.487   0.843  0.1472 -0.4702  0.6434
  118MOL0     C16208   4.763   3.346   0.788  0.2060  0.2952 -0.2815
  118MOL0     C16209   4.882   3.324   0.697 -0.6161 -0.1080  0.2791
  118MOL0     C16210   5.012   3.310   0.763 -0.1983  0.1504  0.7725
  118MOL0     C16211   5.121   3.304   0.816  0.1297  0.4567  0.3252
  118MOL0     C16212   4.386   3.638   0.960  0.2073 -0.6593 -0.2277
  118MOL0     C16213   4.248   3.654   0.977 -0.7328  0.4154 -0.3487
  118MOL0     C16214   4.182   3.647   1.112  0.3092  1.0754 -0.1572
  118MOL0     H16215   3.813   3.481   1.065  0.0962  2.1032  0.9413
  118MOL0     H16216   3.578   3.451   1.062  1.8671 -1.0923 -1.4560
  118MOL0     H16217   3.308   3.681   1.027  0.4751  0.1642  0.1602
  118MOL0     H16218   3.384   3.519   1.077  3.1210 -1.5534 -2.2454
  118MOL0     H16219   3.209   3.417   0.921  1.1694 -0.3540  0.3935
  118MOL0     H16220   3.124   3.486   1.058  0.3784 -0.1152 -0.3693
  118MOL0     H16221   3.097   3.704   0.943 -1.0180 -1.2925  3.2094
  118MOL0     H16222   3.157   3.621   0.794  0.3477 -1.1793 -0.2684
  118MOL0     H16223   2.938   3.619   0.758  0.5579  1.2974  1.7378
  118MOL0     H16224   3.002   3.449   0.813 -2.4175 -0.7605 -1.9085
  118MOL0     H16225   2.829   3.640   0.980 -3.7578 -0.1423 -1.8249
  118MOL0     H16226   2.872   3.463   1.012  0.8563 -1.8710 -1.9940
  118MOL0     H16227   2.704   3.562   0.795  1.9116  1.1602  1.1074
  118MOL0     H16228   2.727   3.389   0.852  1.6561  0.4031  1.2063
  118MOL0     H16229   2.507   3.504   0.928 -2.0052 -0.6970  1.7179
  118MOL0     H16230   2.598   3.632   1.002  0.0316 -0.2552 -1.9054
  118MOL0     H16231   2.586   3.333   1.068 -2.2920  1.0364 -0.6825
  118MOL0     H16232   2.707   3.452   1.146 -0.6339  2.2314 -0.8096
  118MOL0     H16233   2.520   3.695   1.219  2.8096  1.4867  3.7343
  118MOL0     H16234   2.257   3.694   1.445 -0.1649 -0.6084 -0.6957
  118MOL0     H16235   2.390   3.796   1.431 -2.4724  1.7739  1.2951
  118MOL0     H16236   2.323   3.743   1.658  4.2532  3.4046  0.8681
  118MOL0     H16237   2.344   3.577   1.631 -1.5086  0.9075 -1.3150
  118MOL0     H16238   2.551   3.644   1.746  1.5072 -2.3922 -1.1798
  118MOL0     H16239   2.591   3.616   1.587  0.0583 -3.0663  3.4761
  118MOL0     H16240   2.564   3.887   1.560 -1.4188  1.7474  1.5871
  118MOL0     H16241   2.532   3.883   1.735  2.4918  0.6961  1.0079
  118MOL0     H16242   2.705   3.749   1.439  0.6772 -2.2759 -0.2369
  118MOL0     H16243   2.854   3.795   1.166 -2.1333 -0.3176  0.3025
  118MOL0     H16244   2.782   3.654   1.246 -2.4799  1.7974 -5.1134
  118MOL0     H16245   2.950   3.643   1.206  1.0851 -0.6713  1.5967
  118MOL0     H16246   3.470   3.790   1.215 -1.5572 -0.2651  0.5718
  118MOL0     H16247   3.574   3.887   1.009  1.2368  3.8116 -2.4330
  118MOL0     H16248   3.444   4.271   0.830  1.1869 -0.7556 -2.6967
  118MOL0     H16249   3.574   4.310   0.943 -1.6396  3.2146 -2.0686
  118MOL0     H16250   3.613   4.197   0.664  0.1867  1.4748 -1.4211
  118MOL0     H16251   3.612   4.369   0.702 -1.1554 -0.2644 -0.3802
  118MOL0     H16252   3.783   4.182   0.877 -1.9638 -1.0273 -1.0707
  118MOL0     H16253   3.802   4.352   0.836 -2.3558  0.9838 -0.4695
  118MOL0     H16254   3.876   4.289   0.612  1.6977  1.8576  2.2200
  118MOL0     H16255   3.850   4.121   0.652  0.8716 -0.6084  0.6022
  118MOL0     H16256   4.028   4.307   0.814 -1.6837  1.1300 -0.9302
  118MOL0     H16257   4.031   4.137   0.836  0.1046  0.6130  0.6742
  118MOL0     H16258   4.127   4.293   0.583  1.5957 -0.4029 -0.3808
  118MOL0     H16259   4.124   4.122   0.578  0.1160  0.4046 -0.6126
  118MOL0     H16260   4.269   4.086   0.727 -0.4202 -0.3020 -0.3894
  118MOL0     H16261   4.281   4.251   0.799 -2.9673 -0.1033  0.2781
  118MOL0     H16262   4.348   4.185   0.503 -0.4290 -0.1547  0.8363
  118MOL0     H16263   4.464   4.178   0.637 -2.0884 -0.6270  2.6251
  118MOL0     H16264   3.332   4.231   1.033  0.0103 -0.1851 -0.5488
  118MOL0     H16265   3.224   4.151   1.236 -3.3182 -4.3636  0.0127
  118MOL0     H16266   3.153   3.904   1.563  0.8171 -2.7627  1.4893
  118MOL0     H16267   2.968   3.904   1.723  2.4194 -1.0681 -0.3850
  118MOL0     H16268   3.539   3.732   0.745 -0.6856 -1.7053  0.6995
  118MOL0     H16269   3.766   3.796   0.760  1.3203 -1.6329 -2.0947
  118MOL0     H16270   4.179   3.722   0.650  0.2445 -2.5502 -1.1931
  118MOL0     H16271   4.405   3.678   0.616 -2.6544  3.3280  0.2597
  118MOL0     H16272   4.666   3.592   0.996 -2.6090 -0.1919 -1.0017
  118MOL0     H16273   4.603   3.431   0.952  1.3291 -0.6874 -0.1787
  118MOL0     H16274   4.850   3.477   0.916  0.2430 -2.8985  0.3039
  118MOL0     H16275   4.799   3.568   0.775  1.3594 -0.2426  1.4068
  118MOL0     H16276   4.764   3.275   0.870 -0.8605  2.0976  1.3711
  118MOL0     H16277   4.678   3.327   0.721  1.1204  2.4070 -2.1710
  118MOL0     H16278   4.886   3.402   0.620  0.0578  0.1383  0.5506
  118MOL0     H16279   4.890   3.231   0.641  1.9514 -0.4113  1.0123
  118MOL0     H16280   5.215   3.290   0.867 -0.0661 -2.6300  0.0135
  118MOL0     H16281   4.451   3.609   1.042  2.4454  1.1017 -1.2718
  118MOL0     H16282   4.087   3.700   1.127 -0.3935 -0.2940  0.3938
  118MOL0     H16283   4.161   3.544   1.142  2.4224  1.1268  1.7454
  118MOL0     H16284   4.253   3.701   1.175 -0.0881  3.4836 -1.6244
  119MOL0     O16285   0.746   6.831   5.924  0.0716 -0.4971  0.1332
  119MOL0     C16286   0.729   6.788   6.039 -0.5195  0.0628  0.0795
  119MOL0     O16287   0.619   6.813   6.118 -0.6176 -0.3998 -0.4966
  119MOL0     C16288   0.504   6.816   6.044  0.0401  0.9870 -0.1347
  119MOL0     C16289   0.436   6.685   6.033  0.6122  0.0525  0.4314
  119MOL0     C16290   0.298   6.691   5.987 -0.2555  0.0533 -0.1111
  119MOL0     C16291   0.236   6.808   5.946 -0.4162  1.0929  1.2350
  119MOL0     O16292   0.098   6.814   5.916  0.2309  0.3525  0.8112
  119MOL0     C16293   0.018   6.698   5.903  0.2725  0.7572  0.5323
  119MOL0     C16294  -0.116   6.732   5.850 -0.3664  0.3417 -0.4655
  119MOL0     C16295  -0.201   6.614   5.820 -0.4758 -1.0188  0.3265
  119MOL0     C16296  -0.322   6.650   5.740 -0.6274  0.5460  0.5543
  119MOL0     C16297  -0.401   6.526   5.675 -0.2307  0.2597  0.0757
  119MOL0     C16298  -0.414   6.402   5.767  0.1067  0.1078  0.3978
  119MOL0     C16299  -0.536   6.319   5.728 -0.9598  0.4016  0.7512
  119MOL0     C16300  -0.492   6.213   5.615 -0.7880 -0.2262 -0.2519
  119MOL0     N16301  -0.437   6.081   5.657  0.1078 -0.0574  0.8482
  119MOL0     C16302  -0.463   5.956   5.608  0.8554 -0.0900 -0.6895
  119MOL0     C16303  -0.397   5.859   5.672 -0.7352 -0.6125 -0.3536
  119MOL0     C16304  -0.387   5.713   5.654  0.2590 -0.6638 -0.2472
  119MOL0     C16305  -0.524   5.659   5.668 -0.4921 -0.3054 -0.2965
  119MOL0     C16306  -0.508   5.505   5.658  1.2843  1.1208 -0.2102
  119MOL0     C16307  -0.636   5.434   5.694  0.5127  0.5821  0.2729
  119MOL0     O16308  -0.606   5.291   5.698  0.0959 -0.9159 -0.1338
  119MOL0     C16309  -0.718   5.212   5.706 -0.4062 -0.5697  0.1128
  119MOL0     C16310  -0.844   5.249   5.766 -0.4100  0.4167  0.0732
  119MOL0     C16311  -0.957   5.166   5.756 -0.1872  0.4244  0.7986
  119MOL0     C16312  -1.084   5.214   5.830  0.5628  0.2032 -0.1813
  119MOL0     C16313  -0.954   5.044   5.679  1.2543 -0.6480  0.8457
  119MOL0     C16314  -1.074   4.954   5.660 -0.5878 -0.3537  0.1257
  119MOL0     O16315  -1.197   4.995   5.701  0.3281 -0.0690 -0.4011
  119MOL0     C16316  -1.307   4.920   5.665  0.7503 -0.1530  0.1250
  119MOL0     C16317  -1.378   4.842   5.760  0.6913 -0.2579 -0.4961
  119MOL0     C16318  -1.485   4.761   5.730 -0.2941  0.9300 -0.1284
  119MOL0     C16319  -1.529   4.752   5.595  0.0675 -0.3191 -0.0789
  119MOL0     O16320  -1.628   4.667   5.553 -0.1290 -0.7552 -0.2511
  119MOL0     C16321  -1.718   4.599   5.642 -0.4865  0.2803 -0.4299
  119MOL0     C16322  -1.804   4.491   5.583 -0.1424 -0.6195  0.2060
  119MOL0     C16323  -1.885   4.544   5.465  0.8098 -0.0162  0.2473
  119MOL0     C16324  -2.021   4.589   5.520 -0.8802 -0.1017  0.1263
  119MOL0     C16325  -2.130   4.484   5.561 -0.8169 -1.2334 -0.1368
  119MOL0     C16326  -2.269   4.546   5.564  0.7230 -0.1838  0.0667
  119MOL0     C16327  -2.373   4.456   5.639  0.8306  0.0127 -0.3688
  119MOL0     C16328  -2.514   4.525   5.636 -0.3478  0.2604  0.4774
  119MOL0    Cl16329  -2.631   4.440   5.737 -0.0144 -0.0228 -0.3038
  119MOL0     C16330  -1.460   4.835   5.493  0.1176  0.1169  0.4478
  119MOL0     C16331  -1.358   4.923   5.535 -0.0561 -0.9384 -0.0879
  119MOL0     O16332  -1.052   4.850   5.601 -0.8452  0.2038  0.0074
  119MOL0     C16333  -0.832   5.014   5.614  0.0109 -0.4714  1.0407
  119MOL0     C16334  -0.713   5.089   5.641  0.4323 -0.0264  0.3898
  119MOL0     N16335  -0.322   5.933   5.769 -0.4256  0.9368  0.4300
  119MOL0     N16336  -0.360   6.058   5.765  0.0202 -0.2909  0.4837
  119MOL0     C16337   0.312   6.921   5.955  0.2469  0.8788  0.9219
  119MOL0     C16338   0.446   6.929   5.999  0.2081  0.6823  0.1646
  119MOL0     C16339   0.836   6.707   6.098 -0.8177 -0.1740 -0.6593
  119MOL0     C16340   0.802   6.628   6.207  1.0617 -0.2180  0.1454
  119MOL0     C16341   0.893   6.535   6.258 -0.0087  0.3591  0.2419
  119MOL0     C16342   1.029   6.526   6.217  0.0043  0.2928 -0.2056
  119MOL0     O16343   1.114   6.429   6.266 -0.2669  0.0776  0.3145
  119MOL0     C16344   1.252   6.429   6.224  0.6669 -0.1064 -0.1228
  119MOL0     C16345   1.318   6.346   6.331  0.2818 -0.6433 -0.6968
  119MOL0     C16346   1.468   6.365   6.312 -0.5298  0.6776 -0.3521
  119MOL0     C16347   1.545   6.297   6.434  0.2409 -0.8781 -1.1098
  119MOL0     C16348   1.687   6.340   6.435 -1.0203  0.1080  1.3313
  119MOL0     C16349   1.805   6.356   6.436 -0.0918  0.3082  0.3912
  119MOL0     C16350   1.067   6.622   6.113  1.1307 -1.5086  0.0151
  119MOL0     C16351   0.972   6.709   6.057 -0.6915  0.0826 -0.0487
  119MOL0     C16352   1.027   6.796   5.949 -0.1333 -0.1162  0.3700
  119MOL0     H16353   0.474   6.592   6.073  1.6035  1.5442  3.1959
  119MOL0     H16354   0.242   6.599   5.982  1.5750 -1.0645 -3.8784
  119MOL0     H16355   0.005   6.641   5.996  0.2776 -1.8968 -0.9850
  119MOL0     H16356   0.071   6.639   5.828 -1.2808  0.0878 -0.1036
  119MOL0     H16357  -0.164   6.793   5.927  1.9807  0.4892  0.9669
  119MOL0     H16358  -0.104   6.795   5.761  2.4462 -0.6995 -0.9385
  119MOL0     H16359  -0.133   6.546   5.768  0.4293  1.5074 -2.0418
  119MOL0     H16360  -0.222   6.567   5.916 -1.1561  0.7606  1.0997
  119MOL0     H16361  -0.398   6.690   5.808 -0.4236 -0.8854  1.6721
  119MOL0     H16362  -0.289   6.717   5.661  0.7148 -1.4778 -0.6824
  119MOL0     H16363  -0.355   6.499   5.579  0.3259 -1.3835  0.7725
  119MOL0     H16364  -0.502   6.556   5.646  0.1790 -0.5828 -2.4784
  119MOL0     H16365  -0.324   6.340   5.760 -0.2176 -0.3993  0.6457
  119MOL0     H16366  -0.413   6.449   5.866 -0.8784  1.7001 -0.3179
  119MOL0     H16367  -0.619   6.387   5.706 -1.6899 -1.2811 -2.1728
  119MOL0     H16368  -0.575   6.269   5.816 -0.4408  1.6953  1.7592
  119MOL0     H16369  -0.583   6.179   5.564  1.2962 -2.7449 -2.5474
  119MOL0     H16370  -0.421   6.245   5.539  0.2895 -4.5102 -1.2986
  119MOL0     H16371  -0.533   5.930   5.529  0.2086 -0.5462  0.0168
  119MOL0     H16372  -0.321   5.674   5.732 -3.3411 -3.3790  1.6997
  119MOL0     H16373  -0.347   5.691   5.555 -2.2467  1.6767 -1.9199
  119MOL0     H16374  -0.567   5.688   5.764 -1.8343  0.7907 -1.1856
  119MOL0     H16375  -0.596   5.691   5.592 -0.5744  0.8573  0.2530
  119MOL0     H16376  -0.483   5.478   5.555  0.4994  1.3236 -0.4595
  119MOL0     H16377  -0.439   5.457   5.728 -0.1813 -0.7987 -0.0060
  119MOL0     H16378  -0.679   5.477   5.785  1.6743 -2.2739  2.3114
  119MOL0     H16379  -0.705   5.449   5.611 -1.2709 -3.1373  0.8975
  119MOL0     H16380  -0.848   5.345   5.818  0.7736  1.7115 -2.0973
  119MOL0     H16381  -1.051   5.306   5.878  0.4887  0.9573 -1.5141
  119MOL0     H16382  -1.127   5.150   5.908 -0.4964  1.4384  0.2859
  119MOL0     H16383  -1.166   5.240   5.761 -1.3283 -2.0782  1.0403
  119MOL0     H16384  -1.346   4.830   5.864  0.1106  0.3466 -0.2363
  119MOL0     H16385  -1.531   4.697   5.804 -1.1968  1.4032 -0.2721
  119MOL0     H16386  -1.661   4.550   5.722  0.6940  2.0881 -0.0938
  119MOL0     H16387  -1.779   4.677   5.688 -1.5790  0.4936 -2.1461
  119MOL0     H16388  -1.733   4.417   5.546  2.7506  0.7476  2.5651
  119MOL0     H16389  -1.885   4.446   5.641  0.7630 -4.2808 -1.0749
  119MOL0     H16390  -1.907   4.468   5.389  0.0490 -0.3449  0.7798
  119MOL0     H16391  -1.827   4.624   5.420 -0.8180  1.2001  0.2157
  119MOL0     H16392  -2.056   4.651   5.437  1.4948  2.1621  0.7022
  119MOL0     H16393  -2.005   4.653   5.607 -1.2652 -1.8419  1.5460
  119MOL0     H16394  -2.130   4.405   5.486  0.8553 -1.6982  0.3291
  119MOL0     H16395  -2.099   4.436   5.654  0.0460  1.4415  1.0753
  119MOL0     H16396  -2.318   4.558   5.468 -0.2891 -4.5154 -0.1800
  119MOL0     H16397  -2.273   4.641   5.618  1.2131 -1.3524  2.3017
  119MOL0     H16398  -2.345   4.441   5.744  0.6155 -0.2544 -0.3502
  119MOL0     H16399  -2.387   4.361   5.587  0.5698  0.8010 -1.7865
  119MOL0     H16400  -2.544   4.522   5.531 -0.9071  2.4101  0.5261
  119MOL0     H16401  -2.519   4.632   5.661  1.7876  1.2666 -2.7688
  119MOL0     H16402  -1.485   4.817   5.389 -1.2017 -2.7285  1.1701
  119MOL0     H16403  -1.310   4.989   5.464 -1.4036  0.5672  0.3332
  119MOL0     H16404  -0.825   4.939   5.536 -0.3923 -0.5334  1.0618
  119MOL0     H16405  -0.624   5.064   5.584  0.6635  0.4555  0.5362
  119MOL0     H16406   0.262   7.012   5.925 -1.6559 -0.3246  0.2449
  119MOL0     H16407   0.494   7.026   5.992 -1.2495  1.4516  0.4337
  119MOL0     H16408   0.699   6.629   6.241  0.8084  3.6511 -0.3612
  119MOL0     H16409   0.862   6.468   6.337 -1.3315  1.2218  0.4822
  119MOL0     H16410   1.275   6.383   6.128  2.9730  1.4829 -0.3965
  119MOL0     H16411   1.291   6.531   6.217 -1.7148  0.8125 -1.0775
  119MOL0     H16412   1.294   6.239   6.325  1.1572 -0.9132  0.2763
  119MOL0     H16413   1.287   6.380   6.430 -0.9162 -1.3945 -0.8007
  119MOL0     H16414   1.492   6.314   6.218  0.5329  1.2357 -0.4024
  119MOL0     H16415   1.498   6.469   6.294  0.0251  0.5006 -0.4796
  119MOL0     H16416   1.528   6.189   6.440  1.7048 -1.0635  0.6120
  119MOL0     H16417   1.505   6.326   6.532 -1.3535 -1.5304 -1.5392
  119MOL0     H16418   1.911   6.363   6.439  0.1456 -1.5532 -1.3443
  119MOL0     H16419   1.166   6.621   6.068  2.7780  1.6085  3.1273
  119MOL0     H16420   1.007   6.754   5.850 -0.3827 -3.3745  1.6494
  119MOL0     H16421   0.990   6.898   5.956  1.1959  0.6552 -2.4929
  119MOL0     H16422   1.135   6.787   5.959  0.1635  0.7460 -1.6529
  120MOL0     O16423   0.554  11.403   7.899  0.5613 -0.1757  0.1786
  120MOL0     C16424   0.578  11.439   8.010 -0.2723 -0.7086  0.0565
  120MOL0     O16425   0.490  11.500   8.099  0.6281  0.4995  0.4385
  120MOL0     C16426   0.375  11.545   8.041 -0.3717  0.0191 -0.1999
  120MOL0     C16427   0.254  11.490   8.060 -0.4173  0.3226  0.1083
  120MOL0     C16428   0.135  11.544   8.009  0.0044  1.1725  0.2871
  120MOL0     C16429   0.131  11.678   7.955 -0.2855  0.0158 -0.4159
  120MOL0     O16430   0.015  11.731   7.918 -0.6029 -0.6896  0.7011
  120MOL0     C16431  -0.068  11.783   8.026  0.2829 -0.4508 -0.0618
  120MOL0     C16432  -0.166  11.693   8.092 -0.0698 -0.2904  0.3289
  120MOL0     C16433  -0.265  11.640   7.995  0.9213  0.1358  0.8023
  120MOL0     C16434  -0.394  11.578   8.064  1.1550  0.8428  0.2681
  120MOL0     C16435  -0.495  11.528   7.962 -0.2627  0.7638  0.6311
  120MOL0     C16436  -0.458  11.442   7.845 -0.9606 -0.3578  0.4252
  120MOL0     C16437  -0.578  11.377   7.776  0.6568 -0.3436  0.3011
  120MOL0     C16438  -0.651  11.262   7.846 -0.4197 -0.7933  0.3421
  120MOL0     N16439  -0.597  11.138   7.793  0.0655 -0.4908  1.0615
  120MOL0     C16440  -0.477  11.075   7.817 -0.7567  0.2143 -0.2656
  120MOL0     C16441  -0.476  10.970   7.732 -0.1731 -0.7203 -0.2895
  120MOL0     C16442  -0.364  10.872   7.718  0.5974 -0.6774 -0.2524
  120MOL0     C16443  -0.339  10.862   7.569 -0.4432  0.7123 -0.3848
  120MOL0     C16444  -0.252  10.750   7.533  0.5471  0.6129 -0.3949
  120MOL0     C16445  -0.103  10.793   7.548  0.2905 -0.0172  1.2866
  120MOL0     O16446  -0.025  10.690   7.487 -0.4620 -0.4334  0.1665
  120MOL0     C16447   0.069  10.621   7.564 -0.8294 -0.5361 -0.4880
  120MOL0     C16448   0.039  10.571   7.690  0.6725  0.6148  0.1374
  120MOL0     C16449   0.124  10.502   7.770 -0.4673 -0.4163  0.0035
  120MOL0     C16450   0.065  10.448   7.903  0.4620  0.0323 -0.0759
  120MOL0     C16451   0.256  10.479   7.723 -0.1236 -0.2926 -1.2199
  120MOL0     C16452   0.360  10.401   7.802  0.1074  0.5073 -0.4627
  120MOL0     O16453   0.492  10.430   7.784 -0.6480  1.0744 -0.0698
  120MOL0     C16454   0.595  10.395   7.874  0.1975  0.4081 -0.4903
  120MOL0     C16455   0.597  10.271   7.948 -0.7196 -0.0344 -0.1624
  120MOL0     C16456   0.700  10.239   8.037  0.1156 -0.2326 -0.2570
  120MOL0     C16457   0.809  10.328   8.049 -0.3875  0.1004 -0.3558
  120MOL0     O16458   0.902  10.295   8.147 -0.2209  0.4067 -0.2668
  120MOL0     C16459   0.983  10.400   8.205 -0.1878 -0.0207  0.7926
  120MOL0     C16460   1.037  10.375   8.343  0.4362 -0.4909  0.5768
  120MOL0     C16461   0.936  10.328   8.450 -0.6701 -0.8899 -0.1320
  120MOL0     C16462   1.016  10.300   8.575  0.2172 -0.3857 -0.6971
  120MOL0     C16463   0.901  10.271   8.675 -0.8942 -0.0392  0.7824
  120MOL0     C16464   0.968  10.256   8.806 -1.1951 -0.2695 -0.2738
  120MOL0     C16465   0.867  10.202   8.910  1.1770  0.1610 -0.4814
  120MOL0     C16466   0.928  10.145   9.040 -0.3993 -0.2806 -0.8056
  120MOL0    Cl16467   0.806  10.082   9.136  0.2712  0.1972 -0.1714
  120MOL0     C16468   0.815  10.442   7.970  0.0319 -0.2250  0.1199
  120MOL0     C16469   0.709  10.477   7.882  0.2353 -0.5371 -0.7429
  120MOL0     O16470   0.308  10.312   7.869 -0.1399  0.1665 -0.4226
  120MOL0     C16471   0.295  10.536   7.602 -0.8131  0.5949  0.9225
  120MOL0     C16472   0.203  10.588   7.516  0.6043  0.1805 -0.8770
  120MOL0     N16473  -0.583  10.983   7.647 -0.1893 -0.1741 -0.1999
  120MOL0     N16474  -0.651  11.084   7.681  0.0972 -0.3536 -0.7396
  120MOL0     C16475   0.252  11.740   7.945 -0.0228 -0.2699  0.3026
  120MOL0     C16476   0.372  11.676   7.982 -0.3896 -0.6806 -0.3435
  120MOL0     C16477   0.711  11.423   8.067 -0.5038  0.1761 -0.0203
  120MOL0     C16478   0.789  11.310   8.029  0.6628 -0.7799 -0.7378
  120MOL0     C16479   0.915  11.273   8.079  0.5227 -0.0221 -0.2102
  120MOL0     C16480   0.965  11.353   8.186  0.0392 -0.2399  0.2864
  120MOL0     O16481   1.088  11.321   8.238 -0.3885 -0.4180  0.5095
  120MOL0     C16482   1.205  11.302   8.148 -0.1292 -0.7598  0.2126
  120MOL0     C16483   1.326  11.239   8.223  0.1358 -0.3744 -0.4942
  120MOL0     C16484   1.441  11.246   8.132 -0.7224 -0.4605  0.3002
  120MOL0     C16485   1.578  11.253   8.208 -0.0903  0.6442  0.3441
  120MOL0     C16486   1.669  11.188   8.107 -0.4139 -0.3301  0.2803
  120MOL0     C16487   1.756  11.160   8.023  0.2268 -0.2865 -1.3488
  120MOL0     C16488   0.893  11.466   8.228 -0.8269 -0.0930  0.7596
  120MOL0     C16489   0.765  11.505   8.172 -0.1418  1.0658  0.7851
  120MOL0     C16490   0.715  11.637   8.224  0.4510 -0.0476 -0.2168
  120MOL0     H16491   0.246  11.390   8.103  2.2812 -0.4473 -0.9680
  120MOL0     H16492   0.047  11.481   8.023  0.3729 -0.2545 -2.9042
  120MOL0     H16493  -0.112  11.875   7.986 -1.1689 -0.2331  1.9074
  120MOL0     H16494  -0.005  11.823   8.107 -0.7613 -0.1168  0.6017
  120MOL0     H16495  -0.124  11.607   8.145 -2.1375 -0.2406  2.1839
  120MOL0     H16496  -0.231  11.743   8.164 -0.4118  1.3749 -1.0521
  120MOL0     H16497  -0.308  11.702   7.916 -3.4746 -1.1598  1.8573
  120MOL0     H16498  -0.217  11.560   7.938 -0.4302 -0.2189  0.1259
  120MOL0     H16499  -0.369  11.497   8.133 -2.7003 -2.0368 -1.3396
  120MOL0     H16500  -0.441  11.653   8.128 -1.4958  0.5549 -1.2092
  120MOL0     H16501  -0.540  11.612   7.909  0.6300 -1.1732 -3.6605
  120MOL0     H16502  -0.571  11.470   8.016  0.7601 -1.0716  0.2016
  120MOL0     H16503  -0.396  11.497   7.773 -3.1286 -0.3731 -1.5655
  120MOL0     H16504  -0.398  11.356   7.876 -1.6687 -2.0388 -2.5047
  120MOL0     H16505  -0.553  11.351   7.673 -1.1752  4.1569 -1.5527
  120MOL0     H16506  -0.647  11.458   7.750  4.0735  1.7493 -3.4332
  120MOL0     H16507  -0.644  11.274   7.955  1.7679 -0.8592  0.2526
  120MOL0     H16508  -0.754  11.277   7.812  0.1319 -2.3655 -2.3053
  120MOL0     H16509  -0.407  11.095   7.897 -1.3803  1.1505  0.0645
  120MOL0     H16510  -0.388  10.779   7.771 -0.3395  0.7866  2.0007
  120MOL0     H16511  -0.271  10.909   7.763 -0.1264 -0.8049  1.4168
  120MOL0     H16512  -0.434  10.846   7.518 -2.6532  2.2825  2.8536
  120MOL0     H16513  -0.303  10.961   7.539  0.5874 -0.1950 -2.2866
  120MOL0     H16514  -0.272  10.673   7.609 -2.4480  1.5133 -0.1304
  120MOL0     H16515  -0.278  10.718   7.432  1.6029 -0.6100 -0.3085
  120MOL0     H16516  -0.082  10.884   7.491  0.2453 -2.1507 -2.4760
  120MOL0     H16517  -0.075  10.807   7.652  2.5890  1.4664  0.5369
  120MOL0     H16518  -0.060  10.595   7.729  0.6760  1.3544 -0.2850
  120MOL0     H16519   0.041  10.344   7.880  3.7381 -1.3025  1.8118
  120MOL0     H16520  -0.022  10.500   7.945 -0.8840  1.5374 -4.1944
  120MOL0     H16521   0.146  10.439   7.976  1.8924  0.8060 -1.5032
  120MOL0     H16522   0.525  10.192   7.932 -1.5418 -0.3449  3.9091
  120MOL0     H16523   0.711  10.141   8.084  0.1128 -1.0686 -1.9335
  120MOL0     H16524   1.064  10.433   8.140 -0.0436 -0.5160  0.7173
  120MOL0     H16525   0.916  10.486   8.211  0.3485  0.5844 -1.1330
  120MOL0     H16526   1.110  10.294   8.333 -0.6366 -1.6269  1.6109
  120MOL0     H16527   1.064  10.473   8.382 -3.4482  1.4975 -1.1520
  120MOL0     H16528   0.884  10.235   8.424 -1.7232 -0.5330  0.6248
  120MOL0     H16529   0.862  10.409   8.459  0.4928  0.1301  0.4426
  120MOL0     H16530   1.067  10.390   8.611  0.2416 -1.0354  1.0151
  120MOL0     H16531   1.081  10.214   8.558  0.1418 -0.5822 -0.0438
  120MOL0     H16532   0.841  10.362   8.670 -1.2750 -0.2610  1.2301
  120MOL0     H16533   0.849  10.180   8.644  2.8306 -1.7078 -1.2954
  120MOL0     H16534   0.992  10.355   8.845 -2.6718 -1.1136  3.1840
  120MOL0     H16535   1.063  10.202   8.796  1.2633  4.0807 -4.1930
  120MOL0     H16536   0.815  10.118   8.863  2.3737 -1.8308  1.5682
  120MOL0     H16537   0.793  10.277   8.938 -0.9144 -1.5523 -1.1593
  120MOL0     H16538   0.984  10.224   9.091 -1.0312 -1.1244  1.3096
  120MOL0     H16539   0.994  10.061   9.015  0.5908  0.5374 -0.9943
  120MOL0     H16540   0.906  10.500   7.978  0.6975 -1.0242 -1.2496
  120MOL0     H16541   0.724  10.561   7.815 -0.0690 -0.3268 -0.5502
  120MOL0     H16542   0.401  10.548   7.582 -0.2743 -1.7060  2.0257
  120MOL0     H16543   0.228  10.634   7.421  1.7819  4.6684  1.3098
  120MOL0     H16544   0.255  11.837   7.898  1.8849 -0.7179 -0.5896
  120MOL0     H16545   0.469  11.721   7.966 -0.6009 -0.4710 -1.0477
  120MOL0     H16546   0.751  11.255   7.944  0.8953  1.7047 -2.5610
  120MOL0     H16547   0.979  11.189   8.052  0.4189 -1.9518  4.6078
  120MOL0     H16548   1.189  11.219   8.078 -0.3366 -1.1633  0.7307
  120MOL0     H16549   1.232  11.391   8.091  3.8954 -1.4431  0.7721
  120MOL0     H16550   1.297  11.140   8.260 -1.8961  0.3658  0.0730
  120MOL0     H16551   1.368  11.293   8.308 -0.1256 -1.8608  0.6158
  120MOL0     H16552   1.427  11.169   8.056  1.9556 -1.0857  0.3288
  120MOL0     H16553   1.440  11.340   8.077 -2.5934 -0.6454 -0.0389
  120MOL0     H16554   1.578  11.208   8.307 -1.9046 -0.3318 -0.0533
  120MOL0     H16555   1.613  11.355   8.225 -0.1154  0.5618  0.8896
  120MOL0     H16556   1.819  11.160   7.936  0.3823 -1.6121 -1.2551
  120MOL0     H16557   0.941  11.521   8.308 -2.8711  1.3870  1.0306
  120MOL0     H16558   0.679  11.702   8.144 -0.1653  1.0008  0.8674
  120MOL0     H16559   0.630  11.622   8.292 -0.2008 -0.9564 -1.1939
  120MOL0     H16560   0.796  11.694   8.271  0.4576  0.6799 -1.0809
  121MOL0     O16561   9.832   1.002   2.621  0.1488 -0.1987 -0.1450
  121MOL0     C16562   9.787   1.118   2.624  1.0583  0.0434 -0.0823
  121MOL0     O16563   9.860   1.230   2.659  0.5564  0.8363 -0.3632
  121MOL0     C16564   9.979   1.197   2.720 -0.7360 -0.3629  0.0303
  121MOL0     C16565  10.105   1.200   2.650  0.7526  0.1477 -0.3901
  121MOL0     C16566  10.225   1.198   2.727  0.3815 -0.7619 -0.6165
  121MOL0     C16567  10.217   1.172   2.866 -1.0696 -0.4740 -0.9396
  121MOL0     O16568  10.335   1.160   2.938 -0.0030 -0.1130  0.0733
  121MOL0     C16569  10.465   1.149   2.878  0.2645 -0.3456  0.3545
  121MOL0     C16570  10.579   1.132   2.975 -0.2376 -0.2594  0.5960
  121MOL0     C16571  10.709   1.103   2.909 -0.3424 -0.0424  0.5221
  121MOL0     C16572  10.766   1.238   2.854  0.4661 -0.2796  0.0800
  121MOL0     C16573  10.873   1.224   2.744  0.5267  0.6548 -0.9993
  121MOL0     C16574  10.998   1.148   2.801 -0.1805  0.1535  0.6365
  121MOL0     C16575  11.096   1.238   2.868 -0.5441 -0.0331 -0.3451
  121MOL0     C16576  11.237   1.174   2.880  0.1411  0.1598 -0.0144
  121MOL0     N16577  11.348   1.271   2.919  0.1436  1.0714 -0.1687
  121MOL0     C16578  11.365   1.332   3.033 -0.7813  0.4945 -0.8056
  121MOL0     C16579  11.489   1.387   3.028  0.5806  0.4875 -0.3834
  121MOL0     C16580  11.544   1.484   3.132  0.2934 -0.1376 -1.0539
  121MOL0     C16581  11.673   1.561   3.086 -0.2579 -0.5737 -0.4065
  121MOL0     C16582  11.800   1.474   3.058  0.6331 -0.3983 -0.0143
  121MOL0     C16583  11.907   1.563   2.988  0.1924 -0.5906  0.5836
  121MOL0     O16584  12.024   1.483   2.972  0.1173 -0.4062 -0.3648
  121MOL0     C16585  12.146   1.543   2.951 -0.5191  0.4935 -0.0582
  121MOL0     C16586  12.162   1.672   2.899 -0.0805  0.6937  1.1860
  121MOL0     C16587  12.291   1.727   2.878  0.5778  0.0871 -0.9802
  121MOL0     C16588  12.303   1.861   2.836 -0.0447 -0.5108  0.9107
  121MOL0     C16589  12.410   1.640   2.898  0.0520  0.8825  0.1687
  121MOL0     C16590  12.550   1.683   2.883 -0.5198 -0.5346  0.0616
  121MOL0     O16591  12.639   1.591   2.931  0.0209 -0.3323 -0.0683
  121MOL0     C16592  12.771   1.627   2.963 -0.5238 -0.6789 -0.2592
  121MOL0     C16593  12.827   1.754   2.992 -0.8096  0.6914 -0.4925
  121MOL0     C16594  12.967   1.765   3.009  0.9523 -0.3488  0.7547
  121MOL0     C16595  13.049   1.658   3.009  0.7126  0.7489  0.5139
  121MOL0     O16596  13.181   1.676   3.028  0.1120 -0.4654 -0.4430
  121MOL0     C16597  13.276   1.573   3.007  0.6595 -0.8844 -0.5656
  121MOL0     C16598  13.420   1.629   3.052  0.7208  0.4669 -0.3516
  121MOL0     C16599  13.445   1.648   3.203 -0.4918 -0.5618  1.0246
  121MOL0     C16600  13.467   1.525   3.281  0.2316 -0.0727  0.6009
  121MOL0     C16601  13.493   1.562   3.430  0.3361  0.1345  1.2377
  121MOL0     C16602  13.478   1.437   3.516  0.0574  0.7686 -0.1670
  121MOL0     C16603  13.451   1.481   3.663 -0.8498 -0.4851 -0.0788
  121MOL0     C16604  13.571   1.430   3.741 -0.0590  1.5489 -0.5891
  121MOL0    Cl16605  13.522   1.418   3.909  0.1937  0.0734 -0.1048
  121MOL0     C16606  12.992   1.532   2.994 -0.1220 -1.2174  0.5815
  121MOL0     C16607  12.859   1.518   2.961  0.2813  0.3718  1.5705
  121MOL0     O16608  12.577   1.790   2.832 -0.2385 -0.0294 -0.7119
  121MOL0     C16609  12.384   1.503   2.933  0.0218 -0.5292  0.0293
  121MOL0     C16610  12.260   1.455   2.951 -0.0367 -0.4964 -0.5159
  121MOL0     N16611  11.536   1.374   2.897 -1.4624 -0.7154 -0.1900
  121MOL0     N16612  11.450   1.302   2.832 -0.3425  0.0749  0.3430
  121MOL0     C16613  10.105   1.176   2.938 -0.0165 -0.7722 -0.1336
  121MOL0     C16614   9.981   1.193   2.862  0.4521  0.4701 -0.4824
  121MOL0     C16615   9.644   1.138   2.598 -0.4560  0.3997 -0.5610
  121MOL0     C16616   9.592   1.273   2.599  0.0006  0.2277 -0.3027
  121MOL0     C16617   9.466   1.308   2.564  0.6962 -0.0912 -0.8630
  121MOL0     C16618   9.376   1.205   2.547  1.4200 -0.2487  0.0372
  121MOL0     O16619   9.242   1.237   2.519 -0.5284 -0.2830 -0.1740
  121MOL0     C16620   9.188   1.327   2.616  0.4680  0.3208  0.5140
  121MOL0     C16621   9.044   1.295   2.624 -0.3563 -0.0273  0.1040
  121MOL0     C16622   8.951   1.295   2.500 -0.4732  0.1037  0.6413
  121MOL0     C16623   8.806   1.288   2.558 -0.4215  0.6695  0.3807
  121MOL0     C16624   8.709   1.279   2.444  0.0210 -0.3659  0.1769
  121MOL0     C16625   8.644   1.240   2.347  0.0677 -0.4782  0.3342
  121MOL0     C16626   9.421   1.075   2.550  0.4665 -0.3424  0.6604
  121MOL0     C16627   9.549   1.032   2.577  0.6946 -0.7445 -0.6006
  121MOL0     C16628   9.567   0.880   2.590 -0.3741 -0.0859 -0.0807
  121MOL0     H16629  10.120   1.221   2.545  2.6891  2.9892  0.3196
  121MOL0     H16630  10.320   1.198   2.675 -0.3192 -0.6869 -1.9391
  121MOL0     H16631  10.475   1.248   2.832 -1.6197 -0.0127  0.5573
  121MOL0     H16632  10.472   1.067   2.807  1.3165 -0.4018  0.5145
  121MOL0     H16633  10.588   1.224   3.033  0.7453  1.7934 -2.5420
  121MOL0     H16634  10.562   1.045   3.039  0.6916 -0.1012  1.0730
  121MOL0     H16635  10.768   1.059   2.990 -2.1955 -2.7492  0.5324
  121MOL0     H16636  10.701   1.027   2.831  1.5946  0.7685 -0.5523
  121MOL0     H16637  10.693   1.307   2.811  0.7293 -1.5586 -2.6235
  121MOL0     H16638  10.806   1.284   2.945 -0.1103  1.5166 -0.5351
  121MOL0     H16639  10.909   1.320   2.708  4.5028  0.5348  1.9678
  121MOL0     H16640  10.825   1.163   2.667 -1.4083  0.5435  0.2079
  121MOL0     H16641  10.982   1.071   2.877 -0.5837 -1.2928 -0.8454
  121MOL0     H16642  11.042   1.108   2.709 -1.3847  2.1184 -0.8770
  121MOL0     H16643  11.069   1.243   2.974  0.0080  1.4953 -0.2486
  121MOL0     H16644  11.096   1.345   2.842  2.8806  0.3877  0.8955
  121MOL0     H16645  11.234   1.102   2.962 -1.5416  0.8606  0.5703
  121MOL0     H16646  11.266   1.116   2.792 -1.2512  1.5182 -1.4266
  121MOL0     H16647  11.299   1.340   3.120 -1.6881 -1.4462 -1.2619
  121MOL0     H16648  11.568   1.433   3.226 -0.3561  0.5629 -0.4938
  121MOL0     H16649  11.471   1.564   3.148  0.9130  0.0789  0.8745
  121MOL0     H16650  11.650   1.627   3.002  1.9272  0.4648 -0.2772
  121MOL0     H16651  11.691   1.621   3.175 -1.8410  2.7300 -2.1406
  121MOL0     H16652  11.845   1.427   3.145  1.9498  2.2693  0.8506
  121MOL0     H16653  11.776   1.404   2.977 -2.7155  2.7107 -2.0462
  121MOL0     H16654  11.876   1.589   2.886  0.7346  3.8654  1.3624
  121MOL0     H16655  11.933   1.657   3.038 -0.1486  0.9989 -2.0411
  121MOL0     H16656  12.073   1.731   2.882 -0.2156  0.5389  1.3522
  121MOL0     H16657  12.344   1.918   2.921  2.0639  0.2538 -0.5261
  121MOL0     H16658  12.207   1.910   2.819  1.4820  2.2353 -0.5192
  121MOL0     H16659  12.358   1.871   2.742 -0.2309  3.8509  1.0344
  121MOL0     H16660  12.762   1.840   3.000  1.9095  3.1907 -3.0655
  121MOL0     H16661  13.012   1.861   3.032  2.3309 -0.5602 -0.8394
  121MOL0     H16662  13.251   1.489   3.072  0.8912  1.1434  2.3587
  121MOL0     H16663  13.286   1.534   2.906  0.3662  0.4309 -1.1284
  121MOL0     H16664  13.499   1.570   3.005 -1.4816 -0.2038 -3.5978
  121MOL0     H16665  13.426   1.728   3.006  0.1154  0.4595 -0.4554
  121MOL0     H16666  13.355   1.706   3.228 -0.6967  0.0809 -0.9853
  121MOL0     H16667  13.533   1.710   3.223 -1.5805 -0.1422  5.8281
  121MOL0     H16668  13.550   1.466   3.242 -1.6226 -0.6842 -2.7793
  121MOL0     H16669  13.376   1.465   3.265 -0.2921  1.3725 -2.6856
  121MOL0     H16670  13.595   1.602   3.442  1.1590 -0.2109 -2.9941
  121MOL0     H16671  13.418   1.637   3.457  0.2399  0.7846 -0.6994
  121MOL0     H16672  13.567   1.374   3.502  1.2553  2.4019 -0.1616
  121MOL0     H16673  13.387   1.383   3.486 -1.2780  1.8686  1.7448
  121MOL0     H16674  13.357   1.434   3.693 -0.1315 -2.3218 -0.5173
  121MOL0     H16675  13.448   1.590   3.659  2.0089 -0.3090  0.6435
  121MOL0     H16676  13.662   1.491   3.735  2.2518 -1.7379 -1.1361
  121MOL0     H16677  13.597   1.329   3.711  2.1688  2.1682 -0.9310
  121MOL0     H16678  13.053   1.442   2.993 -0.1042 -1.3277 -3.0391
  121MOL0     H16679  12.816   1.425   2.925 -2.6974  2.2060 -0.0049
  121MOL0     H16680  12.471   1.439   2.942  0.2381 -0.0354  1.6777
  121MOL0     H16681  12.246   1.355   2.992 -0.1485 -0.5409 -0.6648
  121MOL0     H16682  10.096   1.171   3.046 -0.5307 -0.0025 -0.1333
  121MOL0     H16683   9.887   1.210   2.913  0.7945  1.6856 -0.2084
  121MOL0     H16684   9.652   1.361   2.621 -1.0067  0.5008  1.6198
  121MOL0     H16685   9.431   1.410   2.568  2.4082  0.4740  0.6117
  121MOL0     H16686   9.224   1.299   2.715  1.2642  1.4959  0.5816
  121MOL0     H16687   9.211   1.432   2.595  0.7708  0.1716  0.1004
  121MOL0     H16688   8.999   1.355   2.704  2.2665  0.8679  1.0015
  121MOL0     H16689   9.046   1.190   2.655  0.1060 -0.0849 -0.1165
  121MOL0     H16690   8.957   1.391   2.448  2.8206  0.1955  0.9733
  121MOL0     H16691   8.971   1.215   2.428  1.9440  1.6578 -0.5116
  121MOL0     H16692   8.798   1.372   2.627  3.0113  0.4346  1.2778
  121MOL0     H16693   8.793   1.198   2.620  1.9518  0.6656  0.9617
  121MOL0     H16694   8.576   1.204   2.272 -1.7459  2.4628  0.4119
  121MOL0     H16695   9.339   1.005   2.540 -1.1042  1.5430 -0.4798
  121MOL0     H16696   9.475   0.822   2.595  0.0310 -0.6976  0.3639
  121MOL0     H16697   9.626   0.841   2.506  3.0000 -0.4447  2.2426
  121MOL0     H16698   9.613   0.859   2.687  1.9367  0.3212 -1.0077
  122MOL0     O16699   5.617   1.586  11.228  0.4911 -0.6838 -0.1284
  122MOL0     C16700   5.611   1.704  11.196 -0.0742  1.1756  0.2623
  122MOL0     O16701   5.694   1.806  11.229  0.5693  0.0700 -0.1040
  122MOL0     C16702   5.821   1.763  11.274  0.1203 -0.3882  0.0926
  122MOL0     C16703   5.856   1.750  11.415 -0.8057 -0.3436  0.3757
  122MOL0     C16704   5.990   1.725  11.456 -0.5289 -0.5227 -0.3200
  122MOL0     C16705   6.090   1.711  11.357 -0.2396  0.1131 -0.4040
  122MOL0     O16706   6.219   1.679  11.386  0.3248  0.5064 -0.9284
  122MOL0     C16707   6.248   1.657  11.524 -0.1612  0.6432  0.4208
  122MOL0     C16708   6.380   1.584  11.537 -1.1504 -0.3412 -0.5124
  122MOL0     C16709   6.380   1.455  11.460  0.2551  1.1269 -0.1646
  122MOL0     C16710   6.500   1.365  11.465 -0.6323 -0.1319  0.2286
  122MOL0     C16711   6.482   1.229  11.379 -0.2019  0.0907 -0.1475
  122MOL0     C16712   6.354   1.138  11.402 -0.1950 -0.1934  0.1600
  122MOL0     C16713   6.333   1.030  11.285 -0.1923 -0.0950 -0.1779
  122MOL0     C16714   6.228   0.913  11.322 -0.1071  0.5076  0.6291
  122MOL0     N16715   6.215   0.811  11.217 -0.4326 -0.2173  0.5261
  122MOL0     C16716   6.325   0.733  11.174 -0.4831  0.0345 -0.3129
  122MOL0     C16717   6.269   0.674  11.062  0.1221  0.8938 -0.8078
  122MOL0     C16718   6.331   0.570  10.964  0.6936  0.0055 -0.8124
  122MOL0     C16719   6.478   0.545  11.005 -0.1165 -0.9671  0.0434
  122MOL0     C16720   6.525   0.405  10.963 -1.3896  0.7527  0.0254
  122MOL0     C16721   6.683   0.403  10.987  0.5931 -1.2838 -0.4791
  122MOL0     O16722   6.743   0.272  10.965 -0.4287 -0.0871 -0.8376
  122MOL0     C16723   6.881   0.260  10.967 -0.9277 -0.3278  0.0062
  122MOL0     C16724   6.947   0.152  10.919  0.4098  0.0009  0.1188
  122MOL0     C16725   7.084   0.139  10.926  0.0188 -0.3188 -0.2343
  122MOL0     C16726   7.125  -0.002  10.896  0.6680 -0.6070  0.1390
  122MOL0     C16727   7.169   0.246  10.979  0.2031  0.5841 -0.7341
  122MOL0     C16728   7.319   0.239  10.988 -0.4127  0.6056 -0.0143
  122MOL0     O16729   7.380   0.355  11.024  0.5169  0.5147  0.0143
  122MOL0     C16730   7.515   0.350  10.994  0.4969 -0.2164  1.0711
  122MOL0     C16731   7.602   0.283  11.082 -0.3429  0.4927 -0.7428
  122MOL0     C16732   7.736   0.269  11.035  0.0942  0.4656  0.6313
  122MOL0     C16733   7.785   0.346  10.930 -0.1108 -0.2648 -0.7735
  122MOL0     O16734   7.911   0.328  10.891 -0.3532  0.2090  0.0627
  122MOL0     C16735   7.993   0.350  11.002  0.0775 -0.1337 -0.0947
  122MOL0     C16736   8.139   0.361  10.955 -0.3934  1.0663  0.1954
  122MOL0     C16737   8.242   0.357  11.064  0.4850 -0.1332  0.4501
  122MOL0     C16738   8.392   0.386  11.019 -0.2007 -0.8803 -0.3284
  122MOL0     C16739   8.498   0.392  11.139 -0.4215 -0.1063 -1.1736
  122MOL0     C16740   8.531   0.248  11.186  0.2889 -0.5294  0.9875
  122MOL0     C16741   8.655   0.239  11.270 -0.7150 -0.4450 -0.1967
  122MOL0     C16742   8.682   0.089  11.294  0.1165 -0.0698 -0.4021
  122MOL0    Cl16743   8.838   0.056  11.393 -0.6809  0.1800 -0.4224
  122MOL0     C16744   7.700   0.431  10.857 -0.6890 -0.1706  0.3027
  122MOL0     C16745   7.574   0.437  10.897  0.6025  0.0439  0.0282
  122MOL0     O16746   7.380   0.130  10.968 -0.3057  0.3494  0.2638
  122MOL0     C16747   7.093   0.360  11.025 -0.0268 -0.1398  0.5165
  122MOL0     C16748   6.957   0.365  11.011  1.3838  0.0543  0.0784
  122MOL0     N16749   6.140   0.716  11.049  0.4114  0.0250 -0.5407
  122MOL0     N16750   6.103   0.800  11.142  0.1345 -0.3620 -0.8718
  122MOL0     C16751   6.053   1.713  11.222 -0.0393  0.0008 -0.0029
  122MOL0     C16752   5.923   1.743  11.180  0.2648 -0.3313 -0.0879
  122MOL0     C16753   5.485   1.731  11.121 -0.1486  0.5462 -0.3478
  122MOL0     C16754   5.369   1.645  11.144 -0.1912  0.0780  0.8100
  122MOL0     C16755   5.244   1.676  11.086 -0.7974  0.0601 -0.7230
  122MOL0     C16756   5.239   1.779  10.989 -0.2602  0.2057  0.1535
  122MOL0     O16757   5.124   1.810  10.921 -0.7691 -0.5984  0.3940
  122MOL0     C16758   4.995   1.773  10.964 -0.2114 -0.6460 -0.1271
  122MOL0     C16759   4.877   1.792  10.867  0.0560  0.2355  0.9754
  122MOL0     C16760   4.884   1.692  10.745  0.6341 -0.5344 -0.2758
  122MOL0     C16761   4.774   1.712  10.640  0.0306 -0.3395 -0.0827
  122MOL0     C16762   4.637   1.685  10.690  0.3367  0.0610  0.1881
  122MOL0     C16763   4.517   1.662  10.700 -0.1381  1.0201 -0.1059
  122MOL0     C16764   5.352   1.851  10.956 -0.1971 -0.1629 -0.2583
  122MOL0     C16765   5.475   1.833  11.023 -1.0558  0.0713 -0.1718
  122MOL0     C16766   5.587   1.924  10.979 -0.3068  0.3978  0.5418
  122MOL0     H16767   5.782   1.779  11.488  2.7538  1.3079  3.6779
  122MOL0     H16768   5.999   1.717  11.563 -1.1655  1.1090 -0.1179
  122MOL0     H16769   6.171   1.588  11.560 -1.2843  1.3524 -0.5826
  122MOL0     H16770   6.240   1.747  11.586 -0.4993  0.2089  1.0225
  122MOL0     H16771   6.465   1.645  11.503 -1.9275 -0.2611 -2.3916
  122MOL0     H16772   6.397   1.572  11.645  0.8716  0.4085 -0.6855
  122MOL0     H16773   6.295   1.397  11.494 -0.4945  1.0255 -2.0804
  122MOL0     H16774   6.363   1.473  11.353  2.9750 -1.8635 -1.2821
  122MOL0     H16775   6.586   1.415  11.421 -0.4869 -2.9442 -3.1078
  122MOL0     H16776   6.518   1.346  11.571 -2.7850  2.4486  1.1546
  122MOL0     H16777   6.567   1.161  11.390 -0.0201  0.4833  0.9846
  122MOL0     H16778   6.476   1.267  11.277 -1.5989 -2.6926 -1.2110
  122MOL0     H16779   6.371   1.077  11.491  0.3045  0.5719  0.6012
  122MOL0     H16780   6.257   1.188  11.402 -1.5803 -2.5847  2.8977
  122MOL0     H16781   6.433   0.987  11.283  0.0005  0.3018  0.5750
  122MOL0     H16782   6.317   1.070  11.184 -1.0962 -1.4481 -0.5999
  122MOL0     H16783   6.265   0.861  11.411  1.7164 -0.8774 -0.8586
  122MOL0     H16784   6.131   0.960  11.342 -2.0140 -1.6848 -2.5823
  122MOL0     H16785   6.425   0.727  11.214 -0.3206 -2.1166 -0.8723
  122MOL0     H16786   6.324   0.611  10.863  0.7308 -0.3111 -0.9422
  122MOL0     H16787   6.273   0.478  10.973  1.7930 -0.7395 -1.2266
  122MOL0     H16788   6.534   0.627  10.960 -1.1442  1.3887  2.7852
  122MOL0     H16789   6.495   0.567  11.111  2.0366  0.8186 -0.6017
  122MOL0     H16790   6.477   0.336  11.032 -0.0352 -0.3202 -0.0527
  122MOL0     H16791   6.505   0.388  10.856  1.7424  0.5449 -0.6391
  122MOL0     H16792   6.728   0.469  10.912  2.0459 -1.5126  0.1591
  122MOL0     H16793   6.703   0.440  11.088 -1.7593  0.5074 -0.5604
  122MOL0     H16794   6.890   0.067  10.885  1.2664  0.0322 -1.4884
  122MOL0     H16795   7.059  -0.039  10.818 -0.6184  2.4749 -0.3655
  122MOL0     H16796   7.115  -0.071  10.981 -1.5463 -2.3018 -1.3986
  122MOL0     H16797   7.229  -0.016  10.865  1.8287  0.6317  3.0967
  122MOL0     H16798   7.567   0.213  11.157 -0.8149  0.3453 -1.0905
  122MOL0     H16799   7.801   0.189  11.069 -0.4550  0.5599  1.9474
  122MOL0     H16800   7.973   0.448  11.045  2.1975  0.8990 -1.2923
  122MOL0     H16801   7.984   0.270  11.076 -0.5676 -0.0238 -0.0478
  122MOL0     H16802   8.157   0.288  10.875 -2.5063  0.2441  0.3964
  122MOL0     H16803   8.156   0.461  10.916  0.6144  1.0433  0.5367
  122MOL0     H16804   8.240   0.255  11.103 -0.7529 -0.6754 -0.9466
  122MOL0     H16805   8.213   0.426  11.144  0.1616 -0.3691  0.5400
  122MOL0     H16806   8.394   0.477  10.959 -1.1429 -0.1398  0.7037
  122MOL0     H16807   8.421   0.302  10.955  2.2443 -0.0818 -0.3449
  122MOL0     H16808   8.590   0.448  11.115 -0.0189  0.2699  1.0591
  122MOL0     H16809   8.451   0.443  11.223  0.5303  3.4858 -2.5928
  122MOL0     H16810   8.539   0.193  11.092 -1.7547  0.4814  0.1610
  122MOL0     H16811   8.437   0.213  11.230  0.1915  0.7944  1.9110
  122MOL0     H16812   8.654   0.303  11.359 -0.6609 -2.4337  1.3145
  122MOL0     H16813   8.736   0.269  11.204  2.0467 -2.0216  2.2535
  122MOL0     H16814   8.699   0.038  11.199  1.1171 -3.6572  1.5347
  122MOL0     H16815   8.592   0.038  11.330  0.0055 -0.7794 -1.6583
  122MOL0     H16816   7.729   0.474  10.762 -2.1007 -1.4223 -0.7537
  122MOL0     H16817   7.503   0.494  10.837 -0.9957 -0.2838  1.5430
  122MOL0     H16818   7.162   0.429  11.071  0.8993 -1.2698  0.8942
  122MOL0     H16819   6.922   0.461  11.048  1.7551 -0.2786  1.3474
  122MOL0     H16820   6.126   1.693  11.144  0.5260 -0.3358  0.6041
  122MOL0     H16821   5.892   1.737  11.076  0.5839 -0.2855 -0.1873
  122MOL0     H16822   5.391   1.556  11.201 -2.5980 -0.4582  1.0266
  122MOL0     H16823   5.158   1.617  11.114 -1.7478  2.5239  2.0662
  122MOL0     H16824   4.995   1.673  11.009  1.2980 -0.1601  1.0239
  122MOL0     H16825   4.976   1.852  11.038  0.2594 -0.4500 -0.2172
  122MOL0     H16826   4.880   1.894  10.828 -0.8208  0.1624  0.6982
  122MOL0     H16827   4.788   1.779  10.930  2.1655  2.7260  4.9152
  122MOL0     H16828   4.977   1.697  10.688  0.1231 -1.4749 -1.2298
  122MOL0     H16829   4.882   1.590  10.783 -0.2752 -0.5016 -0.2031
  122MOL0     H16830   4.798   1.650  10.553 -3.5164 -1.4946 -0.3951
  122MOL0     H16831   4.778   1.811  10.594 -3.1757 -0.2754 -0.4398
  122MOL0     H16832   4.413   1.635  10.692  0.4233 -1.6617  0.7929
  122MOL0     H16833   5.349   1.927  10.878 -0.8697  0.1996  0.1143
  122MOL0     H16834   5.591   2.012  11.045 -2.9985  0.2800  0.9663
  122MOL0     H16835   5.683   1.871  10.978  0.8141  2.2027 -3.0014
  122MOL0     H16836   5.579   1.959  10.876  1.3089  0.6128  0.4668
  123MOL0     O16837   4.687  11.235   4.144  0.4550  0.5369  0.0914
  123MOL0     C16838   4.646  11.238   4.256  0.8979 -0.5482  0.3242
  123MOL0     O16839   4.735  11.272   4.366  1.0697 -0.4806 -0.2425
  123MOL0     C16840   4.861  11.227   4.354 -0.8578 -0.0183  0.0781
  123MOL0     C16841   4.972  11.316   4.350 -0.5261 -0.4200 -0.1005
  123MOL0     C16842   5.105  11.267   4.334 -0.6197 -0.3871 -1.1898
  123MOL0     C16843   5.134  11.139   4.328 -0.6441  0.6398 -0.4968
  123MOL0     O16844   5.257  11.081   4.314  0.1704 -0.9003 -0.0415
  123MOL0     C16845   5.378  11.142   4.370  0.3048  0.0333 -0.4652
  123MOL0     C16846   5.483  11.034   4.404 -0.6361  0.1362 -0.5194
  123MOL0     C16847   5.433  10.938   4.503 -0.5659  0.4568  0.4464
  123MOL0     C16848   5.502  10.952   4.639  0.1993  0.4046  0.3299
  123MOL0     C16849   5.502  10.828   4.731  0.1389  0.0283  0.3018
  123MOL0     C16850   5.369  10.818   4.806  0.2484 -0.1571  1.0608
  123MOL0     C16851   5.367  10.721   4.930 -0.0679 -0.8186  0.6816
  123MOL0     C16852   5.242  10.625   4.930  0.1020  0.8289 -0.6925
  123MOL0     N16853   5.120  10.687   5.001  0.1776 -0.1729 -0.2726
  123MOL0     C16854   4.997  10.644   4.983  0.6470  0.6584  0.1203
  123MOL0     C16855   4.929  10.709   5.080 -0.2264 -0.4005  0.4684
  123MOL0     C16856   4.782  10.690   5.100 -0.3670  0.9047  0.1257
  123MOL0     C16857   4.746  10.555   5.159  0.4295  1.0910  0.0777
  123MOL0     C16858   4.845  10.497   5.266  0.4347 -0.0123  0.2162
  123MOL0     C16859   4.828  10.559   5.399  0.1631 -0.5353 -0.0171
  123MOL0     O16860   4.688  10.564   5.444 -0.2918  0.0284 -0.2366
  123MOL0     C16861   4.657  10.620   5.569 -0.1809 -0.3192  0.5550
  123MOL0     C16862   4.750  10.672   5.663 -0.3667 -0.8360  0.6418
  123MOL0     C16863   4.710  10.699   5.795 -0.2483 -0.1819  0.2898
  123MOL0     C16864   4.822  10.736   5.891 -0.1862 -0.1132  0.2612
  123MOL0     C16865   4.571  10.700   5.830  0.0828 -0.1977  0.6447
  123MOL0     C16866   4.514  10.727   5.964  0.6233  0.4680 -0.1266
  123MOL0     O16867   4.394  10.783   5.970 -0.9842  0.0021  0.4467
  123MOL0     C16868   4.324  10.782   6.086  0.5264 -0.1801  0.1305
  123MOL0     C16869   4.254  10.665   6.128 -0.3492 -0.8847 -0.0158
  123MOL0     C16870   4.154  10.686   6.219 -0.0855 -0.3302 -0.5046
  123MOL0     C16871   4.128  10.808   6.284  0.6902 -0.2917 -0.4540
  123MOL0     O16872   4.032  10.831   6.384  0.1546  0.3436  0.2508
  123MOL0     C16873   3.971  10.725   6.453  1.0643 -0.1770  0.0031
  123MOL0     C16874   3.843  10.779   6.521 -0.0326  0.0234  0.2465
  123MOL0     C16875   3.721  10.692   6.492  0.3030 -0.9315  0.5603
  123MOL0     C16876   3.598  10.755   6.558 -0.0511  0.1755 -0.2977
  123MOL0     C16877   3.482  10.748   6.456  0.0545 -0.9612 -0.1189
  123MOL0     C16878   3.331  10.786   6.498 -0.4639 -0.3540 -0.2957
  123MOL0     C16879   3.322  10.932   6.552  0.0736  0.1403  0.8060
  123MOL0     C16880   3.176  10.966   6.593 -0.2129 -0.0626  0.1963
  123MOL0    Cl16881   3.076  11.042   6.464  0.0467  0.1015 -0.1506
  123MOL0     C16882   4.212  10.919   6.255  0.6513  0.8131 -0.5755
  123MOL0     C16883   4.302  10.909   6.146 -0.2658  0.1546  0.0680
  123MOL0     O16884   4.574  10.672   6.058  0.1424  0.5712 -0.4135
  123MOL0     C16885   4.480  10.661   5.726 -0.8047 -0.8820 -0.6703
  123MOL0     C16886   4.525  10.619   5.605 -0.1147  1.0859 -0.1709
  123MOL0     N16887   5.003  10.794   5.154 -0.1266 -0.5805 -0.8653
  123MOL0     N16888   5.123  10.773   5.103  0.8033 -0.3419  0.0825
  123MOL0     C16889   5.031  11.041   4.339 -0.2506 -0.4899 -1.1490
  123MOL0     C16890   4.894  11.088   4.347 -0.3567 -0.0761 -0.3571
  123MOL0     C16891   4.498  11.248   4.282  0.0709  0.4591 -0.3186
  123MOL0     C16892   4.409  11.293   4.179 -0.0517 -0.5475 -0.1471
  123MOL0     C16893   4.271  11.309   4.199  0.7152  0.4053 -0.5047
  123MOL0     C16894   4.213  11.277   4.321 -0.0552 -0.3131 -0.3876
  123MOL0     O16895   4.084  11.293   4.350 -0.1290  0.2787  0.1280
  123MOL0     C16896   4.054  11.436   4.337 -0.7904 -0.6330  0.1543
  123MOL0     C16897   3.923  11.486   4.405  0.1310 -0.1830  0.2019
  123MOL0     C16898   3.927  11.482   4.558  0.5371  0.0567 -0.0373
  123MOL0     C16899   3.784  11.496   4.618 -1.1223 -0.5789 -0.1547
  123MOL0     C16900   3.773  11.627   4.676  0.3565 -0.5278 -0.1215
  123MOL0     C16901   3.750  11.730   4.741 -0.0917  0.3910  0.5733
  123MOL0     C16902   4.294  11.207   4.414  0.3346  0.2118  0.4700
  123MOL0     C16903   4.434  11.203   4.401  0.3691  0.2480 -0.3832
  123MOL0     C16904   4.512  11.133   4.513 -0.3657  0.6369 -0.0880
  123MOL0     H16905   4.954  11.422   4.366 -1.0960 -0.2123 -1.8496
  123MOL0     H16906   5.187  11.339   4.335 -2.3047  1.6711  1.5618
  123MOL0     H16907   5.359  11.210   4.454  1.3776  1.7747 -1.5772
  123MOL0     H16908   5.424  11.203   4.292  2.0708 -0.4306  0.1761
  123MOL0     H16909   5.514  10.977   4.315  1.6960 -0.2048  0.4303
  123MOL0     H16910   5.575  11.085   4.433  0.8140 -2.0782 -0.9553
  123MOL0     H16911   5.324  10.934   4.503 -0.6687  2.0833 -1.2539
  123MOL0     H16912   5.459  10.836   4.472 -3.0605  0.0234 -0.4127
  123MOL0     H16913   5.604  10.990   4.636 -0.5334  3.4033  4.4791
  123MOL0     H16914   5.459  11.038   4.691 -0.6519 -0.6589  1.4623
  123MOL0     H16915   5.587  10.847   4.798  2.0925 -3.3206 -0.9246
  123MOL0     H16916   5.529  10.737   4.676 -1.6387 -1.8296  2.3009
  123MOL0     H16917   5.324  10.916   4.823 -1.1600  0.2944 -3.7707
  123MOL0     H16918   5.291  10.778   4.741  0.3574 -0.2479  0.9846
  123MOL0     H16919   5.379  10.785   5.018  3.2069 -0.7218  0.3026
  123MOL0     H16920   5.458  10.661   4.917  0.1100 -1.0464  2.7047
  123MOL0     H16921   5.213  10.599   4.828  0.3674 -1.5616 -0.2168
  123MOL0     H16922   5.269  10.530   4.978 -0.6474  2.0972  2.4808
  123MOL0     H16923   4.971  10.565   4.913  1.0469 -0.9741  1.7448
  123MOL0     H16924   4.728  10.713   5.008  0.8263  2.2156 -0.2672
  123MOL0     H16925   4.753  10.762   5.177 -0.4632 -0.4873  1.4621
  123MOL0     H16926   4.646  10.549   5.202  0.0826  3.7428 -0.2175
  123MOL0     H16927   4.755  10.497   5.067  1.5553 -0.1113  0.9030
  123MOL0     H16928   4.824  10.390   5.273 -2.7497  0.5965  2.4087
  123MOL0     H16929   4.950  10.505   5.238  0.5438 -0.0913  0.5883
  123MOL0     H16930   4.900  10.517   5.471  0.5467 -1.1604 -0.7561
  123MOL0     H16931   4.854  10.664   5.385 -2.3580 -0.0115 -1.4663
  123MOL0     H16932   4.856  10.670   5.642 -0.3947 -0.9716  0.5150
  123MOL0     H16933   4.844  10.658   5.965  2.2864 -0.7732 -1.0479
  123MOL0     H16934   4.803  10.828   5.947 -1.7207 -0.2110 -0.0681
  123MOL0     H16935   4.915  10.750   5.836  0.6727 -4.0368  0.4204
  123MOL0     H16936   4.275  10.567   6.084  2.8291 -0.7386  0.9041
  123MOL0     H16937   4.088  10.602   6.237 -1.0265 -0.2112 -2.9921
  123MOL0     H16938   3.940  10.647   6.382  1.1155 -1.0770  0.9413
  123MOL0     H16939   4.031  10.680   6.532 -1.6721 -1.2427  1.6412
  123MOL0     H16940   3.867  10.773   6.628  1.7795 -1.3501 -0.1830
  123MOL0     H16941   3.824  10.882   6.490 -0.0057  0.4776  1.6479
  123MOL0     H16942   3.730  10.591   6.533  0.6230 -0.4358  1.7583
  123MOL0     H16943   3.714  10.698   6.383 -0.4355 -0.2250  0.6449
  123MOL0     H16944   3.622  10.855   6.595 -1.8696  0.2465  0.7688
  123MOL0     H16945   3.582  10.699   6.651  1.0663 -0.1378 -0.2709
  123MOL0     H16946   3.515  10.814   6.375 -1.1911 -0.5233 -0.2922
  123MOL0     H16947   3.470  10.645   6.422 -1.8683 -0.9235  0.2986
  123MOL0     H16948   3.298  10.717   6.576  0.3312 -1.9020 -1.2866
  123MOL0     H16949   3.263  10.770   6.414  0.1924  1.4510 -1.2329
  123MOL0     H16950   3.374  11.005   6.490 -0.1290  0.7142  1.3093
  123MOL0     H16951   3.386  10.924   6.640  0.9939  3.3841  0.5497
  123MOL0     H16952   3.191  11.024   6.685 -0.1525 -0.3464  0.3653
  123MOL0     H16953   3.124  10.875   6.624 -0.7008  0.5510  1.2597
  123MOL0     H16954   4.188  11.004   6.318 -0.3829  0.0491  0.0820
  123MOL0     H16955   4.349  11.002   6.115  1.0676 -0.1609  1.0689
  123MOL0     H16956   4.373  10.655   5.744 -1.4464 -1.7483 -3.9830
  123MOL0     H16957   4.460  10.560   5.540 -0.1517  0.7623  0.1517
  123MOL0     H16958   5.071  10.940   4.344  2.3193  0.5306  0.4833
  123MOL0     H16959   4.816  11.014   4.362 -1.8826  1.4128 -0.7005
  123MOL0     H16960   4.459  11.322   4.087  0.7269 -0.7164  0.2157
  123MOL0     H16961   4.216  11.345   4.113  0.6539 -0.0444 -0.6563
  123MOL0     H16962   4.135  11.497   4.380 -2.2996  1.9227 -0.3852
  123MOL0     H16963   4.042  11.476   4.235  2.5111  0.0779 -0.0843
  123MOL0     H16964   3.846  11.417   4.369  2.4012 -0.7967 -4.0462
  123MOL0     H16965   3.890  11.586   4.376  0.9622  1.3050  3.8273
  123MOL0     H16966   3.970  11.391   4.602 -1.3019 -1.7618 -1.7742
  123MOL0     H16967   3.995  11.562   4.589  2.6011 -0.7595 -2.1909
  123MOL0     H16968   3.774  11.418   4.693  0.3442 -2.7161 -2.0534
  123MOL0     H16969   3.706  11.475   4.545 -0.5181 -2.4265 -0.3144
  123MOL0     H16970   3.732  11.813   4.806  0.7756  2.1684 -1.3248
  123MOL0     H16971   4.246  11.165   4.502 -0.0090  0.2340  0.2979
  123MOL0     H16972   4.563  11.044   4.475  2.3288  0.7281  2.8933
  123MOL0     H16973   4.594  11.199   4.544  1.0378 -1.1044  0.1049
  123MOL0     H16974   4.440  11.099   4.588 -0.4791  2.1042  0.4954
  124MOL0     O16975   4.633   3.421   6.198  0.1732  0.4321 -0.5184
  124MOL0     C16976   4.530   3.358   6.207 -0.7031 -0.8175  0.4947
  124MOL0     O16977   4.513   3.255   6.297  0.2936 -0.3105  0.0787
  124MOL0     C16978   4.626   3.220   6.367 -0.1330  0.5108  0.0073
  124MOL0     C16979   4.691   3.100   6.350  0.9801  0.2669 -0.4801
  124MOL0     C16980   4.791   3.050   6.436  0.5311  0.2418 -0.2401
  124MOL0     C16981   4.821   3.136   6.545  0.6259  0.0623  0.9694
  124MOL0     O16982   4.905   3.105   6.644  0.3493 -0.2896 -0.1221
  124MOL0     C16983   4.880   2.980   6.701 -0.4273 -0.0717 -0.5999
  124MOL0     C16984   5.002   2.952   6.791  0.6321  0.2960  0.5755
  124MOL0     C16985   5.005   2.811   6.841  0.1630 -0.1959 -0.1968
  124MOL0     C16986   5.120   2.785   6.939  0.1139  0.0014 -0.3418
  124MOL0     C16987   5.115   2.646   6.997 -0.3222  0.6537 -0.3140
  124MOL0     C16988   5.222   2.632   7.106  0.0319  0.6576  0.6486
  124MOL0     C16989   5.188   2.512   7.185 -0.1456  0.1270 -0.4280
  124MOL0     C16990   5.283   2.474   7.296 -0.4533 -0.0438  0.5290
  124MOL0     N16991   5.415   2.441   7.237 -0.3219  0.3989  0.4681
  124MOL0     C16992   5.443   2.332   7.159 -0.3059  0.8779 -0.4735
  124MOL0     C16993   5.570   2.357   7.110  0.0472 -0.3947 -0.1746
  124MOL0     C16994   5.636   2.248   7.022 -0.7310 -0.1202 -0.0348
  124MOL0     C16995   5.753   2.173   7.096 -0.1387  0.7414 -0.0135
  124MOL0     C16996   5.888   2.217   7.062 -0.1650  0.0708 -0.3861
  124MOL0     C16997   5.907   2.363   7.082 -1.0948 -0.7520  0.2793
  124MOL0     O16998   6.037   2.393   7.028  0.6180 -0.7946 -0.6701
  124MOL0     C16999   6.153   2.360   7.090 -0.0297 -0.2564 -1.0089
  124MOL0     C17000   6.274   2.404   7.036  0.1636 -0.6573 -0.5631
  124MOL0     C17001   6.392   2.384   7.102 -0.0587 -0.0956 -0.1189
  124MOL0     C17002   6.519   2.433   7.033  0.3255 -0.7548  0.1359
  124MOL0     C17003   6.402   2.312   7.224 -0.7107 -0.3507 -0.2795
  124MOL0     C17004   6.532   2.291   7.294  0.8416  0.1891 -0.3815
  124MOL0     O17005   6.606   2.407   7.302 -0.1520 -0.0937  0.5576
  124MOL0     C17006   6.694   2.410   7.400 -0.5161  0.4423 -0.0835
  124MOL0     C17007   6.690   2.533   7.477  0.2752  0.0276  0.1818
  124MOL0     C17008   6.790   2.562   7.569  0.3987  0.0120 -0.0205
  124MOL0     C17009   6.890   2.466   7.601 -0.0512 -0.1999  0.2395
  124MOL0     O17010   6.998   2.495   7.685  0.0329 -0.0028 -0.3321
  124MOL0     C17011   6.967   2.544   7.821 -0.4795 -0.1754 -0.1230
  124MOL0     C17012   7.098   2.590   7.894 -0.4565  0.2519 -0.3633
  124MOL0     C17013   7.207   2.647   7.809  0.6712  0.0991 -0.5145
  124MOL0     C17014   7.340   2.653   7.881 -1.2585 -1.1519  0.9329
  124MOL0     C17015   7.442   2.735   7.799 -0.7665 -0.2219 -0.1356
  124MOL0     C17016   7.574   2.750   7.878 -0.2282  0.3315 -0.0965
  124MOL0     C17017   7.654   2.619   7.871 -0.8500 -0.0588  0.3185
  124MOL0     C17018   7.782   2.628   7.942 -1.2358  0.2906 -0.3877
  124MOL0    Cl17019   7.762   2.704   8.095 -0.6826 -0.4784  0.4558
  124MOL0     C17020   6.890   2.355   7.534 -0.4646  0.0749  1.1858
  124MOL0     C17021   6.796   2.315   7.432  0.0874  0.7431 -0.2352
  124MOL0     O17022   6.549   2.189   7.359 -0.2101 -0.1513 -0.3027
  124MOL0     C17023   6.282   2.273   7.285 -0.3253  0.0500  0.0160
  124MOL0     C17024   6.159   2.297   7.220 -0.1842 -0.3876  0.1233
  124MOL0     N17025   5.623   2.477   7.163  0.1834  0.1861  0.0553
  124MOL0     N17026   5.523   2.529   7.235  0.2400  1.0173 -0.5207
  124MOL0     C17027   4.761   3.263   6.560 -0.2285 -0.5234  0.3807
  124MOL0     C17028   4.656   3.297   6.468  0.1215 -0.3140 -0.7768
  124MOL0     C17029   4.420   3.389   6.117  0.0754 -0.1123  0.0441
  124MOL0     C17030   4.300   3.421   6.183  0.5492 -0.0129  0.2704
  124MOL0     C17031   4.186   3.474   6.116 -0.7692 -0.4401  0.3726
  124MOL0     C17032   4.190   3.476   5.975 -0.0461 -0.2194 -0.0205
  124MOL0     O17033   4.081   3.501   5.897  0.1447  1.6264 -0.2076
  124MOL0     C17034   3.944   3.482   5.941  1.1418  0.6892 -0.3348
  124MOL0     C17035   3.920   3.334   5.969 -0.4001 -0.3715 -1.1703
  124MOL0     C17036   3.768   3.303   5.971  0.0360 -0.8898 -0.7266
  124MOL0     C17037   3.739   3.147   5.975  0.2392  0.5138  0.0141
  124MOL0     C17038   3.772   3.076   5.863 -0.2954  0.1699  0.3356
  124MOL0     C17039   3.806   3.029   5.759  0.4994  1.5130 -0.1277
  124MOL0     C17040   4.307   3.441   5.915 -0.2660  0.5877  0.4002
  124MOL0     C17041   4.420   3.393   5.976 -0.8493 -0.5022 -0.4968
  124MOL0     C17042   4.548   3.367   5.898  0.5323 -1.0993 -0.2962
  124MOL0     H17043   4.657   3.026   6.278  2.8835 -2.7965  1.5551
  124MOL0     H17044   4.833   2.950   6.432 -0.2842 -0.1612  0.7716
  124MOL0     H17045   4.884   2.910   6.617 -0.8309  0.5499 -1.1454
  124MOL0     H17046   4.783   2.978   6.752  0.0495  0.5480  0.3479
  124MOL0     H17047   5.094   2.973   6.737 -0.8679  0.5563 -2.0556
  124MOL0     H17048   5.001   3.024   6.873 -1.0963  2.4485 -1.2328
  124MOL0     H17049   4.901   2.788   6.866  0.1688 -0.1773 -0.1535
  124MOL0     H17050   5.029   2.754   6.751  0.4126  2.3101 -1.8197
  124MOL0     H17051   5.217   2.787   6.889  0.3416  1.3792  0.1104
  124MOL0     H17052   5.095   2.855   7.020  1.2212 -2.0727  1.9277
  124MOL0     H17053   5.146   2.563   6.932  0.4989 -0.5872  1.5708
  124MOL0     H17054   5.014   2.622   7.032  0.2658  0.2911  1.2042
  124MOL0     H17055   5.320   2.625   7.059  0.6234  0.2078  1.9154
  124MOL0     H17056   5.214   2.722   7.169 -3.1712  1.6667 -0.9623
  124MOL0     H17057   5.167   2.422   7.127 -0.2936  0.6970 -1.2877
  124MOL0     H17058   5.093   2.542   7.230  0.6140  1.3833  0.4145
  124MOL0     H17059   5.293   2.558   7.366 -1.8131  0.4285  0.1730
  124MOL0     H17060   5.256   2.387   7.357  1.5260 -1.3838 -0.4096
  124MOL0     H17061   5.376   2.247   7.148  1.6951 -1.0030  1.1090
  124MOL0     H17062   5.656   2.294   6.925 -1.1798  2.2133  0.9061
  124MOL0     H17063   5.567   2.170   6.988  0.4883  0.2789 -3.8684
  124MOL0     H17064   5.746   2.178   7.205 -2.5830 -1.3147  0.0259
  124MOL0     H17065   5.746   2.065   7.078 -1.3504  0.9206 -0.7746
  124MOL0     H17066   5.956   2.158   7.124 -1.6843 -1.4598 -0.1064
  124MOL0     H17067   5.905   2.188   6.958 -0.1138 -0.2782 -0.2806
  124MOL0     H17068   5.834   2.425   7.029  1.0000  1.9402  0.2935
  124MOL0     H17069   5.907   2.385   7.190 -1.0603 -1.2937  0.3941
  124MOL0     H17070   6.286   2.469   6.950  2.2891  2.2765  1.7118
  124MOL0     H17071   6.602   2.366   7.057  0.5242 -0.9024 -0.9147
  124MOL0     H17072   6.555   2.533   7.060  2.7957 -1.0938 -1.5181
  124MOL0     H17073   6.516   2.429   6.924 -2.9572  1.5800 -0.0000
  124MOL0     H17074   6.614   2.606   7.450  1.6617  1.9752  1.2989
  124MOL0     H17075   6.782   2.658   7.619  2.5914 -0.0583  0.5733
  124MOL0     H17076   6.912   2.637   7.808  1.0377  1.0989  1.8616
  124MOL0     H17077   6.906   2.476   7.881 -1.7692  1.4445  0.4800
  124MOL0     H17078   7.066   2.668   7.963 -2.7225 -1.7768  1.0530
  124MOL0     H17079   7.142   2.505   7.948  0.2250  0.3239 -0.7934
  124MOL0     H17080   7.178   2.752   7.792  0.6222  0.3750  1.1751
  124MOL0     H17081   7.214   2.590   7.716 -1.1436 -1.2749  0.1321
  124MOL0     H17082   7.382   2.555   7.905  0.8840 -0.8717 -1.2678
  124MOL0     H17083   7.310   2.702   7.975 -1.0063  0.9836 -0.0244
  124MOL0     H17084   7.470   2.679   7.710  0.3622  1.1146 -0.6589
  124MOL0     H17085   7.412   2.836   7.771  2.0648  0.4359 -1.1863
  124MOL0     H17086   7.540   2.789   7.975  0.3796  3.8539 -1.1544
  124MOL0     H17087   7.640   2.822   7.828 -1.3565  2.3090  1.1426
  124MOL0     H17088   7.686   2.602   7.767 -0.9162  0.3079  0.2348
  124MOL0     H17089   7.597   2.535   7.911 -3.4995  1.0408 -0.9168
  124MOL0     H17090   7.858   2.675   7.880 -1.0801 -0.9634 -1.1823
  124MOL0     H17091   7.831   2.531   7.953  0.6795  0.9024 -2.6683
  124MOL0     H17092   6.967   2.282   7.559 -0.1182 -0.0744 -0.2509
  124MOL0     H17093   6.804   2.230   7.366 -0.4353  2.1730 -2.2334
  124MOL0     H17094   6.275   2.223   7.381 -0.1432 -3.7113 -1.7427
  124MOL0     H17095   6.066   2.273   7.271 -0.6367 -0.4209 -0.7089
  124MOL0     H17096   4.794   3.325   6.643  1.6754 -1.0513  0.0747
  124MOL0     H17097   4.606   3.394   6.462 -1.2550 -0.9201  0.3333
  124MOL0     H17098   4.303   3.437   6.291 -0.8705  2.5901 -0.0007
  124MOL0     H17099   4.094   3.513   6.158 -1.2012  0.1703 -1.0916
  124MOL0     H17100   3.932   3.541   6.032  1.0184 -0.7411  0.6074
  124MOL0     H17101   3.877   3.515   5.861  0.5972 -1.0485 -0.6351
  124MOL0     H17102   3.968   3.302   6.062  0.9619 -3.0893 -2.6926
  124MOL0     H17103   3.966   3.275   5.888  1.8977  0.1972 -0.3565
  124MOL0     H17104   3.724   3.339   6.064  0.0235  0.8177 -1.3509
  124MOL0     H17105   3.717   3.347   5.885  1.6164  0.5420 -0.9948
  124MOL0     H17106   3.631   3.135   5.987  0.4876 -0.3578  1.6227
  124MOL0     H17107   3.787   3.100   6.061 -1.4765  3.2059  2.6528
  124MOL0     H17108   3.849   2.994   5.667 -1.0987  0.4574 -0.5155
  124MOL0     H17109   4.307   3.431   5.807 -0.2762  1.2244  0.3397
  124MOL0     H17110   4.544   3.402   5.794 -2.6004  1.4761  0.5355
  124MOL0     H17111   4.629   3.423   5.946  0.0283  1.5336 -2.2867
  124MOL0     H17112   4.574   3.261   5.904 -0.3856 -1.2478  1.7139
  125MOL0     O17113   4.014   7.152   0.836  0.0884 -0.4047  0.6064
  125MOL0     C17114   3.896   7.185   0.808 -0.5170 -0.1277 -0.5731
  125MOL0     O17115   3.839   7.306   0.817  1.2674 -0.2594  0.2057
  125MOL0     C17116   3.923   7.416   0.834 -0.0828  0.0518  0.0381
  125MOL0     C17117   4.034   7.446   0.747  0.3089  0.7442 -0.3430
  125MOL0     C17118   4.118   7.561   0.779  0.2642  0.1023 -0.9128
  125MOL0     C17119   4.074   7.645   0.888  1.4899 -0.0057 -1.4730
  125MOL0     O17120   4.157   7.748   0.919  0.4697  0.0580 -0.6980
  125MOL0     C17121   4.120   7.863   0.993 -0.1427 -0.2940  0.3868
  125MOL0     C17122   4.218   7.973   0.961 -0.3844  0.0290 -0.3836
  125MOL0     C17123   4.365   7.940   0.999 -0.0247  0.2904 -0.3207
  125MOL0     C17124   4.444   8.049   0.928  1.2119 -0.1055  0.4677
  125MOL0     C17125   4.597   8.054   0.956 -1.1279  0.0072 -0.2944
  125MOL0     C17126   4.677   8.153   0.877 -0.2803  0.0636  0.0547
  125MOL0     C17127   4.682   8.297   0.926  0.0776 -0.5891 -0.2748
  125MOL0     C17128   4.755   8.393   0.826 -0.2374  0.1098  0.1884
  125MOL0     N17129   4.892   8.349   0.807  0.1604  0.3241 -0.5596
  125MOL0     C17130   4.987   8.336   0.908  0.3310  0.5877  0.2272
  125MOL0     C17131   5.094   8.285   0.841 -0.5428  1.0518  0.6165
  125MOL0     C17132   5.233   8.291   0.905  0.1173  0.5667 -0.0142
  125MOL0     C17133   5.286   8.147   0.908 -0.0225  0.0756  0.4594
  125MOL0     C17134   5.324   8.084   0.766  0.2372  0.1951  0.3838
  125MOL0     C17135   5.360   7.937   0.779  0.3209  0.5451 -0.5786
  125MOL0     O17136   5.486   7.929   0.838 -0.1640 -0.3407 -0.2078
  125MOL0     C17137   5.603   7.938   0.761 -0.3008  0.4188  0.6279
  125MOL0     C17138   5.603   7.963   0.621  0.5105 -0.4219  0.4341
  125MOL0     C17139   5.719   7.995   0.550  0.0348 -0.4258 -0.0606
  125MOL0     C17140   5.698   8.010   0.404  0.3067  0.2234 -0.2025
  125MOL0     C17141   5.840   7.992   0.624 -0.4076  0.4943 -0.0461
  125MOL0     C17142   5.969   7.985   0.554  0.2221 -0.3811  0.2789
  125MOL0     O17143   5.966   7.956   0.422  0.9001  1.0210  0.8949
  125MOL0     C17144   6.088   7.963   0.362 -0.1399  0.2317  0.1992
  125MOL0     C17145   6.169   7.847   0.339 -0.5652 -0.7653  0.3024
  125MOL0     C17146   6.281   7.852   0.256 -0.6405 -0.0244 -0.0846
  125MOL0     C17147   6.320   7.976   0.200 -0.3400  1.2742  0.5267
  125MOL0     O17148   6.440   7.967   0.135 -0.3617  0.2818  0.1256
  125MOL0     C17149   6.507   8.089   0.085 -0.3737  0.7430  0.2453
  125MOL0     C17150   6.650   8.059   0.063 -0.6093 -0.7390  0.3607
  125MOL0     C17151   6.724   8.015   0.185  0.1579 -0.4754  0.9490
  125MOL0     C17152   6.878   8.010   0.157  0.0931 -0.5581  0.0238
  125MOL0     C17153   6.963   7.943   0.266  1.3404 -0.4061 -0.2638
  125MOL0     C17154   7.115   7.941   0.247  0.2092  0.6424 -0.6567
  125MOL0     C17155   7.207   7.882   0.366  0.3367 -0.1388  0.6822
  125MOL0     C17156   7.247   7.969   0.478 -0.0140 -0.1821 -0.0058
  125MOL0    Cl17157   7.369   8.100   0.421  0.1280  0.1215  0.1400
  125MOL0     C17158   6.236   8.090   0.211  0.7083  0.6433  0.2186
  125MOL0     C17159   6.120   8.080   0.287  0.9387 -0.9406 -0.9553
  125MOL0     O17160   6.070   7.998   0.628 -0.1244  0.1602 -0.1660
  125MOL0     C17161   5.840   7.985   0.765 -0.6580 -0.0447  0.1968
  125MOL0     C17162   5.721   7.956   0.829 -0.0201 -0.3555 -0.6332
  125MOL0     N17163   5.069   8.267   0.701  0.6336  1.1392 -0.6089
  125MOL0     N17164   4.947   8.302   0.688 -0.0897 -0.7825 -0.4014
  125MOL0     C17165   3.958   7.619   0.965  0.1427  0.8190 -0.8340
  125MOL0     C17166   3.879   7.515   0.930  0.0802 -0.3328  0.0421
  125MOL0     C17167   3.808   7.075   0.805 -0.1714  0.1101 -0.3326
  125MOL0     C17168   3.693   7.082   0.886  1.5087  0.2928  0.0223
  125MOL0     C17169   3.593   6.989   0.862 -0.0926 -0.1893 -0.3094
  125MOL0     C17170   3.604   6.887   0.778  0.8156 -0.2987  0.6947
  125MOL0     O17171   3.484   6.816   0.767  0.5866  0.3570 -0.0467
  125MOL0     C17172   3.468   6.728   0.652  0.2614  0.1943 -0.4239
  125MOL0     C17173   3.320   6.675   0.626 -0.0422 -0.3322  0.2739
  125MOL0     C17174   3.241   6.614   0.752 -0.3612 -0.3185  0.6414
  125MOL0     C17175   3.331   6.529   0.835 -0.2006 -0.0583 -1.5327
  125MOL0     C17176   3.252   6.438   0.924 -0.3378 -0.1816 -0.8780
  125MOL0     C17177   3.187   6.354   0.974  0.3624 -0.1658 -0.0123
  125MOL0     C17178   3.706   6.880   0.689 -0.0425 -0.1703  0.3960
  125MOL0     C17179   3.815   6.975   0.702 -0.1170  0.1678 -0.2609
  125MOL0     C17180   3.930   6.980   0.601 -0.4398 -0.2380  0.2333
  125MOL0     H17181   4.066   7.388   0.660  0.4674 -0.7808  0.6993
  125MOL0     H17182   4.209   7.586   0.726  2.1216 -3.3997  0.2839
  125MOL0     H17183   4.142   7.837   1.097 -0.2571  0.0917  0.5108
  125MOL0     H17184   4.014   7.890   0.993 -0.9950 -3.2309  0.6733
  125MOL0     H17185   4.204   8.014   0.861 -2.1480  0.8980  0.1829
  125MOL0     H17186   4.191   8.055   1.027  0.1712 -1.0067  1.2020
  125MOL0     H17187   4.381   7.938   1.107  1.5623 -0.6623 -0.5494
  125MOL0     H17188   4.383   7.846   0.948 -0.5448  0.3243 -0.5696
  125MOL0     H17189   4.435   8.025   0.822  0.1815  0.5844  0.3903
  125MOL0     H17190   4.406   8.146   0.961 -1.6993 -1.9424  3.1021
  125MOL0     H17191   4.642   7.958   0.928  1.2379  1.4012 -1.5979
  125MOL0     H17192   4.611   8.071   1.063 -2.5886  0.9401 -0.2257
  125MOL0     H17193   4.780   8.116   0.887 -1.1712 -2.1671  1.7438
  125MOL0     H17194   4.645   8.158   0.773  1.7384  2.8041 -0.5624
  125MOL0     H17195   4.725   8.300   1.027  0.2247  0.2926 -0.3523
  125MOL0     H17196   4.578   8.330   0.931  0.3608  0.2876  4.0849
  125MOL0     H17197   4.700   8.391   0.731  0.2700  1.5097 -0.1653
  125MOL0     H17198   4.754   8.494   0.867 -0.1812 -0.4690  1.6529
  125MOL0     H17199   4.996   8.371   1.010  2.6134  1.1686 -0.1353
  125MOL0     H17200   5.211   8.332   1.004 -1.4043 -1.6343  0.6419
  125MOL0     H17201   5.300   8.343   0.837  0.7960  0.2633  0.4141
  125MOL0     H17202   5.380   8.139   0.963  0.6806  0.3544 -0.6702
  125MOL0     H17203   5.208   8.089   0.960  0.0897  2.5497  3.6836
  125MOL0     H17204   5.247   8.091   0.689  1.6277 -1.7762 -1.2720
  125MOL0     H17205   5.413   8.133   0.725 -0.2011  0.6611 -0.0392
  125MOL0     H17206   5.293   7.876   0.841 -0.4677  1.1225 -0.8484
  125MOL0     H17207   5.363   7.884   0.684 -2.2944 -0.6683 -0.0597
  125MOL0     H17208   5.513   7.972   0.562  1.6371  0.1527 -1.2581
  125MOL0     H17209   5.595   8.022   0.368  0.5557 -1.1102 -1.4756
  125MOL0     H17210   5.732   7.922   0.349 -1.3768 -2.0672  2.1454
  125MOL0     H17211   5.751   8.100   0.371  1.9812 -0.4695  0.4768
  125MOL0     H17212   6.150   7.753   0.389  1.5144 -1.6429 -0.4597
  125MOL0     H17213   6.339   7.763   0.232  0.4795  0.8888 -0.8630
  125MOL0     H17214   6.460   8.121  -0.009 -0.7956  1.2157  0.6157
  125MOL0     H17215   6.507   8.171   0.156  3.3960  0.6823  0.4902
  125MOL0     H17216   6.656   7.989  -0.021 -2.7713  0.7067 -1.1399
  125MOL0     H17217   6.698   8.152   0.029 -3.0994  0.0695 -1.2704
  125MOL0     H17218   6.690   7.918   0.223 -1.5863 -1.0483 -1.7208
  125MOL0     H17219   6.704   8.087   0.264 -1.6527  0.0084  0.1120
  125MOL0     H17220   6.916   8.112   0.147  1.9293 -1.1866  0.1200
  125MOL0     H17221   6.889   7.953   0.065 -1.7557 -0.2303 -0.4296
  125MOL0     H17222   6.947   7.998   0.359 -3.2132 -0.3160 -0.9092
  125MOL0     H17223   6.928   7.840   0.276  2.1048 -0.7726 -1.2246
  125MOL0     H17224   7.144   8.046   0.232 -0.2877  0.7452 -0.9094
  125MOL0     H17225   7.141   7.884   0.157  3.2771  0.4973  0.2171
  125MOL0     H17226   7.292   7.841   0.309 -0.7595  1.9509 -2.7388
  125MOL0     H17227   7.166   7.791   0.412 -0.1092 -0.4048 -0.2309
  125MOL0     H17228   7.296   7.922   0.563 -1.4437 -1.3725  0.1836
  125MOL0     H17229   7.152   8.006   0.516 -0.8879 -3.9884  1.9792
  125MOL0     H17230   6.257   8.190   0.174  0.3824  0.8587  0.6079
  125MOL0     H17231   6.063   8.172   0.278  0.9621 -0.9029 -0.7321
  125MOL0     H17232   5.929   7.995   0.826  0.1595 -1.8404 -0.6489
  125MOL0     H17233   5.708   7.951   0.937  0.2114 -1.2124 -0.6330
  125MOL0     H17234   3.922   7.672   1.052 -1.6583 -3.7138  1.5189
  125MOL0     H17235   3.792   7.487   0.989  0.5567 -0.5452  0.6500
  125MOL0     H17236   3.683   7.150   0.970  1.0224  1.2647 -0.7952
  125MOL0     H17237   3.499   6.984   0.916  0.3394  0.0243  0.4815
  125MOL0     H17238   3.505   6.786   0.567  1.0896  1.4648  0.7580
  125MOL0     H17239   3.526   6.636   0.663 -0.1592  0.1606  1.9190
  125MOL0     H17240   3.322   6.599   0.548  2.8570  0.2316 -0.3174
  125MOL0     H17241   3.264   6.762   0.591 -0.0968 -0.1000  0.9102
  125MOL0     H17242   3.205   6.694   0.817  1.3173 -0.0228  1.2569
  125MOL0     H17243   3.156   6.556   0.714  0.4895 -0.2164 -1.5935
  125MOL0     H17244   3.412   6.582   0.888 -2.7281  0.8456  1.7657
  125MOL0     H17245   3.376   6.457   0.766 -2.8268 -3.1408 -0.2956
  125MOL0     H17246   3.132   6.285   1.035 -1.5496  1.4023  0.1754
  125MOL0     H17247   3.702   6.805   0.610 -1.0288  0.2541  0.0206
  125MOL0     H17248   4.028   6.953   0.642  0.2742  0.3964 -0.9957
  125MOL0     H17249   3.909   6.928   0.508  0.4342  0.9290 -0.6471
  125MOL0     H17250   3.948   7.086   0.579  2.0445 -0.1318  2.2689
  126MOL0     O17251   4.238   9.630   8.426  0.1503 -0.0635  0.0716
  126MOL0     C17252   4.262   9.726   8.361  0.1764  0.1138  0.1434
  126MOL0     O17253   4.376   9.741   8.286  0.9126 -0.7842  0.5599
  126MOL0     C17254   4.481   9.657   8.303 -0.2888 -0.7591  0.1689
  126MOL0     C17255   4.603   9.716   8.338  0.0230 -0.4633 -0.2107
  126MOL0     C17256   4.714   9.637   8.362 -0.4054 -0.6531  0.5558
  126MOL0     C17257   4.707   9.501   8.347 -0.3836 -0.0074  0.4488
  126MOL0     O17258   4.830   9.433   8.347  0.3097 -0.2448 -0.6480
  126MOL0     C17259   4.830   9.294   8.315 -0.2429  0.1017  0.1462
  126MOL0     C17260   4.949   9.213   8.364 -0.7776 -0.1086 -0.1825
  126MOL0     C17261   5.076   9.248   8.287 -0.3975 -0.1114  0.3551
  126MOL0     C17262   5.204   9.156   8.329  0.4473 -1.2841 -0.0415
  126MOL0     C17263   5.326   9.173   8.236 -0.5291  0.9949 -0.4442
  126MOL0     C17264   5.378   9.324   8.228 -0.8621 -0.0471 -0.2384
  126MOL0     C17265   5.518   9.356   8.178  0.8808  0.2648  0.9209
  126MOL0     C17266   5.518   9.336   8.035  0.4938 -0.3330  0.7414
  126MOL0     N17267   5.655   9.350   7.975 -0.2639  0.1694 -0.6747
  126MOL0     C17268   5.773   9.303   8.037 -0.0115  0.0064 -0.2333
  126MOL0     C17269   5.859   9.362   7.959  0.0427  0.6508  0.1913
  126MOL0     C17270   6.008   9.374   7.993 -0.3941 -0.0287  0.6538
  126MOL0     C17271   6.072   9.231   8.013 -1.0198 -0.3341 -0.3412
  126MOL0     C17272   6.225   9.226   8.027 -0.0971 -0.0043  1.4528
  126MOL0     C17273   6.308   9.282   7.910  0.4214  0.6096  0.4687
  126MOL0     O17274   6.415   9.197   7.877  0.6056 -0.4106  0.1705
  126MOL0     C17275   6.521   9.180   7.958 -0.0542 -0.7968 -0.3126
  126MOL0     C17276   6.542   9.241   8.086 -0.0081 -0.0860  0.0478
  126MOL0     C17277   6.658   9.214   8.162  0.2955  0.3222 -0.5493
  126MOL0     C17278   6.662   9.263   8.305  0.4549 -0.5594 -0.2908
  126MOL0     C17279   6.754   9.138   8.107 -1.1727 -0.4919 -0.0440
  126MOL0     C17280   6.890   9.116   8.181  1.3281  0.0342 -0.3904
  126MOL0     O17281   6.951   8.991   8.177  0.3871  0.2090  0.2107
  126MOL0     C17282   7.086   8.982   8.172 -0.6276 -0.0109  0.2321
  126MOL0     C17283   7.155   8.985   8.301 -0.2488 -0.3102 -0.0602
  126MOL0     C17284   7.298   8.988   8.308  0.3311  0.4022  0.3454
  126MOL0     C17285   7.378   8.994   8.191 -0.5370  0.4222  0.6397
  126MOL0     O17286   7.519   8.992   8.180 -0.0114 -0.3429 -0.0641
  126MOL0     C17287   7.592   8.998   8.304  0.1001  0.4830  0.1977
  126MOL0     C17288   7.743   9.014   8.263 -0.5333  1.0161 -0.4230
  126MOL0     C17289   7.852   8.973   8.363  0.5102 -0.3198 -0.6506
  126MOL0     C17290   7.904   8.822   8.346  0.5380 -0.4460 -0.2577
  126MOL0     C17291   7.966   8.772   8.479 -0.8135  0.7540 -0.6109
  126MOL0     C17292   8.053   8.642   8.456 -0.3250  0.1672 -1.2075
  126MOL0     C17293   8.110   8.599   8.591  0.2285  0.1804  0.5632
  126MOL0     C17294   8.199   8.470   8.575 -0.3273 -0.8634 -0.7886
  126MOL0    Cl17295   8.323   8.468   8.711  0.3637 -0.1599  0.1715
  126MOL0     C17296   7.304   8.984   8.067 -0.6690 -0.1760 -0.3146
  126MOL0     C17297   7.166   8.988   8.055  0.4717  0.7847  0.6926
  126MOL0     O17298   6.935   9.213   8.240  0.0076  0.1735  0.0098
  126MOL0     C17299   6.742   9.078   7.984  1.0748 -0.0330  0.3671
  126MOL0     C17300   6.619   9.097   7.914  0.8628 -0.1137 -0.3860
  126MOL0     N17301   5.811   9.414   7.841  0.2297 -1.2315  0.0290
  126MOL0     N17302   5.684   9.406   7.852  0.3384 -0.0294 -0.8047
  126MOL0     C17303   4.587   9.441   8.302  0.4328  0.2334  0.1775
  126MOL0     C17304   4.478   9.520   8.284 -0.3218  0.0771  0.4109
  126MOL0     C17305   4.142   9.824   8.369 -0.4994  1.1581 -0.2611
  126MOL0     C17306   4.011   9.771   8.381  0.7176 -0.5172  0.0840
  126MOL0     C17307   3.902   9.853   8.376  0.0589 -0.0852 -0.1985
  126MOL0     C17308   3.910   9.985   8.362 -0.0322 -0.2881 -0.3663
  126MOL0     O17309   3.799  10.061   8.371 -0.9750  0.2842 -0.4931
  126MOL0     C17310   3.812  10.202   8.381 -0.3616  0.6461  0.3072
  126MOL0     C17311   3.677  10.266   8.398 -0.3369  0.1732  0.3571
  126MOL0     C17312   3.657  10.377   8.302  0.1144  1.0553 -1.2912
  126MOL0     C17313   3.540  10.467   8.345  0.3562  0.3077 -0.8438
  126MOL0     C17314   3.539  10.604   8.294 -0.9846 -0.3981  0.6437
  126MOL0     C17315   3.547  10.713   8.243 -1.1183 -0.0648  0.1844
  126MOL0     C17316   4.039  10.036   8.331 -0.4356 -0.3581  0.0956
  126MOL0     C17317   4.162   9.958   8.342  0.2672 -1.3062  0.8552
  126MOL0     C17318   4.294  10.028   8.327 -0.4352  0.2802  0.3994
  126MOL0     H17319   4.608   9.824   8.338 -0.8753 -0.3803 -1.7945
  126MOL0     H17320   4.812   9.678   8.387  1.5011 -3.4172 -1.6108
  126MOL0     H17321   4.832   9.280   8.206  0.4092  2.2106 -0.1455
  126MOL0     H17322   4.742   9.248   8.361 -0.6051 -0.1073 -0.7256
  126MOL0     H17323   4.972   9.235   8.468  0.2491  0.7035 -0.5670
  126MOL0     H17324   4.932   9.105   8.361 -0.6241 -0.1185 -1.2508
  126MOL0     H17325   5.056   9.252   8.179 -2.4123  0.2585  0.6964
  126MOL0     H17326   5.112   9.346   8.317  0.2169 -0.0209 -0.6333
  126MOL0     H17327   5.232   9.175   8.433  1.4763  1.0314 -0.6745
  126MOL0     H17328   5.176   9.050   8.324 -2.9013 -0.5327  0.6985
  126MOL0     H17329   5.298   9.138   8.136 -0.6848 -1.1173  0.2871
  126MOL0     H17330   5.403   9.103   8.269 -1.0337  1.0540  0.9272
  126MOL0     H17331   5.301   9.377   8.171 -2.4386 -1.1843  0.7604
  126MOL0     H17332   5.395   9.362   8.329 -1.0191  0.9527 -0.5781
  126MOL0     H17333   5.585   9.284   8.226 -2.1431 -5.0860 -2.0285
  126MOL0     H17334   5.551   9.457   8.202 -1.2732  0.9770  1.1394
  126MOL0     H17335   5.468   9.243   8.005 -0.4996  0.3077  0.3357
  126MOL0     H17336   5.455   9.417   7.996  1.3747  1.2918  2.5226
  126MOL0     H17337   5.799   9.253   8.130 -0.3353  0.5153  0.1325
  126MOL0     H17338   6.016   9.428   8.088 -1.8084 -1.9012  1.9315
  126MOL0     H17339   6.069   9.424   7.918  2.3369 -0.0405  2.6839
  126MOL0     H17340   6.035   9.187   8.106 -0.0137  2.1498  1.3428
  126MOL0     H17341   6.052   9.161   7.932  2.2181 -1.2719 -0.4696
  126MOL0     H17342   6.261   9.268   8.121  0.9473 -1.6169  1.8183
  126MOL0     H17343   6.257   9.121   8.032  0.5480 -0.1409 -2.3187
  126MOL0     H17344   6.247   9.294   7.820  2.0792 -1.8452 -1.1040
  126MOL0     H17345   6.357   9.376   7.940  1.0374  0.8711 -1.2681
  126MOL0     H17346   6.469   9.313   8.120  0.5353 -0.4383  2.0953
  126MOL0     H17347   6.729   9.350   8.314 -0.8304  0.3952  0.2756
  126MOL0     H17348   6.708   9.196   8.378 -0.1259  1.7176  2.3317
  126MOL0     H17349   6.563   9.289   8.341  0.5559 -0.8658  0.2091
  126MOL0     H17350   7.095   8.966   8.389 -2.0893  0.3043 -1.1308
  126MOL0     H17351   7.344   8.985   8.407  1.4791 -2.9262 -0.1690
  126MOL0     H17352   7.573   9.089   8.362  0.3984  1.4017 -1.0941
  126MOL0     H17353   7.571   8.910   8.365 -1.0861 -0.6953 -1.7986
  126MOL0     H17354   7.762   8.962   8.169 -1.6178 -0.2813  0.0536
  126MOL0     H17355   7.744   9.119   8.232 -2.7071  0.6196 -2.0443
  126MOL0     H17356   7.808   8.972   8.463  1.1408 -0.1530 -0.3667
  126MOL0     H17357   7.935   9.044   8.356  1.9519 -1.9376 -0.6103
  126MOL0     H17358   7.980   8.825   8.268 -0.4143 -1.3915 -1.2624
  126MOL0     H17359   7.827   8.747   8.322 -0.2497 -0.7795  2.8461
  126MOL0     H17360   8.038   8.839   8.527 -1.8998  1.6188 -0.1669
  126MOL0     H17361   7.884   8.770   8.551 -0.3504 -0.8365 -0.0793
  126MOL0     H17362   8.140   8.671   8.396  1.0745  0.3573  0.8045
  126MOL0     H17363   7.979   8.571   8.417 -1.0490  0.3848 -0.2759
  126MOL0     H17364   8.024   8.570   8.652  0.4216 -4.8705 -1.0490
  126MOL0     H17365   8.167   8.677   8.642 -3.3978  2.7959  1.0234
  126MOL0     H17366   8.264   8.479   8.488 -1.0969 -2.3332 -1.5536
  126MOL0     H17367   8.132   8.384   8.574 -0.0706 -1.2200  2.2392
  126MOL0     H17368   7.361   8.976   7.975 -2.1801 -1.1831 -1.2006
  126MOL0     H17369   7.127   9.014   7.957 -1.0610 -0.2303  0.9992
  126MOL0     H17370   6.825   9.019   7.947  1.6511 -0.0005  1.5885
  126MOL0     H17371   6.596   9.047   7.820 -0.7457 -0.8980  0.3819
  126MOL0     H17372   4.578   9.340   8.264  1.0691 -0.2851  1.3459
  126MOL0     H17373   4.384   9.486   8.242 -0.3022  1.9169 -1.2696
  126MOL0     H17374   3.978   9.668   8.394  0.9988 -1.2742 -3.9648
  126MOL0     H17375   3.802   9.812   8.388  0.0774 -0.0784 -0.0295
  126MOL0     H17376   3.878  10.224   8.465 -1.0808  0.1491  1.0166
  126MOL0     H17377   3.862  10.242   8.292 -0.9906  0.7303 -0.0136
  126MOL0     H17378   3.666  10.301   8.501 -1.7882 -0.1697  0.3413
  126MOL0     H17379   3.596  10.195   8.379  0.0445 -0.4244  0.9288
  126MOL0     H17380   3.752  10.431   8.306  1.4968 -1.3111  2.1687
  126MOL0     H17381   3.638  10.347   8.198  2.7490 -1.1827 -1.2388
  126MOL0     H17382   3.532  10.486   8.453  4.8657  2.8726 -0.7019
  126MOL0     H17383   3.445  10.428   8.309 -0.9839  1.8020  0.8184
  126MOL0     H17384   3.554  10.816   8.217 -0.8316  0.4568  2.1722
  126MOL0     H17385   4.050  10.143   8.317 -0.7644 -0.4002 -0.5121
  126MOL0     H17386   4.368   9.987   8.397  0.7005  1.4918 -0.0371
  126MOL0     H17387   4.317  10.010   8.221  0.7156 -1.4960  0.8904
  126MOL0     H17388   4.295  10.131   8.363  0.6716  0.0981  0.9463
  127MOL0     O17389  10.199   5.593  11.321  0.1740 -0.8133 -0.5836
  127MOL0     C17390  10.172   5.509  11.238 -0.2808  0.1802 -0.3136
  127MOL0     O17391  10.229   5.502  11.111  0.6382  0.4217  1.0146
  127MOL0     C17392  10.287   5.616  11.060  0.3099  0.0648  0.1462
  127MOL0     C17393  10.215   5.702  10.979  0.8279  0.4710  0.3123
  127MOL0     C17394  10.284   5.827  10.937 -0.7427  0.7327 -0.2328
  127MOL0     C17395  10.415   5.858  10.975 -0.3690  0.4903  0.1602
  127MOL0     O17396  10.494   5.961  10.923 -1.0774 -0.7324 -0.0717
  127MOL0     C17397  10.445   6.083  10.854 -1.0184 -0.3014 -0.0417
  127MOL0     C17398  10.554   6.188  10.861  0.2442  0.2532 -0.2943
  127MOL0     C17399  10.527   6.322  10.801 -0.2850 -0.1389  0.3366
  127MOL0     C17400  10.416   6.398  10.868 -0.1819  0.2526  0.1993
  127MOL0     C17401  10.418   6.549  10.851  0.3457  0.5997 -0.0220
  127MOL0     C17402  10.295   6.632  10.911 -0.6075  0.7448  0.9080
  127MOL0     C17403  10.163   6.595  10.854  0.0717 -0.4516  1.0382
  127MOL0     C17404  10.070   6.716  10.826  0.3421 -0.5013 -1.0212
  127MOL0     N17405   9.934   6.679  10.767 -0.5590 -0.0323  0.0927
  127MOL0     C17406   9.852   6.586  10.825  0.1714 -0.4921  0.2050
  127MOL0     C17407   9.748   6.594  10.736 -0.3080  0.7378  0.3961
  127MOL0     C17408   9.637   6.490  10.734  0.5298  0.8346 -0.1372
  127MOL0     C17409   9.551   6.492  10.858  0.6164 -1.0820 -0.5615
  127MOL0     C17410   9.482   6.629  10.887  0.0074  0.1269  0.0681
  127MOL0     C17411   9.394   6.619  11.003 -0.1457 -0.1655  0.3691
  127MOL0     O17412   9.473   6.615  11.127 -0.3536  0.8006  0.2932
  127MOL0     C17413   9.406   6.585  11.242  0.3351 -0.3542  0.4310
  127MOL0     C17414   9.487   6.579  11.353  0.0014  0.2272  0.1595
  127MOL0     C17415   9.432   6.568  11.480  0.1329 -0.5914 -1.1733
  127MOL0     C17416   9.528   6.578  11.595  0.2099 -0.3745  1.2206
  127MOL0     C17417   9.293   6.539  11.506 -0.0770  1.4093 -0.0822
  127MOL0     C17418   9.224   6.506  11.627  0.0984  0.6598 -0.1551
  127MOL0     O17419   9.088   6.522  11.629  0.7282  0.4349 -0.4157
  127MOL0     C17420   9.013   6.478  11.734 -0.4847 -0.2281 -0.6746
  127MOL0     C17421   8.889   6.413  11.717  0.0616 -0.8838 -0.3610
  127MOL0     C17422   8.809   6.373  11.817 -0.3872  0.5460  0.2119
  127MOL0     C17423   8.851   6.387  11.957 -0.1912 -0.2430  0.0714
  127MOL0     O17424   8.779   6.356  12.070  0.2778  0.3719 -0.2648
  127MOL0     C17425   8.658   6.275  12.054  0.5818 -0.8441  0.2956
  127MOL0     C17426   8.578   6.281  12.181 -0.5359  0.3488 -0.4040
  127MOL0     C17427   8.532   6.420  12.220 -0.2799 -0.2506  0.2047
  127MOL0     C17428   8.463   6.426  12.356 -0.2941 -0.4967 -0.4684
  127MOL0     C17429   8.470   6.569  12.407  0.5470  0.0753  0.4795
  127MOL0     C17430   8.399   6.576  12.544 -0.3655 -0.0567 -0.2608
  127MOL0     C17431   8.404   6.726  12.602  0.4221 -0.4100  0.6532
  127MOL0     C17432   8.331   6.739  12.734  0.4870  0.5550  0.8996
  127MOL0    Cl17433   8.148   6.724  12.695  0.2592  0.0711  0.0438
  127MOL0     C17434   8.973   6.457  11.972 -0.1537 -1.0558 -0.5413
  127MOL0     C17435   9.039   6.506  11.862 -0.0840 -0.8265 -0.8908
  127MOL0     O17436   9.287   6.445  11.713  0.3511 -0.2621  0.2580
  127MOL0     C17437   9.212   6.551  11.381  0.4000  0.2593 -1.1603
  127MOL0     C17438   9.263   6.581  11.253  0.4245  0.3771  0.0243
  127MOL0     N17439   9.764   6.708  10.650  0.0397  0.4061  0.1602
  127MOL0     N17440   9.876   6.759  10.671 -0.3530  0.1032  0.9413
  127MOL0     C17441  10.477   5.771  11.062  0.2036 -0.4900  0.1452
  127MOL0     C17442  10.419   5.651  11.104 -0.2126 -0.2817 -1.1192
  127MOL0     C17443  10.063   5.412  11.279  0.7203  0.7839 -0.1807
  127MOL0     C17444   9.991   5.438  11.397  0.2273 -0.2925  0.2275
  127MOL0     C17445   9.893   5.351  11.452  0.3150  0.2288  0.3827
  127MOL0     C17446   9.864   5.229  11.380  0.0597  0.4345  0.0371
  127MOL0     O17447   9.766   5.138  11.413 -0.3344 -0.8814 -0.5305
  127MOL0     C17448   9.701   5.132  11.542  0.0567  0.0605  0.9440
  127MOL0     C17449   9.635   4.995  11.550  0.6322 -0.8982  0.3437
  127MOL0     C17450   9.564   4.978  11.679  0.3110 -0.6015 -0.1167
  127MOL0     C17451   9.532   4.827  11.709  0.1928 -0.7409  0.0553
  127MOL0     C17452   9.452   4.775  11.586 -0.0668  0.0909  0.4179
  127MOL0     C17453   9.392   4.736  11.489 -0.4013  0.5364 -0.4460
  127MOL0     C17454   9.928   5.197  11.267 -0.5876 -0.0034 -0.5047
  127MOL0     C17455  10.026   5.288  11.208  0.0969 -0.7969 -0.2213
  127MOL0     C17456  10.099   5.247  11.077  0.5085  0.6536  0.3445
  127MOL0     H17457  10.113   5.690  10.946 -0.0842  3.8242  1.5061
  127MOL0     H17458  10.235   5.890  10.864 -2.7865 -0.7366 -0.2593
  127MOL0     H17459  10.363   6.135  10.906  0.8296  0.0140  2.7583
  127MOL0     H17460  10.429   6.053  10.750  0.1461  0.4286 -0.4446
  127MOL0     H17461  10.593   6.201  10.962 -0.5010  4.1034 -0.3582
  127MOL0     H17462  10.633   6.137  10.805  2.4708 -2.3429  4.5927
  127MOL0     H17463  10.617   6.383  10.810 -0.4079  0.1638 -0.4423
  127MOL0     H17464  10.494   6.319  10.697 -3.9212  1.3010  1.2754
  127MOL0     H17465  10.320   6.363  10.830 -0.6101  1.0533  0.5194
  127MOL0     H17466  10.416   6.372  10.974  0.6067  2.7223  0.8922
  127MOL0     H17467  10.430   6.575  10.745 -0.1680  3.4058  0.5200
  127MOL0     H17468  10.504   6.592  10.904  0.4840 -0.4532  0.6440
  127MOL0     H17469  10.295   6.623  11.020  1.4911  1.0293  0.9728
  127MOL0     H17470  10.308   6.736  10.879  1.3313 -1.0257 -5.6415
  127MOL0     H17471  10.119   6.529  10.929  0.7877 -0.2312  1.6717
  127MOL0     H17472  10.170   6.549  10.755  0.5604  4.9701 -1.7950
  127MOL0     H17473  10.054   6.774  10.918  0.1007 -0.9498 -0.7779
  127MOL0     H17474  10.115   6.781  10.750 -1.9103 -1.3174 -3.1977
  127MOL0     H17475   9.866   6.533  10.919  1.2812 -1.4827 -0.5019
  127MOL0     H17476   9.684   6.393  10.717  2.0268  1.8432 -2.3034
  127MOL0     H17477   9.577   6.509  10.645  0.5838  0.2368 -0.3065
  127MOL0     H17478   9.474   6.415  10.847 -0.2553  0.0423 -2.9534
  127MOL0     H17479   9.615   6.470  10.945  0.2512 -0.6482 -0.1816
  127MOL0     H17480   9.544   6.712  10.920 -0.6068  0.7154 -0.2513
  127MOL0     H17481   9.422   6.665  10.804  0.7418  1.3047  0.0241
  127MOL0     H17482   9.320   6.699  11.007 -3.0220 -2.5484 -1.1174
  127MOL0     H17483   9.326   6.534  10.987 -2.1571  1.5858 -0.9951
  127MOL0     H17484   9.593   6.582  11.330 -0.4608 -0.5234 -2.4911
  127MOL0     H17485   9.620   6.633  11.571 -0.3741  0.8617  1.7256
  127MOL0     H17486   9.560   6.477  11.619 -0.2867 -0.6659  0.6716
  127MOL0     H17487   9.471   6.623  11.676 -2.8470 -0.5037 -0.6954
  127MOL0     H17488   8.858   6.402  11.614  1.0495 -1.3853 -0.6084
  127MOL0     H17489   8.708   6.346  11.787  0.9137 -0.0514 -4.3477
  127MOL0     H17490   8.602   6.323  11.973  2.7561  2.2477  0.4352
  127MOL0     H17491   8.692   6.175  12.024  2.0390 -0.6525  1.2024
  127MOL0     H17492   8.498   6.210  12.160 -0.9325  1.1128 -1.5618
  127MOL0     H17493   8.629   6.247  12.272 -2.2367 -1.1188  0.0575
  127MOL0     H17494   8.468   6.455  12.139 -0.1283  0.9465  0.5896
  127MOL0     H17495   8.625   6.478  12.227 -0.0666 -0.3872 -1.1905
  127MOL0     H17496   8.514   6.363  12.430 -1.9569 -0.3538  0.8437
  127MOL0     H17497   8.360   6.391  12.346  0.1713 -2.7720  1.5459
  127MOL0     H17498   8.576   6.599  12.411  0.7274 -0.4991  0.1337
  127MOL0     H17499   8.418   6.640  12.342  0.4301  1.1463  1.6886
  127MOL0     H17500   8.449   6.504  12.609 -0.5030 -0.3363 -0.4589
  127MOL0     H17501   8.292   6.554  12.532 -0.8356  2.5972 -1.7171
  127MOL0     H17502   8.366   6.798  12.529 -0.4503  1.5624  2.9264
  127MOL0     H17503   8.508   6.754  12.624 -0.3309  1.2585  2.2582
  127MOL0     H17504   8.356   6.838  12.775  1.3073 -0.4885  3.0624
  127MOL0     H17505   8.355   6.660  12.806  3.0164 -1.0314 -1.5073
  127MOL0     H17506   9.003   6.476  12.075  0.5397 -4.7750  0.0906
  127MOL0     H17507   9.132   6.562  11.876 -0.7784  0.2084 -0.2858
  127MOL0     H17508   9.108   6.522  11.389  0.8892 -1.0403  1.9459
  127MOL0     H17509   9.187   6.604  11.179 -0.4994 -0.8576  0.5550
  127MOL0     H17510  10.579   5.779  11.099 -0.4616 -0.9797  2.1895
  127MOL0     H17511  10.476   5.594  11.177  2.2798  1.2885 -1.7151
  127MOL0     H17512  10.015   5.533  11.446  1.3835 -0.7364  0.5522
  127MOL0     H17513   9.838   5.377  11.542  3.0886  1.7076  1.7901
  127MOL0     H17514   9.757   5.146  11.635 -1.7057  1.6822  1.8321
  127MOL0     H17515   9.631   5.216  11.549 -0.4391 -0.2168 -0.3025
  127MOL0     H17516   9.714   4.920  11.542  1.3587 -0.1116 -0.0424
  127MOL0     H17517   9.568   4.988  11.463 -0.0462  1.8297  0.5665
  127MOL0     H17518   9.623   5.011  11.765  1.1816  2.3478 -1.6943
  127MOL0     H17519   9.470   5.034  11.688  2.0751  2.2715  2.0637
  127MOL0     H17520   9.476   4.810  11.801  0.6592  1.7660  0.8754
  127MOL0     H17521   9.618   4.760  11.709 -2.4997 -4.6095 -2.0907
  127MOL0     H17522   9.336   4.704  11.403 -2.4992 -0.5515  1.2399
  127MOL0     H17523   9.901   5.102  11.222 -4.7068 -1.0944  3.5580
  127MOL0     H17524  10.206   5.236  11.093  0.6035 -1.5967 -1.3555
  127MOL0     H17525  10.065   5.148  11.044  0.3887 -0.0577  2.4529
  127MOL0     H17526  10.072   5.321  11.001 -1.0078  2.9692  2.9144
  128MOL0     O17527   9.632   9.343   0.526 -0.0015  0.0230 -0.0437
  128MOL0     C17528   9.528   9.361   0.469  0.3482  0.9398  0.1298
  128MOL0     O17529   9.516   9.426   0.351 -0.1458  0.8151 -0.2283
  128MOL0     C17530   9.636   9.452   0.285  0.9218 -0.0922  0.7849
  128MOL0     C17531   9.733   9.354   0.245 -1.2112 -0.1138  0.6957
  128MOL0     C17532   9.848   9.402   0.171 -0.3064 -0.3890 -0.2822
  128MOL0     C17533   9.847   9.539   0.132 -0.5408 -0.0593 -0.7477
  128MOL0     O17534   9.936   9.578   0.039 -0.3750  0.4002  0.3066
  128MOL0     C17535   9.965   9.720   0.022  0.7799  0.2646  0.5012
  128MOL0     C17536  10.113   9.744  -0.012 -0.3859  1.0123  0.0270
  128MOL0     C17537  10.176   9.649  -0.111  0.9612  0.0747 -0.5056
  128MOL0     C17538  10.318   9.694  -0.146 -0.3700 -0.1913  0.0205
  128MOL0     C17539  10.370   9.612  -0.266  0.3051 -0.0912 -0.2904
  128MOL0     C17540  10.508   9.657  -0.317 -0.2513  0.3482  0.5777
  128MOL0     C17541  10.543   9.591  -0.457 -0.2369 -0.2459 -0.1772
  128MOL0     C17542  10.666   9.664  -0.527 -0.0869  1.0773 -0.2245
  128MOL0     N17543  10.794   9.652  -0.448  0.1082 -0.1787 -0.3699
  128MOL0     C17544  10.845   9.538  -0.376  0.5961 -0.6388  0.7962
  128MOL0     C17545  10.960   9.571  -0.326  0.1073 -0.5294  0.6838
  128MOL0     C17546  11.050   9.485  -0.252 -0.3292  1.4783 -0.2026
  128MOL0     C17547  10.990   9.405  -0.144  0.8584  1.0938  0.1954
  128MOL0     C17548  11.108   9.324  -0.075 -0.3601  0.4337 -0.5015
  128MOL0     C17549  11.058   9.252   0.048 -0.6505  0.0633  0.3643
  128MOL0     O17550  11.167   9.164   0.092  0.3673 -0.2142  0.1489
  128MOL0     C17551  11.267   9.221   0.165  0.3723 -0.3435 -0.2960
  128MOL0     C17552  11.241   9.300   0.280  0.3957 -0.1273  0.3849
  128MOL0     C17553  11.347   9.352   0.354 -0.2347 -0.0091  0.2270
  128MOL0     C17554  11.295   9.418   0.485 -0.1624  0.5983 -0.3327
  128MOL0     C17555  11.475   9.341   0.314 -0.2871 -0.4510 -1.0882
  128MOL0     C17556  11.583   9.417   0.387  0.2856 -0.3745  1.0069
  128MOL0     O17557  11.696   9.335   0.386  0.5498 -0.3800  0.3479
  128MOL0     C17558  11.818   9.378   0.432 -1.1537  1.0747  0.2087
  128MOL0     C17559  11.837   9.472   0.532 -0.5533  0.1676 -0.8411
  128MOL0     C17560  11.955   9.506   0.590 -1.2757  0.5865  0.0983
  128MOL0     C17561  12.070   9.450   0.528  0.5586 -0.5840  0.3251
  128MOL0     O17562  12.199   9.494   0.562 -0.1344  0.1608 -0.3634
  128MOL0     C17563  12.210   9.599   0.656  0.7070  0.1395  0.9401
  128MOL0     C17564  12.347   9.669   0.667  0.7609  0.5340 -0.3188
  128MOL0     C17565  12.380   9.745   0.548  0.9875  0.4236 -0.2991
  128MOL0     C17566  12.527   9.740   0.529 -0.3870  0.4915  0.5718
  128MOL0     C17567  12.573   9.809   0.397  0.1762 -0.5713  0.4573
  128MOL0     C17568  12.705   9.885   0.414  0.2082 -0.3925 -0.0464
  128MOL0     C17569  12.813   9.776   0.407 -0.7248 -1.3876  0.2291
  128MOL0     C17570  12.947   9.844   0.434 -0.0238  0.1874  0.7050
  128MOL0    Cl17571  12.969  10.007   0.362 -0.2538  0.3227  0.4416
  128MOL0     C17572  12.061   9.357   0.431  0.4878  0.0220  0.0222
  128MOL0     C17573  11.936   9.318   0.382 -0.3566 -0.0262  0.5981
  128MOL0     O17574  11.560   9.526   0.446  0.9122 -0.4171  0.2294
  128MOL0     C17575  11.502   9.253   0.204 -0.2908  1.2124  0.4066
  128MOL0     C17576  11.398   9.198   0.126 -1.0209 -0.4211 -0.5146
  128MOL0     N17577  10.993   9.700  -0.373 -0.2621  1.3643  0.0903
  128MOL0     N17578  10.893   9.750  -0.443  0.8054 -0.4452  0.2759
  128MOL0     C17579   9.724   9.624   0.150  0.1898  0.2944 -0.9360
  128MOL0     C17580   9.635   9.583   0.239  0.1711  0.6237 -0.3168
  128MOL0     C17581   9.406   9.325   0.549  1.2570 -0.1999 -0.3214
  128MOL0     C17582   9.286   9.381   0.509  0.2421  0.8258 -0.2009
  128MOL0     C17583   9.167   9.364   0.574 -0.1519 -0.1820  0.0859
  128MOL0     C17584   9.153   9.278   0.686 -0.8224  0.6145  0.1299
  128MOL0     O17585   9.041   9.242   0.753 -0.2347 -0.4433 -0.2001
  128MOL0     C17586   8.924   9.317   0.707 -0.5141  0.0059  0.0065
  128MOL0     C17587   8.860   9.253   0.586  0.4413 -0.3563  0.2098
  128MOL0     C17588   8.742   9.342   0.534 -0.1256 -0.1880 -0.5507
  128MOL0     C17589   8.623   9.344   0.633  0.2921 -0.2006  0.5781
  128MOL0     C17590   8.552   9.216   0.644 -0.6337  0.3535  0.9668
  128MOL0     C17591   8.495   9.116   0.640  0.3485  0.4520  0.1995
  128MOL0     C17592   9.272   9.208   0.716  0.5835 -0.1767  0.3372
  128MOL0     C17593   9.398   9.234   0.661 -0.9277 -0.3746  0.4175
  128MOL0     C17594   9.518   9.148   0.708 -0.3740 -0.6449  0.3804
  128MOL0     H17595   9.738   9.253   0.284  0.2275 -1.5809 -2.8735
  128MOL0     H17596   9.930   9.336   0.143  3.1422  2.0438  3.1598
  128MOL0     H17597   9.934   9.782   0.107 -1.2368 -1.3255  1.0164
  128MOL0     H17598   9.903   9.727  -0.067  0.2488  0.0631  0.8495
  128MOL0     H17599  10.124   9.845  -0.054 -0.6923  1.6601  1.4405
  128MOL0     H17600  10.168   9.738   0.082  0.1954 -0.2743 -0.3761
  128MOL0     H17601  10.190   9.547  -0.076  0.4816 -1.0917 -3.4634
  128MOL0     H17602  10.108   9.656  -0.196  0.8983  0.3975 -0.4308
  128MOL0     H17603  10.328   9.799  -0.177  0.2830 -0.2176  0.1234
  128MOL0     H17604  10.384   9.692  -0.059  0.0996  1.2891 -0.2781
  128MOL0     H17605  10.301   9.604  -0.350  0.4277 -0.3459 -0.3698
  128MOL0     H17606  10.382   9.508  -0.234 -0.7321  0.0778  0.7085
  128MOL0     H17607  10.503   9.765  -0.331  0.1213  0.8449  3.6318
  128MOL0     H17608  10.594   9.645  -0.250  0.4664  2.9223  0.2133
  128MOL0     H17609  10.453   9.592  -0.518 -0.1249  1.5031 -0.3469
  128MOL0     H17610  10.564   9.483  -0.451 -2.2368 -0.9796 -3.6732
  128MOL0     H17611  10.692   9.620  -0.624 -2.7377 -3.3988  0.8508
  128MOL0     H17612  10.651   9.773  -0.533 -1.3614  1.3048  4.0322
  128MOL0     H17613  10.791   9.445  -0.370 -0.3359 -0.4971 -3.1649
  128MOL0     H17614  11.133   9.547  -0.216  1.3556  2.4511 -4.9900
  128MOL0     H17615  11.091   9.418  -0.328 -0.0322 -1.1908  2.1513
  128MOL0     H17616  10.951   9.480  -0.075 -0.2489  1.2095 -0.5295
  128MOL0     H17617  10.902   9.344  -0.166  0.7822  1.0651  0.5765
  128MOL0     H17618  11.152   9.245  -0.136  0.6236 -1.0647  1.9830
  128MOL0     H17619  11.188   9.395  -0.054  0.3437  0.6115 -3.4434
  128MOL0     H17620  11.041   9.330   0.123 -1.0521  0.9093 -0.5749
  128MOL0     H17621  10.958   9.208   0.043 -1.0135  0.9808 -0.8990
  128MOL0     H17622  11.141   9.318   0.319 -0.2355 -1.2554 -0.6285
  128MOL0     H17623  11.279   9.525   0.470  0.5274  1.2395  2.8240
  128MOL0     H17624  11.377   9.415   0.557 -1.2569 -1.2827  0.9218
  128MOL0     H17625  11.198   9.380   0.519  0.8709 -1.1016  0.8688
  128MOL0     H17626  11.750   9.511   0.584 -2.1157 -2.3671 -1.3728
  128MOL0     H17627  11.960   9.587   0.662  0.6989 -2.8543  4.3426
  128MOL0     H17628  12.136   9.674   0.628 -1.6016 -2.2180  0.3812
  128MOL0     H17629  12.192   9.561   0.756 -0.1157 -1.2410  0.2950
  128MOL0     H17630  12.343   9.730   0.758 -0.3660 -0.2306  0.1646
  128MOL0     H17631  12.416   9.585   0.682  1.0026  0.5549 -1.2998
  128MOL0     H17632  12.346   9.849   0.556  1.0272  0.4065  0.1237
  128MOL0     H17633  12.326   9.705   0.462  2.0135 -2.1202  0.1373
  128MOL0     H17634  12.550   9.633   0.522 -1.9805  0.2189 -3.9307
  128MOL0     H17635  12.582   9.781   0.614  1.8816  0.9050 -0.9989
  128MOL0     H17636  12.586   9.733   0.319  2.4381  1.3928 -1.2066
  128MOL0     H17637  12.491   9.874   0.366  0.9767  0.9485  1.4272
  128MOL0     H17638  12.716   9.930   0.514  0.6337 -6.1375  2.8879
  128MOL0     H17639  12.713   9.953   0.328 -1.1594 -0.8300 -0.5411
  128MOL0     H17640  12.810   9.730   0.308 -1.5919 -1.0704  0.1008
  128MOL0     H17641  12.805   9.696   0.481 -2.4970 -1.0130  0.4823
  128MOL0     H17642  13.022   9.776   0.391  0.7575 -2.0124  5.0183
  128MOL0     H17643  12.964   9.851   0.542  0.8075 -3.0941  0.8970
  128MOL0     H17644  12.153   9.319   0.388  0.9028  2.1536 -1.1161
  128MOL0     H17645  11.923   9.235   0.314 -1.8320 -0.4239  1.3171
  128MOL0     H17646  11.605   9.234   0.177 -0.7863 -1.9682  0.4266
  128MOL0     H17647  11.420   9.140   0.037 -2.3839 -0.5055 -0.8204
  128MOL0     H17648   9.709   9.727   0.119 -0.9688  0.4104 -0.0505
  128MOL0     H17649   9.547   9.642   0.263 -0.1758 -0.4673  1.1661
  128MOL0     H17650   9.283   9.444   0.420  1.2441  1.9125  0.5069
  128MOL0     H17651   9.087   9.424   0.531 -0.8240 -1.7573 -0.9260
  128MOL0     H17652   8.863   9.300   0.796 -0.8120 -0.4050 -0.2708
  128MOL0     H17653   8.938   9.425   0.697  0.0072 -0.2203 -2.0569
  128MOL0     H17654   8.827   9.152   0.613 -2.2577  0.9521  2.3518
  128MOL0     H17655   8.930   9.244   0.503  0.0300  0.1072 -0.1956
  128MOL0     H17656   8.790   9.438   0.517 -2.9047  1.1635 -1.3328
  128MOL0     H17657   8.707   9.322   0.433  0.4651  3.0938 -1.5044
  128MOL0     H17658   8.541   9.406   0.597  0.7574  1.1628  1.7498
  128MOL0     H17659   8.657   9.380   0.730  1.5886 -0.7699  0.3537
  128MOL0     H17660   8.437   9.027   0.630 -0.9403  1.0942  1.5641
  128MOL0     H17661   9.260   9.151   0.808 -0.6653  1.6929  1.4210
  128MOL0     H17662   9.597   9.137   0.633  1.2904 -2.5058  2.2767
  128MOL0     H17663   9.562   9.194   0.797  2.3036 -3.4369  0.6390
  128MOL0     H17664   9.477   9.051   0.736  1.5747 -2.2850 -2.0856
  129MOL0     O17665  10.036   9.882   9.080  0.4827  0.1094 -0.1766
  129MOL0     C17666   9.976   9.833   9.172  0.6820  0.4997 -0.8139
  129MOL0     O17667  10.034   9.757   9.273 -0.4510 -0.3004 -0.1682
  129MOL0     C17668  10.168   9.718   9.273  0.4186  0.4918  0.4987
  129MOL0     C17669  10.231   9.691   9.388  0.8048 -0.3899  0.1099
  129MOL0     C17670  10.359   9.633   9.391 -0.1363  0.2501  0.5479
  129MOL0     C17671  10.431   9.603   9.276  0.4323 -0.0859  0.0782
  129MOL0     O17672  10.563   9.558   9.306 -0.1487  0.5722  0.1738
  129MOL0     C17673  10.665   9.589   9.206 -0.1458  0.2907  0.4124
  129MOL0     C17674  10.802   9.553   9.269 -0.4602  0.5414 -0.2279
  129MOL0     C17675  10.835   9.396   9.273 -0.1845 -0.0335 -0.1075
  129MOL0     C17676  10.975   9.372   9.337  0.8561 -0.2751  0.8495
  129MOL0     C17677  11.081   9.413   9.233  0.2587  0.1351  1.0507
  129MOL0     C17678  11.211   9.399   9.295  0.4708  1.0625 -0.4327
  129MOL0     C17679  11.319   9.467   9.228  0.2440  0.4547 -0.8187
  129MOL0     C17680  11.452   9.401   9.266 -0.3131 -0.1194  0.2405
  129MOL0     N17681  11.575   9.487   9.227  0.0526 -0.0305  0.7898
  129MOL0     C17682  11.588   9.620   9.239  0.0481  0.2642 -1.1891
  129MOL0     C17683  11.708   9.655   9.185  1.0821 -0.4536  0.0212
  129MOL0     C17684  11.762   9.793   9.176 -0.2328 -0.6400  0.5849
  129MOL0     C17685  11.914   9.799   9.204 -0.1580  0.4584 -0.0949
  129MOL0     C17686  11.944   9.801   9.354  0.2525  0.3808  0.3110
  129MOL0     C17687  12.099   9.781   9.374  1.1498  0.5037 -0.8058
  129MOL0     O17688  12.133   9.784   9.513  0.3718 -0.6214 -0.1731
  129MOL0     C17689  12.270   9.792   9.529  0.4919 -0.1446 -0.0435
  129MOL0     C17690  12.326   9.862   9.636 -0.6841 -0.2234  0.2671
  129MOL0     C17691  12.466   9.862   9.655  0.5050 -0.1000  0.1332
  129MOL0     C17692  12.512   9.928   9.783  0.1532 -0.1367  0.5064
  129MOL0     C17693  12.553   9.790   9.577  0.1785 -0.4099 -0.4285
  129MOL0     C17694  12.703   9.807   9.589  0.0487 -0.9672 -1.6474
  129MOL0     O17695  12.764   9.918   9.643  0.2340 -0.2990  0.9496
  129MOL0     C17696  12.900   9.907   9.677  0.5688 -1.2781  0.1854
  129MOL0     C17697  12.937   9.902   9.809 -0.8058  0.4592 -0.6384
  129MOL0     C17698  13.079   9.912   9.839 -0.5752  0.2620  0.2342
  129MOL0     C17699  13.177   9.916   9.741  0.5715  0.4911 -0.3611
  129MOL0     O17700  13.311   9.891   9.764  0.6072 -0.3542  0.6054
  129MOL0     C17701  13.403   9.970   9.686  0.1738  0.0315  0.0491
  129MOL0     C17702  13.491   9.892   9.584 -0.3206 -0.4473 -0.7133
  129MOL0     C17703  13.581   9.976   9.504 -0.7894 -0.8492 -0.5889
  129MOL0     C17704  13.653   9.911   9.390  0.6383  0.2422  0.2552
  129MOL0     C17705  13.775   9.992   9.345  0.1805 -0.2592 -0.0432
  129MOL0     C17706  13.821   9.931   9.217 -0.8178  0.7632 -0.0909
  129MOL0     C17707  13.960   9.980   9.167  0.1966  1.0155 -0.0495
  129MOL0     C17708  14.032   9.881   9.081  1.2188 -0.0658 -0.4201
  129MOL0    Cl17709  14.095   9.755   9.192 -0.3148  0.3677  0.4901
  129MOL0     C17710  13.132   9.922   9.608  0.0669 -0.3063  0.5109
  129MOL0     C17711  13.000   9.908   9.577  0.4932 -0.3259  0.7075
  129MOL0     O17712  12.762   9.708   9.543  0.3863  0.4669  0.3452
  129MOL0     C17713  12.502   9.719   9.471 -0.3414  0.6027  0.0485
  129MOL0     C17714  12.361   9.721   9.444  0.0414 -0.4909 -0.4512
  129MOL0     N17715  11.767   9.535   9.157  0.4893  0.4026  1.0176
  129MOL0     N17716  11.684   9.435   9.169 -0.5402 -0.5162  0.4005
  129MOL0     C17717  10.366   9.634   9.160 -0.2361 -1.1603  0.1023
  129MOL0     C17718  10.239   9.690   9.156 -0.1637  0.0749 -0.4133
  129MOL0     C17719   9.827   9.858   9.191 -1.1560  0.4148  0.7617
  129MOL0     C17720   9.760   9.854   9.312 -0.3035  0.5355 -0.3500
  129MOL0     C17721   9.627   9.893   9.328  1.0099 -0.1537  0.4833
  129MOL0     C17722   9.553   9.932   9.216 -0.0588 -0.3063  0.3206
  129MOL0     O17723   9.429   9.986   9.246 -0.0334  0.0439  0.2912
  129MOL0     C17724   9.354  10.061   9.146  0.0761 -0.5365 -1.1313
  129MOL0     C17725   9.250  10.155   9.203  0.5505  0.3534  0.1349
  129MOL0     C17726   9.128  10.076   9.259  0.1098 -0.2060 -0.1843
  129MOL0     C17727   9.026  10.161   9.342 -0.8550  0.3330  0.5161
  129MOL0     C17728   9.092  10.216   9.462  0.1560 -0.8051  0.2034
  129MOL0     C17729   9.145  10.259   9.556 -0.2206 -0.0221  0.1847
  129MOL0     C17730   9.610   9.913   9.097 -0.8437 -0.3980  0.7303
  129MOL0     C17731   9.742   9.865   9.077  0.4072 -1.8975  0.0489
  129MOL0     C17732   9.780   9.850   8.923  0.2610 -0.0750 -0.1401
  129MOL0     H17733  10.181   9.715   9.481 -0.6106 -0.8976 -0.4828
  129MOL0     H17734  10.401   9.596   9.484 -0.4963 -3.2759 -0.5507
  129MOL0     H17735  10.659   9.694   9.179 -1.1070  1.3814  4.3620
  129MOL0     H17736  10.651   9.528   9.116  1.6187  2.7216 -1.6636
  129MOL0     H17737  10.880   9.594   9.205 -2.2026  0.8987 -2.2443
  129MOL0     H17738  10.815   9.601   9.366  2.1528 -1.4219  0.5218
  129MOL0     H17739  10.764   9.348   9.341  0.3734  2.9363  2.8880
  129MOL0     H17740  10.844   9.351   9.174  1.1151 -1.4930  0.6372
  129MOL0     H17741  10.980   9.436   9.425 -0.8499 -0.4877  1.1367
  129MOL0     H17742  10.991   9.271   9.376  1.0963 -0.2543  0.8074
  129MOL0     H17743  11.074   9.520   9.212  0.2412  0.0917  0.8301
  129MOL0     H17744  11.074   9.355   9.140 -1.5980  1.5616  0.2168
  129MOL0     H17745  11.206   9.431   9.400  4.0808 -1.6883  0.7996
  129MOL0     H17746  11.235   9.293   9.292 -0.9783  0.7189 -0.2708
  129MOL0     H17747  11.318   9.573   9.254  1.7969  0.0352  1.2108
  129MOL0     H17748  11.309   9.460   9.119  0.4707 -2.1067 -0.7311
  129MOL0     H17749  11.471   9.388   9.373 -1.7774  0.4501  0.5871
  129MOL0     H17750  11.466   9.302   9.222  1.8055  0.4527 -0.5059
  129MOL0     H17751  11.513   9.687   9.280  0.1608  1.7347 -3.2311
  129MOL0     H17752  11.709   9.855   9.249  3.0766  2.2080  0.8202
  129MOL0     H17753  11.744   9.826   9.073  2.4695  1.2970  0.6152
  129MOL0     H17754  11.959   9.710   9.158 -0.7756  1.0185 -1.9052
  129MOL0     H17755  11.956   9.890   9.160  2.5242 -0.9967 -0.7247
  129MOL0     H17756  11.918   9.894   9.407 -1.1181 -0.5304  1.3103
  129MOL0     H17757  11.878   9.727   9.400  0.9597 -0.7915 -0.5361
  129MOL0     H17758  12.136   9.689   9.328  0.0175 -0.1244 -0.4801
  129MOL0     H17759  12.151   9.866   9.329 -0.9896  2.0669 -0.4581
  129MOL0     H17760  12.260   9.896   9.715 -0.5359  0.3478  0.1501
  129MOL0     H17761  12.557  10.023   9.752 -0.8447  0.9812  2.3104
  129MOL0     H17762  12.585   9.859   9.826 -1.0754 -2.7134 -1.2324
  129MOL0     H17763  12.436   9.962   9.854  0.5150  0.3671  0.6554
  129MOL0     H17764  12.868   9.902   9.893  0.6894 -0.1306  0.6459
  129MOL0     H17765  13.124   9.908   9.938  1.5310  1.7562 -0.5945
  129MOL0     H17766  13.350  10.058   9.648  1.8152 -0.1247 -2.8231
  129MOL0     H17767  13.472  10.004   9.764  1.1744  1.1640 -1.2799
  129MOL0     H17768  13.559   9.827   9.640  0.2581  1.2111  0.6048
  129MOL0     H17769  13.432   9.824   9.522 -0.0192  0.4861 -2.0614
  129MOL0     H17770  13.652  10.015   9.578 -1.9263  2.0598 -0.9359
  129MOL0     H17771  13.526  10.062   9.465 -1.3241 -0.3512  1.1833
  129MOL0     H17772  13.588   9.910   9.302 -2.1103  4.5718  1.9446
  129MOL0     H17773  13.680   9.807   9.412 -2.6699 -0.7609  0.2009
  129MOL0     H17774  13.745  10.097   9.331  0.3612 -0.3416 -1.1244
  129MOL0     H17775  13.850   9.984   9.425  1.8134 -0.5613 -1.5631
  129MOL0     H17776  13.746   9.950   9.140  0.6986  2.5384 -1.2191
  129MOL0     H17777  13.835   9.822   9.224  1.1381  0.8196 -2.1496
  129MOL0     H17778  14.019  10.001   9.257 -2.8162 -0.0079  2.3460
  129MOL0     H17779  13.953  10.075   9.114  2.2851  0.1802 -1.9598
  129MOL0     H17780  14.108   9.932   9.021  0.1901 -0.7576 -2.4062
  129MOL0     H17781  13.958   9.833   9.015 -0.8518 -0.2797  1.9054
  129MOL0     H17782  13.209   9.918   9.531 -0.0616  1.0599  0.2752
  129MOL0     H17783  12.984   9.900   9.470  0.0472  1.5883  0.6070
  129MOL0     H17784  12.564   9.654   9.410  1.6516  1.2303  1.3205
  129MOL0     H17785  12.337   9.669   9.352 -1.8847  2.8804 -2.0618
  129MOL0     H17786  10.414   9.619   9.063  3.6226  1.2125  1.4151
  129MOL0     H17787  10.199   9.703   9.056  0.2371 -0.6754 -0.6848
  129MOL0     H17788   9.815   9.835   9.404 -2.6174 -0.0981  0.9860
  129MOL0     H17789   9.579   9.907   9.424  0.5803  1.9380  0.0256
  129MOL0     H17790   9.426  10.108   9.078  0.8805 -2.2228 -1.5220
  129MOL0     H17791   9.309   9.989   9.078 -0.5225  0.4267 -1.7693
  129MOL0     H17792   9.214  10.208   9.114  1.8708 -0.1278 -0.7208
  129MOL0     H17793   9.290  10.228   9.273  0.2093 -0.3383  1.0643
  129MOL0     H17794   9.075  10.044   9.169 -0.2584 -0.2180  0.0342
  129MOL0     H17795   9.151   9.984   9.314 -2.9302 -0.5577  0.6491
  129MOL0     H17796   8.962  10.083   9.384 -1.0703 -0.1357 -0.6674
  129MOL0     H17797   8.976  10.240   9.285  3.7256  2.8223 -0.4858
  129MOL0     H17798   9.208  10.296   9.635  3.9204  0.4973 -3.0202
  129MOL0     H17799   9.560   9.938   9.005  2.6252  1.2233 -0.9218
  129MOL0     H17800   9.870   9.788   8.925 -0.2040 -0.7915  2.6553
  129MOL0     H17801   9.694   9.814   8.866 -1.3489  1.4929  1.1597
  129MOL0     H17802   9.803   9.943   8.869 -1.8245 -0.8508 -2.5532
  130MOL0     O17803   1.082  10.911   9.631 -0.1508  0.3479  0.0324
  130MOL0     C17804   1.044  11.009   9.692  0.4218  0.3557 -0.3966
  130MOL0     O17805   1.112  11.123   9.704  0.1833  0.9718  0.3319
  130MOL0     C17806   1.237  11.135   9.645  0.2444 -0.0518  0.1896
  130MOL0     C17807   1.267  11.211   9.525 -0.4293 -0.4806  0.5286
  130MOL0     C17808   1.399  11.231   9.487 -0.1503  0.9891  0.8937
  130MOL0     C17809   1.505  11.158   9.543 -1.0496 -0.3091  0.1551
  130MOL0     O17810   1.629  11.169   9.476  0.4161 -0.5032 -0.0075
  130MOL0     C17811   1.741  11.090   9.519  0.0451 -0.0688 -0.5089
  130MOL0     C17812   1.849  11.131   9.411 -0.7846 -0.6083 -0.6818
  130MOL0     C17813   1.987  11.079   9.432  0.7592  0.4402 -0.7404
  130MOL0     C17814   2.092  11.146   9.343  0.2480 -0.3675 -0.9841
  130MOL0     C17815   2.231  11.096   9.360 -0.6239  0.0439  0.4154
  130MOL0     C17816   2.312  11.137   9.235 -0.1677  0.4388 -0.2506
  130MOL0     C17817   2.459  11.086   9.257  0.5233  0.5156  0.1858
  130MOL0     C17818   2.524  11.056   9.124 -0.5493 -1.0773 -0.1214
  130MOL0     N17819   2.661  11.016   9.139  0.0523 -0.0747 -0.5802
  130MOL0     C17820   2.752  11.108   9.187  0.7529 -0.1584 -0.6036
  130MOL0     C17821   2.869  11.059   9.149  0.1329  0.2365  0.4006
  130MOL0     C17822   2.995  11.127   9.154 -0.5692 -0.3088  0.3985
  130MOL0     C17823   3.024  11.201   9.027  0.4538  0.2973  0.4352
  130MOL0     C17824   3.169  11.270   9.025  1.3484  0.0991  0.6676
  130MOL0     C17825   3.278  11.185   8.984  0.9524  0.0359  0.6529
  130MOL0     O17826   3.287  11.063   9.056  0.0278 -0.3345 -0.1578
  130MOL0     C17827   3.417  11.028   9.084 -0.1055 -0.0745 -0.1612
  130MOL0     C17828   3.513  10.993   8.989  0.5338  0.6698 -0.3776
  130MOL0     C17829   3.647  10.957   9.016 -0.2337 -0.6151 -0.4488
  130MOL0     C17830   3.722  10.911   8.903 -0.4945  0.3842 -0.0255
  130MOL0     C17831   3.690  10.984   9.149 -0.9758  0.2275 -1.0169
  130MOL0     C17832   3.838  10.986   9.182 -0.6191  0.0659  0.1243
  130MOL0     O17833   3.944  10.973   9.092 -0.0804 -0.4979  0.3337
  130MOL0     C17834   4.069  10.969   9.146 -0.3885  0.5175  0.5029
  130MOL0     C17835   4.155  11.074   9.115  0.0278 -0.8920 -0.5736
  130MOL0     C17836   4.288  11.074   9.164  0.2607  0.9576 -0.2339
  130MOL0     C17837   4.334  10.973   9.250  0.8837 -0.9936 -0.2653
  130MOL0     O17838   4.464  10.983   9.299 -0.3884 -0.1749 -0.1881
  130MOL0     C17839   4.529  10.879   9.379  0.4703  0.2204  1.4031
  130MOL0     C17840   4.566  10.752   9.314  0.1422  0.0092 -0.3573
  130MOL0     C17841   4.668  10.770   9.206 -0.1564 -0.4428  0.3003
  130MOL0     C17842   4.808  10.807   9.262  0.4663  0.1600 -0.7230
  130MOL0     C17843   4.915  10.818   9.157 -0.2687 -0.0660  0.6487
  130MOL0     C17844   5.035  10.886   9.206 -0.0632  0.0425  0.7763
  130MOL0     C17845   5.105  10.809   9.316  0.1806  0.5206  0.1992
  130MOL0     C17846   5.243  10.873   9.335  0.0016 -0.3144  0.4819
  130MOL0    Cl17847   5.345  10.860   9.180 -0.3009  0.4306  0.3819
  130MOL0     C17848   4.236  10.881   9.296 -0.9140  0.5406  0.4630
  130MOL0     C17849   4.113  10.871   9.238  0.1032 -0.8729 -0.6259
  130MOL0     O17850   3.857  11.005   9.297 -0.0824  0.3769 -0.3892
  130MOL0     C17851   3.600  11.027   9.248  1.4404 -0.2254 -0.0120
  130MOL0     C17852   3.466  11.046   9.208 -1.2042 -0.2335 -0.4217
  130MOL0     N17853   2.850  10.933   9.080  1.1043 -0.0295  0.0465
  130MOL0     N17854   2.724  10.917   9.074  0.4514  0.3826  0.3697
  130MOL0     C17855   1.477  11.078   9.653  0.1934 -0.0498  0.6660
  130MOL0     C17856   1.345  11.073   9.709 -0.2228  0.0976  0.2710
  130MOL0     C17857   0.915  10.979   9.767 -0.4171  0.5903  0.3660
  130MOL0     C17858   0.860  10.850   9.778  0.2407  1.4384 -0.4741
  130MOL0     C17859   0.761  10.813   9.867 -0.0964 -1.2548 -0.4996
  130MOL0     C17860   0.695  10.914   9.944 -0.6202 -0.6395  0.3136
  130MOL0     O17861   0.601  10.895  10.043 -0.1995 -0.6447  0.1731
  130MOL0     C17862   0.567  10.766  10.086  0.7921  0.2879  0.1606
  130MOL0     C17863   0.674  10.734  10.189 -0.6284  0.5241  0.0272
  130MOL0     C17864   0.642  10.600  10.247 -0.0269 -1.2353 -0.0877
  130MOL0     C17865   0.761  10.562  10.338  1.1362 -0.4728 -0.0210
  130MOL0     C17866   0.728  10.436  10.419 -0.3629 -0.0535  0.4988
  130MOL0     C17867   0.700  10.337  10.488 -0.2227 -0.6885  1.3443
  130MOL0     C17868   0.735  11.048   9.916 -0.7044  0.1112 -0.5811
  130MOL0     C17869   0.847  11.083   9.842  0.7597 -0.1746  0.7244
  130MOL0     C17870   0.887  11.228   9.834  0.3096 -0.2855  0.1457
  130MOL0     H17871   1.188  11.266   9.477 -2.4302 -1.4999  2.4877
  130MOL0     H17872   1.419  11.282   9.394 -1.5330  0.9422  0.5462
  130MOL0     H17873   1.721  10.983   9.508  2.2699 -0.4032 -1.9885
  130MOL0     H17874   1.771  11.119   9.620  2.3857 -1.0145 -0.8761
  130MOL0     H17875   1.813  11.089   9.317  0.1217 -2.7980 -0.1091
  130MOL0     H17876   1.853  11.240   9.402 -0.6636 -0.3131  1.9223
  130MOL0     H17877   2.012  11.091   9.538 -2.6124  2.0302  0.0189
  130MOL0     H17878   1.973  10.972   9.415 -3.6983  0.7811 -0.3155
  130MOL0     H17879   2.065  11.129   9.238 -1.1181 -2.8228 -0.3260
  130MOL0     H17880   2.088  11.254   9.358  2.1309 -0.0604 -2.3474
  130MOL0     H17881   2.233  10.990   9.385 -0.6510 -0.8367 -2.8764
  130MOL0     H17882   2.278  11.141   9.448  0.1317  0.8679 -0.3778
  130MOL0     H17883   2.264  11.087   9.151  0.6371 -2.7783  1.0676
  130MOL0     H17884   2.308  11.246   9.230 -1.7860  0.5150  1.4736
  130MOL0     H17885   2.461  10.990   9.310 -0.7990  0.3009 -0.1240
  130MOL0     H17886   2.522  11.162   9.304  3.3243 -1.2044 -0.5612
  130MOL0     H17887   2.464  10.987   9.064 -1.0845 -0.0368 -0.8000
  130MOL0     H17888   2.530  11.150   9.069 -2.9428 -0.5948  0.3099
  130MOL0     H17889   2.727  11.206   9.227 -0.6586 -1.0237  0.7570
  130MOL0     H17890   3.070  11.048   9.162 -1.1404 -0.8656  0.3742
  130MOL0     H17891   3.004  11.201   9.234 -0.3403  1.8939 -1.5798
  130MOL0     H17892   2.998  11.151   8.934  1.4369  2.3837 -1.0399
  130MOL0     H17893   2.945  11.275   9.041 -1.3773 -1.3859 -0.6410
  130MOL0     H17894   3.163  11.360   8.963  2.5653 -0.2529  0.0039
  130MOL0     H17895   3.193  11.291   9.130 -0.5201 -2.7763  1.8117
  130MOL0     H17896   3.254  11.146   8.884 -0.3170 -0.9066  1.3040
  130MOL0     H17897   3.372  11.241   8.993  2.0608 -2.0515  3.1432
  130MOL0     H17898   3.476  10.980   8.888  3.1507 -2.7222 -1.0662
  130MOL0     H17899   3.657  10.889   8.818 -3.3628  0.7740  1.8966
  130MOL0     H17900   3.784  10.823   8.921 -2.1986 -0.3556  2.8629
  130MOL0     H17901   3.784  10.996   8.872  3.6659 -2.0694  0.8970
  130MOL0     H17902   4.122  11.153   9.049 -2.1132 -1.3368 -0.1088
  130MOL0     H17903   4.359  11.148   9.129 -0.2422 -0.0177 -3.7598
  130MOL0     H17904   4.618  10.930   9.415  0.8755  0.7105 -0.2113
  130MOL0     H17905   4.462  10.855   9.462 -2.8544  4.2592  0.2279
  130MOL0     H17906   4.600  10.695   9.401  1.3477  1.7275  0.3415
  130MOL0     H17907   4.474  10.705   9.277 -0.5292 -0.9224  2.2652
  130MOL0     H17908   4.635  10.847   9.135  0.1380  1.0135  1.6836
  130MOL0     H17909   4.666  10.675   9.152  0.9607 -0.6023  0.5284
  130MOL0     H17910   4.833  10.734   9.340 -1.5314 -1.7660 -1.7580
  130MOL0     H17911   4.796  10.899   9.319 -1.2037 -2.6247  4.0244
  130MOL0     H17912   4.946  10.720   9.117  0.0901  0.3518 -0.1122
  130MOL0     H17913   4.874  10.870   9.071 -1.5002 -0.0397  1.2408
  130MOL0     H17914   5.005  10.983   9.246  0.7264 -0.0305  1.5735
  130MOL0     H17915   5.104  10.899   9.122  0.1528  0.8517  1.0776
  130MOL0     H17916   5.111  10.705   9.281  2.5333  0.3037  1.1030
  130MOL0     H17917   5.042  10.801   9.405 -0.6776  0.4453 -0.4009
  130MOL0     H17918   5.301  10.817   9.410 -1.3566 -1.3396  0.8041
  130MOL0     H17919   5.240  10.978   9.366 -1.2320 -0.2066  0.0487
  130MOL0     H17920   4.267  10.798   9.358  0.6353  1.1433  0.5389
  130MOL0     H17921   4.046  10.791   9.268 -0.1595 -0.9057 -1.2868
  130MOL0     H17922   3.624  11.042   9.352 -0.2746 -3.2086  0.9354
  130MOL0     H17923   3.394  11.087   9.278 -1.2645  0.4373 -0.8580
  130MOL0     H17924   1.552  11.013   9.697 -0.1821  0.2265  1.7458
  130MOL0     H17925   1.318  11.031   9.805  0.1359  1.5338  1.0266
  130MOL0     H17926   0.895  10.763   9.724 -0.6160 -0.0751  1.3112
  130MOL0     H17927   0.727  10.710   9.872 -0.9233 -1.2052 -3.2757
  130MOL0     H17928   0.468  10.781  10.130 -0.6464 -2.0961 -1.9896
  130MOL0     H17929   0.558  10.690  10.008  0.7573 -0.1652  0.5983
  130MOL0     H17930   0.676  10.808  10.270 -0.7517 -2.2728  2.7550
  130MOL0     H17931   0.774  10.727  10.147 -0.2565 -2.0150  1.1808
  130MOL0     H17932   0.554  10.608  10.311  0.1886 -0.0281  0.0762
  130MOL0     H17933   0.630  10.528  10.165  1.8475 -1.0714 -0.5531
  130MOL0     H17934   0.772  10.644  10.410  1.1688 -0.0789 -0.4757
  130MOL0     H17935   0.853  10.535  10.285  0.3940 -3.3263 -0.0320
  130MOL0     H17936   0.672  10.248  10.540 -0.6576 -3.1317 -2.7234
  130MOL0     H17937   0.688  11.132   9.965  1.2590  0.4040  0.9577
  130MOL0     H17938   0.802  11.294   9.853 -4.1138 -4.5318 -2.3165
  130MOL0     H17939   0.961  11.238   9.914  2.6098 -0.7821 -1.7947
  130MOL0     H17940   0.929  11.257   9.737  0.5538 -2.4338 -0.4583
  131MOL0     O17941   8.572   7.792   6.301  0.0418  0.2525  0.2725
  131MOL0     C17942   8.617   7.714   6.388  0.7148  0.6941  0.9292
  131MOL0     O17943   8.548   7.675   6.497 -0.2765  0.1098 -0.7308
  131MOL0     C17944   8.418   7.710   6.513  0.3906 -0.0740 -0.1608
  131MOL0     C17945   8.376   7.756   6.642 -0.4261  0.5805  0.5079
  131MOL0     C17946   8.250   7.784   6.673 -0.2168 -0.6923  0.5675
  131MOL0     C17947   8.148   7.771   6.571  0.1579  1.2741  0.0998
  131MOL0     O17948   8.016   7.803   6.587 -0.0900 -0.6339 -0.5328
  131MOL0     C17949   7.975   7.874   6.710  0.2015 -0.1593  0.6090
  131MOL0     C17950   7.819   7.900   6.717 -0.1195  0.5834  0.2220
  131MOL0     C17951   7.783   8.005   6.820  0.0078 -0.0641  1.1535
  131MOL0     C17952   7.636   8.021   6.856 -0.4937  0.1631  0.3827
  131MOL0     C17953   7.579   7.907   6.930  0.2381 -0.2779 -0.3845
  131MOL0     C17954   7.423   7.922   6.954 -0.4013  0.5573  0.4619
  131MOL0     C17955   7.361   7.792   7.013  0.5332 -0.1646  0.4279
  131MOL0     C17956   7.216   7.797   7.018 -0.1606 -0.1839  1.0986
  131MOL0     N17957   7.173   7.652   7.047  0.4623 -0.8839  0.1626
  131MOL0     C17958   7.098   7.578   6.959  0.1926  0.5136 -0.2570
  131MOL0     C17959   7.076   7.457   7.018 -0.1149  0.0650 -0.7437
  131MOL0     C17960   6.996   7.341   6.965 -0.3180  0.9784  0.1204
  131MOL0     C17961   7.071   7.211   6.959 -0.4056  0.1785  0.8334
  131MOL0     C17962   7.005   7.122   6.855  0.3515  0.9611  1.1145
  131MOL0     C17963   7.084   6.995   6.818 -0.3539  0.5458  0.2277
  131MOL0     O17964   7.009   6.938   6.709  0.5696  0.0857 -0.8054
  131MOL0     C17965   7.061   6.815   6.667 -0.6762 -1.3251  0.4253
  131MOL0     C17966   7.188   6.809   6.609 -0.2661  1.4500  0.5136
  131MOL0     C17967   7.232   6.693   6.544 -0.2324  0.4629  0.5038
  131MOL0     C17968   7.375   6.699   6.494  0.5211 -0.9890 -0.5100
  131MOL0     C17969   7.164   6.571   6.551  1.3637  0.3982  0.8834
  131MOL0     C17970   7.221   6.443   6.506  0.5715 -0.2738  0.0987
  131MOL0     O17971   7.175   6.331   6.565  0.2715 -0.1392  0.0065
  131MOL0     C17972   7.221   6.209   6.535  0.3541  1.2597 -0.3808
  131MOL0     C17973   7.235   6.115   6.636  0.2631  0.2154  0.4774
  131MOL0     C17974   7.270   5.980   6.609  0.6640 -0.4040  0.4058
  131MOL0     C17975   7.281   5.940   6.478  0.2125 -0.1382  0.1286
  131MOL0     O17976   7.304   5.813   6.441 -0.6122  0.0811 -0.0241
  131MOL0     C17977   7.377   5.720   6.524  0.6485  0.2897  1.3745
  131MOL0     C17978   7.428   5.599   6.445  0.8552 -0.5088 -0.6610
  131MOL0     C17979   7.510   5.512   6.534 -0.3451 -0.0487 -0.1837
  131MOL0     C17980   7.590   5.403   6.452 -0.8785  0.0117 -0.3687
  131MOL0     C17981   7.667   5.315   6.553 -0.1391  0.8123 -0.9162
  131MOL0     C17982   7.717   5.189   6.496 -0.1185  0.3077  0.2503
  131MOL0     C17983   7.770   5.108   6.611 -0.6198  0.1357  0.7470
  131MOL0     C17984   7.767   4.959   6.578 -0.4282  0.4517  0.6582
  131MOL0    Cl17985   7.846   4.888   6.440  0.1605  0.1953 -0.0672
  131MOL0     C17986   7.265   6.032   6.377 -0.2000 -0.4117 -0.2838
  131MOL0     C17987   7.234   6.162   6.409 -0.3618  1.0518 -0.4400
  131MOL0     O17988   7.312   6.443   6.416  0.4438  0.4192 -0.5749
  131MOL0     C17989   7.033   6.578   6.601  0.7331  0.0581 -0.3410
  131MOL0     C17990   6.982   6.699   6.651  0.3915 -0.1118 -0.5537
  131MOL0     N17991   7.151   7.458   7.133 -0.0360 -0.3183 -0.3775
  131MOL0     N17992   7.208   7.578   7.158  0.9983 -0.1667 -0.2178
  131MOL0     C17993   8.181   7.726   6.443  0.3342 -0.3883 -0.3696
  131MOL0     C17994   8.324   7.700   6.412 -0.1585 -0.3125  0.3477
  131MOL0     C17995   8.756   7.679   6.385 -0.5924 -0.3074 -0.1063
  131MOL0     C17996   8.823   7.651   6.507  0.8346 -0.6659 -0.2283
  131MOL0     C17997   8.962   7.631   6.514  0.2267 -0.6462 -0.0591
  131MOL0     C17998   9.042   7.645   6.399  0.0610  0.1285  0.4124
  131MOL0     O17999   9.176   7.626   6.395 -0.3389 -0.0109 -0.0058
  131MOL0     C18000   9.248   7.612   6.510  0.1565  0.2023  0.1021
  131MOL0     C18001   9.399   7.619   6.478  0.3679  0.1561  0.5904
  131MOL0     C18002   9.483   7.616   6.610  1.2677 -1.1084  0.3340
  131MOL0     C18003   9.594   7.518   6.609 -0.0201  0.0384  0.0645
  131MOL0     C18004   9.683   7.529   6.489 -0.0426  0.4633  0.0841
  131MOL0     C18005   9.768   7.533   6.403 -0.6773 -0.0840 -0.2344
  131MOL0     C18006   8.979   7.663   6.277  0.1321  0.3565 -0.0394
  131MOL0     C18007   8.839   7.674   6.262  0.4047 -0.5314 -1.0728
  131MOL0     C18008   8.779   7.697   6.124 -0.3536  0.1002 -0.0467
  131MOL0     H18009   8.448   7.761   6.723 -0.4347 -2.0924  0.7930
  131MOL0     H18010   8.225   7.821   6.772 -1.7892 -0.5914  0.1656
  131MOL0     H18011   8.031   7.968   6.705  1.4311 -0.8968  0.3520
  131MOL0     H18012   7.995   7.818   6.802 -0.6359 -1.5524 -0.0199
  131MOL0     H18013   7.782   7.912   6.615  0.4236 -2.6144 -0.4731
  131MOL0     H18014   7.775   7.804   6.746 -2.8141  1.1684 -1.5668
  131MOL0     H18015   7.834   7.974   6.912  3.2676 -1.6506 -1.0231
  131MOL0     H18016   7.817   8.106   6.795 -2.2559  0.6630  0.7662
  131MOL0     H18017   7.643   8.107   6.923  1.4546 -0.3691  0.9400
  131MOL0     H18018   7.586   8.036   6.760  1.4030 -0.2520 -0.7330
  131MOL0     H18019   7.632   7.887   7.024 -0.9857 -0.7941  0.2217
  131MOL0     H18020   7.600   7.822   6.864  2.6699 -0.4940  0.5908
  131MOL0     H18021   7.419   8.007   7.023 -2.8163 -0.3217  1.5194
  131MOL0     H18022   7.361   7.941   6.866  2.8017 -0.5760 -2.2290
  131MOL0     H18023   7.410   7.768   7.108  1.7974  1.3843  0.2193
  131MOL0     H18024   7.375   7.705   6.948 -2.9024  0.3299 -1.1537
  131MOL0     H18025   7.177   7.851   7.105  0.2965 -1.1940  1.9518
  131MOL0     H18026   7.167   7.848   6.934  1.3241  0.5893  0.6683
  131MOL0     H18027   7.047   7.619   6.872  2.5797  3.0463 -0.6016
  131MOL0     H18028   6.970   7.377   6.864 -0.0664 -0.0011 -0.3003
  131MOL0     H18029   6.903   7.332   7.022  0.6665 -0.5096  1.5748
  131MOL0     H18030   7.175   7.228   6.932 -1.2958  1.1551 -2.4894
  131MOL0     H18031   7.067   7.178   7.063 -0.7564 -0.3319  0.6619
  131MOL0     H18032   6.908   7.088   6.892  0.5313 -1.3866 -0.3687
  131MOL0     H18033   6.983   7.176   6.763 -2.4714 -0.6152  0.7501
  131MOL0     H18034   7.185   7.023   6.788 -0.5837  1.1016 -0.0420
  131MOL0     H18035   7.094   6.928   6.904 -0.9157 -0.2081 -0.2770
  131MOL0     H18036   7.246   6.901   6.603 -1.8005  2.3580 -2.4462
  131MOL0     H18037   7.447   6.638   6.549  1.1521  0.0522 -0.1365
  131MOL0     H18038   7.422   6.798   6.502  1.4271 -1.5720  2.8682
  131MOL0     H18039   7.374   6.666   6.390 -1.5178 -0.0098 -0.8525
  131MOL0     H18040   7.224   6.137   6.741  1.1604 -2.8879  1.3008
  131MOL0     H18041   7.290   5.901   6.680  0.8671  1.3904  2.4278
  131MOL0     H18042   7.467   5.773   6.557  2.0561 -1.5106  0.6592
  131MOL0     H18043   7.327   5.682   6.613 -0.0602 -1.9489  0.0937
  131MOL0     H18044   7.341   5.543   6.409  0.8112 -1.0783  0.2830
  131MOL0     H18045   7.495   5.629   6.364 -0.8406 -2.3498 -2.8965
  131MOL0     H18046   7.446   5.455   6.603  0.7171  1.9134  2.6170
  131MOL0     H18047   7.582   5.569   6.594 -1.4202  0.1384  0.9895
  131MOL0     H18048   7.662   5.452   6.385 -0.2514  0.5685  0.6840
  131MOL0     H18049   7.522   5.349   6.386 -0.3795 -1.9405  0.6334
  131MOL0     H18050   7.754   5.355   6.607 -0.5452 -3.1536  3.2541
  131MOL0     H18051   7.593   5.303   6.632  0.5475  2.5944  0.0632
  131MOL0     H18052   7.804   5.194   6.430  1.3802 -0.6734  2.0217
  131MOL0     H18053   7.628   5.143   6.454  0.2607 -1.7118  1.5007
  131MOL0     H18054   7.710   5.125   6.701  0.4648  1.3947  1.2642
  131MOL0     H18055   7.873   5.137   6.632  0.0095  0.1273 -1.9372
  131MOL0     H18056   7.666   4.924   6.558 -0.9699  2.0193  0.4990
  131MOL0     H18057   7.810   4.907   6.664 -0.1689  0.5939  0.6162
  131MOL0     H18058   7.271   6.000   6.273  0.0230  2.4584 -1.2482
  131MOL0     H18059   7.212   6.225   6.323 -0.3648  2.4105  0.5279
  131MOL0     H18060   6.977   6.486   6.587  2.0938 -0.4957 -2.7224
  131MOL0     H18061   6.881   6.706   6.689  0.4139 -1.0078 -0.3048
  131MOL0     H18062   8.107   7.719   6.364  1.3489  1.7134 -1.5802
  131MOL0     H18063   8.357   7.668   6.314 -0.1735  1.0231 -0.1136
  131MOL0     H18064   8.773   7.642   6.603 -0.4303  1.4095 -0.6246
  131MOL0     H18065   9.002   7.613   6.614 -0.7493 -1.7949  0.1557
  131MOL0     H18066   9.220   7.691   6.580  0.7279  0.1990  0.3425
  131MOL0     H18067   9.235   7.520   6.567  0.2335 -0.7385 -1.3514
  131MOL0     H18068   9.417   7.692   6.398 -1.8066 -0.1860 -0.2714
  131MOL0     H18069   9.408   7.524   6.423 -0.9635 -0.1849  0.9264
  131MOL0     H18070   9.513   7.721   6.619 -0.8760 -0.5316  1.7251
  131MOL0     H18071   9.424   7.595   6.700 -1.0052  1.1115 -0.5035
  131MOL0     H18072   9.566   7.413   6.605  1.7060 -0.4203 -1.9266
  131MOL0     H18073   9.646   7.543   6.702 -1.9905  3.8374  0.3497
  131MOL0     H18074   9.856   7.529   6.343 -1.1820 -0.6384 -0.9418
  131MOL0     H18075   9.042   7.662   6.189 -0.2050 -0.0656 -0.2826
  131MOL0     H18076   8.843   7.665   6.041  2.6446  0.0747  2.1062
  131MOL0     H18077   8.688   7.639   6.109 -0.7995  0.6056  0.6334
  131MOL0     H18078   8.760   7.803   6.106 -1.2989 -0.4495 -2.7298
  132MOL0     O18079   5.244   1.774   9.608  0.1305  0.2424 -0.0101
  132MOL0     C18080   5.173   1.681   9.638  0.0102  0.6772  0.3027
  132MOL0     O18081   5.198   1.588   9.737  0.6428  0.5808 -0.2286
  132MOL0     C18082   5.320   1.605   9.805 -0.3982 -0.2618 -0.2788
  132MOL0     C18083   5.447   1.586   9.749  0.2219  0.8437 -0.4102
  132MOL0     C18084   5.562   1.592   9.830  0.4617 -0.1117  0.2555
  132MOL0     C18085   5.546   1.624   9.969  0.0386 -0.4284  0.6176
  132MOL0     O18086   5.655   1.651  10.046 -0.6483  0.4001  0.5777
  132MOL0     C18087   5.780   1.583  10.012 -0.0312  0.2316  0.8912
  132MOL0     C18088   5.891   1.599  10.120 -0.2861  0.3421 -0.0310
  132MOL0     C18089   6.027   1.547  10.073 -0.1367 -0.7555 -0.9386
  132MOL0     C18090   6.137   1.616  10.163 -0.3917  0.0799  0.0633
  132MOL0     C18091   6.277   1.580  10.115  0.5696 -0.2732 -0.0910
  132MOL0     C18092   6.332   1.438  10.154  0.0883 -0.2436 -0.1171
  132MOL0     C18093   6.477   1.424  10.112  0.0173  0.3865  0.5407
  132MOL0     C18094   6.540   1.297  10.169 -0.1827  0.2398 -0.4376
  132MOL0     N18095   6.685   1.302  10.163  0.0789 -1.1262  0.3953
  132MOL0     C18096   6.769   1.315  10.051 -0.6298  0.5018  0.2419
  132MOL0     C18097   6.897   1.292  10.105 -0.2315  0.2749 -0.0705
  132MOL0     C18098   7.025   1.274  10.028 -1.1985 -0.6265 -0.0521
  132MOL0     C18099   7.152   1.319  10.105 -0.1337 -0.4310  0.5048
  132MOL0     C18100   7.272   1.301  10.016  0.4124 -0.0125 -1.2582
  132MOL0     C18101   7.398   1.345  10.087  0.0472 -0.7910 -0.2863
  132MOL0     O18102   7.412   1.487  10.109 -0.4900  0.4738  0.1976
  132MOL0     C18103   7.535   1.516  10.142  0.4440  0.3703 -0.5197
  132MOL0     C18104   7.590   1.615  10.074  0.1442  0.3986  0.1084
  132MOL0     C18105   7.725   1.650  10.091  0.1405  0.1367  0.0894
  132MOL0     C18106   7.799   1.736   9.993  0.4373 -0.2546 -0.4582
  132MOL0     C18107   7.797   1.596  10.200  0.1249 -0.4840 -0.4888
  132MOL0     C18108   7.932   1.649  10.238  0.9472  1.1066 -0.5079
  132MOL0     O18109   8.022   1.543  10.261  0.1038  0.5762  0.5985
  132MOL0     C18110   8.149   1.576  10.308  0.6742  0.9807 -0.0319
  132MOL0     C18111   8.191   1.494  10.418  0.9054 -0.6188  1.3202
  132MOL0     C18112   8.325   1.494  10.461  1.0319  0.4452  0.6409
  132MOL0     C18113   8.417   1.572  10.403 -0.0440  0.0451 -0.4599
  132MOL0     O18114   8.550   1.563  10.441  0.7019  0.5610 -0.1577
  132MOL0     C18115   8.650   1.596  10.339 -0.2236 -0.1695 -0.0928
  132MOL0     C18116   8.788   1.549  10.380  0.2689 -0.2113  0.2642
  132MOL0     C18117   8.813   1.577  10.527 -0.2069  0.6542 -0.3630
  132MOL0     C18118   8.954   1.555  10.568 -0.0645  0.5904  0.3938
  132MOL0     C18119   8.998   1.601  10.709  0.3086 -0.0182 -0.1638
  132MOL0     C18120   8.991   1.755  10.721 -0.2330  0.0038 -0.2953
  132MOL0     C18121   9.054   1.841  10.618  0.5237  0.1501 -0.0754
  132MOL0     C18122   9.200   1.810  10.607  0.2221 -0.8507 -0.1423
  132MOL0    Cl18123   9.298   1.935  10.535  0.2627 -0.4620  0.2893
  132MOL0     C18124   8.371   1.659  10.305 -0.7222  0.2201 -0.5998
  132MOL0     C18125   8.242   1.658  10.254  0.5045  0.2533  0.2024
  132MOL0     O18126   7.952   1.766  10.255  0.1637  0.4099 -0.6457
  132MOL0     C18127   7.737   1.505  10.288 -0.1177 -0.4564  0.4791
  132MOL0     C18128   7.605   1.463  10.253  0.5670 -0.1756 -0.1020
  132MOL0     N18129   6.887   1.272  10.236  0.2619  0.1449  0.2344
  132MOL0     N18130   6.766   1.281  10.273  0.1754  0.2556 -0.2816
  132MOL0     C18131   5.420   1.640  10.024  0.1444  0.3576  0.1295
  132MOL0     C18132   5.313   1.629   9.938 -0.6473 -0.0169 -0.1676
  132MOL0     C18133   5.039   1.684   9.568 -0.7635  0.7667 -0.6334
  132MOL0     C18134   5.000   1.564   9.509 -1.0738 -0.1295  0.4343
  132MOL0     C18135   4.871   1.542   9.463  0.5121 -0.1488 -0.2023
  132MOL0     C18136   4.774   1.653   9.459 -0.7844 -0.4078 -1.0245
  132MOL0     O18137   4.646   1.641   9.415  0.1400  0.2516 -0.2249
  132MOL0     C18138   4.616   1.536   9.327 -0.2596  0.3638  0.3488
  132MOL0     C18139   4.476   1.558   9.253  0.3192 -0.0172  0.2698
  132MOL0     C18140   4.382   1.619   9.343  0.2638  0.1299 -0.6814
  132MOL0     C18141   4.363   1.539   9.474 -0.4749  0.1637 -0.3120
  132MOL0     C18142   4.244   1.584   9.551  0.5150 -0.1922  0.0791
  132MOL0     C18143   4.133   1.616   9.599 -0.4515 -0.4167  0.7026
  132MOL0     C18144   4.823   1.774   9.509  0.8029 -0.8251  0.4646
  132MOL0     C18145   4.949   1.792   9.562 -1.0585 -0.8364  0.5448
  132MOL0     C18146   4.983   1.938   9.595 -0.2968  0.4482  1.1442
  132MOL0     H18147   5.442   1.544   9.649 -2.1126  2.7429 -1.2001
  132MOL0     H18148   5.657   1.558   9.791  0.8637  0.9514  0.3015
  132MOL0     H18149   5.820   1.618   9.917 -1.6968  0.1890  0.1367
  132MOL0     H18150   5.771   1.475  10.004 -1.1604  0.1318  2.7452
  132MOL0     H18151   5.898   1.708  10.130  1.6004  0.1149  2.0242
  132MOL0     H18152   5.867   1.543  10.211 -0.9527 -0.1401 -0.5005
  132MOL0     H18153   6.024   1.438  10.082  1.1030 -0.6449  1.9096
  132MOL0     H18154   6.055   1.567   9.970 -0.7016  3.7347 -0.4135
  132MOL0     H18155   6.114   1.722  10.160 -0.6166  0.0212 -0.5951
  132MOL0     H18156   6.123   1.571  10.262  2.7905  1.6746  1.3803
  132MOL0     H18157   6.350   1.643  10.166  0.9496 -0.6843 -0.1147
  132MOL0     H18158   6.293   1.602  10.009  0.1169  1.5763  0.1822
  132MOL0     H18159   6.320   1.430  10.263 -3.0582  0.8018 -0.2825
  132MOL0     H18160   6.279   1.351  10.114 -1.6646 -0.1728  1.8505
  132MOL0     H18161   6.535   1.508  10.151 -0.8596  2.0872 -1.6153
  132MOL0     H18162   6.487   1.423  10.003 -2.2160 -1.4816  0.2728
  132MOL0     H18163   6.509   1.276  10.272 -2.4736 -0.6152 -1.2209
  132MOL0     H18164   6.498   1.211  10.117 -2.1699  0.0850  1.2504
  132MOL0     H18165   6.742   1.320   9.946  2.3817 -0.1219 -0.6538
  132MOL0     H18166   7.025   1.330   9.934 -1.1851  0.2749  0.4835
  132MOL0     H18167   7.043   1.170   9.999  4.7854  0.6566 -2.3332
  132MOL0     H18168   7.144   1.417  10.153 -1.5564 -1.2256  1.9708
  132MOL0     H18169   7.158   1.260  10.196 -3.4932  0.3851  1.3961
  132MOL0     H18170   7.283   1.193  10.004 -1.2208 -0.4920  0.9740
  132MOL0     H18171   7.261   1.357   9.922  1.4404  1.2453 -0.6583
  132MOL0     H18172   7.393   1.282  10.176  0.9793 -1.1274 -0.4619
  132MOL0     H18173   7.477   1.309  10.020 -0.7890  0.6853 -2.1735
  132MOL0     H18174   7.532   1.670  10.001 -4.9646 -1.9558  1.9707
  132MOL0     H18175   7.759   1.747   9.892  2.3563 -1.0493 -1.3589
  132MOL0     H18176   7.897   1.691   9.971  0.4247 -1.0682  1.0207
  132MOL0     H18177   7.810   1.837  10.034  0.1937 -1.1368  1.9528
  132MOL0     H18178   8.122   1.417  10.452 -0.8185 -0.6334 -1.7582
  132MOL0     H18179   8.356   1.416  10.530  1.5032 -1.9627 -2.0913
  132MOL0     H18180   8.625   1.556  10.240 -0.8343  0.0355 -0.0259
  132MOL0     H18181   8.656   1.705  10.338  0.3881 -0.2015 -0.1521
  132MOL0     H18182   8.800   1.443  10.356  2.1518 -0.2068  1.0219
  132MOL0     H18183   8.864   1.601  10.320 -0.6291 -0.6974 -1.3432
  132MOL0     H18184   8.743   1.514  10.582  0.9522 -1.6302 -1.3784
  132MOL0     H18185   8.781   1.681  10.543 -1.8666  0.0332  0.5664
  132MOL0     H18186   9.021   1.608  10.499  1.5651 -3.7022 -1.6788
  132MOL0     H18187   8.972   1.448  10.553 -0.9586  0.7482 -2.5561
  132MOL0     H18188   8.940   1.558  10.791 -0.5286  0.0729 -0.6963
  132MOL0     H18189   9.101   1.567  10.723  0.3956  0.6858  1.0064
  132MOL0     H18190   9.040   1.773  10.817 -1.3475  0.2176  0.2537
  132MOL0     H18191   8.886   1.787  10.725  0.1123  1.2703 -0.9775
  132MOL0     H18192   9.040   1.948  10.633 -1.3438  0.2656 -2.1184
  132MOL0     H18193   9.005   1.843  10.520  1.3309  2.3118 -0.4865
  132MOL0     H18194   9.229   1.718  10.556  1.1029  0.2156 -1.6659
  132MOL0     H18195   9.235   1.802  10.710 -1.6579 -1.0748  0.5167
  132MOL0     H18196   8.442   1.718  10.248 -1.5966 -3.4709 -6.4125
  132MOL0     H18197   8.220   1.715  10.164  1.7861  3.1155  1.5701
  132MOL0     H18198   7.785   1.471  10.379  1.5918  0.2278 -0.1063
  132MOL0     H18199   7.568   1.391  10.326  0.9215 -0.7769 -0.5001
  132MOL0     H18200   5.411   1.655  10.131  2.8115 -0.7480  0.5829
  132MOL0     H18201   5.216   1.636   9.988  0.3407 -0.0705  1.8560
  132MOL0     H18202   5.072   1.483   9.515 -0.9983  0.0272  2.9261
  132MOL0     H18203   4.854   1.445   9.418 -1.0843  0.1646 -0.3334
  132MOL0     H18204   4.698   1.526   9.255 -0.2202 -3.1228  0.7115
  132MOL0     H18205   4.606   1.437   9.373 -1.9533 -0.3958 -1.4750
  132MOL0     H18206   4.437   1.458   9.232  1.4273 -0.6882  1.2678
  132MOL0     H18207   4.494   1.614   9.162  2.3886  2.3070  1.9621
  132MOL0     H18208   4.414   1.722   9.360  2.0425  0.0949 -3.2548
  132MOL0     H18209   4.284   1.622   9.293 -2.1414  2.1223  3.5889
  132MOL0     H18210   4.445   1.560   9.542 -2.1318  4.0852  0.7645
  132MOL0     H18211   4.350   1.434   9.445  0.0928  0.0657 -0.2187
  132MOL0     H18212   4.043   1.640   9.651 -2.1983 -1.3153 -1.7292
  132MOL0     H18213   4.755   1.859   9.505  1.2305 -0.4216  1.3736
  132MOL0     H18214   5.030   1.954   9.693  0.9007 -0.4392  0.7382
  132MOL0     H18215   5.057   1.964   9.519  1.4252  0.4749  2.7562
  132MOL0     H18216   4.893   2.000   9.586  0.5623  1.3720 -2.4031
  133MOL0     O18217  10.838   5.506  10.790  0.9623  0.6496 -0.1417
  133MOL0     C18218  10.772   5.468  10.697  1.1869  0.4636  0.1946
  133MOL0     O18219  10.779   5.513  10.569  0.7319 -0.6036  0.3489
  133MOL0     C18220  10.888   5.591  10.534  1.5209  0.8548 -0.5011
  133MOL0     C18221  10.979   5.539  10.436 -0.2888 -0.5782  0.9843
  133MOL0     C18222  11.095   5.612  10.416 -0.8784  0.1148 -0.8977
  133MOL0     C18223  11.119   5.731  10.483 -0.8152 -0.9891 -0.2484
  133MOL0     O18224  11.240   5.794  10.463 -0.0160 -0.9803  0.3761
  133MOL0     C18225  11.238   5.857  10.332 -0.5026  0.2226 -0.0786
  133MOL0     C18226  11.373   5.920  10.303 -0.1013 -0.5412 -0.9571
  133MOL0     C18227  11.377   5.987  10.159  0.4926 -0.6664  0.0843
  133MOL0     C18228  11.514   6.048  10.139 -0.3560  0.3841 -0.1546
  133MOL0     C18229  11.543   6.095   9.996  0.7022  0.5046  0.1980
  133MOL0     C18230  11.665   6.188   9.987  0.0984 -0.8699 -0.6950
  133MOL0     C18231  11.711   6.188   9.837  0.3488  0.2426 -0.0642
  133MOL0     C18232  11.801   6.304   9.824 -0.2225 -0.0928  0.2078
  133MOL0     N18233  11.923   6.285   9.900 -0.3444 -0.5808  0.5034
  133MOL0     C18234  12.033   6.210   9.853  1.1747 -0.2294  0.5544
  133MOL0     C18235  12.134   6.223   9.948  0.1686 -0.0140  0.5926
  133MOL0     C18236  12.270   6.162   9.947  0.2077  0.0575  0.2745
  133MOL0     C18237  12.301   6.075   9.818  0.5861 -0.1513 -0.7933
  133MOL0     C18238  12.433   6.002   9.824  0.1105  0.1984  0.6871
  133MOL0     C18239  12.448   5.911   9.699 -0.4602  0.4396  0.7783
  133MOL0     O18240  12.572   5.832   9.702  0.4127  0.4874 -0.1718
  133MOL0     C18241  12.684   5.901   9.679 -0.2574 -0.8691  0.9676
  133MOL0     C18242  12.712   5.923   9.545 -0.6804  0.4082 -0.8701
  133MOL0     C18243  12.831   5.998   9.512  0.2716  0.4116 -0.7290
  133MOL0     C18244  12.870   6.020   9.368  0.3517  0.1044 -1.1569
  133MOL0     C18245  12.925   6.029   9.622  0.7481 -0.4365 -0.0584
  133MOL0     C18246  13.045   6.111   9.604  0.4221  0.2125  0.0893
  133MOL0     O18247  13.044   6.215   9.512 -0.3591  0.9333 -0.3522
  133MOL0     C18248  13.138   6.227   9.409 -0.0065 -0.6474 -0.2087
  133MOL0     C18249  13.103   6.313   9.304 -0.1622 -0.2682  0.4925
  133MOL0     C18250  13.174   6.317   9.189 -0.3329  0.1158  0.3076
  133MOL0     C18251  13.304   6.255   9.185 -0.1865  0.3214 -0.2076
  133MOL0     O18252  13.377   6.265   9.061  0.4746 -0.5717 -0.4107
  133MOL0     C18253  13.515   6.266   9.062 -0.7065  0.4017 -0.5002
  133MOL0     C18254  13.574   6.385   9.151  0.0279  0.5784  0.4757
  133MOL0     C18255  13.719   6.365   9.150  0.2492  0.1381 -0.6100
  133MOL0     C18256  13.769   6.254   9.245  0.1403  0.2728  0.7250
  133MOL0     C18257  13.919   6.263   9.233 -0.4451 -0.4159 -1.1157
  133MOL0     C18258  13.989   6.146   9.314  0.1593  0.0852  0.2842
  133MOL0     C18259  14.143   6.161   9.292 -0.0297 -0.1730 -0.0225
  133MOL0     C18260  14.201   6.029   9.323 -1.1232 -0.4834  1.1502
  133MOL0    Cl18261  14.394   6.024   9.298  0.1766 -0.3337 -0.2576
  133MOL0     C18262  13.344   6.183   9.298  0.1136  1.1136  0.6382
  133MOL0     C18263  13.258   6.158   9.405 -0.2329 -0.1779  0.9118
  133MOL0     O18264  13.143   6.077   9.668 -0.0137 -0.7514  0.7750
  133MOL0     C18265  12.894   5.984   9.757  0.9574 -0.0750  0.4123
  133MOL0     C18266  12.773   5.925   9.781 -0.3774 -0.6267 -0.0024
  133MOL0     N18267  12.081   6.308  10.044  0.3253 -0.1241 -0.1048
  133MOL0     N18268  11.958   6.344  10.017 -0.3154 -0.0953  0.2566
  133MOL0     C18269  11.034   5.780  10.577  0.6921 -1.2918  0.2109
  133MOL0     C18270  10.919   5.708  10.608 -1.1235  0.4523 -0.3591
  133MOL0     C18271  10.667   5.371  10.732 -0.0786  0.5071  0.5179
  133MOL0     C18272  10.585   5.406  10.834 -0.0133 -0.2015  0.8057
  133MOL0     C18273  10.470   5.332  10.861 -0.1308  0.6452  0.4537
  133MOL0     C18274  10.443   5.220  10.783 -0.1327 -0.2479  0.9875
  133MOL0     O18275  10.315   5.155  10.813 -0.2993 -0.2720 -0.0335
  133MOL0     C18276  10.277   5.038  10.741 -0.6383  0.5188 -0.3337
  133MOL0     C18277  10.321   4.916  10.825 -0.3357 -0.2829 -0.0349
  133MOL0     C18278  10.207   4.896  10.924  0.2667 -0.0851 -0.0294
  133MOL0     C18279  10.133   4.763  10.886  0.8022  0.5536 -0.8309
  133MOL0     C18280  10.042   4.768  10.774  0.0207 -0.3778 -0.5063
  133MOL0     C18281   9.958   4.785  10.689 -0.3505  0.3211 -0.3363
  133MOL0     C18282  10.524   5.185  10.674 -0.0427  1.0808 -0.1797
  133MOL0     C18283  10.643   5.257  10.649  1.4476 -1.1322  0.3699
  133MOL0     C18284  10.747   5.214  10.546 -0.9486 -0.2785 -0.5766
  133MOL0     H18285  10.972   5.440  10.392 -1.2370  0.5126 -1.5125
  133MOL0     H18286  11.175   5.570  10.356 -3.1989 -0.4137 -3.8930
  133MOL0     H18287  11.165   5.936  10.313  1.4539  2.1318  0.0474
  133MOL0     H18288  11.218   5.777  10.260 -2.1233  1.6881 -1.3589
  133MOL0     H18289  11.413   5.987  10.379 -3.0062  2.3224 -1.7496
  133MOL0     H18290  11.441   5.835  10.296  1.0634 -0.1023  2.8398
  133MOL0     H18291  11.347   5.906  10.092 -0.2768 -1.1767  1.0001
  133MOL0     H18292  11.305   6.070  10.152  3.2721  1.8376 -0.8731
  133MOL0     H18293  11.530   6.131  10.209  1.3950 -0.5895  0.6589
  133MOL0     H18294  11.588   5.974  10.170 -0.2412  0.9316  0.9415
  133MOL0     H18295  11.451   6.149   9.974 -0.5370 -0.2445  3.0829
  133MOL0     H18296  11.546   6.013   9.924 -1.4909  1.0318 -0.5604
  133MOL0     H18297  11.632   6.287  10.021 -1.2475 -1.0146 -1.5088
  133MOL0     H18298  11.743   6.149  10.054  0.1231 -0.7411 -0.6473
  133MOL0     H18299  11.626   6.206   9.771 -0.0430 -2.7523 -0.5235
  133MOL0     H18300  11.761   6.099   9.799 -1.5794 -0.8346 -0.1956
  133MOL0     H18301  11.825   6.319   9.718  0.4774 -0.7100  0.2689
  133MOL0     H18302  11.759   6.398   9.862  0.1680 -0.1871  0.8855
  133MOL0     H18303  12.029   6.161   9.756 -0.0469 -5.0156  2.7050
  133MOL0     H18304  12.302   6.108  10.037 -1.5155 -0.1971  0.7718
  133MOL0     H18305  12.321   6.258   9.937  0.1041  0.0096 -0.8346
  133MOL0     H18306  12.222   6.000   9.821 -0.7363  1.0439 -2.9220
  133MOL0     H18307  12.293   6.149   9.737  1.9949 -0.0623 -0.8771
  133MOL0     H18308  12.520   6.066   9.842  0.2186  0.4078 -0.4636
  133MOL0     H18309  12.416   5.943   9.914 -1.5225 -0.0120  0.2722
  133MOL0     H18310  12.357   5.851   9.691 -0.5239  0.6328 -0.0168
  133MOL0     H18311  12.449   5.976   9.611  0.4174  0.3137  0.6871
  133MOL0     H18312  12.642   5.887   9.470  0.5992  1.4765 -2.6690
  133MOL0     H18313  12.797   5.968   9.305 -0.4158 -1.3391  0.8107
  133MOL0     H18314  12.973   5.990   9.345  0.4022  0.7620 -1.8285
  133MOL0     H18315  12.849   6.126   9.355 -0.9809  0.0733  0.3677
  133MOL0     H18316  13.014   6.372   9.325  0.8464  1.4505  0.0946
  133MOL0     H18317  13.150   6.374   9.099 -0.7031 -0.3331  0.1219
  133MOL0     H18318  13.564   6.177   9.102  0.5831  0.7565 -1.2343
  133MOL0     H18319  13.559   6.261   8.962  2.0375 -0.3340  0.6265
  133MOL0     H18320  13.549   6.479   9.103  0.7709  0.0623 -0.9713
  133MOL0     H18321  13.527   6.381   9.250 -1.1374  2.0429  0.0129
  133MOL0     H18322  13.763   6.452   9.197  0.6495  0.3561 -1.3662
  133MOL0     H18323  13.762   6.358   9.049 -0.3535  2.2450 -1.0581
  133MOL0     H18324  13.729   6.157   9.216  1.4082  0.4058 -1.7060
  133MOL0     H18325  13.735   6.271   9.347 -2.1311  3.5916 -0.4196
  133MOL0     H18326  13.948   6.238   9.131 -0.0354 -0.7894 -0.9096
  133MOL0     H18327  13.959   6.361   9.263  0.8692 -1.6598  1.5854
  133MOL0     H18328  13.956   6.043   9.298  1.6853 -0.3387 -0.3109
  133MOL0     H18329  13.977   6.149   9.423  0.7490 -3.5259  0.5712
  133MOL0     H18330  14.170   6.242   9.360 -2.1759  0.6304 -0.0565
  133MOL0     H18331  14.174   6.181   9.189  0.4765 -1.5804 -0.1672
  133MOL0     H18332  14.164   5.945   9.263  1.4385 -1.6221  1.0535
  133MOL0     H18333  14.179   6.007   9.428 -1.0262  1.4858  1.6045
  133MOL0     H18334  13.434   6.124   9.307 -0.5871 -0.7153 -2.6851
  133MOL0     H18335  13.285   6.095   9.489  1.2699  0.1762  0.7318
  133MOL0     H18336  12.958   6.004   9.843 -0.3930 -0.6122  1.5804
  133MOL0     H18337  12.750   5.905   9.886 -2.4549 -0.7794 -0.4518
  133MOL0     H18338  11.040   5.870  10.638 -1.4234 -1.3857  0.6452
  133MOL0     H18339  10.848   5.743  10.682  0.2138 -1.0950  1.7712
  133MOL0     H18340  10.612   5.492  10.894  2.2302 -0.6729  0.5529
  133MOL0     H18341  10.396   5.343  10.938 -2.6426  0.6256 -1.8154
  133MOL0     H18342  10.169   5.042  10.723 -0.2243 -1.9462 -4.7422
  133MOL0     H18343  10.313   5.029  10.638  0.7274  0.3339  0.1370
  133MOL0     H18344  10.416   4.942  10.871 -2.0826  1.3290  3.0389
  133MOL0     H18345  10.341   4.831  10.760 -0.0132  2.3425 -3.6485
  133MOL0     H18346  10.256   4.893  11.022  0.7575 -0.3946 -0.2785
  133MOL0     H18347  10.126   4.969  10.925  1.4113  1.3024 -2.0127
  133MOL0     H18348  10.070   4.739  10.972  2.1367 -0.7862 -0.1754
  133MOL0     H18349  10.203   4.680  10.878  0.9936  0.7707 -1.4061
  133MOL0     H18350   9.906   4.800  10.597  0.4001  1.0548 -0.6559
  133MOL0     H18351  10.501   5.096  10.615 -1.5581 -0.9352  3.1648
  133MOL0     H18352  10.847   5.212  10.591 -1.9055 -0.4406  1.7063
  133MOL0     H18353  10.726   5.109  10.522  0.1267 -0.5349 -0.4764
  133MOL0     H18354  10.746   5.271  10.453  0.8861  1.7733  0.5526
  134MOL0     O18355   9.897   1.817   4.203  0.0737 -0.2415 -0.4440
  134MOL0     C18356   9.838   1.711   4.198 -0.1035 -0.0450  0.7212
  134MOL0     O18357   9.717   1.691   4.135 -0.5216 -0.2997  0.6411
  134MOL0     C18358   9.640   1.790   4.071  0.4067  0.6740  0.6541
  134MOL0     C18359   9.507   1.797   4.112 -0.6751 -0.0422 -0.6139
  134MOL0     C18360   9.413   1.879   4.039 -0.0029  0.7275  0.7302
  134MOL0     C18361   9.459   1.962   3.936 -0.1886 -1.4089 -0.0331
  134MOL0     O18362   9.385   2.035   3.844 -0.0177 -0.2909 -0.4460
  134MOL0     C18363   9.257   1.985   3.812  0.1302  0.6617 -0.4734
  134MOL0     C18364   9.176   2.071   3.712  0.2040 -0.1692  0.0060
  134MOL0     C18365   9.073   1.986   3.633  0.3462 -0.5942 -0.7366
  134MOL0     C18366   8.963   2.071   3.569  0.1747 -0.0730  1.0116
  134MOL0     C18367   8.862   1.976   3.489 -0.5452 -0.5948 -0.5505
  134MOL0     C18368   8.779   2.044   3.375  0.1156 -0.7011  0.3024
  134MOL0     C18369   8.720   2.182   3.408  0.5703  0.8635  0.7356
  134MOL0     C18370   8.627   2.232   3.291  0.5649 -0.4701 -0.1307
  134MOL0     N18371   8.726   2.285   3.188 -0.4077  0.3266 -0.8334
  134MOL0     C18372   8.807   2.393   3.202 -1.5672 -0.6096  0.0403
  134MOL0     C18373   8.892   2.399   3.094 -0.1228  0.2221  0.9902
  134MOL0     C18374   9.005   2.495   3.077  0.3050 -0.4829  0.9025
  134MOL0     C18375   9.118   2.437   2.989 -0.6409 -0.0019  0.3881
  134MOL0     C18376   9.245   2.524   2.980 -0.0855  1.0894 -0.3169
  134MOL0     C18377   9.331   2.451   2.879 -0.5465 -0.1935  0.2603
  134MOL0     O18378   9.453   2.520   2.834  0.0450  0.8760 -0.0629
  134MOL0     C18379   9.560   2.517   2.915  0.0865 -0.1036 -0.2074
  134MOL0     C18380   9.654   2.611   2.886 -0.7077  0.2926 -0.3323
  134MOL0     C18381   9.763   2.630   2.969  0.2695  0.1272  0.5214
  134MOL0     C18382   9.873   2.714   2.908 -0.9286 -0.2973 -0.6705
  134MOL0     C18383   9.777   2.548   3.080 -0.2683  0.2668  0.4263
  134MOL0     C18384   9.901   2.560   3.171  0.7349 -1.3650  0.7227
  134MOL0     O18385   9.947   2.682   3.188  0.3378 -0.3491  0.0275
  134MOL0     C18386  10.073   2.706   3.239  0.4954  0.3515  0.1323
  134MOL0     C18387  10.166   2.750   3.144  0.1441 -0.4575 -0.4571
  134MOL0     C18388  10.298   2.769   3.189 -0.2235  0.1537  0.8585
  134MOL0     C18389  10.343   2.763   3.319  0.8203  0.1319  0.1360
  134MOL0     O18390  10.475   2.803   3.342 -0.1608  0.5628  0.2759
  134MOL0     C18391  10.518   2.813   3.479  0.8624 -0.0243  0.7817
  134MOL0     C18392  10.624   2.912   3.506 -0.8027  0.2599  0.3570
  134MOL0     C18393  10.760   2.867   3.464 -0.1687  0.3358  0.4438
  134MOL0     C18394  10.863   2.970   3.499 -0.3980 -0.0478 -0.9243
  134MOL0     C18395  10.998   2.934   3.439  0.1819  0.2179  0.0951
  134MOL0     C18396  11.059   2.825   3.528 -0.7616  0.1473  0.1525
  134MOL0     C18397  11.210   2.807   3.508  0.6527  0.0472 -0.2503
  134MOL0     C18398  11.280   2.755   3.630 -0.2789 -0.3610  0.9997
  134MOL0    Cl18399  11.449   2.731   3.582  0.1335 -0.1747  0.5855
  134MOL0     C18400  10.245   2.715   3.414 -0.4546 -0.2123 -0.0393
  134MOL0     C18401  10.116   2.694   3.376  0.8527 -0.1076  0.4959
  134MOL0     O18402   9.949   2.464   3.238  0.2796 -0.2140  0.3703
  134MOL0     C18403   9.689   2.441   3.109 -0.4264 -0.9962  0.3540
  134MOL0     C18404   9.586   2.428   3.026  0.2819  0.1823  1.0020
  134MOL0     N18405   8.859   2.302   3.004  0.4238 -0.4023  0.2767
  134MOL0     N18406   8.765   2.237   3.068  0.4703 -0.2524  0.1829
  134MOL0     C18407   9.591   1.960   3.902  0.5297  0.2561 -0.5780
  134MOL0     C18408   9.674   1.868   3.967 -0.5176 -1.1173 -0.1151
  134MOL0     C18409   9.884   1.597   4.273  0.6583 -0.4092 -0.0279
  134MOL0     C18410   9.796   1.483   4.292 -0.3369  0.3200  0.3132
  134MOL0     C18411   9.835   1.365   4.357 -0.0553  0.6057  0.1907
  134MOL0     C18412   9.973   1.353   4.392 -0.1375  0.3429 -0.3575
  134MOL0     O18413  10.016   1.229   4.448  0.1833  0.3465  0.0299
  134MOL0     C18414   9.938   1.115   4.429 -0.3895  0.9566  0.4484
  134MOL0     C18415   9.832   1.083   4.537 -0.3008 -1.0723  0.2738
  134MOL0     C18416   9.882   1.090   4.674  0.3417 -0.2435 -0.6968
  134MOL0     C18417   9.766   1.025   4.764  0.2054 -0.5237 -0.9070
  134MOL0     C18418   9.816   0.998   4.897 -1.4893  0.4437 -0.6577
  134MOL0     C18419   9.840   0.966   5.011  0.6365  0.8328  0.3765
  134MOL0     C18420  10.059   1.466   4.374  0.1668 -0.0946  0.4588
  134MOL0     C18421  10.015   1.584   4.318 -0.0393 -0.7878 -0.7862
  134MOL0     C18422  10.113   1.699   4.327 -0.2211 -1.0579  0.1895
  134MOL0     H18423   9.484   1.733   4.196  0.3655 -0.8381 -0.9134
  134MOL0     H18424   9.309   1.863   4.065  0.1056 -3.2084 -0.6645
  134MOL0     H18425   9.209   1.991   3.910  2.1134  1.8337  0.4878
  134MOL0     H18426   9.268   1.882   3.777  0.2620  0.3749  0.3692
  134MOL0     H18427   9.120   2.139   3.777  2.0567  0.9886  0.4724
  134MOL0     H18428   9.227   2.132   3.637 -0.5107 -0.2408 -0.5414
  134MOL0     H18429   9.126   1.930   3.556  0.2342 -2.6865  0.6184
  134MOL0     H18430   9.018   1.917   3.699 -0.2798  1.7677  1.3506
  134MOL0     H18431   8.912   2.121   3.652  1.0648 -0.1489  1.6276
  134MOL0     H18432   9.011   2.136   3.496  0.3634 -2.6010 -1.2829
  134MOL0     H18433   8.802   1.938   3.573 -0.3770  0.6990  0.1754
  134MOL0     H18434   8.919   1.892   3.448  0.0819  0.5954 -2.2098
  134MOL0     H18435   8.840   2.045   3.284 -0.9460 -0.3152 -0.4167
  134MOL0     H18436   8.700   1.971   3.357 -0.2040 -0.3701  0.3595
  134MOL0     H18437   8.803   2.249   3.431  2.8442 -1.4222 -0.2783
  134MOL0     H18438   8.670   2.173   3.505  3.1392  1.8176  2.2853
  134MOL0     H18439   8.556   2.163   3.245  0.8551  0.6461 -2.4029
  134MOL0     H18440   8.568   2.315   3.331  1.7317 -0.0178  0.6870
  134MOL0     H18441   8.817   2.457   3.290 -1.5382  3.0278 -2.4137
  134MOL0     H18442   9.046   2.525   3.173 -0.2485 -0.7576  1.2328
  134MOL0     H18443   8.972   2.585   3.025  0.8561 -0.1615  1.1075
  134MOL0     H18444   9.152   2.343   3.032  2.5733 -0.3986 -2.5664
  134MOL0     H18445   9.075   2.408   2.893  0.3708  0.2941 -0.1730
  134MOL0     H18446   9.206   2.622   2.948  0.1939  1.7292  1.2306
  134MOL0     H18447   9.283   2.529   3.082  1.8761 -1.8660 -0.7850
  134MOL0     H18448   9.349   2.345   2.900 -0.0378 -0.5224 -1.6934
  134MOL0     H18449   9.271   2.441   2.789  1.5592 -3.9032 -0.9196
  134MOL0     H18450   9.638   2.665   2.794  2.1209  0.3152 -0.9011
  134MOL0     H18451   9.967   2.659   2.902  0.5936  2.1485 -0.2742
  134MOL0     H18452   9.901   2.798   2.972  0.6695  0.1340 -1.8836
  134MOL0     H18453   9.842   2.759   2.813 -0.6146  1.2104 -0.0809
  134MOL0     H18454  10.152   2.771   3.038 -2.3192 -0.0511 -0.0929
  134MOL0     H18455  10.384   2.794   3.127 -0.2196  0.7031  1.0886
  134MOL0     H18456  10.436   2.851   3.540  1.9460 -0.6497  2.6858
  134MOL0     H18457  10.557   2.718   3.516  2.9448  0.2263 -0.6334
  134MOL0     H18458  10.599   2.998   3.444 -0.3534 -1.0053 -1.6682
  134MOL0     H18459  10.632   2.954   3.606 -1.6383  0.9029  0.1671
  134MOL0     H18460  10.758   2.852   3.355  1.4402 -3.2757  0.7859
  134MOL0     H18461  10.788   2.774   3.513 -0.3925  1.1863  2.2444
  134MOL0     H18462  10.858   2.975   3.608 -3.6777 -1.6096 -0.8655
  134MOL0     H18463  10.827   3.069   3.468  0.1193  1.2297  2.1563
  134MOL0     H18464  10.996   2.906   3.333  1.3905  0.5454 -0.0237
  134MOL0     H18465  11.065   3.021   3.444  1.2754 -0.5954  0.0444
  134MOL0     H18466  11.013   2.730   3.502  1.2784 -0.4597 -1.5188
  134MOL0     H18467  11.036   2.842   3.633  2.1367 -0.6337  1.0128
  134MOL0     H18468  11.247   2.900   3.462  0.2064 -0.1376 -0.9907
  134MOL0     H18469  11.222   2.743   3.420 -4.0161  0.1486 -1.2136
  134MOL0     H18470  11.243   2.656   3.659  0.1494 -1.1118 -0.9029
  134MOL0     H18471  11.272   2.833   3.707 -1.8233 -0.2034  0.7178
  134MOL0     H18472  10.270   2.691   3.517 -0.2075 -0.0938 -0.0702
  134MOL0     H18473  10.041   2.653   3.442 -1.3149  0.2443 -1.6284
  134MOL0     H18474   9.696   2.377   3.197  1.1481 -2.3303 -0.7007
  134MOL0     H18475   9.508   2.357   3.052  0.2391  0.8070  2.7315
  134MOL0     H18476   9.622   2.013   3.812 -2.6500  0.5831 -1.5950
  134MOL0     H18477   9.778   1.871   3.933  0.0998  0.8816  1.7135
  134MOL0     H18478   9.692   1.482   4.260 -1.3556  4.3476  2.6327
  134MOL0     H18479   9.767   1.281   4.354 -1.4388  1.7077 -1.0162
  134MOL0     H18480   9.911   1.098   4.324 -0.2630  0.6684  0.4609
  134MOL0     H18481  10.003   1.028   4.441 -2.1870 -0.6360 -0.6166
  134MOL0     H18482   9.810   0.978   4.514  0.9398 -1.1619 -0.6136
  134MOL0     H18483   9.739   1.141   4.527 -0.2414 -0.7416  1.4438
  134MOL0     H18484   9.967   1.030   4.708 -2.1288 -2.4508  2.1938
  134MOL0     H18485   9.911   1.188   4.713 -1.5586 -0.4035  1.3283
  134MOL0     H18486   9.741   0.928   4.720  2.1789 -1.0808 -0.8863
  134MOL0     H18487   9.682   1.095   4.758  0.2734  0.1001  3.1247
  134MOL0     H18488   9.850   0.932   5.112  0.1166  2.5052  1.0294
  134MOL0     H18489  10.154   1.447   4.423 -0.6681 -2.1535  1.4176
  134MOL0     H18490  10.141   1.718   4.224  0.6005 -1.0508  0.4120
  134MOL0     H18491  10.068   1.783   4.381  2.5169  0.6598 -0.0279
  134MOL0     H18492  10.199   1.660   4.382  0.4796  0.7135  0.4122
  135MOL0     O18493   5.199   8.865   9.002  0.0882  0.6037 -0.1666
  135MOL0     C18494   5.196   8.863   9.120  0.3243  0.6757 -0.6755
  135MOL0     O18495   5.301   8.889   9.201  0.2350  0.2535 -0.4986
  135MOL0     C18496   5.432   8.858   9.167  0.4504 -0.1517 -0.1619
  135MOL0     C18497   5.523   8.965   9.140 -0.2502  0.4668 -0.1743
  135MOL0     C18498   5.664   8.927   9.123 -0.4497 -0.1278 -0.4983
  135MOL0     C18499   5.701   8.793   9.123  0.1112 -0.4981  1.2072
  135MOL0     O18500   5.831   8.741   9.116 -0.0507 -0.2782 -0.5526
  135MOL0     C18501   5.938   8.827   9.073  0.1108 -0.1329  0.1771
  135MOL0     C18502   6.072   8.779   9.127 -0.7022 -0.0488 -0.0141
  135MOL0     C18503   6.175   8.889   9.138  0.0566 -0.2693  0.1774
  135MOL0     C18504   6.312   8.830   9.133 -0.1860  0.6316  0.1350
  135MOL0     C18505   6.421   8.938   9.147 -0.0983 -1.0133 -0.2978
  135MOL0     C18506   6.560   8.882   9.110 -0.1771 -0.3760  0.4975
  135MOL0     C18507   6.684   8.955   9.163 -0.6383  0.0763 -0.2158
  135MOL0     C18508   6.697   8.937   9.316 -0.0780  0.2233  0.3027
  135MOL0     N18509   6.804   9.029   9.362 -0.0951  0.0282  0.9870
  135MOL0     C18510   6.891   9.009   9.464 -0.1653 -0.3744 -0.1117
  135MOL0     C18511   6.942   9.132   9.489 -0.5083 -1.1428  0.1070
  135MOL0     C18512   7.033   9.168   9.603 -0.8354  0.3827 -0.4135
  135MOL0     C18513   7.181   9.142   9.563  0.8980 -0.1467 -0.5530
  135MOL0     C18514   7.235   9.233   9.457 -0.7093 -0.3139  0.0335
  135MOL0     C18515   7.264   9.381   9.499  0.9025  0.6129 -0.8921
  135MOL0     O18516   7.408   9.387   9.522  0.2225  0.7856 -0.6540
  135MOL0     C18517   7.456   9.510   9.571 -0.7967 -0.0585  0.6280
  135MOL0     C18518   7.378   9.615   9.614 -0.2753  0.3783  0.1127
  135MOL0     C18519   7.434   9.727   9.679 -0.2082  0.3120 -1.5597
  135MOL0     C18520   7.340   9.822   9.754  0.5225 -0.3682  1.0701
  135MOL0     C18521   7.573   9.748   9.684  0.0041  0.5658  0.8464
  135MOL0     C18522   7.643   9.852   9.751  0.0464 -0.1569 -0.6169
  135MOL0     O18523   7.580   9.967   9.785 -0.2306  0.5418 -0.5674
  135MOL0     C18524   7.653  10.055   9.859 -0.4140 -0.0367  0.0111
  135MOL0     C18525   7.715  10.162   9.795  0.7897  0.2013 -0.5910
  135MOL0     C18526   7.794  10.258   9.860 -0.3661  0.0969  0.4197
  135MOL0     C18527   7.825  10.236   9.990  0.8601  0.3990  0.3481
  135MOL0     O18528   7.919  10.324  10.027  0.7495 -0.0318 -0.3768
  135MOL0     C18529   7.982  10.314  10.156 -0.3053  0.2071 -0.3520
  135MOL0     C18530   8.055  10.448  10.194 -0.0206 -0.3833  0.6191
  135MOL0     C18531   8.197  10.437  10.136  0.0306  0.2101  0.3440
  135MOL0     C18532   8.271  10.567  10.173  0.5929 -0.0172 -0.3648
  135MOL0     C18533   8.414  10.550  10.124 -0.1956 -0.3243  0.4782
  135MOL0     C18534   8.489  10.687  10.118 -0.0529  0.6986 -0.5208
  135MOL0     C18535   8.637  10.657  10.094 -0.0935  0.0554 -0.2047
  135MOL0     C18536   8.717  10.661  10.227 -0.1620  0.2318 -0.1192
  135MOL0    Cl18537   8.896  10.669  10.209 -0.2949  0.4029  0.0299
  135MOL0     C18538   7.767  10.126  10.070 -0.3895 -0.2695 -0.4374
  135MOL0     C18539   7.679  10.032   9.997 -0.1262 -0.0002  0.1179
  135MOL0     O18540   7.761   9.827   9.773 -0.1451 -0.5929 -0.0398
  135MOL0     C18541   7.650   9.647   9.621 -0.5334 -0.1776 -1.0758
  135MOL0     C18542   7.592   9.531   9.576  0.3288 -0.7826  0.6816
  135MOL0     N18543   6.875   9.215   9.409 -0.0446 -1.1056 -0.0599
  135MOL0     N18544   6.789   9.163   9.331 -0.6965  0.1126  0.3443
  135MOL0     C18545   5.609   8.692   9.135  0.4514 -0.3184 -0.6690
  135MOL0     C18546   5.480   8.723   9.177  0.6257 -0.3624  0.4172
  135MOL0     C18547   5.071   8.843   9.191 -0.1158  0.2337 -0.7629
  135MOL0     C18548   5.074   8.846   9.336  0.2419  0.2110 -0.5339
  135MOL0     C18549   4.956   8.836   9.412 -0.6832 -0.2283 -0.4454
  135MOL0     C18550   4.835   8.807   9.345  0.2830 -0.3230 -0.1214
  135MOL0     O18551   4.710   8.796   9.404 -0.7542  1.1396  0.1247
  135MOL0     C18552   4.711   8.781   9.547  0.2918  0.9785  0.5672
  135MOL0     C18553   4.572   8.742   9.575 -0.2733  0.6163 -0.1029
  135MOL0     C18554   4.477   8.853   9.530  0.4005  0.4033  0.8887
  135MOL0     C18555   4.340   8.847   9.589 -0.3565 -0.3637  0.1879
  135MOL0     C18556   4.279   8.713   9.562 -0.5165  0.8926  0.6576
  135MOL0     C18557   4.232   8.604   9.538  0.5459 -1.3681 -0.1239
  135MOL0     C18558   4.832   8.785   9.207 -0.4576 -0.0973 -0.2853
  135MOL0     C18559   4.949   8.799   9.130  0.0121  0.1075 -0.3096
  135MOL0     C18560   4.931   8.793   8.979 -0.1120  0.0886 -0.3377
  135MOL0     H18561   5.485   9.066   9.153  2.9376  1.6170  1.1352
  135MOL0     H18562   5.735   9.008   9.119 -2.2017  1.4473 -2.9303
  135MOL0     H18563   5.924   8.931   9.102 -1.3356 -1.2051  3.8592
  135MOL0     H18564   5.949   8.816   8.965  3.0110 -0.5624  0.4257
  135MOL0     H18565   6.062   8.720   9.218  0.6122  0.6878  0.6434
  135MOL0     H18566   6.109   8.707   9.053  1.7470 -0.1661  1.2217
  135MOL0     H18567   6.164   8.966   9.061  0.4366 -1.1793 -0.8117
  135MOL0     H18568   6.153   8.950   9.226 -0.1292  2.1920 -1.4666
  135MOL0     H18569   6.323   8.756   9.213 -0.9878  0.5117  0.1365
  135MOL0     H18570   6.334   8.776   9.040 -1.9722  0.1302 -0.0274
  135MOL0     H18571   6.422   8.976   9.250 -3.8185 -0.0989 -0.4223
  135MOL0     H18572   6.394   9.016   9.076  0.2464 -1.0047 -0.4167
  135MOL0     H18573   6.558   8.783   9.157 -1.8936 -0.3390  0.5684
  135MOL0     H18574   6.556   8.875   9.001 -0.9232  0.5936  0.4517
  135MOL0     H18575   6.685   9.062   9.142  0.3349  0.1515  0.1803
  135MOL0     H18576   6.778   8.918   9.122 -0.3287  2.2823 -1.6510
  135MOL0     H18577   6.609   8.958   9.377  0.8376  0.7423  1.4925
  135MOL0     H18578   6.734   8.838   9.343 -0.2758  0.6888  2.4589
  135MOL0     H18579   6.902   8.927   9.535  0.1485 -0.2796 -0.0497
  135MOL0     H18580   7.005   9.109   9.691  1.6667 -1.0960 -0.4740
  135MOL0     H18581   7.029   9.275   9.626 -0.5690  0.4716 -0.7724
  135MOL0     H18582   7.245   9.152   9.651 -0.5374  0.4459  0.4688
  135MOL0     H18583   7.202   9.042   9.524 -0.0709 -1.8490  2.9057
  135MOL0     H18584   7.330   9.181   9.438 -0.0797  0.0322  1.9786
  135MOL0     H18585   7.174   9.238   9.366  2.0893  2.6102 -1.8872
  135MOL0     H18586   7.237   9.453   9.422  2.3625 -0.9204 -2.9299
  135MOL0     H18587   7.210   9.412   9.589  0.6158  1.6210 -1.3985
  135MOL0     H18588   7.271   9.599   9.603 -0.1406 -0.3963 -0.1146
  135MOL0     H18589   7.240   9.779   9.757 -0.8893  2.6209  1.3434
  135MOL0     H18590   7.326   9.918   9.704 -0.6279 -1.9670 -1.8717
  135MOL0     H18591   7.371   9.838   9.858 -1.7665 -1.9774  2.0708
  135MOL0     H18592   7.691  10.179   9.690 -1.0642 -0.4519 -0.3122
  135MOL0     H18593   7.833  10.349   9.816  1.2877 -0.5464  0.4724
  135MOL0     H18594   7.906  10.296  10.232 -1.5048 -0.6478 -1.6824
  135MOL0     H18595   8.046  10.225  10.165 -1.8970 -0.7417  3.4490
  135MOL0     H18596   8.012  10.531  10.138 -0.2939 -2.5604 -2.6884
  135MOL0     H18597   8.043  10.463  10.301  4.2028  0.1733  1.1830
  135MOL0     H18598   8.205  10.414  10.029  1.8319 -0.1580  0.5292
  135MOL0     H18599   8.254  10.356  10.183 -0.8301 -1.3542 -1.1475
  135MOL0     H18600   8.261  10.586  10.280  2.0271  0.6973 -0.3310
  135MOL0     H18601   8.223  10.656  10.132 -0.0115  0.9481  2.2543
  135MOL0     H18602   8.463  10.468  10.178 -3.8083 -2.5996  0.6715
  135MOL0     H18603   8.404  10.514  10.021  0.0732 -2.6231  1.1889
  135MOL0     H18604   8.474  10.723  10.220  2.3253  0.5391 -0.0535
  135MOL0     H18605   8.447  10.744  10.034 -1.6700 -1.3964 -1.2410
  135MOL0     H18606   8.679  10.735  10.029  0.3097  1.4891  1.6938
  135MOL0     H18607   8.663  10.560  10.051 -0.5993 -0.2378  0.1489
  135MOL0     H18608   8.693  10.567  10.277 -0.2001 -0.7487 -1.8822
  135MOL0     H18609   8.690  10.745  10.292  0.2605  0.5876 -0.3990
  135MOL0     H18610   7.778  10.116  10.178  2.1182  0.4394 -0.5707
  135MOL0     H18611   7.665   9.938  10.049  1.7211 -0.0447  0.6249
  135MOL0     H18612   7.758   9.656   9.611 -0.2298 -3.2524 -1.5144
  135MOL0     H18613   7.659   9.450   9.547  1.8203  0.8859 -0.8291
  135MOL0     H18614   5.648   8.591   9.132  2.2787  0.1128  2.7873
  135MOL0     H18615   5.417   8.640   9.207 -0.7348  0.6878  0.5857
  135MOL0     H18616   5.166   8.863   9.390  0.9464 -2.3886 -0.7782
  135MOL0     H18617   4.949   8.854   9.519 -2.2501  1.1139 -0.7391
  135MOL0     H18618   4.775   8.696   9.573  1.6348  1.3458 -1.3379
  135MOL0     H18619   4.739   8.880   9.586  2.2909  2.2039 -3.4397
  135MOL0     H18620   4.552   8.720   9.681 -0.9733 -0.3053 -0.4091
  135MOL0     H18621   4.550   8.656   9.511  1.1190  2.5638 -3.4751
  135MOL0     H18622   4.513   8.953   9.556 -0.8255  1.1439 -0.1688
  135MOL0     H18623   4.477   8.858   9.421 -2.2572 -0.1748  0.7976
  135MOL0     H18624   4.289   8.930   9.540  3.1859  1.8109 -0.1009
  135MOL0     H18625   4.342   8.854   9.698  0.8343 -0.8365  0.2101
  135MOL0     H18626   4.187   8.508   9.522  0.5096 -1.1364 -1.5339
  135MOL0     H18627   4.740   8.750   9.162 -0.3143 -0.5057 -0.2642
  135MOL0     H18628   4.955   8.887   8.928 -1.3418  1.4105  1.3709
  135MOL0     H18629   4.994   8.718   8.931  1.0720  1.4094 -0.9061
  135MOL0     H18630   4.825   8.777   8.959 -0.8603  2.5938  1.1410
  136MOL0     O18631   7.497   9.452   0.648  0.5151 -0.4392  0.1476
  136MOL0     C18632   7.600   9.460   0.578 -0.4683 -0.0434 -0.2605
  136MOL0     O18633   7.727   9.476   0.624 -0.0901 -0.4762  0.1654
  136MOL0     C18634   7.754   9.515   0.752  0.9590 -0.5995  0.5272
  136MOL0     C18635   7.668   9.609   0.814 -0.0988 -0.7467 -1.1779
  136MOL0     C18636   7.707   9.643   0.946  0.1336  0.9439  0.2626
  136MOL0     C18637   7.818   9.592   1.007 -0.1490  0.7620 -0.4832
  136MOL0     O18638   7.844   9.634   1.137  0.2249 -0.2185 -0.0576
  136MOL0     C18639   7.801   9.539   1.232 -0.5562 -0.4931 -0.1532
  136MOL0     C18640   7.880   9.406   1.247 -0.1384  0.4979 -0.5182
  136MOL0     C18641   8.029   9.434   1.282 -0.0941 -0.8623  0.6702
  136MOL0     C18642   8.094   9.293   1.287  0.1025 -0.1725  0.8636
  136MOL0     C18643   8.225   9.292   1.361  0.1452  0.1614 -0.0728
  136MOL0     C18644   8.346   9.310   1.269  0.7496 -0.4608  0.2334
  136MOL0     C18645   8.474   9.310   1.354  0.7557  0.5634  0.0563
  136MOL0     C18646   8.599   9.278   1.277  0.4159 -0.0525  0.4905
  136MOL0     N18647   8.625   9.388   1.187 -0.0086  0.5252  0.6131
  136MOL0     C18648   8.678   9.511   1.212  0.5142 -0.6691  0.0604
  136MOL0     C18649   8.693   9.569   1.095  0.4382 -0.4489 -0.0629
  136MOL0     C18650   8.772   9.690   1.074 -0.1339 -0.1997 -0.5523
  136MOL0     C18651   8.919   9.665   1.084 -0.2704  0.8908  0.2815
  136MOL0     C18652   8.962   9.545   0.997 -0.2816  0.2117  0.0040
  136MOL0     C18653   9.102   9.560   0.950  0.0859  0.4197 -0.3180
  136MOL0     O18654   9.117   9.663   0.854  0.3962 -0.6224 -0.1976
  136MOL0     C18655   9.241   9.674   0.791  0.3328  0.7802  0.2486
  136MOL0     C18656   9.252   9.776   0.695 -0.3873 -0.1858 -0.4379
  136MOL0     C18657   9.369   9.790   0.620  0.6020  0.0299  0.3888
  136MOL0     C18658   9.368   9.919   0.545 -0.9537 -0.1365  1.0613
  136MOL0     C18659   9.486   9.710   0.645 -0.4625 -0.0080 -0.1149
  136MOL0     C18660   9.617   9.742   0.582 -0.2831  0.4888 -0.2577
  136MOL0     O18661   9.730   9.730   0.651 -0.4370 -0.3173 -0.7083
  136MOL0     C18662   9.858   9.747   0.604 -0.0766  0.1754  0.3372
  136MOL0     C18663   9.890   9.729   0.473 -0.0166  0.0396 -0.8311
  136MOL0     C18664  10.024   9.758   0.421  0.1794 -0.0161 -0.2615
  136MOL0     C18665  10.122   9.812   0.509  0.4148 -0.3843 -0.4165
  136MOL0     O18666  10.237   9.856   0.450  0.4953  0.5052 -0.4237
  136MOL0     C18667  10.363   9.835   0.507 -0.1932 -0.1974 -0.7011
  136MOL0     C18668  10.404   9.676   0.503  0.4846 -0.1712 -0.3370
  136MOL0     C18669  10.407   9.632   0.349  0.7652 -0.0442 -0.2061
  136MOL0     C18670  10.490   9.509   0.316 -0.2917 -0.3323  0.1490
  136MOL0     C18671  10.478   9.466   0.167 -0.0362  0.5957 -0.2097
  136MOL0     C18672  10.568   9.357   0.112 -0.5707  0.1656 -0.3403
  136MOL0     C18673  10.538   9.339  -0.038 -0.3828 -0.0045  0.6385
  136MOL0     C18674  10.620   9.221  -0.086  1.0727  0.2160  0.2516
  136MOL0    Cl18675  10.610   9.226  -0.269 -0.0841  0.1443  0.4728
  136MOL0     C18676  10.095   9.823   0.650 -0.1054 -0.1907 -1.1891
  136MOL0     C18677   9.966   9.791   0.688 -0.2783 -0.2079 -0.0920
  136MOL0     O18678   9.614   9.776   0.468 -0.0862 -0.3326  0.0974
  136MOL0     C18679   9.476   9.618   0.751  0.5296 -0.0089  0.4035
  136MOL0     C18680   9.352   9.596   0.819 -0.5772  0.9180 -0.1716
  136MOL0     N18681   8.646   9.484   0.993 -0.0380 -0.9909  0.5296
  136MOL0     N18682   8.605   9.379   1.051 -0.0425 -0.3653  0.6926
  136MOL0     C18683   7.910   9.515   0.935  0.2692  0.4353  0.1431
  136MOL0     C18684   7.872   9.482   0.803 -0.5434  0.2861 -0.9357
  136MOL0     C18685   7.593   9.452   0.426 -0.1061 -0.2223  0.0009
  136MOL0     C18686   7.713   9.464   0.357  0.0932  0.5091  0.1454
  136MOL0     C18687   7.709   9.477   0.217 -0.2733 -0.0962  0.1173
  136MOL0     C18688   7.592   9.469   0.143  0.4264  0.3452  0.5151
  136MOL0     O18689   7.616   9.489   0.009  1.2054 -0.3784  0.2632
  136MOL0     C18690   7.504   9.487  -0.072 -0.3713 -0.0593 -0.7003
  136MOL0     C18691   7.463   9.621  -0.100 -0.2495  0.3448 -0.0638
  136MOL0     C18692   7.371   9.609  -0.225  0.0469 -0.5934 -0.8615
  136MOL0     C18693   7.242   9.519  -0.208 -0.2194 -0.5388  0.2911
  136MOL0     C18694   7.175   9.533  -0.340  0.0301 -0.0267  0.5789
  136MOL0     C18695   7.116   9.549  -0.445  0.1016  0.7626 -0.5743
  136MOL0     C18696   7.479   9.440   0.210 -0.4590  0.6171 -0.0799
  136MOL0     C18697   7.471   9.438   0.356  0.0631 -0.0550  1.1803
  136MOL0     C18698   7.333   9.420   0.411  0.7134  0.3301 -0.1472
  136MOL0     H18699   7.581   9.647   0.762  0.0474  0.1987 -0.7510
  136MOL0     H18700   7.646   9.713   1.003  1.3951  0.6712  2.0052
  136MOL0     H18701   7.692   9.532   1.223 -0.8107  1.1837  0.9695
  136MOL0     H18702   7.818   9.597   1.324  0.1226  0.0109 -0.5913
  136MOL0     H18703   7.836   9.338   1.320  0.2990 -0.1220 -0.8218
  136MOL0     H18704   7.883   9.353   1.151  0.4387 -0.4396  0.0097
  136MOL0     H18705   8.080   9.496   1.209  0.5761  0.5729  2.2885
  136MOL0     H18706   8.040   9.483   1.379  0.8832  3.1466 -1.2679
  136MOL0     H18707   8.022   9.236   1.347 -2.5109  2.5151  0.5627
  136MOL0     H18708   8.108   9.243   1.191  2.1309  0.2050  0.9363
  136MOL0     H18709   8.237   9.196   1.412  3.0560  0.9305  0.8533
  136MOL0     H18710   8.212   9.363   1.443  2.3204  0.1052  0.3643
  136MOL0     H18711   8.350   9.229   1.196  0.9249 -0.0197 -0.2535
  136MOL0     H18712   8.339   9.409   1.223 -2.1819 -0.1942  1.0441
  136MOL0     H18713   8.461   9.217   1.411  0.5701 -0.0605 -0.9701
  136MOL0     H18714   8.482   9.407   1.403  3.0827  1.6747 -2.2746
  136MOL0     H18715   8.676   9.254   1.351 -0.7472 -4.0862  0.6624
  136MOL0     H18716   8.592   9.178   1.232  1.4156 -1.0674  2.4324
  136MOL0     H18717   8.697   9.538   1.316  3.2215  0.7795 -0.7161
  136MOL0     H18718   8.735   9.774   1.134 -1.2264 -0.2355 -1.1680
  136MOL0     H18719   8.752   9.730   0.975  1.3519  0.2862 -0.6833
  136MOL0     H18720   8.969   9.753   1.042 -0.2224  1.4580  1.4761
  136MOL0     H18721   8.941   9.665   1.191 -0.1715  1.3919  0.2632
  136MOL0     H18722   8.942   9.459   1.062 -0.3463 -1.0253 -1.5967
  136MOL0     H18723   8.908   9.533   0.903  0.9575  0.4152 -0.7606
  136MOL0     H18724   9.168   9.588   1.032  1.1610 -1.5755 -0.4355
  136MOL0     H18725   9.127   9.460   0.912 -2.2270  0.5590 -2.5171
  136MOL0     H18726   9.167   9.838   0.670  0.9184  1.6727 -0.4454
  136MOL0     H18727   9.300   9.995   0.583 -1.6164 -0.8897  1.4095
  136MOL0     H18728   9.327   9.896   0.446  2.4670 -2.2409 -0.0538
  136MOL0     H18729   9.466   9.956   0.514  0.1474 -2.1018  1.9808
  136MOL0     H18730   9.821   9.685   0.402  1.9806 -1.2366 -2.1210
  136MOL0     H18731  10.064   9.740   0.322 -1.1551  0.1049 -0.8444
  136MOL0     H18732  10.442   9.890   0.455  1.5471 -1.0787  0.9127
  136MOL0     H18733  10.361   9.861   0.613  2.9618  0.2531 -0.6623
  136MOL0     H18734  10.507   9.664   0.538  1.3560 -0.5849 -2.8047
  136MOL0     H18735  10.331   9.618   0.560 -0.1971  2.2123  1.3699
  136MOL0     H18736  10.428   9.713   0.278  1.4496 -0.5922 -0.6517
  136MOL0     H18737  10.304   9.603   0.328  0.6409  0.6835 -0.6563
  136MOL0     H18738  10.451   9.430   0.382 -0.8232 -1.3653 -1.3543
  136MOL0     H18739  10.594   9.535   0.340 -0.6481  0.6952  0.6501
  136MOL0     H18740  10.382   9.414   0.154  0.4161  0.0602 -1.5528
  136MOL0     H18741  10.483   9.553   0.101 -1.0580 -0.5675 -1.9010
  136MOL0     H18742  10.553   9.264   0.167  0.3015 -0.4118 -1.0673
  136MOL0     H18743  10.673   9.383   0.127 -0.1391 -2.7419  3.2360
  136MOL0     H18744  10.566   9.434  -0.085 -2.1916  0.9325  1.3378
  136MOL0     H18745  10.433   9.311  -0.053  0.2095 -2.0150  0.0265
  136MOL0     H18746  10.580   9.131  -0.038 -1.7862  1.5003  0.4445
  136MOL0     H18747  10.725   9.244  -0.066  1.5197  3.0543 -4.0570
  136MOL0     H18748  10.162   9.880   0.713 -1.8205  0.2791  0.3088
  136MOL0     H18749   9.957   9.812   0.795  2.8939  0.1030  0.2088
  136MOL0     H18750   9.565   9.571   0.792  0.8113 -0.1739 -0.3764
  136MOL0     H18751   9.354   9.524   0.901 -1.5925  0.5479 -0.4531
  136MOL0     H18752   8.014   9.498   0.961  0.5210 -0.2420 -1.1714
  136MOL0     H18753   7.931   9.412   0.745 -1.2365 -3.5327  2.4879
  136MOL0     H18754   7.804   9.494   0.408  0.0614  1.3489 -0.2821
  136MOL0     H18755   7.800   9.523   0.182  1.1971 -0.3617  3.2261
  136MOL0     H18756   7.543   9.451  -0.168  0.3340 -3.0720  0.5859
  136MOL0     H18757   7.427   9.415  -0.043  0.8609 -0.7588  0.9744
  136MOL0     H18758   7.549   9.686  -0.119 -0.2792  0.1501 -0.9036
  136MOL0     H18759   7.425   9.662  -0.006  0.0656  0.2434  0.1106
  136MOL0     H18760   7.341   9.709  -0.257  4.8168  0.4481 -2.9057
  136MOL0     H18761   7.434   9.569  -0.305  0.7455 -0.2439 -0.4895
  136MOL0     H18762   7.184   9.556  -0.124  1.0326 -1.1372  1.4555
  136MOL0     H18763   7.260   9.414  -0.184  0.4645 -0.5218 -0.1087
  136MOL0     H18764   7.075   9.564  -0.542 -1.0220  2.0239  0.0647
  136MOL0     H18765   7.382   9.439   0.162 -2.7881 -0.1886  4.1182
  136MOL0     H18766   7.305   9.509   0.468 -0.1404  1.4720 -2.2363
  136MOL0     H18767   7.263   9.406   0.327  0.6635 -0.7100  0.0577
  136MOL0     H18768   7.333   9.327   0.470  1.2524  1.6332  2.0183
  137MOL0     O18769   6.341   3.719   9.630  0.2015  0.3259  0.4321
  137MOL0     C18770   6.309   3.835   9.666 -0.9429  0.0282 -0.6664
  137MOL0     O18771   6.194   3.894   9.660 -0.0653 -0.3233 -0.7828
  137MOL0     C18772   6.087   3.829   9.617 -0.1491 -0.2484  0.4419
  137MOL0     C18773   6.063   3.688   9.618 -1.1194 -1.1158  0.1744
  137MOL0     C18774   5.940   3.645   9.558 -0.7340 -0.8679  0.2603
  137MOL0     C18775   5.845   3.735   9.502  0.8575 -0.4507 -0.7137
  137MOL0     O18776   5.717   3.693   9.452 -0.4727 -0.4422 -0.1108
  137MOL0     C18777   5.676   3.555   9.479  0.1088  0.1067 -0.0319
  137MOL0     C18778   5.527   3.546   9.452  0.1054  0.9053  0.2976
  137MOL0     C18779   5.480   3.407   9.490 -0.2728 -0.1669  0.3258
  137MOL0     C18780   5.320   3.410   9.494 -0.5477 -0.0523 -0.8865
  137MOL0     C18781   5.277   3.259   9.506  0.6767 -0.6532  0.6544
  137MOL0     C18782   5.332   3.178   9.623 -0.1312 -0.1303  0.2901
  137MOL0     C18783   5.271   3.036   9.616 -0.3155  0.1375  0.2549
  137MOL0     C18784   5.235   2.979   9.757 -0.0480  0.0168  0.7329
  137MOL0     N18785   5.354   2.966   9.840 -0.2764  1.3948 -1.2766
  137MOL0     C18786   5.347   2.975   9.978 -0.0576 -0.1288  0.0265
  137MOL0     C18787   5.467   2.929  10.027 -0.1217 -0.6277 -0.1406
  137MOL0     C18788   5.499   2.910  10.170 -0.2643  0.7695 -0.8165
  137MOL0     C18789   5.629   2.980  10.218 -0.3949 -0.1388  0.0044
  137MOL0     C18790   5.760   2.938  10.159 -0.1540  0.4620  0.0011
  137MOL0     C18791   5.864   3.047  10.213 -1.1329  0.5736 -0.0364
  137MOL0     O18792   5.996   3.005  10.179 -0.0540  0.7548  0.3226
  137MOL0     C18793   6.107   3.065  10.248  1.4639 -0.3660  0.5254
  137MOL0     C18794   6.096   3.178  10.345 -0.4368 -0.2721 -0.8772
  137MOL0     C18795   6.222   3.228  10.406 -0.1548  0.7241  1.0671
  137MOL0     C18796   6.221   3.340  10.512  0.4178 -0.6713  0.7242
  137MOL0     C18797   6.345   3.166  10.368  0.0095  0.2764 -0.6274
  137MOL0     C18798   6.477   3.212  10.415  0.1110 -0.6404 -0.0041
  137MOL0     O18799   6.571   3.243  10.327  0.0576 -0.1441 -0.0361
  137MOL0     C18800   6.705   3.261  10.379  0.1849 -0.2223  0.1858
  137MOL0     C18801   6.766   3.383  10.365 -0.5822  0.4816 -0.1357
  137MOL0     C18802   6.896   3.407  10.408  0.1308  0.5949 -0.1686
  137MOL0     C18803   6.976   3.298  10.449  0.3997 -0.3443  0.3528
  137MOL0     O18804   7.113   3.315  10.488  0.0766  0.1283  0.3957
  137MOL0     C18805   7.137   3.433  10.559  0.2689 -0.3711  0.1659
  137MOL0     C18806   7.255   3.411  10.644  0.3683  0.2288 -0.3399
  137MOL0     C18807   7.225   3.310  10.761 -0.4610 -0.7955  0.0960
  137MOL0     C18808   7.345   3.274  10.857  1.0190  0.6627  0.6360
  137MOL0     C18809   7.291   3.196  10.975  0.5877  0.3777 -0.2723
  137MOL0     C18810   7.403   3.138  11.056  0.1564  0.7752  0.8917
  137MOL0     C18811   7.353   3.074  11.176  0.0679 -0.1213  0.1790
  137MOL0     C18812   7.467   3.000  11.253 -0.5329 -0.5753  0.3796
  137MOL0    Cl18813   7.397   2.907  11.382 -0.4222 -0.0638 -0.2086
  137MOL0     C18814   6.917   3.173  10.469 -0.0344 -0.2936  0.4236
  137MOL0     C18815   6.781   3.154  10.428  0.2280 -0.2795 -0.0836
  137MOL0     O18816   6.487   3.235  10.533 -0.0432  0.1041 -0.1267
  137MOL0     C18817   6.356   3.055  10.279  0.0835 -0.3940  0.0583
  137MOL0     C18818   6.231   3.007  10.228  0.3925 -0.4244  0.6024
  137MOL0     N18819   5.550   2.907   9.920  0.6187  0.3435 -0.6824
  137MOL0     N18820   5.482   2.921   9.808 -0.0926 -0.5700  0.9659
  137MOL0     C18821   5.873   3.868   9.502  0.6369  0.5187 -0.6888
  137MOL0     C18822   5.989   3.910   9.559 -0.0291 -0.0070  0.2153
  137MOL0     C18823   6.407   3.912   9.742 -0.6466  0.5737  0.2819
  137MOL0     C18824   6.375   4.004   9.846  0.0197  0.3210  1.5414
  137MOL0     C18825   6.463   4.071   9.921 -0.4815  0.6016 -0.4905
  137MOL0     C18826   6.599   4.035   9.923 -0.2177  1.3698 -0.5408
  137MOL0     O18827   6.685   4.095  10.014 -0.0611  0.5131 -0.1570
  137MOL0     C18828   6.823   4.093   9.982 -0.5092 -0.0565 -0.7732
  137MOL0     C18829   6.901   4.183  10.075 -0.9022  0.6800  0.1560
  137MOL0     C18830   7.039   4.232  10.024 -0.1095  0.4186 -0.4523
  137MOL0     C18831   7.120   4.325  10.103 -0.8622 -0.2536  0.3328
  137MOL0     C18832   7.179   4.274  10.229  0.5148  1.0301  0.2888
  137MOL0     C18833   7.229   4.232  10.330  0.0628 -0.1392 -0.4354
  137MOL0     C18834   6.633   3.939   9.824  0.6708 -0.7656  0.2835
  137MOL0     C18835   6.544   3.880   9.732 -0.1740  0.1542 -0.1194
  137MOL0     C18836   6.612   3.807   9.619 -0.7979 -0.1763 -0.6890
  137MOL0     H18837   6.131   3.617   9.664 -0.7779 -0.6553  0.3824
  137MOL0     H18838   5.926   3.538   9.562 -1.0321 -0.8025  1.1734
  137MOL0     H18839   5.695   3.530   9.583 -2.1338 -1.0319  0.1504
  137MOL0     H18840   5.736   3.493   9.411 -0.9477  2.2708 -3.2196
  137MOL0     H18841   5.478   3.618   9.518  1.6383  1.2800  1.0700
  137MOL0     H18842   5.497   3.559   9.348 -0.1680 -1.0043  0.0962
  137MOL0     H18843   5.515   3.335   9.416 -1.7459  0.0668 -0.6579
  137MOL0     H18844   5.516   3.380   9.589 -0.9000 -4.5280 -0.4321
  137MOL0     H18845   5.292   3.471   9.581  0.9287  1.1307 -1.2021
  137MOL0     H18846   5.268   3.460   9.412 -1.7950 -0.1961 -0.2096
  137MOL0     H18847   5.318   3.210   9.417 -1.1022 -0.7361 -0.1535
  137MOL0     H18848   5.168   3.256   9.500  0.4618  2.0542  1.9472
  137MOL0     H18849   5.441   3.190   9.611 -0.3934  1.4783 -0.8896
  137MOL0     H18850   5.302   3.226   9.716 -1.2920 -1.5903  0.6899
  137MOL0     H18851   5.350   2.970   9.579  0.6396  0.9145  0.8880
  137MOL0     H18852   5.195   3.022   9.538 -1.8037 -0.7464  1.7786
  137MOL0     H18853   5.154   3.042   9.795  1.9187  0.9312  3.7592
  137MOL0     H18854   5.191   2.879   9.749  1.7181 -1.1091  3.4911
  137MOL0     H18855   5.262   3.008  10.036 -0.3594  1.3479 -1.1874
  137MOL0     H18856   5.498   2.801  10.179 -2.9335  0.5241 -2.7243
  137MOL0     H18857   5.425   2.949  10.240  0.8541 -0.3365  1.0554
  137MOL0     H18858   5.627   3.086  10.189 -1.1579  0.2182  1.2875
  137MOL0     H18859   5.642   2.979  10.326 -1.2760  1.6562  0.1647
  137MOL0     H18860   5.788   2.838  10.194 -2.2984 -1.4082 -3.1538
  137MOL0     H18861   5.762   2.950  10.051 -0.0589  3.3458  0.2232
  137MOL0     H18862   5.842   3.145  10.169 -1.6960  0.0132 -1.0451
  137MOL0     H18863   5.857   3.052  10.322 -0.7856  2.3265 -0.0730
  137MOL0     H18864   5.996   3.216  10.367 -0.8558  2.1611 -5.6747
  137MOL0     H18865   6.120   3.381  10.513  0.6330  0.3377 -3.1771
  137MOL0     H18866   6.297   3.412  10.480 -0.5508  1.2712  2.5817
  137MOL0     H18867   6.252   3.303  10.610 -0.5888 -0.5257  1.1043
  137MOL0     H18868   6.724   3.466  10.309  2.5419  1.7941 -0.7591
  137MOL0     H18869   6.943   3.505  10.408  1.0631  0.1572 -0.0194
  137MOL0     H18870   7.151   3.514  10.487 -0.1226 -0.0981  0.3923
  137MOL0     H18871   7.062   3.454  10.636 -0.0670 -2.3404  0.4197
  137MOL0     H18872   7.340   3.378  10.584 -0.4246  1.0237 -1.9722
  137MOL0     H18873   7.287   3.504  10.692 -0.8531  0.6723 -0.3245
  137MOL0     H18874   7.179   3.222  10.715  0.5781 -0.7451 -1.1187
  137MOL0     H18875   7.153   3.364  10.822  0.7387  1.3331 -0.2619
  137MOL0     H18876   7.391   3.366  10.895 -0.1470  1.4498  0.2005
  137MOL0     H18877   7.421   3.212  10.807  2.4877 -0.4248  3.9488
  137MOL0     H18878   7.218   3.249  11.036 -3.2952  0.1050 -4.1856
  137MOL0     H18879   7.237   3.112  10.929  0.3092  0.2446  0.2980
  137MOL0     H18880   7.460   3.225  11.090  0.6254  0.9578 -0.3155
  137MOL0     H18881   7.459   3.070  10.992  2.9192  2.7913  0.9932
  137MOL0     H18882   7.275   3.004  11.148 -0.7514  0.5327  0.7582
  137MOL0     H18883   7.318   3.158  11.238 -0.4859 -0.8673  0.8991
  137MOL0     H18884   7.550   3.063  11.287  0.8408 -1.2838 -1.5077
  137MOL0     H18885   7.510   2.921  11.191 -0.4906 -2.2152  2.3904
  137MOL0     H18886   6.971   3.092  10.516  1.3846  0.0535 -0.5324
  137MOL0     H18887   6.733   3.060  10.456 -0.3876  0.4037  1.2546
  137MOL0     H18888   6.449   3.009  10.247  2.2948  1.9946  2.5881
  137MOL0     H18889   6.231   2.923  10.161 -0.0968 -1.2700  1.6343
  137MOL0     H18890   5.802   3.946   9.475  0.8067  2.1322  2.8675
  137MOL0     H18891   6.014   4.015   9.562 -0.0375  0.0207 -0.5765
  137MOL0     H18892   6.271   4.031   9.859 -0.8708  0.2585 -3.5353
  137MOL0     H18893   6.420   4.144   9.988 -0.6889 -0.5300  0.6547
  137MOL0     H18894   6.868   3.994   9.996  0.1184  0.5120  1.7664
  137MOL0     H18895   6.842   4.117   9.877  2.2799  0.6136 -0.2221
  137MOL0     H18896   6.914   4.123  10.166 -2.3084 -2.5433 -1.6026
  137MOL0     H18897   6.839   4.271  10.094 -3.2052 -1.2158  2.1024
  137MOL0     H18898   7.110   4.151  10.004  1.9414  2.0907 -0.3107
  137MOL0     H18899   7.023   4.279   9.927 -1.6127  0.7428 -0.0650
  137MOL0     H18900   7.057   4.413  10.120 -0.8657 -0.1676 -0.1107
  137MOL0     H18901   7.205   4.362  10.045 -0.2554  0.5237  1.6772
  137MOL0     H18902   7.284   4.211  10.419  1.2453  2.6014 -0.4054
  137MOL0     H18903   6.735   3.917   9.795  0.3062 -0.6803 -1.1786
  137MOL0     H18904   6.550   3.762   9.540  0.7100  0.0757 -2.0678
  137MOL0     H18905   6.681   3.879   9.575 -0.9906 -0.1811 -1.0010
  137MOL0     H18906   6.675   3.729   9.662 -0.9410  0.3168  0.4499
  138MOL0     O18907   1.242   8.121   2.079 -0.0255 -0.5445 -0.5255
  138MOL0     C18908   1.251   8.157   2.201  0.3932  0.7116  0.0419
  138MOL0     O18909   1.350   8.231   2.254  0.2930 -0.0286 -0.3161
  138MOL0     C18910   1.456   8.266   2.175  0.1077  0.1325  0.5392
  138MOL0     C18911   1.535   8.173   2.104 -0.9554 -0.6671  0.3417
  138MOL0     C18912   1.636   8.210   2.022  0.6500  0.6070 -0.5624
  138MOL0     C18913   1.662   8.347   2.010 -0.1493 -0.1293 -0.9856
  138MOL0     O18914   1.763   8.369   1.920  0.3542  0.2956  0.1345
  138MOL0     C18915   1.875   8.452   1.955 -0.0735 -0.6730 -0.2305
  138MOL0     C18916   1.859   8.583   1.892  1.2598 -0.5354  0.6422
  138MOL0     C18917   1.908   8.699   1.981 -0.5835  0.2560 -0.2534
  138MOL0     C18918   1.870   8.834   1.907  0.9153 -0.5976 -0.1161
  138MOL0     C18919   1.926   8.960   1.968 -0.1393 -0.3290  0.3079
  138MOL0     C18920   1.933   9.075   1.865  0.1179 -0.4389 -0.0024
  138MOL0     C18921   1.996   9.205   1.915  0.4295 -0.7416 -0.3736
  138MOL0     C18922   2.054   9.290   1.801 -0.6202  0.3619  0.2321
  138MOL0     N18923   2.116   9.418   1.834  0.2681  0.0059 -0.5736
  138MOL0     C18924   2.155   9.446   1.960  0.0205 -0.6184 -0.4545
  138MOL0     C18925   2.147   9.580   1.963 -0.8103  0.8837  0.0500
  138MOL0     C18926   2.180   9.653   2.088  0.6483 -0.2711 -0.9526
  138MOL0     C18927   2.051   9.674   2.183 -0.7359  0.3282  0.4177
  138MOL0     C18928   2.094   9.736   2.314  0.0296 -0.1653 -0.1004
  138MOL0     C18929   1.972   9.777   2.401  0.1826 -1.0061 -0.4004
  138MOL0     O18930   1.889   9.665   2.438 -0.0010  1.3852  0.0091
  138MOL0     C18931   1.758   9.685   2.476 -0.3541 -0.8845 -0.2203
  138MOL0     C18932   1.696   9.809   2.490  0.0362  0.5251 -0.7958
  138MOL0     C18933   1.567   9.823   2.540  0.4627 -1.3351  0.5125
  138MOL0     C18934   1.524   9.970   2.558  0.3321  0.0765 -0.4292
  138MOL0     C18935   1.496   9.713   2.585  0.0566 -0.2861  0.0436
  138MOL0     C18936   1.351   9.716   2.638 -0.3707 -0.0249 -0.6542
  138MOL0     O18937   1.286   9.596   2.637 -0.2107 -0.6669  0.1804
  138MOL0     C18938   1.149   9.592   2.623 -1.2908 -0.8016  0.5400
  138MOL0     C18939   1.061   9.694   2.575  0.3664 -0.1852  0.2870
  138MOL0     C18940   0.926   9.670   2.581  0.1606 -0.1053 -1.0623
  138MOL0     C18941   0.867   9.551   2.616  0.3692 -0.4106 -0.7064
  138MOL0     O18942   0.725   9.527   2.606 -0.5729 -0.1320 -0.1626
  138MOL0     C18943   0.656   9.407   2.668  0.6047 -0.0358 -0.6382
  138MOL0     C18944   0.626   9.304   2.559 -0.1182  0.1761 -0.2445
  138MOL0     C18945   0.564   9.184   2.628  0.1046  0.2066 -1.0835
  138MOL0     C18946   0.506   9.082   2.531  0.1056  0.3242 -0.4004
  138MOL0     C18947   0.458   8.950   2.592 -0.4726 -0.4512  0.3873
  138MOL0     C18948   0.346   8.893   2.500 -1.0398  0.0839  0.0935
  138MOL0     C18949   0.292   8.758   2.540 -0.4964  0.8455 -0.3881
  138MOL0     C18950   0.225   8.696   2.423  0.3929 -0.8172 -0.5976
  138MOL0    Cl18951   0.159   8.529   2.440 -0.3626 -0.0535  0.3681
  138MOL0     C18952   0.952   9.458   2.671 -1.2586  0.3483  0.4923
  138MOL0     C18953   1.090   9.483   2.670  0.7369 -0.0163  0.0992
  138MOL0     O18954   1.303   9.820   2.681  0.7134  0.6183 -0.7502
  138MOL0     C18955   1.553   9.582   2.552  0.0164  0.1087  0.1578
  138MOL0     C18956   1.685   9.568   2.500  0.1455 -0.7586  0.6150
  138MOL0     N18957   2.093   9.640   1.846 -0.2661  0.8933  1.0870
  138MOL0     N18958   2.087   9.535   1.775  0.5187 -1.8540  0.0769
  138MOL0     C18959   1.592   8.445   2.085 -0.2813  0.1803 -0.3080
  138MOL0     C18960   1.480   8.400   2.166 -0.6164  0.6359 -0.3937
  138MOL0     C18961   1.138   8.125   2.289  0.2718 -0.1115  0.5917
  138MOL0     C18962   1.049   8.025   2.248  0.3089  0.0186  0.2365
  138MOL0     C18963   0.942   7.981   2.323  0.6496 -0.3625  0.4650
  138MOL0     C18964   0.919   8.033   2.449 -0.1268 -0.2207 -0.3354
  138MOL0     O18965   0.812   8.006   2.523  0.5622 -0.2915 -0.6071
  138MOL0     C18966   0.712   7.917   2.484  0.0158 -0.5352  0.4521
  138MOL0     C18967   0.609   7.936   2.591  0.1906  0.0259  0.0477
  138MOL0     C18968   0.646   7.848   2.707 -0.1731  0.0344  0.0223
  138MOL0     C18969   0.596   7.706   2.687 -0.9815 -0.2744  0.2903
  138MOL0     C18970   0.456   7.696   2.702  0.2913  0.4058 -1.4389
  138MOL0     C18971   0.336   7.686   2.724 -0.1999 -0.1821 -0.2597
  138MOL0     C18972   1.010   8.133   2.490  0.4548  1.4978  0.5871
  138MOL0     C18973   1.108   8.190   2.411  0.1510 -0.7558 -0.5737
  138MOL0     C18974   1.160   8.327   2.458  0.1999  0.4203 -0.4909
  138MOL0     H18975   1.517   8.067   2.116 -0.2527 -0.5181  3.9779
  138MOL0     H18976   1.696   8.152   1.954  1.4636  0.0628  0.5925
  138MOL0     H18977   1.971   8.408   1.928  0.9351  1.6462 -0.6468
  138MOL0     H18978   1.876   8.468   2.063  1.5812 -2.3560  0.0654
  138MOL0     H18979   1.903   8.588   1.792 -1.1004 -0.0676 -0.4512
  138MOL0     H18980   1.751   8.593   1.882  0.8480 -1.1556  3.5946
  138MOL0     H18981   1.848   8.695   2.072 -0.7338 -2.2426 -0.3880
  138MOL0     H18982   2.015   8.696   2.000 -0.4228 -1.1467 -1.2296
  138MOL0     H18983   1.906   8.827   1.804 -0.6145 -3.7289 -0.5570
  138MOL0     H18984   1.761   8.848   1.909  0.2107 -4.6050 -1.5226
  138MOL0     H18985   2.028   8.932   1.993  0.8133  1.3890 -1.3991
  138MOL0     H18986   1.873   8.990   2.059  0.3979  1.5113  0.0579
  138MOL0     H18987   2.000   9.046   1.784  0.0542 -1.3596  0.2600
  138MOL0     H18988   1.832   9.091   1.828  1.1249 -0.0780 -2.7714
  138MOL0     H18989   2.074   9.187   1.990 -1.0574 -1.2124  1.1338
  138MOL0     H18990   1.925   9.273   1.965  1.3646 -0.9534  1.3231
  138MOL0     H18991   2.120   9.231   1.737  1.1913  1.8670  0.6259
  138MOL0     H18992   1.966   9.304   1.737  0.2998  1.3429 -0.8709
  138MOL0     H18993   2.188   9.380   2.040 -1.7713  0.1623  1.0107
  138MOL0     H18994   2.206   9.753   2.052  0.6449  0.2094  0.3188
  138MOL0     H18995   2.270   9.611   2.134  1.5019 -0.2770 -2.5540
  138MOL0     H18996   1.986   9.748   2.137  2.3258  3.7805  1.1649
  138MOL0     H18997   2.001   9.578   2.195 -0.1215 -0.0349  0.1640
  138MOL0     H18998   2.160   9.670   2.371 -1.6896 -1.2563  0.7341
  138MOL0     H18999   2.148   9.829   2.295  0.7327  0.1396  2.9156
  138MOL0     H19000   2.019   9.825   2.488 -1.2454  1.1404 -0.7244
  138MOL0     H19001   1.912   9.843   2.338  2.3819 -1.2659 -2.8985
  138MOL0     H19002   1.760   9.892   2.463  1.4790 -0.6633 -1.1556
  138MOL0     H19003   1.452  10.008   2.484  0.7474 -1.1023 -1.4662
  138MOL0     H19004   1.615  10.028   2.542  1.0998 -0.9213  0.1807
  138MOL0     H19005   1.481   9.983   2.658 -1.7783  0.8419 -1.3802
  138MOL0     H19006   1.087   9.794   2.541 -1.2346  1.0113  2.2862
  138MOL0     H19007   0.852   9.738   2.538 -1.6067 -2.8803 -2.7199
  138MOL0     H19008   0.705   9.359   2.753 -2.2399  1.7855  2.2893
  138MOL0     H19009   0.562   9.444   2.711  0.0996 -1.8674 -0.0788
  138MOL0     H19010   0.557   9.341   2.482  0.8481 -3.2053 -3.0347
  138MOL0     H19011   0.717   9.269   2.510  1.2432 -1.3260  3.0650
  138MOL0     H19012   0.479   9.197   2.696 -2.2289  0.3039 -3.7988
  138MOL0     H19013   0.649   9.141   2.681  1.4577  1.4840 -2.1176
  138MOL0     H19014   0.573   9.060   2.448 -1.3874 -0.4653 -1.4448
  138MOL0     H19015   0.413   9.124   2.491 -0.5346  0.6879  1.3703
  138MOL0     H19016   0.540   8.881   2.614 -0.6881 -2.1915 -3.4434
  138MOL0     H19017   0.406   8.963   2.687  0.5951 -3.5407  1.5147
  138MOL0     H19018   0.396   8.896   2.403 -0.3108  2.2680  0.4918
  138MOL0     H19019   0.263   8.963   2.485 -1.1712  0.5493  2.6024
  138MOL0     H19020   0.233   8.758   2.633  0.6218  1.2810  0.3421
  138MOL0     H19021   0.382   8.702   2.564  0.0741  0.8597 -2.3442
  138MOL0     H19022   0.294   8.702   2.337  0.2995 -0.6533 -0.6626
  138MOL0     H19023   0.140   8.763   2.409  2.7752  3.4137  2.8074
  138MOL0     H19024   0.917   9.363   2.710 -2.1075 -0.1325 -1.3584
  138MOL0     H19025   1.153   9.402   2.708  0.2938  0.1010  1.1215
  138MOL0     H19026   1.498   9.491   2.570  3.7895 -2.4849 -0.2479
  138MOL0     H19027   1.721   9.466   2.492 -0.4628 -0.9051 -0.4438
  138MOL0     H19028   1.606   8.552   2.071  2.0097  0.0317  0.4138
  138MOL0     H19029   1.418   8.473   2.218  3.0594  3.3879  0.5820
  138MOL0     H19030   1.055   7.974   2.152 -0.7554  0.3085 -0.0047
  138MOL0     H19031   0.874   7.909   2.279  2.6023 -2.4440  0.6008
  138MOL0     H19032   0.666   7.936   2.387 -3.4248  2.2131  2.4169
  138MOL0     H19033   0.754   7.816   2.476 -0.2183 -0.4734 -2.3266
  138MOL0     H19034   0.507   7.905   2.564  0.4170  0.3538 -1.2476
  138MOL0     H19035   0.595   8.041   2.617  1.1277  0.8621 -2.5103
  138MOL0     H19036   0.752   7.829   2.730  0.2396 -1.4845 -2.7250
  138MOL0     H19037   0.604   7.895   2.796  1.5340 -1.4250  1.6933
  138MOL0     H19038   0.641   7.631   2.752 -0.5566 -1.4586 -1.3135
  138MOL0     H19039   0.630   7.684   2.586  0.4999 -0.9317  0.9137
  138MOL0     H19040   0.232   7.693   2.746 -0.3922 -0.5007 -1.0316
  138MOL0     H19041   0.973   8.173   2.584 -1.2023 -2.6897  1.9311
  138MOL0     H19042   1.257   8.356   2.416 -0.5542  1.9634 -1.2777
  138MOL0     H19043   1.082   8.396   2.423 -2.8202 -3.3996 -2.0036
  138MOL0     H19044   1.170   8.334   2.567  2.5119  0.7436 -0.6801
  139MOL0     O19045   6.590   8.573  10.361  0.2648 -0.3001  0.4725
  139MOL0     C19046   6.666   8.488  10.396 -1.3425  0.3258 -0.3120
  139MOL0     O19047   6.642   8.406  10.507 -0.7588  0.4462  0.2483
  139MOL0     C19048   6.515   8.391  10.554 -0.0152 -0.1809  0.0674
  139MOL0     C19049   6.460   8.486  10.631 -1.0005 -0.7540  0.7233
  139MOL0     C19050   6.335   8.455  10.686  0.2064 -0.4694  0.5793
  139MOL0     C19051   6.254   8.341  10.665 -0.5440  0.6958 -0.4346
  139MOL0     O19052   6.134   8.314  10.722 -0.2641  0.4913  0.4438
  139MOL0     C19053   6.098   8.175  10.733  0.5879  0.0299  0.6087
  139MOL0     C19054   5.973   8.154  10.828 -0.6986 -0.3732 -0.3614
  139MOL0     C19055   5.912   8.009  10.822 -0.0609  0.5266  0.3468
  139MOL0     C19056   5.795   7.974  10.907  0.6387 -0.1680  0.1363
  139MOL0     C19057   5.661   8.038  10.866  0.3397 -0.2011 -0.8856
  139MOL0     C19058   5.554   7.955  10.927 -1.1092  0.3204 -0.1897
  139MOL0     C19059   5.412   8.021  10.908  0.7449  0.1407  0.6300
  139MOL0     C19060   5.309   7.981  11.016 -0.4287 -0.5475  0.6529
  139MOL0     N19061   5.318   7.831  11.038  0.1235 -0.1842  0.0809
  139MOL0     C19062   5.339   7.763  11.157 -0.9757  0.0991  0.3290
  139MOL0     C19063   5.348   7.631  11.116 -0.3670  0.0637  0.6155
  139MOL0     C19064   5.373   7.521  11.221  0.5058 -0.2107 -0.3584
  139MOL0     C19065   5.387   7.384  11.164  0.0662 -0.8542 -0.7685
  139MOL0     C19066   5.519   7.386  11.088 -0.0750 -0.1463 -0.8365
  139MOL0     C19067   5.642   7.318  11.158 -0.6890 -0.7288 -0.0117
  139MOL0     O19068   5.670   7.378  11.284  0.3094 -0.3214  0.3314
  139MOL0     C19069   5.800   7.405  11.327 -0.8861  0.2939  1.3170
  139MOL0     C19070   5.929   7.371  11.259  0.2145  0.1802  0.1737
  139MOL0     C19071   6.052   7.393  11.321  0.5777  1.1616 -0.2150
  139MOL0     C19072   6.175   7.354  11.245 -0.3452 -0.2915  0.6110
  139MOL0     C19073   6.057   7.444  11.456 -1.0562  0.0528  0.1171
  139MOL0     C19074   6.190   7.478  11.532 -0.6424 -0.3370  0.4483
  139MOL0     O19075   6.308   7.518  11.459  0.2544 -0.3342 -0.1598
  139MOL0     C19076   6.429   7.517  11.529 -0.4968  0.9078  0.0199
  139MOL0     C19077   6.529   7.619  11.520 -0.5837  0.3605 -0.2166
  139MOL0     C19078   6.659   7.614  11.590 -0.3717  0.5848 -0.3127
  139MOL0     C19079   6.685   7.513  11.687 -0.2613 -0.1422  0.0243
  139MOL0     O19080   6.805   7.517  11.754  1.0304  0.6834  0.6643
  139MOL0     C19081   6.851   7.404  11.833  0.7558  0.4353  0.3000
  139MOL0     C19082   6.984   7.429  11.911  0.2411 -0.3358  0.1680
  139MOL0     C19083   7.100   7.463  11.818  0.0246  0.0617  0.2023
  139MOL0     C19084   7.223   7.425  11.896 -0.5054  0.1675  0.2303
  139MOL0     C19085   7.343   7.490  11.830  0.7808  0.3510  0.0879
  139MOL0     C19086   7.477   7.449  11.893 -0.2168 -1.1018  0.1543
  139MOL0     C19087   7.510   7.552  11.999 -0.5739 -0.1690  0.4960
  139MOL0     C19088   7.659   7.550  12.038 -0.2228 -0.2801 -0.1523
  139MOL0    Cl19089   7.742   7.646  11.918  0.0996 -0.1591 -0.0750
  139MOL0     C19090   6.585   7.414  11.691  0.2274 -0.4319  0.7083
  139MOL0     C19091   6.467   7.409  11.615 -0.1606  0.7263  0.1909
  139MOL0     O19092   6.186   7.474  11.655 -1.0105  0.1906  0.4077
  139MOL0     C19093   5.938   7.473  11.520 -0.3729  0.4457 -0.5256
  139MOL0     C19094   5.816   7.455  11.461 -0.7568 -0.0613 -0.4700
  139MOL0     N19095   5.337   7.623  10.972 -0.4716 -0.1553 -0.0452
  139MOL0     N19096   5.314   7.745  10.930 -0.5835  0.1560  0.0414
  139MOL0     C19097   6.320   8.247  10.590  0.4203  0.4982  0.2972
  139MOL0     C19098   6.444   8.274  10.534 -0.2195  0.2893  0.3191
  139MOL0     C19099   6.810   8.479  10.345 -0.6114 -0.2450 -0.0415
  139MOL0     C19100   6.890   8.372  10.394  0.7021 -0.5556  0.8737
  139MOL0     C19101   7.026   8.359  10.351 -0.3319  0.4109  0.1360
  139MOL0     C19102   7.088   8.449  10.265 -0.0314 -0.0998 -0.5918
  139MOL0     O19103   7.215   8.426  10.224 -0.0668  0.3775  0.0580
  139MOL0     C19104   7.293   8.532  10.190  0.5240  0.1482  0.1671
  139MOL0     C19105   7.437   8.489  10.144 -0.2469  0.0848 -0.6941
  139MOL0     C19106   7.517   8.602  10.081  0.0558 -0.0895  0.1743
  139MOL0     C19107   7.636   8.548   9.994  0.2101 -1.3968  0.1166
  139MOL0     C19108   7.739   8.650   9.969  0.1350 -0.1357  0.7266
  139MOL0     C19109   7.825   8.730   9.945 -0.0710 -0.0294 -0.6403
  139MOL0     C19110   7.004   8.547  10.206  0.1710 -0.0907  0.1272
  139MOL0     C19111   6.872   8.570  10.255  0.0705 -0.4368  0.2813
  139MOL0     C19112   6.805   8.702  10.209 -0.1503  0.1301  0.4841
  139MOL0     H19113   6.513   8.578  10.652 -0.3656 -1.4812  2.5139
  139MOL0     H19114   6.291   8.544  10.730  0.6360  1.1908 -2.0703
  139MOL0     H19115   6.180   8.111  10.766  1.8374  1.3814  0.2009
  139MOL0     H19116   6.065   8.136  10.636  2.9618  1.2039 -0.7477
  139MOL0     H19117   6.012   8.157  10.930 -1.1551 -1.2507 -0.1459
  139MOL0     H19118   5.898   8.231  10.809 -0.5610 -0.7086 -2.5328
  139MOL0     H19119   5.881   7.994  10.718 -2.2790 -0.7548  1.1197
  139MOL0     H19120   5.989   7.935  10.846  0.9663  0.8799 -1.6506
  139MOL0     H19121   5.779   7.866  10.903  0.2713 -0.1181  0.2182
  139MOL0     H19122   5.809   8.003  11.012  0.1178  0.7308 -0.0269
  139MOL0     H19123   5.640   8.016  10.761  0.7900 -1.2653 -0.7732
  139MOL0     H19124   5.660   8.139  10.908 -0.9228 -1.1482  1.6065
  139MOL0     H19125   5.561   7.850  10.895  0.6807 -0.7143  3.0954
  139MOL0     H19126   5.562   7.955  11.036 -3.9317 -1.2022  0.1383
  139MOL0     H19127   5.373   7.980  10.814  1.2218 -1.0071  0.9207
  139MOL0     H19128   5.426   8.130  10.905  1.6437  0.0290  0.7186
  139MOL0     H19129   5.337   8.037  11.106 -3.2935  1.2295  0.5546
  139MOL0     H19130   5.211   8.018  10.985  0.7791  0.7255 -1.9679
  139MOL0     H19131   5.351   7.803  11.257  1.2784 -0.0288  0.1566
  139MOL0     H19132   5.291   7.510  11.293  0.7061 -1.0491 -0.2407
  139MOL0     H19133   5.467   7.549  11.270 -0.0890  0.7545  0.2613
  139MOL0     H19134   5.394   7.315  11.248 -0.9177  3.0001  2.8216
  139MOL0     H19135   5.297   7.361  11.105 -1.7715 -0.6415  1.7655
  139MOL0     H19136   5.503   7.329  10.996 -2.8720 -0.6121 -0.1536
  139MOL0     H19137   5.556   7.482  11.053 -0.3265 -0.3551 -1.6897
  139MOL0     H19138   5.632   7.209  11.169 -2.4846 -0.4558  1.5908
  139MOL0     H19139   5.725   7.334  11.089 -2.1411 -1.0494 -1.9285
  139MOL0     H19140   5.930   7.342  11.154 -1.6584  0.7147 -0.0362
  139MOL0     H19141   6.245   7.292  11.301 -0.1683 -0.2278  0.4600
  139MOL0     H19142   6.239   7.438  11.217 -1.5024  0.4697  0.1542
  139MOL0     H19143   6.135   7.306  11.155 -1.6818  0.2034  0.9122
  139MOL0     H19144   6.516   7.707  11.458 -0.0514 -0.0597 -0.9474
  139MOL0     H19145   6.739   7.686  11.574 -0.5832  1.1004  0.8424
  139MOL0     H19146   6.770   7.376  11.901 -0.2023 -0.1778 -1.0689
  139MOL0     H19147   6.865   7.319  11.766  0.5610 -0.9067  1.9072
  139MOL0     H19148   6.966   7.519  11.971  0.2923 -0.9090  1.0650
  139MOL0     H19149   7.006   7.351  11.985 -3.5263 -0.6266  1.1901
  139MOL0     H19150   7.109   7.568  11.789 -0.3911 -0.6279 -2.7173
  139MOL0     H19151   7.089   7.395  11.733  0.0366 -1.9497  1.7478
  139MOL0     H19152   7.232   7.316  11.888  0.8282  0.3879 -1.9653
  139MOL0     H19153   7.212   7.452  12.002  1.4354 -2.1532  1.1217
  139MOL0     H19154   7.351   7.465  11.724  3.3950  1.2121  0.0239
  139MOL0     H19155   7.329   7.598  11.826  2.2688  0.5262 -0.9059
  139MOL0     H19156   7.552   7.442  11.814 -0.7379 -1.4575 -0.3172
  139MOL0     H19157   7.475   7.349  11.938  4.0463 -1.3935  0.1588
  139MOL0     H19158   7.457   7.532  12.093  3.0720 -0.9852  2.5822
  139MOL0     H19159   7.492   7.657  11.975 -0.5138 -0.1882  0.3684
  139MOL0     H19160   7.693   7.446  12.038 -3.3647 -1.4517  1.2801
  139MOL0     H19161   7.664   7.594  12.138 -1.7905 -0.5387  0.0758
  139MOL0     H19162   6.599   7.328  11.755 -1.1188 -1.9637 -0.9330
  139MOL0     H19163   6.398   7.326  11.624 -0.0927  0.6804  0.2846
  139MOL0     H19164   5.937   7.524  11.616 -0.6447  0.1335 -0.3638
  139MOL0     H19165   5.728   7.487  11.514 -1.4531  0.3523 -1.8198
  139MOL0     H19166   6.286   8.146  10.572  1.8110 -0.4778  2.7040
  139MOL0     H19167   6.489   8.188  10.486 -1.1983  1.5330 -3.0696
  139MOL0     H19168   6.851   8.292  10.456  0.5615 -1.7606 -0.7051
  139MOL0     H19169   7.078   8.271  10.387  0.2546  1.0476  0.8663
  139MOL0     H19170   7.246   8.596  10.115  3.7156  3.0436  0.3401
  139MOL0     H19171   7.315   8.590  10.281 -2.6793  1.6218  0.1316
  139MOL0     H19172   7.424   8.411  10.068  2.0850 -0.9810 -0.0755
  139MOL0     H19173   7.486   8.461  10.237  1.4859  0.4441 -1.4571
  139MOL0     H19174   7.454   8.670  10.022  0.3988  0.7953  0.8089
  139MOL0     H19175   7.555   8.661  10.164 -2.7763  1.9326  0.2050
  139MOL0     H19176   7.595   8.504   9.903 -0.1867  0.8018 -0.8039
  139MOL0     H19177   7.687   8.469  10.051  1.5480 -1.1544 -0.7008
  139MOL0     H19178   7.903   8.799   9.920  1.8283 -1.6437  0.5315
  139MOL0     H19179   7.045   8.616  10.134  0.1711  1.7326  1.7966
  139MOL0     H19180   6.845   8.738  10.114 -1.0158 -0.1673 -0.0031
  139MOL0     H19181   6.701   8.689  10.180  0.2781 -2.8074 -0.0485
  139MOL0     H19182   6.815   8.773  10.291  0.1022 -0.6671  1.1536
  140MOL0     O19183   4.816   1.108   7.959 -0.0586  0.7501  0.1622
  140MOL0     C19184   4.801   0.986   7.934 -0.4727 -0.2170  0.4191
  140MOL0     O19185   4.896   0.906   7.883  0.7984 -0.1668 -0.1192
  140MOL0     C19186   5.024   0.941   7.906 -0.4129 -0.2861 -0.2521
  140MOL0     C19187   5.073   0.954   8.043  0.1094  0.1533 -0.0696
  140MOL0     C19188   5.212   0.982   8.062  0.4836 -0.0424 -0.9122
  140MOL0     C19189   5.301   0.987   7.954  0.1932 -0.2026 -0.7466
  140MOL0     O19190   5.436   1.007   7.986 -0.0915  0.9357  0.2867
  140MOL0     C19191   5.532   0.924   7.915 -0.4160  0.5323 -0.9742
  140MOL0     C19192   5.580   0.799   7.990 -0.3887  0.0345  0.3866
  140MOL0     C19193   5.702   0.741   7.915  0.0018 -0.1647  0.3996
  140MOL0     C19194   5.807   0.686   8.011  0.1517  0.0035  0.1917
  140MOL0     C19195   5.923   0.625   7.937  0.6978  0.0628 -0.4047
  140MOL0     C19196   6.016   0.552   8.043 -1.3463 -0.6972  0.2378
  140MOL0     C19197   6.105   0.455   7.968  0.1943 -1.1239 -0.0028
  140MOL0     C19198   6.203   0.378   8.067  1.0095  0.0574  1.9455
  140MOL0     N19199   6.269   0.260   8.003  0.1297 -0.6840 -0.1506
  140MOL0     C19200   6.393   0.267   7.957 -0.3514 -0.2847  0.3224
  140MOL0     C19201   6.435   0.148   7.921 -0.3551  0.4858 -0.0646
  140MOL0     C19202   6.576   0.118   7.854  0.2007  0.3700 -0.4761
  140MOL0     C19203   6.695   0.093   7.958 -0.1753  0.5480  0.1893
  140MOL0     C19204   6.797   0.214   7.962  0.0165 -0.3380  0.4375
  140MOL0     C19205   6.930   0.166   8.010  0.6763  0.6195  0.4092
  140MOL0     O19206   6.912   0.090   8.132  0.3516  0.3711 -0.3992
  140MOL0     C19207   7.015   0.010   8.184  0.5156  0.7399  0.7116
  140MOL0     C19208   7.039   0.008   8.322 -1.1276 -0.2231 -0.2289
  140MOL0     C19209   7.140  -0.067   8.388 -0.8385  0.4549 -0.4626
  140MOL0     C19210   7.157  -0.027   8.536 -0.3068 -0.2288  0.0385
  140MOL0     C19211   7.214  -0.162   8.303 -0.2293 -0.2568  0.2718
  140MOL0     C19212   7.320  -0.260   8.357 -0.5847  0.3224  0.2540
  140MOL0     O19213   7.348  -0.249   8.487 -0.1155 -0.2373 -0.2604
  140MOL0     C19214   7.435  -0.343   8.527 -0.2225 -0.4082  0.0137
  140MOL0     C19215   7.561  -0.303   8.563 -0.0636  0.5506 -0.4564
  140MOL0     C19216   7.650  -0.389   8.622  0.5513 -0.7644 -0.0053
  140MOL0     C19217   7.615  -0.525   8.632  0.8165 -0.0878 -0.5540
  140MOL0     O19218   7.706  -0.612   8.684  0.0328  0.1018  0.3190
  140MOL0     C19219   7.665  -0.747   8.734 -0.2608 -0.1394  0.1026
  140MOL0     C19220   7.785  -0.807   8.814  0.4975  0.2835  0.9016
  140MOL0     C19221   7.828  -0.713   8.922 -0.3229 -0.0857  0.5885
  140MOL0     C19222   7.936  -0.779   9.006  0.5946 -0.6050  0.3644
  140MOL0     C19223   8.010  -0.684   9.106 -0.0264 -0.2158 -0.2294
  140MOL0     C19224   8.149  -0.738   9.142  0.8763 -0.0622 -0.1477
  140MOL0     C19225   8.248  -0.726   9.025 -0.8138  0.5970  0.6932
  140MOL0     C19226   8.353  -0.630   9.070 -0.4269 -0.8986  0.3152
  140MOL0    Cl19227   8.461  -0.587   8.935  0.1929 -0.2500  0.4424
  140MOL0     C19228   7.490  -0.568   8.596 -0.2831 -0.4075 -0.8064
  140MOL0     C19229   7.403  -0.482   8.536  0.5630 -0.0377  0.5967
  140MOL0     O19230   7.361  -0.351   8.281  0.4365 -0.3145 -0.0514
  140MOL0     C19231   7.188  -0.151   8.160 -0.3404 -1.1803  0.1685
  140MOL0     C19232   7.095  -0.067   8.100 -0.0496  0.2246 -0.4015
  140MOL0     N19233   6.336   0.056   7.963  0.3775 -0.2098 -0.0645
  140MOL0     N19234   6.238   0.124   8.008 -0.1471 -0.7864  0.0663
  140MOL0     C19235   5.248   0.980   7.821  1.0227  0.1822 -0.5164
  140MOL0     C19236   5.116   0.958   7.796  0.0089 -0.0399  0.4613
  140MOL0     C19237   4.674   0.927   7.957 -0.1362 -0.8175  0.1104
  140MOL0     C19238   4.567   0.995   7.899 -0.4563  0.3010  0.2406
  140MOL0     C19239   4.438   0.942   7.905 -0.2595 -0.0106 -0.3701
  140MOL0     C19240   4.406   0.841   7.999 -0.0918  0.2200 -0.7083
  140MOL0     O19241   4.273   0.796   8.021 -0.3058  0.3363 -0.9750
  140MOL0     C19242   4.183   0.805   7.914  0.0514 -0.1210  0.1692
  140MOL0     C19243   4.225   0.708   7.805  0.1753  0.0054  0.4110
  140MOL0     C19244   4.158   0.752   7.675  0.4154 -0.3989 -0.2430
  140MOL0     C19245   4.224   0.683   7.553  0.0354  0.4451 -0.6463
  140MOL0     C19246   4.167   0.552   7.556  0.9686  0.5245  0.0115
  140MOL0     C19247   4.095   0.455   7.578 -0.1815 -0.2127  0.1513
  140MOL0     C19248   4.510   0.789   8.070 -0.2907  0.2241 -0.0333
  140MOL0     C19249   4.645   0.821   8.045 -0.9081  0.3597  0.2090
  140MOL0     C19250   4.747   0.739   8.122 -0.1441  0.0341 -0.1451
  140MOL0     H19251   5.000   0.950   8.123 -0.6581 -1.0659 -0.8130
  140MOL0     H19252   5.242   1.013   8.162 -0.2441 -2.2401  0.0493
  140MOL0     H19253   5.619   0.986   7.895 -1.5975  2.0401 -1.6959
  140MOL0     H19254   5.499   0.882   7.819  2.1130 -2.4536 -0.6794
  140MOL0     H19255   5.611   0.834   8.089 -0.6030  0.2888  0.3650
  140MOL0     H19256   5.504   0.723   8.008  0.8213 -1.3732 -0.2681
  140MOL0     H19257   5.670   0.660   7.848 -0.5075  0.2702  0.1112
  140MOL0     H19258   5.751   0.818   7.856 -0.2763  1.4862  2.2273
  140MOL0     H19259   5.850   0.770   8.067 -1.0364  0.5075  0.3805
  140MOL0     H19260   5.762   0.615   8.081 -2.2810  0.5650 -0.7145
  140MOL0     H19261   5.981   0.701   7.883  1.7483 -0.1141  0.4438
  140MOL0     H19262   5.879   0.560   7.860 -0.0358  0.7430 -0.5768
  140MOL0     H19263   6.083   0.632   8.077  1.8958 -1.9888 -2.5300
  140MOL0     H19264   5.944   0.505   8.110 -3.5185  0.8725 -0.8643
  140MOL0     H19265   6.168   0.508   7.896 -1.2483  1.3987  0.4850
  140MOL0     H19266   6.046   0.380   7.915  0.6692  0.1257 -2.4620
  140MOL0     H19267   6.280   0.453   8.088  0.8062  1.4107 -1.5027
  140MOL0     H19268   6.144   0.357   8.157 -2.1794  1.4114  0.3168
  140MOL0     H19269   6.448   0.360   7.950 -0.8950 -0.0559 -4.2821
  140MOL0     H19270   6.609   0.202   7.792 -1.1439  2.0562  0.9727
  140MOL0     H19271   6.550   0.035   7.788 -1.4784  0.6061 -0.1655
  140MOL0     H19272   6.660   0.068   8.059 -0.5790  2.2763  0.5038
  140MOL0     H19273   6.753   0.008   7.918  2.2297  0.6335  3.1459
  140MOL0     H19274   6.815   0.257   7.863  0.6802  1.1802  1.1951
  140MOL0     H19275   6.761   0.285   8.037  0.3619 -1.9399  2.2004
  140MOL0     H19276   6.980   0.106   7.934  1.5978  2.2786 -0.3549
  140MOL0     H19277   6.992   0.253   8.033  1.1925  0.4550 -0.3313
  140MOL0     H19278   6.970   0.069   8.379 -0.7514  2.6774 -2.6012
  140MOL0     H19279   7.094  -0.084   8.605  0.6440  1.7224  2.6944
  140MOL0     H19280   7.118   0.074   8.548 -0.1701 -0.3169  1.3599
  140MOL0     H19281   7.260  -0.028   8.573 -1.5263 -1.4725  3.8429
  140MOL0     H19282   7.571  -0.195   8.559 -0.9909  0.6442 -0.4201
  140MOL0     H19283   7.752  -0.362   8.647  1.0356 -2.2234 -0.3462
  140MOL0     H19284   7.579  -0.730   8.799  0.4085 -0.7057  1.1624
  140MOL0     H19285   7.644  -0.819   8.654  0.3838  2.6660 -2.8071
  140MOL0     H19286   7.757  -0.904   8.856  1.5264 -0.4514 -0.0729
  140MOL0     H19287   7.868  -0.828   8.746 -1.5495  1.2195 -2.1012
  140MOL0     H19288   7.748  -0.704   8.997 -0.0972 -1.6740  1.0669
  140MOL0     H19289   7.850  -0.616   8.877  2.0051 -1.9284 -2.6345
  140MOL0     H19290   8.012  -0.829   8.945  0.5753 -1.8953  1.3397
  140MOL0     H19291   7.894  -0.863   9.062  1.5257 -2.3749 -1.4683
  140MOL0     H19292   8.016  -0.585   9.060  0.2774  0.1843  0.6462
  140MOL0     H19293   7.955  -0.666   9.199  0.4828 -0.9756  0.2252
  140MOL0     H19294   8.143  -0.843   9.171  2.1239  0.5059  2.4474
  140MOL0     H19295   8.186  -0.674   9.223  0.5494  2.1086 -1.6162
  140MOL0     H19296   8.214  -0.675   8.935  3.2606  2.3040 -0.1070
  140MOL0     H19297   8.289  -0.824   8.998 -2.7896 -0.4700  1.3888
  140MOL0     H19298   8.413  -0.689   9.140 -1.8325 -1.5771  0.9669
  140MOL0     H19299   8.314  -0.537   9.111  0.8232  0.0633 -0.6005
  140MOL0     H19300   7.470  -0.674   8.601  1.6385 -0.7433  2.8559
  140MOL0     H19301   7.301  -0.504   8.509 -0.4916  1.2685  3.1473
  140MOL0     H19302   7.250  -0.210   8.094  1.7871 -1.0300  1.9358
  140MOL0     H19303   7.068  -0.064   7.995  0.6372 -0.0549 -0.5953
  140MOL0     H19304   5.317   0.977   7.737  2.3848 -1.4027  0.5926
  140MOL0     H19305   5.088   0.931   7.694 -0.4727 -4.0386  1.4867
  140MOL0     H19306   4.586   1.080   7.834 -0.4344  0.6359  0.6860
  140MOL0     H19307   4.357   0.994   7.854 -1.1917  0.2524  1.2936
  140MOL0     H19308   4.079   0.791   7.944  0.0447  0.6474  0.5180
  140MOL0     H19309   4.181   0.907   7.875  0.1521 -0.5080 -0.8847
  140MOL0     H19310   4.217   0.602   7.829  0.1626 -0.4629 -1.5024
  140MOL0     H19311   4.333   0.707   7.787 -0.1535 -1.7258 -1.8551
  140MOL0     H19312   4.051   0.728   7.683 -0.0296  1.5558  0.1691
  140MOL0     H19313   4.170   0.860   7.662 -1.1955  0.4168  3.4972
  140MOL0     H19314   4.332   0.676   7.572 -0.3353 -0.2175  1.4444
  140MOL0     H19315   4.202   0.728   7.456  2.4096  1.0499 -0.9785
  140MOL0     H19316   4.035   0.371   7.605 -2.3490 -0.7734 -5.0808
  140MOL0     H19317   4.476   0.715   8.141 -1.9119  2.8542  2.1214
  140MOL0     H19318   4.701   0.653   8.172 -4.8984  0.9707 -2.3899
  140MOL0     H19319   4.817   0.699   8.048 -0.1330  1.4566 -0.9343
  140MOL0     H19320   4.790   0.812   8.192  0.9034  0.1283 -0.8627
  141MOL0     O19321   1.231   8.770   2.189 -0.1957 -0.3905  0.1524
  141MOL0     C19322   1.256   8.708   2.089 -0.2506  0.1828 -0.2060
  141MOL0     O19323   1.378   8.711   2.019  0.1027 -0.4384  0.4911
  141MOL0     C19324   1.444   8.830   2.032  0.1190  0.8623  0.4396
  141MOL0     C19325   1.540   8.844   2.138  0.5974  0.1689  0.2225
  141MOL0     C19326   1.606   8.969   2.153 -0.5849  0.8338 -0.0377
  141MOL0     C19327   1.585   9.074   2.067 -0.2707  0.2473 -0.7213
  141MOL0     O19328   1.666   9.188   2.078  0.3897  0.7767 -0.5933
  141MOL0     C19329   1.605   9.314   2.084 -0.6939 -0.8091 -0.1252
  141MOL0     C19330   1.699   9.426   2.137 -0.2188 -1.1133 -0.1328
  141MOL0     C19331   1.632   9.565   2.124  0.4213 -0.9632  0.9217
  141MOL0     C19332   1.679   9.642   2.003  0.7244  0.1872 -0.5267
  141MOL0     C19333   1.587   9.754   1.968  0.1793  0.4910 -0.1565
  141MOL0     C19334   1.590   9.873   2.065 -0.5444 -0.8252  0.1309
  141MOL0     C19335   1.716   9.950   2.047  0.1065 -0.6302 -0.0564
  141MOL0     C19336   1.708  10.059   2.165 -0.7949  1.0409 -0.0998
  141MOL0     N19337   1.839  10.129   2.179  0.4878 -0.7533 -0.1661
  141MOL0     C19338   1.878  10.249   2.124 -0.1617 -1.0185  0.2760
  141MOL0     C19339   2.009  10.266   2.157  1.2447  0.6832  0.4889
  141MOL0     C19340   2.090  10.383   2.106  0.9100  0.7565 -0.1404
  141MOL0     C19341   2.096  10.377   1.947 -1.1544  0.2846  0.8106
  141MOL0     C19342   2.162  10.244   1.896  0.0952 -0.6014  0.2619
  141MOL0     C19343   2.305  10.208   1.942  0.9894  0.0746 -0.4815
  141MOL0     O19344   2.382  10.302   1.872 -0.3405 -0.1970  0.0807
  141MOL0     C19345   2.516  10.320   1.923 -0.4690  0.2813  0.6676
  141MOL0     C19346   2.535  10.386   2.044 -0.3068  0.3229  0.7090
  141MOL0     C19347   2.661  10.402   2.100 -0.6121 -0.5378 -1.6779
  141MOL0     C19348   2.665  10.475   2.235  0.4266 -0.9675  0.1454
  141MOL0     C19349   2.776  10.355   2.030 -0.3830 -0.9597  0.7742
  141MOL0     C19350   2.918  10.373   2.071  0.2547 -0.4104 -0.1496
  141MOL0     O19351   2.946  10.409   2.200 -0.3140  0.6778 -0.2327
  141MOL0     C19352   3.075  10.444   2.241  0.1600  0.6123  0.0794
  141MOL0     C19353   3.109  10.574   2.238  0.0969 -0.6336  1.0430
  141MOL0     C19354   3.240  10.615   2.281  0.0780  0.6325  0.5027
  141MOL0     C19355   3.321  10.522   2.344  0.3488  0.2464 -0.5318
  141MOL0     O19356   3.438  10.558   2.409  0.5313  0.0734  0.1785
  141MOL0     C19357   3.557  10.557   2.322 -0.6428 -0.4818 -0.7900
  141MOL0     C19358   3.645  10.672   2.355 -0.1064 -0.3169  0.3426
  141MOL0     C19359   3.754  10.675   2.249  0.6722  0.1610 -0.5621
  141MOL0     C19360   3.848  10.793   2.274 -0.1346 -0.3149 -1.3602
  141MOL0     C19361   3.962  10.797   2.173  0.0671 -0.8836 -0.0155
  141MOL0     C19362   4.049  10.919   2.199 -0.3308  0.5874  0.3079
  141MOL0     C19363   4.164  10.927   2.093  0.0925  0.1877 -0.2952
  141MOL0     C19364   4.252  11.041   2.118  0.3977 -0.7720 -0.1474
  141MOL0    Cl19365   4.350  10.992   2.267  0.0882  0.4840  0.2406
  141MOL0     C19366   3.282  10.391   2.357  0.8925 -0.3979  0.3965
  141MOL0     C19367   3.152  10.357   2.304 -0.0197  0.6893 -0.4282
  141MOL0     O19368   3.001  10.368   1.980 -0.2490  0.2720  0.3659
  141MOL0     C19369   2.754  10.298   1.899 -0.1216  0.5898  0.0820
  141MOL0     C19370   2.623  10.277   1.852 -0.0902 -0.4149 -0.1744
  141MOL0     N19371   2.050  10.147   2.219  0.3784 -0.5950 -0.0480
  141MOL0     N19372   1.949  10.069   2.226  0.4244 -0.2367 -0.4914
  141MOL0     C19373   1.488   9.062   1.961  1.3040  1.1918 -0.4985
  141MOL0     C19374   1.418   8.935   1.942  0.0795 -0.5452  0.1279
  141MOL0     C19375   1.155   8.602   2.055 -0.2960 -0.1838  0.1224
  141MOL0     C19376   1.201   8.486   1.990 -0.3417 -0.7906  0.1376
  141MOL0     C19377   1.109   8.389   1.945  0.1446  0.3443 -1.0315
  141MOL0     C19378   0.973   8.400   1.955  0.2784 -0.1731  0.4098
  141MOL0     O19379   0.882   8.322   1.888  0.3173 -0.5991  0.3767
  141MOL0     C19380   0.876   8.183   1.913  0.2614 -0.8127  0.8861
  141MOL0     C19381   0.748   8.170   2.001 -0.1853  0.1280 -0.4452
  141MOL0     C19382   0.700   8.025   2.002  0.0295 -0.7991  0.2591
  141MOL0     C19383   0.548   8.012   2.033 -0.4643 -0.6590 -0.6261
  141MOL0     C19384   0.517   8.046   2.166  0.3112 -0.0741 -0.9082
  141MOL0     C19385   0.484   8.084   2.276 -0.7774 -0.2709  0.1377
  141MOL0     C19386   0.926   8.510   2.017  0.5554 -1.0069 -0.4507
  141MOL0     C19387   1.010   8.607   2.075 -0.3731 -0.2506  0.3004
  141MOL0     C19388   0.946   8.734   2.139  0.2226  0.9276  0.3918
  141MOL0     H19389   1.544   8.763   2.210 -0.1661 -0.5148 -0.4922
  141MOL0     H19390   1.682   8.986   2.229 -1.5697  0.8037  0.9675
  141MOL0     H19391   1.519   9.310   2.151  0.3148 -0.4305  1.2330
  141MOL0     H19392   1.564   9.345   1.987 -0.7631 -0.0727  0.1342
  141MOL0     H19393   1.714   9.400   2.243  0.3817 -0.5861 -0.0825
  141MOL0     H19394   1.794   9.426   2.082 -0.0249  0.8629  0.1058
  141MOL0     H19395   1.524   9.553   2.109  0.6918 -0.1272 -2.7441
  141MOL0     H19396   1.647   9.622   2.216  0.6039 -1.4898  1.2239
  141MOL0     H19397   1.775   9.691   2.022 -1.6700  4.5428  2.0596
  141MOL0     H19398   1.672   9.581   1.912 -1.7816 -0.3126 -0.0915
  141MOL0     H19399   1.485   9.714   1.979 -0.5774  2.9865  5.8832
  141MOL0     H19400   1.611   9.795   1.870  4.3554  0.8226  0.8065
  141MOL0     H19401   1.501   9.933   2.043 -0.6534 -0.9895  0.1165
  141MOL0     H19402   1.579   9.849   2.171  2.4300  1.3209  1.0445
  141MOL0     H19403   1.725  10.016   1.960  2.3626 -1.2055 -0.3155
  141MOL0     H19404   1.805   9.889   2.065  1.4410  1.6358  1.5785
  141MOL0     H19405   1.626  10.131   2.160  0.7784  3.0265  0.7816
  141MOL0     H19406   1.696  10.007   2.260  2.0387 -0.2871 -0.3625
  141MOL0     H19407   1.822  10.311   2.054 -0.6065 -0.4070  1.1576
  141MOL0     H19408   2.194  10.388   2.140  1.0852  1.5168 -0.7616
  141MOL0     H19409   2.043  10.472   2.148 -1.7659 -1.4457  1.9121
  141MOL0     H19410   1.992  10.379   1.912 -0.0707 -1.0113 -3.0271
  141MOL0     H19411   2.147  10.462   1.899 -2.4048 -0.2920 -1.6912
  141MOL0     H19412   2.095  10.168   1.936  1.0976  0.1202  3.6572
  141MOL0     H19413   2.153  10.243   1.787 -0.0454 -1.4313  0.2719
  141MOL0     H19414   2.307  10.208   2.052 -2.0027 -2.1212 -0.2719
  141MOL0     H19415   2.330  10.104   1.919 -2.6316 -0.7031 -1.6580
  141MOL0     H19416   2.447  10.420   2.097 -2.1994 -0.5917 -1.6612
  141MOL0     H19417   2.705  10.577   2.232  0.0473 -0.8152  0.1472
  141MOL0     H19418   2.726  10.429   2.313 -1.3787 -0.1640  2.1369
  141MOL0     H19419   2.565  10.477   2.281  1.2713 -1.3268  2.1070
  141MOL0     H19420   3.038  10.647   2.200  2.2163  1.5539  1.0016
  141MOL0     H19421   3.276  10.718   2.282  1.0107  0.3138  0.7351
  141MOL0     H19422   3.613  10.463   2.319  0.2230  0.0112 -0.2713
  141MOL0     H19423   3.531  10.584   2.219 -2.8940 -0.3984 -0.2446
  141MOL0     H19424   3.585  10.763   2.345  0.0647 -0.1593  0.7364
  141MOL0     H19425   3.684  10.656   2.456  0.8570 -1.2092 -0.1548
  141MOL0     H19426   3.708  10.696   2.152 -1.7954  0.9984  0.6938
  141MOL0     H19427   3.810  10.581   2.242 -0.8731 -0.8428  0.0593
  141MOL0     H19428   3.887  10.780   2.376 -5.6059  2.6807  1.5826
  141MOL0     H19429   3.795  10.889   2.271 -1.6673 -0.7996  3.0453
  141MOL0     H19430   4.017  10.704   2.185  0.9150 -0.4943 -0.7222
  141MOL0     H19431   3.922  10.810   2.072 -1.5994 -2.6182  0.3717
  141MOL0     H19432   4.092  10.909   2.299  0.3735 -5.0115 -0.2742
  141MOL0     H19433   3.992  11.012   2.189  2.8683  2.5080 -1.7669
  141MOL0     H19434   4.126  10.929   1.990  0.0666  0.0065 -0.2897
  141MOL0     H19435   4.234  10.843   2.092  1.3438  1.1861  0.6383
  141MOL0     H19436   4.182  11.118   2.153 -0.9776 -1.0886 -2.0671
  141MOL0     H19437   4.316  11.064   2.032 -0.5338 -0.0528 -0.6690
  141MOL0     H19438   3.352  10.319   2.398  1.3821 -0.5558 -0.6773
  141MOL0     H19439   3.119  10.254   2.314 -1.2086  1.1580  0.7001
  141MOL0     H19440   2.835  10.275   1.831 -1.1140  0.2423 -1.0101
  141MOL0     H19441   2.602  10.240   1.753 -2.1877 -0.6609  0.3250
  141MOL0     H19442   1.468   9.144   1.893 -2.5329  2.1054  1.4760
  141MOL0     H19443   1.341   8.924   1.867 -0.7821  0.2591  0.8755
  141MOL0     H19444   1.309   8.482   1.979 -0.1280  1.4194  1.0081
  141MOL0     H19445   1.142   8.291   1.912 -1.0940 -0.0062 -1.2802
  141MOL0     H19446   0.856   8.118   1.826  2.8486 -2.6670  1.5446
  141MOL0     H19447   0.973   8.150   1.952  0.4466 -3.4115 -1.3739
  141MOL0     H19448   0.664   8.232   1.967 -2.3760 -2.3107  0.2202
  141MOL0     H19449   0.773   8.202   2.103 -0.5464 -0.4523 -0.1694
  141MOL0     H19450   0.721   7.979   1.905  0.3301  1.8314 -1.0117
  141MOL0     H19451   0.753   7.972   2.081 -1.1654 -0.0704  1.5932
  141MOL0     H19452   0.506   7.912   2.014 -1.6981 -0.1351 -0.7380
  141MOL0     H19453   0.493   8.083   1.970  0.6998  0.4320 -0.4457
  141MOL0     H19454   0.449   8.110   2.374 -2.0663 -2.1579  0.2352
  141MOL0     H19455   0.820   8.527   2.032  0.5080 -1.7868  0.1706
  141MOL0     H19456   0.840   8.737   2.114  0.5290  1.4129 -0.9364
  141MOL0     H19457   0.961   8.738   2.248  0.7853 -0.6569  0.4071
  141MOL0     H19458   0.985   8.821   2.086  0.4587 -1.5620 -3.9894
  142MOL0     O19459   9.332   6.855   2.835 -0.6012  0.9477  0.0098
  142MOL0     C19460   9.259   6.861   2.927  0.4691 -0.3232 -0.6497
  142MOL0     O19461   9.294   6.877   3.056 -0.3687  0.4662  0.3994
  142MOL0     C19462   9.430   6.882   3.098 -0.6159  0.9906  0.1632
  142MOL0     C19463   9.538   6.850   3.025  0.7205 -0.0162 -0.1903
  142MOL0     C19464   9.667   6.838   3.076  0.0481 -0.0598 -0.1758
  142MOL0     C19465   9.687   6.866   3.212 -0.0707 -0.1459  0.3798
  142MOL0     O19466   9.807   6.862   3.278 -0.0543 -0.1107  0.4098
  142MOL0     C19467   9.914   6.784   3.211 -0.7596 -0.3548  0.0320
  142MOL0     C19468  10.033   6.783   3.304 -0.2656  1.0768 -0.5619
  142MOL0     C19469  10.140   6.677   3.252  0.2760  0.1962 -0.0311
  142MOL0     C19470  10.258   6.680   3.348  0.1671 -0.3615  0.7290
  142MOL0     C19471  10.395   6.632   3.283 -0.3185 -0.5989  0.5250
  142MOL0     C19472  10.515   6.667   3.371 -0.2457  0.1243  0.1874
  142MOL0     C19473  10.578   6.798   3.343  0.1952 -1.2260 -0.0118
  142MOL0     C19474  10.622   6.877   3.468  0.4017 -0.4746  0.0916
  142MOL0     N19475  10.760   6.861   3.496 -0.5784  0.8084  0.4261
  142MOL0     C19476  10.844   6.967   3.512 -0.5300 -0.0967 -0.2517
  142MOL0     C19477  10.964   6.910   3.553  0.0933  0.3364 -0.4662
  142MOL0     C19478  11.088   6.994   3.589  0.1575  0.4298  0.4524
  142MOL0     C19479  11.215   6.916   3.550  0.2745 -0.8260  0.5739
  142MOL0     C19480  11.307   6.878   3.668  0.3330  0.1942  0.6277
  142MOL0     C19481  11.450   6.855   3.621 -0.6049  0.2358 -0.2265
  142MOL0     O19482  11.511   6.970   3.561  0.5891  0.6836  0.1831
  142MOL0     C19483  11.636   6.970   3.502  0.3386  0.3747 -0.6090
  142MOL0     C19484  11.680   7.094   3.454 -0.1775 -0.1125  0.3806
  142MOL0     C19485  11.820   7.109   3.411  0.3595  0.4097  0.4053
  142MOL0     C19486  11.866   7.246   3.382  0.1076  0.1453 -1.3193
  142MOL0     C19487  11.905   6.996   3.402  0.5861 -0.7181  0.3455
  142MOL0     C19488  12.044   6.990   3.363 -0.0183 -0.4598 -1.0261
  142MOL0     O19489  12.111   6.880   3.397 -0.0989  0.5263 -0.4791
  142MOL0     C19490  12.238   6.869   3.362 -0.7731  0.1039  0.0240
  142MOL0     C19491  12.344   6.942   3.416 -0.3604 -0.5402 -0.5717
  142MOL0     C19492  12.477   6.932   3.372 -0.2984 -0.3211  0.2031
  142MOL0     C19493  12.514   6.838   3.276 -0.0169  0.2822  0.3211
  142MOL0     O19494  12.647   6.832   3.239  0.3163  0.0459 -0.8361
  142MOL0     C19495  12.699   6.738   3.147  0.4070  0.3829 -0.7548
  142MOL0     C19496  12.856   6.765   3.151  0.6080 -0.6234 -0.1480
  142MOL0     C19497  12.916   6.674   3.052 -0.3322  0.5261 -0.3081
  142MOL0     C19498  13.067   6.679   3.066 -0.4009 -0.0243  0.1577
  142MOL0     C19499  13.146   6.606   2.956 -1.4588  0.0534  0.0300
  142MOL0     C19500  13.298   6.573   3.006  0.1565 -0.1508  0.2045
  142MOL0     C19501  13.384   6.505   2.888 -0.2385 -0.5177  0.5856
  142MOL0     C19502  13.380   6.577   2.757  0.4453  0.4037  0.0999
  142MOL0    Cl19503  13.487   6.493   2.639  0.2520  0.7179  0.1365
  142MOL0     C19504  12.410   6.772   3.205  0.3333  0.3519 -0.2753
  142MOL0     C19505  12.274   6.778   3.252 -0.4601 -0.1255 -1.1105
  142MOL0     O19506  12.100   7.089   3.306  0.1311 -0.1322 -0.1447
  142MOL0     C19507  11.851   6.870   3.452  0.3089 -0.5526 -0.1277
  142MOL0     C19508  11.719   6.864   3.500  0.0234 -0.3564  0.3876
  142MOL0     N19509  10.956   6.770   3.552  0.2471 -0.3295 -1.0355
  142MOL0     N19510  10.824   6.743   3.528  0.4257  0.3304 -0.5930
  142MOL0     C19511   9.577   6.897   3.292 -0.1450 -0.0045  0.3941
  142MOL0     C19512   9.452   6.902   3.234  0.1692 -0.7163 -0.0660
  142MOL0     C19513   9.112   6.868   2.907 -0.5499  1.0386 -0.1247
  142MOL0     C19514   9.032   6.949   2.994 -0.1244 -0.3471  0.7727
  142MOL0     C19515   8.897   6.954   2.979  0.0090 -0.4209 -0.1987
  142MOL0     C19516   8.827   6.861   2.902 -0.2529 -1.0314 -0.3838
  142MOL0     O19517   8.696   6.831   2.933 -0.1673  0.0544 -0.0620
  142MOL0     C19518   8.603   6.934   2.909  1.1008 -1.4261 -0.3159
  142MOL0     C19519   8.461   6.881   2.872 -0.3000 -0.4241 -0.4534
  142MOL0     C19520   8.469   6.789   2.752 -0.1122 -0.1191 -0.5659
  142MOL0     C19521   8.339   6.781   2.673 -0.2775 -0.8009  0.1428
  142MOL0     C19522   8.340   6.893   2.579  0.7286 -0.6497  1.1491
  142MOL0     C19523   8.332   6.992   2.506  1.3436  0.4584  0.9075
  142MOL0     C19524   8.903   6.776   2.813 -0.2614 -0.6531 -0.9810
  142MOL0     C19525   9.046   6.791   2.813 -0.0271 -0.9947  0.7517
  142MOL0     C19526   9.125   6.709   2.718  0.2017  0.3171  1.1115
  142MOL0     H19527   9.542   6.849   2.917  6.6085  2.4039 -0.3845
  142MOL0     H19528   9.747   6.818   3.006 -0.7228 -0.0118 -1.0873
  142MOL0     H19529   9.933   6.825   3.112 -0.7078  0.1811  0.2553
  142MOL0     H19530   9.871   6.684   3.200 -3.0886  0.5592  0.2370
  142MOL0     H19531  10.070   6.883   3.326  3.2016 -0.1095 -0.3956
  142MOL0     H19532   9.997   6.736   3.396  0.1321  0.0199 -0.9303
  142MOL0     H19533  10.119   6.570   3.254  5.7983 -1.1983  0.4099
  142MOL0     H19534  10.169   6.717   3.154  1.0635  0.6699  0.3820
  142MOL0     H19535  10.259   6.785   3.378 -0.0876 -0.1223 -0.0725
  142MOL0     H19536  10.227   6.618   3.433 -0.0543 -0.2346  0.7412
  142MOL0     H19537  10.413   6.666   3.180 -0.5068 -1.2365  0.2752
  142MOL0     H19538  10.387   6.523   3.273 -0.2569 -0.7325  1.7672
  142MOL0     H19539  10.486   6.649   3.475 -0.5703 -0.8667 -0.0684
  142MOL0     H19540  10.594   6.591   3.369 -0.1139  0.1159  2.6864
  142MOL0     H19541  10.509   6.867   3.292 -1.8544 -1.6262  2.0788
  142MOL0     H19542  10.660   6.786   3.271  0.8608  2.2647 -0.0315
  142MOL0     H19543  10.602   6.984   3.457 -2.0383 -0.6936  1.8054
  142MOL0     H19544  10.567   6.840   3.555  0.8728 -1.7634 -0.1278
  142MOL0     H19545  10.826   7.073   3.503  2.7743  0.5383 -0.4559
  142MOL0     H19546  11.096   7.032   3.692 -0.0369 -0.4148  0.7825
  142MOL0     H19547  11.071   7.078   3.522 -2.8678 -1.2304 -1.0464
  142MOL0     H19548  11.183   6.831   3.491 -1.6300  0.9630 -1.1395
  142MOL0     H19549  11.271   6.985   3.486  0.1563 -1.6571 -0.4381
  142MOL0     H19550  11.308   6.960   3.741  0.4954  0.1344  0.6936
  142MOL0     H19551  11.266   6.786   3.711  0.3234 -1.3215 -2.3643
  142MOL0     H19552  11.514   6.817   3.700  0.8384 -2.3500 -2.4780
  142MOL0     H19553  11.453   6.777   3.545 -2.0123  1.5288 -1.7064
  142MOL0     H19554  11.616   7.182   3.458  1.6479  1.2202  1.9608
  142MOL0     H19555  11.794   7.322   3.414  1.0965  0.3503  0.5635
  142MOL0     H19556  11.874   7.249   3.273 -1.1410  0.5383 -1.4129
  142MOL0     H19557  11.956   7.282   3.432 -0.7394 -0.0070  0.3965
  142MOL0     H19558  12.322   7.001   3.504  0.8907 -0.9723  0.0615
  142MOL0     H19559  12.555   6.995   3.415 -1.9649  1.7510  0.3489
  142MOL0     H19560  12.669   6.638   3.181  0.4647  0.4285 -0.5703
  142MOL0     H19561  12.668   6.740   3.042  0.4283 -0.2986 -0.7751
  142MOL0     H19562  12.872   6.867   3.115 -0.6365 -0.6660 -0.8699
  142MOL0     H19563  12.887   6.747   3.254 -1.1742 -1.7552  0.2464
  142MOL0     H19564  12.882   6.702   2.951  1.0528  0.6596 -0.7493
  142MOL0     H19565  12.875   6.577   3.080  1.5067  0.1285  1.1168
  142MOL0     H19566  13.109   6.635   3.157  1.4797  1.3550  0.0348
  142MOL0     H19567  13.083   6.787   3.079 -0.0554 -0.2378  1.7397
  142MOL0     H19568  13.089   6.516   2.930  0.7839 -0.3607 -4.3972
  142MOL0     H19569  13.136   6.663   2.863  1.7322 -0.3809 -0.7024
  142MOL0     H19570  13.293   6.508   3.094  1.1569 -2.3184 -1.2387
  142MOL0     H19571  13.352   6.665   3.030  1.7871 -0.4558 -1.9671
  142MOL0     H19572  13.343   6.405   2.872  3.0085 -1.5367 -2.8332
  142MOL0     H19573  13.488   6.494   2.920  0.4445  0.3220 -1.2287
  142MOL0     H19574  13.421   6.678   2.767 -0.5387  0.8561 -0.2271
  142MOL0     H19575  13.276   6.593   2.724  0.1803 -1.9547 -0.3710
  142MOL0     H19576  12.443   6.718   3.117 -0.9858 -0.9457 -0.0239
  142MOL0     H19577  12.208   6.708   3.202 -0.5158  0.8244 -2.4253
  142MOL0     H19578  11.901   6.775   3.439 -0.8799 -0.9040 -3.1573
  142MOL0     H19579  11.672   6.770   3.527  0.4947 -1.3617 -2.0270
  142MOL0     H19580   9.592   6.912   3.399  0.1144 -0.8284  0.4757
  142MOL0     H19581   9.358   6.924   3.285 -1.2576 -1.0581 -2.4072
  142MOL0     H19582   9.079   7.021   3.060 -2.2872  0.6576  1.3052
  142MOL0     H19583   8.840   7.027   3.035 -0.4920 -1.8480  1.2260
  142MOL0     H19584   8.590   6.991   3.002 -3.3757  1.2374 -2.2650
  142MOL0     H19585   8.631   7.010   2.836  0.0095  0.2983  0.9938
  142MOL0     H19586   8.389   6.962   2.861  1.8032  1.5668 -0.4589
  142MOL0     H19587   8.424   6.818   2.954 -0.8683  1.0887  0.5069
  142MOL0     H19588   8.553   6.813   2.686  0.2463  2.8391  0.7760
  142MOL0     H19589   8.495   6.692   2.796  0.1668  0.9372  1.7794
  142MOL0     H19590   8.260   6.795   2.747 -2.0500 -1.6357 -1.4885
  142MOL0     H19591   8.328   6.684   2.624 -0.3838 -1.8440  2.1400
  142MOL0     H19592   8.332   7.091   2.467  1.3776  1.7765  3.9478
  142MOL0     H19593   8.858   6.691   2.763 -0.8951 -0.8985 -0.0299
  142MOL0     H19594   9.193   6.774   2.662 -0.9619 -1.4496 -2.6431
  142MOL0     H19595   9.190   6.634   2.763  2.5063  0.9360 -0.9365
  142MOL0     H19596   9.064   6.668   2.638 -0.0902 -2.0037  2.4355
  143MOL0     O19597   6.963   0.341   8.845  0.0663  0.6134  0.9948
  143MOL0     C19598   6.920   0.380   8.955 -0.7013 -0.7240 -0.7181
  143MOL0     O19599   6.987   0.362   9.078 -0.4505 -0.2939 -0.0483
  143MOL0     C19600   7.118   0.336   9.078  0.0732 -0.0580 -0.5748
  143MOL0     C19601   7.175   0.234   8.999 -0.5999 -0.2572  0.7705
  143MOL0     C19602   7.311   0.203   9.008 -0.0804 -0.5811  0.3501
  143MOL0     C19603   7.391   0.271   9.104 -0.3752  0.5841  0.1453
  143MOL0     O19604   7.514   0.227   9.130 -0.0142 -0.2520 -0.1995
  143MOL0     C19605   7.596   0.188   9.016 -0.2091  0.3872 -0.5403
  143MOL0     C19606   7.619   0.035   9.016  0.5867  0.2231 -0.3740
  143MOL0     C19607   7.685  -0.008   8.887 -0.0317  0.6630 -0.0212
  143MOL0     C19608   7.742  -0.157   8.897 -0.4300  0.5162  0.3303
  143MOL0     C19609   7.870  -0.188   8.975 -0.2712  0.3678  0.3117
  143MOL0     C19610   7.982  -0.122   8.889  0.5583  0.1378  0.1292
  143MOL0     C19611   8.122  -0.115   8.955  0.4915 -0.4861 -0.7851
  143MOL0     C19612   8.162  -0.236   9.033 -0.1926  0.8734 -0.4408
  143MOL0     N19613   8.146  -0.234   9.175  0.1658 -1.0974  1.0590
  143MOL0     C19614   8.055  -0.310   9.237 -0.5962  0.4728  0.7163
  143MOL0     C19615   8.085  -0.303   9.369 -0.2668 -0.4143  0.1251
  143MOL0     C19616   8.015  -0.384   9.478 -0.3611 -0.6670  0.5125
  143MOL0     C19617   7.910  -0.307   9.553  0.2950 -0.4361 -0.4361
  143MOL0     C19618   7.794  -0.262   9.471 -0.3359 -0.3811  0.7084
  143MOL0     C19619   7.685  -0.200   9.563  1.4067  0.1974 -0.4257
  143MOL0     O19620   7.561  -0.211   9.483 -0.0733  0.3171  0.5669
  143MOL0     C19621   7.447  -0.155   9.534 -0.5522 -0.2573 -0.4168
  143MOL0     C19622   7.370  -0.072   9.449  0.4800 -0.9658 -0.1693
  143MOL0     C19623   7.247  -0.021   9.498  0.5055  0.9245  0.5425
  143MOL0     C19624   7.181   0.073   9.406  0.0190  0.8519 -0.4473
  143MOL0     C19625   7.190  -0.070   9.615 -0.6971  0.3921  1.3545
  143MOL0     C19626   7.074  -0.007   9.670  0.2416 -0.3228 -0.0006
  143MOL0     O19627   6.996  -0.091   9.739 -0.6682  0.1316 -0.1185
  143MOL0     C19628   6.925  -0.040   9.834  0.2156  0.9650 -0.1525
  143MOL0     C19629   6.791  -0.018   9.803 -0.1531  0.6656 -0.3015
  143MOL0     C19630   6.701   0.016   9.895  0.1893  0.5086 -0.4884
  143MOL0     C19631   6.750   0.047  10.024  1.1664  0.0143  0.2779
  143MOL0     O19632   6.662   0.075  10.123  0.4000  0.1799 -0.4317
  143MOL0     C19633   6.641  -0.038  10.215 -0.3934 -0.6542 -0.3219
  143MOL0     C19634   6.498  -0.037  10.269  0.6317 -0.6998  0.3726
  143MOL0     C19635   6.385  -0.068  10.165 -0.1627 -1.3274 -0.9357
  143MOL0     C19636   6.290   0.048  10.134  0.5371 -0.7691 -0.2684
  143MOL0     C19637   6.198  -0.002  10.022 -0.4120  0.2489 -0.4199
  143MOL0     C19638   6.075   0.083   9.989 -0.0944  0.7585  0.1966
  143MOL0     C19639   5.958   0.039  10.082  0.2756  0.4591  0.3415
  143MOL0     C19640   5.820   0.074  10.024  0.0474 -0.0046  0.3296
  143MOL0    Cl19641   5.783  -0.004   9.872  0.1267 -0.0610  0.3336
  143MOL0     C19642   6.883   0.038  10.059  0.4178 -0.3891 -0.0962
  143MOL0     C19643   6.975  -0.006   9.961  0.1216 -0.9663 -0.2289
  143MOL0     O19644   7.049   0.116   9.648 -0.2317  0.8473 -0.6234
  143MOL0     C19645   7.266  -0.160   9.686 -0.2881  0.2341 -0.2143
  143MOL0     C19646   7.395  -0.196   9.655  0.0368  0.6738 -0.3001
  143MOL0     N19647   8.192  -0.210   9.381 -0.4422 -0.0127 -0.9324
  143MOL0     N19648   8.234  -0.180   9.261  0.7461 -0.1786  0.0111
  143MOL0     C19649   7.333   0.365   9.186 -0.2211 -0.0947  0.5694
  143MOL0     C19650   7.201   0.403   9.170  0.5210 -0.3048 -0.2652
  143MOL0     C19651   6.779   0.430   8.962 -0.1347  0.6630 -0.2580
  143MOL0     C19652   6.688   0.366   9.054  0.2275  0.1356 -0.3913
  143MOL0     C19653   6.560   0.407   9.058  0.6299  0.2907  0.3270
  143MOL0     C19654   6.508   0.509   8.985  0.5290 -0.3050  1.0557
  143MOL0     O19655   6.384   0.567   9.010 -0.5145  0.2682 -0.1123
  143MOL0     C19656   6.324   0.547   9.137 -0.4969 -0.1182 -0.0694
  143MOL0     C19657   6.195   0.624   9.146  0.4850 -1.0304  0.2577
  143MOL0     C19658   6.217   0.766   9.185  0.5057  0.5053 -0.6226
  143MOL0     C19659   6.184   0.793   9.332  0.7022  0.2333 -0.1247
  143MOL0     C19660   6.293   0.762   9.433  0.3264  0.2585  0.5225
  143MOL0     C19661   6.383   0.739   9.506 -0.0086 -0.2059  0.1262
  143MOL0     C19662   6.598   0.567   8.884 -0.7377  0.3733  0.3501
  143MOL0     C19663   6.733   0.529   8.875 -0.3204  0.6556  0.7664
  143MOL0     C19664   6.821   0.603   8.784  0.1636 -0.2526  1.2006
  143MOL0     H19665   7.133   0.176   8.918  2.6956 -2.4853  0.4516
  143MOL0     H19666   7.352   0.124   8.945  2.4001  1.5689 -0.9544
  143MOL0     H19667   7.688   0.248   9.013  0.3054 -0.1352  2.1088
  143MOL0     H19668   7.544   0.219   8.925 -0.1895  2.1101 -0.0132
  143MOL0     H19669   7.670   0.024   9.112 -2.8369  1.8636  1.8322
  143MOL0     H19670   7.521  -0.012   9.017  1.0558 -0.8440 -1.8222
  143MOL0     H19671   7.603  -0.009   8.815 -0.9080  0.9904  0.9566
  143MOL0     H19672   7.753   0.069   8.850  2.4701 -1.0118  0.8123
  143MOL0     H19673   7.667  -0.222   8.944  2.2521 -2.1491  1.2224
  143MOL0     H19674   7.760  -0.194   8.796  1.2936 -1.0614  1.1547
  143MOL0     H19675   7.886  -0.295   8.991 -0.5226  0.0626 -1.2862
  143MOL0     H19676   7.860  -0.137   9.071  2.9285 -0.9981  1.4867
  143MOL0     H19677   7.993  -0.180   8.797  1.8577  1.9773 -0.9311
  143MOL0     H19678   7.951  -0.025   8.850 -1.2614 -0.7286 -0.7079
  143MOL0     H19679   8.127  -0.033   9.027 -1.2518 -1.9764  1.1603
  143MOL0     H19680   8.195  -0.100   8.875  0.0283  2.1115 -0.8388
  143MOL0     H19681   8.115  -0.330   9.002 -1.9352  0.2143  3.5663
  143MOL0     H19682   8.269  -0.249   9.016 -0.2196 -2.6986  1.1411
  143MOL0     H19683   7.982  -0.382   9.201 -1.7093 -0.5826  4.5581
  143MOL0     H19684   8.086  -0.415   9.556 -1.3190 -1.0844  1.2341
  143MOL0     H19685   7.981  -0.472   9.422 -0.8082  0.1604 -0.5458
  143MOL0     H19686   7.879  -0.371   9.636  0.1505 -1.3179 -1.1532
  143MOL0     H19687   7.941  -0.215   9.603 -0.0626 -2.0994  3.1876
  143MOL0     H19688   7.816  -0.174   9.411 -1.2976 -0.5748  0.0511
  143MOL0     H19689   7.751  -0.343   9.411 -1.2289  1.8861 -1.9361
  143MOL0     H19690   7.665  -0.269   9.646  2.7622  1.1176  0.7183
  143MOL0     H19691   7.702  -0.096   9.591  0.6113  0.8852 -2.2928
  143MOL0     H19692   7.411  -0.039   9.354  2.6787 -0.4389  0.8810
  143MOL0     H19693   7.211   0.175   9.431 -2.1182  0.6588  3.9017
  143MOL0     H19694   7.072   0.073   9.412 -0.0843 -0.9687 -1.6124
  143MOL0     H19695   7.206   0.057   9.301 -1.1081 -0.6613 -0.5109
  143MOL0     H19696   6.766  -0.026   9.698  0.9193  1.0324 -0.6011
  143MOL0     H19697   6.595   0.027   9.875 -0.3863 -0.8422  1.4334
  143MOL0     H19698   6.665  -0.128  10.157  0.8118  0.0660 -1.0000
  143MOL0     H19699   6.715  -0.030  10.295  0.6649 -2.7931 -1.0155
  143MOL0     H19700   6.483  -0.109  10.349 -3.1198 -1.2558 -0.6340
  143MOL0     H19701   6.475   0.057  10.320 -2.1558 -0.5533 -1.0036
  143MOL0     H19702   6.314  -0.142  10.204  0.3947 -1.3933 -0.0187
  143MOL0     H19703   6.428  -0.113  10.075  1.3061 -0.7666 -0.5419
  143MOL0     H19704   6.341   0.137  10.095 -1.2655 -0.4463 -2.0446
  143MOL0     H19705   6.226   0.073  10.219  1.7218 -1.6476  0.9342
  143MOL0     H19706   6.263   0.002   9.934 -0.3743 -0.1140 -0.4083
  143MOL0     H19707   6.174  -0.105  10.047  0.4098  0.4358  1.3219
  143MOL0     H19708   6.045   0.069   9.885 -1.1077 -1.1977  0.6981
  143MOL0     H19709   6.104   0.188  10.001  2.9560  0.1334 -0.6780
  143MOL0     H19710   5.971   0.084  10.181  0.9603  0.3834  0.2912
  143MOL0     H19711   5.966  -0.065  10.114 -0.1632  0.5205  0.6646
  143MOL0     H19712   5.818   0.181  10.000 -2.2250 -0.1503 -0.3342
  143MOL0     H19713   5.743   0.050  10.098  0.7145 -0.5504  0.8591
  143MOL0     H19714   6.910   0.055  10.163 -1.0289 -3.3953  0.8710
  143MOL0     H19715   7.078  -0.023   9.990 -0.0138 -0.3454  0.6646
  143MOL0     H19716   7.229  -0.206   9.777  0.7537  1.1790  0.7127
  143MOL0     H19717   7.439  -0.267   9.724 -0.0399 -2.3782 -3.1663
  143MOL0     H19718   7.389   0.423   9.259 -0.7797 -1.4858  2.1730
  143MOL0     H19719   7.146   0.469   9.237 -0.3827 -2.5544  1.3546
  143MOL0     H19720   6.718   0.286   9.120 -0.8333  0.4361  0.4970
  143MOL0     H19721   6.498   0.352   9.128  1.3783  0.2258  0.9479
  143MOL0     H19722   6.293   0.442   9.146  0.2810 -0.1775  3.1787
  143MOL0     H19723   6.384   0.572   9.224 -2.7943  2.6504  0.8793
  143MOL0     H19724   6.121   0.583   9.215  1.9476 -2.1374  1.2359
  143MOL0     H19725   6.166   0.609   9.042 -0.7063 -3.6407  0.8933
  143MOL0     H19726   6.318   0.805   9.172  1.5245 -0.8765  2.2158
  143MOL0     H19727   6.154   0.833   9.127 -0.8815 -0.2121  0.0016
  143MOL0     H19728   6.102   0.726   9.361  1.1146 -0.4197 -0.4306
  143MOL0     H19729   6.153   0.897   9.344 -0.7882 -0.3409  1.4549
  143MOL0     H19730   6.448   0.725   9.590  1.5075  0.8894 -0.8223
  143MOL0     H19731   6.559   0.648   8.823  0.4123  0.2765 -0.5457
  143MOL0     H19732   6.929   0.602   8.804 -0.1805 -0.3207  3.2805
  143MOL0     H19733   6.809   0.559   8.685 -1.6782  0.4433  1.0805
  143MOL0     H19734   6.790   0.707   8.769 -0.2291 -0.3994  0.9595
  144MOL0     O19735   6.792   6.396   1.089 -1.0408 -0.4513 -0.5104
  144MOL0     C19736   6.788   6.335   1.196 -0.6043 -0.0232 -0.4560
  144MOL0     O19737   6.694   6.249   1.238  0.6424  0.1005 -0.1455
  144MOL0     C19738   6.601   6.193   1.144  0.4761  0.3293  0.2958
  144MOL0     C19739   6.507   6.281   1.085  0.0637  0.5782  0.6454
  144MOL0     C19740   6.400   6.226   1.005 -0.5564 -0.3212  0.0232
  144MOL0     C19741   6.388   6.090   0.980  0.1088  0.7571 -0.3631
  144MOL0     O19742   6.291   6.041   0.903  0.2679 -0.7135 -0.4841
  144MOL0     C19743   6.319   5.925   0.825 -0.4341  0.2881 -0.0265
  144MOL0     C19744   6.226   5.904   0.709  0.1434 -0.1379  0.7941
  144MOL0     C19745   6.103   5.819   0.748 -0.6320 -0.2865 -0.2249
  144MOL0     C19746   5.985   5.836   0.656 -0.2997  0.7116 -0.4937
  144MOL0     C19747   5.895   5.945   0.703  0.1810 -0.4140  0.7658
  144MOL0     C19748   5.766   5.954   0.624  0.7290  0.1164 -0.1415
  144MOL0     C19749   5.669   6.057   0.687 -0.4219 -0.4694  0.1216
  144MOL0     C19750   5.624   6.007   0.818 -0.3145 -0.2816  0.3238
  144MOL0     N19751   5.557   5.875   0.809 -0.3830  0.3716  0.0375
  144MOL0     C19752   5.616   5.755   0.837 -0.3209 -0.3148  0.8426
  144MOL0     C19753   5.525   5.662   0.827 -0.0190 -0.2427 -0.3061
  144MOL0     C19754   5.535   5.508   0.821 -1.1555  0.0701  0.6592
  144MOL0     C19755   5.570   5.456   0.685  0.3592 -0.5026  0.2509
  144MOL0     C19756   5.721   5.481   0.638 -0.6768 -0.2539  0.3426
  144MOL0     C19757   5.761   5.431   0.491  0.2578  0.4099  0.0897
  144MOL0     O19758   5.817   5.292   0.494 -0.0590  0.0809  0.6691
  144MOL0     C19759   5.941   5.264   0.552  0.5908 -0.1378  0.2086
  144MOL0     C19760   6.030   5.359   0.589  0.1364  0.7268  0.3227
  144MOL0     C19761   6.164   5.324   0.644 -0.1403  0.7181 -1.7562
  144MOL0     C19762   6.258   5.440   0.680 -0.7061 -0.8987 -0.3826
  144MOL0     C19763   6.197   5.184   0.651 -0.5642  0.9720 -0.3954
  144MOL0     C19764   6.324   5.135   0.694 -0.7558  0.1015  0.1692
  144MOL0     O19765   6.371   5.021   0.628  0.0277  0.4034  0.3307
  144MOL0     C19766   6.485   4.964   0.669 -0.7923 -0.5065  0.7753
  144MOL0     C19767   6.492   4.878   0.774  0.8255  0.2023 -0.4073
  144MOL0     C19768   6.614   4.820   0.813  0.2351 -0.4094  0.8011
  144MOL0     C19769   6.734   4.843   0.745 -1.0530 -0.5551 -0.5893
  144MOL0     O19770   6.858   4.790   0.772  0.0319 -0.8026  0.8517
  144MOL0     C19771   6.879   4.670   0.847  0.4293  1.3627 -0.3932
  144MOL0     C19772   7.028   4.648   0.884  0.0471  0.1683  0.0770
  144MOL0     C19773   7.113   4.627   0.757 -0.1091  0.6959 -0.3577
  144MOL0     C19774   7.258   4.665   0.785  0.4228  0.3019 -0.3490
  144MOL0     C19775   7.293   4.811   0.798 -0.0426  0.3560  0.1348
  144MOL0     C19776   7.443   4.843   0.761 -0.1230  0.1484  0.9767
  144MOL0     C19777   7.471   4.989   0.769  0.2497  0.5580 -0.7321
  144MOL0     C19778   7.614   5.034   0.724  0.2413 -0.5455  0.0392
  144MOL0    Cl19779   7.733   4.972   0.845  0.3267  0.3360 -0.0509
  144MOL0     C19780   6.723   4.928   0.631 -0.4741  0.6873  0.4754
  144MOL0     C19781   6.602   4.989   0.591 -0.6779 -0.7584  0.5028
  144MOL0     O19782   6.375   5.184   0.796 -0.5976  0.4661 -0.0244
  144MOL0     C19783   6.103   5.092   0.604  0.2273  0.3737  0.8697
  144MOL0     C19784   5.981   5.134   0.559 -0.7831 -0.2501 -0.2425
  144MOL0     N19785   5.404   5.727   0.790 -0.3292  0.3311  0.2736
  144MOL0     N19786   5.423   5.851   0.785 -0.9096  0.2029 -0.0843
  144MOL0     C19787   6.494   6.008   1.023 -0.6125  0.2827  0.0231
  144MOL0     C19788   6.597   6.058   1.105 -0.0856 -0.0457  0.7669
  144MOL0     C19789   6.903   6.361   1.293  0.2241  0.4252  0.2449
  144MOL0     C19790   6.958   6.490   1.282  0.4309  0.2991  0.8886
  144MOL0     C19791   7.069   6.526   1.359  0.3722 -0.5236 -0.0150
  144MOL0     C19792   7.122   6.433   1.448  0.4640  1.2358  0.9005
  144MOL0     O19793   7.228   6.458   1.528 -0.8252 -0.0893  0.5347
  144MOL0     C19794   7.325   6.566   1.498  0.1263  0.1133 -0.4920
  144MOL0     C19795   7.285   6.692   1.573 -0.4258 -0.0956 -0.4801
  144MOL0     C19796   7.399   6.718   1.677  0.2277 -0.1669  0.1391
  144MOL0     C19797   7.421   6.868   1.705  0.2343  0.2117  0.3325
  144MOL0     C19798   7.547   6.886   1.778 -0.0394  0.2600 -0.2337
  144MOL0     C19799   7.653   6.911   1.834 -0.7063  0.8213 -0.3404
  144MOL0     C19800   7.068   6.305   1.451 -0.3225 -0.3264 -0.2621
  144MOL0     C19801   6.968   6.267   1.368  0.5029  0.0477 -0.3310
  144MOL0     C19802   6.940   6.118   1.357 -0.6249 -0.6860 -0.7335
  144MOL0     H19803   6.525   6.386   1.105 -1.1012  0.5673  1.9345
  144MOL0     H19804   6.322   6.279   0.952 -0.2712 -1.1230 -1.2476
  144MOL0     H19805   6.312   5.831   0.881  0.7274 -2.0745 -3.4636
  144MOL0     H19806   6.423   5.934   0.790 -0.1851 -0.1170  0.5964
  144MOL0     H19807   6.193   6.001   0.671 -1.5554 -0.5520  1.1296
  144MOL0     H19808   6.271   5.857   0.621 -0.8440  0.6419 -0.1562
  144MOL0     H19809   6.124   5.711   0.746 -1.6133 -0.4918 -2.2923
  144MOL0     H19810   6.084   5.849   0.851  1.7723  0.5034  0.0411
  144MOL0     H19811   6.020   5.848   0.553 -1.2224  1.2988 -0.7483
  144MOL0     H19812   5.943   5.735   0.659 -0.5716  0.8432  0.3680
  144MOL0     H19813   5.944   6.042   0.692 -0.3043 -0.0614  1.6541
  144MOL0     H19814   5.883   5.923   0.809  0.1453  0.8440  1.0316
  144MOL0     H19815   5.787   5.985   0.522  0.4688  1.3017  0.1471
  144MOL0     H19816   5.713   5.857   0.623 -1.3457  1.1540 -2.4881
  144MOL0     H19817   5.594   6.089   0.614 -0.3529  3.1975  1.4300
  144MOL0     H19818   5.715   6.154   0.712 -2.9855  0.7556  0.4349
  144MOL0     H19819   5.705   5.989   0.889  0.3249 -2.4588 -0.8690
  144MOL0     H19820   5.548   6.078   0.852 -0.7475  0.8590 -2.7163
  144MOL0     H19821   5.722   5.739   0.853 -0.2932 -0.0678  0.9177
  144MOL0     H19822   5.439   5.464   0.847 -1.9130  0.4124 -1.4244
  144MOL0     H19823   5.611   5.472   0.892  0.5449  1.6434 -0.2780
  144MOL0     H19824   5.549   5.349   0.685  0.1595 -0.5458 -2.4965
  144MOL0     H19825   5.504   5.497   0.608  2.0653  0.3743 -0.8052
  144MOL0     H19826   5.727   5.590   0.632 -1.3481 -0.2597 -0.6383
  144MOL0     H19827   5.799   5.463   0.712  0.4756  2.8793  0.0429
  144MOL0     H19828   5.678   5.429   0.419 -0.5174 -0.9774  0.9912
  144MOL0     H19829   5.836   5.502   0.455  0.0163 -0.8283 -3.2361
  144MOL0     H19830   6.001   5.462   0.574 -0.7073  0.0686 -3.9070
  144MOL0     H19831   6.262   5.456   0.788 -1.2442 -0.4572 -0.4255
  144MOL0     H19832   6.233   5.536   0.634 -2.1434 -0.3251  1.4628
  144MOL0     H19833   6.356   5.416   0.638 -0.7967  0.3959 -1.3956
  144MOL0     H19834   6.391   4.854   0.807 -0.1899 -1.8478 -4.4360
  144MOL0     H19835   6.607   4.751   0.897 -1.3872 -0.4247  0.6845
  144MOL0     H19836   6.810   4.673   0.932 -0.2036 -2.8826 -0.5498
  144MOL0     H19837   6.845   4.588   0.784 -3.5650  2.0549  0.6307
  144MOL0     H19838   7.068   4.741   0.926  1.6170  1.5360 -4.0317
  144MOL0     H19839   7.023   4.562   0.952 -2.2763 -1.5851 -2.1138
  144MOL0     H19840   7.078   4.682   0.670  0.9578  2.2990  0.1719
  144MOL0     H19841   7.112   4.519   0.740  0.9955  0.5733  0.2312
  144MOL0     H19842   7.323   4.613   0.715 -1.4137 -1.1738 -1.0301
  144MOL0     H19843   7.293   4.643   0.887 -1.2808  1.5841  0.5784
  144MOL0     H19844   7.225   4.869   0.735 -2.0145  0.9537  2.6318
  144MOL0     H19845   7.267   4.844   0.899 -0.9120  0.2645 -0.0447
  144MOL0     H19846   7.457   4.804   0.659  1.5569 -1.3406  1.7233
  144MOL0     H19847   7.513   4.779   0.816 -0.2989 -2.1194 -1.2333
  144MOL0     H19848   7.450   5.028   0.869  2.2822  1.4577 -0.5975
  144MOL0     H19849   7.410   5.051   0.704  2.6023  4.9393  0.8360
  144MOL0     H19850   7.627   5.141   0.710  0.3128 -0.6304 -0.5605
  144MOL0     H19851   7.640   4.990   0.627 -3.6997 -2.5959 -0.3110
  144MOL0     H19852   6.813   4.959   0.578 -0.6863 -0.3814 -0.5464
  144MOL0     H19853   6.614   5.038   0.494 -0.4675  2.4367  2.0174
  144MOL0     H19854   6.127   4.986   0.613  1.5087  0.5635  0.0935
  144MOL0     H19855   5.897   5.070   0.533 -2.7784  2.3933 -0.6508
  144MOL0     H19856   6.507   5.901   1.015 -0.6587  0.3587 -1.3586
  144MOL0     H19857   6.670   5.981   1.130  0.8395  0.5566  0.0103
  144MOL0     H19858   6.918   6.561   1.211  0.7517 -0.3337  0.0541
  144MOL0     H19859   7.113   6.625   1.351  2.5506 -1.5342 -1.5735
  144MOL0     H19860   7.427   6.531   1.518  1.1293  2.7334 -0.5655
  144MOL0     H19861   7.319   6.590   1.392 -2.8607 -1.1711 -0.6824
  144MOL0     H19862   7.187   6.679   1.620 -2.0032  3.0157 -2.5539
  144MOL0     H19863   7.276   6.785   1.516 -1.4527 -0.5395 -1.0592
  144MOL0     H19864   7.369   6.659   1.765 -0.8033  2.1553  1.4355
  144MOL0     H19865   7.493   6.672   1.646  2.3985  2.6808  1.9690
  144MOL0     H19866   7.331   6.913   1.749  0.8080  1.0132  0.7165
  144MOL0     H19867   7.440   6.924   1.613  0.3140  1.9533  1.3577
  144MOL0     H19868   7.735   6.937   1.899  0.8889 -0.7820 -1.6080
  144MOL0     H19869   7.124   6.237   1.515  1.9343  2.6974  1.2206
  144MOL0     H19870   6.916   6.086   1.255 -2.8687  0.5466 -0.6788
  144MOL0     H19871   7.025   6.058   1.388  1.0701  0.6394 -2.5279
  144MOL0     H19872   6.856   6.089   1.421 -0.0954 -1.0119 -0.1792
  145MOL0     O19873   4.541   8.178   5.546  0.0255 -0.6173 -0.6421
  145MOL0     C19874   4.466   8.192   5.640 -0.8233  0.7894 -0.1930
  145MOL0     O19875   4.492   8.163   5.776  0.5533  0.8961  0.1611
  145MOL0     C19876   4.619   8.129   5.821  0.0695 -1.2134  0.1746
  145MOL0     C19877   4.641   7.997   5.843 -0.1079 -0.8241  0.0406
  145MOL0     C19878   4.768   7.954   5.879 -0.2996  0.8176 -0.9884
  145MOL0     C19879   4.876   8.043   5.899  0.0033 -0.1823 -0.1753
  145MOL0     O19880   4.999   7.995   5.925  0.0040 -0.1953 -0.4001
  145MOL0     C19881   5.060   8.031   6.049  0.3433  0.7252 -0.1485
  145MOL0     C19882   5.207   7.987   6.045  0.7964 -0.9603  0.7585
  145MOL0     C19883   5.291   8.021   6.167 -0.3291  0.2843  0.0316
  145MOL0     C19884   5.435   7.973   6.163 -0.4328  0.2799 -0.1040
  145MOL0     C19885   5.474   7.829   6.203  0.4871 -0.1865  0.6336
  145MOL0     C19886   5.622   7.787   6.201  0.2358 -0.3390  0.6962
  145MOL0     C19887   5.695   7.852   6.317 -0.4842 -0.1748  0.4651
  145MOL0     C19888   5.841   7.806   6.321  0.3000 -1.1006  0.4498
  145MOL0     N19889   5.853   7.662   6.339 -0.2018 -0.5501  0.6112
  145MOL0     C19890   5.817   7.587   6.446  0.2750 -1.0386 -0.3542
  145MOL0     C19891   5.843   7.462   6.409  0.4710 -0.8096  0.5046
  145MOL0     C19892   5.819   7.351   6.500 -0.4821 -0.2316  0.8798
  145MOL0     C19893   5.835   7.216   6.438 -0.3195 -0.3086 -0.4656
  145MOL0     C19894   5.821   7.109   6.544  0.6881 -0.6033 -0.1594
  145MOL0     C19895   5.861   6.975   6.498  0.4523  0.2607  1.4037
  145MOL0     O19896   5.836   6.870   6.588 -0.1788  0.0720 -0.5307
  145MOL0     C19897   5.877   6.745   6.552 -0.1704 -0.1294 -0.3885
  145MOL0     C19898   5.941   6.726   6.427 -0.2852  0.9461  0.2265
  145MOL0     C19899   5.987   6.601   6.376 -0.6223  0.5096 -0.7038
  145MOL0     C19900   6.051   6.598   6.247 -0.0124 -0.3139  1.2829
  145MOL0     C19901   5.989   6.489   6.465  0.2395 -0.3864 -0.0002
  145MOL0     C19902   6.037   6.351   6.447  0.0007  0.4720  1.1182
  145MOL0     O19903   6.025   6.254   6.540 -0.9735 -0.6506 -0.1845
  145MOL0     C19904   6.114   6.150   6.532 -0.0560 -0.1913 -0.1106
  145MOL0     C19905   6.066   6.022   6.560 -0.1903 -0.3565  0.4184
  145MOL0     C19906   6.155   5.914   6.566  0.2454 -1.1533  0.3830
  145MOL0     C19907   6.297   5.933   6.560  0.1768 -0.8047 -0.4906
  145MOL0     O19908   6.389   5.826   6.572 -0.5830 -1.0079  0.6307
  145MOL0     C19909   6.330   5.702   6.607 -0.0051 -0.0081  0.0260
  145MOL0     C19910   6.444   5.601   6.631  0.1476  0.7513  0.0105
  145MOL0     C19911   6.372   5.458   6.665 -1.0535  0.0758 -0.4431
  145MOL0     C19912   6.478   5.340   6.669  0.1416 -0.1024  0.3214
  145MOL0     C19913   6.515   5.298   6.524  0.7849 -0.3283  0.7411
  145MOL0     C19914   6.578   5.163   6.520  0.3617  0.9818 -0.5132
  145MOL0     C19915   6.709   5.144   6.601 -0.0117 -0.4166  0.3466
  145MOL0     C19916   6.830   5.220   6.548  0.6817  0.0345  0.6371
  145MOL0    Cl19917   6.889   5.137   6.396  0.3239  0.0315  0.3866
  145MOL0     C19918   6.346   6.064   6.536  0.2569 -0.0430  0.1190
  145MOL0     C19919   6.253   6.172   6.527 -0.5250 -0.4950 -0.4561
  145MOL0     O19920   6.085   6.330   6.330  0.2169 -0.6965  0.1383
  145MOL0     C19921   5.909   6.507   6.581 -0.2955  0.2549  0.1545
  145MOL0     C19922   5.856   6.628   6.622  0.4109  0.1566 -0.4589
  145MOL0     N19923   5.884   7.462   6.275  0.4254 -0.1223  0.3733
  145MOL0     N19924   5.893   7.583   6.238 -0.2631  0.5727  0.4841
  145MOL0     C19925   4.845   8.184   5.890 -0.4355 -0.0529 -0.6549
  145MOL0     C19926   4.721   8.227   5.853  0.5256 -0.5132 -0.4536
  145MOL0     C19927   4.335   8.217   5.611  0.6683  0.7753  0.0052
  145MOL0     C19928   4.237   8.128   5.654  0.1170 -0.2200  0.0701
  145MOL0     C19929   4.105   8.139   5.619  0.0541 -0.2511  0.2516
  145MOL0     C19930   4.067   8.248   5.556  0.2450 -0.2306  0.4094
  145MOL0     O19931   3.939   8.263   5.534  0.1027 -0.6111  0.6086
  145MOL0     C19932   3.882   8.394   5.546 -0.1636 -0.5682 -0.2785
  145MOL0     C19933   3.726   8.391   5.525 -0.8017  0.6128 -0.9943
  145MOL0     C19934   3.688   8.331   5.391 -0.1956  0.8038 -0.5391
  145MOL0     C19935   3.540   8.348   5.366  0.0746 -1.2240  0.8481
  145MOL0     C19936   3.452   8.278   5.462 -0.2011  0.3201 -0.0632
  145MOL0     C19937   3.376   8.225   5.545  0.0181 -0.1888 -0.0635
  145MOL0     C19938   4.158   8.350   5.519 -0.3374  0.6446  0.4427
  145MOL0     C19939   4.293   8.341   5.550  0.3796  0.0906  0.1954
  145MOL0     C19940   4.382   8.452   5.498  0.1602  0.1629 -0.7052
  145MOL0     H19941   4.566   7.921   5.824  0.4859 -1.4346  0.1023
  145MOL0     H19942   4.799   7.850   5.874 -0.2610  0.8718 -2.6859
  145MOL0     H19943   5.007   7.974   6.126  1.5378  2.1003  1.7865
  145MOL0     H19944   5.060   8.140   6.061  0.6071  1.1660 -3.2780
  145MOL0     H19945   5.215   7.878   6.041  1.1370 -0.8994 -1.6702
  145MOL0     H19946   5.250   8.030   5.954  1.2588  0.6692  1.7152
  145MOL0     H19947   5.290   8.130   6.164 -1.9386  0.2849 -0.5506
  145MOL0     H19948   5.242   7.992   6.260 -2.0829 -0.2882 -1.0051
  145MOL0     H19949   5.465   7.987   6.059 -1.2034 -0.2164 -0.4045
  145MOL0     H19950   5.505   8.042   6.211  0.7020 -1.1168  0.3488
  145MOL0     H19951   5.417   7.761   6.139 -1.3101  1.9709 -0.1827
  145MOL0     H19952   5.441   7.826   6.307 -2.7416  1.9754 -0.1727
  145MOL0     H19953   5.621   7.678   6.210 -0.6676 -0.4729 -0.6388
  145MOL0     H19954   5.671   7.809   6.105 -0.5423 -0.3882  0.2771
  145MOL0     H19955   5.644   7.836   6.412 -2.5447 -0.0442 -0.5657
  145MOL0     H19956   5.709   7.960   6.303  0.9530 -0.1818  1.6834
  145MOL0     H19957   5.878   7.845   6.226 -2.7890 -2.5546 -1.4938
  145MOL0     H19958   5.894   7.854   6.404 -0.0391  1.2618 -0.6192
  145MOL0     H19959   5.769   7.620   6.537  2.2612 -2.1655  1.2020
  145MOL0     H19960   5.715   7.359   6.531 -0.5316  0.0927  0.6259
  145MOL0     H19961   5.875   7.363   6.593 -0.3331  0.9563  0.6534
  145MOL0     H19962   5.776   7.194   6.348  1.2336  1.0868 -1.8889
  145MOL0     H19963   5.936   7.201   6.399 -0.3522 -0.4412 -0.4988
  145MOL0     H19964   5.883   7.127   6.632 -0.1623  1.4822  0.0723
  145MOL0     H19965   5.715   7.098   6.570  0.8678 -2.7389 -0.1258
  145MOL0     H19966   5.813   6.944   6.405  1.0919  1.7207  0.5656
  145MOL0     H19967   5.968   6.992   6.481 -0.0271  0.4996 -1.8424
  145MOL0     H19968   5.962   6.802   6.352 -0.9487 -0.6373 -1.6357
  145MOL0     H19969   6.041   6.686   6.184  1.7069 -2.9387 -3.1343
  145MOL0     H19970   5.989   6.535   6.182  1.2718 -0.6454  0.3352
  145MOL0     H19971   6.154   6.563   6.258  0.2970  0.5783  1.2569
  145MOL0     H19972   5.958   6.021   6.565 -0.4915  3.9218 -1.1277
  145MOL0     H19973   6.102   5.819   6.572 -1.7290 -0.2627 -1.4880
  145MOL0     H19974   6.274   5.703   6.700 -0.2632 -1.3890 -0.0921
  145MOL0     H19975   6.261   5.660   6.533  2.2367  1.0108 -2.8807
  145MOL0     H19976   6.496   5.592   6.536  0.7239 -2.2557  0.5176
  145MOL0     H19977   6.520   5.633   6.704 -1.4835  1.0852  1.6481
  145MOL0     H19978   6.308   5.443   6.578  2.5963 -1.3523 -3.1283
  145MOL0     H19979   6.324   5.461   6.763 -0.9513 -0.6882 -0.3603
  145MOL0     H19980   6.428   5.252   6.712  2.2937 -0.9036  1.3034
  145MOL0     H19981   6.573   5.363   6.718 -0.1371 -0.0606  0.8600
  145MOL0     H19982   6.426   5.296   6.461  0.8288  2.5158  0.4565
  145MOL0     H19983   6.584   5.365   6.472 -1.1660 -0.4249 -2.2397
  145MOL0     H19984   6.584   5.125   6.417 -0.7246  0.0007 -0.2268
  145MOL0     H19985   6.516   5.087   6.568  1.6611 -1.3164 -2.2428
  145MOL0     H19986   6.727   5.036   6.606 -1.7236 -0.7118  0.9724
  145MOL0     H19987   6.690   5.179   6.703  0.0238  0.0954  0.1751
  145MOL0     H19988   6.903   5.226   6.629  0.9480 -1.1876  0.5048
  145MOL0     H19989   6.793   5.319   6.521 -0.1963 -0.2764  0.6663
  145MOL0     H19990   6.448   6.092   6.513 -0.3641  2.3972 -0.0011
  145MOL0     H19991   6.298   6.269   6.512 -0.4712 -0.6591 -1.4470
  145MOL0     H19992   5.879   6.422   6.641 -0.1692  0.3469  0.3484
  145MOL0     H19993   5.805   6.627   6.718 -0.0040  0.8089 -0.6722
  145MOL0     H19994   4.918   8.264   5.889  0.0106 -0.2760  2.3508
  145MOL0     H19995   4.693   8.331   5.865 -3.7497 -1.7275  2.9952
  145MOL0     H19996   4.270   8.046   5.716 -0.1445  1.5258  2.6962
  145MOL0     H19997   4.035   8.065   5.658  2.3563 -3.2852 -1.0019
  145MOL0     H19998   3.903   8.432   5.646 -0.5786 -2.0945  0.4113
  145MOL0     H19999   3.928   8.466   5.477 -0.7534 -0.9382 -1.0836
  145MOL0     H20000   3.690   8.494   5.531 -1.0201  0.5654 -1.4475
  145MOL0     H20001   3.677   8.331   5.602  0.6996  0.7028  0.0742
  145MOL0     H20002   3.747   8.375   5.310 -0.3549  0.6833 -0.7198
  145MOL0     H20003   3.711   8.224   5.394 -1.3872  0.5299 -0.5174
  145MOL0     H20004   3.527   8.313   5.264  0.2538 -0.3421  0.5122
  145MOL0     H20005   3.513   8.454   5.367 -0.4421 -1.2999 -1.2619
  145MOL0     H20006   3.331   8.170   5.625 -1.3946  1.5465  0.3847
  145MOL0     H20007   4.127   8.434   5.458 -2.1455  0.1130  0.5849
  145MOL0     H20008   4.323   8.540   5.471 -0.4907 -0.3638 -1.0313
  145MOL0     H20009   4.462   8.467   5.570 -0.1362  0.7060 -0.4879
  145MOL0     H20010   4.439   8.409   5.415  0.0143 -0.4053 -0.5153
  146MOL0     O20011   2.286   9.914  10.066 -0.6464  0.7647 -0.2412
  146MOL0     C20012   2.214   9.827  10.022 -0.0300  0.3715 -0.4490
  146MOL0     O20013   2.240   9.746   9.919 -0.0692  0.4060 -0.2274
  146MOL0     C20014   2.356   9.754   9.841  0.8318 -0.8266  0.7297
  146MOL0     C20015   2.457   9.657   9.848 -1.2236  0.3871 -0.7372
  146MOL0     C20016   2.578   9.668   9.780 -0.7389  0.3637  0.3277
  146MOL0     C20017   2.592   9.772   9.690 -0.0365 -0.3310 -0.6491
  146MOL0     O20018   2.698   9.789   9.603 -0.5163  0.2896  0.5000
  146MOL0     C20019   2.829   9.743   9.645  0.4778  0.0164 -0.7670
  146MOL0     C20020   2.854   9.613   9.575 -0.2696 -0.5007  0.2158
  146MOL0     C20021   2.977   9.530   9.623  0.5304  0.2133  0.5767
  146MOL0     C20022   3.050   9.442   9.516  0.1242  0.5596 -0.1303
  146MOL0     C20023   3.169   9.374   9.588 -0.2345 -0.0616 -0.5232
  146MOL0     C20024   3.256   9.306   9.480  0.3087  0.4014 -0.5080
  146MOL0     C20025   3.388   9.246   9.532 -0.0631 -0.1490  0.4300
  146MOL0     C20026   3.484   9.335   9.606 -0.6978 -0.1264  0.4442
  146MOL0     N20027   3.627   9.277   9.600  0.2102 -0.3911 -0.2320
  146MOL0     C20028   3.680   9.214   9.707  0.2325  0.5203  0.4180
  146MOL0     C20029   3.815   9.194   9.671  0.4381  0.3106  0.0321
  146MOL0     C20030   3.911   9.115   9.758  0.2568  0.8410  0.3507
  146MOL0     C20031   4.057   9.102   9.712  0.3385  0.4431  0.9964
  146MOL0     C20032   4.133   9.236   9.706 -0.1325  0.5013  0.6241
  146MOL0     C20033   4.278   9.216   9.683 -0.7169  0.1078  0.1333
  146MOL0     O20034   4.326   9.174   9.820 -0.5554  0.3788  0.4862
  146MOL0     C20035   4.462   9.167   9.828 -0.3242  0.5535 -0.0047
  146MOL0     C20036   4.548   9.256   9.763  0.2926  0.2743  0.1244
  146MOL0     C20037   4.692   9.254   9.760 -0.0525  0.6545  1.0029
  146MOL0     C20038   4.768   9.353   9.681  0.4203 -0.1610  0.6251
  146MOL0     C20039   4.756   9.138   9.813 -0.3597 -0.1292 -0.2033
  146MOL0     C20040   4.900   9.098   9.791 -0.3171  0.5708  0.7232
  146MOL0     O20041   4.975   9.131   9.685  0.5985 -0.8391  0.3231
  146MOL0     C20042   5.094   9.080   9.647 -0.7309  0.0498 -1.3523
  146MOL0     C20043   5.165   9.162   9.566  0.5758 -0.4171 -0.6265
  146MOL0     C20044   5.297   9.136   9.541 -0.3977 -0.4291  0.0406
  146MOL0     C20045   5.356   9.017   9.589  0.5660 -0.2015  0.3698
  146MOL0     O20046   5.483   8.990   9.536  0.8172 -0.0617 -0.9290
  146MOL0     C20047   5.554   8.894   9.611 -0.8724 -0.7770  0.4046
  146MOL0     C20048   5.677   8.861   9.533  0.1963  0.4337 -0.0385
  146MOL0     C20049   5.785   8.787   9.608 -0.6583  0.0961 -0.6595
  146MOL0     C20050   5.911   8.752   9.524 -0.7401  0.1023 -0.0392
  146MOL0     C20051   5.972   8.626   9.581 -0.1673 -0.5171 -0.3273
  146MOL0     C20052   6.073   8.565   9.483 -0.1148 -0.1992 -0.5635
  146MOL0     C20053   6.142   8.437   9.520 -0.1441  0.3840 -0.3927
  146MOL0     C20054   6.180   8.352   9.397  0.1784  0.4261 -0.3716
  146MOL0    Cl20055   6.260   8.456   9.275 -0.4021  0.1777  0.5006
  146MOL0     C20056   5.281   8.934   9.675  0.3141  0.0969 -0.1058
  146MOL0     C20057   5.149   8.963   9.697  0.2047  0.9109  0.2153
  146MOL0     O20058   4.945   9.028   9.888  0.0716 -0.1746 -0.1161
  146MOL0     C20059   4.677   9.050   9.881  0.7042  0.7452  0.0009
  146MOL0     C20060   4.536   9.067   9.893  0.3044 -0.0723  0.3352
  146MOL0     N20061   3.834   9.258   9.545  0.2105  0.6527  0.0033
  146MOL0     N20062   3.726   9.307   9.510 -0.4229  0.0362  0.4242
  146MOL0     C20063   2.498   9.876   9.693 -0.4996  0.8311  0.2064
  146MOL0     C20064   2.384   9.871   9.769  0.6607  0.0570  0.2982
  146MOL0     C20065   2.071   9.813  10.080  0.2326 -0.5656 -0.7912
  146MOL0     C20066   1.981   9.737  10.009  0.4449 -0.0924  0.0671
  146MOL0     C20067   1.853   9.694  10.047 -0.5872  0.1624 -0.2877
  146MOL0     C20068   1.804   9.737  10.168  0.1200 -0.2240  0.4180
  146MOL0     O20069   1.681   9.700  10.211 -0.7364  0.0416  0.2558
  146MOL0     C20070   1.579   9.762  10.146 -0.1871  0.4850  0.3246
  146MOL0     C20071   1.449   9.690  10.179  0.7531  0.7939  0.0352
  146MOL0     C20072   1.447   9.535  10.150 -0.4750  0.2389  0.8730
  146MOL0     C20073   1.301   9.481  10.148 -0.7742  0.0555  0.6566
  146MOL0     C20074   1.216   9.548  10.051  0.2033 -0.2750  0.0120
  146MOL0     C20075   1.166   9.595   9.956  0.4209 -0.5693  0.6706
  146MOL0     C20076   1.886   9.820  10.244 -0.5622 -0.0409 -0.6321
  146MOL0     C20077   2.015   9.862  10.204 -0.1202  0.7386  0.0768
  146MOL0     C20078   2.085   9.968  10.290  0.5618  0.3237  0.8068
  146MOL0     H20079   2.455   9.574   9.918  0.6503 -1.0040 -2.2057
  146MOL0     H20080   2.655   9.594   9.797 -2.3960 -1.1274  1.8886
  146MOL0     H20081   2.822   9.726   9.753 -0.2208  0.9906 -0.6427
  146MOL0     H20082   2.906   9.817   9.621  0.5202  0.8337  1.6023
  146MOL0     H20083   2.759   9.559   9.576  0.2383 -1.4498 -0.9227
  146MOL0     H20084   2.876   9.636   9.470 -1.3164 -0.3821  0.0155
  146MOL0     H20085   3.052   9.594   9.670  2.8046 -1.9598  0.1502
  146MOL0     H20086   2.944   9.457   9.697  1.7229  1.7452  2.7124
  146MOL0     H20087   2.983   9.360   9.488  1.6405 -0.2864 -1.5125
  146MOL0     H20088   3.072   9.512   9.435  0.5511  1.0779  0.4285
  146MOL0     H20089   3.127   9.308   9.664  2.5269 -1.8451 -0.3914
  146MOL0     H20090   3.228   9.451   9.638 -1.0586  1.8061 -2.2807
  146MOL0     H20091   3.195   9.231   9.431 -0.6860 -0.9100  2.4684
  146MOL0     H20092   3.276   9.387   9.409  0.0256  0.9294  0.0033
  146MOL0     H20093   3.431   9.207   9.439  0.6733  0.1986  0.6147
  146MOL0     H20094   3.370   9.170   9.609  2.0297  1.4641  2.7008
  146MOL0     H20095   3.487   9.441   9.582  2.5580 -0.2944 -0.3320
  146MOL0     H20096   3.465   9.327   9.714  0.8297 -1.0932  0.6676
  146MOL0     H20097   3.632   9.180   9.798 -1.9694  2.5773  0.1271
  146MOL0     H20098   3.871   9.014   9.762  2.7551 -0.2210  0.4195
  146MOL0     H20099   3.916   9.160   9.858  3.2210  2.2947 -0.3330
  146MOL0     H20100   4.108   9.025   9.771 -0.7198 -1.8067 -0.8483
  146MOL0     H20101   4.044   9.060   9.612  1.4699  0.4613  0.8252
  146MOL0     H20102   4.092   9.301   9.628  2.3096  0.4235 -0.8289
  146MOL0     H20103   4.107   9.291   9.798  2.7017  0.5939  1.4786
  146MOL0     H20104   4.297   9.155   9.593 -1.7073  0.4763 -0.3395
  146MOL0     H20105   4.310   9.318   9.662 -1.3210  0.3444  0.3543
  146MOL0     H20106   4.498   9.344   9.722  0.7571 -0.2533 -1.6481
  146MOL0     H20107   4.711   9.442   9.652  0.0246 -0.4589  0.4805
  146MOL0     H20108   4.800   9.313   9.584  0.0033  0.3663  0.2615
  146MOL0     H20109   4.863   9.371   9.732  1.1537  0.1797 -0.8103
  146MOL0     H20110   5.128   9.260   9.539  0.3018 -0.2409  0.3209
  146MOL0     H20111   5.356   9.219   9.502  0.1686 -0.0545  1.5941
  146MOL0     H20112   5.573   8.929   9.713  0.9178 -0.1004 -0.1204
  146MOL0     H20113   5.498   8.800   9.611 -1.3218 -0.5127  0.2696
  146MOL0     H20114   5.648   8.795   9.451  0.2479 -0.3075  0.5328
  146MOL0     H20115   5.703   8.957   9.487  3.5058 -0.3078  0.0616
  146MOL0     H20116   5.751   8.695   9.657 -1.1595 -0.6548 -2.3288
  146MOL0     H20117   5.817   8.850   9.691  1.1230 -0.4004 -0.9475
  146MOL0     H20118   5.980   8.837   9.521  0.0832 -0.2781  3.3789
  146MOL0     H20119   5.874   8.724   9.425 -2.0121 -1.2695  0.7731
  146MOL0     H20120   6.029   8.662   9.668  3.4477  0.3582 -2.8441
  146MOL0     H20121   5.899   8.551   9.614  1.9098 -1.9977  1.1891
  146MOL0     H20122   6.151   8.641   9.477  0.2757  0.2343  4.9754
  146MOL0     H20123   6.029   8.550   9.384 -2.4976  2.5257 -0.0480
  146MOL0     H20124   6.075   8.392   9.594 -0.2032 -0.6174 -1.0381
  146MOL0     H20125   6.236   8.464   9.569  2.9845 -0.3016 -5.3723
  146MOL0     H20126   6.088   8.313   9.353  0.0406 -1.3276  1.3512
  146MOL0     H20127   6.239   8.264   9.426  1.2371  0.9645 -0.8077
  146MOL0     H20128   5.321   8.843   9.719 -0.3712  0.8620  2.2328
  146MOL0     H20129   5.082   8.890   9.741  0.7241 -1.5601 -2.7638
  146MOL0     H20130   4.718   8.962   9.929  1.7299  2.1998  1.9469
  146MOL0     H20131   4.479   8.993   9.948 -0.0581 -0.7673 -0.9168
  146MOL0     H20132   2.498   9.957   9.621 -2.2468  1.9415  1.3758
  146MOL0     H20133   2.316   9.955   9.757 -0.2722 -0.1797  3.0492
  146MOL0     H20134   2.019   9.698   9.915  0.8387  0.8406 -0.1790
  146MOL0     H20135   1.790   9.623   9.994  0.6876  0.9956 -3.0853
  146MOL0     H20136   1.562   9.865  10.179 -1.9042  0.5756 -0.6932
  146MOL0     H20137   1.583   9.763  10.036  1.6911  1.3119  0.3618
  146MOL0     H20138   1.366   9.735  10.124  0.0289 -1.2866 -0.6731
  146MOL0     H20139   1.420   9.701  10.284 -0.0422  1.5063 -0.2553
  146MOL0     H20140   1.496   9.516  10.054 -0.5203 -1.9348  1.2385
  146MOL0     H20141   1.501   9.497  10.237 -0.7894  1.9484  1.8611
  146MOL0     H20142   1.254   9.493  10.246 -2.2733 -1.4840  0.1614
  146MOL0     H20143   1.308   9.374  10.129  3.4137  0.0427  1.2540
  146MOL0     H20144   1.142   9.645   9.865  3.0919  1.5139  0.9639
  146MOL0     H20145   1.851   9.848  10.343 -0.0012 -1.0621 -0.1297
  146MOL0     H20146   2.184   9.946  10.332  0.3757  1.4757  1.8743
  146MOL0     H20147   2.101  10.058  10.230  1.1395  0.1803  0.7312
  146MOL0     H20148   2.017   9.996  10.370  0.5288  0.7007  0.6483
  147MOL0     O20149   1.452   7.167   9.675 -0.2132 -0.1869  0.2876
  147MOL0     C20150   1.431   7.195   9.555  0.4005 -0.7464 -0.1091
  147MOL0     O20151   1.524   7.220   9.462 -0.4993  0.1045 -0.5528
  147MOL0     C20152   1.652   7.185   9.502  0.1944 -0.9531  0.1084
  147MOL0     C20153   1.741   7.290   9.544 -0.0278  0.3216 -0.1942
  147MOL0     C20154   1.874   7.263   9.580 -0.3798  1.6264 -0.1395
  147MOL0     C20155   1.923   7.134   9.590 -0.4895  0.5054 -0.4499
  147MOL0     O20156   2.056   7.121   9.637  0.0946 -0.6145  0.4563
  147MOL0     C20157   2.107   6.999   9.681 -0.1070 -0.0612  0.0410
  147MOL0     C20158   2.251   6.996   9.622  0.0053 -0.2391 -0.6595
  147MOL0     C20159   2.351   7.081   9.706 -0.3676  0.5378  1.5091
  147MOL0     C20160   2.494   7.039   9.682 -1.2321  0.9750  0.2276
  147MOL0     C20161   2.587   7.151   9.740  0.1938  0.1142 -0.0084
  147MOL0     C20162   2.737   7.116   9.702  0.4275 -0.3184  0.3173
  147MOL0     C20163   2.837   7.210   9.784  0.6051  0.7192  0.5063
  147MOL0     C20164   2.869   7.344   9.722  0.4481  0.4849  0.1377
  147MOL0     N20165   2.963   7.414   9.811 -0.0768 -0.5231  0.1774
  147MOL0     C20166   3.097   7.371   9.831  0.3687 -0.1533 -0.5560
  147MOL0     C20167   3.147   7.463   9.921 -0.5614 -0.4597  0.1310
  147MOL0     C20168   3.288   7.455   9.980  0.0063 -0.4025 -0.4755
  147MOL0     C20169   3.277   7.374  10.109 -0.3792  0.0439  0.0769
  147MOL0     C20170   3.201   7.433  10.226 -0.0014  0.2203  0.3533
  147MOL0     C20171   3.241   7.385  10.366 -0.3284  0.0259 -0.5458
  147MOL0     O20172   3.371   7.448  10.404  0.3110  0.5568 -0.0553
  147MOL0     C20173   3.493   7.392  10.403  0.0818  0.1272  0.6881
  147MOL0     C20174   3.515   7.254  10.402  0.5851  0.5158 -0.0898
  147MOL0     C20175   3.637   7.188  10.399 -0.3719 -0.0181  0.2704
  147MOL0     C20176   3.649   7.038  10.411 -0.3700 -0.1371 -0.6092
  147MOL0     C20177   3.749   7.271  10.377 -0.9089  0.2661  0.3697
  147MOL0     C20178   3.892   7.239  10.348  0.0442 -0.0743 -0.6461
  147MOL0     O20179   3.933   7.129  10.417 -0.2760  0.8003  0.2924
  147MOL0     C20180   4.052   7.065  10.384  0.7914 -0.6667  0.1112
  147MOL0     C20181   4.175   7.116  10.407 -0.0699  0.3702  0.0556
  147MOL0     C20182   4.296   7.051  10.364  0.7053  0.7829  0.1460
  147MOL0     C20183   4.292   6.928  10.293 -0.3042 -0.1125 -0.6154
  147MOL0     O20184   4.400   6.889  10.229 -0.8508 -0.0540  0.1704
  147MOL0     C20185   4.507   6.846  10.313 -0.1941 -0.4433  0.9475
  147MOL0     C20186   4.615   6.791  10.240  0.2946  0.6635  0.3991
  147MOL0     C20187   4.686   6.891  10.154  1.1519  1.1580 -0.6740
  147MOL0     C20188   4.789   6.972  10.235  0.7046  1.0566  0.1542
  147MOL0     C20189   4.899   7.022  10.147  0.4710 -0.2088  0.3652
  147MOL0     C20190   4.959   7.141  10.220 -0.1758 -0.0296 -0.4343
  147MOL0     C20191   5.081   7.188  10.152 -0.1519 -0.1299  0.0951
  147MOL0     C20192   5.145   7.317  10.208 -0.7523  0.1000  0.1637
  147MOL0    Cl20193   5.179   7.294  10.388 -0.2555  0.1058  0.0564
  147MOL0     C20194   4.169   6.866  10.281  0.3974 -0.5556 -0.0271
  147MOL0     C20195   4.047   6.938  10.330  1.0190  0.0569  0.0955
  147MOL0     O20196   3.970   7.313  10.286 -0.4777  0.6789 -0.0807
  147MOL0     C20197   3.739   7.407  10.401 -0.3332 -0.5533  0.3329
  147MOL0     C20198   3.610   7.466  10.406  0.3461 -0.2790 -0.2893
  147MOL0     N20199   3.045   7.551   9.962  0.2682 -0.6078  0.8926
  147MOL0     N20200   2.938   7.525   9.887  0.1916  0.6025  0.0407
  147MOL0     C20201   1.837   7.034   9.540  1.0882  0.3230  0.2215
  147MOL0     C20202   1.708   7.057   9.497  0.0739  0.3275 -0.0713
  147MOL0     C20203   1.290   7.195   9.506 -0.0833 -0.2349 -0.5472
  147MOL0     C20204   1.188   7.240   9.597 -0.3921  0.8757 -0.5337
  147MOL0     C20205   1.062   7.240   9.573  0.2117 -0.0095 -0.1729
  147MOL0     C20206   1.014   7.188   9.453  0.1421 -0.5740  0.2154
  147MOL0     O20207   0.878   7.183   9.430  0.6759 -0.0873 -0.7746
  147MOL0     C20208   0.822   7.106   9.325 -0.4825 -0.8752 -0.4374
  147MOL0     C20209   0.666   7.091   9.355  0.3360 -0.0370  0.5839
  147MOL0     C20210   0.592   7.053   9.225  0.0787 -0.7349  0.7385
  147MOL0     C20211   0.443   7.027   9.234 -0.1216  1.0931 -0.5327
  147MOL0     C20212   0.385   7.009   9.099 -0.2047 -0.1728  0.3115
  147MOL0     C20213   0.342   6.978   8.992  0.6715 -0.0120 -0.3913
  147MOL0     C20214   1.107   7.147   9.357  0.1023  0.2339 -0.3227
  147MOL0     C20215   1.245   7.151   9.379  0.3241 -0.3526 -0.1964
  147MOL0     C20216   1.338   7.091   9.274  0.0403 -0.0945  0.6326
  147MOL0     H20217   1.709   7.392   9.561  0.6462  0.2822  1.4980
  147MOL0     H20218   1.932   7.350   9.612  0.3104  2.5934 -3.6141
  147MOL0     H20219   2.056   6.906   9.655  0.9808 -1.4046  2.4385
  147MOL0     H20220   2.117   6.990   9.789 -0.3579 -3.6141 -0.1054
  147MOL0     H20221   2.289   6.894   9.625 -1.6975 -0.8770  0.9436
  147MOL0     H20222   2.251   7.026   9.516 -1.1574  1.7071 -0.1709
  147MOL0     H20223   2.332   7.184   9.674 -1.7104  0.1566  0.9946
  147MOL0     H20224   2.333   7.071   9.813 -2.9985  3.2434  1.4613
  147MOL0     H20225   2.503   6.939   9.726  1.3026  0.6547 -0.8159
  147MOL0     H20226   2.521   7.046   9.576  3.3459  0.6653  1.1616
  147MOL0     H20227   2.585   7.150   9.849 -0.0531  1.2099  0.0101
  147MOL0     H20228   2.564   7.251   9.702 -1.2322  0.2879  1.2252
  147MOL0     H20229   2.754   7.016   9.742  1.4154  0.9566  3.4438
  147MOL0     H20230   2.757   7.109   9.595  3.0853 -3.5576  0.8689
  147MOL0     H20231   2.925   7.146   9.792 -0.4318 -1.0199 -1.0840
  147MOL0     H20232   2.799   7.242   9.881  2.2486  1.8389  0.8263
  147MOL0     H20233   2.917   7.324   9.626 -0.0932 -0.9353  0.1427
  147MOL0     H20234   2.774   7.394   9.699  2.0526  4.7364  1.6549
  147MOL0     H20235   3.161   7.294   9.788  0.0197 -0.3205 -0.7852
  147MOL0     H20236   3.325   7.556   9.999  2.5160 -1.1971 -0.7793
  147MOL0     H20237   3.356   7.404   9.911 -0.2134  0.5461 -1.4096
  147MOL0     H20238   3.239   7.273  10.093 -3.2922  0.9836  0.5152
  147MOL0     H20239   3.377   7.360  10.153 -1.4648 -3.1564  1.8777
  147MOL0     H20240   3.228   7.540  10.225 -0.5776  0.3677  0.3851
  147MOL0     H20241   3.093   7.422  10.212 -0.2170 -2.2524  2.9747
  147MOL0     H20242   3.172   7.436  10.434  1.9625  1.3007  0.9618
  147MOL0     H20243   3.223   7.278  10.378 -1.2269  0.1220 -0.9485
  147MOL0     H20244   3.428   7.190  10.396  1.4209 -0.5681 -1.1211
  147MOL0     H20245   3.552   6.992  10.433  1.3012 -2.9689  1.6111
  147MOL0     H20246   3.710   7.010  10.498  0.4107  1.3798 -0.6359
  147MOL0     H20247   3.684   6.983  10.323  1.2530 -2.2126  1.1858
  147MOL0     H20248   4.163   7.209  10.462 -2.8098 -0.9478  1.9116
  147MOL0     H20249   4.392   7.098  10.384  1.0167  0.3752 -0.3854
  147MOL0     H20250   4.542   6.934  10.368 -0.3302  1.3770 -1.6827
  147MOL0     H20251   4.468   6.777  10.389  1.1881 -0.7801  1.3701
  147MOL0     H20252   4.687   6.734  10.299  0.4407 -1.7655 -1.9286
  147MOL0     H20253   4.566   6.725  10.168  0.3721  1.6839 -0.6171
  147MOL0     H20254   4.620   6.953  10.093  0.3833  0.6420 -0.3828
  147MOL0     H20255   4.746   6.829  10.087 -0.0750 -0.2954 -0.4737
  147MOL0     H20256   4.829   6.915  10.320 -0.6620 -1.1000 -0.5616
  147MOL0     H20257   4.733   7.054  10.281 -0.8872 -0.3761  0.8737
  147MOL0     H20258   4.979   6.950  10.130 -0.2740 -0.7438 -1.0420
  147MOL0     H20259   4.854   7.063  10.056 -2.0258 -1.7515  0.7901
  147MOL0     H20260   4.984   7.117  10.324  0.8900  2.0924 -0.1411
  147MOL0     H20261   4.877   7.214  10.221 -1.5857 -1.5032 -2.2590
  147MOL0     H20262   5.066   7.213  10.047  2.4882 -1.5258 -0.6954
  147MOL0     H20263   5.161   7.113  10.158  0.3282  0.2076 -1.5803
  147MOL0     H20264   5.098   7.412  10.179  1.2762  1.6155  1.5078
  147MOL0     H20265   5.248   7.325  10.174 -1.5831  0.2732 -2.5303
  147MOL0     H20266   4.163   6.772  10.227 -0.1094 -1.2557  1.2098
  147MOL0     H20267   3.949   6.896  10.313 -1.3074  4.2510  1.8790
  147MOL0     H20268   3.829   7.465  10.421 -1.4702  0.8585  1.5839
  147MOL0     H20269   3.599   7.573  10.415 -1.9050 -0.3930 -1.0096
  147MOL0     H20270   1.875   6.932   9.543 -1.1317 -0.6475 -1.4214
  147MOL0     H20271   1.641   6.986   9.449 -0.7146  0.2919  1.0435
  147MOL0     H20272   1.204   7.261   9.703 -0.5670  1.1829 -0.5694
  147MOL0     H20273   0.996   7.281   9.648 -0.4958 -0.3293 -0.6047
  147MOL0     H20274   0.839   7.158   9.231 -0.9127  0.1051  0.0090
  147MOL0     H20275   0.867   7.006   9.330 -0.5060 -0.8463  2.5781
  147MOL0     H20276   0.633   7.189   9.389 -1.4867 -0.5710  0.4924
  147MOL0     H20277   0.630   7.026   9.436 -3.4916  1.0032 -0.0636
  147MOL0     H20278   0.605   7.128   9.146  1.8155 -2.4182 -0.6956
  147MOL0     H20279   0.644   6.962   9.193  1.3708 -0.8345  2.9139
  147MOL0     H20280   0.389   7.111   9.280 -0.3631  1.2757 -1.1412
  147MOL0     H20281   0.429   6.938   9.296  1.1423  2.5307  1.9707
  147MOL0     H20282   0.287   6.969   8.900  0.9693  0.5065 -0.6267
  147MOL0     H20283   1.071   7.115   9.260  0.0433  1.6275 -0.7859
  147MOL0     H20284   1.390   7.173   9.223 -1.4674 -1.0083 -2.6414
  147MOL0     H20285   1.410   7.027   9.326  1.1096  0.3121 -0.3091
  147MOL0     H20286   1.282   7.041   9.195 -1.2272  0.5962  1.0637
  148MOL0     O20287   8.970   8.584   4.101 -0.1890  0.0957 -0.1510
  148MOL0     C20288   8.963   8.600   4.222 -0.3250  1.1507 -0.9310
  148MOL0     O20289   8.846   8.575   4.298 -0.6967  0.6864  0.4339
  148MOL0     C20290   8.758   8.483   4.265 -0.5777  1.1163  0.6203
  148MOL0     C20291   8.629   8.508   4.299 -0.2372  1.2873 -0.6565
  148MOL0     C20292   8.527   8.416   4.271  0.9677  0.6818  0.2925
  148MOL0     C20293   8.546   8.301   4.193  0.1975 -0.5137 -0.4294
  148MOL0     O20294   8.447   8.219   4.166 -0.5269  0.6562  0.2933
  148MOL0     C20295   8.432   8.193   4.031  0.4299 -0.3913  1.2205
  148MOL0     C20296   8.291   8.145   3.997 -0.1067 -0.1353 -0.0490
  148MOL0     C20297   8.234   8.041   4.093 -1.0738  0.6991 -0.1094
  148MOL0     C20298   8.091   8.058   4.134  0.8688 -0.9908 -0.1831
  148MOL0     C20299   8.062   7.946   4.230 -0.9188 -0.1629  0.4349
  148MOL0     C20300   7.936   7.972   4.309  0.2366 -0.1676  0.1601
  148MOL0     C20301   7.800   7.966   4.231 -1.2389 -0.1920  0.2202
  148MOL0     C20302   7.690   7.918   4.307  0.6037  0.2756  0.3253
  148MOL0     N20303   7.639   8.020   4.414  0.5949 -0.3381 -0.8867
  148MOL0     C20304   7.654   8.155   4.418 -1.0144 -0.4882  0.2366
  148MOL0     C20305   7.585   8.200   4.526  0.5662 -0.4464  0.1865
  148MOL0     C20306   7.578   8.342   4.564  0.8653 -1.0262 -0.1960
  148MOL0     C20307   7.714   8.389   4.633  0.7723  0.9404  0.1374
  148MOL0     C20308   7.703   8.426   4.776  0.4123 -0.0214 -0.2466
  148MOL0     C20309   7.818   8.438   4.869 -0.1091 -0.0184 -1.4791
  148MOL0     O20310   7.925   8.339   4.843 -0.0368 -0.8330  1.0046
  148MOL0     C20311   8.040   8.337   4.924  0.8862  0.2668  0.3546
  148MOL0     C20312   8.131   8.239   4.890 -0.5422 -0.2239 -0.0209
  148MOL0     C20313   8.248   8.214   4.965  0.5710  0.5553  1.1208
  148MOL0     C20314   8.332   8.106   4.919  0.5118 -0.0647  0.4670
  148MOL0     C20315   8.281   8.301   5.065 -0.6781  0.1780  0.0754
  148MOL0     C20316   8.406   8.294   5.143 -0.2139 -0.1917 -0.2452
  148MOL0     O20317   8.525   8.245   5.086  0.0942  0.1029  0.2986
  148MOL0     C20318   8.635   8.236   5.166  0.1765 -1.1344 -0.1414
  148MOL0     C20319   8.686   8.112   5.199  1.1862 -0.2174  1.0363
  148MOL0     C20320   8.800   8.107   5.279 -0.3638 -0.1764 -0.2654
  148MOL0     C20321   8.862   8.222   5.324  0.2129  1.9035 -0.7532
  148MOL0     O20322   8.958   8.220   5.416 -0.0670  0.1715 -0.1652
  148MOL0     C20323   8.939   8.141   5.537 -0.1003  0.5843 -0.2536
  148MOL0     C20324   9.059   8.154   5.634 -0.3345  0.1407  0.1659
  148MOL0     C20325   9.065   8.300   5.682  0.1348  0.5569 -0.3867
  148MOL0     C20326   9.178   8.296   5.791  0.1064 -0.0655  0.2113
  148MOL0     C20327   9.210   8.432   5.856 -0.0405  0.4690 -1.3639
  148MOL0     C20328   9.333   8.411   5.937 -0.2597 -0.5476  0.3208
  148MOL0     C20329   9.384   8.549   5.999  0.4961 -0.0114  0.3134
  148MOL0     C20330   9.525   8.533   6.060 -0.4791  0.7224 -0.6811
  148MOL0    Cl20331   9.640   8.468   5.939 -0.4262  0.1648  0.1443
  148MOL0     C20332   8.822   8.349   5.283  0.0018 -0.2335  0.1603
  148MOL0     C20333   8.700   8.353   5.215  0.4906  0.2280  0.4504
  148MOL0     O20334   8.397   8.341   5.254 -0.4599 -0.0530  0.0684
  148MOL0     C20335   8.192   8.403   5.098 -0.2802 -0.4458  0.5438
  148MOL0     C20336   8.077   8.433   5.019  0.0063 -0.9054 -0.3134
  148MOL0     N20337   7.540   8.086   4.586 -0.3038 -0.3673 -0.0568
  148MOL0     N20338   7.556   7.977   4.512  0.2638 -0.4249 -0.3102
  148MOL0     C20339   8.681   8.287   4.151  0.8748  0.1945 -0.2681
  148MOL0     C20340   8.788   8.366   4.189 -0.3582 -0.2463  0.0006
  148MOL0     C20341   9.084   8.663   4.302  0.3737  0.2376 -0.0274
  148MOL0     C20342   9.049   8.706   4.426 -0.2572  0.2440 -0.6419
  148MOL0     C20343   9.144   8.776   4.503  0.1061  0.1872 -0.0972
  148MOL0     C20344   9.272   8.817   4.458  0.4431  0.1030 -0.6166
  148MOL0     O20345   9.345   8.901   4.542  0.2888  0.9025 -0.4034
  148MOL0     C20346   9.480   8.935   4.498  0.6657 -0.2610 -0.2533
  148MOL0     C20347   9.536   9.011   4.622  0.6166 -0.5755 -0.2949
  148MOL0     C20348   9.687   9.000   4.629 -0.7674 -0.3769  0.3053
  148MOL0     C20349   9.751   9.097   4.528  0.1454  0.0259 -0.2073
  148MOL0     C20350   9.894   9.106   4.534  0.4733  1.0939 -0.2764
  148MOL0     C20351  10.017   9.117   4.547 -0.2486 -0.4812 -0.0849
  148MOL0     C20352   9.305   8.748   4.339  0.3234  0.1580  0.1776
  148MOL0     C20353   9.210   8.672   4.257 -0.6105 -0.2314 -0.4547
  148MOL0     C20354   9.263   8.600   4.138  0.0508  0.6115  0.4450
  148MOL0     H20355   8.600   8.598   4.351  0.7199  0.8323  0.7507
  148MOL0     H20356   8.424   8.428   4.302  0.3589 -2.1888 -0.3706
  148MOL0     H20357   8.516   8.134   3.994  0.2872 -2.0352  3.3002
  148MOL0     H20358   8.436   8.289   3.979 -4.8068 -1.3414 -1.7301
  148MOL0     H20359   8.225   8.231   3.982 -1.5272 -0.4855  3.2876
  148MOL0     H20360   8.304   8.102   3.898 -2.7071 -2.4708  0.5253
  148MOL0     H20361   8.238   7.944   4.042 -1.1751  1.5003 -1.6825
  148MOL0     H20362   8.300   8.027   4.180 -0.2580  4.6447  0.0738
  148MOL0     H20363   8.077   8.156   4.181 -0.6252 -0.4686 -1.6317
  148MOL0     H20364   8.015   8.059   4.055 -1.3114 -0.4200  1.7938
  148MOL0     H20365   8.139   7.932   4.307 -0.0165 -0.2625 -0.4660
  148MOL0     H20366   8.042   7.853   4.178 -0.2557 -0.7236  1.1607
  148MOL0     H20367   7.931   7.893   4.385  0.8544 -1.0072 -0.6578
  148MOL0     H20368   7.944   8.067   4.363  1.2784 -0.9603  1.4763
  148MOL0     H20369   7.808   7.899   4.145 -1.1383  0.1073 -0.0073
  148MOL0     H20370   7.784   8.066   4.188  0.7836 -0.9265 -2.5746
  148MOL0     H20371   7.603   7.903   4.242  1.1360 -2.3209  0.1214
  148MOL0     H20372   7.721   7.821   4.347 -1.0748 -0.2449  0.4576
  148MOL0     H20373   7.720   8.200   4.344  1.0824 -2.4817  0.8124
  148MOL0     H20374   7.495   8.364   4.632  1.8937 -0.9201  1.0648
  148MOL0     H20375   7.567   8.406   4.476 -0.4724  0.8053  1.2086
  148MOL0     H20376   7.791   8.313   4.623  0.3525  0.6165 -0.7596
  148MOL0     H20377   7.752   8.482   4.589 -1.3746  1.2300 -1.2607
  148MOL0     H20378   7.648   8.521   4.774  0.6269  0.0964 -0.7733
  148MOL0     H20379   7.650   8.344   4.825 -0.2095 -0.3630 -1.4600
  148MOL0     H20380   7.856   8.539   4.850 -1.1500  0.5166 -0.8110
  148MOL0     H20381   7.773   8.428   4.968 -0.6298  0.1962 -1.6867
  148MOL0     H20382   8.111   8.178   4.802  3.6185  3.0836 -3.7469
  148MOL0     H20383   8.373   8.042   4.998 -1.1529 -1.2889  0.4014
  148MOL0     H20384   8.411   8.160   4.867  0.0536  2.6235  2.3650
  148MOL0     H20385   8.281   8.046   4.843  0.4359  3.7701 -2.8213
  148MOL0     H20386   8.628   8.027   5.163 -1.9358  2.8557 -1.9800
  148MOL0     H20387   8.845   8.009   5.294 -0.4836 -0.1426  0.3545
  148MOL0     H20388   8.855   8.178   5.597 -0.1677 -0.0589  0.0543
  148MOL0     H20389   8.930   8.035   5.512 -0.4960  0.9662 -1.8465
  148MOL0     H20390   9.042   8.093   5.723  2.7783 -0.5384  0.3894
  148MOL0     H20391   9.155   8.126   5.589  1.3692  2.0424  2.3614
  148MOL0     H20392   8.968   8.323   5.726  1.0440 -1.6503  3.1260
  148MOL0     H20393   9.096   8.365   5.598 -1.4364 -1.5451 -2.7343
  148MOL0     H20394   9.271   8.284   5.734  0.2573  1.3899  0.1040
  148MOL0     H20395   9.159   8.217   5.864 -0.9109  0.5280  0.6072
  148MOL0     H20396   9.235   8.514   5.788 -3.6875  3.3651  0.4178
  148MOL0     H20397   9.123   8.479   5.903 -1.8512 -0.2421 -3.8066
  148MOL0     H20398   9.409   8.361   5.876  0.1159 -0.0121  0.3467
  148MOL0     H20399   9.313   8.338   6.016  0.9745 -2.0594 -0.7065
  148MOL0     H20400   9.314   8.559   6.082 -0.2804 -3.6179  0.2655
  148MOL0     H20401   9.384   8.624   5.919 -1.9115  0.3602  0.6068
  148MOL0     H20402   9.519   8.471   6.150 -0.1603  1.6941  0.0235
  148MOL0     H20403   9.558   8.631   6.094  2.1333  0.4920 -2.2994
  148MOL0     H20404   8.882   8.436   5.308  2.4349 -2.0397  1.0024
  148MOL0     H20405   8.665   8.448   5.178  2.9683  0.7968 -0.6928
  148MOL0     H20406   8.223   8.479   5.170 -1.1577 -0.8014  1.3227
  148MOL0     H20407   8.009   8.512   5.050  0.7417 -0.3877  0.0427
  148MOL0     H20408   8.714   8.200   4.094  2.5640  0.1316  0.7178
  148MOL0     H20409   8.890   8.338   4.169 -0.9061 -1.8442 -0.6908
  148MOL0     H20410   8.953   8.682   4.472 -0.0897 -0.9251 -0.8558
  148MOL0     H20411   9.116   8.797   4.605 -2.1895 -1.9442 -0.1795
  148MOL0     H20412   9.539   8.845   4.478  1.0882  0.1781 -0.9924
  148MOL0     H20413   9.486   9.002   4.412  0.6760 -0.9016 -0.7601
  148MOL0     H20414   9.497   8.963   4.712  1.0851  0.2646  0.3810
  148MOL0     H20415   9.495   9.112   4.614 -5.2712 -2.6718 -1.3523
  148MOL0     H20416   9.715   9.035   4.729 -2.3428  3.0852 -0.2936
  148MOL0     H20417   9.723   8.898   4.615 -0.1601 -0.2924  1.1394
  148MOL0     H20418   9.705   9.195   4.546 -0.2872 -0.1961 -0.0874
  148MOL0     H20419   9.715   9.067   4.429 -2.1293 -1.9126  1.1142
  148MOL0     H20420  10.121   9.123   4.570 -0.3118  0.2057  0.0326
  148MOL0     H20421   9.403   8.769   4.299 -0.9768  3.8508 -1.5548
  148MOL0     H20422   9.263   8.667   4.051  0.3495  0.3550  0.2411
  148MOL0     H20423   9.368   8.579   4.161  0.3612  0.1712 -1.1848
  148MOL0     H20424   9.206   8.507   4.123 -0.7767  1.1514  0.2190
  149MOL0     O20425   4.159   4.264   1.653 -0.7735 -0.1223  0.2718
  149MOL0     C20426   4.143   4.381   1.628  0.1556 -0.4628  0.2833
  149MOL0     O20427   4.238   4.470   1.594 -0.0041  0.1748 -0.6981
  149MOL0     C20428   4.360   4.418   1.559 -0.2478 -0.5250  0.6254
  149MOL0     C20429   4.373   4.324   1.458 -0.4204 -0.2635 -0.7301
  149MOL0     C20430   4.495   4.276   1.418  0.0667  0.6156 -0.0589
  149MOL0     C20431   4.617   4.319   1.466  0.7426 -0.5541  0.2617
  149MOL0     O20432   4.735   4.275   1.428 -0.1820  0.0086 -0.6431
  149MOL0     C20433   4.746   4.135   1.429 -0.5297  0.5248 -0.1518
  149MOL0     C20434   4.890   4.098   1.398 -0.4484 -0.4612 -0.2811
  149MOL0     C20435   4.925   3.952   1.389 -0.2255 -0.3764 -0.7218
  149MOL0     C20436   5.078   3.944   1.378 -0.6340  0.3965  0.2832
  149MOL0     C20437   5.133   3.799   1.373 -0.6323  0.6036 -1.2874
  149MOL0     C20438   5.286   3.785   1.412  0.0666  0.2460 -0.3785
  149MOL0     C20439   5.294   3.782   1.563 -0.1253 -0.2458 -0.1619
  149MOL0     C20440   5.427   3.742   1.611  0.5275  0.9593  0.4878
  149MOL0     N20441   5.546   3.826   1.577  0.1998 -0.1369 -0.1277
  149MOL0     C20442   5.573   3.940   1.649 -0.3232  0.2759  1.1185
  149MOL0     C20443   5.692   3.982   1.604 -0.9933  0.0505  0.9141
  149MOL0     C20444   5.774   4.109   1.644 -0.7931 -0.8933  0.2277
  149MOL0     C20445   5.919   4.081   1.692 -0.1542  0.0601 -0.5520
  149MOL0     C20446   6.027   4.057   1.585  0.6420 -0.1394 -0.9390
  149MOL0     C20447   6.015   4.153   1.458  1.0846  0.4502 -0.4391
  149MOL0     O20448   6.014   4.287   1.518 -0.8995  0.3804  0.4895
  149MOL0     C20449   6.133   4.350   1.547 -0.7176  0.3721 -0.4209
  149MOL0     C20450   6.260   4.294   1.547  0.5985 -0.4644 -0.2083
  149MOL0     C20451   6.372   4.371   1.574  0.2311 -0.7284  0.1659
  149MOL0     C20452   6.504   4.304   1.577 -0.1435 -0.3449 -0.2718
  149MOL0     C20453   6.358   4.511   1.591  0.1707 -0.0355 -0.7562
  149MOL0     C20454   6.477   4.607   1.624 -0.1839  0.2484  0.6385
  149MOL0     O20455   6.579   4.560   1.704  1.2616 -0.0232  0.7531
  149MOL0     C20456   6.673   4.648   1.739  0.2298  0.7951  0.1949
  149MOL0     C20457   6.804   4.608   1.719  0.7251  0.6261 -0.3914
  149MOL0     C20458   6.908   4.678   1.780  1.0611  0.0131 -0.1733
  149MOL0     C20459   6.887   4.801   1.848 -0.0497 -0.4810  0.2411
  149MOL0     O20460   6.995   4.867   1.915  0.5660  0.1459 -0.4170
  149MOL0     C20461   7.119   4.799   1.943 -0.4426 -0.3917  0.2172
  149MOL0     C20462   7.179   4.878   2.058  0.2651  1.2444  0.1903
  149MOL0     C20463   7.280   4.790   2.145  0.0213 -0.4367 -0.5998
  149MOL0     C20464   7.364   4.867   2.233 -0.6051 -0.0484 -0.5343
  149MOL0     C20465   7.448   4.782   2.326 -0.4467 -0.1713 -0.9614
  149MOL0     C20466   7.362   4.725   2.450  0.2523 -0.8824 -0.5754
  149MOL0     C20467   7.448   4.640   2.539 -0.1281 -0.3796  0.4099
  149MOL0     C20468   7.372   4.530   2.613 -0.0849 -0.7551 -0.1505
  149MOL0    Cl20469   7.235   4.599   2.708 -0.3240 -0.0429  0.8176
  149MOL0     C20470   6.756   4.846   1.855  0.4413 -0.7189 -0.0280
  149MOL0     C20471   6.647   4.773   1.806 -0.0340  0.1748  0.3598
  149MOL0     O20472   6.472   4.714   1.555 -1.0438  0.8867 -0.1726
  149MOL0     C20473   6.231   4.566   1.607 -0.0911 -0.4783  0.6250
  149MOL0     C20474   6.120   4.490   1.583 -0.1384  0.3421  0.3159
  149MOL0     N20475   5.726   3.899   1.498  0.5163  0.0760 -0.5264
  149MOL0     N20476   5.631   3.815   1.478  0.3530  0.1830 -0.5919
  149MOL0     C20477   4.613   4.429   1.556  0.3504 -0.0524  0.4086
  149MOL0     C20478   4.487   4.475   1.597  0.0081  0.3972 -1.4145
  149MOL0     C20479   4.005   4.434   1.643  0.6420 -0.6903 -0.4422
  149MOL0     C20480   3.984   4.575   1.657  0.6855  0.1742  0.9000
  149MOL0     C20481   3.855   4.638   1.676  1.1044 -0.2998  0.3554
  149MOL0     C20482   3.742   4.554   1.686 -0.2979  0.4037 -1.1055
  149MOL0     O20483   3.609   4.594   1.698 -0.1416 -0.3472 -0.5421
  149MOL0     C20484   3.566   4.629   1.831 -0.6883 -0.2190 -0.8479
  149MOL0     C20485   3.424   4.693   1.849  0.4801  0.5042  0.1829
  149MOL0     C20486   3.403   4.835   1.799  0.9053  0.0907 -1.0195
  149MOL0     C20487   3.269   4.888   1.845  0.2487 -0.5709 -0.0157
  149MOL0     C20488   3.239   4.878   1.989 -0.2908  0.5964  0.6245
  149MOL0     C20489   3.211   4.868   2.106  0.0425  0.3717  0.0119
  149MOL0     C20490   3.762   4.418   1.679 -0.0720 -0.1320 -0.3759
  149MOL0     C20491   3.888   4.355   1.656  0.3618 -0.0649  0.3078
  149MOL0     C20492   3.877   4.202   1.659  0.0935  0.1141 -0.6245
  149MOL0     H20493   4.283   4.286   1.410  0.7328 -0.6293 -2.7406
  149MOL0     H20494   4.490   4.198   1.343 -0.9001  1.8403 -1.2977
  149MOL0     H20495   4.672   4.089   1.363 -0.5004 -1.6308  1.2100
  149MOL0     H20496   4.715   4.090   1.524 -1.3245  0.6570 -0.3461
  149MOL0     H20497   4.897   4.136   1.295 -2.2453 -1.9857 -1.0385
  149MOL0     H20498   4.954   4.149   1.469 -0.8679  0.4554 -0.5527
  149MOL0     H20499   4.903   3.891   1.477  1.2118 -2.3295 -1.6238
  149MOL0     H20500   4.875   3.906   1.303 -1.0525 -1.8742  0.4926
  149MOL0     H20501   5.114   3.991   1.287  0.1175  1.7807  1.2550
  149MOL0     H20502   5.123   4.008   1.455 -2.2167 -2.3860  3.8363
  149MOL0     H20503   5.116   3.757   1.273 -2.4092 -0.6433 -0.5247
  149MOL0     H20504   5.062   3.746   1.437  0.8279 -1.9571 -1.6495
  149MOL0     H20505   5.330   3.693   1.373  1.1713 -0.8353  3.0400
  149MOL0     H20506   5.338   3.873   1.374  1.4440 -0.8284 -1.0515
  149MOL0     H20507   5.214   3.715   1.596 -2.4202  2.6120  0.4767
  149MOL0     H20508   5.262   3.876   1.608 -2.8061 -1.8710  1.5411
  149MOL0     H20509   5.425   3.741   1.721 -0.5595  1.6635  0.4873
  149MOL0     H20510   5.447   3.640   1.577 -1.6923  1.4353 -2.6382
  149MOL0     H20511   5.501   3.977   1.722 -2.2946 -2.6005  0.7752
  149MOL0     H20512   5.714   4.153   1.724 -1.5547 -1.3793 -0.0672
  149MOL0     H20513   5.778   4.179   1.560 -2.3895 -3.4938 -2.2061
  149MOL0     H20514   5.957   4.165   1.751  0.4514  1.9664 -3.4605
  149MOL0     H20515   5.915   4.001   1.767 -2.1337  0.2839 -0.3594
  149MOL0     H20516   6.128   4.070   1.625  0.3847  0.6067 -0.4981
  149MOL0     H20517   6.020   3.952   1.556 -1.2234 -0.8968  1.7965
  149MOL0     H20518   6.094   4.144   1.383  0.5512 -0.9431 -0.8684
  149MOL0     H20519   5.918   4.139   1.409  0.1812  1.1759  1.0722
  149MOL0     H20520   6.270   4.188   1.530 -2.2151 -0.4206 -3.0297
  149MOL0     H20521   6.595   4.355   1.544  1.2867 -2.5076  0.1136
  149MOL0     H20522   6.492   4.228   1.499  0.6429  0.8624 -1.6077
  149MOL0     H20523   6.523   4.254   1.673 -1.1684 -4.3462 -1.9339
  149MOL0     H20524   6.825   4.514   1.669 -0.4660  0.4204 -0.5405
  149MOL0     H20525   7.008   4.637   1.770  0.1225 -2.0378 -1.9414
  149MOL0     H20526   7.093   4.700   1.983 -3.4209 -1.0791 -2.8511
  149MOL0     H20527   7.184   4.787   1.856  0.1317  2.5757  0.1574
  149MOL0     H20528   7.219   4.975   2.026  0.8622  0.8756 -0.1931
  149MOL0     H20529   7.102   4.902   2.132  1.7247  1.6008  1.6572
  149MOL0     H20530   7.339   4.723   2.082  1.4029  1.7947 -1.8138
  149MOL0     H20531   7.223   4.722   2.209 -0.5046 -0.5643 -1.1937
  149MOL0     H20532   7.306   4.934   2.298  2.3885  0.8436  1.4870
  149MOL0     H20533   7.440   4.924   2.178  0.0360 -0.6493 -0.2901
  149MOL0     H20534   7.484   4.693   2.275 -0.4200 -0.9018  0.3048
  149MOL0     H20535   7.534   4.836   2.365 -0.3406  0.3733 -1.8972
  149MOL0     H20536   7.277   4.663   2.422 -2.0797  0.9771  1.7759
  149MOL0     H20537   7.313   4.803   2.510  0.0806 -0.8868 -0.7090
  149MOL0     H20538   7.491   4.709   2.613 -2.9011 -0.0535  1.8824
  149MOL0     H20539   7.523   4.589   2.479  1.0454  2.5385 -0.7895
  149MOL0     H20540   7.437   4.463   2.670  0.4013 -2.7317 -2.7969
  149MOL0     H20541   7.324   4.458   2.547 -2.4669 -2.0149  2.7240
  149MOL0     H20542   6.732   4.943   1.898 -0.3580 -0.5186 -0.9161
  149MOL0     H20543   6.545   4.809   1.796 -0.2777 -0.8643 -1.2881
  149MOL0     H20544   6.229   4.671   1.635  2.3463 -1.1121  3.6279
  149MOL0     H20545   6.021   4.535   1.584 -1.9792 -3.2877  0.6331
  149MOL0     H20546   4.703   4.471   1.598 -0.2776 -0.6994  2.5170
  149MOL0     H20547   4.489   4.561   1.663  1.2053 -1.9629  1.8779
  149MOL0     H20548   4.072   4.636   1.641  0.3335  0.1949 -1.3086
  149MOL0     H20549   3.860   4.746   1.686 -1.1986 -0.1720  0.6737
  149MOL0     H20550   3.563   4.541   1.897  0.1019  0.7164  0.4888
  149MOL0     H20551   3.636   4.696   1.882 -1.8647  0.8177 -0.5312
  149MOL0     H20552   3.408   4.684   1.957  2.5289  2.2731  0.7020
  149MOL0     H20553   3.353   4.628   1.797  0.2466 -0.2512  1.3926
  149MOL0     H20554   3.487   4.896   1.831  0.9303 -0.6302  0.3343
  149MOL0     H20555   3.402   4.840   1.689 -1.5049  1.0106 -1.0290
  149MOL0     H20556   3.191   4.838   1.787 -0.3571  1.4391 -1.0150
  149MOL0     H20557   3.253   4.990   1.810 -0.5221 -0.3789  0.8718
  149MOL0     H20558   3.181   4.858   2.208  1.2808 -1.0522  0.2807
  149MOL0     H20559   3.673   4.357   1.687  0.3248 -0.4707  2.7723
  149MOL0     H20560   3.918   4.173   1.756 -4.4611  0.1820  1.5498
  149MOL0     H20561   3.777   4.159   1.665  0.5368 -0.8143  0.4846
  149MOL0     H20562   3.942   4.151   1.586  0.4126 -1.4613  0.7097
  150MOL0     O20563   7.416   5.791   6.907 -0.2348 -0.3660 -0.0160
  150MOL0     C20564   7.415   5.909   6.926 -0.1451  0.1848  0.1199
  150MOL0     O20565   7.306   5.981   6.956  0.2278  0.5147  0.2025
  150MOL0     C20566   7.169   5.934   6.979 -1.4055  0.1762  0.4979
  150MOL0     C20567   7.120   5.819   6.922  0.0332  0.6256  0.8285
  150MOL0     C20568   6.983   5.794   6.930  0.3001  0.5547  0.9011
  150MOL0     C20569   6.894   5.871   7.012 -0.2575  0.5074 -0.6126
  150MOL0     O20570   6.758   5.852   7.030 -0.0596  0.0508  0.0340
  150MOL0     C20571   6.695   5.750   6.955 -0.0951 -0.4020  0.3854
  150MOL0     C20572   6.549   5.736   7.017 -0.6775  0.7277  0.5154
  150MOL0     C20573   6.456   5.856   6.980  0.3938  1.0356 -0.2902
  150MOL0     C20574   6.306   5.817   6.988 -0.1398 -0.2331  0.6908
  150MOL0     C20575   6.217   5.948   6.967 -0.8310  0.5905  0.5630
  150MOL0     C20576   6.069   5.937   7.001  1.1986  0.3959 -0.6803
  150MOL0     C20577   5.978   6.060   6.967  0.1122  0.1847  0.0343
  150MOL0     C20578   5.832   6.028   7.001  0.4681 -0.5008  0.4329
  150MOL0     N20579   5.749   6.115   6.923  0.2736 -1.0767  0.8272
  150MOL0     C20580   5.685   6.083   6.810 -0.3411  0.5436  0.5937
  150MOL0     C20581   5.620   6.192   6.767 -0.0712 -0.0618 -0.2448
  150MOL0     C20582   5.520   6.215   6.651 -0.1875  0.8049 -0.1209
  150MOL0     C20583   5.534   6.352   6.589 -0.6289 -0.9415  0.2935
  150MOL0     C20584   5.463   6.377   6.454  0.6517 -0.3979 -0.1531
  150MOL0     C20585   5.473   6.272   6.349  0.1654  0.3571 -0.6988
  150MOL0     O20586   5.426   6.326   6.224  0.3199 -0.0164 -0.2142
  150MOL0     C20587   5.463   6.278   6.095  0.2212 -0.3871  0.8964
  150MOL0     C20588   5.498   6.141   6.079  0.8942 -0.4112  0.0788
  150MOL0     C20589   5.542   6.089   5.960 -0.1553 -0.3285  0.2543
  150MOL0     C20590   5.576   5.943   5.965  0.2495 -0.3556  0.7722
  150MOL0     C20591   5.532   6.168   5.845  0.0003 -0.3790  0.3200
  150MOL0     C20592   5.556   6.106   5.709  0.2891  1.0045 -0.5514
  150MOL0     O20593   5.479   6.154   5.605 -0.2334  0.0499  0.2094
  150MOL0     C20594   5.527   6.126   5.482  0.6783  0.1189 -0.9557
  150MOL0     C20595   5.454   6.028   5.410 -0.5271 -0.2771 -0.0089
  150MOL0     C20596   5.485   5.997   5.273  0.4558  0.6024 -0.9320
  150MOL0     C20597   5.593   6.061   5.210  0.2021  0.2002 -0.2941
  150MOL0     O20598   5.645   6.031   5.085 -0.2917  0.1687  0.1477
  150MOL0     C20599   5.580   5.929   5.003  0.2019 -0.1681 -0.0247
  150MOL0     C20600   5.642   5.920   4.864  1.0226  0.5120  0.3699
  150MOL0     C20601   5.787   5.883   4.870 -0.4503  0.2853  0.9288
  150MOL0     C20602   5.824   5.843   4.726 -0.0368 -0.3294  0.2071
  150MOL0     C20603   5.972   5.813   4.720 -0.3036  0.6002 -0.2075
  150MOL0     C20604   6.030   5.788   4.581 -0.2551 -0.2521 -0.4164
  150MOL0     C20605   6.185   5.789   4.587 -0.7793  0.9561  0.0518
  150MOL0     C20606   6.241   5.727   4.458  0.0010  0.2092  0.6398
  150MOL0    Cl20607   6.419   5.731   4.457 -0.3510  0.2350  0.4959
  150MOL0     C20608   5.658   6.162   5.281 -0.0134  0.1728 -0.8011
  150MOL0     C20609   5.624   6.200   5.413  0.6783  0.0862 -0.0554
  150MOL0     O20610   5.656   6.034   5.705  0.0057 -0.9136  0.3646
  150MOL0     C20611   5.490   6.296   5.860 -0.3852 -0.0741  0.0868
  150MOL0     C20612   5.457   6.357   5.985 -0.0883  0.2229 -0.6769
  150MOL0     N20613   5.664   6.291   6.848  1.2243 -0.2964 -0.5165
  150MOL0     N20614   5.746   6.246   6.943 -0.3781 -1.2498 -0.9244
  150MOL0     C20615   6.952   5.983   7.070 -0.0089 -0.3998  0.5580
  150MOL0     C20616   7.087   6.008   7.057 -1.6585 -0.0908  0.6189
  150MOL0     C20617   7.543   5.988   6.910  0.4500  1.0055 -0.0278
  150MOL0     C20618   7.536   6.129   6.920  0.3110 -0.5375 -0.5487
  150MOL0     C20619   7.642   6.209   6.867  0.5556 -0.4256  0.0497
  150MOL0     C20620   7.755   6.156   6.813  0.6794  0.4592 -0.3619
  150MOL0     O20621   7.846   6.252   6.779 -0.5465  0.2210 -0.1973
  150MOL0     C20622   7.919   6.222   6.661 -0.4667 -0.4521 -0.3162
  150MOL0     C20623   7.848   6.223   6.529 -0.5499  0.4129  0.1267
  150MOL0     C20624   7.773   6.351   6.490 -0.3572 -0.0273 -0.9040
  150MOL0     C20625   7.858   6.470   6.511 -0.2818 -0.2922 -0.0073
  150MOL0     C20626   7.828   6.542   6.631  0.1534 -0.0872  0.5299
  150MOL0     C20627   7.808   6.603   6.726  0.1083 -0.2206 -0.5757
  150MOL0     C20628   7.768   6.019   6.809  0.2143  0.8582  0.9579
  150MOL0     C20629   7.662   5.935   6.850  0.4752  0.2293 -0.0217
  150MOL0     C20630   7.692   5.796   6.838 -0.0933  0.5628  0.3628
  150MOL0     H20631   7.192   5.751   6.875  0.4069  0.8697  1.0434
  150MOL0     H20632   6.940   5.715   6.869 -2.3137  2.3651  0.1662
  150MOL0     H20633   6.753   5.658   6.967  2.8267  0.9887 -1.8680
  150MOL0     H20634   6.694   5.783   6.851 -1.8208  1.2974  0.8728
  150MOL0     H20635   6.504   5.642   6.982 -0.3891 -0.3245  2.7844
  150MOL0     H20636   6.561   5.732   7.125 -0.8337  0.6830  0.5312
  150MOL0     H20637   6.477   5.939   7.048  2.6253 -0.0784  0.4683
  150MOL0     H20638   6.481   5.894   6.880 -2.2169  1.5310 -0.8212
  150MOL0     H20639   6.282   5.747   6.908 -3.0146  0.1472  1.1022
  150MOL0     H20640   6.286   5.771   7.086  4.7907 -0.7781  1.7063
  150MOL0     H20641   6.231   5.972   6.861 -3.2884  5.4213  1.0361
  150MOL0     H20642   6.253   6.032   7.028 -1.4428  0.2284  1.4353
  150MOL0     H20643   6.031   5.848   6.952 -3.2742  1.3940  0.5286
  150MOL0     H20644   6.058   5.935   7.110 -3.6908 -3.9463 -0.8962
  150MOL0     H20645   5.990   6.065   6.859  0.9733 -0.8600  0.0589
  150MOL0     H20646   6.010   6.152   7.015  1.5579  1.0025 -2.3556
  150MOL0     H20647   5.814   5.926   6.965  1.6372  0.0323 -1.8911
  150MOL0     H20648   5.815   6.049   7.107  2.9164  0.4247  0.7217
  150MOL0     H20649   5.669   5.982   6.774 -0.6610  0.4095  1.1094
  150MOL0     H20650   5.416   6.196   6.683  0.3359 -2.6305 -0.0536
  150MOL0     H20651   5.548   6.131   6.587  5.8836  0.2139  2.5996
  150MOL0     H20652   5.499   6.438   6.647  1.4351  0.9770 -1.1384
  150MOL0     H20653   5.639   6.374   6.566 -0.7239  0.6376  1.2093
  150MOL0     H20654   5.360   6.408   6.473  0.8304  1.6103 -2.0568
  150MOL0     H20655   5.503   6.470   6.411  0.5877 -0.7764 -1.0562
  150MOL0     H20656   5.573   6.229   6.334 -0.4966 -2.4238  1.8723
  150MOL0     H20657   5.410   6.188   6.379  1.2252  0.4905  2.2532
  150MOL0     H20658   5.507   6.072   6.161  0.1541  0.6812  1.1288
  150MOL0     H20659   5.525   5.895   5.880  0.5869  2.4152 -1.1080
  150MOL0     H20660   5.549   5.894   6.059 -2.0053  0.4538  0.5936
  150MOL0     H20661   5.683   5.928   5.948  0.5469  0.3961  1.8608
  150MOL0     H20662   5.372   5.976   5.460  1.0417 -2.2721  0.6329
  150MOL0     H20663   5.424   5.919   5.227 -1.2039  0.1448  1.7655
  150MOL0     H20664   5.583   5.833   5.057 -2.0466 -0.5274 -0.4466
  150MOL0     H20665   5.472   5.945   4.996  0.5628  2.0279 -1.3954
  150MOL0     H20666   5.586   5.839   4.816  1.7368 -1.3591  2.4884
  150MOL0     H20667   5.623   6.017   4.817  0.2338  0.1087 -0.1643
  150MOL0     H20668   5.790   5.798   4.938 -1.5985 -1.9634 -1.6120
  150MOL0     H20669   5.854   5.963   4.903  0.7910 -0.3623  0.1122
  150MOL0     H20670   5.798   5.924   4.657  1.1632  0.3042  0.4619
  150MOL0     H20671   5.781   5.751   4.686  1.4026 -0.4371 -1.1842
  150MOL0     H20672   6.029   5.890   4.772  0.8012 -1.4373  1.7975
  150MOL0     H20673   5.986   5.730   4.790 -0.3238  2.1934  1.7768
  150MOL0     H20674   5.993   5.872   4.520 -1.2761  0.7790  1.5266
  150MOL0     H20675   5.995   5.690   4.547 -0.2073 -0.8184  1.1123
  150MOL0     H20676   6.213   5.723   4.669 -0.5194 -1.0777 -1.5731
  150MOL0     H20677   6.219   5.893   4.586 -2.7873  1.6651 -0.4518
  150MOL0     H20678   6.204   5.787   4.374 -1.5166  2.3866  2.7387
  150MOL0     H20679   6.205   5.624   4.459 -1.8518  0.8259  1.6509
  150MOL0     H20680   5.742   6.215   5.237  1.8060 -0.4757  1.7038
  150MOL0     H20681   5.678   6.273   5.471 -0.0954  0.9951 -0.4540
  150MOL0     H20682   5.490   6.360   5.772  0.4937 -2.3851 -1.7136
  150MOL0     H20683   5.421   6.458   6.001  1.0928  0.0462  5.2234
  150MOL0     H20684   6.884   6.046   7.126  0.9985  1.5118 -0.2656
  150MOL0     H20685   7.123   6.096   7.109  3.4550 -1.2679 -0.3763
  150MOL0     H20686   7.444   6.180   6.948 -0.3266  0.1323 -3.6036
  150MOL0     H20687   7.627   6.316   6.878 -0.4180 -0.5107 -0.3939
  150MOL0     H20688   7.996   6.300   6.663 -1.8856  1.0052 -0.4010
  150MOL0     H20689   7.969   6.125   6.662 -1.5783 -1.0260  0.2804
  150MOL0     H20690   7.777   6.140   6.535 -0.1442  0.1558  2.5408
  150MOL0     H20691   7.924   6.209   6.452 -0.1992  1.0594  0.3514
  150MOL0     H20692   7.770   6.346   6.381 -1.8279  1.2511 -0.9553
  150MOL0     H20693   7.668   6.356   6.519 -0.1918  1.0077 -0.4143
  150MOL0     H20694   7.840   6.537   6.426 -1.5688 -1.7727 -0.9483
  150MOL0     H20695   7.965   6.452   6.502 -0.4616 -1.1722 -0.4402
  150MOL0     H20696   7.799   6.674   6.805 -0.9653 -1.4722  0.4842
  150MOL0     H20697   7.864   5.976   6.781 -0.9365 -0.3301 -1.3924
  150MOL0     H20698   7.795   5.773   6.807 -0.5816  1.1212 -1.8521
  150MOL0     H20699   7.698   5.738   6.930  0.6862 -1.5214 -0.9396
  150MOL0     H20700   7.624   5.740   6.774 -0.1967  1.4448 -0.3140
  151MOL0     O20701   8.343  10.471  10.584  0.3428  0.3615 -0.7265
  151MOL0     C20702   8.459  10.502  10.566  0.3244  0.2885 -0.2104
  151MOL0     O20703   8.561  10.413  10.541 -1.0073 -0.0485 -0.0681
  151MOL0     C20704   8.533  10.277  10.541  0.5505  0.2124  0.1301
  151MOL0     C20705   8.587  10.187  10.636 -0.1621  0.3849  1.1398
  151MOL0     C20706   8.565  10.045  10.639 -0.2139  0.8593  0.7602
  151MOL0     C20707   8.497   9.987  10.535  0.5454  0.7442 -0.9726
  151MOL0     O20708   8.476   9.853  10.526 -0.2792  0.1744  0.5762
  151MOL0     C20709   8.566   9.759  10.577 -0.4710  0.4063  0.1129
  151MOL0     C20710   8.551   9.626  10.503  0.2900 -0.1223 -0.8524
  151MOL0     C20711   8.635   9.512  10.567 -0.4065 -0.1855  0.1823
  151MOL0     C20712   8.554   9.395  10.597 -0.7003 -0.3386 -0.4192
  151MOL0     C20713   8.639   9.286  10.656 -0.1458 -0.2879 -0.6323
  151MOL0     C20714   8.549   9.178  10.708 -0.5227 -0.2264 -0.1027
  151MOL0     C20715   8.622   9.054  10.739 -0.4897  0.4508 -0.2739
  151MOL0     C20716   8.714   9.055  10.860 -0.9189  0.3002 -0.1342
  151MOL0     N20717   8.656   9.040  10.989  0.3321 -0.4636  0.6894
  151MOL0     C20718   8.580   8.938  11.036  0.2158  0.0117 -0.8471
  151MOL0     C20719   8.536   8.986  11.159  0.1334 -0.0186  0.5491
  151MOL0     C20720   8.420   8.919  11.224  0.5704 -0.5113  0.0017
  151MOL0     C20721   8.288   8.983  11.169 -0.3222  0.5638 -0.4784
  151MOL0     C20722   8.253   8.953  11.016 -0.6480  0.0909  0.0795
  151MOL0     C20723   8.150   9.045  10.957 -0.3476 -0.3404  1.1651
  151MOL0     O20724   8.178   9.044  10.813 -0.4097 -0.4552 -0.4556
  151MOL0     C20725   8.191   9.166  10.751 -0.5782 -0.7785  0.8518
  151MOL0     C20726   8.207   9.299  10.803 -0.3941  1.0903 -1.1169
  151MOL0     C20727   8.210   9.420  10.731 -0.2405 -1.0974 -0.0124
  151MOL0     C20728   8.216   9.549  10.809 -1.2241 -0.8736  0.2738
  151MOL0     C20729   8.191   9.417  10.597 -0.1753 -0.5881 -0.6096
  151MOL0     C20730   8.180   9.542  10.505  0.6508  0.0530  0.0091
  151MOL0     O20731   8.181   9.515  10.375  0.4209  0.1776 -0.1341
  151MOL0     C20732   8.180   9.619  10.293  1.0223  0.5547  0.1836
  151MOL0     C20733   8.053   9.655  10.250 -0.0014  0.5218 -0.4028
  151MOL0     C20734   8.029   9.764  10.167 -0.8379 -0.6146 -0.5773
  151MOL0     C20735   8.147   9.830  10.122 -0.0019 -0.4690 -0.3100
  151MOL0     O20736   8.117   9.933  10.036 -0.5607 -0.2761  0.2430
  151MOL0     C20737   8.225   9.997   9.975  0.8001 -1.2224 -0.8956
  151MOL0     C20738   8.172  10.114   9.900  0.8086  0.5714 -0.2115
  151MOL0     C20739   8.262  10.167   9.796  0.4369 -0.2363 -0.1547
  151MOL0     C20740   8.380  10.240   9.841  0.4114 -0.5658 -0.6367
  151MOL0     C20741   8.452  10.310   9.721 -0.6075  0.6543 -0.2173
  151MOL0     C20742   8.575  10.383   9.780  0.5432  0.7682  0.1309
  151MOL0     C20743   8.646  10.476   9.673  0.2917  0.4563  0.1800
  151MOL0     C20744   8.677  10.608   9.732 -0.1680 -0.6688 -0.0717
  151MOL0    Cl20745   8.680  10.726   9.600 -0.0191  0.3751 -0.1218
  151MOL0     C20746   8.275   9.785  10.157 -0.2376 -0.0670  0.0151
  151MOL0     C20747   8.292   9.681  10.248 -0.4512 -0.6959  0.4432
  151MOL0     O20748   8.180   9.651  10.553 -0.7873  0.2138  0.3783
  151MOL0     C20749   8.176   9.295  10.536 -0.4555  0.3951 -1.2797
  151MOL0     C20750   8.182   9.177  10.612 -0.0142  0.1124 -0.3758
  151MOL0     N20751   8.595   9.106  11.190 -0.3668 -1.1937 -0.2832
  151MOL0     N20752   8.669   9.142  11.082  0.1904  0.6352 -0.2041
  151MOL0     C20753   8.442  10.071  10.441 -0.2432  0.2163  0.2629
  151MOL0     C20754   8.453  10.211  10.439  0.4961 -0.5360  0.1174
  151MOL0     C20755   8.507  10.645  10.593  0.0099  0.2781  0.6183
  151MOL0     C20756   8.650  10.670  10.592  0.1067 -0.5163 -0.6385
  151MOL0     C20757   8.690  10.803  10.607 -0.6399  0.3843 -0.6680
  151MOL0     C20758   8.611  10.904  10.654  0.1676 -0.1514  1.0150
  151MOL0     O20759   8.654  11.032  10.679  0.0472 -0.0752 -0.7866
  151MOL0     C20760   8.758  11.071  10.591  0.0351  0.1298 -0.8539
  151MOL0     C20761   8.787  11.228  10.585 -0.2654  0.8083 -0.4748
  151MOL0     C20762   8.909  11.255  10.496  0.4544  0.5829 -0.3314
  151MOL0     C20763   8.888  11.228  10.347 -0.2701  0.5436  0.0580
  151MOL0     C20764   9.004  11.271  10.270 -0.0507  0.1947 -0.0059
  151MOL0     C20765   9.106  11.301  10.210  0.5649 -0.6207  0.1455
  151MOL0     C20766   8.477  10.875  10.682  0.0125 -0.6796  0.3126
  151MOL0     C20767   8.418  10.752  10.631 -0.4989 -0.1173 -0.7366
  151MOL0     C20768   8.265  10.743  10.629 -0.2985  0.4986  0.5277
  151MOL0     H20769   8.657  10.224  10.710  0.1640  3.6685 -0.6022
  151MOL0     H20770   8.600   9.985  10.722  0.9382 -0.7867 -0.8115
  151MOL0     H20771   8.546   9.749  10.684  1.3211 -0.0053  0.4392
  151MOL0     H20772   8.668   9.797  10.566  0.0247  0.7674  4.2868
  151MOL0     H20773   8.451   9.589  10.482  0.9477 -3.5217  1.1249
  151MOL0     H20774   8.584   9.638  10.399  0.1381  1.1891 -0.7691
  151MOL0     H20775   8.721   9.496  10.501 -1.9851 -2.7789 -1.3987
  151MOL0     H20776   8.673   9.542  10.666 -1.8662  0.0728  0.6795
  151MOL0     H20777   8.478   9.412  10.675 -0.1773 -0.7279  0.1921
  151MOL0     H20778   8.508   9.362  10.504 -2.0226  1.4455 -0.4463
  151MOL0     H20779   8.691   9.324  10.744 -0.3349 -0.8466 -0.2701
  151MOL0     H20780   8.706   9.235  10.587 -0.8864 -1.7305 -0.3247
  151MOL0     H20781   8.511   9.219  10.801 -0.7732  0.9009 -0.6908
  151MOL0     H20782   8.477   9.153  10.629 -0.1429 -0.4047 -0.4012
  151MOL0     H20783   8.684   9.014  10.659 -1.7066 -4.0233  0.7338
  151MOL0     H20784   8.552   8.970  10.739  1.5752 -1.3888 -1.3375
  151MOL0     H20785   8.771   8.962  10.845  2.4480  1.9691  1.1982
  151MOL0     H20786   8.797   9.124  10.844  0.0946 -1.2064 -1.9138
  151MOL0     H20787   8.549   8.845  10.989  1.3539 -1.0393  0.4172
  151MOL0     H20788   8.406   8.937  11.331  2.4948 -1.6002  0.4754
  151MOL0     H20789   8.416   8.811  11.209 -0.9730 -0.4667 -0.1142
  151MOL0     H20790   8.207   8.948  11.234 -2.1623  3.0706 -1.2681
  151MOL0     H20791   8.287   9.093  11.173 -2.3243  0.5462  1.7118
  151MOL0     H20792   8.342   8.956  10.952 -0.4258 -1.4885  0.2769
  151MOL0     H20793   8.208   8.854  11.012 -1.5528  0.5346 -1.4475
  151MOL0     H20794   8.052   9.004  10.983 -0.4936  1.0297  2.8834
  151MOL0     H20795   8.145   9.145  10.999 -0.4294 -0.7460  2.1303
  151MOL0     H20796   8.229   9.302  10.909 -1.6883 -1.5127 -0.7093
  151MOL0     H20797   8.234   9.537  10.916  0.3341  0.3200  0.1897
  151MOL0     H20798   8.121   9.600  10.795 -1.2371 -0.5735  1.3969
  151MOL0     H20799   8.297   9.612  10.769  1.8849 -3.8181  1.4823
  151MOL0     H20800   7.963   9.599  10.275 -0.0178 -0.4031 -2.3644
  151MOL0     H20801   7.935   9.793  10.123 -0.5571  0.7070 -0.3555
  151MOL0     H20802   8.297  10.039  10.046 -1.7827  0.2645  1.0454
  151MOL0     H20803   8.272   9.921   9.913  0.2075 -2.8701  0.5881
  151MOL0     H20804   8.084  10.074   9.848 -1.9407  2.5215  2.6471
  151MOL0     H20805   8.135  10.191   9.967  1.0671  2.3281 -1.9986
  151MOL0     H20806   8.202  10.242   9.745  1.4969  1.2934  0.7649
  151MOL0     H20807   8.289  10.097   9.717 -1.0725 -3.2687  1.8165
  151MOL0     H20808   8.442  10.165   9.892  0.8233 -0.7607 -1.4182
  151MOL0     H20809   8.349  10.324   9.905 -0.1391 -1.6642  0.5947
  151MOL0     H20810   8.478  10.244   9.638  1.8879  0.8620  0.3478
  151MOL0     H20811   8.386  10.391   9.689  0.9457  3.0066  2.1457
  151MOL0     H20812   8.642  10.305   9.818 -1.3220 -0.3489  1.2412
  151MOL0     H20813   8.539  10.443   9.864 -2.8849  3.1969 -2.7881
  151MOL0     H20814   8.583  10.480   9.584 -0.5381 -2.8752  0.4988
  151MOL0     H20815   8.743  10.432   9.647 -0.1426  0.4491 -1.6069
  151MOL0     H20816   8.777  10.606   9.775  1.0690  1.2784 -2.5983
  151MOL0     H20817   8.603  10.643   9.805 -3.1998 -0.9804 -2.7407
  151MOL0     H20818   8.361   9.839  10.118  1.3358 -1.7317  0.9985
  151MOL0     H20819   8.397   9.664  10.266  0.0946  1.3205 -0.5118
  151MOL0     H20820   8.151   9.280  10.432 -0.2193 -1.1633 -1.1294
  151MOL0     H20821   8.156   9.086  10.559 -0.2375 -0.4865  0.7126
  151MOL0     H20822   8.391  10.019  10.361  1.2985 -1.2415  0.1757
  151MOL0     H20823   8.413  10.273  10.359  0.8591 -2.4251 -1.6051
  151MOL0     H20824   8.728  10.594  10.584  2.5483  1.9735 -2.5360
  151MOL0     H20825   8.794  10.828  10.593 -0.9599  1.5837 -1.0749
  151MOL0     H20826   8.848  11.017  10.620 -0.1160  0.3919  0.1391
  151MOL0     H20827   8.724  11.042  10.491 -0.7967  0.0371 -0.5597
  151MOL0     H20828   8.805  11.264  10.687 -1.0921 -1.9602  0.7295
  151MOL0     H20829   8.707  11.284  10.536 -0.1006  3.5871  2.1264
  151MOL0     H20830   8.928  11.361  10.513 -2.2657  0.9054  1.3696
  151MOL0     H20831   9.001  11.209  10.534  0.5597  1.6903  0.8284
  151MOL0     H20832   8.797  11.275  10.307 -1.8220 -2.6117 -0.4574
  151MOL0     H20833   8.862  11.123  10.331 -1.7298  0.5612  1.9963
  151MOL0     H20834   9.187  11.328  10.145 -1.0225 -2.2987 -2.7745
  151MOL0     H20835   8.419  10.958  10.722  0.5148  1.1658 -2.4668
  151MOL0     H20836   8.234  10.847  10.639  1.6613  1.4760 -2.2620
  151MOL0     H20837   8.244  10.709  10.527 -0.3377  3.0630 -0.3844
  151MOL0     H20838   8.210  10.680  10.699  0.2811  1.0766  1.5319
  152MOL0     O20839   2.447  10.010   8.782 -0.3391  1.0353  0.4824
  152MOL0     C20840   2.440  10.114   8.836 -0.0966  0.7813  0.6829
  152MOL0     O20841   2.532  10.207   8.821  0.0604  0.9216  0.1311
  152MOL0     C20842   2.657  10.163   8.775  1.1974 -0.6293  0.5875
  152MOL0     C20843   2.668  10.103   8.649 -0.5897 -0.9577  0.0398
  152MOL0     C20844   2.793  10.056   8.606 -0.6482  0.0771  0.4004
  152MOL0     C20845   2.910  10.058   8.686 -0.4713 -0.1434 -0.1541
  152MOL0     O20846   3.011   9.985   8.634 -0.1136  0.0819 -0.0219
  152MOL0     C20847   3.117   9.961   8.729 -0.6460  0.8523  0.0068
  152MOL0     C20848   3.079   9.830   8.808  0.4809  1.6776  0.5673
  152MOL0     C20849   3.208   9.762   8.859  0.8484 -0.1492  0.3760
  152MOL0     C20850   3.155   9.638   8.945  0.9267  0.3838  0.2214
  152MOL0     C20851   3.271   9.557   9.012 -0.2648 -0.1130  0.6578
  152MOL0     C20852   3.384   9.509   8.911 -0.0357  0.6207 -0.5263
  152MOL0     C20853   3.328   9.425   8.801 -0.0765 -0.0586  0.0615
  152MOL0     C20854   3.439   9.355   8.733 -0.6515  0.8626 -0.4474
  152MOL0     N20855   3.404   9.276   8.615 -0.0520 -0.2217  0.3910
  152MOL0     C20856   3.494   9.227   8.517 -0.4011  0.4307 -0.8134
  152MOL0     C20857   3.417   9.185   8.412  0.0171  0.8463  0.3083
  152MOL0     C20858   3.455   9.107   8.289  0.7742  0.7131  0.5078
  152MOL0     C20859   3.551   9.180   8.206 -0.3613  0.0561  0.3811
  152MOL0     C20860   3.587   9.106   8.082 -0.3264 -0.2469 -0.3562
  152MOL0     C20861   3.675   8.984   8.098  0.2476 -0.5875 -0.0735
  152MOL0     O20862   3.745   8.955   7.982  0.2770  0.3901 -0.1682
  152MOL0     C20863   3.810   8.841   7.965  0.1486  0.7378 -1.2474
  152MOL0     C20864   3.860   8.813   7.836  0.2338  0.3747 -0.2087
  152MOL0     C20865   3.942   8.699   7.804 -0.1935  0.0935 -0.1207
  152MOL0     C20866   3.968   8.676   7.661  0.1179  0.2089 -0.1064
  152MOL0     C20867   3.961   8.599   7.905 -0.2301  0.6101  0.3770
  152MOL0     C20868   4.031   8.465   7.882  0.4597 -0.3568  1.0252
  152MOL0     O20869   4.081   8.437   7.755 -0.7339 -0.0164 -0.2849
  152MOL0     C20870   4.105   8.319   7.692  0.2414  0.3959 -1.0448
  152MOL0     C20871   4.106   8.303   7.557  0.3199 -0.3822  0.5704
  152MOL0     C20872   4.131   8.177   7.497 -0.2994  0.0063  0.2329
  152MOL0     C20873   4.161   8.062   7.572  0.0663 -0.6136  0.7012
  152MOL0     O20874   4.184   7.947   7.504 -0.6073  0.3596 -0.3701
  152MOL0     C20875   4.296   7.866   7.546  0.7334 -0.3214  0.0375
  152MOL0     C20876   4.307   7.758   7.441  0.3736 -0.0952 -0.2616
  152MOL0     C20877   4.424   7.661   7.485 -0.6220  0.3569 -1.0221
  152MOL0     C20878   4.413   7.544   7.375 -0.1201 -0.0920  0.3040
  152MOL0     C20879   4.498   7.425   7.421  0.1294 -0.7158 -0.6874
  152MOL0     C20880   4.423   7.327   7.512 -0.0254  0.2342 -0.3093
  152MOL0     C20881   4.517   7.203   7.523  0.6770 -0.0999  0.2210
  152MOL0     C20882   4.456   7.076   7.580  0.0448  1.2361 -0.8368
  152MOL0    Cl20883   4.301   7.039   7.492  0.2060  0.6144  0.0368
  152MOL0     C20884   4.164   8.076   7.710  0.4187  0.3051 -0.0245
  152MOL0     C20885   4.145   8.206   7.767  0.0979  1.6452  0.4423
  152MOL0     O20886   4.030   8.389   7.977 -0.7600 -0.0009  0.4802
  152MOL0     C20887   3.902   8.627   8.030 -0.4734 -0.7547 -0.6768
  152MOL0     C20888   3.835   8.745   8.062  0.8697  0.4334 -0.3159
  152MOL0     N20889   3.286   9.221   8.447  0.3810 -0.1287  0.4558
  152MOL0     N20890   3.273   9.266   8.563  0.1456  0.0172  0.1329
  152MOL0     C20891   2.893  10.119   8.807  0.3724  0.9753  0.3085
  152MOL0     C20892   2.771  10.167   8.859 -0.5096 -0.4506  0.2403
  152MOL0     C20893   2.324  10.156   8.918  0.0538 -0.1231  0.7048
  152MOL0     C20894   2.335  10.248   9.019 -0.3550  1.0583 -0.0606
  152MOL0     C20895   2.236  10.292   9.100  0.6929  0.5812  0.3892
  152MOL0     C20896   2.106  10.253   9.077 -0.1041 -0.9271  0.3672
  152MOL0     O20897   2.013  10.315   9.157  0.5357  0.1404  0.4863
  152MOL0     C20898   1.873  10.276   9.119  0.0940  0.0771 -0.7669
  152MOL0     C20899   1.791  10.348   9.226 -0.4906 -0.2347 -0.0804
  152MOL0     C20900   1.780  10.275   9.365 -0.0084 -0.5945  0.0296
  152MOL0     C20901   1.698  10.352   9.467  1.0943  0.5318 -0.0965
  152MOL0     C20902   1.564  10.399   9.429 -0.1159  0.3250 -0.0410
  152MOL0     C20903   1.444  10.428   9.416 -1.0958  0.2784  0.6601
  152MOL0     C20904   2.082  10.148   8.975 -0.0601  0.0987  0.1711
  152MOL0     C20905   2.189  10.111   8.895 -0.1307 -0.5416 -0.6808
  152MOL0     C20906   2.157  10.029   8.778  0.1087 -0.0978 -0.3468
  152MOL0     H20907   2.586  10.105   8.577  2.2936  3.5359 -3.6894
  152MOL0     H20908   2.797  10.012   8.507 -1.2579 -2.6492  1.4977
  152MOL0     H20909   3.138  10.049   8.791 -0.4448  2.0599 -1.7044
  152MOL0     H20910   3.212   9.939   8.679 -0.0417 -2.3575  2.2428
  152MOL0     H20911   3.009   9.853   8.889  0.4978 -1.5351  1.6208
  152MOL0     H20912   3.018   9.771   8.739  1.9122  0.7810  0.0244
  152MOL0     H20913   3.270   9.742   8.771 -1.2654  0.2283 -1.2658
  152MOL0     H20914   3.272   9.817   8.929  1.6817 -0.2311 -0.2969
  152MOL0     H20915   3.089   9.681   9.021  1.2770  3.2421 -0.9362
  152MOL0     H20916   3.097   9.571   8.881  0.8320 -0.0870  0.7977
  152MOL0     H20917   3.234   9.467   9.061 -2.7632  0.2937 -0.3409
  152MOL0     H20918   3.323   9.627   9.078 -0.9250  0.9100  0.1187
  152MOL0     H20919   3.435   9.597   8.871 -1.4384  1.2458 -0.9711
  152MOL0     H20920   3.449   9.439   8.966 -1.4860  0.4073  1.0045
  152MOL0     H20921   3.281   9.499   8.736  2.6359  2.2798  0.5462
  152MOL0     H20922   3.252   9.352   8.831  0.7320 -1.3288 -0.8887
  152MOL0     H20923   3.514   9.428   8.704  1.1211  0.0626  1.8351
  152MOL0     H20924   3.475   9.276   8.800 -0.9491  1.3749  0.3308
  152MOL0     H20925   3.597   9.197   8.533 -0.7606 -2.0281 -2.6569
  152MOL0     H20926   3.366   9.093   8.226  0.4901  3.2648  0.2191
  152MOL0     H20927   3.485   9.004   8.308 -2.9698 -0.8927 -1.1560
  152MOL0     H20928   3.513   9.279   8.181  0.7298  0.1676 -0.9861
  152MOL0     H20929   3.641   9.201   8.265  0.9229 -0.2797 -1.3695
  152MOL0     H20930   3.488   9.081   8.044 -0.4162  1.2541 -1.2281
  152MOL0     H20931   3.633   9.184   8.019 -0.4947 -0.2373 -0.4660
  152MOL0     H20932   3.741   8.998   8.184 -1.0718  1.1844  0.6964
  152MOL0     H20933   3.610   8.898   8.117 -0.0319 -0.7468 -1.6071
  152MOL0     H20934   3.843   8.889   7.760 -2.4591 -1.6978 -1.8463
  152MOL0     H20935   3.946   8.771   7.611  2.0970  2.4825  3.0050
  152MOL0     H20936   3.916   8.586   7.627 -1.2755  0.5284  1.0857
  152MOL0     H20937   4.075   8.667   7.637  0.3662  5.1605 -1.9857
  152MOL0     H20938   4.091   8.385   7.488  1.2500  2.3668  3.3908
  152MOL0     H20939   4.130   8.157   7.390 -0.7413 -2.7627  0.6606
  152MOL0     H20940   4.390   7.921   7.556  1.1548 -1.4127  3.1181
  152MOL0     H20941   4.276   7.833   7.648  1.5410 -0.2026  0.2378
  152MOL0     H20942   4.217   7.696   7.444 -1.6867  2.6244 -1.5426
  152MOL0     H20943   4.321   7.805   7.343  0.3388 -0.6039 -0.5142
  152MOL0     H20944   4.409   7.628   7.588 -0.8028  0.1155 -1.1250
  152MOL0     H20945   4.523   7.705   7.469 -0.1942  0.4725  1.4777
  152MOL0     H20946   4.454   7.594   7.287 -1.4229  1.1760  0.3777
  152MOL0     H20947   4.311   7.511   7.352 -0.1647  1.7199 -2.6110
  152MOL0     H20948   4.517   7.370   7.329  0.3245 -1.1072 -0.4154
  152MOL0     H20949   4.591   7.454   7.472  0.6971  1.0627 -2.5864
  152MOL0     H20950   4.329   7.308   7.459  0.1888 -0.1343 -0.5623
  152MOL0     H20951   4.393   7.369   7.608  0.7813  1.0733 -0.4074
  152MOL0     H20952   4.607   7.235   7.578  0.6460 -0.1001  0.2715
  152MOL0     H20953   4.546   7.172   7.422 -0.3787 -2.7097  0.6587
  152MOL0     H20954   4.422   7.097   7.682  1.6126  2.7392 -0.5652
  152MOL0     H20955   4.529   6.996   7.593  1.1415  2.5168  1.5183
  152MOL0     H20956   4.169   7.990   7.777 -1.7356  0.6965  0.7427
  152MOL0     H20957   4.154   8.223   7.874  1.2387 -0.8540  0.7985
  152MOL0     H20958   3.904   8.556   8.112 -0.4324  0.4090  0.3777
  152MOL0     H20959   3.795   8.759   8.162  1.9484  1.1336  0.0298
  152MOL0     H20960   2.975  10.111   8.877  1.9383  2.1295 -1.3311
  152MOL0     H20961   2.779  10.211   8.957  0.9338 -1.0246  0.4053
  152MOL0     H20962   2.432  10.280   9.057  0.7539 -2.6799  0.6082
  152MOL0     H20963   2.263  10.366   9.175  3.1098  0.3203 -0.1313
  152MOL0     H20964   1.855  10.325   9.023 -0.7039  0.3469 -0.4897
  152MOL0     H20965   1.847  10.170   9.113 -1.7034  0.4610 -0.4981
  152MOL0     H20966   1.691  10.345   9.181 -1.1072 -0.6077  1.2863
  152MOL0     H20967   1.821  10.452   9.239 -0.2056 -0.2362 -0.6820
  152MOL0     H20968   1.734  10.176   9.363 -3.7075  0.9576  0.6142
  152MOL0     H20969   1.884  10.261   9.395 -0.4347 -2.3688  0.8006
  152MOL0     H20970   1.755  10.440   9.497  0.5351  2.0222 -3.0432
  152MOL0     H20971   1.686  10.287   9.554 -3.0083  0.2118 -0.6968
  152MOL0     H20972   1.340  10.441   9.396 -0.6036  2.0437 -1.1538
  152MOL0     H20973   1.989  10.095   8.956  0.0028  0.5126 -1.3448
  152MOL0     H20974   2.163   9.923   8.804  0.6589  0.3060  1.3087
  152MOL0     H20975   2.057  10.067   8.752 -0.9950  0.1301  3.5692
  152MOL0     H20976   2.225  10.043   8.694  0.5670 -3.6449 -0.7524
  153MOL0     O20977   1.309   3.320   2.018 -0.2038 -0.1710 -0.7335
  153MOL0     C20978   1.197   3.270   2.058 -0.8240  0.2834 -0.1545
  153MOL0     O20979   1.133   3.295   2.173  0.4807  0.2237 -0.3648
  153MOL0     C20980   1.194   3.382   2.259 -0.2672  0.2826 -0.2037
  153MOL0     C20981   1.264   3.332   2.374 -0.2316  0.1802 -0.4262
  153MOL0     C20982   1.343   3.414   2.456 -0.6754 -0.1475  0.1921
  153MOL0     C20983   1.353   3.553   2.429  0.3038 -0.0684 -0.1770
  153MOL0     O20984   1.421   3.640   2.506 -0.5097 -0.5529 -0.1067
  153MOL0     C20985   1.531   3.584   2.588 -0.6614  0.0556 -0.0797
  153MOL0     C20986   1.643   3.527   2.503 -0.0108 -0.3049  0.2967
  153MOL0     C20987   1.778   3.522   2.581  1.0892 -0.5879  0.2625
  153MOL0     C20988   1.881   3.430   2.526 -0.3111 -0.6858 -0.0946
  153MOL0     C20989   2.015   3.467   2.584  0.1828  0.3136 -0.2745
  153MOL0     C20990   2.117   3.372   2.527  0.4511  0.3466  0.8204
  153MOL0     C20991   2.091   3.229   2.569 -0.5268  0.3454  0.0367
  153MOL0     C20992   2.214   3.137   2.560  0.2142 -0.9528 -1.2657
  153MOL0     N20993   2.276   3.120   2.427  1.0696  0.5834 -0.4009
  153MOL0     C20994   2.386   3.053   2.415  0.3220 -0.5364  0.1201
  153MOL0     C20995   2.404   3.038   2.278  0.4508  0.5431  0.2255
  153MOL0     C20996   2.510   2.959   2.213 -0.6074  0.4000  0.0187
  153MOL0     C20997   2.549   3.007   2.079 -0.4743  0.3909  0.4437
  153MOL0     C20998   2.482   2.946   1.963  0.1069 -0.4130  0.0297
  153MOL0     C20999   2.539   2.983   1.827 -0.2142  0.2508  0.3365
  153MOL0     O21000   2.666   2.938   1.808 -0.5041  0.6022  0.5027
  153MOL0     C21001   2.739   2.988   1.694 -0.5344  0.0960 -0.5071
  153MOL0     C21002   2.686   3.051   1.580  0.3384 -0.2749 -0.3017
  153MOL0     C21003   2.764   3.115   1.479 -0.6666  0.6484  0.2067
  153MOL0     C21004   2.683   3.162   1.356 -0.4559 -0.0684 -0.1469
  153MOL0     C21005   2.904   3.119   1.487  0.3524 -0.6945  0.9642
  153MOL0     C21006   2.990   3.187   1.383  0.1075  0.3597 -0.7538
  153MOL0     O21007   3.124   3.157   1.410 -0.1118  0.1841 -0.1497
  153MOL0     C21008   3.227   3.163   1.315 -0.1893 -0.0937  0.5539
  153MOL0     C21009   3.206   3.165   1.174 -0.7366 -0.7188  0.0403
  153MOL0     C21010   3.314   3.188   1.088 -0.0818 -0.0033 -0.6428
  153MOL0     C21011   3.450   3.189   1.139  0.6645  0.5471  1.1831
  153MOL0     O21012   3.557   3.210   1.054 -0.0088  0.8402  0.0555
  153MOL0     C21013   3.561   3.146   0.928  0.5173  0.9074 -0.5391
  153MOL0     C21014   3.690   3.065   0.904  0.1922  0.2681 -0.0065
  153MOL0     C21015   3.800   3.154   0.845  0.4911 -0.8328  0.2807
  153MOL0     C21016   3.935   3.081   0.862 -0.1253  0.5094  0.2794
  153MOL0     C21017   4.052   3.159   0.792  0.7730 -0.7402 -0.2375
  153MOL0     C21018   4.181   3.083   0.830  0.5095 -0.6011  1.3458
  153MOL0     C21019   4.300   3.167   0.767 -0.5604  0.5550 -0.2717
  153MOL0     C21020   4.322   3.303   0.819  0.5795  0.1626  0.2340
  153MOL0    Cl21021   4.388   3.283   0.988  0.0096  0.2194 -0.1708
  153MOL0     C21022   3.466   3.187   1.280 -0.3938 -0.8756 -0.5262
  153MOL0     C21023   3.359   3.174   1.364  1.1980  0.3375 -1.0385
  153MOL0     O21024   2.948   3.244   1.283  1.2758 -0.1000  0.7627
  153MOL0     C21025   2.957   3.050   1.599 -0.2241  0.1145  0.2236
  153MOL0     C21026   2.879   2.980   1.692  0.1223 -0.3007  0.4394
  153MOL0     N21027   2.293   3.097   2.213  0.0001 -0.0122  0.0359
  153MOL0     N21028   2.225   3.156   2.303  0.1044 -0.6970 -0.3337
  153MOL0     C21029   1.287   3.605   2.314 -0.2811 -0.0903 -0.4920
  153MOL0     C21030   1.217   3.516   2.236  0.0523 -0.0092  0.0304
  153MOL0     C21031   1.131   3.173   1.962 -0.4403  0.1251 -0.3176
  153MOL0     C21032   1.095   3.049   2.021  0.4441 -0.7451  0.0226
  153MOL0     C21033   1.041   2.947   1.948 -0.4668 -0.2360 -0.4898
  153MOL0     C21034   1.047   2.949   1.811 -0.0259  0.0525  0.1881
  153MOL0     O21035   1.009   2.843   1.733  1.3676  0.0559  0.1248
  153MOL0     C21036   0.915   2.743   1.786 -0.0996 -0.7322 -0.3555
  153MOL0     C21037   0.861   2.664   1.665  0.0400  0.9660 -0.0185
  153MOL0     C21038   0.816   2.524   1.720  0.0685 -0.4406 -0.8721
  153MOL0     C21039   0.769   2.425   1.607 -0.3221 -0.1637 -0.2388
  153MOL0     C21040   0.876   2.420   1.505 -0.6145  0.9263  0.5021
  153MOL0     C21041   0.956   2.439   1.409  0.3096  0.1934  0.3605
  153MOL0     C21042   1.098   3.064   1.747 -0.2487 -0.5335  0.2937
  153MOL0     C21043   1.138   3.178   1.823  0.4140 -0.0741 -0.0677
  153MOL0     C21044   1.178   3.300   1.742 -0.6136  0.8256 -0.8930
  153MOL0     H21045   1.256   3.229   2.407  1.6879  0.4599  1.0936
  153MOL0     H21046   1.388   3.373   2.546  0.3301  3.5925  1.5879
  153MOL0     H21047   1.499   3.514   2.665 -1.5231  1.5687  0.9861
  153MOL0     H21048   1.573   3.672   2.638  2.5556 -0.9753 -0.7679
  153MOL0     H21049   1.624   3.424   2.471  0.3313 -0.6509  1.1765
  153MOL0     H21050   1.660   3.595   2.419  1.5930 -0.8934  0.1136
  153MOL0     H21051   1.816   3.623   2.596 -1.0720 -0.0421  2.8968
  153MOL0     H21052   1.760   3.481   2.681 -2.9016 -2.0807 -0.8567
  153MOL0     H21053   1.846   3.333   2.561 -0.5555 -0.0295  1.5851
  153MOL0     H21054   1.892   3.429   2.417 -0.3113  0.5002 -0.1179
  153MOL0     H21055   2.021   3.463   2.693 -2.2261  3.4793  0.1373
  153MOL0     H21056   2.042   3.568   2.551  0.7285  1.3309  2.9114
  153MOL0     H21057   2.120   3.378   2.418  0.0874  1.3682  0.8472
  153MOL0     H21058   2.217   3.407   2.555 -0.6921  3.1826  1.7179
  153MOL0     H21059   2.012   3.188   2.505  0.5461 -1.3671 -0.2585
  153MOL0     H21060   2.056   3.228   2.672  1.5432  0.5295  0.7946
  153MOL0     H21061   2.287   3.166   2.636 -1.1073 -1.3723  0.2154
  153MOL0     H21062   2.188   3.038   2.600 -0.1889 -0.7285 -0.9610
  153MOL0     H21063   2.437   3.000   2.496  0.7647 -2.3999 -1.3035
  153MOL0     H21064   2.481   2.853   2.215  1.5058 -0.2179  1.1342
  153MOL0     H21065   2.599   2.967   2.277  1.1493  1.9131 -2.4429
  153MOL0     H21066   2.542   3.116   2.075  1.4951  0.5756  0.8850
  153MOL0     H21067   2.654   2.983   2.057 -0.1123  2.8937 -0.9762
  153MOL0     H21068   2.483   2.836   1.963 -3.5607 -0.5672 -0.5231
  153MOL0     H21069   2.374   2.964   1.969 -0.0477 -1.5187  1.1088
  153MOL0     H21070   2.474   2.944   1.748  0.0925  0.0973  0.1604
  153MOL0     H21071   2.527   3.092   1.831 -3.5215 -0.0222  0.7809
  153MOL0     H21072   2.579   3.063   1.562  0.4642 -0.2720 -1.0542
  153MOL0     H21073   2.580   3.124   1.366 -0.6584  1.0734  3.7147
  153MOL0     H21074   2.724   3.137   1.258 -1.5014  4.8777 -2.1548
  153MOL0     H21075   2.680   3.271   1.358 -1.2846 -0.0439 -1.6223
  153MOL0     H21076   3.103   3.158   1.144 -0.6178  1.2216 -0.9106
  153MOL0     H21077   3.300   3.195   0.980  0.7529 -3.3686 -1.0564
  153MOL0     H21078   3.479   3.075   0.915  1.9800 -0.6213 -1.9938
  153MOL0     H21079   3.535   3.220   0.851 -1.4122  1.8567  0.9280
  153MOL0     H21080   3.724   3.025   1.001  4.6092 -0.6766 -1.6835
  153MOL0     H21081   3.673   2.982   0.835  0.8896 -0.7364  0.9822
  153MOL0     H21082   3.812   3.256   0.882  2.0983 -0.8439 -0.1374
  153MOL0     H21083   3.781   3.167   0.738  1.0927 -2.3627 -0.0272
  153MOL0     H21084   3.927   2.980   0.821  2.2526  0.3714  0.0263
  153MOL0     H21085   3.961   3.064   0.967  0.7543 -1.1374 -0.1675
  153MOL0     H21086   4.050   3.153   0.683  0.9761 -2.2926 -0.1803
  153MOL0     H21087   4.057   3.262   0.829  0.7387 -0.4487 -1.0221
  153MOL0     H21088   4.167   2.982   0.792  1.3655  0.4641 -2.1484
  153MOL0     H21089   4.198   3.078   0.938 -0.3523  1.6060  1.6505
  153MOL0     H21090   4.286   3.162   0.658  0.7492  1.4429 -0.5043
  153MOL0     H21091   4.391   3.108   0.783  0.0215  1.2281 -1.0513
  153MOL0     H21092   4.238   3.373   0.820  0.4326  0.1999 -3.3801
  153MOL0     H21093   4.401   3.350   0.759  2.1365 -4.0202 -1.3785
  153MOL0     H21094   3.567   3.193   1.319  0.1949 -0.7046 -2.0027
  153MOL0     H21095   3.374   3.175   1.471  2.5770  1.3009 -1.2202
  153MOL0     H21096   3.062   3.022   1.601 -1.0624 -3.5934  0.7309
  153MOL0     H21097   2.923   2.926   1.775 -1.4463 -0.5308  1.1552
  153MOL0     H21098   1.299   3.709   2.287 -0.4013  0.7253  2.2457
  153MOL0     H21099   1.168   3.565   2.152 -0.3790 -1.1661 -0.4266
  153MOL0     H21100   1.091   3.055   2.130 -1.7830 -1.7504  0.0431
  153MOL0     H21101   1.011   2.851   1.990 -1.5937  0.4058  0.1950
  153MOL0     H21102   0.969   2.675   1.854 -2.8390 -3.5020 -0.7313
  153MOL0     H21103   0.843   2.806   1.839  2.2425  3.0011 -1.1911
  153MOL0     H21104   0.943   2.638   1.597 -0.4554  0.0351 -0.2696
  153MOL0     H21105   0.775   2.710   1.616 -0.5152  0.3737  0.3789
  153MOL0     H21106   0.907   2.482   1.764  0.5949  0.6285 -0.9138
  153MOL0     H21107   0.743   2.535   1.801  1.6052  0.1594  0.4722
  153MOL0     H21108   0.666   2.444   1.576  0.1009  0.0224 -1.5950
  153MOL0     H21109   0.754   2.327   1.654 -2.8052  0.7118  0.9508
  153MOL0     H21110   1.030   2.437   1.331  0.9337 -0.5309  0.9573
  153MOL0     H21111   1.097   3.072   1.639  1.1922 -2.3555  0.0894
  153MOL0     H21112   1.146   3.391   1.794 -0.9523  0.0481  0.3116
  153MOL0     H21113   1.285   3.294   1.721 -0.8169 -3.8633 -1.5954
  153MOL0     H21114   1.135   3.315   1.643  0.1358  4.0787 -0.8513
  154MOL0     O21115   0.918   5.258   7.993 -0.0602 -0.0508  0.4083
  154MOL0     C21116   0.799   5.260   8.029 -0.4774  1.4589  0.2393
  154MOL0     O21117   0.752   5.218   8.159 -0.3340  0.3154  0.5365
  154MOL0     C21118   0.840   5.155   8.246  0.6804 -0.5109  0.5418
  154MOL0     C21119   0.838   5.178   8.383 -0.6329  0.5711 -0.5964
  154MOL0     C21120   0.930   5.110   8.463  0.0950  1.0004 -0.5169
  154MOL0     C21121   1.033   5.032   8.413  0.4446  0.2752  0.5845
  154MOL0     O21122   1.134   4.965   8.479  0.1254  0.5339  0.7046
  154MOL0     C21123   1.156   5.010   8.612 -0.1748 -0.4448  0.6778
  154MOL0     C21124   1.282   4.942   8.657  0.0041  0.1919 -0.4739
  154MOL0     C21125   1.405   4.974   8.581 -0.1291 -0.0024 -0.0328
  154MOL0     C21126   1.416   5.118   8.526 -0.2886 -0.0424 -0.3787
  154MOL0     C21127   1.544   5.116   8.440 -0.0048  0.1809  0.1475
  154MOL0     C21128   1.587   5.237   8.370 -0.0746  0.1352 -0.5597
  154MOL0     C21129   1.607   5.359   8.462 -0.8253 -0.2592 -0.0086
  154MOL0     C21130   1.654   5.475   8.384 -0.3294 -0.4397 -0.3432
  154MOL0     N21131   1.789   5.466   8.328 -0.2731  0.3700  0.5109
  154MOL0     C21132   1.902   5.474   8.404 -0.5612 -0.5244  0.0012
  154MOL0     C21133   1.998   5.446   8.317  0.5520  0.5622  0.2568
  154MOL0     C21134   2.144   5.462   8.335 -0.1399  0.4766 -0.5979
  154MOL0     C21135   2.197   5.601   8.297  0.5281  0.8804 -0.3026
  154MOL0     C21136   2.206   5.618   8.145  0.3591  0.7913 -1.3632
  154MOL0     C21137   2.323   5.713   8.106  0.3267 -0.0370 -0.0855
  154MOL0     O21138   2.323   5.845   8.161  0.1207 -0.8794  0.1292
  154MOL0     C21139   2.414   5.947   8.118  0.0738  0.2607 -0.5528
  154MOL0     C21140   2.521   5.917   8.022 -0.0187 -0.6640  0.3291
  154MOL0     C21141   2.603   6.017   7.983  0.5574 -0.9290 -0.3774
  154MOL0     C21142   2.724   5.976   7.895  0.0572 -0.1329  0.0023
  154MOL0     C21143   2.580   6.152   8.030  0.0892  0.5906 -0.3408
  154MOL0     C21144   2.638   6.276   7.968 -0.5328 -0.1480 -0.9171
  154MOL0     O21145   2.588   6.404   7.996 -0.4394 -0.6468 -0.7663
  154MOL0     C21146   2.636   6.512   7.923 -0.3870 -0.3852  0.0292
  154MOL0     C21147   2.770   6.539   7.908  0.2026 -0.5860  0.5596
  154MOL0     C21148   2.818   6.661   7.846 -0.3919  0.6220  0.0543
  154MOL0     C21149   2.733   6.748   7.790  1.5882  0.2421 -0.9861
  154MOL0     O21150   2.777   6.848   7.706  0.3190 -0.7282  0.0472
  154MOL0     C21151   2.690   6.953   7.675  1.3808  0.0690  0.2754
  154MOL0     C21152   2.755   7.053   7.586 -0.2177 -0.0551  0.5525
  154MOL0     C21153   2.881   7.122   7.643  0.9841  0.5582  0.0111
  154MOL0     C21154   3.011   7.064   7.588  0.6331 -0.1332 -0.0567
  154MOL0     C21155   3.125   7.151   7.644  0.2529 -0.7231 -0.0768
  154MOL0     C21156   3.266   7.103   7.597 -0.9143 -0.9548  0.2333
  154MOL0     C21157   3.298   7.123   7.449  0.5299 -0.2793  0.3120
  154MOL0     C21158   3.430   7.043   7.414 -0.3487  0.0442  0.5625
  154MOL0    Cl21159   3.564   7.138   7.482  0.3941  0.7682  0.0811
  154MOL0     C21160   2.593   6.716   7.805  0.0461  0.2133  0.3485
  154MOL0     C21161   2.549   6.605   7.873  0.2620 -0.0673 -0.0959
  154MOL0     O21162   2.722   6.254   7.884 -0.3105  0.4390  0.2191
  154MOL0     C21163   2.480   6.176   8.119  0.8062 -0.9127  0.0051
  154MOL0     C21164   2.397   6.075   8.172  0.6962 -0.2850  0.2760
  154MOL0     N21165   1.940   5.416   8.195 -0.5093 -0.0895 -0.4386
  154MOL0     N21166   1.819   5.432   8.204  0.0706 -0.0015  0.3677
  154MOL0     C21167   1.029   5.009   8.273 -0.1980 -1.0188 -0.4344
  154MOL0     C21168   0.929   5.062   8.189 -0.7315  0.3259  0.0497
  154MOL0     C21169   0.707   5.339   7.952 -0.8354 -0.5623  0.2370
  154MOL0     C21170   0.608   5.411   8.018  0.1782  0.7981  0.4429
  154MOL0     C21171   0.520   5.495   7.950 -0.1435  0.2673 -0.0595
  154MOL0     C21172   0.529   5.503   7.811  0.4171  0.0166  0.2088
  154MOL0     O21173   0.433   5.583   7.750 -0.0007 -0.1940 -0.6142
  154MOL0     C21174   0.488   5.679   7.660 -0.9638 -0.3861 -0.1863
  154MOL0     C21175   0.380   5.784   7.648  0.4760 -0.3360 -0.5972
  154MOL0     C21176   0.410   5.881   7.525  0.7956  0.6934  0.1285
  154MOL0     C21177   0.497   6.003   7.556  0.7305  0.6509 -0.0211
  154MOL0     C21178   0.622   5.976   7.496 -0.2247  0.7457 -0.1197
  154MOL0     C21179   0.713   5.942   7.429  0.2701 -0.0997 -0.2626
  154MOL0     C21180   0.634   5.440   7.742  0.3284  1.4340  0.9015
  154MOL0     C21181   0.727   5.362   7.807 -0.3092  0.1405 -0.3709
  154MOL0     C21182   0.841   5.307   7.726 -0.5595  0.4132  0.4922
  154MOL0     H21183   0.770   5.251   8.424 -2.5136 -1.7128  0.5584
  154MOL0     H21184   0.925   5.120   8.571 -2.2238 -0.7340 -0.4056
  154MOL0     H21185   1.070   4.974   8.670 -1.0028  0.6662  0.1805
  154MOL0     H21186   1.151   5.120   8.617 -4.2056 -0.3266 -1.7946
  154MOL0     H21187   1.291   4.960   8.764  1.2635 -2.1604 -0.1198
  154MOL0     H21188   1.260   4.835   8.663  1.4921 -0.0755  0.5474
  154MOL0     H21189   1.496   4.951   8.637  1.0314 -0.2685 -1.9586
  154MOL0     H21190   1.406   4.907   8.495  2.4245 -2.6854  1.8675
  154MOL0     H21191   1.324   5.141   8.471 -0.9199  0.4040  0.8355
  154MOL0     H21192   1.427   5.189   8.609  2.2136 -0.0737 -0.6110
  154MOL0     H21193   1.550   5.038   8.364  0.9473  0.8788 -0.5149
  154MOL0     H21194   1.616   5.102   8.521 -1.1408 -0.1366  1.1305
  154MOL0     H21195   1.682   5.209   8.324 -0.6957  0.5176 -2.1368
  154MOL0     H21196   1.507   5.251   8.296  0.0310 -2.3715 -1.2510
  154MOL0     H21197   1.680   5.330   8.537 -0.0109 -0.6589 -0.9346
  154MOL0     H21198   1.517   5.381   8.520 -0.8203 -1.3206  0.4320
  154MOL0     H21199   1.587   5.496   8.301  0.3071  1.7476 -0.3575
  154MOL0     H21200   1.654   5.562   8.450 -1.2479 -0.7220  0.0505
  154MOL0     H21201   1.913   5.501   8.508 -0.7896  0.7095 -0.2717
  154MOL0     H21202   2.197   5.388   8.275  1.5661 -0.2163  1.6405
  154MOL0     H21203   2.164   5.450   8.441  0.6334 -0.5662 -0.8451
  154MOL0     H21204   2.141   5.677   8.353  2.4058  1.3763  0.9875
  154MOL0     H21205   2.298   5.599   8.337  0.2372 -2.0451  0.5256
  154MOL0     H21206   2.221   5.520   8.098 -1.8426 -0.4512  0.3436
  154MOL0     H21207   2.121   5.678   8.111 -0.5490  1.6040  2.0111
  154MOL0     H21208   2.419   5.670   8.138 -1.3631 -2.0662  2.7322
  154MOL0     H21209   2.311   5.730   7.999 -0.4425 -0.3931 -0.0606
  154MOL0     H21210   2.533   5.814   7.990  0.2092 -1.2074  2.0626
  154MOL0     H21211   2.690   5.975   7.791  1.8631 -0.2732 -0.6221
  154MOL0     H21212   2.758   5.880   7.933 -0.1880 -0.1625  0.1436
  154MOL0     H21213   2.806   6.048   7.905 -1.3322  1.6158 -0.5418
  154MOL0     H21214   2.845   6.476   7.954  1.2344  0.1687 -0.0491
  154MOL0     H21215   2.926   6.672   7.835 -0.7963  2.8734 -2.8729
  154MOL0     H21216   2.607   6.914   7.616  3.2503  2.0249 -4.0591
  154MOL0     H21217   2.652   7.011   7.760  1.4221  0.6743 -0.1149
  154MOL0     H21218   2.774   7.015   7.485 -0.8183  0.8082  0.0963
  154MOL0     H21219   2.685   7.132   7.555 -0.8565 -1.9997 -3.6256
  154MOL0     H21220   2.881   7.116   7.752 -2.2420  0.8912  0.1297
  154MOL0     H21221   2.867   7.225   7.609 -2.6610  1.0041  2.3458
  154MOL0     H21222   2.998   7.055   7.480  0.8028 -1.1927  0.0091
  154MOL0     H21223   3.008   6.963   7.630 -3.6029  0.3078  1.1092
  154MOL0     H21224   3.108   7.255   7.616  1.7658 -0.0473  1.3848
  154MOL0     H21225   3.113   7.143   7.752 -2.0124 -1.8127 -0.3489
  154MOL0     H21226   3.278   6.996   7.614  3.9923 -0.7992 -0.6007
  154MOL0     H21227   3.339   7.159   7.657 -0.8058  0.8976 -1.5005
  154MOL0     H21228   3.299   7.229   7.423  0.4164 -0.4266 -0.3252
  154MOL0     H21229   3.221   7.076   7.386  0.4733 -0.4345  0.4956
  154MOL0     H21230   3.445   7.045   7.306 -1.3390  3.9282  0.3718
  154MOL0     H21231   3.432   6.942   7.457  0.4661 -1.0542 -1.9028
  154MOL0     H21232   2.520   6.783   7.762 -1.0464 -1.3250 -0.2704
  154MOL0     H21233   2.444   6.590   7.895  0.3494 -1.8343 -0.7222
  154MOL0     H21234   2.457   6.279   8.143  0.1225 -0.6892 -1.5082
  154MOL0     H21235   2.318   6.092   8.244 -1.7350 -5.2082 -0.8248
  154MOL0     H21236   1.095   4.935   8.230 -1.2466 -3.6023  2.0828
  154MOL0     H21237   0.930   5.019   8.090 -1.2722 -0.6266  0.4469
  154MOL0     H21238   0.578   5.393   8.121 -0.5032  1.7631  0.4225
  154MOL0     H21239   0.432   5.536   7.998  0.2916 -0.7287  1.6438
  154MOL0     H21240   0.580   5.731   7.689  0.1335 -1.0846 -2.1845
  154MOL0     H21241   0.508   5.640   7.560  0.2631 -1.3452  0.3961
  154MOL0     H21242   0.365   5.843   7.739  1.1677  0.1690 -0.8042
  154MOL0     H21243   0.286   5.736   7.619  0.6067 -1.2422  0.3966
  154MOL0     H21244   0.465   5.822   7.451  1.0047  1.7867 -0.6077
  154MOL0     H21245   0.315   5.911   7.480  0.9844 -1.5470 -1.8958
  154MOL0     H21246   0.510   6.014   7.664  2.1150 -3.8374  0.4847
  154MOL0     H21247   0.466   6.098   7.512 -2.8397 -0.0302  0.7395
  154MOL0     H21248   0.803   5.928   7.373  1.7847  0.9401  1.7769
  154MOL0     H21249   0.621   5.449   7.635 -0.9233 -1.1127  0.7759
  154MOL0     H21250   0.815   5.312   7.620  0.8143 -2.5226 -0.0606
  154MOL0     H21251   0.936   5.352   7.756 -0.9726  1.8135 -0.2085
  154MOL0     H21252   0.863   5.202   7.747  0.2080  0.4477 -0.0939
  155MOL0     O21253   9.408   7.023   5.268 -0.2452 -0.1845  0.3366
  155MOL0     C21254   9.321   6.944   5.293 -0.0701  0.2628 -0.4786
  155MOL0     O21255   9.335   6.836   5.373  0.2437 -0.3848 -0.4124
  155MOL0     C21256   9.465   6.802   5.401  0.4914 -0.2098 -0.0740
  155MOL0     C21257   9.546   6.860   5.501  0.7191 -0.0043  0.7694
  155MOL0     C21258   9.675   6.817   5.530 -1.6249  0.1042 -0.2727
  155MOL0     C21259   9.733   6.716   5.445  0.7785  0.1762 -0.6092
  155MOL0     O21260   9.852   6.672   5.492 -0.0499 -0.0899  0.0032
  155MOL0     C21261   9.948   6.625   5.396 -0.3651  0.3809 -0.5367
  155MOL0     C21262   9.993   6.482   5.443  0.1772  0.3430  0.5354
  155MOL0     C21263  10.038   6.487   5.581 -0.6660 -0.7328  0.0043
  155MOL0     C21264  10.098   6.355   5.620  0.4124  0.0909 -0.2151
  155MOL0     C21265  10.155   6.359   5.761 -0.1587  0.1105 -0.8407
  155MOL0     C21266  10.216   6.217   5.800  0.0492 -0.8936  0.0484
  155MOL0     C21267  10.280   6.229   5.940  0.7097 -0.7656  0.3587
  155MOL0     C21268  10.189   6.242   6.056  0.0563 -0.2866 -0.0260
  155MOL0     N21269  10.108   6.120   6.056  0.3215  0.3246  0.6601
  155MOL0     C21270   9.970   6.108   6.063  0.0030 -0.5234 -0.3423
  155MOL0     C21271   9.938   5.987   6.106 -0.3282 -0.0139  0.9020
  155MOL0     C21272   9.795   5.932   6.127 -0.7902 -0.1272 -0.1749
  155MOL0     C21273   9.697   6.000   6.039  0.0753  0.4445 -1.1174
  155MOL0     C21274   9.693   5.952   5.890  0.3584  0.1857 -0.1370
  155MOL0     C21275   9.600   5.832   5.865 -0.3599  0.1824  0.0179
  155MOL0     O21276   9.650   5.710   5.927 -0.6139 -0.1812  0.1002
  155MOL0     C21277   9.551   5.624   5.960  0.0678  0.5300  0.7784
  155MOL0     C21278   9.426   5.616   5.899  0.5984  1.0093  0.7167
  155MOL0     C21279   9.340   5.507   5.935 -0.2591  0.1640  1.1395
  155MOL0     C21280   9.201   5.493   5.870  0.1472  0.7192  0.8806
  155MOL0     C21281   9.390   5.412   6.017  0.0802  0.6503 -0.7037
  155MOL0     C21282   9.308   5.289   6.064 -0.0783  0.4067 -0.0951
  155MOL0     O21283   9.376   5.225   6.160 -0.0337  0.2346 -0.4762
  155MOL0     C21284   9.325   5.134   6.252 -0.1719  0.1599 -0.6044
  155MOL0     C21285   9.191   5.087   6.252  0.4223  0.8345 -0.4457
  155MOL0     C21286   9.141   5.004   6.360  0.4329 -0.3692 -0.7181
  155MOL0     C21287   9.230   4.973   6.471 -0.6419 -0.4540 -0.9094
  155MOL0     O21288   9.189   4.889   6.576 -0.3676  0.3463 -0.4150
  155MOL0     C21289   9.046   4.889   6.594  0.9125 -0.0805  0.7676
  155MOL0     C21290   9.010   4.836   6.735 -0.2169  0.2770  1.2875
  155MOL0     C21291   9.076   4.924   6.837 -0.2755  0.1584 -0.3433
  155MOL0     C21292   9.017   5.071   6.850 -0.0501  0.3225 -1.1786
  155MOL0     C21293   9.046   5.146   6.979  0.3761  0.2109 -0.2414
  155MOL0     C21294   8.999   5.299   6.989  0.4951  0.4249  0.1012
  155MOL0     C21295   9.016   5.377   7.117 -0.2199 -0.0507 -0.1101
  155MOL0     C21296   8.953   5.519   7.127 -0.6139  0.4353  0.1467
  155MOL0    Cl21297   8.771   5.514   7.106  0.3085  0.3347 -0.4885
  155MOL0     C21298   9.361   5.016   6.460 -0.1617 -0.8973 -0.3998
  155MOL0     C21299   9.408   5.093   6.351 -0.3168 -0.4277 -0.1055
  155MOL0     O21300   9.202   5.258   6.015  0.8505  0.1687  0.3223
  155MOL0     C21301   9.518   5.415   6.066 -0.0845  0.0327 -0.6134
  155MOL0     C21302   9.599   5.522   6.038  0.2972  1.1301 -0.1506
  155MOL0     N21303  10.053   5.917   6.110 -0.0915  0.9253  0.1309
  155MOL0     N21304  10.148   5.996   6.088 -0.5423  0.2247  0.2544
  155MOL0     C21305   9.658   6.665   5.347  0.0295  0.2467  0.6628
  155MOL0     C21306   9.519   6.699   5.326  0.8164  0.3919  0.3206
  155MOL0     C21307   9.186   6.972   5.229 -0.2002 -0.6652 -0.1972
  155MOL0     C21308   9.090   6.871   5.241  0.3625  0.6726 -0.4338
  155MOL0     C21309   8.959   6.882   5.190 -0.1462  1.0126 -0.1941
  155MOL0     C21310   8.918   6.997   5.119 -0.3187  0.1884  0.6751
  155MOL0     O21311   8.797   7.015   5.056  0.0338  0.1956  0.3528
  155MOL0     C21312   8.714   6.892   5.035 -0.3544 -0.8202 -0.0067
  155MOL0     C21313   8.586   6.946   4.960  0.3184  1.5099 -0.0076
  155MOL0     C21314   8.611   7.051   4.850 -1.1860  1.1499 -0.5279
  155MOL0     C21315   8.489   7.073   4.763  0.2085  0.2578  0.4982
  155MOL0     C21316   8.364   7.100   4.839  0.7655 -0.3718 -0.4267
  155MOL0     C21317   8.258   7.121   4.889 -0.1078  0.0945  0.2352
  155MOL0     C21318   9.019   7.094   5.104 -0.4201 -0.4455 -0.5187
  155MOL0     C21319   9.139   7.095   5.165 -0.3119  0.4845 -0.3763
  155MOL0     C21320   9.224   7.208   5.130 -0.3636  0.5851  0.3246
  155MOL0     H21321   9.487   6.935   5.554  1.6621 -0.7584  3.0114
  155MOL0     H21322   9.744   6.858   5.604 -0.9333  3.4434 -2.5478
  155MOL0     H21323  10.026   6.699   5.373  1.6625 -1.9557 -1.6492
  155MOL0     H21324   9.915   6.612   5.292  1.5317  0.2468 -1.1575
  155MOL0     H21325   9.913   6.407   5.436 -0.0910  0.5116  1.6439
  155MOL0     H21326  10.078   6.447   5.384 -1.6586 -3.0822 -0.3197
  155MOL0     H21327  10.104   6.572   5.600 -2.4474  0.0379  3.4052
  155MOL0     H21328   9.950   6.498   5.644  0.4314 -0.2080  1.5063
  155MOL0     H21329  10.033   6.267   5.616  1.3806 -0.6954  0.8021
  155MOL0     H21330  10.177   6.321   5.552  0.2312  0.7738 -0.7812
  155MOL0     H21331  10.079   6.379   5.837  1.5892  3.7516  0.1781
  155MOL0     H21332  10.227   6.440   5.774 -0.7432  0.9465 -2.5082
  155MOL0     H21333  10.142   6.137   5.790 -0.5293 -0.2504 -1.1038
  155MOL0     H21334  10.303   6.194   5.737 -0.2974  0.8459 -1.1697
  155MOL0     H21335  10.346   6.316   5.944  0.8749 -0.8878  0.3273
  155MOL0     H21336  10.352   6.147   5.951  1.4141 -0.1998  0.0781
  155MOL0     H21337  10.254   6.239   6.144  0.0020 -0.5220  0.0095
  155MOL0     H21338  10.126   6.330   6.066  0.1846 -0.3437  1.5021
  155MOL0     H21339   9.893   6.181   6.038 -1.0748 -1.8804 -1.1808
  155MOL0     H21340   9.782   5.929   6.236 -1.4538 -2.5479 -0.2592
  155MOL0     H21341   9.797   5.828   6.094 -2.8213 -0.5974  0.9968
  155MOL0     H21342   9.601   5.979   6.087 -1.5300  0.6261 -4.0028
  155MOL0     H21343   9.710   6.109   6.041 -2.9812  0.8947  0.0711
  155MOL0     H21344   9.647   6.038   5.839  2.5375  0.9093 -0.9863
  155MOL0     H21345   9.786   5.922   5.842 -0.9418 -1.4726 -1.7269
  155MOL0     H21346   9.503   5.857   5.909 -0.2624 -2.1547  1.6948
  155MOL0     H21347   9.587   5.815   5.758 -0.3490 -0.1909  0.0756
  155MOL0     H21348   9.402   5.687   5.821 -2.5735 -2.0052 -1.3656
  155MOL0     H21349   9.163   5.584   5.823 -0.6319 -0.5486 -1.0109
  155MOL0     H21350   9.128   5.461   5.945  1.8345  0.6745  2.5869
  155MOL0     H21351   9.210   5.424   5.787  0.2966 -1.3836  2.5643
  155MOL0     H21352   9.124   5.098   6.168  0.4830 -2.3532 -1.0440
  155MOL0     H21353   9.039   4.968   6.352  0.4839 -0.9797  1.0552
  155MOL0     H21354   9.004   4.990   6.590 -3.3215 -1.6128  1.4402
  155MOL0     H21355   8.997   4.839   6.510  2.0808  1.6234 -1.0195
  155MOL0     H21356   8.901   4.835   6.744 -0.5252 -0.6968 -1.5518
  155MOL0     H21357   9.053   4.738   6.760 -0.0321  0.4752  1.7549
  155MOL0     H21358   9.184   4.922   6.820 -0.3468  0.2126 -0.8028
  155MOL0     H21359   9.064   4.878   6.936  1.6474 -1.2991 -0.7258
  155MOL0     H21360   8.908   5.064   6.835  0.3698 -2.4108 -3.9552
  155MOL0     H21361   9.056   5.129   6.765  0.1360  1.1080 -0.5685
  155MOL0     H21362   8.979   5.096   7.050  0.8002 -2.0429 -1.3444
  155MOL0     H21363   9.145   5.145   7.024  1.1402  0.8642 -1.8256
  155MOL0     H21364   8.890   5.299   6.978  0.5890 -2.5138 -1.7524
  155MOL0     H21365   9.047   5.354   6.907 -1.9914  2.2627 -0.2459
  155MOL0     H21366   9.125   5.383   7.117 -0.1405 -0.9391 -1.3962
  155MOL0     H21367   8.989   5.317   7.205  3.6732 -0.0609  1.2877
  155MOL0     H21368   8.993   5.594   7.059  0.9105  2.1440  2.7217
  155MOL0     H21369   8.980   5.554   7.228  1.0442 -2.1373  0.7019
  155MOL0     H21370   9.445   4.992   6.525  0.2442  0.9150 -0.2004
  155MOL0     H21371   9.511   5.128   6.360 -0.4295 -0.4883  1.7348
  155MOL0     H21372   9.553   5.339   6.135 -0.2293  0.3185 -0.2256
  155MOL0     H21373   9.703   5.525   6.068  0.5342  2.2913 -1.0084
  155MOL0     H21374   9.709   6.591   5.285  1.4286 -0.0383  2.0852
  155MOL0     H21375   9.467   6.642   5.251  0.2259 -0.2100  1.1709
  155MOL0     H21376   9.114   6.776   5.287 -0.8700  0.9506  0.8526
  155MOL0     H21377   8.897   6.793   5.193 -0.5560  1.3176  0.5396
  155MOL0     H21378   8.761   6.815   4.974  0.6572 -1.1037  1.0802
  155MOL0     H21379   8.693   6.850   5.134 -1.3049 -1.2719 -0.3972
  155MOL0     H21380   8.514   6.991   5.029 -2.3611 -1.5895 -0.5466
  155MOL0     H21381   8.553   6.858   4.905  2.8087  1.6249 -1.8866
  155MOL0     H21382   8.638   7.143   4.902 -2.5965  1.7053 -0.7424
  155MOL0     H21383   8.695   7.026   4.785 -1.7445  2.7997 -1.9657
  155MOL0     H21384   8.464   6.979   4.713 -0.2322 -0.4016  1.9100
  155MOL0     H21385   8.511   7.151   4.689 -4.2032  2.0433  0.7338
  155MOL0     H21386   8.158   7.131   4.927  0.1627  0.5308  0.8410
  155MOL0     H21387   8.984   7.173   5.038 -1.0890 -1.0783 -0.9377
  155MOL0     H21388   9.298   7.226   5.209  3.1577 -2.3450 -2.0093
  155MOL0     H21389   9.284   7.173   5.046 -0.4458 -1.3495  1.0285
  155MOL0     H21390   9.161   7.290   5.094 -0.5547  0.8747  1.2758
  156MOL0     O21391   2.903   9.179   8.958 -0.3085 -0.7165 -0.3525
  156MOL0     C21392   3.006   9.203   9.015 -0.7415 -0.6735  0.7332
  156MOL0     O21393   3.017   9.262   9.136  0.2948  0.0043  0.3441
  156MOL0     C21394   2.903   9.285   9.204  0.0755 -0.2083 -0.3476
  156MOL0     C21395   2.813   9.382   9.164  0.8393  0.3615  0.2324
  156MOL0     C21396   2.695   9.397   9.233 -0.0816 -0.8236  0.1238
  156MOL0     C21397   2.664   9.325   9.352 -0.2426 -0.2529  0.5076
  156MOL0     O21398   2.546   9.339   9.421 -0.1934  0.0012 -0.1507
  156MOL0     C21399   2.492   9.474   9.407  0.2703  0.2478 -0.3233
  156MOL0     C21400   2.389   9.486   9.528  0.2551 -0.1963 -0.3061
  156MOL0     C21401   2.254   9.428   9.505  1.5635  0.2928 -0.7557
  156MOL0     C21402   2.164   9.478   9.619  0.1832  0.8730  0.4608
  156MOL0     C21403   2.020   9.461   9.569 -0.2632  0.4126 -0.1119
  156MOL0     C21404   1.916   9.505   9.673 -0.1466  0.9462  0.4083
  156MOL0     C21405   1.779   9.473   9.613 -0.1882 -0.2280  0.1446
  156MOL0     C21406   1.664   9.529   9.707 -0.2885  0.5402 -0.5017
  156MOL0     N21407   1.541   9.454   9.703  0.9998  0.0825  0.0129
  156MOL0     C21408   1.449   9.433   9.598  0.4690 -0.1765  0.7832
  156MOL0     C21409   1.351   9.358   9.658  0.7585 -0.3821 -0.3084
  156MOL0     C21410   1.221   9.321   9.584 -0.2227  0.1077 -0.1185
  156MOL0     C21411   1.100   9.410   9.632  0.8797 -0.0709  0.7023
  156MOL0     C21412   0.987   9.397   9.527  0.3433  0.1813  0.6397
  156MOL0     C21413   0.856   9.445   9.588 -0.1574 -0.0853  0.5759
  156MOL0     O21414   0.737   9.418   9.498  0.2693  0.2072 -0.2479
  156MOL0     C21415   0.612   9.456   9.557  0.6597 -0.6762 -0.4613
  156MOL0     C21416   0.593   9.524   9.680  0.1159 -0.0631 -1.1791
  156MOL0     C21417   0.467   9.574   9.725  0.2177  1.0594  0.5255
  156MOL0     C21418   0.483   9.677   9.835  0.2330 -1.1136 -0.3460
  156MOL0     C21419   0.348   9.555   9.646  0.0140  0.4728  0.5020
  156MOL0     C21420   0.202   9.590   9.681  0.1011 -0.4104 -0.4652
  156MOL0     O21421   0.167   9.616   9.810  0.0592 -0.5384 -0.7057
  156MOL0     C21422   0.043   9.672   9.840  0.4322  0.2641  0.5570
  156MOL0     C21423  -0.079   9.609   9.823  0.5525 -0.1609  0.8914
  156MOL0     C21424  -0.192   9.670   9.853  0.7330  0.6932 -0.6843
  156MOL0     C21425  -0.196   9.793   9.917 -0.1351  0.3261  0.6325
  156MOL0     O21426  -0.311   9.868   9.944 -0.2760  0.2958 -0.3440
  156MOL0     C21427  -0.438   9.804   9.959  0.1677  0.3071 -0.3686
  156MOL0     C21428  -0.522   9.908  10.036  0.3640 -0.1645 -0.4932
  156MOL0     C21429  -0.534  10.045   9.961  0.6263 -0.1950 -0.3391
  156MOL0     C21430  -0.645  10.039   9.863 -0.8390  0.8335 -0.2847
  156MOL0     C21431  -0.715  10.170   9.832 -0.2324 -0.1677  0.0081
  156MOL0     C21432  -0.789  10.244   9.938 -0.2883  0.1910 -0.2362
  156MOL0     C21433  -0.910  10.158  10.002  0.0516  0.0165 -0.1514
  156MOL0     C21434  -0.999  10.248  10.069 -1.3443 -0.3170  0.2029
  156MOL0    Cl21435  -1.106  10.339   9.972  0.2040  0.1424  0.3902
  156MOL0     C21436  -0.076   9.863   9.932 -0.2962  0.5914 -0.5899
  156MOL0     C21437   0.045   9.799   9.897 -0.2396 -0.5214  0.4707
  156MOL0     O21438   0.127   9.602   9.586  0.7755  0.2178  0.5705
  156MOL0     C21439   0.376   9.481   9.530  0.7442  0.4418  0.3287
  156MOL0     C21440   0.500   9.435   9.479 -0.4465 -0.2321 -0.6830
  156MOL0     N21441   1.386   9.326   9.788 -1.0106 -0.4465 -1.0235
  156MOL0     N21442   1.488   9.400   9.822  0.3427 -0.2772  1.0358
  156MOL0     C21443   2.750   9.216   9.374 -0.5970 -0.0048 -0.4354
  156MOL0     C21444   2.856   9.194   9.304 -0.1835  0.6243 -0.6098
  156MOL0     C21445   3.136   9.135   8.964  0.0234  0.5143  0.6685
  156MOL0     C21446   3.234   9.099   9.059 -0.3872  0.3093 -0.0375
  156MOL0     C21447   3.358   9.038   9.027 -0.9806 -0.8559 -0.0436
  156MOL0     C21448   3.384   9.007   8.895 -0.8354  0.4427 -0.2189
  156MOL0     O21449   3.509   8.956   8.869 -0.0762  0.3513 -0.6312
  156MOL0     C21450   3.517   8.889   8.742  0.1096 -0.1889  0.5304
  156MOL0     C21451   3.666   8.838   8.721  0.1270 -1.0758 -0.4592
  156MOL0     C21452   3.662   8.729   8.623 -0.2470  0.1577  0.3019
  156MOL0     C21453   3.775   8.738   8.514 -0.7195  0.2057 -0.2850
  156MOL0     C21454   3.909   8.771   8.567  0.1709 -0.0318  0.3415
  156MOL0     C21455   4.016   8.813   8.593  0.0092 -0.4213 -0.6072
  156MOL0     C21456   3.277   9.028   8.803  0.3371 -0.1725  0.2961
  156MOL0     C21457   3.151   9.085   8.833 -0.6730  0.5107  0.4953
  156MOL0     C21458   3.045   9.091   8.719  0.1077  0.0943 -0.4602
  156MOL0     H21459   2.810   9.436   9.070 -1.5134 -0.5583 -0.2984
  156MOL0     H21460   2.633   9.468   9.181  1.6750 -0.7672 -2.0419
  156MOL0     H21461   2.439   9.477   9.311  0.2615 -2.8377 -0.5332
  156MOL0     H21462   2.576   9.544   9.406 -0.8783  1.6661 -0.8510
  156MOL0     H21463   2.435   9.441   9.616 -2.8859  2.0217  2.7306
  156MOL0     H21464   2.371   9.593   9.543  3.2249  0.3814 -0.2208
  156MOL0     H21465   2.224   9.454   9.403  0.4287  3.3529  0.2345
  156MOL0     H21466   2.266   9.320   9.507  1.4058  0.2681  2.2942
  156MOL0     H21467   2.182   9.408   9.700 -0.7121 -2.6462 -2.1448
  156MOL0     H21468   2.195   9.577   9.656 -0.5374  0.1998  3.0470
  156MOL0     H21469   2.002   9.356   9.543 -1.2283  0.8454 -1.2635
  156MOL0     H21470   2.012   9.521   9.478  1.0955 -0.9281 -1.1687
  156MOL0     H21471   1.931   9.460   9.772  0.2948  1.5890  0.6358
  156MOL0     H21472   1.939   9.611   9.679  2.5769  0.5145 -0.8719
  156MOL0     H21473   1.766   9.364   9.612 -1.8932 -0.1477  2.8915
  156MOL0     H21474   1.768   9.502   9.508 -1.5062  1.4763  0.7041
  156MOL0     H21475   1.698   9.532   9.811 -1.9140  2.0671  0.0344
  156MOL0     H21476   1.640   9.632   9.679 -2.9410  0.3751  0.8289
  156MOL0     H21477   1.445   9.489   9.505  4.8115 -4.9785 -2.9012
  156MOL0     H21478   1.196   9.214   9.593  2.1606 -0.4597  0.4123
  156MOL0     H21479   1.243   9.337   9.478 -0.9039 -2.2710 -0.6854
  156MOL0     H21480   1.065   9.375   9.729 -1.1078  0.0662  0.0659
  156MOL0     H21481   1.126   9.516   9.645  0.5712 -0.0436  1.1006
  156MOL0     H21482   1.014   9.433   9.427 -0.9299 -1.6171 -0.3944
  156MOL0     H21483   0.985   9.289   9.509  4.2408  0.1405 -0.5313
  156MOL0     H21484   0.838   9.387   9.679  2.3864 -0.2135  1.0785
  156MOL0     H21485   0.859   9.548   9.625 -0.4204 -0.2637  1.1113
  156MOL0     H21486   0.674   9.549   9.748 -0.8192  1.7509 -0.6583
  156MOL0     H21487   0.403   9.750   9.845  1.1210 -0.3368  1.5648
  156MOL0     H21488   0.569   9.738   9.806  0.6028 -1.2662  0.3986
  156MOL0     H21489   0.503   9.628   9.931  0.7390 -0.8441 -0.3074
  156MOL0     H21490  -0.080   9.510   9.779  2.6719 -0.0999  0.5865
  156MOL0     H21491  -0.283   9.613   9.834 -0.2138  1.6729  0.6908
  156MOL0     H21492  -0.475   9.765   9.864 -0.8530 -2.9332  1.1991
  156MOL0     H21493  -0.415   9.714  10.018  0.4539  0.1939 -0.6513
  156MOL0     H21494  -0.623   9.869  10.054  0.3992  0.1921  0.5191
  156MOL0     H21495  -0.478   9.924  10.135 -3.5629 -2.0808  1.8092
  156MOL0     H21496  -0.439  10.085   9.924  0.7755  2.1049  2.2330
  156MOL0     H21497  -0.560  10.115  10.041 -2.1580 -2.7965  1.2499
  156MOL0     H21498  -0.724   9.971   9.897 -1.4032  1.8399  0.4855
  156MOL0     H21499  -0.601  10.003   9.770  1.4199  1.1859  0.5908
  156MOL0     H21500  -0.650  10.245   9.786 -1.1106  1.7220  1.6772
  156MOL0     H21501  -0.800  10.158   9.764  1.0415  0.8811 -1.8485
  156MOL0     H21502  -0.824  10.342   9.905  0.3956  0.2254 -0.8915
  156MOL0     H21503  -0.717  10.273  10.015  1.8646 -1.4416 -1.5334
  156MOL0     H21504  -0.871  10.096  10.082 -0.3707  1.8847  1.5831
  156MOL0     H21505  -0.963  10.104   9.923  0.5555  1.1195 -1.2873
  156MOL0     H21506  -0.936  10.314  10.130  0.8757 -0.9954 -1.2114
  156MOL0     H21507  -1.048  10.176  10.135  0.7322 -0.6032  1.5265
  156MOL0     H21508  -0.069   9.967   9.963 -0.9889  0.7041 -0.8131
  156MOL0     H21509   0.132   9.864   9.900 -1.3556  0.9740  1.3998
  156MOL0     H21510   0.299   9.458   9.456  0.8801  4.3111 -1.2505
  156MOL0     H21511   0.499   9.379   9.386  0.0525 -1.6618  0.1439
  156MOL0     H21512   2.727   9.157   9.462  3.0699  0.2597  0.8274
  156MOL0     H21513   2.904   9.105   9.344 -2.9302 -1.2527 -1.2423
  156MOL0     H21514   3.217   9.126   9.163 -0.7983 -1.7965  0.4804
  156MOL0     H21515   3.439   9.017   9.096 -1.4412  0.3742  0.9259
  156MOL0     H21516   3.450   8.803   8.739 -2.6237  1.7959  0.3645
  156MOL0     H21517   3.486   8.953   8.659  1.3093  0.5798  0.6422
  156MOL0     H21518   3.704   8.803   8.818 -3.4024 -0.1687  1.4102
  156MOL0     H21519   3.720   8.925   8.682  1.6287 -1.9158 -0.3531
  156MOL0     H21520   3.691   8.640   8.680  0.3889  0.6008  0.6857
  156MOL0     H21521   3.572   8.704   8.566 -1.7257  0.7813  2.2930
  156MOL0     H21522   3.753   8.810   8.435  0.4033 -0.5722 -1.3299
  156MOL0     H21523   3.770   8.642   8.463 -0.0969 -0.9046  1.6203
  156MOL0     H21524   4.094   8.873   8.634 -2.6956  2.3121  0.9369
  156MOL0     H21525   3.289   9.001   8.699  0.7933  0.7099  0.1155
  156MOL0     H21526   3.027   9.196   8.694 -0.5543 -0.3361 -1.9279
  156MOL0     H21527   3.070   9.044   8.623  1.7333 -3.4286  1.4971
  156MOL0     H21528   2.951   9.043   8.747  0.2648  0.0935  0.0784
  157MOL0     O21529   5.502   5.387   3.700 -0.5116 -0.2810 -0.1325
  157MOL0     C21530   5.503   5.274   3.647 -0.3993 -0.7405 -0.9575
  157MOL0     O21531   5.619   5.191   3.648  0.0994 -0.4626  0.4353
  157MOL0     C21532   5.745   5.233   3.682 -0.1873 -0.3973  0.0769
  157MOL0     C21533   5.794   5.364   3.680 -0.2360  0.0798  0.1837
  157MOL0     C21534   5.935   5.388   3.696 -0.7157 -0.0404  0.1297
  157MOL0     C21535   6.025   5.280   3.727  0.2601  0.0835  0.2800
  157MOL0     O21536   6.164   5.298   3.731  0.3246  0.2014 -0.7402
  157MOL0     C21537   6.223   5.422   3.726 -0.0239 -0.0925  0.6602
  157MOL0     C21538   6.371   5.401   3.707 -0.2015 -0.2209 -0.4789
  157MOL0     C21539   6.405   5.326   3.583 -0.0562  0.1621 -0.0363
  157MOL0     C21540   6.563   5.336   3.566  0.4964  0.5729 -1.3483
  157MOL0     C21541   6.623   5.228   3.648  0.0460 -0.5104  0.4245
  157MOL0     C21542   6.778   5.223   3.618  0.2143 -0.0848  0.0759
  157MOL0     C21543   6.854   5.134   3.720 -0.4632 -0.0067 -0.2177
  157MOL0     C21544   7.001   5.127   3.672  0.1734  0.4507  0.4959
  157MOL0     N21545   7.074   5.022   3.749  0.3191 -0.9018 -0.1722
  157MOL0     C21546   7.118   5.029   3.886  0.4267 -0.9228 -0.2229
  157MOL0     C21547   7.173   4.909   3.913  0.2674  0.3287 -0.1330
  157MOL0     C21548   7.216   4.880   4.054  0.2371  0.1517  0.2052
  157MOL0     C21549   7.319   4.766   4.061 -0.4797 -0.1667  0.2806
  157MOL0     C21550   7.358   4.714   4.205 -0.1783  0.1004 -0.1984
  157MOL0     C21551   7.512   4.681   4.224  0.3966  0.3007  0.7688
  157MOL0     O21552   7.509   4.594   4.335  0.8340  0.6635 -0.2528
  157MOL0     C21553   7.629   4.547   4.390 -1.0006  0.4338  0.1604
  157MOL0     C21554   7.754   4.600   4.351 -0.2287  0.6207 -0.7377
  157MOL0     C21555   7.873   4.560   4.423 -0.6997  0.6954  0.3910
  157MOL0     C21556   8.007   4.598   4.362  0.0023 -0.2814  0.4339
  157MOL0     C21557   7.859   4.456   4.519 -0.2363  0.8942  0.6386
  157MOL0     C21558   7.977   4.409   4.597 -0.0360 -0.2966  0.9689
  157MOL0     O21559   8.055   4.485   4.670  0.6868 -0.5275 -0.2454
  157MOL0     C21560   8.012   4.613   4.699 -0.1130  0.9361  0.5874
  157MOL0     C21561   7.896   4.620   4.783 -0.4410  0.2369 -0.4363
  157MOL0     C21562   7.843   4.742   4.827  0.0277  0.1781 -0.7189
  157MOL0     C21563   7.920   4.863   4.814  0.0156  0.5768 -0.7141
  157MOL0     O21564   7.897   4.990   4.854 -0.0053  1.0813  0.0482
  157MOL0     C21565   7.766   5.020   4.902  1.0845  0.4984 -0.8517
  157MOL0     C21566   7.730   5.175   4.897  0.3229 -0.3142  0.2548
  157MOL0     C21567   7.579   5.205   4.909 -0.3382 -0.3091  0.2377
  157MOL0     C21568   7.561   5.261   5.049 -0.1761 -0.1379 -1.0676
  157MOL0     C21569   7.420   5.310   5.083  0.6885 -0.5838  0.0591
  157MOL0     C21570   7.319   5.194   5.093  0.2409  1.4129 -0.0270
  157MOL0     C21571   7.175   5.226   5.138 -0.1799 -0.9447  0.1419
  157MOL0     C21572   7.085   5.105   5.163  0.0530  0.5914  0.1357
  157MOL0    Cl21573   7.103   5.063   5.333  0.2150  0.3632 -0.4716
  157MOL0     C21574   8.037   4.854   4.734  0.6624  0.3506  0.2629
  157MOL0     C21575   8.087   4.731   4.683 -0.7262  0.5775  0.6697
  157MOL0     O21576   7.996   4.286   4.576 -0.3235 -0.0400  0.0699
  157MOL0     C21577   7.739   4.404   4.559 -0.7701 -0.3981 -0.7984
  157MOL0     C21578   7.620   4.452   4.499 -0.7597 -0.4322  0.2173
  157MOL0     N21579   7.157   4.830   3.803  0.6949  0.0703  0.3801
  157MOL0     N21580   7.102   4.896   3.707  0.6650 -0.6244 -0.5124
  157MOL0     C21581   5.975   5.151   3.736  0.8782  0.7663 -0.1968
  157MOL0     C21582   5.840   5.128   3.696 -0.8142 -0.2509  0.3489
  157MOL0     C21583   5.387   5.219   3.578  0.2074  0.5793  1.5289
  157MOL0     C21584   5.408   5.089   3.518 -0.1425  0.4138  0.8237
  157MOL0     C21585   5.301   5.020   3.456  0.6356  0.4861  0.3931
  157MOL0     C21586   5.174   5.082   3.453 -0.5142 -0.3375  0.4157
  157MOL0     O21587   5.053   5.030   3.409  0.0356 -0.1151 -0.1908
  157MOL0     C21588   5.059   4.899   3.361 -0.2318  1.0647 -0.3667
  157MOL0     C21589   4.918   4.842   3.366  0.0308 -0.1347 -0.4087
  157MOL0     C21590   4.845   4.849   3.507  0.3866  0.0396  0.1869
  157MOL0     C21591   4.694   4.801   3.485  0.3371  0.8286 -0.5764
  157MOL0     C21592   4.599   4.890   3.550  0.0716  0.4923  0.5802
  157MOL0     C21593   4.509   4.957   3.610  0.3130  0.1781  0.4655
  157MOL0     C21594   5.151   5.211   3.502 -0.5848 -0.9425 -0.8877
  157MOL0     C21595   5.251   5.271   3.570 -1.0958 -0.1025 -0.2802
  157MOL0     C21596   5.229   5.404   3.621 -0.5465  0.7760  0.3751
  157MOL0     H21597   5.736   5.455   3.668 -0.3126  0.2091  1.4252
  157MOL0     H21598   5.976   5.488   3.695  1.7416 -0.9571  1.8218
  157MOL0     H21599   6.196   5.475   3.817  0.2158 -2.7885  2.4115
  157MOL0     H21600   6.176   5.464   3.636 -2.4175 -0.7901  1.5153
  157MOL0     H21601   6.411   5.503   3.705 -1.0191  0.0985 -1.0189
  157MOL0     H21602   6.422   5.352   3.790 -1.4453  0.1295  0.5184
  157MOL0     H21603   6.366   5.224   3.584 -0.9844  0.4371 -2.3574
  157MOL0     H21604   6.348   5.371   3.501  0.0131  1.2497  0.4905
  157MOL0     H21605   6.581   5.325   3.459 -1.0074 -0.7982 -1.5041
  157MOL0     H21606   6.598   5.437   3.590  0.1549  0.3102  0.3850
  157MOL0     H21607   6.583   5.127   3.638  0.5822 -0.5647 -1.7248
  157MOL0     H21608   6.614   5.254   3.754  0.5927  0.2206  0.3008
  157MOL0     H21609   6.788   5.203   3.511 -0.4840 -0.0476  0.0013
  157MOL0     H21610   6.824   5.321   3.633  1.8176 -0.8199  0.1689
  157MOL0     H21611   6.812   5.034   3.726  1.1247 -0.8119 -1.7646
  157MOL0     H21612   6.869   5.175   3.821  2.9437 -1.6835  0.0942
  157MOL0     H21613   7.003   5.106   3.565 -1.2946 -2.5588  0.9854
  157MOL0     H21614   7.054   5.222   3.689  0.2610  0.5140 -0.1077
  157MOL0     H21615   7.106   5.102   3.965  0.1241 -1.2823  0.0640
  157MOL0     H21616   7.137   4.844   4.120 -0.7267  0.1606 -0.9311
  157MOL0     H21617   7.259   4.974   4.091  2.3234  0.3874 -2.4848
  157MOL0     H21618   7.276   4.686   4.001  1.9192  0.2935 -2.2691
  157MOL0     H21619   7.411   4.785   4.004 -0.1821 -1.6275  0.2173
  157MOL0     H21620   7.343   4.790   4.283  0.6469 -0.2485  0.3162
  157MOL0     H21621   7.301   4.625   4.230 -0.5451  0.2389 -0.5290
  157MOL0     H21622   7.550   4.626   4.138  1.6795  0.7257  1.0384
  157MOL0     H21623   7.570   4.774   4.236 -1.4609  1.4572  1.1760
  157MOL0     H21624   7.772   4.657   4.260 -0.7706  0.3584 -1.0164
  157MOL0     H21625   8.005   4.652   4.267  2.9524 -1.3150 -0.3322
  157MOL0     H21626   8.054   4.503   4.332 -0.1913 -0.0754 -0.5810
  157MOL0     H21627   8.063   4.654   4.437  1.0633  1.2678 -1.4201
  157MOL0     H21628   7.851   4.526   4.812 -2.2000  0.5050 -2.0990
  157MOL0     H21629   7.744   4.752   4.870 -0.7319 -1.0579 -2.1179
  157MOL0     H21630   7.697   4.960   4.842  4.2242 -1.9287 -2.3164
  157MOL0     H21631   7.757   4.979   5.004  4.9490 -0.3734 -0.6985
  157MOL0     H21632   7.789   5.226   4.974  1.8008  0.3798 -1.2529
  157MOL0     H21633   7.761   5.220   4.802  1.4210  0.6338  1.0168
  157MOL0     H21634   7.527   5.110   4.914 -0.6666 -0.0901  0.9934
  157MOL0     H21635   7.530   5.272   4.837  1.2647  0.2951 -0.3459
  157MOL0     H21636   7.623   5.348   5.073  2.2528 -2.1422  0.4541
  157MOL0     H21637   7.592   5.184   5.120 -4.1570  0.2997  1.4711
  157MOL0     H21638   7.418   5.356   5.182 -1.4705  0.0706 -0.2281
  157MOL0     H21639   7.394   5.391   5.013 -2.2581 -2.2399 -0.9542
  157MOL0     H21640   7.360   5.123   5.166 -0.6345 -0.0748 -0.9257
  157MOL0     H21641   7.308   5.146   4.996 -0.6079  1.4994  0.0165
  157MOL0     H21642   7.131   5.280   5.054  3.5287  1.3290 -0.5565
  157MOL0     H21643   7.174   5.289   5.227  1.3823 -0.5571 -0.0953
  157MOL0     H21644   7.137   5.023   5.114 -0.1001 -0.0629  1.0489
  157MOL0     H21645   6.983   5.115   5.123  0.0414 -1.0239 -0.2960
  157MOL0     H21646   8.090   4.948   4.721  0.8527  0.4326  1.5342
  157MOL0     H21647   8.178   4.719   4.625 -0.9245 -0.0224  0.4706
  157MOL0     H21648   7.728   4.335   4.642  0.3020 -0.8775 -1.0321
  157MOL0     H21649   7.521   4.413   4.522  0.9110 -4.9756  0.7058
  157MOL0     H21650   6.033   5.060   3.741 -0.3531  0.0185  2.0977
  157MOL0     H21651   5.804   5.026   3.699 -3.3114  0.5485 -0.2527
  157MOL0     H21652   5.504   5.038   3.530  0.3484  1.3150  0.8117
  157MOL0     H21653   5.316   4.924   3.406 -0.6638 -0.2857  1.4091
  157MOL0     H21654   5.093   4.892   3.257  1.5051  0.8801  0.1781
  157MOL0     H21655   5.118   4.832   3.424 -1.7734 -1.0010 -1.0059
  157MOL0     H21656   4.910   4.740   3.326 -0.7510  0.8822 -3.0246
  157MOL0     H21657   4.857   4.903   3.299  0.8045 -1.6719 -2.6433
  157MOL0     H21658   4.903   4.787   3.576 -0.4841 -2.3948 -1.1426
  157MOL0     H21659   4.839   4.949   3.552 -0.3001  0.4743 -0.8280
  157MOL0     H21660   4.668   4.704   3.528 -0.1086  0.5515 -1.4306
  157MOL0     H21661   4.675   4.801   3.377  1.3609 -1.2405 -0.8193
  157MOL0     H21662   4.429   5.007   3.660 -0.8496 -1.0720 -0.0769
  157MOL0     H21663   5.059   5.268   3.503 -1.2161 -1.9379  0.6482
  157MOL0     H21664   5.273   5.490   3.569 -1.5106  2.1416  1.7420
  157MOL0     H21665   5.125   5.438   3.612 -0.6089  0.8318  1.2781
  157MOL0     H21666   5.263   5.409   3.725 -1.4595  0.8911  0.6750
  158MOL0     O21667  10.913   9.038   5.092 -0.1068  0.0491 -0.6940
  158MOL0     C21668  10.831   8.991   5.171 -0.6830  0.1420 -0.0538
  158MOL0     O21669  10.855   8.963   5.301  0.3850 -0.6440  0.0337
  158MOL0     C21670  10.975   9.003   5.355 -0.3473  0.5344 -0.5003
  158MOL0     C21671  10.968   9.066   5.480 -0.0392  0.3669 -0.7910
  158MOL0     C21672  11.079   9.123   5.547 -0.2427  0.3363 -0.2611
  158MOL0     C21673  11.207   9.115   5.487 -0.0218 -0.6215 -0.5236
  158MOL0     O21674  11.311   9.154   5.564 -0.5726 -0.6552 -0.2082
  158MOL0     C21675  11.450   9.145   5.518  0.7896  0.9213  0.3554
  158MOL0     C21676  11.527   9.180   5.633 -0.9425  0.0975 -0.2161
  158MOL0     C21677  11.664   9.112   5.642 -0.1795 -1.1391 -0.4757
  158MOL0     C21678  11.754   9.181   5.757  0.4872 -0.0226  1.0224
  158MOL0     C21679  11.899   9.140   5.764 -0.3689 -0.6144  0.8387
  158MOL0     C21680  11.972   9.198   5.643 -0.5120 -0.5017  0.5453
  158MOL0     C21681  12.104   9.122   5.612  0.0562 -0.1959 -0.6092
  158MOL0     C21682  12.175   9.168   5.480  0.7901 -0.4177  0.1914
  158MOL0     N21683  12.319   9.139   5.480 -0.3268  0.9654  0.3231
  158MOL0     C21684  12.426   9.212   5.529  0.1004  0.0909 -0.0099
  158MOL0     C21685  12.543   9.157   5.487  0.7961  0.5884  0.3791
  158MOL0     C21686  12.680   9.199   5.530  0.1644  0.2226  0.2473
  158MOL0     C21687  12.780   9.101   5.477  0.1333  0.3008  0.0142
  158MOL0     C21688  12.912   9.139   5.525 -0.5663 -0.0969  0.4042
  158MOL0     C21689  13.023   9.057   5.460  0.3892 -0.2699 -0.9376
  158MOL0     O21690  13.141   9.136   5.500  1.0157 -0.1717  0.0232
  158MOL0     C21691  13.231   9.175   5.411 -0.4134  0.5080 -0.2394
  158MOL0     C21692  13.196   9.205   5.280  0.4413 -0.3672 -0.8760
  158MOL0     C21693  13.291   9.255   5.180  0.2675  0.2900 -1.6357
  158MOL0     C21694  13.252   9.266   5.040 -0.5485 -0.3890 -0.9809
  158MOL0     C21695  13.428   9.267   5.215 -0.2598  0.3995 -0.3061
  158MOL0     C21696  13.537   9.310   5.133 -0.2920 -0.0357 -0.9760
  158MOL0     O21697  13.663   9.298   5.184  0.9736  1.2164  0.6404
  158MOL0     C21698  13.774   9.337   5.118  0.0236 -0.8075 -1.3504
  158MOL0     C21699  13.811   9.326   4.980 -0.7974  0.5117 -0.7605
  158MOL0     C21700  13.935   9.381   4.934  0.5723  0.6906  0.3003
  158MOL0     C21701  14.019   9.446   5.021  0.1322  0.2586  0.0824
  158MOL0     O21702  14.139   9.499   4.968  0.4030 -0.0149 -0.1261
  158MOL0     C21703  14.194   9.626   5.025 -0.3174  0.4271 -0.5810
  158MOL0     C21704  14.315   9.673   4.948 -0.1544  0.2208 -0.1728
  158MOL0     C21705  14.349   9.804   5.006  0.1175 -0.6997  0.6264
  158MOL0     C21706  14.455   9.894   4.953 -0.6451  0.1673  0.3109
  158MOL0     C21707  14.598   9.841   4.949 -0.4435 -0.8677 -0.0030
  158MOL0     C21708  14.671   9.824   5.089  0.2478 -0.4152  0.8442
  158MOL0     C21709  14.799   9.748   5.062 -0.8139  0.3305  0.0023
  158MOL0     C21710  14.913   9.820   4.981  0.9366 -0.2340  0.2727
  158MOL0    Cl21711  15.044   9.708   4.935  0.0366  0.0220 -0.1391
  158MOL0     C21712  13.982   9.454   5.157  0.3289 -0.2723 -0.6032
  158MOL0     C21713  13.854   9.409   5.200  0.1417 -0.4293  1.1221
  158MOL0     O21714  13.519   9.354   5.024  0.2266 -0.1434  0.7615
  158MOL0     C21715  13.458   9.235   5.349  0.1297  1.5703 -0.9352
  158MOL0     C21716  13.366   9.191   5.448  0.9173 -1.0830  0.2914
  158MOL0     N21717  12.504   9.057   5.407  0.1149  0.2398 -0.6447
  158MOL0     N21718  12.379   9.037   5.410  0.7202 -0.0449  0.1840
  158MOL0     C21719  11.227   9.045   5.364  0.4878 -0.1140 -0.1960
  158MOL0     C21720  11.105   8.993   5.300 -0.9248  0.2477  0.3051
  158MOL0     C21721  10.699   8.943   5.120 -0.4442  0.9771 -0.1054
  158MOL0     C21722  10.619   9.039   5.062 -0.6912 -0.4736 -0.2590
  158MOL0     C21723  10.497   8.992   4.998 -0.7157 -0.2158 -0.2287
  158MOL0     C21724  10.458   8.852   5.002 -0.7419 -0.2458  0.2308
  158MOL0     O21725  10.341   8.814   4.945 -0.1020 -0.5242 -0.2686
  158MOL0     C21726  10.296   8.681   4.956 -0.0448 -0.5769  1.0549
  158MOL0     C21727  10.172   8.660   4.866  0.3147 -0.7548 -0.3890
  158MOL0     C21728  10.182   8.715   4.728 -0.4072  0.0510 -0.2962
  158MOL0     C21729  10.051   8.705   4.650  0.1322 -1.2849 -0.4679
  158MOL0     C21730  10.050   8.592   4.563 -0.0543 -0.9689  0.6117
  158MOL0     C21731  10.045   8.504   4.480  0.4189  0.4266 -0.7459
  158MOL0     C21732  10.538   8.775   5.075 -0.5267  0.3360 -0.0041
  158MOL0     C21733  10.653   8.812   5.136  0.1740  0.0462  0.6429
  158MOL0     C21734  10.728   8.694   5.199 -0.8510  0.1677  0.1154
  158MOL0     H21735  10.872   9.085   5.527 -0.0649  0.0485 -0.7148
  158MOL0     H21736  11.068   9.164   5.647  1.6512 -1.4901  0.7897
  158MOL0     H21737  11.468   9.207   5.430  1.2424  0.1828 -0.0883
  158MOL0     H21738  11.481   9.042   5.499 -1.9308 -0.5514  2.9140
  158MOL0     H21739  11.530   9.289   5.644 -1.2045  0.0839 -0.0005
  158MOL0     H21740  11.480   9.146   5.726  0.4763  2.2316  1.3988
  158MOL0     H21741  11.659   9.006   5.672 -0.9182 -1.5048 -1.8461
  158MOL0     H21742  11.715   9.126   5.546 -1.2624  1.0453 -0.7778
  158MOL0     H21743  11.755   9.289   5.744 -3.2932 -0.2019 -2.8063
  158MOL0     H21744  11.711   9.159   5.855  1.1649  1.1049  1.5888
  158MOL0     H21745  11.899   9.031   5.758  0.2703 -0.6546  1.5284
  158MOL0     H21746  11.937   9.182   5.857 -2.3704  2.3513  0.4889
  158MOL0     H21747  11.919   9.185   5.548 -0.6258 -1.5061  0.7271
  158MOL0     H21748  11.989   9.305   5.660  0.1196 -0.1305 -2.0406
  158MOL0     H21749  12.074   9.017   5.618 -1.3966  0.2562  0.5770
  158MOL0     H21750  12.164   9.132   5.703 -1.2767 -1.0302  0.4021
  158MOL0     H21751  12.124   9.127   5.392  3.8119 -2.1252 -0.9009
  158MOL0     H21752  12.175   9.276   5.496 -0.3535 -0.8508  4.3919
  158MOL0     H21753  12.414   9.292   5.602  3.2958 -1.5600  2.6113
  158MOL0     H21754  12.681   9.209   5.638 -1.1164  0.1947  0.2803
  158MOL0     H21755  12.684   9.301   5.490  2.3945  0.6748  1.4954
  158MOL0     H21756  12.750   9.001   5.509 -1.4990  0.6551 -0.3194
  158MOL0     H21757  12.771   9.116   5.369 -0.2815  2.5111  0.2921
  158MOL0     H21758  12.929   9.243   5.496  2.0244 -1.1664 -2.5789
  158MOL0     H21759  12.922   9.136   5.634  0.4927  0.6357  0.3487
  158MOL0     H21760  13.022   8.972   5.528  0.5786  0.3845 -0.0886
  158MOL0     H21761  13.016   9.026   5.355 -4.5674  2.6836 -1.8236
  158MOL0     H21762  13.093   9.190   5.252  1.0347 -1.1462 -2.8574
  158MOL0     H21763  13.248   9.372   5.010  2.6128 -0.0899 -0.7442
  158MOL0     H21764  13.154   9.221   5.023 -0.7437 -0.6375  0.6943
  158MOL0     H21765  13.327   9.222   4.973 -0.7079 -1.4771 -0.4582
  158MOL0     H21766  13.744   9.298   4.899 -1.7858  3.6663 -1.1726
  158MOL0     H21767  13.972   9.363   4.833  1.0353  0.2049  0.5491
  158MOL0     H21768  14.110   9.695   5.014 -0.1309  0.4793 -1.7089
  158MOL0     H21769  14.217   9.619   5.132 -1.8782  2.7190 -0.0050
  158MOL0     H21770  14.404   9.612   4.966  0.4714  1.2700  0.4199
  158MOL0     H21771  14.295   9.684   4.841 -0.7450  0.2069 -0.0670
  158MOL0     H21772  14.387   9.786   5.107  4.7543  2.5526 -0.2226
  158MOL0     H21773  14.256   9.861   5.011  0.2519 -0.2240 -1.2786
  158MOL0     H21774  14.454   9.990   5.004  1.2182  0.8904 -0.9285
  158MOL0     H21775  14.423   9.912   4.850 -4.2198  1.1827  1.4560
  158MOL0     H21776  14.600   9.745   4.896  0.7532 -1.2443  0.6872
  158MOL0     H21777  14.664   9.911   4.897  0.2197  0.2475  2.2150
  158MOL0     H21778  14.614   9.764   5.161 -0.6762  0.5134  0.9095
  158MOL0     H21779  14.677   9.923   5.135 -0.6058 -0.7351  1.6790
  158MOL0     H21780  14.772   9.653   5.015 -1.0169 -0.4418  1.6051
  158MOL0     H21781  14.835   9.723   5.162  2.5206  1.6125 -0.7569
  158MOL0     H21782  14.958   9.898   5.043 -0.5368 -0.5997  1.8885
  158MOL0     H21783  14.857   9.864   4.898 -1.1799  0.7561  2.1162
  158MOL0     H21784  14.043   9.498   5.235 -0.9921  0.2346  0.1774
  158MOL0     H21785  13.822   9.443   5.299 -0.3521 -0.4687  0.9767
  158MOL0     H21786  13.560   9.250   5.384 -0.1329  1.4151 -0.0672
  158MOL0     H21787  13.391   9.169   5.551  3.4602  0.8968  0.2068
  158MOL0     H21788  11.324   9.029   5.319 -0.8143 -4.7752 -2.0185
  158MOL0     H21789  11.114   8.939   5.207 -0.8088 -0.5277  0.7585
  158MOL0     H21790  10.653   9.141   5.044  1.7723 -1.4306 -1.4446
  158MOL0     H21791  10.437   9.065   4.945  0.1640 -0.5341 -1.7191
  158MOL0     H21792  10.371   8.608   4.927  0.4241 -0.0430  0.9057
  158MOL0     H21793  10.254   8.654   5.054 -1.4192 -1.7757  0.1806
  158MOL0     H21794  10.078   8.693   4.912 -0.1799 -1.2996 -0.9945
  158MOL0     H21795  10.157   8.552   4.857 -0.6395 -0.6688  0.0800
  158MOL0     H21796  10.229   8.813   4.730  1.4826 -0.7812 -1.5276
  158MOL0     H21797  10.258   8.663   4.669 -0.2559  1.9009 -1.8436
  158MOL0     H21798  10.034   8.805   4.608  0.3592 -1.1289 -0.1931
  158MOL0     H21799   9.966   8.698   4.719 -0.3858 -1.8520 -1.1407
  158MOL0     H21800  10.027   8.429   4.405  3.6103  0.1235 -1.3580
  158MOL0     H21801  10.507   8.671   5.078  2.8879 -0.8070 -0.2751
  158MOL0     H21802  10.729   8.719   5.305 -4.0928  2.6876 -0.2645
  158MOL0     H21803  10.696   8.590   5.193  2.4639 -1.0228  1.3412
  158MOL0     H21804  10.827   8.693   5.153 -0.5170 -1.4637  0.8061
  159MOL0     O21805   5.012   3.744   9.010  0.7415  0.1455  0.6704
  159MOL0     C21806   4.958   3.647   9.058 -0.1804  0.8064  0.1334
  159MOL0     O21807   4.951   3.622   9.194  0.7327 -0.3064 -0.4598
  159MOL0     C21808   5.049   3.679   9.276  0.0482  0.0289 -0.0090
  159MOL0     C21809   5.180   3.702   9.230  0.0399  0.4517 -0.6473
  159MOL0     C21810   5.275   3.762   9.312 -0.1018 -0.2654 -0.4635
  159MOL0     C21811   5.236   3.796   9.446  0.1608  0.2103  0.8885
  159MOL0     O21812   5.316   3.848   9.542 -0.3202 -0.2483 -0.3111
  159MOL0     C21813   5.427   3.928   9.500 -0.8394  0.7502 -1.5229
  159MOL0     C21814   5.405   4.068   9.564  0.6540  0.2449  0.1158
  159MOL0     C21815   5.444   4.066   9.709 -0.6932 -0.3628 -0.5302
  159MOL0     C21816   5.419   4.198   9.774  0.7289 -1.8855 -0.9235
  159MOL0     C21817   5.500   4.226   9.901  0.4581  0.3925  0.7236
  159MOL0     C21818   5.443   4.335   9.988  0.6351  0.1590 -0.8181
  159MOL0     C21819   5.538   4.345  10.113  0.1540  0.2569  0.2844
  159MOL0     C21820   5.482   4.254  10.232 -0.6725  0.0055 -0.1103
  159MOL0     N21821   5.493   4.107  10.212  0.4225  0.3709  0.4934
  159MOL0     C21822   5.610   4.049  10.218 -0.3399 -0.1284 -0.9146
  159MOL0     C21823   5.597   3.915  10.204 -0.7393  0.7502 -0.8415
  159MOL0     C21824   5.708   3.809  10.217  0.0924  0.2841 -0.4760
  159MOL0     C21825   5.688   3.705  10.340  0.3989 -0.0394  0.1717
  159MOL0     C21826   5.782   3.584  10.336  0.9174 -0.7745  0.2670
  159MOL0     C21827   5.929   3.610  10.355 -0.3462  0.6819  0.2334
  159MOL0     O21828   5.949   3.691  10.469 -0.8083  0.0523  0.4797
  159MOL0     C21829   6.073   3.679  10.533  1.0665  0.3761  0.6671
  159MOL0     C21830   6.069   3.717  10.662  0.1685 -0.0341  0.8846
  159MOL0     C21831   6.184   3.735  10.742  0.6820  0.0548 -0.1157
  159MOL0     C21832   6.166   3.784  10.879  0.4365 -0.2170 -0.9384
  159MOL0     C21833   6.314   3.694  10.687 -0.1482  0.0709 -0.1471
  159MOL0     C21834   6.440   3.699  10.756 -0.2052 -0.6872  0.3625
  159MOL0     O21835   6.557   3.689  10.687  0.2615  0.2047  0.4234
  159MOL0     C21836   6.679   3.686  10.754 -0.0763 -0.1507 -0.2763
  159MOL0     C21837   6.750   3.564  10.745 -1.1003  0.3584 -0.3339
  159MOL0     C21838   6.873   3.553  10.804  0.3515 -0.0149  0.5149
  159MOL0     C21839   6.931   3.655  10.881 -0.2668 -0.1723 -0.2014
  159MOL0     O21840   7.058   3.630  10.933  0.6291 -0.3857 -0.0717
  159MOL0     C21841   7.064   3.669  11.069 -0.3327 -0.2280  0.0971
  159MOL0     C21842   7.151   3.801  11.090 -0.2387  0.4883 -0.1417
  159MOL0     C21843   7.297   3.774  11.054 -0.0416  0.6464 -0.3461
  159MOL0     C21844   7.397   3.870  11.126 -0.3157 -0.6034 -0.4222
  159MOL0     C21845   7.535   3.845  11.078  0.3445  0.1951 -0.5405
  159MOL0     C21846   7.586   3.701  11.085  0.0456 -0.2392  0.8039
  159MOL0     C21847   7.740   3.675  11.054 -0.2671  0.7495 -0.0584
  159MOL0     C21848   7.774   3.526  11.073 -0.1299 -0.4699  0.4560
  159MOL0    Cl21849   7.670   3.427  10.962  0.1933 -0.2336 -0.4476
  159MOL0     C21850   6.856   3.778  10.893 -0.2275 -0.7564 -0.4573
  159MOL0     C21851   6.732   3.790  10.827  0.3640 -0.6012 -0.2269
  159MOL0     O21852   6.432   3.702  10.873  0.3525 -0.3629  0.2984
  159MOL0     C21853   6.315   3.661  10.552  1.3803  1.0281 -0.6679
  159MOL0     C21854   6.194   3.651  10.477  0.3501 -0.1647 -0.6786
  159MOL0     N21855   5.462   3.896  10.177 -0.7868  0.4213  0.7406
  159MOL0     N21856   5.408   4.007  10.167  0.5133 -0.3645 -0.3427
  159MOL0     C21857   5.108   3.766   9.489  0.6701 -0.9407 -0.6832
  159MOL0     C21858   5.014   3.705   9.404 -0.1774 -1.6077  0.1532
  159MOL0     C21859   4.911   3.532   8.965 -0.8803  0.1546 -0.0875
  159MOL0     C21860   4.858   3.420   9.026 -0.0999  0.0105  0.6802
  159MOL0     C21861   4.817   3.310   8.949  1.1796 -0.6781 -1.4426
  159MOL0     C21862   4.854   3.301   8.810  0.0801 -0.8833 -0.3979
  159MOL0     O21863   4.833   3.180   8.747  0.5650  0.4651  0.0231
  159MOL0     C21864   4.844   3.160   8.608  0.2453 -0.2269  1.0705
  159MOL0     C21865   4.979   3.082   8.578 -0.9576 -0.5465 -0.4043
  159MOL0     C21866   5.001   3.032   8.430  0.3158 -0.4805 -0.3876
  159MOL0     C21867   5.115   2.928   8.418  0.3372 -0.0032  0.2887
  159MOL0     C21868   5.245   2.978   8.463 -0.7676 -0.2365  0.2102
  159MOL0     C21869   5.359   3.015   8.510 -0.2421  0.0663 -1.0528
  159MOL0     C21870   4.903   3.409   8.751 -0.8815 -0.5449  0.1290
  159MOL0     C21871   4.931   3.531   8.824  0.1536 -0.4140  0.4551
  159MOL0     C21872   4.974   3.659   8.752 -0.3108 -0.1399 -0.1913
  159MOL0     H21873   5.205   3.670   9.130 -3.5581 -0.2012 -1.5048
  159MOL0     H21874   5.378   3.764   9.277  0.5206  0.9487  1.2945
  159MOL0     H21875   5.439   3.942   9.392 -4.2150  1.4657 -1.9207
  159MOL0     H21876   5.523   3.892   9.538 -1.8045  0.9866  1.3561
  159MOL0     H21877   5.462   4.142   9.507 -0.4459  0.8383 -0.2361
  159MOL0     H21878   5.305   4.110   9.550  0.9119  1.6185  1.8973
  159MOL0     H21879   5.389   3.992   9.769 -1.4754  1.6743  1.4057
  159MOL0     H21880   5.550   4.040   9.716 -0.2855  1.2393 -0.3485
  159MOL0     H21881   5.428   4.285   9.709  0.4506 -1.6405 -0.6359
  159MOL0     H21882   5.312   4.196   9.793  0.2446 -1.3750 -3.3190
  159MOL0     H21883   5.602   4.260   9.881  0.3051  1.4716  1.6774
  159MOL0     H21884   5.496   4.133   9.958 -0.5429  0.5532  0.9336
  159MOL0     H21885   5.426   4.427   9.932  0.9498 -0.4076 -1.8645
  159MOL0     H21886   5.343   4.301  10.015  0.2697  0.0638 -2.2263
  159MOL0     H21887   5.553   4.446  10.153  1.6002 -1.4024  4.5895
  159MOL0     H21888   5.635   4.305  10.085 -1.4102 -3.3510 -0.4733
  159MOL0     H21889   5.550   4.281  10.312 -0.6578 -1.1664  0.2878
  159MOL0     H21890   5.378   4.284  10.252  0.0146  1.2748  1.7519
  159MOL0     H21891   5.707   4.098  10.223  0.5503 -1.8384 -0.4496
  159MOL0     H21892   5.808   3.852  10.225  1.6125 -2.9696 -0.4372
  159MOL0     H21893   5.706   3.753  10.123 -0.0385  1.5281 -1.2314
  159MOL0     H21894   5.692   3.757  10.436  0.3990  4.7387 -2.1366
  159MOL0     H21895   5.583   3.675  10.339  0.0084  1.2665 -0.1541
  159MOL0     H21896   5.743   3.527  10.421 -2.4281 -1.1579 -1.3642
  159MOL0     H21897   5.772   3.517  10.250  0.1845 -2.1125  1.3495
  159MOL0     H21898   5.988   3.519  10.367 -0.5438  0.4738 -0.3719
  159MOL0     H21899   5.961   3.666  10.266  0.2011 -1.0879 -0.7417
  159MOL0     H21900   5.973   3.740  10.709  2.1436  2.5772  4.0946
  159MOL0     H21901   6.063   3.814  10.901  1.1273  1.5995  0.0756
  159MOL0     H21902   6.221   3.876  10.897 -0.0882 -0.2355  1.0246
  159MOL0     H21903   6.200   3.708  10.950 -0.8406  0.2661  0.2269
  159MOL0     H21904   6.710   3.475  10.697  2.1684 -2.3874  1.6019
  159MOL0     H21905   6.925   3.458  10.796  0.0498 -0.0037 -3.3558
  159MOL0     H21906   6.964   3.669  11.112 -1.4825 -1.7444 -2.3966
  159MOL0     H21907   7.114   3.582  11.111 -0.8714 -0.9399 -0.7129
  159MOL0     H21908   7.111   3.883  11.030 -0.5329  0.9458  0.6625
  159MOL0     H21909   7.153   3.831  11.195  0.1818 -1.5923  0.4907
  159MOL0     H21910   7.302   3.779  10.945  0.7778 -1.2388 -0.4375
  159MOL0     H21911   7.316   3.670  11.081  0.6706  1.2767  1.7999
  159MOL0     H21912   7.398   3.856  11.234 -2.3949 -1.7308 -0.4955
  159MOL0     H21913   7.383   3.977  11.107 -1.9555 -0.2087  2.4799
  159MOL0     H21914   7.546   3.887  10.977 -0.5192 -0.0845 -0.7621
  159MOL0     H21915   7.603   3.907  11.137  0.3829 -0.1570 -0.2107
  159MOL0     H21916   7.534   3.652  11.002 -1.6140  0.6457  1.2705
  159MOL0     H21917   7.563   3.663  11.185  0.3156  0.3829  1.1032
  159MOL0     H21918   7.803   3.728  11.126 -0.6372  0.4798  0.4756
  159MOL0     H21919   7.774   3.703  10.954  0.8482  0.0673  0.1198
  159MOL0     H21920   7.749   3.495  11.175  0.3521  0.7989  0.9782
  159MOL0     H21921   7.879   3.500  11.053 -0.1097  0.3698 -0.6067
  159MOL0     H21922   6.886   3.855  10.963 -3.0860  1.3929 -1.3780
  159MOL0     H21923   6.670   3.879  10.835  1.1746 -0.0308 -0.1302
  159MOL0     H21924   6.401   3.636  10.491  1.5987 -0.7021  0.2971
  159MOL0     H21925   6.193   3.629  10.371 -0.4816 -0.7791 -0.5527
  159MOL0     H21926   5.066   3.796   9.585  0.6432 -0.8872 -0.7115
  159MOL0     H21927   4.907   3.717   9.419  0.1589 -0.4990  1.9425
  159MOL0     H21928   4.848   3.415   9.134 -1.5726 -1.3728  0.5289
  159MOL0     H21929   4.778   3.218   8.990  2.0170 -0.1539  0.6810
  159MOL0     H21930   4.762   3.090   8.587  1.5990 -1.8386  0.9497
  159MOL0     H21931   4.829   3.254   8.554 -1.6546  0.1142  2.1183
  159MOL0     H21932   4.983   2.999   8.649 -0.1064 -0.3953 -0.2615
  159MOL0     H21933   5.059   3.149   8.611  0.5798 -2.5000  0.0035
  159MOL0     H21934   4.911   2.974   8.407 -1.4734  0.3096  3.7215
  159MOL0     H21935   5.022   3.111   8.358 -3.4553  0.5320 -0.5523
  159MOL0     H21936   5.112   2.902   8.312  1.3113  0.8686  0.0354
  159MOL0     H21937   5.091   2.844   8.483 -0.8155 -0.2200 -0.3786
  159MOL0     H21938   5.443   3.059   8.560 -1.7741 -1.2560  3.0603
  159MOL0     H21939   4.938   3.412   8.648  1.7479  1.2163  0.9701
  159MOL0     H21940   5.079   3.689   8.758  0.7456 -3.4125 -0.6869
  159MOL0     H21941   4.951   3.643   8.647 -1.8786  0.7656 -0.0252
  159MOL0     H21942   4.904   3.742   8.771  1.1903  0.6215  2.5305
  160MOL0     O21943   5.491   7.685   5.699 -0.1883 -0.1182  0.1640
  160MOL0     C21944   5.476   7.617   5.797  0.2047  0.4609 -0.2018
  160MOL0     O21945   5.568   7.542   5.854 -0.3355 -0.3477 -0.1218
  160MOL0     C21946   5.703   7.548   5.808 -0.6457  1.3686  0.5653
  160MOL0     C21947   5.751   7.555   5.676  0.0439 -0.0195 -0.7875
  160MOL0     C21948   5.886   7.561   5.653 -0.1276  0.8310  1.1677
  160MOL0     C21949   5.978   7.562   5.764 -0.4669  0.7151  0.4743
  160MOL0     O21950   6.107   7.566   5.734 -0.6911  0.0576 -0.7339
  160MOL0     C21951   6.165   7.697   5.744 -0.4464  0.1751 -0.5013
  160MOL0     C21952   6.260   7.721   5.626  0.6124  0.7035  0.4664
  160MOL0     C21953   6.393   7.632   5.641  0.5769 -0.4180 -0.7153
  160MOL0     C21954   6.509   7.678   5.547  0.3344 -0.3683 -0.9058
  160MOL0     C21955   6.619   7.571   5.551  0.2502  0.0975  0.0242
  160MOL0     C21956   6.734   7.618   5.456  0.0051 -0.5865  0.4219
  160MOL0     C21957   6.836   7.717   5.515 -0.1023 -0.0408 -0.0760
  160MOL0     C21958   6.921   7.658   5.628 -0.0825  0.7458 -0.2555
  160MOL0     N21959   7.029   7.572   5.581  0.6443  0.3728 -0.0438
  160MOL0     C21960   6.999   7.435   5.545  0.1549 -0.3735  0.1598
  160MOL0     C21961   7.117   7.375   5.581 -0.5282 -0.0589  0.0404
  160MOL0     C21962   7.133   7.227   5.613 -0.6333 -1.4720 -0.2588
  160MOL0     C21963   7.122   7.219   5.765 -0.2911 -0.7765 -0.4784
  160MOL0     C21964   7.194   7.098   5.805 -0.3833  0.5183 -0.3010
  160MOL0     C21965   7.157   7.070   5.953  0.1023  0.3454  0.5403
  160MOL0     O21966   7.014   7.045   5.960 -0.2456 -0.3427  0.7648
  160MOL0     C21967   6.958   6.923   5.912  0.7351 -0.3193 -0.1439
  160MOL0     C21968   6.817   6.914   5.898  0.4519  0.1859  0.1048
  160MOL0     C21969   6.756   6.806   5.844 -0.0027  0.0807  0.1994
  160MOL0     C21970   6.606   6.818   5.821 -0.6479 -0.6974  0.0027
  160MOL0     C21971   6.836   6.689   5.801 -0.0346  0.0180 -0.4814
  160MOL0     C21972   6.785   6.567   5.731  0.0532  0.6133 -0.5330
  160MOL0     O21973   6.646   6.551   5.732 -0.2985 -0.0020 -0.2662
  160MOL0     C21974   6.596   6.427   5.744 -0.3808  0.4422  0.5436
  160MOL0     C21975   6.501   6.386   5.664 -0.5823  0.2399  0.0294
  160MOL0     C21976   6.446   6.251   5.666 -0.1307 -0.9137 -0.2830
  160MOL0     C21977   6.504   6.156   5.738 -0.7808  0.0126 -0.1320
  160MOL0     O21978   6.475   6.022   5.712 -0.0717 -0.2044 -0.1568
  160MOL0     C21979   6.548   5.916   5.762  0.8005  0.1389 -0.0278
  160MOL0     C21980   6.684   5.898   5.692 -0.6490 -0.1345 -0.4026
  160MOL0     C21981   6.772   5.813   5.786  0.0708  0.2456 -0.0825
  160MOL0     C21982   6.723   5.668   5.815  0.5174 -0.3090  0.3365
  160MOL0     C21983   6.810   5.586   5.903 -0.3066 -0.5862 -0.7559
  160MOL0     C21984   6.731   5.467   5.975  0.0290 -0.3938  0.4701
  160MOL0     C21985   6.810   5.431   6.101  0.0079 -0.4344 -0.7400
  160MOL0     C21986   6.714   5.379   6.202  0.2568  0.2633 -0.3690
  160MOL0    Cl21987   6.631   5.226   6.163 -0.1634  0.4700  0.0347
  160MOL0     C21988   6.597   6.199   5.835  0.0592  0.0592  0.3668
  160MOL0     C21989   6.642   6.331   5.841  0.2369  1.0844  0.5333
  160MOL0     O21990   6.853   6.480   5.688 -0.1489  0.0087  0.7307
  160MOL0     C21991   6.970   6.687   5.836 -0.2684 -0.4919 -0.1280
  160MOL0     C21992   7.034   6.806   5.891  0.6432  0.2820  0.1284
  160MOL0     N21993   7.210   7.475   5.623  0.9750 -0.4070  0.3323
  160MOL0     N21994   7.154   7.593   5.614 -0.6693 -0.1029  0.2257
  160MOL0     C21995   5.928   7.546   5.894  0.1588 -1.2893 -0.0926
  160MOL0     C21996   5.795   7.545   5.916  0.0069  0.1811 -0.2135
  160MOL0     C21997   5.340   7.579   5.856  0.5038  1.1009 -0.0060
  160MOL0     C21998   5.330   7.464   5.939  0.6118  0.1682  0.3432
  160MOL0     C21999   5.199   7.428   5.984 -0.0823 -0.3615  0.0897
  160MOL0     C22000   5.090   7.501   5.956  0.7365  0.1582 -1.1821
  160MOL0     O22001   4.974   7.438   6.000  0.3923  0.1244 -0.0319
  160MOL0     C22002   4.839   7.493   5.975 -0.0541 -0.2234 -0.0108
  160MOL0     C22003   4.835   7.605   6.079  0.6078 -0.7569 -0.5150
  160MOL0     C22004   4.695   7.654   6.104 -0.1450 -0.5178  0.8508
  160MOL0     C22005   4.693   7.779   6.189 -0.6579 -0.0196 -0.1981
  160MOL0     C22006   4.562   7.845   6.217  0.3489  0.4809 -0.6516
  160MOL0     C22007   4.459   7.906   6.227 -0.4578  0.3790 -0.3666
  160MOL0     C22008   5.095   7.612   5.878  0.0938  0.2480 -0.2401
  160MOL0     C22009   5.219   7.651   5.828  0.3211 -0.3690  0.4600
  160MOL0     C22010   5.222   7.788   5.757  0.2030  0.5596  0.2654
  160MOL0     H22011   5.679   7.580   5.598 -1.6627  4.8093  1.8711
  160MOL0     H22012   5.923   7.590   5.555 -3.4628  0.9149 -0.2178
  160MOL0     H22013   6.220   7.712   5.837 -0.4756 -0.1576 -0.4280
  160MOL0     H22014   6.089   7.776   5.743  0.3124  0.9219 -0.5223
  160MOL0     H22015   6.212   7.705   5.529  2.4398 -1.7796 -0.1287
  160MOL0     H22016   6.285   7.827   5.633  0.2335  0.8146  0.1719
  160MOL0     H22017   6.427   7.626   5.745  0.2247 -1.5987 -0.6516
  160MOL0     H22018   6.350   7.533   5.623 -3.1682  0.9370 -0.1104
  160MOL0     H22019   6.458   7.702   5.454  1.1002  2.0933 -0.7669
  160MOL0     H22020   6.537   7.772   5.595 -1.0885 -2.2209  4.2552
  160MOL0     H22021   6.580   7.478   5.509  1.9269 -0.7405  0.2490
  160MOL0     H22022   6.652   7.538   5.650  0.1515 -3.8439 -1.0906
  160MOL0     H22023   6.790   7.530   5.421  0.3119 -0.2687  0.1041
  160MOL0     H22024   6.681   7.656   5.368 -1.2304  2.3006  2.2487
  160MOL0     H22025   6.778   7.805   5.544  0.6574 -0.1974  2.0835
  160MOL0     H22026   6.906   7.742   5.434  1.4105 -2.3791  0.4330
  160MOL0     H22027   6.952   7.745   5.687  1.2148  0.1225  0.0133
  160MOL0     H22028   6.863   7.592   5.693 -0.0456  0.9085 -0.0568
  160MOL0     H22029   6.899   7.394   5.539 -0.6943  1.0167  3.1233
  160MOL0     H22030   7.228   7.188   5.576 -1.1736 -1.6506 -1.4856
  160MOL0     H22031   7.062   7.158   5.566  0.4125 -0.1464 -4.1309
  160MOL0     H22032   7.167   7.302   5.821  0.1116  0.6970 -2.8501
  160MOL0     H22033   7.016   7.218   5.790  0.1426 -3.8864  1.9176
  160MOL0     H22034   7.170   7.010   5.744 -3.8067  1.1845 -0.1355
  160MOL0     H22035   7.302   7.114   5.799 -0.6034  1.8683 -0.8510
  160MOL0     H22036   7.213   6.983   5.989  0.1585 -0.1775 -0.7505
  160MOL0     H22037   7.190   7.146   6.024  3.0272 -0.4454  0.1879
  160MOL0     H22038   6.753   7.002   5.900 -0.2653 -0.2759  3.5241
  160MOL0     H22039   6.570   6.918   5.846  1.6860  0.6283 -1.5488
  160MOL0     H22040   6.556   6.745   5.885  2.1601 -1.3172  1.6559
  160MOL0     H22041   6.571   6.799   5.719 -1.8788 -1.9955  0.6418
  160MOL0     H22042   6.462   6.450   5.586 -2.9414 -1.7181 -0.5265
  160MOL0     H22043   6.356   6.236   5.607 -2.5748 -0.0615  2.9779
  160MOL0     H22044   6.571   5.932   5.868  0.5009  0.3259  0.0116
  160MOL0     H22045   6.478   5.832   5.750  4.0584 -2.6905 -0.6927
  160MOL0     H22046   6.672   5.862   5.589  2.1444  0.7028 -1.1236
  160MOL0     H22047   6.726   5.999   5.691 -1.0025  0.0232  0.2779
  160MOL0     H22048   6.778   5.862   5.884 -1.5057  0.7919 -0.2253
  160MOL0     H22049   6.876   5.800   5.756  1.0172  1.1872  2.4963
  160MOL0     H22050   6.706   5.611   5.723 -1.8500  0.0634  0.4654
  160MOL0     H22051   6.631   5.692   5.870 -1.0379 -1.2495 -1.7121
  160MOL0     H22052   6.892   5.551   5.840  0.0734  0.0795 -0.6376
  160MOL0     H22053   6.847   5.654   5.980 -1.3569 -1.6456  0.7289
  160MOL0     H22054   6.719   5.390   5.898  1.5989  1.5526 -1.9053
  160MOL0     H22055   6.629   5.495   6.003  0.6616  0.4501  2.0419
  160MOL0     H22056   6.862   5.519   6.141 -1.1860  0.9139 -2.0324
  160MOL0     H22057   6.884   5.356   6.074  3.0281  2.7586 -2.0573
  160MOL0     H22058   6.635   5.452   6.220 -0.4008 -0.5739  0.2747
  160MOL0     H22059   6.765   5.362   6.298 -0.0779  4.5626  0.7576
  160MOL0     H22060   6.632   6.127   5.908  0.4463  1.4815  1.6187
  160MOL0     H22061   6.710   6.357   5.922  1.1691  0.9267 -0.1864
  160MOL0     H22062   7.032   6.605   5.801 -1.7502 -1.4669 -0.5596
  160MOL0     H22063   7.141   6.805   5.912  0.4564  2.8903  1.7242
  160MOL0     H22064   5.996   7.536   5.978  0.2382  0.0612  0.0315
  160MOL0     H22065   5.772   7.538   6.022  1.8521  1.7333  0.3620
  160MOL0     H22066   5.417   7.403   5.959  1.3097 -0.0545 -2.8597
  160MOL0     H22067   5.182   7.327   6.022 -1.8473 -1.5000 -3.3476
  160MOL0     H22068   4.826   7.525   5.871 -4.2566 -1.1831  0.0548
  160MOL0     H22069   4.766   7.413   5.994  0.5321 -0.4660  1.2968
  160MOL0     H22070   4.908   7.682   6.053  1.5161 -1.4209 -0.0069
  160MOL0     H22071   4.865   7.567   6.177 -0.3065  4.0856  1.9185
  160MOL0     H22072   4.661   7.688   6.005  1.8309 -0.7524  0.0325
  160MOL0     H22073   4.616   7.584   6.130 -1.6010  0.8130  0.1595
  160MOL0     H22074   4.758   7.861   6.158  0.4132 -0.3459  1.0782
  160MOL0     H22075   4.735   7.747   6.285  0.4241  2.5524  0.2661
  160MOL0     H22076   4.360   7.945   6.227 -0.8527 -0.5789 -0.9244
  160MOL0     H22077   5.004   7.670   5.866 -0.6632  0.0068  3.2691
  160MOL0     H22078   5.118   7.822   5.756 -1.5086 -3.9328 -1.0932
  160MOL0     H22079   5.275   7.864   5.815  0.3058  0.9004 -0.2671
  160MOL0     H22080   5.259   7.782   5.654 -1.7287 -3.2642 -0.3666
  161MOL0     O22081   4.926   0.936   1.813  0.2541  0.0926  0.5603
  161MOL0     C22082   4.875   1.040   1.766  0.0056 -0.0880  0.2789
  161MOL0     O22083   4.932   1.162   1.760 -0.8231  0.0256  0.3087
  161MOL0     C22084   5.067   1.181   1.784  0.5469  0.9579  0.7305
  161MOL0     C22085   5.139   1.134   1.894 -0.2327  0.1411  0.8771
  161MOL0     C22086   5.272   1.177   1.911 -0.7206  0.1534 -0.3391
  161MOL0     C22087   5.327   1.257   1.813  0.4823  0.3654 -0.6072
  161MOL0     O22088   5.465   1.283   1.838  0.4403 -0.2139 -1.0196
  161MOL0     C22089   5.541   1.373   1.757 -0.0185  0.8797  0.6385
  161MOL0     C22090   5.682   1.380   1.799 -0.3725 -0.4930  0.2674
  161MOL0     C22091   5.716   1.439   1.936  0.1346 -1.0299  0.8855
  161MOL0     C22092   5.827   1.366   1.992  0.7164 -0.6458 -0.1079
  161MOL0     C22093   5.885   1.431   2.117  0.6296 -0.9402  0.4244
  161MOL0     C22094   5.968   1.544   2.069  0.2937 -0.9757  0.8018
  161MOL0     C22095   6.002   1.628   2.197  0.2143  0.1959  0.4092
  161MOL0     C22096   6.121   1.551   2.267  0.9629 -0.6323  0.0045
  161MOL0     N22097   6.251   1.559   2.198 -0.7762 -0.1011  0.1049
  161MOL0     C22098   6.332   1.672   2.192  0.1946 -0.0267  0.1976
  161MOL0     C22099   6.424   1.639   2.102 -0.7660  1.1103  0.2508
  161MOL0     C22100   6.532   1.729   2.052  0.6392 -0.3786  0.0618
  161MOL0     C22101   6.488   1.807   1.932 -0.1865  0.0030  0.0325
  161MOL0     C22102   6.597   1.914   1.883  0.1144 -0.1002  0.1474
  161MOL0     C22103   6.719   1.844   1.829 -0.5447 -0.3288 -0.8893
  161MOL0     O22104   6.811   1.951   1.802  0.2969 -0.0412  1.1270
  161MOL0     C22105   6.932   1.958   1.870 -0.2026  0.1216  0.2678
  161MOL0     C22106   6.957   2.083   1.925 -0.2821  0.1761  0.7232
  161MOL0     C22107   7.074   2.117   1.991  0.0379 -1.6045  0.2235
  161MOL0     C22108   7.078   2.267   2.034 -0.5061  0.3242 -0.2331
  161MOL0     C22109   7.180   2.023   1.987 -0.2154  0.3367  0.0187
  161MOL0     C22110   7.309   2.056   2.040 -0.1963  0.3350 -0.2153
  161MOL0     O22111   7.326   2.162   2.134  0.6952  0.4412  0.6514
  161MOL0     C22112   7.448   2.187   2.180 -0.7573  0.6045 -0.3410
  161MOL0     C22113   7.551   2.253   2.105  0.0878 -0.7092 -0.1313
  161MOL0     C22114   7.672   2.293   2.166 -0.8296 -0.1223 -1.2448
  161MOL0     C22115   7.697   2.263   2.297  0.0363 -0.5861 -0.3236
  161MOL0     O22116   7.805   2.311   2.368  0.0922 -0.8513  0.7157
  161MOL0     C22117   7.893   2.200   2.393  0.2735 -0.4700 -0.6103
  161MOL0     C22118   8.010   2.261   2.464  0.7824  0.2633 -0.0711
  161MOL0     C22119   8.084   2.357   2.368  0.7297  0.6739 -0.3281
  161MOL0     C22120   8.231   2.387   2.420  0.5792 -0.2113 -0.2836
  161MOL0     C22121   8.235   2.526   2.489 -0.1223  0.7610 -0.5106
  161MOL0     C22122   8.212   2.646   2.407 -0.7440 -0.2998  0.2132
  161MOL0     C22123   8.351   2.694   2.344  0.3220  0.0276 -0.1687
  161MOL0     C22124   8.437   2.795   2.426 -0.0193 -0.6923 -0.1593
  161MOL0    Cl22125   8.324   2.943   2.458 -0.0242  0.6880 -0.1506
  161MOL0     C22126   7.604   2.183   2.365  0.1136 -0.1620  1.1234
  161MOL0     C22127   7.486   2.140   2.306 -0.3694  0.2841 -0.6619
  161MOL0     O22128   7.407   1.991   1.994 -0.1410  0.6182 -0.4821
  161MOL0     C22129   7.161   1.892   1.934 -0.0643 -0.7905  0.2201
  161MOL0     C22130   7.037   1.860   1.870 -0.4070  0.4417 -0.7887
  161MOL0     N22131   6.415   1.513   2.053  0.4988  0.4259 -0.1443
  161MOL0     N22132   6.308   1.464   2.118  0.0615  0.2521  0.1202
  161MOL0     C22133   5.258   1.308   1.705  0.2069 -0.6588 -0.1470
  161MOL0     C22134   5.131   1.264   1.680 -0.5198  0.0058 -0.2027
  161MOL0     C22135   4.733   1.018   1.707  0.1247  0.0417 -0.5745
  161MOL0     C22136   4.641   0.938   1.783 -0.0280  0.1547 -0.2316
  161MOL0     C22137   4.508   0.934   1.735 -0.1822  0.2164  0.9971
  161MOL0     C22138   4.471   1.003   1.619  0.0694 -0.0963  0.4236
  161MOL0     O22139   4.343   0.992   1.574 -0.7637  0.0653  0.6999
  161MOL0     C22140   4.237   0.955   1.665  0.8855  0.7952  0.5798
  161MOL0     C22141   4.099   0.961   1.593  1.5222  0.2525  0.2851
  161MOL0     C22142   3.989   0.898   1.679  0.1408  0.0679 -0.8913
  161MOL0     C22143   3.949   0.991   1.796  0.3554 -0.5175  0.3478
  161MOL0     C22144   3.838   0.939   1.885 -0.4965 -0.3260  0.0502
  161MOL0     C22145   3.739   0.916   1.960 -0.2436  0.1689  0.1231
  161MOL0     C22146   4.562   1.071   1.544 -0.5009  1.0479  0.1781
  161MOL0     C22147   4.695   1.084   1.586 -0.2800 -0.4751 -0.6575
  161MOL0     C22148   4.791   1.170   1.502  1.0067  0.3570 -0.6413
  161MOL0     H22149   5.086   1.076   1.969 -2.8076  1.1614 -0.0631
  161MOL0     H22150   5.326   1.152   2.002 -4.5572 -0.1517  2.0976
  161MOL0     H22151   5.495   1.471   1.746 -1.7416  0.0967  0.5449
  161MOL0     H22152   5.539   1.329   1.657  1.1538 -1.0636  1.4082
  161MOL0     H22153   5.724   1.278   1.804 -1.1088 -0.8005  0.2877
  161MOL0     H22154   5.737   1.429   1.718 -1.4338  0.0511 -0.1372
  161MOL0     H22155   5.724   1.548   1.924 -4.4088 -0.4102  1.5424
  161MOL0     H22156   5.631   1.426   2.004 -1.8478  3.9336 -0.1599
  161MOL0     H22157   5.779   1.273   2.025 -2.5867  0.7127 -0.6752
  161MOL0     H22158   5.907   1.353   1.919  0.0685  1.3103 -1.2317
  161MOL0     H22159   5.943   1.361   2.177  1.8761  0.0585  0.4218
  161MOL0     H22160   5.802   1.476   2.173  0.7754 -1.1558  0.8147
  161MOL0     H22161   6.062   1.515   2.021  0.5767  0.6580  0.3122
  161MOL0     H22162   5.912   1.599   1.992 -0.0257 -0.3090  1.4938
  161MOL0     H22163   5.915   1.630   2.263 -0.9597 -0.2770 -1.0797
  161MOL0     H22164   6.030   1.732   2.179  1.9767  0.5312  4.1476
  161MOL0     H22165   6.117   1.588   2.370 -3.1282 -3.6143  1.1582
  161MOL0     H22166   6.086   1.448   2.274 -0.2733 -0.2150  0.2995
  161MOL0     H22167   6.317   1.766   2.244 -1.5229 -0.3994  0.4634
  161MOL0     H22168   6.625   1.674   2.034  1.0986 -0.5232  2.5544
  161MOL0     H22169   6.552   1.794   2.138  0.0594 -1.3729  0.9725
  161MOL0     H22170   6.455   1.742   1.850 -0.6704  1.6585 -1.1520
  161MOL0     H22171   6.396   1.859   1.960 -0.2414 -0.1136  0.0707
  161MOL0     H22172   6.550   1.969   1.801 -0.7572 -3.1925 -1.5530
  161MOL0     H22173   6.627   1.982   1.964  0.3785  0.5355 -0.4782
  161MOL0     H22174   6.759   1.775   1.904 -1.5458  0.1702  0.1444
  161MOL0     H22175   6.696   1.797   1.732 -0.9822  1.0667 -1.4850
  161MOL0     H22176   6.873   2.151   1.917 -2.6011 -2.2404  2.7148
  161MOL0     H22177   7.137   2.322   1.960 -2.7214  2.0778 -0.8050
  161MOL0     H22178   7.114   2.269   2.137 -1.4819 -1.3635  0.1773
  161MOL0     H22179   6.976   2.306   2.047  0.0852  2.3322 -1.2450
  161MOL0     H22180   7.534   2.265   1.999  0.0683 -4.4118 -0.6885
  161MOL0     H22181   7.741   2.355   2.109 -1.0052  1.8338  0.5533
  161MOL0     H22182   7.848   2.130   2.464 -1.1370  1.9851  1.0562
  161MOL0     H22183   7.935   2.144   2.309 -0.8417 -1.1485 -0.7298
  161MOL0     H22184   7.989   2.316   2.556 -1.2978 -0.2415 -0.1952
  161MOL0     H22185   8.073   2.175   2.488 -0.1297  0.1130  2.0025
  161MOL0     H22186   8.031   2.453   2.364 -1.8958 -0.7105 -1.8918
  161MOL0     H22187   8.085   2.316   2.267 -0.7565 -0.6272  0.1582
  161MOL0     H22188   8.295   2.385   2.331  0.0217 -1.3512 -0.6799
  161MOL0     H22189   8.268   2.313   2.491  1.1385 -0.3323 -0.6913
  161MOL0     H22190   8.152   2.518   2.560  0.0555  1.3057 -0.2350
  161MOL0     H22191   8.329   2.527   2.545  0.4906  1.5768 -1.5291
  161MOL0     H22192   8.169   2.730   2.462 -2.2594  1.3387 -3.1544
  161MOL0     H22193   8.139   2.619   2.330 -2.1873 -0.1220  1.4738
  161MOL0     H22194   8.343   2.743   2.246  1.7678  1.4097  0.3628
  161MOL0     H22195   8.425   2.615   2.329  1.6487  1.1057  0.4212
  161MOL0     H22196   8.525   2.826   2.369  1.5262 -1.9786  1.4192
  161MOL0     H22197   8.473   2.760   2.524 -4.1256 -0.4533  1.6406
  161MOL0     H22198   7.632   2.148   2.464  1.1041 -0.0403  0.8993
  161MOL0     H22199   7.432   2.066   2.363 -1.0281  1.3220  0.1116
  161MOL0     H22200   7.244   1.823   1.941  1.4031  0.7187 -1.4023
  161MOL0     H22201   7.042   1.761   1.825 -0.1781  0.2504 -0.3523
  161MOL0     H22202   5.304   1.373   1.631  1.1325  1.6648  2.3085
  161MOL0     H22203   5.069   1.301   1.599 -1.0800  1.7103  0.9321
  161MOL0     H22204   4.669   0.878   1.870  1.8045  0.6488 -0.4349
  161MOL0     H22205   4.434   0.884   1.796 -1.6826 -1.6224 -2.1061
  161MOL0     H22206   4.258   0.853   1.698 -0.5049  0.3049  0.0112
  161MOL0     H22207   4.230   1.014   1.756  1.8324 -0.5475  1.5595
  161MOL0     H22208   4.109   0.899   1.504 -0.3968  0.2503  0.0423
  161MOL0     H22209   4.070   1.059   1.556  0.3635 -0.2126 -0.0950
  161MOL0     H22210   3.909   0.882   1.606 -0.4596  0.6603 -0.3801
  161MOL0     H22211   4.017   0.801   1.722  0.7978 -0.2556 -2.0025
  161MOL0     H22212   3.926   1.090   1.755  4.4583  1.4962  2.1932
  161MOL0     H22213   4.037   1.010   1.859 -0.3278  0.1811  1.1181
  161MOL0     H22214   3.650   0.889   2.013 -3.1134  2.9533 -2.8296
  161MOL0     H22215   4.528   1.128   1.457 -0.4305  2.5305  1.0922
  161MOL0     H22216   4.762   1.168   1.397  4.4283 -0.3759 -1.7036
  161MOL0     H22217   4.783   1.273   1.540 -1.4123  0.0173 -0.0306
  161MOL0     H22218   4.892   1.130   1.512  0.4749 -0.5330  1.7478
  162MOL0     O22219   2.055  10.871   6.070  0.3491  0.2298  0.1127
  162MOL0     C22220   2.001  10.976   6.095  0.5584 -0.4762 -0.6444
  162MOL0     O22221   2.065  11.100   6.107 -0.3189  0.5166 -0.1511
  162MOL0     C22222   2.202  11.104   6.096 -0.4067  0.0862 -0.3234
  162MOL0     C22223   2.290  11.046   6.182  0.3235  0.9315 -0.1007
  162MOL0     C22224   2.429  11.047   6.164 -0.2034 -1.4571 -0.4892
  162MOL0     C22225   2.478  11.115   6.053  0.8188 -0.4885  0.0362
  162MOL0     O22226   2.610  11.132   6.023  0.6230  0.0692 -0.2762
  162MOL0     C22227   2.726  11.093   6.100  1.4815 -0.1783  0.0518
  162MOL0     C22228   2.842  11.117   6.004 -0.2096 -0.0565  0.1959
  162MOL0     C22229   2.981  11.109   6.067 -0.1728 -0.6100 -0.0501
  162MOL0     C22230   3.038  11.235   6.143  0.2119  0.2582  0.8279
  162MOL0     C22231   3.193  11.235   6.191  0.2421  1.2181 -0.1425
  162MOL0     C22232   3.228  11.343   6.305 -0.0152  0.0632  0.2632
  162MOL0     C22233   3.378  11.334   6.351 -0.1679 -0.4870  0.3504
  162MOL0     C22234   3.464  11.412   6.247 -0.4572 -0.8398 -0.0037
  162MOL0     N22235   3.607  11.415   6.285  0.1925 -0.1159 -1.2500
  162MOL0     C22236   3.666  11.533   6.330  0.1393  0.5972 -0.4240
  162MOL0     C22237   3.799  11.501   6.320 -0.7737 -0.2888  1.0559
  162MOL0     C22238   3.914  11.596   6.342 -0.0455 -0.1745 -0.1683
  162MOL0     C22239   3.902  11.652   6.488  0.3047 -0.5842  0.0358
  162MOL0     C22240   4.000  11.760   6.528 -0.5021  0.1922 -0.9311
  162MOL0     C22241   3.985  11.800   6.680  0.4374  0.0275  0.0454
  162MOL0     O22242   3.900  11.914   6.686 -0.1329  0.1095  0.0867
  162MOL0     C22243   3.878  11.973   6.805 -0.2086  0.3783 -1.1625
  162MOL0     C22244   3.930  11.930   6.931 -0.5300 -0.4385 -0.4396
  162MOL0     C22245   3.913  12.000   7.052 -0.1260 -0.3775 -0.5022
  162MOL0     C22246   3.973  11.929   7.174  0.0667 -0.2317 -0.7381
  162MOL0     C22247   3.841  12.118   7.051  0.3281  0.4028 -0.6305
  162MOL0     C22248   3.824  12.206   7.176  0.3035  0.5892  0.1423
  162MOL0     O22249   3.901  12.179   7.291  0.2306 -0.0070 -0.0761
  162MOL0     C22250   3.876  12.249   7.404 -0.0963  0.3515  0.2584
  162MOL0     C22251   3.791  12.200   7.491 -0.1397 -0.2848 -0.7723
  162MOL0     C22252   3.756  12.266   7.610  0.8261 -0.1824  0.5902
  162MOL0     C22253   3.828  12.381   7.650 -0.2828 -0.1297  0.1173
  162MOL0     O22254   3.814  12.430   7.772  0.1403  1.5271 -0.7784
  162MOL0     C22255   3.896  12.544   7.816  0.3444 -0.2022 -0.2852
  162MOL0     C22256   3.894  12.530   7.976  0.1854 -0.3130  0.1816
  162MOL0     C22257   4.012  12.604   8.050  0.8514  0.2214  0.7022
  162MOL0     C22258   4.075  12.531   8.171  1.1048  0.6759  0.4153
  162MOL0     C22259   4.185  12.620   8.246 -0.6177  0.5556  0.2737
  162MOL0     C22260   4.340  12.599   8.219  0.0868 -0.1800 -0.1154
  162MOL0     C22261   4.406  12.736   8.270  0.4593  0.1279  0.6667
  162MOL0     C22262   4.556  12.725   8.276  0.0715 -0.1368  0.0612
  162MOL0    Cl22263   4.597  12.623   8.422 -0.0319  0.0888  0.1792
  162MOL0     C22264   3.910  12.444   7.553 -0.3739 -0.2388 -0.7420
  162MOL0     C22265   3.927  12.379   7.430 -0.4070  0.7482  0.0341
  162MOL0     O22266   3.738  12.291   7.175 -0.1277  0.1830  0.2345
  162MOL0     C22267   3.784  12.160   6.926 -0.3852  0.6136 -0.1451
  162MOL0     C22268   3.812  12.091   6.807 -0.5409 -0.7339  0.1493
  162MOL0     N22269   3.815  11.366   6.292 -0.0704  0.5276  0.8247
  162MOL0     N22270   3.703  11.310   6.275  0.4946  0.3113  0.1631
  162MOL0     C22271   2.398  11.182   5.967  0.7877 -0.3059  0.7303
  162MOL0     C22272   2.257  11.169   5.983 -0.2036 -0.0781  0.5323
  162MOL0     C22273   1.849  10.979   6.112 -0.1766 -0.3123  0.2897
  162MOL0     C22274   1.796  11.100   6.157 -0.9018  0.1354 -0.7869
  162MOL0     C22275   1.661  11.124   6.150  0.3036 -0.6109  0.1804
  162MOL0     C22276   1.574  11.034   6.098 -0.4310  0.6843 -0.1487
  162MOL0     O22277   1.447  11.081   6.076 -0.1985  0.3011 -0.4637
  162MOL0     C22278   1.402  11.040   5.943 -0.2038 -0.3625  1.1547
  162MOL0     C22279   1.258  11.094   5.916 -0.9482  0.3664  0.5720
  162MOL0     C22280   1.159  11.059   6.028 -0.3994  0.8499  0.4378
  162MOL0     C22281   1.130  10.905   6.043  0.2658 -1.1031 -0.5615
  162MOL0     C22282   1.076  10.835   5.929 -0.0100  0.4363 -0.1468
  162MOL0     C22283   1.030  10.756   5.848 -0.2801 -0.0787 -0.1563
  162MOL0     C22284   1.611  10.907   6.072  0.1468  0.1950 -0.1077
  162MOL0     C22285   1.749  10.881   6.080 -0.3679  0.5563  0.2730
  162MOL0     C22286   1.789  10.745   6.032 -0.3444 -0.5527 -0.3031
  162MOL0     H22287   2.252  10.988   6.266  3.3984  0.7030  1.2877
  162MOL0     H22288   2.497  11.000   6.234  1.0949 -0.2921 -0.9174
  162MOL0     H22289   2.719  10.987   6.125 -2.1269  0.2107  1.3020
  162MOL0     H22290   2.742  11.162   6.184  1.5762  1.8361 -1.5432
  162MOL0     H22291   2.838  11.048   5.919  0.4012 -1.6721  1.4354
  162MOL0     H22292   2.834  11.218   5.961 -0.5294  1.0653  2.7306
  162MOL0     H22293   2.988  11.014   6.122 -4.0084  1.3314  4.5523
  162MOL0     H22294   3.045  11.110   5.979  0.2174  1.8547  0.1877
  162MOL0     H22295   3.017  11.323   6.082  0.6396  0.2121  0.6153
  162MOL0     H22296   2.975  11.257   6.230  2.1506  0.4902  2.2362
  162MOL0     H22297   3.258  11.248   6.104  0.3423 -1.8638 -0.6313
  162MOL0     H22298   3.220  11.138   6.235  1.3896  0.7306 -1.8402
  162MOL0     H22299   3.198  11.436   6.255 -1.6641 -0.4775  0.1670
  162MOL0     H22300   3.161  11.343   6.392 -2.6132  0.6964 -1.6150
  162MOL0     H22301   3.419  11.234   6.368  0.4334 -0.2222  0.4761
  162MOL0     H22302   3.397  11.381   6.448  2.7293 -1.5013  0.3691
  162MOL0     H22303   3.453  11.360   6.151 -2.9613  4.0448 -2.7786
  162MOL0     H22304   3.415  11.509   6.236  0.2408 -0.0759  2.8833
  162MOL0     H22305   3.615  11.625   6.358 -0.8772 -0.3394  0.9354
  162MOL0     H22306   3.899  11.676   6.269 -1.0765  0.8878  1.1444
  162MOL0     H22307   4.010  11.546   6.328 -1.0648 -1.7326 -2.3057
  162MOL0     H22308   3.806  11.703   6.492  0.0535 -1.0052 -0.5775
  162MOL0     H22309   3.902  11.574   6.564 -3.6474 -1.3321 -0.5321
  162MOL0     H22310   4.099  11.713   6.522 -0.0924  0.6077  1.4473
  162MOL0     H22311   3.995  11.840   6.454 -0.4742 -0.2747 -1.4393
  162MOL0     H22312   3.954  11.720   6.747 -0.1505 -1.1576 -1.5578
  162MOL0     H22313   4.087  11.820   6.715  0.0607  0.4518  0.9217
  162MOL0     H22314   4.000  11.848   6.948  0.4109  0.1194 -1.4649
  162MOL0     H22315   3.921  11.943   7.269 -0.9926  0.4257 -1.3877
  162MOL0     H22316   4.078  11.955   7.190 -0.5982  1.1043  2.0852
  162MOL0     H22317   3.948  11.824   7.160  1.7203 -0.3485 -3.3610
  162MOL0     H22318   3.754  12.100   7.469 -0.0244 -0.2000 -1.3739
  162MOL0     H22319   3.687  12.234   7.687  1.6674 -0.3854  1.2689
  162MOL0     H22320   3.994  12.528   7.769  0.5963  0.3322  0.0582
  162MOL0     H22321   3.845  12.637   7.789 -1.5447 -0.7226  1.2325
  162MOL0     H22322   3.793  12.562   8.003 -0.8655 -1.2109 -2.3748
  162MOL0     H22323   3.917  12.426   8.003 -0.4566 -0.0665  1.7963
  162MOL0     H22324   3.966  12.699   8.077 -1.2737 -0.6530  0.3869
  162MOL0     H22325   4.093  12.620   7.978 -0.4528 -0.8916 -1.1087
  162MOL0     H22326   4.131  12.443   8.137  1.4170  0.3908  1.6363
  162MOL0     H22327   3.990  12.501   8.233 -0.0640  0.9377 -0.9883
  162MOL0     H22328   4.164  12.727   8.236 -0.1019  0.6575  0.2473
  162MOL0     H22329   4.175  12.599   8.353  1.8121 -3.2414 -0.0571
  162MOL0     H22330   4.345  12.599   8.109 -1.3174  0.2659 -0.2054
  162MOL0     H22331   4.376  12.509   8.269 -0.7075  0.7708  2.2771
  162MOL0     H22332   4.360  12.771   8.363 -1.4647  1.1045 -0.5793
  162MOL0     H22333   4.385  12.817   8.200 -0.9513 -0.2346  0.6287
  162MOL0     H22334   4.592  12.826   8.300 -2.5218  1.0898 -0.7350
  162MOL0     H22335   4.599  12.689   8.182 -2.0589  0.7960 -1.3544
  162MOL0     H22336   3.947  12.545   7.563 -0.1804  0.0715 -3.7007
  162MOL0     H22337   3.989  12.423   7.353 -1.7728  2.5689 -0.1110
  162MOL0     H22338   3.732  12.256   6.927  0.5863  1.1665  1.2961
  162MOL0     H22339   3.769  12.131   6.716 -1.4513  1.3708  1.4118
  162MOL0     H22340   2.436  11.237   5.881  0.9854  0.3069  1.2040
  162MOL0     H22341   2.185  11.220   5.919  0.1368  1.7829  1.5307
  162MOL0     H22342   1.861  11.168   6.210  0.0585 -0.8736 -0.6419
  162MOL0     H22343   1.621  11.222   6.174  1.9617 -0.2378  1.6798
  162MOL0     H22344   1.473  11.061   5.862 -1.6208 -1.7006 -0.5074
  162MOL0     H22345   1.385  10.932   5.943 -2.3340 -0.0718  1.0253
  162MOL0     H22346   1.217  11.053   5.824  1.6658 -3.0903  0.7465
  162MOL0     H22347   1.269  11.203   5.909 -0.3770  0.3198  0.6914
  162MOL0     H22348   1.200  11.097   6.122  1.1386 -1.2372  0.6943
  162MOL0     H22349   1.070  11.119   6.008 -0.1978 -0.0485 -4.2341
  162MOL0     H22350   1.064  10.900   6.130  1.8160 -2.6198  0.5891
  162MOL0     H22351   1.219  10.850   6.074 -0.4473 -1.3423  1.1515
  162MOL0     H22352   0.995  10.677   5.784 -1.1042 -2.2334  2.7622
  162MOL0     H22353   1.549  10.825   6.038 -1.5914  0.4803  2.1071
  162MOL0     H22354   1.863  10.757   5.953 -0.9544  2.0959 -0.5553
  162MOL0     H22355   1.841  10.695   6.114  0.1426 -1.0466 -0.9040
  162MOL0     H22356   1.711  10.671   6.009 -0.3967 -1.0104  1.2415
  163MOL0     O22357   0.052   6.617   9.003 -0.3386  0.8990  0.1404
  163MOL0     C22358   0.063   6.497   9.024  0.4682  0.9048 -0.2417
  163MOL0     O22359   0.171   6.428   9.080  0.2143 -0.3007 -0.0624
  163MOL0     C22360   0.287   6.493   9.099  0.1749 -0.9293 -0.0980
  163MOL0     C22361   0.298   6.609   9.185  0.5125  0.1933  0.3173
  163MOL0     C22362   0.420   6.659   9.223  0.9899 -0.5388 -0.2626
  163MOL0     C22363   0.538   6.620   9.153  0.1550 -0.2450 -0.6306
  163MOL0     O22364   0.652   6.691   9.164 -0.2326  0.5483  0.3260
  163MOL0     C22365   0.747   6.687   9.056  0.6548 -0.4548 -0.7470
  163MOL0     C22366   0.818   6.819   9.048 -0.9013  0.0317  0.3359
  163MOL0     C22367   0.948   6.800   8.961  0.8870 -0.0402  0.0920
  163MOL0     C22368   1.010   6.946   8.943 -0.2819 -0.0092 -0.4691
  163MOL0     C22369   1.128   6.957   8.850 -0.7571 -0.2980 -0.5280
  163MOL0     C22370   1.250   6.864   8.907 -0.1362 -0.4103  0.1898
  163MOL0     C22371   1.362   6.873   8.817 -0.4297 -0.2204  0.9845
  163MOL0     C22372   1.442   7.004   8.841  0.6711  0.0293  0.8549
  163MOL0     N22373   1.569   6.998   8.768 -0.5253  0.6930 -0.3315
  163MOL0     C22374   1.675   6.937   8.831  0.1081  0.3890  0.5583
  163MOL0     C22375   1.778   6.964   8.755  0.0022  0.5666 -0.4738
  163MOL0     C22376   1.921   6.943   8.771 -0.7570  0.1985  0.0771
  163MOL0     C22377   1.952   6.796   8.792  0.0215 -0.4525  0.0315
  163MOL0     C22378   1.913   6.723   8.654 -0.1426 -0.4660  0.4252
  163MOL0     C22379   1.784   6.640   8.655  0.2968 -0.4951  0.8400
  163MOL0     O22380   1.767   6.540   8.759  0.3822 -0.1519 -0.2097
  163MOL0     C22381   1.666   6.452   8.739  0.2351 -0.3461  0.4800
  163MOL0     C22382   1.692   6.321   8.768 -1.0428 -0.8007  0.0984
  163MOL0     C22383   1.609   6.215   8.735  0.5511 -0.1097  0.3357
  163MOL0     C22384   1.646   6.078   8.782  0.3251 -0.5726  0.2356
  163MOL0     C22385   1.484   6.246   8.683  0.7035 -0.5481 -0.6922
  163MOL0     C22386   1.379   6.139   8.647 -0.3160  0.0769 -0.8352
  163MOL0     O22387   1.264   6.181   8.584 -0.5063 -0.7898  0.1019
  163MOL0     C22388   1.184   6.091   8.532  0.0804  0.1726  0.8095
  163MOL0     C22389   1.138   6.093   8.397  0.4718  0.5320 -0.0696
  163MOL0     C22390   1.045   5.993   8.357 -0.0683 -0.9232 -0.5064
  163MOL0     C22391   0.995   5.902   8.444 -0.7859  0.4688  0.7929
  163MOL0     O22392   0.909   5.811   8.396  0.0626 -0.2983 -0.1556
  163MOL0     C22393   0.769   5.861   8.362 -0.4184 -0.5826  0.3575
  163MOL0     C22394   0.688   5.774   8.266 -0.2933 -0.2750 -0.1490
  163MOL0     C22395   0.644   5.646   8.341 -0.1738  0.5004 -0.1022
  163MOL0     C22396   0.509   5.662   8.413  0.6938  0.0047  0.1560
  163MOL0     C22397   0.469   5.544   8.509  0.1933  0.6497 -0.0142
  163MOL0     C22398   0.426   5.418   8.426 -0.6134 -0.3908  0.8721
  163MOL0     C22399   0.376   5.312   8.527 -0.2187  0.1124  0.1669
  163MOL0     C22400   0.368   5.170   8.484  0.7220 -0.4948 -0.0971
  163MOL0    Cl22401   0.265   5.076   8.602 -0.2117 -0.2088  0.0831
  163MOL0     C22402   1.040   5.907   8.576  0.7650  0.2370  0.3735
  163MOL0     C22403   1.138   5.990   8.616  0.4630 -0.2529  0.2242
  163MOL0     O22404   1.419   6.020   8.647 -0.2183  0.0664  0.0755
  163MOL0     C22405   1.453   6.378   8.651 -0.0204 -0.6101 -0.0694
  163MOL0     C22406   1.541   6.483   8.672  0.6325 -0.6616 -0.8882
  163MOL0     N22407   1.734   7.036   8.644  0.2838 -0.0189  0.6439
  163MOL0     N22408   1.607   7.062   8.653  0.2807 -0.1384  0.0222
  163MOL0     C22409   0.529   6.493   9.078 -0.8732 -0.3427  0.2167
  163MOL0     C22410   0.405   6.441   9.044 -0.5102 -0.6266 -0.0334
  163MOL0     C22411  -0.063   6.414   8.982 -0.8732  0.2434  0.2008
  163MOL0     C22412  -0.104   6.413   8.848 -0.1169  0.3281 -0.2417
  163MOL0     C22413  -0.207   6.332   8.812 -0.4076 -0.5667 -0.3806
  163MOL0     C22414  -0.263   6.238   8.900 -0.0796  0.2964 -0.2001
  163MOL0     O22415  -0.351   6.145   8.870 -0.3369  0.1465 -0.1905
  163MOL0     C22416  -0.468   6.181   8.788 -0.9168 -0.2565 -0.1132
  163MOL0     C22417  -0.489   6.082   8.675  0.7141 -0.4610 -0.4205
  163MOL0     C22418  -0.493   5.936   8.720 -0.3983 -0.2093  0.3904
  163MOL0     C22419  -0.470   5.846   8.604  0.0882 -0.4786  0.0530
  163MOL0     C22420  -0.550   5.722   8.619  0.8510  0.4434  0.2979
  163MOL0     C22421  -0.622   5.624   8.640 -1.2633  0.2796 -0.1415
  163MOL0     C22422  -0.219   6.234   9.038  0.3299  0.3356  0.2187
  163MOL0     C22423  -0.123   6.324   9.073 -0.2298  0.0237 -0.4886
  163MOL0     C22424  -0.118   6.339   9.221  0.1340  0.6530 -0.4543
  163MOL0     H22425   0.216   6.658   9.237  1.0343  0.6367  0.7226
  163MOL0     H22426   0.426   6.733   9.302  0.2716 -1.6016  0.8236
  163MOL0     H22427   0.695   6.675   8.961  2.1885  0.0092 -1.6825
  163MOL0     H22428   0.831   6.620   9.077  2.5551  1.9560 -0.2587
  163MOL0     H22429   0.752   6.899   9.013  3.1090  3.4200 -0.2376
  163MOL0     H22430   0.855   6.851   9.146 -0.9521  1.7417 -0.1673
  163MOL0     H22431   1.015   6.736   9.019 -0.7875  0.1819  2.4246
  163MOL0     H22432   0.921   6.761   8.863 -1.1261  0.1061  0.5432
  163MOL0     H22433   0.931   7.012   8.903 -1.4807 -0.3536  1.2030
  163MOL0     H22434   1.037   6.971   9.046 -1.8706 -0.3978  0.0767
  163MOL0     H22435   1.152   7.063   8.861 -1.7538 -0.2309  1.3833
  163MOL0     H22436   1.118   6.939   8.743  2.1395 -1.6500 -0.6842
  163MOL0     H22437   1.286   6.903   9.003 -3.7309  0.5368  1.3138
  163MOL0     H22438   1.219   6.760   8.918 -2.8159  0.2251 -0.5091
  163MOL0     H22439   1.339   6.883   8.711  1.4232  1.8386  0.7135
  163MOL0     H22440   1.439   6.796   8.827  1.9441  1.7754 -0.6661
  163MOL0     H22441   1.373   7.078   8.799 -1.6500 -2.2580  0.3827
  163MOL0     H22442   1.457   7.015   8.949  1.2817  0.0699  0.7683
  163MOL0     H22443   1.669   6.889   8.928 -1.6674 -3.4368 -1.2436
  163MOL0     H22444   1.953   6.988   8.866 -3.0559 -1.9051  1.9803
  163MOL0     H22445   1.977   6.987   8.687 -1.4063  0.8895 -0.0049
  163MOL0     H22446   2.057   6.773   8.810  0.0949  0.0771  0.3021
  163MOL0     H22447   1.888   6.751   8.868 -2.1552 -0.3113 -1.6264
  163MOL0     H22448   1.915   6.788   8.566 -1.0410 -2.9187 -1.5050
  163MOL0     H22449   1.990   6.648   8.638 -0.9687 -1.4655  1.0352
  163MOL0     H22450   1.710   6.721   8.657  1.8153  0.9838  0.0591
  163MOL0     H22451   1.767   6.596   8.557 -0.1644  1.0471  0.1928
  163MOL0     H22452   1.784   6.297   8.821 -1.1744 -1.3231  0.0918
  163MOL0     H22453   1.650   6.014   8.693  1.7761  0.6032 -0.5802
  163MOL0     H22454   1.571   6.035   8.849 -0.9092 -2.2127 -2.0309
  163MOL0     H22455   1.743   6.072   8.831  1.1113 -0.5959 -1.2526
  163MOL0     H22456   1.178   6.172   8.335 -0.5118  2.4316  1.5686
  163MOL0     H22457   1.007   6.002   8.256  2.1037  2.2148 -1.1738
  163MOL0     H22458   0.710   5.870   8.454 -2.0619 -0.9906 -0.6292
  163MOL0     H22459   0.785   5.960   8.320  1.3937 -0.0440  2.1317
  163MOL0     H22460   0.603   5.822   8.216  0.2314 -0.1326 -0.9226
  163MOL0     H22461   0.749   5.738   8.183  1.2539 -1.2166  1.3468
  163MOL0     H22462   0.726   5.626   8.411 -0.1902  0.4004 -0.1119
  163MOL0     H22463   0.619   5.567   8.269  0.7921  1.4783 -1.5519
  163MOL0     H22464   0.429   5.666   8.338  0.3559 -0.0376  0.5110
  163MOL0     H22465   0.500   5.758   8.465  1.1753  2.0464 -3.1845
  163MOL0     H22466   0.540   5.519   8.588  1.4527  1.3979 -0.8756
  163MOL0     H22467   0.377   5.568   8.563  0.9752  0.0651  1.6530
  163MOL0     H22468   0.512   5.379   8.371 -1.3269 -2.5110  1.1758
  163MOL0     H22469   0.358   5.444   8.345  0.0977 -0.1944  0.3224
  163MOL0     H22470   0.274   5.334   8.560  0.5701  0.4768  2.5281
  163MOL0     H22471   0.447   5.317   8.610  0.6098 -0.1526 -0.5063
  163MOL0     H22472   0.467   5.126   8.468  1.2183  0.9225 -1.1898
  163MOL0     H22473   0.313   5.166   8.389 -3.5149 -0.6493  2.1428
  163MOL0     H22474   0.996   5.833   8.642  2.4534 -0.3181  0.9059
  163MOL0     H22475   1.171   5.992   8.719  1.4998  0.3869 -0.1032
  163MOL0     H22476   1.355   6.407   8.615 -1.2562 -3.6307  0.5311
  163MOL0     H22477   1.508   6.586   8.662  2.2474 -0.0032  0.2985
  163MOL0     H22478   0.618   6.450   9.033 -0.8295  1.9009 -2.1040
  163MOL0     H22479   0.400   6.354   8.980 -0.9566 -0.6083 -0.0249
  163MOL0     H22480  -0.052   6.481   8.780  0.3985  0.3026  0.1238
  163MOL0     H22481  -0.244   6.335   8.710 -1.0097  0.0359 -0.1581
  163MOL0     H22482  -0.555   6.189   8.855  0.1768  0.3347  1.2991
  163MOL0     H22483  -0.452   6.282   8.748 -2.0920 -0.1787 -0.4507
  163MOL0     H22484  -0.403   6.087   8.608 -1.8099 -3.1369 -4.2867
  163MOL0     H22485  -0.579   6.118   8.623 -0.5717  0.0789  1.9899
  163MOL0     H22486  -0.422   5.912   8.800 -0.5268  0.6793  0.7792
  163MOL0     H22487  -0.590   5.923   8.770 -0.7140  0.4911 -0.0359
  163MOL0     H22488  -0.363   5.821   8.595  0.6307  1.0525  1.6839
  163MOL0     H22489  -0.492   5.895   8.508  2.3402  1.0915  0.2412
  163MOL0     H22490  -0.675   5.531   8.652  1.9082 -1.9067 -1.6892
  163MOL0     H22491  -0.264   6.163   9.106 -2.4572  3.2827  1.7200
  163MOL0     H22492  -0.056   6.265   9.273 -1.0503 -0.2860 -0.3564
  163MOL0     H22493  -0.089   6.443   9.239 -0.6097  0.5741  1.3609
  163MOL0     H22494  -0.219   6.324   9.260 -0.0810  0.9261 -0.8991
  164MOL0     O22495   8.508   2.907   6.055  0.5912  0.3613  0.3189
  164MOL0     C22496   8.413   2.929   5.981 -0.7511 -0.3436  0.7072
  164MOL0     O22497   8.426   2.956   5.843  0.0640  0.3357 -0.4152
  164MOL0     C22498   8.544   2.923   5.784  0.5622  0.0061 -0.6668
  164MOL0     C22499   8.665   2.964   5.838 -0.4328 -0.5664  0.2284
  164MOL0     C22500   8.785   2.915   5.783 -0.2823 -0.2069  0.2200
  164MOL0     C22501   8.792   2.825   5.678  0.7833 -0.3010 -0.1190
  164MOL0     O22502   8.913   2.802   5.618 -0.6462  0.1496 -0.4644
  164MOL0     C22503   8.938   2.670   5.568  0.5979  0.2305  0.3290
  164MOL0     C22504   9.086   2.675   5.517 -0.7717  0.0779 -0.3398
  164MOL0     C22505   9.144   2.552   5.453 -0.4583  0.4647  0.1591
  164MOL0     C22506   9.170   2.457   5.574 -0.1681 -0.3297  0.2948
  164MOL0     C22507   9.300   2.368   5.546  0.9586  0.9535 -0.1116
  164MOL0     C22508   9.431   2.461   5.569  0.2190  0.7273 -0.1508
  164MOL0     C22509   9.555   2.371   5.587  0.2720 -0.4390 -0.4998
  164MOL0     C22510   9.671   2.472   5.584 -0.1840  0.6951  0.0415
  164MOL0     N22511   9.775   2.437   5.677 -0.1360  0.1902 -0.3148
  164MOL0     C22512   9.843   2.322   5.666 -0.5065  0.8759  0.2472
  164MOL0     C22513   9.922   2.310   5.779 -0.4586  0.2144 -0.1382
  164MOL0     C22514  10.007   2.195   5.819 -0.3884 -0.1470 -0.0085
  164MOL0     C22515  10.153   2.237   5.851 -0.5727  0.3042  0.0090
  164MOL0     C22516  10.219   2.142   5.954  0.0968 -0.2580  0.7148
  164MOL0     C22517  10.364   2.172   5.989  0.5225  0.2584 -0.0981
  164MOL0     O22518  10.398   2.305   6.049  0.1343  0.5638 -0.4986
  164MOL0     C22519  10.340   2.335   6.167 -0.5379 -0.5347  0.1251
  164MOL0     C22520  10.438   2.357   6.268 -0.5460  0.0658 -0.0407
  164MOL0     C22521  10.403   2.396   6.399 -0.8151 -0.2704  0.3042
  164MOL0     C22522  10.510   2.396   6.508  0.1025 -0.1243  0.0394
  164MOL0     C22523  10.265   2.409   6.429  0.0081  0.3796 -0.3787
  164MOL0     C22524  10.206   2.453   6.554 -0.1850 -0.5161 -0.2051
  164MOL0     O22525  10.077   2.431   6.572  0.2334  0.3404 -0.0320
  164MOL0     C22526   9.992   2.510   6.638 -0.4329  0.3997 -0.8899
  164MOL0     C22527   9.864   2.453   6.664  0.2102  0.1253  0.3425
  164MOL0     C22528   9.774   2.529   6.740 -0.7882 -0.0939  0.7649
  164MOL0     C22529   9.802   2.664   6.762 -0.1657  0.1646 -0.0113
  164MOL0     O22530   9.695   2.738   6.815  0.3006  0.3745  0.1787
  164MOL0     C22531   9.721   2.843   6.897 -0.1602 -0.7578 -0.0662
  164MOL0     C22532   9.594   2.920   6.908 -0.3393  0.0199  0.1115
  164MOL0     C22533   9.476   2.835   6.951  0.1372 -0.4474 -0.3616
  164MOL0     C22534   9.352   2.918   6.980 -0.5552  1.0178 -0.0319
  164MOL0     C22535   9.232   2.835   6.963  1.0234 -0.4632 -0.7724
  164MOL0     C22536   9.102   2.892   7.010  0.9144 -0.3102 -0.3649
  164MOL0     C22537   9.005   2.778   7.046  1.1711 -0.5326  0.0217
  164MOL0     C22538   8.868   2.827   7.034  0.6645 -0.1956 -0.4051
  164MOL0    Cl22539   8.831   2.936   7.178  0.3395  0.3453  0.3795
  164MOL0     C22540   9.926   2.721   6.727  0.0115  0.0142  1.1641
  164MOL0     C22541  10.019   2.641   6.668  0.4942  0.8653 -0.1404
  164MOL0     O22542  10.271   2.512   6.637 -0.1395  0.3115  0.2669
  164MOL0     C22543  10.169   2.386   6.325  0.4082  0.5459  0.5916
  164MOL0     C22544  10.205   2.355   6.191  0.0406 -0.1224 -0.5229
  164MOL0     N22545   9.916   2.434   5.841 -0.5698  0.1429 -0.0145
  164MOL0     N22546   9.824   2.509   5.789 -0.9743  0.4441  0.7628
  164MOL0     C22547   8.665   2.779   5.621 -0.8655  0.3393 -0.1780
  164MOL0     C22548   8.542   2.833   5.674 -0.6064 -0.0502 -0.0028
  164MOL0     C22549   8.274   2.925   6.033  0.2864 -0.3886  1.1001
  164MOL0     C22550   8.164   2.959   5.950 -0.2019 -0.0114  0.2619
  164MOL0     C22551   8.028   2.960   5.989 -0.4331  0.1754 -0.1042
  164MOL0     C22552   7.997   2.926   6.121 -0.6295 -0.4671  0.1133
  164MOL0     O22553   7.879   2.907   6.184  0.0844  0.0109  0.4350
  164MOL0     C22554   7.772   2.990   6.129  0.4125 -0.8136  0.3383
  164MOL0     C22555   7.683   2.914   6.028 -0.5844  0.5283 -0.4652
  164MOL0     C22556   7.532   2.942   6.050  0.1919 -0.3500  0.2310
  164MOL0     C22557   7.445   2.876   5.936  0.3540 -0.6953 -1.4889
  164MOL0     C22558   7.502   2.872   5.806 -0.0211 -0.9653 -0.9199
  164MOL0     C22559   7.540   2.873   5.692 -0.2315  0.6459 -0.3829
  164MOL0     C22560   8.108   2.884   6.202  0.4343 -0.3655 -0.7848
  164MOL0     C22561   8.242   2.880   6.165 -0.1493  0.1785 -0.5195
  164MOL0     C22562   8.343   2.809   6.259  0.2780  0.6613 -0.7604
  164MOL0     H22563   8.682   3.028   5.924  1.2745  2.0916 -1.9272
  164MOL0     H22564   8.881   2.937   5.829 -0.5181  1.3824 -0.0053
  164MOL0     H22565   8.882   2.640   5.479  1.2380 -0.8644  0.2824
  164MOL0     H22566   8.925   2.600   5.650 -2.2462 -1.2194 -1.1970
  164MOL0     H22567   9.105   2.757   5.448  2.5297 -1.4290 -1.4073
  164MOL0     H22568   9.150   2.699   5.602  1.7464  0.4872 -2.2462
  164MOL0     H22569   9.081   2.498   5.381  2.1638 -0.6592 -1.4650
  164MOL0     H22570   9.236   2.584   5.403 -1.6354  1.8703 -1.1949
  164MOL0     H22571   9.166   2.506   5.671  0.0410  2.9584 -1.2146
  164MOL0     H22572   9.082   2.392   5.577 -1.1154  0.9747  2.5993
  164MOL0     H22573   9.288   2.326   5.446 -3.8534 -0.6656  0.8720
  164MOL0     H22574   9.293   2.278   5.608 -0.2126 -0.6507 -2.4279
  164MOL0     H22575   9.438   2.519   5.477 -2.3878  0.3212 -0.6988
  164MOL0     H22576   9.421   2.524   5.658  1.1014  0.6865 -0.0142
  164MOL0     H22577   9.564   2.293   5.511 -0.6963 -0.1804 -0.8883
  164MOL0     H22578   9.538   2.313   5.678 -1.2444  1.9555  0.8517
  164MOL0     H22579   9.705   2.479   5.480  2.7047 -3.0777  0.5255
  164MOL0     H22580   9.627   2.568   5.612 -3.0429 -0.2861 -0.7152
  164MOL0     H22581   9.831   2.244   5.592  2.3344 -1.1898  1.7546
  164MOL0     H22582  10.006   2.117   5.742 -3.3437 -1.9988  1.6722
  164MOL0     H22583   9.968   2.141   5.906 -1.4226 -0.5269 -0.6874
  164MOL0     H22584  10.215   2.240   5.761  0.0242  0.7605  0.4261
  164MOL0     H22585  10.153   2.340   5.889  1.4925  1.2482 -2.3176
  164MOL0     H22586  10.146   2.133   6.035 -0.3770  0.0425  0.3270
  164MOL0     H22587  10.231   2.043   5.910 -1.9920 -0.2118 -0.0606
  164MOL0     H22588  10.388   2.092   6.060 -2.3917 -1.5955 -1.0001
  164MOL0     H22589  10.421   2.157   5.897  0.6207 -3.3641  0.3896
  164MOL0     H22590  10.541   2.333   6.247 -1.3246 -1.5513 -2.4789
  164MOL0     H22591  10.500   2.322   6.587  2.7534  0.6204  1.2206
  164MOL0     H22592  10.512   2.496   6.554  1.8537 -0.7098  1.3381
  164MOL0     H22593  10.610   2.385   6.465  0.2933 -0.0089  0.4494
  164MOL0     H22594   9.837   2.355   6.625  1.7132 -0.0988 -0.1758
  164MOL0     H22595   9.683   2.491   6.785 -0.0817 -2.2422  0.4673
  164MOL0     H22596   9.760   2.815   6.996 -1.6722 -0.3658  0.6703
  164MOL0     H22597   9.788   2.917   6.853  1.0451 -1.0868  1.1498
  164MOL0     H22598   9.607   3.002   6.980  0.1543 -0.8247  0.9974
  164MOL0     H22599   9.572   2.951   6.805 -1.1969  3.0953  1.1089
  164MOL0     H22600   9.491   2.769   7.037  2.3709 -0.8630 -1.0266
  164MOL0     H22601   9.456   2.769   6.866  1.5998 -1.5142  0.0935
  164MOL0     H22602   9.357   3.001   6.909 -2.4571  0.6012 -0.7211
  164MOL0     H22603   9.365   2.953   7.083  2.2135 -1.6761  0.7099
  164MOL0     H22604   9.225   2.817   6.855  0.9369  2.4170 -1.3399
  164MOL0     H22605   9.256   2.736   7.004 -0.0645  0.3692  2.1012
  164MOL0     H22606   9.050   2.954   6.936 -0.3358  1.8855  2.1817
  164MOL0     H22607   9.110   2.953   7.100  1.3524 -1.2676  0.2568
  164MOL0     H22608   9.030   2.741   7.146  1.2483  1.4359  0.7822
  164MOL0     H22609   9.018   2.694   6.977  0.9732 -1.1260  0.6899
  164MOL0     H22610   8.788   2.754   7.041 -1.8074  2.1763 -1.9911
  164MOL0     H22611   8.858   2.878   6.938  0.7798  2.8266  1.0590
  164MOL0     H22612   9.964   2.818   6.757 -2.6482  1.9214 -1.1710
  164MOL0     H22613  10.117   2.685   6.649  1.1376 -0.5027 -0.1402
  164MOL0     H22614  10.067   2.403   6.356  0.9412  1.4279  1.9459
  164MOL0     H22615  10.131   2.356   6.111 -0.2600  0.5442 -0.2397
  164MOL0     H22616   8.673   2.697   5.550 -0.6811  0.0298  0.1983
  164MOL0     H22617   8.447   2.793   5.640 -0.9922  0.3223  0.6352
  164MOL0     H22618   8.172   2.984   5.845 -1.2313 -0.3812  0.0876
  164MOL0     H22619   7.956   3.000   5.919 -0.8926 -0.3170  0.0780
  164MOL0     H22620   7.711   3.018   6.216  1.5014  0.0243  0.8567
  164MOL0     H22621   7.791   3.079   6.069 -1.6952 -1.4584 -1.3899
  164MOL0     H22622   7.716   2.810   6.039  3.9750  1.7433 -0.7542
  164MOL0     H22623   7.714   2.941   5.926  0.5814  3.6239  0.5967
  164MOL0     H22624   7.497   2.910   6.148  1.6634 -2.1663  0.2153
  164MOL0     H22625   7.522   3.051   6.043 -0.9270 -0.3805  0.9615
  164MOL0     H22626   7.357   2.940   5.942  2.0941  1.7032  0.4510
  164MOL0     H22627   7.409   2.775   5.955 -1.2390  0.1177  0.0690
  164MOL0     H22628   7.569   2.864   5.589 -0.4615 -4.6859 -0.2693
  164MOL0     H22629   8.071   2.849   6.298 -1.8849  1.9740 -0.7167
  164MOL0     H22630   8.393   2.728   6.204 -0.9464 -0.8375  0.2314
  164MOL0     H22631   8.423   2.870   6.301 -1.8894  2.8687  0.3956
  164MOL0     H22632   8.287   2.778   6.348  1.4776 -0.8950 -0.5065
  165MOL0     O22633   1.572   3.465   3.612 -0.2654 -0.8883  0.0388
  165MOL0     C22634   1.591   3.391   3.706  0.2456 -0.0231 -0.4012
  165MOL0     O22635   1.711   3.361   3.749  0.1782  0.3738 -0.0635
  165MOL0     C22636   1.822   3.431   3.714  0.0590 -0.6840 -0.2401
  165MOL0     C22637   1.945   3.364   3.699 -0.7964 -0.6428 -0.1054
  165MOL0     C22638   2.061   3.436   3.675 -0.3043  0.4083  0.1364
  165MOL0     C22639   2.062   3.579   3.653 -0.2978 -0.2136  0.1178
  165MOL0     O22640   2.175   3.654   3.630 -0.5443  0.3661 -0.1581
  165MOL0     C22641   2.303   3.592   3.602  0.3819 -0.2454  0.0402
  165MOL0     C22642   2.384   3.697   3.545 -0.1273  0.1618  0.3721
  165MOL0     C22643   2.522   3.650   3.521  0.7134 -0.0853  0.3654
  165MOL0     C22644   2.611   3.741   3.435  0.1131 -0.3857  0.1048
  165MOL0     C22645   2.666   3.871   3.498 -0.5082 -0.2806 -0.1446
  165MOL0     C22646   2.733   3.959   3.394 -0.4882  0.7348  0.1026
  165MOL0     C22647   2.810   4.073   3.449 -0.1771  0.7435  0.7844
  165MOL0     C22648   2.875   4.146   3.337  0.2023 -1.2023 -0.2745
  165MOL0     N22649   2.931   4.268   3.384 -0.6482  0.0983  0.3244
  165MOL0     C22650   2.870   4.383   3.406  1.0645 -0.9277 -0.0463
  165MOL0     C22651   2.957   4.480   3.424 -0.2024  0.5657 -0.3531
  165MOL0     C22652   2.930   4.626   3.457 -0.1414 -0.8266  0.0928
  165MOL0     C22653   2.818   4.701   3.390  0.9924  0.6297 -0.6173
  165MOL0     C22654   2.804   4.680   3.239 -0.0960  0.5053  0.6314
  165MOL0     C22655   2.934   4.671   3.161 -0.0313  0.0772  0.5503
  165MOL0     O22656   3.009   4.785   3.190  0.7390 -0.3524 -0.0423
  165MOL0     C22657   3.144   4.767   3.161  0.2669 -0.7466 -0.6966
  165MOL0     C22658   3.233   4.859   3.210 -0.5178  0.3059  0.0228
  165MOL0     C22659   3.379   4.856   3.192 -0.4332 -0.1860 -0.0120
  165MOL0     C22660   3.458   4.969   3.255 -1.3623 -0.6451  0.3074
  165MOL0     C22661   3.431   4.746   3.119  0.3520 -0.4993 -0.2919
  165MOL0     C22662   3.580   4.722   3.088  0.2712 -0.2640 -1.3855
  165MOL0     O22663   3.611   4.645   2.983 -0.1416 -0.4462  0.7933
  165MOL0     C22664   3.740   4.643   2.937 -0.4876  0.8757  0.5946
  165MOL0     C22665   3.811   4.762   2.924 -0.3414  0.4766  0.1840
  165MOL0     C22666   3.933   4.774   2.854 -0.0027 -0.2057  1.4577
  165MOL0     C22667   3.997   4.659   2.793  0.5560 -0.7933  0.2404
  165MOL0     O22668   4.122   4.665   2.740 -0.4420  0.1785  0.5310
  165MOL0     C22669   4.131   4.643   2.600 -0.4507 -0.9379  0.0865
  165MOL0     C22670   4.273   4.604   2.576 -0.5832  0.2234  0.4354
  165MOL0     C22671   4.368   4.720   2.562  0.1937 -0.7951 -0.4775
  165MOL0     C22672   4.509   4.681   2.565 -0.4195 -0.1113 -0.5275
  165MOL0     C22673   4.535   4.603   2.441  0.3968 -0.2066  0.2102
  165MOL0     C22674   4.686   4.594   2.429 -0.4505 -0.7789 -0.2030
  165MOL0     C22675   4.724   4.490   2.325 -0.8669  0.4003  0.5732
  165MOL0     C22676   4.877   4.471   2.334  0.5403 -1.2295 -1.1195
  165MOL0    Cl22677   4.923   4.325   2.253  0.0139  0.0958 -0.0781
  165MOL0     C22678   3.933   4.541   2.809  0.0262  0.5902 -0.1183
  165MOL0     C22679   3.801   4.534   2.868  0.2630  0.5861 -0.0413
  165MOL0     O22680   3.660   4.746   3.178  0.6135 -0.1205  0.8529
  165MOL0     C22681   3.339   4.654   3.063  0.2588  0.5007  0.0988
  165MOL0     C22682   3.195   4.663   3.078 -0.2364  0.0643 -0.1583
  165MOL0     N22683   3.086   4.414   3.410 -0.6181  0.7184 -0.0761
  165MOL0     N22684   3.066   4.289   3.394  0.4969  0.0667 -0.2904
  165MOL0     C22685   1.937   3.641   3.662  0.2242 -0.2431  0.1219
  165MOL0     C22686   1.816   3.572   3.697  0.7113 -0.7745  0.7985
  165MOL0     C22687   1.471   3.318   3.760  0.0233 -0.8543 -0.5752
  165MOL0     C22688   1.349   3.373   3.740 -0.0278  0.3312 -0.6425
  165MOL0     C22689   1.233   3.301   3.766  0.3823 -0.1413  0.4254
  165MOL0     C22690   1.240   3.172   3.816  1.1825 -0.2857 -0.3627
  165MOL0     O22691   1.127   3.098   3.811  0.3553 -0.5810  1.0820
  165MOL0     C22692   1.129   2.959   3.848 -0.7182  0.8120  0.0730
  165MOL0     C22693   1.008   2.895   3.790  0.0497  0.3559 -0.3680
  165MOL0     C22694   0.871   2.945   3.838 -0.6922 -0.8263 -0.3818
  165MOL0     C22695   0.859   2.940   3.993 -0.2346  0.1995  0.7553
  165MOL0     C22696   0.911   2.819   4.055  0.2520 -0.0422  0.5962
  165MOL0     C22697   0.953   2.719   4.111  0.2988 -0.2986  0.7168
  165MOL0     C22698   1.363   3.122   3.854 -0.7175  0.0070 -0.5317
  165MOL0     C22699   1.482   3.196   3.832 -0.3159  0.6299  0.1062
  165MOL0     C22700   1.610   3.130   3.882 -0.3253 -0.4306 -0.2706
  165MOL0     H22701   1.951   3.257   3.713 -0.0483 -0.3151  2.8380
  165MOL0     H22702   2.155   3.382   3.676  0.5190  1.7378  2.5939
  165MOL0     H22703   2.290   3.500   3.545 -1.8016 -1.7894  2.7758
  165MOL0     H22704   2.344   3.557   3.697 -2.2723  1.3950  1.9475
  165MOL0     H22705   2.339   3.723   3.449  1.3866  0.1164 -0.3850
  165MOL0     H22706   2.379   3.781   3.616  0.9584  0.9874 -0.5004
  165MOL0     H22707   2.563   3.633   3.620  0.8766  0.4514  0.3905
  165MOL0     H22708   2.528   3.554   3.468 -2.6509  0.7853 -1.9672
  165MOL0     H22709   2.701   3.685   3.409 -1.2548 -3.0838  0.7660
  165MOL0     H22710   2.558   3.761   3.341  1.3853 -1.4659 -0.8743
  165MOL0     H22711   2.748   3.843   3.565 -0.2800  1.0852  0.1676
  165MOL0     H22712   2.599   3.934   3.557  1.4677  0.5852  1.2794
  165MOL0     H22713   2.798   3.895   3.336  0.1350 -0.7370  2.2949
  165MOL0     H22714   2.657   4.001   3.327  0.0593  3.4820  1.0700
  165MOL0     H22715   2.892   4.038   3.513  0.7023 -1.0305 -1.1861
  165MOL0     H22716   2.740   4.135   3.506  0.8858  0.8852  1.9904
  165MOL0     H22717   2.943   4.088   3.273  0.6898  1.9929 -2.9082
  165MOL0     H22718   2.796   4.164   3.263  0.4504  1.2864 -0.0177
  165MOL0     H22719   2.763   4.402   3.415  1.6110  3.8803 -1.4305
  165MOL0     H22720   3.026   4.676   3.437 -0.1195 -1.5304 -1.7307
  165MOL0     H22721   2.903   4.641   3.562 -1.8737 -3.2904  0.0830
  165MOL0     H22722   2.724   4.671   3.439  0.3294  1.4728 -1.3475
  165MOL0     H22723   2.826   4.805   3.423  2.3810 -0.0523  1.3784
  165MOL0     H22724   2.748   4.586   3.232  0.2451  0.0426  3.2795
  165MOL0     H22725   2.744   4.761   3.196 -1.4221 -0.0633  1.3428
  165MOL0     H22726   2.992   4.581   3.184  0.5356  1.1012  3.6785
  165MOL0     H22727   2.890   4.659   3.061 -0.6803 -0.8494  0.9379
  165MOL0     H22728   3.185   4.940   3.264 -0.6879 -0.2872  0.7898
  165MOL0     H22729   3.566   4.957   3.241 -0.9169  0.7247  2.1235
  165MOL0     H22730   3.431   4.976   3.361 -1.1721 -3.6935  0.6393
  165MOL0     H22731   3.435   5.063   3.205  0.3222 -0.4192 -0.1071
  165MOL0     H22732   3.779   4.855   2.970  0.2638  1.3262 -1.0680
  165MOL0     H22733   3.978   4.873   2.854 -2.8509  1.2653 -1.1920
  165MOL0     H22734   4.060   4.565   2.573 -1.4642 -1.3825  3.5562
  165MOL0     H22735   4.097   4.726   2.538 -3.7562 -2.5730 -0.4856
  165MOL0     H22736   4.299   4.542   2.662 -1.2553 -0.6091  0.0511
  165MOL0     H22737   4.279   4.547   2.484  1.1178  2.1619 -0.7409
  165MOL0     H22738   4.337   4.787   2.643 -1.1160 -3.1191  1.0916
  165MOL0     H22739   4.338   4.768   2.469  0.4192  1.2001  0.4303
  165MOL0     H22740   4.544   4.630   2.656  1.6860  2.6881  0.3668
  165MOL0     H22741   4.569   4.772   2.572  0.7955 -1.0073  4.0831
  165MOL0     H22742   4.484   4.508   2.461  1.1325 -0.6146  0.2207
  165MOL0     H22743   4.495   4.636   2.345  1.2475 -2.6073 -1.0514
  165MOL0     H22744   4.732   4.578   2.527  0.2182  3.9058  0.5073
  165MOL0     H22745   4.724   4.688   2.388  1.9792 -2.3492 -1.8459
  165MOL0     H22746   4.689   4.515   2.224  1.0872  0.4764 -0.1258
  165MOL0     H22747   4.687   4.393   2.356 -3.7895  1.3528  0.3587
  165MOL0     H22748   4.903   4.466   2.440 -0.7581 -1.1370 -0.7801
  165MOL0     H22749   4.929   4.559   2.294  1.1784 -1.6833 -1.3063
  165MOL0     H22750   3.975   4.447   2.776 -0.0355 -0.1673  1.8042
  165MOL0     H22751   3.751   4.441   2.893  2.3099 -0.3698  0.7381
  165MOL0     H22752   3.372   4.561   3.018  1.5920  0.8377  0.3536
  165MOL0     H22753   3.123   4.604   3.023 -0.7110 -0.8017  1.3536
  165MOL0     H22754   1.927   3.742   3.625  0.6037 -1.3862 -3.4893
  165MOL0     H22755   1.731   3.640   3.696 -1.0759 -2.9205 -0.5175
  165MOL0     H22756   1.347   3.477   3.710 -1.5628  0.7967  0.8781
  165MOL0     H22757   1.137   3.346   3.744  0.2765 -1.3703 -1.9529
  165MOL0     H22758   1.215   2.907   3.805  0.3209  1.2346  1.5678
  165MOL0     H22759   1.133   2.939   3.956  1.1840 -3.8519 -0.6280
  165MOL0     H22760   1.017   2.788   3.809 -1.9618 -0.0888 -1.6247
  165MOL0     H22761   0.996   2.910   3.683 -3.3700 -0.2045 -0.1941
  165MOL0     H22762   0.867   3.050   3.807 -0.2858 -0.0080  2.0934
  165MOL0     H22763   0.785   2.898   3.789 -2.0951  2.8522 -1.8103
  165MOL0     H22764   0.752   2.952   4.012 -0.6474 -1.3045 -0.3986
  165MOL0     H22765   0.914   3.022   4.040  3.2950  1.8648 -5.2509
  165MOL0     H22766   0.987   2.631   4.162  2.6477  1.8586  3.1260
  165MOL0     H22767   1.372   3.023   3.897  1.2977  1.8050  3.8861
  165MOL0     H22768   1.671   3.096   3.799 -0.2359  1.3706 -0.9662
  165MOL0     H22769   1.663   3.195   3.953 -0.3067 -0.1296 -0.5608
  165MOL0     H22770   1.590   3.044   3.948  1.0570  0.3253  1.2017
  166MOL0     O22771   1.070  11.240   1.688 -0.0163  0.4064  0.2351
  166MOL0     C22772   1.007  11.297   1.771  0.2156  0.4707  0.3932
  166MOL0     O22773   1.030  11.421   1.827 -0.0254 -0.0917  0.4039
  166MOL0     C22774   1.149  11.488   1.814  0.6003 -0.1240  0.3842
  166MOL0     C22775   1.144  11.629   1.802 -0.5571  0.1440 -0.5673
  166MOL0     C22776   1.260  11.701   1.769  0.2801 -0.5454 -0.0628
  166MOL0     C22777   1.385  11.635   1.757 -0.0194  0.3063 -0.4403
  166MOL0     O22778   1.489  11.707   1.714 -0.5268 -0.7488  0.1822
  166MOL0     C22779   1.603  11.642   1.655 -1.0630  0.1979 -0.6503
  166MOL0     C22780   1.720  11.740   1.630  0.1166 -1.4987  0.0312
  166MOL0     C22781   1.841  11.662   1.585  0.2779  0.2664  0.4822
  166MOL0     C22782   1.953  11.767   1.579  0.4533  0.1061  0.3215
  166MOL0     C22783   2.091  11.698   1.551 -0.0970  0.1928  0.2941
  166MOL0     C22784   2.155  11.608   1.664  1.0885  0.0229  0.5661
  166MOL0     C22785   2.285  11.535   1.620 -0.2209 -0.1045 -0.3217
  166MOL0     C22786   2.380  11.639   1.544  0.0393  0.6138  0.6743
  166MOL0     N22787   2.489  11.565   1.482  0.6915  0.3939 -0.2727
  166MOL0     C22788   2.585  11.491   1.547 -0.0147  0.7271  0.0250
  166MOL0     C22789   2.658  11.421   1.454  0.5187 -0.7697  0.0583
  166MOL0     C22790   2.759  11.313   1.475  0.1223  0.0925 -0.0591
  166MOL0     C22791   2.897  11.376   1.496 -0.0080  0.5214 -0.0870
  166MOL0     C22792   2.947  11.466   1.385 -0.1349  0.5458  0.3684
  166MOL0     C22793   3.082  11.514   1.418  0.2027 -0.0778  0.1159
  166MOL0     O22794   3.180  11.414   1.379 -0.5315 -0.1285  0.1072
  166MOL0     C22795   3.306  11.439   1.415 -0.9173 -0.9682 -0.5933
  166MOL0     C22796   3.353  11.559   1.474 -1.0095 -0.5597  0.2961
  166MOL0     C22797   3.495  11.591   1.492  0.2612  0.3425 -0.3655
  166MOL0     C22798   3.543  11.717   1.546  0.4823 -0.7860  0.8725
  166MOL0     C22799   3.586  11.482   1.452 -0.0450 -0.1789  0.3472
  166MOL0     C22800   3.737  11.496   1.471 -0.1259  0.4872  0.0368
  166MOL0     O22801   3.811  11.396   1.512  0.3363  0.1975  0.1479
  166MOL0     C22802   3.937  11.432   1.543  0.0974 -0.4499 -0.6964
  166MOL0     C22803   3.967  11.502   1.663  0.1688 -0.9568  0.5545
  166MOL0     C22804   4.089  11.569   1.680  0.5313 -0.1928  1.1443
  166MOL0     C22805   4.192  11.551   1.583  0.6599 -0.3662 -0.4023
  166MOL0     O22806   4.314  11.603   1.603  0.4586  0.2109  0.2371
  166MOL0     C22807   4.425  11.520   1.556  0.0762  0.0226 -1.0517
  166MOL0     C22808   4.557  11.555   1.616  0.2300 -0.5486  0.9961
  166MOL0     C22809   4.559  11.531   1.760 -0.5526 -0.1175 -0.3062
  166MOL0     C22810   4.691  11.584   1.831  0.2579 -0.8873 -0.0477
  166MOL0     C22811   4.805  11.487   1.817  0.3350  0.0833 -0.6656
  166MOL0     C22812   4.938  11.563   1.840 -0.0460 -0.2416 -0.3060
  166MOL0     C22813   5.061  11.463   1.819  0.6792 -0.5106 -0.4145
  166MOL0     C22814   5.183  11.483   1.912  0.9449 -0.0463  0.1184
  166MOL0    Cl22815   5.210  11.658   1.934  0.0160 -0.1618  0.1897
  166MOL0     C22816   4.157  11.473   1.470 -0.5604  0.0145 -0.3254
  166MOL0     C22817   4.037  11.419   1.451  0.0553 -0.6125  0.2542
  166MOL0     O22818   3.775  11.606   1.438 -0.1992  0.1083 -0.0655
  166MOL0     C22819   3.534  11.364   1.392  0.6405  0.2128  0.7407
  166MOL0     C22820   3.398  11.342   1.373 -0.4405 -0.6448 -0.0266
  166MOL0     N22821   2.603  11.455   1.330 -0.3264  1.0350 -0.0212
  166MOL0     N22822   2.511  11.546   1.351 -0.2042  0.1577  0.3692
  166MOL0     C22823   1.386  11.499   1.773 -0.6935 -0.0231 -0.4076
  166MOL0     C22824   1.270  11.423   1.802 -0.1231  0.1085 -0.3437
  166MOL0     C22825   0.896  11.227   1.842 -0.3585  0.4166 -0.6202
  166MOL0     C22826   0.852  11.282   1.964  0.2646 -0.8369 -0.1277
  166MOL0     C22827   0.744  11.227   2.033  0.1381  1.1255  0.3333
  166MOL0     C22828   0.680  11.113   1.987 -0.3657 -0.5428  0.3840
  166MOL0     O22829   0.590  11.058   2.069  0.1102  0.2803  0.0934
  166MOL0     C22830   0.522  10.936   2.040 -0.0524 -0.7163 -0.0954
  166MOL0     C22831   0.437  10.904   2.176 -0.5795  0.1800  0.0456
  166MOL0     C22832   0.528  10.847   2.284  0.3103  0.5540  0.4979
  166MOL0     C22833   0.546  10.941   2.399 -0.6057  0.9962  0.3563
  166MOL0     C22834   0.421  10.972   2.487  0.2256 -0.1195  0.4059
  166MOL0     C22835   0.324  11.013   2.551  0.7684  0.0586  0.1711
  166MOL0     C22836   0.714  11.064   1.861 -0.2951 -0.7833 -0.0998
  166MOL0     C22837   0.813  11.127   1.783  0.3033 -0.1950  0.1444
  166MOL0     C22838   0.838  11.071   1.644 -0.4285 -0.2798 -0.2524
  166MOL0     H22839   1.049  11.681   1.809 -0.7265  0.5912 -4.0539
  166MOL0     H22840   1.241  11.804   1.742 -0.8903 -0.5645  0.6458
  166MOL0     H22841   1.564  11.590   1.567 -3.0868 -0.7722  0.7342
  166MOL0     H22842   1.643  11.570   1.727  0.8516  0.0196 -1.8166
  166MOL0     H22843   1.673  11.813   1.563  0.1819  0.6940  2.2501
  166MOL0     H22844   1.750  11.786   1.724 -1.8612 -3.1333  1.5615
  166MOL0     H22845   1.852  11.591   1.667  0.7279  2.2229  2.1994
  166MOL0     H22846   1.819  11.609   1.492  0.5954 -0.1021  0.6156
  166MOL0     H22847   1.925  11.835   1.498  2.9869  0.4967 -0.3101
  166MOL0     H22848   1.949  11.827   1.670 -2.1279 -1.5894  1.4705
  166MOL0     H22849   2.163  11.778   1.534  1.3004 -1.5837 -3.4761
  166MOL0     H22850   2.085  11.658   1.449 -2.7346  0.2671  0.3318
  166MOL0     H22851   2.172  11.676   1.748 -1.0708  2.0541 -0.5343
  166MOL0     H22852   2.082  11.534   1.699  0.1581 -0.5145 -2.2560
  166MOL0     H22853   2.254  11.441   1.574 -2.1683 -0.5199  1.6321
  166MOL0     H22854   2.339  11.508   1.712 -0.8153  3.1472  1.1132
  166MOL0     H22855   2.315  11.669   1.461 -0.1403 -3.5556 -0.9307
  166MOL0     H22856   2.418  11.726   1.599 -2.7604  1.8674  0.7786
  166MOL0     H22857   2.590  11.472   1.654 -1.7474 -1.4883 -0.2193
  166MOL0     H22858   2.742  11.245   1.392 -0.0591 -0.7477  0.6541
  166MOL0     H22859   2.735  11.249   1.560 -1.0625 -1.3181 -1.4113
  166MOL0     H22860   2.892  11.444   1.582  0.0123 -0.4497  0.7039
  166MOL0     H22861   2.962  11.289   1.512 -2.9675 -1.8885 -0.1172
  166MOL0     H22862   2.947  11.420   1.285 -2.1398 -0.6059  0.8532
  166MOL0     H22863   2.873  11.546   1.378  0.1231  0.8220  0.7375
  166MOL0     H22864   3.094  11.603   1.356  0.2955 -0.9353 -1.1301
  166MOL0     H22865   3.096  11.533   1.525  0.8662  4.0075 -0.5420
  166MOL0     H22866   3.293  11.641   1.512  0.3436  1.7490 -2.2170
  166MOL0     H22867   3.469  11.770   1.607  0.0695 -0.6244  0.2385
  166MOL0     H22868   3.562  11.787   1.464  2.1988 -2.9389 -0.6800
  166MOL0     H22869   3.638  11.699   1.597 -0.6501 -1.7973  2.7188
  166MOL0     H22870   3.891  11.529   1.735 -0.6751 -0.0482 -0.6434
  166MOL0     H22871   4.115  11.622   1.771 -0.8261  1.3215  0.6837
  166MOL0     H22872   4.403  11.416   1.581 -0.0859 -0.0455 -1.4681
  166MOL0     H22873   4.423  11.518   1.446 -0.9202 -0.4753 -1.0365
  166MOL0     H22874   4.632  11.502   1.557  0.2695 -0.2075  0.7367
  166MOL0     H22875   4.576  11.661   1.596 -0.2370 -0.8439 -1.2612
  166MOL0     H22876   4.546  11.424   1.781 -0.6100 -0.2992 -1.2341
  166MOL0     H22877   4.482  11.591   1.811  1.6052  1.5012  1.2268
  166MOL0     H22878   4.669  11.607   1.936  1.0646 -1.3747  0.2379
  166MOL0     H22879   4.716  11.683   1.791  0.6799 -0.1335  1.9865
  166MOL0     H22880   4.788  11.407   1.889 -2.1445  1.1179 -0.0020
  166MOL0     H22881   4.802  11.453   1.713 -0.1964  0.7962 -0.8914
  166MOL0     H22882   4.941  11.599   1.943 -0.0046 -0.1396 -0.3428
  166MOL0     H22883   4.944  11.641   1.764 -0.3807  2.1306  1.9790
  166MOL0     H22884   5.084  11.452   1.713  0.5645 -0.3211 -0.4600
  166MOL0     H22885   5.042  11.358   1.843 -1.0460  0.0288  0.7649
  166MOL0     H22886   5.275  11.433   1.882  1.8239  0.4741  1.8098
  166MOL0     H22887   5.170  11.442   2.012  1.7652 -1.0465 -0.1773
  166MOL0     H22888   4.225  11.471   1.385 -0.3557  0.3532 -0.1743
  166MOL0     H22889   4.010  11.361   1.363  0.1891 -0.6521  0.2390
  166MOL0     H22890   3.602  11.282   1.369  2.7886  2.1107  0.0079
  166MOL0     H22891   3.365  11.245   1.336 -1.0695 -1.3959  2.3468
  166MOL0     H22892   1.469  11.437   1.740  0.0203  1.1176 -0.7775
  166MOL0     H22893   1.281  11.319   1.830  0.9917  0.2170 -0.3363
  166MOL0     H22894   0.918  11.356   2.008  0.2516  0.7135 -2.4848
  166MOL0     H22895   0.717  11.260   2.133 -0.6035  0.8020  0.2386
  166MOL0     H22896   0.457  10.944   1.952  0.1218 -3.9963 -0.6383
  166MOL0     H22897   0.583  10.849   2.015  0.9373 -0.1032  0.1305
  166MOL0     H22898   0.364  10.824   2.159  1.1763 -1.8978  1.6266
  166MOL0     H22899   0.384  10.994   2.205  0.5821  1.4300 -1.5376
  166MOL0     H22900   0.494  10.749   2.320  0.0577  0.5313  0.2019
  166MOL0     H22901   0.619  10.815   2.232 -0.9035 -4.2612  0.8396
  166MOL0     H22902   0.581  11.031   2.349  1.1387  0.3784  0.3909
  166MOL0     H22903   0.628  10.900   2.459 -1.7073 -1.1115  0.5306
  166MOL0     H22904   0.237  11.025   2.613 -0.8380 -1.3394 -1.6825
  166MOL0     H22905   0.644  10.991   1.821 -1.4722  1.0695 -1.6312
  166MOL0     H22906   0.813  10.964   1.646  1.4293 -0.7452  1.3688
  166MOL0     H22907   0.766  11.121   1.579 -0.8215 -0.5543 -0.0279
  166MOL0     H22908   0.942  11.077   1.611 -0.1025  6.6421  0.6594
  167MOL0     O22909   5.480   7.816  10.630 -0.4503 -0.0211  1.0218
  167MOL0     C22910   5.425   7.707  10.619 -0.0512 -0.2678  0.1692
  167MOL0     O22911   5.491   7.587  10.622 -0.0108  0.9343 -0.0608
  167MOL0     C22912   5.619   7.592  10.658  0.4462 -0.1918  0.2108
  167MOL0     C22913   5.664   7.574  10.786  0.8760  0.0946  0.0249
  167MOL0     C22914   5.799   7.549  10.819  0.4516 -0.5510 -0.1386
  167MOL0     C22915   5.897   7.545  10.713  0.0580  0.5867  1.2835
  167MOL0     O22916   6.021   7.503  10.737  0.2804  0.2879 -0.2244
  167MOL0     C22917   6.080   7.527  10.864  1.0592 -0.4722  0.5605
  167MOL0     C22918   6.227   7.478  10.850  0.1361  0.3734 -0.2184
  167MOL0     C22919   6.307   7.521  10.735 -0.5101 -0.9242 -0.1080
  167MOL0     C22920   6.453   7.502  10.748  0.0546 -0.0572  0.3081
  167MOL0     C22921   6.535   7.513  10.609 -0.0624  0.5626  0.3273
  167MOL0     C22922   6.683   7.503  10.638  0.7530  0.2063 -0.0059
  167MOL0     C22923   6.754   7.638  10.658 -0.1371  0.3616  0.3521
  167MOL0     C22924   6.897   7.634  10.710 -0.1468  0.0161 -0.3060
  167MOL0     N22925   6.977   7.549  10.621 -0.2299  0.6006  0.9593
  167MOL0     C22926   6.981   7.573  10.483 -0.2931  0.9262  0.7057
  167MOL0     C22927   7.058   7.471  10.439 -0.1220  0.6173 -0.7394
  167MOL0     C22928   7.105   7.449  10.297 -0.6778 -0.1682  0.9269
  167MOL0     C22929   7.232   7.376  10.295  0.2503  0.6551  0.7869
  167MOL0     C22930   7.278   7.381  10.142  0.4822  0.1709  0.9380
  167MOL0     C22931   7.396   7.483  10.122  0.4178  0.3075 -0.0359
  167MOL0     O22932   7.509   7.469  10.218 -0.2615  0.3933 -1.1437
  167MOL0     C22933   7.641   7.506  10.191 -0.1492 -0.1169  0.3631
  167MOL0     C22934   7.687   7.545  10.067 -0.3175 -0.0397 -0.6760
  167MOL0     C22935   7.818   7.590  10.044  0.3700 -0.6197 -0.2466
  167MOL0     C22936   7.858   7.629   9.912 -0.5211 -0.7090 -0.7703
  167MOL0     C22937   7.903   7.607  10.157  0.5429  0.6420  0.4481
  167MOL0     C22938   8.031   7.660  10.145 -0.1158  0.0698 -0.8273
  167MOL0     O22939   8.114   7.607  10.045 -0.3900  0.3786 -0.6078
  167MOL0     C22940   8.223   7.685  10.003  0.4980 -0.2652  0.0987
  167MOL0     C22941   8.229   7.827   9.992 -0.4242  0.1225  0.2084
  167MOL0     C22942   8.340   7.889   9.944 -0.2166 -0.3894 -1.0016
  167MOL0     C22943   8.450   7.812   9.922 -0.3339 -0.0689 -0.5711
  167MOL0     O22944   8.556   7.891   9.899 -0.0198  0.3735  0.4051
  167MOL0     C22945   8.650   7.832   9.807  0.0842  0.4127 -0.5484
  167MOL0     C22946   8.766   7.773   9.889 -0.5489  0.9480  0.0459
  167MOL0     C22947   8.892   7.755   9.794 -0.5502  0.2973 -0.4089
  167MOL0     C22948   9.029   7.708   9.857 -0.2982 -0.7143 -0.1366
  167MOL0     C22949   9.091   7.832   9.931  0.6418  0.2095 -1.0586
  167MOL0     C22950   9.206   7.789  10.016 -0.1892  0.6321 -0.4012
  167MOL0     C22951   9.335   7.798   9.936 -1.0833 -0.5299  0.4580
  167MOL0     C22952   9.453   7.740  10.024  0.2179  0.0768  0.3872
  167MOL0    Cl22953   9.496   7.827  10.173 -0.5402  0.0702  0.1694
  167MOL0     C22954   8.449   7.674   9.926 -0.5115 -0.5513  0.3669
  167MOL0     C22955   8.328   7.611   9.956 -0.4790  0.5467 -0.1357
  167MOL0     O22956   8.068   7.739  10.235  0.6230 -0.1977  0.0188
  167MOL0     C22957   7.854   7.561  10.284 -0.3505 -0.4155 -0.5315
  167MOL0     C22958   7.726   7.522  10.294  0.6648  0.8039 -0.9021
  167MOL0     N22959   7.099   7.391  10.549  0.1993 -0.5554  1.0577
  167MOL0     N22960   7.033   7.427  10.648  0.5360 -0.4934 -0.1699
  167MOL0     C22961   5.853   7.573  10.584 -0.1798  0.3533 -0.0007
  167MOL0     C22962   5.718   7.589  10.555  0.4101  0.4361  0.2313
  167MOL0     C22963   5.274   7.714  10.594 -0.4138 -0.0456  0.2145
  167MOL0     C22964   5.190   7.618  10.641 -0.9454  0.1754 -0.1130
  167MOL0     C22965   5.058   7.616  10.610 -0.2745 -0.6400  0.6514
  167MOL0     C22966   5.004   7.711  10.527 -0.1341  0.0441 -0.0136
  167MOL0     O22967   4.872   7.706  10.484 -0.8202 -0.5340 -0.9352
  167MOL0     C22968   4.785   7.601  10.526  0.4983  0.7696 -0.9141
  167MOL0     C22969   4.820   7.474  10.437  0.3316  0.2321  0.1337
  167MOL0     C22970   4.746   7.344  10.482 -0.6715 -0.6607  1.1290
  167MOL0     C22971   4.605   7.337  10.456  0.1570  0.1228  0.0228
  167MOL0     C22972   4.572   7.325  10.311 -0.3410  0.3868 -0.2418
  167MOL0     C22973   4.555   7.336  10.191  0.5575 -0.2876 -0.1356
  167MOL0     C22974   5.079   7.817  10.491  0.6474 -0.0844 -0.1201
  167MOL0     C22975   5.212   7.825  10.522 -0.1307  0.5137 -0.6202
  167MOL0     C22976   5.290   7.946  10.457 -0.6375  0.3137  0.0405
  167MOL0     H22977   5.585   7.567  10.860  1.1411 -0.9577  0.2305
  167MOL0     H22978   5.820   7.514  10.920 -2.2648 -2.3160 -0.0822
  167MOL0     H22979   6.025   7.476  10.943  0.4745 -2.8255 -1.2398
  167MOL0     H22980   6.084   7.636  10.877  0.4319 -0.1711 -1.4319
  167MOL0     H22981   6.270   7.515  10.944 -3.5698  1.1560  1.3517
  167MOL0     H22982   6.233   7.369  10.844  0.6448  0.3046  1.2660
  167MOL0     H22983   6.259   7.472  10.650 -1.8778  0.1146  0.0464
  167MOL0     H22984   6.289   7.627  10.718 -3.7854 -1.5483 -1.1863
  167MOL0     H22985   6.490   7.579  10.816 -2.4149  2.7937 -1.3043
  167MOL0     H22986   6.485   7.412  10.802 -1.9754 -0.9179  0.1766
  167MOL0     H22987   6.524   7.609  10.557  4.2103  0.7880 -0.5003
  167MOL0     H22988   6.510   7.435  10.537  1.2874  0.6933 -0.3159
  167MOL0     H22989   6.708   7.433  10.719 -0.3127 -0.4155 -0.1953
  167MOL0     H22990   6.731   7.457  10.551 -0.3871 -0.1193 -0.4683
  167MOL0     H22991   6.703   7.695  10.736 -2.6850 -0.4713 -0.6057
  167MOL0     H22992   6.754   7.696  10.565  0.1807  1.1319  0.8172
  167MOL0     H22993   6.956   7.725  10.725  2.1934 -1.3593 -0.5375
  167MOL0     H22994   6.907   7.594  10.812  0.0720 -0.1481 -0.3888
  167MOL0     H22995   6.940   7.653  10.423 -1.6329 -0.3379 -0.1281
  167MOL0     H22996   7.102   7.542  10.240  0.4086  0.7134  2.2352
  167MOL0     H22997   7.032   7.387  10.245  1.2391  0.1026 -2.3731
  167MOL0     H22998   7.312   7.418  10.358 -0.0683  1.6776  0.5405
  167MOL0     H22999   7.211   7.272  10.318  0.8462  0.1018 -1.0155
  167MOL0     H23000   7.295   7.280  10.104  0.1263  0.4651 -0.0422
  167MOL0     H23001   7.198   7.432  10.086  0.6993  1.3958  1.7040
  167MOL0     H23002   7.433   7.485  10.020 -2.1671 -0.2133 -1.0460
  167MOL0     H23003   7.355   7.584  10.136  2.2176  1.1259 -0.4351
  167MOL0     H23004   7.628   7.533   9.977 -1.3837  1.8089 -0.2858
  167MOL0     H23005   7.776   7.606   9.843  0.0669 -3.0852 -0.7538
  167MOL0     H23006   7.944   7.577   9.870  0.1644  1.4151 -2.2211
  167MOL0     H23007   7.879   7.737   9.910  2.1490 -1.1326  0.2483
  167MOL0     H23008   8.144   7.886  10.026 -0.1742  0.0356  0.9997
  167MOL0     H23009   8.354   7.996   9.933  2.4972 -0.7165 -1.3451
  167MOL0     H23010   8.608   7.749   9.750  1.5188 -0.4264 -0.4158
  167MOL0     H23011   8.678   7.907   9.733 -2.7038  0.9729 -1.1469
  167MOL0     H23012   8.794   7.853   9.959 -0.4436 -0.9213  2.2985
  167MOL0     H23013   8.741   7.677   9.936 -0.5162  2.0677  2.5136
  167MOL0     H23014   8.913   7.847   9.738 -0.4852  1.0747  0.8384
  167MOL0     H23015   8.857   7.672   9.732  0.2871 -0.8844  0.6440
  167MOL0     H23016   9.101   7.674   9.781  1.0646  2.5374 -0.4692
  167MOL0     H23017   9.011   7.627   9.928  0.6197 -1.6603 -0.9417
  167MOL0     H23018   9.120   7.914   9.864  0.8419  1.2929  0.3153
  167MOL0     H23019   9.014   7.855  10.004  0.8614 -2.6257  0.1941
  167MOL0     H23020   9.201   7.689  10.060  0.5672  1.2710  1.2262
  167MOL0     H23021   9.210   7.854  10.104  0.6202  0.0174  0.0206
  167MOL0     H23022   9.350   7.901   9.903 -1.2660 -0.7186 -0.2366
  167MOL0     H23023   9.325   7.732   9.849 -0.6651  0.2277 -0.1839
  167MOL0     H23024   9.544   7.728   9.965 -0.2133 -1.1345 -0.0629
  167MOL0     H23025   9.426   7.638  10.052 -1.3932  0.0548 -1.1148
  167MOL0     H23026   8.538   7.615   9.909 -0.0194  0.6110 -1.3333
  167MOL0     H23027   8.325   7.504   9.940  0.4751  0.6346 -0.9954
  167MOL0     H23028   7.921   7.574  10.369 -0.1651 -0.2914 -0.6925
  167MOL0     H23029   7.693   7.501  10.396  0.4518 -0.0296 -1.1339
  167MOL0     H23030   5.923   7.569  10.501  1.3827  0.3772  1.2672
  167MOL0     H23031   5.684   7.599  10.453 -1.5839 -0.3953  0.7512
  167MOL0     H23032   5.243   7.541  10.697  0.4719  2.5204  1.9763
  167MOL0     H23033   4.997   7.538  10.653 -1.2049  0.2716  1.0268
  167MOL0     H23034   4.794   7.574  10.631 -1.5813 -0.3600 -0.9701
  167MOL0     H23035   4.682   7.636  10.513 -1.3650 -2.8843  2.0886
  167MOL0     H23036   4.925   7.455  10.458  0.2828  0.4785  0.6192
  167MOL0     H23037   4.804   7.488  10.330  5.4023 -2.9041 -1.3460
  167MOL0     H23038   4.797   7.268  10.421  2.0469  2.0035 -0.1815
  167MOL0     H23039   4.779   7.324  10.585  4.1064  1.4155  0.3153
  167MOL0     H23040   4.542   7.417  10.497  0.9114 -0.3018  2.1311
  167MOL0     H23041   4.575   7.240  10.498  2.2068 -0.6054 -0.0960
  167MOL0     H23042   4.557   7.332  10.084  0.3676  3.5010 -0.4196
  167MOL0     H23043   5.034   7.889  10.423  1.5430  0.5283 -0.0726
  167MOL0     H23044   5.372   7.905  10.397 -1.4354 -1.0175 -0.1844
  167MOL0     H23045   5.221   8.008  10.399  2.2550  2.4127 -1.3978
  167MOL0     H23046   5.351   8.004  10.526  1.1122  1.8203 -2.5981
  168MOL0     O23047   3.472   9.645   0.900  0.6798  0.0162 -0.4294
  168MOL0     C23048   3.383   9.737   0.921  0.1593 -0.4261  0.1096
  168MOL0     O23049   3.407   9.865   0.979 -0.1753  1.1094  0.9417
  168MOL0     C23050   3.530   9.882   1.035  0.7689  0.0292  0.6837
  168MOL0     C23051   3.618   9.977   0.973  0.7180 -0.4594  0.1133
  168MOL0     C23052   3.732  10.013   1.049  0.5945  0.6138 -0.8140
  168MOL0     C23053   3.768   9.948   1.164 -0.5931 -0.7821 -0.4389
  168MOL0     O23054   3.878   9.987   1.234 -0.1423  0.0135  0.4102
  168MOL0     C23055   3.998  10.004   1.152  0.2203 -0.2656 -0.1422
  168MOL0     C23056   4.121   9.992   1.249 -0.3232 -0.4919  0.2011
  168MOL0     C23057   4.111  10.107   1.356 -0.2553  0.2847 -0.3308
  168MOL0     C23058   4.097  10.252   1.301 -0.3150  0.4767  0.7228
  168MOL0     C23059   4.101  10.347   1.419 -0.3820  0.4397 -0.1322
  168MOL0     C23060   4.110  10.501   1.393 -0.1758  0.2582 -1.0012
  168MOL0     C23061   4.244  10.545   1.347  0.6151 -0.8117 -0.7509
  168MOL0     C23062   4.237  10.696   1.298 -0.9068  0.0135  0.8418
  168MOL0     N23063   4.373  10.731   1.254 -1.1475 -0.3881  0.2449
  168MOL0     C23064   4.435  10.696   1.140  0.0677 -0.1354  0.7753
  168MOL0     C23065   4.566  10.736   1.155 -0.2572  0.1619 -0.0887
  168MOL0     C23066   4.674  10.710   1.057  0.1063 -0.0995 -0.1769
  168MOL0     C23067   4.796  10.805   1.080  0.1894  0.1337  0.0349
  168MOL0     C23068   4.922  10.751   1.003  0.8538 -0.3693 -0.2186
  168MOL0     C23069   4.953  10.597   1.001  0.3176 -0.2052 -0.0783
  168MOL0     O23070   4.954  10.534   1.128 -0.0925  0.7643  0.2316
  168MOL0     C23071   5.056  10.543   1.216  0.4775  0.9301 -0.1797
  168MOL0     C23072   5.054  10.469   1.339  0.2864 -0.7686 -0.2280
  168MOL0     C23073   5.164  10.466   1.425  0.5251 -0.8172 -1.0955
  168MOL0     C23074   5.146  10.395   1.550 -0.3580 -0.4852 -0.4095
  168MOL0     C23075   5.281  10.542   1.392 -0.1811 -0.8291 -0.7467
  168MOL0     C23076   5.405  10.547   1.463  0.1990 -0.2651 -0.0840
  168MOL0     O23077   5.437  10.452   1.552  0.1795  0.0496 -0.2449
  168MOL0     C23078   5.537  10.467   1.646  0.0966 -0.1070 -0.4226
  168MOL0     C23079   5.524  10.534   1.763  0.2063  0.0231 -0.2974
  168MOL0     C23080   5.611  10.536   1.870  0.3007 -0.4906  0.2423
  168MOL0     C23081   5.734  10.478   1.851 -0.6644 -0.1434  0.8184
  168MOL0     O23082   5.826  10.484   1.953  0.7506  0.0711 -0.2377
  168MOL0     C23083   5.963  10.433   1.939  0.4717  0.8180 -0.1325
  168MOL0     C23084   6.058  10.537   1.887 -0.2456  0.5160 -0.6811
  168MOL0     C23085   6.186  10.477   1.839  0.1895  0.2057 -0.3828
  168MOL0     C23086   6.257  10.394   1.947 -0.5167 -0.2421 -0.3217
  168MOL0     C23087   6.396  10.358   1.897  0.4735 -0.3281 -0.2191
  168MOL0     C23088   6.490  10.487   1.877  0.3611  0.0881  0.3664
  168MOL0     C23089   6.641  10.447   1.870  0.2204  0.2812  0.6537
  168MOL0     C23090   6.734  10.559   1.806  0.2531  0.1966  0.7604
  168MOL0    Cl23091   6.896  10.529   1.851 -0.0265  0.3225  0.3684
  168MOL0     C23092   5.757  10.409   1.730 -1.0678 -0.6478  0.8561
  168MOL0     C23093   5.657  10.397   1.633 -0.1400 -0.2277 -0.5092
  168MOL0     O23094   5.477  10.656   1.443  0.3005  0.8618  0.2619
  168MOL0     C23095   5.274  10.609   1.269 -0.4523  0.0028  0.4734
  168MOL0     C23096   5.170  10.616   1.184 -0.8642 -0.0707 -0.3942
  168MOL0     N23097   4.580  10.795   1.278  0.0539 -0.4906  0.1122
  168MOL0     N23098   4.461  10.797   1.333 -0.5829 -0.3034 -0.8875
  168MOL0     C23099   3.683   9.849   1.215  0.1630  0.5618 -0.3141
  168MOL0     C23100   3.559   9.816   1.154 -0.2010  0.5046  0.0718
  168MOL0     C23101   3.243   9.722   0.861 -0.5029  0.4697  0.0677
  168MOL0     C23102   3.148   9.811   0.913  0.4483 -0.4776 -0.0417
  168MOL0     C23103   3.016   9.803   0.865  0.3100 -1.2419 -0.4512
  168MOL0     C23104   2.977   9.709   0.773 -0.3784 -0.0132 -0.1508
  168MOL0     O23105   2.850   9.694   0.730 -0.0819  0.0823  0.8388
  168MOL0     C23106   2.748   9.748   0.810  0.3406  0.9578  1.1879
  168MOL0     C23107   2.616   9.729   0.749  0.2838  0.3298 -0.3087
  168MOL0     C23108   2.497   9.759   0.845  0.1697 -0.0500 -0.0972
  168MOL0     C23109   2.366   9.764   0.759 -0.9079  0.1817 -0.1500
  168MOL0     C23110   2.239   9.705   0.817 -0.7276 -0.2576 -0.7842
  168MOL0     C23111   2.141   9.683   0.879  0.3760  0.4361  0.3099
  168MOL0     C23112   3.076   9.624   0.719  0.4649  0.2679  0.1612
  168MOL0     C23113   3.204   9.630   0.760  0.3822  0.2424  0.3775
  168MOL0     C23114   3.304   9.543   0.694 -0.3676  0.2825 -0.3700
  168MOL0     H23115   3.600  10.026   0.878  0.4718  1.1659  0.9593
  168MOL0     H23116   3.790  10.099   1.016 -0.1843  1.1886 -0.7077
  168MOL0     H23117   3.985  10.101   1.104  2.6971  0.7763  1.0836
  168MOL0     H23118   4.014   9.927   1.076  2.4686 -0.4900  0.4619
  168MOL0     H23119   4.118   9.902   1.312 -0.2008  0.7035  1.9851
  168MOL0     H23120   4.214   9.993   1.192 -0.8206 -0.3716 -0.6229
  168MOL0     H23121   4.032  10.085   1.429 -1.0729  2.1169 -0.6043
  168MOL0     H23122   4.208  10.099   1.406  0.2118 -0.7048 -1.3654
  168MOL0     H23123   4.180  10.274   1.233 -0.6746  4.0896  1.2606
  168MOL0     H23124   4.004  10.263   1.245  0.5098  1.9997 -0.4223
  168MOL0     H23125   4.186  10.316   1.481  1.6053 -1.0942 -3.3636
  168MOL0     H23126   4.013  10.336   1.482  0.4380  0.9772  1.1615
  168MOL0     H23127   4.021  10.524   1.333 -1.5657  1.4646  1.3736
  168MOL0     H23128   4.093  10.559   1.485  0.0518  1.7785 -1.8738
  168MOL0     H23129   4.278  10.469   1.275  2.0426 -2.1619  1.2595
  168MOL0     H23130   4.319  10.538   1.426  1.2815  1.0285 -1.1744
  168MOL0     H23131   4.164  10.708   1.217  0.4516 -0.5694 -0.5210
  168MOL0     H23132   4.217  10.768   1.378 -2.5339  0.4099  0.1229
  168MOL0     H23133   4.397  10.646   1.052 -0.0252 -0.9038  1.2426
  168MOL0     H23134   4.630  10.730   0.958 -3.6813  4.6680  2.0703
  168MOL0     H23135   4.709  10.607   1.067  1.5968  0.3579 -0.4557
  168MOL0     H23136   4.779  10.910   1.055 -0.4241  0.6275  2.2978
  168MOL0     H23137   4.822  10.801   1.186  1.9706  1.9911 -0.2669
  168MOL0     H23138   4.899  10.794   0.905 -0.4131 -1.7909 -0.5860
  168MOL0     H23139   5.016  10.797   1.035 -0.7453  1.7321  1.8516
  168MOL0     H23140   4.872  10.547   0.945 -0.7654 -0.3709  1.5595
  168MOL0     H23141   5.041  10.578   0.939  0.9025  2.7233 -0.3017
  168MOL0     H23142   4.956  10.431   1.366 -1.1443  0.8591 -2.6982
  168MOL0     H23143   5.176  10.455   1.636 -1.5981 -2.5047  1.5782
  168MOL0     H23144   5.213  10.310   1.536 -2.0413 -1.7919 -1.0301
  168MOL0     H23145   5.040  10.370   1.565 -0.5631  0.2156 -0.6714
  168MOL0     H23146   5.430  10.588   1.772  0.4832  0.1967  2.6482
  168MOL0     H23147   5.579  10.584   1.962 -2.6827  1.5027 -1.6637
  168MOL0     H23148   5.988  10.396   2.039  1.4590 -3.4505 -1.7136
  168MOL0     H23149   5.968  10.338   1.884 -1.6684 -0.9107  2.3938
  168MOL0     H23150   6.014  10.607   1.816  1.2402  2.3396  0.1143
  168MOL0     H23151   6.076  10.610   1.967  0.0708 -1.0375  0.7185
  168MOL0     H23152   6.245  10.562   1.804  1.2158 -0.1353  0.4721
  168MOL0     H23153   6.162  10.416   1.751  0.9890 -1.0384  0.2413
  168MOL0     H23154   6.203  10.302   1.972 -0.0808 -0.7247 -1.0995
  168MOL0     H23155   6.276  10.454   2.036 -1.9480  1.2678 -0.9673
  168MOL0     H23156   6.430  10.285   1.971 -0.7154  0.2569  0.9498
  168MOL0     H23157   6.388  10.300   1.805  0.6667 -2.2482  0.9256
  168MOL0     H23158   6.465  10.555   1.959 -1.8274 -0.9573  0.6438
  168MOL0     H23159   6.458  10.547   1.791 -0.9217  0.4252  1.0426
  168MOL0     H23160   6.649  10.353   1.815  0.6600  0.2777  0.7161
  168MOL0     H23161   6.674  10.427   1.973 -1.7879 -1.4924  1.0259
  168MOL0     H23162   6.711  10.661   1.838  1.4685  0.5807  0.4819
  168MOL0     H23163   6.715  10.545   1.700  1.5792 -3.7653  0.8718
  168MOL0     H23164   5.849  10.359   1.704  0.1285  2.3205 -1.1880
  168MOL0     H23165   5.678  10.332   1.549  1.6416  0.0665 -0.3377
  168MOL0     H23166   5.360  10.665   1.234  1.2234 -1.0351  2.6485
  168MOL0     H23167   5.190  10.664   1.089  0.2595 -2.9704 -1.7540
  168MOL0     H23168   3.699   9.791   1.305 -4.1810 -0.7877 -0.1414
  168MOL0     H23169   3.494   9.741   1.196  0.8534 -0.3501  0.2124
  168MOL0     H23170   3.173   9.890   0.983  1.6381 -2.1229  1.4701
  168MOL0     H23171   2.946   9.879   0.898  2.2956  0.3098  0.4781
  168MOL0     H23172   2.749   9.715   0.914  0.2992  1.6349  1.4042
  168MOL0     H23173   2.764   9.856   0.812  2.6447  0.6585  3.2450
  168MOL0     H23174   2.606   9.629   0.708  1.3801 -0.6231  1.6057
  168MOL0     H23175   2.608   9.798   0.665  0.4228  0.2305 -0.4028
  168MOL0     H23176   2.483   9.677   0.915  0.2156 -0.7132 -0.8496
  168MOL0     H23177   2.521   9.854   0.895 -1.2670  1.9891 -2.9634
  168MOL0     H23178   2.388   9.714   0.664  1.6822 -1.9807  1.4299
  168MOL0     H23179   2.339   9.866   0.731 -0.7201  0.7396  1.5685
  168MOL0     H23180   2.050   9.664   0.933 -0.4266  1.6302 -0.5448
  168MOL0     H23181   3.052   9.551   0.642  1.1786 -0.0760  0.2511
  168MOL0     H23182   3.276   9.492   0.601 -1.9140 -0.9662  0.7136
  168MOL0     H23183   3.388   9.608   0.670 -0.4350  1.4534  2.2211
  168MOL0     H23184   3.346   9.474   0.768  0.0580 -1.9693 -2.5790
  169MOL0     O23185   7.388   8.675  10.529  0.1729  0.0534 -0.1306
  169MOL0     C23186   7.404   8.797  10.538 -0.2336 -0.1136 -0.2962
  169MOL0     O23187   7.526   8.859  10.516 -0.0694  0.3156 -0.2252
  169MOL0     C23188   7.629   8.779  10.472 -0.0839 -0.1430 -0.1699
  169MOL0     C23189   7.688   8.805  10.345  0.0228  0.4204 -0.2661
  169MOL0     C23190   7.804   8.740  10.304 -0.9245  0.2940 -0.2659
  169MOL0     C23191   7.870   8.655  10.390 -0.2415 -0.4278  0.0573
  169MOL0     O23192   7.992   8.602  10.353 -0.0744  0.6459 -0.1427
  169MOL0     C23193   7.998   8.460  10.367 -0.7682 -0.5726 -0.6866
  169MOL0     C23194   8.128   8.412  10.292  0.3791  0.2851 -0.7866
  169MOL0     C23195   8.130   8.461  10.153 -0.2880 -0.0092 -0.1225
  169MOL0     C23196   8.226   8.386  10.053 -0.0342 -0.4533  0.0317
  169MOL0     C23197   8.201   8.441   9.911  0.0836  0.6492 -0.5122
  169MOL0     C23198   8.303   8.379   9.817  0.0827 -0.8954  0.2288
  169MOL0     C23199   8.256   8.409   9.674 -0.3946 -0.0867 -0.7169
  169MOL0     C23200   8.282   8.555   9.630 -0.1580  0.3733  0.4336
  169MOL0     N23201   8.428   8.587   9.624  0.1425  1.2380  0.1701
  169MOL0     C23202   8.481   8.623   9.501 -0.3032 -0.2927  0.0128
  169MOL0     C23203   8.612   8.644   9.533  0.8211 -0.2007  0.2694
  169MOL0     C23204   8.716   8.677   9.426 -0.5674 -0.7345  0.2738
  169MOL0     C23205   8.715   8.833   9.406  0.2279  0.2219 -0.1954
  169MOL0     C23206   8.768   8.885   9.279 -0.2276  0.0826 -0.0781
  169MOL0     C23207   8.914   8.845   9.255  0.3865 -1.0440 -0.3169
  169MOL0     O23208   8.991   8.890   9.366 -0.4345 -0.1861 -0.3117
  169MOL0     C23209   9.129   8.893   9.348  0.5014 -0.8201  0.2391
  169MOL0     C23210   9.204   8.813   9.261  0.4511 -1.0112 -0.4204
  169MOL0     C23211   9.345   8.827   9.255  0.2245 -0.2705 -1.5571
  169MOL0     C23212   9.403   8.723   9.161  0.1422  0.8636 -0.0631
  169MOL0     C23213   9.409   8.913   9.344  0.8237  0.1690  0.0384
  169MOL0     C23214   9.565   8.909   9.363  0.5285 -0.2249  0.1938
  169MOL0     O23215   9.613   8.964   9.485 -0.4692 -0.0434 -0.2604
  169MOL0     C23216   9.754   8.957   9.495  0.0975 -0.0455  0.5767
  169MOL0     C23217   9.808   8.882   9.593  0.8433 -0.3410  0.0802
  169MOL0     C23218   9.937   8.859   9.608 -0.2415 -0.3440 -0.5185
  169MOL0     C23219  10.020   8.936   9.525  0.0029 -0.3915  0.0571
  169MOL0     O23220  10.162   8.943   9.542 -0.7117  0.3035 -0.2365
  169MOL0     C23221  10.230   8.876   9.650 -0.0008 -0.5475 -0.0998
  169MOL0     C23222  10.297   8.743   9.589  0.1224  0.3479  0.4910
  169MOL0     C23223  10.387   8.675   9.701 -0.6309  0.0349 -0.3292
  169MOL0     C23224  10.519   8.763   9.723  0.4054 -0.4727  0.1496
  169MOL0     C23225  10.593   8.716   9.850 -0.7132  0.3965 -0.7142
  169MOL0     C23226  10.637   8.564   9.860 -0.4326 -0.7680  0.2754
  169MOL0     C23227  10.706   8.540   9.991 -0.2870 -0.9453 -0.2817
  169MOL0     C23228  10.853   8.577   9.988 -0.3726  0.2444  0.6073
  169MOL0    Cl23229  10.938   8.484   9.856  0.5370  0.2489 -0.1292
  169MOL0     C23230   9.971   9.019   9.426 -1.0154  0.9476  0.6795
  169MOL0     C23231   9.835   9.034   9.416  0.1049  0.5065  0.1504
  169MOL0     O23232   9.635   8.863   9.271 -0.2296  0.4287  0.1928
  169MOL0     C23233   9.328   8.995   9.423 -0.6207  0.2250 -0.3995
  169MOL0     C23234   9.198   8.991   9.420  0.2155  0.1646  0.6586
  169MOL0     N23235   8.630   8.623   9.669  0.0132 -0.1118  0.0846
  169MOL0     N23236   8.524   8.580   9.719  0.6509 -1.1056 -0.1206
  169MOL0     C23237   7.813   8.631  10.518  0.2597 -1.7205 -0.1114
  169MOL0     C23238   7.692   8.685  10.552 -0.0660 -0.4333  0.6075
  169MOL0     C23239   7.295   8.865  10.614 -0.2211 -0.3292 -0.3986
  169MOL0     C23240   7.335   8.957  10.717 -0.6328  0.3324  0.9793
  169MOL0     C23241   7.238   9.033  10.778 -0.3124  0.2301 -0.0629
  169MOL0     C23242   7.100   9.026  10.743  0.1986  0.0058 -0.7221
  169MOL0     O23243   7.014   9.116  10.782 -0.1929  0.0372  0.4853
  169MOL0     C23244   6.883   9.068  10.832  0.6480  0.0447  0.5154
  169MOL0     C23245   6.848   9.162  10.945 -0.1303  0.2697 -0.0977
  169MOL0     C23246   6.762   9.277  10.882 -0.0773 -0.4003 -1.2011
  169MOL0     C23247   6.755   9.394  10.981 -0.0347 -0.1936  0.0796
  169MOL0     C23248   6.734   9.360  11.116  0.2527  0.1537 -0.6497
  169MOL0     C23249   6.709   9.325  11.232 -0.7321 -0.1622 -0.1592
  169MOL0     C23250   7.058   8.926  10.647 -0.0971 -0.5462 -0.1576
  169MOL0     C23251   7.156   8.833  10.593 -0.5512 -0.1542  1.1339
  169MOL0     C23252   7.113   8.736  10.489  0.0728 -0.4434  0.2977
  169MOL0     H23253   7.646   8.884  10.284  1.6683  0.1552 -1.8360
  169MOL0     H23254   7.841   8.744  10.202  1.3523 -1.5595  0.3963
  169MOL0     H23255   7.912   8.411  10.320 -1.3977  0.6176 -0.8131
  169MOL0     H23256   8.006   8.437  10.474  3.2855  2.7964 -0.0040
  169MOL0     H23257   8.202   8.466  10.354 -1.9711  1.5186  1.1119
  169MOL0     H23258   8.137   8.304  10.300  1.7987  0.5005  1.6506
  169MOL0     H23259   8.034   8.443  10.105  1.3081 -0.2662 -3.5738
  169MOL0     H23260   8.149   8.568  10.142  1.4747 -0.2355  0.4711
  169MOL0     H23261   8.324   8.411  10.096 -0.0636 -0.3194  0.0195
  169MOL0     H23262   8.204   8.279  10.057  0.0770 -0.6325 -2.4187
  169MOL0     H23263   8.212   8.549   9.921  0.3079  0.5833  0.0650
  169MOL0     H23264   8.098   8.424   9.881 -0.7689  0.6457  2.1158
  169MOL0     H23265   8.407   8.411   9.825  0.2174 -1.3459  0.2953
  169MOL0     H23266   8.309   8.270   9.829 -3.8483 -1.7220 -3.0825
  169MOL0     H23267   8.150   8.383   9.680  0.3806 -3.6694 -0.1051
  169MOL0     H23268   8.302   8.344   9.599 -0.9794 -0.1623 -1.0133
  169MOL0     H23269   8.224   8.583   9.542  0.2931 -1.0255 -0.3366
  169MOL0     H23270   8.237   8.618   9.707 -1.3406  1.1468 -0.8512
  169MOL0     H23271   8.442   8.636   9.401 -0.9722  1.7695  0.4977
  169MOL0     H23272   8.684   8.617   9.341 -0.8196  0.7881 -0.7403
  169MOL0     H23273   8.809   8.636   9.466  0.0937 -0.0270 -0.5061
  169MOL0     H23274   8.612   8.870   9.414  0.7793  1.7096  0.4961
  169MOL0     H23275   8.771   8.882   9.486  0.2447  1.6641 -1.0542
  169MOL0     H23276   8.725   8.836   9.191  2.0967  0.2331 -1.3856
  169MOL0     H23277   8.738   8.990   9.279 -2.0253 -0.3208  3.0650
  169MOL0     H23278   8.923   8.736   9.257 -1.2168 -1.2001 -0.3143
  169MOL0     H23279   8.955   8.883   9.161  0.2869 -3.3991 -1.3966
  169MOL0     H23280   9.158   8.746   9.190 -0.3831  0.1387 -0.9927
  169MOL0     H23281   9.482   8.769   9.099  1.6636 -0.9767  0.4219
  169MOL0     H23282   9.330   8.689   9.087 -0.2805  0.8806  0.3461
  169MOL0     H23283   9.444   8.635   9.212  0.1538  0.4726 -0.7324
  169MOL0     H23284   9.739   8.823   9.653 -1.4395  2.4345  0.4005
  169MOL0     H23285   9.962   8.790   9.688 -1.6291  1.7324  1.8554
  169MOL0     H23286  10.311   8.944   9.679 -0.4702  0.2503 -0.6116
  169MOL0     H23287  10.157   8.863   9.731  0.7409  0.3068  0.7290
  169MOL0     H23288  10.223   8.670   9.554  1.0792 -1.1033  1.3477
  169MOL0     H23289  10.353   8.764   9.497 -0.8473  1.5947  0.1639
  169MOL0     H23290  10.410   8.574   9.668  3.3945  1.0721 -1.3591
  169MOL0     H23291  10.333   8.666   9.796  1.4090 -3.7799  0.6707
  169MOL0     H23292  10.506   8.871   9.739  2.6562 -0.1357  0.0893
  169MOL0     H23293  10.584   8.757   9.635  3.2131 -0.5328  2.0803
  169MOL0     H23294  10.680   8.780   9.868 -0.9205  0.6312 -0.5497
  169MOL0     H23295  10.532   8.724   9.940  0.1627 -1.1560  0.0798
  169MOL0     H23296  10.704   8.548   9.775 -0.4188 -1.5136  0.4206
  169MOL0     H23297  10.554   8.494   9.851  0.5490 -1.8655 -0.6223
  169MOL0     H23298  10.703   8.431  10.000 -3.2797 -1.2979 -3.2514
  169MOL0     H23299  10.663   8.581  10.083 -1.6278  0.3076 -1.4029
  169MOL0     H23300  10.904   8.572  10.085  1.3643 -2.2493 -0.3296
  169MOL0     H23301  10.860   8.680   9.950  0.9224  0.4582  1.3632
  169MOL0     H23302  10.038   9.072   9.359  0.9593 -1.3750  0.6854
  169MOL0     H23303   9.790   9.099   9.342 -1.1759  0.4306  0.8419
  169MOL0     H23304   9.373   9.069   9.488 -2.2317  2.2784 -1.4798
  169MOL0     H23305   9.150   9.053   9.496 -0.5445  2.6255 -1.6802
  169MOL0     H23306   7.864   8.569  10.592 -1.9679 -2.0574  1.2403
  169MOL0     H23307   7.652   8.671  10.652 -1.0888  4.7803  1.2107
  169MOL0     H23308   7.438   8.986  10.737  0.2534 -1.4018 -0.8435
  169MOL0     H23309   7.266   9.109  10.850 -0.8874 -0.9924  1.5059
  169MOL0     H23310   6.816   9.070  10.746  1.4198 -1.2171 -0.1369
  169MOL0     H23311   6.888   8.966  10.871  0.8208  0.5758  1.9710
  169MOL0     H23312   6.941   9.193  10.994 -0.1409 -0.9973  0.7635
  169MOL0     H23313   6.794   9.105  11.022 -1.4185  1.5617  0.0122
  169MOL0     H23314   6.794   9.318  10.785  0.9170 -3.1537 -2.1160
  169MOL0     H23315   6.662   9.234  10.867  0.8181 -2.3039 -2.0747
  169MOL0     H23316   6.663   9.443  10.947  0.1898  0.8952  0.9830
  169MOL0     H23317   6.843   9.457  10.968 -0.6510  0.2220 -2.7137
  169MOL0     H23318   6.698   9.284  11.331  0.6161 -1.3703 -0.4711
  169MOL0     H23319   6.954   8.912  10.619 -0.1319 -0.4949 -0.0556
  169MOL0     H23320   7.006   8.729  10.468  0.3098  1.0712 -1.7023
  169MOL0     H23321   7.151   8.755  10.388 -2.1362 -0.3577 -0.5688
  169MOL0     H23322   7.136   8.637  10.529 -4.4843 -1.3395  1.2095
  170MOL0     O23323   5.531   3.218   3.776 -0.1527  0.0043 -0.0411
  170MOL0     C23324   5.535   3.286   3.676  0.3828 -0.3511  0.7095
  170MOL0     O23325   5.634   3.281   3.582 -0.4466 -0.1669  0.3580
  170MOL0     C23326   5.742   3.197   3.612 -0.0452  0.2706 -0.2876
  170MOL0     C23327   5.863   3.264   3.627 -0.3491  0.7656  0.3875
  170MOL0     C23328   5.975   3.186   3.645 -0.1341 -0.4402  0.8338
  170MOL0     C23329   5.974   3.045   3.633  1.0786  0.2551 -0.1165
  170MOL0     O23330   6.080   2.954   3.652 -0.0592 -0.1745  0.0373
  170MOL0     C23331   6.172   2.992   3.756  0.6272 -0.2683 -0.0484
  170MOL0     C23332   6.314   2.946   3.714 -0.1002  0.4336 -0.5666
  170MOL0     C23333   6.404   2.920   3.839 -0.7220  0.1340 -0.8978
  170MOL0     C23334   6.545   2.862   3.807 -0.0605 -0.8097 -0.5759
  170MOL0     C23335   6.545   2.715   3.746  0.0303  0.2659  0.1563
  170MOL0     C23336   6.694   2.668   3.735  1.0356  0.3187 -0.9760
  170MOL0     C23337   6.709   2.518   3.699 -0.0898 -0.1520  0.3535
  170MOL0     C23338   6.857   2.483   3.724  0.2519  0.3441  0.0276
  170MOL0     N23339   6.878   2.401   3.844  0.2602  0.5344  0.2070
  170MOL0     C23340   6.873   2.263   3.851 -0.3545  0.1895 -0.1026
  170MOL0     C23341   6.923   2.226   3.973 -0.2565  0.0782  0.3057
  170MOL0     C23342   6.943   2.082   4.027 -0.2146  0.0898  0.1075
  170MOL0     C23343   7.065   2.000   3.977  0.5113 -0.1604  0.8173
  170MOL0     C23344   7.200   2.069   4.013  0.8210  0.2495  0.2109
  170MOL0     C23345   7.315   1.980   3.951  0.2413 -0.2973 -0.1256
  170MOL0     O23346   7.438   2.057   3.949  0.7171 -0.1413  0.3307
  170MOL0     C23347   7.552   1.976   3.940 -0.2435 -0.2457 -0.2289
  170MOL0     C23348   7.671   2.035   3.990 -0.0248  0.1051 -0.4282
  170MOL0     C23349   7.793   1.968   4.016  0.3092 -0.0945 -0.1140
  170MOL0     C23350   7.909   2.042   4.096 -0.1987  0.6038 -0.0061
  170MOL0     C23351   7.804   1.836   3.968  0.6734  0.7004 -0.6079
  170MOL0     C23352   7.920   1.755   3.963 -0.3024  0.1913  0.1741
  170MOL0     O23353   8.042   1.794   4.024 -0.2936  0.2855 -0.4674
  170MOL0     C23354   8.144   1.712   4.017  0.6363  0.1967 -0.0375
  170MOL0     C23355   8.263   1.768   3.960 -0.1380 -0.0171 -0.5918
  170MOL0     C23356   8.370   1.673   3.960  0.8039  0.2217  0.7024
  170MOL0     C23357   8.374   1.544   4.025  0.2824  0.2616 -0.4378
  170MOL0     O23358   8.479   1.457   4.036  0.5676  0.2761 -0.5381
  170MOL0     C23359   8.591   1.493   3.958  0.1147  0.2280 -0.1781
  170MOL0     C23360   8.705   1.391   3.959  0.6611  0.9436 -0.2800
  170MOL0     C23361   8.833   1.465   3.922 -0.3962 -0.0105 -0.0971
  170MOL0     C23362   8.945   1.367   3.869  0.2967  0.2736  0.1829
  170MOL0     C23363   9.048   1.440   3.778  0.5412 -0.4783 -0.3273
  170MOL0     C23364   9.153   1.519   3.856  1.0873 -0.4370  0.5063
  170MOL0     C23365   9.244   1.567   3.740  0.9717  0.1853 -0.3734
  170MOL0     C23366   9.372   1.623   3.799  0.2730 -0.6187  0.4356
  170MOL0    Cl23367   9.458   1.475   3.864  0.4806 -0.0550 -0.2385
  170MOL0     C23368   8.254   1.504   4.080  0.7389  0.0677  0.1073
  170MOL0     C23369   8.142   1.586   4.080 -0.0014 -0.5403 -0.3455
  170MOL0     O23370   7.908   1.648   3.902 -0.0554  0.1705  0.3891
  170MOL0     C23371   7.685   1.775   3.911 -0.3523  0.3259 -1.0573
  170MOL0     C23372   7.561   1.848   3.898  1.3268  0.6223  0.9619
  170MOL0     N23373   6.960   2.343   4.041 -0.5033  0.3664  0.4471
  170MOL0     N23374   6.914   2.443   3.971 -0.0145 -0.3154  0.6353
  170MOL0     C23375   5.848   2.986   3.622  0.3458 -0.3841 -0.2647
  170MOL0     C23376   5.740   3.058   3.605  0.2324 -0.8637 -0.5006
  170MOL0     C23377   5.426   3.383   3.646  0.2193 -0.2328  0.1956
  170MOL0     C23378   5.418   3.447   3.517 -0.2274  0.0311 -0.5146
  170MOL0     C23379   5.318   3.541   3.485 -0.6147  1.0341 -0.3785
  170MOL0     C23380   5.226   3.576   3.584  0.2108  0.8236  0.0424
  170MOL0     O23381   5.148   3.679   3.542  0.1919  0.2674 -0.5699
  170MOL0     C23382   5.071   3.741   3.651  0.4324  0.2771  0.5566
  170MOL0     C23383   5.009   3.862   3.592 -0.0725 -0.3116 -0.1110
  170MOL0     C23384   4.943   3.829   3.457  0.7659 -0.9752  0.5488
  170MOL0     C23385   4.854   3.945   3.399 -0.3411  0.0664 -0.1346
  170MOL0     C23386   4.744   3.984   3.490  0.1171  0.5715 -0.0032
  170MOL0     C23387   4.665   4.037   3.566  0.7070 -0.0296  0.4538
  170MOL0     C23388   5.224   3.506   3.706  0.2284 -0.8209 -0.2357
  170MOL0     C23389   5.317   3.413   3.737 -0.0527  0.0892 -0.4281
  170MOL0     C23390   5.311   3.352   3.875  0.4900  0.5466  0.6849
  170MOL0     H23391   5.867   3.373   3.631  1.8535  0.7689 -0.4453
  170MOL0     H23392   6.071   3.227   3.674  1.4378  0.0517 -4.2001
  170MOL0     H23393   6.139   2.936   3.844  0.4724 -0.4853 -0.2430
  170MOL0     H23394   6.170   3.098   3.782  2.9040  0.0521 -0.9345
  170MOL0     H23395   6.312   2.854   3.655 -0.9279  1.3263 -1.9748
  170MOL0     H23396   6.365   3.017   3.648  1.4090  0.1995  0.2919
  170MOL0     H23397   6.413   3.011   3.899 -3.3645  0.6213 -1.1041
  170MOL0     H23398   6.353   2.850   3.906 -0.5487  0.4514 -0.4313
  170MOL0     H23399   6.606   2.910   3.730  0.4211  1.9279  1.3667
  170MOL0     H23400   6.609   2.876   3.895 -1.1535  2.2448 -0.1596
  170MOL0     H23401   6.495   2.705   3.649  1.4092 -2.2486 -0.3757
  170MOL0     H23402   6.477   2.655   3.807 -2.9837  1.1407 -2.0757
  170MOL0     H23403   6.745   2.730   3.660  1.2850 -0.1812 -1.2236
  170MOL0     H23404   6.742   2.682   3.832 -0.1967 -1.4100 -0.0678
  170MOL0     H23405   6.693   2.505   3.592  2.3752 -0.2873 -0.0480
  170MOL0     H23406   6.632   2.461   3.753 -0.4977 -0.0569 -0.1169
  170MOL0     H23407   6.888   2.423   3.638 -1.1241  0.2303 -0.4095
  170MOL0     H23408   6.924   2.569   3.716 -0.2971  0.7060 -0.8460
  170MOL0     H23409   6.838   2.203   3.767 -1.4364  2.3610 -1.2873
  170MOL0     H23410   6.851   2.033   3.992 -0.5927  1.4986 -1.0100
  170MOL0     H23411   6.935   2.079   4.136 -1.4299  0.8408  0.0606
  170MOL0     H23412   7.051   1.898   4.015 -1.0311 -0.2495  0.0755
  170MOL0     H23413   7.067   1.987   3.869 -2.2244 -2.4751  0.9259
  170MOL0     H23414   7.196   2.166   3.963 -3.7477 -0.6432 -1.7319
  170MOL0     H23415   7.196   2.089   4.121 -1.5199  1.9601 -0.1031
  170MOL0     H23416   7.327   1.893   4.015  1.2063  0.0720  0.2077
  170MOL0     H23417   7.274   1.952   3.853 -2.3522  2.5922  0.0192
  170MOL0     H23418   7.657   2.125   4.049  2.4973 -1.8872  3.7490
  170MOL0     H23419   7.890   2.142   4.134 -0.5099  0.6912 -0.3814
  170MOL0     H23420   7.980   2.045   4.012  0.0270 -2.0945 -0.0049
  170MOL0     H23421   7.958   1.990   4.179  0.8038  2.6637  0.7491
  170MOL0     H23422   8.257   1.860   3.902  0.4821 -0.6488 -1.7070
  170MOL0     H23423   8.460   1.697   3.904  0.9856 -3.3753 -0.8176
  170MOL0     H23424   8.563   1.523   3.857  1.2809  0.3695 -0.4747
  170MOL0     H23425   8.635   1.576   4.013 -1.1301  2.7810 -2.8000
  170MOL0     H23426   8.712   1.348   4.060  0.5367 -2.8146 -1.7296
  170MOL0     H23427   8.684   1.302   3.899 -0.9386  0.2546  1.1772
  170MOL0     H23428   8.878   1.519   4.006 -0.5029  1.9119 -1.2020
  170MOL0     H23429   8.800   1.531   3.840 -0.6785  0.4246  0.3600
  170MOL0     H23430   8.895   1.289   3.810  0.9916  0.2420 -0.3894
  170MOL0     H23431   9.000   1.323   3.953  2.1153  1.4290 -0.3277
  170MOL0     H23432   9.104   1.358   3.732  2.8325 -0.4557  2.2041
  170MOL0     H23433   8.997   1.507   3.709 -0.5271  0.1096  0.9749
  170MOL0     H23434   9.214   1.446   3.912  0.8138  1.1254  3.0160
  170MOL0     H23435   9.116   1.600   3.919 -1.8725 -1.5021  0.3063
  170MOL0     H23436   9.191   1.646   3.687 -3.5022 -0.7080  2.2581
  170MOL0     H23437   9.268   1.481   3.677 -2.4720 -0.1510 -1.4000
  170MOL0     H23438   9.349   1.701   3.873 -0.7763  1.8320 -2.2559
  170MOL0     H23439   9.430   1.672   3.719  0.0672 -1.2521 -0.1068
  170MOL0     H23440   8.256   1.410   4.133 -0.7006  0.2121  0.4764
  170MOL0     H23441   8.057   1.536   4.126 -1.2874  2.5722  0.9295
  170MOL0     H23442   7.690   1.673   3.874 -2.2296  0.9051 -3.1469
  170MOL0     H23443   7.482   1.788   3.854  0.4302  2.8400 -0.6370
  170MOL0     H23444   5.835   2.878   3.614 -1.6526 -0.1287 -1.0371
  170MOL0     H23445   5.641   3.015   3.590 -0.5442  0.2690  1.0638
  170MOL0     H23446   5.502   3.432   3.450 -0.1536 -1.1956 -0.1704
  170MOL0     H23447   5.333   3.584   3.386 -0.1401 -0.5935 -1.0613
  170MOL0     H23448   4.989   3.673   3.677  1.2842 -1.5653 -1.2164
  170MOL0     H23449   5.131   3.767   3.739 -3.3042  2.5699  2.6687
  170MOL0     H23450   5.099   3.924   3.581  0.8604 -1.2865  1.6313
  170MOL0     H23451   4.936   3.906   3.659 -0.4516 -2.7737  1.2194
  170MOL0     H23452   5.018   3.812   3.379  1.0635  0.5428  0.4718
  170MOL0     H23453   4.873   3.745   3.466 -0.5036  0.0762  0.6989
  170MOL0     H23454   4.818   3.910   3.302 -1.7392 -2.7197  1.2805
  170MOL0     H23455   4.913   4.035   3.380  0.3188 -0.5832 -1.2683
  170MOL0     H23456   4.589   4.076   3.631  1.0565  0.2511  0.6936
  170MOL0     H23457   5.139   3.521   3.772 -0.3606 -2.8767 -0.4559
  170MOL0     H23458   5.231   3.398   3.935 -2.7741 -0.4678 -2.4700
  170MOL0     H23459   5.302   3.244   3.892 -2.2734  0.4909 -0.5453
  170MOL0     H23460   5.400   3.388   3.927 -0.6254  1.6287  1.9201
  171MOL0     O23461   8.600  10.856   2.637 -0.6000  0.1391 -0.5256
  171MOL0     C23462   8.652  10.828   2.747 -0.3440  0.6502 -0.1650
  171MOL0     O23463   8.669  10.908   2.848  0.7226 -0.7155 -0.1958
  171MOL0     C23464   8.666  11.054   2.836 -0.1590 -0.6292 -0.4889
  171MOL0     C23465   8.659  11.120   2.965 -0.0654  0.9393  0.1053
  171MOL0     C23466   8.642  11.257   2.971 -0.2867 -0.9164 -0.3349
  171MOL0     C23467   8.657  11.336   2.856 -0.0670  0.1406 -0.1232
  171MOL0     O23468   8.651  11.469   2.873 -0.0193  0.2664  0.3171
  171MOL0     C23469   8.706  11.563   2.780 -0.6787 -0.5305  0.3022
  171MOL0     C23470   8.611  11.677   2.722 -0.1950  0.0233 -0.0316
  171MOL0     C23471   8.685  11.754   2.612 -0.0051 -0.4525 -0.6009
  171MOL0     C23472   8.804  11.842   2.652 -0.6571  0.2230 -0.5281
  171MOL0     C23473   8.886  11.902   2.533 -0.3172  0.3441 -0.6816
  171MOL0     C23474   8.789  11.955   2.430 -0.1834 -0.1477  1.0011
  171MOL0     C23475   8.864  12.015   2.302 -0.3676 -0.8794 -0.4756
  171MOL0     C23476   8.952  11.908   2.234 -0.4129 -0.4626 -0.0765
  171MOL0     N23477   9.003  11.954   2.096 -0.4807 -0.2380 -0.1091
  171MOL0     C23478   9.093  12.055   2.056  0.6876  0.3452 -0.2804
  171MOL0     C23479   9.114  12.027   1.926 -0.1317 -0.2324 -0.0845
  171MOL0     C23480   9.205  12.107   1.832 -0.2690 -0.0189 -1.1531
  171MOL0     C23481   9.327  12.038   1.781 -0.0152  0.4108  0.4376
  171MOL0     C23482   9.398  12.128   1.676  0.2887  0.2501 -0.6163
  171MOL0     C23483   9.444  12.065   1.540  0.0111  0.4778 -1.2542
  171MOL0     O23484   9.540  11.961   1.577  0.3613  0.2660  0.1351
  171MOL0     C23485   9.569  11.861   1.488 -0.6264 -0.3925 -0.3427
  171MOL0     C23486   9.518  11.857   1.355 -0.6052 -0.1118 -0.7415
  171MOL0     C23487   9.558  11.750   1.272  0.3609 -0.2565  0.2713
  171MOL0     C23488   9.505  11.762   1.134 -0.7794 -0.1566 -1.0922
  171MOL0     C23489   9.644  11.641   1.323 -0.3377  0.2842  0.0540
  171MOL0     C23490   9.672  11.524   1.231 -0.2727 -0.5985  0.2501
  171MOL0     O23491   9.804  11.495   1.191 -0.8514 -0.2385  0.8336
  171MOL0     C23492   9.821  11.383   1.114  0.6331 -0.6348 -0.6477
  171MOL0     C23493   9.845  11.257   1.176 -0.8892  0.8170  0.0231
  171MOL0     C23494   9.871  11.146   1.094 -0.3709  0.5216 -0.1129
  171MOL0     C23495   9.857  11.158   0.955  0.8266 -0.7827 -0.2485
  171MOL0     O23496   9.860  11.059   0.864  0.5338 -0.6153 -0.4114
  171MOL0     C23497   9.890  10.927   0.913  0.4249 -0.2585 -0.9262
  171MOL0     C23498   9.767  10.850   0.914 -0.0233  0.0253  0.5913
  171MOL0     C23499   9.792  10.705   0.893  0.2329 -0.2130  0.0199
  171MOL0     C23500   9.858  10.645   1.009  0.3314 -0.3202  0.6660
  171MOL0     C23501   9.917  10.510   0.970 -0.2641 -1.2302  1.0717
  171MOL0     C23502   9.929  10.427   1.103  0.0859  0.1263  0.4929
  171MOL0     C23503   9.991  10.289   1.082 -0.0604  0.1490  0.2157
  171MOL0     C23504   9.891  10.188   1.027 -0.3639  0.9890 -0.5694
  171MOL0    Cl23505   9.756  10.157   1.145  0.3037 -0.2069 -0.2689
  171MOL0     C23506   9.846  11.292   0.894  0.7320  1.4975 -0.4490
  171MOL0     C23507   9.825  11.398   0.977  0.2253 -0.2336 -0.0859
  171MOL0     O23508   9.571  11.453   1.214 -0.6449 -0.5508 -0.5222
  171MOL0     C23509   9.688  11.649   1.450 -0.2190  0.0339 -0.2388
  171MOL0     C23510   9.653  11.759   1.533  0.2960 -0.2636 -0.0837
  171MOL0     N23511   9.032  11.925   1.885 -0.5917  0.3024 -0.7117
  171MOL0     N23512   8.973  11.875   1.988  0.5579 -0.7747  0.6564
  171MOL0     C23513   8.667  11.275   2.725 -0.7219  0.2548 -0.8865
  171MOL0     C23514   8.678  11.131   2.721 -0.2597  0.4106  0.4387
  171MOL0     C23515   8.700  10.693   2.772 -0.1389  0.4242 -0.8280
  171MOL0     C23516   8.674  10.629   2.892 -0.0782 -0.5647  0.2141
  171MOL0     C23517   8.716  10.496   2.919 -0.2211 -0.6812  0.2071
  171MOL0     C23518   8.795  10.429   2.823 -0.3314 -0.2435  0.1832
  171MOL0     O23519   8.842  10.299   2.845  0.0135 -0.3046  0.3746
  171MOL0     C23520   8.978  10.274   2.801 -0.2689  0.0458 -0.8785
  171MOL0     C23521   9.036  10.160   2.878 -0.2350  0.6192 -0.5786
  171MOL0     C23522   8.973  10.030   2.841 -0.0768 -0.1789  0.2263
  171MOL0     C23523   9.029   9.953   2.719  0.7903  0.1199  0.6901
  171MOL0     C23524   8.943   9.850   2.672 -0.0227  0.0924  0.5055
  171MOL0     C23525   8.868   9.753   2.647  0.2350 -0.9672 -0.1437
  171MOL0     C23526   8.818  10.489   2.698 -0.6065  0.0833 -0.0241
  171MOL0     C23527   8.773  10.620   2.671  0.2412 -0.2067 -0.1634
  171MOL0     C23528   8.812  10.678   2.541 -0.5687 -0.7469 -0.6516
  171MOL0     H23529   8.665  11.064   3.058 -2.1216 -2.8567 -1.7945
  171MOL0     H23530   8.631  11.310   3.065  0.2991 -4.4636  1.9099
  171MOL0     H23531   8.756  11.525   2.690  1.4568  2.0708  0.2754
  171MOL0     H23532   8.783  11.620   2.832  0.0406 -0.0168 -1.2740
  171MOL0     H23533   8.512  11.646   2.686 -2.2078  2.4016  2.9397
  171MOL0     H23534   8.585  11.745   2.804 -0.8349  1.6386 -1.5077
  171MOL0     H23535   8.727  11.680   2.543  0.8014  0.3245 -0.9735
  171MOL0     H23536   8.606  11.816   2.568 -2.1750 -1.6805  1.3322
  171MOL0     H23537   8.759  11.922   2.712 -1.9710 -0.7597 -0.1506
  171MOL0     H23538   8.869  11.779   2.714  0.2692  1.9378  0.2949
  171MOL0     H23539   8.956  11.832   2.486  0.3761  1.9901 -2.1874
  171MOL0     H23540   8.939  11.988   2.574 -0.7010  0.4201 -0.3357
  171MOL0     H23541   8.723  11.873   2.400  1.5362 -0.8374 -1.2031
  171MOL0     H23542   8.726  12.029   2.480  0.0250  0.1214  0.8654
  171MOL0     H23543   8.928  12.094   2.342 -1.0614 -0.1801 -0.7191
  171MOL0     H23544   8.794  12.064   2.234  0.8847 -0.8589 -1.8000
  171MOL0     H23545   9.035  11.869   2.294 -1.9093 -2.9091  0.5797
  171MOL0     H23546   8.908  11.808   2.225  0.8805 -1.1270  0.5786
  171MOL0     H23547   9.144  12.132   2.113 -1.0463  0.2516  1.4993
  171MOL0     H23548   9.247  12.195   1.882 -1.9461  1.0748 -1.5566
  171MOL0     H23549   9.135  12.142   1.755  0.0317  0.9293 -1.0047
  171MOL0     H23550   9.396  12.002   1.859  0.5854 -2.3581 -1.2094
  171MOL0     H23551   9.282  11.953   1.728  2.3594 -2.3619  2.4727
  171MOL0     H23552   9.334  12.214   1.659 -2.4662 -1.9913 -2.4491
  171MOL0     H23553   9.486  12.163   1.731  0.5943 -0.9354 -0.3029
  171MOL0     H23554   9.355  12.018   1.498  0.0378 -0.6619 -0.1169
  171MOL0     H23555   9.493  12.133   1.469  3.4495  0.9181  1.2896
  171MOL0     H23556   9.441  11.931   1.336 -1.9411 -0.9737  0.9798
  171MOL0     H23557   9.512  11.665   1.083 -0.9025 -1.2554  0.8575
  171MOL0     H23558   9.563  11.831   1.073 -0.6045 -1.1132 -2.0442
  171MOL0     H23559   9.400  11.793   1.132 -2.3239 -4.1759  1.7116
  171MOL0     H23560   9.837  11.252   1.284 -2.3625 -0.8005 -0.1347
  171MOL0     H23561   9.893  11.051   1.142  2.8206 -0.7347 -3.5297
  171MOL0     H23562   9.954  10.888   0.833 -0.6388 -0.7565 -1.5596
  171MOL0     H23563   9.944  10.926   1.008 -0.8712  0.9996 -0.1443
  171MOL0     H23564   9.716  10.855   1.011 -0.6323  0.6294  0.2450
  171MOL0     H23565   9.696  10.891   0.842  0.2429  0.9937  0.8722
  171MOL0     H23566   9.848  10.698   0.799 -1.7370 -0.7981 -1.1676
  171MOL0     H23567   9.693  10.662   0.875  0.9611 -0.6837 -3.9397
  171MOL0     H23568   9.777  10.645   1.082  0.5339  1.5661  0.9227
  171MOL0     H23569   9.938  10.702   1.056  1.8559 -2.5317  0.8951
  171MOL0     H23570   9.849  10.456   0.904 -1.2146 -0.4518  1.3916
  171MOL0     H23571  10.016  10.530   0.927 -0.1764 -0.2870  1.6732
  171MOL0     H23572   9.827  10.409   1.140 -1.3694  3.9988 -1.0457
  171MOL0     H23573   9.988  10.485   1.175  0.8022  1.0955 -0.8528
  171MOL0     H23574  10.020  10.242   1.177  0.4121  0.2952  0.1494
  171MOL0     H23575  10.087  10.301   1.031  1.7001 -1.3205  2.9298
  171MOL0     H23576   9.934  10.097   0.983  0.3945  1.0660  0.0063
  171MOL0     H23577   9.843  10.233   0.939  0.1538  2.0677 -0.3198
  171MOL0     H23578   9.855  11.296   0.786  1.3654  4.0082 -0.3631
  171MOL0     H23579   9.810  11.497   0.935 -0.6706 -0.5251 -0.4796
  171MOL0     H23580   9.739  11.568   1.500 -3.7493 -0.4807  3.0528
  171MOL0     H23581   9.677  11.756   1.639 -1.0769  0.8522  0.2931
  171MOL0     H23582   8.685  11.330   2.633  2.6239  1.3912  0.2715
  171MOL0     H23583   8.689  11.099   2.618 -3.8919 -0.4883  0.1919
  171MOL0     H23584   8.613  10.683   2.964  2.2871  2.5734  0.0728
  171MOL0     H23585   8.698  10.451   3.016 -4.6960  2.6521  1.2714
  171MOL0     H23586   8.983  10.244   2.696 -1.1837 -1.6994 -0.4622
  171MOL0     H23587   9.032  10.363   2.834 -2.9795  1.5533 -0.1584
  171MOL0     H23588   9.041  10.180   2.985  1.5214 -0.4518 -0.4116
  171MOL0     H23589   9.143  10.148   2.855 -0.7739 -0.9603 -2.5731
  171MOL0     H23590   8.991   9.957   2.921  1.6289  0.4943  0.5037
  171MOL0     H23591   8.869  10.062   2.826 -0.4622 -0.1045  2.5426
  171MOL0     H23592   9.124   9.908   2.747  0.3390 -0.7012  0.9327
  171MOL0     H23593   9.074  10.012   2.638 -0.2622  0.7523  0.5435
  171MOL0     H23594   8.804   9.680   2.602  0.3291 -1.1453  0.0102
  171MOL0     H23595   8.878  10.432   2.628  0.5084 -0.7082  1.5250
  171MOL0     H23596   8.740  10.662   2.460 -0.0971 -0.2309 -1.1824
  171MOL0     H23597   8.829  10.786   2.539 -0.0082 -0.7019 -5.4875
  171MOL0     H23598   8.912  10.645   2.511  0.6540  0.1007  2.2134
  172MOL0     O23599  10.982   1.377  11.395 -0.1040  0.4446  0.0162
  172MOL0     C23600  10.939   1.385  11.511  0.6439 -0.5561  0.2275
  172MOL0     O23601  11.014   1.373  11.622 -0.2117  0.8225 -0.1192
  172MOL0     C23602  11.145   1.326  11.608 -0.0762 -0.3182  0.4291
  172MOL0     C23603  11.245   1.412  11.578  0.0675  0.1140  0.3161
  172MOL0     C23604  11.374   1.364  11.558 -0.1624  0.2036 -0.0310
  172MOL0     C23605  11.395   1.226  11.562  0.8830 -1.2917  0.8387
  172MOL0     O23606  11.521   1.170  11.530  0.0334  0.5628  0.1749
  172MOL0     C23607  11.630   1.259  11.495  0.0526  0.8956 -0.1466
  172MOL0     C23608  11.757   1.177  11.486 -0.2366  0.2494 -0.0366
  172MOL0     C23609  11.864   1.273  11.435 -0.3430 -0.3095 -0.0910
  172MOL0     C23610  11.999   1.213  11.453 -0.4759  0.3493 -0.1474
  172MOL0     C23611  12.119   1.292  11.410 -0.1675  0.5637  0.3027
  172MOL0     C23612  12.143   1.416  11.494  0.1831 -0.0635 -0.7876
  172MOL0     C23613  12.258   1.495  11.429 -0.1604  0.0438 -1.0945
  172MOL0     C23614  12.302   1.615  11.517  0.1552 -0.4801 -0.3443
  172MOL0     N23615  12.434   1.658  11.462  0.5655  0.5164  0.3607
  172MOL0     C23616  12.446   1.729  11.345  0.5567 -0.5724 -0.5406
  172MOL0     C23617  12.575   1.767  11.348  0.9541 -0.2647 -0.4968
  172MOL0     C23618  12.658   1.821  11.234  0.0546 -0.4271 -0.1404
  172MOL0     C23619  12.720   1.704  11.156 -0.6945 -0.1232 -0.6783
  172MOL0     C23620  12.871   1.715  11.116 -0.2042  0.9893  0.0730
  172MOL0     C23621  12.955   1.704  11.252  0.0116 -0.3972  0.7830
  172MOL0     O23622  13.075   1.782  11.246 -0.7767  0.0034 -0.1661
  172MOL0     C23623  13.192   1.717  11.212 -0.4066  0.3570  0.9288
  172MOL0     C23624  13.202   1.592  11.147 -0.5540  0.3888 -0.4865
  172MOL0     C23625  13.320   1.529  11.116 -0.3240  0.3309 -0.6433
  172MOL0     C23626  13.316   1.393  11.061 -1.4881  1.0699  0.4315
  172MOL0     C23627  13.440   1.597  11.147 -0.5267  0.0624 -0.4056
  172MOL0     C23628  13.576   1.543  11.127  0.2004 -0.1230  0.3724
  172MOL0     O23629  13.672   1.638  11.145  0.3797 -0.1500  0.0324
  172MOL0     C23630  13.788   1.596  11.208 -0.3779 -0.1694 -0.0971
  172MOL0     C23631  13.792   1.505  11.317 -0.7357  0.2953  0.4039
  172MOL0     C23632  13.908   1.505  11.394 -0.6920  0.0551  0.1630
  172MOL0     C23633  14.018   1.583  11.385  0.2223 -0.2494 -0.3197
  172MOL0     O23634  14.103   1.585  11.487 -0.4634 -0.0666  0.0420
  172MOL0     C23635  14.180   1.707  11.487 -0.1070  0.6991 -0.0178
  172MOL0     C23636  14.291   1.689  11.586 -0.4722 -0.4891  0.3326
  172MOL0     C23637  14.252   1.661  11.737 -0.4446 -0.6320  0.1388
  172MOL0     C23638  14.371   1.696  11.831 -0.2837  1.1238 -0.2455
  172MOL0     C23639  14.321   1.653  11.977  0.2048 -0.5107  0.4468
  172MOL0     C23640  14.432   1.693  12.069  0.9217 -0.3738 -0.0042
  172MOL0     C23641  14.402   1.628  12.209 -0.0150 -0.1546 -0.3867
  172MOL0     C23642  14.526   1.662  12.295  0.9603  0.3505  0.1201
  172MOL0    Cl23643  14.475   1.699  12.458 -0.0522 -0.0221  1.0699
  172MOL0     C23644  14.019   1.665  11.270 -0.0761 -0.3432  0.5431
  172MOL0     C23645  13.906   1.672  11.184  0.7385 -0.1868 -0.8783
  172MOL0     O23646  13.595   1.421  11.110  0.4122 -0.2609  0.3511
  172MOL0     C23647  13.432   1.729  11.193 -0.1277 -0.7718 -0.7610
  172MOL0     C23648  13.315   1.785  11.216  0.3119 -0.7076 -0.1188
  172MOL0     N23649  12.636   1.727  11.468  0.4502 -0.6181  0.6840
  172MOL0     N23650  12.546   1.676  11.539 -0.1413  0.4099  0.2071
  172MOL0     C23651  11.285   1.141  11.582 -0.0160 -0.0083 -0.3166
  172MOL0     C23652  11.158   1.192  11.608 -0.7547  0.8009  0.4608
  172MOL0     C23653  10.803   1.413  11.536  0.6131 -0.4851  0.0573
  172MOL0     C23654  10.769   1.486  11.657  0.7854  0.1184 -0.2787
  172MOL0     C23655  10.634   1.506  11.697  0.6134 -0.1194 -0.7253
  172MOL0     C23656  10.533   1.496  11.606  0.2544  0.0193 -0.2506
  172MOL0     O23657  10.411   1.539  11.658 -0.5576  0.2176  0.1106
  172MOL0     C23658  10.303   1.553  11.564 -0.0340 -0.8704  0.3558
  172MOL0     C23659  10.226   1.422  11.531 -0.6124 -0.8709 -0.2958
  172MOL0     C23660  10.148   1.363  11.650 -0.5251 -0.5687  0.1713
  172MOL0     C23661  10.154   1.219  11.657 -0.4789 -1.0061 -0.3615
  172MOL0     C23662  10.060   1.152  11.557 -0.0649 -0.0452 -0.5137
  172MOL0     C23663   9.988   1.078  11.483  0.0303 -0.1107 -0.0527
  172MOL0     C23664  10.560   1.434  11.487 -0.2099 -0.0233 -0.4122
  172MOL0     C23665  10.694   1.385  11.457  0.0807  0.2518  0.0704
  172MOL0     C23666  10.715   1.311  11.327 -0.0287 -0.0105 -0.5638
  172MOL0     H23667  11.234   1.520  11.579  2.4583  0.4481 -1.2192
  172MOL0     H23668  11.451   1.435  11.533  1.1603 -1.3871 -0.6700
  172MOL0     H23669  11.645   1.333  11.574 -0.1541  1.3621 -0.5375
  172MOL0     H23670  11.608   1.301  11.397 -2.4853 -0.1507 -0.0931
  172MOL0     H23671  11.785   1.147  11.587 -3.4599  0.2433  0.9461
  172MOL0     H23672  11.762   1.094  11.415  2.0491 -0.7649  1.1843
  172MOL0     H23673  11.840   1.300  11.332  0.7171  2.0834  0.2239
  172MOL0     H23674  11.869   1.364  11.496  2.4396 -1.2220  1.1892
  172MOL0     H23675  12.023   1.180  11.555  2.7936  0.9123 -0.6316
  172MOL0     H23676  12.000   1.116  11.403  0.4892  1.3576 -2.1755
  172MOL0     H23677  12.104   1.320  11.305 -0.0377 -3.1637 -0.8803
  172MOL0     H23678  12.205   1.224  11.404 -0.8347 -0.2211 -0.8614
  172MOL0     H23679  12.052   1.476  11.497 -0.0866 -0.5103  0.5717
  172MOL0     H23680  12.170   1.387  11.596 -0.3060  2.9324  0.2892
  172MOL0     H23681  12.232   1.535  11.331  2.1915  2.2953 -0.9215
  172MOL0     H23682  12.347   1.432  11.422 -0.0424 -0.0674  0.8884
  172MOL0     H23683  12.235   1.701  11.511  2.6425  2.1137  3.9491
  172MOL0     H23684  12.312   1.582  11.621 -2.1033  1.4430  0.5810
  172MOL0     H23685  12.371   1.723  11.267  1.1330  0.1507 -1.1610
  172MOL0     H23686  12.734   1.887  11.278  0.2216 -0.0115 -1.0452
  172MOL0     H23687  12.595   1.883  11.169  1.4485  2.4754  1.0670
  172MOL0     H23688  12.726   1.607  11.207  2.3285  0.0705 -0.4550
  172MOL0     H23689  12.651   1.696  11.071 -1.2718 -0.2496 -0.2008
  172MOL0     H23690  12.895   1.634  11.046 -0.1399  1.7434 -0.7865
  172MOL0     H23691  12.898   1.807  11.063  0.3610  0.1671 -1.1317
  172MOL0     H23692  12.900   1.743  11.337 -3.3394 -3.8660  0.4737
  172MOL0     H23693  12.977   1.599  11.275  0.1636 -1.2657 -2.6917
  172MOL0     H23694  13.115   1.533  11.123  0.3147 -1.3601  0.4671
  172MOL0     H23695  13.375   1.325  11.123 -2.4250 -0.3579 -0.1759
  172MOL0     H23696  13.359   1.400  10.961 -0.6706 -3.6669  0.2025
  172MOL0     H23697  13.215   1.350  11.050 -0.4263 -0.9407 -3.0847
  172MOL0     H23698  13.718   1.430  11.343  0.5565 -0.8201  0.9770
  172MOL0     H23699  13.891   1.447  11.484 -5.0510  1.0573  0.1817
  172MOL0     H23700  14.238   1.719  11.395 -1.1092  1.6974 -0.5417
  172MOL0     H23701  14.116   1.792  11.511  0.1337  0.9052 -0.1033
  172MOL0     H23702  14.355   1.608  11.550 -1.9257 -1.3129 -0.4947
  172MOL0     H23703  14.345   1.783  11.597  0.7575 -1.1901  0.5478
  172MOL0     H23704  14.227   1.555  11.754 -1.2418 -0.2855  1.2526
  172MOL0     H23705  14.162   1.722  11.752 -1.3838 -0.6919 -4.1099
  172MOL0     H23706  14.393   1.804  11.829  1.8058  0.7603  0.6796
  172MOL0     H23707  14.460   1.649  11.788  1.4793  4.3359 -0.4140
  172MOL0     H23708  14.231   1.708  12.008  0.9364  0.0459  1.6183
  172MOL0     H23709  14.296   1.546  11.972 -1.4646 -0.1908  1.1824
  172MOL0     H23710  14.436   1.802  12.077  1.7016 -0.3365 -0.7519
  172MOL0     H23711  14.528   1.660  12.027  1.2213  1.3858 -0.7907
  172MOL0     H23712  14.380   1.521  12.212 -0.8423 -0.0799 -2.4780
  172MOL0     H23713  14.314   1.678  12.251  0.4718  1.1849 -0.9014
  172MOL0     H23714  14.582   1.748  12.256  1.4295 -0.1373 -0.2955
  172MOL0     H23715  14.593   1.576  12.301  1.5934  0.8228 -0.0190
  172MOL0     H23716  14.091   1.739  11.239 -0.0970 -1.0915 -1.4367
  172MOL0     H23717  13.907   1.738  11.099 -1.6709 -2.1389 -2.5661
  172MOL0     H23718  13.513   1.801  11.192 -0.3164 -0.5336 -2.2739
  172MOL0     H23719  13.314   1.893  11.221  1.2418 -0.6540 -0.8239
  172MOL0     H23720  11.297   1.034  11.592  0.7592  0.2043  1.4535
  172MOL0     H23721  11.066   1.138  11.627 -0.9347  1.9132  3.2065
  172MOL0     H23722  10.846   1.512  11.728  0.6496  2.1982 -0.8263
  172MOL0     H23723  10.612   1.560  11.789  0.2927 -2.6926  0.8145
  172MOL0     H23724  10.233   1.631  11.596  2.1250  1.0744  0.6945
  172MOL0     H23725  10.327   1.598  11.467 -1.6566 -0.4415  0.1319
  172MOL0     H23726  10.293   1.339  11.505  3.0395  2.1384 -1.3691
  172MOL0     H23727  10.160   1.433  11.445 -0.9676 -0.0494  0.0712
  172MOL0     H23728  10.178   1.404  11.747 -1.0351  1.8527 -0.6185
  172MOL0     H23729  10.041   1.385  11.645 -0.2499  1.0181  0.5973
  172MOL0     H23730  10.129   1.189  11.759 -1.9412 -0.0756 -0.4209
  172MOL0     H23731  10.257   1.186  11.644  0.5254  1.3226  1.0561
  172MOL0     H23732   9.934   1.000  11.433 -0.2695 -0.1745  0.3675
  172MOL0     H23733  10.487   1.416  11.409  0.6468 -1.9570 -0.8272
  172MOL0     H23734  10.624   1.252  11.312  1.0981 -2.0203  0.0521
  172MOL0     H23735  10.737   1.381  11.246  2.1046  0.7179  0.5697
  172MOL0     H23736  10.799   1.240  11.330 -0.7687 -0.8766  1.4156
  173MOL0     O23737   9.708   2.583   9.147 -0.5924  0.3293  0.2315
  173MOL0     C23738   9.603   2.539   9.106  0.3122  0.1298 -0.5416
  173MOL0     O23739   9.582   2.440   9.011  0.4694 -0.4403 -0.1694
  173MOL0     C23740   9.689   2.372   8.973  0.8680  0.1398  0.0378
  173MOL0     C23741   9.768   2.296   9.062 -0.0742  0.6346  0.2571
  173MOL0     C23742   9.883   2.226   9.012 -0.7887 -0.5457 -0.6692
  173MOL0     C23743   9.905   2.218   8.873 -0.3337  0.2154 -0.1027
  173MOL0     O23744  10.029   2.163   8.835 -0.2546 -0.4049  1.1998
  173MOL0     C23745  10.067   2.199   8.699 -0.0438  0.6117  0.0048
  173MOL0     C23746  10.215   2.150   8.672 -0.9391 -0.5365  0.2270
  173MOL0     C23747  10.316   2.177   8.784  0.3649 -0.2449  0.1953
  173MOL0     C23748  10.465   2.179   8.724 -0.4012 -1.0403 -0.9101
  173MOL0     C23749  10.564   2.225   8.837 -0.4610  0.7180 -0.6381
  173MOL0     C23750  10.704   2.232   8.787 -0.1226 -0.3358  0.0620
  173MOL0     C23751  10.813   2.197   8.890  0.3957 -0.2023  0.1350
  173MOL0     C23752  10.952   2.218   8.848  0.7288  0.6073 -0.8139
  173MOL0     N23753  10.995   2.117   8.740 -0.3604 -0.1428 -0.4035
  173MOL0     C23754  11.015   2.144   8.603 -0.1356  0.0065  0.0733
  173MOL0     C23755  11.046   2.022   8.548 -0.5954 -0.3069  0.5019
  173MOL0     C23756  11.078   1.991   8.407 -0.0957  0.1799  1.0816
  173MOL0     C23757  10.957   2.030   8.317 -0.3030 -0.0582  0.2085
  173MOL0     C23758  10.987   2.035   8.169  0.9693  0.3426 -1.2062
  173MOL0     C23759  11.072   2.158   8.127  0.8314  0.9167  0.6337
  173MOL0     O23760  11.095   2.156   7.983  0.2776 -0.2235  0.0768
  173MOL0     C23761  11.169   2.062   7.925  0.6908  0.2541 -0.3130
  173MOL0     C23762  11.250   1.975   8.000  0.7876  0.4605  0.8748
  173MOL0     C23763  11.320   1.881   7.931 -0.5799  0.3228  1.0190
  173MOL0     C23764  11.391   1.792   8.025 -0.5690  0.7545 -0.3615
  173MOL0     C23765  11.326   1.878   7.784  0.5042 -0.6401  0.0201
  173MOL0     C23766  11.407   1.781   7.708  0.3496 -1.1942  0.0941
  173MOL0     O23767  11.492   1.691   7.762  0.0864 -0.3390  0.3106
  173MOL0     C23768  11.577   1.627   7.675 -0.4576  0.2235 -0.4575
  173MOL0     C23769  11.545   1.501   7.623  0.2277  0.3048  0.3627
  173MOL0     C23770  11.634   1.442   7.538 -0.1025 -0.9103  0.4544
  173MOL0     C23771  11.757   1.498   7.512 -1.1225 -0.3723  0.2013
  173MOL0     O23772  11.857   1.440   7.439 -0.0779 -0.5949  0.0570
  173MOL0     C23773  11.831   1.312   7.378  0.0339  0.1756 -0.9153
  173MOL0     C23774  11.951   1.265   7.293  0.0549  0.3296 -0.2808
  173MOL0     C23775  12.074   1.236   7.382 -0.1178 -0.8229 -0.2884
  173MOL0     C23776  12.161   1.140   7.301 -0.3661 -0.2915  0.0989
  173MOL0     C23777  12.295   1.117   7.376  0.4782  0.4038  0.8904
  173MOL0     C23778  12.380   1.044   7.275 -0.2671  1.5449 -0.1513
  173MOL0     C23779  12.508   1.013   7.339 -0.4652  0.0065 -0.0422
  173MOL0     C23780  12.601   0.931   7.252  0.3269  0.1152  0.6809
  173MOL0    Cl23781  12.715   0.837   7.347  0.2220 -0.3841  0.0690
  173MOL0     C23782  11.792   1.621   7.573  0.2832 -0.0569 -0.3361
  173MOL0     C23783  11.705   1.684   7.654 -0.0020  0.5769 -0.2304
  173MOL0     O23784  11.399   1.800   7.586 -0.4333 -0.1175  0.5301
  173MOL0     C23785  11.249   1.977   7.715 -0.3616  1.1373  0.4661
  173MOL0     C23786  11.169   2.062   7.786 -0.3449 -0.5406  0.4872
  173MOL0     N23787  11.050   1.933   8.653  0.4437 -0.3383  0.1711
  173MOL0     N23788  11.013   1.984   8.758  0.6941  0.2690  0.1525
  173MOL0     C23789   9.816   2.286   8.784 -0.3173  0.5128  0.3478
  173MOL0     C23790   9.707   2.354   8.838 -0.1275 -0.0521 -0.2280
  173MOL0     C23791   9.486   2.604   9.171 -0.5127 -0.6193  1.3723
  173MOL0     C23792   9.499   2.737   9.211 -0.1982  0.2921 -0.4778
  173MOL0     C23793   9.387   2.805   9.256  0.7804 -0.3000 -0.5226
  173MOL0     C23794   9.262   2.748   9.265 -0.4387 -0.3633 -0.2665
  173MOL0     O23795   9.161   2.831   9.305  0.0478  0.3258 -0.1105
  173MOL0     C23796   9.033   2.766   9.322  0.7190 -1.0813  0.1742
  173MOL0     C23797   8.933   2.875   9.372  0.2166 -0.5231  0.1055
  173MOL0     C23798   8.833   2.815   9.472  0.6080  0.7146  0.1172
  173MOL0     C23799   8.709   2.886   9.494  0.6746 -0.3340  0.3160
  173MOL0     C23800   8.611   2.888   9.382 -0.4375  0.2018  0.2861
  173MOL0     C23801   8.540   2.879   9.278  0.3017 -1.3693 -0.7991
  173MOL0     C23802   9.245   2.619   9.214 -0.0194  0.4565 -0.1618
  173MOL0     C23803   9.356   2.543   9.165  0.6289 -0.5556  0.4842
  173MOL0     C23804   9.313   2.411   9.111  0.0311  0.7163 -0.5289
  173MOL0     H23805   9.747   2.303   9.168  0.8488 -1.1058  0.5929
  173MOL0     H23806   9.961   2.180   9.071 -2.3528 -0.9296  1.1771
  173MOL0     H23807  10.051   2.306   8.687 -0.9510  0.3239 -1.6946
  173MOL0     H23808  10.000   2.154   8.625  1.4314 -1.6692 -0.0348
  173MOL0     H23809  10.220   2.043   8.648  1.1736 -0.1952 -1.1273
  173MOL0     H23810  10.255   2.203   8.585 -1.7872  0.4833  0.4332
  173MOL0     H23811  10.284   2.275   8.819  0.0148  1.6734 -4.6817
  173MOL0     H23812  10.304   2.101   8.862 -2.3308 -1.3927 -1.2283
  173MOL0     H23813  10.501   2.077   8.707 -0.5275 -1.6242  1.8486
  173MOL0     H23814  10.471   2.247   8.639  0.7108 -3.7929 -3.2213
  173MOL0     H23815  10.560   2.146   8.913 -1.1287  0.7274 -0.6528
  173MOL0     H23816  10.543   2.321   8.886 -0.5176 -0.1160  1.0612
  173MOL0     H23817  10.715   2.163   8.703 -2.1326 -3.7875  2.3557
  173MOL0     H23818  10.709   2.339   8.764 -2.1261  0.4099  2.5435
  173MOL0     H23819  10.798   2.091   8.913  0.9674 -0.0612  1.2182
  173MOL0     H23820  10.795   2.257   8.980 -2.2082  0.8233 -0.9568
  173MOL0     H23821  10.965   2.324   8.823 -0.1564  1.8812  3.2818
  173MOL0     H23822  11.009   2.185   8.935  0.6904 -1.2467 -1.4422
  173MOL0     H23823  11.024   2.243   8.558  1.2927 -1.7244 -3.8749
  173MOL0     H23824  11.119   1.891   8.392 -3.0700 -0.6206 -4.1317
  173MOL0     H23825  11.158   2.060   8.379 -0.2938 -0.8099 -2.4086
  173MOL0     H23826  10.882   1.952   8.334  0.8091 -1.3493 -0.7183
  173MOL0     H23827  10.909   2.118   8.361  0.3164  0.6051 -0.4258
  173MOL0     H23828  11.030   1.938   8.142 -0.6450  0.0070 -2.7680
  173MOL0     H23829  10.894   2.032   8.111  0.1390  0.0383  0.0968
  173MOL0     H23830  11.014   2.244   8.164  0.1134 -0.2270  2.2863
  173MOL0     H23831  11.171   2.165   8.172  0.7179  1.9124  0.7703
  173MOL0     H23832  11.248   1.981   8.108 -1.3379  2.8591  0.7909
  173MOL0     H23833  11.378   1.815   8.131  2.3728  5.0434 -0.6648
  173MOL0     H23834  11.497   1.800   7.998 -0.6909 -1.1955 -1.6926
  173MOL0     H23835  11.366   1.685   8.025 -0.3639  0.7060 -0.4046
  173MOL0     H23836  11.451   1.452   7.645 -1.1098  1.5733 -2.0774
  173MOL0     H23837  11.599   1.348   7.497  2.2000 -1.1921 -1.0271
  173MOL0     H23838  11.820   1.239   7.459 -0.3611 -0.2969 -1.3963
  173MOL0     H23839  11.746   1.308   7.310 -0.0140 -2.2339 -0.7904
  173MOL0     H23840  11.912   1.175   7.244  0.0414 -0.0157  0.3556
  173MOL0     H23841  11.980   1.341   7.220 -1.1156 -0.0946 -1.2374
  173MOL0     H23842  12.047   1.185   7.476  2.6141 -1.9462 -0.0410
  173MOL0     H23843  12.129   1.326   7.410 -1.5404 -0.1099  0.3703
  173MOL0     H23844  12.184   1.177   7.200  0.2940 -2.6444 -0.6948
  173MOL0     H23845  12.095   1.055   7.285 -1.5622  0.7434 -0.6229
  173MOL0     H23846  12.341   1.212   7.406 -0.0177  1.1785 -0.6587
  173MOL0     H23847  12.281   1.063   7.470  2.2255 -3.7339 -0.9643
  173MOL0     H23848  12.396   1.107   7.187  1.5001  0.3438 -0.7468
  173MOL0     H23849  12.343   0.948   7.237  1.0026  1.0238 -0.1280
  173MOL0     H23850  12.502   0.973   7.441 -0.2056  4.0105  1.7741
  173MOL0     H23851  12.564   1.107   7.341 -2.4166  1.2794 -1.2419
  173MOL0     H23852  12.664   0.997   7.192  2.4300 -2.2390  0.1029
  173MOL0     H23853  12.542   0.874   7.180  0.7110  0.2288  0.2722
  173MOL0     H23854  11.891   1.662   7.554 -1.1735  4.7725  1.1418
  173MOL0     H23855  11.728   1.774   7.711  0.0377 -0.3906  1.3425
  173MOL0     H23856  11.242   1.983   7.607 -1.6566 -2.0888  0.2520
  173MOL0     H23857  11.100   2.133   7.742 -0.0134  1.7669  3.3099
  173MOL0     H23858   9.808   2.274   8.676 -1.1407  1.6336  0.2640
  173MOL0     H23859   9.640   2.406   8.769  0.9968  1.2231 -0.4020
  173MOL0     H23860   9.593   2.790   9.219  0.6004 -0.6247 -2.7772
  173MOL0     H23861   9.397   2.909   9.283 -1.5425 -0.5675  1.6991
  173MOL0     H23862   8.994   2.736   9.224  2.3707  0.7569 -1.1289
  173MOL0     H23863   9.042   2.683   9.393 -0.4245  1.0545  2.9857
  173MOL0     H23864   8.865   2.905   9.292  0.4825 -0.6472 -0.1662
  173MOL0     H23865   8.980   2.957   9.427 -4.2701  3.5502 -1.4049
  173MOL0     H23866   8.812   2.711   9.445  0.2062  0.4594  1.3436
  173MOL0     H23867   8.880   2.813   9.571  2.3127  1.4650 -0.6336
  173MOL0     H23868   8.735   2.991   9.513  0.7754  0.0248 -1.6516
  173MOL0     H23869   8.649   2.837   9.571 -2.0444 -0.4389 -1.7126
  173MOL0     H23870   8.490   2.873   9.184  0.6174  1.3207 -1.2194
  173MOL0     H23871   9.148   2.572   9.214 -0.4680  1.3525  0.6484
  173MOL0     H23872   9.385   2.329   9.114 -1.9541 -1.0925  1.5160
  173MOL0     H23873   9.225   2.366   9.159  1.0290 -0.7624  0.0126
  173MOL0     H23874   9.277   2.429   9.009 -4.2694 -1.1324  0.4444
  174MOL0     O23875   8.092   1.213   4.370  0.0595  0.0884 -0.2789
  174MOL0     C23876   8.040   1.187   4.482 -0.6295  0.3504  0.4013
  174MOL0     O23877   7.911   1.171   4.515 -0.3832  0.0492  0.8243
  174MOL0     C23878   7.822   1.118   4.425 -0.4982  0.7680 -0.4856
  174MOL0     C23879   7.863   1.011   4.341  0.3051  0.4602  0.0402
  174MOL0     C23880   7.773   0.960   4.253  0.2937  0.2259  0.0878
  174MOL0     C23881   7.643   1.010   4.235  0.8619 -0.6655  0.2523
  174MOL0     O23882   7.555   0.965   4.143  0.0383  0.1283 -0.6777
  174MOL0     C23883   7.602   0.870   4.051 -0.2447 -0.7180 -0.1048
  174MOL0     C23884   7.483   0.812   3.965 -0.0919 -0.0938 -0.0059
  174MOL0     C23885   7.501   0.656   3.967 -0.2871 -0.1762 -0.0927
  174MOL0     C23886   7.402   0.607   3.865  0.7638 -0.1489 -0.8697
  174MOL0     C23887   7.387   0.452   3.850  0.7462 -0.5411 -0.3408
  174MOL0     C23888   7.513   0.374   3.860  0.3636 -0.1852 -0.0066
  174MOL0     C23889   7.490   0.236   3.906 -0.5922  0.4014 -0.7307
  174MOL0     C23890   7.582   0.133   3.837 -0.5514 -0.1268  0.1970
  174MOL0     N23891   7.722   0.150   3.875  0.3089  0.9694 -0.2708
  174MOL0     C23892   7.770   0.102   3.997  0.6352 -0.1367 -0.0980
  174MOL0     C23893   7.901   0.125   3.985  0.1072 -0.6015  0.0064
  174MOL0     C23894   7.995   0.068   4.080  0.2670 -0.5455  0.2956
  174MOL0     C23895   8.075  -0.057   4.029  0.9174 -0.8254  0.7907
  174MOL0     C23896   8.211  -0.079   4.099  0.0592 -0.0917  0.2310
  174MOL0     C23897   8.299  -0.197   4.043 -0.2371 -0.1867 -0.7648
  174MOL0     O23898   8.239  -0.324   4.045  0.2320  0.6850  0.1839
  174MOL0     C23899   8.326  -0.425   4.022 -0.0574  0.0012 -0.4136
  174MOL0     C23900   8.284  -0.557   4.039  0.2039 -0.1560  0.5873
  174MOL0     C23901   8.360  -0.668   4.011  0.9742  0.3642 -0.4232
  174MOL0     C23902   8.297  -0.812   4.025 -0.2671 -1.2056 -0.1401
  174MOL0     C23903   8.476  -0.656   3.937  0.6635  0.1614  0.5102
  174MOL0     C23904   8.543  -0.765   3.878 -0.0261  1.1555 -0.7129
  174MOL0     O23905   8.663  -0.724   3.821 -0.0393 -0.0472 -0.1851
  174MOL0     C23906   8.753  -0.816   3.776 -0.6195 -0.3677  0.0450
  174MOL0     C23907   8.812  -0.793   3.653  0.6396 -0.3802  0.0148
  174MOL0     C23908   8.918  -0.878   3.610  0.1699 -0.3725  0.2062
  174MOL0     C23909   8.957  -0.998   3.675  0.3806 -0.7166  0.3644
  174MOL0     O23910   9.051  -1.082   3.621  0.7502 -0.6835 -0.0476
  174MOL0     C23911   9.070  -1.208   3.683 -0.2581  0.1063 -0.1393
  174MOL0     C23912   9.194  -1.278   3.622  0.3263 -0.2874  0.3936
  174MOL0     C23913   9.157  -1.350   3.494 -0.2646  0.0796  0.1595
  174MOL0     C23914   9.085  -1.487   3.517  0.2853  0.0811  0.0554
  174MOL0     C23915   9.167  -1.610   3.541 -0.7764 -0.5136 -0.2571
  174MOL0     C23916   9.081  -1.738   3.556  0.3429  0.2918  0.2989
  174MOL0     C23917   9.154  -1.870   3.591 -0.5996  0.2838 -0.7681
  174MOL0     C23918   9.206  -1.886   3.733  0.3316  0.7263  1.4622
  174MOL0    Cl23919   9.299  -2.036   3.735 -0.7453 -0.7332  0.3404
  174MOL0     C23920   8.897  -1.015   3.797  1.6180 -0.1083  0.1766
  174MOL0     C23921   8.799  -0.930   3.841 -0.7393 -0.5961  0.0515
  174MOL0     O23922   8.508  -0.888   3.886 -0.6436  0.3410 -0.4910
  174MOL0     C23923   8.522  -0.524   3.917 -0.5969  0.5545  0.2625
  174MOL0     C23924   8.447  -0.416   3.962  0.1954  0.3569  0.5319
  174MOL0     N23925   7.936   0.187   3.867 -0.1061 -0.6621  0.5845
  174MOL0     N23926   7.823   0.206   3.804 -0.2050 -0.5040 -0.0075
  174MOL0     C23927   7.606   1.106   4.321 -0.3564 -0.3342  0.3406
  174MOL0     C23928   7.684   1.148   4.417  0.2411 -0.0502 -0.8269
  174MOL0     C23929   8.143   1.191   4.589 -0.4306  0.9504  0.9064
  174MOL0     C23930   8.092   1.220   4.719 -0.8786  0.1717 -0.7102
  174MOL0     C23931   8.181   1.245   4.820  0.5939 -0.0189  0.1479
  174MOL0     C23932   8.319   1.245   4.808 -0.2415 -0.1396 -0.3225
  174MOL0     O23933   8.390   1.288   4.912  0.2913  0.2106 -0.7558
  174MOL0     C23934   8.532   1.260   4.914 -0.6370  0.2151  0.0628
  174MOL0     C23935   8.582   1.113   4.934 -1.0548 -0.5155 -0.0731
  174MOL0     C23936   8.738   1.107   4.911  0.8625  0.9796 -0.2359
  174MOL0     C23937   8.786   1.123   4.770  0.4220 -0.4236  0.2579
  174MOL0     C23938   8.718   1.035   4.674  0.8518 -0.7733 -0.9045
  174MOL0     C23939   8.671   0.944   4.603 -0.3395 -0.5468 -0.1188
  174MOL0     C23940   8.368   1.212   4.677 -0.6649  0.2272  0.3030
  174MOL0     C23941   8.287   1.185   4.573 -0.1833 -0.6803 -0.5945
  174MOL0     C23942   8.349   1.124   4.447  0.1771 -0.0747  0.5677
  174MOL0     H23943   7.963   0.968   4.347 -0.9595 -3.5103 -2.9488
  174MOL0     H23944   7.818   0.893   4.181 -2.0751  1.3881 -2.6844
  174MOL0     H23945   7.659   0.791   4.100 -2.9373 -3.6256 -1.3472
  174MOL0     H23946   7.668   0.924   3.982 -1.0537 -1.8582 -1.8400
  174MOL0     H23947   7.381   0.839   3.995  0.0326  0.8931 -0.4378
  174MOL0     H23948   7.496   0.849   3.863  1.1363  1.3499  0.6403
  174MOL0     H23949   7.604   0.628   3.945  0.3728 -0.9328  3.4449
  174MOL0     H23950   7.470   0.620   4.066 -0.4066 -0.7307 -0.3255
  174MOL0     H23951   7.306   0.635   3.910  1.3990  0.5599  0.1020
  174MOL0     H23952   7.420   0.663   3.773 -1.0017 -0.7987 -1.6611
  174MOL0     H23953   7.332   0.429   3.758  3.7410 -3.3005 -1.6102
  174MOL0     H23954   7.317   0.416   3.925 -1.8839 -0.4544 -2.5984
  174MOL0     H23955   7.561   0.365   3.762 -1.8639 -4.3434 -0.9502
  174MOL0     H23956   7.589   0.422   3.922  0.9569  0.0790 -0.9271
  174MOL0     H23957   7.385   0.217   3.880 -1.5777  0.6813  2.5908
  174MOL0     H23958   7.511   0.231   4.013 -0.4588  0.3709 -0.7581
  174MOL0     H23959   7.544   0.039   3.877 -1.1170 -0.0051 -0.0450
  174MOL0     H23960   7.581   0.136   3.727  0.2969  0.2718  0.1869
  174MOL0     H23961   7.717   0.034   4.064 -0.2612 -0.4537 -1.1067
  174MOL0     H23962   7.939   0.042   4.171 -1.4503  1.9723  0.0649
  174MOL0     H23963   8.066   0.145   4.113 -0.5912  0.4126 -0.0330
  174MOL0     H23964   8.014  -0.148   4.026 -0.6634  0.2141  0.1042
  174MOL0     H23965   8.086  -0.033   3.923  2.4427  1.8783  1.4740
  174MOL0     H23966   8.271   0.012   4.103  4.5569 -2.8144  1.5930
  174MOL0     H23967   8.198  -0.104   4.205  0.0736 -3.2474 -0.4140
  174MOL0     H23968   8.332  -0.168   3.942  1.6618 -0.5774 -0.2923
  174MOL0     H23969   8.394  -0.194   4.098 -0.1940  1.3882 -0.8773
  174MOL0     H23970   8.193  -0.576   4.096 -0.8275 -2.6237 -1.6444
  174MOL0     H23971   8.194  -0.809   4.061 -0.9166 -1.5329 -1.8523
  174MOL0     H23972   8.360  -0.870   4.092  1.9029 -1.6283 -2.3718
  174MOL0     H23973   8.272  -0.855   3.928 -4.4952  1.5452 -0.5355
  174MOL0     H23974   8.797  -0.697   3.603  4.5279 -0.9557 -2.7092
  174MOL0     H23975   8.958  -0.854   3.512 -0.3364 -2.2685 -0.4968
  174MOL0     H23976   9.077  -1.202   3.792  0.2243 -0.6604 -0.1233
  174MOL0     H23977   8.982  -1.271   3.672 -1.5400  1.2682  2.5007
  174MOL0     H23978   9.262  -1.197   3.592 -2.0464  2.8509  2.7913
  174MOL0     H23979   9.247  -1.341   3.694  1.6463  1.3537  0.9423
  174MOL0     H23980   9.237  -1.359   3.419 -0.2980 -1.9911  0.3005
  174MOL0     H23981   9.079  -1.287   3.449  0.3435  1.5979  1.1667
  174MOL0     H23982   9.027  -1.508   3.427 -0.4687 -0.0882  0.5650
  174MOL0     H23983   9.015  -1.479   3.601  1.7444 -0.9533  1.4342
  174MOL0     H23984   9.242  -1.622   3.463 -0.8991  1.2640 -0.7095
  174MOL0     H23985   9.224  -1.597   3.633 -1.6210 -0.5335  0.2822
  174MOL0     H23986   9.030  -1.755   3.461  3.8959  0.8146 -1.9034
  174MOL0     H23987   9.000  -1.732   3.630 -0.3308  3.5479 -0.5579
  174MOL0     H23988   9.235  -1.891   3.521  0.4859  0.4180  0.4153
  174MOL0     H23989   9.090  -1.958   3.579  1.8148 -2.0183  1.7261
  174MOL0     H23990   9.113  -1.880   3.790 -1.2462  1.2352 -0.9926
  174MOL0     H23991   9.278  -1.808   3.758  0.8845  1.1260 -1.0825
  174MOL0     H23992   8.915  -1.108   3.850  2.5753 -0.8780 -1.4047
  174MOL0     H23993   8.751  -0.950   3.936  1.2359 -0.0975  1.2245
  174MOL0     H23994   8.623  -0.508   3.879 -0.1290 -2.3626  0.0288
  174MOL0     H23995   8.500  -0.323   3.939 -0.7231  0.8326  0.3126
  174MOL0     H23996   7.501   1.133   4.311 -0.8488  1.3516  6.3189
  174MOL0     H23997   7.640   1.232   4.470  2.1108  0.1035  0.5675
  174MOL0     H23998   7.984   1.221   4.731 -0.8921 -1.2299 -0.6511
  174MOL0     H23999   8.148   1.266   4.921  0.6181  1.1616 -0.0677
  174MOL0     H24000   8.587   1.298   4.828  0.2722  2.3305  1.4925
  174MOL0     H24001   8.563   1.313   5.005 -0.9737 -0.1477  0.3948
  174MOL0     H24002   8.525   1.051   4.864  0.4615 -3.4822  1.1395
  174MOL0     H24003   8.570   1.068   5.033 -2.1627  0.9301  0.4866
  174MOL0     H24004   8.791   1.182   4.971  3.7800 -0.8938 -0.2715
  174MOL0     H24005   8.767   1.008   4.948 -0.6380 -0.3082 -2.2780
  174MOL0     H24006   8.895   1.114   4.773  0.5835  1.1096  2.8266
  174MOL0     H24007   8.780   1.228   4.738  0.3713 -0.8069 -1.0318
  174MOL0     H24008   8.641   0.862   4.541  1.3971 -2.0709  0.9658
  174MOL0     H24009   8.477   1.213   4.674 -0.1553  5.2116  4.7364
  174MOL0     H24010   8.364   1.194   4.364  0.2509 -1.5947 -0.7494
  174MOL0     H24011   8.455   1.102   4.466  0.1901 -2.0085 -1.3545
  174MOL0     H24012   8.302   1.029   4.422 -0.8245  0.3768  0.6764
  175MOL0     O24013   1.441   9.471   4.458 -0.3944 -0.9504 -0.8518
  175MOL0     C24014   1.404   9.518   4.354 -0.3601 -0.2301 -0.3722
  175MOL0     O24015   1.463   9.618   4.287  0.1318 -0.7650 -0.5311
  175MOL0     C24016   1.570   9.686   4.344  0.3574  0.5214  0.2091
  175MOL0     C24017   1.702   9.637   4.326 -0.7351  0.8510 -0.0381
  175MOL0     C24018   1.813   9.697   4.393 -0.2791  0.0515 -0.2136
  175MOL0     C24019   1.800   9.820   4.462  0.1865  0.2860  0.0673
  175MOL0     O24020   1.888   9.898   4.528  0.0709  0.1408  0.5338
  175MOL0     C24021   2.027   9.855   4.511 -0.6365 -0.7800  0.1255
  175MOL0     C24022   2.121   9.948   4.589  0.1358 -0.0015  0.0488
  175MOL0     C24023   2.082  10.097   4.558 -0.0213  0.1418  0.2908
  175MOL0     C24024   2.093  10.137   4.416  0.2146 -0.5979 -0.2991
  175MOL0     C24025   2.038  10.280   4.381  0.0091 -0.0603 -0.9739
  175MOL0     C24026   2.089  10.324   4.241 -0.1621 -0.1141  0.1026
  175MOL0     C24027   2.235  10.363   4.239 -0.7313 -0.2140 -0.7379
  175MOL0     C24028   2.274  10.487   4.173 -0.1422 -0.6966  0.0165
  175MOL0     N24029   2.416  10.490   4.132  0.5267 -0.4444  0.7679
  175MOL0     C24030   2.520  10.475   4.216  0.1905  1.0625  0.2962
  175MOL0     C24031   2.628  10.464   4.138  0.7819 -0.3125  0.3699
  175MOL0     C24032   2.766  10.465   4.191  0.0875 -0.2691 -1.0673
  175MOL0     C24033   2.811  10.330   4.214 -0.8157  0.3433 -0.5678
  175MOL0     C24034   2.937  10.317   4.309  0.5446 -0.3022  0.6084
  175MOL0     C24035   3.063  10.393   4.261 -0.3747  0.4477  0.6618
  175MOL0     O24036   3.167  10.375   4.359  0.3042 -0.4590 -0.0819
  175MOL0     C24037   3.285  10.451   4.343  0.3126 -0.1009  0.2241
  175MOL0     C24038   3.311  10.550   4.247  0.5884  0.8387 -0.0602
  175MOL0     C24039   3.435  10.617   4.241  0.1030 -0.3010 -0.4680
  175MOL0     C24040   3.431  10.733   4.139 -0.5045  0.0830 -0.5737
  175MOL0     C24041   3.530  10.587   4.337  0.4920 -0.4850 -0.0309
  175MOL0     C24042   3.665  10.653   4.338  0.2181 -0.0414  0.2377
  175MOL0     O24043   3.715  10.704   4.225 -0.3150  0.5288  0.3820
  175MOL0     C24044   3.845  10.745   4.206 -0.1260 -0.3299 -0.4141
  175MOL0     C24045   3.953  10.718   4.293  0.2624 -0.3000 -0.0771
  175MOL0     C24046   4.082  10.759   4.246 -0.3293  0.6658  0.8726
  175MOL0     C24047   4.108  10.823   4.125 -0.4441  0.2157  0.6410
  175MOL0     O24048   4.232  10.855   4.068 -0.2910 -0.3008  0.3439
  175MOL0     C24049   4.327  10.901   4.159 -0.5847  0.0125 -0.6710
  175MOL0     C24050   4.459  10.936   4.085 -0.6774 -0.5115  0.4857
  175MOL0     C24051   4.536  10.828   4.007 -0.3076  0.2711 -0.8195
  175MOL0     C24052   4.595  10.719   4.095 -0.2253  0.0272  0.7661
  175MOL0     C24053   4.722  10.662   4.025  0.6657  0.2398 -0.0000
  175MOL0     C24054   4.674  10.564   3.915  0.0810  0.1772  0.8733
  175MOL0     C24055   4.791  10.490   3.846 -0.5826 -0.4787  0.1133
  175MOL0     C24056   4.757  10.400   3.736 -0.7980  0.1675 -0.2699
  175MOL0    Cl24057   4.921  10.326   3.690  0.2589 -0.3747 -0.2313
  175MOL0     C24058   3.996  10.848   4.045 -0.2088 -0.3055 -0.4527
  175MOL0     C24059   3.864  10.814   4.090 -1.1279  0.1263  0.1767
  175MOL0     O24060   3.719  10.664   4.452  1.1954 -0.2524  0.4119
  175MOL0     C24061   3.498  10.487   4.435 -0.5424  0.1762 -0.0164
  175MOL0     C24062   3.375  10.425   4.438 -0.1104 -0.7347  0.5955
  175MOL0     N24063   2.593  10.460   4.006 -0.4365  0.8700  0.0876
  175MOL0     N24064   2.463  10.478   4.005  0.5992 -0.0991 -0.3557
  175MOL0     C24065   1.668   9.858   4.487 -0.7364 -1.0172 -0.6913
  175MOL0     C24066   1.559   9.789   4.425  0.9808  0.0648 -0.7670
  175MOL0     C24067   1.283   9.462   4.285 -0.0973  0.7881 -0.5154
  175MOL0     C24068   1.255   9.330   4.315 -0.7123 -0.0616 -0.4494
  175MOL0     C24069   1.137   9.273   4.264 -0.7087  0.2463 -0.5989
  175MOL0     C24070   1.048   9.334   4.181 -0.3554  0.0928 -0.0010
  175MOL0     O24071   0.939   9.271   4.134  0.7865  0.7486  0.5755
  175MOL0     C24072   0.898   9.130   4.151  0.1342 -0.1972 -0.2882
  175MOL0     C24073   0.767   9.092   4.078 -0.8942 -0.9141 -0.4499
  175MOL0     C24074   0.636   9.159   4.136 -0.1042 -0.3327 -0.0336
  175MOL0     C24075   0.619   9.304   4.090  0.1031 -0.9168 -0.5256
  175MOL0     C24076   0.533   9.363   4.196  0.3891 -0.2511 -0.2495
  175MOL0     C24077   0.481   9.404   4.302 -1.0335 -0.0499 -0.2755
  175MOL0     C24078   1.081   9.465   4.146 -0.3277 -0.6290 -0.9389
  175MOL0     C24079   1.193   9.538   4.200 -0.1776  0.1656  0.3389
  175MOL0     C24080   1.203   9.677   4.163 -0.2943 -0.7015 -0.3479
  175MOL0     H24081   1.716   9.547   4.267 -0.3414 -0.0096  1.3203
  175MOL0     H24082   1.909   9.655   4.367 -0.2844  1.3628 -2.6149
  175MOL0     H24083   2.046   9.866   4.404 -1.4461 -0.0840  0.0410
  175MOL0     H24084   2.029   9.749   4.537  0.5236 -0.0942  3.3412
  175MOL0     H24085   2.123   9.913   4.693 -1.3103 -6.4903 -1.6772
  175MOL0     H24086   2.220   9.933   4.545 -1.1460 -1.0333 -2.6780
  175MOL0     H24087   1.984  10.109   4.605 -0.3792  1.5325 -0.7380
  175MOL0     H24088   2.153  10.157   4.615  0.4555 -1.7205  1.7548
  175MOL0     H24089   2.201  10.148   4.399  0.2149 -1.0329 -0.6140
  175MOL0     H24090   2.041  10.066   4.350 -2.6651  0.3984  0.7725
  175MOL0     H24091   2.060  10.353   4.460 -3.8255 -1.7386  2.0310
  175MOL0     H24092   1.929  10.266   4.376 -0.2261  0.3812  1.5564
  175MOL0     H24093   2.072  10.239   4.174 -1.1472 -0.9126  1.3313
  175MOL0     H24094   2.024  10.401   4.199  0.3499 -0.9690 -2.4087
  175MOL0     H24095   2.297  10.278   4.209  0.3035  0.1650  0.2774
  175MOL0     H24096   2.257  10.390   4.343 -1.3148  0.7880 -0.8597
  175MOL0     H24097   2.219  10.499   4.079  1.5883 -1.9362 -1.2270
  175MOL0     H24098   2.245  10.566   4.243 -0.5854 -1.1334  0.3348
  175MOL0     H24099   2.523  10.487   4.324 -2.1548  0.0170  0.5157
  175MOL0     H24100   2.762  10.515   4.289  0.4890 -0.7697 -0.7907
  175MOL0     H24101   2.837  10.518   4.128  2.0955 -0.5060  0.8853
  175MOL0     H24102   2.731  10.264   4.249 -0.6593  1.1266  1.3922
  175MOL0     H24103   2.846  10.281   4.123  1.1973 -0.1673  0.4279
  175MOL0     H24104   2.913  10.355   4.409 -0.5970  1.7593 -0.3898
  175MOL0     H24105   2.955  10.213   4.337 -1.1640 -0.6466  0.5462
  175MOL0     H24106   3.108  10.360   4.167 -1.5790 -0.4170  0.3650
  175MOL0     H24107   3.050  10.502   4.260  0.1989  0.5149 -0.5360
  175MOL0     H24108   3.238  10.569   4.169  0.4355  0.1963 -0.0814
  175MOL0     H24109   3.329  10.774   4.137 -1.5559 -2.3138  0.0621
  175MOL0     H24110   3.466  10.699   4.041 -0.8230 -2.0246  0.0001
  175MOL0     H24111   3.483  10.821   4.178  0.7201 -1.6955  2.0757
  175MOL0     H24112   3.950  10.662   4.385 -0.3000  1.2980  0.9190
  175MOL0     H24113   4.169  10.740   4.308 -0.0791  3.0777  1.3684
  175MOL0     H24114   4.300  10.992   4.214  0.1074  0.3452 -0.8658
  175MOL0     H24115   4.356  10.828   4.236  2.7287  0.1594 -1.5944
  175MOL0     H24116   4.434  11.023   4.022 -3.6451 -1.1728  0.5996
  175MOL0     H24117   4.529  10.974   4.160  2.1321 -0.1976 -2.1050
  175MOL0     H24118   4.616  10.889   3.964  0.6178  3.9029  4.9078
  175MOL0     H24119   4.473  10.776   3.934 -2.7138  0.4216  1.0067
  175MOL0     H24120   4.525  10.636   4.111  0.8817 -0.8847  1.0591
  175MOL0     H24121   4.628  10.754   4.193  1.5680  0.1151  0.1615
  175MOL0     H24122   4.787  10.743   3.992  3.3744 -2.2751 -1.1720
  175MOL0     H24123   4.778  10.594   4.090  0.8394 -0.9060 -1.3261
  175MOL0     H24124   4.612  10.617   3.844  1.1488  0.2756 -0.0140
  175MOL0     H24125   4.603  10.487   3.946 -2.2561  1.2989 -1.3728
  175MOL0     H24126   4.858  10.442   3.918  1.6830 -0.4379 -1.8510
  175MOL0     H24127   4.852  10.568   3.798  1.2104 -0.4427  2.3174
  175MOL0     H24128   4.706  10.460   3.660 -1.2270  0.3863  0.1827
  175MOL0     H24129   4.681  10.327   3.762 -0.1229 -0.3602  0.2642
  175MOL0     H24130   4.008  10.904   3.953  1.7834  3.3439  1.7493
  175MOL0     H24131   3.782  10.830   4.020 -0.9627  3.2019  0.5277
  175MOL0     H24132   3.567  10.466   4.515  0.2794 -0.8659 -0.9773
  175MOL0     H24133   3.348  10.345   4.505 -1.3749 -1.3012 -0.5516
  175MOL0     H24134   1.643   9.946   4.545  0.3224  0.6611 -2.6304
  175MOL0     H24135   1.455   9.820   4.437  0.8947 -0.9805  1.8919
  175MOL0     H24136   1.322   9.272   4.377 -1.9544 -0.0700  0.9261
  175MOL0     H24137   1.107   9.171   4.287  2.2825 -1.0244 -1.8495
  175MOL0     H24138   0.984   9.067   4.127 -0.8740 -1.3822 -0.9281
  175MOL0     H24139   0.873   9.119   4.257 -1.1995 -0.4805 -0.6168
  175MOL0     H24140   0.754   8.984   4.089 -0.6326 -0.7239  2.5084
  175MOL0     H24141   0.789   9.111   3.973 -0.9276  1.5634 -0.0901
  175MOL0     H24142   0.554   9.095   4.102  0.5264 -0.4786 -1.3363
  175MOL0     H24143   0.643   9.144   4.244 -2.4743 -1.0491  0.0769
  175MOL0     H24144   0.586   9.330   3.989  1.8740  3.6778 -0.1523
  175MOL0     H24145   0.719   9.349   4.094 -1.3757  2.5770  1.4713
  175MOL0     H24146   0.452   9.433   4.401  0.7110 -1.6084  0.7406
  175MOL0     H24147   1.017   9.523   4.081 -0.9814 -0.4357 -0.1247
  175MOL0     H24148   1.114   9.701   4.104  0.0368 -1.3479 -1.1214
  175MOL0     H24149   1.210   9.730   4.259  0.1063 -3.0381  0.9759
  175MOL0     H24150   1.294   9.697   4.106  0.1557  0.9695  0.8688
  176MOL0     O24151   9.214   6.119   2.768  1.6469 -0.0945  0.1265
  176MOL0     C24152   9.110   6.059   2.745  0.9596  0.0247  0.4150
  176MOL0     O24153   9.087   5.966   2.643  0.1678  0.1181  0.0785
  176MOL0     C24154   9.188   5.958   2.549 -0.2997  0.3990  0.4205
  176MOL0     C24155   9.303   5.899   2.586  1.2254 -0.6253  0.8220
  176MOL0     C24156   9.397   5.865   2.494  0.1997 -0.9406 -0.0823
  176MOL0     C24157   9.403   5.919   2.367 -0.6555  0.3795  0.0950
  176MOL0     O24158   9.512   5.896   2.288  0.4861 -0.2670 -0.3373
  176MOL0     C24159   9.534   5.976   2.173  0.2386  0.5553  0.5308
  176MOL0     C24160   9.592   6.117   2.194 -0.0123  0.4482  0.1952
  176MOL0     C24161   9.500   6.231   2.170  0.6641 -0.6346 -0.7092
  176MOL0     C24162   9.565   6.364   2.222  0.3632  0.0614 -0.1045
  176MOL0     C24163   9.664   6.435   2.127  0.2192 -0.8538  0.2767
  176MOL0     C24164   9.730   6.547   2.216  0.9145  0.5059  0.1980
  176MOL0     C24165   9.842   6.623   2.134  0.3950 -0.5777  0.7490
  176MOL0     C24166   9.897   6.748   2.195  0.6926 -0.6118 -0.4271
  176MOL0     N24167   9.980   6.815   2.103 -0.3953 -0.6313 -0.1227
  176MOL0     C24168  10.077   6.771   2.014 -0.1554 -0.8921  0.4802
  176MOL0     C24169  10.157   6.883   1.992  0.2038  0.4082  0.8367
  176MOL0     C24170  10.272   6.901   1.892 -0.5695  0.2623 -0.1727
  176MOL0     C24171  10.304   7.048   1.880 -0.6389  0.0200  0.4904
  176MOL0     C24172  10.410   7.082   1.773  0.4003  0.3370  0.6891
  176MOL0     C24173  10.555   7.032   1.815  0.2827  0.6827 -0.4413
  176MOL0     O24174  10.650   7.074   1.713  0.1485 -0.3399 -0.0978
  176MOL0     C24175  10.786   7.072   1.739  0.1596 -0.2510  0.6918
  176MOL0     C24176  10.884   7.137   1.650  0.3858  0.1984 -0.3285
  176MOL0     C24177  11.019   7.123   1.672 -0.0143  0.1781 -1.0249
  176MOL0     C24178  11.120   7.201   1.585 -0.2003 -0.1320  0.6202
  176MOL0     C24179  11.064   7.047   1.785  0.1628 -0.7540 -0.3518
  176MOL0     C24180  11.201   7.022   1.819  1.4286  0.5261 -0.4668
  176MOL0     O24181  11.292   7.026   1.715 -0.1816  0.4424  0.7929
  176MOL0     C24182  11.429   7.015   1.744 -0.2135  0.2209  0.3635
  176MOL0     C24183  11.504   6.920   1.669 -0.0697  0.1963 -0.4661
  176MOL0     C24184  11.643   6.909   1.691  0.1003  0.4123  0.0156
  176MOL0     C24185  11.712   6.998   1.772  0.0290  0.7537  1.2080
  176MOL0     O24186  11.849   6.986   1.799 -0.6336 -0.3110  0.1009
  176MOL0     C24187  11.934   6.882   1.737  0.5320  0.5577 -0.0263
  176MOL0     C24188  12.075   6.930   1.756 -0.4726  0.5383  0.2428
  176MOL0     C24189  12.165   6.861   1.655  0.3269  0.1111  0.2348
  176MOL0     C24190  12.316   6.872   1.671  0.6397  0.1781  0.0747
  176MOL0     C24191  12.380   6.828   1.548 -0.3081  0.3543 -0.4776
  176MOL0     C24192  12.403   6.671   1.562  0.0161  0.2362  0.0700
  176MOL0     C24193  12.492   6.633   1.449 -0.4057  0.2414 -0.1215
  176MOL0     C24194  12.500   6.479   1.447 -0.0630  0.6691 -0.3601
  176MOL0    Cl24195  12.337   6.412   1.396 -0.1646  0.5957  0.2425
  176MOL0     C24196  11.634   7.093   1.844  0.2788  0.3218  0.0926
  176MOL0     C24197  11.490   7.094   1.836  0.3402 -0.1171 -0.3410
  176MOL0     O24198  11.234   7.009   1.941  0.3912 -0.0151  0.1306
  176MOL0     C24199  10.969   6.985   1.862  0.1441 -0.4616 -0.0174
  176MOL0     C24200  10.827   6.991   1.837 -0.1340 -0.5312 -0.3165
  176MOL0     N24201  10.103   6.992   2.069 -0.1091 -0.0919 -0.5301
  176MOL0     N24202   9.998   6.952   2.125  0.9054  0.4488  0.6667
  176MOL0     C24203   9.283   5.989   2.321 -0.3074  0.5011  0.3452
  176MOL0     C24204   9.180   6.004   2.414 -0.1867 -0.0618 -0.4605
  176MOL0     C24205   8.993   6.090   2.839  0.4709  0.2946 -0.4542
  176MOL0     C24206   8.895   5.990   2.843 -0.0000 -0.3559  0.9239
  176MOL0     C24207   8.775   6.012   2.916  0.0041  0.0858 -0.6894
  176MOL0     C24208   8.759   6.133   2.992 -0.6672 -0.4004  0.1929
  176MOL0     O24209   8.640   6.170   3.061  0.1662 -0.1274 -0.5417
  176MOL0     C24210   8.533   6.077   3.090 -0.1321  0.3035 -0.3593
  176MOL0     C24211   8.561   5.963   3.198  0.0202  0.1599 -0.3064
  176MOL0     C24212   8.605   6.038   3.324  0.3877  0.3012  0.7285
  176MOL0     C24213   8.486   6.066   3.419 -0.4629  1.2628 -0.0508
  176MOL0     C24214   8.402   6.189   3.393 -0.1762  0.1242 -0.1999
  176MOL0     C24215   8.333   6.290   3.385  0.2783  0.4263 -0.0614
  176MOL0     C24216   8.866   6.224   2.989  0.8894 -0.0915 -0.0482
  176MOL0     C24217   8.976   6.208   2.911 -0.1479  1.0738 -1.0077
  176MOL0     C24218   9.068   6.330   2.923  0.0987 -0.2963  0.2137
  176MOL0     H24219   9.301   5.845   2.680 -1.2824 -2.1612 -0.0291
  176MOL0     H24220   9.480   5.808   2.535  0.9249 -0.2058 -0.5140
  176MOL0     H24221   9.434   5.979   2.128  0.6545  0.0420 -0.4394
  176MOL0     H24222   9.600   5.922   2.105 -1.7121  0.2454 -1.2135
  176MOL0     H24223   9.625   6.111   2.299 -0.3023 -3.3184  0.2054
  176MOL0     H24224   9.683   6.121   2.134 -0.2329  0.7648 -0.1216
  176MOL0     H24225   9.476   6.246   2.065  1.4441  3.4400 -0.4562
  176MOL0     H24226   9.406   6.216   2.224  0.3255 -0.8898 -1.3558
  176MOL0     H24227   9.482   6.435   2.225 -0.2618 -0.6385 -0.4275
  176MOL0     H24228   9.594   6.353   2.326 -4.1641  1.4618  1.5296
  176MOL0     H24229   9.608   6.486   2.048  1.3120  1.0646  0.6812
  176MOL0     H24230   9.741   6.366   2.091 -0.1813 -1.5519  0.7468
  176MOL0     H24231   9.646   6.616   2.231 -2.2268 -2.7879 -0.8389
  176MOL0     H24232   9.766   6.518   2.316 -1.3777 -0.6816  0.7495
  176MOL0     H24233   9.789   6.658   2.045  0.5601 -2.0093  0.0638
  176MOL0     H24234   9.923   6.556   2.102  0.5011  0.1654 -0.6092
  176MOL0     H24235   9.817   6.813   2.230  0.1237 -0.7749 -1.3871
  176MOL0     H24236   9.947   6.727   2.290 -1.9319 -0.7306  1.0198
  176MOL0     H24237  10.106   6.672   1.979  2.4838 -0.5086  1.3379
  176MOL0     H24238  10.242   6.863   1.794 -1.3987  0.9058 -0.1779
  176MOL0     H24239  10.351   6.843   1.942  0.0564  2.3533  1.4348
  176MOL0     H24240  10.219   7.114   1.863  1.3046  2.5518 -0.1099
  176MOL0     H24241  10.338   7.085   1.978 -0.5565 -0.6973  0.7399
  176MOL0     H24242  10.395   7.040   1.673  2.0799 -1.4486  1.1270
  176MOL0     H24243  10.413   7.191   1.770  1.8708  0.5028  4.0350
  176MOL0     H24244  10.590   7.063   1.914  1.7011 -1.6404 -0.1456
  176MOL0     H24245  10.546   6.923   1.816 -0.6105  0.7522  0.1898
  176MOL0     H24246  10.852   7.199   1.568  1.6157 -1.0916 -1.8624
  176MOL0     H24247  11.192   7.250   1.650 -0.6701  1.4409 -0.0073
  176MOL0     H24248  11.070   7.270   1.517  0.3488 -0.0402  0.2996
  176MOL0     H24249  11.176   7.138   1.514 -0.1179  0.5866  0.0414
  176MOL0     H24250  11.448   6.848   1.610  0.3676  0.5195 -1.2922
  176MOL0     H24251  11.703   6.824   1.659 -0.7025 -0.0332 -0.3246
  176MOL0     H24252  11.920   6.789   1.794  0.3744 -0.3084 -1.4415
  176MOL0     H24253  11.918   6.862   1.631  3.2344 -3.2219  0.0392
  176MOL0     H24254  12.083   7.038   1.744  0.5968  0.5011  0.5756
  176MOL0     H24255  12.101   6.903   1.858 -1.0067  2.2721  0.8709
  176MOL0     H24256  12.134   6.895   1.555 -0.0919 -1.4884 -0.2135
  176MOL0     H24257  12.133   6.757   1.652 -0.0809  0.2446 -0.1405
  176MOL0     H24258  12.337   6.806   1.757 -1.8061 -2.7180 -1.3705
  176MOL0     H24259  12.346   6.975   1.690 -1.2139  1.1412 -1.9244
  176MOL0     H24260  12.325   6.856   1.458  1.0906 -0.8127 -1.7302
  176MOL0     H24261  12.474   6.883   1.544 -0.9674  1.7825  1.7491
  176MOL0     H24262  12.308   6.618   1.555 -0.1626  0.6377 -0.7021
  176MOL0     H24263  12.453   6.652   1.657  0.6373  1.2936 -0.0292
  176MOL0     H24264  12.592   6.676   1.464 -0.4294 -0.1091  1.1301
  176MOL0     H24265  12.453   6.668   1.353  1.3541  1.2218 -0.5144
  176MOL0     H24266  12.520   6.442   1.548  1.5417 -0.9573 -1.2257
  176MOL0     H24267  12.584   6.439   1.391 -0.4956  0.8909 -1.1788
  176MOL0     H24268  11.688   7.162   1.908  1.2703 -0.4159  0.0792
  176MOL0     H24269  11.433   7.172   1.887 -1.0379 -1.5937  0.4537
  176MOL0     H24270  11.007   6.926   1.944  1.9925 -1.8209 -1.7583
  176MOL0     H24271  10.775   6.921   1.900  3.8844 -2.7297  0.9203
  176MOL0     H24272   9.266   6.031   2.223 -0.4407 -3.5031 -1.5378
  176MOL0     H24273   9.102   6.068   2.372 -0.1038 -0.7039 -1.6343
  176MOL0     H24274   8.917   5.912   2.771 -1.6507  1.9133 -2.3479
  176MOL0     H24275   8.690   5.948   2.901  0.1329 -0.3833  0.4696
  176MOL0     H24276   8.455   6.150   3.114 -1.3410 -1.1750  0.3543
  176MOL0     H24277   8.486   6.031   3.002 -2.6455 -1.4054  1.7216
  176MOL0     H24278   8.631   5.888   3.163 -0.3620 -0.4027  0.1191
  176MOL0     H24279   8.465   5.913   3.216 -0.5571  1.8258  1.6150
  176MOL0     H24280   8.669   5.966   3.375 -1.0586 -0.0968  2.0797
  176MOL0     H24281   8.656   6.133   3.302 -1.4047  0.8674 -1.3047
  176MOL0     H24282   8.533   6.090   3.515 -0.1942 -0.7977  0.3859
  176MOL0     H24283   8.424   5.977   3.435  1.2056  0.3538  1.7168
  176MOL0     H24284   8.270   6.376   3.394  1.5324  1.5715 -1.6064
  176MOL0     H24285   8.842   6.314   3.046 -0.4938  2.8824 -4.6969
  176MOL0     H24286   9.083   6.367   2.821 -0.8150 -2.5509 -0.8078
  176MOL0     H24287   9.017   6.407   2.982 -2.0019 -1.6327  0.2794
  176MOL0     H24288   9.155   6.304   2.984 -1.1125 -0.3947  1.9732
  177MOL0     O24289   0.494   1.450   4.682  0.0066 -0.5607 -0.2949
  177MOL0     C24290   0.533   1.562   4.706  0.3469 -0.0799  1.1805
  177MOL0     O24291   0.455   1.666   4.733 -0.2789  0.8781 -0.2106
  177MOL0     C24292   0.329   1.658   4.705  0.5078  0.3289  0.5681
  177MOL0     C24293   0.294   1.706   4.575  0.4193  0.2525 -0.3397
  177MOL0     C24294   0.154   1.713   4.534  0.9592 -1.0491  0.2256
  177MOL0     C24295   0.053   1.681   4.625 -0.1027 -0.0695  0.4706
  177MOL0     O24296  -0.080   1.716   4.613 -0.1390  0.2318  0.9911
  177MOL0     C24297  -0.141   1.706   4.486 -0.2083  0.3017  0.8892
  177MOL0     C24298  -0.261   1.797   4.476 -0.4673 -0.0945  0.6497
  177MOL0     C24299  -0.373   1.760   4.579  0.2354  0.7133 -0.5661
  177MOL0     C24300  -0.501   1.835   4.547 -0.1289  0.9532  0.3533
  177MOL0     C24301  -0.618   1.793   4.637 -0.3726 -0.7671 -0.7075
  177MOL0     C24302  -0.760   1.852   4.607 -0.3298 -0.3253  0.3999
  177MOL0     C24303  -0.820   1.794   4.475 -0.2411 -0.5443 -0.8739
  177MOL0     C24304  -0.956   1.855   4.440 -0.0458 -0.9433  0.0361
  177MOL0     N24305  -1.048   1.855   4.550  0.2656  0.2155  0.3109
  177MOL0     C24306  -1.128   1.961   4.582  0.7193 -0.1982 -0.5608
  177MOL0     C24307  -1.205   1.908   4.680  0.1983  0.1145  0.5020
  177MOL0     C24308  -1.326   1.980   4.746 -0.6808 -0.1157  0.4129
  177MOL0     C24309  -1.454   1.967   4.679  0.1579  0.7623 -0.2738
  177MOL0     C24310  -1.460   2.046   4.550 -0.0126  0.1582  0.3919
  177MOL0     C24311  -1.603   2.039   4.481 -0.8093 -0.2420 -0.1874
  177MOL0     O24312  -1.713   2.077   4.576  0.0534 -0.2040  0.6347
  177MOL0     C24313  -1.845   2.093   4.537  0.6994 -0.0337  0.3660
  177MOL0     C24314  -1.882   2.112   4.404 -0.1371 -0.7232 -0.2504
  177MOL0     C24315  -2.010   2.155   4.372  0.2606  0.3247  0.6161
  177MOL0     C24316  -2.044   2.162   4.226  0.0085 -0.0273 -0.4680
  177MOL0     C24317  -2.105   2.158   4.479  0.7824  0.4493  0.0793
  177MOL0     C24318  -2.250   2.207   4.450  0.3947  0.1085  0.5548
  177MOL0     O24319  -2.346   2.179   4.541 -0.8979 -0.0372 -0.7595
  177MOL0     C24320  -2.474   2.208   4.513 -0.3902 -0.3538 -0.2352
  177MOL0     C24321  -2.512   2.342   4.499 -0.4887  0.6757 -0.2108
  177MOL0     C24322  -2.649   2.369   4.490  0.3632 -0.5832 -0.2127
  177MOL0     C24323  -2.747   2.270   4.484 -0.0607  0.1493 -0.8189
  177MOL0     O24324  -2.882   2.295   4.488 -0.0308 -0.4771  0.5530
  177MOL0     C24325  -2.940   2.418   4.432  0.3974 -0.4683 -0.6940
  177MOL0     C24326  -3.091   2.429   4.461  0.2470  0.2034  0.1811
  177MOL0     C24327  -3.147   2.565   4.422 -0.3426 -1.0892 -0.0923
  177MOL0     C24328  -3.294   2.578   4.481  0.5978  0.6900  0.1568
  177MOL0     C24329  -3.343   2.718   4.478 -0.0211 -0.2618 -0.7539
  177MOL0     C24330  -3.364   2.784   4.344 -0.8907  0.4868  0.6033
  177MOL0     C24331  -3.397   2.933   4.347  0.2388 -0.0408  0.1609
  177MOL0     C24332  -3.465   2.975   4.215 -0.4245  0.0744  0.3450
  177MOL0    Cl24333  -3.628   2.923   4.210 -0.0145 -0.1251 -0.1066
  177MOL0     C24334  -2.706   2.140   4.487 -0.6367  0.1948  0.3546
  177MOL0     C24335  -2.566   2.109   4.505 -0.4799 -0.8404 -0.0687
  177MOL0     O24336  -2.277   2.258   4.339 -0.3589 -0.3138 -0.2765
  177MOL0     C24337  -2.074   2.123   4.615 -0.0489 -0.1318 -0.2859
  177MOL0     C24338  -1.938   2.099   4.644  0.6678  0.4956 -0.1666
  177MOL0     N24339  -1.174   1.770   4.705 -0.4916 -0.2318  0.2298
  177MOL0     N24340  -1.074   1.741   4.626  0.0729 -1.0303 -0.2945
  177MOL0     C24341   0.092   1.625   4.747  0.3498 -0.0068 -0.5663
  177MOL0     C24342   0.227   1.622   4.785  0.1579 -0.1291  0.5705
  177MOL0     C24343   0.680   1.585   4.699 -0.7843  0.7369  0.0528
  177MOL0     C24344   0.769   1.494   4.756 -0.0903  0.3284  0.2553
  177MOL0     C24345   0.908   1.517   4.754  0.6465 -0.2900  0.2125
  177MOL0     C24346   0.966   1.632   4.698  0.0033 -0.6850  0.4777
  177MOL0     O24347   1.091   1.655   4.735 -1.0566  0.1135  0.0182
  177MOL0     C24348   1.176   1.712   4.642 -0.2938 -0.2951  0.3880
  177MOL0     C24349   1.317   1.753   4.684 -0.0569  0.1346 -0.4346
  177MOL0     C24350   1.396   1.630   4.740  0.6401 -0.3214  0.8052
  177MOL0     C24351   1.535   1.674   4.781  0.6381  0.3759 -0.1755
  177MOL0     C24352   1.640   1.570   4.749  0.9570  0.9406 -0.1865
  177MOL0     C24353   1.729   1.499   4.705  0.9267 -0.4636 -0.2065
  177MOL0     C24354   0.882   1.718   4.638  0.4921 -0.3368 -0.3808
  177MOL0     C24355   0.738   1.696   4.634 -0.9673  0.4363 -1.0114
  177MOL0     C24356   0.662   1.787   4.551  1.0494 -0.4818  0.0676
  177MOL0     H24357   0.377   1.738   4.513 -0.1283  0.1274 -1.1486
  177MOL0     H24358   0.132   1.747   4.433  1.9820 -2.0350 -0.3658
  177MOL0     H24359  -0.177   1.604   4.469  0.7493  0.1469 -0.4093
  177MOL0     H24360  -0.082   1.722   4.395 -1.9023 -1.0013 -0.4838
  177MOL0     H24361  -0.212   1.894   4.490  0.2883  0.1414 -2.7026
  177MOL0     H24362  -0.296   1.797   4.372 -0.9605  0.8667  0.8024
  177MOL0     H24363  -0.387   1.652   4.570  3.3964  0.1351  0.0348
  177MOL0     H24364  -0.339   1.781   4.682  1.1079  0.0243 -0.7024
  177MOL0     H24365  -0.482   1.942   4.555  2.2083  0.4649  2.7073
  177MOL0     H24366  -0.538   1.808   4.447 -1.3689  0.9356  0.8043
  177MOL0     H24367  -0.599   1.825   4.740  0.2275 -0.2810 -0.9643
  177MOL0     H24368  -0.634   1.685   4.642  6.6086 -2.4251 -3.0795
  177MOL0     H24369  -0.829   1.837   4.691  1.1115 -1.2401  1.4862
  177MOL0     H24370  -0.751   1.961   4.599 -0.0196 -0.4055 -0.3753
  177MOL0     H24371  -0.815   1.687   4.497  0.2826  0.0709  2.8135
  177MOL0     H24372  -0.755   1.813   4.389  3.0439 -1.1274  1.2862
  177MOL0     H24373  -0.928   1.956   4.409 -2.0358  0.1404  1.5767
  177MOL0     H24374  -0.997   1.797   4.357 -4.3461 -1.4984  2.2560
  177MOL0     H24375  -1.129   2.061   4.541 -2.6363 -0.1186 -0.5362
  177MOL0     H24376  -1.308   2.087   4.762 -0.4650 -0.4262  2.5835
  177MOL0     H24377  -1.343   1.942   4.847 -0.5870  0.8706  0.8085
  177MOL0     H24378  -1.464   1.862   4.648 -1.4028  1.0655 -0.9339
  177MOL0     H24379  -1.540   1.991   4.742 -2.5941 -0.2277 -3.3316
  177MOL0     H24380  -1.425   2.149   4.565  1.8725 -0.3959  0.1574
  177MOL0     H24381  -1.395   2.001   4.474  1.0285  0.0810  1.2958
  177MOL0     H24382  -1.611   2.089   4.384 -4.1637  1.0110  0.6058
  177MOL0     H24383  -1.625   1.936   4.452 -3.8481  0.4019 -0.5000
  177MOL0     H24384  -1.810   2.093   4.325 -0.7893  2.4335 -1.7447
  177MOL0     H24385  -2.121   2.086   4.207  1.1025 -0.6544 -2.7611
  177MOL0     H24386  -1.953   2.142   4.169 -0.3137 -0.3703 -0.8766
  177MOL0     H24387  -2.085   2.260   4.199  0.4981  0.0194 -1.0710
  177MOL0     H24388  -2.442   2.425   4.508 -1.3384  1.5036 -1.0672
  177MOL0     H24389  -2.679   2.473   4.487  0.7378 -0.4743 -0.2186
  177MOL0     H24390  -2.893   2.503   4.483 -0.1736 -0.4822 -0.1331
  177MOL0     H24391  -2.928   2.424   4.324 -0.3507  1.1152 -0.7152
  177MOL0     H24392  -3.135   2.348   4.403  2.2529 -1.2298  0.5513
  177MOL0     H24393  -3.109   2.399   4.564 -2.1320  1.2200  0.1362
  177MOL0     H24394  -3.153   2.586   4.315 -0.4946 -0.1544  0.0876
  177MOL0     H24395  -3.078   2.641   4.461  0.7201 -1.1143 -1.8296
  177MOL0     H24396  -3.297   2.544   4.585 -0.9234  1.3188  0.3405
  177MOL0     H24397  -3.359   2.509   4.426 -0.4004  1.3903  0.4364
  177MOL0     H24398  -3.435   2.718   4.537 -0.2922  2.1859 -1.0653
  177MOL0     H24399  -3.271   2.779   4.535 -0.2502 -2.4030  2.0385
  177MOL0     H24400  -3.445   2.734   4.289  0.4400 -1.2192  0.0686
  177MOL0     H24401  -3.274   2.778   4.282  0.0653  0.2180  1.9904
  177MOL0     H24402  -3.310   2.998   4.363  0.7834 -0.4619 -0.9866
  177MOL0     H24403  -3.479   2.940   4.419  0.1874  1.4337 -0.0060
  177MOL0     H24404  -3.408   2.932   4.132 -1.4366 -0.0316 -0.3188
  177MOL0     H24405  -3.455   3.083   4.205  0.4482  0.5813  4.8449
  177MOL0     H24406  -2.787   2.067   4.494 -2.9971  2.2663 -2.4204
  177MOL0     H24407  -2.530   2.006   4.510 -2.0176 -1.3590  1.0600
  177MOL0     H24408  -2.151   2.123   4.691  0.3347 -0.9542  0.1232
  177MOL0     H24409  -1.899   2.072   4.741  1.2233 -0.6429 -0.6895
  177MOL0     H24410   0.016   1.594   4.818 -0.6476  1.2461 -1.0470
  177MOL0     H24411   0.253   1.579   4.882 -0.6024  3.4808  2.5727
  177MOL0     H24412   0.746   1.405   4.814  0.7648  0.6360  1.0775
  177MOL0     H24413   0.977   1.461   4.816  2.4226  1.2453 -0.3020
  177MOL0     H24414   1.189   1.650   4.553 -0.7512  0.1532  0.0034
  177MOL0     H24415   1.137   1.813   4.623 -1.7206 -0.5205  1.8421
  177MOL0     H24416   1.301   1.833   4.757 -2.7782  0.8657 -1.6879
  177MOL0     H24417   1.367   1.797   4.597  0.5671  3.2597  1.3600
  177MOL0     H24418   1.343   1.590   4.827 -0.0591  3.0525  2.0976
  177MOL0     H24419   1.394   1.542   4.675 -3.5938  0.7341 -0.8200
  177MOL0     H24420   1.538   1.694   4.889  2.1887 -1.8450  0.2482
  177MOL0     H24421   1.565   1.767   4.732 -0.4562  0.1199 -1.4019
  177MOL0     H24422   1.798   1.431   4.660  0.0258  0.2320 -2.8169
  177MOL0     H24423   0.925   1.811   4.603  1.6891 -0.4335  0.7481
  177MOL0     H24424   0.732   1.866   4.520  0.9936 -1.4065 -2.6855
  177MOL0     H24425   0.628   1.738   4.459  2.7829  0.0223 -0.8943
  177MOL0     H24426   0.579   1.832   4.605  0.5210  0.4392 -1.4346
  178MOL0     O24427   0.582   2.454   0.187 -0.1177  0.9230 -0.3420
  178MOL0     C24428   0.517   2.352   0.156 -0.3044 -1.0810  0.4188
  178MOL0     O24429   0.551   2.249   0.076 -0.1305 -0.5622 -0.7126
  178MOL0     C24430   0.678   2.255   0.028  0.9249 -0.3425  0.6391
  178MOL0     C24431   0.719   2.353  -0.077 -0.7180  0.8881 -0.4662
  178MOL0     C24432   0.842   2.345  -0.139 -0.5282 -0.1642 -0.6454
  178MOL0     C24433   0.924   2.228  -0.122 -1.1069 -0.0708  0.4557
  178MOL0     O24434   1.040   2.196  -0.192  0.8458  0.1242 -0.8585
  178MOL0     C24435   1.089   2.276  -0.294 -0.0845 -1.4416 -0.2804
  178MOL0     C24436   1.215   2.212  -0.368 -0.6626 -0.5479 -1.0038
  178MOL0     C24437   1.330   2.218  -0.277 -0.3232  0.7401 -0.6399
  178MOL0     C24438   1.454   2.135  -0.330  1.5010 -0.3947  0.3811
  178MOL0     C24439   1.589   2.165  -0.263  0.0254  0.5806  1.3059
  178MOL0     C24440   1.668   2.278  -0.338  1.1779  0.7345  1.0940
  178MOL0     C24441   1.640   2.423  -0.289  0.2674  0.1124 -0.0671
  178MOL0     C24442   1.766   2.509  -0.307  0.7633 -0.0493 -0.1091
  178MOL0     N24443   1.796   2.530  -0.445  0.3194  0.4625  0.2930
  178MOL0     C24444   1.877   2.446  -0.523  0.5505 -0.3721 -0.2944
  178MOL0     C24445   1.894   2.513  -0.636  0.2559 -0.3897  1.0342
  178MOL0     C24446   1.992   2.489  -0.747  1.6063  0.6036 -0.3864
  178MOL0     C24447   2.117   2.585  -0.731 -0.1285 -0.4420  0.0514
  178MOL0     C24448   2.178   2.597  -0.596 -0.3296  0.0601  0.1562
  178MOL0     C24449   2.322   2.643  -0.602  0.3496 -0.1706 -0.1108
  178MOL0     O24450   2.405   2.550  -0.662  0.0885 -0.2327  0.4798
  178MOL0     C24451   2.538   2.581  -0.653 -0.9821  0.4567 -0.4317
  178MOL0     C24452   2.594   2.707  -0.646 -0.7125 -0.1345 -0.2899
  178MOL0     C24453   2.731   2.732  -0.641  0.7902 -0.1674  0.0116
  178MOL0     C24454   2.782   2.874  -0.635 -1.2214 -0.3022  0.0695
  178MOL0     C24455   2.817   2.621  -0.684  0.2528  0.3043 -0.4309
  178MOL0     C24456   2.967   2.624  -0.709 -0.2584  0.5956  0.0355
  178MOL0     O24457   3.025   2.501  -0.741  0.5513  0.0372 -0.8169
  178MOL0     C24458   3.155   2.511  -0.758  0.2339  1.0594 -0.8248
  178MOL0     C24459   3.214   2.550  -0.873 -0.0506  0.7719 -0.3186
  178MOL0     C24460   3.354   2.534  -0.893 -0.1485  0.2059 -0.6391
  178MOL0     C24461   3.438   2.476  -0.795  0.2689  0.5902  0.6938
  178MOL0     O24462   3.574   2.445  -0.804 -0.3958 -0.7674 -0.6936
  178MOL0     C24463   3.611   2.383  -0.933  0.5909 -0.0336 -0.1687
  178MOL0     C24464   3.763   2.388  -0.944 -0.0210  0.1975  0.0834
  178MOL0     C24465   3.843   2.351  -0.811  0.9150  0.0517 -0.0082
  178MOL0     C24466   3.817   2.200  -0.772 -0.1283 -0.1907 -0.6823
  178MOL0     C24467   3.946   2.124  -0.709  0.0218 -0.6890  1.7357
  178MOL0     C24468   4.047   2.093  -0.825  0.5623 -0.5147 -0.3249
  178MOL0     C24469   4.162   1.997  -0.784  0.4567  0.2402  0.3279
  178MOL0     C24470   4.283   2.072  -0.731 -0.0722 -0.7388 -0.7655
  178MOL0    Cl24471   4.222   2.135  -0.577 -0.1236 -0.2474 -0.1300
  178MOL0     C24472   3.374   2.442  -0.677  0.2476  0.6403  0.9231
  178MOL0     C24473   3.236   2.459  -0.661  0.8473 -0.2757  0.2671
  178MOL0     O24474   3.027   2.730  -0.692  0.1109 -0.5882  0.3366
  178MOL0     C24475   2.758   2.490  -0.679  0.2157 -0.4389  0.2260
  178MOL0     C24476   2.622   2.472  -0.665 -0.0838  0.0393 -0.0327
  178MOL0     N24477   1.823   2.631  -0.630 -0.3282 -0.0678  0.0409
  178MOL0     N24478   1.764   2.638  -0.517  0.1083 -0.3235  0.4103
  178MOL0     C24479   0.874   2.132  -0.034  0.0250 -0.3095  0.9319
  178MOL0     C24480   0.754   2.143   0.034 -0.1085  0.5364  0.3170
  178MOL0     C24481   0.378   2.354   0.219 -0.2151  0.2925  0.8894
  178MOL0     C24482   0.327   2.475   0.279 -0.0773 -0.6028  0.6987
  178MOL0     C24483   0.198   2.479   0.337  0.2060  0.9097  0.5177
  178MOL0     C24484   0.113   2.368   0.340 -0.3742 -0.0020  0.9031
  178MOL0     O24485  -0.019   2.353   0.374 -0.7011  0.3913  0.3668
  178MOL0     C24486  -0.093   2.470   0.424  0.9563  0.3434 -0.2969
  178MOL0     C24487  -0.084   2.484   0.578  0.2184  0.5028  0.0998
  178MOL0     C24488  -0.138   2.623   0.618  0.9938 -0.6166  0.3674
  178MOL0     C24489  -0.287   2.620   0.657 -0.1819  0.5292 -0.4095
  178MOL0     C24490  -0.320   2.541   0.783 -0.1235  0.0956 -0.1291
  178MOL0     C24491  -0.340   2.460   0.871 -0.3802 -0.9869 -0.3516
  178MOL0     C24492   0.173   2.250   0.300 -0.2842  0.4061 -0.4689
  178MOL0     C24493   0.298   2.240   0.235  0.1958 -0.9720  0.3065
  178MOL0     C24494   0.335   2.107   0.183 -0.0081 -0.3408  0.4686
  178MOL0     H24495   0.649   2.432  -0.100 -0.7437  1.3742  1.1564
  178MOL0     H24496   0.879   2.417  -0.211  1.5111 -0.6200 -0.1191
  178MOL0     H24497   1.129   2.372  -0.261 -2.7234 -0.7480  1.1263
  178MOL0     H24498   1.002   2.290  -0.358 -1.5904 -1.0787  1.7540
  178MOL0     H24499   1.192   2.107  -0.389 -0.9535 -0.4526 -1.1632
  178MOL0     H24500   1.237   2.273  -0.456 -1.1753  4.0765  1.7326
  178MOL0     H24501   1.350   2.326  -0.276  0.2419  0.6525 -1.5965
  178MOL0     H24502   1.315   2.182  -0.175  0.2316  1.2732 -0.3577
  178MOL0     H24503   1.438   2.033  -0.297 -1.2873  0.6767  2.7664
  178MOL0     H24504   1.460   2.138  -0.439 -0.7640 -0.2219  0.2003
  178MOL0     H24505   1.645   2.072  -0.271 -1.5618 -0.2629 -1.2598
  178MOL0     H24506   1.574   2.199  -0.160 -2.8450  3.0142  0.2583
  178MOL0     H24507   1.772   2.245  -0.339  0.9423 -0.0468 -0.4816
  178MOL0     H24508   1.649   2.276  -0.446  2.0371  0.5364  0.9372
  178MOL0     H24509   1.615   2.417  -0.183 -0.8243  0.8783 -0.2599
  178MOL0     H24510   1.554   2.467  -0.342 -0.1258 -0.4059  0.1373
  178MOL0     H24511   1.749   2.605  -0.257  0.0917  0.2810 -0.9520
  178MOL0     H24512   1.851   2.464  -0.255 -0.4944  0.3342  2.4544
  178MOL0     H24513   1.915   2.346  -0.502 -2.3576 -1.3981  0.6629
  178MOL0     H24514   1.944   2.515  -0.842 -2.5796 -3.5049  0.2483
  178MOL0     H24515   2.021   2.384  -0.743 -2.3392 -0.6303  3.5181
  178MOL0     H24516   2.198   2.566  -0.802  1.3233 -2.1170  2.0362
  178MOL0     H24517   2.096   2.688  -0.763  0.2853 -0.5902 -0.7273
  178MOL0     H24518   2.113   2.654  -0.529 -3.2083 -1.2799 -1.3097
  178MOL0     H24519   2.175   2.493  -0.562 -2.7828  0.3219  0.9539
  178MOL0     H24520   2.327   2.739  -0.655  0.6883  0.5218  1.1239
  178MOL0     H24521   2.350   2.660  -0.497  2.0516 -0.4954 -0.4895
  178MOL0     H24522   2.528   2.793  -0.646 -1.5096 -0.7381 -0.2159
  178MOL0     H24523   2.829   2.900  -0.540 -2.0484 -0.2386  0.4675
  178MOL0     H24524   2.694   2.939  -0.644 -0.8074  0.1545 -0.8989
  178MOL0     H24525   2.851   2.898  -0.717 -0.4150  1.3158  1.1771
  178MOL0     H24526   3.143   2.587  -0.946 -1.2798  0.0153  0.4557
  178MOL0     H24527   3.403   2.572  -0.983 -3.1803  1.2755 -1.9521
  178MOL0     H24528   3.567   2.282  -0.934  1.3375 -0.3653 -0.4487
  178MOL0     H24529   3.573   2.446  -1.014  1.8077 -0.1574 -0.8507
  178MOL0     H24530   3.787   2.321  -1.028 -0.3256  0.5136 -0.2607
  178MOL0     H24531   3.792   2.490  -0.969 -0.0042  0.4879  1.2734
  178MOL0     H24532   3.811   2.420  -0.732 -1.0575 -0.9933  0.1745
  178MOL0     H24533   3.949   2.374  -0.819  1.1148 -1.2899 -1.6112
  178MOL0     H24534   3.769   2.144  -0.854  0.1831 -2.0310  0.3562
  178MOL0     H24535   3.748   2.203  -0.687  1.1089  1.5008  0.3243
  178MOL0     H24536   3.993   2.202  -0.649  0.5202 -0.3144  0.8885
  178MOL0     H24537   3.910   2.042  -0.647 -1.6865  0.1388  1.9116
  178MOL0     H24538   4.083   2.187  -0.869 -1.4204 -0.3157 -1.6375
  178MOL0     H24539   3.993   2.041  -0.904  0.1776 -0.7733  0.1004
  178MOL0     H24540   4.189   1.937  -0.872  2.2788 -0.1126  1.0755
  178MOL0     H24541   4.131   1.925  -0.708 -1.3125  1.1412  0.5151
  178MOL0     H24542   4.322   2.148  -0.799  0.4155  0.9503  1.2660
  178MOL0     H24543   4.358   1.995  -0.709 -0.8429 -1.3448 -0.2108
  178MOL0     H24544   3.432   2.396  -0.598 -0.2166  2.2421  2.2520
  178MOL0     H24545   3.198   2.415  -0.569  0.3099 -1.4874 -0.4981
  178MOL0     H24546   2.823   2.407  -0.705  0.7921  0.6286 -2.0167
  178MOL0     H24547   2.581   2.373  -0.680 -0.6516  0.3799 -0.7953
  178MOL0     H24548   0.939   2.048  -0.011  0.9059  0.0226 -0.2570
  178MOL0     H24549   0.722   2.053   0.086 -0.2745 -0.3381 -1.2043
  178MOL0     H24550   0.402   2.553   0.281  2.8153 -3.1494 -0.4015
  178MOL0     H24551   0.165   2.579   0.361 -1.6565  0.8229 -1.4441
  178MOL0     H24552  -0.054   2.559   0.375 -3.5274  2.0688 -1.2417
  178MOL0     H24553  -0.196   2.469   0.388  0.8483  0.4070  0.0085
  178MOL0     H24554   0.022   2.473   0.601  0.2067 -3.6757 -0.9665
  178MOL0     H24555  -0.136   2.393   0.611 -0.0237  1.1847  1.6492
  178MOL0     H24556  -0.089   2.659   0.709 -1.3831 -2.0487  2.3558
  178MOL0     H24557  -0.124   2.691   0.533 -1.5382 -1.4439 -0.7900
  178MOL0     H24558  -0.353   2.570   0.585 -1.2644 -1.2392  1.7002
  178MOL0     H24559  -0.302   2.727   0.670  1.1384  0.4812  2.0750
  178MOL0     H24560  -0.339   2.377   0.939 -0.3422 -0.2072  0.6377
  178MOL0     H24561   0.126   2.154   0.318  1.2131 -0.4790 -1.0276
  178MOL0     H24562   0.249   2.041   0.173 -0.6698  0.7350 -1.5964
  178MOL0     H24563   0.379   2.108   0.083 -1.0639 -1.2261 -0.0143
  178MOL0     H24564   0.406   2.060   0.252  0.9241 -1.0901 -0.9565
  179MOL0     O24565   5.457  10.623   7.543 -1.0649 -0.4663  0.0377
  179MOL0     C24566   5.417  10.689   7.636 -0.1303  0.1342 -0.3460
  179MOL0     O24567   5.497  10.736   7.739 -0.5142 -0.4773  0.4989
  179MOL0     C24568   5.633  10.725   7.731 -0.5804  0.9638  0.2228
  179MOL0     C24569   5.702  10.778   7.631 -0.0303  0.6126  0.2247
  179MOL0     C24570   5.839  10.789   7.636  0.2419  0.2947 -0.5941
  179MOL0     C24571   5.911  10.750   7.753  0.1178 -0.0410  0.3562
  179MOL0     O24572   6.050  10.756   7.760 -0.8031 -0.1331 -0.2107
  179MOL0     C24573   6.093  10.898   7.788 -0.5758  0.1140 -0.1447
  179MOL0     C24574   6.085  10.938   7.937 -0.4759 -0.2238 -0.5811
  179MOL0     C24575   6.152  10.838   8.037 -0.4230 -0.4692  0.4624
  179MOL0     C24576   6.159  10.887   8.180 -0.8490  0.0618  0.5047
  179MOL0     C24577   6.246  11.009   8.205  0.2027  0.5319  0.2786
  179MOL0     C24578   6.399  10.977   8.211 -0.7248 -0.0446 -0.1089
  179MOL0     C24579   6.477  11.104   8.205 -0.3970 -0.0730  0.1714
  179MOL0     C24580   6.493  11.169   8.065 -0.8655 -0.5254  0.4562
  179MOL0     N24581   6.571  11.087   7.966  0.4280  0.4671  1.0009
  179MOL0     C24582   6.699  11.101   7.909 -0.4816 -0.5094 -0.2729
  179MOL0     C24583   6.698  11.020   7.802  0.2551 -0.5717  0.0312
  179MOL0     C24584   6.816  10.986   7.712  0.3393  0.4129  0.0315
  179MOL0     C24585   6.949  11.051   7.751 -0.2938  0.0776 -0.0565
  179MOL0     C24586   7.059  11.000   7.656 -0.6692  0.5218  0.2403
  179MOL0     C24587   7.193  11.060   7.708 -0.0646 -0.8903 -0.4532
  179MOL0     O24588   7.310  11.036   7.626 -0.0713 -0.1776 -0.0744
  179MOL0     C24589   7.435  11.024   7.697  0.0236  0.8007  0.2418
  179MOL0     C24590   7.466  11.086   7.818  1.0186 -0.2324 -0.1163
  179MOL0     C24591   7.593  11.068   7.874 -0.4676 -0.6180 -0.1279
  179MOL0     C24592   7.613  11.120   8.019  0.1492  0.2208  0.0844
  179MOL0     C24593   7.696  10.995   7.802  0.6245  0.3813 -0.1693
  179MOL0     C24594   7.832  10.963   7.848  0.4207 -0.6363 -0.2666
  179MOL0     O24595   7.883  10.842   7.803  0.0103  0.6985  0.6649
  179MOL0     C24596   8.014  10.816   7.821  0.6500  0.2346  0.3577
  179MOL0     C24597   8.119  10.909   7.816 -0.9504  1.0629  1.0047
  179MOL0     C24598   8.247  10.859   7.854  0.8360  0.1630  0.2132
  179MOL0     C24599   8.275  10.735   7.899 -0.0891  0.2360  0.4215
  179MOL0     O24600   8.397  10.697   7.951 -1.0004  0.9974  0.0485
  179MOL0     C24601   8.520  10.771   7.916 -0.4204  0.7367 -0.2326
  179MOL0     C24602   8.549  10.879   8.023  0.2787  0.0928 -0.0590
  179MOL0     C24603   8.675  10.959   7.999  0.2508 -0.1542  0.3205
  179MOL0     C24604   8.799  10.875   8.018 -0.0623 -0.1391 -0.4840
  179MOL0     C24605   8.932  10.942   7.987 -0.1248  0.0017  0.9876
  179MOL0     C24606   8.958  11.062   8.071  0.1278 -0.1715  0.9756
  179MOL0     C24607   9.089  11.132   8.015 -0.2080 -0.1608 -0.1163
  179MOL0     C24608   9.215  11.046   8.049  0.9376  0.0373 -1.1507
  179MOL0    Cl24609   9.197  10.997   8.224 -0.9344 -0.2283 -0.2553
  179MOL0     C24610   8.168  10.639   7.902 -0.4349 -0.2431 -0.9208
  179MOL0     C24611   8.038  10.683   7.859  0.0585  0.0250  0.1744
  179MOL0     O24612   7.887  11.043   7.927 -0.2082 -0.3212  0.2091
  179MOL0     C24613   7.664  10.943   7.674  0.1584 -0.0424 -0.2984
  179MOL0     C24614   7.536  10.966   7.624 -0.5394 -0.6548 -0.0663
  179MOL0     N24615   6.576  10.952   7.802 -0.1925 -0.9564  0.3017
  179MOL0     N24616   6.500  11.003   7.886 -0.3255 -1.2520 -0.2304
  179MOL0     C24617   5.840  10.687   7.858 -0.5791 -0.3986  0.5362
  179MOL0     C24618   5.703  10.667   7.843 -0.0485  0.0189  0.6962
  179MOL0     C24619   5.280  10.724   7.642 -0.4135  0.2884 -0.4827
  179MOL0     C24620   5.242  10.849   7.701 -0.5797 -0.6088  0.1220
  179MOL0     C24621   5.111  10.891   7.707 -0.2852 -0.2632  0.6992
  179MOL0     C24622   5.012  10.809   7.659 -1.4229  0.8195  0.0208
  179MOL0     O24623   4.886  10.858   7.654 -0.3773 -0.1060 -0.0750
  179MOL0     C24624   4.785  10.761   7.683 -0.6765 -0.8552  0.2715
  179MOL0     C24625   4.661  10.835   7.730  0.3513 -0.6352 -0.4523
  179MOL0     C24626   4.652  10.855   7.884  0.0188  0.1851 -0.0192
  179MOL0     C24627   4.523  10.935   7.925 -0.0592 -0.3424 -0.1756
  179MOL0     C24628   4.399  10.868   7.887  0.2873  0.2401 -1.0912
  179MOL0     C24629   4.309  10.810   7.835  0.5121 -0.0505 -0.3121
  179MOL0     C24630   5.044  10.678   7.611  0.2002 -0.1909 -0.3083
  179MOL0     C24631   5.176  10.640   7.596  0.1969  0.8642  0.0864
  179MOL0     C24632   5.200  10.484   7.560 -0.1202  0.3495  0.7992
  179MOL0     H24633   5.642  10.824   7.553 -1.2437  0.4118  1.0127
  179MOL0     H24634   5.886  10.847   7.557  2.5595 -0.9187 -0.1786
  179MOL0     H24635   6.043  10.967   7.720 -1.8759 -0.3140  0.3482
  179MOL0     H24636   6.198  10.908   7.759 -0.7283  0.7471 -0.4899
  179MOL0     H24637   6.140  11.032   7.947  0.5597 -0.4219 -3.6028
  179MOL0     H24638   5.984  10.954   7.976  0.5330  1.6032  1.5728
  179MOL0     H24639   6.087  10.750   8.027 -0.0168 -0.7144 -0.0694
  179MOL0     H24640   6.251  10.819   7.996 -0.5575  2.6614 -1.7337
  179MOL0     H24641   6.059  10.898   8.224 -1.5894  0.5624 -1.1984
  179MOL0     H24642   6.211  10.806   8.233  0.3318 -0.2409 -1.0556
  179MOL0     H24643   6.216  11.042   8.305  1.2754 -2.7325  1.8257
  179MOL0     H24644   6.232  11.093   8.136 -2.2119  0.8837  1.1327
  179MOL0     H24645   6.421  10.934   8.309 -2.1104 -0.5791 -0.0175
  179MOL0     H24646   6.433  10.916   8.126  0.2610  5.4004 -4.1959
  179MOL0     H24647   6.578  11.083   8.243  0.0859 -2.3143 -2.0585
  179MOL0     H24648   6.430  11.179   8.269  2.6887  3.3357 -1.2502
  179MOL0     H24649   6.395  11.188   8.021 -0.4694  0.6875  0.0338
  179MOL0     H24650   6.543  11.266   8.075 -1.4634 -0.1191 -0.4456
  179MOL0     H24651   6.777  11.168   7.944 -1.2920 -0.3079  1.2454
  179MOL0     H24652   6.792  11.010   7.608 -3.8868 -0.9697  0.5097
  179MOL0     H24653   6.830  10.878   7.710 -0.5313  0.3020 -0.4718
  179MOL0     H24654   6.939  11.160   7.749  2.7381  0.4390 -0.0626
  179MOL0     H24655   6.969  11.024   7.855 -2.0526  1.8715  0.8223
  179MOL0     H24656   7.065  10.892   7.640 -1.6912  0.8423 -2.9225
  179MOL0     H24657   7.052  11.049   7.559  2.0092  1.6257  0.5020
  179MOL0     H24658   7.169  11.166   7.723 -3.2416 -1.5339 -0.4024
  179MOL0     H24659   7.209  11.013   7.806 -0.9852 -0.6008 -0.1479
  179MOL0     H24660   7.399  11.149   7.876  0.0778 -1.3469  0.0390
  179MOL0     H24661   7.692  11.069   8.074 -1.3930 -2.1868  0.1941
  179MOL0     H24662   7.524  11.104   8.080  0.5678  0.3917  0.7492
  179MOL0     H24663   7.644  11.224   8.007 -0.5282  0.3006 -1.2082
  179MOL0     H24664   8.110  11.012   7.782 -0.3905  0.2295 -1.9662
  179MOL0     H24665   8.321  10.938   7.844 -1.9641  2.8193 -1.0803
  179MOL0     H24666   8.605  10.702   7.923 -2.3978 -2.1720 -2.2238
  179MOL0     H24667   8.526  10.817   7.817  1.6472  2.7548  0.7240
  179MOL0     H24668   8.469  10.953   8.035  1.5560  1.6090 -0.6621
  179MOL0     H24669   8.559  10.832   8.121  0.1088  0.8991  0.3538
  179MOL0     H24670   8.667  11.047   8.065  0.1573  0.5662 -0.6302
  179MOL0     H24671   8.676  11.008   7.902 -2.1415  0.3432  0.4934
  179MOL0     H24672   8.798  10.789   7.950 -2.3267 -1.3229  0.9527
  179MOL0     H24673   8.799  10.842   8.122  4.3029  1.9582  0.4290
  179MOL0     H24674   9.007  10.866   8.010 -1.0643 -1.2402  0.0577
  179MOL0     H24675   8.927  10.964   7.880  0.1278 -1.6613  0.6071
  179MOL0     H24676   8.980  11.056   8.178  0.5756  1.1310  0.9798
  179MOL0     H24677   8.868  11.124   8.071  0.5302  0.4315  1.7548
  179MOL0     H24678   9.097  11.229   8.064  2.3443  0.3117 -1.3398
  179MOL0     H24679   9.076  11.167   7.912  0.7272  1.0871  0.1704
  179MOL0     H24680   9.313  11.093   8.036  1.2523 -0.1193  0.4386
  179MOL0     H24681   9.211  10.954   7.989  1.5433 -1.5441  1.0952
  179MOL0     H24682   8.191  10.545   7.951 -2.1321  1.1084  2.8364
  179MOL0     H24683   7.955  10.614   7.853 -0.9769  1.1924  0.5458
  179MOL0     H24684   7.740  10.897   7.612 -0.4867 -0.2407 -0.9625
  179MOL0     H24685   7.527  10.923   7.525  0.9580  0.9832 -0.9726
  179MOL0     H24686   5.898  10.625   7.925  1.8921  0.8530 -0.3380
  179MOL0     H24687   5.632  10.606   7.898 -1.1460  0.4325 -0.2293
  179MOL0     H24688   5.323  10.907   7.744 -0.7918 -1.0546  1.1390
  179MOL0     H24689   5.078  10.992   7.731 -1.7045  0.3925 -3.2981
  179MOL0     H24690   4.757  10.707   7.592  2.7820 -3.1202  0.3662
  179MOL0     H24691   4.825  10.688   7.755  1.5366 -0.9735 -0.9828
  179MOL0     H24692   4.572  10.775   7.705 -1.1160  1.7603 -1.3672
  179MOL0     H24693   4.650  10.930   7.677  0.3536 -0.6002 -0.3884
  179MOL0     H24694   4.649  10.755   7.927 -0.1305  0.7421  1.2965
  179MOL0     H24695   4.736  10.907   7.930 -3.5742  3.0402  4.2247
  179MOL0     H24696   4.529  11.032   7.875 -1.0581 -0.1956 -0.0370
  179MOL0     H24697   4.524  10.965   8.030 -0.7296  1.8465 -0.7439
  179MOL0     H24698   4.236  10.745   7.791 -1.1066  1.2558  0.3715
  179MOL0     H24699   4.967  10.606   7.583 -0.8408  0.8904 -0.3355
  179MOL0     H24700   5.280  10.449   7.625 -0.6030 -0.4674  0.9653
  179MOL0     H24701   5.119  10.416   7.587  1.1820 -1.8108 -0.4517
  179MOL0     H24702   5.219  10.463   7.454 -0.1696 -3.6481  1.4301
  180MOL0     O24703   9.248   1.352   9.706  0.3287  0.1430  0.4252
  180MOL0     C24704   9.220   1.243   9.755  0.1205 -0.8547 -0.1667
  180MOL0     O24705   9.307   1.146   9.785  0.2214 -0.0695 -0.2733
  180MOL0     C24706   9.440   1.133   9.733 -0.2437  0.2250 -0.5789
  180MOL0     C24707   9.526   1.039   9.798 -0.2886 -0.1438 -0.0202
  180MOL0     C24708   9.659   1.021   9.751  0.2229 -0.9053 -0.3663
  180MOL0     C24709   9.705   1.094   9.634  0.0731 -0.1558 -0.1568
  180MOL0     O24710   9.832   1.094   9.578  0.3067 -0.4801  1.1234
  180MOL0     C24711   9.939   1.025   9.653 -0.3006  0.3907  0.4116
  180MOL0     C24712  10.060   1.016   9.562  0.3185  0.0178 -0.8235
  180MOL0     C24713  10.171   0.919   9.622  0.0950 -0.1658  0.2434
  180MOL0     C24714  10.311   0.944   9.557 -0.1223 -0.0194 -0.5499
  180MOL0     C24715  10.423   0.885   9.643 -0.4735  0.0101 -0.5905
  180MOL0     C24716  10.473   0.746   9.597 -0.8469  0.6037  0.4072
  180MOL0     C24717  10.613   0.717   9.661 -0.9168  0.0175  0.2409
  180MOL0     C24718  10.735   0.785   9.593  0.3506  0.0960 -0.4828
  180MOL0     N24719  10.855   0.697   9.614 -0.1032  0.3037 -0.8929
  180MOL0     C24720  10.871   0.572   9.563 -1.1757 -0.0488 -0.2546
  180MOL0     C24721  10.988   0.520   9.614 -0.0164  0.7337  0.1100
  180MOL0     C24722  11.040   0.381   9.594 -0.2890  0.1972 -0.0298
  180MOL0     C24723  11.185   0.349   9.637 -0.5723 -0.5118 -1.2643
  180MOL0     C24724  11.196   0.304   9.783  1.2281  0.0525  0.3060
  180MOL0     C24725  11.326   0.224   9.800  0.1536 -0.0417 -0.3717
  180MOL0     O24726  11.441   0.318   9.786  0.2925 -0.5875  0.1092
  180MOL0     C24727  11.562   0.262   9.773  0.7501  0.5729 -0.2059
  180MOL0     C24728  11.598   0.129   9.794  0.0770  0.6634  0.4566
  180MOL0     C24729  11.730   0.082   9.772  0.6848  0.3198  0.1142
  180MOL0     C24730  11.736  -0.073   9.795  0.1688  0.2340 -0.1107
  180MOL0     C24731  11.840   0.172   9.759 -0.5208  0.5556 -1.2944
  180MOL0     C24732  11.987   0.139   9.742  0.4773  0.3063 -0.4012
  180MOL0     O24733  12.075   0.238   9.687  0.1142  0.4503 -0.0484
  180MOL0     C24734  12.205   0.194   9.685  0.6491 -0.3603  1.0053
  180MOL0     C24735  12.251   0.102   9.588  0.7077 -0.3138 -0.3296
  180MOL0     C24736  12.388   0.075   9.567  1.0710 -0.5217 -0.0403
  180MOL0     C24737  12.487   0.143   9.641 -0.1220  0.4716 -0.3732
  180MOL0     O24738  12.620   0.122   9.611 -0.0328  0.2968  0.7363
  180MOL0     C24739  12.728   0.189   9.686  0.0479 -0.5020 -0.0368
  180MOL0     C24740  12.854   0.113   9.648  0.0909 -0.0937 -0.6363
  180MOL0     C24741  12.969   0.169   9.715  0.2721  0.0587 -0.5904
  180MOL0     C24742  13.082   0.064   9.711 -0.5563 -0.4138  0.2024
  180MOL0     C24743  13.206   0.100   9.781  0.8617 -0.6526 -0.2493
  180MOL0     C24744  13.297   0.207   9.720  0.0686  0.6241  1.0648
  180MOL0     C24745  13.441   0.203   9.781 -0.0640 -0.1685 -0.1279
  180MOL0     C24746  13.555   0.192   9.670  0.5859  0.8841  0.1331
  180MOL0    Cl24747  13.548   0.051   9.553  0.0295  0.2702 -0.0612
  180MOL0     C24748  12.437   0.222   9.746 -0.0753  1.2845 -0.5175
  180MOL0     C24749  12.301   0.248   9.770 -0.1997  0.2652 -0.0973
  180MOL0     O24750  12.017   0.021   9.771 -0.4797 -0.3908  0.5914
  180MOL0     C24751  11.799   0.309   9.742  0.2427  0.1219 -0.5846
  180MOL0     C24752  11.665   0.353   9.743 -1.0542  0.5516  0.7845
  180MOL0     N24753  11.039   0.615   9.700  0.4002 -0.5960  0.3720
  180MOL0     N24754  10.959   0.716   9.703  0.1490 -0.5673 -0.6086
  180MOL0     C24755   9.621   1.186   9.573 -1.3341 -0.3217  0.5147
  180MOL0     C24756   9.490   1.198   9.616 -0.2338  0.0227  0.1273
  180MOL0     C24757   9.073   1.200   9.763 -0.4687 -0.3117 -0.9798
  180MOL0     C24758   9.040   1.065   9.800 -0.3695 -0.0420  0.0174
  180MOL0     C24759   8.903   1.018   9.805  0.5819 -0.1803 -0.1207
  180MOL0     C24760   8.799   1.102   9.779  1.0599  0.6703  0.4602
  180MOL0     O24761   8.671   1.063   9.770  0.3388 -0.7038 -0.2954
  180MOL0     C24762   8.624   0.924   9.777  0.2491  0.0320  0.0865
  180MOL0     C24763   8.478   0.911   9.818  0.3406  0.0008 -0.3307
  180MOL0     C24764   8.395   0.952   9.697 -0.0873 -0.4802 -0.1091
  180MOL0     C24765   8.250   0.909   9.719  0.1179  0.0004  1.0824
  180MOL0     C24766   8.168   0.912   9.589 -0.7562 -1.1485 -0.6021
  180MOL0     C24767   8.121   0.931   9.480 -0.6690  1.0477  0.0566
  180MOL0     C24768   8.824   1.233   9.742 -0.4465 -0.8630  0.9447
  180MOL0     C24769   8.963   1.274   9.717  0.6798 -0.1353 -0.3055
  180MOL0     C24770   8.978   1.422   9.668 -0.4901 -0.2168  0.2401
  180MOL0     H24771   9.482   0.991   9.885 -1.3187 -1.2851 -1.1361
  180MOL0     H24772   9.726   0.952   9.803  2.5426  2.2548  1.1918
  180MOL0     H24773   9.912   0.919   9.657  2.0133 -0.2330  1.0397
  180MOL0     H24774   9.969   1.061   9.752  2.2401 -0.6891  0.1321
  180MOL0     H24775  10.028   0.983   9.462 -1.0521 -1.6418  0.1038
  180MOL0     H24776  10.087   1.122   9.557 -0.9927  0.4251  0.2238
  180MOL0     H24777  10.184   0.939   9.729  0.4897  0.9826 -0.0102
  180MOL0     H24778  10.133   0.818   9.606  0.1189 -0.4903  2.0563
  180MOL0     H24779  10.320   0.898   9.458  0.1315 -0.4915 -0.3133
  180MOL0     H24780  10.322   1.053   9.552 -2.7139  0.2754 -1.3288
  180MOL0     H24781  10.396   0.889   9.749 -3.6012  1.9023 -1.3172
  180MOL0     H24782  10.507   0.954   9.630 -1.3985  1.3685  0.3429
  180MOL0     H24783  10.398   0.677   9.637  0.8784 -1.7047 -0.1375
  180MOL0     H24784  10.475   0.725   9.490 -1.0281 -0.0054  0.5198
  180MOL0     H24785  10.626   0.609   9.657  1.9278  0.2911 -0.5613
  180MOL0     H24786  10.619   0.748   9.766  0.5577 -1.9023  0.7783
  180MOL0     H24787  10.726   0.811   9.487 -0.3778  2.1513  0.0225
  180MOL0     H24788  10.743   0.878   9.650 -1.1159 -0.2685  0.3723
  180MOL0     H24789  10.793   0.533   9.498 -3.4317  1.8301  1.1469
  180MOL0     H24790  11.037   0.353   9.489 -0.2406 -1.1927  0.3247
  180MOL0     H24791  10.964   0.321   9.646 -1.8212  2.7545  0.8849
  180MOL0     H24792  11.229   0.270   9.575  0.8800  0.7094 -1.8583
  180MOL0     H24793  11.257   0.431   9.629 -0.6409 -0.2181  0.7208
  180MOL0     H24794  11.202   0.393   9.847  1.5591 -1.3044  2.2587
  180MOL0     H24795  11.108   0.249   9.818  2.7894 -0.5280  3.7867
  180MOL0     H24796  11.334   0.167   9.893  1.0418  1.4321  0.4939
  180MOL0     H24797  11.328   0.151   9.718 -0.9851 -0.1679 -0.3083
  180MOL0     H24798  11.519   0.055   9.793  1.6483 -1.1346 -1.3158
  180MOL0     H24799  11.759  -0.094   9.900 -1.1099  4.5885  1.2592
  180MOL0     H24800  11.807  -0.117   9.726  0.9557  0.4317  0.5556
  180MOL0     H24801  11.645  -0.131   9.775  1.3256 -1.7307  0.1522
  180MOL0     H24802  12.168   0.069   9.527  2.4811 -0.8632 -2.5595
  180MOL0     H24803  12.414   0.018   9.478  1.8596  1.1505 -0.9401
  180MOL0     H24804  12.730   0.287   9.638  0.7218 -1.4941 -2.1748
  180MOL0     H24805  12.719   0.190   9.795 -2.6962  0.0025 -0.1890
  180MOL0     H24806  12.839   0.008   9.675  0.7579  0.6374  3.0773
  180MOL0     H24807  12.875   0.120   9.541  0.6359  0.4347 -0.4965
  180MOL0     H24808  12.942   0.203   9.816 -1.8635 -1.6684 -0.5258
  180MOL0     H24809  13.001   0.260   9.664 -2.9455  2.2655  1.0006
  180MOL0     H24810  13.100   0.049   9.604 -4.3613  2.2830 -1.0256
  180MOL0     H24811  13.053  -0.027   9.766 -1.3256 -0.8643 -0.9226
  180MOL0     H24812  13.169   0.136   9.877  3.5428 -0.0814  0.6619
  180MOL0     H24813  13.261   0.007   9.796 -2.2772 -2.9330 -1.7004
  180MOL0     H24814  13.254   0.308   9.716 -0.0392  0.5206 -1.8495
  180MOL0     H24815  13.302   0.172   9.617  0.4494 -1.9012  1.8814
  180MOL0     H24816  13.448   0.115   9.847  0.4004  0.1180  0.2133
  180MOL0     H24817  13.458   0.294   9.839  0.1658  0.2407 -0.8375
  180MOL0     H24818  13.656   0.184   9.713  1.1204 -3.2596 -1.4430
  180MOL0     H24819  13.534   0.275   9.602 -2.4298 -1.1933 -1.6977
  180MOL0     H24820  12.512   0.276   9.802  1.5982  0.9523 -2.3231
  180MOL0     H24821  12.268   0.315   9.849 -2.3036 -0.5176 -0.2380
  180MOL0     H24822  11.877   0.381   9.719  0.5345  0.4013  1.0859
  180MOL0     H24823  11.643   0.457   9.723  1.7126  0.8778 -1.0926
  180MOL0     H24824   9.656   1.235   9.483 -4.8945  1.0337 -0.2614
  180MOL0     H24825   9.415   1.255   9.562 -0.6123  1.1024  1.7198
  180MOL0     H24826   9.114   0.997   9.840 -0.6564 -1.9521 -2.4216
  180MOL0     H24827   8.880   0.912   9.809  0.8207 -0.4192 -2.9749
  180MOL0     H24828   8.645   0.878   9.680  0.3362  4.2973 -2.1608
  180MOL0     H24829   8.683   0.867   9.849  0.7144 -0.1842 -0.4499
  180MOL0     H24830   8.447   0.976   9.899 -0.1917  0.0213 -0.5488
  180MOL0     H24831   8.462   0.805   9.839 -1.3364  0.5088  1.1802
  180MOL0     H24832   8.401   1.059   9.676 -1.2297 -0.6263 -1.3458
  180MOL0     H24833   8.433   0.908   9.604 -0.1622 -2.0237  0.5649
  180MOL0     H24834   8.199   0.962   9.800 -2.5638 -1.3222  0.3853
  180MOL0     H24835   8.246   0.803   9.747 -1.2227 -0.5033 -0.7929
  180MOL0     H24836   8.062   0.931   9.391 -1.8676  0.2484  0.8202
  180MOL0     H24837   8.745   1.306   9.730 -1.2944 -1.5978  1.9756
  180MOL0     H24838   9.047   1.429   9.583 -0.1258 -3.0418  0.2252
  180MOL0     H24839   8.878   1.458   9.639 -1.0661 -2.4392 -0.7064
  180MOL0     H24840   9.015   1.481   9.752  0.5115 -1.0097  0.3723
  181MOL0     O24841   3.727   1.073   9.017  0.3757 -0.3536 -0.3584
  181MOL0     C24842   3.678   1.045   9.126 -0.6892 -0.7521  0.3988
  181MOL0     O24843   3.548   1.044   9.153  0.3093  0.5251 -0.1260
  181MOL0     C24844   3.457   1.103   9.067 -0.5768 -0.6476  0.3401
  181MOL0     C24845   3.373   1.200   9.120 -0.0829  0.0540  0.3906
  181MOL0     C24846   3.271   1.252   9.037  0.7939 -0.1446  0.2531
  181MOL0     C24847   3.260   1.205   8.904 -0.3094 -0.0008  0.1040
  181MOL0     O24848   3.169   1.251   8.819 -0.0313  0.0950  0.3369
  181MOL0     C24849   3.034   1.273   8.868  0.0678 -0.4495  0.0037
  181MOL0     C24850   2.934   1.212   8.769 -0.2599  0.0862  0.0549
  181MOL0     C24851   2.788   1.256   8.789 -0.2459  0.5373  0.8353
  181MOL0     C24852   2.682   1.157   8.736 -0.6806  0.5639  0.2680
  181MOL0     C24853   2.540   1.206   8.762  0.0077 -0.9002  0.8393
  181MOL0     C24854   2.506   1.346   8.703  0.1325  0.2424  0.5441
  181MOL0     C24855   2.360   1.376   8.731  0.2448  0.0770  0.4080
  181MOL0     C24856   2.301   1.484   8.643 -0.3311  0.2310  0.1913
  181MOL0     N24857   2.158   1.504   8.651 -0.0039 -0.6405  0.0545
  181MOL0     C24858   2.058   1.409   8.645  1.3010 -0.1180 -0.4496
  181MOL0     C24859   1.944   1.483   8.642  0.1148 -0.2645  0.7207
  181MOL0     C24860   1.806   1.426   8.615 -0.1414  0.2148  0.1542
  181MOL0     C24861   1.732   1.440   8.750 -0.7457 -0.0646 -0.1492
  181MOL0     C24862   1.601   1.376   8.748  0.7918 -0.4201  0.1387
  181MOL0     C24863   1.503   1.447   8.655  0.7705 -0.5328 -0.0085
  181MOL0     O24864   1.517   1.405   8.509  0.5230  0.4373 -0.0882
  181MOL0     C24865   1.430   1.480   8.432  0.2101 -0.2398 -0.3326
  181MOL0     C24866   1.321   1.561   8.481 -0.2801  0.4939  0.2155
  181MOL0     C24867   1.233   1.638   8.395  0.5182 -0.6611 -0.0185
  181MOL0     C24868   1.107   1.690   8.466  0.4066  0.6250  0.3424
  181MOL0     C24869   1.254   1.641   8.255 -0.3126 -0.3108  0.0690
  181MOL0     C24870   1.158   1.694   8.152  0.9519  0.0356 -0.5479
  181MOL0     O24871   1.039   1.749   8.190  0.2481 -0.1774  0.1935
  181MOL0     C24872   0.976   1.833   8.104 -0.6468 -0.1865  0.1544
  181MOL0     C24873   0.962   1.967   8.153  0.6723  0.2363  0.2772
  181MOL0     C24874   0.902   2.064   8.072 -0.6191 -0.5387 -0.4347
  181MOL0     C24875   0.867   2.034   7.937  0.1400  0.3009  0.7107
  181MOL0     O24876   0.797   2.119   7.849 -0.5421  0.0443  0.0925
  181MOL0     C24877   0.834   2.261   7.865 -0.3843 -0.3547 -0.8832
  181MOL0     C24878   0.771   2.344   7.761  0.1215  0.3892  0.3933
  181MOL0     C24879   0.811   2.497   7.754  0.2524 -0.5772  0.0798
  181MOL0     C24880   0.824   2.567   7.888 -0.5386  1.4474  0.6747
  181MOL0     C24881   0.859   2.720   7.872 -0.2325  0.9156 -0.1874
  181MOL0     C24882   1.007   2.756   7.866  0.5323 -0.4391  0.8232
  181MOL0     C24883   1.031   2.909   7.856 -0.3788  1.2332  0.1968
  181MOL0     C24884   1.175   2.951   7.826 -0.6993  0.1255  0.0113
  181MOL0    Cl24885   1.233   2.862   7.671 -0.8024 -0.6821  0.2990
  181MOL0     C24886   0.893   1.908   7.885  0.0644 -0.4882 -0.1586
  181MOL0     C24887   0.939   1.801   7.966 -0.3858  0.8083 -0.5810
  181MOL0     O24888   1.193   1.681   8.036 -0.9346  0.0427  0.1639
  181MOL0     C24889   1.367   1.558   8.210 -0.1148  0.3078 -0.1358
  181MOL0     C24890   1.450   1.480   8.295 -0.1384  1.2697 -0.1947
  181MOL0     N24891   1.975   1.617   8.669  1.1365  0.2355 -0.8622
  181MOL0     N24892   2.105   1.622   8.685  1.1191 -0.0292  0.3739
  181MOL0     C24893   3.342   1.102   8.857  1.3099 -0.3971 -0.3494
  181MOL0     C24894   3.441   1.051   8.939 -0.6476  0.7708 -0.0253
  181MOL0     C24895   3.769   0.994   9.227  0.1116  0.4313  0.4443
  181MOL0     C24896   3.880   0.920   9.188  0.0341  0.8617 -0.2653
  181MOL0     C24897   3.978   0.872   9.269  0.9857 -0.3475 -0.5645
  181MOL0     C24898   3.967   0.908   9.405 -0.7481 -0.0297  0.8449
  181MOL0     O24899   4.062   0.889   9.493  0.2612  0.0345  0.0559
  181MOL0     C24900   4.183   0.818   9.473 -0.4459  0.1391 -0.1361
  181MOL0     C24901   4.286   0.919   9.410 -0.2896  0.3587  0.0694
  181MOL0     C24902   4.323   1.042   9.501  0.4079  0.6086  0.6145
  181MOL0     C24903   4.459   1.104   9.452 -0.9841  0.7012 -0.2446
  181MOL0     C24904   4.499   1.204   9.550 -0.7403 -0.0846 -0.7460
  181MOL0     C24905   4.520   1.299   9.626 -1.1446  0.6266  0.6304
  181MOL0     C24906   3.854   0.971   9.455 -0.8816 -0.3732  1.5421
  181MOL0     C24907   3.756   1.016   9.364 -0.2194 -0.2803  0.0063
  181MOL0     C24908   3.637   1.095   9.429  0.2429  0.3301  0.0096
  181MOL0     H24909   3.380   1.236   9.222 -0.2620  0.7873  0.1521
  181MOL0     H24910   3.201   1.324   9.079 -3.1754 -2.3084 -2.0878
  181MOL0     H24911   3.024   1.381   8.881 -0.5012 -0.5111  0.0931
  181MOL0     H24912   3.009   1.241   8.970  0.5690  1.2183  0.6982
  181MOL0     H24913   2.961   1.246   8.668  1.1457  2.0368  1.0258
  181MOL0     H24914   2.938   1.102   8.775 -3.6138 -0.3612 -2.7060
  181MOL0     H24915   2.778   1.252   8.898  1.2190 -3.5412  1.0013
  181MOL0     H24916   2.768   1.354   8.745 -2.2996  0.4148  1.3751
  181MOL0     H24917   2.701   1.125   8.633  1.0007  1.5411  0.2513
  181MOL0     H24918   2.697   1.063   8.790  0.7546  1.4417  1.4546
  181MOL0     H24919   2.518   1.220   8.868  0.4443 -1.5664  1.0287
  181MOL0     H24920   2.464   1.144   8.713  0.7226  0.3682 -2.0722
  181MOL0     H24921   2.564   1.426   8.750  3.6832 -0.3975 -2.2749
  181MOL0     H24922   2.539   1.354   8.599  1.0370  0.6694  0.8440
  181MOL0     H24923   2.352   1.405   8.836 -0.7464  4.8708 -0.7574
  181MOL0     H24924   2.301   1.287   8.709  2.6437 -1.3613 -0.5811
  181MOL0     H24925   2.357   1.574   8.672  1.3486 -0.4503 -0.8114
  181MOL0     H24926   2.338   1.476   8.541  1.3572  1.6172  0.6215
  181MOL0     H24927   2.060   1.303   8.625  0.3694 -0.4576  1.0516
  181MOL0     H24928   1.796   1.319   8.592  1.7545  0.4463 -2.2364
  181MOL0     H24929   1.763   1.472   8.525  1.0517 -4.0796 -2.9200
  181MOL0     H24930   1.797   1.396   8.826 -0.2419 -1.1386 -1.1635
  181MOL0     H24931   1.732   1.539   8.798 -0.0697 -1.2871  2.5737
  181MOL0     H24932   1.608   1.271   8.718 -0.8512 -0.7461  0.7569
  181MOL0     H24933   1.555   1.377   8.848 -0.2531 -0.1256 -0.3350
  181MOL0     H24934   1.406   1.416   8.694  2.6749 -3.3709  3.0370
  181MOL0     H24935   1.518   1.555   8.664 -1.8832  0.1467 -2.3725
  181MOL0     H24936   1.289   1.544   8.583 -1.6430  0.5463 -0.1776
  181MOL0     H24937   1.078   1.790   8.433  1.8519  0.3132 -2.0720
  181MOL0     H24938   1.121   1.694   8.575 -0.5019  2.4435  0.4319
  181MOL0     H24939   1.027   1.623   8.433 -2.3374  3.7252  0.2267
  181MOL0     H24940   0.975   1.993   8.257  1.2548  0.3088  0.1873
  181MOL0     H24941   0.879   2.159   8.119  0.4802 -0.0030 -0.9360
  181MOL0     H24942   0.826   2.306   7.965  0.0033  1.6313 -1.7033
  181MOL0     H24943   0.940   2.266   7.840 -0.0436  0.7164  0.6173
  181MOL0     H24944   0.777   2.300   7.661  1.3179 -1.7071  1.3242
  181MOL0     H24945   0.663   2.343   7.778  0.1448  0.5813  0.5518
  181MOL0     H24946   0.737   2.547   7.690 -2.3742 -0.9688  2.5628
  181MOL0     H24947   0.904   2.508   7.698 -0.4289  1.7772 -0.7021
  181MOL0     H24948   0.901   2.517   7.948 -1.4399 -1.7340 -0.6117
  181MOL0     H24949   0.733   2.552   7.947 -1.6982  0.8884 -1.1884
  181MOL0     H24950   0.806   2.755   7.783  0.6023 -1.7256 -1.8076
  181MOL0     H24951   0.812   2.771   7.957 -0.9859  0.1211 -0.1047
  181MOL0     H24952   1.044   2.703   7.778  1.0257  2.0930 -0.5748
  181MOL0     H24953   1.056   2.718   7.957 -0.9452  1.3695  2.4489
  181MOL0     H24954   1.003   2.949   7.954  1.6327  0.2838  1.2091
  181MOL0     H24955   0.960   2.952   7.784 -1.2691 -2.4388 -1.3264
  181MOL0     H24956   1.240   2.931   7.912 -2.0749 -0.4854  0.9269
  181MOL0     H24957   1.188   3.055   7.795 -0.6335 -0.6314 -2.7745
  181MOL0     H24958   0.854   1.881   7.787 -0.8713 -1.8344  0.5466
  181MOL0     H24959   0.937   1.701   7.924 -0.4252  0.1760  0.8683
  181MOL0     H24960   1.384   1.552   8.103 -0.7934 -0.0226 -0.2368
  181MOL0     H24961   1.536   1.427   8.255  0.8859  1.6902  1.3579
  181MOL0     H24962   3.332   1.067   8.755  2.3946  1.1036 -1.0033
  181MOL0     H24963   3.485   0.961   8.898  1.8946  2.3902 -1.1001
  181MOL0     H24964   3.894   0.909   9.080 -1.8663  2.3726 -0.7262
  181MOL0     H24965   4.064   0.817   9.232  1.6486 -0.2433  0.7701
  181MOL0     H24966   4.207   0.784   9.575 -2.9063  0.5195  0.6500
  181MOL0     H24967   4.163   0.725   9.419 -2.3402  0.0512  0.6294
  181MOL0     H24968   4.251   0.955   9.313 -0.2291  0.6218  0.1432
  181MOL0     H24969   4.382   0.867   9.396 -0.5342  0.2449 -1.3014
  181MOL0     H24970   4.249   1.123   9.496  1.4194  1.5232  0.1422
  181MOL0     H24971   4.336   1.012   9.606 -0.9259  0.1711  0.6840
  181MOL0     H24972   4.440   1.147   9.353 -0.2578 -1.8214 -1.5494
  181MOL0     H24973   4.538   1.029   9.456 -0.1493  1.6133  1.1154
  181MOL0     H24974   4.527   1.376   9.700 -1.9410 -0.6182  2.0835
  181MOL0     H24975   3.834   0.997   9.559 -1.2732 -1.2799  1.7014
  181MOL0     H24976   3.555   1.023   9.442 -1.6764  2.0310 -1.8965
  181MOL0     H24977   3.659   1.140   9.526  0.6650  1.1204 -0.4474
  181MOL0     H24978   3.606   1.174   9.360 -1.4727  0.4888  0.8933
  182MOL0     O24979  11.257  10.825   7.030  0.0224  0.0400 -0.1081
  182MOL0     C24980  11.346  10.800   6.946 -0.2379 -0.7483 -0.9370
  182MOL0     O24981  11.483  10.811   6.966  0.3933  0.0193 -0.7376
  182MOL0     C24982  11.535  10.883   7.075 -0.1104  0.8454  0.8936
  182MOL0     C24983  11.601  11.005   7.045 -0.3715  1.2972 -0.4525
  182MOL0     C24984  11.631  11.085   7.149  0.7138  0.4229  0.1336
  182MOL0     C24985  11.609  11.053   7.285 -0.2514  0.7529  0.0121
  182MOL0     O24986  11.634  11.141   7.389 -0.2412 -0.0222  0.5320
  182MOL0     C24987  11.712  11.255   7.375  0.0326 -0.1313  0.7843
  182MOL0     C24988  11.855  11.242   7.365  0.3279  0.4488 -0.4400
  182MOL0     C24989  11.925  11.204   7.501 -0.3406 -0.2831 -0.1978
  182MOL0     C24990  12.075  11.201   7.477 -0.0485 -0.5546  0.2570
  182MOL0     C24991  12.154  11.205   7.606 -0.3196 -0.0757 -0.3108
  182MOL0     C24992  12.308  11.166   7.578 -0.1561 -0.1752 -0.4626
  182MOL0     C24993  12.396  11.287   7.564  0.0289 -0.5233  0.4046
  182MOL0     C24994  12.355  11.382   7.451 -1.0123 -0.3595  0.0754
  182MOL0     N24995  12.454  11.497   7.453  0.8754  0.4537  0.0529
  182MOL0     C24996  12.429  11.615   7.392  0.4409 -0.1140 -0.4622
  182MOL0     C24997  12.524  11.702   7.442  0.2283  0.0647  0.7984
  182MOL0     C24998  12.531  11.842   7.426 -0.0485 -0.2555  0.2602
  182MOL0     C24999  12.403  11.920   7.370  0.1871  0.1205 -0.1656
  182MOL0     C25000  12.377  12.057   7.448  1.0781  1.2038  0.5075
  182MOL0     C25001  12.254  12.136   7.393 -0.5878 -0.5652  0.5297
  182MOL0     O25002  12.133  12.058   7.414 -0.8298  0.7208 -0.3390
  182MOL0     C25003  12.015  12.127   7.393  0.0706 -0.7325 -0.5375
  182MOL0     C25004  11.922  12.074   7.308 -0.5360 -0.2893  1.0942
  182MOL0     C25005  11.804  12.137   7.278  0.2869  0.0242  0.1978
  182MOL0     C25006  11.706  12.066   7.193 -0.5698 -0.3117 -0.1675
  182MOL0     C25007  11.776  12.264   7.334  0.7576  0.2330 -0.3344
  182MOL0     C25008  11.653  12.347   7.311 -0.1924  0.3052  0.1003
  182MOL0     O25009  11.628  12.450   7.395  0.2717 -0.0868 -0.5327
  182MOL0     C25010  11.508  12.514   7.387  0.1312  0.2494 -0.7166
  182MOL0     C25011  11.435  12.533   7.495 -0.5139  0.1541 -0.1060
  182MOL0     C25012  11.328  12.616   7.488  1.3360 -0.2996  0.3277
  182MOL0     C25013  11.288  12.689   7.376 -0.5368 -0.3059 -0.3851
  182MOL0     O25014  11.177  12.770   7.381 -0.3093 -0.0257 -0.1578
  182MOL0     C25015  11.163  12.881   7.283 -0.3855  0.2282 -0.4044
  182MOL0     C25016  11.105  13.009   7.346 -0.4985 -0.1878 -0.3022
  182MOL0     C25017  10.978  12.972   7.408 -0.1879  0.9863 -0.6013
  182MOL0     C25018  10.902  13.098   7.450  0.1934 -0.8905 -0.7318
  182MOL0     C25019  10.784  13.056   7.531 -1.5054  0.4310  0.4241
  182MOL0     C25020  10.679  12.988   7.449  0.7893 -0.2821 -0.2826
  182MOL0     C25021  10.537  12.997   7.515  0.7806 -0.5281  0.1484
  182MOL0     C25022  10.482  13.137   7.536  0.2214  0.2193  0.3867
  182MOL0    Cl25023  10.306  13.116   7.547 -0.1520  0.0122 -0.0326
  182MOL0     C25024  11.369  12.671   7.262  0.1897 -0.4005 -0.5837
  182MOL0     C25025  11.479  12.592   7.276 -0.6546 -0.8351  0.9712
  182MOL0     O25026  11.589  12.320   7.206 -0.2242 -0.9072 -0.0712
  182MOL0     C25027  11.870  12.317   7.422 -0.2630  0.1126 -0.8704
  182MOL0     C25028  11.991  12.255   7.449 -0.2216 -0.2035 -0.0374
  182MOL0     N25029  12.614  11.626   7.515 -0.3012  0.4147  0.5303
  182MOL0     N25030  12.575  11.500   7.509 -0.0592 -0.4425 -0.7007
  182MOL0     C25031  11.550  10.927   7.310 -0.1508 -0.4131 -0.8166
  182MOL0     C25032  11.510  10.837   7.206  0.6605  0.0917 -0.1813
  182MOL0     C25033  11.313  10.769   6.809  0.1909 -0.9152  0.4095
  182MOL0     C25034  11.408  10.784   6.709  0.0184 -1.0487  1.0152
  182MOL0     C25035  11.376  10.745   6.580  0.1489  0.0343  0.2881
  182MOL0     C25036  11.244  10.721   6.540 -0.0802 -0.1764 -0.1102
  182MOL0     O25037  11.226  10.681   6.408 -0.9467 -0.5946  0.3715
  182MOL0     C25038  11.095  10.651   6.359 -0.4371 -0.5872 -0.2982
  182MOL0     C25039  11.100  10.616   6.214  0.1913  0.3923  0.4145
  182MOL0     C25040  11.106  10.749   6.129 -0.2883  0.2031  1.1425
  182MOL0     C25041  11.093  10.747   5.980 -0.4658  1.3758 -0.1114
  182MOL0     C25042  11.118  10.875   5.914 -0.9114 -0.0729  0.2251
  182MOL0     C25043  11.159  10.978   5.870  0.6809 -1.0637 -1.2410
  182MOL0     C25044  11.148  10.711   6.640 -0.5706  0.6012 -0.4720
  182MOL0     C25045  11.180  10.723   6.777 -0.1508 -0.5569  0.2277
  182MOL0     C25046  11.068  10.685   6.874  0.0772 -0.2042 -0.0743
  182MOL0     H25047  11.629  11.032   6.944 -1.7343 -2.0352 -1.8657
  182MOL0     H25048  11.687  11.177   7.137  3.0872 -0.5834  2.4543
  182MOL0     H25049  11.685  11.316   7.461 -0.7918 -0.7539  0.9763
  182MOL0     H25050  11.687  11.317   7.289  2.4725 -0.0226  0.0798
  182MOL0     H25051  11.879  11.162   7.295  0.2693 -2.6163  2.7786
  182MOL0     H25052  11.906  11.333   7.332  1.4984  0.6915  1.8250
  182MOL0     H25053  11.900  11.280   7.576 -1.9840 -0.6800 -0.3039
  182MOL0     H25054  11.888  11.107   7.535  0.7045  0.3192  3.0432
  182MOL0     H25055  12.110  11.108   7.431  2.4520 -0.8362  2.4577
  182MOL0     H25056  12.099  11.278   7.403 -2.6110 -1.1672 -1.3360
  182MOL0     H25057  12.124  11.126   7.676  1.9295  0.7329  1.7248
  182MOL0     H25058  12.141  11.300   7.658  2.5658 -0.1516  0.7542
  182MOL0     H25059  12.345  11.120   7.670  1.4768  0.6589 -0.6655
  182MOL0     H25060  12.315  11.104   7.488  0.6532 -0.9019  0.0793
  182MOL0     H25061  12.497  11.254   7.536  0.9885  2.7164 -0.3643
  182MOL0     H25062  12.403  11.352   7.652  1.3490 -0.0889  0.0136
  182MOL0     H25063  12.358  11.321   7.360 -0.3329 -1.9121  1.0965
  182MOL0     H25064  12.258  11.419   7.486 -0.5863  0.2034  0.6632
  182MOL0     H25065  12.341  11.644   7.335  0.7379  0.6683 -0.5406
  182MOL0     H25066  12.613  11.862   7.357 -0.9241 -0.7477 -0.9715
  182MOL0     H25067  12.554  11.879   7.527 -1.7622  1.0705  0.2276
  182MOL0     H25068  12.414  11.946   7.265 -0.7540  2.5347  0.2757
  182MOL0     H25069  12.319  11.852   7.386 -0.1623  0.6375  0.2255
  182MOL0     H25070  12.357  12.022   7.550  1.7576 -1.4044 -0.1752
  182MOL0     H25071  12.469  12.116   7.450  0.8256  1.5982  2.4325
  182MOL0     H25072  12.248  12.227   7.454 -1.7430 -1.9818  2.6623
  182MOL0     H25073  12.270  12.148   7.285  0.3892 -4.4814  0.0787
  182MOL0     H25074  11.951  11.977   7.267 -1.1531  0.0048 -0.0570
  182MOL0     H25075  11.731  11.961   7.178 -0.1846 -0.0935 -1.1548
  182MOL0     H25076  11.699  12.130   7.104 -4.1108  0.2821  0.4041
  182MOL0     H25077  11.607  12.061   7.238 -0.5551 -1.2810 -0.2208
  182MOL0     H25078  11.462  12.478   7.584  2.7271  1.8689  0.1108
  182MOL0     H25079  11.256  12.620   7.569  2.4140  2.3029  1.2803
  182MOL0     H25080  11.261  12.914   7.248 -0.8411  3.3152  0.9099
  182MOL0     H25081  11.101  12.849   7.199 -2.1868 -0.2388  1.0605
  182MOL0     H25082  11.175  13.033   7.426 -0.2066 -2.7269  0.2987
  182MOL0     H25083  11.085  13.094   7.280  1.3999 -0.2158 -0.9575
  182MOL0     H25084  10.984  12.899   7.489  3.8077  0.7151 -0.9569
  182MOL0     H25085  10.915  12.923   7.333  0.7537  1.6555 -1.8569
  182MOL0     H25086  10.868  13.149   7.359 -0.8331 -4.4798 -2.5379
  182MOL0     H25087  10.964  13.158   7.516 -3.2434  0.9769  1.0835
  182MOL0     H25088  10.813  13.001   7.622  1.4671  0.2312 -0.5641
  182MOL0     H25089  10.743  13.150   7.569 -2.1068  0.1921  0.3748
  182MOL0     H25090  10.705  12.883   7.435  4.0329  0.5429 -1.1743
  182MOL0     H25091  10.663  13.040   7.354  0.5455 -1.3079 -0.8142
  182MOL0     H25092  10.540  12.947   7.612 -1.9514 -1.3375 -0.0986
  182MOL0     H25093  10.478  12.951   7.435  2.2221  0.7661 -1.7700
  182MOL0     H25094  10.510  13.213   7.463  0.7325 -0.6404 -0.3363
  182MOL0     H25095  10.511  13.180   7.633  1.0587  1.7721 -0.5011
  182MOL0     H25096  11.332  12.715   7.170 -0.9328  1.9184  0.8980
  182MOL0     H25097  11.550  12.586   7.194 -0.0183 -0.5944  1.4933
  182MOL0     H25098  11.878  12.415   7.467  0.4466 -1.7813  3.6747
  182MOL0     H25099  12.065  12.306   7.510 -0.4908  0.4698 -0.2657
  182MOL0     H25100  11.547  10.899   7.415 -1.9294 -2.7734 -1.3960
  182MOL0     H25101  11.479  10.734   7.221 -0.8695  0.8967  3.0358
  182MOL0     H25102  11.511  10.805   6.735  0.3501 -1.8775  0.4127
  182MOL0     H25103  11.455  10.744   6.505  1.6244  0.6333  1.7726
  182MOL0     H25104  11.056  10.564   6.413 -0.3308 -1.1239 -1.0612
  182MOL0     H25105  11.030  10.738   6.364  1.3730  0.9576 -1.9171
  182MOL0     H25106  11.009  10.566   6.179 -0.7128  3.6528 -2.4946
  182MOL0     H25107  11.190  10.560   6.189  0.4096  2.0361 -3.0485
  182MOL0     H25108  11.024  10.811   6.168 -0.3774  0.5104  0.4792
  182MOL0     H25109  11.198  10.802   6.156 -0.5713  0.9803  0.6203
  182MOL0     H25110  10.994  10.708   5.955  0.4319 -0.7152 -0.5887
  182MOL0     H25111  11.169  10.675   5.952 -1.1642 -0.2030  1.8184
  182MOL0     H25112  11.185  11.070   5.822  1.5273 -0.8511 -0.4002
  182MOL0     H25113  11.048  10.670   6.626 -0.5217 -0.9829  2.8124
  182MOL0     H25114  11.003  10.612   6.824  0.8620  0.9268 -2.9565
  182MOL0     H25115  11.106  10.646   6.969  1.2600  0.6925 -0.1598
  182MOL0     H25116  11.005  10.775   6.878 -0.6619 -0.5500 -2.4456
  183MOL0     O25117   3.870   8.928  10.160 -0.9470  0.1447  0.4261
  183MOL0     C25118   3.812   8.898  10.061 -0.6252 -0.2952  0.6724
  183MOL0     O25119   3.853   8.799   9.975  0.5134 -0.3060  0.1703
  183MOL0     C25120   3.950   8.707  10.005 -1.0236  0.4268 -0.0334
  183MOL0     C25121   4.037   8.671   9.905 -0.2622 -0.4902  0.4529
  183MOL0     C25122   4.133   8.577   9.922 -0.0471 -0.2427  0.1451
  183MOL0     C25123   4.135   8.504  10.040 -0.2484 -0.0625  0.1442
  183MOL0     O25124   4.230   8.407  10.046 -0.3061 -0.4299 -0.2857
  183MOL0     C25125   4.241   8.311  10.159 -0.1887 -0.6819  0.8889
  183MOL0     C25126   4.340   8.198  10.138  0.6303 -0.1543 -0.1784
  183MOL0     C25127   4.487   8.254  10.113  0.3507 -1.0343 -0.0505
  183MOL0     C25128   4.579   8.145  10.068 -1.0539  0.9427 -1.2581
  183MOL0     C25129   4.722   8.200  10.057  1.0955 -1.2862  0.2394
  183MOL0     C25130   4.821   8.094  10.013 -0.3236 -1.3339 -0.6943
  183MOL0     C25131   4.944   8.167   9.957  1.2088  0.3032 -0.9774
  183MOL0     C25132   5.065   8.076   9.971 -0.0787  0.0798  1.0013
  183MOL0     N25133   5.190   8.155  10.015 -0.3292  1.0805  0.8168
  183MOL0     C25134   5.250   8.137  10.143 -0.3749 -0.4775 -0.2209
  183MOL0     C25135   5.363   8.222  10.138 -1.0289 -0.2673 -0.1287
  183MOL0     C25136   5.456   8.267  10.252  0.7107  0.0612  0.8786
  183MOL0     C25137   5.563   8.172  10.250 -0.0731  0.1718  1.0942
  183MOL0     C25138   5.630   8.161  10.388  0.1142 -0.2139 -0.6540
  183MOL0     C25139   5.748   8.069  10.389 -0.0061  0.4100 -0.2601
  183MOL0     O25140   5.853   8.119  10.313  0.4216 -0.3903  0.4209
  183MOL0     C25141   5.978   8.062  10.333  0.3074  0.0779  0.1527
  183MOL0     C25142   6.019   7.962  10.419 -0.1910  0.2554 -0.5601
  183MOL0     C25143   6.150   7.921  10.443 -0.4430 -0.0500 -0.0897
  183MOL0     C25144   6.170   7.827  10.559  0.0770  0.7011 -0.7330
  183MOL0     C25145   6.253   7.980  10.359 -0.7553 -0.5072  0.5608
  183MOL0     C25146   6.400   7.940  10.354  0.2269  0.3269  0.0835
  183MOL0     O25147   6.475   7.986  10.248  0.5487  0.0162 -0.3901
  183MOL0     C25148   6.606   7.955  10.224  0.5081  0.1332 -0.1733
  183MOL0     C25149   6.698   8.051  10.186 -0.4647  0.3902  0.3275
  183MOL0     C25150   6.840   8.023  10.170  0.3258 -0.1878  0.3152
  183MOL0     C25151   6.887   7.887  10.186 -0.4856 -1.4381  1.2236
  183MOL0     O25152   7.018   7.833  10.181 -0.3035 -0.2906  0.1085
  183MOL0     C25153   7.115   7.946  10.186 -0.3824  0.2193 -0.5286
  183MOL0     C25154   7.260   7.891  10.187 -0.2521  0.6883 -0.0942
  183MOL0     C25155   7.354   8.002  10.232  0.1715  1.0952  0.0119
  183MOL0     C25156   7.502   7.967  10.211 -0.1560 -0.6177  0.1651
  183MOL0     C25157   7.591   8.081  10.251 -0.1950 -0.0321 -0.3571
  183MOL0     C25158   7.740   8.038  10.255 -0.2685  0.4784  0.0192
  183MOL0     C25159   7.788   7.974  10.128  0.0833  0.1884 -0.2518
  183MOL0     C25160   7.786   8.064  10.008  0.0408 -1.0204  0.4165
  183MOL0    Cl25161   7.866   8.222  10.049 -0.0932 -0.3012  0.4031
  183MOL0     C25162   6.791   7.796  10.223 -0.0899  0.0825 -0.1841
  183MOL0     C25163   6.657   7.831  10.252  0.1926 -0.3368 -0.4535
  183MOL0     O25164   6.454   7.876  10.442  0.7862  0.4843 -0.1307
  183MOL0     C25165   6.211   8.080  10.275  0.1648  0.1237 -0.3877
  183MOL0     C25166   6.079   8.120  10.256  0.1824 -0.3707 -0.6358
  183MOL0     N25167   5.369   8.274  10.005  0.8323  0.0312 -0.0910
  183MOL0     N25168   5.268   8.226   9.938  1.1362 -0.6986 -0.2515
  183MOL0     C25169   4.061   8.542  10.154 -0.0469  0.4230 -0.2530
  183MOL0     C25170   3.962   8.639  10.132  0.1124  0.7674 -0.2019
  183MOL0     C25171   3.677   8.959  10.037 -0.6736  0.4803  1.0183
  183MOL0     C25172   3.588   8.888   9.946 -0.1681  0.8199  0.0750
  183MOL0     C25173   3.460   8.932   9.920  0.5364  0.1023 -0.8383
  183MOL0     C25174   3.413   9.054   9.974  0.3701 -0.8944  0.5437
  183MOL0     O25175   3.291   9.100   9.943 -0.3131  0.0155  0.1647
  183MOL0     C25176   3.229   9.179  10.047 -0.6830  0.8021  0.1672
  183MOL0     C25177   3.083   9.172  10.013 -0.4277 -0.8506  0.3090
  183MOL0     C25178   2.998   9.287  10.084  0.0548  0.3009  0.8143
  183MOL0     C25179   2.984   9.259  10.235 -0.1410  0.3145  0.8272
  183MOL0     C25180   3.099   9.289  10.321  0.1593  0.0470  0.3288
  183MOL0     C25181   3.194   9.302  10.391 -0.4332 -0.2548 -0.2074
  183MOL0     C25182   3.503   9.129  10.049 -0.0619  0.2553 -0.7604
  183MOL0     C25183   3.629   9.079  10.086  0.1383  0.1530 -0.1415
  183MOL0     C25184   3.701   9.176  10.186  0.0453 -0.4867 -0.3705
  183MOL0     H25185   4.043   8.719   9.808  0.6764  1.8172  1.5869
  183MOL0     H25186   4.210   8.562   9.847 -0.7578  2.2103 -1.1696
  183MOL0     H25187   4.142   8.265  10.170 -0.1072 -2.0558 -2.8092
  183MOL0     H25188   4.271   8.373  10.244  1.7125  2.0505 -1.5680
  183MOL0     H25189   4.337   8.123  10.217 -2.3811  0.9943  0.9604
  183MOL0     H25190   4.312   8.143  10.047  0.1181 -3.1012  1.6375
  183MOL0     H25191   4.481   8.323  10.028 -0.9731  0.3371  1.0952
  183MOL0     H25192   4.526   8.315  10.195 -2.1397 -1.0730  1.2450
  183MOL0     H25193   4.584   8.063  10.140 -0.8224  1.8016 -0.2716
  183MOL0     H25194   4.545   8.104   9.973 -0.2939  2.4079 -2.1813
  183MOL0     H25195   4.744   8.244  10.155 -0.3971  2.3764 -0.8897
  183MOL0     H25196   4.712   8.288   9.992 -0.7438 -1.2321  0.5418
  183MOL0     H25197   4.831   8.025  10.098 -2.4495  0.7322  1.3814
  183MOL0     H25198   4.777   8.047   9.924  0.9822  0.7851 -2.5434
  183MOL0     H25199   4.954   8.256  10.020  3.1670 -1.8226  1.9968
  183MOL0     H25200   4.931   8.203   9.855 -1.4201  2.4690 -0.0194
  183MOL0     H25201   5.048   7.998  10.045  0.4186 -1.9800 -0.9529
  183MOL0     H25202   5.079   8.034   9.871 -0.7987  2.5551 -0.2216
  183MOL0     H25203   5.205   8.101  10.234 -0.1839  0.4318  0.2443
  183MOL0     H25204   5.402   8.267  10.347 -1.1114  0.9297 -0.0996
  183MOL0     H25205   5.489   8.367  10.221  0.2407 -0.6964 -2.5570
  183MOL0     H25206   5.530   8.074  10.214 -2.3504  1.1942  0.1952
  183MOL0     H25207   5.636   8.209  10.178 -1.2752  1.0058  0.2664
  183MOL0     H25208   5.672   8.255  10.426 -0.1139  0.2152 -1.4400
  183MOL0     H25209   5.553   8.115  10.451  0.8664 -1.7860 -0.8231
  183MOL0     H25210   5.770   8.076  10.496 -1.4334  2.7628 -0.0575
  183MOL0     H25211   5.721   7.969  10.354 -0.8145  0.7075 -0.5201
  183MOL0     H25212   5.942   7.916  10.480 -0.4220 -0.4560 -1.3649
  183MOL0     H25213   6.082   7.826  10.624  0.4977 -0.3041 -0.1588
  183MOL0     H25214   6.248   7.868  10.624 -0.5482  1.5336 -0.4979
  183MOL0     H25215   6.180   7.725  10.520 -2.1168  0.6672 -1.3701
  183MOL0     H25216   6.655   8.151  10.184  0.2861  0.7714 -2.5564
  183MOL0     H25217   6.911   8.101  10.146 -1.4848  1.9298  1.5243
  183MOL0     H25218   7.108   8.015  10.102  0.9289  3.7646  2.0361
  183MOL0     H25219   7.097   8.004  10.277  1.7191 -0.8949  0.6879
  183MOL0     H25220   7.261   7.806  10.255 -0.9533  1.0317  0.3497
  183MOL0     H25221   7.290   7.859  10.086 -0.2848  0.7982 -0.1386
  183MOL0     H25222   7.330   8.046  10.329 -1.0038 -0.3243  0.4058
  183MOL0     H25223   7.330   8.094  10.178 -0.4163  3.5444  4.0411
  183MOL0     H25224   7.526   7.941  10.107 -0.0202  0.0665  0.0188
  183MOL0     H25225   7.519   7.874  10.265 -1.6847 -0.4401  1.0026
  183MOL0     H25226   7.567   8.159  10.178 -1.8020 -0.1806 -0.0420
  183MOL0     H25227   7.574   8.127  10.349  0.7042  1.1932 -0.7583
  183MOL0     H25228   7.745   7.956  10.327 -3.3942  0.8296  0.7648
  183MOL0     H25229   7.801   8.122  10.289  1.9743 -1.3737  0.8444
  183MOL0     H25230   7.732   7.883  10.106  0.0107  0.4472 -1.1512
  183MOL0     H25231   7.887   7.935  10.152  0.3955  1.3550  0.4503
  183MOL0     H25232   7.691   8.088   9.959 -0.3467  2.3697  2.5125
  183MOL0     H25233   7.851   8.019   9.932 -1.7328  0.5795 -2.2039
  183MOL0     H25234   6.833   7.696  10.229 -1.7041 -0.5579  1.3138
  183MOL0     H25235   6.581   7.757  10.277 -2.3218  2.4405  0.8051
  183MOL0     H25236   6.290   8.135  10.225  0.0837  0.5332 -0.0634
  183MOL0     H25237   6.055   8.200  10.186 -1.7389  0.1820  0.5854
  183MOL0     H25238   4.062   8.488  10.248  1.4663  0.4994 -0.2108
  183MOL0     H25239   3.897   8.666  10.214  0.5269 -0.9401  0.7227
  183MOL0     H25240   3.614   8.786   9.917  0.4252  0.6169  1.2464
  183MOL0     H25241   3.394   8.866   9.864  3.2658 -2.7158 -1.0326
  183MOL0     H25242   3.249   9.134  10.145  1.4468 -0.8958 -0.9528
  183MOL0     H25243   3.270   9.280  10.049 -1.0558  0.9536  0.2248
  183MOL0     H25244   3.040   9.075  10.038  0.4755 -1.2398  0.3653
  183MOL0     H25245   3.074   9.193   9.906 -2.6811 -1.4607  0.3354
  183MOL0     H25246   3.048   9.383  10.067  0.8893 -0.4654 -1.4672
  183MOL0     H25247   2.898   9.293  10.041  1.3790 -2.7597 -3.4032
  183MOL0     H25248   2.952   9.156  10.255  2.9418 -0.5693  1.9006
  183MOL0     H25249   2.901   9.327  10.256 -1.6635 -0.7789 -1.3163
  183MOL0     H25250   3.277   9.329  10.453 -0.0279 -1.0260 -0.4115
  183MOL0     H25251   3.469   9.226  10.085 -2.0044 -0.1490 -1.4096
  183MOL0     H25252   3.615   9.226  10.230  0.3349 -0.1143 -0.2207
  183MOL0     H25253   3.751   9.122  10.267  0.0521  1.9919  1.3978
  183MOL0     H25254   3.777   9.247  10.151  0.2022  0.3358  1.4933
  184MOL0     O25255   8.641   1.524   7.972  0.9430  0.2803  0.0404
  184MOL0     C25256   8.529   1.530   7.926  0.0328 -0.8986 -0.3959
  184MOL0     O25257   8.496   1.625   7.830  0.0925  0.2697  0.0841
  184MOL0     C25258   8.583   1.732   7.801 -0.1189  0.1603 -0.0824
  184MOL0     C25259   8.557   1.866   7.834 -0.1612  0.4400 -0.0490
  184MOL0     C25260   8.651   1.964   7.803 -0.3984 -0.4166 -0.1589
  184MOL0     C25261   8.756   1.940   7.714  0.2198 -0.4801  0.5508
  184MOL0     O25262   8.852   2.040   7.684  0.0654  0.9790 -0.1335
  184MOL0     C25263   8.939   2.054   7.796  0.1463 -0.1543  0.2639
  184MOL0     C25264   9.050   2.154   7.762  0.2907 -0.1727 -0.1876
  184MOL0     C25265   9.168   2.080   7.707 -0.4443  1.0738 -0.4713
  184MOL0     C25266   9.287   2.180   7.681  0.9656  0.5518 -0.6113
  184MOL0     C25267   9.413   2.097   7.655  0.6384 -0.3552 -0.3147
  184MOL0     C25268   9.534   2.193   7.628 -0.0269 -0.5979 -0.3209
  184MOL0     C25269   9.624   2.161   7.509 -0.1991 -0.2924 -0.1507
  184MOL0     C25270   9.738   2.257   7.491  0.1105 -0.3145 -0.4873
  184MOL0     N25271   9.841   2.204   7.413  0.2273  0.4456 -0.1829
  184MOL0     C25272   9.840   2.126   7.301  0.5075 -0.4075 -1.0777
  184MOL0     C25273   9.967   2.103   7.259 -0.3299 -0.5155 -0.8061
  184MOL0     C25274  10.010   2.019   7.140  0.3369 -0.1224  0.8828
  184MOL0     C25275  10.099   1.902   7.178 -0.2503  0.5712 -0.8460
  184MOL0     C25276  10.135   1.818   7.053 -0.8748  0.3894 -0.7369
  184MOL0     C25277  10.227   1.704   7.090 -0.3019 -1.0135  0.1658
  184MOL0     O25278  10.360   1.764   7.113  0.3474 -0.7052 -0.0724
  184MOL0     C25279  10.472   1.689   7.101 -0.0637 -0.0008  0.2151
  184MOL0     C25280  10.475   1.556   7.076 -0.8091  0.7081 -0.4734
  184MOL0     C25281  10.603   1.491   7.067 -1.6673  0.1841 -0.0211
  184MOL0     C25282  10.597   1.344   7.047  0.2634 -0.1047  0.2152
  184MOL0     C25283  10.724   1.563   7.066 -0.2866  0.0729 -0.1079
  184MOL0     C25284  10.848   1.498   7.045 -0.1559  0.7344 -0.8593
  184MOL0     O25285  10.941   1.578   6.991  0.2537 -0.8862 -0.2528
  184MOL0     C25286  11.053   1.514   6.943  0.4602  0.1588 -1.0755
  184MOL0     C25287  11.165   1.573   6.981  0.2279 -0.6139 -0.2027
  184MOL0     C25288  11.287   1.525   6.949 -0.3626  1.1665  0.6935
  184MOL0     C25289  11.293   1.407   6.878 -1.2008 -0.0902 -0.0845
  184MOL0     O25290  11.422   1.374   6.839  0.5302  0.0392  0.1398
  184MOL0     C25291  11.477   1.262   6.906 -0.3075 -0.2803  0.1016
  184MOL0     C25292  11.626   1.253   6.893 -0.0361 -0.4736  0.2544
  184MOL0     C25293  11.685   1.111   6.916  0.0238  0.2366  0.4177
  184MOL0     C25294  11.826   1.096   6.865 -0.2552 -0.2458  0.2005
  184MOL0     C25295  11.878   0.957   6.850 -0.1757  0.8769  0.0338
  184MOL0     C25296  11.972   0.903   6.967 -0.0309 -0.0590  0.3571
  184MOL0     C25297  12.033   0.767   6.920 -0.1316 -0.2803 -0.3437
  184MOL0     C25298  12.173   0.785   6.863 -1.1115 -0.0500  0.1417
  184MOL0    Cl25299  12.283   0.812   7.010  0.2184  0.1407 -0.3633
  184MOL0     C25300  11.178   1.341   6.825  1.1496  0.6608  0.0060
  184MOL0     C25301  11.054   1.391   6.870  0.4621 -0.2831  0.1948
  184MOL0     O25302  10.863   1.375   7.084 -0.4898 -0.4346  0.4753
  184MOL0     C25303  10.715   1.703   7.101  0.0712  0.2297 -0.2368
  184MOL0     C25304  10.589   1.764   7.109  1.0709  0.3371 -0.1350
  184MOL0     N25305  10.041   2.172   7.357 -0.3568  0.1906  0.0141
  184MOL0     N25306   9.967   2.231   7.440  0.1762 -0.4755  0.1083
  184MOL0     C25307   8.779   1.808   7.692 -1.0430 -0.6243  0.1845
  184MOL0     C25308   8.698   1.703   7.722 -0.1543 -0.2886  0.0570
  184MOL0     C25309   8.420   1.427   7.974  0.6603  1.2136 -0.1539
  184MOL0     C25310   8.300   1.419   7.909  0.4654  0.4075  1.7861
  184MOL0     C25311   8.190   1.331   7.931 -0.5114  0.2843  0.2536
  184MOL0     C25312   8.216   1.226   8.025 -0.9752 -0.4547  0.7003
  184MOL0     O25313   8.125   1.128   8.051 -0.5584 -0.1766 -0.2983
  184MOL0     C25314   8.051   1.073   7.943 -1.1323  0.3994 -0.2043
  184MOL0     C25315   8.125   0.986   7.842  0.5222 -0.9545  0.0094
  184MOL0     C25316   8.185   0.855   7.893  0.4098  0.8319  0.2040
  184MOL0     C25317   8.090   0.729   7.872  0.0799  0.1965 -0.2454
  184MOL0     C25318   7.974   0.735   7.962  0.4464  0.3165 -0.6318
  184MOL0     C25319   7.874   0.748   8.022 -0.6237 -0.9796 -0.3296
  184MOL0     C25320   8.338   1.230   8.093 -0.1912  0.3067 -0.2305
  184MOL0     C25321   8.436   1.327   8.074  0.0879 -0.8400  0.1818
  184MOL0     C25322   8.564   1.304   8.156  0.3569 -0.2767  0.1059
  184MOL0     H25323   8.467   1.902   7.884 -0.6792  0.6150 -1.0765
  184MOL0     H25324   8.609   2.059   7.837  0.3134 -0.2150  0.1835
  184MOL0     H25325   8.988   1.957   7.809  1.1695  0.2154 -0.5696
  184MOL0     H25326   8.884   2.090   7.882  2.2188  1.9396  0.8314
  184MOL0     H25327   9.003   2.225   7.694 -3.9113 -1.1722  1.3833
  184MOL0     H25328   9.085   2.212   7.849 -0.6744 -0.2556  0.2686
  184MOL0     H25329   9.199   2.001   7.775 -1.2955 -0.2386 -1.5620
  184MOL0     H25330   9.143   2.029   7.613  0.9199 -1.4049  0.4366
  184MOL0     H25331   9.247   2.237   7.597 -1.3356 -1.7952 -1.2537
  184MOL0     H25332   9.296   2.240   7.771 -2.5181  3.1960 -1.8242
  184MOL0     H25333   9.409   2.030   7.569 -0.7321 -1.7607  0.7840
  184MOL0     H25334   9.435   2.028   7.737  2.7754  0.9582  0.2709
  184MOL0     H25335   9.489   2.292   7.618 -0.9695 -0.9192  0.5316
  184MOL0     H25336   9.597   2.199   7.718 -0.7861  0.4163  0.1664
  184MOL0     H25337   9.560   2.159   7.421 -1.5221  3.6189  0.5146
  184MOL0     H25338   9.669   2.063   7.530  0.5834  0.4512  1.9566
  184MOL0     H25339   9.699   2.343   7.436 -2.9301 -1.4123 -0.2241
  184MOL0     H25340   9.773   2.287   7.590 -0.3988 -0.3387 -0.2994
  184MOL0     H25341   9.749   2.091   7.252  0.9617 -2.5479 -0.5118
  184MOL0     H25342  10.076   2.078   7.076 -0.7825  1.7102  1.3386
  184MOL0     H25343   9.929   1.991   7.072  2.3382 -0.3082 -1.5548
  184MOL0     H25344  10.189   1.946   7.222  0.0672  0.8233 -1.7221
  184MOL0     H25345  10.043   1.836   7.245 -0.0589  2.4634  1.2704
  184MOL0     H25346  10.042   1.774   7.014 -0.1642  0.3414 -2.4659
  184MOL0     H25347  10.182   1.880   6.976  0.9102 -0.0816 -0.0616
  184MOL0     H25348  10.196   1.655   7.183  0.2857  3.8010  3.2657
  184MOL0     H25349  10.231   1.633   7.007 -2.4783  0.9061 -1.7158
  184MOL0     H25350  10.380   1.503   7.068  0.0714 -1.2152  1.1407
  184MOL0     H25351  10.493   1.310   7.056  0.5025 -0.3511  4.6329
  184MOL0     H25352  10.640   1.273   7.119 -1.0646 -2.3362 -1.0755
  184MOL0     H25353  10.639   1.320   6.949 -1.0417 -0.2855 -0.3112
  184MOL0     H25354  11.164   1.666   7.036 -0.2977 -1.6476  1.6225
  184MOL0     H25355  11.376   1.573   6.989 -0.1119  1.0069  0.3259
  184MOL0     H25356  11.466   1.260   7.015 -2.8637  1.4836 -0.0358
  184MOL0     H25357  11.425   1.173   6.871 -1.3046  0.2410  0.2040
  184MOL0     H25358  11.666   1.289   6.797  2.0534 -1.7683  0.5656
  184MOL0     H25359  11.684   1.319   6.958  2.4541 -1.9169 -0.3635
  184MOL0     H25360  11.617   1.042   6.864 -2.1613  0.2513  3.0363
  184MOL0     H25361  11.677   1.083   7.021 -0.3939 -0.8838  0.1090
  184MOL0     H25362  11.891   1.164   6.921  1.7121 -0.0807 -2.1017
  184MOL0     H25363  11.827   1.135   6.762  3.2485 -1.4867 -0.3760
  184MOL0     H25364  11.794   0.888   6.837  2.0663 -2.1776  0.7394
  184MOL0     H25365  11.934   0.963   6.756  1.4794 -1.9126  0.7368
  184MOL0     H25366  11.922   0.890   7.063  0.5532 -0.3069  0.6347
  184MOL0     H25367  12.055   0.974   6.977 -0.2743  1.0495 -3.6561
  184MOL0     H25368  11.979   0.733   6.831  0.1436 -1.4815 -0.0786
  184MOL0     H25369  12.047   0.692   6.998  1.2204 -0.1223 -0.4040
  184MOL0     H25370  12.174   0.871   6.795  2.4667 -1.5291 -1.9658
  184MOL0     H25371  12.201   0.700   6.800  0.6043 -2.6191  4.0004
  184MOL0     H25372  11.181   1.248   6.769  0.2846 -0.7477  2.1481
  184MOL0     H25373  10.961   1.351   6.831  0.1042 -1.7651  2.4141
  184MOL0     H25374  10.798   1.773   7.104 -0.1262  0.4294  0.8300
  184MOL0     H25375  10.572   1.869   7.134  1.1780  0.0285  1.2947
  184MOL0     H25376   8.873   1.784   7.643 -0.4132  2.0508 -0.0484
  184MOL0     H25377   8.732   1.603   7.698  0.5367 -0.7344  2.5219
  184MOL0     H25378   8.276   1.486   7.826  0.0054 -2.1499 -0.2867
  184MOL0     H25379   8.095   1.335   7.879 -1.0637 -1.0129  1.0960
  184MOL0     H25380   7.977   1.016   8.000  0.8542  0.2489  2.4288
  184MOL0     H25381   7.994   1.151   7.891 -1.8502 -0.7273 -1.1577
  184MOL0     H25382   8.207   1.043   7.797  0.7162 -2.4701 -1.6787
  184MOL0     H25383   8.060   0.973   7.756  0.2225  0.5510 -0.0253
  184MOL0     H25384   8.279   0.830   7.843 -0.3137  0.4943 -1.0407
  184MOL0     H25385   8.210   0.870   7.998 -0.3135 -1.2000  0.7117
  184MOL0     H25386   8.160   0.651   7.904  1.1615  1.4509  0.5656
  184MOL0     H25387   8.054   0.726   7.769 -2.3974  0.0763  0.5504
  184MOL0     H25388   7.778   0.771   8.065  0.2079  0.5492  0.8087
  184MOL0     H25389   8.355   1.149   8.163  1.2308 -0.2156 -1.1349
  184MOL0     H25390   8.646   1.270   8.092  1.8254  2.2730  0.4881
  184MOL0     H25391   8.588   1.396   8.210  0.4158 -0.5420  0.5401
  184MOL0     H25392   8.550   1.233   8.238  0.5366 -1.3711 -0.7960
  185MOL0     O25393   3.423  11.388   7.273 -0.4707 -0.4224 -0.2063
  185MOL0     C25394   3.337  11.444   7.335  0.8545  0.0109  0.6354
  185MOL0     O25395   3.305  11.432   7.470  0.1986  0.0600  0.2978
  185MOL0     C25396   3.355  11.333   7.555  0.6869 -0.2281 -0.7819
  185MOL0     C25397   3.472  11.263   7.534 -0.2601 -0.1714 -0.0423
  185MOL0     C25398   3.506  11.154   7.620 -0.7366 -0.4220  0.8385
  185MOL0     C25399   3.430  11.131   7.732  0.0298 -0.5581 -0.2236
  185MOL0     O25400   3.469  11.043   7.836  0.6069  0.2155  0.0026
  185MOL0     C25401   3.560  10.936   7.811 -0.2853 -0.3551  0.6884
  185MOL0     C25402   3.611  10.873   7.949  0.4517 -0.1906  0.3233
  185MOL0     C25403   3.732  10.784   7.936  0.5515  0.3622 -0.6409
  185MOL0     C25404   3.690  10.636   7.916 -1.0062 -0.6150  0.2461
  185MOL0     C25405   3.811  10.544   7.872 -0.3780 -0.1677 -0.4393
  185MOL0     C25406   3.750  10.409   7.872 -0.1415 -0.9992 -0.3505
  185MOL0     C25407   3.868  10.318   7.854 -0.5187 -0.3294  0.5632
  185MOL0     C25408   3.816  10.174   7.875 -0.2383  0.4768 -0.4390
  185MOL0     N25409   3.925  10.073   7.871 -0.4793  0.6258  0.3792
  185MOL0     C25410   3.953   9.992   7.972 -0.0791  0.2613  0.5096
  185MOL0     C25411   4.051   9.917   7.915  0.0691  0.4457 -0.0464
  185MOL0     C25412   4.122   9.805   7.985  0.8244  0.2946  0.2853
  185MOL0     C25413   4.207   9.724   7.887 -0.5638 -0.2818 -0.2473
  185MOL0     C25414   4.266   9.607   7.969  0.3727 -0.2633 -0.2737
  185MOL0     C25415   4.317   9.507   7.868  0.7732  0.1261 -0.3997
  185MOL0     O25416   4.385   9.401   7.935 -0.2068 -0.7230  0.5061
  185MOL0     C25417   4.473   9.317   7.876  0.5508  0.2838 -0.4720
  185MOL0     C25418   4.525   9.230   7.973 -0.0092 -0.1901  0.2838
  185MOL0     C25419   4.627   9.142   7.952 -0.0712  0.3393  0.4756
  185MOL0     C25420   4.656   9.038   8.061  0.0185  0.2152  0.1889
  185MOL0     C25421   4.682   9.125   7.823  0.0763 -0.2553  0.4636
  185MOL0     C25422   4.792   9.024   7.798  0.2312 -0.0972  0.2108
  185MOL0     O25423   4.812   8.989   7.669 -0.0217 -0.4196  0.0558
  185MOL0     C25424   4.909   8.891   7.641  0.4570 -0.5476  0.2509
  185MOL0     C25425   4.902   8.763   7.696  0.6369  0.1350  0.8599
  185MOL0     C25426   4.993   8.670   7.655 -0.4763 -0.8207 -0.1332
  185MOL0     C25427   5.090   8.696   7.557 -0.1146  0.3216 -0.3622
  185MOL0     O25428   5.164   8.595   7.513 -0.1802 -0.2106 -0.1754
  185MOL0     C25429   5.281   8.626   7.440 -0.6055  0.6689  0.1942
  185MOL0     C25430   5.338   8.489   7.392  0.7611 -0.4471  0.5810
  185MOL0     C25431   5.414   8.414   7.499  0.0129  0.8091 -0.4843
  185MOL0     C25432   5.486   8.289   7.432 -0.8609  0.0527 -0.7966
  185MOL0     C25433   5.571   8.203   7.531  0.5142 -0.1863 -0.3325
  185MOL0     C25434   5.706   8.272   7.556 -0.4294  0.4762  0.2458
  185MOL0     C25435   5.808   8.184   7.637 -0.6528 -0.3314  0.0157
  185MOL0     C25436   5.852   8.062   7.564  0.3150  0.1306 -0.5538
  185MOL0    Cl25437   5.965   7.957   7.645 -0.2210 -0.2136  0.1839
  185MOL0     C25438   5.102   8.828   7.510 -0.2688  0.1868 -0.3756
  185MOL0     C25439   5.008   8.928   7.556  0.7542  0.2299  0.7740
  185MOL0     O25440   4.864   8.993   7.891  0.2638  0.9004 -0.0764
  185MOL0     C25441   4.629   9.208   7.721  0.1974 -0.7596  0.8790
  185MOL0     C25442   4.519   9.306   7.743 -0.2625  0.0262 -0.2289
  185MOL0     N25443   4.078   9.956   7.779  0.2979  0.1261 -0.8862
  185MOL0     N25444   3.998  10.053   7.752 -0.2554  0.3094  0.0623
  185MOL0     C25445   3.311  11.205   7.755 -0.3741 -0.1055 -0.5357
  185MOL0     C25446   3.270  11.302   7.665  0.2509 -0.2545 -0.7468
  185MOL0     C25447   3.259  11.548   7.258  0.3592 -0.3049  0.4959
  185MOL0     C25448   3.179  11.649   7.327  0.4396  0.5077 -0.0226
  185MOL0     C25449   3.126  11.757   7.265 -0.3290  1.0833 -1.2180
  185MOL0     C25450   3.141  11.781   7.125  0.2011 -0.0167 -1.4252
  185MOL0     O25451   3.079  11.873   7.049  0.4546  0.4415 -0.1779
  185MOL0     C25452   3.012  11.983   7.114 -0.4698  0.5485  0.5797
  185MOL0     C25453   2.909  12.031   7.018  0.2598 -0.2725 -0.0159
  185MOL0     C25454   2.963  12.123   6.907 -0.3873 -0.0766 -0.1061
  185MOL0     C25455   2.861  12.203   6.832  0.2214  0.9437  0.1414
  185MOL0     C25456   2.920  12.270   6.717 -0.2121  0.5263 -0.4766
  185MOL0     C25457   2.964  12.321   6.622  0.9798 -0.0789  0.1713
  185MOL0     C25458   3.205  11.681   7.055 -0.1006 -0.9343 -0.0020
  185MOL0     C25459   3.264  11.567   7.113  0.3561 -0.3224 -0.3072
  185MOL0     C25460   3.325  11.467   7.022  0.7251  0.0558  0.3486
  185MOL0     H25461   3.532  11.281   7.446 -0.7984 -0.8825 -0.5652
  185MOL0     H25462   3.592  11.092   7.596 -1.6023 -1.3262 -0.0510
  185MOL0     H25463   3.652  10.970   7.764  0.3283 -0.8070  1.5263
  185MOL0     H25464   3.517  10.857   7.749 -1.6826  0.9909 -0.1127
  185MOL0     H25465   3.639  10.959   8.011 -0.3312  0.3870 -0.0981
  185MOL0     H25466   3.531  10.812   7.992  0.3772  1.1987  2.2666
  185MOL0     H25467   3.814  10.820   7.873  0.8340  0.4269 -0.2407
  185MOL0     H25468   3.780  10.795   8.034  0.0870 -0.2823 -0.3277
  185MOL0     H25469   3.660  10.614   8.019 -0.0972 -0.0321  0.6490
  185MOL0     H25470   3.605  10.631   7.848 -1.5284 -1.1522  0.9246
  185MOL0     H25471   3.887  10.564   7.948  1.4017 -0.5089 -2.0509
  185MOL0     H25472   3.848  10.571   7.773 -0.5123 -1.0284 -0.7270
  185MOL0     H25473   3.710  10.393   7.973  2.7183 -5.3460  0.3822
  185MOL0     H25474   3.675  10.398   7.794  0.9859  0.5942 -1.7071
  185MOL0     H25475   3.948  10.334   7.927  0.7664 -0.3557 -0.8052
  185MOL0     H25476   3.905  10.324   7.752 -1.3279 -4.3832 -0.1584
  185MOL0     H25477   3.770  10.177   7.974  2.7148  1.5872  1.0177
  185MOL0     H25478   3.743  10.148   7.798  2.1939 -0.8814 -2.4760
  185MOL0     H25479   3.901  10.000   8.067 -1.2539  0.8512 -0.1509
  185MOL0     H25480   4.053   9.736   8.034 -0.0644 -0.6294 -2.1210
  185MOL0     H25481   4.189   9.854   8.057  2.1910 -1.4031  0.2312
  185MOL0     H25482   4.166   9.678   7.797  2.7712 -0.0845 -2.0136
  185MOL0     H25483   4.286   9.790   7.849 -0.1378 -1.8252 -2.1498
  185MOL0     H25484   4.358   9.639   8.019  1.2845 -2.7364 -0.2615
  185MOL0     H25485   4.209   9.563   8.051  3.1512  0.8619  2.4767
  185MOL0     H25486   4.239   9.465   7.804 -1.0534  0.9265  1.1981
  185MOL0     H25487   4.386   9.560   7.801 -0.4182  0.9823 -0.9785
  185MOL0     H25488   4.465   9.232   8.064  0.1985  1.1005  0.4173
  185MOL0     H25489   4.649   8.938   8.018 -0.6884  1.4478 -2.7501
  185MOL0     H25490   4.574   9.037   8.134 -0.8981 -0.4320 -0.8284
  185MOL0     H25491   4.752   9.044   8.113  1.4817 -3.5894 -1.6786
  185MOL0     H25492   4.826   8.742   7.770 -0.4192  0.2528 -0.1691
  185MOL0     H25493   4.983   8.568   7.690 -0.0894 -0.3301  1.4862
  185MOL0     H25494   5.264   8.684   7.348 -1.7129 -1.7668 -1.2339
  185MOL0     H25495   5.351   8.669   7.513  0.0570  0.6599 -0.4245
  185MOL0     H25496   5.249   8.435   7.358 -0.6480  2.9453 -1.7068
  185MOL0     H25497   5.414   8.502   7.315  1.1923  0.0268  1.0773
  185MOL0     H25498   5.351   8.383   7.582  0.7219  0.1634 -0.1743
  185MOL0     H25499   5.491   8.479   7.542  0.8004 -0.8436  0.7044
  185MOL0     H25500   5.544   8.317   7.343 -1.0510 -3.2601 -2.1193
  185MOL0     H25501   5.411   8.215   7.400 -0.7563 -0.1589 -0.5535
  185MOL0     H25502   5.511   8.178   7.619  0.3461  0.3052 -0.3031
  185MOL0     H25503   5.582   8.104   7.486 -1.0356 -0.2243 -0.6635
  185MOL0     H25504   5.690   8.365   7.610  0.3350 -0.0719  1.4612
  185MOL0     H25505   5.759   8.301   7.464 -2.7073  1.5508 -0.7868
  185MOL0     H25506   5.765   8.167   7.737  1.7736  1.8753  1.5742
  185MOL0     H25507   5.886   8.259   7.654 -2.3442  2.1151 -2.2821
  185MOL0     H25508   5.908   8.098   7.477 -0.7492  0.3159 -1.1755
  185MOL0     H25509   5.763   8.007   7.533  0.3970 -3.1508  4.1078
  185MOL0     H25510   5.167   8.856   7.428 -0.5206 -2.0131 -1.3997
  185MOL0     H25511   5.023   9.027   7.515  0.3362 -0.7860 -2.1062
  185MOL0     H25512   4.670   9.198   7.621  0.3210 -1.9889  1.0354
  185MOL0     H25513   4.480   9.365   7.661 -1.2369 -0.5457 -0.1986
  185MOL0     H25514   3.252  11.197   7.846  1.4882  1.4052  0.8938
  185MOL0     H25515   3.182  11.365   7.681 -0.3025 -0.7167 -1.8620
  185MOL0     H25516   3.185  11.635   7.434  1.6771 -1.4392 -0.2980
  185MOL0     H25517   3.074  11.821   7.335 -0.7170 -0.0157 -0.4734
  185MOL0     H25518   2.958  11.955   7.204 -0.3768 -1.6843 -0.0115
  185MOL0     H25519   3.082  12.065   7.131 -0.4266  0.7779 -0.6322
  185MOL0     H25520   2.834  12.078   7.081 -0.4905  0.3433 -1.3329
  185MOL0     H25521   2.878  11.938   6.969  2.0373 -0.6954 -0.4089
  185MOL0     H25522   3.045  12.181   6.950  0.4499 -1.5707  0.4124
  185MOL0     H25523   3.007  12.067   6.823  1.2465  2.1008 -0.8149
  185MOL0     H25524   2.814  12.281   6.892 -3.8679 -0.6138 -0.7187
  185MOL0     H25525   2.775  12.145   6.798 -0.8180  0.7220  2.9235
  185MOL0     H25526   2.996  12.361   6.528  0.1324 -1.3895 -0.6997
  185MOL0     H25527   3.221  11.686   6.948  0.8828  1.0171  0.1911
  185MOL0     H25528   3.432  11.489   7.019  0.3975  1.7284 -0.8476
  185MOL0     H25529   3.318  11.364   7.057  0.1310 -0.1402 -0.3126
  185MOL0     H25530   3.284  11.461   6.921  1.5090 -1.7308  0.0957
  186MOL0     O25531   9.591   6.748   7.597 -0.8196 -0.2005 -0.8347
  186MOL0     C25532   9.610   6.642   7.657  0.3927 -0.8095 -0.7146
  186MOL0     O25533   9.710   6.628   7.751 -0.1616  0.3532  0.8359
  186MOL0     C25534   9.828   6.695   7.735 -0.8951 -0.3137 -1.2280
  186MOL0     C25535   9.948   6.623   7.742  0.5146  0.1592 -0.8758
  186MOL0     C25536  10.072   6.699   7.719  0.2057  0.3330 -0.3347
  186MOL0     C25537  10.068   6.844   7.712 -0.7969 -0.1241 -0.2161
  186MOL0     O25538  10.188   6.914   7.705 -0.5867  0.3908 -0.4736
  186MOL0     C25539  10.193   7.054   7.744  0.2167  0.3605  0.7035
  186MOL0     C25540  10.335   7.104   7.730 -0.6195  0.8408  0.0607
  186MOL0     C25541  10.418   7.052   7.612  0.1372 -0.1792 -0.5582
  186MOL0     C25542  10.554   7.125   7.616  0.0756 -0.7709 -0.5915
  186MOL0     C25543  10.648   7.069   7.510 -0.0976  0.0881  0.5946
  186MOL0     C25544  10.765   7.157   7.494 -0.9658 -0.2231 -0.4478
  186MOL0     C25545  10.872   7.104   7.410  0.4765 -0.1297 -0.0284
  186MOL0     C25546  10.985   7.197   7.403 -0.4501 -0.2395  0.1420
  186MOL0     N25547  11.089   7.146   7.313 -0.0739 -0.0724 -0.6595
  186MOL0     C25548  11.181   7.222   7.245  0.0633  0.2433  0.3495
  186MOL0     C25549  11.271   7.132   7.193 -0.4415  0.2538  0.3332
  186MOL0     C25550  11.379   7.160   7.091  0.2240 -0.0430 -0.3630
  186MOL0     C25551  11.503   7.070   7.114  0.1173 -0.2033  0.0300
  186MOL0     C25552  11.618   7.093   7.012 -0.6099 -0.0420 -0.0907
  186MOL0     C25553  11.740   7.010   7.039  0.0585  0.0870 -0.1565
  186MOL0     O25554  11.823   7.084   7.136 -0.0175 -0.9109  0.5407
  186MOL0     C25555  11.946   7.024   7.170  0.0109 -0.5887 -1.1987
  186MOL0     C25556  12.010   6.917   7.106  0.6098  0.0004  0.7106
  186MOL0     C25557  12.128   6.858   7.146 -0.3978  0.1230  0.2727
  186MOL0     C25558  12.171   6.734   7.077 -0.4540 -0.0997  0.5154
  186MOL0     C25559  12.199   6.923   7.254 -0.0438  0.5649  0.5329
  186MOL0     C25560  12.331   6.878   7.301  0.4192 -0.6162 -0.3570
  186MOL0     O25561  12.409   6.777   7.227  0.4497  0.3018  0.0868
  186MOL0     C25562  12.524   6.741   7.282  1.2054 -0.7286  0.5469
  186MOL0     C25563  12.542   6.606   7.302  0.7718  0.7244 -0.2546
  186MOL0     C25564  12.663   6.552   7.351 -0.2731  0.2741  0.4134
  186MOL0     C25565  12.760   6.644   7.401 -0.0422  0.3226 -0.5120
  186MOL0     O25566  12.887   6.603   7.454  0.6574 -0.0829  0.0843
  186MOL0     C25567  12.916   6.459   7.461  0.2924  0.5490  0.4953
  186MOL0     C25568  13.043   6.418   7.532  0.6896 -0.0404  0.6744
  186MOL0     C25569  13.022   6.425   7.685 -0.1750  0.5086 -0.0481
  186MOL0     C25570  13.161   6.432   7.756  0.4141  0.2270  0.4473
  186MOL0     C25571  13.214   6.292   7.764 -1.0368 -0.0608  0.2180
  186MOL0     C25572  13.333   6.279   7.860 -0.6199  0.3497 -0.3174
  186MOL0     C25573  13.457   6.363   7.818  0.4527 -0.4910 -0.2456
  186MOL0     C25574  13.549   6.421   7.936  0.2373 -0.7502 -0.4125
  186MOL0    Cl25575  13.567   6.299   8.067 -0.2091  0.1501 -0.2165
  186MOL0     C25576  12.748   6.786   7.378 -0.2959  0.1199  0.4056
  186MOL0     C25577  12.629   6.830   7.321 -0.4107  0.0136 -1.0246
  186MOL0     O25578  12.372   6.940   7.394 -0.4875  0.6291 -0.0199
  186MOL0     C25579  12.138   7.038   7.311 -0.7116  0.2605 -0.2478
  186MOL0     C25580  12.015   7.088   7.275  0.1788  1.1875  0.0498
  186MOL0     N25581  11.249   7.007   7.247  0.8415  0.3299 -0.2959
  186MOL0     N25582  11.140   7.019   7.306 -0.0634 -0.4069 -0.4213
  186MOL0     C25583   9.950   6.907   7.721  0.0447  0.9963  0.1255
  186MOL0     C25584   9.828   6.834   7.739 -0.1290  0.5846  0.4302
  186MOL0     C25585   9.519   6.525   7.652 -0.6284 -0.5988 -0.5677
  186MOL0     C25586   9.538   6.416   7.736 -0.5822  0.7686  0.4073
  186MOL0     C25587   9.453   6.301   7.731 -0.2609  0.6481  0.4535
  186MOL0     C25588   9.355   6.291   7.637  0.3474  0.3121  0.7596
  186MOL0     O25589   9.268   6.180   7.640  0.4078 -0.0464  0.0531
  186MOL0     C25590   9.194   6.142   7.517 -0.5810  0.0622 -0.7900
  186MOL0     C25591   9.115   6.009   7.520  0.0828 -0.7860 -0.6294
  186MOL0     C25592   9.020   6.017   7.400 -0.4098 -0.0153 -0.5891
  186MOL0     C25593   8.974   5.878   7.357 -0.4688 -0.4558  0.5030
  186MOL0     C25594   8.918   5.793   7.469  0.0008 -0.8464  0.5140
  186MOL0     C25595   8.874   5.740   7.570  0.5425 -0.0445  0.2711
  186MOL0     C25596   9.334   6.406   7.550 -0.8597 -1.4330 -0.1480
  186MOL0     C25597   9.409   6.524   7.557  1.0953 -0.1091 -0.2921
  186MOL0     C25598   9.362   6.644   7.469  0.0109 -0.2468 -0.2546
  186MOL0     H25599   9.945   6.515   7.752  1.1576  0.3484  3.0292
  186MOL0     H25600  10.170   6.654   7.703 -0.5094 -1.0526 -0.9853
  186MOL0     H25601  10.181   7.059   7.853 -0.6028  1.0653  0.5900
  186MOL0     H25602  10.114   7.117   7.704 -3.1926 -2.3335  2.5806
  186MOL0     H25603  10.345   7.213   7.728 -0.3016  0.8149  0.1381
  186MOL0     H25604  10.371   7.074   7.829 -3.4544 -0.6736  0.7363
  186MOL0     H25605  10.447   6.948   7.629  0.4362 -0.5031 -2.7663
  186MOL0     H25606  10.368   7.065   7.516  0.0064  0.4711 -0.4078
  186MOL0     H25607  10.535   7.231   7.599 -1.0859 -0.8734 -0.0236
  186MOL0     H25608  10.600   7.115   7.715 -1.1016  1.6922  0.2883
  186MOL0     H25609  10.601   7.046   7.414  2.8215 -1.1763 -0.6561
  186MOL0     H25610  10.674   6.969   7.547 -1.2244 -1.4631 -2.4965
  186MOL0     H25611  10.725   7.249   7.451 -1.2758  0.6886  1.7151
  186MOL0     H25612  10.805   7.175   7.593 -3.5890  0.1041  0.6437
  186MOL0     H25613  10.839   7.085   7.308  2.1827  0.5508 -0.7542
  186MOL0     H25614  10.901   7.005   7.447  0.0111 -1.7058 -3.5385
  186MOL0     H25615  10.956   7.295   7.362 -0.5163  0.0341  0.8320
  186MOL0     H25616  11.020   7.216   7.505 -0.1311 -1.6944  0.3174
  186MOL0     H25617  11.185   7.329   7.225  0.1127 -0.2593 -3.0015
  186MOL0     H25618  11.392   7.268   7.080 -2.8368  0.4549 -0.1374
  186MOL0     H25619  11.341   7.128   6.994 -0.0069 -1.1091  0.0692
  186MOL0     H25620  11.551   7.103   7.206  2.3620  0.2677 -1.2483
  186MOL0     H25621  11.468   6.966   7.115 -0.8176  0.0671  2.9524
  186MOL0     H25622  11.575   7.055   6.919  0.0414 -2.1184  0.4068
  186MOL0     H25623  11.639   7.200   7.000 -3.6187  0.6912  0.3500
  186MOL0     H25624  11.717   6.909   7.074  1.0587 -0.1251 -0.0655
  186MOL0     H25625  11.791   7.000   6.943 -0.6324  0.3687 -0.5540
  186MOL0     H25626  11.974   6.881   7.010  0.3666  1.6802  0.1350
  186MOL0     H25627  12.185   6.656   7.153 -1.7114 -0.1361  0.7299
  186MOL0     H25628  12.268   6.752   7.030  0.1174 -1.1963  1.2106
  186MOL0     H25629  12.091   6.705   7.009  0.4342  2.8649 -1.9835
  186MOL0     H25630  12.470   6.532   7.266  0.1357  1.3545 -0.3012
  186MOL0     H25631  12.680   6.444   7.357  1.1664  0.3593 -1.1148
  186MOL0     H25632  12.838   6.406   7.515  0.2239  0.5168  0.3651
  186MOL0     H25633  12.932   6.417   7.361  2.1683 -1.6258  1.6138
  186MOL0     H25634  13.070   6.316   7.505  4.2427  0.8490  0.4455
  186MOL0     H25635  13.118   6.488   7.496  1.1844 -2.2765 -3.1474
  186MOL0     H25636  12.976   6.328   7.705  1.9682 -0.7398 -0.8094
  186MOL0     H25637  12.955   6.506   7.715 -1.7442 -0.5375 -0.5870
  186MOL0     H25638  13.138   6.468   7.857 -3.1028  1.1884 -0.5499
  186MOL0     H25639  13.231   6.501   7.708  2.0833 -1.1467  0.8075
  186MOL0     H25640  13.136   6.223   7.797  0.4180 -2.2490 -0.6638
  186MOL0     H25641  13.245   6.266   7.662  0.6117 -1.9016  1.0936
  186MOL0     H25642  13.366   6.174   7.863 -1.7016 -0.0300  2.8755
  186MOL0     H25643  13.300   6.306   7.961 -1.9651  0.2296 -0.7034
  186MOL0     H25644  13.422   6.450   7.763  0.2704  1.5395  2.8016
  186MOL0     H25645  13.524   6.296   7.762 -0.1139 -0.6858 -0.6952
  186MOL0     H25646  13.503   6.508   7.982  2.1247 -1.7520  3.8271
  186MOL0     H25647  13.646   6.455   7.899  0.0646 -0.8119 -0.9309
  186MOL0     H25648  12.822   6.864   7.392  1.1274 -1.0060 -0.5452
  186MOL0     H25649  12.602   6.934   7.307 -1.4181 -0.4433 -2.8571
  186MOL0     H25650  12.199   7.098   7.378 -1.0622  3.4329 -2.5878
  186MOL0     H25651  11.965   7.171   7.322  0.2559  0.6975  1.0305
  186MOL0     H25652   9.946   7.015   7.711 -1.8036  1.0019  0.4525
  186MOL0     H25653   9.743   6.898   7.757  2.3778  4.7183 -1.0222
  186MOL0     H25654   9.622   6.416   7.805  0.9715 -0.3515 -1.3851
  186MOL0     H25655   9.473   6.226   7.807 -0.8146  0.2163  0.1762
  186MOL0     H25656   9.125   6.224   7.496 -1.4593 -0.2448  0.6887
  186MOL0     H25657   9.265   6.121   7.437 -0.4918 -2.3171 -0.1773
  186MOL0     H25658   9.054   6.001   7.611 -2.7126  2.3120 -2.0165
  186MOL0     H25659   9.187   5.927   7.523  1.4219  0.2964 -1.8209
  186MOL0     H25660   8.935   6.079   7.430  1.2071  1.5103  1.0698
  186MOL0     H25661   9.065   6.057   7.308 -1.6376  0.2503 -1.0999
  186MOL0     H25662   9.049   5.817   7.307 -1.0335  0.2983 -1.3649
  186MOL0     H25663   8.892   5.898   7.287 -0.2806  1.9928  0.8810
  186MOL0     H25664   8.828   5.684   7.649 -0.1114 -0.6186 -0.4999
  186MOL0     H25665   9.261   6.401   7.470  2.0790 -2.3144 -3.0218
  186MOL0     H25666   9.258   6.628   7.440 -0.2392 -1.0628  1.0015
  186MOL0     H25667   9.367   6.727   7.540  2.2894 -0.2662 -0.3011
  186MOL0     H25668   9.423   6.676   7.384 -0.0941  2.9462  0.7280
  187MOL0     O25669   8.366   5.213   0.697 -0.2195 -0.0624 -0.2015
  187MOL0     C25670   8.451   5.149   0.758  0.9925  0.4651  0.3236
  187MOL0     O25671   8.421   5.026   0.812  0.9753 -0.0309  0.1399
  187MOL0     C25672   8.317   4.947   0.761  0.4156  0.1931  0.0193
  187MOL0     C25673   8.349   4.845   0.674  0.2124 -0.1328  0.3006
  187MOL0     C25674   8.255   4.746   0.641 -0.5430 -0.4460  0.7692
  187MOL0     C25675   8.123   4.741   0.693  0.9355 -0.1102  0.1177
  187MOL0     O25676   8.031   4.643   0.672  0.2518 -0.3098 -0.0846
  187MOL0     C25677   8.043   4.564   0.542  1.4418  0.1760 -0.5407
  187MOL0     C25678   7.909   4.492   0.528  0.5228  0.7156 -0.3862
  187MOL0     C25679   7.869   4.391   0.420  0.0468 -1.3213  0.0816
  187MOL0     C25680   7.942   4.261   0.418 -0.2333  0.7273  0.2816
  187MOL0     C25681   7.870   4.164   0.323 -0.3847 -0.0159 -0.0999
  187MOL0     C25682   7.969   4.052   0.292 -0.2818  0.1363 -0.3262
  187MOL0     C25683   7.901   3.943   0.217  0.2885  0.0462 -0.2927
  187MOL0     C25684   7.877   3.967   0.073 -0.1236 -0.2000 -0.0494
  187MOL0     N25685   7.993   3.909   0.005 -0.6746 -0.3588  0.7262
  187MOL0     C25686   8.109   3.969  -0.020 -0.2204  0.4096 -0.2529
  187MOL0     C25687   8.178   3.882  -0.102  0.4420 -1.0679  0.4298
  187MOL0     C25688   8.324   3.892  -0.143 -0.5001  0.1750  0.3523
  187MOL0     C25689   8.413   3.773  -0.090  0.5047  0.4000 -0.5990
  187MOL0     C25690   8.526   3.747  -0.184 -0.8487  0.2804 -0.2056
  187MOL0     C25691   8.623   3.875  -0.168 -0.6695  0.8553  0.1955
  187MOL0     O25692   8.674   3.870  -0.031 -0.6435  0.1204 -0.3789
  187MOL0     C25693   8.810   3.897  -0.011 -0.2231  0.6781  0.3899
  187MOL0     C25694   8.892   3.978  -0.097  0.5823 -0.4125  0.9092
  187MOL0     C25695   9.026   4.000  -0.082 -0.6315  0.2346  0.8595
  187MOL0     C25696   9.097   4.096  -0.175  0.4591 -0.2516 -0.1922
  187MOL0     C25697   9.084   3.939   0.035 -0.0283  0.8616 -0.7028
  187MOL0     C25698   9.229   3.941   0.059  0.6469  0.4480 -0.8332
  187MOL0     O25699   9.314   3.946  -0.049 -0.3248  0.2923  0.2980
  187MOL0     C25700   9.450   3.963  -0.024  0.6807  0.4507 -0.2711
  187MOL0     C25701   9.542   3.904  -0.112  0.0337  0.4905 -0.2904
  187MOL0     C25702   9.679   3.933  -0.103 -0.5454 -0.2665 -0.5688
  187MOL0     C25703   9.731   4.008   0.002 -0.4377  0.9826  0.7393
  187MOL0     O25704   9.865   4.015   0.024  0.1302  0.0000  0.2157
  187MOL0     C25705   9.960   3.951  -0.068 -0.1766 -0.1983  0.8055
  187MOL0     C25706   9.970   3.809  -0.014  0.4943 -0.4941  0.3175
  187MOL0     C25707  10.041   3.805   0.116 -0.4240 -0.1255  0.1587
  187MOL0     C25708  10.070   3.663   0.157  0.2933 -0.0408  0.9258
  187MOL0     C25709  10.154   3.669   0.282  0.4940 -0.1885  0.6458
  187MOL0     C25710  10.170   3.532   0.334 -0.0906  0.4246  0.4735
  187MOL0     C25711  10.275   3.449   0.265  0.1243  0.1826 -0.1414
  187MOL0     C25712  10.292   3.317   0.334  0.8989 -0.1219 -0.7957
  187MOL0    Cl25713  10.428   3.229   0.260  0.4319  0.1379  0.4719
  187MOL0     C25714   9.643   4.059   0.091 -0.2107  0.7716 -0.6260
  187MOL0     C25715   9.505   4.034   0.076  0.1258 -0.4634  0.3325
  187MOL0     O25716   9.265   3.910   0.179 -0.3410  0.4374 -0.0448
  187MOL0     C25717   9.001   3.869   0.129  0.0538  0.4029 -0.6252
  187MOL0     C25718   8.872   3.843   0.103  1.2498 -0.4868  0.2327
  187MOL0     N25719   8.101   3.774  -0.128  0.2785  0.2314  0.2754
  187MOL0     N25720   7.993   3.793  -0.058 -0.1446  0.1773 -0.2722
  187MOL0     C25721   8.091   4.854   0.769 -0.8504 -0.4893 -0.2227
  187MOL0     C25722   8.181   4.953   0.810 -0.7415  0.3949  0.1914
  187MOL0     C25723   8.587   5.200   0.770 -0.4421 -0.9552  0.0792
  187MOL0     C25724   8.671   5.160   0.878  0.2557 -0.2303  0.5110
  187MOL0     C25725   8.795   5.211   0.893 -0.9804  0.5614 -1.6963
  187MOL0     C25726   8.846   5.315   0.812 -0.1087 -0.2541 -0.3584
  187MOL0     O25727   8.976   5.364   0.837  0.1551  0.2878  0.2011
  187MOL0     C25728   9.030   5.457   0.750  0.5637 -0.8149 -0.2122
  187MOL0     C25729   9.163   5.498   0.792 -1.4210  0.6363  0.5410
  187MOL0     C25730   9.222   5.618   0.718 -0.4243 -0.3024 -0.3547
  187MOL0     C25731   9.352   5.676   0.778 -0.8161  0.0796 -0.0397
  187MOL0     C25732   9.325   5.759   0.900 -0.4034 -0.1360  0.2230
  187MOL0     C25733   9.295   5.812   0.999 -0.7034 -0.3868  0.1587
  187MOL0     C25734   8.765   5.355   0.705  0.1025  0.3888 -0.4066
  187MOL0     C25735   8.642   5.294   0.679  0.5929  0.3916 -0.1408
  187MOL0     C25736   8.579   5.324   0.551  0.0353  0.4193 -0.2591
  187MOL0     H25737   8.450   4.849   0.633 -0.3487  0.3160 -1.1035
  187MOL0     H25738   8.298   4.667   0.580  3.0564  1.9404 -0.1148
  187MOL0     H25739   8.127   4.494   0.550  1.1506 -0.1939 -0.7076
  187MOL0     H25740   8.059   4.636   0.461 -1.0178  1.2760 -0.1574
  187MOL0     H25741   7.890   4.440   0.622  1.3641 -0.7679 -1.0133
  187MOL0     H25742   7.831   4.567   0.516  2.1595  2.6529  0.3890
  187MOL0     H25743   7.762   4.376   0.436  0.0368  1.0894  3.4860
  187MOL0     H25744   7.878   4.442   0.324 -2.0994 -0.5944  0.2222
  187MOL0     H25745   8.039   4.280   0.372 -0.9514 -1.5093 -2.4390
  187MOL0     H25746   7.950   4.227   0.522 -3.3683  0.4968  0.5546
  187MOL0     H25747   7.855   4.212   0.226 -1.1097 -1.9323 -0.9680
  187MOL0     H25748   7.770   4.139   0.360 -1.4603  2.9824 -0.6609
  187MOL0     H25749   8.060   4.087   0.242 -1.2578  0.3040 -2.0755
  187MOL0     H25750   7.999   4.016   0.391  2.4964 -2.8890 -2.0893
  187MOL0     H25751   7.804   3.928   0.265  0.1119  2.1428  0.1099
  187MOL0     H25752   7.960   3.852   0.229  1.8675  1.2837  2.2348
  187MOL0     H25753   7.786   3.915   0.042  0.3734 -0.8656 -0.4232
  187MOL0     H25754   7.866   4.075   0.059  0.4744 -0.0931  0.2884
  187MOL0     H25755   8.143   4.065   0.018  1.1935  0.0557 -0.5932
  187MOL0     H25756   8.365   3.988  -0.107  3.0800 -0.4876 -1.4777
  187MOL0     H25757   8.330   3.899  -0.252 -1.4328 -0.5197  0.2429
  187MOL0     H25758   8.430   3.786   0.017 -2.0630  1.1723 -0.2292
  187MOL0     H25759   8.348   3.685  -0.089 -0.8364  1.2621 -3.0129
  187MOL0     H25760   8.578   3.654  -0.160 -2.8497 -0.3096  2.2320
  187MOL0     H25761   8.481   3.748  -0.284 -2.4090  1.6541  0.4577
  187MOL0     H25762   8.707   3.862  -0.237 -1.2429 -1.1704 -0.1736
  187MOL0     H25763   8.574   3.970  -0.191 -0.6910  0.1496 -3.1745
  187MOL0     H25764   8.842   4.025  -0.182  0.7704 -0.7711  0.6000
  187MOL0     H25765   9.167   4.058  -0.250  0.6846 -0.1005 -0.0575
  187MOL0     H25766   9.141   4.163  -0.101  2.5648  0.2417 -1.8056
  187MOL0     H25767   9.024   4.158  -0.229 -0.7485 -0.4365  1.1813
  187MOL0     H25768   9.512   3.844  -0.197 -1.5034  1.0904 -0.2122
  187MOL0     H25769   9.742   3.872  -0.167  2.5636  2.4646 -0.4330
  187MOL0     H25770   9.941   3.948  -0.176 -0.0204 -2.3261  0.7834
  187MOL0     H25771  10.057   4.002  -0.070 -1.5873  2.9926  3.7871
  187MOL0     H25772   9.866   3.775  -0.002 -0.5874  2.3178 -0.2872
  187MOL0     H25773  10.028   3.745  -0.081  1.0978  1.8964 -1.5312
  187MOL0     H25774   9.988   3.857   0.196  0.7070  2.1182 -0.4630
  187MOL0     H25775  10.131   3.866   0.104  1.4181 -2.8611 -0.8327
  187MOL0     H25776  10.120   3.606   0.078 -1.6205 -2.1023  1.1220
  187MOL0     H25777   9.982   3.608   0.190 -0.1157  0.1955  0.2610
  187MOL0     H25778  10.253   3.711   0.264 -0.2834  1.7717  0.7627
  187MOL0     H25779  10.088   3.715   0.356  1.3964  1.4814  0.4464
  187MOL0     H25780  10.078   3.475   0.317  0.4981 -0.2739 -0.5030
  187MOL0     H25781  10.194   3.541   0.441 -0.0833  0.9614  0.4286
  187MOL0     H25782  10.373   3.498   0.268  0.4940 -0.5960  1.2629
  187MOL0     H25783  10.255   3.444   0.157 -0.3329 -2.6757  0.0103
  187MOL0     H25784  10.201   3.256   0.333  1.9308 -1.8571  1.6855
  187MOL0     H25785  10.303   3.343   0.440 -0.9863  2.4379 -1.1162
  187MOL0     H25786   9.663   4.124   0.175  0.5347 -2.0794  1.5418
  187MOL0     H25787   9.430   4.092   0.130  0.4076 -0.0625  0.2973
  187MOL0     H25788   9.044   3.823   0.218 -0.5767  1.0503  0.0316
  187MOL0     H25789   8.800   3.788   0.163 -3.1985 -0.2927 -4.2154
  187MOL0     H25790   7.988   4.862   0.805 -1.1746  2.0053 -1.4489
  187MOL0     H25791   8.163   5.021   0.893  1.4464  2.1496 -0.6813
  187MOL0     H25792   8.633   5.096   0.957 -0.3863  0.2575  0.6107
  187MOL0     H25793   8.850   5.171   0.977 -3.0480  0.9367 -0.0748
  187MOL0     H25794   9.035   5.430   0.644  0.9914  0.0266 -0.4112
  187MOL0     H25795   8.961   5.541   0.739 -0.9391 -1.7308  1.5769
  187MOL0     H25796   9.234   5.418   0.772  1.4718  3.4754 -1.6343
  187MOL0     H25797   9.160   5.520   0.899 -1.3135 -2.6242  1.3256
  187MOL0     H25798   9.257   5.580   0.622  0.8155  0.2915 -0.1594
  187MOL0     H25799   9.147   5.697   0.715 -3.4884 -2.8395  2.0921
  187MOL0     H25800   9.403   5.738   0.704 -1.4710 -0.1325 -0.6790
  187MOL0     H25801   9.416   5.589   0.797 -2.2766 -0.7043  1.5581
  187MOL0     H25802   9.262   5.875   1.079 -0.6380  2.5484 -1.9596
  187MOL0     H25803   8.795   5.427   0.629 -0.0552  0.3570 -0.4984
  187MOL0     H25804   8.486   5.379   0.566  1.8996  3.3178  1.5737
  187MOL0     H25805   8.643   5.383   0.485 -0.6316  0.7608 -0.6130
  187MOL0     H25806   8.566   5.233   0.491 -0.1802 -0.7117  1.4115
  188MOL0     O25807   9.094   4.864   1.737 -0.4608 -0.1783  0.7408
  188MOL0     C25808   9.067   4.756   1.691 -0.1459 -0.3967 -0.1758
  188MOL0     O25809   9.143   4.648   1.708  0.2049  0.6875 -0.1646
  188MOL0     C25810   9.230   4.638   1.821  0.0670 -0.3118 -0.1637
  188MOL0     C25811   9.246   4.512   1.888  0.4293  0.1033 -0.4739
  188MOL0     C25812   9.352   4.490   1.978 -1.1754  0.7457 -0.1061
  188MOL0     C25813   9.437   4.591   2.016 -0.7532 -0.1421  0.0773
  188MOL0     O25814   9.541   4.585   2.116  0.1353  0.4539  0.2878
  188MOL0     C25815   9.595   4.461   2.160  0.1127  0.9871 -0.4310
  188MOL0     C25816   9.698   4.387   2.058  0.1622  0.0218  0.0718
  188MOL0     C25817   9.797   4.504   2.014  0.7245  0.5364 -0.6388
  188MOL0     C25818   9.926   4.457   1.955 -0.3049 -0.2306 -0.8289
  188MOL0     C25819   9.996   4.581   1.898 -0.4039 -0.6656 -0.2007
  188MOL0     C25820  10.127   4.532   1.828 -0.3747  0.6297  0.8106
  188MOL0     C25821  10.178   4.662   1.753  1.2060  0.5688 -0.1416
  188MOL0     C25822  10.324   4.672   1.732 -1.1096  0.0818  0.0884
  188MOL0     N25823  10.349   4.808   1.684 -0.9150  0.5317  0.6223
  188MOL0     C25824  10.382   4.836   1.552  0.6212 -0.2554 -0.3040
  188MOL0     C25825  10.391   4.969   1.557  0.8717  0.7390  0.4913
  188MOL0     C25826  10.438   5.053   1.438 -0.0653 -0.2144  0.1992
  188MOL0     C25827  10.442   5.204   1.471 -0.1399 -0.8144  0.2150
  188MOL0     C25828  10.518   5.270   1.363 -0.2577  0.7437  0.6071
  188MOL0     C25829  10.506   5.416   1.353  0.3317 -0.2310  0.0441
  188MOL0     O25830  10.544   5.477   1.487  0.1087  0.3012  0.2964
  188MOL0     C25831  10.670   5.529   1.505 -0.1934  0.3828 -0.5974
  188MOL0     C25832  10.710   5.555   1.643  0.6718 -0.3412 -0.7990
  188MOL0     C25833  10.830   5.605   1.686 -0.0150  0.4576  0.2246
  188MOL0     C25834  10.830   5.665   1.818 -0.4460  1.0192 -0.0235
  188MOL0     C25835  10.937   5.614   1.592 -0.5462 -0.0154  0.0207
  188MOL0     C25836  11.079   5.657   1.631 -0.7597  0.6268  1.0613
  188MOL0     O25837  11.161   5.666   1.523 -0.3049  0.0738 -0.0175
  188MOL0     C25838  11.299   5.675   1.534 -0.1037 -0.4824 -0.5557
  188MOL0     C25839  11.376   5.592   1.452 -0.9673  0.2702 -0.4215
  188MOL0     C25840  11.513   5.602   1.445  0.2772 -1.3296 -0.0532
  188MOL0     C25841  11.581   5.704   1.519  0.4743 -0.7960 -0.1490
  188MOL0     O25842  11.715   5.711   1.527  0.4331  0.4156  0.4852
  188MOL0     C25843  11.784   5.711   1.400  0.0682  0.1064  0.0990
  188MOL0     C25844  11.844   5.568   1.371  0.5513 -0.2210 -0.2178
  188MOL0     C25845  11.925   5.520   1.495  0.0939 -0.3099  0.4358
  188MOL0     C25846  11.832   5.445   1.598 -0.3127 -0.1305  0.4555
  188MOL0     C25847  11.904   5.329   1.662 -0.2418  0.4499  0.2796
  188MOL0     C25848  12.022   5.375   1.751  0.2723  0.1115  0.2560
  188MOL0     C25849  12.113   5.255   1.775  0.4522 -0.5374 -0.2688
  188MOL0     C25850  12.266   5.287   1.744 -0.1143 -0.0808 -0.6695
  188MOL0    Cl25851  12.354   5.172   1.849 -0.3115  0.4928 -0.1349
  188MOL0     C25852  11.500   5.792   1.602  0.6492  0.3392 -0.1129
  188MOL0     C25853  11.358   5.779   1.602 -1.6381  0.1757 -1.0130
  188MOL0     O25854  11.114   5.661   1.753  0.1731 -0.3024  0.0196
  188MOL0     C25855  10.910   5.578   1.458  0.1596 -0.4311  0.0473
  188MOL0     C25856  10.781   5.531   1.425  0.2803 -0.0158  0.0866
  188MOL0     N25857  10.352   5.021   1.681 -0.1641 -0.7732 -0.0676
  188MOL0     N25858  10.340   4.920   1.760 -0.5006 -0.8147  0.0340
  188MOL0     C25859   9.440   4.714   1.941  1.0209 -0.1299  0.0534
  188MOL0     C25860   9.339   4.731   1.838  0.5279  0.3039  0.1573
  188MOL0     C25861   8.929   4.728   1.634 -0.6879  0.8143  0.7105
  188MOL0     C25862   8.889   4.592   1.607 -0.0676 -0.4529  1.5247
  188MOL0     C25863   8.769   4.559   1.557 -0.1141  0.1917 -0.4036
  188MOL0     C25864   8.679   4.655   1.512  0.0326 -0.0952 -0.6133
  188MOL0     O25865   8.560   4.626   1.454 -0.1866  0.7696 -0.4220
  188MOL0     C25866   8.540   4.516   1.359  0.4955  0.0294 -0.6599
  188MOL0     C25867   8.638   4.531   1.237  0.4056 -0.2348  1.0232
  188MOL0     C25868   8.655   4.397   1.157 -0.5052 -0.0761 -0.5012
  188MOL0     C25869   8.710   4.437   1.017  0.4672  0.4012  0.0128
  188MOL0     C25870   8.627   4.528   0.947 -0.2937 -0.7792 -0.1181
  188MOL0     C25871   8.561   4.604   0.882 -0.0668  0.2560 -0.0137
  188MOL0     C25872   8.722   4.786   1.530  0.5313 -0.4458 -0.3350
  188MOL0     C25873   8.834   4.829   1.601 -0.2814 -1.1041  0.1296
  188MOL0     C25874   8.855   4.981   1.619  0.3148  0.9455  0.1722
  188MOL0     H25875   9.177   4.432   1.863 -0.8089  1.3704 -1.3051
  188MOL0     H25876   9.365   4.390   2.016 -1.5706  0.6890 -0.1205
  188MOL0     H25877   9.517   4.391   2.192 -0.7688  2.1636  0.0531
  188MOL0     H25878   9.649   4.485   2.252 -0.6893  0.2888  0.2277
  188MOL0     H25879   9.754   4.307   2.107 -2.5827 -2.0092  0.1569
  188MOL0     H25880   9.643   4.329   1.983 -1.5141 -0.5659  1.6805
  188MOL0     H25881   9.733   4.544   1.935  1.0397  1.8337 -0.2599
  188MOL0     H25882   9.808   4.575   2.096 -0.7171 -1.0079  0.9610
  188MOL0     H25883   9.990   4.413   2.032 -1.9289 -1.6471 -0.2200
  188MOL0     H25884   9.894   4.379   1.885 -2.4465 -0.1517 -0.0304
  188MOL0     H25885  10.024   4.647   1.981 -0.4869 -0.8243 -0.0468
  188MOL0     H25886   9.940   4.635   1.821  1.2823 -0.4392 -1.3318
  188MOL0     H25887  10.203   4.491   1.895  1.4852  2.6369  0.0549
  188MOL0     H25888  10.122   4.453   1.752  0.8702  2.2341 -1.0440
  188MOL0     H25889  10.154   4.751   1.812  0.9464  1.6902 -1.8601
  188MOL0     H25890  10.124   4.668   1.658  1.0303  2.5748  0.0465
  188MOL0     H25891  10.368   4.664   1.832  0.4890  1.7757 -0.4016
  188MOL0     H25892  10.370   4.593   1.672 -2.8308 -1.1890  0.3845
  188MOL0     H25893  10.403   4.772   1.467  1.7457  0.0861 -0.2963
  188MOL0     H25894  10.385   5.025   1.347  3.3835  0.0811 -2.0879
  188MOL0     H25895  10.543   5.028   1.419  0.3211  1.3705  0.1023
  188MOL0     H25896  10.342   5.249   1.475 -0.1853 -0.6541 -1.5846
  188MOL0     H25897  10.491   5.224   1.566  1.9312  0.4785 -1.0551
  188MOL0     H25898  10.626   5.268   1.380 -0.4265  4.7562  3.4913
  188MOL0     H25899  10.486   5.229   1.267 -2.2033  2.6625  0.3416
  188MOL0     H25900  10.557   5.455   1.265 -0.8173  0.5714 -0.2898
  188MOL0     H25901  10.405   5.444   1.321  0.6079  0.7708  0.0008
  188MOL0     H25902  10.627   5.537   1.711  1.4382  0.4734  0.3911
  188MOL0     H25903  10.736   5.645   1.870 -1.2279 -0.3236 -1.8412
  188MOL0     H25904  10.851   5.770   1.797 -2.5051  1.3588 -0.5845
  188MOL0     H25905  10.900   5.620   1.889 -0.8719  0.1306 -0.1637
  188MOL0     H25906  11.327   5.528   1.379  0.1784 -2.1708  0.8124
  188MOL0     H25907  11.570   5.531   1.387  0.5323 -2.2562  1.2918
  188MOL0     H25908  11.718   5.748   1.320 -1.7172 -0.2376  1.3403
  188MOL0     H25909  11.862   5.787   1.413 -2.0215  2.4938 -0.4534
  188MOL0     H25910  11.771   5.491   1.345  1.4159 -1.8924  1.9885
  188MOL0     H25911  11.911   5.580   1.286  2.4995  0.4056  1.3143
  188MOL0     H25912  11.976   5.606   1.539 -0.1635  2.5899 -4.2076
  188MOL0     H25913  12.004   5.457   1.453 -0.8662 -2.7449  2.0846
  188MOL0     H25914  11.740   5.409   1.552 -1.7089  1.6878  1.6693
  188MOL0     H25915  11.807   5.516   1.677 -1.5846 -0.5436  0.4348
  188MOL0     H25916  11.839   5.264   1.721  2.5512 -1.6534  1.2694
  188MOL0     H25917  11.933   5.260   1.583 -2.2357 -0.3064  0.1498
  188MOL0     H25918  11.981   5.434   1.833  0.4670  0.2178  0.2763
  188MOL0     H25919  12.069   5.451   1.687  2.4521  0.1256  1.8021
  188MOL0     H25920  12.074   5.172   1.717  1.4644 -0.9861 -0.3237
  188MOL0     H25921  12.107   5.224   1.880 -1.1588 -3.4053 -1.0920
  188MOL0     H25922  12.296   5.390   1.765  1.2335 -0.6177  0.1824
  188MOL0     H25923  12.280   5.276   1.636  1.5758  3.6953 -0.9795
  188MOL0     H25924  11.549   5.869   1.660 -1.1927  0.3086  1.5618
  188MOL0     H25925  11.301   5.850   1.661  1.0896  1.9257 -0.2749
  188MOL0     H25926  10.986   5.574   1.381 -0.4246  0.9294 -0.6290
  188MOL0     H25927  10.778   5.501   1.320  1.4247 -0.2452  0.0979
  188MOL0     H25928   9.513   4.791   1.966  1.8568 -1.1909  1.0071
  188MOL0     H25929   9.323   4.827   1.790  2.1815  0.6146  0.1763
  188MOL0     H25930   8.949   4.507   1.638  1.0895 -0.2511 -0.0005
  188MOL0     H25931   8.725   4.460   1.557  3.3784 -1.6823  3.1475
  188MOL0     H25932   8.575   4.426   1.410  0.4305  0.9610  1.1150
  188MOL0     H25933   8.437   4.504   1.326 -0.1964 -0.3819  1.5002
  188MOL0     H25934   8.735   4.571   1.268  0.6340  1.1545 -1.2762
  188MOL0     H25935   8.589   4.598   1.167 -1.7074 -3.5418 -0.9411
  188MOL0     H25936   8.729   4.328   1.197  0.9319  0.2950 -2.3658
  188MOL0     H25937   8.562   4.339   1.149 -1.0397  0.9757 -2.9720
  188MOL0     H25938   8.725   4.342   0.965 -0.0248 -0.2437  1.0149
  188MOL0     H25939   8.801   4.492   1.038  0.4936  0.1022  0.7039
  188MOL0     H25940   8.489   4.657   0.824 -1.7266  0.4837  2.1145
  188MOL0     H25941   8.645   4.856   1.498 -0.8245 -1.1230  1.2463
  188MOL0     H25942   8.842   5.027   1.718  1.4436  1.4813  0.0966
  188MOL0     H25943   8.957   5.020   1.605  0.7177 -0.0417  0.3097
  188MOL0     H25944   8.781   5.032   1.556  0.5971  1.4645  0.2502
  189MOL0     O25945   9.237   1.382  10.800 -0.4173 -0.1175 -0.8124
  189MOL0     C25946   9.303   1.358  10.906 -0.7368 -0.4755 -0.1677
  189MOL0     O25947   9.430   1.402  10.933  0.0125 -0.5229  0.2437
  189MOL0     C25948   9.484   1.485  10.832 -0.6777  1.0034  0.4061
  189MOL0     C25949   9.481   1.620  10.847 -0.3062 -0.5224 -0.4961
  189MOL0     C25950   9.528   1.706  10.753  0.2401  0.0696  0.9549
  189MOL0     C25951   9.562   1.661  10.630 -0.1047  0.1224  0.4632
  189MOL0     O25952   9.610   1.745  10.532 -0.3118 -0.7598  0.0000
  189MOL0     C25953   9.555   1.735  10.403 -0.1496  0.8199  0.6421
  189MOL0     C25954   9.638   1.828  10.320 -0.1752 -0.4906  0.1523
  189MOL0     C25955   9.777   1.775  10.286 -0.1224  0.7384  0.5659
  189MOL0     C25956   9.859   1.874  10.196 -0.3196 -0.7129  0.2081
  189MOL0     C25957  10.004   1.831  10.182  0.4549 -0.0464 -1.1255
  189MOL0     C25958  10.080   1.932  10.098 -0.2516  0.8738  0.2258
  189MOL0     C25959  10.117   2.063  10.170  0.4493  0.4795 -0.2451
  189MOL0     C25960  10.157   2.170  10.078 -0.7901  0.0147  0.3305
  189MOL0     N25961  10.306   2.199  10.076 -0.1005  0.5268 -0.2535
  189MOL0     C25962  10.394   2.173   9.981  0.6811  0.3673  0.7141
  189MOL0     C25963  10.517   2.203  10.029  0.1665 -0.8327  0.2618
  189MOL0     C25964  10.647   2.195   9.947  0.3622  0.0001  0.6511
  189MOL0     C25965  10.775   2.216  10.038 -0.0108 -0.0254 -0.2489
  189MOL0     C25966  10.902   2.224   9.958  0.4026 -0.5306  0.2889
  189MOL0     C25967  11.027   2.254  10.045 -0.0813  0.3712  0.3453
  189MOL0     O25968  11.143   2.250   9.960  0.3526  0.3513 -0.1887
  189MOL0     C25969  11.265   2.204  10.016 -0.8197 -0.5915  0.3444
  189MOL0     C25970  11.286   2.161  10.151  1.1933  0.3207  0.2826
  189MOL0     C25971  11.412   2.116  10.200  0.3001  0.2766  0.2040
  189MOL0     C25972  11.426   2.074  10.340 -0.3716  0.9772  0.2902
  189MOL0     C25973  11.513   2.115  10.106  0.1241 -0.0933  0.2628
  189MOL0     C25974  11.655   2.082  10.144  0.9748  0.7265 -0.0541
  189MOL0     O25975  11.751   2.136  10.075 -1.0244  0.6841  0.3799
  189MOL0     C25976  11.887   2.121  10.119  0.6369 -0.2153 -0.3176
  189MOL0     C25977  11.932   2.090  10.258 -0.4180 -0.7073  0.8016
  189MOL0     C25978  12.072   2.077  10.287 -0.6591 -0.0924 -0.3407
  189MOL0     C25979  12.170   2.085  10.186  0.3737 -0.2369 -0.3267
  189MOL0     O25980  12.300   2.083  10.227  0.5330  0.1810 -0.4392
  189MOL0     C25981  12.399   2.055  10.124  0.2169 -0.1074 -0.3166
  189MOL0     C25982  12.539   2.072  10.177 -0.7818 -0.1733 -0.4939
  189MOL0     C25983  12.645   2.096  10.067  0.0376  0.3302  0.2913
  189MOL0     C25984  12.696   1.957  10.007 -0.1973  0.1328  0.1735
  189MOL0     C25985  12.790   1.982   9.892 -0.1836 -0.2943 -0.8365
  189MOL0     C25986  12.933   2.016   9.937 -0.4909 -0.1753 -0.2602
  189MOL0     C25987  13.038   2.032   9.822 -0.7697  1.0944  0.5804
  189MOL0     C25988  13.171   2.093   9.864  0.3856  0.6474 -0.2675
  189MOL0    Cl25989  13.307   2.048   9.750 -0.0771  0.1002 -0.0997
  189MOL0     C25990  12.128   2.124  10.055 -0.0907 -0.3692 -0.2536
  189MOL0     C25991  11.988   2.139  10.029 -0.4028 -0.2475 -0.1408
  189MOL0     O25992  11.674   1.999  10.231  0.1113  0.3819  0.5381
  189MOL0     C25993  11.490   2.153   9.971  0.2309 -0.1455  0.5823
  189MOL0     C25994  11.371   2.205   9.924 -0.0140 -0.0641  0.3629
  189MOL0     N25995  10.500   2.261  10.162  0.3334  0.2629 -0.2177
  189MOL0     N25996  10.374   2.253  10.188 -0.2547  0.5030 -0.3680
  189MOL0     C25997   9.555   1.522  10.602  0.2638  0.2670  0.2257
  189MOL0     C25998   9.504   1.432  10.704  0.2178 -0.4794 -0.0532
  189MOL0     C25999   9.254   1.264  11.006 -0.4864 -0.3663 -0.3414
  189MOL0     C26000   9.114   1.244  11.004  0.3621 -0.4520 -0.2614
  189MOL0     C26001   9.060   1.161  11.104 -0.6411  0.0824  0.0887
  189MOL0     C26002   9.140   1.106  11.202 -0.1414 -0.4430 -0.5953
  189MOL0     O26003   9.086   1.036  11.305  0.1019 -0.3243 -0.5297
  189MOL0     C26004   9.129   1.085  11.436 -0.7977  0.4055  0.1706
  189MOL0     C26005   9.139   0.967  11.522 -0.1862  0.7466 -0.1778
  189MOL0     C26006   9.234   0.848  11.470  0.4734 -1.1811  0.0193
  189MOL0     C26007   9.269   0.740  11.568 -1.1953  0.0912  0.5225
  189MOL0     C26008   9.373   0.653  11.496 -0.4072  0.5951 -0.8970
  189MOL0     C26009   9.444   0.566  11.451 -0.5587 -0.0208 -0.2938
  189MOL0     C26010   9.283   1.116  11.186  0.3396 -0.4239 -0.7484
  189MOL0     C26011   9.340   1.197  11.088  0.6784  0.5421 -1.0514
  189MOL0     C26012   9.491   1.182  11.068  0.2529 -0.0935 -0.3884
  189MOL0     H26013   9.449   1.673  10.936  1.7425  1.1166 -0.6628
  189MOL0     H26014   9.529   1.811  10.779  2.4240  0.5602 -0.7864
  189MOL0     H26015   9.452   1.772  10.406  0.0103  1.3221  0.1592
  189MOL0     H26016   9.559   1.633  10.364 -0.3402  0.5386  1.3448
  189MOL0     H26017   9.583   1.845  10.227 -2.1566 -1.5562  1.0501
  189MOL0     H26018   9.649   1.926  10.367  1.8392  1.3275 -3.7058
  189MOL0     H26019   9.833   1.747  10.376 -1.8724  0.5831  1.6653
  189MOL0     H26020   9.766   1.680  10.233  2.5178 -0.8689  2.6378
  189MOL0     H26021   9.816   1.878  10.096 -0.8940 -2.8456  0.3218
  189MOL0     H26022   9.854   1.978  10.231 -0.5279 -1.2725  1.9486
  189MOL0     H26023  10.005   1.734  10.131 -0.0321 -1.4433  1.3468
  189MOL0     H26024  10.055   1.821  10.278 -1.0102  0.7139 -0.2317
  189MOL0     H26025  10.179   1.892  10.075  0.0377  0.4631  1.9860
  189MOL0     H26026  10.020   1.957  10.011  1.7425 -1.0651 -1.8263
  189MOL0     H26027  10.188   2.032  10.247  0.0186 -3.6203 -1.2967
  189MOL0     H26028  10.024   2.093  10.220  1.1930 -0.5801  1.9307
  189MOL0     H26029  10.127   2.149   9.975 -1.5698 -0.5617  0.6663
  189MOL0     H26030  10.106   2.266  10.091 -0.6713  0.0448  0.5778
  189MOL0     H26031  10.372   2.155   9.876  0.7491 -0.1136  0.7824
  189MOL0     H26032  10.646   2.277   9.875 -2.9849 -0.1749  0.3247
  189MOL0     H26033  10.637   2.097   9.898  0.6661  1.3710 -2.3639
  189MOL0     H26034  10.771   2.303  10.104 -0.4977 -2.3402  3.0280
  189MOL0     H26035  10.767   2.134  10.111 -1.6690 -0.0368 -0.4165
  189MOL0     H26036  10.917   2.131   9.903 -1.6625  0.1752 -1.6248
  189MOL0     H26037  10.898   2.301   9.880 -3.3260 -1.4055 -0.5922
  189MOL0     H26038  11.017   2.351  10.095  0.2308 -0.5194  2.2206
  189MOL0     H26039  11.021   2.180  10.126 -2.4015  0.4052  0.2776
  189MOL0     H26040  11.204   2.156  10.222  1.8534 -2.7158  0.9585
  189MOL0     H26041  11.330   2.073  10.392 -0.3174 -0.7542  0.4158
  189MOL0     H26042  11.465   2.151  10.406 -0.4486  1.4920 -0.2603
  189MOL0     H26043  11.460   1.970  10.336 -1.7747  0.3743  2.2537
  189MOL0     H26044  11.872   2.078  10.347 -0.1459 -1.5206  0.8796
  189MOL0     H26045  12.107   2.077  10.389 -0.8559 -1.2497 -0.2553
  189MOL0     H26046  12.396   1.950  10.096  2.3014  0.3843 -2.7990
  189MOL0     H26047  12.380   2.121  10.039 -2.1870  0.7119  0.7552
  189MOL0     H26048  12.549   2.166  10.231 -0.6547 -0.4678  0.0047
  189MOL0     H26049  12.562   1.990  10.246 -2.5424  0.9998  1.6371
  189MOL0     H26050  12.729   2.144  10.119  1.5383 -1.0508 -0.7622
  189MOL0     H26051  12.608   2.165   9.992 -0.4730 -1.2139 -0.9288
  189MOL0     H26052  12.609   1.907   9.963  1.1228 -0.0776 -2.4246
  189MOL0     H26053  12.742   1.900  10.088 -2.2696  0.9825  2.0608
  189MOL0     H26054  12.774   1.884   9.845 -4.6736 -0.1971  0.0322
  189MOL0     H26055  12.752   2.062   9.829  0.1401 -0.0306 -0.6991
  189MOL0     H26056  12.949   1.927   9.998 -2.4477 -2.6285 -3.0479
  189MOL0     H26057  12.940   2.100  10.007  0.3148 -1.5968  1.4375
  189MOL0     H26058  12.996   2.093   9.742 -1.5398 -0.2743 -0.1050
  189MOL0     H26059  13.057   1.935   9.776  2.6379  0.5179  2.7967
  189MOL0     H26060  13.212   2.054   9.958  0.5104  2.4389  0.4679
  189MOL0     H26061  13.164   2.200   9.888 -0.9923  1.0265 -2.1709
  189MOL0     H26062  12.203   2.141   9.978  1.2330 -2.8706  0.3911
  189MOL0     H26063  11.953   2.171   9.932 -1.8243 -3.7008 -0.9378
  189MOL0     H26064  11.579   2.158   9.908  0.3599 -2.7202  0.4566
  189MOL0     H26065  11.350   2.240   9.824 -2.5235  0.3310  0.9773
  189MOL0     H26066   9.584   1.476  10.508  1.5989  0.8541  0.3233
  189MOL0     H26067   9.490   1.326  10.689  1.3115 -0.6652  0.0923
  189MOL0     H26068   9.046   1.291  10.933 -0.4771  0.7779  1.3181
  189MOL0     H26069   8.953   1.145  11.106 -0.7002  0.2886 -1.0525
  189MOL0     H26070   9.229   1.128  11.433 -1.0093  0.9065 -0.0107
  189MOL0     H26071   9.059   1.161  11.473 -0.2365  1.6098 -1.1146
  189MOL0     H26072   9.044   0.925  11.556  0.9234 -1.6458  0.1775
  189MOL0     H26073   9.178   1.007  11.616 -1.7671 -0.2603  0.9504
  189MOL0     H26074   9.195   0.801  11.379 -2.0618  2.5123 -1.0170
  189MOL0     H26075   9.320   0.904  11.432 -1.1249 -0.2826 -2.4997
  189MOL0     H26076   9.171   0.696  11.588 -2.4543  2.4233 -0.1229
  189MOL0     H26077   9.319   0.768  11.662 -1.2274  1.3636  0.1782
  189MOL0     H26078   9.509   0.493  11.407 -2.2299 -3.1095  1.9845
  189MOL0     H26079   9.348   1.061  11.252 -1.8140 -0.1602  1.7662
  189MOL0     H26080   9.526   1.093  11.121  1.6283 -0.2675 -1.5477
  189MOL0     H26081   9.510   1.158  10.964  1.4432 -2.3707  0.2947
  189MOL0     H26082   9.551   1.265  11.105 -1.0804  0.2964  1.0637
  190MOL0     O26083   4.978   5.781   4.381  0.3038  0.4027 -0.0370
  190MOL0     C26084   4.980   5.694   4.296 -0.1442  0.1501 -0.3217
  190MOL0     O26085   5.076   5.596   4.297  0.2373  0.1222 -0.1417
  190MOL0     C26086   5.200   5.586   4.358 -0.4644  0.3032  0.3820
  190MOL0     C26087   5.244   5.452   4.377 -0.0057 -0.1472 -0.2525
  190MOL0     C26088   5.368   5.428   4.437  0.4772 -0.0335  0.1710
  190MOL0     C26089   5.443   5.530   4.484 -0.8147  0.4581 -0.1141
  190MOL0     O26090   5.573   5.519   4.535  0.7811  0.3125  0.1141
  190MOL0     C26091   5.659   5.409   4.514 -0.0613  0.0434  0.2590
  190MOL0     C26092   5.781   5.415   4.587 -0.6775  0.5880 -0.4105
  190MOL0     C26093   5.761   5.417   4.749 -0.6859 -0.1191 -0.7108
  190MOL0     C26094   5.904   5.422   4.822  1.0128 -0.2272  0.2018
  190MOL0     C26095   5.889   5.477   4.964 -0.0653 -0.6664 -0.9755
  190MOL0     C26096   6.023   5.452   5.038 -0.3330  0.2769 -0.7001
  190MOL0     C26097   6.136   5.555   5.006  0.1834 -0.4010  0.3464
  190MOL0     C26098   6.265   5.525   5.084 -0.4497  1.1040 -0.5349
  190MOL0     N26099   6.236   5.485   5.225  1.0197 -0.2533 -0.2503
  190MOL0     C26100   6.164   5.557   5.320  0.7184  0.1076 -0.7272
  190MOL0     C26101   6.168   5.477   5.426 -0.0555  0.6314 -0.7238
  190MOL0     C26102   6.101   5.507   5.554 -0.8122  0.6194 -0.6852
  190MOL0     C26103   6.080   5.653   5.617  0.7143 -0.3991  1.2279
  190MOL0     C26104   6.209   5.722   5.681 -0.2842 -0.1785  0.0478
  190MOL0     C26105   6.162   5.838   5.763  0.8085  0.5322 -0.6649
  190MOL0     O26106   6.120   5.944   5.679  0.3151 -0.2418  0.1669
  190MOL0     C26107   6.057   6.057   5.731  0.1373 -0.0566  0.4415
  190MOL0     C26108   6.017   6.068   5.861  0.5721 -0.4601 -0.1455
  190MOL0     C26109   5.942   6.179   5.908  0.2018  0.2236 -0.0612
  190MOL0     C26110   5.889   6.170   6.056  0.3427 -0.4009  0.5591
  190MOL0     C26111   5.912   6.276   5.811  0.8044 -0.6255  0.3680
  190MOL0     C26112   5.835   6.403   5.835  0.2369  0.6191 -0.5193
  190MOL0     O26113   5.861   6.456   5.963 -0.6882 -0.1438 -0.6584
  190MOL0     C26114   5.777   6.543   6.010  0.2861 -0.1341  0.2452
  190MOL0     C26115   5.739   6.661   5.943 -0.4540  0.3259  0.4733
  190MOL0     C26116   5.654   6.761   5.990 -0.6848 -0.6242 -0.0757
  190MOL0     C26117   5.591   6.742   6.109 -0.2220  0.7665 -1.2330
  190MOL0     O26118   5.506   6.823   6.172  0.8549 -0.6114 -0.4493
  190MOL0     C26119   5.517   6.969   6.153 -0.5646  0.3463  0.3678
  190MOL0     C26120   5.442   7.053   6.265 -0.0350  0.0990  0.5416
  190MOL0     C26121   5.474   7.205   6.261  0.6400 -0.4751 -0.3898
  190MOL0     C26122   5.441   7.260   6.395  0.6713  0.8292  0.1277
  190MOL0     C26123   5.481   7.417   6.398  0.0967 -0.2669  0.0017
  190MOL0     C26124   5.378   7.516   6.338  0.2782 -0.3863  0.2504
  190MOL0     C26125   5.244   7.550   6.407  0.2294  0.2009  0.4261
  190MOL0     C26126   5.176   7.667   6.330 -0.0661 -0.3585  0.6213
  190MOL0    Cl26127   5.025   7.715   6.409  0.7081 -0.3314 -0.6264
  190MOL0     C26128   5.604   6.618   6.172 -0.3810 -0.3428  0.2762
  190MOL0     C26129   5.696   6.519   6.129  0.0443 -0.1613 -0.3853
  190MOL0     O26130   5.766   6.450   5.748  0.2997 -0.2698  0.3832
  190MOL0     C26131   5.956   6.270   5.675  0.0284 -0.4488  0.2421
  190MOL0     C26132   6.032   6.150   5.636 -0.9172 -0.3837 -0.7726
  190MOL0     N26133   6.221   5.356   5.402  0.0107  0.2871 -0.5296
  190MOL0     N26134   6.266   5.356   5.279  0.5876 -0.3338 -0.0210
  190MOL0     C26135   5.392   5.660   4.461 -0.3079 -0.8659 -0.0954
  190MOL0     C26136   5.273   5.691   4.401 -1.1077  0.3633 -0.2009
  190MOL0     C26137   4.885   5.714   4.188  0.3717 -0.1165 -0.4082
  190MOL0     C26138   4.911   5.663   4.056  0.0534 -0.1774  0.4080
  190MOL0     C26139   4.821   5.680   3.948  0.5715  0.1315  0.9198
  190MOL0     C26140   4.696   5.752   3.967 -0.2122 -0.8094 -0.0484
  190MOL0     O26141   4.599   5.745   3.863  0.1545 -0.2040  0.5523
  190MOL0     C26142   4.467   5.796   3.901  0.6383 -0.5487 -0.2234
  190MOL0     C26143   4.369   5.807   3.784 -0.7642 -0.1040 -0.8242
  190MOL0     C26144   4.230   5.768   3.822 -0.6745  0.2047  0.6331
  190MOL0     C26145   4.116   5.796   3.717 -0.3623 -0.3051 -1.1699
  190MOL0     C26146   4.152   5.752   3.586 -0.6365  0.5600 -0.3217
  190MOL0     C26147   4.178   5.714   3.473 -0.3023 -0.7062 -0.6110
  190MOL0     C26148   4.673   5.793   4.100 -0.1792 -0.5090  0.7518
  190MOL0     C26149   4.755   5.780   4.207 -0.7132  0.2639  0.1976
  190MOL0     C26150   4.712   5.867   4.322 -0.7994 -0.2442  0.4757
  190MOL0     H26151   5.187   5.371   4.332  0.1550 -0.3882 -0.0282
  190MOL0     H26152   5.388   5.322   4.453 -0.9025 -0.3131  0.2477
  190MOL0     H26153   5.680   5.408   4.406 -2.4580  0.7236 -0.2786
  190MOL0     H26154   5.624   5.307   4.535  3.0022 -1.4094 -0.9492
  190MOL0     H26155   5.853   5.335   4.565  1.7916  2.6662 -0.3801
  190MOL0     H26156   5.828   5.503   4.543  0.5624  0.5161  0.6851
  190MOL0     H26157   5.708   5.511   4.769  0.1751  0.7188 -2.1473
  190MOL0     H26158   5.702   5.333   4.787 -1.6356  0.4129 -0.9561
  190MOL0     H26159   5.937   5.319   4.840 -1.4548 -0.6174  3.3093
  190MOL0     H26160   5.977   5.478   4.763 -1.1099  3.3357  0.7086
  190MOL0     H26161   5.812   5.433   5.028 -0.1007  1.5190  0.5907
  190MOL0     H26162   5.876   5.585   4.965  2.3088 -0.3266  0.6130
  190MOL0     H26163   5.999   5.469   5.143 -2.7089  0.2915 -1.1982
  190MOL0     H26164   6.055   5.347   5.037 -1.0704  0.0330  0.3210
  190MOL0     H26165   6.103   5.657   5.030 -2.6047 -1.0773 -0.2264
  190MOL0     H26166   6.154   5.556   4.898  0.6317 -0.3762  0.4208
  190MOL0     H26167   6.315   5.437   5.043 -2.0343 -0.4785  0.7504
  190MOL0     H26168   6.330   5.613   5.081 -1.7795  2.1367 -0.1004
  190MOL0     H26169   6.126   5.658   5.308  0.9748  0.0210 -2.4747
  190MOL0     H26170   6.138   5.443   5.635  0.5434  2.8493  0.5442
  190MOL0     H26171   6.002   5.462   5.542 -0.1259 -1.2141  0.1485
  190MOL0     H26172   6.045   5.716   5.534  0.1424  0.1856  1.9029
  190MOL0     H26173   6.003   5.663   5.694 -0.1698  1.6180  0.1518
  190MOL0     H26174   6.261   5.651   5.745  1.6164  0.7303 -0.4075
  190MOL0     H26175   6.280   5.758   5.607  0.8870 -2.3710  0.0369
  190MOL0     H26176   6.080   5.823   5.834  1.4722 -0.9151 -0.1668
  190MOL0     H26177   6.243   5.868   5.830  0.2963 -0.2302  0.3262
  190MOL0     H26178   6.034   5.997   5.942 -1.0798  0.7561  1.3671
  190MOL0     H26179   5.928   6.079   6.102 -1.3101 -0.0732  2.8254
  190MOL0     H26180   5.780   6.159   6.048  0.4548 -0.9376 -0.3496
  190MOL0     H26181   5.920   6.249   6.126 -2.2837 -0.8400  2.3825
  190MOL0     H26182   5.797   6.692   5.857  2.7057  1.0994  2.7020
  190MOL0     H26183   5.657   6.843   5.919 -1.6882 -0.4002  0.1360
  190MOL0     H26184   5.625   6.986   6.165 -0.4462 -0.9946  1.3807
  190MOL0     H26185   5.489   7.005   6.054  3.0166  0.2213 -0.8312
  190MOL0     H26186   5.334   7.045   6.251 -0.1233  2.0966 -0.2374
  190MOL0     H26187   5.470   7.014   6.363 -2.9095 -1.5376  0.8094
  190MOL0     H26188   5.414   7.253   6.183  2.5563  2.5349 -0.1509
  190MOL0     H26189   5.579   7.219   6.235  0.1414  0.0620 -2.2591
  190MOL0     H26190   5.486   7.206   6.478 -0.8597 -1.9829 -0.7608
  190MOL0     H26191   5.333   7.256   6.410  0.4857  2.8898 -0.3748
  190MOL0     H26192   5.498   7.466   6.494  0.0981  2.1613 -1.1706
  190MOL0     H26193   5.571   7.421   6.336 -0.5796  0.7207 -0.9484
  190MOL0     H26194   5.352   7.484   6.237 -1.2764  0.2089  0.4401
  190MOL0     H26195   5.444   7.604   6.340 -0.2044  0.0213 -0.7781
  190MOL0     H26196   5.276   7.579   6.508 -0.4360  0.8056  0.4747
  190MOL0     H26197   5.175   7.465   6.417  0.5669  0.1218  2.9026
  190MOL0     H26198   5.161   7.647   6.224  1.2477  0.7357  0.2022
  190MOL0     H26199   5.250   7.746   6.344  0.9095 -1.5853  3.0902
  190MOL0     H26200   5.546   6.600   6.262  0.8402 -0.0122  1.1635
  190MOL0     H26201   5.704   6.426   6.185 -1.5216 -0.4926 -0.6576
  190MOL0     H26202   5.935   6.341   5.596 -0.1756 -1.2569 -0.4478
  190MOL0     H26203   6.070   6.142   5.535 -0.4571 -0.2811 -0.6127
  190MOL0     H26204   5.450   5.741   4.504 -0.8642 -1.2548  1.4657
  190MOL0     H26205   5.254   5.797   4.392 -1.1285  0.2332 -1.8846
  190MOL0     H26206   5.005   5.614   4.032 -0.0793  0.2728 -1.1240
  190MOL0     H26207   4.850   5.647   3.849  2.4306  3.4889  0.1856
  190MOL0     H26208   4.428   5.731   3.980  0.3077  1.5829  1.4471
  190MOL0     H26209   4.474   5.896   3.944 -1.7693  0.4091 -1.8785
  190MOL0     H26210   4.395   5.726   3.716  2.6820  1.0931 -1.1559
  190MOL0     H26211   4.375   5.907   3.739  1.3261 -0.5270 -1.5997
  190MOL0     H26212   4.230   5.663   3.851  2.2254 -0.0280  0.1326
  190MOL0     H26213   4.195   5.814   3.915 -2.6038 -2.8591  1.5569
  190MOL0     H26214   4.114   5.905   3.714  2.7483 -0.1063  0.2623
  190MOL0     H26215   4.020   5.749   3.743 -0.4660  0.0334 -0.9307
  190MOL0     H26216   4.200   5.696   3.369 -0.0284 -1.3977 -0.4380
  190MOL0     H26217   4.579   5.845   4.114 -0.1911  0.0115 -1.0581
  190MOL0     H26218   4.605   5.893   4.322 -0.5891  1.1767  3.7980
  190MOL0     H26219   4.725   5.791   4.400 -0.1452  2.0851  2.7734
  190MOL0     H26220   4.774   5.950   4.355 -2.1576  0.2680  1.8708
  191MOL0     O26221   2.302   2.598   5.036 -0.2769  0.8609 -0.0718
  191MOL0     C26222   2.246   2.489   5.010 -0.5632 -0.5158  0.2972
  191MOL0     O26223   2.309   2.380   4.971 -0.4416  0.5860  0.1817
  191MOL0     C26224   2.425   2.392   4.907 -0.7507  0.1307  0.1735
  191MOL0     C26225   2.429   2.452   4.775  0.4221  0.5957  0.2264
  191MOL0     C26226   2.551   2.445   4.705  0.5622 -0.6431  0.2371
  191MOL0     C26227   2.660   2.375   4.747 -0.5865 -0.2750 -0.9851
  191MOL0     O26228   2.782   2.356   4.679 -0.7881 -0.3341 -0.0388
  191MOL0     C26229   2.795   2.430   4.561  0.3601 -0.1523 -0.1393
  191MOL0     C26230   2.938   2.426   4.516 -0.8443  0.4258 -0.0594
  191MOL0     C26231   2.948   2.456   4.369  0.1724  1.0386  0.5450
  191MOL0     C26232   3.095   2.430   4.323  1.2881  0.7064 -0.6155
  191MOL0     C26233   3.108   2.427   4.172  0.1053 -0.0637 -1.0265
  191MOL0     C26234   3.221   2.340   4.121  0.0304 -0.1791 -0.4141
  191MOL0     C26235   3.354   2.349   4.198 -0.4323  0.3776 -0.4593
  191MOL0     C26236   3.412   2.491   4.204 -0.8749  0.5423  0.4071
  191MOL0     N26237   3.520   2.498   4.309 -0.0841 -0.3205 -0.2376
  191MOL0     C26238   3.559   2.406   4.405 -0.6079 -1.0887 -0.6435
  191MOL0     C26239   3.665   2.453   4.459  0.7007 -0.1365 -0.0730
  191MOL0     C26240   3.741   2.394   4.571  0.1848 -0.4317  0.5606
  191MOL0     C26241   3.855   2.308   4.513  0.2325  0.3628 -0.1670
  191MOL0     C26242   3.906   2.219   4.620  0.2390  0.5393 -0.1267
  191MOL0     C26243   4.000   2.301   4.722 -0.0482 -0.4164  0.3484
  191MOL0     O26244   4.067   2.207   4.805  0.0280 -0.4941 -0.1131
  191MOL0     C26245   4.160   2.263   4.896  0.3451  0.9023  0.4602
  191MOL0     C26246   4.212   2.181   4.991 -0.1516  0.9399  0.8128
  191MOL0     C26247   4.314   2.225   5.079 -0.5390  0.6703  0.3607
  191MOL0     C26248   4.362   2.119   5.187  1.2564  0.6631  0.1700
  191MOL0     C26249   4.365   2.360   5.069  0.4180  0.4280  0.7075
  191MOL0     C26250   4.474   2.422   5.147  0.5780 -0.3519  0.6449
  191MOL0     O26251   4.459   2.556   5.175 -0.6295 -0.1354 -0.3924
  191MOL0     C26252   4.542   2.619   5.267 -0.3481 -0.4918  0.5444
  191MOL0     C26253   4.573   2.749   5.220 -0.5378 -0.1673 -0.2805
  191MOL0     C26254   4.642   2.835   5.308  0.0805 -0.1537  0.6223
  191MOL0     C26255   4.694   2.784   5.435  0.7178 -0.4204  0.8636
  191MOL0     O26256   4.765   2.879   5.511 -0.5049 -0.1515 -0.2316
  191MOL0     C26257   4.844   2.835   5.624 -0.2432  0.4551 -0.5816
  191MOL0     C26258   4.984   2.763   5.600  0.1440 -0.1598  0.7299
  191MOL0     C26259   5.055   2.741   5.731  0.6381  0.5016  0.4428
  191MOL0     C26260   5.201   2.716   5.706 -0.3407  0.5456 -0.7531
  191MOL0     C26261   5.285   2.676   5.838 -0.1116 -0.1800 -0.3061
  191MOL0     C26262   5.307   2.786   5.937  0.7113 -0.6557 -0.1360
  191MOL0     C26263   5.360   2.732   6.069 -0.0704  0.2297  0.2969
  191MOL0     C26264   5.481   2.824   6.123 -0.6240 -0.0207 -0.3829
  191MOL0    Cl26265   5.555   2.717   6.254 -0.1730  0.2522 -0.1668
  191MOL0     C26266   4.654   2.655   5.473  0.1310 -0.4372  0.0853
  191MOL0     C26267   4.588   2.568   5.386 -0.7014  0.0805 -0.0500
  191MOL0     O26268   4.568   2.353   5.183  0.2749  0.2891 -0.7860
  191MOL0     C26269   4.302   2.434   4.974 -0.1748 -0.0709  0.1642
  191MOL0     C26270   4.207   2.391   4.893  0.0934 -1.1113  0.6258
  191MOL0     N26271   3.684   2.576   4.408  0.1777 -0.2614 -0.4663
  191MOL0     N26272   3.602   2.603   4.319  0.3540  0.4391  0.3367
  191MOL0     C26273   2.651   2.316   4.873 -0.3015  0.5452 -0.3030
  191MOL0     C26274   2.546   2.328   4.951  0.5822  0.0296 -0.6754
  191MOL0     C26275   2.096   2.483   5.029  0.3154  0.3714 -0.0414
  191MOL0     C26276   2.038   2.562   5.134 -0.0502 -0.1345 -0.2784
  191MOL0     C26277   1.902   2.555   5.156 -0.2270  0.1978  1.3558
  191MOL0     C26278   1.824   2.459   5.092 -0.4543 -0.1870  0.7088
  191MOL0     O26279   1.693   2.455   5.134 -0.3859 -0.4759 -0.3212
  191MOL0     C26280   1.620   2.330   5.142  0.0508 -0.6094  0.0674
  191MOL0     C26281   1.476   2.338   5.088 -0.2662 -0.2619  1.0192
  191MOL0     C26282   1.386   2.406   5.186 -0.1055  0.4295 -0.6657
  191MOL0     C26283   1.340   2.327   5.312 -0.0525 -0.4555 -0.6369
  191MOL0     C26284   1.287   2.411   5.422 -0.3846  0.6647 -0.1491
  191MOL0     C26285   1.244   2.479   5.515  0.3414 -0.3286  0.1798
  191MOL0     C26286   1.874   2.385   4.984  0.2111 -0.0448 -0.2728
  191MOL0     C26287   2.014   2.397   4.959  0.4884 -0.2477  0.8619
  191MOL0     C26288   2.066   2.323   4.850  0.8153 -0.4525 -0.3868
  191MOL0     H26289   2.334   2.486   4.735 -0.6447 -1.0476  1.2230
  191MOL0     H26290   2.544   2.496   4.610  2.6610 -1.1632 -0.2462
  191MOL0     H26291   2.758   2.533   4.564  2.6429  0.7477 -0.4639
  191MOL0     H26292   2.733   2.383   4.485  1.1673 -0.3892 -0.6622
  191MOL0     H26293   3.008   2.492   4.568  2.2037  0.2302 -3.5021
  191MOL0     H26294   2.974   2.323   4.525  1.5516  1.2567  0.7926
  191MOL0     H26295   2.882   2.388   4.315  0.1276 -0.2267  2.1155
  191MOL0     H26296   2.917   2.557   4.341 -0.6846  0.8482  0.7866
  191MOL0     H26297   3.168   2.486   4.381  1.4171  1.3653 -1.4030
  191MOL0     H26298   3.121   2.326   4.345 -3.8539 -0.3191  2.1232
  191MOL0     H26299   3.135   2.527   4.137  0.4993 -0.1901 -1.0907
  191MOL0     H26300   3.014   2.397   4.126 -0.4605  0.8003 -0.4688
  191MOL0     H26301   3.188   2.236   4.118  0.6648 -0.3717 -1.2541
  191MOL0     H26302   3.244   2.379   4.021 -0.3612  2.0035  0.2896
  191MOL0     H26303   3.422   2.280   4.146 -0.8537 -1.1687  0.9432
  191MOL0     H26304   3.330   2.315   4.300  2.0183  1.5605  0.6095
  191MOL0     H26305   3.460   2.527   4.113 -0.3161  2.2336  1.3260
  191MOL0     H26306   3.332   2.560   4.233 -0.9907 -0.5178  2.8719
  191MOL0     H26307   3.510   2.310   4.418 -1.8541 -0.2312  1.5952
  191MOL0     H26308   3.668   2.336   4.629 -1.7828  0.3380 -1.0329
  191MOL0     H26309   3.771   2.475   4.637  2.1492  0.2960 -1.1074
  191MOL0     H26310   3.828   2.242   4.430  1.9398 -1.7559  0.8600
  191MOL0     H26311   3.934   2.368   4.468 -1.3352 -0.9018 -5.2516
  191MOL0     H26312   3.824   2.172   4.676 -0.6221 -0.3785 -2.0654
  191MOL0     H26313   3.970   2.138   4.583  1.7618  1.8530 -0.4552
  191MOL0     H26314   4.055   2.366   4.654  0.1234 -0.7305  0.1832
  191MOL0     H26315   3.925   2.364   4.772 -0.0853 -0.4900  0.3871
  191MOL0     H26316   4.176   2.080   5.007 -0.6327 -0.0973 -4.6434
  191MOL0     H26317   4.322   2.020   5.163 -1.0901  1.5890  0.0021
  191MOL0     H26318   4.324   2.134   5.288 -0.9988  0.8090 -0.6491
  191MOL0     H26319   4.472   2.115   5.188  1.2409  0.1427  0.3207
  191MOL0     H26320   4.530   2.791   5.130  0.9555  2.9888  0.3329
  191MOL0     H26321   4.649   2.941   5.284 -3.4375  0.6661  2.4760
  191MOL0     H26322   4.867   2.930   5.673 -1.5002  0.3865  0.1735
  191MOL0     H26323   4.792   2.776   5.699 -1.1111 -0.4851 -1.8874
  191MOL0     H26324   4.981   2.664   5.552  1.0412 -0.7293  1.7980
  191MOL0     H26325   5.038   2.831   5.532 -3.2133  0.9759 -1.0285
  191MOL0     H26326   5.008   2.659   5.785 -0.6533  0.1394 -1.1426
  191MOL0     H26327   5.040   2.836   5.784 -1.8207  1.3680 -1.5927
  191MOL0     H26328   5.251   2.799   5.657 -0.6937 -1.3000 -4.5669
  191MOL0     H26329   5.202   2.627   5.643  1.0514  0.0475 -0.0787
  191MOL0     H26330   5.222   2.606   5.894 -0.4164 -1.0899 -1.7413
  191MOL0     H26331   5.374   2.620   5.810  1.5494  1.6686  0.9797
  191MOL0     H26332   5.212   2.840   5.932  0.9116 -0.3937 -1.4466
  191MOL0     H26333   5.384   2.855   5.900 -0.0834  1.1356  1.3732
  191MOL0     H26334   5.408   2.636   6.047  0.1860  0.3972  0.1099
  191MOL0     H26335   5.277   2.731   6.140  0.4171  0.8951  0.9005
  191MOL0     H26336   5.445   2.920   6.160 -1.8077  0.3688 -2.3566
  191MOL0     H26337   5.562   2.851   6.055  0.9114  1.8188  2.0126
  191MOL0     H26338   4.699   2.609   5.560 -1.4969 -2.0377  0.1627
  191MOL0     H26339   4.587   2.466   5.423 -0.3255  0.4486  1.0119
  191MOL0     H26340   4.339   2.534   4.956  0.9374 -0.5368 -0.2261
  191MOL0     H26341   4.181   2.469   4.822 -0.0830  0.1818  2.0697
  191MOL0     H26342   2.748   2.277   4.903  0.3193  1.4553 -1.0778
  191MOL0     H26343   2.545   2.292   5.053 -0.7439 -1.3214 -1.1296
  191MOL0     H26344   2.104   2.614   5.203  0.6328 -1.6827  0.2693
  191MOL0     H26345   1.843   2.610   5.230  1.8495  1.3584  2.2264
  191MOL0     H26346   1.681   2.261   5.084  1.8275  0.7622  0.2302
  191MOL0     H26347   1.618   2.301   5.248 -0.4431 -1.8396 -0.2663
  191MOL0     H26348   1.443   2.237   5.062  0.0499 -0.7708  2.5014
  191MOL0     H26349   1.475   2.402   4.999 -0.7087  1.1367  1.9911
  191MOL0     H26350   1.441   2.493   5.224  0.5477 -0.0771 -0.4197
  191MOL0     H26351   1.301   2.446   5.130  0.0134 -0.1136 -1.2467
  191MOL0     H26352   1.423   2.270   5.355  0.5200  0.7477 -0.1110
  191MOL0     H26353   1.255   2.268   5.277 -0.9767  0.2896  0.3131
  191MOL0     H26354   1.222   2.547   5.595 -0.7921 -1.5256  0.9276
  191MOL0     H26355   1.806   2.329   4.921 -0.8012 -1.4597  1.9609
  191MOL0     H26356   1.989   2.286   4.781 -1.2755  1.4989  0.7771
  191MOL0     H26357   2.125   2.397   4.795 -2.2965  2.6441  0.0918
  191MOL0     H26358   2.132   2.242   4.883  0.8063  0.6002  2.4747
  192MOL0     O26359  10.051   5.509   0.867  0.0120 -0.7876 -0.2356
  192MOL0     C26360  10.107   5.418   0.919  0.2527  0.1376 -0.0458
  192MOL0     O26361  10.246   5.397   0.915 -0.4115 -0.0818 -0.2810
  192MOL0     C26362  10.310   5.486   0.841  0.1246 -0.1694  0.3454
  192MOL0     C26363  10.294   5.481   0.702 -0.1481  0.2119  0.7400
  192MOL0     C26364  10.378   5.560   0.625 -0.5131 -0.0193  0.2216
  192MOL0     C26365  10.467   5.652   0.688  0.2602  0.3218  0.1747
  192MOL0     O26366  10.545   5.724   0.601  0.0412 -0.3818 -0.7093
  192MOL0     C26367  10.623   5.834   0.655 -0.4251 -0.1092  0.0715
  192MOL0     C26368  10.765   5.792   0.709 -0.1083  0.2911  0.2817
  192MOL0     C26369  10.826   5.688   0.611  0.1907  0.2469  0.0134
  192MOL0     C26370  10.964   5.662   0.677 -0.3316 -0.1586  0.1187
  192MOL0     C26371  11.073   5.636   0.579 -0.1395 -0.4102  0.0698
  192MOL0     C26372  11.217   5.628   0.652  1.0127  0.9179  0.0132
  192MOL0     C26373  11.254   5.492   0.691  0.3437  0.7860  0.3963
  192MOL0     C26374  11.328   5.412   0.579 -0.5160 -0.3469  0.3155
  192MOL0     N26375  11.463   5.374   0.606  0.0282 -0.0129 -0.4619
  192MOL0     C26376  11.502   5.283   0.703  0.0357  1.3090 -0.3465
  192MOL0     C26377  11.637   5.295   0.711 -0.4251 -0.1311  0.2716
  192MOL0     C26378  11.737   5.205   0.789 -0.7212 -0.2157  0.0439
  192MOL0     C26379  11.832   5.285   0.872  0.0752  0.2042 -0.3089
  192MOL0     C26380  11.971   5.319   0.814  0.8231 -0.2439 -0.0663
  192MOL0     C26381  12.030   5.440   0.888  0.2875  0.4319 -0.2172
  192MOL0     O26382  12.064   5.417   1.027 -0.6793 -0.8348  0.4121
  192MOL0     C26383  12.178   5.336   1.041  0.1663 -0.0311 -0.5195
  192MOL0     C26384  12.196   5.283   1.168  0.8608  0.0100  0.5220
  192MOL0     C26385  12.288   5.183   1.198  1.0450 -0.5021 -0.0373
  192MOL0     C26386  12.274   5.121   1.331  0.0183  0.0431 -0.0032
  192MOL0     C26387  12.385   5.147   1.096  0.9886 -0.2395 -0.0071
  192MOL0     C26388  12.481   5.048   1.123  0.1420 -0.3673 -0.2999
  192MOL0     O26389  12.554   5.067   1.234  0.4313  0.5579 -0.4020
  192MOL0     C26390  12.652   4.979   1.282 -0.0281  0.0158 -0.4633
  192MOL0     C26391  12.710   5.011   1.404  1.4491  0.1895 -0.0857
  192MOL0     C26392  12.811   4.933   1.461  0.1482 -0.2906 -0.5246
  192MOL0     C26393  12.856   4.821   1.401  0.3708 -0.5177  0.3970
  192MOL0     O26394  12.947   4.731   1.441 -0.1751 -0.2091 -0.6662
  192MOL0     C26395  13.047   4.765   1.538  0.4941 -0.3425 -0.5188
  192MOL0     C26396  13.161   4.667   1.551  0.7728 -0.3600 -0.0121
  192MOL0     C26397  13.106   4.538   1.608 -0.0075 -0.1988 -0.7654
  192MOL0     C26398  13.218   4.470   1.700  1.0244 -0.1820 -0.0984
  192MOL0     C26399  13.161   4.337   1.756  0.2597  0.3495 -0.2369
  192MOL0     C26400  13.257   4.275   1.857  1.0049  0.0281  0.6539
  192MOL0     C26401  13.193   4.189   1.964  0.4588 -0.8301 -0.1611
  192MOL0     C26402  13.092   4.107   1.886  0.2790  0.3827  0.3140
  192MOL0    Cl26403  13.143   3.978   1.777 -0.3188  0.6426 -0.1318
  192MOL0     C26404  12.804   4.788   1.274  0.6645 -0.7067  0.0968
  192MOL0     C26405  12.701   4.862   1.218 -0.1105 -0.1205 -0.1827
  192MOL0     O26406  12.479   4.946   1.054  0.3936 -0.7367 -1.1662
  192MOL0     C26407  12.379   5.207   0.971 -0.4061 -0.6590  0.4996
  192MOL0     C26408  12.271   5.296   0.948  0.3206  0.5640  0.8808
  192MOL0     N26409  11.684   5.384   0.616  0.4319 -0.3723 -0.2958
  192MOL0     N26410  11.580   5.423   0.551  0.0248 -0.2688 -0.8929
  192MOL0     C26411  10.477   5.664   0.821  0.5344  0.1611 -0.2873
  192MOL0     C26412  10.404   5.573   0.897  0.0340 -0.0057 -0.6482
  192MOL0     C26413  10.012   5.321   0.978 -0.6525  0.7553  0.4519
  192MOL0     C26414   9.891   5.309   0.921  0.0632 -0.2269  0.7886
  192MOL0     C26415   9.802   5.207   0.958  0.5245  0.0777 -0.7572
  192MOL0     C26416   9.832   5.120   1.062 -0.7569  0.2950  0.5392
  192MOL0     O26417   9.736   5.024   1.092  0.1260  0.2806  0.0011
  192MOL0     C26418   9.790   4.895   1.139 -0.7578 -0.2677  0.0086
  192MOL0     C26419   9.686   4.785   1.102  0.9776 -0.1641  0.4379
  192MOL0     C26420   9.654   4.777   0.947 -0.7640 -0.3831  0.1979
  192MOL0     C26421   9.543   4.679   0.932  0.0667 -0.2031 -0.4286
  192MOL0     C26422   9.511   4.681   0.791 -0.0153 -0.1680 -0.5106
  192MOL0     C26423   9.469   4.657   0.680  0.4755 -0.6437  0.6956
  192MOL0     C26424   9.952   5.134   1.135 -0.4975  0.2860 -0.6968
  192MOL0     C26425  10.046   5.228   1.090 -0.4530  0.6625 -0.4822
  192MOL0     C26426  10.169   5.243   1.172 -0.9849 -1.0437 -0.2017
  192MOL0     H26427  10.236   5.405   0.652  2.9996 -1.2130 -1.0748
  192MOL0     H26428  10.374   5.539   0.518  1.9601  0.6537 -0.0855
  192MOL0     H26429  10.565   5.900   0.721 -0.7479 -0.6498  0.3361
  192MOL0     H26430  10.648   5.896   0.569  0.9409  0.7111  1.0066
  192MOL0     H26431  10.821   5.885   0.713  1.3547 -0.5928  1.5503
  192MOL0     H26432  10.744   5.752   0.809 -0.6370 -2.3146 -0.7919
  192MOL0     H26433  10.771   5.594   0.597  2.3571 -1.0967 -0.0974
  192MOL0     H26434  10.842   5.733   0.513  0.7011  1.9670  0.8457
  192MOL0     H26435  10.989   5.758   0.722 -0.1132  1.9651 -4.0209
  192MOL0     H26436  10.959   5.581   0.750 -0.9908  0.7164  1.0700
  192MOL0     H26437  11.082   5.731   0.524  0.1620 -0.6067 -0.2258
  192MOL0     H26438  11.049   5.555   0.509  0.1326 -0.5892  0.1848
  192MOL0     H26439  11.297   5.663   0.587  2.1469  2.6218  2.1719
  192MOL0     H26440  11.203   5.687   0.743 -2.5164 -1.6212  1.3339
  192MOL0     H26441  11.164   5.437   0.720  0.3870  0.8434  0.6379
  192MOL0     H26442  11.313   5.489   0.783  1.7385 -1.1633 -0.4907
  192MOL0     H26443  11.261   5.327   0.564  0.0506 -0.1794 -4.8918
  192MOL0     H26444  11.345   5.468   0.487  1.5243 -0.0624  0.7975
  192MOL0     H26445  11.445   5.207   0.757  0.9746  0.5370 -0.4217
  192MOL0     H26446  11.798   5.150   0.717  0.7072  0.7090  0.5021
  192MOL0     H26447  11.690   5.121   0.841 -0.8662 -0.5349 -0.5930
  192MOL0     H26448  11.779   5.377   0.899 -0.8650 -0.9499  2.0647
  192MOL0     H26449  11.851   5.247   0.973 -1.1448  3.3201  1.2265
  192MOL0     H26450  12.032   5.228   0.821  2.3694  0.7487  0.0060
  192MOL0     H26451  11.947   5.342   0.710 -1.8346 -0.3837  0.4632
  192MOL0     H26452  12.116   5.477   0.831  0.6201  0.9810  0.6246
  192MOL0     H26453  11.957   5.521   0.886  0.0693  0.2558  0.3679
  192MOL0     H26454  12.131   5.322   1.246  1.5724 -0.9138  1.6018
  192MOL0     H26455  12.353   5.156   1.399  0.4642  1.1623 -1.0758
  192MOL0     H26456  12.279   5.013   1.318  0.9153 -0.0375  0.8450
  192MOL0     H26457  12.173   5.146   1.365 -0.2625 -0.0318 -0.7653
  192MOL0     H26458  12.689   5.107   1.451  0.0074 -0.7804  1.3472
  192MOL0     H26459  12.879   4.966   1.539  0.7242 -1.3033 -0.5681
  192MOL0     H26460  13.094   4.862   1.517  1.1041 -0.2058  1.2834
  192MOL0     H26461  12.992   4.783   1.630  0.9812  0.8661 -0.4322
  192MOL0     H26462  13.183   4.630   1.450 -0.0874 -2.5128  0.5332
  192MOL0     H26463  13.243   4.711   1.607  0.3929  2.7606 -1.6495
  192MOL0     H26464  13.082   4.467   1.528 -2.6447  1.0861 -1.1910
  192MOL0     H26465  13.013   4.551   1.664  0.4134  0.0520 -0.1097
  192MOL0     H26466  13.225   4.536   1.786  1.3947 -3.2000  2.3410
  192MOL0     H26467  13.316   4.444   1.658  1.1945 -2.2602  1.4529
  192MOL0     H26468  13.063   4.363   1.798 -0.2716 -1.7304 -0.0629
  192MOL0     H26469  13.155   4.262   1.676  1.4060  1.1707 -1.1304
  192MOL0     H26470  13.305   4.354   1.915  0.3295  1.7726 -1.0361
  192MOL0     H26471  13.331   4.216   1.803 -1.0303  0.3315 -2.7982
  192MOL0     H26472  13.149   4.236   2.052 -0.5486 -1.7379 -0.1513
  192MOL0     H26473  13.272   4.120   1.995  1.9547  0.6965 -0.4291
  192MOL0     H26474  13.005   4.162   1.849 -0.3267  1.0593  2.6185
  192MOL0     H26475  13.030   4.054   1.958 -1.6122  2.2159  0.1081
  192MOL0     H26476  12.831   4.700   1.218 -0.4039 -0.1002 -1.4322
  192MOL0     H26477  12.662   4.840   1.119  1.1666 -0.5103 -0.6143
  192MOL0     H26478  12.438   5.160   0.894  0.6956 -0.8587  1.4481
  192MOL0     H26479  12.258   5.320   0.843  2.0012 -0.3091  0.4347
  192MOL0     H26480  10.545   5.738   0.862  0.4315 -0.0290  0.2459
  192MOL0     H26481  10.413   5.564   1.005  2.1308  0.9989 -0.6785
  192MOL0     H26482   9.854   5.377   0.845 -1.4343  2.1698  3.4783
  192MOL0     H26483   9.700   5.216   0.924  0.4548 -0.4511 -0.7031
  192MOL0     H26484   9.890   4.878   1.098  0.6281 -0.8971  3.3486
  192MOL0     H26485   9.794   4.888   1.248 -0.1751 -2.9370 -0.1164
  192MOL0     H26486   9.594   4.816   1.152  0.5789 -0.0649 -0.3356
  192MOL0     H26487   9.718   4.685   1.131  2.5850 -0.4397 -1.9713
  192MOL0     H26488   9.614   4.871   0.909 -1.0347 -0.7137 -0.3468
  192MOL0     H26489   9.755   4.754   0.909  0.4181  2.5707  1.2347
  192MOL0     H26490   9.453   4.710   0.986 -1.4709 -2.0770 -1.7479
  192MOL0     H26491   9.579   4.579   0.958 -2.1239 -0.7169  0.9241
  192MOL0     H26492   9.427   4.649   0.581  1.6752  2.0952 -0.1286
  192MOL0     H26493   9.971   5.064   1.216  2.4937  1.1424 -0.5341
  192MOL0     H26494  10.189   5.347   1.198 -4.1238 -0.0692 -1.1437
  192MOL0     H26495  10.158   5.206   1.274  0.0768 -0.6588  0.0660
  192MOL0     H26496  10.256   5.196   1.126 -0.2006 -1.8267  1.9793
  193MOL0     O26497   2.889   4.004   0.072  0.7602 -0.0996 -0.5694
  193MOL0     C26498   2.809   3.923   0.028  0.1027  0.1354  0.3988
  193MOL0     O26499   2.848   3.804  -0.021  0.4365 -0.0214 -0.2374
  193MOL0     C26500   2.979   3.772  -0.041 -0.0444  0.2100 -0.0449
  193MOL0     C26501   3.041   3.781  -0.163 -0.7766  0.4818 -0.0011
  193MOL0     C26502   3.171   3.744  -0.170 -0.2622 -0.4097  0.9848
  193MOL0     C26503   3.253   3.688  -0.074 -0.5545 -1.1449  0.4829
  193MOL0     O26504   3.389   3.661  -0.093  0.2402  0.7171  0.5110
  193MOL0     C26505   3.475   3.631   0.017 -0.2003  0.2201 -0.1077
  193MOL0     C26506   3.626   3.632  -0.029  1.3306 -0.2649 -0.6408
  193MOL0     C26507   3.679   3.772  -0.012 -0.4016  0.1186  0.7156
  193MOL0     C26508   3.833   3.779  -0.051  0.3087 -0.3206 -0.0238
  193MOL0     C26509   3.891   3.922  -0.087 -0.7982 -0.0616 -0.3298
  193MOL0     C26510   3.818   4.027   0.002  0.2746 -0.1850 -0.6031
  193MOL0     C26511   3.821   4.020   0.154 -0.8538 -0.0135  0.3695
  193MOL0     C26512   3.737   4.132   0.216 -0.1363  0.6103 -0.1367
  193MOL0     N26513   3.806   4.262   0.227  0.5854 -0.1466 -1.0695
  193MOL0     C26514   3.901   4.296   0.326  0.4296  0.2201 -0.0736
  193MOL0     C26515   3.920   4.431   0.327 -0.3389 -0.5659  0.1766
  193MOL0     C26516   4.012   4.502   0.424  0.3566  1.1352  0.7488
  193MOL0     C26517   4.041   4.635   0.373  0.3708 -0.1829 -0.7067
  193MOL0     C26518   4.145   4.705   0.460 -0.3210 -0.5756 -0.5681
  193MOL0     C26519   4.237   4.797   0.376 -0.4984 -0.3360  0.2210
  193MOL0     O26520   4.143   4.904   0.336 -0.4024  0.0075  0.2185
  193MOL0     C26521   4.197   5.003   0.255 -0.0388  0.3362  0.5531
  193MOL0     C26522   4.330   5.007   0.202 -0.4642  0.3846 -0.0935
  193MOL0     C26523   4.377   5.126   0.150 -1.0390  0.8226  0.1578
  193MOL0     C26524   4.524   5.121   0.105  0.0229  0.0342 -0.8075
  193MOL0     C26525   4.287   5.227   0.115  0.3329 -0.6450  0.2300
  193MOL0     C26526   4.323   5.360   0.043  0.8382 -0.2553 -0.5641
  193MOL0     O26527   4.420   5.351  -0.058 -0.3683 -0.9156 -0.5498
  193MOL0     C26528   4.468   5.472  -0.126 -0.4209  0.3860 -0.6855
  193MOL0     C26529   4.504   5.590  -0.064 -0.5958  0.4338 -0.0772
  193MOL0     C26530   4.548   5.701  -0.140 -0.1238  0.2042 -0.2417
  193MOL0     C26531   4.568   5.690  -0.285  0.0180  0.0542 -0.2170
  193MOL0     O26532   4.591   5.808  -0.338 -0.2137  0.1445  0.2156
  193MOL0     C26533   4.639   5.826  -0.477 -0.5358  0.0252 -0.5064
  193MOL0     C26534   4.634   5.969  -0.525  0.4069  0.3631 -0.3860
  193MOL0     C26535   4.687   6.067  -0.415 -0.2199  0.2476  0.5396
  193MOL0     C26536   4.830   6.027  -0.362  0.0032 -0.5047 -0.3332
  193MOL0     C26537   4.874   6.141  -0.267 -0.0549  0.0381  0.3980
  193MOL0     C26538   5.009   6.108  -0.225 -1.0926  0.4295  0.3679
  193MOL0     C26539   5.053   6.219  -0.137  0.3511  0.3098  0.3303
  193MOL0     C26540   5.173   6.181  -0.064 -0.4483  0.2944  0.1854
  193MOL0    Cl26541   5.150   6.046   0.061 -0.2582  0.4298 -0.6167
  193MOL0     C26542   4.529   5.574  -0.348 -0.0144  0.0735 -0.5603
  193MOL0     C26543   4.483   5.465  -0.269  0.5144 -0.3190  0.3211
  193MOL0     O26544   4.261   5.464   0.074  0.2239  0.6590 -0.9401
  193MOL0     C26545   4.154   5.213   0.156  0.3443 -0.3209  0.0969
  193MOL0     C26546   4.109   5.107   0.239  0.5315  0.1153 -0.0417
  193MOL0     N26547   3.852   4.481   0.212 -0.3649 -0.8138 -0.4772
  193MOL0     N26548   3.776   4.384   0.167  0.5866 -0.4877  0.8035
  193MOL0     C26549   3.182   3.672   0.049  0.2444 -0.2875  0.8583
  193MOL0     C26550   3.045   3.707   0.065  0.3563 -0.0164  0.3263
  193MOL0     C26551   2.659   3.936   0.050 -0.0611 -0.2535 -0.2400
  193MOL0     C26552   2.611   4.001   0.169  0.4982 -0.6674  0.4545
  193MOL0     C26553   2.476   4.011   0.197 -0.7648 -0.1853  1.1720
  193MOL0     C26554   2.383   3.958   0.102 -0.3052 -1.5488  0.9686
  193MOL0     O26555   2.246   3.951   0.116 -0.5545  0.0497  0.0507
  193MOL0     C26556   2.183   3.995   0.241 -0.1438 -0.7064 -0.3267
  193MOL0     C26557   2.208   3.888   0.352 -0.0732 -0.1685 -0.3346
  193MOL0     C26558   2.115   3.902   0.467 -0.3826 -0.3932 -0.2750
  193MOL0     C26559   1.980   3.848   0.436 -0.2548 -0.0809 -0.5485
  193MOL0     C26560   1.897   3.827   0.558 -0.2150 -0.1651  0.1701
  193MOL0     C26561   1.840   3.824   0.664  0.1695 -0.4923 -0.8781
  193MOL0     C26562   2.437   3.897  -0.017 -0.0836  0.6836 -0.6420
  193MOL0     C26563   2.570   3.882  -0.046  0.0673  0.7982 -0.3037
  193MOL0     C26564   2.602   3.801  -0.174  0.4759  0.7088  0.4184
  193MOL0     H26565   2.997   3.823  -0.253  0.8320 -1.7354 -1.9853
  193MOL0     H26566   3.230   3.763  -0.258  0.2775 -1.0274  1.2041
  193MOL0     H26567   3.447   3.530   0.051  1.4279 -0.6231 -1.1121
  193MOL0     H26568   3.464   3.704   0.097 -0.1938  2.6083 -2.1882
  193MOL0     H26569   3.703   3.584   0.032  3.7772  4.8532  0.8585
  193MOL0     H26570   3.646   3.598  -0.131  1.0666  1.6317 -1.3809
  193MOL0     H26571   3.627   3.841  -0.080 -0.2812 -0.1177  0.3828
  193MOL0     H26572   3.642   3.811   0.083 -1.2717  1.4424 -0.1172
  193MOL0     H26573   3.890   3.732   0.030 -1.8465  2.6610  3.5314
  193MOL0     H26574   3.846   3.724  -0.145 -3.1684 -0.5093 -0.5082
  193MOL0     H26575   3.868   3.937  -0.193 -1.4288 -1.5310 -0.4319
  193MOL0     H26576   3.998   3.905  -0.072 -1.2162 -1.3435  1.5962
  193MOL0     H26577   3.869   4.124  -0.007  1.1535 -0.6973 -1.2611
  193MOL0     H26578   3.713   4.032  -0.027  1.0217 -0.8784 -3.7495
  193MOL0     H26579   3.924   4.042   0.184 -0.5850  0.2855 -0.7470
  193MOL0     H26580   3.779   3.922   0.175 -1.7357 -0.1476 -1.7909
  193MOL0     H26581   3.650   4.160   0.156  0.0010  1.7012  0.1427
  193MOL0     H26582   3.724   4.103   0.321 -0.0295 -0.0074 -0.2889
  193MOL0     H26583   3.941   4.227   0.399  1.1129  0.7202  0.0294
  193MOL0     H26584   4.108   4.451   0.423 -0.7642 -1.1379 -0.8452
  193MOL0     H26585   3.969   4.490   0.524  1.0410 -2.0055  0.7720
  193MOL0     H26586   4.085   4.624   0.274  2.7277  0.1235  0.2321
  193MOL0     H26587   3.948   4.693   0.377  1.7939  2.2782 -1.2751
  193MOL0     H26588   4.099   4.762   0.541  0.0853 -3.0757  1.5477
  193MOL0     H26589   4.215   4.632   0.503 -0.0476  0.6956  1.2569
  193MOL0     H26590   4.320   4.843   0.429  0.9300 -0.4844 -1.7559
  193MOL0     H26591   4.267   4.745   0.284  0.2390  0.1337  0.1833
  193MOL0     H26592   4.395   4.921   0.213 -0.5329  0.1678 -1.2702
  193MOL0     H26593   4.542   5.086   0.002 -0.1307  1.0976 -1.2085
  193MOL0     H26594   4.584   5.063   0.175 -0.4200 -0.9172 -1.2011
  193MOL0     H26595   4.552   5.227   0.105 -1.9759  0.6094 -0.2602
  193MOL0     H26596   4.506   5.610   0.043  1.3027  0.8916 -0.1694
  193MOL0     H26597   4.570   5.790  -0.082  2.5925  0.1581 -1.0202
  193MOL0     H26598   4.745   5.798  -0.473 -0.6745 -0.3327  1.2077
  193MOL0     H26599   4.581   5.760  -0.542 -0.9740  1.5874 -1.7833
  193MOL0     H26600   4.705   5.975  -0.607  0.5275 -1.5666 -0.4862
  193MOL0     H26601   4.529   5.983  -0.552  0.3786  0.6554 -0.1378
  193MOL0     H26602   4.619   6.077  -0.329  0.2042 -0.4175  0.9653
  193MOL0     H26603   4.690   6.164  -0.464  4.8729  1.3035  2.3321
  193MOL0     H26604   4.891   6.018  -0.453  1.6403  2.9236  0.2691
  193MOL0     H26605   4.822   5.928  -0.315 -0.5981 -1.1352 -1.7108
  193MOL0     H26606   4.875   6.234  -0.325 -1.0818 -0.4862 -0.5002
  193MOL0     H26607   4.812   6.145  -0.177  0.3784  0.7539  0.6751
  193MOL0     H26608   5.073   6.096  -0.314 -0.4326  3.4350  0.3174
  193MOL0     H26609   5.010   6.015  -0.167 -1.8963 -0.0133 -0.3102
  193MOL0     H26610   4.981   6.244  -0.059 -0.2896 -1.4636  0.3479
  193MOL0     H26611   5.086   6.305  -0.195  0.5838 -0.7665 -1.1925
  193MOL0     H26612   5.212   6.270  -0.013  1.3967 -0.5000  0.2445
  193MOL0     H26613   5.248   6.155  -0.139 -0.8174 -0.0990 -0.0555
  193MOL0     H26614   4.547   5.550  -0.453  0.7849 -0.6140 -0.2805
  193MOL0     H26615   4.466   5.376  -0.329  2.8119 -0.3179 -0.4346
  193MOL0     H26616   4.075   5.286   0.141  0.8919  0.4849  0.9700
  193MOL0     H26617   4.010   5.116   0.283  0.4890 -2.0024  0.4196
  193MOL0     H26618   3.237   3.625   0.130  6.5123  2.8779 -0.9695
  193MOL0     H26619   2.995   3.682   0.158  0.6857  0.1328  0.5446
  193MOL0     H26620   2.677   4.031   0.250  0.9263  0.2374 -0.1954
  193MOL0     H26621   2.437   4.051   0.290 -1.0964  0.1062  0.9093
  193MOL0     H26622   2.230   4.087   0.277 -2.4610  1.0068 -1.4585
  193MOL0     H26623   2.079   4.022   0.225 -0.5496 -1.9465  0.0845
  193MOL0     H26624   2.308   3.907   0.390 -0.4088 -0.0758  0.5167
  193MOL0     H26625   2.207   3.787   0.309  1.8422 -1.0859  1.6082
  193MOL0     H26626   2.148   3.843   0.554 -3.2430  0.4532  1.5334
  193MOL0     H26627   2.103   4.004   0.505  1.5222 -1.3211  3.2511
  193MOL0     H26628   1.986   3.749   0.389 -1.2057  1.0084 -3.1658
  193MOL0     H26629   1.925   3.914   0.369 -0.0322 -1.7053 -2.4502
  193MOL0     H26630   1.791   3.839   0.758 -0.6751  0.2512 -1.4208
  193MOL0     H26631   2.356   3.863  -0.080 -3.0024  2.1034  2.0534
  193MOL0     H26632   2.519   3.810  -0.244 -0.4219  0.3461  1.4081
  193MOL0     H26633   2.699   3.837  -0.211  1.1947  0.8110  2.2713
  193MOL0     H26634   2.633   3.699  -0.148  2.4806  1.5410  1.5451
  194MOL0     O26635   3.179  10.466   4.943 -0.5455 -0.2324  0.5533
  194MOL0     C26636   3.160  10.370   4.870 -0.1475  0.4045 -0.3093
  194MOL0     O26637   3.260  10.292   4.817 -0.1770 -0.5738 -0.0326
  194MOL0     C26638   3.396  10.336   4.810 -0.6740 -0.9027  0.6159
  194MOL0     C26639   3.498  10.237   4.816  0.0651  0.0542  0.4633
  194MOL0     C26640   3.631  10.277   4.811  0.5810 -0.1136  0.4740
  194MOL0     C26641   3.675  10.410   4.794 -0.9559 -0.3804 -0.4458
  194MOL0     O26642   3.799  10.460   4.793  0.3542  0.3692 -0.1614
  194MOL0     C26643   3.896  10.364   4.761 -0.1180 -0.0074  0.3581
  194MOL0     C26644   4.026  10.438   4.750  0.6361  0.4268 -0.0440
  194MOL0     C26645   4.142  10.348   4.786 -1.3178 -0.3449  0.0738
  194MOL0     C26646   4.277  10.427   4.784 -0.0704  0.2531  0.5969
  194MOL0     C26647   4.386  10.338   4.851  0.1092 -0.2826  0.2334
  194MOL0     C26648   4.516  10.424   4.888  0.1177  0.2265  0.7008
  194MOL0     C26649   4.599  10.452   4.761  0.6722 -0.3434  0.7428
  194MOL0     C26650   4.640  10.326   4.691 -0.1941 -0.0511  0.0399
  194MOL0     N26651   4.772  10.284   4.748  0.3731  0.3983  0.3414
  194MOL0     C26652   4.782  10.212   4.862 -0.2315 -0.7641 -0.6346
  194MOL0     C26653   4.917  10.201   4.879  0.2831  0.2477  0.5392
  194MOL0     C26654   4.992  10.121   4.984  0.7847  0.1937  0.3509
  194MOL0     C26655   5.038  10.223   5.083  0.0541 -0.3589  0.4294
  194MOL0     C26656   5.122  10.166   5.192 -0.1589 -0.1705 -0.5043
  194MOL0     C26657   5.110  10.256   5.311 -0.7047  0.7320 -0.4638
  194MOL0     O26658   5.152  10.397   5.300  0.2012  0.3488  1.0735
  194MOL0     C26659   5.279  10.437   5.300 -0.3082 -0.7899  1.3879
  194MOL0     C26660   5.308  10.573   5.300 -0.3337 -0.4194 -0.2840
  194MOL0     C26661   5.441  10.630   5.312 -0.3561  0.3300  0.5069
  194MOL0     C26662   5.456  10.778   5.319 -0.1849  0.5825 -0.1160
  194MOL0     C26663   5.547  10.539   5.316 -0.0815  1.1149 -1.0113
  194MOL0     C26664   5.698  10.564   5.331  0.6354 -0.1255 -0.3222
  194MOL0     O26665   5.779  10.465   5.368 -0.1234 -0.2633  0.1475
  194MOL0     C26666   5.917  10.481   5.381  0.7540  0.3118 -0.0304
  194MOL0     C26667   5.965  10.581   5.467  0.7172 -0.0217 -1.0892
  194MOL0     C26668   6.101  10.601   5.481 -0.1545  0.1436  0.2467
  194MOL0     C26669   6.198  10.519   5.410  0.2753  0.4086  0.0978
  194MOL0     O26670   6.333  10.546   5.436  0.2633  0.7629 -0.1473
  194MOL0     C26671   6.433  10.453   5.399 -0.6064  1.1092 -0.3999
  194MOL0     C26672   6.545  10.500   5.306  0.7957 -0.2895 -0.4121
  194MOL0     C26673   6.470  10.522   5.163  0.7810  0.0827 -0.6464
  194MOL0     C26674   6.558  10.599   5.075 -0.2660 -0.5524 -1.2801
  194MOL0     C26675   6.689  10.530   5.036  0.1171  0.1444 -0.0029
  194MOL0     C26676   6.782  10.640   4.973  0.0164  0.6911 -0.0080
  194MOL0     C26677   6.882  10.578   4.882 -1.3142 -1.1546 -0.0732
  194MOL0     C26678   7.010  10.652   4.839 -0.2005 -0.0350 -0.6605
  194MOL0    Cl26679   7.100  10.703   4.989  0.1332 -0.2408  0.5487
  194MOL0     C26680   6.145  10.416   5.327  0.0594 -0.8468 -0.4302
  194MOL0     C26681   6.006  10.404   5.307 -0.2271 -1.4031  0.2315
  194MOL0     O26682   5.729  10.679   5.314  0.7581 -0.2550  0.1659
  194MOL0     C26683   5.514  10.401   5.303 -0.1693  0.0335  0.0332
  194MOL0     C26684   5.381  10.350   5.294 -0.0866  0.5637  0.9513
  194MOL0     N26685   4.984  10.267   4.779 -0.0207 -0.1520  0.3670
  194MOL0     N26686   4.896  10.328   4.706 -0.4602 -0.3866 -0.0764
  194MOL0     C26687   3.573  10.509   4.804 -0.1830  0.0588  0.1530
  194MOL0     C26688   3.435  10.471   4.805 -0.3959 -0.1067  0.8377
  194MOL0     C26689   3.030  10.327   4.840 -0.5872  0.1025  0.0523
  194MOL0     C26690   3.016  10.240   4.728  0.2551 -0.7000  1.3769
  194MOL0     C26691   2.889  10.188   4.682 -0.6385 -0.1100  0.7847
  194MOL0     C26692   2.777  10.209   4.748 -0.2359  0.4567  0.0230
  194MOL0     O26693   2.669  10.126   4.710 -0.1182  0.4125 -0.6797
  194MOL0     C26694   2.540  10.149   4.777  0.5772 -0.3006 -0.1017
  194MOL0     C26695   2.511  10.064   4.905 -0.5602  0.4732  0.0603
  194MOL0     C26696   2.443   9.921   4.871 -0.3760 -0.7490  0.7476
  194MOL0     C26697   2.509   9.844   4.761 -0.2377  0.5091 -0.0367
  194MOL0     C26698   2.456   9.700   4.751  0.8098 -1.3745  0.8321
  194MOL0     C26699   2.405   9.586   4.723 -0.0079 -0.0703 -0.2452
  194MOL0     C26700   2.778  10.298   4.858  0.8223 -1.0157  0.8189
  194MOL0     C26701   2.905  10.351   4.903 -0.4281 -0.4767 -0.4625
  194MOL0     C26702   2.898  10.434   5.022  0.1193 -0.3955  0.3599
  194MOL0     H26703   3.478  10.132   4.832 -0.1710  0.4217  3.0550
  194MOL0     H26704   3.714  10.209   4.825  1.4207  0.6591 -0.4939
  194MOL0     H26705   3.871  10.317   4.665  3.5935  3.0127 -2.4478
  194MOL0     H26706   3.896  10.295   4.845  0.3746 -0.3257  0.0978
  194MOL0     H26707   4.037  10.473   4.647 -0.1952  0.7281 -0.0317
  194MOL0     H26708   4.021  10.525   4.816  1.2717  0.6164 -0.2368
  194MOL0     H26709   4.130  10.319   4.890 -0.3481  2.6234  1.1235
  194MOL0     H26710   4.155  10.264   4.717  1.4781  0.1251 -0.1014
  194MOL0     H26711   4.296  10.458   4.681  0.4902 -1.5375  0.1301
  194MOL0     H26712   4.268  10.515   4.849 -0.1373 -0.9626  2.3213
  194MOL0     H26713   4.401  10.244   4.798  1.0080 -0.0094 -0.0144
  194MOL0     H26714   4.365  10.302   4.952  0.5017 -0.4493  0.2554
  194MOL0     H26715   4.481  10.517   4.933  2.4005  2.0934 -1.1286
  194MOL0     H26716   4.578  10.377   4.965 -1.3599 -1.8190  0.7335
  194MOL0     H26717   4.688  10.510   4.788  0.3387  0.5840 -0.0957
  194MOL0     H26718   4.543  10.513   4.690 -0.5991  0.0151  2.0020
  194MOL0     H26719   4.564  10.250   4.710 -0.2144 -0.7139 -2.3453
  194MOL0     H26720   4.668  10.354   4.589  0.9256  1.3695  0.6927
  194MOL0     H26721   4.701  10.162   4.913 -1.0644 -1.5829 -2.6527
  194MOL0     H26722   5.076  10.069   4.936 -0.2323  0.5271 -1.9010
  194MOL0     H26723   4.934  10.043   5.034  2.5106 -1.0083  0.5836
  194MOL0     H26724   5.113  10.289   5.038  2.0053  0.0589  3.8955
  194MOL0     H26725   4.960  10.295   5.110 -0.8622  0.0151 -2.8006
  194MOL0     H26726   5.097  10.060   5.206  1.3563 -0.7653 -1.8780
  194MOL0     H26727   5.230  10.170   5.174  0.6976  5.0540  3.4001
  194MOL0     H26728   5.006  10.251   5.346 -0.5117 -1.6469 -0.0764
  194MOL0     H26729   5.170  10.214   5.392 -3.2717 -0.9186  0.6978
  194MOL0     H26730   5.231  10.647   5.279  0.6514  1.2989  1.7897
  194MOL0     H26731   5.361  10.832   5.308  1.1423  2.8205 -1.4285
  194MOL0     H26732   5.518  10.816   5.237 -2.2174 -0.7576 -2.4224
  194MOL0     H26733   5.483  10.796   5.423 -2.4317 -2.7978  1.2402
  194MOL0     H26734   5.891  10.638   5.522 -1.1384 -3.4679  0.2899
  194MOL0     H26735   6.129  10.681   5.549  3.2826 -0.1302 -0.6898
  194MOL0     H26736   6.476  10.429   5.497 -1.0880  2.3299  0.1443
  194MOL0     H26737   6.397  10.355   5.367  0.9253  0.9766 -1.8022
  194MOL0     H26738   6.601  10.582   5.352  0.2054 -1.3804  2.4624
  194MOL0     H26739   6.611  10.414   5.295 -1.3947 -1.8821 -1.9978
  194MOL0     H26740   6.375  10.576   5.169 -0.0276 -1.3706  0.1592
  194MOL0     H26741   6.444  10.426   5.117  1.4386 -0.1645 -0.5160
  194MOL0     H26742   6.586  10.693   5.123  2.0039 -2.6414  1.9099
  194MOL0     H26743   6.501  10.623   4.984 -1.3308 -0.5278 -0.6255
  194MOL0     H26744   6.739  10.487   5.124 -1.6373 -1.3597  0.3228
  194MOL0     H26745   6.679  10.450   4.962  0.9627  0.7047 -0.7288
  194MOL0     H26746   6.830  10.700   5.051  0.0192  0.9533 -0.2099
  194MOL0     H26747   6.719  10.700   4.907  0.8437 -0.4421 -1.8857
  194MOL0     H26748   6.836  10.534   4.793  1.2919 -2.9851 -0.6284
  194MOL0     H26749   6.921  10.496   4.944  1.1793  2.2917  3.4179
  194MOL0     H26750   6.977  10.750   4.803 -0.5107  1.0886  2.3432
  194MOL0     H26751   7.065  10.601   4.760  0.2278  1.9351 -1.7002
  194MOL0     H26752   6.209  10.345   5.276  3.0611  1.9720 -0.9620
  194MOL0     H26753   5.974  10.333   5.232  0.2505 -0.6107 -0.7420
  194MOL0     H26754   5.600  10.336   5.294  0.3525  0.6882  0.2628
  194MOL0     H26755   5.388  10.244   5.273 -0.4418  0.9022 -1.1141
  194MOL0     H26756   3.603  10.612   4.788  1.0533 -0.3278 -0.1646
  194MOL0     H26757   3.370  10.557   4.803  1.2778  1.2559 -2.7143
  194MOL0     H26758   3.098  10.196   4.674 -0.7185  1.4439 -2.2037
  194MOL0     H26759   2.894  10.124   4.595  0.4684 -2.1265  2.2352
  194MOL0     H26760   2.543  10.256   4.800 -1.3261 -0.3343  0.4576
  194MOL0     H26761   2.455  10.136   4.709 -0.1578  2.4964  0.1880
  194MOL0     H26762   2.451  10.118   4.979  1.1030 -1.1113  2.7368
  194MOL0     H26763   2.612  10.047   4.943 -0.0813  1.0281 -0.9215
  194MOL0     H26764   2.452   9.868   4.967  1.0756 -1.0320  0.4850
  194MOL0     H26765   2.345   9.946   4.829 -0.5464 -0.8951  1.0500
  194MOL0     H26766   2.618   9.847   4.775  0.0398 -2.0345 -1.0906
  194MOL0     H26767   2.485   9.887   4.664 -1.6302  1.1832  0.5759
  194MOL0     H26768   2.355   9.492   4.717  0.2460 -0.1051 -2.5753
  194MOL0     H26769   2.697  10.307   4.930  0.0834  2.0401 -0.2580
  194MOL0     H26770   2.940  10.528   4.985 -0.2093 -1.1087 -2.0315
  194MOL0     H26771   2.799  10.458   5.059  0.2975  2.7458 -0.8811
  194MOL0     H26772   2.969  10.394   5.095  4.8199  1.6075 -2.6032
  195MOL0     O26773   0.918   5.304   6.247  0.0061  0.4488  1.0709
  195MOL0     C26774   0.908   5.232   6.142 -0.4372  0.0047  0.2709
  195MOL0     O26775   1.004   5.181   6.065 -0.6379 -0.1541 -0.2172
  195MOL0     C26776   1.117   5.150   6.140 -0.5097  0.1062 -0.4430
  195MOL0     C26777   1.113   5.059   6.242 -0.0005  0.0554 -0.1680
  195MOL0     C26778   1.231   5.039   6.313 -0.2742  0.0312  0.7301
  195MOL0     C26779   1.351   5.095   6.278 -0.8666  0.5120  0.3433
  195MOL0     O26780   1.470   5.066   6.341 -0.0530  1.2108  0.6394
  195MOL0     C26781   1.466   4.983   6.462  0.9918 -0.2892  0.6380
  195MOL0     C26782   1.610   4.974   6.519 -0.7042 -0.5170 -0.1379
  195MOL0     C26783   1.697   5.092   6.557  0.2936  0.1456  0.2358
  195MOL0     C26784   1.826   5.045   6.635 -0.1143 -0.0539 -0.1978
  195MOL0     C26785   1.931   5.161   6.641  0.4017 -0.2594 -0.1052
  195MOL0     C26786   2.051   5.113   6.720  0.2026 -1.2572 -0.2425
  195MOL0     C26787   2.130   5.244   6.765  0.2759  0.7133  0.4908
  195MOL0     C26788   2.245   5.205   6.851 -0.5770 -0.5130 -0.0351
  195MOL0     N26789   2.283   5.326   6.924 -0.6933 -0.7724 -0.0280
  195MOL0     C26790   2.409   5.382   6.926  0.8715  0.4567 -0.6652
  195MOL0     C26791   2.412   5.457   7.041  0.8087  0.0355  0.7001
  195MOL0     C26792   2.536   5.518   7.091  1.1038  0.6463 -0.2246
  195MOL0     C26793   2.608   5.617   7.000  0.3140  0.5251 -0.4157
  195MOL0     C26794   2.737   5.551   6.946  0.1711  0.8756  0.0313
  195MOL0     C26795   2.865   5.591   7.031  0.4840 -0.7508 -0.8414
  195MOL0     O26796   2.905   5.733   7.014 -0.5428  0.1842 -0.1576
  195MOL0     C26797   2.987   5.777   7.105 -0.0874  0.5089  0.0879
  195MOL0     C26798   2.947   5.812   7.236 -0.4226  0.5897  0.1226
  195MOL0     C26799   3.037   5.873   7.329 -0.0752 -0.7249  0.8007
  195MOL0     C26800   2.983   5.897   7.470  0.0432 -0.4513  0.5519
  195MOL0     C26801   3.174   5.904   7.284  0.8588  0.5304 -1.0339
  195MOL0     C26802   3.280   5.965   7.370  0.5996  0.5129  0.1173
  195MOL0     O26803   3.383   6.030   7.309  1.1034  0.1272 -0.8068
  195MOL0     C26804   3.490   6.095   7.370  0.4493  0.0121  0.7815
  195MOL0     C26805   3.523   6.091   7.507 -0.2879 -0.7537  0.0370
  195MOL0     C26806   3.634   6.159   7.568 -0.2997  0.6496 -0.1170
  195MOL0     C26807   3.712   6.247   7.487 -0.5490 -0.0463 -0.1725
  195MOL0     O26808   3.826   6.318   7.527 -0.2340  0.7886  0.0735
  195MOL0     C26809   3.895   6.277   7.645 -0.0577  0.2542 -0.0262
  195MOL0     C26810   4.037   6.336   7.651  0.0464 -0.1246 -0.2856
  195MOL0     C26811   4.106   6.300   7.523  0.4515  0.8847  0.4123
  195MOL0     C26812   4.225   6.391   7.504  0.0987  0.1173  0.6790
  195MOL0     C26813   4.180   6.526   7.448 -0.5402  0.2340  0.2874
  195MOL0     C26814   4.316   6.611   7.434 -0.8939  0.3593 -0.4210
  195MOL0     C26815   4.379   6.625   7.299  0.9773  0.9281  0.1512
  195MOL0     C26816   4.524   6.658   7.310  0.0571 -0.9538  0.4298
  195MOL0    Cl26817   4.551   6.820   7.397 -0.2298  0.1382 -0.1534
  195MOL0     C26818   3.676   6.253   7.357  0.3236  0.2062  0.4825
  195MOL0     C26819   3.566   6.189   7.299 -0.7738 -0.1712 -0.3531
  195MOL0     O26820   3.270   5.939   7.492 -0.6935 -0.0730  0.4077
  195MOL0     C26821   3.205   5.864   7.148 -0.8108  0.0388  0.7771
  195MOL0     C26822   3.117   5.798   7.060 -0.0775  0.5881 -0.3634
  195MOL0     N26823   2.285   5.434   7.101 -0.4122 -0.3454  0.8843
  195MOL0     N26824   2.210   5.371   7.029 -0.6052 -0.0160 -0.1562
  195MOL0     C26825   1.353   5.177   6.169  0.0411  0.4414 -1.5578
  195MOL0     C26826   1.236   5.210   6.105 -0.3846 -0.2807 -0.2103
  195MOL0     C26827   0.778   5.204   6.092  0.3913  0.4161 -1.0718
  195MOL0     C26828   0.738   5.279   5.982  0.8862 -0.4592  0.3527
  195MOL0     C26829   0.602   5.264   5.935 -0.9450 -0.7441 -0.4769
  195MOL0     C26830   0.509   5.184   6.002 -0.1463 -0.5903  0.2361
  195MOL0     O26831   0.382   5.175   5.948 -0.3264 -0.2837 -0.5640
  195MOL0     C26832   0.288   5.198   6.059 -0.3686  0.1255  0.1723
  195MOL0     C26833   0.152   5.227   6.007  0.4240 -0.5374 -0.2601
  195MOL0     C26834   0.063   5.272   6.130 -0.0827  0.5229  0.1819
  195MOL0     C26835  -0.068   5.347   6.090 -1.1937 -0.9009 -0.5868
  195MOL0     C26836  -0.116   5.318   5.955  0.2121  0.0469  0.4437
  195MOL0     C26837  -0.171   5.309   5.844 -0.1423 -0.0850 -0.2041
  195MOL0     C26838   0.552   5.112   6.111  0.4089 -0.1945 -0.2479
  195MOL0     C26839   0.682   5.119   6.155  0.0388 -0.2024  0.5556
  195MOL0     C26840   0.730   5.031   6.263 -0.0498  0.0534 -0.2992
  195MOL0     H26841   1.023   5.004   6.267  0.0007  0.2405  0.2436
  195MOL0     H26842   1.232   4.966   6.394  0.3492  0.2517  0.9269
  195MOL0     H26843   1.433   4.881   6.440 -1.2486  1.0146 -3.2310
  195MOL0     H26844   1.393   5.025   6.532 -0.0263  1.4684 -1.3592
  195MOL0     H26845   1.612   4.903   6.602  2.2452 -1.1154 -0.6211
  195MOL0     H26846   1.667   4.918   6.444 -1.0790 -1.8004  0.4970
  195MOL0     H26847   1.722   5.162   6.477  2.2544 -0.4211  0.3020
  195MOL0     H26848   1.632   5.152   6.621 -0.5005 -1.5512  1.0750
  195MOL0     H26849   1.804   4.998   6.731  1.5022  0.5969  0.5376
  195MOL0     H26850   1.879   4.970   6.575 -1.4203  1.1502 -3.0341
  195MOL0     H26851   1.890   5.251   6.686  0.9656 -0.2392  0.3775
  195MOL0     H26852   1.964   5.183   6.539  0.3553  2.0990  0.3371
  195MOL0     H26853   2.019   5.045   6.800  3.3858 -1.2103  1.1895
  195MOL0     H26854   2.114   5.047   6.659  0.8490 -0.8840  0.0249
  195MOL0     H26855   2.053   5.300   6.820 -2.4948 -0.8468 -1.5573
  195MOL0     H26856   2.160   5.299   6.676  3.0821 -2.0730 -0.4380
  195MOL0     H26857   2.209   5.127   6.919 -0.1869  0.4290  1.2827
  195MOL0     H26858   2.324   5.176   6.780 -0.7701  2.1944 -1.5077
  195MOL0     H26859   2.492   5.350   6.864  0.0882 -2.0083 -0.5531
  195MOL0     H26860   2.609   5.444   7.126  0.4903 -0.7158 -1.6751
  195MOL0     H26861   2.505   5.560   7.187 -3.7796 -0.3321 -1.0916
  195MOL0     H26862   2.546   5.642   6.913  0.0118  1.0455 -0.0579
  195MOL0     H26863   2.637   5.710   7.051  1.7415  1.9745 -3.5416
  195MOL0     H26864   2.738   5.442   6.942  2.3202  0.5893  3.7783
  195MOL0     H26865   2.744   5.593   6.845 -0.5988 -1.2305 -0.9334
  195MOL0     H26866   2.840   5.582   7.137 -3.4414  3.3049 -1.1017
  195MOL0     H26867   2.953   5.532   7.004  0.6980 -0.4935 -0.7029
  195MOL0     H26868   2.841   5.800   7.258 -1.3420 -1.4121 -4.3678
  195MOL0     H26869   3.017   5.813   7.531  0.7007 -0.1534  0.5989
  195MOL0     H26870   2.874   5.895   7.455 -0.1538  0.0756  1.8487
  195MOL0     H26871   3.018   5.991   7.512 -1.0828 -0.8285  2.4640
  195MOL0     H26872   3.465   6.038   7.583 -1.5128  0.7666  0.2001
  195MOL0     H26873   3.640   6.164   7.676  2.8074  3.9465 -0.2370
  195MOL0     H26874   3.832   6.320   7.723 -0.1121 -0.2415  0.2052
  195MOL0     H26875   3.910   6.169   7.645  0.8719  0.0415 -5.7657
  195MOL0     H26876   4.032   6.445   7.663 -3.7585 -0.2090  0.2029
  195MOL0     H26877   4.092   6.295   7.736  1.2164  0.6638 -0.6344
  195MOL0     H26878   4.041   6.302   7.435  1.4929 -1.4718 -0.4839
  195MOL0     H26879   4.138   6.196   7.535  1.8446  0.9034 -2.3022
  195MOL0     H26880   4.287   6.342   7.429 -1.3702 -1.4644  0.4443
  195MOL0     H26881   4.284   6.403   7.595  0.9337 -3.1554  0.6883
  195MOL0     H26882   4.123   6.526   7.355 -2.7784  0.5511  1.5939
  195MOL0     H26883   4.121   6.580   7.522 -0.3403 -0.0060  0.6194
  195MOL0     H26884   4.387   6.555   7.496 -1.7509  0.3777  0.6105
  195MOL0     H26885   4.297   6.710   7.477 -1.0745  1.3139 -2.5942
  195MOL0     H26886   4.326   6.693   7.231  2.4909  1.5878 -0.4165
  195MOL0     H26887   4.364   6.529   7.249  0.5029  0.3531  1.3653
  195MOL0     H26888   4.565   6.663   7.209  0.3883 -3.0505  0.4187
  195MOL0     H26889   4.576   6.577   7.361  0.9287  0.5168  2.0018
  195MOL0     H26890   3.742   6.306   7.290  1.0014 -1.5337 -0.2911
  195MOL0     H26891   3.537   6.211   7.196 -1.6192  0.9667  0.1044
  195MOL0     H26892   3.299   5.889   7.101 -1.7168  1.3935 -0.4001
  195MOL0     H26893   3.133   5.784   6.954  0.0804  0.0299 -0.2734
  195MOL0     H26894   1.442   5.237   6.148  1.8072 -2.4602 -3.0355
  195MOL0     H26895   1.239   5.297   6.039  2.1686  1.9971  2.6037
  195MOL0     H26896   0.796   5.364   5.946 -0.2900  0.5788  0.8157
  195MOL0     H26897   0.566   5.331   5.858 -2.6268 -0.1521  0.7763
  195MOL0     H26898   0.286   5.118   6.133 -2.2464 -1.4617 -1.4923
  195MOL0     H26899   0.327   5.284   6.116  1.9995 -1.1288  0.5571
  195MOL0     H26900   0.107   5.139   5.960 -1.8105 -0.9334  2.3976
  195MOL0     H26901   0.165   5.314   5.942 -0.4341  0.9699  1.4990
  195MOL0     H26902   0.033   5.180   6.180  1.5583 -1.6184 -2.4838
  195MOL0     H26903   0.108   5.333   6.209  0.3396  0.1887  0.2011
  195MOL0     H26904  -0.037   5.452   6.093  2.3667 -1.8079 -0.4339
  195MOL0     H26905  -0.142   5.328   6.167  0.1423 -0.4844  0.8571
  195MOL0     H26906  -0.211   5.287   5.747 -0.1103 -0.6703 -0.0882
  195MOL0     H26907   0.477   5.043   6.147 -0.6778  2.2989  2.6883
  195MOL0     H26908   0.795   4.957   6.215  0.4899  0.2857  0.0601
  195MOL0     H26909   0.791   5.082   6.339 -0.3457 -0.1826  0.0996
  195MOL0     H26910   0.650   4.981   6.319 -0.1329  1.7927  1.2109
  196MOL0     O26911   1.677   3.622   6.241  0.5838 -0.5124  0.3275
  196MOL0     C26912   1.623   3.517   6.195  0.0089  0.4175 -0.2877
  196MOL0     O26913   1.694   3.403   6.188  0.2474 -0.1849  0.1750
  196MOL0     C26914   1.826   3.400   6.149 -0.0838  1.0088 -0.5930
  196MOL0     C26915   1.922   3.377   6.245 -0.0111  0.0867 -0.4777
  196MOL0     C26916   2.055   3.357   6.209  0.1159  0.1750  0.4475
  196MOL0     C26917   2.088   3.357   6.075 -0.0494  0.0221 -0.3024
  196MOL0     O26918   2.216   3.321   6.049 -0.4351 -0.0100  0.3115
  196MOL0     C26919   2.270   3.395   5.930  0.1066  0.5612 -0.9819
  196MOL0     C26920   2.404   3.453   5.961  0.3597  0.0006 -0.6957
  196MOL0     C26921   2.478   3.480   5.841 -0.0284 -0.3093  0.3648
  196MOL0     C26922   2.610   3.552   5.887  0.0679  0.1431  0.0942
  196MOL0     C26923   2.712   3.564   5.771  0.2054 -0.2230 -0.6177
  196MOL0     C26924   2.846   3.608   5.817 -0.7815  0.6206  0.2617
  196MOL0     C26925   2.945   3.612   5.690 -0.4706  0.3566  0.6386
  196MOL0     C26926   3.084   3.658   5.739 -0.0702 -0.0518  1.0845
  196MOL0     N26927   3.173   3.687   5.626 -0.7255  0.0274  0.1928
  196MOL0     C26928   3.200   3.605   5.519  0.3441  0.2385  0.3012
  196MOL0     C26929   3.262   3.691   5.437 -0.2622  0.2588 -0.3263
  196MOL0     C26930   3.288   3.644   5.294 -0.1475 -0.5753 -0.1866
  196MOL0     C26931   3.419   3.561   5.281 -1.2894 -0.0148 -0.5972
  196MOL0     C26932   3.447   3.532   5.140 -0.4123  0.2602  0.1961
  196MOL0     C26933   3.594   3.477   5.130  0.3112  0.1854  0.6276
  196MOL0     O26934   3.676   3.586   5.125 -0.3514 -0.3079 -0.0292
  196MOL0     C26935   3.812   3.560   5.136  0.7426  0.0846 -0.7171
  196MOL0     C26936   3.873   3.430   5.106 -0.2412  0.6302  0.4358
  196MOL0     C26937   4.014   3.417   5.114  0.1903 -0.3563 -1.2268
  196MOL0     C26938   4.072   3.282   5.080 -0.1342 -0.3887 -0.2507
  196MOL0     C26939   4.092   3.527   5.162  0.0643  0.2619 -0.0500
  196MOL0     C26940   4.246   3.522   5.179  0.2170  0.2841 -0.3474
  196MOL0     O26941   4.311   3.418   5.109  0.1533 -0.1969 -0.2421
  196MOL0     C26942   4.452   3.435   5.086  0.3494  0.7557  0.0364
  196MOL0     C26943   4.540   3.547   5.096  0.5634  0.7339 -1.5767
  196MOL0     C26944   4.678   3.526   5.065 -0.6757 -0.2519  0.8743
  196MOL0     C26945   4.728   3.401   5.029 -0.6894 -0.2615 -0.1321
  196MOL0     O26946   4.858   3.393   5.001 -0.5130  0.5108  0.2353
  196MOL0     C26947   4.939   3.294   5.063 -0.0620  0.1223 -0.3070
  196MOL0     C26948   4.934   3.304   5.216  0.5131  0.6186 -0.2505
  196MOL0     C26949   5.024   3.195   5.284  0.0600  0.2373 -0.4134
  196MOL0     C26950   5.064   3.205   5.431  0.4295 -0.3471  0.7487
  196MOL0     C26951   5.182   3.125   5.465 -0.4132 -0.5818  0.5956
  196MOL0     C26952   5.201   3.117   5.620  0.2074  0.1731  0.1181
  196MOL0     C26953   5.345   3.107   5.655 -0.9903  0.0320 -0.0683
  196MOL0     C26954   5.362   3.117   5.814 -0.1400  0.2826  0.2841
  196MOL0    Cl26955   5.528   3.078   5.862 -0.6194 -0.0175 -0.1082
  196MOL0     C26956   4.636   3.300   5.007  0.4907 -0.8555 -0.0803
  196MOL0     C26957   4.504   3.310   5.047  0.0765 -0.7582 -0.3956
  196MOL0     O26958   4.296   3.614   5.250 -0.8465 -0.3219 -0.2245
  196MOL0     C26959   4.025   3.639   5.205  0.5947 -1.2088  0.2360
  196MOL0     C26960   3.885   3.662   5.198  0.2579 -1.1628 -0.0302
  196MOL0     N26961   3.290   3.812   5.498  0.7721 -0.2545  0.2800
  196MOL0     N26962   3.249   3.795   5.618 -0.3108 -0.1351  0.1129
  196MOL0     C26963   1.989   3.380   5.974 -0.5721 -1.2148 -0.6597
  196MOL0     C26964   1.858   3.407   6.018 -0.5401  0.5139 -0.0196
  196MOL0     C26965   1.468   3.522   6.183 -0.3808  0.4325  0.3710
  196MOL0     C26966   1.408   3.648   6.210 -0.0029  1.0300  0.0748
  196MOL0     C26967   1.271   3.657   6.201  0.0242 -0.1159 -0.4999
  196MOL0     C26968   1.191   3.551   6.167  0.1987 -0.8946 -0.0616
  196MOL0     O26969   1.053   3.560   6.161 -0.3322  0.2759  0.7826
  196MOL0     C26970   0.975   3.680   6.190 -0.0229 -0.0945 -0.5031
  196MOL0     C26971   0.941   3.695   6.339 -0.6563  0.3948 -0.2036
  196MOL0     C26972   0.832   3.803   6.374  0.5056  0.2622 -0.8757
  196MOL0     C26973   0.698   3.776   6.313 -0.5075 -0.2625  0.6991
  196MOL0     C26974   0.647   3.631   6.322 -0.5934  0.2896 -0.7191
  196MOL0     C26975   0.598   3.515   6.334  0.0278 -0.7449 -0.0484
  196MOL0     C26976   1.254   3.437   6.128 -0.4326 -0.0661  0.2480
  196MOL0     C26977   1.394   3.423   6.132  0.4573 -0.7684  0.1854
  196MOL0     C26978   1.452   3.294   6.073 -0.2901  0.7655 -0.2041
  196MOL0     H26979   1.881   3.386   6.345 -2.4168  1.3262 -1.5018
  196MOL0     H26980   2.127   3.347   6.290  1.7496  0.6190 -0.8973
  196MOL0     H26981   2.202   3.472   5.892 -0.2097  0.9715  0.3735
  196MOL0     H26982   2.265   3.312   5.858 -2.1790  0.8036 -1.1795
  196MOL0     H26983   2.390   3.547   6.015  2.8287  2.2878 -3.6162
  196MOL0     H26984   2.461   3.382   6.021 -0.6219 -1.0739 -1.0033
  196MOL0     H26985   2.514   3.391   5.789 -1.5788 -1.7090  1.5612
  196MOL0     H26986   2.422   3.552   5.781  0.0374 -0.4058  0.1878
  196MOL0     H26987   2.585   3.649   5.931 -2.4288 -0.6547  0.5897
  196MOL0     H26988   2.659   3.491   5.962 -0.5105  0.8958  1.1053
  196MOL0     H26989   2.670   3.634   5.698  1.4228  1.7738  0.4817
  196MOL0     H26990   2.723   3.466   5.725 -1.2327 -1.8173  2.1198
  196MOL0     H26991   2.832   3.709   5.857 -0.6683  0.6626  0.1946
  196MOL0     H26992   2.890   3.536   5.887  0.6778  1.3731  0.1474
  196MOL0     H26993   2.907   3.686   5.620 -2.7924 -1.4712 -0.1541
  196MOL0     H26994   2.945   3.512   5.647  2.1053  0.5810 -0.0663
  196MOL0     H26995   3.077   3.741   5.811  1.0272  0.9366  0.1032
  196MOL0     H26996   3.125   3.577   5.801 -0.3244  0.3861  1.8381
  196MOL0     H26997   3.157   3.510   5.491  0.7670  0.2356 -0.3630
  196MOL0     H26998   3.297   3.737   5.238 -1.1307 -0.0901  0.4392
  196MOL0     H26999   3.196   3.599   5.256 -1.3233 -0.7005  2.5519
  196MOL0     H27000   3.504   3.614   5.325 -2.8533  3.0905 -1.0122
  196MOL0     H27001   3.413   3.466   5.335 -1.4532 -0.4445 -1.3520
  196MOL0     H27002   3.373   3.454   5.121 -0.9305  0.9789 -0.8467
  196MOL0     H27003   3.430   3.613   5.069  0.9207 -2.5897 -3.7489
  196MOL0     H27004   3.624   3.425   5.221 -1.9683  1.9397  2.5260
  196MOL0     H27005   3.604   3.408   5.046  1.3608  0.8441  0.1789
  196MOL0     H27006   3.809   3.345   5.086 -0.4047  0.8649 -0.0483
  196MOL0     H27007   3.997   3.216   5.035 -1.5214 -0.5219  2.0778
  196MOL0     H27008   4.130   3.238   5.162 -0.3415 -0.5537 -0.1913
  196MOL0     H27009   4.148   3.291   5.001  1.9047 -1.3602  1.4905
  196MOL0     H27010   4.508   3.648   5.123  0.2525  0.9341 -2.6413
  196MOL0     H27011   4.746   3.610   5.081 -1.1476  0.0733  1.1860
  196MOL0     H27012   4.906   3.193   5.039 -2.7541  0.6874  0.6782
  196MOL0     H27013   5.043   3.301   5.028 -0.1110 -1.9029 -0.9925
  196MOL0     H27014   4.962   3.405   5.247 -1.0839  0.6659  1.1010
  196MOL0     H27015   4.830   3.301   5.248  0.4726  3.5814  0.1490
  196MOL0     H27016   5.119   3.181   5.232  0.8798  2.2551  0.4521
  196MOL0     H27017   4.961   3.105   5.286 -1.6279  1.3527 -1.1614
  196MOL0     H27018   4.977   3.171   5.489 -0.9904 -2.1499 -2.1659
  196MOL0     H27019   5.085   3.311   5.447 -2.5695  0.2697  1.1396
  196MOL0     H27020   5.174   3.024   5.422  1.0618 -0.8232  0.8630
  196MOL0     H27021   5.275   3.157   5.417  0.2249 -1.6959  1.0464
  196MOL0     H27022   5.155   3.025   5.658  2.1141 -0.2888  1.4633
  196MOL0     H27023   5.154   3.204   5.666 -1.0130  0.7911 -2.1443
  196MOL0     H27024   5.422   3.175   5.617 -0.0083 -2.4136 -2.7783
  196MOL0     H27025   5.383   3.011   5.620  0.4798  0.6926 -0.3722
  196MOL0     H27026   5.293   3.047   5.861 -1.2190  1.8508  1.1322
  196MOL0     H27027   5.351   3.221   5.845  3.7846  1.5269 -1.7945
  196MOL0     H27028   4.675   3.209   4.964  3.4681 -0.1193  0.7890
  196MOL0     H27029   4.449   3.217   5.038  1.5141 -2.0095  2.3712
  196MOL0     H27030   4.073   3.728   5.243 -1.4960 -0.8760  2.3265
  196MOL0     H27031   3.841   3.759   5.217  1.8339 -0.8127  2.2861
  196MOL0     H27032   2.006   3.382   5.867 -2.5684 -0.3908 -1.0088
  196MOL0     H27033   1.774   3.434   5.955 -1.2880 -0.7920  0.3711
  196MOL0     H27034   1.477   3.732   6.220  1.2760  0.0344 -0.2031
  196MOL0     H27035   1.222   3.752   6.222  1.6852  0.6909 -0.1012
  196MOL0     H27036   1.031   3.770   6.159  0.3017  0.8803  2.5781
  196MOL0     H27037   0.884   3.680   6.129  0.0053 -1.8678 -0.5937
  196MOL0     H27038   1.035   3.723   6.387 -0.5577  0.8442 -0.6513
  196MOL0     H27039   0.917   3.592   6.368  3.9686 -0.4939  1.3558
  196MOL0     H27040   0.802   3.811   6.479 -1.2345  1.5393 -1.4326
  196MOL0     H27041   0.860   3.905   6.344  0.4694 -0.4422 -3.5180
  196MOL0     H27042   0.698   3.803   6.207  3.5146  1.6836  1.0269
  196MOL0     H27043   0.624   3.842   6.360 -2.6063 -1.7917 -0.2777
  196MOL0     H27044   0.547   3.421   6.339  0.0626 -0.8429 -1.2344
  196MOL0     H27045   1.194   3.353   6.094 -2.5256  2.0879 -1.7952
  196MOL0     H27046   1.364   3.248   6.026 -0.8118  1.4432  0.0935
  196MOL0     H27047   1.522   3.318   5.993 -1.1146 -0.6452 -1.4194
  196MOL0     H27048   1.484   3.224   6.152 -1.9376  0.4812  0.2573
  197MOL0     O27049   1.943   4.618   2.519  0.6199  0.3247  0.5975
  197MOL0     C27050   1.952   4.728   2.473 -0.1893 -0.7053 -0.9406
  197MOL0     O27051   1.861   4.791   2.396 -0.1634 -0.4433  0.5007
  197MOL0     C27052   1.777   4.712   2.318  0.0820  0.8163  0.5264
  197MOL0     C27053   1.831   4.619   2.227 -0.1697  0.3502 -0.7029
  197MOL0     C27054   1.741   4.542   2.163 -0.1123 -0.1350  0.7159
  197MOL0     C27055   1.605   4.540   2.191 -0.5781  0.2927  0.5751
  197MOL0     O27056   1.533   4.453   2.109 -0.5504 -0.0765 -0.4960
  197MOL0     C27057   1.435   4.354   2.176  0.1576  0.2990  0.2781
  197MOL0     C27058   1.322   4.329   2.080  0.7861 -0.0438 -0.0545
  197MOL0     C27059   1.236   4.454   2.071  0.1697 -0.4322 -0.4553
  197MOL0     C27060   1.098   4.422   1.991  0.6993  0.0817 -0.7562
  197MOL0     C27061   1.118   4.350   1.855 -0.4659  0.5661  0.1597
  197MOL0     C27062   0.985   4.312   1.787 -0.0209 -0.3795  0.4890
  197MOL0     C27063   0.922   4.442   1.727  0.0378 -0.3225  0.5825
  197MOL0     C27064   0.818   4.402   1.622 -0.4283  0.8975  0.4600
  197MOL0     N27065   0.833   4.477   1.496  0.0563 -0.5778  0.1542
  197MOL0     C27066   0.934   4.516   1.409 -0.6359  0.6784 -1.0134
  197MOL0     C27067   0.885   4.585   1.309 -0.0467 -0.6259 -0.9036
  197MOL0     C27068   0.961   4.647   1.198 -0.7994  0.2637 -0.6857
  197MOL0     C27069   0.969   4.537   1.090 -0.0157  0.0336  0.3414
  197MOL0     C27070   0.846   4.533   0.992 -0.3331 -0.7719  0.7878
  197MOL0     C27071   0.874   4.430   0.887  0.5668  0.4658  0.6146
  197MOL0     O27072   0.981   4.468   0.798  0.1986  0.8986  0.1643
  197MOL0     C27073   1.031   4.374   0.713 -0.6778 -0.2405 -0.4064
  197MOL0     C27074   1.086   4.253   0.757 -0.4916 -0.0590 -0.1776
  197MOL0     C27075   1.155   4.163   0.670  0.5708 -0.2091 -0.3862
  197MOL0     C27076   1.219   4.045   0.727 -0.7131  0.3011  0.6575
  197MOL0     C27077   1.151   4.192   0.529  0.1177 -0.5617 -1.0341
  197MOL0     C27078   1.215   4.103   0.430  0.2993 -0.5351 -0.3382
  197MOL0     O27079   1.159   4.112   0.307 -0.0708 -0.2593 -0.2375
  197MOL0     C27080   1.207   4.023   0.212  0.4476  0.2205  0.7890
  197MOL0     C27081   1.292   4.076   0.116  0.6417 -0.0088  0.0994
  197MOL0     C27082   1.361   3.997   0.021  0.2807  0.0778  0.4826
  197MOL0     C27083   1.334   3.854   0.021 -0.4213 -0.4337 -0.5165
  197MOL0     O27084   1.371   3.768  -0.070 -0.8516  0.4482 -0.2956
  197MOL0     C27085   1.429   3.815  -0.191 -1.4172  0.1971  0.3681
  197MOL0     C27086   1.497   3.691  -0.262  0.5148 -0.9988 -0.5364
  197MOL0     C27087   1.592   3.605  -0.180  0.3538  0.0291 -0.8198
  197MOL0     C27088   1.736   3.653  -0.143  0.2110  0.0103  0.3553
  197MOL0     C27089   1.829   3.549  -0.203  0.1152  0.4823  0.5553
  197MOL0     C27090   1.810   3.405  -0.150 -0.8365  0.7419 -0.6240
  197MOL0     C27091   1.937   3.320  -0.175  0.3337 -0.0537 -0.1477
  197MOL0     C27092   1.965   3.292  -0.323  1.0134  0.2861 -0.2193
  197MOL0    Cl27093   1.832   3.213  -0.412  0.0613  0.2746  0.2699
  197MOL0     C27094   1.240   3.801   0.120 -1.0243 -0.0305 -0.1700
  197MOL0     C27095   1.184   3.886   0.214 -0.1745 -0.6611 -0.4529
  197MOL0     O27096   1.327   4.060   0.457 -0.3060 -0.3547  0.7082
  197MOL0     C27097   1.089   4.310   0.488 -0.1672 -0.0241  0.5442
  197MOL0     C27098   1.029   4.397   0.573  0.0210  0.3896 -0.0127
  197MOL0     N27099   0.754   4.615   1.339  0.3470  0.3104  0.3580
  197MOL0     N27100   0.719   4.543   1.447 -0.0650  0.6075 -0.1717
  197MOL0     C27101   1.545   4.639   2.269  0.9846  0.1479  0.3439
  197MOL0     C27102   1.630   4.720   2.333  0.3325  0.3801 -0.2206
  197MOL0     C27103   2.061   4.809   2.523  0.1682  0.0636  0.9108
  197MOL0     C27104   2.022   4.940   2.559  0.9337  1.2572  0.5707
  197MOL0     C27105   2.120   5.019   2.604 -0.1688 -0.8088 -0.1893
  197MOL0     C27106   2.248   4.977   2.632 -0.1481 -0.3140 -0.4035
  197MOL0     O27107   2.329   5.070   2.693  0.1045  0.2898  0.2522
  197MOL0     C27108   2.452   5.034   2.751  0.0821  0.8684 -0.1725
  197MOL0     C27109   2.505   5.149   2.836  0.3482 -0.0216 -0.7768
  197MOL0     C27110   2.435   5.159   2.970  0.0115 -0.0950  0.2285
  197MOL0     C27111   2.466   5.052   3.070  0.0666  0.8710 -0.1866
  197MOL0     C27112   2.610   5.022   3.104 -0.5616  0.3014 -0.5671
  197MOL0     C27113   2.733   5.003   3.128  0.8166  0.2175  0.9855
  197MOL0     C27114   2.281   4.843   2.603 -0.1975  0.9651  0.4063
  197MOL0     C27115   2.187   4.751   2.556  0.2202  0.5032  0.4175
  197MOL0     C27116   2.223   4.604   2.541  0.1478 -0.2749 -0.7171
  197MOL0     H27117   1.937   4.598   2.216 -0.5476 -2.2682 -0.1666
  197MOL0     H27118   1.785   4.474   2.091 -0.7591  0.1204  0.0607
  197MOL0     H27119   1.393   4.404   2.264 -1.3150  0.6717 -0.6032
  197MOL0     H27120   1.487   4.260   2.198  0.6694  0.0793 -1.7111
  197MOL0     H27121   1.366   4.295   1.986  1.2780 -2.1992  0.8980
  197MOL0     H27122   1.255   4.250   2.113 -1.1797  1.6735  0.2682
  197MOL0     H27123   1.207   4.486   2.171  0.1225 -0.0908 -0.5777
  197MOL0     H27124   1.288   4.531   2.014  1.0540 -0.9076 -0.3113
  197MOL0     H27125   1.037   4.360   2.058  0.1935  1.4565  0.0913
  197MOL0     H27126   1.041   4.513   1.974 -1.4893 -0.9783  0.4733
  197MOL0     H27127   1.184   4.264   1.862 -1.2490 -0.0084  0.6978
  197MOL0     H27128   1.166   4.425   1.792 -0.2706  0.7189  0.4884
  197MOL0     H27129   1.013   4.238   1.711  0.8151  0.6524 -0.2391
  197MOL0     H27130   0.932   4.268   1.872  1.1867  2.1869  2.7393
  197MOL0     H27131   0.997   4.497   1.669 -0.6461 -0.1382 -0.1506
  197MOL0     H27132   0.881   4.503   1.809 -1.4848  0.5296 -0.7289
  197MOL0     H27133   0.837   4.295   1.608 -1.5381  0.7086  0.2709
  197MOL0     H27134   0.721   4.414   1.670 -0.4959 -0.4181  0.6931
  197MOL0     H27135   1.039   4.492   1.426 -0.4105  1.1346 -1.7107
  197MOL0     H27136   1.062   4.647   1.240 -0.2882 -1.4978 -1.7753
  197MOL0     H27137   0.915   4.744   1.180 -0.6312  0.7184  1.1489
  197MOL0     H27138   1.060   4.547   1.031  0.1201 -0.3170  0.4879
  197MOL0     H27139   0.964   4.438   1.135  0.0896 -0.4853 -0.7617
  197MOL0     H27140   0.757   4.501   1.048 -0.0678  0.2684  1.8529
  197MOL0     H27141   0.830   4.631   0.944 -1.9642 -2.1400 -1.7155
  197MOL0     H27142   0.888   4.331   0.931 -2.2238 -1.0348 -1.5107
  197MOL0     H27143   0.784   4.425   0.825  2.3926 -1.4282 -2.1176
  197MOL0     H27144   1.077   4.233   0.863  1.1365 -0.7308 -0.1389
  197MOL0     H27145   1.208   4.017   0.832  3.9199 -1.9934  0.7546
  197MOL0     H27146   1.326   4.050   0.705 -0.6618  0.9150  1.0342
  197MOL0     H27147   1.170   3.961   0.677 -0.2072  0.8295 -0.7994
  197MOL0     H27148   1.299   4.184   0.122 -1.9354  0.2322  0.1540
  197MOL0     H27149   1.423   4.045  -0.053  1.2895  2.1334  2.5124
  197MOL0     H27150   1.356   3.862  -0.258 -1.2099  0.8241  0.5747
  197MOL0     H27151   1.510   3.887  -0.174  0.1719 -1.1916 -1.0227
  197MOL0     H27152   1.420   3.623  -0.300 -1.8968  0.9340  0.5696
  197MOL0     H27153   1.553   3.720  -0.351  1.0722  1.8442  0.6265
  197MOL0     H27154   1.595   3.513  -0.238 -1.5194 -0.9130  0.4705
  197MOL0     H27155   1.547   3.581  -0.083  1.2678 -0.1285 -0.4253
  197MOL0     H27156   1.749   3.648  -0.034  2.3094 -3.1053  0.1113
  197MOL0     H27157   1.757   3.753  -0.181 -3.4025 -0.1116 -2.4309
  197MOL0     H27158   1.827   3.554  -0.313 -1.0972 -1.8371  0.4170
  197MOL0     H27159   1.932   3.566  -0.170 -0.5254  1.2057  2.2559
  197MOL0     H27160   1.725   3.356  -0.199 -2.8262  4.7086 -1.5961
  197MOL0     H27161   1.789   3.402  -0.043  1.1875 -3.6799 -0.1439
  197MOL0     H27162   1.929   3.228  -0.116 -1.5461 -0.0798 -0.3836
  197MOL0     H27163   2.022   3.374  -0.133 -0.1405  0.0132  0.7346
  197MOL0     H27164   2.053   3.227  -0.334  0.7798 -0.0405 -0.1866
  197MOL0     H27165   1.979   3.392  -0.365 -1.8686  1.2069  0.7878
  197MOL0     H27166   1.214   3.696   0.116  0.6147 -0.4493 -0.8266
  197MOL0     H27167   1.098   3.853   0.271 -0.5490 -0.3066 -0.8008
  197MOL0     H27168   1.092   4.337   0.383 -1.2624  0.0194  0.5164
  197MOL0     H27169   0.998   4.488   0.522  0.2901  0.9983  0.8785
  197MOL0     H27170   1.437   4.638   2.280  0.8407 -0.2524 -0.9457
  197MOL0     H27171   1.585   4.800   2.391 -3.0182 -0.3613 -1.6242
  197MOL0     H27172   1.924   4.981   2.536  1.1254  0.9629 -0.8740
  197MOL0     H27173   2.095   5.119   2.638  0.2554 -0.6322 -0.3982
  197MOL0     H27174   2.424   4.949   2.815 -1.4944  1.3515 -0.1913
  197MOL0     H27175   2.526   4.996   2.680  0.7125 -3.2862  2.3339
  197MOL0     H27176   2.494   5.250   2.797 -4.4629 -0.6478 -1.6048
  197MOL0     H27177   2.612   5.128   2.848  0.4921  0.7508 -0.6669
  197MOL0     H27178   2.467   5.245   3.030  1.3769 -0.9086  0.7218
  197MOL0     H27179   2.327   5.172   2.959 -0.2329 -2.1098 -0.1775
  197MOL0     H27180   2.419   4.962   3.030  0.6654  0.7454 -0.6073
  197MOL0     H27181   2.410   5.083   3.159  3.2399  3.4682  1.1308
  197MOL0     H27182   2.839   4.998   3.142  1.1524  2.4095 -0.2345
  197MOL0     H27183   2.369   4.801   2.650 -0.0138 -0.9898 -1.5545
  197MOL0     H27184   2.187   4.550   2.629 -0.3501  0.0957 -0.6921
  197MOL0     H27185   2.175   4.566   2.450 -1.8220 -1.2262  0.6585
  197MOL0     H27186   2.331   4.590   2.532  0.7701  1.4165  2.4352
  198MOL0     O27187   8.717   7.850   5.648  0.5659  0.8168  0.1306
  198MOL0     C27188   8.741   7.756   5.571 -0.3891  0.2428  0.5932
  198MOL0     O27189   8.857   7.681   5.578 -0.8100 -0.1059  0.5976
  198MOL0     C27190   8.960   7.738   5.650  0.5995 -0.4093  0.0210
  198MOL0     C27191   9.085   7.768   5.592  0.1411 -0.4931  0.4217
  198MOL0     C27192   9.192   7.824   5.665  0.2505 -0.0417 -0.6942
  198MOL0     C27193   9.172   7.852   5.804  0.0632  0.2848  1.0553
  198MOL0     O27194   9.266   7.900   5.887  0.1145 -0.2476 -0.7473
  198MOL0     C27195   9.401   7.875   5.861  0.4987  0.0138 -0.4654
  198MOL0     C27196   9.489   7.961   5.946 -0.4131  1.2991 -0.6309
  198MOL0     C27197   9.483   7.922   6.092 -0.2216 -0.0298 -1.0358
  198MOL0     C27198   9.539   8.039   6.186 -0.2317  0.3791 -0.1972
  198MOL0     C27199   9.671   8.112   6.136  0.0181 -0.0209 -0.5107
  198MOL0     C27200   9.704   8.213   6.254  0.4643 -0.1434 -0.1421
  198MOL0     C27201   9.832   8.288   6.224 -0.5133 -0.7774  0.0334
  198MOL0     C27202   9.867   8.376   6.345  0.1227 -0.3147  0.2350
  198MOL0     N27203  10.004   8.430   6.327  0.6195 -0.2494 -0.2560
  198MOL0     C27204  10.107   8.350   6.287  0.1637 -0.1569  0.5089
  198MOL0     C27205  10.206   8.437   6.255  0.8476 -0.0554 -0.6515
  198MOL0     C27206  10.338   8.401   6.194  0.5397 -0.1976  0.8890
  198MOL0     C27207  10.375   8.500   6.085  0.1154  0.2378  0.3250
  198MOL0     C27208  10.257   8.517   5.992  0.3293 -0.3140  0.3173
  198MOL0     C27209  10.226   8.397   5.909  0.3982 -0.7787 -0.7348
  198MOL0     O27210  10.115   8.439   5.829  0.1135  0.2896  0.1221
  198MOL0     C27211  10.047   8.346   5.748  0.3243  0.2305  0.4209
  198MOL0     C27212  10.060   8.206   5.763 -0.2437 -0.0504 -0.6189
  198MOL0     C27213   9.979   8.117   5.688 -0.2643 -0.0514 -0.2329
  198MOL0     C27214   9.984   7.971   5.730  0.4354 -0.3742  0.2716
  198MOL0     C27215   9.885   8.175   5.601 -0.3774  0.4875  0.1196
  198MOL0     C27216   9.795   8.090   5.531 -0.6707 -0.0952  0.4091
  198MOL0     O27217   9.677   8.073   5.592 -0.2278  0.4989 -0.7236
  198MOL0     C27218   9.586   7.997   5.527 -0.4272 -0.9242  0.6090
  198MOL0     C27219   9.606   7.858   5.509 -0.1505 -0.2199 -0.9932
  198MOL0     C27220   9.507   7.787   5.446  0.4721 -0.1650 -0.1693
  198MOL0     C27221   9.382   7.849   5.401 -0.4994  0.5080 -0.8524
  198MOL0     O27222   9.286   7.791   5.327 -0.3498  0.2134  0.5437
  198MOL0     C27223   9.329   7.692   5.228  0.7141 -0.0615  0.1491
  198MOL0     C27224   9.203   7.682   5.135  0.6932  0.1427  0.5595
  198MOL0     C27225   9.243   7.585   5.018 -0.6174 -0.8990  0.0952
  198MOL0     C27226   9.129   7.591   4.921  0.5668  0.2953 -0.5787
  198MOL0     C27227   9.012   7.515   4.971  0.5302  0.7343  0.3096
  198MOL0     C27228   8.894   7.549   4.893  0.1996  0.6536 -0.3076
  198MOL0     C27229   8.777   7.458   4.930  0.2634  0.0349 -0.4344
  198MOL0     C27230   8.648   7.512   4.861 -0.0135  0.2286 -0.1794
  198MOL0    Cl27231   8.647   7.486   4.687 -0.1230 -0.4254  0.0387
  198MOL0     C27232   9.373   7.988   5.413  0.1415 -1.0481 -0.3274
  198MOL0     C27233   9.469   8.064   5.478  0.0665 -0.0504 -0.4425
  198MOL0     O27234   9.811   8.067   5.412  0.2116  0.3254  0.5463
  198MOL0     C27235   9.875   8.313   5.580 -0.1157 -0.7705 -0.2742
  198MOL0     C27236   9.958   8.399   5.655 -0.0748  0.1796  0.3496
  198MOL0     N27237  10.169   8.564   6.300  0.1998  0.0125 -0.0224
  198MOL0     N27238  10.043   8.563   6.338  0.7427 -0.7959  0.1807
  198MOL0     C27239   9.047   7.833   5.859 -0.8977 -0.2279  0.3565
  198MOL0     C27240   8.942   7.781   5.778 -0.1604 -1.1968 -0.5523
  198MOL0     C27241   8.646   7.727   5.456  0.9552  0.4857 -0.3302
  198MOL0     C27242   8.702   7.734   5.332 -0.9138 -0.2679  0.1150
  198MOL0     C27243   8.623   7.728   5.220  0.4877 -0.3857  0.0686
  198MOL0     C27244   8.482   7.723   5.226 -0.8054  0.3661  0.1246
  198MOL0     O27245   8.418   7.719   5.102 -0.6720  0.7153 -0.6994
  198MOL0     C27246   8.274   7.703   5.107 -0.2907 -0.0713 -0.0259
  198MOL0     C27247   8.220   7.744   4.969  1.0646  0.3361  0.3195
  198MOL0     C27248   8.274   7.659   4.846  0.3163 -0.8347 -0.2468
  198MOL0     C27249   8.208   7.524   4.835 -0.2103 -1.1608 -0.5568
  198MOL0     C27250   8.253   7.448   4.720 -0.2566  0.7607 -0.4163
  198MOL0     C27251   8.288   7.370   4.627 -0.3281 -0.5803 -0.0322
  198MOL0     C27252   8.422   7.712   5.356 -0.2076 -0.1999 -0.5641
  198MOL0     C27253   8.504   7.713   5.468 -0.2854 -0.1627 -0.3625
  198MOL0     C27254   8.444   7.697   5.602 -0.4000 -0.8599  0.7698
  198MOL0     H27255   9.097   7.747   5.486 -0.0909 -0.4804  0.3929
  198MOL0     H27256   9.290   7.834   5.618  2.4654 -1.8659  3.0272
  198MOL0     H27257   9.433   7.910   5.762  1.4785  0.3686 -0.0332
  198MOL0     H27258   9.418   7.767   5.869 -0.1583 -0.1784 -1.4785
  198MOL0     H27259   9.593   7.949   5.912  0.6855  0.2713  2.6830
  198MOL0     H27260   9.457   8.063   5.926 -0.8762  1.1881 -0.4582
  198MOL0     H27261   9.378   7.907   6.119 -0.2224 -0.0090 -1.0291
  198MOL0     H27262   9.543   7.833   6.113  0.8573  0.8208 -0.4127
  198MOL0     H27263   9.457   8.112   6.188 -0.7080 -0.1504 -0.0269
  198MOL0     H27264   9.563   7.984   6.277  0.0260  0.0643 -0.4540
  198MOL0     H27265   9.649   8.162   6.041 -0.9781 -1.8222 -1.2642
  198MOL0     H27266   9.749   8.036   6.129  2.6249  2.4314  0.1384
  198MOL0     H27267   9.620   8.279   6.276 -1.2109 -2.5583  1.2245
  198MOL0     H27268   9.720   8.152   6.343  1.1079  0.2427  0.0140
  198MOL0     H27269   9.819   8.359   6.142  3.1524  0.8407  0.6594
  198MOL0     H27270   9.904   8.206   6.213 -1.3334 -1.7508  1.4596
  198MOL0     H27271   9.794   8.456   6.354  0.4388  0.1099 -0.9069
  198MOL0     H27272   9.870   8.315   6.436 -2.5693 -0.3382  0.3886
  198MOL0     H27273  10.100   8.244   6.269  1.6129 -0.1753 -0.0729
  198MOL0     H27274  10.347   8.300   6.153 -0.7122  0.5541 -1.3951
  198MOL0     H27275  10.415   8.424   6.268 -0.1232  2.2600  0.9018
  198MOL0     H27276  10.396   8.592   6.139 -2.2181  0.7511  0.4626
  198MOL0     H27277  10.467   8.489   6.027  0.3502  1.4095  0.4557
  198MOL0     H27278  10.168   8.549   6.048  1.6419  0.2772  2.1868
  198MOL0     H27279  10.289   8.597   5.924  2.6002 -2.1325 -0.9119
  198MOL0     H27280  10.314   8.365   5.853  1.6579  0.4099  0.4977
  198MOL0     H27281  10.206   8.305   5.964  3.1248 -0.3980  1.0888
  198MOL0     H27282  10.119   8.163   5.843  0.6152  1.1192 -0.5980
  198MOL0     H27283   9.963   7.963   5.837  0.1085 -0.3062  0.2104
  198MOL0     H27284  10.079   7.920   5.710  1.2587  0.6618  1.3486
  198MOL0     H27285   9.914   7.917   5.666  3.5018 -2.6980 -1.4267
  198MOL0     H27286   9.699   7.810   5.536  0.3504  1.5828  0.7222
  198MOL0     H27287   9.530   7.684   5.423 -0.0973 -0.1702 -0.7426
  198MOL0     H27288   9.409   7.725   5.162 -0.1582  0.1138 -0.8486
  198MOL0     H27289   9.351   7.590   5.261 -0.8204 -0.6102 -0.4342
  198MOL0     H27290   9.120   7.646   5.196  0.4467 -0.9740 -0.4036
  198MOL0     H27291   9.177   7.783   5.100  1.4950  0.2324  0.1889
  198MOL0     H27292   9.271   7.481   5.039 -0.3020 -0.4170  2.3423
  198MOL0     H27293   9.331   7.639   4.984 -0.2157 -1.7306 -0.2132
  198MOL0     H27294   9.160   7.562   4.820  2.3336  1.9567 -0.5574
  198MOL0     H27295   9.086   7.691   4.914 -0.1821  0.2004  1.7879
  198MOL0     H27296   9.034   7.411   4.947 -3.6697 -0.9606  2.6554
  198MOL0     H27297   8.989   7.536   5.076 -0.1850  1.8503 -0.0561
  198MOL0     H27298   8.898   7.522   4.787  3.5055 -3.3518  0.6020
  198MOL0     H27299   8.868   7.655   4.905  0.2496  0.6288  0.0269
  198MOL0     H27300   8.769   7.465   5.039  0.5470  1.9645 -0.5026
  198MOL0     H27301   8.795   7.357   4.892  2.2054  0.4506 -0.7511
  198MOL0     H27302   8.631   7.616   4.888  2.5046  0.5160  0.5398
  198MOL0     H27303   8.569   7.451   4.907  0.6739  1.2141  2.4356
  198MOL0     H27304   9.286   8.038   5.372  0.7043 -1.3836 -2.0036
  198MOL0     H27305   9.462   8.170   5.498  0.1865 -0.0069 -0.6358
  198MOL0     H27306   9.807   8.357   5.507 -0.3479 -0.6601  0.0067
  198MOL0     H27307   9.970   8.506   5.642 -0.5431  0.3459  1.2233
  198MOL0     H27308   9.034   7.859   5.963  2.3863  0.6845  0.6570
  198MOL0     H27309   8.849   7.771   5.832 -1.3110 -0.8535 -2.3946
  198MOL0     H27310   8.809   7.756   5.333 -0.8715 -0.1012  3.4182
  198MOL0     H27311   8.666   7.744   5.122 -2.8155  2.9621 -1.1153
  198MOL0     H27312   8.251   7.597   5.118 -2.0745  0.2257 -0.6012
  198MOL0     H27313   8.238   7.769   5.186 -2.2293  0.6061 -1.3988
  198MOL0     H27314   8.249   7.846   4.943  4.3139 -0.6106 -0.2736
  198MOL0     H27315   8.111   7.738   4.974  1.1457 -2.9126  0.8777
  198MOL0     H27316   8.257   7.711   4.751 -4.1593 -1.6383 -0.1000
  198MOL0     H27317   8.382   7.647   4.857  0.8461  3.1920  0.2950
  198MOL0     H27318   8.099   7.521   4.823 -0.1706 -3.0484 -0.5959
  198MOL0     H27319   8.231   7.462   4.921 -1.2151 -2.0021 -0.8770
  198MOL0     H27320   8.318   7.302   4.549  2.3304  0.1176  0.3120
  198MOL0     H27321   8.316   7.692   5.364 -0.6477  0.1145 -3.9754
  198MOL0     H27322   8.374   7.613   5.602  0.1425 -1.3333 -0.3605
  198MOL0     H27323   8.520   7.687   5.680 -0.1648 -0.8063  0.5488
  198MOL0     H27324   8.397   7.793   5.625  3.5343  1.4965 -0.1041
  199MOL0     O27325   3.153   8.483  11.051  0.0593 -1.2023 -0.5496
  199MOL0     C27326   3.146   8.549  10.946 -0.2806 -0.1834  0.9606
  199MOL0     O27327   3.040   8.622  10.909  0.2595 -0.4997 -0.6766
  199MOL0     C27328   2.924   8.620  10.979  0.8693  0.7256  0.1141
  199MOL0     C27329   2.895   8.710  11.078 -0.2228  0.1118 -0.8662
  199MOL0     C27330   2.776   8.729  11.149  0.6162  0.4152 -0.8921
  199MOL0     C27331   2.675   8.633  11.130 -0.7912 -0.1935  0.3436
  199MOL0     O27332   2.566   8.639  11.204 -1.0804  0.2121 -0.3076
  199MOL0     C27333   2.483   8.522  11.190  0.6559  0.4891 -0.0766
  199MOL0     C27334   2.373   8.565  11.081  0.0961  0.2689  0.1880
  199MOL0     C27335   2.252   8.474  11.076 -0.3033  0.1560  0.8400
  199MOL0     C27336   2.267   8.332  11.125  0.2873  0.1397 -0.1007
  199MOL0     C27337   2.138   8.260  11.109  0.3077  0.4292 -0.3412
  199MOL0     C27338   2.154   8.111  11.182  0.0241  0.3020 -0.2542
  199MOL0     C27339   2.155   8.109  11.336 -0.5103  1.0023  0.7957
  199MOL0     C27340   2.031   8.166  11.391  0.0833  0.1481  0.6223
  199MOL0     N27341   1.999   8.141  11.534  0.7313  0.2884  0.7418
  199MOL0     C27342   2.049   8.208  11.633 -0.6204  1.0077 -0.1651
  199MOL0     C27343   1.987   8.160  11.746  0.1427  0.8415 -0.3243
  199MOL0     C27344   2.006   8.205  11.887 -0.7697 -0.1406  0.3306
  199MOL0     C27345   1.920   8.338  11.916 -0.3572  0.9330  0.7960
  199MOL0     C27346   1.911   8.378  12.066 -0.0204 -0.2150 -0.1459
  199MOL0     C27347   2.054   8.427  12.112  0.3905  0.6821 -0.4844
  199MOL0     O27348   2.085   8.553  12.053 -0.2965  0.2340  0.1488
  199MOL0     C27349   2.202   8.609  12.092 -0.0726  0.0535 -0.6623
  199MOL0     C27350   2.192   8.748  12.092  1.0684 -0.1551  0.9063
  199MOL0     C27351   2.296   8.824  12.154 -0.0599  0.1618  0.1762
  199MOL0     C27352   2.273   8.968  12.149 -0.1807  1.6930 -0.1815
  199MOL0     C27353   2.414   8.762  12.208 -0.0165  0.1772  0.5419
  199MOL0     C27354   2.524   8.820  12.277  0.1112 -0.6130 -0.1985
  199MOL0     O27355   2.613   8.740  12.341 -0.0710  0.5743 -0.6923
  199MOL0     C27356   2.738   8.776  12.370 -0.8553  0.2658  0.5043
  199MOL0     C27357   2.762   8.861  12.476  0.9210  0.4181  0.1718
  199MOL0     C27358   2.888   8.909  12.504 -0.1661 -0.8916  0.1062
  199MOL0     C27359   3.001   8.874  12.424 -0.7170  0.0944  0.0308
  199MOL0     O27360   3.130   8.918  12.438 -0.3756  0.8075 -0.4657
  199MOL0     C27361   3.171   9.053  12.453 -0.3850 -0.9769 -0.0725
  199MOL0     C27362   3.289   9.070  12.359  0.3544 -0.1064  1.3627
  199MOL0     C27363   3.314   9.215  12.313 -0.1992 -0.8776 -0.0543
  199MOL0     C27364   3.376   9.296  12.428 -0.2875 -0.6957  0.2473
  199MOL0     C27365   3.522   9.266  12.442 -0.0063  0.3618 -0.3831
  199MOL0     C27366   3.606   9.379  12.503 -0.4167 -0.0834 -0.1224
  199MOL0     C27367   3.744   9.324  12.540  0.0195  0.4487 -0.1878
  199MOL0     C27368   3.842   9.440  12.564 -0.4777  0.0527  0.2761
  199MOL0    Cl27369   3.798   9.525  12.714 -0.0860 -0.4041 -0.2145
  199MOL0     C27370   2.977   8.794  12.319  0.5413  0.5272  0.3431
  199MOL0     C27371   2.846   8.745  12.292 -0.0853 -0.0295  0.3047
  199MOL0     O27372   2.526   8.944  12.286 -0.1768 -0.4409 -0.5014
  199MOL0     C27373   2.429   8.621  12.187  0.5663 -0.2575  0.6448
  199MOL0     C27374   2.319   8.551  12.134  0.4651  0.0264  0.2858
  199MOL0     N27375   1.904   8.065  11.698  0.1531  0.2503  0.6077
  199MOL0     N27376   1.912   8.048  11.577  0.9133 -0.3117  0.5096
  199MOL0     C27377   2.698   8.534  11.021  0.4205  0.1781 -0.3605
  199MOL0     C27378   2.816   8.535  10.948 -0.0237  0.5290 -0.1396
  199MOL0     C27379   3.259   8.547  10.851  0.9507  0.3056 -1.0045
  199MOL0     C27380   3.378   8.494  10.898 -0.4046  0.0664  0.3503
  199MOL0     C27381   3.493   8.481  10.823 -0.1409 -0.5666  0.0226
  199MOL0     C27382   3.492   8.540  10.693 -0.0872 -0.1232 -0.3204
  199MOL0     O27383   3.612   8.548  10.629  0.1540  0.3753 -0.0507
  199MOL0     C27384   3.627   8.605  10.501 -0.0205 -0.0825 -0.4881
  199MOL0     C27385   3.764   8.678  10.489  1.2226  0.5237 -0.0042
  199MOL0     C27386   3.804   8.733  10.630  0.0323  0.4524 -0.5275
  199MOL0     C27387   3.937   8.805  10.619  0.3675  0.3511 -0.0669
  199MOL0     C27388   3.960   8.932  10.703  0.2801  0.7679  0.3038
  199MOL0     C27389   3.991   9.019  10.774  0.0630 -0.7571 -0.0073
  199MOL0     C27390   3.376   8.595  10.653 -0.4259  0.4500  0.4411
  199MOL0     C27391   3.260   8.592  10.724  0.0385  0.8501  0.7035
  199MOL0     C27392   3.137   8.623  10.648 -0.3636  0.5356  0.2716
  199MOL0     H27393   2.972   8.781  11.108  1.2949 -2.0401  0.6825
  199MOL0     H27394   2.770   8.806  11.225  3.7063 -0.6757  0.6180
  199MOL0     H27395   2.434   8.491  11.283  0.2808  0.9107 -0.1307
  199MOL0     H27396   2.523   8.425  11.161 -0.6837  0.0196 -0.4481
  199MOL0     H27397   2.333   8.662  11.111  0.7570  0.2320  1.2351
  199MOL0     H27398   2.420   8.581  10.983  0.2746 -1.6256 -0.0817
  199MOL0     H27399   2.167   8.511  11.133 -0.1509  0.7012  0.7132
  199MOL0     H27400   2.208   8.478  10.976 -1.5489 -0.5631  1.3357
  199MOL0     H27401   2.349   8.280  11.075  2.8625 -0.0583  3.8697
  199MOL0     H27402   2.287   8.332  11.233 -0.6082 -1.6345  0.1087
  199MOL0     H27403   2.106   8.243  11.006 -1.1400 -1.1642  0.3234
  199MOL0     H27404   2.049   8.308  11.149  0.9339  1.2771  0.0722
  199MOL0     H27405   2.060   8.065  11.147  0.3761 -0.0044 -0.8244
  199MOL0     H27406   2.244   8.062  11.143 -3.0358 -3.0058 -4.2411
  199MOL0     H27407   2.245   8.163  11.367  0.8587 -0.6707 -0.1392
  199MOL0     H27408   2.157   8.008  11.377 -1.9447 -0.7867 -3.0938
  199MOL0     H27409   2.026   8.272  11.364 -0.0688 -0.2336 -0.9321
  199MOL0     H27410   1.939   8.133  11.341 -0.1141 -0.5281  1.4110
  199MOL0     H27411   2.125   8.287  11.634  1.0155 -0.4511  2.4235
  199MOL0     H27412   2.113   8.218  11.906 -0.5589 -2.3469  0.9365
  199MOL0     H27413   1.990   8.115  11.946  1.6469 -1.3927 -0.7783
  199MOL0     H27414   1.951   8.422  11.852 -0.0789  0.4837  0.3347
  199MOL0     H27415   1.819   8.312  11.884  0.8146 -1.5772 -1.2495
  199MOL0     H27416   1.841   8.456  12.098 -1.4846 -1.6545  0.2903
  199MOL0     H27417   1.888   8.288  12.123 -1.5212  1.6302  2.4179
  199MOL0     H27418   2.043   8.429  12.221 -0.7715  0.4129 -0.5847
  199MOL0     H27419   2.120   8.343  12.086 -0.3382 -0.2708  0.6682
  199MOL0     H27420   2.102   8.800  12.062  1.4084  0.4598  0.9325
  199MOL0     H27421   2.190   9.004  12.088 -1.4066 -1.0119 -0.2587
  199MOL0     H27422   2.365   9.008  12.106  2.7188 -3.1342  0.7527
  199MOL0     H27423   2.255   8.999  12.252  0.0094 -2.3330  1.2420
  199MOL0     H27424   2.672   8.901  12.522  1.2881 -1.3027  2.5664
  199MOL0     H27425   2.910   8.981  12.583  0.4808  0.8143 -1.5560
  199MOL0     H27426   3.097   9.128  12.425  0.3570  0.8194  2.4107
  199MOL0     H27427   3.200   9.077  12.556 -1.8231  0.2592  0.0788
  199MOL0     H27428   3.382   9.021  12.389  0.9702 -0.6265 -1.1209
  199MOL0     H27429   3.270   9.023  12.262  1.9302  2.7125 -0.4610
  199MOL0     H27430   3.218   9.263  12.293  0.3521  0.9769  1.4374
  199MOL0     H27431   3.378   9.208  12.224  0.4247 -1.4458  0.4315
  199MOL0     H27432   3.323   9.271  12.521  2.2059  1.6019  2.4819
  199MOL0     H27433   3.367   9.402  12.405  0.5095 -0.5006  0.7746
  199MOL0     H27434   3.538   9.168  12.488  0.0426  0.4075 -0.3034
  199MOL0     H27435   3.576   9.259  12.347  0.2325 -0.3930 -0.2015
  199MOL0     H27436   3.561   9.422  12.593  0.8062 -1.7209  1.3552
  199MOL0     H27437   3.619   9.463  12.434 -1.1805 -1.0822 -1.5513
  199MOL0     H27438   3.785   9.261  12.461  0.8521 -1.2565  1.5142
  199MOL0     H27439   3.740   9.258  12.627  2.8603  1.0722  0.5109
  199MOL0     H27440   3.837   9.516  12.486 -2.0791 -0.2468  0.0446
  199MOL0     H27441   3.947   9.410  12.579 -2.1082 -5.4102  4.2262
  199MOL0     H27442   3.054   8.761  12.250  0.7466  0.7629  0.4579
  199MOL0     H27443   2.829   8.674  12.212  0.9181 -0.4128  0.4215
  199MOL0     H27444   2.521   8.570  12.213  2.0296  1.6869 -0.4473
  199MOL0     H27445   2.325   8.443  12.132  1.2833  0.0600  0.3749
  199MOL0     H27446   2.629   8.456  10.991 -1.3280  1.2573  0.6696
  199MOL0     H27447   2.815   8.470  10.860 -2.3696 -2.3311  1.8055
  199MOL0     H27448   3.386   8.458  11.000 -3.1205 -1.3133  0.1573
  199MOL0     H27449   3.586   8.442  10.861 -0.6630 -1.2895  0.5738
  199MOL0     H27450   3.620   8.529  10.423 -1.2022 -1.1828  0.6386
  199MOL0     H27451   3.546   8.674  10.478 -1.3816 -1.1298  0.9741
  199MOL0     H27452   3.762   8.750  10.407 -0.1245 -0.1442 -0.5848
  199MOL0     H27453   3.838   8.600  10.467  0.6378 -0.1434  0.3501
  199MOL0     H27454   3.723   8.796  10.666 -0.6971 -0.9626  0.3691
  199MOL0     H27455   3.806   8.652  10.702 -3.2086  0.1887 -0.6142
  199MOL0     H27456   3.959   8.815  10.513 -1.7707 -3.0803 -0.9916
  199MOL0     H27457   4.013   8.743  10.668 -0.0787  0.3830  0.6824
  199MOL0     H27458   4.007   9.099  10.843  0.4135 -0.9696  0.1629
  199MOL0     H27459   3.369   8.621  10.548  1.0951 -1.7658 -0.2796
  199MOL0     H27460   3.075   8.533  10.638  1.4905 -1.0645  2.3477
  199MOL0     H27461   3.069   8.696  10.693 -1.1803 -0.2879  0.4199
  199MOL0     H27462   3.155   8.664  10.548  0.0296  0.2538  0.2240
  200MOL0     O27463   9.742   5.580   8.129  0.3798 -0.2988  0.1713
  200MOL0     C27464   9.740   5.459   8.109  1.2469  0.3585 -0.2388
  200MOL0     O27465   9.852   5.386   8.078  0.0206  0.1656  0.3136
  200MOL0     C27466   9.961   5.455   8.061 -0.5740 -0.3820  0.2265
  200MOL0     C27467  10.010   5.541   8.160  0.3498  0.3368 -0.0262
  200MOL0     C27468  10.126   5.615   8.140 -0.3793  0.0063 -1.1153
  200MOL0     C27469  10.186   5.609   8.012 -0.8644  0.0329  0.0026
  200MOL0     O27470  10.306   5.682   7.993  0.2895  0.1549 -0.4539
  200MOL0     C27471  10.401   5.666   7.884 -0.8961 -0.6881 -0.5795
  200MOL0     C27472  10.514   5.762   7.884 -0.1822 -0.0862 -0.0446
  200MOL0     C27473  10.604   5.721   7.761  0.1650  0.0514 -0.3450
  200MOL0     C27474  10.746   5.707   7.812 -0.1840  0.0688 -0.1098
  200MOL0     C27475  10.856   5.678   7.702  0.7400  0.4953 -1.0878
  200MOL0     C27476  10.875   5.801   7.609  0.0772 -0.0964  0.0080
  200MOL0     C27477  10.965   5.772   7.488 -0.1437 -0.3064  0.3824
  200MOL0     C27478  11.070   5.878   7.447  0.2169 -0.2934  0.8702
  200MOL0     N27479  11.194   5.851   7.526 -0.0583 -0.3917 -0.0216
  200MOL0     C27480  11.204   5.803   7.653  0.1687  0.2870 -0.0070
  200MOL0     C27481  11.341   5.800   7.673 -0.6920  0.6231  0.3472
  200MOL0     C27482  11.419   5.757   7.792 -0.4954  0.9344 -0.5965
  200MOL0     C27483  11.458   5.606   7.777 -0.8311 -0.3927 -0.1779
  200MOL0     C27484  11.498   5.530   7.905  0.5501 -0.4653  0.1181
  200MOL0     C27485  11.554   5.393   7.859 -0.0202 -0.2065  0.4385
  200MOL0     O27486  11.607   5.319   7.971  0.5692  0.0684  0.6178
  200MOL0     C27487  11.698   5.216   7.950 -0.4035  0.0468 -0.4442
  200MOL0     C27488  11.742   5.130   8.056 -0.3795 -0.2395 -0.0939
  200MOL0     C27489  11.846   5.035   8.027  0.6028 -0.1343  0.0335
  200MOL0     C27490  11.906   4.965   8.148 -0.2501 -0.5139 -0.2120
  200MOL0     C27491  11.906   5.012   7.898 -0.2591 -0.3099  0.6188
  200MOL0     C27492  12.015   4.919   7.863 -0.4671  0.1254 -0.9868
  200MOL0     O27493  12.102   4.891   7.960 -0.2317 -0.4176  0.7830
  200MOL0     C27494  12.203   4.803   7.935 -0.6422  0.0659 -0.7210
  200MOL0     C27495  12.302   4.825   7.832 -0.0522 -0.3903  0.2803
  200MOL0     C27496  12.419   4.748   7.831  0.2641  0.7023 -0.3554
  200MOL0     C27497  12.453   4.663   7.936 -0.5133  0.6291  0.3990
  200MOL0     O27498  12.569   4.599   7.950  0.8636 -0.7076 -0.4221
  200MOL0     C27499  12.676   4.613   7.849  0.7291 -0.4236  0.3081
  200MOL0     C27500  12.819   4.593   7.897 -0.9669 -0.2743  0.1137
  200MOL0     C27501  12.848   4.699   8.006  0.7195 -0.1679 -0.7502
  200MOL0     C27502  12.981   4.663   8.074  0.6863  0.0572  1.3212
  200MOL0     C27503  13.011   4.766   8.171  0.8834 -0.0594  0.8572
  200MOL0     C27504  13.169   4.770   8.181  1.0430  0.8919 -0.2696
  200MOL0     C27505  13.201   4.853   8.302  0.5974  0.3825  0.2908
  200MOL0     C27506  13.354   4.840   8.345  1.0712  0.1899 -0.8459
  200MOL0    Cl27507  13.398   4.677   8.395  0.0500 -0.4075  0.0872
  200MOL0     C27508  12.355   4.639   8.030 -0.3184  0.1405 -0.9595
  200MOL0     C27509  12.232   4.714   8.033  0.9354  0.7173 -0.2329
  200MOL0     O27510  12.016   4.870   7.751  0.3953 -0.0892 -0.4914
  200MOL0     C27511  11.844   5.092   7.802  0.6879 -1.3260 -0.3000
  200MOL0     C27512  11.741   5.183   7.826  0.5333  0.0585  1.2816
  200MOL0     N27513  11.402   5.856   7.562 -0.1029  0.4492  0.6041
  200MOL0     N27514  11.318   5.869   7.471  0.2902  0.0979  0.3100
  200MOL0     C27515  10.144   5.519   7.919 -0.1272  0.3655  0.2116
  200MOL0     C27516  10.038   5.437   7.944  0.0273 -0.1576  0.1461
  200MOL0     C27517   9.606   5.400   8.078 -0.0375 -0.3543 -0.2067
  200MOL0     C27518   9.593   5.328   7.960 -0.4107 -0.4245  0.3712
  200MOL0     C27519   9.476   5.268   7.924 -0.7630  0.1797 -0.2892
  200MOL0     C27520   9.363   5.271   8.004 -0.1816 -0.1608 -0.2963
  200MOL0     O27521   9.241   5.204   7.993 -0.2381 -0.5450  0.2667
  200MOL0     C27522   9.214   5.147   7.859  0.3444  0.2905  0.1363
  200MOL0     C27523   9.085   5.071   7.862 -0.4006  0.4380  0.3386
  200MOL0     C27524   9.032   5.027   7.730  0.5828  1.0095  0.8287
  200MOL0     C27525   8.926   4.917   7.749  0.1551  0.4947 -0.0411
  200MOL0     C27526   8.841   4.897   7.629 -0.2508  0.6382 -0.4291
  200MOL0     C27527   8.777   4.905   7.525 -0.4588  0.9524 -0.0575
  200MOL0     C27528   9.370   5.353   8.119 -0.8656 -0.2265 -0.3718
  200MOL0     C27529   9.490   5.421   8.159 -0.0399  1.0432  0.0088
  200MOL0     C27530   9.469   5.506   8.280  0.2230  0.2392  1.0558
  200MOL0     H27531   9.963   5.531   8.258  0.6877  0.7066  0.1751
  200MOL0     H27532  10.146   5.683   8.222 -2.0932  1.9849 -2.2389
  200MOL0     H27533  10.355   5.668   7.785 -2.1528  3.3944 -0.1218
  200MOL0     H27534  10.447   5.570   7.909 -0.5010 -0.8685 -1.9212
  200MOL0     H27535  10.490   5.863   7.849  1.7189  0.3488 -0.1846
  200MOL0     H27536  10.566   5.760   7.980  0.3575 -0.6774 -0.3426
  200MOL0     H27537  10.560   5.631   7.718 -3.9902  0.4642  2.4949
  200MOL0     H27538  10.595   5.802   7.687 -0.0873  1.0101  0.7021
  200MOL0     H27539  10.777   5.804   7.852  1.9401  0.1399 -1.7431
  200MOL0     H27540  10.750   5.623   7.883 -3.8590  0.0439  0.2538
  200MOL0     H27541  10.824   5.594   7.640  1.7104 -0.3996 -0.3921
  200MOL0     H27542  10.947   5.647   7.753  0.0829 -0.9419 -0.7379
  200MOL0     H27543  10.777   5.828   7.569  1.8979  1.9490 -3.6655
  200MOL0     H27544  10.925   5.878   7.669  1.0451  0.4132 -1.3892
  200MOL0     H27545  10.886   5.759   7.413 -0.0138 -1.7969  0.4730
  200MOL0     H27546  11.001   5.669   7.496 -2.0693 -0.8783  3.0880
  200MOL0     H27547  11.085   5.862   7.340  1.8618 -1.1636  1.1957
  200MOL0     H27548  11.028   5.978   7.461 -2.7789 -1.2089 -0.7361
  200MOL0     H27549  11.129   5.758   7.718  0.0105 -2.2910 -1.8029
  200MOL0     H27550  11.365   5.786   7.883 -0.6178  0.5915 -0.5590
  200MOL0     H27551  11.507   5.820   7.808 -0.3815  0.7474 -0.4936
  200MOL0     H27552  11.377   5.560   7.719  1.2190 -0.0001 -3.6617
  200MOL0     H27553  11.547   5.603   7.713 -1.5364  0.0762 -1.2197
  200MOL0     H27554  11.563   5.598   7.959  2.7782 -2.9279  0.7569
  200MOL0     H27555  11.409   5.529   7.968 -0.6560 -0.6968 -1.5118
  200MOL0     H27556  11.475   5.340   7.805 -1.7044  0.7890  1.7987
  200MOL0     H27557  11.642   5.422   7.801  1.9660  0.5196  3.5864
  200MOL0     H27558  11.696   5.132   8.154 -1.3563 -4.1351 -0.3204
  200MOL0     H27559  11.899   4.855   8.151  2.1615 -0.7579 -1.5430
  200MOL0     H27560  11.851   4.991   8.239  1.0922  1.8291 -0.0044
  200MOL0     H27561  12.010   4.996   8.160 -0.3575  0.4003 -1.4952
  200MOL0     H27562  12.298   4.916   7.773 -0.8228 -1.1465 -0.8797
  200MOL0     H27563  12.479   4.760   7.741 -1.0597  1.0373 -1.2166
  200MOL0     H27564  12.645   4.545   7.769 -0.2034 -1.1412  1.2570
  200MOL0     H27565  12.683   4.713   7.804 -2.3688 -0.5081 -0.5761
  200MOL0     H27566  12.829   4.493   7.941 -1.9018  1.0968  3.8421
  200MOL0     H27567  12.886   4.601   7.811 -4.0853 -0.4163 -2.5222
  200MOL0     H27568  12.767   4.691   8.080  2.9375 -2.9499  1.5929
  200MOL0     H27569  12.858   4.797   7.958 -0.9644 -0.1193 -1.0608
  200MOL0     H27570  13.053   4.656   7.992 -0.1533 -1.2924  0.6659
  200MOL0     H27571  12.967   4.562   8.114 -1.0040 -1.0514 -1.7404
  200MOL0     H27572  12.976   4.863   8.134  0.2810 -1.0458 -1.3514
  200MOL0     H27573  12.959   4.739   8.263 -0.3444 -2.3696 -0.4124
  200MOL0     H27574  13.211   4.808   8.088  2.3610 -0.5579 -0.3079
  200MOL0     H27575  13.203   4.668   8.202  1.7384  1.5862  2.4547
  200MOL0     H27576  13.148   4.825   8.394  2.8346  1.9214  2.1809
  200MOL0     H27577  13.163   4.954   8.287 -3.0612 -0.1007  4.3507
  200MOL0     H27578  13.368   4.905   8.432  1.1858 -1.1687  0.1876
  200MOL0     H27579  13.422   4.887   8.273  0.5284 -0.2935 -1.6898
  200MOL0     H27580  12.382   4.565   8.104  1.9142  0.3138 -1.5328
  200MOL0     H27581  12.152   4.697   8.105 -0.1846  0.4217 -1.5167
  200MOL0     H27582  11.873   5.096   7.697  0.3642  1.0427 -0.3443
  200MOL0     H27583  11.706   5.235   7.737  1.1884  0.8039  1.4523
  200MOL0     H27584  10.195   5.499   7.825 -2.0383 -0.0343 -0.8109
  200MOL0     H27585  10.007   5.360   7.874 -0.4677  0.0593  0.1220
  200MOL0     H27586   9.667   5.321   7.881 -1.6926  1.0107 -1.0281
  200MOL0     H27587   9.485   5.219   7.827  0.2993 -1.5828  0.6404
  200MOL0     H27588   9.200   5.227   7.786  1.7952  0.1571 -0.2996
  200MOL0     H27589   9.297   5.088   7.821 -1.4949 -3.1546  1.0459
  200MOL0     H27590   9.004   5.132   7.904  0.7072  2.8937 -0.9027
  200MOL0     H27591   9.093   4.985   7.929  1.8897  3.1287  3.8830
  200MOL0     H27592   9.006   5.116   7.673 -0.2825  0.4388  0.3112
  200MOL0     H27593   9.100   4.966   7.670 -0.6864 -1.3097  1.6439
  200MOL0     H27594   8.862   4.939   7.835  0.2012  0.7593 -0.0729
  200MOL0     H27595   8.979   4.827   7.781 -0.6750  0.3328  0.9180
  200MOL0     H27596   8.726   4.908   7.432 -2.6360 -0.9947  0.9698
  200MOL0     H27597   9.279   5.365   8.176 -1.0418 -1.7853 -0.2798
  200MOL0     H27598   9.563   5.506   8.336  1.6802 -1.8874 -1.2114
  200MOL0     H27599   9.457   5.609   8.244 -0.8310 -0.3903 -0.4857
  200MOL0     H27600   9.385   5.472   8.341 -0.2459  2.3806  1.6829
  201MOL0     O27601  10.180  11.021   9.260 -0.0915  0.0252 -0.5789
  201MOL0     C27602  10.186  10.918   9.324  0.5136 -0.9884 -0.7914
  201MOL0     O27603  10.139  10.794   9.280 -0.0285 -0.0009  0.1820
  201MOL0     C27604  10.080  10.769   9.160  0.5676  0.0497  1.1052
  201MOL0     C27605  10.089  10.639   9.119  0.2755 -0.3171  0.5028
  201MOL0     C27606  10.040  10.593   9.000 -0.5016 -0.3951  0.4382
  201MOL0     C27607   9.981  10.683   8.910  0.0658 -0.0578 -0.0779
  201MOL0     O27608   9.931  10.633   8.797 -0.4437 -0.0356 -0.4079
  201MOL0     C27609   9.871  10.709   8.692 -0.6702 -0.4628 -0.3380
  201MOL0     C27610   9.722  10.718   8.714 -0.5155  0.3583 -0.8477
  201MOL0     C27611   9.664  10.833   8.639 -0.4248  0.1856  0.3133
  201MOL0     C27612   9.514  10.796   8.603 -0.2939 -0.6740 -0.7327
  201MOL0     C27613   9.453  10.916   8.537 -0.0719 -0.0348  0.8137
  201MOL0     C27614   9.524  10.967   8.412 -0.0604 -0.3286 -0.4703
  201MOL0     C27615   9.542  10.858   8.304 -0.0992 -0.4245  0.1923
  201MOL0     C27616   9.579  10.926   8.176 -0.4841 -0.0586  0.6204
  201MOL0     N27617   9.724  10.959   8.187  0.4979  0.0983 -0.4611
  201MOL0     C27618   9.821  10.867   8.180 -0.4126  0.2183  0.0999
  201MOL0     C27619   9.941  10.923   8.201  0.6148  0.5092 -0.0226
  201MOL0     C27620  10.070  10.844   8.164  0.4350  0.4730  0.0851
  201MOL0     C27621  10.120  10.777   8.296 -0.1038  0.0068 -0.1713
  201MOL0     C27622  10.268  10.753   8.289  0.0444 -0.3218  0.1677
  201MOL0     C27623  10.318  10.718   8.430  1.3619  0.4122  0.5734
  201MOL0     O27624  10.463  10.726   8.433 -0.9311 -0.3791  0.8838
  201MOL0     C27625  10.542  10.617   8.414  0.1250  0.2139 -0.8513
  201MOL0     C27626  10.502  10.513   8.333  0.0034  0.2736  0.4349
  201MOL0     C27627  10.583  10.411   8.309  0.0241  0.1187  0.4929
  201MOL0     C27628  10.534  10.295   8.228  0.8612  0.7995  0.7563
  201MOL0     C27629  10.721  10.406   8.352  0.1469 -0.1053 -0.2331
  201MOL0     C27630  10.817  10.290   8.350 -0.0746  0.0918  0.0600
  201MOL0     O27631  10.771  10.172   8.300  1.1488  0.0052 -0.4971
  201MOL0     C27632  10.865  10.069   8.278  0.1164 -0.3116 -0.6002
  201MOL0     C27633  10.842   9.940   8.332  0.5054 -0.0393 -0.5381
  201MOL0     C27634  10.921   9.824   8.308 -0.6719 -0.2396  0.2468
  201MOL0     C27635  11.029   9.848   8.222 -0.8102 -0.6372  0.7456
  201MOL0     O27636  11.117   9.754   8.172 -0.3763 -0.0918  0.0813
  201MOL0     C27637  11.139   9.637   8.244  0.1542  0.1329 -0.2860
  201MOL0     C27638  11.059   9.534   8.157 -1.3075 -0.5923  0.9852
  201MOL0     C27639  11.146   9.463   8.053  0.1778 -1.6386  0.4148
  201MOL0     C27640  11.227   9.348   8.105  0.7553  0.5513 -1.3273
  201MOL0     C27641  11.329   9.297   8.002  0.6728  0.0411  0.0847
  201MOL0     C27642  11.394   9.165   8.043 -0.1342  0.3732  0.2421
  201MOL0     C27643  11.510   9.107   7.963  0.0796 -0.6262  0.4507
  201MOL0     C27644  11.637   9.186   8.017 -0.1662 -0.4788  0.0220
  201MOL0    Cl27645  11.782   9.071   7.998 -0.1877  0.1789  0.2901
  201MOL0     C27646  11.055   9.971   8.162 -0.1711  0.1442  0.0202
  201MOL0     C27647  10.976  10.085   8.191 -0.1497  0.8060  0.2305
  201MOL0     O27648  10.936  10.307   8.390  0.4140 -0.6074  0.5602
  201MOL0     C27649  10.754  10.515   8.431  1.0817 -0.4091 -1.0194
  201MOL0     C27650  10.671  10.622   8.461 -0.5438 -0.0087  0.8779
  201MOL0     N27651   9.908  11.052   8.234 -0.7503  0.3285 -0.3726
  201MOL0     N27652   9.777  11.071   8.227  0.1435 -0.1641  0.6479
  201MOL0     C27653   9.965  10.820   8.957  0.1393  0.2350  0.3840
  201MOL0     C27654  10.018  10.869   9.080 -0.0208  0.8398 -0.7161
  201MOL0     C27655  10.231  10.920   9.469 -0.3313  0.0815 -0.2361
  201MOL0     C27656  10.217  10.808   9.552  1.2412  0.9138  0.4064
  201MOL0     C27657  10.258  10.806   9.679  0.2359 -1.0553  0.3678
  201MOL0     C27658  10.322  10.910   9.743  0.4181 -0.1997 -0.3085
  201MOL0     O27659  10.352  10.920   9.871 -0.1629 -0.6962 -0.8535
  201MOL0     C27660  10.382  10.793   9.929 -0.5511 -0.9202  0.5015
  201MOL0     C27661  10.460  10.832  10.057  0.5607 -0.2601 -0.4043
  201MOL0     C27662  10.422  10.733  10.165 -0.0814  0.1971  0.2291
  201MOL0     C27663  10.517  10.748  10.291 -0.0645 -0.2414 -0.4585
  201MOL0     C27664  10.459  10.667  10.401  0.2223 -0.1774  0.2570
  201MOL0     C27665  10.419  10.597  10.492 -0.2335  0.0077 -1.4993
  201MOL0     C27666  10.361  11.010   9.657  0.7167  0.2868 -0.3139
  201MOL0     C27667  10.307  11.022   9.527 -1.3446  0.6399 -0.8380
  201MOL0     C27668  10.351  11.140   9.449 -0.1684 -0.3250 -0.2148
  201MOL0     H27669  10.140  10.577   9.193  0.7131 -1.0897 -0.4144
  201MOL0     H27670  10.055  10.489   8.973  1.5119 -0.3518  1.2287
  201MOL0     H27671   9.883  10.660   8.595  0.4684 -1.5398  0.3246
  201MOL0     H27672   9.930  10.801   8.694 -1.2557 -0.0831 -0.1337
  201MOL0     H27673   9.669  10.630   8.677  1.8388 -0.9921 -1.2458
  201MOL0     H27674   9.699  10.727   8.820 -0.0907  1.5719 -0.8425
  201MOL0     H27675   9.660  10.932   8.686 -0.3276  1.8688 -2.9694
  201MOL0     H27676   9.731  10.850   8.555  0.5793 -2.5950  0.4498
  201MOL0     H27677   9.516  10.703   8.545 -3.0463 -0.3419 -1.5172
  201MOL0     H27678   9.453  10.783   8.693 -0.4344  0.5493 -0.6316
  201MOL0     H27679   9.446  11.000   8.608 -1.8382  1.3723 -0.8813
  201MOL0     H27680   9.349  10.890   8.513 -0.4032  1.6722  0.1975
  201MOL0     H27681   9.464  11.051   8.376  0.2895 -0.0401 -0.3940
  201MOL0     H27682   9.619  11.005   8.452 -0.3179 -1.1064  0.9522
  201MOL0     H27683   9.448  10.808   8.280 -1.6764  2.2144  0.4123
  201MOL0     H27684   9.624  10.792   8.331  2.0871  1.6759 -0.9136
  201MOL0     H27685   9.573  10.857   8.091 -0.6674  2.0541 -1.1830
  201MOL0     H27686   9.523  11.018   8.160 -1.2130 -0.2824  1.7863
  201MOL0     H27687   9.796  10.764   8.156 -1.0548 -0.4003  3.0620
  201MOL0     H27688  10.142  10.916   8.124  0.3078  0.0403 -0.9572
  201MOL0     H27689  10.040  10.763   8.097 -0.3477 -0.2216  1.2337
  201MOL0     H27690  10.084  10.848   8.372 -3.0475 -3.0956  1.6068
  201MOL0     H27691  10.055  10.690   8.298 -1.9874  1.2280 -2.8068
  201MOL0     H27692  10.299  10.679   8.216 -0.8730 -3.2096  2.4915
  201MOL0     H27693  10.320  10.847   8.268 -3.4133  2.1361  1.4845
  201MOL0     H27694  10.280  10.788   8.505  1.9378 -1.5467  2.8091
  201MOL0     H27695  10.288  10.615   8.455  0.4530  0.7043  0.7137
  201MOL0     H27696  10.406  10.504   8.283 -0.3944 -1.9747  1.4698
  201MOL0     H27697  10.599  10.252   8.152 -2.4657 -0.0098 -1.8198
  201MOL0     H27698  10.431  10.309   8.196  0.8277 -0.4676  0.2849
  201MOL0     H27699  10.514  10.214   8.299 -1.2713  0.8228  0.2385
  201MOL0     H27700  10.750   9.925   8.387 -0.4503  0.9095 -1.8141
  201MOL0     H27701  10.897   9.728   8.351  2.2433  0.3569  3.6765
  201MOL0     H27702  11.246   9.618   8.252  0.2648  0.2345 -1.3611
  201MOL0     H27703  11.110   9.651   8.348  2.4827  2.2774  0.1626
  201MOL0     H27704  11.021   9.453   8.219 -0.2124 -1.8258  0.0942
  201MOL0     H27705  10.972   9.592   8.124  0.7167  0.7933 -2.3971
  201MOL0     H27706  11.220   9.539   8.027  1.1388 -1.5780  3.0385
  201MOL0     H27707  11.092   9.439   7.961 -0.8539 -1.2219  0.8851
  201MOL0     H27708  11.163   9.267   8.139  1.5047  0.6796  0.4676
  201MOL0     H27709  11.272   9.388   8.196 -1.0010  0.9301 -0.5937
  201MOL0     H27710  11.292   9.290   7.899  1.6675  1.3259 -0.3883
  201MOL0     H27711  11.407   9.373   7.994  0.9992 -0.3495 -0.6231
  201MOL0     H27712  11.318   9.086   8.038  1.4972 -1.4481  2.0764
  201MOL0     H27713  11.420   9.177   8.149  2.3832  1.1455 -0.4070
  201MOL0     H27714  11.500   9.126   7.856 -1.2034 -0.9427  0.5072
  201MOL0     H27715  11.509   9.000   7.983 -2.1186 -0.7141  0.1065
  201MOL0     H27716  11.626   9.230   8.116  1.0933 -0.5512  0.2079
  201MOL0     H27717  11.644   9.277   7.957 -1.3656  1.1642  2.2209
  201MOL0     H27718  11.138   9.993   8.096 -0.2749  0.8952  0.1334
  201MOL0     H27719  11.009  10.183   8.157  1.7677 -0.0631 -0.5677
  201MOL0     H27720  10.852  10.520   8.478  1.1590 -0.4162 -1.1794
  201MOL0     H27721  10.717  10.699   8.522  1.6041  0.4627 -1.1980
  201MOL0     H27722   9.911  10.889   8.892 -2.0231 -1.0359  0.7111
  201MOL0     H27723   9.993  10.970   9.110 -0.2805  0.0193  2.2163
  201MOL0     H27724  10.179  10.711   9.522  2.0820  0.8334 -0.4298
  201MOL0     H27725  10.241  10.711   9.729 -1.8460 -0.1632  1.4859
  201MOL0     H27726  10.289  10.737   9.946 -0.4696 -0.5097  2.5250
  201MOL0     H27727  10.450  10.729   9.872  0.4205 -1.0480  1.7635
  201MOL0     H27728  10.429  10.930  10.092 -1.1155 -1.7481  2.7640
  201MOL0     H27729  10.565  10.830  10.026  0.6947  1.7567 -0.1752
  201MOL0     H27730  10.319  10.754  10.195 -1.3143 -2.5580 -1.5848
  201MOL0     H27731  10.435  10.630  10.129  0.3419  0.0585  0.7605
  201MOL0     H27732  10.531  10.855  10.312  1.4375 -0.3189 -0.9686
  201MOL0     H27733  10.618  10.710  10.274 -0.4918 -1.1463 -1.0056
  201MOL0     H27734  10.369  10.523  10.551 -0.7031  0.6791 -1.0509
  201MOL0     H27735  10.431  11.086   9.690  2.5406 -2.0848  1.7561
  201MOL0     H27736  10.398  11.102   9.358 -1.9161 -3.1104 -0.0624
  201MOL0     H27737  10.270  11.204   9.412  1.5616  1.2807 -1.4302
  201MOL0     H27738  10.422  11.199   9.508  2.3535 -3.0482 -0.2806
  202MOL0     O27739   5.933   3.731  11.249 -0.4401 -0.0245  0.5835
  202MOL0     C27740   5.826   3.762  11.296 -0.6940 -0.1593  0.3067
  202MOL0     O27741   5.738   3.854  11.247 -0.3992 -0.1970 -0.4993
  202MOL0     C27742   5.783   3.931  11.144  0.5860 -0.2162 -0.0768
  202MOL0     C27743   5.856   4.045  11.165  0.0630 -0.6837  1.1579
  202MOL0     C27744   5.894   4.123  11.055  0.1558  0.2355 -1.1830
  202MOL0     C27745   5.854   4.091  10.922 -0.8571  0.1762 -0.3087
  202MOL0     O27746   5.882   4.177  10.817  0.3193  0.9937 -0.2956
  202MOL0     C27747   5.937   4.132  10.691  0.9560  0.0233 -0.5583
  202MOL0     C27748   6.089   4.122  10.697 -0.7510 -0.3063 -0.4610
  202MOL0     C27749   6.156   4.158  10.563 -0.4214 -0.7083  0.0884
  202MOL0     C27750   6.293   4.085  10.543 -0.2681  0.0720 -0.3088
  202MOL0     C27751   6.415   4.133  10.627 -0.2925 -0.1854 -0.2420
  202MOL0     C27752   6.546   4.100  10.560  0.2762 -0.2359 -0.0934
  202MOL0     C27753   6.607   4.208  10.474  0.2136 -0.1653 -1.2414
  202MOL0     C27754   6.711   4.160  10.380  0.2211 -0.1579  0.8004
  202MOL0     N27755   6.819   4.093  10.440 -0.3315  0.4563 -0.1871
  202MOL0     C27756   6.832   3.965  10.475  0.0649  0.4132 -0.2692
  202MOL0     C27757   6.959   3.952  10.524  0.0689  0.3774 -0.2899
  202MOL0     C27758   7.026   3.819  10.549 -0.6548  0.2569 -0.4943
  202MOL0     C27759   7.153   3.843  10.634 -0.3326  0.4023  0.3995
  202MOL0     C27760   7.284   3.877  10.560  0.7899  0.5109  0.1035
  202MOL0     C27761   7.369   3.983  10.634 -0.8921 -0.5611  0.3273
  202MOL0     O27762   7.497   4.019  10.573  0.4683  0.0711 -0.1405
  202MOL0     C27763   7.612   3.952  10.600 -0.3374 -0.1039 -0.5798
  202MOL0     C27764   7.730   4.018  10.581  0.7528  0.4362  0.2991
  202MOL0     C27765   7.857   3.961  10.594 -0.4493  0.8016  0.1646
  202MOL0     C27766   7.980   4.047  10.564 -0.4660 -0.7993 -0.2428
  202MOL0     C27767   7.864   3.830  10.645  0.9930  0.1083  0.1742
  202MOL0     C27768   7.988   3.761  10.677 -0.2653 -0.6135  0.2539
  202MOL0     O27769   7.980   3.627  10.702  0.0743  0.0882  0.7460
  202MOL0     C27770   8.078   3.559  10.772 -1.0542  0.1579 -0.8480
  202MOL0     C27771   8.130   3.437  10.736  0.8532 -0.1298  0.2713
  202MOL0     C27772   8.233   3.372  10.809 -0.1636 -0.2313  0.4984
  202MOL0     C27773   8.275   3.422  10.932 -0.1953  0.1015 -0.0336
  202MOL0     O27774   8.378   3.367  11.004  0.6293 -0.0608 -0.5489
  202MOL0     C27775   8.476   3.282  10.933  0.1992  0.5366 -0.4691
  202MOL0     C27776   8.593   3.253  11.035  0.1357  0.5425  0.1103
  202MOL0     C27777   8.641   3.365  11.128  0.0538 -0.2879  0.1521
  202MOL0     C27778   8.746   3.315  11.228 -0.8063 -0.1621 -0.0600
  202MOL0     C27779   8.833   3.428  11.290  0.1907 -0.6285  0.1900
  202MOL0     C27780   8.942   3.495  11.196 -0.7816 -0.4365 -0.1195
  202MOL0     C27781   9.001   3.623  11.254  1.0736 -0.4749 -0.2846
  202MOL0     C27782   9.141   3.658  11.197  0.3683 -0.2137  0.6318
  202MOL0    Cl27783   9.127   3.706  11.027  0.2002 -0.2591 -0.3088
  202MOL0     C27784   8.220   3.546  10.970  0.3618  0.4919  1.1505
  202MOL0     C27785   8.129   3.614  10.893  0.5634 -0.1382  0.2173
  202MOL0     O27786   8.089   3.835  10.692  0.2005  0.4180  0.2898
  202MOL0     C27787   7.741   3.764  10.666 -0.5247 -0.2209  0.5175
  202MOL0     C27788   7.615   3.822  10.653 -0.1759  0.1281  0.1424
  202MOL0     N27789   7.018   4.080  10.529  0.0350 -0.3190 -0.0453
  202MOL0     N27790   6.933   4.151  10.473  0.0312 -0.2658 -0.3320
  202MOL0     C27791   5.782   3.969  10.907  0.0979  0.2429  0.5844
  202MOL0     C27792   5.753   3.887  11.016  1.0884  0.3393  0.3914
  202MOL0     C27793   5.795   3.692  11.422 -0.2891 -0.9682 -0.4319
  202MOL0     C27794   5.769   3.776  11.536  0.1233  0.8423 -0.2419
  202MOL0     C27795   5.746   3.716  11.657 -0.3154  0.0546  0.7385
  202MOL0     C27796   5.761   3.579  11.678  0.5817 -1.1629 -0.2660
  202MOL0     O27797   5.746   3.529  11.809  0.2857  0.1595  1.2291
  202MOL0     C27798   5.769   3.605  11.924  0.5056  0.6208  0.2903
  202MOL0     C27799   5.645   3.674  11.988 -0.3644 -0.4812 -0.5044
  202MOL0     C27800   5.524   3.577  12.013  0.4531 -0.4323  0.2273
  202MOL0     C27801   5.439   3.562  11.882 -0.6257 -0.0680  0.8854
  202MOL0     C27802   5.358   3.436  11.893 -0.4888 -0.4960 -0.5727
  202MOL0     C27803   5.296   3.329  11.903  1.0348 -0.2494 -0.3624
  202MOL0     C27804   5.781   3.496  11.569  0.9448  0.6974 -0.7674
  202MOL0     C27805   5.799   3.553  11.441  1.2158 -0.2996  0.0849
  202MOL0     C27806   5.831   3.456  11.326  0.8491 -0.4243  0.8301
  202MOL0     H27807   5.873   4.088  11.264 -0.5446  4.8798 -0.7695
  202MOL0     H27808   5.950   4.213  11.075  0.9415 -0.7819  1.6863
  202MOL0     H27809   5.892   4.196  10.614 -0.0257  0.2517  0.1882
  202MOL0     H27810   5.896   4.031  10.675 -0.1442  0.7232 -2.4747
  202MOL0     H27811   6.125   4.192  10.774  2.8223 -0.9610 -1.3333
  202MOL0     H27812   6.116   4.017  10.713 -1.9921 -0.3845  1.3243
  202MOL0     H27813   6.088   4.121  10.485 -0.3870 -3.9488  1.4350
  202MOL0     H27814   6.175   4.265  10.552  0.8390 -0.8809  0.4982
  202MOL0     H27815   6.286   3.977  10.560 -2.8484 -0.0217 -1.5018
  202MOL0     H27816   6.316   4.089  10.436 -1.0870 -0.8496 -0.5302
  202MOL0     H27817   6.410   4.081  10.723  4.5897  0.0786  0.4313
  202MOL0     H27818   6.421   4.241  10.644  0.1113  0.0024 -1.5109
  202MOL0     H27819   6.616   4.073  10.640  0.0511  1.4933  0.7376
  202MOL0     H27820   6.540   4.005  10.507 -1.2676 -0.5472  0.5965
  202MOL0     H27821   6.656   4.282  10.538 -0.2007  0.1083 -1.2367
  202MOL0     H27822   6.516   4.246  10.426  0.3970  1.6019 -0.2698
  202MOL0     H27823   6.675   4.090  10.304 -0.3577  1.7465 -0.7812
  202MOL0     H27824   6.744   4.253  10.331  0.2861 -0.3217  0.5293
  202MOL0     H27825   6.759   3.885  10.464 -0.0987 -0.0466  2.9652
  202MOL0     H27826   7.055   3.773  10.454  2.2703  2.1999 -0.6496
  202MOL0     H27827   6.964   3.741  10.594  2.6513 -2.5418 -0.4176
  202MOL0     H27828   7.133   3.912  10.718 -0.0837  0.7645  0.1623
  202MOL0     H27829   7.179   3.750  10.685 -0.5081 -0.2424 -0.6754
  202MOL0     H27830   7.332   3.782  10.535 -0.1344  0.6201 -2.3240
  202MOL0     H27831   7.265   3.915  10.460  3.2756  0.6668 -0.3764
  202MOL0     H27832   7.314   4.077  10.638 -0.3057 -0.2532  1.7807
  202MOL0     H27833   7.386   3.952  10.738  2.0986 -0.2554  0.0274
  202MOL0     H27834   7.710   4.116  10.541 -0.9482 -1.2766 -3.5948
  202MOL0     H27835   8.015   4.125  10.632  0.9725 -1.5870 -0.0500
  202MOL0     H27836   7.955   4.109  10.477  0.8810 -2.3489 -1.8144
  202MOL0     H27837   8.068   3.988  10.538 -0.0499 -0.0945 -0.4695
  202MOL0     H27838   8.108   3.404  10.635  1.9728  0.7669 -0.2817
  202MOL0     H27839   8.281   3.285  10.764  1.9220 -0.9489  3.7964
  202MOL0     H27840   8.428   3.190  10.897  1.8316  0.2906 -2.1342
  202MOL0     H27841   8.514   3.330  10.843  3.2247  0.3906  0.6001
  202MOL0     H27842   8.561   3.178  11.108  0.9520 -1.1200 -1.1684
  202MOL0     H27843   8.678   3.202  10.988  2.6024  0.0639  4.4597
  202MOL0     H27844   8.559   3.420  11.175  0.9794  1.9244 -0.6724
  202MOL0     H27845   8.691   3.436  11.061  0.9279  0.1902  1.2697
  202MOL0     H27846   8.805   3.251  11.163 -0.0339  2.4066 -2.0689
  202MOL0     H27847   8.692   3.265  11.309 -2.1991 -0.8896 -1.3876
  202MOL0     H27848   8.775   3.512  11.329 -0.1539 -0.7461 -0.0659
  202MOL0     H27849   8.885   3.383  11.375  0.2370 -0.1067  0.4438
  202MOL0     H27850   8.893   3.502  11.098 -2.6652 -1.2848  0.6949
  202MOL0     H27851   9.017   3.416  11.187 -0.0926  0.0200  1.3667
  202MOL0     H27852   9.016   3.615  11.362 -1.0849  3.4773  0.4789
  202MOL0     H27853   8.932   3.705  11.232  2.4375  0.4424 -1.2844
  202MOL0     H27854   9.205   3.570  11.210 -2.1897 -1.9738  2.2079
  202MOL0     H27855   9.180   3.737  11.262 -0.7686  0.1164  0.9472
  202MOL0     H27856   8.251   3.594  11.063  2.9279 -0.0289  0.6374
  202MOL0     H27857   8.086   3.701  10.941 -2.1912 -0.5566 -1.2759
  202MOL0     H27858   7.737   3.660  10.695 -1.3325 -0.0418  1.1016
  202MOL0     H27859   7.524   3.764  10.664  1.0408 -2.3507 -1.8576
  202MOL0     H27860   5.772   3.932  10.805 -0.2449  0.6401  0.4697
  202MOL0     H27861   5.701   3.792  11.016 -0.7811  1.3010  2.0005
  202MOL0     H27862   5.770   3.885  11.533  1.3767  1.0216  2.7513
  202MOL0     H27863   5.722   3.784  11.738 -2.7606 -1.9522  1.8207
  202MOL0     H27864   5.810   3.539  12.001 -0.8743  1.4833  1.8264
  202MOL0     H27865   5.847   3.681  11.909  2.0824 -1.0758 -0.3917
  202MOL0     H27866   5.613   3.759  11.926  0.5978 -1.1964 -2.0315
  202MOL0     H27867   5.685   3.714  12.082  1.8731  0.8601 -1.9245
  202MOL0     H27868   5.571   3.481  12.034 -0.1264 -0.5010  1.2858
  202MOL0     H27869   5.452   3.616  12.086 -0.9489 -0.0183 -1.3331
  202MOL0     H27870   5.504   3.535  11.798 -1.7073 -2.2624  0.6848
  202MOL0     H27871   5.370   3.643  11.859 -1.4765 -0.8141  0.7503
  202MOL0     H27872   5.251   3.233  11.920 -0.8787  0.2868 -2.0529
  202MOL0     H27873   5.800   3.390  11.583  1.1239  0.9579  1.1636
  202MOL0     H27874   5.880   3.366  11.365 -3.6435 -2.7032  2.0160
  202MOL0     H27875   5.743   3.415  11.275  0.9360  1.4220 -0.9124
  202MOL0     H27876   5.883   3.497  11.239 -0.1343 -2.4515 -0.8207
  203MOL0     O27877  10.633   0.369   9.859  0.5246  0.2795  0.0815
  203MOL0     C27878  10.622   0.393   9.981  0.3928 -0.0110 -1.4921
  203MOL0     O27879  10.586   0.304  10.088 -0.2207  0.1146  0.8139
  203MOL0     C27880  10.539   0.175  10.062  0.0408  0.7455 -0.2332
  203MOL0     C27881  10.526   0.108   9.934 -0.0449 -0.5545 -0.4730
  203MOL0     C27882  10.484  -0.028   9.928 -0.1922 -0.6341  0.6645
  203MOL0     C27883  10.451  -0.096  10.053  0.7069 -0.3793 -0.6701
  203MOL0     O27884  10.386  -0.222  10.051  0.1037 -0.5908  0.1522
  203MOL0     C27885  10.262  -0.222  10.122  0.0534  0.0861  0.0693
  203MOL0     C27886  10.155  -0.305  10.054 -0.2968 -0.6797 -0.2484
  203MOL0     C27887  10.114  -0.259   9.915 -0.8500  0.4843 -0.1964
  203MOL0     C27888   9.989  -0.335   9.867  0.0904 -0.4763 -0.4392
  203MOL0     C27889   9.946  -0.299   9.731  0.2161  0.2203  0.6746
  203MOL0     C27890   9.884  -0.415   9.655 -0.1792 -0.3784  0.6512
  203MOL0     C27891   9.863  -0.368   9.514 -0.7949 -0.2208  0.0920
  203MOL0     C27892   9.822  -0.493   9.439  0.9830  0.0134  0.0283
  203MOL0     N27893   9.704  -0.557   9.497 -0.5358 -1.0515  0.0149
  203MOL0     C27894   9.698  -0.661   9.583 -0.3617  0.3152  0.3241
  203MOL0     C27895   9.570  -0.696   9.597  0.5038 -0.1565 -0.4331
  203MOL0     C27896   9.513  -0.800   9.693  0.5356 -0.3066  0.0380
  203MOL0     C27897   9.488  -0.935   9.627  0.3135  0.9077 -0.4142
  203MOL0     C27898   9.483  -1.042   9.744 -0.8174  1.2532 -0.6525
  203MOL0     C27899   9.613  -1.064   9.827  0.1565 -0.4391 -0.2015
  203MOL0     O27900   9.590  -1.187   9.900 -0.4716  0.0432 -0.0106
  203MOL0     C27901   9.676  -1.235   9.998  0.4705 -0.3601 -0.3215
  203MOL0     C27902   9.783  -1.161  10.043  0.1496 -0.7973  0.4813
  203MOL0     C27903   9.854  -1.214  10.156 -0.8728  0.7987 -0.2514
  203MOL0     C27904   9.972  -1.125  10.192 -0.1462  0.5061 -0.2831
  203MOL0     C27905   9.820  -1.334  10.220  0.4607 -0.6798 -1.0269
  203MOL0     C27906   9.893  -1.405  10.327  0.3530  0.3439  0.2477
  203MOL0     O27907   9.815  -1.489  10.394  0.6182 -0.3800  0.5448
  203MOL0     C27908   9.858  -1.612  10.430 -0.0567  0.1776 -0.0809
  203MOL0     C27909   9.932  -1.694  10.342  0.1402  0.2039 -0.1343
  203MOL0     C27910   9.978  -1.824  10.381  1.0423 -0.0138 -0.1663
  203MOL0     C27911   9.946  -1.876  10.499 -0.3065 -0.6154  0.0769
  203MOL0     O27912  10.001  -1.993  10.546  0.3525  0.1243  0.1067
  203MOL0     C27913   9.943  -2.106  10.493 -0.0898 -0.4282  0.1805
  203MOL0     C27914  10.030  -2.218  10.531 -0.9676  0.1547  0.2464
  203MOL0     C27915  10.157  -2.227  10.454 -0.4203 -0.5768  0.5304
  203MOL0     C27916  10.244  -2.336  10.515 -0.2404  0.1020 -0.1080
  203MOL0     C27917  10.385  -2.341  10.449 -0.5876  0.4639 -0.0883
  203MOL0     C27918  10.491  -2.408  10.538  0.1218  0.2988 -0.3439
  203MOL0     C27919  10.459  -2.550  10.584 -0.0632 -0.4071  0.1892
  203MOL0     C27920  10.589  -2.608  10.629  0.3774  0.7981  0.3130
  203MOL0    Cl27921  10.560  -2.747  10.746  0.1092 -0.2370 -0.2790
  203MOL0     C27922   9.859  -1.803  10.583  0.2008  0.6949  0.3785
  203MOL0     C27923   9.822  -1.667  10.554 -0.2778  0.5842  0.5673
  203MOL0     O27924  10.012  -1.401  10.330 -0.0464 -0.1846  0.2513
  203MOL0     C27925   9.700  -1.384  10.182  0.3577  0.3238  0.0747
  203MOL0     C27926   9.629  -1.341  10.064  0.0148  1.0452 -0.9198
  203MOL0     N27927   9.499  -0.599   9.522  0.2188  0.3968  0.0472
  203MOL0     N27928   9.579  -0.508   9.470  0.3887 -0.3858  0.3201
  203MOL0     C27929  10.467  -0.028  10.172 -0.9085  0.5656 -0.8605
  203MOL0     C27930  10.523   0.097  10.180  0.3614  0.4681  0.3447
  203MOL0     C27931  10.654   0.531  10.026 -0.3830 -0.7355  0.8031
  203MOL0     C27932  10.757   0.608   9.967  0.0867  0.3947 -0.4523
  203MOL0     C27933  10.785   0.737  10.012 -0.4009  0.9856 -0.4362
  203MOL0     C27934  10.723   0.795  10.122 -0.3399 -0.0712  0.1600
  203MOL0     O27935  10.756   0.918  10.177  0.0177  0.2946 -0.3373
  203MOL0     C27936  10.860   0.988  10.113  0.6291 -0.3588  0.7447
  203MOL0     C27937  10.864   1.132  10.170 -0.3672 -0.1810 -0.2743
  203MOL0     C27938  10.730   1.196  10.167  0.0663  0.5858  0.5693
  203MOL0     C27939  10.746   1.349  10.149 -0.3429 -0.0126 -0.3217
  203MOL0     C27940  10.802   1.414  10.271 -0.2715  1.4088 -0.9518
  203MOL0     C27941  10.853   1.458  10.380 -0.5057 -0.7535 -0.1344
  203MOL0     C27942  10.614   0.727  10.173 -0.0437  0.4172  0.2177
  203MOL0     C27943  10.582   0.589  10.140  0.4406 -0.0982  0.9345
  203MOL0     C27944  10.459   0.528  10.209 -0.0755 -0.2691  0.4137
  203MOL0     H27945  10.546   0.157   9.839  0.0212  1.8584  0.7136
  203MOL0     H27946  10.478  -0.073   9.829  2.2172 -2.3088  1.1678
  203MOL0     H27947  10.220  -0.121  10.122 -1.4152 -0.4972 -0.9941
  203MOL0     H27948  10.287  -0.249  10.225 -1.1442  0.0925  0.3825
  203MOL0     H27949  10.188  -0.409  10.047 -1.7126 -1.1780  0.1391
  203MOL0     H27950  10.068  -0.307  10.120 -0.5562  1.3109 -0.4625
  203MOL0     H27951  10.091  -0.152   9.922 -2.6298  0.2264 -1.3604
  203MOL0     H27952  10.194  -0.269   9.842 -0.0459 -0.5075  0.7894
  203MOL0     H27953  10.001  -0.441   9.890  0.9908 -0.5951 -1.4048
  203MOL0     H27954   9.909  -0.309   9.937 -1.1546  0.7274 -2.2197
  203MOL0     H27955  10.031  -0.261   9.675  0.5991  0.0582  1.1459
  203MOL0     H27956   9.872  -0.220   9.744 -0.9617 -0.1369 -2.6333
  203MOL0     H27957   9.946  -0.506   9.654  0.1701 -0.2118 -2.3307
  203MOL0     H27958   9.785  -0.434   9.698 -1.1310  0.0281 -1.2678
  203MOL0     H27959   9.964  -0.340   9.482  0.6349 -3.1599  1.5969
  203MOL0     H27960   9.800  -0.279   9.515 -2.9794 -1.4559 -4.2868
  203MOL0     H27961   9.784  -0.466   9.340  5.0850  1.2718 -1.4190
  203MOL0     H27962   9.908  -0.558   9.421  0.9683  0.4723 -1.9457
  203MOL0     H27963   9.782  -0.715   9.625  0.4294 -0.2520 -1.8484
  203MOL0     H27964   9.424  -0.757   9.740  1.0705 -0.2173  1.0029
  203MOL0     H27965   9.583  -0.811   9.777 -1.5035  3.9032  2.6145
  203MOL0     H27966   9.391  -0.929   9.576  0.8846 -0.8157 -1.7843
  203MOL0     H27967   9.557  -0.970   9.549 -2.5190 -1.2613 -2.1372
  203MOL0     H27968   9.410  -1.008   9.819 -4.1451 -4.4067 -0.6910
  203MOL0     H27969   9.444  -1.137   9.705  3.9488 -1.6836  0.9166
  203MOL0     H27970   9.697  -1.074   9.757  0.8110  0.2249  0.4817
  203MOL0     H27971   9.633  -0.973   9.883 -2.2455  1.4966 -2.2587
  203MOL0     H27972   9.812  -1.070   9.991 -0.5977 -0.5650  0.4663
  203MOL0     H27973   9.958  -1.106  10.298 -1.7530  2.8118 -0.8293
  203MOL0     H27974   9.974  -1.040  10.122  1.4886 -0.8037 -1.9461
  203MOL0     H27975  10.065  -1.179  10.169  0.0811  0.3153  1.0337
  203MOL0     H27976   9.968  -1.640  10.255 -1.5605  2.5640  0.5237
  203MOL0     H27977  10.041  -1.887  10.319  2.1796  1.3967 -0.4966
  203MOL0     H27978   9.842  -2.129  10.528 -1.0944  0.7201 -1.7817
  203MOL0     H27979   9.938  -2.101  10.384 -0.4322 -2.8311  0.0422
  203MOL0     H27980  10.059  -2.210  10.637 -0.2115 -0.7600  0.1178
  203MOL0     H27981   9.965  -2.304  10.518  0.8707 -1.2994  0.3167
  203MOL0     H27982  10.206  -2.129  10.450 -0.3809 -0.5741 -4.2930
  203MOL0     H27983  10.124  -2.260  10.355 -2.5951 -1.6993  1.5486
  203MOL0     H27984  10.185  -2.428  10.505 -1.6055  1.1262 -2.4583
  203MOL0     H27985  10.250  -2.319  10.623  0.2577 -1.0009  0.0434
  203MOL0     H27986  10.364  -2.392  10.354 -1.9115  0.2837  0.2820
  203MOL0     H27987  10.425  -2.242  10.424  2.3082 -0.8437 -1.0451
  203MOL0     H27988  10.512  -2.332  10.614 -4.8598  2.1380 -0.3967
  203MOL0     H27989  10.584  -2.406  10.481  1.1983  1.3966  1.3219
  203MOL0     H27990  10.426  -2.610  10.499  0.8705 -0.3820 -0.2055
  203MOL0     H27991  10.390  -2.558  10.668  1.5533 -1.0745  1.5075
  203MOL0     H27992  10.643  -2.528  10.680 -0.4118  0.6015  1.5066
  203MOL0     H27993  10.659  -2.637  10.551  0.2983  0.9062  0.2000
  203MOL0     H27994   9.826  -1.853  10.673  0.2192  0.9062  0.5024
  203MOL0     H27995   9.766  -1.618  10.634  0.9886 -0.4016  2.1311
  203MOL0     H27996   9.658  -1.474  10.227  0.1755 -0.4949 -1.6496
  203MOL0     H27997   9.533  -1.388  10.046  0.6088 -0.1551 -1.0368
  203MOL0     H27998  10.443  -0.071  10.269  0.9373 -0.3224 -0.7447
  203MOL0     H27999  10.554   0.132  10.278 -3.6901  0.9101  1.6351
  203MOL0     H28000  10.819   0.564   9.889 -1.0767 -1.1470 -0.5481
  203MOL0     H28001  10.865   0.789   9.960  1.2892  0.3167  1.4011
  203MOL0     H28002  10.950   0.934  10.144  0.5067 -0.1595  1.4653
  203MOL0     H28003  10.842   1.006  10.007  1.0814  0.6227  0.8250
  203MOL0     H28004  10.930   1.197  10.112  1.1610 -0.0254  1.5494
  203MOL0     H28005  10.911   1.128  10.268  1.1265  0.2960 -0.9434
  203MOL0     H28006  10.665   1.157  10.088 -0.9939 -2.5697  2.8064
  203MOL0     H28007  10.679   1.179  10.262 -0.6436  1.4722  0.3533
  203MOL0     H28008  10.653   1.396  10.115  0.8805 -0.1611 -4.3044
  203MOL0     H28009  10.812   1.392  10.074 -3.2059  4.4535 -0.6733
  203MOL0     H28010  10.897   1.503  10.466 -0.3444 -0.3579 -0.4212
  203MOL0     H28011  10.575   0.774  10.263 -0.7820 -1.3771  0.8844
  203MOL0     H28012  10.394   0.593  10.270 -0.2617 -0.5289  0.4938
  203MOL0     H28013  10.397   0.481  10.132 -0.3002  0.2215  0.2900
  203MOL0     H28014  10.502   0.455  10.278  0.3987  1.2253  1.7728
  204MOL0     O28015   1.890   8.291   5.556  0.6863  0.3067 -0.8538
  204MOL0     C28016   1.806   8.310   5.644  0.7330 -0.4976  1.1936
  204MOL0     O28017   1.827   8.356   5.772  0.6874 -0.2797 -0.4672
  204MOL0     C28018   1.946   8.407   5.806 -0.3384  0.5506 -0.2802
  204MOL0     C28019   1.953   8.528   5.873  0.4007 -0.2547 -0.2822
  204MOL0     C28020   2.077   8.572   5.933  1.0584  0.3928  0.1667
  204MOL0     C28021   2.197   8.500   5.909  0.4438 -0.5014  0.1245
  204MOL0     O28022   2.317   8.548   5.965 -0.1659 -0.2090  0.4292
  204MOL0     C28023   2.433   8.523   5.883 -0.4690  0.6852  0.0561
  204MOL0     C28024   2.562   8.585   5.936  0.6674  0.1656  0.3572
  204MOL0     C28025   2.598   8.551   6.081 -0.7369 -0.1220 -0.3448
  204MOL0     C28026   2.733   8.592   6.109  0.0358  0.7668 -0.3400
  204MOL0     C28027   2.773   8.533   6.248 -0.7810  0.0531  0.3895
  204MOL0     C28028   2.914   8.596   6.276 -0.1376  0.4965 -1.1998
  204MOL0     C28029   2.985   8.517   6.395 -0.6824 -0.5357  0.7836
  204MOL0     C28030   3.130   8.560   6.423 -0.2634  0.0947 -0.2909
  204MOL0     N28031   3.218   8.561   6.302  0.5641 -0.3628 -1.2743
  204MOL0     C28032   3.297   8.465   6.233 -0.8365 -0.0574  0.0264
  204MOL0     C28033   3.331   8.530   6.119 -0.0715  0.1986  0.2659
  204MOL0     C28034   3.408   8.478   6.006 -0.1867  0.5147 -0.6991
  204MOL0     C28035   3.559   8.468   6.026 -0.5045 -0.2248  0.2205
  204MOL0     C28036   3.620   8.410   5.900  0.1233 -0.2350 -0.3729
  204MOL0     C28037   3.751   8.332   5.921 -0.2800 -0.0981 -0.8227
  204MOL0     O28038   3.713   8.193   5.952 -0.3160 -0.3136 -0.0537
  204MOL0     C28039   3.818   8.108   5.966 -0.1618  0.1512  0.0091
  204MOL0     C28040   3.951   8.145   5.964  0.0531  0.1770 -0.1084
  204MOL0     C28041   4.050   8.049   5.979 -0.5232 -0.4311 -0.0305
  204MOL0     C28042   4.191   8.107   5.993 -0.2553 -0.1532 -0.5391
  204MOL0     C28043   4.013   7.916   5.994  0.4115 -0.0418 -0.0856
  204MOL0     C28044   4.121   7.819   6.003  0.0973  0.0605 -0.6813
  204MOL0     O28045   4.092   7.713   6.090 -0.1841 -0.0177  0.5470
  204MOL0     C28046   4.166   7.595   6.101 -0.5367 -0.5916 -0.1740
  204MOL0     C28047   4.105   7.502   6.193 -0.2825 -0.2686  0.0444
  204MOL0     C28048   4.170   7.380   6.224 -0.2683 -0.6253  0.9607
  204MOL0     C28049   4.294   7.351   6.168  0.4165 -1.1067  0.2409
  204MOL0     O28050   4.346   7.226   6.209  0.4375 -1.2172 -0.6113
  204MOL0     C28051   4.386   7.131   6.110 -0.9166 -1.0605  0.0730
  204MOL0     C28052   4.268   7.057   6.039  0.2921 -0.4138  0.3270
  204MOL0     C28053   4.168   7.002   6.144 -0.1518 -0.3991 -0.3649
  204MOL0     C28054   4.045   6.934   6.074  0.8134  0.1902 -0.3675
  204MOL0     C28055   3.921   6.887   6.157  0.1503 -0.7745  0.4687
  204MOL0     C28056   3.956   6.775   6.254 -0.6133 -0.2559  0.3235
  204MOL0     C28057   3.828   6.711   6.300 -0.4305 -0.6620  0.3961
  204MOL0     C28058   3.868   6.576   6.362  0.2281 -0.2859 -0.2841
  204MOL0    Cl28059   3.984   6.594   6.488 -0.1719 -0.5673 -0.1792
  204MOL0     C28060   4.360   7.443   6.083  0.6836  0.3244 -0.1641
  204MOL0     C28061   4.293   7.566   6.043  0.7371 -0.3158  0.8531
  204MOL0     O28062   4.204   7.820   5.908  0.3044 -0.1543 -0.9305
  204MOL0     C28063   3.877   7.877   6.016 -0.2609  0.9703  0.1336
  204MOL0     C28064   3.779   7.976   5.993  0.4631  0.5844 -0.4445
  204MOL0     N28065   3.275   8.657   6.125 -0.1248  0.6458  0.6197
  204MOL0     N28066   3.212   8.676   6.234 -0.5693  0.1046 -0.3298
  204MOL0     C28067   2.191   8.379   5.847  0.4704  0.3405  0.9255
  204MOL0     C28068   2.063   8.326   5.803  0.6996  0.2693 -0.3364
  204MOL0     C28069   1.664   8.282   5.608  1.0570  0.3322 -0.1839
  204MOL0     C28070   1.569   8.340   5.695  0.2648 -0.7565  0.3856
  204MOL0     C28071   1.436   8.330   5.673  0.6031 -0.5307  0.0417
  204MOL0     C28072   1.381   8.261   5.563  0.1075  0.2290  0.2386
  204MOL0     O28073   1.244   8.256   5.537 -0.7417  0.2035  0.3952
  204MOL0     C28074   1.152   8.315   5.626  0.2490  0.1170  0.0258
  204MOL0     C28075   1.022   8.234   5.614  0.4797  0.8730 -0.6163
  204MOL0     C28076   0.916   8.265   5.725 -0.5295 -0.0298  0.0574
  204MOL0     C28077   0.777   8.214   5.691  0.6380 -0.3420  0.2675
  204MOL0     C28078   0.706   8.282   5.580  0.2393 -0.0102 -0.0589
  204MOL0     C28079   0.653   8.339   5.487  1.1669 -0.6581  0.9535
  204MOL0     C28080   1.473   8.201   5.472  0.5997  0.0439 -0.7280
  204MOL0     C28081   1.609   8.207   5.497  0.5488  0.0596  0.9920
  204MOL0     C28082   1.699   8.139   5.387  0.4682 -0.1082 -0.5798
  204MOL0     H28083   1.860   8.577   5.900  1.6050  3.1043 -1.7732
  204MOL0     H28084   2.081   8.663   5.993 -0.1768  0.9343 -0.5452
  204MOL0     H28085   2.428   8.550   5.777  1.4448 -1.6082 -0.6934
  204MOL0     H28086   2.450   8.415   5.882  0.5136  0.8360  0.0171
  204MOL0     H28087   2.649   8.550   5.879  0.5859  1.2428 -0.4362
  204MOL0     H28088   2.552   8.692   5.920 -1.6817 -0.2672 -1.6435
  204MOL0     H28089   2.532   8.601   6.153 -0.4869  0.9759 -0.8604
  204MOL0     H28090   2.583   8.445   6.103  0.2156 -0.8878 -2.9957
  204MOL0     H28091   2.800   8.544   6.037  1.4385  2.5089 -0.2469
  204MOL0     H28092   2.751   8.699   6.100 -0.9847  0.9582 -0.1925
  204MOL0     H28093   2.774   8.424   6.246 -1.5265  0.0155  1.4593
  204MOL0     H28094   2.706   8.563   6.329 -0.3148 -0.0050  0.8036
  204MOL0     H28095   2.972   8.586   6.184 -2.9907 -2.0667 -2.9191
  204MOL0     H28096   2.903   8.699   6.310  0.3020  0.1003  0.2171
  204MOL0     H28097   2.994   8.412   6.365 -0.8540 -0.0027 -1.2583
  204MOL0     H28098   2.926   8.512   6.487 -4.0269  2.4552 -0.9289
  204MOL0     H28099   3.134   8.651   6.485 -1.5751 -1.2856  1.9513
  204MOL0     H28100   3.178   8.491   6.492 -0.4893  1.1863  1.0091
  204MOL0     H28101   3.326   8.362   6.252 -0.0084  0.2674  0.5414
  204MOL0     H28102   3.393   8.546   5.921 -2.0107  0.9141 -0.0942
  204MOL0     H28103   3.357   8.384   5.986  1.9476 -0.3848 -2.2029
  204MOL0     H28104   3.608   8.564   6.042 -0.1321 -0.2650 -0.6293
  204MOL0     H28105   3.590   8.408   6.112 -0.6649  0.6252  0.8800
  204MOL0     H28106   3.554   8.345   5.842 -0.0656 -1.2576  0.9444
  204MOL0     H28107   3.626   8.501   5.840 -2.7366 -0.1512 -0.6591
  204MOL0     H28108   3.814   8.337   5.831  1.8535 -2.2567  0.4163
  204MOL0     H28109   3.809   8.374   6.004 -0.4040 -2.2657  0.4386
  204MOL0     H28110   3.986   8.247   5.955  0.8097 -0.0961 -0.3924
  204MOL0     H28111   4.198   8.201   5.937  0.7891  0.8288  1.1815
  204MOL0     H28112   4.270   8.036   5.967  0.3349  0.1605  0.3511
  204MOL0     H28113   4.210   8.118   6.100 -0.0015 -2.1446 -0.3427
  204MOL0     H28114   4.020   7.530   6.253 -0.5052  0.8465 -0.7623
  204MOL0     H28115   4.127   7.316   6.301 -0.0576  0.4653  2.0065
  204MOL0     H28116   4.460   7.177   6.045  0.1132 -1.1996  1.1141
  204MOL0     H28117   4.449   7.057   6.161 -0.5278  0.1147  1.3728
  204MOL0     H28118   4.224   7.124   5.964  0.9462 -1.6438 -1.1966
  204MOL0     H28119   4.309   6.979   5.975 -0.7216 -0.2014 -0.6244
  204MOL0     H28120   4.129   7.079   6.212  0.3813 -0.1776 -0.3048
  204MOL0     H28121   4.218   6.925   6.202  1.2451  0.4306 -0.4351
  204MOL0     H28122   4.079   6.848   6.016 -1.4716 -1.3587  0.4947
  204MOL0     H28123   4.002   6.999   5.997 -1.2108 -1.4799 -0.7121
  204MOL0     H28124   3.903   6.979   6.213  1.2441  1.9531 -3.2727
  204MOL0     H28125   3.837   6.867   6.089  0.7745 -3.5017  0.3795
  204MOL0     H28126   4.016   6.821   6.332 -0.3229  1.0242 -0.6143
  204MOL0     H28127   4.027   6.706   6.208 -1.3516 -1.1844  0.5392
  204MOL0     H28128   3.763   6.695   6.214  1.9954  1.4072 -2.0148
  204MOL0     H28129   3.777   6.769   6.377 -2.9468 -2.2943  0.0495
  204MOL0     H28130   3.902   6.501   6.291  0.1631 -0.3026 -0.2970
  204MOL0     H28131   3.779   6.539   6.413 -0.7785  3.3175  0.8557
  204MOL0     H28132   4.459   7.412   6.048  0.1346 -2.4225  0.5319
  204MOL0     H28133   4.336   7.628   5.966 -0.9996  0.8808  0.7921
  204MOL0     H28134   3.844   7.774   6.024 -1.0269  1.3284  1.9433
  204MOL0     H28135   3.677   7.941   6.004  0.6158 -0.3667 -1.9546
  204MOL0     H28136   2.267   8.302   5.832  0.3485  0.3958  0.0046
  204MOL0     H28137   2.048   8.242   5.736  0.3676  1.7662 -2.2411
  204MOL0     H28138   1.590   8.370   5.797 -1.2443  0.3161  0.4093
  204MOL0     H28139   1.378   8.370   5.756 -0.7494 -2.0065 -0.1440
  204MOL0     H28140   1.190   8.309   5.728  0.5511 -2.2218 -0.1604
  204MOL0     H28141   1.136   8.418   5.594 -0.2891  0.5170  1.5191
  204MOL0     H28142   1.057   8.131   5.623 -1.0260  0.4875  1.6836
  204MOL0     H28143   0.970   8.246   5.519  0.9145 -1.4701 -1.2236
  204MOL0     H28144   0.949   8.221   5.820 -0.1501 -1.3583 -0.6658
  204MOL0     H28145   0.911   8.372   5.747 -0.3440 -0.7484  4.6511
  204MOL0     H28146   0.709   8.252   5.768 -2.6296  1.7877 -3.3157
  204MOL0     H28147   0.793   8.107   5.675  0.1826 -0.0594 -2.6129
  204MOL0     H28148   0.615   8.402   5.408 -0.4766  0.8647  2.8438
  204MOL0     H28149   1.434   8.158   5.381 -1.7086  0.5131 -0.0403
  204MOL0     H28150   1.734   8.218   5.319  1.4656 -0.3974 -0.4222
  204MOL0     H28151   1.787   8.097   5.436  0.1540  3.0336  3.2195
  204MOL0     H28152   1.646   8.063   5.330 -0.2566 -0.1606  0.1447
  205MOL0     O28153   1.710  10.739   6.626  0.4264  0.4094 -0.8279
  205MOL0     C28154   1.765  10.690   6.532 -0.2025  0.0309  0.2930
  205MOL0     O28155   1.707  10.639   6.420 -0.0488 -0.4403  0.5087
  205MOL0     C28156   1.572  10.620   6.398  0.2130 -0.6802 -0.1160
  205MOL0     C28157   1.522  10.608   6.267  0.1531 -0.9427 -1.0134
  205MOL0     C28158   1.384  10.597   6.241  0.0210 -0.1845 -0.0739
  205MOL0     C28159   1.297  10.604   6.345  0.0867 -0.1239  0.0908
  205MOL0     O28160   1.165  10.613   6.316  0.4692  0.9153  0.4376
  205MOL0     C28161   1.068  10.564   6.404 -0.1464  0.7839 -0.8725
  205MOL0     C28162   0.924  10.580   6.352  0.2567  0.8214 -0.6296
  205MOL0     C28163   0.903  10.596   6.208  0.4081  0.4616  0.6242
  205MOL0     C28164   0.757  10.639   6.182  0.0618 -0.0224 -0.1811
  205MOL0     C28165   0.732  10.667   6.030 -0.2462 -0.2455  0.3391
  205MOL0     C28166   0.596  10.733   6.009 -0.2973  0.1216  0.9624
  205MOL0     C28167   0.570  10.777   5.858 -0.0424 -0.2889  0.0145
  205MOL0     C28168   0.574  10.653   5.770  1.0992  0.0637 -0.3100
  205MOL0     N28169   0.522  10.680   5.641  0.6493  0.3740 -0.3936
  205MOL0     C28170   0.389  10.674   5.607  0.4006  0.7135  0.5644
  205MOL0     C28171   0.398  10.681   5.469 -0.1496  0.6315 -0.7543
  205MOL0     C28172   0.283  10.687   5.372  0.6344  0.1343  0.3286
  205MOL0     C28173   0.188  10.562   5.392 -0.4134  0.1969  0.1533
  205MOL0     C28174   0.233  10.428   5.331  0.4306 -0.6420  0.6233
  205MOL0     C28175   0.381  10.390   5.345  0.1532 -0.6632  0.0926
  205MOL0     O28176   0.398  10.247   5.311  0.1142 -0.0444  0.4269
  205MOL0     C28177   0.520  10.192   5.301  0.9454  0.0409 -0.2068
  205MOL0     C28178   0.639  10.249   5.344 -0.0386 -0.2357 -0.4188
  205MOL0     C28179   0.758  10.180   5.352 -0.7659  0.4819 -0.1523
  205MOL0     C28180   0.878  10.261   5.401 -0.7147  0.1214  0.0202
  205MOL0     C28181   0.770  10.040   5.320  0.3466  0.5602 -0.1272
  205MOL0     C28182   0.898   9.968   5.311  0.5648 -0.4454 -0.0832
  205MOL0     O28183   0.894   9.836   5.277 -0.4599  0.1495 -0.5291
  205MOL0     C28184   1.001   9.750   5.273  0.0244  0.6973  0.1900
  205MOL0     C28185   1.117   9.770   5.196  0.0422 -0.3815 -0.4728
  205MOL0     C28186   1.222   9.671   5.192  0.7545  0.2250 -0.1370
  205MOL0     C28187   1.205   9.547   5.251  0.1425  0.0775 -0.5968
  205MOL0     O28188   1.303   9.457   5.235 -0.5393  0.4505 -0.5645
  205MOL0     C28189   1.274   9.353   5.136  0.3773 -0.1295  0.9373
  205MOL0     C28190   1.388   9.279   5.082 -0.2207  0.3458  0.2047
  205MOL0     C28191   1.451   9.336   4.950 -0.0534 -0.6966 -0.4372
  205MOL0     C28192   1.486   9.483   4.965 -0.1902  0.2408  0.2241
  205MOL0     C28193   1.539   9.541   4.830  0.2795 -0.0789 -0.4929
  205MOL0     C28194   1.545   9.691   4.828 -0.2095 -0.3881  0.2986
  205MOL0     C28195   1.648   9.738   4.925 -0.4731 -0.3491  0.3139
  205MOL0     C28196   1.665   9.889   4.922  0.8117  0.0013  0.4306
  205MOL0    Cl28197   1.543   9.978   5.036 -0.3649  0.4025 -0.0719
  205MOL0     C28198   1.088   9.521   5.315  0.4927  0.2605  0.1947
  205MOL0     C28199   0.987   9.621   5.330 -0.1840  0.6701 -0.6200
  205MOL0     O28200   1.003  10.027   5.319 -0.2299 -1.3349  0.7196
  205MOL0     C28201   0.654   9.985   5.268  0.4631  0.2407 -1.1512
  205MOL0     C28202   0.537  10.054   5.265 -0.3904 -0.8032 -0.4644
  205MOL0     N28203   0.526  10.702   5.432 -0.0696  0.2871 -0.4104
  205MOL0     N28204   0.601  10.700   5.537  0.7062  0.7028  1.1616
  205MOL0     C28205   1.342  10.598   6.479 -0.4099  0.5249 -0.0108
  205MOL0     C28206   1.478  10.620   6.502 -1.3662 -0.1958  0.6325
  205MOL0     C28207   1.905  10.710   6.524 -0.3868  0.2215 -1.1088
  205MOL0     C28208   1.954  10.824   6.457  0.4862 -0.5889 -0.5768
  205MOL0     C28209   2.083  10.851   6.466 -0.5790 -0.3583  0.5406
  205MOL0     C28210   2.168  10.776   6.534  0.0113 -0.7090  0.1350
  205MOL0     O28211   2.296  10.822   6.522 -0.4495 -0.0144  0.1445
  205MOL0     C28212   2.406  10.748   6.579  0.6094  0.6897  0.0267
  205MOL0     C28213   2.537  10.804   6.529 -0.2904  0.7338 -0.2435
  205MOL0     C28214   2.561  10.950   6.553  0.1852 -1.0550  0.3018
  205MOL0     C28215   2.703  11.008   6.567  0.0394  0.0379  0.1780
  205MOL0     C28216   2.794  10.987   6.677  0.0027  0.9708  0.4006
  205MOL0     C28217   2.886  10.977   6.761 -0.2260  0.1082 -0.1957
  205MOL0     C28218   2.131  10.658   6.597  0.5780  0.4148 -0.8021
  205MOL0     C28219   1.998  10.618   6.579  0.1629  0.2833 -0.1579
  205MOL0     C28220   1.952  10.483   6.633  0.4104 -0.6181  0.4770
  205MOL0     H28221   1.580  10.613   6.175  1.5207 -1.0383 -0.1845
  205MOL0     H28222   1.355  10.594   6.137  3.2369  2.2590 -1.2398
  205MOL0     H28223   1.079  10.606   6.504  0.1887  1.0152 -1.0069
  205MOL0     H28224   1.082  10.456   6.396  1.3857  0.7185  1.6924
  205MOL0     H28225   0.868  10.495   6.390  0.4440  1.1282  0.3466
  205MOL0     H28226   0.884  10.670   6.398 -0.8071  0.1089 -0.1291
  205MOL0     H28227   0.966  10.677   6.171  0.1430  0.9598  1.2368
  205MOL0     H28228   0.926  10.501   6.158 -0.1609  1.5967 -1.9254
  205MOL0     H28229   0.686  10.563   6.216  0.2366 -0.6066 -1.0687
  205MOL0     H28230   0.733  10.725   6.246 -1.1326  0.1699 -0.8385
  205MOL0     H28231   0.744  10.585   5.959 -1.4312  2.3042 -3.1166
  205MOL0     H28232   0.811  10.737   6.001 -1.0939  1.5715  2.1546
  205MOL0     H28233   0.523  10.660   6.045  0.6753  0.8657  4.9566
  205MOL0     H28234   0.581  10.812   6.083 -1.3513 -0.3806  1.3167
  205MOL0     H28235   0.643  10.850   5.822 -1.3219  0.6710 -0.7345
  205MOL0     H28236   0.472  10.826   5.852 -0.3718 -0.9868 -0.4099
  205MOL0     H28237   0.681  10.633   5.756  1.0781 -0.2775 -0.0016
  205MOL0     H28238   0.523  10.571   5.821 -0.4477  1.4165  0.4058
  205MOL0     H28239   0.299  10.676   5.668  2.3649 -1.6377  3.9169
  205MOL0     H28240   0.331  10.692   5.274  1.3815 -0.1346  0.6712
  205MOL0     H28241   0.228  10.781   5.385  1.7879  0.7970  0.5770
  205MOL0     H28242   0.183  10.538   5.499  1.0084  1.2658  0.4799
  205MOL0     H28243   0.086  10.582   5.358  0.3372 -0.2348 -2.5759
  205MOL0     H28244   0.170  10.350   5.375 -1.3630 -0.3448 -1.2982
  205MOL0     H28245   0.220  10.433   5.223  2.4711 -1.3210  0.3021
  205MOL0     H28246   0.445  10.448   5.278 -1.7437  0.6271 -0.6728
  205MOL0     H28247   0.423  10.394   5.446  3.5672 -3.6956 -0.9598
  205MOL0     H28248   0.631  10.350   5.382 -1.8781 -0.3310 -0.4725
  205MOL0     H28249   0.937  10.309   5.323  1.8121  2.9058  3.3212
  205MOL0     H28250   0.951  10.203   5.458  0.3831  0.3908 -1.0499
  205MOL0     H28251   0.847  10.342   5.467  2.3416  0.8510  0.7358
  205MOL0     H28252   1.140   9.859   5.138  2.7268 -0.8608 -0.3015
  205MOL0     H28253   1.309   9.688   5.130  2.1325 -0.4824  1.5471
  205MOL0     H28254   1.199   9.284   5.175 -1.4680  1.3197  0.1675
  205MOL0     H28255   1.237   9.397   5.042 -1.5271 -2.0042  0.7142
  205MOL0     H28256   1.469   9.265   5.154 -1.6931  1.8404  2.2494
  205MOL0     H28257   1.349   9.181   5.051 -0.7394 -0.0636  2.0462
  205MOL0     H28258   1.393   9.326   4.858  3.0189 -0.1411 -2.5929
  205MOL0     H28259   1.540   9.279   4.920 -0.5950 -2.1288  0.5775
  205MOL0     H28260   1.562   9.503   5.041  2.1839 -2.3897 -1.2683
  205MOL0     H28261   1.399   9.540   4.999  1.3504  1.7281  1.9126
  205MOL0     H28262   1.630   9.491   4.798  0.0268  0.4742 -2.1363
  205MOL0     H28263   1.459   9.512   4.761 -0.0086  0.0901 -0.2372
  205MOL0     H28264   1.444   9.727   4.848  0.0293  0.9399 -0.7431
  205MOL0     H28265   1.578   9.725   4.729  1.3781 -1.8467  0.2722
  205MOL0     H28266   1.745   9.694   4.900  1.0307  2.9052 -0.1210
  205MOL0     H28267   1.626   9.705   5.027 -2.6895 -0.9512 -0.2950
  205MOL0     H28268   1.663   9.926   4.820 -2.1537 -1.2122 -0.0516
  205MOL0     H28269   1.763   9.902   4.969  2.0740 -3.1406 -1.0587
  205MOL0     H28270   1.062   9.421   5.347  4.1002 -0.0977  2.6818
  205MOL0     H28271   0.898   9.579   5.375  0.8344  1.0364  1.9119
  205MOL0     H28272   0.658   9.883   5.231  1.0161 -0.1533 -0.0575
  205MOL0     H28273   0.453   9.998   5.224  0.4520 -1.5966 -1.1637
  205MOL0     H28274   1.275  10.599   6.564 -1.6179 -3.8578 -0.6892
  205MOL0     H28275   1.510  10.640   6.604 -2.1251 -1.2583  1.0922
  205MOL0     H28276   1.879  10.887   6.411  0.5975  0.5656  0.7652
  205MOL0     H28277   2.120  10.936   6.409  1.1766 -2.7279 -2.1473
  205MOL0     H28278   2.399  10.758   6.687  1.9034 -1.6836  0.3814
  205MOL0     H28279   2.402  10.641   6.555  1.4971  0.6146  0.1924
  205MOL0     H28280   2.552  10.783   6.422  0.9363 -1.0975  0.2452
  205MOL0     H28281   2.618  10.743   6.570  0.2279  1.3428 -0.3357
  205MOL0     H28282   2.520  10.987   6.459  2.5002  1.3412  0.1334
  205MOL0     H28283   2.491  10.998   6.623  0.0506  0.1771 -0.6457
  205MOL0     H28284   2.708  11.117   6.553  1.9910 -0.2528 -2.0653
  205MOL0     H28285   2.747  10.969   6.475  1.7898 -0.3327  1.1269
  205MOL0     H28286   2.952  10.979   6.846 -0.7027 -3.7046  0.4512
  205MOL0     H28287   2.196  10.589   6.650 -1.2449  1.0488  2.5960
  205MOL0     H28288   2.022  10.435   6.702  1.9645 -0.3255 -0.8377
  205MOL0     H28289   1.849  10.503   6.664  0.2895  1.9305 -1.3017
  205MOL0     H28290   1.937  10.422   6.543  0.1384  0.4554 -0.2147
  206MOL0     O28291  10.815   8.519   5.878  0.1092  0.1203  0.9459
  206MOL0     C28292  10.767   8.439   5.793 -0.1735 -0.5576  0.0246
  206MOL0     O28293  10.801   8.436   5.658  0.1732  0.5553  0.1486
  206MOL0     C28294  10.916   8.511   5.639 -0.0067  0.3634  0.7804
  206MOL0     C28295  10.921   8.650   5.599 -0.2795 -0.3024  0.6943
  206MOL0     C28296  11.047   8.703   5.583 -0.9370 -0.0177 -0.0467
  206MOL0     C28297  11.165   8.636   5.621  0.3879  0.9870 -0.3465
  206MOL0     O28298  11.281   8.701   5.630 -0.1977  0.0784  0.3274
  206MOL0     C28299  11.389   8.648   5.710  0.2248  0.3795 -0.3954
  206MOL0     C28300  11.497   8.758   5.737 -0.0313  0.3899  0.3728
  206MOL0     C28301  11.603   8.711   5.834 -0.0122  1.0502  0.8617
  206MOL0     C28302  11.713   8.632   5.767 -0.6078  0.7873 -0.1286
  206MOL0     C28303  11.814   8.577   5.874 -0.1177  0.0554  0.5319
  206MOL0     C28304  11.885   8.694   5.940 -0.1533 -0.0058  1.2676
  206MOL0     C28305  12.012   8.649   6.003  0.1262 -0.2040 -0.0885
  206MOL0     C28306  12.097   8.754   6.061 -0.2305  0.0345  0.0729
  206MOL0     N28307  12.025   8.842   6.159  0.5873 -0.2625  0.8259
  206MOL0     C28308  11.942   8.945   6.130 -0.1829 -0.2121 -0.0507
  206MOL0     C28309  11.880   8.968   6.253  0.7549 -0.3688 -0.1243
  206MOL0     C28310  11.777   9.067   6.285  0.1386 -0.3450  0.0442
  206MOL0     C28311  11.633   8.999   6.274 -0.3604  0.2077  0.3757
  206MOL0     C28312  11.574   8.997   6.125 -1.0382 -0.4491  0.2508
  206MOL0     C28313  11.433   8.954   6.110  0.4289  0.2669 -0.6160
  206MOL0     O28314  11.350   9.038   6.199 -0.3232  0.1597  0.5221
  206MOL0     C28315  11.293   8.988   6.308  0.5176  0.7156 -0.6237
  206MOL0     C28316  11.204   9.078   6.358  0.0455  1.0227 -0.1251
  206MOL0     C28317  11.133   9.039   6.475  0.5312  0.6934 -0.4525
  206MOL0     C28318  11.029   9.140   6.528  0.4368  0.8829 -0.5466
  206MOL0     C28319  11.139   8.912   6.535  0.5475 -0.1050  0.4109
  206MOL0     C28320  11.060   8.856   6.654  0.7493 -0.2993 -0.5863
  206MOL0     O28321  11.096   8.738   6.716 -0.0874 -0.7238  0.7260
  206MOL0     C28322  11.006   8.637   6.747  0.2856 -0.0260  0.0772
  206MOL0     C28323  11.028   8.536   6.839  1.2978  0.2582 -0.3698
  206MOL0     C28324  10.935   8.443   6.877  0.7031  0.5517 -0.1552
  206MOL0     C28325  10.808   8.440   6.815  0.6176 -0.4413 -0.2849
  206MOL0     O28326  10.704   8.357   6.846  0.6742  0.4753 -0.1142
  206MOL0     C28327  10.710   8.267   6.956  0.4986  0.0351 -0.0343
  206MOL0     C28328  10.570   8.198   6.996 -1.4653 -0.4355 -0.1939
  206MOL0     C28329  10.491   8.136   6.875 -0.1599 -0.3318 -0.3066
  206MOL0     C28330  10.449   7.999   6.913 -0.4041 -0.0981 -0.6174
  206MOL0     C28331  10.341   7.947   6.825 -0.0823  0.4110  0.0911
  206MOL0     C28332  10.286   7.815   6.871  0.3018  0.0327 -0.2860
  206MOL0     C28333  10.155   7.779   6.800 -0.0553  0.2626 -0.1657
  206MOL0     C28334  10.075   7.661   6.860 -0.3225  0.1302 -0.2224
  206MOL0    Cl28335   9.905   7.639   6.787 -0.0953 -0.4959 -0.3657
  206MOL0     C28336  10.796   8.532   6.708  0.1516 -0.4665 -0.1489
  206MOL0     C28337  10.888   8.632   6.680 -0.5069 -0.8446 -0.2637
  206MOL0     O28338  10.964   8.923   6.690  0.4156  0.1176 -0.3361
  206MOL0     C28339  11.236   8.835   6.479 -0.6022  0.5282 -0.9642
  206MOL0     C28340  11.308   8.864   6.362 -0.4982 -0.1610  0.0113
  206MOL0     N28341  11.927   8.880   6.344 -0.1669  0.4626 -0.0370
  206MOL0     N28342  12.024   8.810   6.289  0.3835  0.0874  0.3414
  206MOL0     C28343  11.151   8.503   5.668 -0.2418 -0.4369  0.7448
  206MOL0     C28344  11.032   8.443   5.675 -0.1404  0.0042  0.4496
  206MOL0     C28345  10.675   8.337   5.838  0.1978 -0.0603  0.3028
  206MOL0     C28346  10.589   8.292   5.736  1.6466 -0.3588 -0.8317
  206MOL0     C28347  10.503   8.180   5.759  0.4604 -1.0992 -0.4598
  206MOL0     C28348  10.479   8.130   5.884  0.5470 -0.0777 -0.2559
  206MOL0     O28349  10.386   8.031   5.903 -0.5791 -0.5170  0.1546
  206MOL0     C28350  10.317   8.021   6.033 -0.0495 -0.6028 -0.6028
  206MOL0     C28351  10.232   7.899   6.040  0.6120  0.0011  0.7240
  206MOL0     C28352  10.118   7.919   6.141  0.1181  0.3062 -0.0871
  206MOL0     C28353  10.010   7.815   6.148  0.7524 -0.0412  0.3085
  206MOL0     C28354   9.943   7.822   6.272  0.5342  0.9092 -0.0355
  206MOL0     C28355   9.901   7.835   6.384  1.0719 -0.2247 -0.0561
  206MOL0     C28356  10.561   8.183   5.990 -0.5520 -0.3485 -0.2517
  206MOL0     C28357  10.658   8.279   5.970 -0.1469 -0.8388 -0.4862
  206MOL0     C28358  10.730   8.326   6.099 -0.2541  0.6961  1.1455
  206MOL0     H28359  10.836   8.712   5.571  2.4972  2.8808 -1.3073
  206MOL0     H28360  11.061   8.808   5.559 -0.1768  0.4605  2.2237
  206MOL0     H28361  11.422   8.554   5.666 -0.6370  0.1003 -0.4484
  206MOL0     H28362  11.351   8.635   5.811 -0.1958 -0.0093 -0.6024
  206MOL0     H28363  11.547   8.781   5.643  2.0183 -1.8402  0.8219
  206MOL0     H28364  11.442   8.844   5.777 -1.8226 -1.5837  2.4914
  206MOL0     H28365  11.648   8.792   5.892  0.9901 -0.6989  2.6418
  206MOL0     H28366  11.554   8.642   5.903 -0.6452 -0.2604 -0.8168
  206MOL0     H28367  11.679   8.538   5.723 -2.1919  1.0014  0.5638
  206MOL0     H28368  11.762   8.697   5.694 -0.1403 -0.0658 -0.5813
  206MOL0     H28369  11.892   8.508   5.840  0.3330  1.1783 -0.8194
  206MOL0     H28370  11.758   8.520   5.948  0.6552  0.6720  1.6270
  206MOL0     H28371  11.928   8.763   5.867  1.8396 -2.5150 -0.1181
  206MOL0     H28372  11.825   8.756   6.007  1.1364  1.1931  1.3692
  206MOL0     H28373  12.073   8.586   5.937 -0.9299  0.4192 -1.7270
  206MOL0     H28374  11.970   8.586   6.082 -2.2411  1.7763  0.3454
  206MOL0     H28375  12.187   8.707   6.104  1.9446  3.7366 -0.0430
  206MOL0     H28376  12.141   8.824   5.989  0.7198 -2.2905 -1.7529
  206MOL0     H28377  11.931   9.001   6.038  2.0188  0.4446  0.0123
  206MOL0     H28378  11.792   9.164   6.237  0.8253 -0.2867  0.3695
  206MOL0     H28379  11.793   9.088   6.391  2.3415  2.6128 -0.7411
  206MOL0     H28380  11.636   8.894   6.306  1.4426 -0.4697 -1.6797
  206MOL0     H28381  11.570   9.060   6.339 -1.1225  0.3708 -0.4890
  206MOL0     H28382  11.597   9.097   6.086  2.9356 -0.6405  1.6122
  206MOL0     H28383  11.623   8.924   6.059 -1.0743 -0.3956  0.1651
  206MOL0     H28384  11.395   8.976   6.010 -0.6123  2.5284  0.1975
  206MOL0     H28385  11.432   8.846   6.124 -1.1997  0.3159 -0.2324
  206MOL0     H28386  11.188   9.176   6.315 -0.1976  1.1533  0.2585
  206MOL0     H28387  11.070   9.171   6.624 -0.6432 -0.9884  0.5738
  206MOL0     H28388  10.927   9.104   6.542  0.4314 -0.4999 -3.3954
  206MOL0     H28389  11.016   9.222   6.457  0.2384 -0.7459 -2.4774
  206MOL0     H28390  11.125   8.523   6.887  1.8367  0.7901 -1.2907
  206MOL0     H28391  10.957   8.366   6.949  3.4089  1.2221 -0.1616
  206MOL0     H28392  10.785   8.191   6.934  0.6375  0.1328  0.1034
  206MOL0     H28393  10.751   8.335   7.032  0.0731  2.2521 -1.6913
  206MOL0     H28394  10.593   8.131   7.079 -0.4688  1.3445  1.0318
  206MOL0     H28395  10.506   8.268   7.050  0.3822 -0.6169  2.3791
  206MOL0     H28396  10.553   8.121   6.786 -2.1546  0.2996 -1.8848
  206MOL0     H28397  10.405   8.198   6.851 -0.1472 -0.1192  0.1863
  206MOL0     H28398  10.423   8.008   7.019  3.6844  1.7055  0.4131
  206MOL0     H28399  10.536   7.933   6.913  0.3869  0.9219 -0.9775
  206MOL0     H28400  10.252   8.011   6.831  0.3807  1.0283  0.5750
  206MOL0     H28401  10.376   7.950   6.722  1.7457 -1.4868  0.5802
  206MOL0     H28402  10.255   7.822   6.976  1.1374  0.9019 -0.0934
  206MOL0     H28403  10.361   7.737   6.855 -0.7578 -1.5908  2.0790
  206MOL0     H28404  10.176   7.739   6.701 -1.3993  0.0644 -0.3942
  206MOL0     H28405  10.087   7.863   6.779 -0.3986 -0.0321 -0.2511
  206MOL0     H28406  10.056   7.675   6.967 -1.4356 -4.0468  0.2890
  206MOL0     H28407  10.137   7.571   6.862  1.7385  1.3962 -2.0372
  206MOL0     H28408  10.702   8.528   6.654 -1.2202 -1.4804  2.2109
  206MOL0     H28409  10.860   8.712   6.612 -5.1399 -1.2594  0.8044
  206MOL0     H28410  11.239   8.735   6.521 -0.5130  1.4871  1.4696
  206MOL0     H28411  11.379   8.791   6.323  0.4188  0.5109  0.3662
  206MOL0     H28412  11.235   8.446   5.707  0.0268  0.7957  2.0402
  206MOL0     H28413  11.024   8.347   5.724 -2.8527  1.4939  3.2537
  206MOL0     H28414  10.597   8.325   5.633  2.6581  1.7089 -0.1661
  206MOL0     H28415  10.446   8.122   5.687 -2.9214  0.1020  1.0581
  206MOL0     H28416  10.390   8.013   6.114  1.7840  0.4651 -2.0594
  206MOL0     H28417  10.265   8.116   6.042  1.0793  0.2654 -2.5307
  206MOL0     H28418  10.294   7.810   6.055 -1.3094 -1.1384  2.4066
  206MOL0     H28419  10.189   7.877   5.941  2.1640 -1.3523  0.3104
  206MOL0     H28420  10.172   7.928   6.235  2.6732 -0.8685 -1.3346
  206MOL0     H28421  10.062   8.012   6.130 -1.5232 -0.4706  1.2851
  206MOL0     H28422  10.057   7.717   6.140  2.3398  0.8058 -1.4267
  206MOL0     H28423   9.940   7.831   6.066  1.9378  1.2370 -0.4913
  206MOL0     H28424   9.873   7.843   6.487  0.7915 -4.1592  0.3142
  206MOL0     H28425  10.529   8.156   6.090 -0.6560 -0.6192 -0.3570
  206MOL0     H28426  10.835   8.344   6.074 -0.6458 -0.2019 -1.5538
  206MOL0     H28427  10.683   8.416   6.139 -0.4877  1.9447 -1.6794
  206MOL0     H28428  10.707   8.251   6.175 -1.9632 -1.1437 -1.0351
  207MOL0     O28429   4.832   8.406   7.891  0.6047  0.3307 -0.2185
  207MOL0     C28430   4.830   8.283   7.884 -0.0151 -0.4269 -0.9348
  207MOL0     O28431   4.738   8.206   7.936 -0.4034 -0.1719  0.1404
  207MOL0     C28432   4.640   8.261   8.019 -0.1408 -0.0785  1.1424
  207MOL0     C28433   4.505   8.270   7.985 -0.8113  0.3138 -0.5708
  207MOL0     C28434   4.410   8.321   8.077  0.1090  0.3117  0.0153
  207MOL0     C28435   4.437   8.352   8.209 -0.3540  0.1147 -0.0941
  207MOL0     O28436   4.336   8.390   8.296 -0.1457 -0.1213 -0.3993
  207MOL0     C28437   4.201   8.347   8.278 -0.0656 -0.6203 -0.1443
  207MOL0     C28438   4.118   8.345   8.412 -0.6637  0.5375  0.0345
  207MOL0     C28439   3.967   8.309   8.387  1.0161 -0.3791  0.3100
  207MOL0     C28440   3.872   8.354   8.493 -0.4184  0.6365  0.0828
  207MOL0     C28441   3.727   8.298   8.479 -0.8561 -0.3321 -0.8505
  207MOL0     C28442   3.664   8.350   8.355 -0.1668  0.7246 -0.2993
  207MOL0     C28443   3.514   8.328   8.343  0.7825 -0.5911 -0.1554
  207MOL0     C28444   3.445   8.404   8.231 -0.1598 -0.2681  0.3698
  207MOL0     N28445   3.421   8.539   8.279 -0.5063 -0.3820  0.7441
  207MOL0     C28446   3.308   8.577   8.351  0.3643  0.1803  0.3659
  207MOL0     C28447   3.318   8.716   8.359  0.0813  0.7078 -0.2892
  207MOL0     C28448   3.220   8.802   8.444 -0.0168 -0.1626 -0.3169
  207MOL0     C28449   3.143   8.904   8.365 -0.0834 -0.0791  1.2939
  207MOL0     C28450   3.062   8.837   8.253 -0.5373  0.3865  0.4944
  207MOL0     C28451   2.917   8.896   8.237 -0.7431  0.2215 -0.1638
  207MOL0     O28452   2.822   8.852   8.336  0.1534 -0.0410  0.6442
  207MOL0     C28453   2.718   8.940   8.353 -0.1742  0.2808 -0.2926
  207MOL0     C28454   2.667   9.032   8.270  0.1841 -0.3741  0.1221
  207MOL0     C28455   2.552   9.112   8.293 -0.9700  0.6688 -0.7990
  207MOL0     C28456   2.494   9.198   8.186  0.1461 -0.6017 -0.3319
  207MOL0     C28457   2.479   9.091   8.415 -0.2539  0.2387  0.3167
  207MOL0     C28458   2.364   9.164   8.468  0.4317  0.1599  0.3417
  207MOL0     O28459   2.284   9.108   8.560  0.3996  0.5923 -0.0908
  207MOL0     C28460   2.175   9.184   8.602  0.0712 -0.2096  0.0444
  207MOL0     C28461   2.070   9.216   8.521  0.1691 -0.7321  0.2307
  207MOL0     C28462   1.954   9.279   8.568 -0.5126 -1.3782  0.6019
  207MOL0     C28463   1.942   9.298   8.706 -0.0616  0.1015 -0.5337
  207MOL0     O28464   1.822   9.345   8.764 -0.2969 -0.2901 -0.2954
  207MOL0     C28465   1.690   9.300   8.720  0.4859  0.1427 -0.3686
  207MOL0     C28466   1.581   9.363   8.801  0.4511 -0.2360  0.2312
  207MOL0     C28467   1.574   9.312   8.942  0.6752  0.3236  0.6504
  207MOL0     C28468   1.552   9.160   8.967 -0.1092 -1.3440  0.3408
  207MOL0     C28469   1.510   9.106   9.108  0.1634 -0.2656  1.2102
  207MOL0     C28470   1.370   9.150   9.148  0.0899 -0.1716  0.5715
  207MOL0     C28471   1.341   9.106   9.290  0.3774 -0.0527  0.3142
  207MOL0     C28472   1.316   8.955   9.311 -0.0007  0.0656 -0.0689
  207MOL0    Cl28473   1.145   8.909   9.244 -0.3563 -0.0626  0.3130
  207MOL0     C28474   2.043   9.262   8.797 -0.1472  0.1009  0.7796
  207MOL0     C28475   2.164   9.215   8.741 -0.4815  0.0649 -0.0874
  207MOL0     O28476   2.357   9.279   8.427 -0.0334  0.0595 -0.4982
  207MOL0     C28477   2.534   8.997   8.498 -1.1949 -0.7789 -0.7382
  207MOL0     C28478   2.642   8.917   8.469  0.0618 -0.3979  1.0030
  207MOL0     N28479   3.436   8.748   8.292 -0.5246 -0.5389 -0.4929
  207MOL0     N28480   3.498   8.647   8.250 -0.3741 -0.2879  0.5903
  207MOL0     C28481   4.571   8.337   8.243 -0.2191 -0.5326 -0.0752
  207MOL0     C28482   4.670   8.281   8.158  0.3950 -0.6104 -0.4265
  207MOL0     C28483   4.953   8.218   7.835 -0.6305 -0.2098  0.2302
  207MOL0     C28484   4.941   8.128   7.726 -0.0773  0.3664 -0.4062
  207MOL0     C28485   5.056   8.059   7.691 -0.2844  0.0817 -0.4186
  207MOL0     C28486   5.176   8.077   7.748  0.5093  0.2560 -0.3785
  207MOL0     O28487   5.282   8.005   7.701 -0.3076  0.3103  0.2912
  207MOL0     C28488   5.385   7.979   7.799 -0.7479 -0.1941 -0.1918
  207MOL0     C28489   5.405   7.825   7.777 -0.6733 -0.2594 -0.4383
  207MOL0     C28490   5.287   7.737   7.805 -0.1612 -0.4641  0.4497
  207MOL0     C28491   5.324   7.598   7.765 -0.6983  0.3332  0.3631
  207MOL0     C28492   5.220   7.497   7.803 -0.2752 -0.2936  0.4658
  207MOL0     C28493   5.148   7.403   7.803  0.0394 -0.1629  0.2092
  207MOL0     C28494   5.187   8.181   7.850  0.0182  0.1940 -0.3458
  207MOL0     C28495   5.078   8.252   7.890  0.1657  0.4066 -0.3945
  207MOL0     C28496   5.108   8.352   8.004  0.5519  0.5772 -0.1201
  207MOL0     H28497   4.479   8.229   7.888  1.2704 -1.4561 -0.4430
  207MOL0     H28498   4.307   8.339   8.048 -0.7820 -0.7756  2.2642
  207MOL0     H28499   4.198   8.257   8.216 -2.7244 -1.5094  1.1265
  207MOL0     H28500   4.142   8.424   8.227 -1.6383 -0.9624  1.0642
  207MOL0     H28501   4.152   8.264   8.478  1.9716  1.1564 -0.4810
  207MOL0     H28502   4.131   8.433   8.475  0.1863 -0.1760  0.8956
  207MOL0     H28503   3.930   8.347   8.291 -0.4210 -2.1400  0.1312
  207MOL0     H28504   3.952   8.201   8.380  0.2898 -0.2275 -0.5351
  207MOL0     H28505   3.919   8.324   8.587  0.9758  0.2956 -0.7011
  207MOL0     H28506   3.873   8.464   8.499 -0.5545  0.7403 -1.4116
  207MOL0     H28507   3.670   8.324   8.569  2.0377 -3.0603  2.0473
  207MOL0     H28508   3.732   8.189   8.481  3.4511 -0.3520  2.3595
  207MOL0     H28509   3.689   8.456   8.351  1.9932  0.2506 -0.6296
  207MOL0     H28510   3.713   8.306   8.267 -0.0592  0.4188 -0.0874
  207MOL0     H28511   3.473   8.352   8.442 -0.0793  0.2788 -0.7091
  207MOL0     H28512   3.497   8.220   8.330 -0.2157 -0.5391  0.5841
  207MOL0     H28513   3.498   8.410   8.135 -1.2857  0.3200 -0.2417
  207MOL0     H28514   3.350   8.359   8.202 -1.0627 -0.1637  2.9061
  207MOL0     H28515   3.225   8.521   8.391  0.3363 -0.8318 -1.0354
  207MOL0     H28516   3.281   8.853   8.519 -0.5050 -0.1292  0.0588
  207MOL0     H28517   3.146   8.741   8.497 -1.8399  2.5736  0.4918
  207MOL0     H28518   3.070   8.959   8.426  0.0575  0.6341  0.8362
  207MOL0     H28519   3.220   8.973   8.332  0.2036 -1.2669 -0.6096
  207MOL0     H28520   3.114   8.855   8.158 -0.0380 -0.1502  0.6635
  207MOL0     H28521   3.056   8.728   8.260  0.1493  0.2239 -0.9642
  207MOL0     H28522   2.928   9.004   8.238 -0.6002  0.2401 -1.3740
  207MOL0     H28523   2.875   8.877   8.138 -0.5226 -1.6207  0.0530
  207MOL0     H28524   2.716   9.050   8.174  0.8412  0.0069  0.5179
  207MOL0     H28525   2.521   9.151   8.090  0.9648 -0.9669  0.0694
  207MOL0     H28526   2.525   9.302   8.191 -2.7540  0.3118  0.8449
  207MOL0     H28527   2.386   9.198   8.202  0.3354  0.2706  1.0288
  207MOL0     H28528   2.076   9.202   8.413  0.4868  0.4212  0.0800
  207MOL0     H28529   1.873   9.296   8.498  0.0088 -2.8452 -0.3992
  207MOL0     H28530   1.659   9.323   8.618 -0.8709 -1.7181 -0.4307
  207MOL0     H28531   1.685   9.191   8.728 -0.0614  0.2260  0.6531
  207MOL0     H28532   1.594   9.470   8.815 -2.2221  0.1998 -0.0135
  207MOL0     H28533   1.485   9.364   8.748  0.2671  0.9304  0.5585
  207MOL0     H28534   1.495   9.368   8.992 -0.5568  1.4568 -2.3020
  207MOL0     H28535   1.672   9.331   8.988  0.6506 -2.0688  1.8368
  207MOL0     H28536   1.650   9.118   8.942  1.0297  0.0001  2.2698
  207MOL0     H28537   1.474   9.126   8.898 -2.3493  1.6486  1.1943
  207MOL0     H28538   1.506   8.997   9.103 -1.1784 -0.1966  0.4616
  207MOL0     H28539   1.585   9.141   9.180  0.8293 -1.1146  0.9402
  207MOL0     H28540   1.301   9.094   9.084  0.8663 -0.1366 -0.3008
  207MOL0     H28541   1.368   9.258   9.129  2.4138 -0.4498 -1.8945
  207MOL0     H28542   1.249   9.158   9.320  0.7837  0.1471  1.2358
  207MOL0     H28543   1.418   9.133   9.363 -0.3230 -0.8238  1.3688
  207MOL0     H28544   1.310   8.921   9.414  0.0291  1.5231  0.4407
  207MOL0     H28545   1.381   8.889   9.253 -2.3400  0.4737 -3.5363
  207MOL0     H28546   2.015   9.271   8.901  0.9714 -4.7999  1.7363
  207MOL0     H28547   2.245   9.216   8.813 -1.0359 -3.4892  0.7850
  207MOL0     H28548   2.499   8.974   8.598 -0.0906 -0.0336 -0.1689
  207MOL0     H28549   2.678   8.846   8.543  1.8719 -0.0891  0.4713
  207MOL0     H28550   4.599   8.359   8.346  3.6630  1.6399 -1.3573
  207MOL0     H28551   4.764   8.259   8.208 -0.5510  0.6059  2.0776
  207MOL0     H28552   4.847   8.094   7.682  0.2087 -0.3586 -0.4809
  207MOL0     H28553   5.050   7.990   7.607 -1.3944  0.6795 -0.8517
  207MOL0     H28554   5.475   8.035   7.772 -0.8505  1.4370  2.4625
  207MOL0     H28555   5.371   8.007   7.904 -1.6743 -0.9606 -0.0953
  207MOL0     H28556   5.496   7.797   7.831 -0.9103  0.7990  0.5329
  207MOL0     H28557   5.424   7.806   7.671  0.1577 -0.8837 -0.1872
  207MOL0     H28558   5.250   7.742   7.908  0.0087 -0.5109  0.5137
  207MOL0     H28559   5.202   7.772   7.747 -1.1952 -0.9270  1.6359
  207MOL0     H28560   5.417   7.567   7.814 -1.1521 -0.2726  0.8668
  207MOL0     H28561   5.333   7.590   7.656 -1.6463 -2.2884  0.3874
  207MOL0     H28562   5.073   7.326   7.796 -0.9046  0.5971  1.5416
  207MOL0     H28563   5.287   8.205   7.885 -0.7019 -0.6863  2.6538
  207MOL0     H28564   5.169   8.299   8.077 -0.5329  0.8055  0.9752
  207MOL0     H28565   5.156   8.439   7.959 -0.7819  1.5122  0.1920
  207MOL0     H28566   5.019   8.386   8.057  0.5011  2.9970 -1.5983
  208MOL0     O28567   9.494   7.844   9.408  0.6310 -0.2998  0.5313
  208MOL0     C28568   9.412   7.758   9.401  0.5476 -0.6068 -0.2802
  208MOL0     O28569   9.435   7.626   9.400 -0.1507  0.0277 -0.2994
  208MOL0     C28570   9.556   7.582   9.403  0.2773  0.2979  0.1174
  208MOL0     C28571   9.574   7.466   9.319  0.0399 -0.4025  0.6761
  208MOL0     C28572   9.701   7.402   9.313  0.0199  0.1144  0.9549
  208MOL0     C28573   9.804   7.440   9.390 -1.0227  0.3493  0.5154
  208MOL0     O28574   9.922   7.370   9.374  0.1238 -0.5369 -0.3436
  208MOL0     C28575  10.033   7.433   9.444 -0.3787  0.4071  0.4993
  208MOL0     C28576  10.163   7.370   9.389  0.3312 -0.5504 -0.0040
  208MOL0     C28577  10.165   7.217   9.414  0.0661 -0.5235  0.3506
  208MOL0     C28578  10.311   7.157   9.385  0.6921 -0.0082  0.6605
  208MOL0     C28579  10.325   7.005   9.408 -0.2272 -0.3626  0.1006
  208MOL0     C28580  10.475   6.980   9.405 -0.0729 -0.3213 -1.0426
  208MOL0     C28581  10.510   6.837   9.449 -0.0226  0.0613 -0.5338
  208MOL0     C28582  10.657   6.794   9.422 -0.4963 -1.3784 -0.2564
  208MOL0     N28583  10.764   6.894   9.463  0.0625 -0.3294  0.8907
  208MOL0     C28584  10.842   6.972   9.370  0.1033  0.3438  0.2495
  208MOL0     C28585  10.909   7.057   9.448 -0.6863  0.1369  0.3001
  208MOL0     C28586  11.027   7.125   9.390 -0.3193 -0.5231 -0.4947
  208MOL0     C28587  10.983   7.260   9.339 -0.3853  1.3167 -0.1393
  208MOL0     C28588  11.091   7.305   9.245 -0.1478 -1.0359 -0.1673
  208MOL0     C28589  11.078   7.453   9.208 -0.6041  0.0677 -0.2080
  208MOL0     O28590  10.979   7.456   9.104  0.7009 -0.3631  0.0167
  208MOL0     C28591  10.936   7.574   9.049  0.1474  0.9497  0.5459
  208MOL0     C28592  10.958   7.705   9.097 -0.3403  0.4521  0.1093
  208MOL0     C28593  10.903   7.814   9.024  0.4107  0.3309  0.1434
  208MOL0     C28594  10.927   7.961   9.073 -0.2532  1.0462 -1.1031
  208MOL0     C28595  10.824   7.780   8.910 -0.7143 -0.3737  0.0669
  208MOL0     C28596  10.774   7.894   8.826 -0.0339  0.4192 -0.6792
  208MOL0     O28597  10.699   7.980   8.897 -0.1769 -0.6625 -0.5084
  208MOL0     C28598  10.635   8.088   8.851 -0.2246 -0.0966  0.3383
  208MOL0     C28599  10.710   8.202   8.821  0.2609 -1.0949 -0.0732
  208MOL0     C28600  10.648   8.319   8.774  0.1054 -0.3499 -0.5005
  208MOL0     C28601  10.518   8.326   8.764  0.3569  0.1742 -0.4827
  208MOL0     O28602  10.472   8.447   8.711 -0.5564  0.1292  0.2376
  208MOL0     C28603  10.330   8.463   8.726  0.2936  0.4606 -1.0483
  208MOL0     C28604  10.300   8.610   8.684 -0.9987  1.0790  0.4439
  208MOL0     C28605  10.147   8.630   8.716 -0.0649 -0.7767  0.1915
  208MOL0     C28606  10.059   8.553   8.621  0.4082  0.2234 -0.0748
  208MOL0     C28607   9.918   8.611   8.602  0.2578  0.0419  0.0522
  208MOL0     C28608   9.840   8.531   8.492  0.3463 -0.3616 -0.0094
  208MOL0     C28609   9.709   8.593   8.467  1.0191  0.9088 -0.8065
  208MOL0     C28610   9.643   8.546   8.337  0.4485 -0.2629 -0.3583
  208MOL0    Cl28611   9.622   8.372   8.337 -0.0096  0.1688 -0.0742
  208MOL0     C28612  10.437   8.210   8.787 -0.5149 -0.6924 -0.7741
  208MOL0     C28613  10.498   8.091   8.835  0.2494  0.6627 -0.0965
  208MOL0     O28614  10.797   7.904   8.707 -0.4831 -0.6300 -0.1643
  208MOL0     C28615  10.811   7.649   8.859  0.3693  0.4806  0.6362
  208MOL0     C28616  10.871   7.547   8.927 -0.5544 -0.3513  1.0386
  208MOL0     N28617  10.873   7.034   9.583  0.0558  0.0279 -0.4222
  208MOL0     N28618  10.791   6.928   9.586  0.6505  0.6318  0.2316
  208MOL0     C28619   9.778   7.541   9.492 -0.1399  0.3618  0.0546
  208MOL0     C28620   9.657   7.612   9.486  0.3134 -1.1752  0.1635
  208MOL0     C28621   9.270   7.799   9.401  0.1727  0.1224 -0.4429
  208MOL0     C28622   9.180   7.729   9.319  0.6635 -0.1530 -0.9650
  208MOL0     C28623   9.041   7.761   9.317 -0.4610  0.2169  0.2709
  208MOL0     C28624   8.987   7.860   9.393  0.1051  0.5438  1.1034
  208MOL0     O28625   8.854   7.883   9.365  0.6336 -0.3141  0.3015
  208MOL0     C28626   8.780   7.984   9.434 -0.0828 -0.3368 -0.2094
  208MOL0     C28627   8.802   8.126   9.389  0.0338 -0.0790  0.0275
  208MOL0     C28628   8.692   8.222   9.360  1.0639 -0.1694 -0.0649
  208MOL0     C28629   8.629   8.284   9.483  0.4404 -0.0630  0.3424
  208MOL0     C28630   8.551   8.189   9.561  0.1090 -0.6820  0.0181
  208MOL0     C28631   8.484   8.110   9.630  0.0672  0.9442  0.2775
  208MOL0     C28632   9.077   7.941   9.470 -0.6214  0.1810  0.1890
  208MOL0     C28633   9.215   7.909   9.475  0.3907 -0.3699 -0.5400
  208MOL0     C28634   9.297   7.987   9.571 -0.2399  0.0447  0.2663
  208MOL0     H28635   9.498   7.418   9.258 -0.3047  1.1870 -0.2185
  208MOL0     H28636   9.720   7.315   9.251  1.2699  2.1089 -1.6468
  208MOL0     H28637  10.018   7.422   9.552  1.2279  2.7099  1.0420
  208MOL0     H28638  10.036   7.540   9.421 -0.3335 -0.1245 -2.3976
  208MOL0     H28639  10.171   7.392   9.283  0.2891  0.2418  0.1444
  208MOL0     H28640  10.250   7.417   9.435  0.5908 -0.6033 -0.4472
  208MOL0     H28641  10.138   7.195   9.518  0.7657 -0.2063  0.6025
  208MOL0     H28642  10.085   7.165   9.360 -2.5981 -1.2045  4.4303
  208MOL0     H28643  10.334   7.178   9.280 -3.3600  3.3735  0.1820
  208MOL0     H28644  10.379   7.212   9.450  2.9508 -2.2196  0.3431
  208MOL0     H28645  10.265   6.960   9.329 -0.7141  1.1779 -0.4412
  208MOL0     H28646  10.279   6.985   9.505 -3.2483  0.4931 -1.0659
  208MOL0     H28647  10.513   7.007   9.306  0.3820  0.1235 -0.7533
  208MOL0     H28648  10.523   7.049   9.475 -1.4762 -1.0950  0.7823
  208MOL0     H28649  10.444   6.766   9.397 -1.4746 -0.2599  1.5786
  208MOL0     H28650  10.484   6.825   9.555 -3.2198 -0.8409 -1.2995
  208MOL0     H28651  10.672   6.702   9.480 -1.7052 -1.2321  0.3241
  208MOL0     H28652  10.665   6.780   9.314 -1.1700 -0.7673 -0.3965
  208MOL0     H28653  10.857   6.943   9.267  1.5059 -0.8017  0.7371
  208MOL0     H28654  11.072   7.062   9.313  2.0531  0.8607 -0.3563
  208MOL0     H28655  11.113   7.128   9.458  1.6776 -0.7625 -2.8482
  208MOL0     H28656  10.891   7.249   9.281 -0.3364 -1.5274  0.1882
  208MOL0     H28657  10.972   7.331   9.422 -0.8282  1.8050 -0.6105
  208MOL0     H28658  11.187   7.291   9.295 -1.2416 -3.2345  1.4531
  208MOL0     H28659  11.101   7.242   9.157  3.1434  0.5496 -1.1040
  208MOL0     H28660  11.050   7.507   9.299  2.7057  1.8695 -0.0943
  208MOL0     H28661  11.167   7.509   9.177  0.5505 -0.7353  1.5070
  208MOL0     H28662  11.019   7.708   9.187 -1.7059 -3.1050  1.3353
  208MOL0     H28663  11.018   7.968   9.134 -2.5554 -1.5980  3.1682
  208MOL0     H28664  10.841   7.974   9.140 -0.7518 -1.6476 -1.0768
  208MOL0     H28665  10.931   8.033   8.991  0.9034  2.7640  0.3709
  208MOL0     H28666  10.818   8.206   8.824  0.3323 -0.6153 -1.9478
  208MOL0     H28667  10.719   8.398   8.752  2.3279 -1.6198  1.5905
  208MOL0     H28668  10.273   8.395   8.662 -1.0878  1.7920 -1.2842
  208MOL0     H28669  10.308   8.442   8.831 -1.0268 -1.7833 -1.6984
  208MOL0     H28670  10.346   8.688   8.745  0.0558 -0.9856  2.3759
  208MOL0     H28671  10.320   8.616   8.576 -2.2368 -2.4971 -0.1336
  208MOL0     H28672  10.134   8.738   8.706  3.5411 -0.3465 -1.5051
  208MOL0     H28673  10.113   8.601   8.816  0.5858 -1.8412  0.1232
  208MOL0     H28674  10.043   8.452   8.661  0.3992  0.4867  0.6027
  208MOL0     H28675  10.103   8.534   8.523  1.5143 -4.2366  1.0394
  208MOL0     H28676   9.861   8.613   8.695 -0.2426 -0.5469 -0.2373
  208MOL0     H28677   9.939   8.708   8.557  1.1863  0.3613  1.1420
  208MOL0     H28678   9.825   8.425   8.516  1.5538 -0.7088 -0.7340
  208MOL0     H28679   9.899   8.539   8.400  0.4969 -0.6043  0.0622
  208MOL0     H28680   9.708   8.701   8.455 -0.4127  0.7988 -1.9245
  208MOL0     H28681   9.643   8.565   8.550  3.4427 -4.3029 -0.2111
  208MOL0     H28682   9.700   8.588   8.254  1.6941 -1.9064 -0.4005
  208MOL0     H28683   9.548   8.598   8.327  2.2102  2.8070 -3.1729
  208MOL0     H28684  10.330   8.201   8.773 -0.4323  0.2319 -2.2105
  208MOL0     H28685  10.439   8.004   8.861  2.3276 -0.8202 -0.1546
  208MOL0     H28686  10.769   7.631   8.760  2.0173  1.0856 -0.2164
  208MOL0     H28687  10.873   7.445   8.889  2.9864 -0.6211  1.6259
  208MOL0     H28688   9.857   7.566   9.561 -0.2498 -0.8301  0.6420
  208MOL0     H28689   9.640   7.691   9.558 -0.9311  0.6089 -1.9639
  208MOL0     H28690   9.212   7.644   9.259 -0.9737 -2.1581  0.8225
  208MOL0     H28691   8.977   7.711   9.244 -0.4172 -1.5242  1.3630
  208MOL0     H28692   8.674   7.965   9.416  0.1596  0.4253 -2.9252
  208MOL0     H28693   8.801   7.961   9.539  1.8880 -1.1433 -0.7400
  208MOL0     H28694   8.851   8.106   9.293 -1.0932 -4.4062  0.1791
  208MOL0     H28695   8.880   8.168   9.453 -0.8934  0.1555  1.0210
  208MOL0     H28696   8.721   8.302   9.291 -2.5384  0.9160 -0.5465
  208MOL0     H28697   8.618   8.162   9.306  0.0353 -0.8152  1.9522
  208MOL0     H28698   8.560   8.366   9.462  1.3343  1.6551  3.4717
  208MOL0     H28699   8.696   8.327   9.558 -0.1641 -1.5072  1.7651
  208MOL0     H28700   8.435   8.036   9.689 -1.3916 -1.2264 -3.2977
  208MOL0     H28701   9.042   8.031   9.519 -3.6384  0.1118 -1.6042
  208MOL0     H28702   9.362   8.055   9.515 -0.7978 -0.0206 -0.4635
  208MOL0     H28703   9.240   8.043   9.646  0.5795 -0.4058  1.2507
  208MOL0     H28704   9.355   7.917   9.632 -2.0597 -1.0729  0.7956
  209MOL0     O28705   6.541   7.229   0.588  0.2269  0.0467  0.2407
  209MOL0     C28706   6.465   7.243   0.688 -1.0859  0.4280 -0.6048
  209MOL0     O28707   6.513   7.283   0.809 -0.0114 -0.5755 -0.1622
  209MOL0     C28708   6.643   7.306   0.836  0.8977  0.2315  0.5578
  209MOL0     C28709   6.711   7.204   0.896  0.1971  0.4262 -0.8729
  209MOL0     C28710   6.839   7.222   0.938  0.0265 -0.4835 -0.0926
  209MOL0     C28711   6.910   7.337   0.898 -0.2134  0.0009 -0.5654
  209MOL0     O28712   7.047   7.351   0.913  0.1241 -0.0812  0.3721
  209MOL0     C28713   7.125   7.237   0.957 -0.1108  0.5051 -0.2575
  209MOL0     C28714   7.272   7.266   0.979 -1.2200 -0.2165  0.5960
  209MOL0     C28715   7.363   7.312   0.873  0.2708 -0.2500  0.3902
  209MOL0     C28716   7.506   7.293   0.906 -0.3599  0.0955  0.6113
  209MOL0     C28717   7.572   7.416   0.981 -1.0818 -0.1905 -0.3448
  209MOL0     C28718   7.713   7.389   1.045  0.2226 -0.5207 -0.6954
  209MOL0     C28719   7.782   7.515   1.086 -0.6878 -0.0954 -0.2912
  209MOL0     C28720   7.705   7.624   1.169 -0.2114  0.6886  0.1844
  209MOL0     N28721   7.752   7.601   1.304  0.0070  0.4643  0.1325
  209MOL0     C28722   7.709   7.498   1.385 -0.3845 -0.4830 -0.5386
  209MOL0     C28723   7.763   7.530   1.506 -0.2289  0.2583 -0.0672
  209MOL0     C28724   7.744   7.440   1.624  0.7878 -0.0203 -0.7647
  209MOL0     C28725   7.866   7.375   1.673  0.3881 -0.9814 -0.8807
  209MOL0     C28726   7.840   7.270   1.780 -0.3309 -0.1665  0.7738
  209MOL0     C28727   7.967   7.202   1.818 -0.1065  0.4073 -0.4219
  209MOL0     O28728   8.081   7.286   1.833  0.6977  0.1318 -0.1022
  209MOL0     C28729   8.203   7.227   1.850  0.7312  0.0392 -0.4575
  209MOL0     C28730   8.226   7.091   1.868 -0.5302  0.3808 -0.3322
  209MOL0     C28731   8.354   7.042   1.891 -0.6400 -0.4247  0.3874
  209MOL0     C28732   8.361   6.895   1.916  0.0985  0.1883  0.2121
  209MOL0     C28733   8.462   7.131   1.903  0.2204  0.3490  0.5260
  209MOL0     C28734   8.602   7.092   1.912  0.6488  0.0530 -0.4200
  209MOL0     O28735   8.659   7.067   2.036  0.0412 -0.9389 -0.1636
  209MOL0     C28736   8.775   7.011   2.036  0.0120  0.6193  0.0783
  209MOL0     C28737   8.793   6.872   2.035 -1.0934  0.2276  0.1960
  209MOL0     C28738   8.919   6.818   2.048 -0.4256 -0.9445 -1.1544
  209MOL0     C28739   9.025   6.899   2.064  0.7448 -0.8877 -0.1695
  209MOL0     O28740   9.151   6.842   2.076 -0.2847 -0.5879 -0.3950
  209MOL0     C28741   9.270   6.915   2.028  0.4968  1.0701  0.6426
  209MOL0     C28742   9.390   6.827   2.058 -0.3249 -0.2269  0.6518
  209MOL0     C28743   9.488   6.850   1.943 -0.3085  0.1312  0.4385
  209MOL0     C28744   9.571   6.985   1.952  0.5731  0.0226 -0.4789
  209MOL0     C28745   9.704   6.986   1.869 -0.1936  0.3408 -0.8370
  209MOL0     C28746   9.761   7.130   1.845 -0.1781 -0.0045 -0.2423
  209MOL0     C28747   9.897   7.115   1.763  0.2721 -0.1485 -0.5523
  209MOL0     C28748   9.959   7.251   1.707 -0.2093 -0.0387  0.3544
  209MOL0    Cl28749  10.120   7.232   1.618 -0.0358 -0.2959 -0.1116
  209MOL0     C28750   9.010   7.040   2.075  0.3668 -0.0063  0.5320
  209MOL0     C28751   8.888   7.096   2.051  0.0858 -0.3337  0.5766
  209MOL0     O28752   8.665   7.079   1.806  0.2434  0.1557  0.4668
  209MOL0     C28753   8.435   7.273   1.892 -0.9875 -0.2453 -0.1904
  209MOL0     C28754   8.312   7.317   1.861  0.4214  0.7478 -0.0780
  209MOL0     N28755   7.845   7.644   1.486  0.2554  1.3238 -0.8383
  209MOL0     N28756   7.851   7.670   1.360 -0.1553 -0.0740 -0.3433
  209MOL0     C28757   6.841   7.441   0.834 -0.5883 -0.4003  0.4420
  209MOL0     C28758   6.707   7.427   0.796 -0.0451  0.7215 -0.0845
  209MOL0     C28759   6.321   7.213   0.675  0.1395  0.5290  0.2933
  209MOL0     C28760   6.261   7.267   0.563  0.1283  1.0197  0.0554
  209MOL0     C28761   6.129   7.237   0.530 -0.5372  0.5917  0.5280
  209MOL0     C28762   6.053   7.164   0.627 -0.3430  0.3514 -0.5858
  209MOL0     O28763   5.915   7.169   0.629  0.2027  0.1953  0.6690
  209MOL0     C28764   5.844   7.196   0.504 -0.1468 -0.1929 -0.1749
  209MOL0     C28765   5.694   7.190   0.525 -0.2081 -0.2132  0.0747
  209MOL0     C28766   5.604   7.191   0.391 -0.3565 -0.4369 -0.4646
  209MOL0     C28767   5.581   7.328   0.352 -0.3426 -0.7899  0.5391
  209MOL0     C28768   5.473   7.339   0.263  0.3027  0.5243 -0.3443
  209MOL0     C28769   5.382   7.351   0.185 -1.1524 -0.5723  0.3058
  209MOL0     C28770   6.118   7.107   0.736 -0.2405 -0.1204  0.0590
  209MOL0     C28771   6.253   7.135   0.761  0.3300  0.6694 -0.5078
  209MOL0     C28772   6.316   7.075   0.881  0.3925  0.5823 -0.6214
  209MOL0     H28773   6.667   7.107   0.917 -0.7109  1.3853  2.1763
  209MOL0     H28774   6.889   7.138   0.984  0.9226  1.8353  3.5563
  209MOL0     H28775   7.127   7.159   0.880  1.2232  1.3759 -1.1289
  209MOL0     H28776   7.075   7.195   1.045 -1.2695  1.2628 -0.5370
  209MOL0     H28777   7.290   7.334   1.062 -0.2232 -0.8715  0.9387
  209MOL0     H28778   7.308   7.172   1.023 -0.3506  0.2684  0.9243
  209MOL0     H28779   7.325   7.266   0.781 -0.5876  0.7683  0.2137
  209MOL0     H28780   7.348   7.419   0.856  0.6774 -0.5310 -2.0582
  209MOL0     H28781   7.520   7.205   0.968  1.2988  1.9555  3.0634
  209MOL0     H28782   7.561   7.283   0.812  0.1374  0.6887  0.8306
  209MOL0     H28783   7.505   7.453   1.059 -0.1330  0.8655 -0.0019
  209MOL0     H28784   7.572   7.502   0.914 -1.6419  0.6938  0.7612
  209MOL0     H28785   7.707   7.327   1.134 -1.4830  1.9225  1.0345
  209MOL0     H28786   7.773   7.344   0.966  1.8405 -2.2577  1.4207
  209MOL0     H28787   7.804   7.562   0.990  1.3062 -3.8334 -1.8664
  209MOL0     H28788   7.874   7.484   1.136  0.5686 -2.4473 -3.6410
  209MOL0     H28789   7.732   7.723   1.131  1.9395 -0.3445 -1.1540
  209MOL0     H28790   7.597   7.609   1.158  0.1833 -1.9113 -0.8677
  209MOL0     H28791   7.653   7.409   1.360  0.5177 -0.6110 -2.2127
  209MOL0     H28792   7.674   7.361   1.598  1.5450 -1.1314  0.4477
  209MOL0     H28793   7.709   7.510   1.701  4.3313  3.1204 -1.6488
  209MOL0     H28794   7.929   7.325   1.598 -0.7599 -4.6351  0.4100
  209MOL0     H28795   7.928   7.460   1.704  0.6691 -1.1491 -0.9758
  209MOL0     H28796   7.806   7.321   1.870  2.2510  3.1364  0.0602
  209MOL0     H28797   7.771   7.192   1.747 -0.2470 -0.1408  0.5305
  209MOL0     H28798   7.962   7.143   1.909  1.2535 -0.7427 -1.0639
  209MOL0     H28799   7.993   7.137   1.734  2.6480  1.3163 -0.3790
  209MOL0     H28800   8.143   7.021   1.865 -1.3077  1.2976 -1.5461
  209MOL0     H28801   8.401   6.876   2.016 -0.1592 -0.4645  0.1937
  209MOL0     H28802   8.431   6.848   1.847 -1.6622  0.5518 -1.9117
  209MOL0     H28803   8.269   6.840   1.895 -0.8928  1.3489  1.3180
  209MOL0     H28804   8.700   6.817   2.023 -0.5120 -0.4943 -1.3339
  209MOL0     H28805   8.947   6.713   2.049 -0.2859 -0.9938 -3.5060
  209MOL0     H28806   9.264   6.926   1.919  2.0156 -2.9215 -0.0149
  209MOL0     H28807   9.289   7.013   2.074  3.3214  0.7556  0.3136
  209MOL0     H28808   9.439   6.841   2.155 -0.9796  0.9002  0.8493
  209MOL0     H28809   9.354   6.724   2.050 -0.3777 -0.0945 -1.2326
  209MOL0     H28810   9.436   6.839   1.847 -1.0834  1.4934  0.6661
  209MOL0     H28811   9.552   6.763   1.955 -0.5621 -0.1476 -0.1815
  209MOL0     H28812   9.599   7.004   2.056 -0.0154  0.9754 -0.4768
  209MOL0     H28813   9.501   7.061   1.916 -0.6992 -1.1891 -0.6108
  209MOL0     H28814   9.774   6.925   1.926 -2.4316 -0.3843  1.2969
  209MOL0     H28815   9.687   6.944   1.769  2.2628 -2.2707 -0.2803
  209MOL0     H28816   9.788   7.165   1.946 -0.3314 -0.9099  0.1223
  209MOL0     H28817   9.696   7.205   1.799  0.5521  2.3696  2.2823
  209MOL0     H28818   9.873   7.049   1.679 -1.8104 -1.0268  0.6707
  209MOL0     H28819   9.975   7.070   1.825 -1.8183 -1.1220  1.5062
  209MOL0     H28820   9.969   7.323   1.789 -2.0098  0.2540  0.3401
  209MOL0     H28821   9.886   7.299   1.642 -1.7026 -0.6115  1.5456
  209MOL0     H28822   9.091   7.110   2.089 -0.0874  0.6176  0.1141
  209MOL0     H28823   8.864   7.201   2.067 -2.9494 -1.0364  1.2910
  209MOL0     H28824   8.522   7.339   1.899  0.4029 -2.0145 -0.0396
  209MOL0     H28825   8.291   7.423   1.848 -1.8132  0.4473  0.6483
  209MOL0     H28826   6.893   7.528   0.794 -1.7132 -0.6246 -1.6655
  209MOL0     H28827   6.649   7.509   0.754 -0.9753 -0.0276 -0.3155
  209MOL0     H28828   6.325   7.319   0.493  0.1366 -0.8317 -1.4075
  209MOL0     H28829   6.086   7.300   0.453  0.3998  0.2948 -0.2546
  209MOL0     H28830   5.870   7.296   0.467  0.3081 -0.7610 -1.4569
  209MOL0     H28831   5.887   7.127   0.431  0.6415  1.7664 -1.6473
  209MOL0     H28832   5.675   7.273   0.594  1.8673 -0.7857  1.4354
  209MOL0     H28833   5.670   7.097   0.577 -2.5922 -0.0913 -0.6988
  209MOL0     H28834   5.640   7.126   0.311 -0.4753 -2.5941  1.1351
  209MOL0     H28835   5.505   7.150   0.416  1.1087 -1.9687  3.8562
  209MOL0     H28836   5.671   7.369   0.305 -0.7712  2.6080  2.3559
  209MOL0     H28837   5.564   7.397   0.435  0.0097  2.9885 -2.2401
  209MOL0     H28838   5.312   7.349   0.103  0.5428  2.7341 -1.4168
  209MOL0     H28839   6.058   7.042   0.800  1.0274 -2.3122 -0.8359
  209MOL0     H28840   6.380   6.990   0.854 -2.0905 -1.0865 -1.6570
  209MOL0     H28841   6.371   7.153   0.934 -1.2725  0.4621  1.4134
  209MOL0     H28842   6.258   7.020   0.956  1.1783  1.9022  1.0362
  210MOL0     O28843   2.893   7.458   6.476 -0.4154  0.1708  0.5025
  210MOL0     C28844   2.936   7.350   6.426  0.6980  0.1585  0.0545
  210MOL0     O28845   2.875   7.236   6.416 -0.4756  0.5860  0.0571
  210MOL0     C28846   2.742   7.220   6.437  0.7638  0.2155 -0.2752
  210MOL0     C28847   2.650   7.223   6.331 -0.9568  0.2573 -0.2100
  210MOL0     C28848   2.512   7.245   6.342  1.1901 -0.5656 -0.5128
  210MOL0     C28849   2.463   7.234   6.475  0.2160 -0.0085  0.6961
  210MOL0     O28850   2.329   7.218   6.498  0.0376 -0.5516 -1.2950
  210MOL0     C28851   2.294   7.083   6.540 -0.3906 -0.2276  0.3426
  210MOL0     C28852   2.142   7.081   6.514  0.9386  0.2546  0.0716
  210MOL0     C28853   2.058   7.172   6.599  0.1982 -0.2084 -0.0227
  210MOL0     C28854   1.914   7.105   6.590  0.0032 -0.5387 -0.3933
  210MOL0     C28855   1.814   7.211   6.628  0.1147 -0.0081 -0.0415
  210MOL0     C28856   1.680   7.153   6.651 -0.2008 -0.0667  0.2797
  210MOL0     C28857   1.556   7.250   6.666 -0.8867  0.2068  0.5555
  210MOL0     C28858   1.432   7.166   6.694 -0.3464 -0.5007 -0.5824
  210MOL0     N28859   1.324   7.255   6.663  0.2035  0.6376  0.8171
  210MOL0     C28860   1.224   7.253   6.563 -0.7594  0.3754  0.0200
  210MOL0     C28861   1.136   7.343   6.594 -0.3636  0.1156 -1.0327
  210MOL0     C28862   1.024   7.373   6.503  0.7561  0.2368 -0.1406
  210MOL0     C28863   1.048   7.500   6.428  1.1430 -0.2643  0.2293
  210MOL0     C28864   1.164   7.485   6.327 -0.6038  0.4516  0.0372
  210MOL0     C28865   1.179   7.611   6.246 -0.3528 -0.3243 -1.4734
  210MOL0     O28866   1.198   7.730   6.332 -0.2036  1.2758  0.0250
  210MOL0     C28867   1.227   7.843   6.262 -0.3779  0.2664 -0.7107
  210MOL0     C28868   1.201   7.861   6.126 -0.0525 -0.1237 -0.5983
  210MOL0     C28869   1.225   7.984   6.066  1.0943  0.1746  0.4889
  210MOL0     C28870   1.178   7.993   5.915 -0.0235  0.1330 -0.4221
  210MOL0     C28871   1.276   8.097   6.141 -0.2537  0.3793  0.3399
  210MOL0     C28872   1.323   8.232   6.086 -0.2930  0.5944  0.3881
  210MOL0     O28873   1.355   8.337   6.165  0.0488 -0.1454 -0.4759
  210MOL0     C28874   1.425   8.443   6.105  0.6531 -0.2023  0.6931
  210MOL0     C28875   1.382   8.515   5.997  0.0242 -0.1812  0.4323
  210MOL0     C28876   1.449   8.633   5.950  0.6873 -0.4408 -0.3959
  210MOL0     C28877   1.578   8.656   6.003  0.2412 -0.7950 -0.4144
  210MOL0     O28878   1.667   8.758   5.965  0.6939  0.0704 -0.4508
  210MOL0     C28879   1.613   8.872   5.890  0.0542  0.5634 -0.1838
  210MOL0     C28880   1.727   8.974   5.870  0.2773  0.6223 -0.1194
  210MOL0     C28881   1.841   8.934   5.779 -0.2207  0.0918  0.6649
  210MOL0     C28882   1.978   8.982   5.828 -1.4318  0.4071  0.4929
  210MOL0     C28883   2.098   8.893   5.780  0.0056  0.1052  0.9344
  210MOL0     C28884   2.231   8.951   5.826 -0.4698  0.1219  0.1487
  210MOL0     C28885   2.354   8.870   5.788  0.3927 -0.3611 -0.3887
  210MOL0     C28886   2.385   8.871   5.639  0.3271  0.4701 -0.1382
  210MOL0    Cl28887   2.559   8.854   5.622  0.1591 -0.8457 -0.2603
  210MOL0     C28888   1.620   8.576   6.113 -0.2453  0.5163 -0.0623
  210MOL0     C28889   1.539   8.480   6.170  0.8202 -0.3286 -0.1048
  210MOL0     O28890   1.316   8.237   5.962 -0.7037 -0.3622 -0.6920
  210MOL0     C28891   1.294   8.083   6.281  0.1629 -0.3225 -0.4844
  210MOL0     C28892   1.272   7.951   6.334 -0.3545  1.0823 -0.7068
  210MOL0     N28893   1.169   7.393   6.719 -0.5747 -0.2269  0.0960
  210MOL0     N28894   1.273   7.338   6.762 -1.2524 -0.0207 -0.3456
  210MOL0     C28895   2.558   7.224   6.582  0.5481 -0.4692 -1.0198
  210MOL0     C28896   2.692   7.206   6.569 -0.3850  0.3605 -0.3589
  210MOL0     C28897   3.085   7.354   6.396  0.4618  0.3236 -1.2685
  210MOL0     C28898   3.170   7.282   6.489 -0.1836 -0.8901  0.4011
  210MOL0     C28899   3.308   7.294   6.466 -0.3266 -0.6444 -0.9778
  210MOL0     C28900   3.370   7.360   6.364 -0.5593 -0.7244 -1.0903
  210MOL0     O28901   3.507   7.354   6.352  0.3860 -0.4400 -0.5110
  210MOL0     C28902   3.559   7.383   6.224 -0.9806  0.4921 -0.1232
  210MOL0     C28903   3.690   7.311   6.210  0.2771  0.4953 -0.4276
  210MOL0     C28904   3.755   7.342   6.079  0.2090  0.0536  0.3908
  210MOL0     C28905   3.864   7.247   6.048 -1.0848 -0.3065  0.6717
  210MOL0     C28906   3.973   7.300   5.964  0.1132 -0.0583 -0.6487
  210MOL0     C28907   4.049   7.333   5.877  0.6542 -0.3163  0.0719
  210MOL0     C28908   3.289   7.435   6.275  0.2644  0.8599 -0.4707
  210MOL0     C28909   3.148   7.436   6.298 -0.8647  1.1059  0.2315
  210MOL0     C28910   3.059   7.523   6.218  0.2125  0.0867 -0.1037
  210MOL0     H28911   2.692   7.211   6.231 -2.4469 -0.8509 -0.7389
  210MOL0     H28912   2.450   7.263   6.255  1.8121  1.3973 -0.5826
  210MOL0     H28913   2.325   7.074   6.645  0.2475  1.2869  0.3265
  210MOL0     H28914   2.341   7.009   6.476 -0.6075  0.7970 -1.0464
  210MOL0     H28915   2.123   7.099   6.408 -2.0286  1.3604  0.6663
  210MOL0     H28916   2.114   6.976   6.529  0.7207  0.4657  1.2993
  210MOL0     H28917   2.094   7.176   6.703  0.9322 -0.8509 -0.2351
  210MOL0     H28918   2.061   7.269   6.548  1.4745 -2.6587 -5.2115
  210MOL0     H28919   1.893   7.056   6.495 -1.6963 -1.0633  0.2261
  210MOL0     H28920   1.921   7.036   6.674 -1.1239  1.3524  1.3746
  210MOL0     H28921   1.815   7.284   6.547  0.5967  1.0365  0.8860
  210MOL0     H28922   1.846   7.268   6.716  0.6683  1.3607 -1.1003
  210MOL0     H28923   1.654   7.094   6.564 -1.7757 -2.7203  2.3916
  210MOL0     H28924   1.698   7.086   6.735 -0.1266 -0.5893 -0.1525
  210MOL0     H28925   1.537   7.304   6.573 -4.0166 -1.5318  0.0554
  210MOL0     H28926   1.567   7.324   6.746  0.7798  0.9412 -0.2983
  210MOL0     H28927   1.421   7.086   6.621 -0.1064 -0.7119 -0.3880
  210MOL0     H28928   1.421   7.132   6.798  0.8950 -0.3450 -0.3804
  210MOL0     H28929   1.205   7.177   6.488 -2.7340 -0.2454  1.0713
  210MOL0     H28930   0.935   7.378   6.567  1.1850  1.8878  0.3770
  210MOL0     H28931   0.999   7.295   6.431  0.3405 -0.0949  0.3564
  210MOL0     H28932   0.956   7.525   6.374  0.8053 -2.4501 -0.3206
  210MOL0     H28933   1.062   7.583   6.497 -3.1426  1.5807 -0.8185
  210MOL0     H28934   1.262   7.466   6.371  0.9503 -1.6544 -3.8744
  210MOL0     H28935   1.143   7.404   6.257  0.7581 -1.2064  1.4531
  210MOL0     H28936   1.257   7.604   6.169 -0.7387  2.5183 -2.2444
  210MOL0     H28937   1.081   7.619   6.199 -0.7357  1.3868 -0.4576
  210MOL0     H28938   1.159   7.776   6.073 -2.6544 -0.2507  1.4494
  210MOL0     H28939   1.110   8.079   5.912 -0.0817  0.1995  1.4511
  210MOL0     H28940   1.124   7.901   5.891 -0.4160 -0.3427  2.0078
  210MOL0     H28941   1.262   8.009   5.847  0.6168  2.4132  0.7969
  210MOL0     H28942   1.286   8.487   5.957  0.4749  0.9915 -1.6155
  210MOL0     H28943   1.407   8.700   5.875 -2.6084 -1.2924  0.5002
  210MOL0     H28944   1.578   8.837   5.792  2.2393 -0.1808 -0.7675
  210MOL0     H28945   1.538   8.935   5.938  0.5550  2.1170 -1.3795
  210MOL0     H28946   1.681   9.054   5.811  0.9519  0.6621 -0.5989
  210MOL0     H28947   1.758   9.002   5.971 -1.2561 -3.4450  1.6910
  210MOL0     H28948   1.830   8.967   5.675  2.8693 -0.1693  0.1362
  210MOL0     H28949   1.849   8.827   5.796  0.7790  0.1478  0.6358
  210MOL0     H28950   1.971   8.968   5.936  1.8532 -3.2205  0.4613
  210MOL0     H28951   1.987   9.089   5.806 -2.6034  0.2166 -1.0577
  210MOL0     H28952   2.088   8.790   5.816  2.3213 -0.5015  0.0145
  210MOL0     H28953   2.090   8.867   5.674 -0.2253  0.0332  0.9692
  210MOL0     H28954   2.219   8.959   5.935 -2.3422  1.2690 -0.0843
  210MOL0     H28955   2.238   9.050   5.780 -2.6231  0.3764  0.2695
  210MOL0     H28956   2.349   8.768   5.827  1.7952 -0.1723  0.3342
  210MOL0     H28957   2.439   8.915   5.840  0.8135 -1.0223 -0.4982
  210MOL0     H28958   2.348   8.961   5.590 -1.1714 -0.1324 -0.1900
  210MOL0     H28959   2.332   8.792   5.584  0.1444  0.9706 -0.6945
  210MOL0     H28960   1.722   8.591   6.147  0.4511 -0.8256 -1.4035
  210MOL0     H28961   1.571   8.423   6.256  0.8448  1.2831  0.9953
  210MOL0     H28962   1.323   8.171   6.338  1.8370  0.8913 -3.0620
  210MOL0     H28963   1.309   7.943   6.436  2.6447  1.5461 -1.6386
  210MOL0     H28964   2.519   7.216   6.683 -0.3277 -0.5959 -1.3531
  210MOL0     H28965   2.756   7.208   6.656  0.5501  0.4402 -1.0298
  210MOL0     H28966   3.128   7.223   6.570 -0.1005 -1.3243  0.1326
  210MOL0     H28967   3.377   7.258   6.542 -1.9531  0.0444  0.9115
  210MOL0     H28968   3.492   7.347   6.145 -1.5853  0.8152  0.2285
  210MOL0     H28969   3.591   7.488   6.215  0.0447  0.1626 -0.4286
  210MOL0     H28970   3.663   7.205   6.213 -1.7596  0.9957  0.9804
  210MOL0     H28971   3.768   7.328   6.285 -2.4081 -1.1518  3.0079
  210MOL0     H28972   3.679   7.332   6.001 -1.0882 -1.8548  1.8104
  210MOL0     H28973   3.795   7.443   6.092  0.5578 -0.1022  0.5440
  210MOL0     H28974   3.837   7.154   5.997 -0.5410  0.2829 -0.7298
  210MOL0     H28975   3.928   7.224   6.134 -0.0261  1.7892  0.5261
  210MOL0     H28976   4.110   7.381   5.802  0.3920  2.6919  1.6043
  210MOL0     H28977   3.327   7.499   6.196 -1.3976  2.0337 -0.3689
  210MOL0     H28978   2.987   7.462   6.162  1.7819 -1.0094 -1.0152
  210MOL0     H28979   3.001   7.585   6.287  0.9204  2.0918 -1.2486
  210MOL0     H28980   3.111   7.576   6.138  0.3807 -1.0194 -0.7623
  211MOL0     O28981   0.150  10.022  10.313 -0.2789 -0.9209  0.1042
  211MOL0     C28982   0.145   9.924  10.235  0.4123  0.3646 -0.2205
  211MOL0     O28983   0.241   9.892  10.140  0.7832  0.1614 -0.5352
  211MOL0     C28984   0.347   9.975  10.129 -1.3683 -0.4781  0.0978
  211MOL0     C28985   0.331  10.072  10.026  0.8931 -0.1778 -0.0413
  211MOL0     C28986   0.433  10.165  10.007  0.1832  0.4792  0.3750
  211MOL0     C28987   0.552  10.159  10.063 -0.3513  0.0700 -0.3142
  211MOL0     O28988   0.647  10.238  10.014 -0.5784 -0.2940 -0.4994
  211MOL0     C28989   0.777  10.178  10.023 -0.2459 -0.0722 -0.4917
  211MOL0     C28990   0.884  10.269   9.977  0.7664  0.7039  0.5187
  211MOL0     C28991   0.887  10.278   9.827 -0.6344  0.5068  0.8614
  211MOL0     C28992   0.966  10.392   9.774  0.1824  0.1703 -0.1862
  211MOL0     C28993   1.120  10.378   9.788 -0.0714 -0.3245  0.0913
  211MOL0     C28994   1.175  10.506   9.744  1.2897 -0.5599  0.1279
  211MOL0     C28995   1.324  10.512   9.786  0.9902 -0.3783  0.7599
  211MOL0     C28996   1.377  10.640   9.708 -0.0209  0.0185 -0.4723
  211MOL0     N28997   1.519  10.674   9.735  0.1104  0.4265  0.6728
  211MOL0     C28998   1.620  10.686   9.642 -0.1803 -0.8971  0.4987
  211MOL0     C28999   1.721  10.738   9.707 -0.4276 -0.5071  0.0306
  211MOL0     C29000   1.852  10.773   9.647  0.3718 -0.2765  0.1106
  211MOL0     C29001   1.971  10.671   9.650  0.3442 -0.3619  0.8630
  211MOL0     C29002   2.094  10.717   9.570 -0.7804 -0.7165 -0.1677
  211MOL0     C29003   2.211  10.612   9.578  0.1549  0.2033  0.1307
  211MOL0     O29004   2.316  10.670   9.503 -0.0270 -0.2243  0.3933
  211MOL0     C29005   2.413  10.580   9.460  0.9988 -0.9423  0.0717
  211MOL0     C29006   2.513  10.636   9.381  0.0263  0.3376 -0.1725
  211MOL0     C29007   2.621  10.556   9.325  0.3291 -0.3082 -0.2510
  211MOL0     C29008   2.713  10.615   9.223 -0.5916 -0.9670 -0.2180
  211MOL0     C29009   2.625  10.419   9.359  0.3529 -1.5581  0.9662
  211MOL0     C29010   2.724  10.342   9.285 -1.0609  0.3582  0.4582
  211MOL0     O29011   2.836  10.324   9.361 -0.1121  0.9243 -0.5824
  211MOL0     C29012   2.927  10.224   9.310  0.2501 -0.3161 -0.2970
  211MOL0     C29013   2.907  10.087   9.309  0.3516 -0.1783  0.4574
  211MOL0     C29014   2.999  10.003   9.247 -0.5995 -0.4741  0.6954
  211MOL0     C29015   3.117  10.059   9.183 -0.1622 -0.3276 -0.1270
  211MOL0     O29016   3.218   9.978   9.144  1.0654  0.5118 -0.4673
  211MOL0     C29017   3.343  10.006   9.200  0.0545  0.0121 -0.2750
  211MOL0     C29018   3.454   9.920   9.136  0.0315 -0.2123  0.7538
  211MOL0     C29019   3.598   9.948   9.177 -0.8037 -0.2638 -0.5214
  211MOL0     C29020   3.652  10.094   9.156  0.6941  0.4277  0.4775
  211MOL0     C29021   3.785  10.115   9.229  0.3163 -0.4970  0.3203
  211MOL0     C29022   3.891  10.010   9.201  0.8479  0.1111  1.0548
  211MOL0     C29023   3.952  10.011   9.064  0.4748  0.1661 -0.5659
  211MOL0     C29024   4.069   9.924   9.075  0.2948  0.3103  0.2369
  211MOL0    Cl29025   4.014   9.758   9.095 -0.0609 -0.2133  0.4893
  211MOL0     C29026   3.129  10.204   9.188  0.1006  0.4970  0.9408
  211MOL0     C29027   3.033  10.282   9.245  0.0524  0.0927  0.5654
  211MOL0     O29028   2.690  10.284   9.181 -0.5888  0.2188  0.4179
  211MOL0     C29029   2.529  10.363   9.444 -0.0002 -0.4744  0.2331
  211MOL0     C29030   2.426  10.441   9.503  0.1680 -0.6150  0.1177
  211MOL0     N29031   1.683  10.776   9.836  0.1407  0.8877  0.0781
  211MOL0     N29032   1.567  10.732   9.854 -0.1457 -0.2092 -0.1711
  211MOL0     C29033   0.572  10.062  10.167  0.7854 -0.1724  0.0560
  211MOL0     C29034   0.470   9.974  10.200 -0.3125 -0.4054 -0.4110
  211MOL0     C29035   0.015   9.850  10.237 -0.3414 -0.8521 -0.3442
  211MOL0     C29036  -0.099   9.922  10.284 -0.2180  0.0337 -0.3034
  211MOL0     C29037  -0.223   9.853  10.287  0.1763 -0.5523  0.3214
  211MOL0     C29038  -0.230   9.717  10.244 -0.3748 -0.0202 -0.3273
  211MOL0     O29039  -0.359   9.669  10.227  0.8957  0.2335 -0.4210
  211MOL0     C29040  -0.376   9.526  10.204 -0.3808 -0.3926 -0.1579
  211MOL0     C29041  -0.516   9.486  10.257 -1.3633 -0.9685  0.0829
  211MOL0     C29042  -0.516   9.337  10.270 -0.3228  0.0413 -0.3862
  211MOL0     C29043  -0.638   9.287  10.344  0.0361 -0.0798  0.0069
  211MOL0     C29044  -0.617   9.174  10.434  0.3755  0.0268  0.6301
  211MOL0     C29045  -0.591   9.083  10.511  0.8009 -0.2075 -0.3312
  211MOL0     C29046  -0.115   9.647  10.209  0.1363 -0.5346  0.3325
  211MOL0     C29047   0.007   9.708  10.208 -0.2630 -0.8128 -0.2811
  211MOL0     C29048   0.122   9.608  10.181  0.1414 -0.4102  0.2947
  211MOL0     H29049   0.236  10.083   9.975 -0.7346  1.6438  3.1023
  211MOL0     H29050   0.413  10.238   9.929  2.7242  0.9695  0.1081
  211MOL0     H29051   0.775  10.089   9.959 -0.1255  0.0013 -0.6013
  211MOL0     H29052   0.818  10.158  10.122 -2.2082 -1.0881  0.1621
  211MOL0     H29053   0.860  10.369  10.014 -1.5815  0.5403 -0.4249
  211MOL0     H29054   0.980  10.229  10.013  0.2200 -0.5363  0.6298
  211MOL0     H29055   0.934  10.186   9.793  1.4369  1.7837  0.0694
  211MOL0     H29056   0.782  10.290   9.799 -0.9873  1.8567  2.5706
  211MOL0     H29057   0.934  10.416   9.672 -0.2764 -0.8645 -0.3048
  211MOL0     H29058   0.932  10.472   9.839 -3.0678 -0.1011 -1.3483
  211MOL0     H29059   1.148  10.288   9.734 -0.0510 -0.3202  0.0945
  211MOL0     H29060   1.150  10.364   9.893  1.0329 -1.4672 -0.3510
  211MOL0     H29061   1.161  10.514   9.635  4.4678  0.7128 -0.2899
  211MOL0     H29062   1.114  10.585   9.788  2.3429  1.9173 -2.4912
  211MOL0     H29063   1.382  10.425   9.753  1.4037 -0.8966  2.7228
  211MOL0     H29064   1.326  10.520   9.895  1.8472 -0.7107  0.7780
  211MOL0     H29065   1.349  10.627   9.604 -0.6707 -1.0070 -0.1822
  211MOL0     H29066   1.332  10.734   9.740  3.6808  1.8680 -0.1636
  211MOL0     H29067   1.614  10.654   9.538 -1.1591 -1.1044  0.6077
  211MOL0     H29068   1.886  10.865   9.696  2.1314  0.7817 -2.8481
  211MOL0     H29069   1.838  10.802   9.543  1.2557  0.2888  0.1326
  211MOL0     H29070   1.991  10.650   9.756 -2.0978 -1.3470  1.1977
  211MOL0     H29071   1.924  10.586   9.600 -2.2801  2.8026 -2.6045
  211MOL0     H29072   2.076  10.734   9.463 -0.7744  0.1002 -0.0417
  211MOL0     H29073   2.128  10.814   9.607 -2.1063 -0.9599  1.7871
  211MOL0     H29074   2.240  10.601   9.683  1.1707  0.0765 -0.1481
  211MOL0     H29075   2.170  10.521   9.534 -2.0248  1.2626 -0.1645
  211MOL0     H29076   2.505  10.741   9.357  2.1065  0.2948 -1.3231
  211MOL0     H29077   2.814  10.574   9.233  0.5099  1.6435  0.1121
  211MOL0     H29078   2.729  10.721   9.243 -2.4252 -0.8213  0.7621
  211MOL0     H29079   2.677  10.592   9.122 -2.2420 -0.8463  0.3085
  211MOL0     H29080   2.820  10.039   9.352  0.2439 -0.0157  0.4218
  211MOL0     H29081   2.989   9.895   9.256  1.4629 -0.9484 -1.4919
  211MOL0     H29082   3.378  10.109   9.185 -1.7565  0.4799 -1.6600
  211MOL0     H29083   3.343   9.983   9.307 -1.8802  0.7261 -0.0843
  211MOL0     H29084   3.433   9.814   9.152 -1.2175  0.0209  0.8183
  211MOL0     H29085   3.446   9.937   9.028 -0.1798 -0.9882  0.6437
  211MOL0     H29086   3.669   9.885   9.121  0.1882 -1.1297  1.6039
  211MOL0     H29087   3.601   9.907   9.278 -1.5124 -2.1228 -1.2034
  211MOL0     H29088   3.574  10.166   9.179  2.1816  2.9678 -1.8117
  211MOL0     H29089   3.675  10.099   9.049  1.7435 -1.3507  0.5739
  211MOL0     H29090   3.825  10.211   9.194  0.5286  0.3305  2.6498
  211MOL0     H29091   3.771  10.125   9.337  1.8651  0.8972  0.4465
  211MOL0     H29092   3.850   9.910   9.217  2.4799 -0.4944  1.6525
  211MOL0     H29093   3.966  10.016   9.281 -0.6411 -1.8002  2.7243
  211MOL0     H29094   3.983  10.115   9.044  2.7572 -0.3208  0.1741
  211MOL0     H29095   3.885   9.989   8.981  1.0228  0.3715 -1.0680
  211MOL0     H29096   4.134   9.954   9.159  0.7955  2.4088 -0.8274
  211MOL0     H29097   4.124   9.943   8.982 -2.2340  1.0095 -1.1975
  211MOL0     H29098   3.219  10.253   9.154  0.3106  1.5519  2.8787
  211MOL0     H29099   3.043  10.390   9.256  1.0587  0.2668 -1.5214
  211MOL0     H29100   2.527  10.258   9.472 -0.0487 -1.3770 -2.7273
  211MOL0     H29101   2.360  10.394   9.574 -0.3598 -1.1707 -0.7211
  211MOL0     H29102   0.666  10.053  10.221  2.7844  2.0536 -2.7248
  211MOL0     H29103   0.491   9.890  10.266  0.7282  0.4761  0.4045
  211MOL0     H29104  -0.091  10.026  10.314 -0.3012 -0.2184  0.6515
  211MOL0     H29105  -0.311   9.910  10.313  1.8047  1.6549  1.3120
  211MOL0     H29106  -0.363   9.495  10.099  2.4521 -0.4210  0.1249
  211MOL0     H29107  -0.297   9.473  10.257 -0.8785 -2.6588 -1.5405
  211MOL0     H29108  -0.591   9.527  10.189  0.5039  1.2724 -0.7755
  211MOL0     H29109  -0.521   9.522  10.360  0.0896  1.2679 -0.5703
  211MOL0     H29110  -0.523   9.287  10.173 -3.7517 -2.9886  1.1434
  211MOL0     H29111  -0.429   9.306  10.328 -1.3218 -0.2938  0.9877
  211MOL0     H29112  -0.711   9.258  10.267  2.5169 -2.7923 -1.5279
  211MOL0     H29113  -0.684   9.369  10.401 -1.0323 -0.2801 -0.5355
  211MOL0     H29114  -0.571   8.998  10.572  1.0955 -1.4618 -2.0924
  211MOL0     H29115  -0.114   9.542  10.182  0.5398 -0.8463  1.5292
  211MOL0     H29116   0.122   9.582  10.074 -1.3067 -2.5962  0.7768
  211MOL0     H29117   0.218   9.658  10.199  0.3196 -1.1554  1.5218
  211MOL0     H29118   0.125   9.517  10.241  2.2867 -1.3600 -1.1018
  212MOL0     O29119   8.371   5.256  10.439 -0.0360 -0.9650  0.0936
  212MOL0     C29120   8.295   5.291  10.355  1.2870  0.3577 -0.4217
  212MOL0     O29121   8.241   5.211  10.257 -0.5739  0.6384 -0.0900
  212MOL0     C29122   8.285   5.084  10.219 -0.3607 -0.4409  0.1129
  212MOL0     C29123   8.244   5.051  10.092 -0.3002  0.4234 -0.3620
  212MOL0     C29124   8.271   4.923  10.041 -0.3302  0.1066  0.2269
  212MOL0     C29125   8.349   4.832  10.122 -0.2612  0.8499  0.3230
  212MOL0     O29126   8.379   4.700  10.083 -0.6839  0.0867 -0.0272
  212MOL0     C29127   8.293   4.629   9.992 -0.3971 -0.1071 -0.7343
  212MOL0     C29128   8.367   4.498   9.965 -0.0010 -0.0912 -0.2612
  212MOL0     C29129   8.498   4.521   9.892 -0.4679 -0.4760 -0.3517
  212MOL0     C29130   8.549   4.396   9.827  0.2363  0.3994 -0.2692
  212MOL0     C29131   8.689   4.411   9.762  0.4799 -0.0301 -0.5369
  212MOL0     C29132   8.674   4.440   9.613 -0.2317  0.2151 -0.5026
  212MOL0     C29133   8.812   4.462   9.541 -0.4860 -0.2529 -0.8043
  212MOL0     C29134   8.879   4.338   9.494  0.7461 -0.1991  1.1472
  212MOL0     N29135   9.005   4.365   9.424 -0.0478 -0.3305 -0.1715
  212MOL0     C29136   9.133   4.380   9.476 -0.1617  0.0082  0.3049
  212MOL0     C29137   9.219   4.380   9.371  0.2065 -0.0204  0.2024
  212MOL0     C29138   9.365   4.375   9.392  0.4064 -0.3558  0.0665
  212MOL0     C29139   9.439   4.472   9.299  0.0224  0.6367 -0.1307
  212MOL0     C29140   9.590   4.439   9.299  0.8537  0.1078  0.3013
  212MOL0     C29141   9.670   4.523   9.205 -0.4323 -0.1931 -0.4805
  212MOL0     O29142   9.666   4.653   9.265 -0.0472 -0.7257 -0.1640
  212MOL0     C29143   9.791   4.708   9.279 -0.5469 -0.2926  0.4038
  212MOL0     C29144   9.871   4.740   9.169 -0.4643  0.5245  0.1137
  212MOL0     C29145  10.003   4.778   9.178  0.4761  1.4359 -0.2672
  212MOL0     C29146  10.091   4.778   9.046  1.3752 -0.3611 -0.3516
  212MOL0     C29147  10.061   4.800   9.310 -0.8080  1.0210  1.0598
  212MOL0     C29148  10.201   4.840   9.337 -0.1547  0.9779  0.1289
  212MOL0     O29149  10.231   4.850   9.472 -0.2802 -0.8536 -0.2617
  212MOL0     C29150  10.364   4.860   9.517  0.1155  0.1364 -0.2278
  212MOL0     C29151  10.456   4.943   9.451  0.1379  0.6163  0.6398
  212MOL0     C29152  10.586   4.955   9.507 -0.1554  0.2409  0.0279
  212MOL0     C29153  10.620   4.887   9.632  1.0920  0.0285 -0.0929
  212MOL0     O29154  10.741   4.896   9.699  0.1515 -0.1851  0.5153
  212MOL0     C29155  10.813   5.019   9.689 -1.2051 -0.1669  0.0419
  212MOL0     C29156  10.955   4.986   9.736 -0.1870  0.2405 -0.5979
  212MOL0     C29157  11.057   5.038   9.642 -0.6210  0.1041 -0.0303
  212MOL0     C29158  11.196   5.002   9.704  0.7174 -0.1304 -0.2872
  212MOL0     C29159  11.308   5.000   9.598  0.0099 -0.6048  0.1263
  212MOL0     C29160  11.386   5.136   9.574  0.1726 -0.3262 -0.1853
  212MOL0     C29161  11.455   5.171   9.703 -0.4380  0.4305  0.1176
  212MOL0     C29162  11.588   5.094   9.714 -0.0778  0.4942 -0.5124
  212MOL0    Cl29163  11.701   5.170   9.596 -0.1261  0.2341  0.1350
  212MOL0     C29164  10.525   4.803   9.685  0.2661  0.2037  0.4447
  212MOL0     C29165  10.395   4.788   9.635  0.6393  0.5094 -0.3302
  212MOL0     O29166  10.279   4.853   9.243  0.1141  0.9402 -0.2409
  212MOL0     C29167   9.978   4.772   9.420 -0.5615  0.6160 -0.7750
  212MOL0     C29168   9.850   4.724   9.406  0.2204  0.7022  0.3552
  212MOL0     N29169   9.155   4.389   9.249  0.6524  0.1150 -0.1285
  212MOL0     N29170   9.028   4.375   9.281  0.5537 -0.2517  0.9065
  212MOL0     C29171   8.381   4.863  10.249  0.9269  0.0406 -0.1276
  212MOL0     C29172   8.350   4.992  10.293  0.5103  0.3558 -0.0355
  212MOL0     C29173   8.233   5.428  10.377  0.5327 -0.4832 -1.1162
  212MOL0     C29174   8.315   5.521  10.442  0.3398 -0.2234 -0.3957
  212MOL0     C29175   8.266   5.646  10.468 -0.3851 -0.4962 -0.7338
  212MOL0     C29176   8.138   5.684  10.435  0.5760  0.0612 -0.2639
  212MOL0     O29177   8.079   5.812  10.462  0.2502 -0.0739 -0.2263
  212MOL0     C29178   8.155   5.924  10.419  0.3943 -0.0445 -0.7709
  212MOL0     C29179   8.113   6.043  10.504  0.1045  0.1525 -0.8293
  212MOL0     C29180   8.094   6.173  10.431 -0.4846 -0.5437  0.2193
  212MOL0     C29181   8.075   6.315  10.506  0.6928  0.3962  0.4095
  212MOL0     C29182   8.201   6.345  10.564  0.2456  0.0013 -0.4446
  212MOL0     C29183   8.308   6.363  10.617  0.0952  0.1762 -0.1804
  212MOL0     C29184   8.060   5.593  10.357  0.6420  0.3600  0.0093
  212MOL0     C29185   8.106   5.467  10.329 -0.5389  0.2266 -0.2283
  212MOL0     C29186   8.028   5.370  10.242  0.2291 -0.6923  0.5101
  212MOL0     H29187   8.199   5.134  10.038  1.9555  2.3749  0.5928
  212MOL0     H29188   8.249   4.894   9.939  1.4624 -0.5579 -0.0084
  212MOL0     H29189   8.280   4.688   9.900 -1.2105  0.4072 -0.3056
  212MOL0     H29190   8.193   4.624  10.036  0.5233  1.7398  1.8157
  212MOL0     H29191   8.384   4.451  10.062  0.0370  2.4562  1.0380
  212MOL0     H29192   8.309   4.425   9.907  0.8822 -1.1796  0.1798
  212MOL0     H29193   8.481   4.608   9.827 -1.4965  0.3763  1.0013
  212MOL0     H29194   8.572   4.551   9.967  0.0833  0.6578 -1.3052
  212MOL0     H29195   8.570   4.337   9.917  0.3236 -1.6596 -1.5745
  212MOL0     H29196   8.481   4.338   9.764  0.8994 -2.9958  1.8573
  212MOL0     H29197   8.752   4.322   9.776  0.3179  0.0211  0.6158
  212MOL0     H29198   8.737   4.502   9.798 -1.1098  1.5783 -2.2622
  212MOL0     H29199   8.629   4.362   9.550 -2.4549  0.2493  0.9087
  212MOL0     H29200   8.614   4.531   9.600  1.2970  1.3557  0.2336
  212MOL0     H29201   8.881   4.520   9.604  0.3958 -0.8892 -1.1617
  212MOL0     H29202   8.789   4.518   9.450 -2.9474 -0.6201 -0.4663
  212MOL0     H29203   8.899   4.271   9.578 -1.6527 -1.9467  0.4533
  212MOL0     H29204   8.818   4.285   9.420  0.7625  0.2296  0.8217
  212MOL0     H29205   9.166   4.386   9.580  1.7419  2.8416 -0.3587
  212MOL0     H29206   9.402   4.278   9.356  0.6808 -0.5734  0.9092
  212MOL0     H29207   9.391   4.391   9.497 -1.4930 -1.2514  0.7428
  212MOL0     H29208   9.398   4.465   9.198 -1.8885  0.7182  0.6044
  212MOL0     H29209   9.426   4.579   9.322 -0.1738  0.2307  1.7920
  212MOL0     H29210   9.631   4.448   9.400  1.7877  3.8434 -0.2301
  212MOL0     H29211   9.597   4.338   9.260  2.4838  1.0263 -2.0237
  212MOL0     H29212   9.770   4.481   9.191 -1.0246 -1.8441  0.0069
  212MOL0     H29213   9.618   4.526   9.109 -0.5612  0.0569 -0.4044
  212MOL0     H29214   9.831   4.747   9.068  0.8107  0.1044 -0.4379
  212MOL0     H29215  10.022   4.753   8.964  1.6317  0.7937 -0.9385
  212MOL0     H29216  10.169   4.701   9.055  0.2300 -1.7641 -1.7808
  212MOL0     H29217  10.128   4.876   9.017  1.2131  0.0131  0.6741
  212MOL0     H29218  10.435   4.991   9.355  0.6801 -0.7222 -0.1710
  212MOL0     H29219  10.662   5.005   9.448  1.4121  1.6675  3.0292
  212MOL0     H29220  10.825   5.048   9.584  0.4299  1.9531  0.7570
  212MOL0     H29221  10.768   5.096   9.752  0.1487 -0.0413  0.9215
  212MOL0     H29222  10.966   5.036   9.833 -0.5045  0.3973 -0.6421
  212MOL0     H29223  10.966   4.878   9.747 -0.0907  0.4613  2.3140
  212MOL0     H29224  11.053   5.147   9.627 -0.6350 -0.1299 -1.9551
  212MOL0     H29225  11.050   4.991   9.544 -1.4120  0.6094 -0.2279
  212MOL0     H29226  11.200   4.898   9.740  1.2866 -0.3410 -0.9266
  212MOL0     H29227  11.212   5.062   9.794  0.5152 -1.6927  0.8416
  212MOL0     H29228  11.381   4.930   9.637  1.7604  0.4613 -1.0892
  212MOL0     H29229  11.275   4.962   9.500 -0.2314 -1.6219  0.5906
  212MOL0     H29230  11.309   5.210   9.552 -0.3947 -0.3369  1.6243
  212MOL0     H29231  11.461   5.134   9.494 -0.2769  3.4032 -0.8438
  212MOL0     H29232  11.388   5.156   9.788  0.3503 -1.2712  0.4817
  212MOL0     H29233  11.482   5.277   9.695  3.9455 -0.5670 -0.7962
  212MOL0     H29234  11.583   4.986   9.698  2.7615  0.5282 -2.2458
  212MOL0     H29235  11.625   5.103   9.816  0.0675  0.4687 -0.5632
  212MOL0     H29236  10.554   4.751   9.776  1.1390 -0.9964 -0.4763
  212MOL0     H29237  10.314   4.739   9.688 -0.3334  4.1667  2.0141
  212MOL0     H29238  10.010   4.782   9.524 -0.3374  0.6550 -0.8488
  212MOL0     H29239   9.797   4.698   9.498 -1.5687 -0.6006 -0.9635
  212MOL0     H29240   8.441   4.794  10.307  1.9927  1.5739  0.6683
  212MOL0     H29241   8.385   5.018  10.392  2.1557 -3.7073  0.6729
  212MOL0     H29242   8.413   5.507  10.486 -0.2888 -2.7989  0.3696
  212MOL0     H29243   8.312   5.719  10.534 -2.4718  1.4661 -1.3130
  212MOL0     H29244   8.263   5.903  10.422  0.3100 -0.4984 -0.8166
  212MOL0     H29245   8.144   5.944  10.312  3.6870  0.7498 -1.0879
  212MOL0     H29246   8.191   6.056  10.579  1.2430 -2.1182 -1.5227
  212MOL0     H29247   8.017   6.029  10.554  0.2188  2.4249  0.1412
  212MOL0     H29248   8.172   6.188  10.355 -0.0190  0.4001  0.8635
  212MOL0     H29249   8.005   6.156  10.370 -0.7022 -1.9707  0.8811
  212MOL0     H29250   7.995   6.311  10.580 -1.1864 -3.2710 -1.5180
  212MOL0     H29251   8.042   6.388  10.431 -0.5214 -2.3112 -1.9213
  212MOL0     H29252   8.401   6.373  10.669 -0.2333 -3.6655  1.4741
  212MOL0     H29253   7.973   5.632  10.305  0.4094  0.2849  0.3423
  212MOL0     H29254   8.029   5.268  10.282 -0.0662  1.0330  5.7205
  212MOL0     H29255   7.920   5.387  10.240  0.6420  2.6439  0.0671
  212MOL0     H29256   8.074   5.391  10.145  2.6930  2.5930  2.1715
  213MOL0     O29257   8.119   7.768   8.600  0.3878 -0.2447  0.7245
  213MOL0     C29258   8.088   7.881   8.626  0.2254 -0.0828  0.5906
  213MOL0     O29259   8.179   7.984   8.622  0.3496 -0.1171  0.4066
  213MOL0     C29260   8.308   7.947   8.582  0.2628  0.1768  0.8058
  213MOL0     C29261   8.386   7.874   8.665 -0.1740 -1.0021 -0.8563
  213MOL0     C29262   8.520   7.833   8.638  1.1006 -0.1511 -0.3875
  213MOL0     C29263   8.574   7.859   8.510 -0.3293  0.1504 -0.4578
  213MOL0     O29264   8.701   7.816   8.461  0.6493  0.0101  0.0697
  213MOL0     C29265   8.803   7.788   8.561 -0.9201 -0.4847 -0.5291
  213MOL0     C29266   8.918   7.722   8.491  0.8110 -0.3246  0.9641
  213MOL0     C29267   9.039   7.729   8.578  0.6491  0.3111  0.7793
  213MOL0     C29268   9.139   7.636   8.509  0.0174 -0.4509 -0.0511
  213MOL0     C29269   9.281   7.668   8.563  0.1828 -0.2556  0.1922
  213MOL0     C29270   9.389   7.589   8.485 -0.3773 -0.0065 -0.3153
  213MOL0     C29271   9.526   7.630   8.540 -0.8354 -0.0980 -0.3137
  213MOL0     C29272   9.647   7.560   8.463  0.5774  0.2197  0.5154
  213MOL0     N29273   9.766   7.571   8.548 -0.4402  0.2997  0.0443
  213MOL0     C29274   9.786   7.486   8.660 -0.4883  0.2942 -0.3932
  213MOL0     C29275   9.892   7.546   8.725 -0.1533 -0.7365  0.7414
  213MOL0     C29276   9.947   7.507   8.862 -0.1379  0.7578 -1.1897
  213MOL0     C29277   9.902   7.611   8.973 -0.3499 -0.1751  0.1487
  213MOL0     C29278   9.987   7.606   9.095  0.3275  0.5248  0.2713
  213MOL0     C29279  10.125   7.676   9.092 -0.2613 -0.5637  0.3338
  213MOL0     O29280  10.188   7.678   9.219  0.0684 -0.2889 -0.2047
  213MOL0     C29281  10.283   7.772   9.251  0.2843 -0.4878 -0.0112
  213MOL0     C29282  10.335   7.760   9.382 -0.2369  0.0508  0.3819
  213MOL0     C29283  10.432   7.846   9.432 -1.1622  0.6332  0.2405
  213MOL0     C29284  10.474   7.822   9.572  0.4667 -0.2740  0.6175
  213MOL0     C29285  10.488   7.952   9.347  0.8123 -0.0884 -0.2961
  213MOL0     C29286  10.612   8.030   9.380  0.4543  0.3045 -0.5052
  213MOL0     O29287  10.606   8.157   9.334 -0.2992  0.1674 -0.6207
  213MOL0     C29288  10.726   8.220   9.363  0.4401  0.2472  0.3174
  213MOL0     C29289  10.747   8.275   9.490 -0.0527 -0.2869 -0.3637
  213MOL0     C29290  10.872   8.337   9.518 -0.2692 -0.5811  0.0428
  213MOL0     C29291  10.963   8.363   9.410 -0.1807 -0.1275  0.7796
  213MOL0     O29292  11.084   8.418   9.419  0.1337 -0.0283  0.0446
  213MOL0     C29293  11.128   8.470   9.546  0.0139  0.3829  0.2217
  213MOL0     C29294  11.173   8.359   9.643  0.0100  0.2391  0.0945
  213MOL0     C29295  11.299   8.283   9.592 -0.3106  1.0242 -0.4919
  213MOL0     C29296  11.413   8.369   9.543 -0.0593  1.0332 -0.5200
  213MOL0     C29297  11.539   8.283   9.522  1.0275  0.4568  0.2164
  213MOL0     C29298  11.615   8.253   9.646 -0.1826  0.4758 -0.1579
  213MOL0     C29299  11.741   8.176   9.616  0.0131 -0.1945 -0.3681
  213MOL0     C29300  11.854   8.263   9.554  0.3462 -0.3087  0.6044
  213MOL0    Cl29301  11.894   8.394   9.659 -0.3795 -0.0412  0.5406
  213MOL0     C29302  10.936   8.317   9.278  0.3559 -0.2606 -0.0849
  213MOL0     C29303  10.814   8.249   9.257 -0.5039  0.3146  0.5479
  213MOL0     O29304  10.713   7.972   9.419 -0.3594  0.2834 -0.1602
  213MOL0     C29305  10.437   7.964   9.215  0.1679  0.0935  0.3890
  213MOL0     C29306  10.341   7.874   9.170  1.2110 -0.6929 -0.3843
  213MOL0     N29307   9.941   7.656   8.648  0.5327 -0.0377 -0.4910
  213MOL0     N29308   9.850   7.672   8.556 -0.6742  0.3081  0.7350
  213MOL0     C29309   8.491   7.930   8.416 -0.2441 -0.1785 -0.0885
  213MOL0     C29310   8.360   7.974   8.455  0.9250  0.2314  0.0573
  213MOL0     C29311   7.945   7.919   8.657 -0.1587  0.5561 -0.4558
  213MOL0     C29312   7.918   8.057   8.667 -0.7488 -0.3182  0.7514
  213MOL0     C29313   7.780   8.095   8.684  0.0025  0.4730  0.4669
  213MOL0     C29314   7.678   8.006   8.703 -0.9575 -0.2028  0.4353
  213MOL0     O29315   7.559   8.054   8.724  0.4728 -0.2859 -0.5428
  213MOL0     C29316   7.488   8.114   8.616  0.1650 -0.4259 -0.0932
  213MOL0     C29317   7.382   8.202   8.679 -0.1985  0.2720  0.6683
  213MOL0     C29318   7.281   8.122   8.771  0.4575 -0.1246  0.2255
  213MOL0     C29319   7.142   8.174   8.786 -0.2012  0.1241  0.4943
  213MOL0     C29320   7.103   8.207   8.924 -0.4748  0.9788 -0.1025
  213MOL0     C29321   7.068   8.229   9.042 -0.1850 -0.4150  0.0760
  213MOL0     C29322   7.716   7.870   8.714 -0.2655 -0.6913  0.3795
  213MOL0     C29323   7.842   7.822   8.683  0.5469 -0.4463 -0.1692
  213MOL0     C29324   7.856   7.672   8.688  0.3652 -0.2805 -0.0751
  213MOL0     H29325   8.333   7.840   8.753 -1.1753 -2.0199 -1.8102
  213MOL0     H29326   8.585   7.780   8.706  0.2073 -0.5348  0.1785
  213MOL0     H29327   8.767   7.726   8.643  0.0109  0.3385  0.5274
  213MOL0     H29328   8.832   7.887   8.599  0.3434 -0.4241 -1.5604
  213MOL0     H29329   8.885   7.619   8.473 -2.2169  0.8480 -0.9813
  213MOL0     H29330   8.942   7.771   8.396  3.4061  0.5406  1.9679
  213MOL0     H29331   9.063   7.835   8.586 -0.2988  0.5027  1.2259
  213MOL0     H29332   9.016   7.689   8.678 -0.5979 -1.5993 -0.1874
  213MOL0     H29333   9.108   7.532   8.519 -1.5784 -0.3840 -3.1265
  213MOL0     H29334   9.139   7.657   8.402  0.2679  1.2313  0.2514
  213MOL0     H29335   9.283   7.648   8.671 -2.4765 -0.6843  0.2404
  213MOL0     H29336   9.295   7.776   8.553  0.8705 -0.2231  1.3504
  213MOL0     H29337   9.368   7.483   8.505 -0.7652  0.3914  1.6025
  213MOL0     H29338   9.383   7.601   8.377 -3.4243  2.2153 -0.0124
  213MOL0     H29339   9.538   7.608   8.646  2.1311  0.1297 -0.5206
  213MOL0     H29340   9.539   7.738   8.532  0.8389 -0.1277  1.3388
  213MOL0     H29341   9.624   7.453   8.455 -1.3470  0.5243  1.3913
  213MOL0     H29342   9.666   7.597   8.362  2.4944  2.4183  1.5836
  213MOL0     H29343   9.724   7.398   8.675 -0.8430  0.0606 -2.7261
  213MOL0     H29344  10.055   7.495   8.867 -0.1220  1.1207  3.3671
  213MOL0     H29345   9.913   7.405   8.881 -0.3904  1.0739  0.1959
  213MOL0     H29346   9.916   7.711   8.930  1.7147 -0.5931 -0.2526
  213MOL0     H29347   9.796   7.591   8.988 -1.0381  0.3152 -3.1464
  213MOL0     H29348   9.923   7.659   9.167  0.8082 -1.7848  2.5542
  213MOL0     H29349   9.979   7.503   9.132 -1.8118  0.7084  0.4797
  213MOL0     H29350  10.185   7.624   9.017 -1.8789 -0.0999 -1.3601
  213MOL0     H29351  10.104   7.779   9.059 -1.3952 -0.9482 -0.1994
  213MOL0     H29352  10.306   7.669   9.432 -0.6083 -1.8107 -2.9585
  213MOL0     H29353  10.424   7.742   9.629  0.6878  0.6567  2.1557
  213MOL0     H29354  10.462   7.914   9.630 -1.3898  0.9459 -1.5518
  213MOL0     H29355  10.581   7.805   9.563  0.5602  0.3482  0.5071
  213MOL0     H29356  10.676   8.256   9.570  0.2555  2.6064  0.6913
  213MOL0     H29357  10.881   8.370   9.621 -0.3235  0.2622 -0.2184
  213MOL0     H29358  11.206   8.544   9.530  0.8228 -0.4045  0.4197
  213MOL0     H29359  11.047   8.526   9.593 -0.4965  0.1202 -0.3335
  213MOL0     H29360  11.214   8.404   9.734  2.5987  2.3728 -1.9467
  213MOL0     H29361  11.092   8.289   9.664 -0.2773  0.5659  0.0901
  213MOL0     H29362  11.270   8.217   9.511 -0.5769 -3.1679  2.7008
  213MOL0     H29363  11.318   8.216   9.677 -2.6974 -0.8380 -1.3454
  213MOL0     H29364  11.440   8.441   9.621 -0.7979  0.2193  0.5001
  213MOL0     H29365  11.383   8.420   9.450  1.0267 -0.6466 -1.8556
  213MOL0     H29366  11.503   8.188   9.483 -1.0118  0.8749  0.9524
  213MOL0     H29367  11.593   8.333   9.441 -0.6859  0.0020 -1.2814
  213MOL0     H29368  11.558   8.186   9.711  1.2120  1.5485  2.2796
  213MOL0     H29369  11.629   8.343   9.707 -0.0011  2.0425 -2.3700
  213MOL0     H29370  11.721   8.093   9.549  0.7515 -1.3945  0.8378
  213MOL0     H29371  11.789   8.132   9.704  1.4601  1.2561 -0.3878
  213MOL0     H29372  11.822   8.300   9.456  1.4081 -0.8038  0.0501
  213MOL0     H29373  11.939   8.195   9.549 -0.9279 -1.9063 -0.1224
  213MOL0     H29374  11.010   8.341   9.202  0.1533  2.0230  0.3608
  213MOL0     H29375  10.790   8.216   9.156 -0.8256 -0.0038  0.7260
  213MOL0     H29376  10.503   8.025   9.154 -0.7049 -0.7172 -1.4750
  213MOL0     H29377  10.311   7.887   9.066  2.2805 -0.9518 -0.7384
  213MOL0     H29378   8.535   7.968   8.324 -1.1165 -1.0246 -0.8727
  213MOL0     H29379   8.302   8.042   8.394  1.0596 -0.8262 -1.3033
  213MOL0     H29380   7.991   8.137   8.657 -0.7324  0.2240  3.9547
  213MOL0     H29381   7.752   8.199   8.676  1.7601  0.8567 -6.0383
  213MOL0     H29382   7.552   8.169   8.546  2.3777  0.5932  2.5417
  213MOL0     H29383   7.447   8.031   8.557  2.5686 -2.2265  0.6080
  213MOL0     H29384   7.329   8.248   8.594  0.6457 -0.7751 -0.4520
  213MOL0     H29385   7.435   8.287   8.724  1.2779  0.6021 -1.5073
  213MOL0     H29386   7.276   8.014   8.753 -0.0990 -0.5406  2.4946
  213MOL0     H29387   7.324   8.124   8.872 -0.4551 -0.8372  0.6406
  213MOL0     H29388   7.062   8.111   8.744 -0.6795 -1.7681  3.9071
  213MOL0     H29389   7.139   8.264   8.724  1.3496 -2.0646 -3.0682
  213MOL0     H29390   7.035   8.253   9.141  0.0110 -0.0426  0.0536
  213MOL0     H29391   7.629   7.807   8.731 -2.3174  1.8993  0.0301
  213MOL0     H29392   7.770   7.618   8.728 -2.2683  1.7925 -2.4727
  213MOL0     H29393   7.877   7.635   8.587  1.5353  1.8061 -0.6623
  213MOL0     H29394   7.943   7.638   8.744  1.1260  1.1578 -0.3306
  214MOL0     O29395   2.056   4.858   8.872  0.2496 -0.1918  0.2428
  214MOL0     C29396   1.959   4.897   8.807  0.4424  0.1333 -0.7573
  214MOL0     O29397   1.962   4.964   8.692  0.1460 -0.4436  0.1824
  214MOL0     C29398   2.081   4.997   8.634  0.0092  0.6108  0.0482
  214MOL0     C29399   2.094   5.112   8.553  0.4154 -0.0016 -0.0593
  214MOL0     C29400   2.219   5.155   8.493 -0.6194 -0.2937  0.0737
  214MOL0     C29401   2.333   5.075   8.508 -0.2344 -0.8484 -0.1398
  214MOL0     O29402   2.454   5.096   8.450 -0.1701  0.0219  0.1468
  214MOL0     C29403   2.496   5.234   8.430  0.6538 -0.5997  0.5813
  214MOL0     C29404   2.643   5.241   8.415  0.4912  0.6020 -0.6967
  214MOL0     C29405   2.687   5.178   8.275 -1.1265  0.2776  0.7667
  214MOL0     C29406   2.820   5.109   8.275  0.3639  0.3943 -0.4948
  214MOL0     C29407   2.828   5.005   8.163 -0.3099 -0.3260 -0.1288
  214MOL0     C29408   2.776   4.872   8.210 -0.0575 -0.1856 -0.3909
  214MOL0     C29409   2.802   4.766   8.101  0.1471  0.8454  0.1749
  214MOL0     C29410   2.943   4.706   8.100 -0.7766  0.8369  0.2106
  214MOL0     N29411   2.958   4.574   8.034 -0.4659  0.1358  0.0896
  214MOL0     C29412   3.079   4.511   8.028 -1.0051  0.8201  0.7099
  214MOL0     C29413   3.078   4.444   7.903  0.1096 -0.3337 -0.4931
  214MOL0     C29414   3.208   4.371   7.852  0.8526  0.5241 -0.4233
  214MOL0     C29415   3.299   4.446   7.756  0.0892 -0.4251 -0.6335
  214MOL0     C29416   3.398   4.345   7.694 -0.1587 -0.2593  0.9265
  214MOL0     C29417   3.523   4.412   7.647 -1.0831  0.7164 -0.6873
  214MOL0     O29418   3.590   4.454   7.767 -0.5594 -0.5014 -0.3220
  214MOL0     C29419   3.729   4.457   7.756 -0.6732 -0.4365 -0.8424
  214MOL0     C29420   3.788   4.475   7.880 -0.0588 -0.4608  0.0243
  214MOL0     C29421   3.929   4.489   7.886 -0.9487 -0.0391  0.1583
  214MOL0     C29422   3.981   4.523   8.023 -0.9781  0.4735 -0.3173
  214MOL0     C29423   4.010   4.498   7.766  0.1053  0.0458  0.5702
  214MOL0     C29424   4.155   4.545   7.772 -0.6656 -1.1508  0.8477
  214MOL0     O29425   4.246   4.455   7.722  0.1314  0.3799  0.1023
  214MOL0     C29426   4.380   4.485   7.712 -0.1110  0.1611 -0.0128
  214MOL0     C29427   4.473   4.375   7.713 -0.4822  0.6286 -0.2949
  214MOL0     C29428   4.609   4.399   7.698 -0.1566  0.0089  0.4866
  214MOL0     C29429   4.661   4.528   7.692 -0.1270  0.5959 -0.1685
  214MOL0     O29430   4.798   4.528   7.697  0.3747 -0.0071  1.0145
  214MOL0     C29431   4.867   4.643   7.675 -0.0556  0.8140 -0.5004
  214MOL0     C29432   5.021   4.625   7.693 -0.1293  0.3189 -0.3369
  214MOL0     C29433   5.082   4.518   7.599 -0.3897  0.8773 -0.3460
  214MOL0     C29434   5.216   4.469   7.639  0.2143 -0.3839  0.3498
  214MOL0     C29435   5.265   4.348   7.555 -0.6742  0.1235 -0.3819
  214MOL0     C29436   5.419   4.347   7.553 -0.2612 -0.4173 -0.2634
  214MOL0     C29437   5.487   4.233   7.475  0.1550  0.1103  0.5057
  214MOL0     C29438   5.472   4.097   7.537  0.8714  0.7219 -0.5163
  214MOL0    Cl29439   5.559   4.102   7.693  0.2776 -0.3263 -0.3768
  214MOL0     C29440   4.574   4.634   7.703 -0.6143 -0.0985  0.7935
  214MOL0     C29441   4.433   4.618   7.704  0.4329 -0.5452 -0.4365
  214MOL0     O29442   4.187   4.636   7.853  0.3760 -0.2547  0.1571
  214MOL0     C29443   3.943   4.478   7.640  0.0554  0.3307  0.0659
  214MOL0     C29444   3.809   4.465   7.635  0.8432  0.9233  0.3740
  214MOL0     N29445   2.961   4.478   7.835 -0.1888  0.2886 -0.4718
  214MOL0     N29446   2.899   4.557   7.913  0.0256  0.4748  0.2926
  214MOL0     C29447   2.312   4.956   8.572 -0.2756 -0.0979  0.4767
  214MOL0     C29448   2.196   4.919   8.641  0.3088 -0.7811  0.1519
  214MOL0     C29449   1.828   4.871   8.861 -0.4324 -0.0745  0.5367
  214MOL0     C29450   1.732   4.829   8.765  0.2378  0.4826  0.5784
  214MOL0     C29451   1.606   4.780   8.807  0.8179  0.2023  0.7337
  214MOL0     C29452   1.571   4.771   8.940 -0.3969  0.5725  0.1134
  214MOL0     O29453   1.464   4.718   8.996  0.4411  0.8976  0.9650
  214MOL0     C29454   1.401   4.618   8.917 -0.3721  0.3765 -0.1501
  214MOL0     C29455   1.284   4.543   8.993  0.0848 -0.2522  0.3157
  214MOL0     C29456   1.321   4.468   9.119 -0.4859  0.9203  1.5939
  214MOL0     C29457   1.350   4.318   9.085  0.2784  0.4274 -0.4695
  214MOL0     C29458   1.440   4.287   8.970  0.5704  0.1102  0.0499
  214MOL0     C29459   1.529   4.254   8.899  0.0558 -0.0954 -0.8442
  214MOL0     C29460   1.662   4.814   9.038  0.7757 -0.5153  0.1139
  214MOL0     C29461   1.788   4.867   8.997  0.0656  0.0331  0.4350
  214MOL0     C29462   1.887   4.921   9.108  0.3757 -0.5133  0.3349
  214MOL0     H29463   2.009   5.180   8.552 -0.6233 -1.2550  0.5439
  214MOL0     H29464   2.225   5.257   8.455  2.5985  0.3940  2.0629
  214MOL0     H29465   2.460   5.295   8.514  0.5816  1.6704 -1.0017
  214MOL0     H29466   2.440   5.277   8.347 -0.3545 -0.4462  1.3168
  214MOL0     H29467   2.664   5.348   8.421 -1.3274  1.0179 -1.0476
  214MOL0     H29468   2.687   5.188   8.500  1.2164  1.7865 -0.3185
  214MOL0     H29469   2.626   5.089   8.256  0.6890 -0.4782 -1.9775
  214MOL0     H29470   2.689   5.254   8.196  1.6426  1.2599  1.6484
  214MOL0     H29471   2.901   5.183   8.273  2.2652 -1.5701 -0.5097
  214MOL0     H29472   2.838   5.056   8.369  0.5660  1.0328 -0.1655
  214MOL0     H29473   2.934   5.006   8.138 -0.7288  1.3032 -2.1484
  214MOL0     H29474   2.776   5.046   8.076  3.1711 -1.4462 -2.9510
  214MOL0     H29475   2.843   4.849   8.294  0.8639  1.3061 -0.6818
  214MOL0     H29476   2.674   4.872   8.250  0.7018 -1.7502  1.7067
  214MOL0     H29477   2.775   4.798   8.000  0.9185 -0.4921 -0.4900
  214MOL0     H29478   2.735   4.681   8.122  0.4776  0.2523 -1.1047
  214MOL0     H29479   3.015   4.778   8.060  1.1626 -1.3566 -0.4369
  214MOL0     H29480   2.975   4.681   8.201  0.7933  0.9791 -0.2312
  214MOL0     H29481   3.160   4.513   8.100  0.6214  0.7471 -1.0309
  214MOL0     H29482   3.170   4.279   7.806 -2.2013  1.3954  0.1420
  214MOL0     H29483   3.266   4.351   7.942  1.3965  2.8021 -0.2067
  214MOL0     H29484   3.246   4.499   7.677 -1.8290 -0.4801  0.5690
  214MOL0     H29485   3.361   4.520   7.807 -0.1144 -2.0896  2.2493
  214MOL0     H29486   3.429   4.261   7.757  0.3416 -0.6130  0.2265
  214MOL0     H29487   3.346   4.313   7.603  0.8786 -0.0271  0.2259
  214MOL0     H29488   3.582   4.339   7.590 -1.6428 -0.2678 -0.0466
  214MOL0     H29489   3.511   4.493   7.575 -1.8715  0.1510 -1.2105
  214MOL0     H29490   3.721   4.491   7.964 -0.9417  0.9451 -0.8827
  214MOL0     H29491   4.081   4.485   8.047 -1.5327 -1.0834 -0.3252
  214MOL0     H29492   3.911   4.482   8.097  0.7838 -1.3107  0.4577
  214MOL0     H29493   3.976   4.629   8.048 -0.0907 -0.0739  2.6105
  214MOL0     H29494   4.416   4.282   7.717 -1.7085  1.3998  1.8291
  214MOL0     H29495   4.675   4.314   7.682 -2.4548 -1.4838 -1.9633
  214MOL0     H29496   4.842   4.686   7.578  1.6250  3.1987  0.0384
  214MOL0     H29497   4.829   4.710   7.752  0.3682 -0.4624  0.8805
  214MOL0     H29498   5.068   4.722   7.674 -0.8823  0.6917 -0.3175
  214MOL0     H29499   5.029   4.601   7.800  0.5696 -0.1154 -0.4802
  214MOL0     H29500   5.107   4.567   7.505 -0.1030  2.3214  0.4474
  214MOL0     H29501   5.011   4.437   7.578 -3.3563  3.6372 -1.8681
  214MOL0     H29502   5.210   4.448   7.747  0.5850 -0.2911  0.3905
  214MOL0     H29503   5.281   4.557   7.625 -0.0931 -0.2788 -0.4117
  214MOL0     H29504   5.225   4.257   7.598 -1.5040  1.2553  1.3375
  214MOL0     H29505   5.230   4.357   7.451  0.1417  0.1152 -0.6697
  214MOL0     H29506   5.450   4.338   7.658 -1.2071  2.1105  0.2901
  214MOL0     H29507   5.464   4.441   7.522  1.5763 -0.9831  0.4949
  214MOL0     H29508   5.592   4.257   7.454 -0.6367  3.2359 -0.4102
  214MOL0     H29509   5.434   4.225   7.380  2.9001  0.7307 -1.1878
  214MOL0     H29510   5.505   4.011   7.477 -0.9599  0.3174 -1.0073
  214MOL0     H29511   5.368   4.069   7.557  1.4795 -0.9392  0.6006
  214MOL0     H29512   4.606   4.736   7.687 -0.3450 -0.0652  1.5029
  214MOL0     H29513   4.363   4.701   7.706 -3.9558 -3.8495  2.2585
  214MOL0     H29514   4.002   4.478   7.548 -0.7612 -3.1628 -0.6169
  214MOL0     H29515   3.747   4.456   7.547  1.4066 -1.5643  0.1690
  214MOL0     H29516   2.396   4.886   8.566  0.5146  0.7191  1.5704
  214MOL0     H29517   2.187   4.823   8.691 -0.3143 -1.9770 -2.1554
  214MOL0     H29518   1.748   4.815   8.659  3.0834 -2.3568  1.2200
  214MOL0     H29519   1.531   4.754   8.733  2.3201  0.7168 -1.0504
  214MOL0     H29520   1.366   4.671   8.828 -1.0681 -0.6263 -0.4843
  214MOL0     H29521   1.470   4.544   8.876 -0.6118  1.2194 -2.2222
  214MOL0     H29522   1.234   4.467   8.932  1.0061 -2.0615  1.7216
  214MOL0     H29523   1.201   4.614   9.005 -0.6806 -1.4531  2.7648
  214MOL0     H29524   1.403   4.508   9.180  1.5818 -0.4805 -0.1374
  214MOL0     H29525   1.231   4.472   9.180 -1.6842 -2.3141  0.2571
  214MOL0     H29526   1.255   4.263   9.084  0.0961  0.7466 -0.8118
  214MOL0     H29527   1.405   4.294   9.176  2.2353 -1.3843 -2.0146
  214MOL0     H29528   1.610   4.231   8.832  1.2255 -2.1598  1.1587
  214MOL0     H29529   1.645   4.815   9.145  0.6422  0.7819  0.0939
  214MOL0     H29530   1.969   4.849   9.115 -0.0501 -0.8381  2.7427
  214MOL0     H29531   1.938   5.011   9.070 -2.4138  1.0427 -0.0161
  214MOL0     H29532   1.835   4.941   9.202 -0.0536  0.5809 -0.1173
  215MOL0     O29533   6.110   2.135   0.716 -0.2809  0.1353 -0.5705
  215MOL0     C29534   6.006   2.177   0.666 -0.7946  0.0551  1.2027
  215MOL0     O29535   6.010   2.256   0.552 -0.3398 -0.1848  0.0599
  215MOL0     C29536   6.129   2.296   0.493  1.2982  0.7305 -0.7723
  215MOL0     C29537   6.241   2.337   0.561 -1.3516 -0.0462  0.3224
  215MOL0     C29538   6.354   2.379   0.486  0.2033 -0.2050  0.1600
  215MOL0     C29539   6.365   2.380   0.342  0.1548 -0.2995  0.0607
  215MOL0     O29540   6.478   2.426   0.266 -0.7187  0.4101 -0.2850
  215MOL0     C29541   6.589   2.462   0.346 -0.1141 -0.3708 -0.1308
  215MOL0     C29542   6.715   2.508   0.264  0.0568 -0.0454 -0.3107
  215MOL0     C29543   6.767   2.389   0.176  0.3938  0.1607  0.2581
  215MOL0     C29544   6.886   2.435   0.089  0.3061 -0.5126 -0.1830
  215MOL0     C29545   6.943   2.314   0.020 -0.0466  0.1612 -0.5785
  215MOL0     C29546   7.034   2.212   0.096 -0.0837 -0.3163 -0.7790
  215MOL0     C29547   7.033   2.069   0.034  1.1133 -0.1059 -0.6455
  215MOL0     C29548   7.121   2.056  -0.086 -0.3643  0.1147 -0.8514
  215MOL0     N29549   7.265   2.061  -0.041  0.1220  1.1130  0.7870
  215MOL0     C29550   7.347   1.957   0.003 -0.6783 -0.7885 -0.1808
  215MOL0     C29551   7.474   2.012   0.007 -0.4132  0.9459  0.6700
  215MOL0     C29552   7.597   1.940   0.045  0.5882 -0.6224  0.2790
  215MOL0     C29553   7.611   1.929   0.190 -0.1894  0.2613  0.5735
  215MOL0     C29554   7.735   1.832   0.220 -0.2414 -0.5922  0.6100
  215MOL0     C29555   7.871   1.907   0.229 -0.6522 -0.1434  0.3235
  215MOL0     O29556   7.983   1.839   0.292  0.8146 -0.0796 -0.0463
  215MOL0     C29557   8.104   1.905   0.314  0.2017 -0.1792 -0.0477
  215MOL0     C29558   8.185   1.868   0.421  0.6448 -0.7234 -0.7964
  215MOL0     C29559   8.315   1.915   0.447 -0.6338  0.5475 -0.0608
  215MOL0     C29560   8.385   1.857   0.573  0.1909  0.2962  0.0602
  215MOL0     C29561   8.359   2.021   0.362  0.5705  1.0691  0.7635
  215MOL0     C29562   8.486   2.091   0.372  0.0237  0.3551 -0.1698
  215MOL0     O29563   8.514   2.201   0.300 -0.1322 -0.1526  0.1007
  215MOL0     C29564   8.636   2.269   0.311  0.4763 -0.0418 -0.6296
  215MOL0     C29565   8.729   2.266   0.211  0.4113  0.2767 -0.5243
  215MOL0     C29566   8.862   2.302   0.244 -0.2708 -0.2150  0.4530
  215MOL0     C29567   8.895   2.363   0.364  0.3967 -0.1968  0.3260
  215MOL0     O29568   9.029   2.401   0.375 -0.2610 -0.0194 -0.5214
  215MOL0     C29569   9.085   2.340   0.496 -0.2872 -0.6457  0.8291
  215MOL0     C29570   9.235   2.331   0.483  0.3953  0.1623  0.1900
  215MOL0     C29571   9.269   2.235   0.366  0.6225  0.7974 -0.6940
  215MOL0     C29572   9.426   2.208   0.353  0.8355  1.4612 -0.2084
  215MOL0     C29573   9.496   2.337   0.304  0.0755  0.0265 -0.5858
  215MOL0     C29574   9.652   2.324   0.286  1.0007 -0.2088 -0.8590
  215MOL0     C29575   9.695   2.216   0.186  0.7923 -0.4043 -0.8364
  215MOL0     C29576   9.828   2.252   0.122  1.0640  0.6369 -0.3491
  215MOL0    Cl29577   9.963   2.250   0.226  0.1576 -0.6824  0.5210
  215MOL0     C29578   8.797   2.375   0.463  0.4065  0.1725  1.1621
  215MOL0     C29579   8.670   2.324   0.440  0.6062  0.1364 -0.5186
  215MOL0     O29580   8.563   2.044   0.462  0.2991 -0.2910  0.5867
  215MOL0     C29581   8.282   2.056   0.247  0.1369  0.7656  0.8200
  215MOL0     C29582   8.163   1.995   0.220  0.0215  0.7187 -0.7318
  215MOL0     N29583   7.465   2.137  -0.037 -0.6466 -0.6623  0.4152
  215MOL0     N29584   7.343   2.169  -0.067  0.5635  0.6405  0.2946
  215MOL0     C29585   6.247   2.335   0.286  0.0868  0.1524 -0.4138
  215MOL0     C29586   6.135   2.295   0.357  0.0278  0.0688 -0.7361
  215MOL0     C29587   5.869   2.150   0.707 -0.4425 -0.0608 -0.0721
  215MOL0     C29588   5.792   2.267   0.711  1.4169  0.2312 -0.0654
  215MOL0     C29589   5.649   2.256   0.729 -0.6231  0.4096 -0.4980
  215MOL0     C29590   5.596   2.128   0.754  0.2091  0.4094 -0.3296
  215MOL0     O29591   5.469   2.130   0.804  0.4361  0.5695  0.1353
  215MOL0     C29592   5.426   2.011   0.875  1.4932 -0.3317 -0.1899
  215MOL0     C29593   5.296   2.018   0.952  1.4048  0.3752 -0.9300
  215MOL0     C29594   5.279   1.873   1.018 -0.5922  0.2821 -0.0563
  215MOL0     C29595   5.159   1.874   1.122 -0.6378  0.3846 -0.4806
  215MOL0     C29596   5.026   1.836   1.070  0.4024  0.3736  0.1658
  215MOL0     C29597   4.919   1.829   1.016  0.0559  0.1610  0.6021
  215MOL0     C29598   5.674   2.014   0.745  0.6706 -0.9988 -0.0496
  215MOL0     C29599   5.815   2.023   0.720 -1.2868 -0.0431 -0.4514
  215MOL0     C29600   5.886   1.891   0.704 -1.1794 -0.5535  0.4434
  215MOL0     H29601   6.240   2.346   0.670 -2.3670 -0.7982  0.3924
  215MOL0     H29602   6.435   2.422   0.543  0.6656 -0.0665 -0.5874
  215MOL0     H29603   6.616   2.376   0.409 -0.0453 -0.3289 -0.1029
  215MOL0     H29604   6.552   2.548   0.403 -1.3244  1.1766 -3.0300
  215MOL0     H29605   6.680   2.594   0.206  1.1453  1.4366  1.1436
  215MOL0     H29606   6.791   2.537   0.337 -0.1340 -3.0592  1.2635
  215MOL0     H29607   6.807   2.316   0.246 -0.7562 -0.4522  0.3036
  215MOL0     H29608   6.683   2.349   0.119 -0.2896  0.8779  0.7370
  215MOL0     H29609   6.849   2.501   0.010  1.3526  0.0454 -0.2219
  215MOL0     H29610   6.960   2.488   0.150  1.7353 -2.0128 -0.5406
  215MOL0     H29611   7.000   2.354  -0.065 -1.2863  0.9051 -1.0889
  215MOL0     H29612   6.858   2.253  -0.012 -1.0660  1.0534  0.3441
  215MOL0     H29613   7.136   2.251   0.098 -0.6580  1.3149 -1.7474
  215MOL0     H29614   6.988   2.205   0.196  0.4982 -0.9874 -0.5487
  215MOL0     H29615   6.932   2.040   0.005  0.6588  0.8919 -0.1313
  215MOL0     H29616   7.068   1.994   0.106  1.6197  0.8753  0.1536
  215MOL0     H29617   7.092   1.962  -0.134 -0.6706 -0.8150  1.0563
  215MOL0     H29618   7.098   2.140  -0.153  0.1868  2.4605  1.7204
  215MOL0     H29619   7.331   1.855   0.037 -0.7971 -0.9720 -0.7893
  215MOL0     H29620   7.686   1.998   0.018  2.1890 -1.4010  3.4180
  215MOL0     H29621   7.602   1.852  -0.020  4.4867  0.0362 -0.5678
  215MOL0     H29622   7.628   2.027   0.236 -1.8639  0.5234  0.7185
  215MOL0     H29623   7.518   1.893   0.235  0.5078  1.3729  3.0829
  215MOL0     H29624   7.720   1.787   0.318 -0.3494 -0.7630  0.5146
  215MOL0     H29625   7.736   1.748   0.150 -2.7991  0.9303 -1.4402
  215MOL0     H29626   7.908   1.939   0.131  1.6883  0.3501  1.2903
  215MOL0     H29627   7.851   1.999   0.285 -1.6843  0.9310 -1.6949
  215MOL0     H29628   8.132   1.801   0.488 -0.7597  0.8901 -0.2236
  215MOL0     H29629   8.401   1.944   0.637 -0.5791  0.7853 -0.3877
  215MOL0     H29630   8.486   1.818   0.565 -0.8772 -2.2988 -2.7580
  215MOL0     H29631   8.314   1.791   0.624  0.0724  0.0058 -0.4699
  215MOL0     H29632   8.702   2.246   0.108  0.8367  0.7257 -0.7297
  215MOL0     H29633   8.931   2.297   0.161 -2.5198  0.1116 -1.5206
  215MOL0     H29634   9.068   2.414   0.575  2.0458 -0.1354  0.9473
  215MOL0     H29635   9.049   2.241   0.523 -1.7872 -0.3217  0.1262
  215MOL0     H29636   9.280   2.430   0.472  1.7662  0.0561  3.6392
  215MOL0     H29637   9.271   2.297   0.581 -0.7971 -2.2969 -0.1481
  215MOL0     H29638   9.224   2.252   0.268 -0.3941 -3.0923 -1.0651
  215MOL0     H29639   9.227   2.136   0.389  1.4298  0.9158  1.5750
  215MOL0     H29640   9.421   2.128   0.279 -1.8994  0.3573  1.0252
  215MOL0     H29641   9.468   2.174   0.448 -0.0399  0.3265 -0.1934
  215MOL0     H29642   9.455   2.393   0.220 -0.8030 -0.4809 -0.5002
  215MOL0     H29643   9.492   2.405   0.390  0.8848 -1.8402  0.9968
  215MOL0     H29644   9.700   2.306   0.382 -2.3128  0.3070  1.0307
  215MOL0     H29645   9.692   2.419   0.249  1.0027  1.3235  2.6586
  215MOL0     H29646   9.619   2.211   0.107  1.4736 -3.1061 -1.4346
  215MOL0     H29647   9.687   2.122   0.242 -3.8814  1.2892  1.9216
  215MOL0     H29648   9.825   2.349   0.072  2.7166  0.5665 -0.6569
  215MOL0     H29649   9.842   2.176   0.044 -2.5943 -0.4975 -0.0670
  215MOL0     H29650   8.810   2.426   0.558 -0.8473 -1.1785  2.0956
  215MOL0     H29651   8.611   2.342   0.530  0.3993  1.3154 -0.8730
  215MOL0     H29652   8.318   2.129   0.176 -1.9746 -0.3070 -1.5260
  215MOL0     H29653   8.099   2.022   0.137  2.1385  0.4762 -2.5308
  215MOL0     H29654   6.246   2.331   0.178  1.5857 -1.9825 -0.4086
  215MOL0     H29655   6.046   2.271   0.300  0.3485 -1.0036 -0.8238
  215MOL0     H29656   5.823   2.371   0.715  0.8619  0.3945  0.0393
  215MOL0     H29657   5.587   2.345   0.733 -1.0891  0.3448 -3.9177
  215MOL0     H29658   5.418   1.925   0.808  0.1553  1.1361 -1.9990
  215MOL0     H29659   5.495   2.013   0.960  1.7617 -0.7276 -0.3964
  215MOL0     H29660   5.211   2.033   0.885  1.5606 -2.3560 -1.8789
  215MOL0     H29661   5.295   2.100   1.025  1.0258  2.2811 -2.9757
  215MOL0     H29662   5.260   1.806   0.934 -1.7387 -0.4810  0.7955
  215MOL0     H29663   5.368   1.835   1.068 -1.3630 -0.3054  0.8962
  215MOL0     H29664   5.156   1.964   1.183 -2.7449 -2.0937  3.5570
  215MOL0     H29665   5.197   1.802   1.195  4.3019  2.4574 -0.6650
  215MOL0     H29666   4.823   1.832   0.968  1.2123  1.6162 -1.8533
  215MOL0     H29667   5.630   1.918   0.769 -2.2919  0.0519 -0.8345
  215MOL0     H29668   5.977   1.902   0.645 -1.5283 -3.7959 -0.9231
  215MOL0     H29669   5.921   1.844   0.797 -0.9287  4.8124  3.4817
  215MOL0     H29670   5.824   1.819   0.650  1.0610 -0.4107 -2.5240
  216MOL0     O29671   9.370   0.222   2.421 -0.3919 -0.2552  0.2230
  216MOL0     C29672   9.280   0.297   2.468  0.4477 -0.0274  0.4386
  216MOL0     O29673   9.270   0.428   2.439 -0.3442 -0.1260  0.2454
  216MOL0     C29674   9.327   0.493   2.334  0.0412 -0.8357 -0.5552
  216MOL0     C29675   9.323   0.632   2.333 -0.5814 -0.1889  0.3545
  216MOL0     C29676   9.385   0.712   2.235 -0.6530 -0.3261 -0.5235
  216MOL0     C29677   9.457   0.650   2.130  0.0779 -0.6691  0.0872
  216MOL0     O29678   9.527   0.734   2.047  0.3483  0.2180  0.0304
  216MOL0     C29679   9.670   0.721   2.064  0.6533  0.2795  0.3312
  216MOL0     C29680   9.741   0.832   2.129  0.4576  0.5570  0.7440
  216MOL0     C29681   9.888   0.785   2.166 -0.4413 -0.2859  0.4655
  216MOL0     C29682   9.952   0.910   2.222 -0.0681 -0.0449 -0.6332
  216MOL0     C29683  10.101   0.895   2.242  0.0363  0.4449 -0.1175
  216MOL0     C29684  10.161   1.004   2.337  0.2455  0.2160 -0.4190
  216MOL0     C29685  10.312   1.002   2.387 -0.0909  0.2260  0.4295
  216MOL0     C29686  10.341   0.891   2.488  0.4661  0.5109  0.2140
  216MOL0     N29687  10.487   0.885   2.499 -0.2095  0.0941 -0.2983
  216MOL0     C29688  10.554   0.762   2.495 -0.5077 -0.6315  0.2008
  216MOL0     C29689  10.679   0.782   2.545  0.7240  0.2065 -0.4637
  216MOL0     C29690  10.791   0.683   2.563 -0.6577  0.1965 -0.2355
  216MOL0     C29691  10.920   0.709   2.479  0.5385 -0.2885 -0.1412
  216MOL0     C29692  11.011   0.799   2.563  0.6268  0.2318  0.3810
  216MOL0     C29693  11.151   0.798   2.512 -0.4246  0.1719  0.2766
  216MOL0     O29694  11.220   0.681   2.554 -0.6931 -0.1449 -0.3732
  216MOL0     C29695  11.346   0.685   2.513 -0.3113  0.1113 -0.4494
  216MOL0     C29696  11.444   0.777   2.560  0.0313 -0.0648  0.1253
  216MOL0     C29697  11.586   0.779   2.528  0.6758  0.3037  0.2828
  216MOL0     C29698  11.677   0.877   2.600 -0.2498  0.3813  0.7290
  216MOL0     C29699  11.635   0.681   2.443  0.1184  0.2111 -0.7005
  216MOL0     C29700  11.775   0.674   2.388  0.4809  0.5454  0.4528
  216MOL0     O29701  11.859   0.772   2.419 -0.5258 -0.4618  0.2668
  216MOL0     C29702  12.001   0.760   2.410  0.5930 -0.2408  0.4287
  216MOL0     C29703  12.074   0.881   2.395 -0.5719 -0.7028 -0.4529
  216MOL0     C29704  12.215   0.886   2.382  1.0346 -0.0583  0.1670
  216MOL0     C29705  12.294   0.766   2.392  0.0490 -0.4575  0.0767
  216MOL0     O29706  12.432   0.750   2.392 -0.2812 -0.5350 -0.1231
  216MOL0     C29707  12.490   0.827   2.493  0.3336  0.1838  0.8919
  216MOL0     C29708  12.643   0.793   2.507 -0.0104  0.0520 -0.3357
  216MOL0     C29709  12.714   0.862   2.625  0.0170 -0.5811 -0.6874
  216MOL0     C29710  12.837   0.785   2.649  0.0091  0.4538  0.9700
  216MOL0     C29711  12.920   0.832   2.763  0.4446  0.2077 -1.0254
  216MOL0     C29712  13.075   0.777   2.753 -0.0909  0.5928  0.0754
  216MOL0     C29713  13.163   0.868   2.675 -0.3185 -0.3194 -0.5636
  216MOL0     C29714  13.210   0.976   2.776 -0.2474 -0.0056  0.2175
  216MOL0    Cl29715  13.301   0.905   2.907 -0.0983 -0.4011  0.1750
  216MOL0     C29716  12.225   0.647   2.400  0.6683  0.4925  0.1875
  216MOL0     C29717  12.081   0.648   2.410 -0.0212  0.2429  0.1800
  216MOL0     O29718  11.806   0.568   2.323 -0.2102  0.4687  0.0985
  216MOL0     C29719  11.539   0.588   2.392  0.0977 -0.7674 -0.4547
  216MOL0     C29720  11.399   0.588   2.423 -0.1386 -0.2549  0.0234
  216MOL0     N29721  10.690   0.920   2.578 -0.6963  0.1831  0.6048
  216MOL0     N29722  10.579   0.976   2.547  0.4115  0.6364 -0.0690
  216MOL0     C29723   9.453   0.515   2.119 -0.4450  0.9461 -0.7633
  216MOL0     C29724   9.389   0.435   2.221 -0.0974 -0.3038  0.0977
  216MOL0     C29725   9.197   0.255   2.588 -1.1613  0.1749  0.0595
  216MOL0     C29726   9.216   0.317   2.715 -0.8349 -0.3444  0.0764
  216MOL0     C29727   9.158   0.262   2.824 -0.4543 -0.3898 -0.4319
  216MOL0     C29728   9.066   0.156   2.815 -0.1604 -0.0932  0.0048
  216MOL0     O29729   8.994   0.116   2.921 -0.6676  1.5072 -0.1478
  216MOL0     C29730   8.987   0.187   3.042 -0.1521  0.4426  0.5510
  216MOL0     C29731   8.882   0.134   3.134 -0.0591  0.2715 -0.1309
  216MOL0     C29732   8.777   0.239   3.173  0.6551 -0.1916  0.5826
  216MOL0     C29733   8.668   0.169   3.255  0.2610  0.2194 -0.5311
  216MOL0     C29734   8.708   0.134   3.395 -0.1992  0.2550  0.4848
  216MOL0     C29735   8.727   0.098   3.512 -0.8062  0.2660  0.4356
  216MOL0     C29736   9.037   0.098   2.692 -0.3854 -0.8650 -0.7586
  216MOL0     C29737   9.107   0.144   2.577 -0.3098 -0.5195  0.3870
  216MOL0     C29738   9.083   0.067   2.453 -0.1015 -0.1625  0.2150
  216MOL0     H29739   9.272   0.674   2.420  1.8425  2.9258  0.4165
  216MOL0     H29740   9.388   0.820   2.246 -0.3717 -0.4990  1.5292
  216MOL0     H29741   9.716   0.708   1.966 -0.8260 -0.4079 -0.3062
  216MOL0     H29742   9.695   0.624   2.108  0.0615 -1.1677 -2.3121
  216MOL0     H29743   9.752   0.919   2.063  4.6681 -0.8534 -0.7328
  216MOL0     H29744   9.698   0.866   2.224  1.0394  1.6409  0.6452
  216MOL0     H29745   9.881   0.693   2.226 -1.2920 -2.5627 -2.8352
  216MOL0     H29746   9.948   0.764   2.077 -0.3585 -1.6047  0.8162
  216MOL0     H29747   9.935   1.006   2.173 -2.4058  2.4696  4.3987
  216MOL0     H29748   9.899   0.924   2.316 -0.2211 -1.6664 -0.4502
  216MOL0     H29749  10.156   0.896   2.147 -1.9720 -1.8762 -1.4211
  216MOL0     H29750  10.117   0.794   2.280  0.5819  1.4983  2.6958
  216MOL0     H29751  10.164   1.101   2.285  5.8441  0.1806 -0.7712
  216MOL0     H29752  10.106   1.008   2.432  3.8925 -3.4827  2.2063
  216MOL0     H29753  10.342   1.094   2.439 -3.8799  1.7515  0.2082
  216MOL0     H29754  10.380   0.984   2.303 -0.1969 -0.8982  0.5678
  216MOL0     H29755  10.280   0.909   2.577 -0.7390  1.4802 -0.7755
  216MOL0     H29756  10.307   0.796   2.448  0.4443  0.0211  1.3442
  216MOL0     H29757  10.508   0.669   2.462 -2.1784  0.7838 -1.7150
  216MOL0     H29758  10.745   0.588   2.537 -0.6870 -0.3718  1.7485
  216MOL0     H29759  10.823   0.658   2.664  1.3167 -1.6323 -1.2231
  216MOL0     H29760  10.960   0.608   2.463  0.9755 -0.2308  0.5541
  216MOL0     H29761  10.902   0.750   2.379  2.6359 -3.6725 -2.1306
  216MOL0     H29762  10.967   0.898   2.552 -1.0703 -0.4535  0.5921
  216MOL0     H29763  11.005   0.767   2.668 -2.4598 -2.7754 -0.5403
  216MOL0     H29764  11.135   0.806   2.404 -1.4865 -1.8333  0.2598
  216MOL0     H29765  11.199   0.888   2.553 -0.9975 -0.0581  1.5024
  216MOL0     H29766  11.418   0.855   2.631  0.5651  2.0489 -1.8733
  216MOL0     H29767  11.731   0.944   2.532  2.0474 -1.8043  0.2147
  216MOL0     H29768  11.751   0.818   2.656 -0.5882  0.3059  1.0981
  216MOL0     H29769  11.619   0.927   2.678 -0.9108  0.1651  0.3820
  216MOL0     H29770  12.016   0.972   2.407 -0.3252  0.2392 -4.7663
  216MOL0     H29771  12.267   0.977   2.357  1.2788 -0.0197  0.8130
  216MOL0     H29772  12.475   0.931   2.462 -0.0967 -0.3215 -0.6774
  216MOL0     H29773  12.447   0.810   2.592 -0.0967  0.2592  0.7174
  216MOL0     H29774  12.655   0.684   2.506  2.4206  0.1929  2.4420
  216MOL0     H29775  12.685   0.827   2.412  0.4698 -1.9487 -0.9064
  216MOL0     H29776  12.651   0.857   2.714 -0.4885 -2.5059 -1.1215
  216MOL0     H29777  12.740   0.966   2.601 -2.9919  0.7497  1.1654
  216MOL0     H29778  12.896   0.788   2.557  1.0489  0.9347  1.6343
  216MOL0     H29779  12.808   0.682   2.670 -0.0523  0.1029 -0.6741
  216MOL0     H29780  12.922   0.940   2.776 -1.0310 -0.0090  1.7987
  216MOL0     H29781  12.882   0.793   2.858  2.2459  3.0529  1.0180
  216MOL0     H29782  13.083   0.686   2.692 -1.5774  0.8898 -0.6029
  216MOL0     H29783  13.115   0.754   2.852  0.0583  1.5906  0.2586
  216MOL0     H29784  13.117   0.917   2.588  0.5690 -1.1771 -1.5377
  216MOL0     H29785  13.252   0.813   2.642 -1.3233 -2.2291 -0.2205
  216MOL0     H29786  13.117   1.027   2.803 -2.3872 -1.5411 -3.4864
  216MOL0     H29787  13.272   1.051   2.727  1.5475 -1.1053  0.6702
  216MOL0     H29788  12.277   0.554   2.378 -2.1838 -0.6383 -2.5142
  216MOL0     H29789  12.030   0.553   2.411  0.9927 -0.3107  0.7507
  216MOL0     H29790  11.568   0.509   2.324 -1.6167 -0.9138 -1.0840
  216MOL0     H29791  11.329   0.519   2.377 -0.9585  2.0214 -2.3454
  216MOL0     H29792   9.496   0.476   2.027 -2.0826  0.9961 -1.5916
  216MOL0     H29793   9.384   0.327   2.212 -1.4578 -0.1268 -2.3261
  216MOL0     H29794   9.271   0.411   2.707  0.3810 -1.1509 -1.7333
  216MOL0     H29795   9.173   0.309   2.920  0.8882  0.4713 -1.0412
  216MOL0     H29796   9.088   0.172   3.082  1.3011 -3.1947 -3.7090
  216MOL0     H29797   8.972   0.294   3.029  2.2558  0.9774  1.5502
  216MOL0     H29798   8.926   0.108   3.231  0.0234  0.9897  0.0264
  216MOL0     H29799   8.821   0.053   3.092 -1.8668  0.3359  2.1310
  216MOL0     H29800   8.823   0.322   3.227  0.1397  0.8938 -0.5943
  216MOL0     H29801   8.739   0.277   3.078  1.4543 -0.0081  0.3250
  216MOL0     H29802   8.636   0.082   3.198  1.8108 -0.3112 -0.6404
  216MOL0     H29803   8.586   0.240   3.270 -0.0045 -0.1330 -0.2952
  216MOL0     H29804   8.751   0.054   3.606  0.3197  0.9927  0.5097
  216MOL0     H29805   8.960   0.022   2.687 -0.5458 -0.6174 -2.4830
  216MOL0     H29806   9.084   0.140   2.372  0.9924  3.0578  2.8704
  216MOL0     H29807   9.164  -0.004   2.433 -0.2292 -1.0000  2.3824
  216MOL0     H29808   8.995   0.003   2.452 -0.8712  0.8017 -2.5174
  217MOL0     O29809   0.188   1.318  11.061 -0.2219  0.5488  0.5801
  217MOL0     C29810   0.124   1.383  10.987 -0.3145 -0.2065 -0.5016
  217MOL0     O29811   0.153   1.390  10.847  0.3126 -0.2524 -0.0466
  217MOL0     C29812   0.269   1.347  10.790  0.4707 -0.7353 -0.6007
  217MOL0     C29813   0.332   1.221  10.827  0.1583  0.5208 -0.4148
  217MOL0     C29814   0.460   1.191  10.771  0.1701  0.1409 -0.7745
  217MOL0     C29815   0.521   1.277  10.676 -0.5865  1.5208 -0.6350
  217MOL0     O29816   0.637   1.233  10.628  0.1141  0.3327  0.2916
  217MOL0     C29817   0.700   1.295  10.515 -0.9508 -0.0919 -0.3651
  217MOL0     C29818   0.832   1.220  10.491  0.0523 -0.4829 -0.0280
  217MOL0     C29819   0.945   1.313  10.510  0.6774 -0.1797  0.0244
  217MOL0     C29820   1.080   1.259  10.469  0.4950  0.7141 -0.0754
  217MOL0     C29821   1.189   1.348  10.527  0.4372  0.0016  0.4910
  217MOL0     C29822   1.323   1.270  10.528  0.3239  0.2368  1.1436
  217MOL0     C29823   1.441   1.356  10.571  0.2472  1.5227 -0.4807
  217MOL0     C29824   1.438   1.410  10.718 -0.5112  0.3533  0.5479
  217MOL0     N29825   1.537   1.516  10.744 -0.3095 -0.2529 -0.0931
  217MOL0     C29826   1.546   1.638  10.670 -0.3197  0.3995 -0.8222
  217MOL0     C29827   1.661   1.705  10.712 -0.4020  0.5162 -0.3240
  217MOL0     C29828   1.721   1.826  10.645 -0.2541 -0.1722 -0.0199
  217MOL0     C29829   1.695   1.945  10.735 -0.1657 -0.1894  0.7756
  217MOL0     C29830   1.753   1.960  10.880  0.1612  0.8069 -0.2590
  217MOL0     C29831   1.906   1.943  10.875  0.1242 -0.1096 -0.0547
  217MOL0     O29832   1.962   2.042  10.951 -0.4904 -0.0160 -0.4878
  217MOL0     C29833   2.098   2.045  10.960  0.0348  0.2965 -0.1054
  217MOL0     C29834   2.164   2.168  10.969 -0.7079 -0.0787 -0.2651
  217MOL0     C29835   2.308   2.170  10.970 -0.6692 -0.0907 -0.4188
  217MOL0     C29836   2.376   2.306  10.986 -0.2634 -0.1447  0.3758
  217MOL0     C29837   2.382   2.052  10.941  0.8731  0.7312  0.3067
  217MOL0     C29838   2.527   2.041  10.940  0.7413 -0.3292  0.2666
  217MOL0     O29839   2.605   2.153  10.907 -0.1049  1.2213 -0.0451
  217MOL0     C29840   2.738   2.138  10.929 -0.9564  0.0791  0.1862
  217MOL0     C29841   2.825   2.058  10.861  0.4386 -0.2645  1.0682
  217MOL0     C29842   2.966   2.052  10.875  0.6498 -0.3004  0.3312
  217MOL0     C29843   3.027   2.128  10.973 -0.0334 -0.0331  0.3258
  217MOL0     O29844   3.162   2.131  10.998  0.3413 -0.0899  0.6643
  217MOL0     C29845   3.243   2.023  10.943  0.1358  0.1095 -0.4779
  217MOL0     C29846   3.384   2.037  11.012  0.2808  0.7867 -0.2097
  217MOL0     C29847   3.445   2.169  10.979  1.0103 -0.3113  0.6723
  217MOL0     C29848   3.583   2.181  11.039  0.0005 -1.0660  0.0373
  217MOL0     C29849   3.654   2.302  11.003  0.2191 -0.6321 -0.3789
  217MOL0     C29850   3.807   2.291  11.054 -0.1310 -0.6037  0.8487
  217MOL0     C29851   3.887   2.418  11.022 -0.5325  0.2903  0.2134
  217MOL0     C29852   3.843   2.550  11.090 -0.3570  0.3823 -0.1990
  217MOL0    Cl29853   3.830   2.541  11.271 -0.1581  0.1530  0.0012
  217MOL0     C29854   2.942   2.210  11.053 -0.8448  0.4712 -0.2842
  217MOL0     C29855   2.805   2.217  11.027 -0.6049  0.7742 -0.8903
  217MOL0     O29856   2.574   1.924  10.960  0.1995  0.5534  0.4774
  217MOL0     C29857   2.305   1.933  10.926 -0.1732 -0.5240  0.7628
  217MOL0     C29858   2.172   1.929  10.937 -0.0287 -0.0482  0.0492
  217MOL0     N29859   1.710   1.622  10.816 -0.7768 -0.4812  0.1177
  217MOL0     N29860   1.640   1.513  10.829  0.5552  0.1678  0.2440
  217MOL0     C29861   0.452   1.390  10.639 -0.5059  0.1802  0.2748
  217MOL0     C29862   0.330   1.428  10.701 -0.4132  0.1873  0.2535
  217MOL0     C29863   0.014   1.473  11.029  0.1232  0.5184 -0.7518
  217MOL0     C29864  -0.001   1.596  10.965  0.0617 -0.4430  0.1844
  217MOL0     C29865  -0.107   1.679  10.997 -0.1701  0.4454 -0.1768
  217MOL0     C29866  -0.196   1.643  11.095 -0.4274  0.3832 -1.0575
  217MOL0     O29867  -0.294   1.736  11.123 -0.2012  0.0422  0.2972
  217MOL0     C29868  -0.390   1.689  11.216  0.8410 -0.7332  0.1098
  217MOL0     C29869  -0.510   1.784  11.231  0.8172 -0.9258 -0.9201
  217MOL0     C29870  -0.608   1.708  11.324  0.6613 -0.0153  0.0576
  217MOL0     C29871  -0.752   1.765  11.324 -0.0232  0.8759 -0.1245
  217MOL0     C29872  -0.771   1.907  11.338 -0.3159  0.3832 -0.2426
  217MOL0     C29873  -0.770   2.024  11.334 -0.3919  0.1705  0.0706
  217MOL0     C29874  -0.187   1.514  11.150  0.4653 -0.0241  0.4735
  217MOL0     C29875  -0.085   1.425  11.114  0.1278 -0.3325  0.3383
  217MOL0     C29876  -0.084   1.281  11.166 -0.2484  1.3406 -0.5402
  217MOL0     H29877   0.274   1.152  10.887  2.3830 -3.6344 -2.5775
  217MOL0     H29878   0.504   1.094  10.793 -1.4280 -0.2664  0.8825
  217MOL0     H29879   0.722   1.402  10.514  1.7845 -0.5178  1.7438
  217MOL0     H29880   0.648   1.274  10.421  0.0655  0.5461 -1.0914
  217MOL0     H29881   0.841   1.139  10.564 -0.2463  1.5996  2.4357
  217MOL0     H29882   0.846   1.186  10.388 -0.3314  1.6272 -0.8150
  217MOL0     H29883   0.928   1.407  10.458 -0.2119 -0.3593 -0.0269
  217MOL0     H29884   0.942   1.333  10.618  0.6343  0.6448 -0.1236
  217MOL0     H29885   1.073   1.156  10.507 -0.3269  0.5705 -0.5904
  217MOL0     H29886   1.089   1.252  10.360 -1.5699  0.3553 -0.2648
  217MOL0     H29887   1.163   1.371  10.631 -0.6873 -0.3175  0.2977
  217MOL0     H29888   1.202   1.442  10.474 -0.3426 -0.0808  0.1311
  217MOL0     H29889   1.313   1.177  10.585 -1.1694  0.4227  1.2309
  217MOL0     H29890   1.342   1.230  10.428 -0.5567 -1.8326  1.7574
  217MOL0     H29891   1.460   1.441  10.506 -0.6449  3.0249  1.1329
  217MOL0     H29892   1.531   1.294  10.568 -1.1397 -0.6796  0.3622
  217MOL0     H29893   1.340   1.457  10.730 -1.7809 -1.5915 -1.5087
  217MOL0     H29894   1.442   1.324  10.786  3.7594 -0.8981 -0.9524
  217MOL0     H29895   1.475   1.670  10.594  0.5177 -0.3382 -1.9417
  217MOL0     H29896   1.677   1.843  10.546  0.7503 -2.3330 -0.9032
  217MOL0     H29897   1.829   1.813  10.646 -0.5757 -4.4165  0.9182
  217MOL0     H29898   1.735   2.029  10.677  0.0221 -2.0138 -1.9363
  217MOL0     H29899   1.586   1.955  10.743 -0.4178 -3.4624  4.4421
  217MOL0     H29900   1.729   2.059  10.919 -1.1341  1.2687 -2.1061
  217MOL0     H29901   1.710   1.882  10.944 -2.0610  0.3467 -2.1939
  217MOL0     H29902   1.932   1.842  10.908  2.7235  0.2641 -0.7430
  217MOL0     H29903   1.942   1.959  10.773 -1.8252 -0.3917 -0.8307
  217MOL0     H29904   2.109   2.262  10.969 -1.8510 -0.7342 -0.8236
  217MOL0     H29905   2.430   2.331  10.894 -0.1221  0.4245  0.6092
  217MOL0     H29906   2.449   2.297  11.068  1.2566 -0.7317 -0.9823
  217MOL0     H29907   2.309   2.384  11.024  0.2699  0.2434  0.5363
  217MOL0     H29908   2.780   2.008  10.776 -3.2309  1.3776  1.8555
  217MOL0     H29909   3.027   1.999  10.802  1.9245 -1.3692  2.0801
  217MOL0     H29910   3.213   1.921  10.969 -0.0580  0.5487  1.1314
  217MOL0     H29911   3.248   2.037  10.835 -0.2870  1.2545 -0.3595
  217MOL0     H29912   3.371   2.035  11.121 -4.3651  0.0554 -0.5710
  217MOL0     H29913   3.439   1.951  10.971 -2.3760 -2.6517  2.7900
  217MOL0     H29914   3.377   2.249  11.012 -1.1430 -0.7651 -2.2890
  217MOL0     H29915   3.443   2.175  10.870 -2.6313 -1.9072  0.5312
  217MOL0     H29916   3.636   2.093  11.001  0.9041 -0.0571 -1.1340
  217MOL0     H29917   3.580   2.163  11.147  1.5929  0.6602  0.4219
  217MOL0     H29918   3.652   2.304  10.894 -2.5670  0.1564 -0.4138
  217MOL0     H29919   3.615   2.395  11.045  0.2063 -0.5711 -0.5282
  217MOL0     H29920   3.860   2.204  11.015  0.1672  0.1449 -0.4629
  217MOL0     H29921   3.795   2.286  11.163 -2.0913 -0.3204  0.6937
  217MOL0     H29922   3.888   2.427  10.913  3.4956  0.4709  0.1271
  217MOL0     H29923   3.991   2.397  11.048 -0.6813 -1.9925 -0.7403
  217MOL0     H29924   3.754   2.592  11.042 -1.4563 -1.8245 -0.2173
  217MOL0     H29925   3.918   2.629  11.079 -1.7578  1.9326  0.8776
  217MOL0     H29926   2.982   2.261  11.140  0.4606  0.3199 -0.7712
  217MOL0     H29927   2.742   2.286  11.083 -2.8832  0.5566 -2.9933
  217MOL0     H29928   2.340   1.833  10.906 -2.6136 -1.0946 -1.0873
  217MOL0     H29929   2.136   1.826  10.939 -2.5046  0.7388  2.3986
  217MOL0     H29930   0.495   1.453  10.562 -1.5925 -0.1848 -0.6578
  217MOL0     H29931   0.300   1.530  10.680 -0.0749 -0.4022 -3.9329
  217MOL0     H29932   0.064   1.618  10.880 -1.3546 -0.9211 -1.0722
  217MOL0     H29933  -0.123   1.782  10.965  1.8433  0.4900 -1.2010
  217MOL0     H29934  -0.435   1.592  11.193  0.4058 -0.7170  0.8441
  217MOL0     H29935  -0.345   1.676  11.315 -0.8674 -1.3324  0.8496
  217MOL0     H29936  -0.549   1.804  11.131  4.5553 -3.3498 -3.1171
  217MOL0     H29937  -0.483   1.876  11.284 -1.7326 -0.9788  0.6403
  217MOL0     H29938  -0.628   1.607  11.289  0.9786 -0.7539  1.8794
  217MOL0     H29939  -0.573   1.706  11.428  0.7164  1.1491  0.0723
  217MOL0     H29940  -0.802   1.717  11.409  1.3550 -1.4865 -0.5472
  217MOL0     H29941  -0.815   1.731  11.241 -0.2262 -1.5639  0.9374
  217MOL0     H29942  -0.777   2.130  11.325 -0.8801  0.5059  3.2602
  217MOL0     H29943  -0.245   1.484  11.236  1.2727 -2.1236  0.3422
  217MOL0     H29944  -0.171   1.269  11.231 -1.8762  0.9812 -2.6906
  217MOL0     H29945  -0.096   1.211  11.083  1.0388 -0.0189  0.3821
  217MOL0     H29946   0.012   1.268  11.218 -0.7096  1.8858  0.4900
  218MOL0     O29947   4.508   1.413  11.009 -0.4045 -0.1703 -0.2199
  218MOL0     C29948   4.530   1.536  11.036 -0.3359  0.3089  0.8198
  218MOL0     O29949   4.651   1.589  11.067 -0.5041 -0.2397  0.4674
  218MOL0     C29950   4.759   1.503  11.083  0.0907  0.4375  0.1073
  218MOL0     C29951   4.836   1.511  11.205  0.6186 -0.3194 -0.1994
  218MOL0     C29952   4.958   1.435  11.216  0.0535  0.6329  0.3185
  218MOL0     C29953   5.008   1.350  11.111  0.0773 -0.9138  0.0646
  218MOL0     O29954   5.129   1.286  11.115 -0.0898  0.2002  0.1500
  218MOL0     C29955   5.216   1.305  10.998  0.0169 -0.7248  0.9630
  218MOL0     C29956   5.360   1.283  11.032  0.4512 -0.0290 -0.6906
  218MOL0     C29957   5.373   1.151  11.122 -0.0723 -0.0418 -0.9715
  218MOL0     C29958   5.517   1.127  11.175 -0.3516 -0.9653 -0.6014
  218MOL0     C29959   5.551   0.991  11.242 -0.1281 -0.0850  0.2930
  218MOL0     C29960   5.698   0.951  11.205 -0.7019  1.0427 -0.4735
  218MOL0     C29961   5.705   0.799  11.244  0.0809 -0.5736  0.1210
  218MOL0     C29962   5.727   0.780  11.396  0.0303  0.8486 -0.4473
  218MOL0     N29963   5.806   0.656  11.436 -0.0368 -0.6617 -0.6829
  218MOL0     C29964   5.934   0.653  11.407  0.4677 -0.3517  0.1861
  218MOL0     C29965   5.976   0.530  11.442  0.2709  0.5378 -0.0446
  218MOL0     C29966   6.112   0.473  11.408  0.7358  0.1672 -0.2224
  218MOL0     C29967   6.184   0.395  11.518 -0.0110  0.8596 -0.2995
  218MOL0     C29968   6.199   0.477  11.651  0.0303 -0.4390  0.7133
  218MOL0     C29969   6.294   0.602  11.633 -0.7111  0.2803 -0.3977
  218MOL0     O29970   6.425   0.549  11.595  0.9079 -1.1602 -0.7344
  218MOL0     C29971   6.530   0.632  11.549  0.7799 -0.0462  0.0854
  218MOL0     C29972   6.649   0.575  11.504 -0.2223 -0.1548 -0.6600
  218MOL0     C29973   6.749   0.653  11.447 -0.0208 -0.3283  0.5929
  218MOL0     C29974   6.874   0.576  11.408  0.3390 -0.0483  0.1970
  218MOL0     C29975   6.741   0.796  11.446 -0.4482 -0.2426 -0.3716
  218MOL0     C29976   6.847   0.898  11.404 -0.7467 -0.4215 -0.3626
  218MOL0     O29977   6.975   0.843  11.378  0.4965 -0.3990 -0.4200
  218MOL0     C29978   7.069   0.932  11.333  0.2136  0.5537  0.2262
  218MOL0     C29979   7.180   0.955  11.415  0.8694  0.7436  0.4063
  218MOL0     C29980   7.293   1.019  11.370  0.1969 -0.0919  0.3129
  218MOL0     C29981   7.296   1.071  11.241 -0.8030  0.4025 -0.0078
  218MOL0     O29982   7.420   1.126  11.207 -0.5171  0.0698  0.1834
  218MOL0     C29983   7.454   1.164  11.075  0.1545  0.0792  0.4765
  218MOL0     C29984   7.604   1.167  11.053  0.1412 -0.2585  0.6380
  218MOL0     C29985   7.680   1.272  11.134  0.0673 -0.1356  0.0321
  218MOL0     C29986   7.820   1.231  11.163 -0.2363 -0.3263  0.2607
  218MOL0     C29987   7.910   1.211  11.021  0.2825  0.5536 -0.0865
  218MOL0     C29988   8.046   1.175  11.044 -0.1100  0.6863  0.0412
  218MOL0     C29989   8.116   1.276  11.144 -0.0141 -0.8975  0.3540
  218MOL0     C29990   8.275   1.263  11.154  0.2190  0.4126  0.0888
  218MOL0    Cl29991   8.342   1.257  11.325  0.0640 -0.2223 -0.0444
  218MOL0     C29992   7.186   1.057  11.156 -0.2092 -0.3166  0.0197
  218MOL0     C29993   7.071   0.984  11.202 -0.6193  0.9641  0.0688
  218MOL0     O29994   6.805   1.015  11.377  0.3520 -0.2281  0.1944
  218MOL0     C29995   6.614   0.859  11.484  0.0372  0.1320  0.2344
  218MOL0     C29996   6.513   0.774  11.545 -0.5173  0.0026 -0.3540
  218MOL0     N29997   5.874   0.471  11.512  0.6066  1.0319 -0.4723
  218MOL0     N29998   5.766   0.545  11.510 -0.7553 -0.5728  0.2894
  218MOL0     C29999   4.926   1.356  10.996  0.4381  0.1626  0.4524
  218MOL0     C30000   4.812   1.429  10.978  0.5891 -0.1626  0.6751
  218MOL0     C30001   4.409   1.620  11.055  0.8358 -1.0407 -0.6001
  218MOL0     C30002   4.421   1.751  11.115 -0.3002 -0.5417 -0.8578
  218MOL0     C30003   4.311   1.836  11.149 -0.6496  0.4167 -0.0937
  218MOL0     C30004   4.184   1.806  11.089 -1.1412 -0.0147 -0.4934
  218MOL0     O30005   4.073   1.881  11.117 -0.0611 -0.5070  0.4342
  218MOL0     C30006   4.070   2.004  11.186  0.2602  0.2366 -0.6146
  218MOL0     C30007   4.021   1.976  11.330  0.5202 -0.4843 -0.3316
  218MOL0     C30008   4.003   2.118  11.401  1.0678 -0.4034  0.4664
  218MOL0     C30009   3.901   2.106  11.525  0.9140 -0.4561 -0.2567
  218MOL0     C30010   3.766   2.069  11.476  0.6117  0.3844 -0.2109
  218MOL0     C30011   3.651   2.050  11.431  0.2133 -0.1693 -1.1849
  218MOL0     C30012   4.166   1.685  11.026  0.6061 -0.2777 -0.0662
  218MOL0     C30013   4.271   1.593  11.018  0.6872  0.3729 -0.1569
  218MOL0     C30014   4.233   1.468  10.924 -0.8827 -0.0630 -0.3724
  218MOL0     H30015   4.799   1.579  11.281 -1.3446 -1.4798 -0.0490
  218MOL0     H30016   5.020   1.443  11.304  0.0337 -3.7065  0.9550
  218MOL0     H30017   5.207   1.407  10.958  1.0565 -0.8964  0.2474
  218MOL0     H30018   5.185   1.235  10.921  1.2973 -0.3780  0.1058
  218MOL0     H30019   5.425   1.292  10.944  1.3403  0.9857  0.0358
  218MOL0     H30020   5.380   1.367  11.099 -1.9351  0.3463 -0.3589
  218MOL0     H30021   5.311   1.167  11.211  1.2713  1.0820 -0.2016
  218MOL0     H30022   5.344   1.058  11.073 -2.1610 -1.1152  2.0060
  218MOL0     H30023   5.587   1.136  11.092  0.8795 -1.9930  0.2823
  218MOL0     H30024   5.539   1.208  11.245  1.4677 -1.3800 -0.6515
  218MOL0     H30025   5.477   0.921  11.201  2.4056 -0.7722 -3.6227
  218MOL0     H30026   5.539   0.985  11.350  1.1156 -2.0281  0.3704
  218MOL0     H30027   5.727   0.955  11.099 -0.3898  1.7059 -0.3647
  218MOL0     H30028   5.780   1.004  11.255  1.0634  0.3259 -2.4569
  218MOL0     H30029   5.800   0.775  11.195 -0.0489 -0.9103  0.0272
  218MOL0     H30030   5.625   0.738  11.201  2.5073 -2.7759 -1.6466
  218MOL0     H30031   5.774   0.869  11.438 -0.0247  1.6936 -2.0756
  218MOL0     H30032   5.633   0.780  11.452  0.7283  1.9531  0.7788
  218MOL0     H30033   5.999   0.716  11.347  0.9896  0.0120  1.1222
  218MOL0     H30034   6.179   0.553  11.375 -1.4988  1.9868 -0.6449
  218MOL0     H30035   6.097   0.415  11.316 -0.1095 -0.1439  0.0961
  218MOL0     H30036   6.125   0.310  11.555 -0.8950  0.8672 -1.6296
  218MOL0     H30037   6.286   0.376  11.485 -0.2278 -0.0786 -0.4551
  218MOL0     H30038   6.098   0.508  11.677 -0.3117 -1.7637  1.0501
  218MOL0     H30039   6.240   0.416  11.732 -0.2501  0.0788  1.2512
  218MOL0     H30040   6.250   0.668  11.558  0.6894  1.3410 -0.3219
  218MOL0     H30041   6.323   0.644  11.730  1.1647 -1.0965 -0.3065
  218MOL0     H30042   6.665   0.468  11.510  0.9923 -0.0833 -1.9526
  218MOL0     H30043   6.837   0.473  11.408 -1.9056  0.6799 -1.0627
  218MOL0     H30044   6.949   0.574  11.488  0.7142 -0.7562 -0.1667
  218MOL0     H30045   6.918   0.607  11.313 -1.0958  1.3597 -0.0632
  218MOL0     H30046   7.180   0.920  11.518 -2.4075 -1.9589 -0.3586
  218MOL0     H30047   7.372   1.040  11.441 -1.0582  1.6643  1.2764
  218MOL0     H30048   7.408   1.099  10.999 -0.3794 -0.2994  1.1132
  218MOL0     H30049   7.399   1.257  11.057 -2.0380 -1.2623 -0.2279
  218MOL0     H30050   7.635   1.069  11.090 -1.2816 -0.4853  1.3281
  218MOL0     H30051   7.624   1.177  10.946 -1.1292 -0.4663  0.3577
  218MOL0     H30052   7.641   1.289  11.235 -0.3033  0.9214 -0.2737
  218MOL0     H30053   7.681   1.359  11.067 -0.3607 -0.2984 -0.1903
  218MOL0     H30054   7.818   1.139  11.222 -0.5861  0.1525  1.0135
  218MOL0     H30055   7.858   1.308  11.231 -2.9254 -1.3849  3.2468
  218MOL0     H30056   7.864   1.135  10.957 -1.3684  3.0767 -2.0886
  218MOL0     H30057   7.927   1.299  10.958  0.0852 -0.2550 -1.2982
  218MOL0     H30058   8.104   1.156  10.954  0.0810  0.4815  0.2068
  218MOL0     H30059   8.041   1.080  11.098  2.9324  0.7173  0.5130
  218MOL0     H30060   8.071   1.268  11.244 -0.6905  0.4214  0.1750
  218MOL0     H30061   8.090   1.376  11.108 -0.8198 -1.8086 -1.7284
  218MOL0     H30062   8.322   1.336  11.087 -2.1632  1.0283 -1.0093
  218MOL0     H30063   8.301   1.165  11.113 -1.0881 -0.7717  1.9838
  218MOL0     H30064   7.192   1.086  11.052 -0.8895 -0.7516 -0.1516
  218MOL0     H30065   6.984   0.980  11.137 -1.1091 -0.0835  0.7518
  218MOL0     H30066   6.601   0.966  11.495 -1.8171  0.1461 -1.4168
  218MOL0     H30067   6.419   0.817  11.579 -1.0174 -0.0573 -1.6161
  218MOL0     H30068   4.952   1.288  10.916 -0.2414 -1.3361  1.4772
  218MOL0     H30069   4.762   1.416  10.882  1.9614 -1.7365  0.1143
  218MOL0     H30070   4.520   1.775  11.155 -0.9771  0.0180  0.5378
  218MOL0     H30071   4.324   1.922  11.214 -1.2287 -0.8294  1.7577
  218MOL0     H30072   4.158   2.069  11.184  0.5066  0.1299  2.2782
  218MOL0     H30073   4.004   2.078  11.141  0.4528  2.5064  2.5277
  218MOL0     H30074   4.102   1.924  11.383  0.0486  1.1613  2.1816
  218MOL0     H30075   3.933   1.911  11.329 -0.3930  0.6912  0.8232
  218MOL0     H30076   4.097   2.167  11.429 -0.0872  1.4675  1.2505
  218MOL0     H30077   3.952   2.180  11.327  1.5280 -2.4049 -1.6668
  218MOL0     H30078   3.890   2.198  11.583  2.9620 -1.5081  1.9691
  218MOL0     H30079   3.959   2.043  11.592  2.2101  0.4270 -0.5188
  218MOL0     H30080   3.549   2.034  11.403 -0.1581  0.4688 -0.2352
  218MOL0     H30081   4.063   1.660  11.003 -0.1461  1.7786  0.8178
  218MOL0     H30082   4.275   1.491  10.825 -2.1238  1.3161 -0.6253
  218MOL0     H30083   4.273   1.372  10.955  0.3130  0.5481  0.0490
  218MOL0     H30084   4.124   1.466  10.910 -0.7530 -2.5664 -1.5746
  219MOL0     O30085   6.954   7.769   0.667  0.1041  0.2523 -0.8005
  219MOL0     C30086   6.878   7.776   0.761  0.5617  0.2764  0.2054
  219MOL0     O30087   6.920   7.767   0.890  0.5199 -0.0178 -0.9052
  219MOL0     C30088   7.052   7.782   0.912  0.2131  1.0114  0.4347
  219MOL0     C30089   7.089   7.900   0.980 -0.2746 -0.0946  0.2953
  219MOL0     C30090   7.228   7.923   1.011  0.0662 -0.3448 -0.6532
  219MOL0     C30091   7.316   7.827   0.967 -0.4993  0.3134  0.5722
  219MOL0     O30092   7.453   7.838   0.995 -0.1688 -0.0894  0.2074
  219MOL0     C30093   7.526   7.895   0.885 -0.0694  0.3670 -0.1896
  219MOL0     C30094   7.666   7.966   0.918  0.3002 -0.4699  0.2231
  219MOL0     C30095   7.776   7.934   0.813 -0.2331  0.3731 -0.2213
  219MOL0     C30096   7.757   8.010   0.683 -1.4387  0.5874 -0.3447
  219MOL0     C30097   7.859   7.986   0.566  0.0282 -0.0333 -0.2259
  219MOL0     C30098   8.000   8.048   0.603  0.0297  1.0205  0.4059
  219MOL0     C30099   8.115   7.955   0.581 -0.3781  0.0995  0.2315
  219MOL0     C30100   8.243   8.041   0.583  0.2695 -0.4488 -0.9148
  219MOL0     N30101   8.367   7.959   0.554 -0.7374 -0.2247 -0.5839
  219MOL0     C30102   8.441   7.971   0.438  0.1497  0.2883 -0.4232
  219MOL0     C30103   8.541   7.883   0.449 -0.5911  0.6586 -0.3735
  219MOL0     C30104   8.653   7.860   0.350  0.0061 -0.8180  0.1289
  219MOL0     C30105   8.748   7.984   0.344 -0.1592  0.1371 -0.2168
  219MOL0     C30106   8.893   7.948   0.298  1.1354  0.4241 -0.4063
  219MOL0     C30107   8.981   8.063   0.267  0.1617 -0.6860 -0.1991
  219MOL0     O30108   9.071   8.086   0.379  0.0279 -0.1165  0.2735
  219MOL0     C30109   9.177   8.173   0.356  0.2587  0.0977 -0.9245
  219MOL0     C30110   9.267   8.156   0.248  1.2758 -0.2254 -0.4168
  219MOL0     C30111   9.345   8.268   0.209 -0.4041  0.0023 -0.5199
  219MOL0     C30112   9.427   8.253   0.086 -0.7663  0.6653  0.7404
  219MOL0     C30113   9.355   8.382   0.301  0.6506 -0.3775  0.2489
  219MOL0     C30114   9.446   8.495   0.272 -0.4406 -0.2055 -0.0489
  219MOL0     O30115   9.570   8.445   0.231  0.4098  0.1804 -0.5422
  219MOL0     C30116   9.682   8.514   0.193  0.7196  0.3009 -0.5735
  219MOL0     C30117   9.790   8.433   0.142 -0.4183 -0.1699  0.1011
  219MOL0     C30118   9.910   8.496   0.111  0.7388 -0.5695 -0.2797
  219MOL0     C30119   9.931   8.632   0.139 -0.2145  0.2854  0.1158
  219MOL0     O30120  10.057   8.688   0.142 -0.1858 -1.0574  0.5024
  219MOL0     C30121  10.175   8.601   0.130  0.2186  0.1736  0.2274
  219MOL0     C30122  10.304   8.679   0.128 -1.0057  0.4866 -0.4063
  219MOL0     C30123  10.316   8.746  -0.011 -0.0166  0.1725 -0.4253
  219MOL0     C30124  10.207   8.848  -0.053  0.4218 -0.0327  0.1546
  219MOL0     C30125  10.261   8.915  -0.181  0.3104  0.4624  0.0195
  219MOL0     C30126  10.181   9.041  -0.210  1.2246  0.7221 -0.8152
  219MOL0     C30127  10.224   9.101  -0.343  0.9518  0.2487 -0.6859
  219MOL0     C30128  10.117   9.222  -0.361 -0.3772 -0.4513  0.1469
  219MOL0    Cl30129  10.158   9.299  -0.505 -0.7044 -0.0825  0.3173
  219MOL0     C30130   9.824   8.708   0.182 -0.0079  0.4780  0.6752
  219MOL0     C30131   9.702   8.653   0.196 -0.5858 -0.2425  0.3957
  219MOL0     O30132   9.426   8.614   0.295  0.1673 -0.2638  0.9638
  219MOL0     C30133   9.259   8.386   0.408 -0.2600 -0.2246 -0.0758
  219MOL0     C30134   9.167   8.288   0.438  0.3338 -0.7223  0.3243
  219MOL0     N30135   8.540   7.828   0.578  0.7798 -0.6565 -0.0353
  219MOL0     N30136   8.431   7.869   0.631 -0.3182 -0.3381  0.3997
  219MOL0     C30137   7.279   7.709   0.897  0.2692 -0.2910  0.1223
  219MOL0     C30138   7.146   7.685   0.881  0.2137  0.0587  0.5083
  219MOL0     C30139   6.729   7.789   0.744 -0.0634  1.0304 -1.2136
  219MOL0     C30140   6.657   7.793   0.865 -0.3848  0.3769 -0.1305
  219MOL0     C30141   6.516   7.797   0.873  0.5888 -0.7548 -0.3725
  219MOL0     C30142   6.434   7.789   0.762 -0.9094  0.0571  0.0400
  219MOL0     O30143   6.297   7.775   0.759  0.4359  0.8022 -0.3167
  219MOL0     C30144   6.268   7.637   0.788  0.0918 -0.8883 -0.5591
  219MOL0     C30145   6.115   7.618   0.784 -0.1693 -0.9149  0.2469
  219MOL0     C30146   6.057   7.596   0.642  0.1030 -0.2768  0.1617
  219MOL0     C30147   5.906   7.615   0.644  0.3253  0.0058  0.1781
  219MOL0     C30148   5.852   7.645   0.513 -0.2880 -0.4918  0.1790
  219MOL0     C30149   5.814   7.676   0.398 -0.3885  0.5333  0.1983
  219MOL0     C30150   6.505   7.773   0.642 -0.1900 -0.4598 -0.1616
  219MOL0     C30151   6.653   7.785   0.625  0.2013  0.0153  0.1755
  219MOL0     C30152   6.722   7.795   0.486 -0.9052  0.2544 -0.5761
  219MOL0     H30153   7.009   7.973   0.994 -1.0785 -0.7424 -0.7584
  219MOL0     H30154   7.261   8.014   1.059 -3.0839  1.1265 -0.9974
  219MOL0     H30155   7.460   7.969   0.838  0.0162  0.1172 -0.7129
  219MOL0     H30156   7.545   7.811   0.818 -1.0325  0.3617 -0.4745
  219MOL0     H30157   7.668   8.075   0.933  3.6886 -0.0331 -2.2889
  219MOL0     H30158   7.686   7.925   1.018 -1.2238 -4.6413 -0.9953
  219MOL0     H30159   7.873   7.962   0.855 -0.2841  1.7226 -0.9522
  219MOL0     H30160   7.767   7.827   0.790 -0.7554  0.6328 -1.3208
  219MOL0     H30161   7.660   7.990   0.637 -1.6071 -0.1361  0.3108
  219MOL0     H30162   7.762   8.117   0.705 -0.4935  0.7305 -1.1825
  219MOL0     H30163   7.825   8.044   0.480 -0.3656  1.7275  1.0674
  219MOL0     H30164   7.870   7.881   0.537  3.9935 -0.0039  0.6363
  219MOL0     H30165   8.035   8.128   0.538 -0.5624  1.2401  0.3469
  219MOL0     H30166   7.998   8.087   0.706 -0.7955  1.5777  0.1895
  219MOL0     H30167   8.097   7.920   0.479  1.1530  1.7592 -0.6756
  219MOL0     H30168   8.122   7.869   0.647  3.6771 -2.6252 -3.1775
  219MOL0     H30169   8.234   8.122   0.509 -1.0842  2.0709  1.8005
  219MOL0     H30170   8.247   8.094   0.679 -4.4398  3.2241 -2.3303
  219MOL0     H30171   8.422   8.024   0.345  0.4078 -1.9996 -1.8625
  219MOL0     H30172   8.612   7.830   0.253 -0.3666  1.1945 -0.3664
  219MOL0     H30173   8.707   7.771   0.384  0.0159 -1.5950 -1.7796
  219MOL0     H30174   8.715   8.061   0.274  0.0963 -1.4740 -2.2040
  219MOL0     H30175   8.763   8.037   0.439  0.6750 -0.7643  0.1685
  219MOL0     H30176   8.931   7.890   0.384  0.1954 -0.9059 -0.8541
  219MOL0     H30177   8.883   7.882   0.212  1.2170  1.8085 -1.5029
  219MOL0     H30178   9.034   8.038   0.174  0.1106  0.8350 -0.6617
  219MOL0     H30179   8.929   8.155   0.240  0.3687 -0.3339  0.5930
  219MOL0     H30180   9.260   8.065   0.190 -0.6602 -0.4640  0.1193
  219MOL0     H30181   9.534   8.239   0.105 -0.6837 -1.6270 -1.0201
  219MOL0     H30182   9.411   8.342   0.025  1.0181  0.1279 -0.6024
  219MOL0     H30183   9.393   8.161   0.038  2.1559 -0.5748  0.8501
  219MOL0     H30184   9.770   8.328   0.124  0.2424 -0.2789 -0.0118
  219MOL0     H30185   9.991   8.438   0.068  1.7422  0.7204 -0.2070
  219MOL0     H30186  10.182   8.528   0.211 -1.4839 -2.2605 -1.6688
  219MOL0     H30187  10.175   8.534   0.044  0.0291 -0.2988  0.5869
  219MOL0     H30188  10.297   8.742   0.217 -1.6660 -1.5044  1.0368
  219MOL0     H30189  10.379   8.600   0.140 -0.7743  0.7738  0.0778
  219MOL0     H30190  10.328   8.669  -0.087 -1.2018  2.2033 -2.8165
  219MOL0     H30191  10.410   8.801   0.002  1.6409 -2.8778  2.1373
  219MOL0     H30192  10.192   8.916   0.032 -1.4421  0.2276 -0.3449
  219MOL0     H30193  10.111   8.801  -0.073  0.4067 -0.5239  1.3098
  219MOL0     H30194  10.362   8.954  -0.165  0.8841 -1.1351  0.4735
  219MOL0     H30195  10.264   8.841  -0.262 -1.6908  1.4363 -1.0112
  219MOL0     H30196  10.205   9.115  -0.133  0.4261  0.4819 -0.3235
  219MOL0     H30197  10.076   9.012  -0.210  1.6999 -1.1516 -0.6883
  219MOL0     H30198  10.208   9.028  -0.422  1.8183 -1.2546  0.4764
  219MOL0     H30199  10.325   9.143  -0.337  0.9315  0.0842  1.8057
  219MOL0     H30200  10.141   9.286  -0.276 -0.0078 -0.8744  0.3658
  219MOL0     H30201  10.018   9.176  -0.364  0.6624 -2.8425 -1.6327
  219MOL0     H30202   9.840   8.815   0.192 -3.8322  1.3264 -0.4754
  219MOL0     H30203   9.622   8.714   0.237 -3.6024 -2.8697 -1.1408
  219MOL0     H30204   9.271   8.476   0.469 -0.3878  0.0805 -0.4945
  219MOL0     H30205   9.092   8.305   0.515  0.5070 -0.0204  0.3460
  219MOL0     H30206   7.352   7.640   0.856  0.6665  0.6488 -0.8025
  219MOL0     H30207   7.120   7.589   0.837  0.3628  0.4591 -0.4922
  219MOL0     H30208   6.698   7.799   0.965 -0.3255 -0.5826 -0.0893
  219MOL0     H30209   6.478   7.813   0.973  2.5431  2.6382  0.0078
  219MOL0     H30210   6.323   7.577   0.715  1.7189 -0.8782  0.6059
  219MOL0     H30211   6.297   7.605   0.888  1.4397  0.4426 -0.4831
  219MOL0     H30212   6.061   7.696   0.837  1.5651  0.4718  0.0879
  219MOL0     H30213   6.106   7.536   0.855 -1.0656  0.0660  1.2915
  219MOL0     H30214   6.115   7.659   0.574 -2.3197 -0.7860 -2.5792
  219MOL0     H30215   6.073   7.492   0.613 -2.7650 -0.7035 -0.2355
  219MOL0     H30216   5.867   7.694   0.709  1.8656  2.3268 -1.5688
  219MOL0     H30217   5.861   7.522   0.680 -1.8902  0.5703 -0.9301
  219MOL0     H30218   5.786   7.706   0.300  1.2816  0.2099 -0.4239
  219MOL0     H30219   6.444   7.749   0.556 -0.5581 -1.3650  0.3382
  219MOL0     H30220   6.759   7.898   0.490 -1.7802  0.6098  3.6988
  219MOL0     H30221   6.803   7.725   0.463 -0.8131 -0.1611  0.8948
  219MOL0     H30222   6.647   7.785   0.408  0.1832 -3.6614 -1.3154
  220MOL0     O30223   4.165   6.351   1.204  0.1045  0.5410  0.7063
  220MOL0     C30224   4.156   6.325   1.084 -0.4548 -0.9943 -0.8193
  220MOL0     O30225   4.263   6.330   0.999  0.6967  0.3456 -0.3226
  220MOL0     C30226   4.393   6.330   1.040 -0.2514 -0.2693 -0.1178
  220MOL0     C30227   4.442   6.265   1.147 -0.0828  0.0631 -1.0283
  220MOL0     C30228   4.572   6.282   1.193  0.2073 -0.1356  0.2844
  220MOL0     C30229   4.660   6.372   1.129  0.4474  0.7752  0.6755
  220MOL0     O30230   4.784   6.415   1.167  0.4407 -0.5729 -0.2408
  220MOL0     C30231   4.879   6.312   1.202  0.9368 -1.0569 -0.4455
  220MOL0     C30232   4.869   6.283   1.357  0.2799 -0.0443  0.6230
  220MOL0     C30233   4.910   6.397   1.441 -0.8289 -0.2959 -0.0130
  220MOL0     C30234   4.928   6.357   1.587  0.2601  0.1236 -0.3213
  220MOL0     C30235   5.079   6.365   1.636 -0.3968  0.2420 -0.2273
  220MOL0     C30236   5.160   6.250   1.578  0.4274 -0.4379  0.3966
  220MOL0     C30237   5.301   6.236   1.654 -0.6056  0.0900  0.1700
  220MOL0     C30238   5.296   6.187   1.798  0.2001 -0.1779  0.4186
  220MOL0     N30239   5.429   6.187   1.856 -0.0970  0.5090  0.3900
  220MOL0     C30240   5.504   6.287   1.911  0.9468 -0.2064 -0.2813
  220MOL0     C30241   5.631   6.236   1.947  0.0876 -0.8186 -0.0216
  220MOL0     C30242   5.755   6.297   1.997 -0.1586 -0.0981  0.3531
  220MOL0     C30243   5.753   6.343   2.144  0.0430 -0.0167 -0.1060
  220MOL0     C30244   5.740   6.221   2.237  0.2773 -0.3309 -0.8911
  220MOL0     C30245   5.732   6.274   2.385  0.3452 -0.0047  0.8290
  220MOL0     O30246   5.722   6.170   2.475  0.2045  0.4809 -0.2507
  220MOL0     C30247   5.840   6.116   2.514 -0.1572 -0.5758 -0.0707
  220MOL0     C30248   5.857   5.976   2.501 -0.1087  0.6890 -0.4367
  220MOL0     C30249   5.959   5.903   2.562  0.0093  0.3388  0.2980
  220MOL0     C30250   5.960   5.754   2.531 -0.0810  0.3873  0.1381
  220MOL0     C30251   6.054   5.977   2.642 -0.4514 -0.0851 -0.1695
  220MOL0     C30252   6.166   5.914   2.717 -0.5106  0.3569 -1.0106
  220MOL0     O30253   6.243   5.993   2.807  0.3228 -0.3797  0.2291
  220MOL0     C30254   6.366   5.952   2.840  0.4508 -0.1860 -0.8294
  220MOL0     C30255   6.388   5.870   2.956  0.1418  0.1701  0.1562
  220MOL0     C30256   6.511   5.822   3.001 -0.3281  0.5342  1.1940
  220MOL0     C30257   6.624   5.855   2.920  0.1739  0.6224  0.3146
  220MOL0     O30258   6.739   5.814   2.971 -0.6251 -0.0821 -0.3843
  220MOL0     C30259   6.849   5.893   2.949 -0.1069  0.2734  0.4558
  220MOL0     C30260   6.975   5.830   3.011  0.7227 -0.1586 -0.5198
  220MOL0     C30261   7.011   5.709   2.925  1.1068  0.0923 -0.0043
  220MOL0     C30262   7.145   5.651   2.955 -0.6244  0.5995  0.3384
  220MOL0     C30263   7.197   5.552   2.850  0.1448 -0.3554  0.1746
  220MOL0     C30264   7.334   5.489   2.885 -0.9217 -0.2369  0.6467
  220MOL0     C30265   7.374   5.369   2.803  0.8276  0.2650 -0.0162
  220MOL0     C30266   7.392   5.411   2.653  1.0244  0.0577  0.1114
  220MOL0    Cl30267   7.432   5.265   2.553 -0.0597 -0.2617  0.6311
  220MOL0     C30268   6.604   5.938   2.807  0.4592 -0.2194  0.1902
  220MOL0     C30269   6.478   5.986   2.771 -0.7156  0.7461 -0.7131
  220MOL0     O30270   6.181   5.799   2.698 -0.6981  0.0531 -0.7071
  220MOL0     C30271   6.041   6.117   2.654  0.5681  0.1050 -0.0867
  220MOL0     C30272   5.933   6.179   2.592  0.4219 -0.4914 -0.0161
  220MOL0     N30273   5.633   6.106   1.910  0.1880  0.3294  0.4463
  220MOL0     N30274   5.514   6.082   1.858  0.4146 -0.3804 -0.0359
  220MOL0     C30275   4.609   6.438   1.017 -0.4089 -0.8235  1.0161
  220MOL0     C30276   4.481   6.413   0.969  0.1642  0.1188  0.1080
  220MOL0     C30277   4.019   6.295   1.037 -0.2856 -0.2701  0.4302
  220MOL0     C30278   3.904   6.351   1.092  0.9184  0.3977 -0.5008
  220MOL0     C30279   3.772   6.331   1.048 -0.8614 -0.7146  0.2095
  220MOL0     C30280   3.752   6.252   0.938 -0.6738 -0.2077  1.0615
  220MOL0     O30281   3.626   6.238   0.895  0.3659  0.7821 -0.7459
  220MOL0     C30282   3.612   6.094   0.860  0.7305 -0.0342  0.6092
  220MOL0     C30283   3.464   6.070   0.840 -0.1958  1.0733  0.5232
  220MOL0     C30284   3.392   6.060   0.979  0.7102 -0.9744  0.2511
  220MOL0     C30285   3.417   5.920   1.028  0.1369 -0.1824 -0.6183
  220MOL0     C30286   3.377   5.925   1.169 -0.0338 -0.5270  0.0486
  220MOL0     C30287   3.342   5.940   1.283  0.0505 -0.2941 -0.0243
  220MOL0     C30288   3.869   6.204   0.864  0.4582 -0.3292 -1.5709
  220MOL0     C30289   3.993   6.211   0.929 -0.4886  0.0305  0.7200
  220MOL0     C30290   4.109   6.126   0.857 -0.5045 -0.0936 -0.3276
  220MOL0     H30291   4.381   6.192   1.199 -0.5432  1.0986 -0.0714
  220MOL0     H30292   4.599   6.222   1.279  1.1072  1.6540  1.3044
  220MOL0     H30293   4.979   6.352   1.182 -0.1531  1.6781 -0.8689
  220MOL0     H30294   4.872   6.216   1.150  0.0793 -0.5345 -1.3334
  220MOL0     H30295   4.777   6.245   1.404  0.7191 -2.1612 -0.1126
  220MOL0     H30296   4.936   6.198   1.371  1.0459  0.6522  1.2668
  220MOL0     H30297   4.996   6.439   1.388 -0.6396 -0.5834  0.0661
  220MOL0     H30298   4.832   6.473   1.440  0.0217  0.5928 -0.4058
  220MOL0     H30299   4.876   6.436   1.642  1.0821  0.8696 -0.5813
  220MOL0     H30300   4.879   6.262   1.611 -2.2495  1.4733  0.2504
  220MOL0     H30301   5.061   6.358   1.743  0.0153 -1.0399 -0.2328
  220MOL0     H30302   5.116   6.463   1.602 -0.7805  0.4493 -0.0559
  220MOL0     H30303   5.107   6.155   1.591 -0.5541  0.2935  2.0619
  220MOL0     H30304   5.186   6.262   1.473  1.9443 -0.1905  0.7809
  220MOL0     H30305   5.356   6.329   1.643  0.3737 -0.3855  0.9466
  220MOL0     H30306   5.355   6.157   1.601  2.4411  1.1313  1.5083
  220MOL0     H30307   5.237   6.251   1.864 -2.1718  0.6611 -2.3164
  220MOL0     H30308   5.262   6.084   1.815  2.8223 -1.0723  0.7115
  220MOL0     H30309   5.471   6.390   1.916  0.6460 -0.2858 -0.5762
  220MOL0     H30310   5.788   6.378   1.932 -0.9866  1.9725  2.3746
  220MOL0     H30311   5.836   6.223   1.996  2.4759  2.5345  1.9603
  220MOL0     H30312   5.850   6.390   2.160 -1.6228  3.4693  0.7366
  220MOL0     H30313   5.678   6.420   2.165 -0.5622 -0.1542 -1.6080
  220MOL0     H30314   5.659   6.152   2.210  0.3456  0.2875 -2.8427
  220MOL0     H30315   5.829   6.157   2.236  1.2981  1.0010 -2.8146
  220MOL0     H30316   5.816   6.338   2.413 -0.9430  2.4504 -0.5336
  220MOL0     H30317   5.652   6.348   2.395  1.1855  1.1852 -0.7589
  220MOL0     H30318   5.772   5.928   2.453  0.5816  0.8694 -1.8840
  220MOL0     H30319   5.895   5.739   2.445 -0.3184 -0.8922  0.5139
  220MOL0     H30320   5.917   5.702   2.618 -0.3721 -2.2177 -1.4627
  220MOL0     H30321   6.060   5.714   2.508 -1.2691 -1.8179 -1.5640
  220MOL0     H30322   6.302   5.843   3.018 -0.6208  1.1520 -0.4336
  220MOL0     H30323   6.536   5.763   3.088  1.3984 -0.9516 -0.2275
  220MOL0     H30324   6.858   5.901   2.840  1.4865 -3.8403  0.1125
  220MOL0     H30325   6.848   5.993   2.994  0.7786  0.5854 -0.1792
  220MOL0     H30326   7.049   5.910   3.006  0.7168 -0.1183  0.0252
  220MOL0     H30327   6.962   5.809   3.117  1.4151 -0.4900 -0.4982
  220MOL0     H30328   7.008   5.754   2.825  0.7300  1.4136  0.5733
  220MOL0     H30329   6.940   5.628   2.943  2.0680 -1.2451 -1.9514
  220MOL0     H30330   7.135   5.605   3.054 -0.3377  0.6745  0.4033
  220MOL0     H30331   7.217   5.728   2.982 -1.0738  0.5799  1.6595
  220MOL0     H30332   7.127   5.470   2.835  0.8403 -0.9329  0.0369
  220MOL0     H30333   7.210   5.609   2.758 -0.6440 -1.2892 -0.5310
  220MOL0     H30334   7.321   5.463   2.991 -2.2366  0.6287  0.7083
  220MOL0     H30335   7.408   5.569   2.895  1.3823 -2.2251  0.7228
  220MOL0     H30336   7.293   5.298   2.821  3.0105 -1.5540  4.2389
  220MOL0     H30337   7.466   5.322   2.838  2.0349  1.5661 -1.3092
  220MOL0     H30338   7.466   5.490   2.636  0.1468  0.8706 -0.0455
  220MOL0     H30339   7.298   5.455   2.618 -0.0232 -0.9266  1.5668
  220MOL0     H30340   6.685   5.963   2.739  0.3143  0.7208  0.3519
  220MOL0     H30341   6.467   6.051   2.685  1.7514  3.3940  0.7856
  220MOL0     H30342   6.122   6.167   2.707  1.0781  0.2916 -1.0021
  220MOL0     H30343   5.917   6.285   2.607  0.2524 -0.6916  1.3553
  220MOL0     H30344   4.662   6.519   0.968  1.9843 -1.2304  2.7709
  220MOL0     H30345   4.436   6.462   0.884  1.1671  0.6280 -0.1485
  220MOL0     H30346   3.916   6.422   1.173 -1.5316  0.3972 -0.0417
  220MOL0     H30347   3.686   6.369   1.102  0.9850  2.2900  1.2699
  220MOL0     H30348   3.665   6.075   0.767 -2.4802 -4.2225 -0.6740
  220MOL0     H30349   3.653   6.028   0.937 -0.6816 -0.1036  1.3335
  220MOL0     H30350   3.449   5.979   0.780 -4.8219  1.2673  0.9967
  220MOL0     H30351   3.409   6.147   0.785 -2.0407 -1.5356 -1.5746
  220MOL0     H30352   3.422   6.138   1.049 -1.6492  0.3563 -0.0986
  220MOL0     H30353   3.284   6.070   0.967  0.7384 -0.2970  0.5519
  220MOL0     H30354   3.519   5.885   1.012 -0.2766 -1.2015 -1.1760
  220MOL0     H30355   3.346   5.851   0.981 -2.2334  2.6715 -1.4842
  220MOL0     H30356   3.306   5.930   1.384 -3.0921  0.3821 -0.9684
  220MOL0     H30357   3.863   6.154   0.768  1.4627 -1.0051 -1.2976
  220MOL0     H30358   4.063   6.038   0.811 -0.8839 -0.3834  0.5679
  220MOL0     H30359   4.155   6.192   0.783  0.8456 -0.5074  0.1102
  220MOL0     H30360   4.189   6.085   0.920 -1.0660 -2.0093 -0.8070
  221MOL0     O30361   5.163   3.612   1.861 -0.3053  0.0616  0.0561
  221MOL0     C30362   5.144   3.550   1.967  0.8400 -0.5840 -1.0099
  221MOL0     O30363   5.232   3.485   2.044 -0.4445  0.1097  0.1520
  221MOL0     C30364   5.366   3.513   2.014 -0.2215 -0.4194  0.5002
  221MOL0     C30365   5.416   3.646   2.003  0.3049 -0.2377 -0.7629
  221MOL0     C30366   5.556   3.671   1.991 -0.5796  0.3411 -0.2811
  221MOL0     C30367   5.641   3.558   1.985 -0.4559 -0.5693 -0.2839
  221MOL0     O30368   5.773   3.565   1.953  0.1801  0.7233 -0.1882
  221MOL0     C30369   5.834   3.690   1.931 -0.5435  0.0110  1.0215
  221MOL0     C30370   5.986   3.685   1.906 -0.2904 -1.1116 -0.7854
  221MOL0     C30371   6.009   3.580   1.801 -0.2135  0.3382  0.5129
  221MOL0     C30372   5.952   3.603   1.664 -0.2018  0.1614  0.4278
  221MOL0     C30373   6.000   3.487   1.566  0.0932 -0.1022  0.0780
  221MOL0     C30374   5.945   3.497   1.425 -0.0013 -0.7886  0.6210
  221MOL0     C30375   5.955   3.362   1.343  0.2896 -0.3872 -0.4390
  221MOL0     C30376   5.924   3.376   1.194 -0.7819  0.1666 -0.1798
  221MOL0     N30377   5.980   3.250   1.141  0.2902 -0.5313 -0.1143
  221MOL0     C30378   5.918   3.127   1.145 -0.1707 -0.2080 -0.7131
  221MOL0     C30379   6.028   3.045   1.124  0.1671 -0.4546  0.4452
  221MOL0     C30380   6.032   2.896   1.117 -0.5998 -0.7017 -0.3280
  221MOL0     C30381   6.077   2.827   1.249 -0.0702 -0.1779  0.3651
  221MOL0     C30382   5.982   2.832   1.364  0.0300  0.7120 -0.1997
  221MOL0     C30383   5.853   2.754   1.347 -0.0294  0.0732  0.2639
  221MOL0     O30384   5.881   2.614   1.345  0.6458 -0.4242 -0.5172
  221MOL0     C30385   5.775   2.537   1.377  1.6208  0.7729 -0.7458
  221MOL0     C30386   5.645   2.588   1.394 -0.5790  0.2232  0.0390
  221MOL0     C30387   5.542   2.511   1.441 -0.1408  0.4204 -0.2782
  221MOL0     C30388   5.411   2.574   1.475 -0.5222  0.3365  0.9867
  221MOL0     C30389   5.563   2.372   1.470 -0.1480 -0.6868  0.5645
  221MOL0     C30390   5.460   2.278   1.515 -0.9405  0.6774  0.3409
  221MOL0     O30391   5.332   2.311   1.489 -0.2915 -0.4488  0.0403
  221MOL0     C30392   5.235   2.223   1.509  0.4224  1.1527 -0.7952
  221MOL0     C30393   5.153   2.175   1.400 -0.5308 -0.7997 -0.5047
  221MOL0     C30394   5.038   2.091   1.415 -0.0596  0.8063  0.3318
  221MOL0     C30395   5.001   2.052   1.543 -0.0455  0.0158 -0.2841
  221MOL0     O30396   4.895   1.969   1.574 -0.3687 -0.0883 -0.4531
  221MOL0     C30397   4.925   1.832   1.541 -0.3235 -0.1063 -0.5888
  221MOL0     C30398   4.813   1.739   1.598 -0.4572  0.1024  0.1837
  221MOL0     C30399   4.803   1.729   1.749  0.5883 -0.4105  0.6690
  221MOL0     C30400   4.738   1.599   1.803 -0.1342 -0.0772 -0.2089
  221MOL0     C30401   4.586   1.603   1.794 -0.2380 -0.0348  0.2565
  221MOL0     C30402   4.540   1.462   1.815 -0.0991  1.0008 -1.1116
  221MOL0     C30403   4.392   1.445   1.807 -0.4486  0.5830 -0.4592
  221MOL0     C30404   4.355   1.297   1.823  0.6837  0.3885  0.0438
  221MOL0    Cl30405   4.189   1.296   1.887  0.5323 -0.0494  0.1643
  221MOL0     C30406   5.076   2.106   1.656  0.2610  0.0239 -0.0769
  221MOL0     C30407   5.188   2.191   1.640  0.2321  0.5261  0.4518
  221MOL0     O30408   5.496   2.164   1.549 -0.0866  0.2690 -0.2053
  221MOL0     C30409   5.687   2.318   1.439 -0.5286 -0.1425  1.4845
  221MOL0     C30410   5.787   2.397   1.386 -0.2917  0.3566 -0.7689
  221MOL0     N30411   6.131   3.119   1.080 -0.1009 -1.2835  0.4570
  221MOL0     N30412   6.108   3.240   1.096 -0.3410  0.4509 -0.4913
  221MOL0     C30413   5.591   3.428   1.984  1.1094  0.1473  0.0512
  221MOL0     C30414   5.459   3.409   2.007  0.4469 -1.1302 -0.0915
  221MOL0     C30415   5.002   3.537   2.014 -0.0352  0.5123 -0.7673
  221MOL0     C30416   4.930   3.652   2.011  0.5027  0.2789  0.3113
  221MOL0     C30417   4.796   3.662   2.068 -0.5439  0.8285 -0.3848
  221MOL0     C30418   4.736   3.547   2.125  1.4863  0.2399 -0.8038
  221MOL0     O30419   4.614   3.536   2.191 -0.2677  0.8444 -0.0116
  221MOL0     C30420   4.549   3.659   2.242 -0.6686  0.9181  0.1346
  221MOL0     C30421   4.404   3.616   2.271 -0.5822 -0.6266  0.3912
  221MOL0     C30422   4.331   3.721   2.343 -0.5540 -0.5227 -0.5741
  221MOL0     C30423   4.184   3.686   2.369 -0.1337 -0.5845 -0.6115
  221MOL0     C30424   4.106   3.808   2.380  0.4537  0.7006  0.6577
  221MOL0     C30425   4.048   3.912   2.397  0.7067  0.6236  0.0736
  221MOL0     C30426   4.815   3.428   2.126  0.7423 -0.2977 -0.9865
  221MOL0     C30427   4.946   3.417   2.068  0.2219  0.7657  0.0394
  221MOL0     C30428   5.027   3.298   2.093  0.4281  1.3402 -0.0668
  221MOL0     H30429   5.353   3.733   2.019  1.3866  0.1593  1.8920
  221MOL0     H30430   5.584   3.775   1.995  0.8893 -0.0072 -0.9882
  221MOL0     H30431   5.831   3.754   2.020  0.4312  2.0269 -0.3095
  221MOL0     H30432   5.772   3.747   1.861 -0.6694  1.6651  2.4029
  221MOL0     H30433   6.024   3.782   1.874 -0.5099 -0.8232 -0.1688
  221MOL0     H30434   6.033   3.659   2.001  1.2647 -0.8924 -1.4637
  221MOL0     H30435   6.116   3.573   1.779 -0.3776  0.2637 -0.2751
  221MOL0     H30436   5.983   3.480   1.838 -0.7761 -0.3489 -1.6087
  221MOL0     H30437   5.842   3.599   1.667 -0.1951 -0.3709  0.0348
  221MOL0     H30438   5.984   3.696   1.617 -0.5318  0.9556  1.7382
  221MOL0     H30439   5.959   3.391   1.600 -0.3294  0.3155  0.7633
  221MOL0     H30440   6.108   3.471   1.558  0.0979 -0.0327  0.0021
  221MOL0     H30441   5.837   3.511   1.431 -0.4574 -3.5460  0.3669
  221MOL0     H30442   5.995   3.572   1.362 -1.5700 -0.3158 -0.1034
  221MOL0     H30443   5.890   3.285   1.388  1.3503 -1.2992 -0.4153
  221MOL0     H30444   6.060   3.333   1.344  1.2694  2.8278  0.5063
  221MOL0     H30445   5.822   3.406   1.171 -1.1243  0.5992  1.7504
  221MOL0     H30446   5.977   3.466   1.161 -0.3995 -0.0807 -0.2546
  221MOL0     H30447   5.817   3.100   1.175  0.3405 -0.8068  0.5409
  221MOL0     H30448   6.119   2.877   1.055  0.7740 -1.1697  1.6613
  221MOL0     H30449   5.941   2.857   1.069 -0.1110 -0.0070 -1.8676
  221MOL0     H30450   6.087   2.722   1.223 -1.0042 -0.3799  0.7926
  221MOL0     H30451   6.166   2.879   1.285 -0.7444 -0.7979  3.1200
  221MOL0     H30452   6.033   2.786   1.449  2.9434  1.2553 -1.5175
  221MOL0     H30453   5.953   2.934   1.391 -1.5885  0.3198 -0.3370
  221MOL0     H30454   5.796   2.789   1.433  1.8606 -0.1963  1.6928
  221MOL0     H30455   5.817   2.773   1.246  1.9766  2.4937 -0.1011
  221MOL0     H30456   5.620   2.691   1.372  0.6820  0.3307 -1.0441
  221MOL0     H30457   5.375   2.547   1.574  1.1144 -1.6880  1.1015
  221MOL0     H30458   5.337   2.555   1.396 -2.6072  1.5212  2.5626
  221MOL0     H30459   5.424   2.682   1.481  0.0204  0.3663 -0.3135
  221MOL0     H30460   5.160   2.214   1.299 -4.3189 -0.9231 -0.9622
  221MOL0     H30461   4.981   2.076   1.324 -0.9006 -1.1905  1.1329
  221MOL0     H30462   4.937   1.824   1.433  0.2424  1.2971 -0.6468
  221MOL0     H30463   5.019   1.800   1.587 -0.6996 -0.8558 -0.3101
  221MOL0     H30464   4.714   1.758   1.555 -0.0746  0.7854 -0.4109
  221MOL0     H30465   4.850   1.644   1.558  0.1491  0.7204 -0.7472
  221MOL0     H30466   4.741   1.808   1.792 -3.3346 -2.7395 -0.2094
  221MOL0     H30467   4.903   1.723   1.792 -0.3039 -0.8321  2.7816
  221MOL0     H30468   4.760   1.589   1.910  0.0573  1.6907 -0.0457
  221MOL0     H30469   4.777   1.512   1.750  1.4428 -0.7311  1.9062
  221MOL0     H30470   4.547   1.667   1.874 -0.3571  2.1865 -1.4852
  221MOL0     H30471   4.556   1.639   1.695  4.6668  5.0207  0.1186
  221MOL0     H30472   4.576   1.428   1.912  1.9086  1.1909 -1.7418
  221MOL0     H30473   4.592   1.405   1.737 -0.1083 -2.9050  1.4600
  221MOL0     H30474   4.356   1.481   1.710  1.1332  1.2782 -0.8064
  221MOL0     H30475   4.355   1.503   1.892 -1.7481 -0.8781  0.0325
  221MOL0     H30476   4.416   1.236   1.891 -0.4421 -1.1832 -0.2801
  221MOL0     H30477   4.370   1.255   1.723  1.9060  2.6027 -0.7477
  221MOL0     H30478   5.051   2.091   1.761 -0.0795 -0.2335 -0.1949
  221MOL0     H30479   5.242   2.231   1.726  0.1451  3.2645 -0.6705
  221MOL0     H30480   5.707   2.211   1.443  1.0379  0.1483  2.0779
  221MOL0     H30481   5.890   2.369   1.369  0.4666 -0.2854  3.6963
  221MOL0     H30482   5.662   3.346   1.974 -0.3233 -0.8615 -3.0504
  221MOL0     H30483   5.409   3.315   2.027 -3.9142  0.9837  0.1968
  221MOL0     H30484   4.978   3.744   1.980 -1.5935  1.1464 -0.5703
  221MOL0     H30485   4.743   3.756   2.073 -1.4239  0.3159  0.3496
  221MOL0     H30486   4.604   3.702   2.327 -2.2181  1.2081  1.0367
  221MOL0     H30487   4.556   3.728   2.158  1.7867 -0.2172 -0.6693
  221MOL0     H30488   4.409   3.525   2.331  1.1579 -1.9405 -1.6165
  221MOL0     H30489   4.354   3.602   2.175  0.0708  0.7822 -0.1837
  221MOL0     H30490   4.370   3.733   2.445 -3.9189  1.8406  0.6157
  221MOL0     H30491   4.335   3.820   2.298 -3.7941 -1.1387 -2.5556
  221MOL0     H30492   4.187   3.619   2.455 -0.0229  0.3862  0.1687
  221MOL0     H30493   4.138   3.639   2.282  1.4390 -1.2233 -1.1407
  221MOL0     H30494   3.993   4.003   2.412 -0.0332  0.1846  0.0943
  221MOL0     H30495   4.773   3.353   2.192  1.2259  1.8286  1.9481
  221MOL0     H30496   5.092   3.321   2.179  1.1374 -3.1171  0.8395
  221MOL0     H30497   4.957   3.216   2.111  1.1690  0.1644 -2.2382
  221MOL0     H30498   5.086   3.268   2.007 -1.6790 -1.3114 -0.7039
  222MOL0     O30499   2.403   2.022   9.895 -0.1068 -0.2006 -0.8721
  222MOL0     C30500   2.337   2.080   9.985  0.0571 -0.9882 -0.2456
  222MOL0     O30501   2.355   2.067  10.123 -0.2256  0.4642  0.7378
  222MOL0     C30502   2.435   1.967  10.174 -0.6820  0.0240 -0.7109
  222MOL0     C30503   2.561   1.933  10.117 -0.1014 -0.0725 -0.8573
  222MOL0     C30504   2.637   1.827  10.173  0.1916  0.3865  0.6283
  222MOL0     C30505   2.588   1.743  10.280  1.1133 -0.2124  0.0749
  222MOL0     O30506   2.668   1.638  10.309  0.5096 -0.4855  0.3184
  222MOL0     C30507   2.618   1.548  10.400  0.1670  0.2719 -0.5754
  222MOL0     C30508   2.724   1.432  10.412  1.1208 -1.0015 -0.2096
  222MOL0     C30509   2.857   1.479  10.485 -0.4600 -0.1952 -0.1168
  222MOL0     C30510   2.930   1.345  10.529  0.8729  0.1608  1.4760
  222MOL0     C30511   3.068   1.381  10.578  0.5281  0.0758  0.6870
  222MOL0     C30512   3.069   1.466  10.714 -0.4546  0.2056  0.0963
  222MOL0     C30513   3.216   1.508  10.746 -0.7466  0.5468  0.7749
  222MOL0     C30514   3.199   1.620  10.842  0.0677 -0.3568 -0.2495
  222MOL0     N30515   3.327   1.631  10.914  0.0187  0.7122  0.2851
  222MOL0     C30516   3.459   1.632  10.872 -0.2421 -1.2132  0.0715
  222MOL0     C30517   3.532   1.603  10.980  0.7681 -0.7366  0.0667
  222MOL0     C30518   3.676   1.604  10.980  0.5683 -0.1714 -0.6119
  222MOL0     C30519   3.737   1.757  11.004 -0.2984 -0.0263 -0.7719
  222MOL0     C30520   3.674   1.824  11.129  0.1989 -0.4435 -0.2008
  222MOL0     C30521   3.686   1.740  11.258 -0.6554  1.0169 -0.6305
  222MOL0     O30522   3.824   1.687  11.258  0.1399  0.0691  0.8947
  222MOL0     C30523   3.889   1.627  11.367 -0.0681 -1.4150 -0.0237
  222MOL0     C30524   4.017   1.583  11.343 -0.8464  0.3566  0.1582
  222MOL0     C30525   4.080   1.515  11.454 -0.4326  0.4790  0.1058
  222MOL0     C30526   4.222   1.464  11.440  0.4243 -0.2843  0.6053
  222MOL0     C30527   4.024   1.512  11.585 -0.3511  0.3929 -0.6378
  222MOL0     C30528   4.085   1.455  11.710 -0.0373 -0.5438  0.4614
  222MOL0     O30529   3.997   1.395  11.800 -0.0597  1.0010 -0.0909
  222MOL0     C30530   4.014   1.357  11.930  0.0896 -0.1380  0.2443
  222MOL0     C30531   3.898   1.353  12.007 -0.0517  0.9549  0.1370
  222MOL0     C30532   3.906   1.301  12.140  0.1765  0.7875  0.1457
  222MOL0     C30533   4.032   1.264  12.188 -0.5212  1.5352  0.4703
  222MOL0     O30534   4.055   1.227  12.317 -0.7415  0.2984 -0.1950
  222MOL0     C30535   4.021   1.341  12.408  0.0397 -0.0517  0.5534
  222MOL0     C30536   4.107   1.323  12.534 -0.1071  0.1549  0.6560
  222MOL0     C30537   4.256   1.303  12.521  0.0915 -0.2585 -0.5347
  222MOL0     C30538   4.302   1.236  12.659 -0.2124 -0.5942 -0.8431
  222MOL0     C30539   4.307   1.332  12.781  0.2630 -0.5986  0.1211
  222MOL0     C30540   4.359   1.475  12.756 -0.1655  0.3743 -0.3296
  222MOL0     C30541   4.502   1.473  12.715 -0.3065 -0.4535  0.4612
  222MOL0     C30542   4.576   1.597  12.772  0.1946  0.4886  1.0710
  222MOL0    Cl30543   4.547   1.760  12.700  0.0266 -0.0280 -0.4149
  222MOL0     C30544   4.148   1.267  12.105  0.9286 -0.8346 -0.0422
  222MOL0     C30545   4.133   1.316  11.981 -0.0085 -0.7297 -0.3363
  222MOL0     O30546   4.201   1.482  11.740  0.4465  0.1306  0.1918
  222MOL0     C30547   3.893   1.552  11.602  0.3783 -0.1173  0.3900
  222MOL0     C30548   3.829   1.614  11.499  0.0132 -0.0690  0.7504
  222MOL0     N30549   3.449   1.585  11.091 -0.1436  0.3656 -0.3079
  222MOL0     N30550   3.324   1.599  11.051 -0.4675 -0.9262 -0.0818
  222MOL0     C30551   2.467   1.784  10.337  0.3729 -0.4590 -0.5330
  222MOL0     C30552   2.392   1.898  10.284 -0.5765 -0.4154 -0.6226
  222MOL0     C30553   2.241   2.191   9.946 -0.5924  0.4216 -0.3802
  222MOL0     C30554   2.184   2.270  10.054 -0.4896  0.3130  0.2061
  222MOL0     C30555   2.094   2.371  10.019  1.0818  0.5490  0.5327
  222MOL0     C30556   2.048   2.393   9.889  0.3956  0.1624  0.3200
  222MOL0     O30557   1.962   2.496   9.872  0.5404 -0.1241 -0.1579
  222MOL0     C30558   1.927   2.538   9.742  0.0188 -0.5693  0.4099
  222MOL0     C30559   1.873   2.684   9.766 -0.7685  0.5482  1.0197
  222MOL0     C30560   1.724   2.692   9.807 -0.0869 -0.9536  0.9423
  222MOL0     C30561   1.681   2.834   9.849 -0.2405  0.7264 -0.2797
  222MOL0     C30562   1.543   2.841   9.904 -0.3516  0.1619 -0.2520
  222MOL0     C30563   1.420   2.829   9.920  0.3810  1.1838 -0.6503
  222MOL0     C30564   2.103   2.314   9.788  0.1664  0.5109  0.3201
  222MOL0     C30565   2.185   2.205   9.818  0.1173  0.1899  0.6016
  222MOL0     C30566   2.216   2.110   9.704 -0.4830  0.0456 -0.1907
  222MOL0     H30567   2.602   1.985  10.031  3.5204  1.1819  1.3956
  222MOL0     H30568   2.733   1.814  10.124  1.3824  5.2382  1.1403
  222MOL0     H30569   2.514   1.517  10.385 -0.4738  3.1443 -3.1114
  222MOL0     H30570   2.621   1.601  10.496  0.1108  1.2914 -1.1304
  222MOL0     H30571   2.682   1.351  10.472 -0.9312 -0.7473 -1.1841
  222MOL0     H30572   2.729   1.393  10.310 -1.1952 -1.0764 -0.3578
  222MOL0     H30573   2.918   1.540  10.418  2.7269 -1.7074  1.2184
  222MOL0     H30574   2.821   1.531  10.575  0.2253 -1.3537  0.8478
  222MOL0     H30575   2.871   1.294  10.606 -1.2071 -0.1134 -0.2073
  222MOL0     H30576   2.953   1.288  10.439  2.5163  2.0771  0.6292
  222MOL0     H30577   3.115   1.437  10.497 -0.5332  1.5980  1.0848
  222MOL0     H30578   3.131   1.292  10.583  1.4187  0.2905 -3.2140
  222MOL0     H30579   2.997   1.548  10.704 -2.9723 -1.8317  0.3979
  222MOL0     H30580   3.020   1.406  10.791  2.4474 -0.2771  1.7177
  222MOL0     H30581   3.274   1.528  10.655 -2.5863 -1.2966 -0.9178
  222MOL0     H30582   3.269   1.421  10.787  0.9017  0.6780 -0.9130
  222MOL0     H30583   3.165   1.713  10.796 -1.7500  0.9681  3.3778
  222MOL0     H30584   3.116   1.612  10.913 -0.9264  3.5287 -0.7280
  222MOL0     H30585   3.504   1.653  10.775  1.6610 -1.8526  0.7663
  222MOL0     H30586   3.724   1.565  10.890  0.9930 -4.0059  1.0900
  222MOL0     H30587   3.715   1.547  11.065  0.5998  2.4535  1.2545
  222MOL0     H30588   3.846   1.749  11.012 -0.4673 -0.4576  2.7586
  222MOL0     H30589   3.726   1.822  10.916  2.9088  3.3652  1.0246
  222MOL0     H30590   3.720   1.922  11.145  1.3080 -0.9593 -0.1224
  222MOL0     H30591   3.566   1.833  11.114 -0.0504 -1.0280  1.1247
  222MOL0     H30592   3.668   1.794  11.351 -0.8905  1.6918 -1.0626
  222MOL0     H30593   3.616   1.657  11.277  1.1547 -0.2351  0.9643
  222MOL0     H30594   4.057   1.595  11.243  1.1423 -0.4962  0.7975
  222MOL0     H30595   4.238   1.364  11.481  0.4031  0.1379  1.6804
  222MOL0     H30596   4.296   1.539  11.471  1.0248 -0.1616 -1.0623
  222MOL0     H30597   4.236   1.449  11.333  0.7607 -2.8658  0.9620
  222MOL0     H30598   3.801   1.393  11.979 -1.1342 -2.7787 -2.1614
  222MOL0     H30599   3.818   1.287  12.202  0.4844  0.9011  0.6125
  222MOL0     H30600   4.046   1.438  12.363  3.3682  0.5293  3.2302
  222MOL0     H30601   3.913   1.333  12.426  0.1708  1.2152  2.1335
  222MOL0     H30602   4.084   1.409  12.597  1.1991 -0.4006  1.9457
  222MOL0     H30603   4.074   1.238  12.593 -3.4730  1.5577  1.0119
  222MOL0     H30604   4.314   1.388  12.482  0.8438 -2.0008 -3.4520
  222MOL0     H30605   4.274   1.230  12.442 -0.1472 -1.4215  0.4678
  222MOL0     H30606   4.398   1.186  12.647  0.5995 -0.3295  3.0958
  222MOL0     H30607   4.244   1.148  12.689  0.6102 -0.9655 -0.3177
  222MOL0     H30608   4.209   1.352  12.824 -0.2737  0.0572 -1.3199
  222MOL0     H30609   4.368   1.287  12.860 -0.4580 -1.5673  0.1503
  222MOL0     H30610   4.356   1.527  12.853  0.0955 -0.9325  0.4029
  222MOL0     H30611   4.300   1.529  12.681  3.1566  1.0737 -2.7089
  222MOL0     H30612   4.512   1.466  12.606 -0.1336  1.9543  0.2629
  222MOL0     H30613   4.549   1.389  12.767 -1.7175 -2.4255 -1.2882
  222MOL0     H30614   4.683   1.586  12.754 -0.0042  1.3055 -0.8391
  222MOL0     H30615   4.571   1.592  12.881  0.3563 -0.6148  1.0345
  222MOL0     H30616   4.240   1.221  12.140  2.0659  0.9413 -0.5556
  222MOL0     H30617   4.212   1.317  11.907 -0.9784  0.6947 -1.4175
  222MOL0     H30618   3.842   1.552  11.697  1.9222  1.1817  1.2664
  222MOL0     H30619   3.725   1.641  11.515  0.6174  2.3234  1.0711
  222MOL0     H30620   2.423   1.735  10.423 -1.5183  1.9001 -0.0774
  222MOL0     H30621   2.295   1.910  10.332 -0.2474 -0.9410  0.2044
  222MOL0     H30622   2.207   2.259  10.159 -1.6902 -0.5365  0.4111
  222MOL0     H30623   2.051   2.439  10.092 -0.3664 -1.0227  1.2026
  222MOL0     H30624   2.007   2.541   9.667 -1.2225  1.8268 -0.9334
  222MOL0     H30625   1.845   2.471   9.715  0.9885 -2.0613  1.0572
  222MOL0     H30626   1.899   2.753   9.684  1.4925 -1.7741 -0.3502
  222MOL0     H30627   1.934   2.731   9.843 -2.4451 -0.8897  3.3572
  222MOL0     H30628   1.665   2.671   9.718  1.5120 -5.5656  0.7331
  222MOL0     H30629   1.717   2.617   9.886  1.0961 -0.1332  1.8635
  222MOL0     H30630   1.665   2.892   9.757 -1.0724 -0.9700 -1.2630
  222MOL0     H30631   1.745   2.890   9.917  0.1830  2.4800 -2.0014
  222MOL0     H30632   1.320   2.834   9.958  1.0579  1.2784  1.2409
  222MOL0     H30633   2.064   2.314   9.687 -0.2918 -1.7659  0.4563
  222MOL0     H30634   2.204   2.006   9.736  0.3131 -0.1052 -0.3685
  222MOL0     H30635   2.147   2.134   9.622 -1.5002  0.8999  0.8961
  222MOL0     H30636   2.321   2.120   9.674  0.3395 -3.2136  1.1585
  223MOL0     O30637   7.907   1.484  10.744 -0.8347 -0.5218  0.5235
  223MOL0     C30638   7.883   1.605  10.725 -0.5030  0.2684 -0.1287
  223MOL0     O30639   7.978   1.698  10.721  0.1494  0.1996 -0.9107
  223MOL0     C30640   8.103   1.671  10.763  0.8930  0.7112  1.1166
  223MOL0     C30641   8.206   1.704  10.679 -1.3203  0.6235 -0.2442
  223MOL0     C30642   8.339   1.710  10.738 -0.3642 -0.8854 -0.3366
  223MOL0     C30643   8.357   1.679  10.873 -0.2979  0.3633  0.8606
  223MOL0     O30644   8.479   1.676  10.942  1.4348  0.1523  0.7536
  223MOL0     C30645   8.584   1.762  10.897 -0.6838  0.2087 -0.0538
  223MOL0     C30646   8.682   1.783  11.017 -0.6399 -0.4532  0.2764
  223MOL0     C30647   8.781   1.665  11.046 -0.0301  0.2706  0.0713
  223MOL0     C30648   8.841   1.668  11.187  0.6194 -0.7154 -0.0087
  223MOL0     C30649   8.946   1.557  11.213  0.6101  0.3394 -0.2180
  223MOL0     C30650   8.984   1.549  11.365  0.0465 -0.2025 -0.1288
  223MOL0     C30651   9.092   1.449  11.393  0.0647 -0.5827  0.2481
  223MOL0     C30652   9.234   1.470  11.318 -0.6029 -0.2465  0.0352
  223MOL0     N30653   9.291   1.606  11.312 -0.0643  0.2353 -0.1403
  223MOL0     C30654   9.325   1.684  11.419  0.7374  1.1121 -0.7166
  223MOL0     C30655   9.364   1.798  11.366  0.0141  0.3523  0.3265
  223MOL0     C30656   9.432   1.910  11.444  0.3182  0.2124 -0.0926
  223MOL0     C30657   9.547   1.853  11.530  0.2463 -0.1787  0.6148
  223MOL0     C30658   9.655   1.782  11.444 -0.7487  0.3070  0.6703
  223MOL0     C30659   9.792   1.741  11.517  0.5191 -0.3815  0.1182
  223MOL0     O30660   9.881   1.857  11.546  0.2629  0.5837 -0.3565
  223MOL0     C30661   9.973   1.900  11.453 -0.1020  0.6205 -0.4611
  223MOL0     C30662  10.077   1.988  11.496  0.0992  0.4831 -0.0975
  223MOL0     C30663  10.170   2.042  11.401 -0.1375 -0.8846  0.7915
  223MOL0     C30664  10.295   2.111  11.457  1.2480  0.4689 -0.8352
  223MOL0     C30665  10.159   2.003  11.264  0.2611  0.3717 -0.6969
  223MOL0     C30666  10.261   2.040  11.160 -0.1540  0.5604 -0.7722
  223MOL0     O30667  10.299   2.170  11.158  0.0328  0.8559  0.1503
  223MOL0     C30668  10.353   2.228  11.046 -0.7940 -0.3442 -0.1639
  223MOL0     C30669  10.276   2.294  10.952  0.0501  0.2434 -0.5034
  223MOL0     C30670  10.339   2.334  10.836 -0.1752  1.1507 -0.2693
  223MOL0     C30671  10.478   2.318  10.806 -0.6897 -0.5530 -0.3056
  223MOL0     O30672  10.542   2.376  10.698 -0.0296 -1.1137 -0.2305
  223MOL0     C30673  10.473   2.399  10.577  0.7350  0.3568  0.8547
  223MOL0     C30674  10.583   2.454  10.487  0.1149  0.9222  0.2057
  223MOL0     C30675  10.699   2.353  10.474 -0.2366 -0.3808  0.3485
  223MOL0     C30676  10.822   2.434  10.436  0.1666 -0.4375 -0.1247
  223MOL0     C30677  10.944   2.339  10.410 -0.2328 -0.0268 -0.5264
  223MOL0     C30678  11.027   2.344  10.538  0.2180 -0.2165  0.7195
  223MOL0     C30679  11.164   2.289  10.513  0.0623  0.5784  0.5454
  223MOL0     C30680  11.244   2.287  10.648 -0.1151  0.7117 -0.3110
  223MOL0    Cl30681  11.277   2.453  10.712  0.5913  0.1730 -0.0961
  223MOL0     C30682  10.552   2.251  10.903  0.8427  0.6388 -0.4888
  223MOL0     C30683  10.488   2.200  11.021  0.5824 -0.4162 -0.1935
  223MOL0     O30684  10.301   1.953  11.083  0.0404  0.2194 -0.8867
  223MOL0     C30685  10.062   1.911  11.225  0.2411  0.4640 -0.2407
  223MOL0     C30686   9.966   1.866  11.317  0.7632  0.7008  0.0751
  223MOL0     N30687   9.341   1.795  11.223 -0.2286 -0.1028 -0.3489
  223MOL0     N30688   9.309   1.667  11.193 -0.1383 -0.6576  1.3047
  223MOL0     C30689   8.254   1.631  10.946  0.4049  0.2209 -0.1785
  223MOL0     C30690   8.127   1.627  10.893 -0.6502 -0.5765 -0.5718
  223MOL0     C30691   7.758   1.650  10.667 -0.2897  0.7686 -1.2328
  223MOL0     C30692   7.764   1.760  10.580  0.8686 -0.2588 -0.2777
  223MOL0     C30693   7.648   1.806  10.526 -0.7662  0.1202  0.4587
  223MOL0     C30694   7.528   1.754  10.559  0.2530  0.3362 -0.3906
  223MOL0     O30695   7.417   1.823  10.516 -0.4834 -0.0137 -0.6144
  223MOL0     C30696   7.308   1.745  10.471  0.5299  0.8197  0.2292
  223MOL0     C30697   7.234   1.813  10.353  0.2773 -0.1615 -1.1795
  223MOL0     C30698   7.088   1.826  10.408  0.3319  0.0663  0.4934
  223MOL0     C30699   7.001   1.861  10.295  0.2231  0.3827  0.5548
  223MOL0     C30700   6.935   1.750  10.234 -1.0919 -0.4634 -0.4322
  223MOL0     C30701   6.876   1.662  10.177 -0.5237 -0.5117  0.3665
  223MOL0     C30702   7.515   1.657  10.658  0.2802  0.2609 -0.1986
  223MOL0     C30703   7.634   1.603  10.711 -0.4815  0.4019 -1.0655
  223MOL0     C30704   7.616   1.496  10.811 -0.0147 -0.0819  0.8898
  223MOL0     H30705   8.185   1.731  10.576  0.1676 -0.3578 -0.8347
  223MOL0     H30706   8.426   1.745  10.683  1.6073 -3.3029  1.0580
  223MOL0     H30707   8.550   1.858  10.857 -0.3446 -0.5553 -2.3305
  223MOL0     H30708   8.635   1.715  10.812 -2.4926 -0.5058 -0.7882
  223MOL0     H30709   8.737   1.874  10.990 -1.1495 -0.2075  0.0476
  223MOL0     H30710   8.614   1.799  11.102 -1.1190  1.3744 -0.3868
  223MOL0     H30711   8.739   1.566  11.025 -0.0461  0.2462  0.2128
  223MOL0     H30712   8.862   1.674  10.973 -0.4272 -2.8458 -0.9051
  223MOL0     H30713   8.881   1.769  11.204 -1.1480  0.3018 -1.5241
  223MOL0     H30714   8.756   1.652  11.255  1.2271  0.0015  0.9541
  223MOL0     H30715   9.032   1.570  11.147 -0.0990  2.2836 -0.8372
  223MOL0     H30716   8.903   1.465  11.172 -1.5402  1.6294 -1.0341
  223MOL0     H30717   9.020   1.648  11.396 -0.0799 -0.0414 -0.4868
  223MOL0     H30718   8.897   1.521  11.425  0.6995 -0.8118  0.5560
  223MOL0     H30719   9.048   1.352  11.369  0.0781 -0.6908  0.6548
  223MOL0     H30720   9.110   1.436  11.500  0.6060 -1.8618  0.0184
  223MOL0     H30721   9.313   1.422  11.377 -1.7466  1.2597  2.9791
  223MOL0     H30722   9.224   1.432  11.216  0.5414 -0.9246  0.1616
  223MOL0     H30723   9.322   1.648  11.521  2.0354 -1.0345 -1.3759
  223MOL0     H30724   9.361   1.966  11.506  1.6917  1.1753  0.6684
  223MOL0     H30725   9.459   1.998  11.385 -3.1512  2.2150  1.0071
  223MOL0     H30726   9.594   1.935  11.585  0.2074  1.2503 -1.3670
  223MOL0     H30727   9.502   1.790  11.607  1.0576  1.6451  2.6560
  223MOL0     H30728   9.615   1.686  11.410 -0.6890  0.6915 -0.5326
  223MOL0     H30729   9.684   1.848  11.361 -0.3211 -1.1658 -0.4087
  223MOL0     H30730   9.765   1.697  11.614 -0.0455 -1.3664 -0.4675
  223MOL0     H30731   9.851   1.665  11.464 -1.5192 -1.4257 -0.7721
  223MOL0     H30732  10.081   2.026  11.597  2.0561  2.9075 -0.9578
  223MOL0     H30733  10.310   2.086  11.563  1.4011 -1.7810 -1.3356
  223MOL0     H30734  10.278   2.218  11.443 -0.7586  0.2381 -0.4401
  223MOL0     H30735  10.389   2.092  11.405  1.5063  0.7661 -0.4886
  223MOL0     H30736  10.169   2.307  10.969 -0.2308 -1.0884 -1.1227
  223MOL0     H30737  10.270   2.384  10.769 -2.1947 -0.0311  0.8312
  223MOL0     H30738  10.416   2.315  10.538 -0.1491  1.2093  0.2659
  223MOL0     H30739  10.405   2.484  10.587 -0.0227 -0.3471  1.8840
  223MOL0     H30740  10.536   2.457  10.388  2.6610  1.2441 -1.0655
  223MOL0     H30741  10.604   2.558  10.514 -1.5260  1.2264  0.4253
  223MOL0     H30742  10.664   2.287  10.394 -0.2355  1.8632 -1.6207
  223MOL0     H30743  10.709   2.292  10.564 -2.6801  0.6163  1.3807
  223MOL0     H30744  10.846   2.511  10.511  0.7350 -0.3954 -0.3466
  223MOL0     H30745  10.799   2.478  10.339  1.1900 -2.3502 -1.2937
  223MOL0     H30746  10.917   2.235  10.390  4.5358 -1.0775 -2.9637
  223MOL0     H30747  10.999   2.380  10.325 -1.1894  2.8654  0.1284
  223MOL0     H30748  10.977   2.277  10.608 -0.0599 -0.2369  0.5033
  223MOL0     H30749  11.044   2.446  10.573  2.3160 -1.1499  2.6746
  223MOL0     H30750  11.218   2.344  10.436  0.0961 -0.5097 -0.2129
  223MOL0     H30751  11.158   2.184  10.486 -1.1452  0.7534  0.0707
  223MOL0     H30752  11.334   2.227  10.635 -0.8435 -0.8640  1.4810
  223MOL0     H30753  11.191   2.228  10.724  1.0770  0.7159  0.5597
  223MOL0     H30754  10.657   2.231  10.887  1.3986  1.8743  1.2435
  223MOL0     H30755  10.545   2.130  11.081 -1.3768 -0.9200  1.1703
  223MOL0     H30756  10.041   1.878  11.124  2.5283  0.0241 -0.6351
  223MOL0     H30757   9.896   1.793  11.277  1.9091  0.0807 -0.8639
  223MOL0     H30758   8.261   1.611  11.052 -0.5086  2.1102  0.2838
  223MOL0     H30759   8.042   1.608  10.958  0.9790 -1.3777  1.4849
  223MOL0     H30760   7.858   1.790  10.536  0.6397 -0.1981 -0.7300
  223MOL0     H30761   7.650   1.888  10.455 -0.1528  0.1440  0.4975
  223MOL0     H30762   7.341   1.647  10.434 -0.8786  0.7560 -0.9641
  223MOL0     H30763   7.239   1.739  10.556 -0.2818  2.7715 -0.2502
  223MOL0     H30764   7.228   1.754  10.261 -4.3978 -1.6213 -0.2322
  223MOL0     H30765   7.275   1.913  10.340 -0.5900  0.4362  0.3632
  223MOL0     H30766   7.051   1.735  10.457 -1.1239 -0.7779 -1.9561
  223MOL0     H30767   7.075   1.905  10.482  1.1978 -1.9790  2.9912
  223MOL0     H30768   7.060   1.907  10.215  3.0843 -0.1772  2.2046
  223MOL0     H30769   6.928   1.937  10.325 -0.1291 -0.2041  1.2127
  223MOL0     H30770   6.822   1.579  10.135 -0.5758 -1.4109  2.1119
  223MOL0     H30771   7.428   1.600  10.688  0.5359 -1.0678 -1.7808
  223MOL0     H30772   7.658   1.522  10.908  0.1881  1.0886  0.5025
  223MOL0     H30773   7.511   1.473  10.831 -0.8367  0.4831 -2.2330
  223MOL0     H30774   7.667   1.406  10.776 -0.6643  0.7002 -2.4550
  224MOL0     O30775   5.513   2.242   8.974 -0.1250  0.0240 -0.2116
  224MOL0     C30776   5.437   2.311   9.038 -0.0759 -0.7852  0.6852
  224MOL0     O30777   5.480   2.401   9.133  0.4372  0.1453 -0.5799
  224MOL0     C30778   5.618   2.408   9.156 -0.1787 -0.1111 -0.1656
  224MOL0     C30779   5.663   2.366   9.283 -0.1691  0.7004 -0.5178
  224MOL0     C30780   5.802   2.381   9.325  0.3076  0.2849  0.2113
  224MOL0     C30781   5.896   2.432   9.230 -0.3403 -0.1336 -0.9177
  224MOL0     O30782   6.034   2.420   9.247 -0.5588  0.1983 -0.3579
  224MOL0     C30783   6.093   2.366   9.367  0.0999  0.0516 -0.1317
  224MOL0     C30784   6.246   2.349   9.349 -0.6063  0.5507 -0.9103
  224MOL0     C30785   6.323   2.480   9.377  0.4208  0.0924 -0.8093
  224MOL0     C30786   6.391   2.541   9.254  0.4474  0.1113 -0.8100
  224MOL0     C30787   6.535   2.514   9.254 -0.3312 -0.6460  0.6628
  224MOL0     C30788   6.585   2.377   9.277 -0.3922  0.4126  0.1402
  224MOL0     C30789   6.736   2.354   9.275 -0.3039 -0.2921 -0.3305
  224MOL0     C30790   6.809   2.424   9.392  0.2938 -0.2849 -0.5951
  224MOL0     N30791   6.951   2.434   9.379 -0.7430  0.8608  0.6570
  224MOL0     C30792   7.033   2.366   9.290 -0.1308 -0.6372 -1.6965
  224MOL0     C30793   7.149   2.438   9.276 -0.0190 -0.1597 -0.2831
  224MOL0     C30794   7.273   2.405   9.190 -0.3735 -1.0486 -0.2271
  224MOL0     C30795   7.396   2.347   9.265  0.3268  0.1163  0.1681
  224MOL0     C30796   7.439   2.422   9.397 -0.4805  0.3082  0.8097
  224MOL0     C30797   7.565   2.347   9.452 -0.1558 -0.6532 -0.5927
  224MOL0     O30798   7.635   2.437   9.541 -0.0594  0.3597  0.2313
  224MOL0     C30799   7.755   2.380   9.578 -0.4884  0.3056 -0.1736
  224MOL0     C30800   7.864   2.361   9.493  0.5444 -0.6102  0.3696
  224MOL0     C30801   7.980   2.296   9.534  0.3926 -0.6484 -0.0707
  224MOL0     C30802   8.075   2.238   9.423  0.5482 -0.3545  0.0403
  224MOL0     C30803   8.001   2.271   9.670 -0.6734 -0.4406  0.6210
  224MOL0     C30804   8.121   2.215   9.723 -0.0433  1.2506  0.2129
  224MOL0     O30805   8.103   2.139   9.839 -0.0642 -0.3984  0.2000
  224MOL0     C30806   8.206   2.125   9.932 -0.6146  0.5810  0.5682
  224MOL0     C30807   8.315   2.216   9.936 -0.0675  0.3020 -0.3275
  224MOL0     C30808   8.412   2.206  10.034  0.5721 -0.5337  0.7401
  224MOL0     C30809   8.419   2.093  10.116 -0.6289  0.4771 -0.5289
  224MOL0     O30810   8.519   2.072  10.205 -0.3100  0.4410  0.0595
  224MOL0     C30811   8.654   2.104  10.155  0.1802  0.6440 -0.1593
  224MOL0     C30812   8.763   2.024  10.219 -0.1531  0.9043 -0.1995
  224MOL0     C30813   8.900   2.065  10.157  0.3546  0.7346 -1.1325
  224MOL0     C30814   9.007   1.962  10.213  1.8586 -0.0734 -0.2582
  224MOL0     C30815   9.154   1.981  10.158 -0.0438  0.1447  0.1880
  224MOL0     C30816   9.214   2.115  10.181 -0.2367  0.1110 -1.1570
  224MOL0     C30817   9.369   2.108  10.184  0.1456 -0.0402  0.3745
  224MOL0     C30818   9.412   2.254  10.185 -0.4391 -0.3043 -0.1747
  224MOL0    Cl30819   9.598   2.245  10.196  0.0431  0.1770 -0.1256
  224MOL0     C30820   8.317   2.003  10.103  0.4206 -0.0256 -0.8248
  224MOL0     C30821   8.209   2.016  10.013  0.2129  0.3235 -0.2645
  224MOL0     O30822   8.230   2.239   9.672  0.1698  0.3759  0.4532
  224MOL0     C30823   7.896   2.304   9.759  0.0077 -0.4017 -0.4458
  224MOL0     C30824   7.776   2.356   9.707  0.1422  0.2436 -0.7174
  224MOL0     N30825   7.143   2.536   9.375  0.3502 -0.2430  0.0729
  224MOL0     N30826   7.026   2.535   9.434  0.7441  0.1147  0.0376
  224MOL0     C30827   5.848   2.472   9.107 -0.7252  0.0361 -0.3326
  224MOL0     C30828   5.712   2.464   9.068 -0.8431  0.2685 -0.7767
  224MOL0     C30829   5.293   2.305   9.023 -0.1445 -0.4365 -0.5630
  224MOL0     C30830   5.216   2.411   9.081 -0.8959  0.6601 -0.6525
  224MOL0     C30831   5.081   2.410   9.091  0.0236  0.1514  0.3158
  224MOL0     C30832   5.013   2.305   9.036  0.1080 -1.3826 -0.3111
  224MOL0     O30833   4.877   2.317   9.045 -0.6515 -0.7931  0.4258
  224MOL0     C30834   4.808   2.213   9.113 -0.0232  0.5603  0.0745
  224MOL0     C30835   4.660   2.245   9.147 -0.4063 -0.0261  0.7704
  224MOL0     C30836   4.610   2.316   9.021  0.3567 -0.2661 -0.4290
  224MOL0     C30837   4.451   2.314   9.002 -0.3175 -0.3323 -0.6399
  224MOL0     C30838   4.397   2.393   9.110 -0.1252  1.1065 -0.6728
  224MOL0     C30839   4.354   2.457   9.203  0.0916 -0.8923  0.4064
  224MOL0     C30840   5.073   2.211   8.963  0.1761 -0.2992  0.3968
  224MOL0     C30841   5.211   2.197   8.959 -0.6609  0.4623 -0.8559
  224MOL0     C30842   5.263   2.070   8.904  0.1052 -0.0640 -0.2501
  224MOL0     H30843   5.591   2.324   9.352  1.4752  0.6394  1.2573
  224MOL0     H30844   5.835   2.329   9.414  2.2081  0.6318 -0.2312
  224MOL0     H30845   6.046   2.268   9.382 -0.5425  0.4524  0.5419
  224MOL0     H30846   6.071   2.428   9.454  0.6852 -2.0021  1.5804
  224MOL0     H30847   6.261   2.271   9.424 -2.7794 -2.1295 -3.0501
  224MOL0     H30848   6.275   2.304   9.254 -0.7321  0.7616 -1.0482
  224MOL0     H30849   6.263   2.558   9.423  0.7463 -0.1218 -0.0116
  224MOL0     H30850   6.393   2.453   9.457  0.9192 -0.3644 -1.3823
  224MOL0     H30851   6.335   2.506   9.166 -1.7671 -1.0442  0.9721
  224MOL0     H30852   6.384   2.650   9.255  4.6208  0.5513  0.7620
  224MOL0     H30853   6.572   2.573   9.339 -0.6550  0.9035 -0.2248
  224MOL0     H30854   6.568   2.559   9.160 -0.4563  0.9263  1.3356
  224MOL0     H30855   6.544   2.337   9.370 -0.3800  4.4374  2.0901
  224MOL0     H30856   6.544   2.298   9.214  1.0791 -1.3230  1.2670
  224MOL0     H30857   6.771   2.418   9.194 -1.1037  1.5884  0.7473
  224MOL0     H30858   6.771   2.251   9.258 -0.0523 -0.2407 -0.1202
  224MOL0     H30859   6.786   2.529   9.413  1.8395  1.1924 -5.0318
  224MOL0     H30860   6.793   2.366   9.483 -0.5021 -1.1434 -1.2602
  224MOL0     H30861   7.006   2.284   9.224  1.5663 -1.9497 -0.8273
  224MOL0     H30862   7.308   2.500   9.147  0.1709 -1.8685 -1.6345
  224MOL0     H30863   7.243   2.340   9.109  0.3159  0.8637 -2.1216
  224MOL0     H30864   7.359   2.248   9.293  0.2660 -0.1308 -0.7803
  224MOL0     H30865   7.472   2.338   9.187 -0.8611  1.6298 -1.2321
  224MOL0     H30866   7.472   2.523   9.369  1.4647 -0.6339 -0.4842
  224MOL0     H30867   7.365   2.432   9.478 -0.2450  1.6939  0.8840
  224MOL0     H30868   7.543   2.246   9.487 -0.8640 -0.9104 -1.7088
  224MOL0     H30869   7.638   2.329   9.372  1.7276  0.9764  0.6670
  224MOL0     H30870   7.853   2.392   9.389  3.3063  2.2853  0.7896
  224MOL0     H30871   8.107   2.137   9.451 -0.4221 -0.7955 -0.4081
  224MOL0     H30872   8.161   2.302   9.403  1.1943 -1.5763 -1.2508
  224MOL0     H30873   8.015   2.245   9.332 -0.2682 -1.0075  0.5040
  224MOL0     H30874   8.319   2.305   9.874 -1.5572  0.3719 -0.3571
  224MOL0     H30875   8.481   2.289  10.043  0.9074 -0.9884  3.1667
  224MOL0     H30876   8.655   2.107  10.046 -0.2623  1.5957 -0.1464
  224MOL0     H30877   8.675   2.208  10.184 -0.6181  0.3122  1.7870
  224MOL0     H30878   8.759   2.048  10.326  0.8656  1.0492 -0.1851
  224MOL0     H30879   8.741   1.918  10.203 -2.0539  1.3166 -0.4716
  224MOL0     H30880   8.926   2.164  10.196 -0.1998  0.7037 -0.6850
  224MOL0     H30881   8.908   2.069  10.048 -1.6534  2.7675 -1.2658
  224MOL0     H30882   8.977   1.863  10.178 -1.8577  0.7207  0.2493
  224MOL0     H30883   9.003   1.974  10.322 -0.0451  4.3298 -0.6184
  224MOL0     H30884   9.218   1.905  10.205 -1.2959 -0.2279  1.3377
  224MOL0     H30885   9.154   1.962  10.050 -2.6640 -2.6275  0.5517
  224MOL0     H30886   9.188   2.155  10.280  2.8525 -2.1887  0.7815
  224MOL0     H30887   9.183   2.189  10.107  0.2479  0.7086 -0.7734
  224MOL0     H30888   9.403   2.065  10.089 -1.9308 -2.2921  0.5500
  224MOL0     H30889   9.410   2.065  10.276 -0.5127  1.2474  1.3008
  224MOL0     H30890   9.370   2.310  10.269 -0.0350 -1.2744  0.6921
  224MOL0     H30891   9.377   2.297  10.091 -2.5630  1.3945  1.2959
  224MOL0     H30892   8.302   1.921  10.174  0.3102 -0.2594 -1.1158
  224MOL0     H30893   8.130   1.945   9.989 -1.2272  1.8761 -0.3387
  224MOL0     H30894   7.897   2.283   9.866 -2.8282  1.2109  0.0091
  224MOL0     H30895   7.699   2.396   9.773  1.1937 -1.3238  1.5877
  224MOL0     H30896   5.923   2.506   9.035  1.7720 -1.8084  1.2277
  224MOL0     H30897   5.687   2.496   8.968 -2.8395  1.1468 -0.0453
  224MOL0     H30898   5.262   2.493   9.136  2.8805 -2.4619  1.3462
  224MOL0     H30899   5.026   2.492   9.137 -1.7061 -0.5520 -0.3981
  224MOL0     H30900   4.809   2.125   9.049  0.5446 -0.0041  0.8318
  224MOL0     H30901   4.861   2.190   9.207 -0.9920 -1.2108  0.2265
  224MOL0     H30902   4.649   2.312   9.233 -0.4165 -1.4305  1.9147
  224MOL0     H30903   4.614   2.150   9.178 -1.4837 -0.6776 -2.5020
  224MOL0     H30904   4.642   2.418   8.999 -0.5391  0.0098 -0.4943
  224MOL0     H30905   4.632   2.245   8.941 -2.7662 -0.6874 -1.0562
  224MOL0     H30906   4.423   2.210   9.021  1.4356 -0.8220 -0.5864
  224MOL0     H30907   4.425   2.353   8.903 -0.7175  0.6586 -0.1516
  224MOL0     H30908   4.322   2.523   9.281  2.1365  0.0327  0.5380
  224MOL0     H30909   5.021   2.143   8.896 -0.1827  1.0097 -0.6996
  224MOL0     H30910   5.182   2.008   8.866  0.6043 -3.0954  3.0612
  224MOL0     H30911   5.327   2.092   8.818  1.5784  0.0598  0.8274
  224MOL0     H30912   5.322   2.022   8.983  2.2678  3.4657  0.5028
  225MOL0     O30913   6.091   4.295   9.763 -0.1578  0.1011  0.3878
  225MOL0     C30914   5.969   4.323   9.749 -0.5354  0.6860 -0.4576
  225MOL0     O30915   5.890   4.373   9.851 -0.0193  0.1485  0.3339
  225MOL0     C30916   5.947   4.412   9.971 -0.1467  0.0070 -0.2211
  225MOL0     C30917   5.931   4.545  10.018  0.7063 -0.5889  0.0779
  225MOL0     C30918   5.989   4.588  10.140  0.2820  0.5198 -0.4981
  225MOL0     C30919   6.046   4.489  10.224  0.2411  0.0090  0.0506
  225MOL0     O30920   6.113   4.512  10.343  1.0476  0.2681  0.1803
  225MOL0     C30921   6.058   4.621  10.425  0.0720 -0.0898 -0.7331
  225MOL0     C30922   6.082   4.577  10.577 -1.2564  0.2996  0.0641
  225MOL0     C30923   6.231   4.560  10.616  0.5210  1.4074 -0.7431
  225MOL0     C30924   6.241   4.515  10.761  0.0989  0.7049 -0.2641
  225MOL0     C30925   6.377   4.509  10.811 -0.7044 -0.1333 -1.1685
  225MOL0     C30926   6.378   4.444  10.955 -0.5567  0.5168 -0.5181
  225MOL0     C30927   6.521   4.423  11.008  0.7198  0.0588 -0.4063
  225MOL0     C30928   6.592   4.302  10.934 -0.3756 -0.0924 -0.6750
  225MOL0     N30929   6.730   4.286  10.986 -0.3076  0.1036  0.2380
  225MOL0     C30930   6.839   4.336  10.920 -0.5471  0.3860 -0.3814
  225MOL0     C30931   6.934   4.251  10.953  0.3464 -0.0786 -0.5365
  225MOL0     C30932   7.079   4.271  10.914 -0.3683  0.5990  0.1884
  225MOL0     C30933   7.167   4.315  11.028  0.2570 -0.0631 -0.6142
  225MOL0     C30934   7.312   4.332  10.974  0.5107 -0.4586 -0.0431
  225MOL0     C30935   7.406   4.388  11.083  0.0003 -1.2484 -0.2000
  225MOL0     O30936   7.404   4.293  11.196 -0.2222  0.1663  0.4702
  225MOL0     C30937   7.379   4.330  11.324 -1.2326  0.0615  0.3723
  225MOL0     C30938   7.295   4.439  11.362  0.1961 -1.0719  0.4487
  225MOL0     C30939   7.271   4.470  11.494 -0.3288  0.6832  0.4330
  225MOL0     C30940   7.181   4.586  11.527  1.6021  0.3635 -0.3077
  225MOL0     C30941   7.340   4.392  11.595  0.6557 -1.0664  0.8233
  225MOL0     C30942   7.346   4.423  11.738 -0.1605 -0.4603 -0.3334
  225MOL0     O30943   7.399   4.329  11.816  0.2600 -0.3146  0.1319
  225MOL0     C30944   7.458   4.361  11.937  0.0299  0.1422 -0.4436
  225MOL0     C30945   7.508   4.487  11.982 -0.0338 -0.8811  0.6479
  225MOL0     C30946   7.578   4.506  12.100 -0.2883  0.1169 -0.0892
  225MOL0     C30947   7.590   4.397  12.185 -0.2801 -0.9498 -0.2821
  225MOL0     O30948   7.659   4.399  12.303 -0.0740 -0.0291 -0.1831
  225MOL0     C30949   7.741   4.511  12.344 -0.1640  0.4297 -0.1524
  225MOL0     C30950   7.751   4.501  12.499 -0.2366  0.4093 -0.6576
  225MOL0     C30951   7.627   4.545  12.580  0.3335  0.2687  0.0265
  225MOL0     C30952   7.541   4.657  12.522 -0.2163 -0.0781 -0.1413
  225MOL0     C30953   7.615   4.796  12.528 -0.8581  0.5426  0.4091
  225MOL0     C30954   7.626   4.867  12.662  0.5795  0.4230  0.5756
  225MOL0     C30955   7.682   5.011  12.646  1.0816  0.8824 -0.2370
  225MOL0     C30956   7.715   5.045  12.793  0.4548  0.1657 -0.3825
  225MOL0    Cl30957   7.870   4.981  12.828  0.0943 -0.1059 -0.3608
  225MOL0     C30958   7.542   4.276  12.148  0.3560  0.4520 -0.1314
  225MOL0     C30959   7.482   4.257  12.026 -0.0510 -0.6720 -0.2694
  225MOL0     O30960   7.319   4.544  11.773  0.6354 -0.3568  0.0916
  225MOL0     C30961   7.423   4.288  11.546  0.4731  0.1573  0.0380
  225MOL0     C30962   7.434   4.249  11.415  0.2432 -0.1123  0.2113
  225MOL0     N30963   6.890   4.145  11.036  0.3337 -0.7667 -0.3305
  225MOL0     N30964   6.764   4.168  11.051  0.0766 -0.2559 -0.1277
  225MOL0     C30965   6.060   4.361  10.180 -0.7845 -0.3997 -0.2812
  225MOL0     C30966   6.007   4.321  10.061  0.0877 -0.7802  0.2816
  225MOL0     C30967   5.913   4.309   9.612 -0.8772  0.2733 -0.2606
  225MOL0     C30968   5.773   4.306   9.594  0.1760 -0.6218  0.3509
  225MOL0     C30969   5.721   4.306   9.466  0.0738 -0.1002  1.1456
  225MOL0     C30970   5.795   4.270   9.352 -0.3659  0.3345  0.1194
  225MOL0     O30971   5.752   4.274   9.224 -0.3198 -0.8844  0.4421
  225MOL0     C30972   5.615   4.297   9.195  0.1568  0.0269 -0.5311
  225MOL0     C30973   5.589   4.283   9.043 -0.5891 -0.4032 -0.1873
  225MOL0     C30974   5.608   4.143   8.974  0.2337 -0.1032  0.1579
  225MOL0     C30975   5.550   4.018   9.047 -0.1235 -0.6554  1.0239
  225MOL0     C30976   5.405   4.011   9.056  0.7388  0.0605 -0.0390
  225MOL0     C30977   5.289   3.986   9.062 -0.1933  0.3115 -0.6605
  225MOL0     C30978   5.932   4.242   9.368  0.8094  0.4465 -0.1453
  225MOL0     C30979   5.990   4.273   9.496  0.0994 -0.7459 -0.4492
  225MOL0     C30980   6.138   4.281   9.498 -0.8845  0.1013  0.4133
  225MOL0     H30981   5.878   4.616   9.954  4.8385  1.2946 -1.5971
  225MOL0     H30982   5.992   4.689  10.178  0.7081  0.3932 -0.1905
  225MOL0     H30983   5.951   4.640  10.411  0.1184  0.8084  0.0297
  225MOL0     H30984   6.115   4.712  10.402 -1.2415  1.1391  0.6269
  225MOL0     H30985   6.049   4.658  10.642 -2.3592  1.4783 -1.8944
  225MOL0     H30986   6.038   4.480  10.601  2.8242 -2.0838 -0.9943
  225MOL0     H30987   6.283   4.487  10.555  0.9943  2.0737 -1.1506
  225MOL0     H30988   6.280   4.657  10.604  0.2036  2.0069  2.0246
  225MOL0     H30989   6.193   4.582  10.833  0.3670 -0.2729  0.8601
  225MOL0     H30990   6.180   4.426  10.782  0.2600  0.6324 -0.0932
  225MOL0     H30991   6.427   4.604  10.831  1.3885 -1.8730  3.3838
  225MOL0     H30992   6.435   4.451  10.739 -0.9028 -4.8646  2.0002
  225MOL0     H30993   6.318   4.505  11.022  0.4606  1.8851 -0.8060
  225MOL0     H30994   6.332   4.345  10.949  0.1687  0.1357 -0.0409
  225MOL0     H30995   6.509   4.387  11.111 -2.5827 -0.9669 -1.0124
  225MOL0     H30996   6.577   4.516  11.000 -1.8926  1.5817 -4.3450
  225MOL0     H30997   6.528   4.216  10.958 -2.0962  1.8070  1.9893
  225MOL0     H30998   6.606   4.309  10.825 -0.2003 -0.3958 -0.6734
  225MOL0     H30999   6.845   4.420  10.851 -2.5126 -0.7516 -2.0410
  225MOL0     H31000   7.080   4.350  10.838  0.9073 -0.8834 -1.4157
  225MOL0     H31001   7.114   4.178  10.868 -1.3280  1.1015 -1.6704
  225MOL0     H31002   7.129   4.403  11.080 -0.8882 -1.4673  1.0294
  225MOL0     H31003   7.167   4.238  11.105 -1.7118  0.1349 -0.3626
  225MOL0     H31004   7.346   4.233  10.943  1.2062 -1.5348  3.5830
  225MOL0     H31005   7.306   4.398  10.887 -0.0997  0.5102  0.7092
  225MOL0     H31006   7.506   4.403  11.041  0.2804  0.0996  0.8706
  225MOL0     H31007   7.366   4.482  11.120 -0.5553 -2.3477  2.2376
  225MOL0     H31008   7.262   4.504  11.282  0.3089 -1.7026 -0.1203
  225MOL0     H31009   7.238   4.674  11.558  1.1483  0.0782  1.4784
  225MOL0     H31010   7.113   4.559  11.609  2.8530 -3.6368 -0.3786
  225MOL0     H31011   7.111   4.625  11.453  1.7341  0.8517 -0.1818
  225MOL0     H31012   7.506   4.575  11.919 -0.6010 -0.9544  0.5517
  225MOL0     H31013   7.627   4.595  12.137  0.4054 -0.5957  0.7476
  225MOL0     H31014   7.841   4.495  12.303  0.0679 -3.3059  1.5013
  225MOL0     H31015   7.705   4.610  12.313  2.3128  1.8367  1.1157
  225MOL0     H31016   7.792   4.406  12.536 -1.4365 -0.7982 -2.2644
  225MOL0     H31017   7.834   4.571  12.507  1.7213 -1.3939 -3.3749
  225MOL0     H31018   7.658   4.580  12.679  3.5887  0.3351 -0.8903
  225MOL0     H31019   7.569   4.454  12.596 -0.8442  0.8739 -0.6941
  225MOL0     H31020   7.447   4.657  12.577  0.4239 -0.4364  0.9997
  225MOL0     H31021   7.512   4.636  12.419 -1.0356  1.8920 -0.3609
  225MOL0     H31022   7.712   4.774  12.483 -0.6609  0.3219  0.9347
  225MOL0     H31023   7.566   4.865  12.458 -2.5373  0.2950  1.2840
  225MOL0     H31024   7.690   4.804  12.726  1.1949 -0.9589 -1.3203
  225MOL0     H31025   7.526   4.871  12.707  0.2136 -3.5772  0.4712
  225MOL0     H31026   7.599   5.075  12.615  1.8538  2.2879  0.5286
  225MOL0     H31027   7.767   5.012  12.576  1.7155  0.8093  0.5235
  225MOL0     H31028   7.648   4.998  12.866 -1.6499  1.5424 -1.3323
  225MOL0     H31029   7.719   5.153  12.810  1.4529 -0.0439  0.8581
  225MOL0     H31030   7.557   4.188  12.210 -1.3377 -0.1463 -0.5054
  225MOL0     H31031   7.433   4.163  12.003 -1.7748 -0.1971  1.2105
  225MOL0     H31032   7.481   4.218  11.606 -0.8078 -0.9243  0.0521
  225MOL0     H31033   7.496   4.168  11.378 -0.4985 -0.0182 -1.3071
  225MOL0     H31034   6.086   4.279  10.246 -0.0826 -1.8464 -2.2547
  225MOL0     H31035   6.026   4.217  10.036 -1.9036 -1.0984 -0.0617
  225MOL0     H31036   5.706   4.322   9.678  0.3529  0.6106  0.2780
  225MOL0     H31037   5.614   4.323   9.452 -0.2637 -0.7718  2.6520
  225MOL0     H31038   5.549   4.227   9.246 -0.4821  1.4991  0.7245
  225MOL0     H31039   5.591   4.398   9.228 -2.2372 -0.2820 -1.1073
  225MOL0     H31040   5.652   4.353   8.986 -0.6969  0.7863  1.0995
  225MOL0     H31041   5.485   4.309   9.021 -1.1481 -1.1960  1.3791
  225MOL0     H31042   5.570   4.158   8.872  0.4220  2.5541  0.3928
  225MOL0     H31043   5.715   4.124   8.968  0.2014  0.0951 -1.5816
  225MOL0     H31044   5.595   3.996   9.144 -1.9766  0.7454  2.2728
  225MOL0     H31045   5.588   3.941   8.980  1.2637  0.5332  0.3753
  225MOL0     H31046   5.191   3.946   9.083 -0.3140  1.0733  0.3323
  225MOL0     H31047   5.998   4.232   9.283  0.3094  0.1291 -0.5022
  225MOL0     H31048   6.195   4.208   9.556  0.0934  0.2358 -0.3412
  225MOL0     H31049   6.177   4.277   9.396 -1.3398  1.3048  0.1715
  225MOL0     H31050   6.161   4.381   9.535 -3.0809  0.9890 -0.4665
  226MOL0     O31051   5.677   6.570   9.054  0.3877  0.1993  0.0600
  226MOL0     C31052   5.647   6.464   9.003  0.3128 -1.0474  0.7607
  226MOL0     O31053   5.742   6.362   8.984  0.4354 -0.4735 -0.6130
  226MOL0     C31054   5.876   6.385   8.999  0.4457  0.7523 -0.0280
  226MOL0     C31055   5.940   6.258   8.958  0.2015 -0.0846 -0.1466
  226MOL0     C31056   6.079   6.238   8.977  0.6399  0.3555 -0.3931
  226MOL0     C31057   6.148   6.339   9.041 -0.0976 -0.0293  0.3971
  226MOL0     O31058   6.285   6.335   9.057 -0.3205 -0.8625  0.0751
  226MOL0     C31059   6.369   6.225   9.018 -0.5601 -0.0205 -0.2220
  226MOL0     C31060   6.442   6.241   8.882  0.1401  0.4240 -0.8095
  226MOL0     C31061   6.580   6.185   8.887 -0.5843  0.2084 -0.6402
  226MOL0     C31062   6.634   6.177   8.748 -0.4009 -0.5145 -0.4187
  226MOL0     C31063   6.778   6.135   8.753 -0.3588 -0.2263  0.0943
  226MOL0     C31064   6.831   6.070   8.629 -0.0601 -0.3724  0.5159
  226MOL0     C31065   6.973   6.016   8.661  0.3293 -0.0702  0.6534
  226MOL0     C31066   7.036   5.973   8.531  0.0100  0.5212 -0.1601
  226MOL0     N31067   7.184   5.945   8.546  1.0692 -0.2114  1.3797
  226MOL0     C31068   7.289   6.017   8.495 -1.3952  0.1171 -0.1781
  226MOL0     C31069   7.395   5.941   8.528  0.4568  0.5158  0.1012
  226MOL0     C31070   7.539   5.985   8.519 -0.1932  0.2987  0.4851
  226MOL0     C31071   7.639   5.891   8.594 -0.1419 -0.2504 -0.4108
  226MOL0     C31072   7.752   5.976   8.651  0.0250  0.0167  0.1817
  226MOL0     C31073   7.851   5.893   8.727 -0.6003 -0.7461  0.4069
  226MOL0     O31074   7.947   5.972   8.798 -0.2716 -0.1586  0.4417
  226MOL0     C31075   8.059   5.905   8.841 -0.4280 -0.0258 -0.2240
  226MOL0     C31076   8.050   5.835   8.959  0.1542 -0.9573  0.5838
  226MOL0     C31077   8.163   5.775   9.008  0.7374  0.3719 -0.6724
  226MOL0     C31078   8.150   5.717   9.143 -0.4043  0.0709  0.3039
  226MOL0     C31079   8.288   5.780   8.939 -0.1720 -0.2493 -0.1855
  226MOL0     C31080   8.404   5.679   8.959  0.5469 -0.2525  0.4153
  226MOL0     O31081   8.515   5.700   8.860 -0.3815 -0.1612 -0.4282
  226MOL0     C31082   8.636   5.651   8.895  0.0304 -0.4613 -0.3819
  226MOL0     C31083   8.722   5.596   8.804 -0.2610 -0.4283  0.0842
  226MOL0     C31084   8.854   5.557   8.828  0.3535  0.6114 -0.0238
  226MOL0     C31085   8.897   5.569   8.958 -0.2449  0.8642 -0.1272
  226MOL0     O31086   9.025   5.522   8.988 -0.2057 -0.2639  0.3108
  226MOL0     C31087   9.130   5.592   8.924  0.6660  0.7473  0.6619
  226MOL0     C31088   9.151   5.733   8.972 -0.1341  0.8398  0.1644
  226MOL0     C31089   9.264   5.803   8.907 -0.3097 -0.5782  0.2877
  226MOL0     C31090   9.319   5.925   8.984  0.4861 -0.1753 -0.3077
  226MOL0     C31091   9.414   5.889   9.103  0.0526 -0.3152 -0.4756
  226MOL0     C31092   9.501   6.005   9.158  0.1458  0.0399  0.2104
  226MOL0     C31093   9.410   6.126   9.202 -0.4615 -0.4918 -0.4731
  226MOL0     C31094   9.480   6.231   9.286 -0.5636  1.5370  0.8244
  226MOL0    Cl31095   9.522   6.170   9.442 -0.0286 -0.1380  0.2340
  226MOL0     C31096   8.815   5.635   9.054 -0.2894 -0.3430 -0.7690
  226MOL0     C31097   8.687   5.672   9.028  0.3369  0.1462  0.5002
  226MOL0     O31098   8.398   5.598   9.051 -0.1647 -0.2682 -0.0324
  226MOL0     C31099   8.294   5.852   8.823 -0.0574  0.4883 -0.6017
  226MOL0     C31100   8.174   5.910   8.777 -0.1287  0.4589 -1.0047
  226MOL0     N31101   7.351   5.828   8.603  0.3659  0.2810  0.4068
  226MOL0     N31102   7.223   5.828   8.599 -0.4575  0.6129  0.5715
  226MOL0     C31103   6.087   6.455   9.087 -0.0564  1.0975 -0.5286
  226MOL0     C31104   5.956   6.486   9.055 -0.2108 -0.2907 -0.0504
  226MOL0     C31105   5.504   6.426   8.979  0.3314 -0.3976  0.2496
  226MOL0     C31106   5.482   6.287   8.980  0.2157  0.3643  1.6269
  226MOL0     C31107   5.354   6.235   8.964 -0.5663  0.1975 -0.4306
  226MOL0     C31108   5.261   6.321   8.926  0.0712  0.9022  0.2949
  226MOL0     O31109   5.134   6.279   8.883 -0.0873 -0.9112  0.2091
  226MOL0     C31110   5.036   6.270   8.985 -0.1829  0.5642 -0.1368
  226MOL0     C31111   4.896   6.275   8.912  0.5212  0.4416 -0.5689
  226MOL0     C31112   4.886   6.150   8.810  1.0884 -0.8259  0.2403
  226MOL0     C31113   4.761   6.154   8.715 -0.4219  0.2211  1.1087
  226MOL0     C31114   4.628   6.139   8.777 -0.0274 -0.3323  0.4647
  226MOL0     C31115   4.520   6.116   8.829  0.3256  0.0163  0.0349
  226MOL0     C31116   5.274   6.457   8.922  1.3163 -1.1110  0.4298
  226MOL0     C31117   5.392   6.516   8.949 -0.6247 -0.4922  0.1378
  226MOL0     C31118   5.397   6.667   8.948 -0.0041 -0.8412 -0.2156
  226MOL0     H31119   5.879   6.181   8.910 -1.6610  2.1837 -1.6524
  226MOL0     H31120   6.130   6.154   8.930  0.7899  0.3136 -0.1564
  226MOL0     H31121   6.299   6.141   9.026  0.4506 -0.6887  2.4473
  226MOL0     H31122   6.436   6.207   9.102 -1.9939 -1.3404  0.6851
  226MOL0     H31123   6.378   6.190   8.809 -1.9922  0.4746  0.9292
  226MOL0     H31124   6.440   6.349   8.862 -2.0561  0.7178  0.7359
  226MOL0     H31125   6.642   6.247   8.953  0.6757 -0.3999 -1.2144
  226MOL0     H31126   6.585   6.080   8.918 -0.6306 -0.0538 -1.4839
  226MOL0     H31127   6.578   6.102   8.692  0.5665 -2.9467  1.6743
  226MOL0     H31128   6.626   6.276   8.703 -1.7006 -0.7858 -0.8161
  226MOL0     H31129   6.798   6.074   8.841  0.2064  2.1130  1.6609
  226MOL0     H31130   6.836   6.226   8.769  1.5812 -0.9862 -1.9591
  226MOL0     H31131   6.760   5.993   8.596  0.2299 -0.3795 -0.1212
  226MOL0     H31132   6.827   6.147   8.551 -2.0327 -0.8919  0.0540
  226MOL0     H31133   6.972   5.930   8.729 -0.0192  0.1174  0.8866
  226MOL0     H31134   7.028   6.099   8.707 -0.0418  0.5574 -0.0222
  226MOL0     H31135   6.993   5.884   8.483  0.3921 -0.8013  1.8220
  226MOL0     H31136   7.013   6.054   8.462 -2.2354 -2.3226 -3.1022
  226MOL0     H31137   7.311   6.109   8.442  1.2986  0.8359  1.9568
  226MOL0     H31138   7.554   6.091   8.544 -1.4959  0.6853 -0.3233
  226MOL0     H31139   7.554   5.988   8.411 -0.9271  0.3485  0.3794
  226MOL0     H31140   7.600   5.833   8.679 -0.1315  2.7768  1.8582
  226MOL0     H31141   7.677   5.825   8.516 -0.7078 -0.0415 -0.8688
  226MOL0     H31142   7.791   6.027   8.562 -0.1347 -1.8716 -1.0162
  226MOL0     H31143   7.705   6.046   8.721  0.0940  1.7691 -1.4409
  226MOL0     H31144   7.799   5.835   8.804 -3.3783 -0.8429 -1.4014
  226MOL0     H31145   7.899   5.823   8.658  0.0962  0.2151 -0.1108
  226MOL0     H31146   7.956   5.827   9.013 -1.2504 -3.1130 -1.9652
  226MOL0     H31147   8.242   5.734   9.199  0.3205 -1.5940 -0.3146
  226MOL0     H31148   8.138   5.609   9.157  0.9602 -0.3168 -1.1504
  226MOL0     H31149   8.082   5.778   9.203  1.8082 -0.0865  3.1785
  226MOL0     H31150   8.674   5.588   8.707  0.6745  2.3728 -0.6869
  226MOL0     H31151   8.911   5.506   8.751  0.7752 -2.7565  2.2655
  226MOL0     H31152   9.223   5.538   8.942  0.5576  0.3829  0.1135
  226MOL0     H31153   9.112   5.607   8.817 -1.3089 -2.1251  0.4933
  226MOL0     H31154   9.064   5.795   8.949  0.7045  1.1714 -2.3927
  226MOL0     H31155   9.160   5.730   9.081 -2.0573 -1.0759  0.3224
  226MOL0     H31156   9.228   5.822   8.805 -4.8635 -0.1892  1.7795
  226MOL0     H31157   9.342   5.726   8.898 -1.7186 -2.2693  1.8293
  226MOL0     H31158   9.237   5.986   9.024  0.6417  0.6255 -1.1789
  226MOL0     H31159   9.369   5.998   8.920 -2.9597  1.3071 -1.5370
  226MOL0     H31160   9.352   5.855   9.186 -1.4572  3.0483 -0.0419
  226MOL0     H31161   9.481   5.809   9.069  1.5024  0.8786 -0.5097
  226MOL0     H31162   9.566   6.055   9.086  1.2578 -0.7891  0.6278
  226MOL0     H31163   9.564   5.993   9.246 -0.4442  3.1435  1.1949
  226MOL0     H31164   9.325   6.092   9.262  1.7473 -0.9722  2.6103
  226MOL0     H31165   9.370   6.168   9.109  0.4102 -1.9846 -1.5765
  226MOL0     H31166   9.417   6.321   9.285 -0.4473  1.7648 -3.5791
  226MOL0     H31167   9.576   6.255   9.238  0.6210 -0.8616  1.8596
  226MOL0     H31168   8.856   5.655   9.153 -0.7400  0.2676 -0.7015
  226MOL0     H31169   8.627   5.714   9.108  2.4428 -0.5720  2.5917
  226MOL0     H31170   8.385   5.863   8.763 -1.0730  1.3035 -2.0726
  226MOL0     H31171   8.170   5.961   8.681  0.4559  1.6797 -0.4021
  226MOL0     H31172   6.146   6.533   9.136  1.7722 -1.8667  2.4066
  226MOL0     H31173   5.908   6.579   9.084  0.9139 -0.0038  0.9911
  226MOL0     H31174   5.562   6.219   9.008  0.9154  0.6481  0.3837
  226MOL0     H31175   5.322   6.131   8.967  1.9584 -0.6356  0.8181
  226MOL0     H31176   5.060   6.177   9.037  0.6014  0.0552 -1.3731
  226MOL0     H31177   5.038   6.350   9.060  2.0843  0.1087  0.3682
  226MOL0     H31178   4.890   6.370   8.859 -0.6132 -0.2886 -1.8090
  226MOL0     H31179   4.813   6.263   8.981  0.5979  1.7105 -0.2316
  226MOL0     H31180   4.976   6.138   8.750  0.4856 -1.1913 -0.6150
  226MOL0     H31181   4.885   6.056   8.866 -0.3298 -0.6734  0.5072
  226MOL0     H31182   4.775   6.071   8.644  1.8900 -0.5025  2.3104
  226MOL0     H31183   4.756   6.246   8.655 -0.4029 -1.7161 -2.1450
  226MOL0     H31184   4.436   6.064   8.869 -0.7757  0.0748 -2.0933
  226MOL0     H31185   5.186   6.513   8.892  1.3165 -1.2980  0.0744
  226MOL0     H31186   5.310   6.718   8.992  0.1206 -2.6438  2.3478
  226MOL0     H31187   5.486   6.706   8.997  0.8195 -0.7575 -1.7199
  226MOL0     H31188   5.406   6.698   8.843 -0.2566  2.1835  0.5665
  227MOL0     O31189   2.002   8.156   2.221  0.0339  0.0997  0.1881
  227MOL0     C31190   1.986   8.037   2.253  0.1403  1.0465 -0.4180
  227MOL0     O31191   2.079   7.936   2.250  0.1739 -1.0795  0.3231
  227MOL0     C31192   2.211   7.975   2.221  0.4390  1.0976 -0.2799
  227MOL0     C31193   2.278   8.084   2.266  0.3906 -1.3132  0.1419
  227MOL0     C31194   2.411   8.102   2.226  0.0233 -0.6557  0.4167
  227MOL0     C31195   2.478   8.020   2.142  0.1569  0.2894 -0.2452
  227MOL0     O31196   2.614   8.027   2.121 -0.0767 -0.0908 -0.7688
  227MOL0     C31197   2.697   8.082   2.229  0.2076 -0.6434  0.4071
  227MOL0     C31198   2.839   8.021   2.224 -0.3442  0.5005  0.6756
  227MOL0     C31199   2.827   7.874   2.256 -0.0953 -0.4897  0.4673
  227MOL0     C31200   2.960   7.799   2.247 -0.4088  0.0183  0.2076
  227MOL0     C31201   3.042   7.833   2.380  0.5922 -0.1530 -0.8062
  227MOL0     C31202   3.183   7.767   2.394 -1.3711  0.1199 -0.8765
  227MOL0     C31203   3.285   7.800   2.280 -0.7615  0.4180  0.4417
  227MOL0     C31204   3.323   7.951   2.280 -0.1869 -0.2087 -0.5905
  227MOL0     N31205   3.445   7.969   2.197  0.2051 -0.1382  0.3150
  227MOL0     C31206   3.459   7.932   2.070 -1.0923 -0.5871 -0.1665
  227MOL0     C31207   3.583   7.982   2.034 -0.2583 -0.7849  0.4144
  227MOL0     C31208   3.639   7.992   1.894  0.1582  0.3975  0.7651
  227MOL0     C31209   3.789   7.990   1.901 -0.5227  1.0866 -0.6734
  227MOL0     C31210   3.863   7.989   1.764  0.8928 -1.4960 -0.0620
  227MOL0     C31211   4.011   7.982   1.787 -0.1433 -0.3758  0.0796
  227MOL0     O31212   4.090   7.958   1.668  0.0310 -0.3704  0.3144
  227MOL0     C31213   4.207   8.036   1.654  0.1135 -0.0033 -0.8544
  227MOL0     C31214   4.227   8.064   1.521 -0.0933 -0.2550 -0.0945
  227MOL0     C31215   4.339   8.136   1.479  0.2543  0.6925  0.3964
  227MOL0     C31216   4.337   8.174   1.339 -0.5893 -0.1995  0.0671
  227MOL0     C31217   4.428   8.178   1.577 -0.1234  0.2811 -0.7167
  227MOL0     C31218   4.557   8.239   1.547  0.2918 -0.8712  0.7841
  227MOL0     O31219   4.629   8.194   1.445  0.1826 -0.8658  0.3292
  227MOL0     C31220   4.737   8.247   1.385 -0.1931 -0.3252  0.6467
  227MOL0     C31221   4.754   8.386   1.359 -0.7502  0.5888 -0.1031
  227MOL0     C31222   4.881   8.433   1.311 -0.2933 -0.0480  0.1147
  227MOL0     C31223   4.990   8.346   1.293  0.0885 -0.7463  0.5595
  227MOL0     O31224   5.105   8.406   1.254 -0.8383 -0.0558 -0.3340
  227MOL0     C31225   5.233   8.354   1.296  0.5347  0.2593  0.7063
  227MOL0     C31226   5.250   8.338   1.449  0.1365 -0.3961 -0.0955
  227MOL0     C31227   5.271   8.465   1.538  0.0385  0.3744  0.4247
  227MOL0     C31228   5.153   8.560   1.532  1.3685 -0.4678 -0.9109
  227MOL0     C31229   5.167   8.678   1.638 -1.0050  0.3137 -0.1742
  227MOL0     C31230   5.028   8.723   1.694 -0.5841 -0.4718  1.0158
  227MOL0     C31231   4.984   8.839   1.599 -0.0688  0.9686 -0.6578
  227MOL0     C31232   4.829   8.846   1.619 -0.3445 -0.4058 -0.1050
  227MOL0    Cl31233   4.760   8.692   1.557  0.0937  0.0454 -0.3735
  227MOL0     C31234   4.962   8.206   1.296  0.4192  0.1947  0.2654
  227MOL0     C31235   4.836   8.161   1.343 -0.5969  0.0119 -0.0243
  227MOL0     O31236   4.593   8.333   1.618 -0.1102  0.0160 -0.5083
  227MOL0     C31237   4.398   8.155   1.711  0.1753  0.5080  0.0362
  227MOL0     C31238   4.288   8.085   1.751  0.2699  0.3052 -0.0682
  227MOL0     N31239   3.633   8.053   2.142 -0.5086  0.7239  0.4674
  227MOL0     N31240   3.546   8.038   2.239 -1.2176 -0.1048  0.0496
  227MOL0     C31241   2.409   7.905   2.102  0.1729 -0.7070 -0.0861
  227MOL0     C31242   2.273   7.887   2.126 -0.2431  0.1608 -0.8200
  227MOL0     C31243   1.853   7.992   2.300 -0.7369  0.0115  0.2309
  227MOL0     C31244   1.829   7.855   2.316  0.2556  0.0561 -0.1619
  227MOL0     C31245   1.706   7.808   2.355 -0.3115 -0.4204 -0.4851
  227MOL0     C31246   1.605   7.893   2.387  0.0876  0.1361 -0.7910
  227MOL0     O31247   1.484   7.846   2.419  0.4662  0.3186  0.3696
  227MOL0     C31248   1.475   7.775   2.547 -0.2181  0.0710 -0.4281
  227MOL0     C31249   1.326   7.751   2.583 -0.0273 -0.0595 -0.0923
  227MOL0     C31250   1.233   7.875   2.604 -0.1520  0.7537 -0.2106
  227MOL0     C31251   1.140   7.869   2.723  0.5191 -0.6743 -0.3574
  227MOL0     C31252   1.064   7.739   2.714 -0.3237  0.2358 -0.1115
  227MOL0     C31253   1.017   7.630   2.695 -0.1868  0.2970  0.8604
  227MOL0     C31254   1.629   8.031   2.372  0.6898  0.0937  0.6580
  227MOL0     C31255   1.756   8.085   2.341 -0.6948 -0.4307 -0.7428
  227MOL0     C31256   1.783   8.235   2.366 -0.1485  0.2684  0.0848
  227MOL0     H31257   2.239   8.159   2.334 -1.4938 -3.1794  1.2411
  227MOL0     H31258   2.464   8.187   2.268  2.3157 -2.5451  1.5943
  227MOL0     H31259   2.647   8.059   2.323 -0.8472  3.6982  1.1088
  227MOL0     H31260   2.700   8.191   2.230  0.0579 -0.6116  2.8449
  227MOL0     H31261   2.869   8.045   2.122  0.1613  0.4696  0.8131
  227MOL0     H31262   2.906   8.068   2.297  3.8978 -2.7237 -0.7145
  227MOL0     H31263   2.788   7.858   2.357 -2.8883  3.1285  0.1493
  227MOL0     H31264   2.766   7.840   2.172  3.4117 -1.0360 -2.0944
  227MOL0     H31265   2.945   7.692   2.233 -0.8913 -0.1392  1.7177
  227MOL0     H31266   3.006   7.832   2.153 -0.9841  1.1763  0.3079
  227MOL0     H31267   2.988   7.791   2.465  1.8416  1.1220  0.6716
  227MOL0     H31268   3.064   7.940   2.390  0.0630 -0.2130  1.5335
  227MOL0     H31269   3.229   7.806   2.485 -1.7440 -0.0580 -0.6066
  227MOL0     H31270   3.186   7.658   2.397  1.5280  0.1259  2.0941
  227MOL0     H31271   3.242   7.769   2.184  1.6984 -1.8452 -0.0618
  227MOL0     H31272   3.375   7.737   2.287  0.4001  1.7084 -1.6663
  227MOL0     H31273   3.237   8.013   2.253 -0.2216  0.2735  0.5676
  227MOL0     H31274   3.356   7.983   2.379  4.9365  1.1743 -2.4341
  227MOL0     H31275   3.375   7.902   2.007 -1.9429  1.0281  0.1447
  227MOL0     H31276   3.614   8.089   1.850  1.6148  0.5795  0.2841
  227MOL0     H31277   3.591   7.918   1.830 -0.1062  2.4031 -1.4965
  227MOL0     H31278   3.830   8.065   1.969  2.1493 -1.3092  0.5913
  227MOL0     H31279   3.815   7.890   1.937 -2.7419  0.5483 -0.4370
  227MOL0     H31280   3.832   7.900   1.708  0.6367 -0.6019 -1.3954
  227MOL0     H31281   3.841   8.083   1.712 -0.0276 -1.7526 -0.1605
  227MOL0     H31282   4.038   8.079   1.832  1.4319 -0.6469 -0.2200
  227MOL0     H31283   4.044   7.907   1.858  4.6128 -1.9743 -3.3051
  227MOL0     H31284   4.156   8.025   1.448 -0.4700 -1.4007  0.8543
  227MOL0     H31285   4.344   8.084   1.277 -0.3959  0.2938 -0.6433
  227MOL0     H31286   4.417   8.241   1.306 -0.9185 -0.1572 -0.6717
  227MOL0     H31287   4.246   8.229   1.312 -0.4588 -0.4063 -0.8412
  227MOL0     H31288   4.674   8.453   1.389 -2.2060 -1.7976  1.8175
  227MOL0     H31289   4.900   8.539   1.303 -0.3925 -0.1053 -1.1951
  227MOL0     H31290   5.245   8.260   1.241 -4.4907  0.8840 -1.9695
  227MOL0     H31291   5.311   8.412   1.246 -1.4396  1.6651 -0.8651
  227MOL0     H31292   5.168   8.276   1.488 -2.5714  1.7895 -1.9088
  227MOL0     H31293   5.343   8.286   1.471 -0.6528 -1.0043  2.1057
  227MOL0     H31294   5.364   8.513   1.510  0.3239  0.5038  1.5303
  227MOL0     H31295   5.283   8.434   1.643 -1.8861 -1.2531  0.2310
  227MOL0     H31296   5.058   8.509   1.552  1.4095 -0.0920  0.2972
  227MOL0     H31297   5.135   8.588   1.428  3.0056  3.0129 -0.3769
  227MOL0     H31298   5.209   8.638   1.731 -0.5656 -0.9807 -0.9118
  227MOL0     H31299   5.234   8.758   1.605  2.0990 -1.1003  2.1426
  227MOL0     H31300   5.036   8.773   1.791 -0.8899  2.8048 -0.5081
  227MOL0     H31301   4.961   8.636   1.699 -0.0379 -0.9439  0.3530
  227MOL0     H31302   5.009   8.827   1.493 -1.4530 -0.6312 -0.8495
  227MOL0     H31303   5.032   8.927   1.643  0.4345  0.4154 -0.0832
  227MOL0     H31304   4.792   8.930   1.560  2.4463  0.4193 -0.8321
  227MOL0     H31305   4.818   8.859   1.727  1.6517  2.4863 -0.1492
  227MOL0     H31306   5.044   8.146   1.259  2.2514  2.2633  0.7577
  227MOL0     H31307   4.809   8.057   1.359 -2.4855  0.8053  2.7036
  227MOL0     H31308   4.470   8.191   1.783  1.6735 -1.9037 -0.1221
  227MOL0     H31309   4.284   8.061   1.857  2.7836 -0.9925 -0.1978
  227MOL0     H31310   2.454   7.844   2.024  0.5561  0.2472 -0.6250
  227MOL0     H31311   2.216   7.808   2.076  0.1812 -2.4532  2.4685
  227MOL0     H31312   1.896   7.774   2.291  2.1858  1.0150  1.5908
  227MOL0     H31313   1.693   7.702   2.375  2.1913 -0.3841  1.8653
  227MOL0     H31314   1.525   7.679   2.533 -0.4417  0.1994 -2.4693
  227MOL0     H31315   1.512   7.846   2.622  2.6684 -2.0637  0.3304
  227MOL0     H31316   1.325   7.701   2.680 -0.8715  1.6186  0.8013
  227MOL0     H31317   1.289   7.694   2.498 -1.9247 -0.5017  0.9763
  227MOL0     H31318   1.296   7.963   2.619  2.6331 -1.0822 -0.2597
  227MOL0     H31319   1.164   7.884   2.519  0.9522  0.6684 -1.1432
  227MOL0     H31320   1.070   7.953   2.721  1.0876 -0.0928  1.8007
  227MOL0     H31321   1.181   7.879   2.824 -1.7759  2.6374  0.3878
  227MOL0     H31322   0.988   7.531   2.665 -1.4078  1.0210 -0.4596
  227MOL0     H31323   1.544   8.090   2.405  2.2895  0.9494  3.6179
  227MOL0     H31324   1.880   8.265   2.408  1.8521 -3.1235 -1.6548
  227MOL0     H31325   1.775   8.289   2.271  1.3917  1.9088  0.8307
  227MOL0     H31326   1.711   8.274   2.438  0.1782 -0.7208  0.9680
  228MOL0     O31327   6.515   3.699   4.313 -0.2682 -0.2339 -0.1026
  228MOL0     C31328   6.536   3.736   4.201  0.8626 -0.1046  0.1023
  228MOL0     O31329   6.633   3.688   4.116 -0.0424 -0.3397 -0.1808
  228MOL0     C31330   6.743   3.626   4.174 -0.2057 -0.9616 -0.4911
  228MOL0     C31331   6.750   3.516   4.254  0.0191  0.8545 -0.7147
  228MOL0     C31332   6.868   3.439   4.282 -1.0770 -0.6410 -0.2222
  228MOL0     C31333   6.984   3.487   4.216  0.1089 -0.5139 -0.5951
  228MOL0     O31334   7.108   3.436   4.233 -0.0828 -0.0363 -0.2508
  228MOL0     C31335   7.126   3.301   4.278  0.2338 -1.0009  0.0284
  228MOL0     C31336   7.265   3.256   4.249 -0.2751  0.5499  0.1637
  228MOL0     C31337   7.380   3.344   4.319 -0.0321  0.4169 -0.3781
  228MOL0     C31338   7.520   3.284   4.287  0.6376 -0.7937 -1.2056
  228MOL0     C31339   7.630   3.356   4.363 -0.2946  0.4661  0.1435
  228MOL0     C31340   7.760   3.324   4.295 -0.6606 -1.0028 -0.0311
  228MOL0     C31341   7.888   3.396   4.358  1.0310 -0.6613 -0.5878
  228MOL0     C31342   8.004   3.383   4.265  0.0618 -0.0405  0.2851
  228MOL0     N31343   8.120   3.452   4.311 -0.0079  0.0541 -0.2672
  228MOL0     C31344   8.127   3.565   4.389  1.0167 -0.1028  0.5989
  228MOL0     C31345   8.254   3.592   4.415  0.8052  0.1844 -0.7167
  228MOL0     C31346   8.328   3.699   4.505  0.2021  0.3352 -0.5406
  228MOL0     C31347   8.336   3.663   4.656  0.1723  0.1479  0.0025
  228MOL0     C31348   8.434   3.541   4.669 -0.1968  0.0660  0.0828
  228MOL0     C31349   8.581   3.570   4.635  0.5251  0.0616 -0.9458
  228MOL0     O31350   8.637   3.444   4.631 -0.0488  0.0619 -0.3199
  228MOL0     C31351   8.772   3.448   4.642 -0.5303 -1.2718  0.4705
  228MOL0     C31352   8.847   3.471   4.527  0.1172 -0.2319  0.4224
  228MOL0     C31353   8.982   3.473   4.530  0.3088  0.6792  0.5748
  228MOL0     C31354   9.061   3.499   4.401  0.4157 -0.2490  0.4254
  228MOL0     C31355   9.048   3.445   4.652 -1.0218 -0.2570  0.1013
  228MOL0     C31356   9.195   3.436   4.692  0.2022 -0.2524 -0.6122
  228MOL0     O31357   9.280   3.493   4.599  0.1402 -0.2286 -0.4831
  228MOL0     C31358   9.370   3.579   4.643  0.1560  0.7071 -0.4063
  228MOL0     C31359   9.479   3.535   4.718 -0.5044 -0.4346  0.7576
  228MOL0     C31360   9.587   3.622   4.742  0.5469 -0.2899 -0.1130
  228MOL0     C31361   9.581   3.753   4.703 -0.3652 -0.2429  1.1958
  228MOL0     O31362   9.684   3.836   4.725 -0.5112 -0.4438  0.0565
  228MOL0     C31363   9.649   3.957   4.795  0.6981 -0.7833  0.4613
  228MOL0     C31364   9.772   4.046   4.823  0.9125  0.0568 -0.3671
  228MOL0     C31365   9.853   3.984   4.931  0.6178 -0.1232  0.7606
  228MOL0     C31366   9.965   4.083   4.968  0.0080  0.0236 -0.4878
  228MOL0     C31367  10.073   4.010   5.056  0.1779 -0.5900  0.2693
  228MOL0     C31368  10.183   4.106   5.102 -0.0526 -0.5499  0.6643
  228MOL0     C31369  10.279   4.153   4.989 -0.6479  0.1521 -0.3632
  228MOL0     C31370  10.392   4.237   5.043 -0.2018  0.1585  0.3791
  228MOL0    Cl31371  10.461   4.174   5.202  0.3209  0.3896  0.4707
  228MOL0     C31372   9.476   3.798   4.621  0.9241 -0.5646 -0.1379
  228MOL0     C31373   9.367   3.709   4.599 -0.5260  0.0669 -0.2151
  228MOL0     O31374   9.230   3.404   4.807 -0.6571  0.1496 -0.3467
  228MOL0     C31375   8.962   3.431   4.764  0.5933  0.2760  0.2474
  228MOL0     C31376   8.827   3.433   4.760 -0.4007  0.0424 -0.0328
  228MOL0     N31377   8.323   3.500   4.347  0.3443 -0.0663  0.4665
  228MOL0     N31378   8.243   3.415   4.292 -0.9727  0.2297  0.5020
  228MOL0     C31379   6.980   3.598   4.134  0.5075 -0.5838 -0.5072
  228MOL0     C31380   6.858   3.677   4.117 -0.2315 -0.8093 -0.2530
  228MOL0     C31381   6.441   3.837   4.139 -0.4539 -1.0254 -0.4001
  228MOL0     C31382   6.487   3.926   4.036 -0.3048  1.3581  0.0043
  228MOL0     C31383   6.399   4.029   3.985  0.1059  0.0802 -0.0534
  228MOL0     C31384   6.271   4.049   4.035 -0.4455  0.4929 -0.2431
  228MOL0     O31385   6.207   4.164   3.993 -0.5945  0.0561 -0.6347
  228MOL0     C31386   6.124   4.161   3.875  0.3636  0.9118 -0.3771
  228MOL0     C31387   6.040   4.293   3.871 -1.2885  1.6671  0.3672
  228MOL0     C31388   5.965   4.330   3.746 -0.6226 -0.1657  0.1569
  228MOL0     C31389   5.833   4.260   3.715 -0.2167  0.0748  0.3494
  228MOL0     C31390   5.728   4.298   3.814  0.6162 -0.0316 -0.5047
  228MOL0     C31391   5.647   4.351   3.884 -0.6308 -1.1668  0.2295
  228MOL0     C31392   6.225   3.958   4.133 -0.1690 -0.8756  0.4171
  228MOL0     C31393   6.302   3.854   4.185 -0.6054 -0.8030 -0.2546
  228MOL0     C31394   6.245   3.792   4.305 -0.1956  0.3155 -0.5518
  228MOL0     H31395   6.660   3.491   4.309  1.5304  0.6501  1.8587
  228MOL0     H31396   6.875   3.349   4.342 -0.9735 -0.8158 -0.4944
  228MOL0     H31397   7.054   3.228   4.241 -0.4954 -0.0232 -0.5261
  228MOL0     H31398   7.114   3.297   4.387  2.4710 -2.1981  0.2851
  228MOL0     H31399   7.272   3.151   4.281 -0.0613  0.5344  0.0624
  228MOL0     H31400   7.282   3.262   4.141 -0.0770  0.9612  0.2183
  228MOL0     H31401   7.385   3.449   4.288 -0.2570  0.7673  0.7312
  228MOL0     H31402   7.363   3.332   4.426  2.7408 -2.6444 -0.1079
  228MOL0     H31403   7.524   3.178   4.314  0.7481 -0.3335  0.6667
  228MOL0     H31404   7.541   3.287   4.179 -0.8274  0.2694 -1.4855
  228MOL0     H31405   7.636   3.323   4.467 -1.2785  2.4616  0.8994
  228MOL0     H31406   7.614   3.464   4.353 -4.1359  0.6363  4.5576
  228MOL0     H31407   7.779   3.217   4.290 -1.1255 -1.0723 -0.4577
  228MOL0     H31408   7.746   3.353   4.190 -1.9413  0.2398  0.4558
  228MOL0     H31409   7.906   3.340   4.450 -0.7383 -2.0521 -1.0399
  228MOL0     H31410   7.871   3.503   4.375 -0.7549 -1.2204  1.6060
  228MOL0     H31411   8.033   3.278   4.253  2.1609  0.3382  1.4189
  228MOL0     H31412   7.981   3.421   4.165 -1.9250 -1.2325  0.2373
  228MOL0     H31413   8.034   3.604   4.430 -1.1436 -1.8576 -2.2787
  228MOL0     H31414   8.266   3.788   4.498 -2.1972 -1.2339 -0.3460
  228MOL0     H31415   8.425   3.726   4.463  0.4921 -0.5473 -0.4719
  228MOL0     H31416   8.376   3.744   4.716 -3.7361  1.7116  0.8110
  228MOL0     H31417   8.236   3.641   4.695  0.8620 -1.9189  0.7095
  228MOL0     H31418   8.426   3.502   4.771 -3.5829  0.1288 -0.0520
  228MOL0     H31419   8.392   3.458   4.611 -1.5785 -0.6737  2.0246
  228MOL0     H31420   8.590   3.612   4.534 -0.8442  1.8853 -0.3601
  228MOL0     H31421   8.631   3.632   4.710  0.9563  0.4355 -1.5340
  228MOL0     H31422   8.799   3.479   4.430  0.8413  1.9595  0.2007
  228MOL0     H31423   8.986   3.506   4.321 -2.2693 -2.7927  2.5097
  228MOL0     H31424   9.134   3.418   4.388  0.2276 -0.7748  2.3174
  228MOL0     H31425   9.098   3.601   4.414 -1.6154  0.5746  0.0723
  228MOL0     H31426   9.486   3.444   4.778  1.7949 -1.0943 -0.4099
  228MOL0     H31427   9.676   3.593   4.797  0.4123  1.9439  1.4171
  228MOL0     H31428   9.584   4.015   4.729  0.6095 -3.7748 -2.3827
  228MOL0     H31429   9.574   3.938   4.871 -1.1512 -2.8401 -1.7124
  228MOL0     H31430   9.819   4.065   4.725 -0.8386  0.6942 -1.1305
  228MOL0     H31431   9.739   4.145   4.855  1.6426  0.8763 -1.9994
  228MOL0     H31432   9.895   3.887   4.902 -1.4728 -0.5213 -1.1666
  228MOL0     H31433   9.787   3.971   5.018 -0.7040 -0.9248 -0.3197
  228MOL0     H31434   9.924   4.177   5.006 -1.1126 -0.0846 -1.3636
  228MOL0     H31435  10.008   4.114   4.873 -2.4205  0.1848 -1.6217
  228MOL0     H31436  10.020   3.972   5.143  0.5355  1.7895  1.6070
  228MOL0     H31437  10.119   3.930   4.996  2.2211  2.7670 -3.0843
  228MOL0     H31438  10.249   4.066   5.180  6.6198  0.3206 -3.6943
  228MOL0     H31439  10.136   4.200   5.131 -0.6177  0.0657 -2.0059
  228MOL0     H31440  10.220   4.192   4.905  0.3477  0.5617 -0.8849
  228MOL0     H31441  10.332   4.070   4.942  0.0555  0.4739 -0.1475
  228MOL0     H31442  10.366   4.343   5.048 -1.3203 -0.1217  0.6258
  228MOL0     H31443  10.473   4.225   4.970 -0.5898 -0.7731  0.0863
  228MOL0     H31444   9.486   3.895   4.574  1.7191 -2.1685 -3.5571
  228MOL0     H31445   9.288   3.734   4.530 -1.5166 -3.6343 -0.6423
  228MOL0     H31446   9.008   3.418   4.862  2.1722  1.6729 -0.2461
  228MOL0     H31447   8.769   3.419   4.851  2.6674 -1.4479  1.8528
  228MOL0     H31448   7.073   3.616   4.079  0.9753 -4.7076 -1.4239
  228MOL0     H31449   6.868   3.740   4.029  2.3505 -2.0098 -0.9231
  228MOL0     H31450   6.586   3.897   4.004  0.4342  1.4981  2.0182
  228MOL0     H31451   6.432   4.084   3.897 -0.0539  2.1408  1.1175
  228MOL0     H31452   6.188   4.147   3.787  1.7691  1.0680  0.6004
  228MOL0     H31453   6.063   4.070   3.875  0.9998  0.4791 -0.4304
  228MOL0     H31454   6.115   4.373   3.880 -1.5248  1.7458  1.8230
  228MOL0     H31455   5.971   4.293   3.956 -2.1401 -0.6632 -0.2655
  228MOL0     H31456   5.943   4.437   3.740  2.0104  0.4651  0.5503
  228MOL0     H31457   6.025   4.308   3.656 -0.4362  0.7513  0.0518
  228MOL0     H31458   5.849   4.152   3.716  4.8118  0.5371 -1.3242
  228MOL0     H31459   5.803   4.282   3.612 -1.5084  0.3382  0.7531
  228MOL0     H31460   5.565   4.392   3.939 -0.5304  0.0010 -0.4590
  228MOL0     H31461   6.128   3.981   4.175 -0.1366 -1.1816  0.6659
  228MOL0     H31462   6.266   3.684   4.312  2.7679  0.9018  2.0868
  228MOL0     H31463   6.301   3.826   4.393  0.4489  1.3191 -1.3315
  228MOL0     H31464   6.137   3.806   4.310  0.1698  3.8157  0.0953
  229MOL0     O31465   5.841   1.221   0.504  0.5743  0.7920  0.4447
  229MOL0     C31466   5.809   1.292   0.404  0.0866 -0.3208 -0.5346
  229MOL0     O31467   5.897   1.340   0.318  0.1564 -0.4821  0.2284
  229MOL0     C31468   6.022   1.286   0.320  0.0939 -0.0560 -0.4600
  229MOL0     C31469   6.043   1.148   0.315  0.5305 -0.5921  0.0782
  229MOL0     C31470   6.175   1.099   0.324  0.4781  0.2587  0.6453
  229MOL0     C31471   6.281   1.185   0.351 -0.1200 -0.2113  0.2081
  229MOL0     O31472   6.413   1.141   0.356  0.1330  0.5654 -0.5481
  229MOL0     C31473   6.493   1.163   0.476  0.2452 -0.0460 -0.2470
  229MOL0     C31474   6.604   1.062   0.464  0.0909  0.1477  0.0954
  229MOL0     C31475   6.730   1.121   0.386 -0.0020  0.8367  0.1494
  229MOL0     C31476   6.850   1.029   0.379  0.2548  0.1487 -0.3676
  229MOL0     C31477   6.968   1.105   0.321  0.0430  0.2560 -0.5765
  229MOL0     C31478   7.096   1.046   0.384  0.8808 -0.1823  0.0788
  229MOL0     C31479   7.207   1.125   0.325 -0.3024 -1.4797 -0.2141
  229MOL0     C31480   7.333   1.096   0.394 -0.5650 -0.2895  0.1926
  229MOL0     N31481   7.393   0.960   0.375  0.2813  0.2198 -0.9123
  229MOL0     C31482   7.360   0.852   0.445  0.7080 -0.6486 -0.1612
  229MOL0     C31483   7.404   0.754   0.368 -0.4843  0.3341 -0.2101
  229MOL0     C31484   7.394   0.606   0.391 -0.3253 -0.6054 -1.5318
  229MOL0     C31485   7.530   0.537   0.373  0.2247 -0.5412  0.9511
  229MOL0     C31486   7.531   0.397   0.431 -0.1801  0.3118  0.1520
  229MOL0     C31487   7.679   0.353   0.471 -0.0562 -0.4719 -0.3117
  229MOL0     O31488   7.686   0.206   0.489 -0.0827  0.2777 -0.1647
  229MOL0     C31489   7.812   0.152   0.484 -0.2076  0.4821  0.0274
  229MOL0     C31490   7.824   0.015   0.494  0.3404  0.1928 -0.5631
  229MOL0     C31491   7.933  -0.060   0.483 -0.2104 -0.2026 -0.1698
  229MOL0     C31492   7.927  -0.208   0.521  0.5732 -0.1562  0.3143
  229MOL0     C31493   8.057   0.014   0.473 -0.0358  0.5318  0.0387
  229MOL0     C31494   8.186  -0.049   0.441  0.1270  0.5147  0.3048
  229MOL0     O31495   8.304   0.002   0.497 -0.7071 -0.4114  0.7752
  229MOL0     C31496   8.425  -0.064   0.478 -0.5852 -0.3020 -0.0519
  229MOL0     C31497   8.511  -0.073   0.590 -0.4741  0.0862 -0.1888
  229MOL0     C31498   8.636  -0.124   0.573 -0.7347 -0.1554  0.3242
  229MOL0     C31499   8.688  -0.149   0.449  0.0150  0.1295  0.0575
  229MOL0     O31500   8.822  -0.172   0.436 -0.6859 -0.4346 -0.1162
  229MOL0     C31501   8.884  -0.205   0.308 -0.2819 -0.2444 -0.4392
  229MOL0     C31502   9.033  -0.159   0.319 -0.1273 -0.5698  0.0196
  229MOL0     C31503   9.131  -0.243   0.228 -0.4339 -0.9577 -0.3082
  229MOL0     C31504   9.117  -0.200   0.080 -0.4563 -0.2848 -0.8577
  229MOL0     C31505   9.230  -0.098   0.047 -0.5438 -0.0416  0.7471
  229MOL0     C31506   9.218  -0.002  -0.074  0.1271 -0.5358  0.8179
  229MOL0     C31507   9.319   0.122  -0.073  0.8810  0.1920  0.8894
  229MOL0     C31508   9.299   0.193  -0.214  0.6809  0.1345 -0.5484
  229MOL0    Cl31509   9.406   0.330  -0.232  0.0831  0.5437 -0.1329
  229MOL0     C31510   8.607  -0.140   0.342 -0.3030 -0.7365  0.9198
  229MOL0     C31511   8.475  -0.104   0.359 -0.7055  0.1709 -0.3177
  229MOL0     O31512   8.182  -0.134   0.356  0.1502  0.2556 -0.2232
  229MOL0     C31513   8.057   0.152   0.481  0.0001  1.0314 -0.5520
  229MOL0     C31514   7.929   0.219   0.484 -1.2939  0.3190 -0.1367
  229MOL0     N31515   7.451   0.795   0.245  1.0233 -0.4006  0.6280
  229MOL0     N31516   7.448   0.920   0.260  0.4880 -0.7710  0.2918
  229MOL0     C31517   6.258   1.322   0.354  0.9562 -0.4990  0.2652
  229MOL0     C31518   6.130   1.377   0.333  0.1698  0.1463 -0.3671
  229MOL0     C31519   5.665   1.329   0.379 -0.4975 -0.9899  0.6737
  229MOL0     C31520   5.577   1.293   0.479 -0.2062 -1.1981 -0.2270
  229MOL0     C31521   5.444   1.311   0.469 -0.2057 -0.2592  0.8473
  229MOL0     C31522   5.392   1.386   0.356 -0.1731  1.3569 -0.3603
  229MOL0     O31523   5.255   1.401   0.332 -0.2064 -0.2561 -0.4392
  229MOL0     C31524   5.167   1.308   0.400  0.6599 -0.6231  0.4995
  229MOL0     C31525   5.033   1.298   0.336 -0.4116 -0.2589  0.2499
  229MOL0     C31526   5.022   1.183   0.229 -0.0989 -0.4608 -0.5016
  229MOL0     C31527   4.900   1.201   0.137 -0.3055 -0.4310  0.5483
  229MOL0     C31528   4.893   1.083   0.043  0.0938 -0.6429  0.6861
  229MOL0     C31529   4.893   0.987  -0.026 -0.8685 -0.1190 -0.0693
  229MOL0     C31530   5.482   1.434   0.267  0.0876 -0.8945  0.1230
  229MOL0     C31531   5.616   1.409   0.266  0.1582 -0.2350 -0.1011
  229MOL0     C31532   5.700   1.435   0.145  0.3770  0.9007  0.6636
  229MOL0     H31533   5.951   1.091   0.305 -0.9295  1.9195 -1.8908
  229MOL0     H31534   6.192   0.998   0.290  1.8822  0.1614  1.5843
  229MOL0     H31535   6.425   1.155   0.561 -2.2972  2.2178 -1.8608
  229MOL0     H31536   6.533   1.264   0.462 -1.0766  0.6984  1.1028
  229MOL0     H31537   6.642   1.031   0.562  0.2252 -0.1066 -0.0353
  229MOL0     H31538   6.570   0.974   0.408  1.4968  0.2314 -0.9592
  229MOL0     H31539   6.697   1.140   0.284  0.2331 -2.2471 -0.5880
  229MOL0     H31540   6.766   1.216   0.427  0.7249  0.6874 -0.1257
  229MOL0     H31541   6.875   0.986   0.477 -0.4967 -0.5337 -0.4677
  229MOL0     H31542   6.824   0.953   0.305 -1.2950 -2.1288  2.3305
  229MOL0     H31543   6.969   1.211   0.347  0.4158  0.2976 -0.7591
  229MOL0     H31544   6.973   1.099   0.212  3.2085 -2.4966 -0.4603
  229MOL0     H31545   7.096   1.067   0.491  0.0183 -0.6287  0.1741
  229MOL0     H31546   7.100   0.937   0.375 -2.1780 -0.5094  1.4352
  229MOL0     H31547   7.182   1.230   0.341  1.7459 -0.4330 -3.0186
  229MOL0     H31548   7.204   1.097   0.219 -2.5986 -2.3749  0.0341
  229MOL0     H31549   7.393   1.169   0.339  1.4439 -0.1739  2.3704
  229MOL0     H31550   7.331   1.132   0.497 -2.1753  1.5172 -0.4231
  229MOL0     H31551   7.315   0.849   0.544 -3.3891  2.7798 -1.5735
  229MOL0     H31552   7.316   0.574   0.321 -1.8725  2.0350 -1.1694
  229MOL0     H31553   7.345   0.593   0.488 -3.6504  2.6445 -2.5273
  229MOL0     H31554   7.548   0.543   0.265  0.9137  0.1795  1.0945
  229MOL0     H31555   7.615   0.593   0.412 -0.0301  2.3726 -2.2381
  229MOL0     H31556   7.472   0.387   0.522  1.9987 -1.9391  1.4335
  229MOL0     H31557   7.487   0.327   0.359  0.5759 -0.2589  0.2343
  229MOL0     H31558   7.746   0.388   0.392  1.2808  0.2513  1.0862
  229MOL0     H31559   7.721   0.395   0.562  0.6371  0.2027 -0.9248
  229MOL0     H31560   7.724  -0.026   0.500  0.5683 -0.1673  1.5114
  229MOL0     H31561   7.856  -0.214   0.604 -0.7537  2.1314 -0.5548
  229MOL0     H31562   8.023  -0.246   0.557  1.6715  3.4470  1.6676
  229MOL0     H31563   7.897  -0.270   0.436  3.9619 -0.4157 -0.8088
  229MOL0     H31564   8.489  -0.035   0.689  1.9509 -2.7993  1.6371
  229MOL0     H31565   8.712  -0.125   0.650  0.4488  0.2726 -0.7949
  229MOL0     H31566   8.875  -0.312   0.291  2.0141 -0.4840 -0.3990
  229MOL0     H31567   8.839  -0.153   0.223 -0.6347 -0.4009 -0.3514
  229MOL0     H31568   9.039  -0.050   0.313  2.3173 -0.6751 -0.5279
  229MOL0     H31569   9.063  -0.183   0.421 -1.3331 -0.5474  0.4001
  229MOL0     H31570   9.106  -0.348   0.243 -1.4415 -0.4679  1.8647
  229MOL0     H31571   9.236  -0.228   0.255  0.4382  0.2732 -3.7880
  229MOL0     H31572   9.015  -0.180   0.045 -1.4492 -0.8003  1.5317
  229MOL0     H31573   9.152  -0.289   0.026  0.5213  0.1122 -0.8798
  229MOL0     H31574   9.245  -0.025   0.127  0.2949  3.8383 -2.5918
  229MOL0     H31575   9.323  -0.156   0.042 -1.2848 -1.5960  3.3560
  229MOL0     H31576   9.116   0.035  -0.065 -0.5589 -1.8201 -1.1040
  229MOL0     H31577   9.214  -0.052  -0.171 -2.0791 -1.1489  1.1578
  229MOL0     H31578   9.423   0.098  -0.049  1.3581  1.0934 -0.1529
  229MOL0     H31579   9.274   0.190   0.000  2.1503  1.6697  0.3528
  229MOL0     H31580   9.197   0.228  -0.226  0.4607 -0.8215 -1.6713
  229MOL0     H31581   9.312   0.126  -0.299 -2.8803 -0.7693 -0.5084
  229MOL0     H31582   8.639  -0.146   0.238  0.2052  0.8724  0.9515
  229MOL0     H31583   8.413  -0.106   0.270  1.8922 -2.7545 -2.3091
  229MOL0     H31584   8.152   0.203   0.467  0.5309  0.1770 -0.1174
  229MOL0     H31585   7.927   0.327   0.476 -1.4298  0.5582  2.2107
  229MOL0     H31586   6.337   1.396   0.355  0.2790  0.2318  0.8837
  229MOL0     H31587   6.123   1.485   0.330 -0.4660  0.1739  1.1798
  229MOL0     H31588   5.623   1.259   0.572 -0.2607  2.0385  1.1218
  229MOL0     H31589   5.390   1.279   0.557  0.8445  0.6850  1.8697
  229MOL0     H31590   5.214   1.209   0.396  1.3519 -0.2895  0.1929
  229MOL0     H31591   5.141   1.324   0.505  1.9839 -3.0647  1.2749
  229MOL0     H31592   5.006   1.394   0.290 -0.2315 -0.3227  0.0115
  229MOL0     H31593   4.964   1.279   0.419 -4.1846 -0.0052 -2.5569
  229MOL0     H31594   5.121   1.195   0.184 -0.8471  1.4099 -1.7410
  229MOL0     H31595   5.015   1.085   0.277  0.4237  0.8345  2.4784
  229MOL0     H31596   4.911   1.300   0.091  1.1835 -0.8489 -0.0544
  229MOL0     H31597   4.814   1.190   0.203  0.6646 -0.3188  1.8771
  229MOL0     H31598   4.891   0.900  -0.089  2.9235  1.7092 -3.0992
  229MOL0     H31599   5.451   1.504   0.189  0.8271  2.3929  2.5589
  229MOL0     H31600   5.737   1.341   0.103 -3.5459 -0.0455 -1.1693
  229MOL0     H31601   5.640   1.472   0.062 -0.1635  0.2147  0.7429
  229MOL0     H31602   5.771   1.514   0.171  0.0975  1.6907 -0.8861
  230MOL0     O31603   8.767  10.981   4.769  0.3416 -0.0673 -0.3095
  230MOL0     C31604   8.670  10.963   4.847  0.0312 -0.4571  1.3021
  230MOL0     O31605   8.666  10.871   4.957 -0.3060  0.2060 -0.3993
  230MOL0     C31606   8.775  10.791   4.974 -0.3493 -0.4292 -0.2637
  230MOL0     C31607   8.902  10.848   4.996  0.8352  0.3843  0.0075
  230MOL0     C31608   9.011  10.764   5.010 -0.0591 -0.0891 -0.2662
  230MOL0     C31609   8.992  10.624   5.017  0.1644 -0.4414  0.0852
  230MOL0     O31610   9.109  10.548   5.033 -0.1830 -0.5845  0.5916
  230MOL0     C31611   9.094  10.406   5.029  0.8549  0.0980  0.4307
  230MOL0     C31612   9.223  10.340   5.069  0.2200  0.1570  0.0659
  230MOL0     C31613   9.335  10.351   4.954 -0.1495  0.2622  0.6089
  230MOL0     C31614   9.452  10.275   4.994  0.2538  0.0292  0.0193
  230MOL0     C31615   9.557  10.295   4.890 -0.2939  0.2565  0.0900
  230MOL0     C31616   9.698  10.241   4.939 -0.4462 -0.2778  0.5878
  230MOL0     C31617   9.804  10.265   4.835 -0.7838 -0.1460  0.0692
  230MOL0     C31618   9.788  10.175   4.718  0.2002 -0.4133 -0.6231
  230MOL0     N31619   9.881  10.200   4.611 -0.3664  0.0356  0.9242
  230MOL0     C31620   9.910  10.317   4.546  0.4560  0.6265  0.3186
  230MOL0     C31621   9.993  10.284   4.450  0.9773  0.1692  0.0937
  230MOL0     C31622  10.043  10.381   4.349  0.6326 -0.8534 -0.2217
  230MOL0     C31623  10.160  10.452   4.418 -1.0229 -1.0647 -0.6845
  230MOL0     C31624  10.294  10.410   4.350  0.9006 -0.1796  0.3817
  230MOL0     C31625  10.422  10.481   4.394 -0.0341 -0.2095 -1.4648
  230MOL0     O31626  10.517  10.454   4.295  0.4484  0.9178 -0.3752
  230MOL0     C31627  10.642  10.506   4.306 -0.0622 -0.4690 -0.0542
  230MOL0     C31628  10.691  10.609   4.394  0.1433 -0.7184 -0.3487
  230MOL0     C31629  10.824  10.658   4.374  0.2169 -0.3111  0.1915
  230MOL0     C31630  10.870  10.781   4.452 -0.2660 -0.4373  0.1892
  230MOL0     C31631  10.908  10.594   4.273  0.2528  0.5811 -0.3969
  230MOL0     C31632  11.044  10.635   4.238 -0.6516 -0.6857  1.2552
  230MOL0     O31633  11.136  10.542   4.180  0.3150  0.1687 -0.2264
  230MOL0     C31634  11.264  10.582   4.135  0.3641  1.0155 -0.2685
  230MOL0     C31635  11.311  10.546   4.005 -0.0143  0.2284  0.4348
  230MOL0     C31636  11.441  10.567   3.966 -1.3014  0.6643  0.1735
  230MOL0     C31637  11.535  10.630   4.047  0.3627 -0.2128  0.0217
  230MOL0     O31638  11.665  10.650   4.004  0.7516  0.3989  0.4215
  230MOL0     C31639  11.764  10.695   4.101  0.7441  0.5765  0.1932
  230MOL0     C31640  11.908  10.699   4.040 -0.0304  0.1331  0.0675
  230MOL0     C31641  11.911  10.819   3.940 -0.3780 -0.4370 -0.0636
  230MOL0     C31642  12.043  10.817   3.853 -0.2211 -0.1639 -0.3604
  230MOL0     C31643  12.077  10.938   3.764 -0.1316  0.0034  0.4191
  230MOL0     C31644  11.958  11.002   3.698  0.3699 -0.8249 -0.4354
  230MOL0     C31645  11.991  11.130   3.618  0.2177  0.0357 -0.2441
  230MOL0     C31646  11.876  11.224   3.652  0.2594 -0.2478 -0.3101
  230MOL0    Cl31647  11.723  11.156   3.584 -0.3501  0.2664 -0.2428
  230MOL0     C31648  11.482  10.667   4.175  0.0403  0.2886 -0.5674
  230MOL0     C31649  11.355  10.640   4.218  0.9200  0.9484 -0.5337
  230MOL0     O31650  11.076  10.751   4.261 -0.1233  0.3927 -0.3626
  230MOL0     C31651  10.861  10.486   4.199  0.1975  0.2255  0.4593
  230MOL0     C31652  10.727  10.445   4.220  0.1661  0.0943 -0.5022
  230MOL0     N31653  10.011  10.143   4.445  0.4528 -0.4547  0.5559
  230MOL0     N31654   9.939  10.098   4.540 -0.5708  0.7180  1.0416
  230MOL0     C31655   8.860  10.573   5.001  0.0132 -0.2300  1.2193
  230MOL0     C31656   8.756  10.661   4.978 -0.8058 -0.5446 -0.4318
  230MOL0     C31657   8.555  11.049   4.837  0.5032  0.0602  0.8194
  230MOL0     C31658   8.463  11.057   4.946 -0.6859 -1.4957  0.7714
  230MOL0     C31659   8.352  11.149   4.949  0.7650  0.6323 -0.3210
  230MOL0     C31660   8.333  11.242   4.846 -0.5199 -0.4249 -0.0579
  230MOL0     O31661   8.215  11.313   4.848 -0.7194  0.9070 -0.2604
  230MOL0     C31662   8.177  11.417   4.763  0.3220 -0.4562 -0.0319
  230MOL0     C31663   8.074  11.513   4.825 -0.3626 -0.1346 -1.0501
  230MOL0     C31664   7.930  11.446   4.829 -0.2157 -1.2037  0.3356
  230MOL0     C31665   7.822  11.544   4.791  0.3639  0.0025  0.4247
  230MOL0     C31666   7.696  11.468   4.765  0.0608 -0.0845  0.8571
  230MOL0     C31667   7.603  11.404   4.722 -0.5492  0.4505  0.3181
  230MOL0     C31668   8.424  11.237   4.743 -0.4918 -0.1916 -0.0245
  230MOL0     C31669   8.540  11.153   4.736 -0.2092  0.4967  0.4024
  230MOL0     C31670   8.639  11.171   4.617  0.0017 -1.0768  0.1812
  230MOL0     H31671   8.927  10.953   5.000 -0.2397  0.6234  1.0040
  230MOL0     H31672   9.110  10.808   5.023 -0.3208 -0.0106  1.6882
  230MOL0     H31673   9.065  10.373   4.929  0.4170  2.4230 -0.2687
  230MOL0     H31674   9.014  10.368   5.094 -0.5263 -0.2539 -1.3965
  230MOL0     H31675   9.260  10.376   5.165  0.2332 -4.2708  1.9339
  230MOL0     H31676   9.205  10.235   5.094  1.6761 -0.8484 -2.6808
  230MOL0     H31677   9.287  10.325   4.860 -0.5886 -0.9018  1.1347
  230MOL0     H31678   9.376  10.452   4.943  1.5671 -0.6254 -1.9978
  230MOL0     H31679   9.486  10.307   5.093 -2.8514 -0.8746  1.4942
  230MOL0     H31680   9.418  10.174   5.020 -3.8849  1.4798  0.8942
  230MOL0     H31681   9.554  10.404   4.881  0.4221  0.2142 -0.8184
  230MOL0     H31682   9.534  10.249   4.793  2.2248  0.1558 -0.5225
  230MOL0     H31683   9.728  10.303   5.023  1.8346 -0.3711 -0.0949
  230MOL0     H31684   9.698  10.135   4.965  0.2647 -0.0897  1.3844
  230MOL0     H31685   9.901  10.239   4.877 -1.3913 -0.1575  1.5285
  230MOL0     H31686   9.814  10.367   4.797 -0.2330  0.3053  1.3526
  230MOL0     H31687   9.798  10.069   4.741  0.0889  0.2153  2.7965
  230MOL0     H31688   9.687  10.193   4.679  0.5059  3.0809 -0.1913
  230MOL0     H31689   9.873  10.417   4.567 -2.3802  0.1378 -1.7078
  230MOL0     H31690   9.958  10.445   4.321  0.8562 -0.9465 -1.1439
  230MOL0     H31691  10.070  10.344   4.250 -1.0682  1.9511 -1.8799
  230MOL0     H31692  10.142  10.559   4.405  2.5532 -0.5173 -2.3024
  230MOL0     H31693  10.160  10.434   4.526 -0.2355 -1.5271 -0.7458
  230MOL0     H31694  10.306  10.301   4.349  1.1981 -0.2651 -3.5940
  230MOL0     H31695  10.270  10.445   4.249 -1.0328  1.5828  1.3857
  230MOL0     H31696  10.414  10.590   4.396  0.4528 -0.1647 -1.7162
  230MOL0     H31697  10.447  10.444   4.493 -0.7318  0.2953 -1.0891
  230MOL0     H31698  10.629  10.671   4.458 -0.6522  0.4425 -2.1452
  230MOL0     H31699  10.964  10.769   4.507 -0.1713 -3.7178 -0.4457
  230MOL0     H31700  10.792  10.803   4.525 -0.2351  1.6496 -0.3520
  230MOL0     H31701  10.860  10.874   4.396 -0.8359 -0.2794  0.5512
  230MOL0     H31702  11.241  10.492   3.943 -0.3238  0.5688  0.4838
  230MOL0     H31703  11.479  10.544   3.867 -5.0622  0.5898 -1.4185
  230MOL0     H31704  11.740  10.796   4.134  0.0777  0.2626  0.6970
  230MOL0     H31705  11.756  10.625   4.185  0.1483 -0.4984 -0.7258
  230MOL0     H31706  11.989  10.696   4.113  2.1281  0.0069 -2.1984
  230MOL0     H31707  11.905  10.607   3.981 -2.1175  1.0341 -1.3591
  230MOL0     H31708  11.913  10.913   3.995  0.7778 -0.2420 -0.4163
  230MOL0     H31709  11.827  10.813   3.870 -2.0871 -0.6516  1.9146
  230MOL0     H31710  12.041  10.726   3.792  2.5212 -0.4957 -0.0685
  230MOL0     H31711  12.130  10.792   3.915 -0.9396 -2.0405 -0.0307
  230MOL0     H31712  12.131  11.012   3.823  0.7934  0.6768 -1.2357
  230MOL0     H31713  12.149  10.913   3.686  0.5303  2.5175  0.1523
  230MOL0     H31714  11.901  11.032   3.786  0.2078  2.0395 -1.4171
  230MOL0     H31715  11.906  10.933   3.630 -0.3345  1.7939 -2.7456
  230MOL0     H31716  12.006  11.093   3.516 -1.4401  1.0298 -0.8925
  230MOL0     H31717  12.087  11.162   3.662  0.5402  0.2295 -1.0735
  230MOL0     H31718  11.901  11.315   3.597 -1.7655 -0.2508 -1.3078
  230MOL0     H31719  11.869  11.249   3.759 -1.9722 -0.7432 -0.2942
  230MOL0     H31720  11.539  10.706   4.259 -0.0962 -0.7243  0.0086
  230MOL0     H31721  11.327  10.653   4.322  0.0559 -0.0449 -0.6302
  230MOL0     H31722  10.914  10.436   4.118  1.1827 -0.5999  1.5714
  230MOL0     H31723  10.695  10.366   4.153  0.6379  0.5795 -1.3063
  230MOL0     H31724   8.830  10.469   5.006  0.0243 -0.4853 -2.0832
  230MOL0     H31725   8.659  10.615   4.968 -1.2399  0.1844  0.3048
  230MOL0     H31726   8.475  10.990   5.030 -1.7970 -3.1090 -0.2795
  230MOL0     H31727   8.275  11.136   5.025  1.5089  0.4556  0.4162
  230MOL0     H31728   8.260  11.482   4.734 -0.1293  0.3728  0.4962
  230MOL0     H31729   8.137  11.371   4.672 -0.2416 -1.4545  0.6997
  230MOL0     H31730   8.067  11.609   4.774  2.8060  1.0517  0.4935
  230MOL0     H31731   8.108  11.541   4.925 -0.9823 -0.5124 -0.7294
  230MOL0     H31732   7.921  11.363   4.758 -1.2839  2.3877 -4.2651
  230MOL0     H31733   7.899  11.400   4.923 -1.7330 -0.1010  0.3993
  230MOL0     H31734   7.840  11.601   4.700  2.2512 -0.8535  0.2181
  230MOL0     H31735   7.812  11.620   4.870  1.1173 -0.3571  0.8767
  230MOL0     H31736   7.527  11.338   4.685  2.2850 -2.2180 -1.1952
  230MOL0     H31737   8.414  11.320   4.673  0.5931  1.0540  1.2217
  230MOL0     H31738   8.613  11.265   4.566  2.0847  0.5231  1.8854
  230MOL0     H31739   8.741  11.190   4.651 -0.1385 -2.2564  1.3364
  230MOL0     H31740   8.656  11.093   4.542  1.5334  1.8445 -2.7821
  231MOL0     O31741   2.880   3.769   2.588 -0.0937  0.3674 -0.0132
  231MOL0     C31742   2.897   3.890   2.572  0.2971  0.4035 -0.6556
  231MOL0     O31743   2.912   3.985   2.671  0.1826  0.2248  0.0184
  231MOL0     C31744   2.949   3.946   2.792 -0.4213 -0.4608 -0.2673
  231MOL0     C31745   3.080   3.916   2.824  0.3011 -0.4319  0.5144
  231MOL0     C31746   3.126   3.901   2.959 -0.6183  0.0968  0.0666
  231MOL0     C31747   3.031   3.900   3.060  0.1600 -0.1894  0.4180
  231MOL0     O31748   3.061   3.888   3.193  0.6789  0.4717 -0.4492
  231MOL0     C31749   3.174   3.817   3.237  0.4871  0.0550  0.2086
  231MOL0     C31750   3.190   3.819   3.388  0.3523  1.4212  0.5595
  231MOL0     C31751   3.175   3.947   3.454  0.1373 -0.2724 -0.0759
  231MOL0     C31752   3.198   3.940   3.609 -1.0782 -0.3876 -0.8365
  231MOL0     C31753   3.191   4.077   3.676  0.0796 -0.6591  0.6232
  231MOL0     C31754   3.323   4.144   3.701 -0.1185  0.1295 -0.3620
  231MOL0     C31755   3.311   4.260   3.803  0.9154  0.8197  0.1543
  231MOL0     C31756   3.450   4.326   3.844 -0.8059  0.1520  0.3759
  231MOL0     N31757   3.438   4.455   3.906  0.4082 -1.1487 -0.0040
  231MOL0     C31758   3.403   4.579   3.850  0.4565 -0.0957  0.1956
  231MOL0     C31759   3.399   4.669   3.949  0.6178  0.4723  0.0807
  231MOL0     C31760   3.385   4.817   3.944  1.3334  0.5862  0.3858
  231MOL0     C31761   3.517   4.889   3.924  0.7611 -0.0299 -0.6124
  231MOL0     C31762   3.607   4.886   4.060 -0.3484 -0.1612  0.4720
  231MOL0     C31763   3.542   4.916   4.193  0.5247 -0.0523 -0.1588
  231MOL0     O31764   3.648   4.945   4.277  0.5090  0.0380 -0.8573
  231MOL0     C31765   3.720   4.847   4.337  0.3578 -0.2776  0.0792
  231MOL0     C31766   3.809   4.899   4.432 -0.1708  0.4693  0.9168
  231MOL0     C31767   3.899   4.814   4.504 -0.1031 -0.3660  0.0999
  231MOL0     C31768   3.994   4.879   4.602 -0.1454 -0.4171 -0.7233
  231MOL0     C31769   3.882   4.676   4.482 -0.0479  0.0402 -0.7630
  231MOL0     C31770   3.977   4.584   4.541  0.4579 -0.1573  0.6465
  231MOL0     O31771   4.104   4.621   4.507  0.8485  0.0339 -0.9020
  231MOL0     C31772   4.204   4.530   4.544  0.2995  0.0464 -0.8000
  231MOL0     C31773   4.322   4.538   4.462  0.2757 -0.5358 -1.4020
  231MOL0     C31774   4.427   4.458   4.485 -1.1491  0.1612  0.2858
  231MOL0     C31775   4.425   4.361   4.583  0.3640  0.6932  0.5212
  231MOL0     O31776   4.529   4.276   4.591 -0.2722  0.0651  0.1470
  231MOL0     C31777   4.646   4.343   4.639  0.7517  0.0878 -0.7494
  231MOL0     C31778   4.756   4.244   4.639 -0.3356  0.3028 -0.1477
  231MOL0     C31779   4.888   4.321   4.664  0.2043 -0.1246 -0.6673
  231MOL0     C31780   5.007   4.220   4.661 -0.1968 -0.0334  0.7061
  231MOL0     C31781   5.139   4.292   4.695  0.5075 -0.0308  0.7673
  231MOL0     C31782   5.260   4.205   4.678 -0.1377 -1.0074 -0.1898
  231MOL0     C31783   5.384   4.247   4.766  0.3265 -0.1020 -0.0706
  231MOL0     C31784   5.500   4.272   4.682  0.1623  0.5511 -0.3543
  231MOL0    Cl31785   5.650   4.266   4.768 -0.0179 -0.1307 -0.3124
  231MOL0     C31786   4.319   4.346   4.664  0.1343  0.5357 -0.0663
  231MOL0     C31787   4.211   4.431   4.648  0.6933  0.1867 -0.2671
  231MOL0     O31788   3.942   4.475   4.587 -0.4736  0.0523 -0.4656
  231MOL0     C31789   3.777   4.622   4.405 -0.3742 -0.9411  0.2992
  231MOL0     C31790   3.691   4.709   4.337  0.3593  0.0765  0.2984
  231MOL0     N31791   3.426   4.597   4.070  0.2895  0.2175  0.2266
  231MOL0     N31792   3.437   4.473   4.037 -0.0394 -0.1012  0.6637
  231MOL0     C31793   2.897   3.932   3.025  0.1109  0.1982 -0.2155
  231MOL0     C31794   2.861   3.963   2.897  0.0532  0.0261 -0.2939
  231MOL0     C31795   2.904   3.938   2.429  0.0097 -0.4844  0.0405
  231MOL0     C31796   2.815   3.884   2.333 -0.5030  0.2039  0.3943
  231MOL0     C31797   2.819   3.927   2.195 -0.2885 -0.6238 -0.7308
  231MOL0     C31798   2.908   4.026   2.168  0.3843 -0.5587  0.4660
  231MOL0     O31799   2.923   4.084   2.040 -0.8630 -0.2715 -0.5255
  231MOL0     C31800   2.807   4.082   1.953  0.1501  0.6338  0.2121
  231MOL0     C31801   2.799   4.212   1.872 -0.7407 -0.3972 -0.2326
  231MOL0     C31802   2.892   4.217   1.754  0.2225  0.7726 -0.7041
  231MOL0     C31803   2.809   4.247   1.635  1.1611  0.3583  0.2874
  231MOL0     C31804   2.887   4.265   1.513  0.1974  0.2515  0.1065
  231MOL0     C31805   2.943   4.273   1.406 -0.0314  0.5236 -0.7065
  231MOL0     C31806   2.992   4.082   2.268  0.3383 -0.8988  0.7390
  231MOL0     C31807   2.986   4.043   2.396  0.1338 -0.2801  0.4607
  231MOL0     C31808   3.102   4.098   2.475 -0.8026  0.0385 -0.1523
  231MOL0     H31809   3.154   3.906   2.746 -0.3685 -1.1597 -0.0478
  231MOL0     H31810   3.232   3.893   2.982 -0.5792  3.9803  2.0094
  231MOL0     H31811   3.266   3.848   3.187  1.1447 -2.0340  0.0254
  231MOL0     H31812   3.146   3.719   3.199 -3.3540  1.3433 -0.7397
  231MOL0     H31813   3.116   3.746   3.423  1.5005 -0.6213 -1.0758
  231MOL0     H31814   3.280   3.764   3.414 -1.0998 -2.9952 -2.6040
  231MOL0     H31815   3.258   4.007   3.417  1.4235 -0.7481  1.8698
  231MOL0     H31816   3.074   3.983   3.433 -0.3342 -1.7368 -0.4253
  231MOL0     H31817   3.123   3.870   3.647  0.6838 -0.8294  2.1177
  231MOL0     H31818   3.292   3.890   3.635 -1.6248 -2.1553 -2.0555
  231MOL0     H31819   3.130   4.079   3.766  0.4532  2.1829  0.9218
  231MOL0     H31820   3.136   4.144   3.607 -0.7738 -0.2074  1.7098
  231MOL0     H31821   3.384   4.071   3.754 -1.4042 -0.2489  0.6495
  231MOL0     H31822   3.371   4.179   3.609 -0.4198  0.0313 -0.5564
  231MOL0     H31823   3.257   4.223   3.891  3.0400 -0.0486  1.1637
  231MOL0     H31824   3.261   4.338   3.744  3.0032  1.0427 -1.4409
  231MOL0     H31825   3.487   4.262   3.924  1.0477  2.8351  1.8329
  231MOL0     H31826   3.522   4.340   3.762  1.6660 -1.1815  2.1674
  231MOL0     H31827   3.402   4.608   3.745 -0.3425 -1.6085 -0.2494
  231MOL0     H31828   3.337   4.846   4.038  1.3716  1.2790  0.1945
  231MOL0     H31829   3.328   4.846   3.855 -0.8387 -0.3829  1.3689
  231MOL0     H31830   3.583   4.857   3.842  1.5061  0.1186 -0.0830
  231MOL0     H31831   3.504   4.996   3.902 -2.3671 -0.4708 -1.2707
  231MOL0     H31832   3.659   4.791   4.075 -0.0207 -0.1469 -0.4547
  231MOL0     H31833   3.687   4.958   4.040  0.2089 -1.0191 -0.5413
  231MOL0     H31834   3.469   4.997   4.196  0.3181 -0.2125 -0.6706
  231MOL0     H31835   3.491   4.827   4.230 -0.3501  1.3435  2.1424
  231MOL0     H31836   3.825   5.006   4.443 -0.4500  0.4500  1.5706
  231MOL0     H31837   4.092   4.832   4.619  1.0200  2.4931  1.3982
  231MOL0     H31838   3.944   4.863   4.698  0.9125  1.0525  0.1097
  231MOL0     H31839   4.002   4.987   4.589 -1.0108 -0.1268  0.8060
  231MOL0     H31840   4.316   4.607   4.379 -3.3381  2.1275  0.7701
  231MOL0     H31841   4.512   4.477   4.420 -0.4624 -0.7093  0.8986
  231MOL0     H31842   4.662   4.427   4.571 -2.4272  2.1145  0.7736
  231MOL0     H31843   4.624   4.377   4.740  2.3783 -2.2795  0.4938
  231MOL0     H31844   4.737   4.163   4.710 -1.0634 -1.6086 -2.4019
  231MOL0     H31845   4.752   4.200   4.539 -0.8652 -2.8774  1.1515
  231MOL0     H31846   4.886   4.377   4.758  1.8298 -2.0923  0.6273
  231MOL0     H31847   4.906   4.386   4.578  0.0628 -1.7008 -1.9380
  231MOL0     H31848   5.012   4.185   4.558 -0.0355  2.6773 -0.2895
  231MOL0     H31849   4.974   4.133   4.720 -0.6688  0.0809  0.6145
  231MOL0     H31850   5.159   4.383   4.638  2.8464 -0.2313  1.1848
  231MOL0     H31851   5.127   4.323   4.800 -0.8847  0.8498  0.3835
  231MOL0     H31852   5.286   4.190   4.573 -1.0948  3.3906 -1.2317
  231MOL0     H31853   5.238   4.106   4.719 -1.0707 -1.1396 -0.9719
  231MOL0     H31854   5.410   4.163   4.831 -0.0008 -0.8918 -0.9372
  231MOL0     H31855   5.357   4.328   4.834  0.7129  0.4730 -0.5895
  231MOL0     H31856   5.489   4.364   4.623 -0.4236 -0.7298 -2.3469
  231MOL0     H31857   5.495   4.187   4.614  0.1473 -0.3102  0.6974
  231MOL0     H31858   4.314   4.267   4.739  0.0840  1.7852  1.2766
  231MOL0     H31859   4.133   4.442   4.723  0.8714  1.6941 -0.2717
  231MOL0     H31860   3.762   4.514   4.397 -0.2874 -1.0183  1.1620
  231MOL0     H31861   3.619   4.662   4.271  1.6370  0.7946 -1.6878
  231MOL0     H31862   2.818   3.940   3.100  0.3399  0.6063 -0.0149
  231MOL0     H31863   2.762   4.000   2.871  0.8694  2.9237  0.3757
  231MOL0     H31864   2.739   3.814   2.367 -0.5574 -0.5043 -1.1198
  231MOL0     H31865   2.766   3.877   2.115  1.4712 -1.2527 -1.5477
  231MOL0     H31866   2.821   4.002   1.880 -1.9945 -2.4925  2.8926
  231MOL0     H31867   2.724   4.068   2.023 -0.5946  0.0524 -0.7619
  231MOL0     H31868   2.814   4.292   1.945  0.2847 -0.1600 -0.6784
  231MOL0     H31869   2.694   4.234   1.849 -1.4063  0.2614  2.9555
  231MOL0     H31870   2.951   4.308   1.774 -1.8704  1.8153  1.2661
  231MOL0     H31871   2.954   4.127   1.750  1.2640  1.3597  1.0449
  231MOL0     H31872   2.751   4.336   1.660 -0.3409 -0.7844  1.0308
  231MOL0     H31873   2.743   4.160   1.626  0.0512  1.0866  1.1407
  231MOL0     H31874   3.009   4.292   1.324  0.8970 -0.8650 -0.3163
  231MOL0     H31875   3.059   4.161   2.234  1.6814 -3.6710 -3.9101
  231MOL0     H31876   3.163   4.160   2.408  2.3036 -1.8477  0.6936
  231MOL0     H31877   3.079   4.168   2.555 -0.4063  1.2235 -1.0450
  231MOL0     H31878   3.171   4.023   2.516 -0.6050  0.2132 -0.1630
  232MOL0     O31879   8.523   8.400   1.303  0.0716  0.7061  0.0220
  232MOL0     C31880   8.415   8.359   1.259  1.0077  0.6904 -0.3335
  232MOL0     O31881   8.405   8.273   1.156 -1.1669  0.4021  0.1705
  232MOL0     C31882   8.498   8.262   1.053 -0.0827 -0.5973  0.8998
  232MOL0     C31883   8.600   8.358   1.022  0.5279 -0.2940 -0.4758
  232MOL0     C31884   8.686   8.338   0.921 -0.6462  1.2867  0.4972
  232MOL0     C31885   8.680   8.226   0.840 -0.9977 -0.1194  1.0422
  232MOL0     O31886   8.750   8.220   0.722  0.1425  0.4929  0.0694
  232MOL0     C31887   8.891   8.215   0.726  0.2474  0.0197 -0.3199
  232MOL0     C31888   8.950   8.090   0.799 -0.1919  0.5267 -0.5865
  232MOL0     C31889   8.888   7.966   0.752  0.7353  0.3312  0.2117
  232MOL0     C31890   8.891   7.866   0.868 -0.3540  0.1791  0.0678
  232MOL0     C31891   8.816   7.738   0.829 -0.6017  0.1012  0.9046
  232MOL0     C31892   8.811   7.647   0.951  0.5724  0.7711 -0.5455
  232MOL0     C31893   8.722   7.524   0.928 -0.4082  0.3210 -0.1681
  232MOL0     C31894   8.695   7.441   1.055  0.9956  0.0066  0.1594
  232MOL0     N31895   8.633   7.304   1.045 -0.3846  0.0411 -0.0977
  232MOL0     C31896   8.568   7.255   0.931  1.3252 -0.7096 -0.2321
  232MOL0     C31897   8.537   7.127   0.956  0.2563  0.4736 -0.0413
  232MOL0     C31898   8.465   7.038   0.859 -1.1136 -0.7740  1.1334
  232MOL0     C31899   8.566   6.948   0.792 -0.1652  0.5365  0.1954
  232MOL0     C31900   8.493   6.864   0.688 -0.7292 -0.4501 -1.3260
  232MOL0     C31901   8.576   6.790   0.602  0.5688 -0.7860 -0.5408
  232MOL0     O31902   8.667   6.866   0.530  1.0979 -0.7919 -0.2608
  232MOL0     C31903   8.677   6.841   0.397 -1.3034  0.0355  0.8262
  232MOL0     C31904   8.600   6.899   0.297  0.5341  0.4046  0.2168
  232MOL0     C31905   8.636   6.892   0.162 -0.2618  0.5789  0.0218
  232MOL0     C31906   8.549   6.965   0.067 -0.0926 -1.2681 -0.3193
  232MOL0     C31907   8.760   6.825   0.127  0.3468  0.3914 -0.4712
  232MOL0     C31908   8.799   6.812  -0.014 -0.9737 -0.1931  0.7435
  232MOL0     O31909   8.735   6.878  -0.110  0.2747  0.8871  0.3076
  232MOL0     C31910   8.798   6.904  -0.232 -0.2652  0.4401 -0.0697
  232MOL0     C31911   8.726   6.869  -0.348 -0.8111 -0.5104  1.1426
  232MOL0     C31912   8.792   6.893  -0.470  0.0607  0.4335 -0.0063
  232MOL0     C31913   8.922   6.949  -0.483 -0.9418 -0.0220  0.8521
  232MOL0     O31914   8.960   6.975  -0.612  0.1167  0.2240  0.1738
  232MOL0     C31915   9.095   7.010  -0.628  0.3626  0.0448  0.2128
  232MOL0     C31916   9.112   7.073  -0.770 -0.4287  0.0429  0.0004
  232MOL0     C31917   9.256   7.088  -0.808  0.6653 -0.9496  0.1641
  232MOL0     C31918   9.275   7.191  -0.919  0.1985 -0.0728  0.2358
  232MOL0     C31919   9.418   7.213  -0.943 -0.5260  0.9614  0.6554
  232MOL0     C31920   9.452   7.309  -1.057 -1.4443 -0.0766 -0.1155
  232MOL0     C31921   9.610   7.319  -1.073 -0.9018 -0.0143 -1.0508
  232MOL0     C31922   9.641   7.423  -1.170  0.1566  0.1372  0.4239
  232MOL0    Cl31923   9.812   7.468  -1.211  0.1291  0.0915  0.1688
  232MOL0     C31924   8.995   6.974  -0.368  0.1123  0.5138  0.9934
  232MOL0     C31925   8.931   6.964  -0.240  0.3219  0.0881 -0.1117
  232MOL0     O31926   8.904   6.747  -0.039 -0.1084  0.4295 -1.0378
  232MOL0     C31927   8.833   6.758   0.228 -0.6052  1.5881  0.3237
  232MOL0     C31928   8.789   6.776   0.360  0.2086  0.2269 -0.3566
  232MOL0     N31929   8.586   7.094   1.082  0.7546 -0.3967  0.4576
  232MOL0     N31930   8.657   7.197   1.121 -0.0680 -0.4211 -0.1849
  232MOL0     C31931   8.582   8.126   0.868 -0.2008 -0.2851 -0.4293
  232MOL0     C31932   8.494   8.142   0.974  0.9985 -0.0279  0.0572
  232MOL0     C31933   8.286   8.408   1.311  0.2703  0.3666 -0.6251
  232MOL0     C31934   8.172   8.328   1.296  0.6397  0.2226 -0.7439
  232MOL0     C31935   8.049   8.359   1.349 -0.0776 -0.4697  0.1725
  232MOL0     C31936   8.028   8.489   1.385  0.5282  0.6777 -0.4879
  232MOL0     O31937   7.918   8.537   1.455 -0.0032 -0.0107 -0.2357
  232MOL0     C31938   7.834   8.436   1.517 -0.5789 -0.6537  0.5869
  232MOL0     C31939   7.721   8.509   1.603  0.6991  1.1728 -0.5741
  232MOL0     C31940   7.622   8.592   1.521 -0.7533 -0.3021  0.3311
  232MOL0     C31941   7.515   8.655   1.611 -0.4653  0.1943  0.2517
  232MOL0     C31942   7.406   8.559   1.639 -0.1816 -0.5818  0.4825
  232MOL0     C31943   7.306   8.488   1.659 -0.0648  0.2658  0.2890
  232MOL0     C31944   8.133   8.576   1.393  0.4333 -0.3833 -0.1626
  232MOL0     C31945   8.266   8.537   1.357  0.7611  0.2399 -0.6446
  232MOL0     C31946   8.358   8.653   1.390 -1.0986 -0.5518 -0.1042
  232MOL0     H31947   8.603   8.449   1.081 -0.6824  0.2933 -1.2780
  232MOL0     H31948   8.769   8.403   0.895  1.8471 -2.7139 -2.8684
  232MOL0     H31949   8.938   8.306   0.766  0.8415  0.0888 -1.1493
  232MOL0     H31950   8.920   8.213   0.620 -0.4548  0.8384 -0.5406
  232MOL0     H31951   9.057   8.095   0.778  0.0320  1.3526  0.7009
  232MOL0     H31952   8.947   8.105   0.907  2.2973  0.3790 -0.4534
  232MOL0     H31953   8.784   7.983   0.721 -0.5333  2.5416  4.7528
  232MOL0     H31954   8.943   7.928   0.665 -0.0439 -0.7354  0.1554
  232MOL0     H31955   8.997   7.856   0.895 -0.2623  0.8013 -0.0310
  232MOL0     H31956   8.834   7.907   0.951 -1.5859 -0.1279 -0.6103
  232MOL0     H31957   8.871   7.689   0.748 -0.8283  0.6217  0.4256
  232MOL0     H31958   8.718   7.764   0.788 -0.7102  1.1997  1.8303
  232MOL0     H31959   8.911   7.615   0.980 -0.6193 -0.5370  2.5895
  232MOL0     H31960   8.776   7.700   1.040  1.1797  3.6836 -1.9363
  232MOL0     H31961   8.767   7.460   0.850 -1.2051 -2.1420  1.2740
  232MOL0     H31962   8.625   7.554   0.888  0.3043  0.2556 -2.0937
  232MOL0     H31963   8.794   7.433   1.101  1.0576 -0.5152 -0.0570
  232MOL0     H31964   8.634   7.496   1.127 -1.7788  0.6793 -2.4978
  232MOL0     H31965   8.535   7.303   0.840 -1.1398  1.2962  1.5500
  232MOL0     H31966   8.416   7.108   0.790  1.5954 -1.2794 -1.5288
  232MOL0     H31967   8.397   6.977   0.919 -0.4001  0.0421  2.8783
  232MOL0     H31968   8.637   7.020   0.750  2.1143 -1.2292  0.8138
  232MOL0     H31969   8.617   6.878   0.859  2.1467  0.6768 -1.3050
  232MOL0     H31970   8.434   6.785   0.736  1.0937  0.2415  2.4215
  232MOL0     H31971   8.434   6.932   0.626 -0.1377  0.9621 -0.3926
  232MOL0     H31972   8.642   6.733   0.668 -1.8498 -0.3771  2.4703
  232MOL0     H31973   8.501   6.740   0.540 -3.4166  1.9463  1.6114
  232MOL0     H31974   8.509   6.953   0.321 -0.5322 -1.0125 -0.4804
  232MOL0     H31975   8.595   7.051   0.018 -1.2417  1.2702  2.6749
  232MOL0     H31976   8.467   7.015   0.120  1.5028  0.0353  1.0555
  232MOL0     H31977   8.508   6.904  -0.014  1.7795 -0.1409 -2.2082
  232MOL0     H31978   8.621   6.839  -0.355 -0.3461 -1.9534 -0.4483
  232MOL0     H31979   8.735   6.865  -0.558 -1.3645 -1.4325  1.4177
  232MOL0     H31980   9.130   7.092  -0.565  0.5392  1.3842 -1.5401
  232MOL0     H31981   9.164   6.926  -0.625 -0.1496 -0.3703  0.5450
  232MOL0     H31982   9.070   7.001  -0.841 -3.1925  0.6608  0.9220
  232MOL0     H31983   9.059   7.168  -0.781  0.5076  0.3836 -2.4628
  232MOL0     H31984   9.298   6.991  -0.836 -2.1157 -1.9153 -1.0087
  232MOL0     H31985   9.308   7.125  -0.719 -1.8206 -1.5571  1.9802
  232MOL0     H31986   9.227   7.287  -0.897 -1.6204 -0.9597  0.3138
  232MOL0     H31987   9.222   7.153  -1.007  0.6659  1.7947 -0.9060
  232MOL0     H31988   9.466   7.250  -0.852  0.4643 -1.0885  1.0153
  232MOL0     H31989   9.470   7.120  -0.967  1.3729  2.0856  0.2177
  232MOL0     H31990   9.406   7.406  -1.037 -1.8120 -0.5077  1.1979
  232MOL0     H31991   9.411   7.263  -1.147 -1.7249 -1.7169  0.8089
  232MOL0     H31992   9.667   7.230  -1.104 -0.2449 -0.6467  1.6845
  232MOL0     H31993   9.659   7.340  -0.978  2.2717 -0.7834 -2.3833
  232MOL0     H31994   9.583   7.513  -1.146 -2.7323 -1.5240  0.1630
  232MOL0     H31995   9.599   7.387  -1.264  0.9992 -0.8936  0.4310
  232MOL0     H31996   9.091   7.023  -0.366  1.9654 -2.7159 -1.0671
  232MOL0     H31997   8.974   7.005  -0.149  0.4420  0.1762 -0.2072
  232MOL0     H31998   8.921   6.701   0.198 -2.2151 -0.3185 -1.0156
  232MOL0     H31999   8.849   6.720   0.431 -0.4527  0.9637  0.8191
  232MOL0     H32000   8.553   8.043   0.805 -2.1712 -1.0471  1.3443
  232MOL0     H32001   8.422   8.064   0.995  0.6634  0.4822  0.8708
  232MOL0     H32002   8.172   8.228   1.254 -1.1655 -2.2738  4.2421
  232MOL0     H32003   7.960   8.297   1.346 -0.6459  0.1625  2.1567
  232MOL0     H32004   7.791   8.383   1.432  1.5369 -1.3217 -0.1404
  232MOL0     H32005   7.895   8.380   1.589 -0.6640 -0.2179  1.0078
  232MOL0     H32006   7.768   8.582   1.671  3.1107  0.3286 -1.2250
  232MOL0     H32007   7.665   8.425   1.645 -0.4478  1.0077 -2.3327
  232MOL0     H32008   7.679   8.677   1.480  0.6165 -1.8041 -1.0632
  232MOL0     H32009   7.579   8.533   1.439 -1.9562 -0.1513  0.8374
  232MOL0     H32010   7.479   8.741   1.554 -0.8420 -0.5420 -0.6409
  232MOL0     H32011   7.549   8.686   1.710 -0.6637  2.6553 -0.3899
  232MOL0     H32012   7.219   8.427   1.674 -0.8431  1.2940  0.1230
  232MOL0     H32013   8.116   8.678   1.426 -1.8735 -0.9102  0.4738
  232MOL0     H32014   8.447   8.611   1.438 -1.5439 -1.7231 -0.2800
  232MOL0     H32015   8.385   8.710   1.300 -1.1641 -0.0423  0.1911
  232MOL0     H32016   8.307   8.729   1.451 -1.6026  0.5597 -1.8426
  233MOL0     O32017   8.940   9.927   5.383 -0.0839 -0.0760 -0.1473
  233MOL0     C32018   8.909   9.814   5.339  0.6061  0.3239  0.3977
  233MOL0     O32019   8.992   9.720   5.282 -0.5113 -0.5814  0.1340
  233MOL0     C32020   9.121   9.759   5.251 -0.5539  0.5409  0.3568
  233MOL0     C32021   9.148   9.835   5.136  0.6333  0.4335  0.1012
  233MOL0     C32022   9.277   9.866   5.087 -0.7251 -0.6142  0.0246
  233MOL0     C32023   9.386   9.817   5.150  0.1634 -0.5243  0.3906
  233MOL0     O32024   9.519   9.839   5.107 -0.3670  0.0098  0.2865
  233MOL0     C32025   9.529   9.875   4.965 -0.6370 -0.3095 -0.2284
  233MOL0     C32026   9.679   9.862   4.925  0.8288  0.1493 -0.0309
  233MOL0     C32027   9.714   9.714   4.890 -0.5082 -0.5796 -0.3652
  233MOL0     C32028   9.697   9.707   4.736 -0.0326 -0.6861 -0.6895
  233MOL0     C32029   9.812   9.759   4.641 -0.6063 -0.3451  0.1105
  233MOL0     C32030   9.934   9.667   4.632 -0.3067  0.3648 -1.5692
  233MOL0     C32031  10.020   9.699   4.510  0.3119  0.1901  0.0848
  233MOL0     C32032  10.153   9.619   4.495 -0.4241  0.7341  0.3322
  233MOL0     N32033  10.240   9.667   4.383  0.0851 -0.3205 -0.1839
  233MOL0     C32034  10.338   9.584   4.339 -1.3325  0.4878 -0.1374
  233MOL0     C32035  10.440   9.656   4.296 -0.5999  0.4569 -0.7988
  233MOL0     C32036  10.576   9.608   4.257  0.6176 -0.4338 -0.0533
  233MOL0     C32037  10.659   9.595   4.394  0.7292 -0.8668  0.7819
  233MOL0     C32038  10.798   9.532   4.378 -0.0197  0.1630  0.4943
  233MOL0     C32039  10.895   9.603   4.278  0.1319 -0.1517  0.4529
  233MOL0     O32040  11.021   9.534   4.263 -0.2732 -0.0803  0.3419
  233MOL0     C32041  11.139   9.598   4.301 -0.3231  0.1703 -0.0128
  233MOL0     C32042  11.253   9.515   4.306 -0.5950  0.3345 -0.0886
  233MOL0     C32043  11.377   9.557   4.356  0.4578 -0.2205  0.5503
  233MOL0     C32044  11.492   9.468   4.360  0.1942  0.4665 -0.1524
  233MOL0     C32045  11.389   9.697   4.381 -0.6154  0.4413 -0.1069
  233MOL0     C32046  11.518   9.759   4.438  0.7433  1.1466  1.0681
  233MOL0     O32047  11.610   9.791   4.335 -0.5170 -0.5119  0.5606
  233MOL0     C32048  11.723   9.846   4.380  0.3623 -0.3199  0.1120
  233MOL0     C32049  11.746   9.981   4.348  0.1712  0.0098  0.0861
  233MOL0     C32050  11.858  10.045   4.402  0.7341 -0.4865  0.4756
  233MOL0     C32051  11.953   9.975   4.479 -0.6243  0.2512 -0.8178
  233MOL0     O32052  12.078  10.027   4.530  0.5248 -0.1411  0.8533
  233MOL0     C32053  12.125  10.153   4.485  0.4011  0.4312 -0.9912
  233MOL0     C32054  12.273  10.169   4.529 -0.1285  0.2759 -0.0772
  233MOL0     C32055  12.314  10.309   4.501 -0.7560 -0.2790 -0.9539
  233MOL0     C32056  12.461  10.337   4.547 -0.6033 -0.6822  0.6756
  233MOL0     C32057  12.486  10.485   4.506  1.0251 -0.3328 -0.0642
  233MOL0     C32058  12.600  10.525   4.574 -0.6068 -1.0154  0.0752
  233MOL0     C32059  12.613  10.675   4.545  0.0601  0.4617 -0.0589
  233MOL0     C32060  12.719  10.748   4.638 -0.1454  0.4788  0.3544
  233MOL0    Cl32061  12.886  10.709   4.598  0.1646  0.2730  0.0765
  233MOL0     C32062  11.928   9.844   4.512 -0.0115 -0.0722 -0.1175
  233MOL0     C32063  11.815   9.777   4.462 -0.2751 -0.2632  0.4475
  233MOL0     O32064  11.530   9.753   4.555  0.2816 -0.3228 -0.7466
  233MOL0     C32065  11.280   9.787   4.366  1.4307  0.0289 -0.5701
  233MOL0     C32066  11.155   9.734   4.328 -0.3193 -0.4062  0.3785
  233MOL0     N32067  10.403   9.789   4.320  0.7109  0.4393  0.2766
  233MOL0     N32068  10.282   9.793   4.353 -0.5427 -0.4593 -0.6392
  233MOL0     C32069   9.367   9.744   5.267  0.2121  0.1543  1.2402
  233MOL0     C32070   9.239   9.721   5.315  0.0342 -0.1762  0.2294
  233MOL0     C32071   8.775   9.767   5.374 -1.0185 -0.3361  0.1267
  233MOL0     C32072   8.750   9.629   5.359 -0.1873 -0.6273 -0.1612
  233MOL0     C32073   8.622   9.575   5.399  0.4085 -0.4127  0.8718
  233MOL0     C32074   8.517   9.655   5.459  0.1225 -0.8708  0.1697
  233MOL0     O32075   8.409   9.610   5.521  0.7316  0.4801  0.3179
  233MOL0     C32076   8.406   9.466   5.538  0.5013  0.0237 -0.8431
  233MOL0     C32077   8.286   9.408   5.620  0.2175 -0.3420  0.0231
  233MOL0     C32078   8.263   9.267   5.593 -0.0860  0.2887 -0.1112
  233MOL0     C32079   8.123   9.218   5.623  0.2957  0.2326 -0.5474
  233MOL0     C32080   8.086   9.251   5.761 -0.2027 -0.0738  0.3724
  233MOL0     C32081   8.056   9.299   5.864 -0.0473  0.1692 -0.1184
  233MOL0     C32082   8.550   9.790   5.468  0.6356 -0.4054  0.1863
  233MOL0     C32083   8.673   9.849   5.424 -0.1194  0.0622 -0.1427
  233MOL0     C32084   8.681   9.994   5.431 -0.2405 -1.2260  0.6458
  233MOL0     H32085   9.064   9.864   5.072 -0.2420 -2.9611 -0.4771
  233MOL0     H32086   9.287   9.918   4.993  1.3175  0.1498  0.6132
  233MOL0     H32087   9.497   9.979   4.948  0.4024 -0.3338 -2.8206
  233MOL0     H32088   9.478   9.798   4.907 -0.3796 -0.7531  0.1316
  233MOL0     H32089   9.713   9.925   4.843  1.6034  3.6047  2.6792
  233MOL0     H32090   9.750   9.906   4.996  2.2352 -0.6399 -0.9012
  233MOL0     H32091   9.812   9.684   4.928  0.8835 -1.0864 -3.9088
  233MOL0     H32092   9.637   9.657   4.941 -2.0545 -0.5190 -2.4986
  233MOL0     H32093   9.681   9.601   4.712 -0.7251 -0.4101 -1.4719
  233MOL0     H32094   9.605   9.756   4.705  1.7240  3.5462  0.1423
  233MOL0     H32095   9.847   9.849   4.692 -2.0593 -0.6572  1.7531
  233MOL0     H32096   9.773   9.779   4.541 -0.8371 -0.5003  0.1672
  233MOL0     H32097   9.992   9.677   4.724  0.1499 -0.7654 -1.7140
  233MOL0     H32098   9.886   9.569   4.628 -0.6880  0.3700  1.1876
  233MOL0     H32099  10.023   9.808   4.508 -3.6584  0.5525  3.4255
  233MOL0     H32100   9.965   9.678   4.417  4.5291  1.2451 -2.9833
  233MOL0     H32101  10.211   9.605   4.586 -0.6307 -1.0035  0.2391
  233MOL0     H32102  10.116   9.517   4.478  1.5814 -0.5201  2.7578
  233MOL0     H32103  10.343   9.476   4.351 -1.3196  0.1377 -2.7321
  233MOL0     H32104  10.612   9.691   4.194 -3.0338  0.9955 -0.5003
  233MOL0     H32105  10.565   9.515   4.201 -1.7780 -1.5091  2.0285
  233MOL0     H32106  10.670   9.692   4.442 -0.2593 -0.5046  0.3117
  233MOL0     H32107  10.595   9.531   4.455 -1.1404 -0.1547 -0.3409
  233MOL0     H32108  10.845   9.519   4.475  0.6835 -0.3202  0.0965
  233MOL0     H32109  10.779   9.430   4.341  1.8060 -0.6917  1.7907
  233MOL0     H32110  10.858   9.605   4.175 -0.3081  1.7638  0.6152
  233MOL0     H32111  10.896   9.707   4.312 -2.6514 -0.4158  1.6807
  233MOL0     H32112  11.243   9.408   4.286 -2.9758 -0.4733  4.1976
  233MOL0     H32113  11.452   9.377   4.316 -1.6009  1.1822 -0.0651
  233MOL0     H32114  11.522   9.461   4.465  1.3809  2.2386 -0.3168
  233MOL0     H32115  11.574   9.511   4.300  0.0711  1.5242  0.4070
  233MOL0     H32116  11.674  10.035   4.287 -1.9631 -2.7797 -0.0742
  233MOL0     H32117  11.858  10.154   4.397  3.9261 -0.4387 -0.9582
  233MOL0     H32118  12.114  10.167   4.377  0.6839  1.5194 -0.8906
  233MOL0     H32119  12.067  10.235   4.529  2.6745  0.1004  3.1509
  233MOL0     H32120  12.286  10.137   4.633  3.8988 -2.3852 -1.1414
  233MOL0     H32121  12.333  10.107   4.461 -1.1594  1.5861 -2.3052
  233MOL0     H32122  12.252  10.379   4.559  1.7905 -1.0147  3.0307
  233MOL0     H32123  12.311  10.332   4.394  2.9137 -0.4382 -1.2129
  233MOL0     H32124  12.526  10.260   4.505  1.1331 -0.5353  2.8780
  233MOL0     H32125  12.460  10.317   4.655 -0.8037  1.3947  1.1030
  233MOL0     H32126  12.489  10.483   4.396  1.5416 -2.6833 -0.0629
  233MOL0     H32127  12.399  10.539   4.545  0.7474 -1.7230  1.3146
  233MOL0     H32128  12.694  10.489   4.532  1.8724  3.6370  0.8834
  233MOL0     H32129  12.616  10.493   4.678  2.5330 -0.9902 -0.2986
  233MOL0     H32130  12.518  10.729   4.559 -0.0692  0.6628 -1.5746
  233MOL0     H32131  12.634  10.688   4.439 -0.8458  2.3784 -0.0638
  233MOL0     H32132  12.687  10.722   4.740  0.2377  3.2602  1.2616
  233MOL0     H32133  12.707  10.856   4.630 -3.3701  0.4233  2.7433
  233MOL0     H32134  11.991   9.793   4.584 -1.5060 -0.6956  0.8053
  233MOL0     H32135  11.785   9.674   4.480 -1.5435 -0.5123 -2.4343
  233MOL0     H32136  11.288   9.894   4.385  2.1995 -0.0653 -0.2935
  233MOL0     H32137  11.067   9.796   4.324 -1.3198 -1.7544  0.5427
  233MOL0     H32138   9.446   9.687   5.315  2.3909  0.9235 -1.2258
  233MOL0     H32139   9.211   9.675   5.409 -1.6072 -0.1021 -0.1885
  233MOL0     H32140   8.825   9.556   5.330  1.0362 -0.1041  1.5541
  233MOL0     H32141   8.609   9.467   5.398 -1.0315 -0.2800  1.9667
  233MOL0     H32142   8.414   9.405   5.448  0.7808 -2.3334  0.6976
  233MOL0     H32143   8.493   9.437   5.597 -0.9638  0.5790  1.7755
  233MOL0     H32144   8.191   9.453   5.588 -0.2662 -0.8568  0.7041
  233MOL0     H32145   8.306   9.426   5.726  0.3083 -1.6398  0.2452
  233MOL0     H32146   8.289   9.238   5.491  1.8215  1.6970 -0.0737
  233MOL0     H32147   8.318   9.215   5.672 -2.6924 -1.3578  0.7446
  233MOL0     H32148   8.125   9.109   5.615  1.9924  0.3073 -1.7614
  233MOL0     H32149   8.048   9.265   5.559 -2.9417 -2.2202  1.1430
  233MOL0     H32150   8.024   9.341   5.958  1.0982  0.6560  0.0727
  233MOL0     H32151   8.472   9.856   5.505  1.1162  0.6091 -0.5631
  233MOL0     H32152   8.586  10.049   5.425  1.6063  2.0893 -3.6029
  233MOL0     H32153   8.737  10.040   5.513 -0.2273  2.4153 -1.1585
  233MOL0     H32154   8.721  10.025   5.334  2.4011 -3.8401  0.7902
  234MOL0     O32155   2.692   4.777   1.249  0.3725  0.2411  0.1733
  234MOL0     C32156   2.609   4.858   1.203 -0.1990 -0.1058  0.4168
  234MOL0     O32157   2.630   4.943   1.101  0.3499 -0.0341  0.8161
  234MOL0     C32158   2.754   4.944   1.049 -0.9455  0.2291 -0.4048
  234MOL0     C32159   2.799   4.844   0.961 -0.9634 -0.1251  0.1474
  234MOL0     C32160   2.924   4.853   0.907 -0.0634  0.2920  0.1024
  234MOL0     C32161   3.014   4.950   0.936 -0.1541  0.3127  0.1259
  234MOL0     O32162   3.135   4.965   0.883 -0.6790  0.5386  0.1249
  234MOL0     C32163   3.144   4.978   0.739 -0.3042  0.0954 -0.3204
  234MOL0     C32164   3.280   4.979   0.676 -0.7100 -0.2813  0.2034
  234MOL0     C32165   3.369   5.087   0.724  0.2833 -0.9907 -0.2515
  234MOL0     C32166   3.296   5.221   0.737  0.1201 -1.2087 -0.2874
  234MOL0     C32167   3.395   5.331   0.757  0.3441 -0.5848 -0.2301
  234MOL0     C32168   3.443   5.397   0.622  0.4747  0.5830  0.8030
  234MOL0     C32169   3.544   5.511   0.634  1.0972  0.7008 -0.4223
  234MOL0     C32170   3.478   5.644   0.695 -0.2078 -0.3702  0.4770
  234MOL0     N32171   3.597   5.721   0.716 -0.7413 -0.5362  0.1980
  234MOL0     C32172   3.678   5.716   0.825 -0.2090 -0.3643  0.8560
  234MOL0     C32173   3.786   5.780   0.782 -0.1173 -0.1364 -0.0150
  234MOL0     C32174   3.907   5.788   0.858 -0.1258  0.3351 -0.0807
  234MOL0     C32175   4.018   5.709   0.783 -0.2568 -0.9404  0.5515
  234MOL0     C32176   4.146   5.704   0.861 -0.5585 -0.0710  0.3589
  234MOL0     C32177   4.253   5.619   0.791  0.7308 -0.6660  0.7754
  234MOL0     O32178   4.330   5.575   0.897 -0.0360 -0.3987 -0.0435
  234MOL0     C32179   4.433   5.648   0.948 -0.2688  0.1972  0.7146
  234MOL0     C32180   4.467   5.774   0.915 -0.3353  0.3636 -0.2641
  234MOL0     C32181   4.565   5.849   0.985  0.8878  1.9522 -0.1693
  234MOL0     C32182   4.601   5.969   0.912 -0.7135 -0.6998  0.2646
  234MOL0     C32183   4.625   5.790   1.098  0.4182  0.2922  0.9053
  234MOL0     C32184   4.733   5.852   1.191 -0.2836  0.6870  0.4219
  234MOL0     O32185   4.773   5.768   1.286 -0.5188  0.5473  1.2674
  234MOL0     C32186   4.892   5.775   1.356  0.2860  0.3243  0.3493
  234MOL0     C32187   4.904   5.699   1.471  0.3933 -0.0871  0.2185
  234MOL0     C32188   5.023   5.699   1.548  0.7253 -0.6021 -0.1746
  234MOL0     C32189   5.134   5.774   1.505 -0.9314  0.0764 -0.4218
  234MOL0     O32190   5.239   5.774   1.592  0.3308  0.2696  0.4838
  234MOL0     C32191   5.359   5.842   1.557 -0.2355 -0.1706 -0.4242
  234MOL0     C32192   5.471   5.749   1.613 -0.3322  0.0510 -0.4871
  234MOL0     C32193   5.478   5.746   1.766  0.1992  0.0622  0.0053
  234MOL0     C32194   5.615   5.701   1.799  0.4738 -0.1575  0.4519
  234MOL0     C32195   5.634   5.712   1.955  0.4181 -0.0715  0.3024
  234MOL0     C32196   5.776   5.675   1.985  0.6861  0.5171  0.3608
  234MOL0     C32197   5.831   5.715   2.127 -1.3292 -0.4694  1.1675
  234MOL0     C32198   5.883   5.864   2.136  0.2346  0.1768  0.6663
  234MOL0    Cl32199   6.051   5.869   2.090 -0.1667  0.3160 -0.1030
  234MOL0     C32200   5.119   5.848   1.391 -0.5257  0.5963  0.7458
  234MOL0     C32201   5.002   5.850   1.319 -0.1429 -0.1692 -0.0836
  234MOL0     O32202   4.750   5.969   1.186  0.2851  0.1147  0.2443
  234MOL0     C32203   4.595   5.650   1.118 -0.3233  0.2964 -0.4123
  234MOL0     C32204   4.500   5.580   1.045 -0.3065 -0.6986  0.5578
  234MOL0     N32205   3.762   5.840   0.660 -0.1616  0.9490 -0.1848
  234MOL0     N32206   3.657   5.794   0.616  0.5938 -0.2014 -0.2744
  234MOL0     C32207   2.981   5.037   1.036  0.0163 -0.5897  0.5299
  234MOL0     C32208   2.854   5.038   1.096 -0.2609 -0.9099  0.1304
  234MOL0     C32209   2.474   4.866   1.256  0.2992  0.8311  0.5697
  234MOL0     C32210   2.374   4.846   1.161 -1.3754  0.6626  0.4768
  234MOL0     C32211   2.242   4.849   1.200 -0.7795  0.6566  1.0436
  234MOL0     C32212   2.204   4.874   1.337 -0.5650 -0.7142  0.0743
  234MOL0     O32213   2.075   4.887   1.390 -0.1574 -0.5794 -0.3553
  234MOL0     C32214   1.967   4.868   1.299  0.3127  0.8037 -0.1278
  234MOL0     C32215   1.913   4.999   1.237 -0.1982 -0.0754 -0.8480
  234MOL0     C32216   1.783   4.980   1.170 -0.1529 -0.0513  0.5593
  234MOL0     C32217   1.726   5.115   1.110  0.3957  0.4838 -0.2601
  234MOL0     C32218   1.580   5.114   1.113 -0.0083 -0.1046  0.4784
  234MOL0     C32219   1.456   5.133   1.103  0.3208  0.5307 -0.3482
  234MOL0     C32220   2.310   4.894   1.424  0.1472 -0.1460  0.7118
  234MOL0     C32221   2.443   4.900   1.388 -0.1111 -0.0828  0.9041
  234MOL0     C32222   2.544   4.932   1.493 -0.1585  0.4152 -0.0337
  234MOL0     H32223   2.732   4.763   0.937  2.0386 -2.4744 -0.9975
  234MOL0     H32224   2.958   4.779   0.834 -1.9742 -0.5442 -0.0033
  234MOL0     H32225   3.088   5.069   0.718  0.5807  0.8470  0.4729
  234MOL0     H32226   3.100   4.884   0.703  2.4457 -1.0510 -0.9132
  234MOL0     H32227   3.333   4.884   0.671 -1.6176 -0.7257 -2.7706
  234MOL0     H32228   3.262   4.986   0.568  3.7407 -3.7580 -1.0505
  234MOL0     H32229   3.403   5.061   0.825  0.6967 -0.5715 -0.2803
  234MOL0     H32230   3.454   5.104   0.657 -0.2202  1.0269 -0.4498
  234MOL0     H32231   3.241   5.240   0.644  0.3993 -0.0224 -0.2309
  234MOL0     H32232   3.223   5.227   0.818 -0.6911  0.7623 -1.0896
  234MOL0     H32233   3.484   5.313   0.818 -0.8149  1.1793  2.1804
  234MOL0     H32234   3.334   5.405   0.811 -0.5062 -0.7118 -0.9990
  234MOL0     H32235   3.496   5.322   0.563  0.3168  1.1316 -0.0449
  234MOL0     H32236   3.357   5.424   0.560  1.9518 -0.4045 -1.8146
  234MOL0     H32237   3.573   5.535   0.531 -1.1223 -0.3328 -1.3532
  234MOL0     H32238   3.628   5.477   0.696 -1.2128 -0.5784  2.2213
  234MOL0     H32239   3.414   5.703   0.630  1.5114 -0.1610 -1.1062
  234MOL0     H32240   3.425   5.612   0.785 -0.6173 -2.4130 -0.4290
  234MOL0     H32241   3.667   5.674   0.924  1.1643  1.2280  1.7453
  234MOL0     H32242   3.894   5.744   0.958 -3.2351  4.6164  1.7209
  234MOL0     H32243   3.933   5.893   0.873  1.0705 -0.4042  5.1448
  234MOL0     H32244   3.984   5.607   0.761 -2.0773 -0.5500  1.3192
  234MOL0     H32245   4.030   5.767   0.691  0.6868 -0.4328  0.9860
  234MOL0     H32246   4.186   5.806   0.873 -3.6968  0.9967  3.1446
  234MOL0     H32247   4.115   5.679   0.963 -2.3285  0.7658  0.0668
  234MOL0     H32248   4.209   5.527   0.751 -3.5522  1.4026  0.2096
  234MOL0     H32249   4.317   5.669   0.717 -0.4588  1.1843  0.9450
  234MOL0     H32250   4.420   5.828   0.832  0.1595  0.3939 -0.5270
  234MOL0     H32251   4.645   6.045   0.977 -1.7004 -0.3244  0.5097
  234MOL0     H32252   4.502   6.010   0.890 -1.0639 -0.5174  2.0747
  234MOL0     H32253   4.667   5.953   0.826  0.9824  0.1910  1.3484
  234MOL0     H32254   4.820   5.641   1.509  1.8397 -1.8340  0.8689
  234MOL0     H32255   5.032   5.632   1.633 -1.0909 -1.6567 -0.7482
  234MOL0     H32256   5.373   5.849   1.449  0.0947  0.5666 -0.3417
  234MOL0     H32257   5.357   5.939   1.608 -0.9709 -1.5325  2.3640
  234MOL0     H32258   5.457   5.649   1.572 -0.4345  0.4350 -1.4413
  234MOL0     H32259   5.560   5.803   1.578  0.0918 -0.6922 -0.5727
  234MOL0     H32260   5.410   5.673   1.810  0.6244  0.9083  2.1851
  234MOL0     H32261   5.453   5.843   1.809  0.0444  0.5150 -1.0738
  234MOL0     H32262   5.684   5.765   1.744 -0.4516  0.6152  0.1573
  234MOL0     H32263   5.627   5.600   1.760  1.3825  0.4498 -0.8947
  234MOL0     H32264   5.621   5.807   2.006  0.6946  0.0936  0.0678
  234MOL0     H32265   5.571   5.633   1.997  1.2525 -1.4856 -0.9777
  234MOL0     H32266   5.832   5.722   1.904  0.6689 -2.8412 -1.7897
  234MOL0     H32267   5.805   5.574   1.955 -1.3952  0.3851 -1.4915
  234MOL0     H32268   5.916   5.657   2.163 -0.3668 -0.5277 -1.0503
  234MOL0     H32269   5.755   5.703   2.205 -1.1121  0.2081  1.4874
  234MOL0     H32270   5.870   5.906   2.237 -1.6521  0.4624  0.3541
  234MOL0     H32271   5.823   5.929   2.072 -1.6221 -1.1752  0.9493
  234MOL0     H32272   5.203   5.909   1.359 -0.6501  0.4498  0.1402
  234MOL0     H32273   4.984   5.919   1.236 -6.2885  2.3968  2.7407
  234MOL0     H32274   4.643   5.594   1.197 -1.3201  1.5148  1.1284
  234MOL0     H32275   4.488   5.473   1.061  0.1020 -0.8938 -0.3727
  234MOL0     H32276   3.046   5.119   1.065  0.5489 -1.2944  1.3565
  234MOL0     H32277   2.830   5.127   1.153  0.9370 -0.4800 -0.0180
  234MOL0     H32278   2.400   4.838   1.056 -0.6175  1.0876  0.6214
  234MOL0     H32279   2.173   4.842   1.116 -1.7245  1.7367  1.6941
  234MOL0     H32280   1.983   4.799   1.216 -1.2257  2.4205 -1.8388
  234MOL0     H32281   1.882   4.822   1.350 -0.4729 -1.0415 -2.8726
  234MOL0     H32282   1.988   5.033   1.165 -0.9488  0.2581 -1.4805
  234MOL0     H32283   1.901   5.066   1.323 -0.4736 -3.1875  1.7578
  234MOL0     H32284   1.793   4.908   1.088 -2.2682  1.0271 -0.7131
  234MOL0     H32285   1.714   4.939   1.244  1.1309  1.0143  2.4321
  234MOL0     H32286   1.759   5.134   1.007 -0.4741 -2.0648 -1.0884
  234MOL0     H32287   1.752   5.201   1.172 -1.6723 -0.6201  2.3498
  234MOL0     H32288   1.351   5.153   1.102  0.4575  1.3507 -2.2552
  234MOL0     H32289   2.296   4.903   1.532  0.4261 -0.3636  0.7690
  234MOL0     H32290   2.580   4.836   1.531  1.4872  0.8704 -0.3683
  234MOL0     H32291   2.634   4.979   1.451 -0.1098  0.5707  0.2462
  234MOL0     H32292   2.509   5.000   1.571  2.1221  0.2903  1.1981
  235MOL0     O32293   1.535   0.760   6.145 -0.5460 -0.1610  0.1756
  235MOL0     C32294   1.582   0.644   6.136  0.1191 -0.4624  0.0982
  235MOL0     O32295   1.510   0.540   6.086  0.1226 -0.3984 -0.0856
  235MOL0     C32296   1.385   0.577   6.051 -0.4122 -0.9850  0.4396
  235MOL0     C32297   1.364   0.610   5.919 -0.1271 -0.1037  0.0613
  235MOL0     C32298   1.238   0.658   5.881  0.0631  0.5939  0.2296
  235MOL0     C32299   1.126   0.656   5.971 -0.8024 -0.1990 -0.3937
  235MOL0     O32300   0.997   0.676   5.936 -0.6851 -0.2591  0.2521
  235MOL0     C32301   0.981   0.781   5.838 -0.1048 -0.3918 -0.1854
  235MOL0     C32302   0.837   0.824   5.853  0.0331 -0.3504  0.2260
  235MOL0     C32303   0.802   0.908   5.975 -0.2826 -0.3886 -0.2658
  235MOL0     C32304   0.870   1.045   5.957 -0.5947 -0.8677 -0.2610
  235MOL0     C32305   0.813   1.160   6.032 -0.3343 -0.7818  0.1424
  235MOL0     C32306   0.684   1.213   5.964  0.3126  0.1728 -0.1867
  235MOL0     C32307   0.624   1.334   6.038  0.2758 -0.3522 -0.1922
  235MOL0     C32308   0.721   1.445   6.061  0.1090  0.0680  0.0173
  235MOL0     N32309   0.651   1.567   6.108  0.4850 -0.0935  0.1593
  235MOL0     C32310   0.591   1.662   6.027  0.0172 -0.4267 -0.3366
  235MOL0     C32311   0.518   1.731   6.110 -0.9340 -0.2364 -0.3131
  235MOL0     C32312   0.434   1.849   6.070 -0.0080 -0.8289 -0.7528
  235MOL0     C32313   0.306   1.860   6.151 -0.3828  0.3752 -0.0748
  235MOL0     C32314   0.210   1.970   6.078  0.5162 -0.0306  0.0984
  235MOL0     C32315   0.070   1.978   6.148  0.3989  0.0643  0.3455
  235MOL0     O32316  -0.019   2.072   6.078  0.2086 -1.1322  0.3178
  235MOL0     C32317  -0.155   2.062   6.093  0.4724 -0.3163  0.1830
  235MOL0     C32318  -0.234   2.141   6.006 -1.1493 -0.5979 -0.1030
  235MOL0     C32319  -0.368   2.149   6.026  0.3559  0.0470  0.6140
  235MOL0     C32320  -0.444   2.250   5.936 -0.2263 -0.4067 -0.2015
  235MOL0     C32321  -0.432   2.072   6.128  0.0781  0.7153 -0.1682
  235MOL0     C32322  -0.584   2.062   6.138 -0.8368 -0.2856 -0.0728
  235MOL0     O32323  -0.636   2.015   6.258  0.2793  0.0766 -0.2865
  235MOL0     C32324  -0.770   1.991   6.268  0.5625  0.5348 -0.2066
  235MOL0     C32325  -0.838   1.902   6.187 -0.3797 -0.1093  0.5818
  235MOL0     C32326  -0.980   1.890   6.186  0.3070  0.1012 -0.3360
  235MOL0     C32327  -1.059   1.963   6.278 -0.4349 -0.5052 -0.3709
  235MOL0     O32328  -1.194   1.947   6.265  0.1642 -0.8720 -0.3560
  235MOL0     C32329  -1.251   1.918   6.393 -0.0544 -0.6957  0.7799
  235MOL0     C32330  -1.397   1.899   6.363  0.5062 -0.6843 -0.6473
  235MOL0     C32331  -1.476   2.035   6.346 -0.8510 -0.6053 -0.5134
  235MOL0     C32332  -1.629   2.005   6.339  0.6171  0.5564 -0.3585
  235MOL0     C32333  -1.701   2.133   6.388  0.8765  0.3919  0.0978
  235MOL0     C32334  -1.845   2.140   6.394  0.5243 -0.1440  0.0040
  235MOL0     C32335  -1.918   2.026   6.455  0.7245  0.6570  0.2325
  235MOL0     C32336  -1.958   1.928   6.339  0.4432 -0.2242  0.7032
  235MOL0    Cl32337  -2.019   1.770   6.398  0.1141 -0.6010 -0.0439
  235MOL0     C32338  -0.988   2.042   6.379 -0.0022  1.0922 -0.4887
  235MOL0     C32339  -0.846   2.046   6.369 -0.2617 -0.6474  0.4662
  235MOL0     O32340  -0.651   2.101   6.041 -0.7006  0.2053 -0.2944
  235MOL0     C32341  -0.352   1.989   6.214  0.2792  0.5057 -0.0063
  235MOL0     C32342  -0.216   1.993   6.197  0.2414  0.3882 -0.7180
  235MOL0     N32343   0.534   1.685   6.241 -0.7128  0.6365  1.1038
  235MOL0     N32344   0.611   1.581   6.236 -0.6279  0.2878  0.8812
  235MOL0     C32345   1.144   0.609   6.104 -0.4103 -0.1692  0.0931
  235MOL0     C32346   1.275   0.580   6.139 -0.6355  0.2471 -0.0266
  235MOL0     C32347   1.731   0.623   6.167  0.8570  0.1204  0.8639
  235MOL0     C32348   1.796   0.507   6.129 -0.8249 -0.4142 -0.0847
  235MOL0     C32349   1.934   0.491   6.137  0.4182 -0.4509 -0.3620
  235MOL0     C32350   2.021   0.599   6.176  0.5393 -0.9350  0.1321
  235MOL0     O32351   2.156   0.571   6.174 -0.3669 -0.5573  0.2384
  235MOL0     C32352   2.257   0.662   6.232  0.1101  0.2156  0.0608
  235MOL0     C32353   2.350   0.587   6.321  1.0922  1.0236 -0.3119
  235MOL0     C32354   2.280   0.547   6.449  0.9838 -0.8474  0.3910
  235MOL0     C32355   2.384   0.524   6.566 -0.0289  0.0453 -0.3145
  235MOL0     C32356   2.445   0.650   6.612 -0.0039 -0.7011 -0.2180
  235MOL0     C32357   2.488   0.758   6.638  0.1746  0.5675  0.3202
  235MOL0     C32358   1.956   0.713   6.218  0.2990 -0.0328  0.0994
  235MOL0     C32359   1.811   0.719   6.223  0.5871 -0.0764  0.3826
  235MOL0     C32360   1.767   0.840   6.294  0.0045  0.5631 -0.0993
  235MOL0     H32361   1.446   0.611   5.849 -0.4109 -0.6784 -0.2857
  235MOL0     H32362   1.228   0.684   5.777  3.5579  1.3303 -0.0283
  235MOL0     H32363   0.994   0.751   5.734  0.9031  0.8885 -0.4487
  235MOL0     H32364   1.050   0.861   5.867 -1.4948  0.7107  0.1974
  235MOL0     H32365   0.806   0.880   5.764 -0.6608 -2.6023 -1.0432
  235MOL0     H32366   0.770   0.737   5.854 -3.1435  1.8995 -0.3563
  235MOL0     H32367   0.693   0.918   5.975 -0.4250 -0.9987 -3.1193
  235MOL0     H32368   0.826   0.855   6.067 -0.0957 -0.8438 -0.5695
  235MOL0     H32369   0.965   1.027   6.008  0.3724  1.7830 -1.0054
  235MOL0     H32370   0.890   1.064   5.851 -0.3862 -1.8978 -0.4162
  235MOL0     H32371   0.886   1.242   6.036  1.3932 -2.2418  0.1771
  235MOL0     H32372   0.796   1.124   6.133 -1.8542  2.1246  1.0381
  235MOL0     H32373   0.716   1.229   5.861  1.5034  0.5409  0.2291
  235MOL0     H32374   0.617   1.126   5.963  1.1859 -0.5098 -0.5362
  235MOL0     H32375   0.576   1.282   6.122  0.6829 -2.9195 -1.4255
  235MOL0     H32376   0.546   1.370   5.970  1.7826  2.9129 -0.3707
  235MOL0     H32377   0.803   1.412   6.126 -0.5911 -3.6089 -0.7165
  235MOL0     H32378   0.779   1.479   5.974  3.0188  2.8504  2.8073
  235MOL0     H32379   0.592   1.671   5.919  0.1537  0.5390 -0.2605
  235MOL0     H32380   0.422   1.838   5.961  2.3667 -1.1546 -1.0511
  235MOL0     H32381   0.496   1.937   6.088  3.7287 -3.2809 -0.3379
  235MOL0     H32382   0.269   1.757   6.156 -1.0421  0.5068 -1.5429
  235MOL0     H32383   0.323   1.887   6.255 -1.7878 -1.3159  0.6449
  235MOL0     H32384   0.264   2.066   6.078  0.0847  0.2536  2.1274
  235MOL0     H32385   0.185   1.942   5.975  2.0747  1.6212 -0.8087
  235MOL0     H32386   0.020   1.881   6.150  0.9723 -0.2324  1.6890
  235MOL0     H32387   0.076   2.019   6.249  0.3986  2.4518 -0.5605
  235MOL0     H32388  -0.194   2.203   5.927  0.1481  1.6393  2.1466
  235MOL0     H32389  -0.503   2.315   6.001  1.3869  0.3011  0.6074
  235MOL0     H32390  -0.491   2.191   5.857  3.8513 -3.1178 -0.9313
  235MOL0     H32391  -0.379   2.326   5.890  0.7510 -0.8290  0.4396
  235MOL0     H32392  -0.787   1.842   6.113 -0.5138  0.3375  0.1129
  235MOL0     H32393  -1.022   1.827   6.109 -0.2099  1.4491 -1.1818
  235MOL0     H32394  -1.215   1.822   6.432  1.8791  0.7581  2.8588
  235MOL0     H32395  -1.223   1.995   6.466  3.3298  2.9805 -3.7703
  235MOL0     H32396  -1.420   1.853   6.267 -3.6235  3.1490 -1.7785
  235MOL0     H32397  -1.438   1.844   6.449 -0.6754  2.8721  1.2600
  235MOL0     H32398  -1.437   2.092   6.261 -1.3981  0.4393 -0.0766
  235MOL0     H32399  -1.458   2.090   6.439 -0.6209  0.1529 -1.0033
  235MOL0     H32400  -1.661   1.914   6.391  0.5413 -0.6628 -2.4441
  235MOL0     H32401  -1.665   1.997   6.236 -0.6914  1.7395 -0.0193
  235MOL0     H32402  -1.656   2.142   6.488  3.5677  4.4917 -1.2172
  235MOL0     H32403  -1.671   2.225   6.336  0.7911  0.1244 -0.4293
  235MOL0     H32404  -1.887   2.169   6.297  1.3950  3.4257  0.5577
  235MOL0     H32405  -1.868   2.221   6.463 -1.7097 -1.8443  1.4083
  235MOL0     H32406  -2.017   2.048   6.497  0.8195  0.2140  0.6951
  235MOL0     H32407  -1.871   1.957   6.526  0.5572 -1.8609 -1.9212
  235MOL0     H32408  -1.877   1.906   6.269 -0.7579  0.2018 -0.8944
  235MOL0     H32409  -2.037   1.971   6.277 -2.2186 -2.3332  2.3945
  235MOL0     H32410  -1.049   2.101   6.447  0.0224  1.1273 -0.4974
  235MOL0     H32411  -0.788   2.115   6.429 -1.9788 -1.0279  2.6937
  235MOL0     H32412  -0.401   1.915   6.276 -0.1686  2.1032  1.6366
  235MOL0     H32413  -0.152   1.940   6.267 -0.4025  0.3463 -0.1459
  235MOL0     H32414   1.066   0.599   6.179  1.0447 -0.2487  1.6595
  235MOL0     H32415   1.292   0.552   6.242 -0.9422 -2.0123 -0.5319
  235MOL0     H32416   1.748   0.422   6.082 -0.1305  0.9480 -3.5454
  235MOL0     H32417   1.986   0.400   6.108  0.0910 -0.4619 -0.9459
  235MOL0     H32418   2.323   0.718   6.166  2.3988  0.6148  2.5537
  235MOL0     H32419   2.205   0.736   6.293 -2.3736 -2.8719  2.0201
  235MOL0     H32420   2.437   0.650   6.337  0.9242  1.5836 -1.5272
  235MOL0     H32421   2.379   0.502   6.259 -1.3537  0.5667 -0.9440
  235MOL0     H32422   2.218   0.626   6.493  0.5177 -0.8821 -0.1997
  235MOL0     H32423   2.214   0.462   6.430 -2.4025  1.6887 -0.2099
  235MOL0     H32424   2.474   0.464   6.550  0.9362  0.8041  1.8622
  235MOL0     H32425   2.334   0.464   6.642  0.6554 -0.9677 -0.6383
  235MOL0     H32426   2.536   0.852   6.658  2.1827 -0.2702 -0.3849
  235MOL0     H32427   1.998   0.810   6.244 -1.0015  1.1102 -1.8536
  235MOL0     H32428   1.670   0.824   6.342  0.1024  1.3302  0.3602
  235MOL0     H32429   1.833   0.854   6.380  0.3339  1.4490 -0.4896
  235MOL0     H32430   1.769   0.926   6.228 -1.6900  0.0353 -0.8901
  236MOL0     O32431   3.523   3.956   0.333  0.5744 -0.8970 -0.7645
  236MOL0     C32432   3.475   3.857   0.390 -0.2635  0.6247  0.2456
  236MOL0     O32433   3.555   3.756   0.431 -0.5292  0.1020  0.1303
  236MOL0     C32434   3.694   3.766   0.417  0.1785 -0.0056 -0.2344
  236MOL0     C32435   3.766   3.853   0.496 -0.6437 -0.2490 -1.2648
  236MOL0     C32436   3.907   3.845   0.493 -0.2206 -0.1998  0.3106
  236MOL0     C32437   3.977   3.764   0.401  0.3493 -0.1518  0.4408
  236MOL0     O32438   4.113   3.766   0.398 -0.0567 -0.1196 -0.0216
  236MOL0     C32439   4.178   3.687   0.298  0.0432  0.5353 -0.4304
  236MOL0     C32440   4.158   3.742   0.154 -0.5342  0.4311 -0.4676
  236MOL0     C32441   4.293   3.801   0.107 -0.0223 -0.4270  0.9537
  236MOL0     C32442   4.280   3.855  -0.042  0.4630  0.5815  0.3866
  236MOL0     C32443   4.410   3.887  -0.116 -0.2131  0.7406 -0.7020
  236MOL0     C32444   4.386   3.942  -0.253  0.5328 -0.7046  0.0118
  236MOL0     C32445   4.512   3.999  -0.320 -0.1671  0.2636 -0.3642
  236MOL0     C32446   4.604   3.878  -0.360  0.4167 -0.1999 -0.1352
  236MOL0     N32447   4.736   3.883  -0.298  0.6007  0.5952 -0.4722
  236MOL0     C32448   4.831   3.983  -0.294  0.8633 -0.8025 -0.0939
  236MOL0     C32449   4.912   3.943  -0.192 -0.3706  0.2104 -0.1473
  236MOL0     C32450   5.030   4.036  -0.157  0.6735  0.5909  1.0172
  236MOL0     C32451   4.999   4.187  -0.138  0.1164 -1.0380 -0.1034
  236MOL0     C32452   4.903   4.185  -0.018 -0.3391  0.7008  1.1080
  236MOL0     C32453   4.888   4.331   0.032  0.0487  0.0503 -0.9631
  236MOL0     O32454   5.013   4.375   0.090 -0.4541  0.5459 -0.8357
  236MOL0     C32455   5.021   4.511   0.121 -1.1565 -0.4245 -1.4516
  236MOL0     C32456   4.912   4.604   0.111 -0.7829 -0.1951 -0.1455
  236MOL0     C32457   4.935   4.736   0.124  0.8609  0.1304  0.2154
  236MOL0     C32458   4.810   4.813   0.113 -0.6940 -0.1999 -0.0273
  236MOL0     C32459   5.061   4.786   0.161  0.2347  0.3282  0.2012
  236MOL0     C32460   5.097   4.924   0.187  0.1670  0.0995  0.1631
  236MOL0     O32461   5.027   5.020   0.111 -0.2561 -0.3720 -0.8034
  236MOL0     C32462   5.069   5.148   0.100  0.1993  0.4340  0.0643
  236MOL0     C32463   5.101   5.231   0.208  0.1687  0.6502  0.2393
  236MOL0     C32464   5.172   5.349   0.186 -0.0988 -0.5213  0.9401
  236MOL0     C32465   5.210   5.391   0.058 -0.4115 -0.2481 -0.7492
  236MOL0     O32466   5.282   5.502   0.028  0.8167 -0.4412  0.0997
  236MOL0     C32467   5.329   5.595   0.125  0.4437 -0.5232  0.2028
  236MOL0     C32468   5.457   5.550   0.199  0.3297  0.0610 -0.1756
  236MOL0     C32469   5.491   5.642   0.318  0.6400  0.5530 -0.1401
  236MOL0     C32470   5.509   5.794   0.286 -0.3579  0.2480 -0.0701
  236MOL0     C32471   5.616   5.836   0.190  0.0301  0.7968 -0.5986
  236MOL0     C32472   5.627   5.985   0.173 -0.6261  0.7561 -0.6274
  236MOL0     C32473   5.734   6.028   0.063 -0.0392 -0.5553  0.4992
  236MOL0     C32474   5.853   6.072   0.126  0.1764 -0.1183 -0.4715
  236MOL0    Cl32475   5.969   6.157   0.005 -0.1666 -0.0651  0.2365
  236MOL0     C32476   5.175   5.315  -0.049 -0.3769 -0.4448 -0.7538
  236MOL0     C32477   5.095   5.200  -0.032  0.3058 -0.2407 -0.4637
  236MOL0     O32478   5.197   4.954   0.247  0.0735  0.1904  0.2876
  236MOL0     C32479   5.169   4.686   0.177 -0.1617 -0.3059  0.3132
  236MOL0     C32480   5.144   4.555   0.163  0.0522  0.0740 -0.0577
  236MOL0     N32481   4.871   3.817  -0.150 -0.4701  0.0181 -0.3791
  236MOL0     N32482   4.767   3.782  -0.214 -0.3288  0.2110  0.2458
  236MOL0     C32483   3.893   3.672   0.324 -0.9833 -0.6258  0.5488
  236MOL0     C32484   3.754   3.670   0.332 -0.0272 -0.3895 -0.4698
  236MOL0     C32485   3.328   3.842   0.401  0.5826  0.4661 -0.2139
  236MOL0     C32486   3.271   3.748   0.496  0.5521 -0.9824 -0.2297
  236MOL0     C32487   3.134   3.739   0.515 -0.3374  0.2080 -0.0834
  236MOL0     C32488   3.047   3.820   0.449 -0.0578  0.2561 -0.1389
  236MOL0     O32489   2.918   3.813   0.493 -0.4539 -0.6571 -0.0161
  236MOL0     C32490   2.818   3.906   0.465  0.8259 -0.2501 -0.4330
  236MOL0     C32491   2.709   3.879   0.574  0.1787 -0.8048  0.7618
  236MOL0     C32492   2.570   3.912   0.521 -0.5120 -1.2479 -0.1054
  236MOL0     C32493   2.453   3.925   0.625  0.0441 -0.6144  0.6399
  236MOL0     C32494   2.424   3.785   0.663 -0.2166  0.1656  0.4996
  236MOL0     C32495   2.390   3.679   0.715 -0.3692 -0.6331 -0.8132
  236MOL0     C32496   3.094   3.908   0.350 -0.6680  1.3815 -0.1770
  236MOL0     C32497   3.231   3.911   0.322 -0.4023 -0.1180  0.6522
  236MOL0     C32498   3.269   3.985   0.195  0.6347  0.1927 -0.1128
  236MOL0     H32499   3.720   3.916   0.572  1.2494  2.2969 -2.0763
  236MOL0     H32500   3.959   3.895   0.574  2.8037  0.5637 -1.9067
  236MOL0     H32501   4.138   3.585   0.300  2.0157 -0.2847 -0.6945
  236MOL0     H32502   4.282   3.667   0.327 -0.7314  1.6223  3.6771
  236MOL0     H32503   4.130   3.660   0.087 -0.8459  0.5825 -0.5224
  236MOL0     H32504   4.077   3.815   0.151 -0.8841  0.0160 -1.6716
  236MOL0     H32505   4.306   3.885   0.175  1.3564  0.1137  0.0622
  236MOL0     H32506   4.370   3.724   0.116 -1.8076 -2.0822  3.2094
  236MOL0     H32507   4.222   3.783  -0.101 -1.5802  0.2428  2.6318
  236MOL0     H32508   4.231   3.952  -0.035 -1.2951 -0.1504 -1.0272
  236MOL0     H32509   4.469   3.795  -0.124 -2.9136 -1.1319 -0.3525
  236MOL0     H32510   4.465   3.962  -0.059  0.1518 -0.4645  0.5815
  236MOL0     H32511   4.334   3.871  -0.318  3.4813 -3.7227  0.6615
  236MOL0     H32512   4.314   4.023  -0.235  2.1254  0.9448 -0.7476
  236MOL0     H32513   4.560   4.069  -0.251 -1.5927  0.1078  0.8464
  236MOL0     H32514   4.492   4.056  -0.412  0.5526  1.2643  0.0779
  236MOL0     H32515   4.554   3.785  -0.334  2.6276 -1.5239 -0.4146
  236MOL0     H32516   4.623   3.872  -0.468 -2.7906 -0.6584 -0.8021
  236MOL0     H32517   4.829   4.079  -0.346  1.0065 -0.7244  0.0426
  236MOL0     H32518   5.104   4.012  -0.234 -1.1164 -1.1625 -0.2610
  236MOL0     H32519   5.065   3.997  -0.061  0.0125  2.7590  2.2142
  236MOL0     H32520   5.090   4.241  -0.111  0.2693  1.6842 -4.8699
  236MOL0     H32521   4.954   4.240  -0.223 -1.4838  0.4817  1.5980
  236MOL0     H32522   4.799   4.167  -0.050 -0.6084  1.2680  1.6435
  236MOL0     H32523   4.939   4.118   0.060  0.7383 -1.5267 -1.1496
  236MOL0     H32524   4.867   4.397  -0.053  3.3656  0.4976 -1.5887
  236MOL0     H32525   4.802   4.328   0.099  3.0098  1.3932  3.3683
  236MOL0     H32526   4.815   4.570   0.075  0.2418 -2.0148 -1.3896
  236MOL0     H32527   4.751   4.775   0.029 -0.4653  0.8317 -0.6719
  236MOL0     H32528   4.831   4.918   0.088  0.5865 -0.3184  0.4569
  236MOL0     H32529   4.742   4.804   0.198  0.9593 -0.7808  1.2854
  236MOL0     H32530   5.081   5.184   0.304 -0.2244 -1.4965 -0.8431
  236MOL0     H32531   5.197   5.418   0.266  0.3490  0.2435  0.1636
  236MOL0     H32532   5.343   5.689   0.071 -0.2600 -1.4371 -1.6611
  236MOL0     H32533   5.242   5.604   0.190 -0.5941  1.3595 -1.3274
  236MOL0     H32534   5.447   5.449   0.238 -0.1071 -0.0984 -0.6905
  236MOL0     H32535   5.534   5.549   0.121 -1.1315 -1.4871 -1.6732
  236MOL0     H32536   5.586   5.615   0.365 -0.3839  0.8341  2.2307
  236MOL0     H32537   5.412   5.628   0.392  1.9384  0.3954  1.2633
  236MOL0     H32538   5.534   5.845   0.379  1.7437 -0.4619 -0.1891
  236MOL0     H32539   5.415   5.837   0.251 -0.5099 -1.4922 -2.0406
  236MOL0     H32540   5.712   5.796   0.223  0.1435  1.7959  0.3394
  236MOL0     H32541   5.594   5.789   0.093  0.5048  0.8402 -0.7295
  236MOL0     H32542   5.647   6.027   0.272 -1.5330 -0.3311  0.0471
  236MOL0     H32543   5.528   6.020   0.141 -1.4390 -0.1541  0.7719
  236MOL0     H32544   5.693   6.115   0.011 -1.1511 -0.4924  1.4489
  236MOL0     H32545   5.763   5.950  -0.008  0.0516  1.9119 -2.3994
  236MOL0     H32546   5.908   5.984   0.161  2.6980  2.3455  2.4132
  236MOL0     H32547   5.834   6.133   0.215 -0.1968 -2.8403  1.4412
  236MOL0     H32548   5.189   5.347  -0.152  0.0629 -0.4204 -0.6870
  236MOL0     H32549   5.074   5.138  -0.118 -2.2549  0.4657 -0.4181
  236MOL0     H32550   5.269   4.720   0.203  1.4012 -1.2473 -3.7144
  236MOL0     H32551   5.229   4.490   0.181  1.4040  1.1768 -2.0842
  236MOL0     H32552   3.925   3.590   0.261 -1.0916  0.1803 -0.5997
  236MOL0     H32553   3.692   3.608   0.268  0.7875 -0.2057 -1.4659
  236MOL0     H32554   3.332   3.683   0.557  0.4273 -3.0405 -2.1608
  236MOL0     H32555   3.115   3.675   0.601  1.3220 -0.2380 -0.0120
  236MOL0     H32556   2.843   4.012   0.454  0.3758 -0.3401 -3.1525
  236MOL0     H32557   2.782   3.870   0.368  0.1128 -0.3731 -0.1307
  236MOL0     H32558   2.725   3.948   0.657  1.0735  2.1675 -1.7004
  236MOL0     H32559   2.714   3.775   0.607 -1.5418 -0.3217  2.7299
  236MOL0     H32560   2.569   4.016   0.487  1.0211 -0.5344  1.8671
  236MOL0     H32561   2.549   3.837   0.444 -0.6780 -2.2177  0.8559
  236MOL0     H32562   2.360   3.971   0.591 -0.6038 -1.4788  1.1808
  236MOL0     H32563   2.480   3.986   0.712  2.7485  0.5524 -0.8854
  236MOL0     H32564   2.359   3.580   0.742  1.2700 -1.0239 -0.2803
  236MOL0     H32565   3.038   3.977   0.287  1.0170  1.8783 -1.1950
  236MOL0     H32566   3.305   4.082   0.229 -2.0328  0.7887  1.2515
  236MOL0     H32567   3.340   3.935   0.127  2.4602  0.8944  1.1799
  236MOL0     H32568   3.175   4.000   0.142 -1.7276  2.8015  4.2505
  237MOL0     O32569   5.402   3.653   4.361 -0.0284  0.2296 -0.5573
  237MOL0     C32570   5.302   3.707   4.316  0.5387 -0.2462 -0.3408
  237MOL0     O32571   5.288   3.776   4.199 -0.4642  0.0456 -0.0419
  237MOL0     C32572   5.393   3.776   4.116 -0.6167  0.9937 -0.3651
  237MOL0     C32573   5.489   3.873   4.137 -0.6391 -0.2504 -0.7464
  237MOL0     C32574   5.599   3.880   4.055  0.6312 -0.0884  0.1801
  237MOL0     C32575   5.609   3.793   3.943  0.5904  1.1506  0.0370
  237MOL0     O32576   5.712   3.806   3.852 -0.2797 -0.7502 -0.4803
  237MOL0     C32577   5.846   3.800   3.894 -0.8547  0.6639  0.2559
  237MOL0     C32578   5.878   3.657   3.938 -0.7686  0.3400  0.1728
  237MOL0     C32579   6.034   3.643   3.955 -0.8306  1.1238 -1.1035
  237MOL0     C32580   6.060   3.529   4.054 -0.9475  0.1959  0.1384
  237MOL0     C32581   6.200   3.466   4.045  0.6259  0.2425 -1.0771
  237MOL0     C32582   6.255   3.431   3.911  0.8097  0.3699  0.4932
  237MOL0     C32583   6.368   3.326   3.906 -0.0216 -0.7603  0.9174
  237MOL0     C32584   6.492   3.393   3.963 -0.5317 -0.3814  0.5672
  237MOL0     N32585   6.588   3.284   3.968 -0.1590 -0.0858 -0.2465
  237MOL0     C32586   6.606   3.204   4.079  0.1543  0.6168  0.3408
  237MOL0     C32587   6.717   3.129   4.045  0.5558 -0.2015 -0.5244
  237MOL0     C32588   6.795   3.048   4.153  0.6681 -0.5226  0.0084
  237MOL0     C32589   6.907   2.955   4.091  0.9434 -0.1727  0.0564
  237MOL0     C32590   6.947   2.863   4.204  0.5309 -0.4107  0.3418
  237MOL0     C32591   7.048   2.747   4.170 -0.3562 -0.2643 -0.5508
  237MOL0     O32592   7.181   2.789   4.142 -0.4172  1.0131  0.1258
  237MOL0     C32593   7.290   2.705   4.155  0.7488  0.0092  0.0738
  237MOL0     C32594   7.287   2.571   4.181 -0.2919  0.3205  0.3218
  237MOL0     C32595   7.402   2.494   4.192 -0.8335  0.7635  0.4423
  237MOL0     C32596   7.399   2.344   4.220 -0.0551  0.2413  0.5284
  237MOL0     C32597   7.531   2.556   4.170 -0.3015 -0.2528 -1.0942
  237MOL0     C32598   7.654   2.485   4.146  0.2047  0.1763  0.0333
  237MOL0     O32599   7.737   2.554   4.066  0.8027  0.4797 -0.2103
  237MOL0     C32600   7.852   2.488   4.048  0.6448 -0.0769  0.0384
  237MOL0     C32601   7.948   2.489   4.152  0.3655 -0.5275  0.2721
  237MOL0     C32602   8.072   2.417   4.130 -0.5344 -0.4366 -0.0737
  237MOL0     C32603   8.106   2.363   4.001  0.3048 -0.0152  0.4307
  237MOL0     O32604   8.228   2.306   3.962  0.0834 -0.6514 -0.0894
  237MOL0     C32605   8.317   2.267   4.061 -0.1836  0.0989 -0.8311
  237MOL0     C32606   8.304   2.117   4.102  0.0583 -0.5486  0.8827
  237MOL0     C32607   8.427   2.070   4.187  0.4616 -0.6178  0.3461
  237MOL0     C32608   8.415   1.924   4.224 -0.5899 -0.3268 -0.5286
  237MOL0     C32609   8.514   1.879   4.329  0.2504 -0.3666  0.4603
  237MOL0     C32610   8.495   1.730   4.350 -0.4704 -0.4619  0.1694
  237MOL0     C32611   8.585   1.677   4.460  0.0344 -0.1887  0.3016
  237MOL0     C32612   8.621   1.537   4.418  0.6305  0.1806 -1.0854
  237MOL0    Cl32613   8.721   1.468   4.554  0.1085 -0.1599  0.3648
  237MOL0     C32614   8.005   2.362   3.906  1.0399  0.0686  1.0086
  237MOL0     C32615   7.883   2.430   3.925 -0.2671  0.5556  0.3253
  237MOL0     O32616   7.678   2.384   4.212 -0.4051 -0.3454  0.2181
  237MOL0     C32617   7.534   2.698   4.157  0.0268  0.1758  0.4404
  237MOL0     C32618   7.419   2.768   4.149 -0.3756 -0.3315 -0.6326
  237MOL0     N32619   6.748   3.150   3.918 -0.7192  0.5561  0.0478
  237MOL0     N32620   6.687   3.251   3.882  0.1582 -0.5201 -0.2098
  237MOL0     C32621   5.510   3.690   3.922  0.4652 -0.7896 -0.0953
  237MOL0     C32622   5.396   3.689   4.007  0.0001 -0.5053 -0.0682
  237MOL0     C32623   5.192   3.715   4.414  0.5864 -0.0960 -0.3966
  237MOL0     C32624   5.067   3.662   4.373  0.7582 -0.5953  0.2521
  237MOL0     C32625   4.955   3.674   4.456  0.2081  0.3263 -0.5033
  237MOL0     C32626   4.970   3.734   4.584  0.4739 -0.2193  0.2839
  237MOL0     O32627   4.862   3.737   4.672 -0.7594  0.6613  0.7107
  237MOL0     C32628   4.733   3.767   4.615  0.0787 -0.0058  0.0826
  237MOL0     C32629   4.649   3.856   4.713 -0.4701  0.3209  0.1798
  237MOL0     C32630   4.523   3.882   4.634 -0.2089 -0.1173 -0.2417
  237MOL0     C32631   4.415   3.948   4.723 -0.0863  1.1453 -0.3079
  237MOL0     C32632   4.346   3.868   4.832 -0.1808 -0.1763  0.7720
  237MOL0     C32633   4.303   3.795   4.919 -0.1697  0.5239  0.3610
  237MOL0     C32634   5.087   3.783   4.629 -0.4197 -0.4545  0.3852
  237MOL0     C32635   5.200   3.765   4.550 -0.0329  0.0752 -0.4025
  237MOL0     C32636   5.327   3.812   4.613  0.5096  0.5052 -0.7283
  237MOL0     H32637   5.488   3.938   4.224  0.9596 -0.2704 -0.6718
  237MOL0     H32638   5.683   3.949   4.066  1.1846 -0.5133 -1.1553
  237MOL0     H32639   5.868   3.870   3.974  1.1174  0.4204 -0.0143
  237MOL0     H32640   5.901   3.820   3.801 -1.1849  3.9687  0.6744
  237MOL0     H32641   5.834   3.637   4.036  0.0604 -0.7288  0.3467
  237MOL0     H32642   5.849   3.584   3.862 -0.3378  0.8294 -0.4797
  237MOL0     H32643   6.080   3.628   3.857  1.9956 -1.1599  0.4207
  237MOL0     H32644   6.074   3.739   3.990 -2.1464  0.5820  2.2723
  237MOL0     H32645   6.036   3.568   4.154  1.5788  0.8522  0.5724
  237MOL0     H32646   5.989   3.450   4.031 -0.5879  0.7096 -3.3128
  237MOL0     H32647   6.186   3.368   4.092 -1.3506  1.8688  2.0606
  237MOL0     H32648   6.275   3.532   4.089 -0.0351  0.0553  0.3849
  237MOL0     H32649   6.161   3.397   3.866  1.1432 -0.4986  0.4336
  237MOL0     H32650   6.289   3.516   3.852 -0.8576 -0.4356 -1.7756
  237MOL0     H32651   6.384   3.292   3.804  1.3398  0.8377  0.5588
  237MOL0     H32652   6.334   3.238   3.962  1.0333 -0.7910  1.5305
  237MOL0     H32653   6.522   3.484   3.910 -3.4430  1.0160  1.0687
  237MOL0     H32654   6.485   3.415   4.070  1.8433  1.6255  0.3947
  237MOL0     H32655   6.565   3.202   4.180  2.4723 -3.5785  1.4220
  237MOL0     H32656   6.735   2.987   4.221  1.6414  0.7818  2.1087
  237MOL0     H32657   6.837   3.116   4.228  2.1676 -0.6448 -0.6871
  237MOL0     H32658   6.863   2.884   4.020 -1.5224  1.4262 -0.1511
  237MOL0     H32659   6.995   3.005   4.050  1.3827 -0.8518  0.1588
  237MOL0     H32660   6.980   2.926   4.287 -0.0459 -0.5553  0.6824
  237MOL0     H32661   6.854   2.823   4.244  0.2544 -0.1942 -0.0775
  237MOL0     H32662   7.043   2.672   4.250  0.5881  1.5518  1.2764
  237MOL0     H32663   7.022   2.695   4.077  0.1923 -0.6210 -0.5120
  237MOL0     H32664   7.189   2.524   4.189 -0.1448 -0.1368 -0.4125
  237MOL0     H32665   7.457   2.281   4.152  2.0134 -2.0056  4.1026
  237MOL0     H32666   7.298   2.303   4.224  0.4371 -0.9007  1.8201
  237MOL0     H32667   7.455   2.325   4.312  0.8623 -1.3149 -0.3183
  237MOL0     H32668   7.914   2.543   4.240 -2.0843  0.7990 -1.3875
  237MOL0     H32669   8.147   2.421   4.208 -0.2915  0.1582 -0.3248
  237MOL0     H32670   8.416   2.281   4.018 -0.1005 -0.0887 -0.7006
  237MOL0     H32671   8.326   2.332   4.149  1.2491  1.9317 -2.2390
  237MOL0     H32672   8.204   2.111   4.148  0.2193  1.4467  1.5818
  237MOL0     H32673   8.300   2.051   4.015  5.2412  0.5470 -0.5137
  237MOL0     H32674   8.425   2.134   4.277 -1.0332  0.9427 -0.7314
  237MOL0     H32675   8.525   2.079   4.139  1.5184 -2.1014  2.0982
  237MOL0     H32676   8.417   1.868   4.129  3.1468  0.1674 -0.9145
  237MOL0     H32677   8.318   1.909   4.271 -0.5236 -0.3509 -0.3972
  237MOL0     H32678   8.615   1.898   4.294 -0.3763  0.6734 -0.8855
  237MOL0     H32679   8.493   1.943   4.415  4.1305  1.7012  0.0708
  237MOL0     H32680   8.510   1.683   4.252 -2.9045 -1.5346  0.2432
  237MOL0     H32681   8.389   1.717   4.374 -0.6408 -2.7748 -1.4344
  237MOL0     H32682   8.529   1.670   4.553 -0.2053 -0.3439  0.1446
  237MOL0     H32683   8.664   1.749   4.484  0.2717  0.3749 -1.9236
  237MOL0     H32684   8.680   1.545   4.326  0.1377 -0.0701 -1.4292
  237MOL0     H32685   8.538   1.467   4.405 -0.3339  0.2305  3.3182
  237MOL0     H32686   8.022   2.314   3.809  0.1001  2.3444 -0.3525
  237MOL0     H32687   7.809   2.440   3.847  0.5219 -1.4197 -0.7490
  237MOL0     H32688   7.622   2.759   4.138 -0.4412  0.5886 -0.4440
  237MOL0     H32689   7.424   2.876   4.144  0.3434 -0.3950 -1.5033
  237MOL0     H32690   5.502   3.615   3.843 -3.6489 -2.0364  1.2714
  237MOL0     H32691   5.322   3.613   3.983 -0.2222 -1.0093  2.0285
  237MOL0     H32692   5.064   3.613   4.276  1.5939 -2.3691  1.0849
  237MOL0     H32693   4.862   3.634   4.417 -0.0574 -2.9626  2.9416
  237MOL0     H32694   4.747   3.813   4.517  1.1774 -0.9227 -0.2037
  237MOL0     H32695   4.679   3.673   4.600  0.1308 -0.0783  0.3487
  237MOL0     H32696   4.714   3.943   4.724  1.9712 -1.5992  2.1056
  237MOL0     H32697   4.623   3.808   4.808 -1.1346 -1.8109 -1.0027
  237MOL0     H32698   4.547   3.951   4.553 -0.5212  1.2953  0.8349
  237MOL0     H32699   4.471   3.796   4.591 -1.3509  0.5054 -0.1356
  237MOL0     H32700   4.331   3.981   4.661 -0.3138  1.4846  0.1740
  237MOL0     H32701   4.456   4.040   4.769  2.0425  0.9748 -1.7045
  237MOL0     H32702   4.277   3.734   5.003 -1.0892 -0.5192 -0.6337
  237MOL0     H32703   5.091   3.819   4.731 -0.2442 -0.8147  0.5072
  237MOL0     H32704   5.320   3.875   4.702  1.6802 -0.7638  0.3127
  237MOL0     H32705   5.390   3.727   4.643 -1.5186 -0.3693  1.3303
  237MOL0     H32706   5.387   3.865   4.538 -0.6866  0.5874 -1.6577
  238MOL0     O32707   9.059   9.210   4.322 -0.2898  0.4104  0.0178
  238MOL0     C32708   9.058   9.164   4.432  0.3917 -0.0027  0.1274
  238MOL0     O32709   9.147   9.197   4.529  0.8407 -0.0668 -0.5641
  238MOL0     C32710   9.254   9.284   4.501  0.3130  0.4240  0.0557
  238MOL0     C32711   9.283   9.393   4.582 -0.2942  0.8921 -1.2400
  238MOL0     C32712   9.392   9.469   4.567  1.0994 -0.2733  0.7988
  238MOL0     C32713   9.481   9.459   4.464  0.2096  1.1391  0.1650
  238MOL0     O32714   9.590   9.543   4.459  0.1378  0.2493  0.3408
  238MOL0     C32715   9.662   9.561   4.331  0.0272  0.9749 -0.8292
  238MOL0     C32716   9.571   9.620   4.217 -0.5430  0.9586 -0.6208
  238MOL0     C32717   9.621   9.755   4.153 -0.6873 -0.1758  0.0005
  238MOL0     C32718   9.513   9.802   4.048  0.6402 -0.2363  1.2575
  238MOL0     C32719   9.466   9.684   3.949  0.0585 -0.3931  1.0255
  238MOL0     C32720   9.582   9.627   3.860 -0.2045  0.7100  0.1572
  238MOL0     C32721   9.653   9.740   3.787  1.0535 -0.1699 -0.7153
  238MOL0     C32722   9.721   9.691   3.660  0.1026  0.1271  0.6717
  238MOL0     N32723   9.831   9.601   3.689 -0.6752 -0.3341 -0.2439
  238MOL0     C32724   9.960   9.644   3.706  0.5816 -0.3516  0.5602
  238MOL0     C32725  10.043   9.539   3.699 -0.5231  0.3645 -0.2796
  238MOL0     C32726  10.192   9.529   3.712 -0.0235 -0.0840  0.4722
  238MOL0     C32727  10.230   9.472   3.840 -0.0972  0.0467  0.2286
  238MOL0     C32728  10.273   9.571   3.942 -0.1301 -0.2493  0.5916
  238MOL0     C32729  10.416   9.620   3.907 -0.8648 -0.4064 -0.7947
  238MOL0     O32730  10.514   9.511   3.891  0.3782 -0.4851 -0.3793
  238MOL0     C32731  10.647   9.542   3.898 -0.1793  0.0501  0.2263
  238MOL0     C32732  10.720   9.424   3.924  0.1173  0.2481  0.1658
  238MOL0     C32733  10.860   9.416   3.923  0.1653 -0.4453 -0.6435
  238MOL0     C32734  10.918   9.280   3.968  0.4395 -1.3621 -0.1078
  238MOL0     C32735  10.943   9.537   3.896 -0.6733  0.0907 -1.3177
  238MOL0     C32736  11.099   9.530   3.885  0.1114  0.3789 -0.9129
  238MOL0     O32737  11.164   9.650   3.847 -0.4987 -0.0479  0.4567
  238MOL0     C32738  11.307   9.639   3.866  0.2657  0.6934 -0.2009
  238MOL0     C32739  11.346   9.661   3.994 -0.2162  0.3387 -0.4856
  238MOL0     C32740  11.488   9.685   4.021 -0.2260  0.2869  0.5102
  238MOL0     C32741  11.580   9.679   3.918 -0.4691 -0.1593  0.1811
  238MOL0     O32742  11.714   9.708   3.919  0.0894  0.8309  0.1610
  238MOL0     C32743  11.780   9.740   4.041  0.2331 -0.4968  0.8169
  238MOL0     C32744  11.925   9.755   3.999 -0.0105  0.1767  0.1906
  238MOL0     C32745  12.012   9.799   4.121  0.2220 -0.0791 -0.1124
  238MOL0     C32746  12.165   9.803   4.085 -0.5135 -0.4039  0.3280
  238MOL0     C32747  12.247   9.825   4.220 -1.2060  0.3190 -0.9903
  238MOL0     C32748  12.249   9.691   4.303  0.0396 -0.0045  0.0109
  238MOL0     C32749  12.330   9.704   4.430  0.1110  0.3723  0.0173
  238MOL0     C32750  12.387   9.573   4.481  0.7034  0.0102 -0.5455
  238MOL0    Cl32751  12.251   9.469   4.550 -0.4331  0.0943 -0.2195
  238MOL0     C32752  11.531   9.660   3.788 -0.7781  0.1871 -0.9654
  238MOL0     C32753  11.397   9.641   3.769  0.3017  0.8580  0.3982
  238MOL0     O32754  11.156   9.427   3.916 -0.3068 -0.0030 -0.4860
  238MOL0     C32755  10.867   9.660   3.886 -0.2842  0.3139 -0.0523
  238MOL0     C32756  10.718   9.667   3.892 -0.2569 -0.1733 -0.6268
  238MOL0     N32757   9.963   9.425   3.683  0.7035  0.3000 -0.7759
  238MOL0     N32758   9.842   9.468   3.662 -0.1726 -0.5796  0.0273
  238MOL0     C32759   9.452   9.349   4.379 -0.2810 -0.2612 -0.4551
  238MOL0     C32760   9.344   9.264   4.399  0.6983  0.8905 -0.1767
  238MOL0     C32761   8.938   9.082   4.478  0.1031 -0.1984  0.3354
  238MOL0     C32762   8.919   9.075   4.611  0.5543  0.0287  0.0265
  238MOL0     C32763   8.812   9.004   4.657 -0.2387  0.5283 -0.3236
  238MOL0     C32764   8.724   8.924   4.583  0.1675  0.0279  0.8353
  238MOL0     O32765   8.614   8.866   4.638  0.5436 -0.5770 -0.1255
  238MOL0     C32766   8.485   8.911   4.575 -0.0187  0.7720 -0.4531
  238MOL0     C32767   8.413   9.016   4.662 -0.1576  0.6974 -0.0700
  238MOL0     C32768   8.475   9.149   4.637 -0.6435  0.7528  0.4026
  238MOL0     C32769   8.434   9.250   4.740 -0.2964 -0.3104 -0.3628
  238MOL0     C32770   8.302   9.304   4.736 -0.2496 -0.0000 -0.6146
  238MOL0     C32771   8.194   9.358   4.742 -0.1608  0.0112 -0.2314
  238MOL0     C32772   8.757   8.923   4.445 -0.1341 -0.3049 -0.5537
  238MOL0     C32773   8.844   9.012   4.387 -0.5841 -0.2241 -0.6860
  238MOL0     C32774   8.850   9.020   4.235 -0.0833  0.0215  0.5536
  238MOL0     H32775   9.213   9.412   4.664 -0.7277  3.0058 -2.0496
  238MOL0     H32776   9.400   9.550   4.639  3.2059 -2.9555  3.8712
  238MOL0     H32777   9.717   9.472   4.300  0.7088  0.8314  0.7271
  238MOL0     H32778   9.743   9.629   4.360  2.5528 -1.1581 -2.4312
  238MOL0     H32779   9.560   9.540   4.143  2.7404 -2.8118  2.4621
  238MOL0     H32780   9.473   9.642   4.258 -0.2923  1.8049 -0.4687
  238MOL0     H32781   9.630   9.827   4.235 -1.7517  1.7705 -1.5412
  238MOL0     H32782   9.717   9.751   4.101  0.8561  2.3313  2.4287
  238MOL0     H32783   9.425   9.839   4.102 -0.7711 -0.4159 -0.7970
  238MOL0     H32784   9.559   9.884   3.993 -0.9424 -1.1359 -1.6235
  238MOL0     H32785   9.385   9.721   3.886  2.9961  1.6107 -1.9472
  238MOL0     H32786   9.421   9.602   4.005 -2.0460  0.7570  1.1461
  238MOL0     H32787   9.663   9.584   3.920 -1.2650 -0.1631  1.0111
  238MOL0     H32788   9.543   9.548   3.794 -0.2101  0.9279 -0.1005
  238MOL0     H32789   9.724   9.795   3.849  1.3306 -0.2561 -0.9529
  238MOL0     H32790   9.575   9.805   3.745  1.2336 -0.0518 -0.8688
  238MOL0     H32791   9.651   9.629   3.603 -0.6700  1.7180 -0.1554
  238MOL0     H32792   9.752   9.770   3.591 -0.1215 -2.3906 -2.5619
  238MOL0     H32793   9.994   9.746   3.717  0.7701 -0.4966  1.4681
  238MOL0     H32794  10.248   9.622   3.695 -0.7511  0.5758  1.5084
  238MOL0     H32795  10.223   9.459   3.635  2.1112 -3.1731  3.7836
  238MOL0     H32796  10.146   9.416   3.883 -0.4913  0.7129  0.3489
  238MOL0     H32797  10.308   9.396   3.836 -0.9689 -0.9312  1.0970
  238MOL0     H32798  10.208   9.658   3.926  0.6202  0.2837  0.3902
  238MOL0     H32799  10.257   9.533   4.043  0.6323 -1.6571  0.2058
  238MOL0     H32800  10.422   9.683   3.818  1.0684  3.0974  1.5587
  238MOL0     H32801  10.462   9.682   3.984  0.7124  0.6350 -2.4894
  238MOL0     H32802  10.669   9.328   3.930  2.1776 -1.3103 -3.7316
  238MOL0     H32803  10.994   9.249   3.895  1.0568 -0.1106 -0.0297
  238MOL0     H32804  10.844   9.200   3.968 -1.3012  0.1787  0.7235
  238MOL0     H32805  10.949   9.289   4.073 -1.6965 -0.6318  0.5020
  238MOL0     H32806  11.271   9.653   4.071 -0.3572 -1.3135 -0.7556
  238MOL0     H32807  11.513   9.708   4.124 -1.6103  1.2693  0.6586
  238MOL0     H32808  11.739   9.837   4.069  1.1001  0.0526  0.1965
  238MOL0     H32809  11.765   9.660   4.115  0.2719  0.5033  1.9273
  238MOL0     H32810  11.950   9.652   3.972 -0.5312  0.7043 -2.6387
  238MOL0     H32811  11.942   9.818   3.911  1.6171  1.5295  1.4000
  238MOL0     H32812  11.995   9.736   4.209  2.7657  0.1130  0.5905
  238MOL0     H32813  11.976   9.892   4.167 -1.3737 -1.7849  2.3558
  238MOL0     H32814  12.174   9.886   4.015  0.8613 -0.9775 -0.2048
  238MOL0     H32815  12.193   9.706   4.042 -0.6272 -0.0335 -0.5846
  238MOL0     H32816  12.348   9.860   4.194 -0.5301 -1.6463 -1.1517
  238MOL0     H32817  12.204   9.901   4.285 -1.0746 -0.8643  0.5190
  238MOL0     H32818  12.292   9.609   4.244  1.0278  1.2190 -1.0217
  238MOL0     H32819  12.148   9.661   4.331 -0.9601  1.0128 -2.2282
  238MOL0     H32820  12.258   9.737   4.506  0.2434 -2.0056  1.2604
  238MOL0     H32821  12.414   9.771   4.410 -0.5490  0.7644 -1.6398
  238MOL0     H32822  12.448   9.586   4.571 -0.2976 -3.4171  0.7654
  238MOL0     H32823  12.439   9.513   4.405 -0.7040 -2.8406  0.5851
  238MOL0     H32824  11.597   9.659   3.702 -0.5497  0.2350 -0.7885
  238MOL0     H32825  11.354   9.634   3.669 -1.8190  0.6541  1.2719
  238MOL0     H32826  10.919   9.754   3.896 -0.3057  0.2121  1.0977
  238MOL0     H32827  10.664   9.760   3.897 -0.1236 -0.1265 -0.0055
  238MOL0     H32828   9.518   9.328   4.295  0.0410  1.0142 -0.5462
  238MOL0     H32829   9.327   9.175   4.339 -0.3963  0.3327  0.9193
  238MOL0     H32830   8.972   9.120   4.694 -0.9848 -1.2692  1.7821
  238MOL0     H32831   8.791   9.003   4.763  0.6323  1.1543 -0.1359
  238MOL0     H32832   8.501   8.964   4.480  2.4146  1.4861  0.2796
  238MOL0     H32833   8.437   8.814   4.559  2.0499 -0.3871  0.0109
  238MOL0     H32834   8.416   8.987   4.767  3.2408 -1.5096 -0.6282
  238MOL0     H32835   8.306   9.026   4.644 -0.5933 -3.0289 -0.3420
  238MOL0     H32836   8.582   9.134   4.652 -0.3054 -1.4893 -3.0160
  238MOL0     H32837   8.469   9.192   4.537  0.8648 -1.1473 -0.5774
  238MOL0     H32838   8.498   9.336   4.718  2.0497 -1.9787 -0.4249
  238MOL0     H32839   8.447   9.213   4.843  0.6385 -2.8490 -1.3072
  238MOL0     H32840   8.094   9.389   4.765 -0.3051 -1.4182  1.2482
  238MOL0     H32841   8.690   8.871   4.377  0.6257 -0.4740 -1.1883
  238MOL0     H32842   8.777   8.949   4.198 -2.1624  0.3350  3.6572
  238MOL0     H32843   8.830   9.121   4.198 -0.5631  0.9842  3.1896
  238MOL0     H32844   8.947   8.984   4.199  0.2816 -0.3489  1.8293
  239MOL0     O32845   3.874   8.414   5.104 -0.2818  0.1462  0.2077
  239MOL0     C32846   3.827   8.330   5.029 -0.0399  0.1729 -0.0939
  239MOL0     O32847   3.892   8.219   4.989  0.0191 -0.9100 -0.2829
  239MOL0     C32848   4.020   8.190   5.024 -0.3993 -0.0433 -1.0474
  239MOL0     C32849   4.108   8.154   4.928  0.3442  0.4675 -0.1942
  239MOL0     C32850   4.239   8.127   4.959 -0.7499  0.3890  1.0300
  239MOL0     C32851   4.287   8.130   5.085 -0.2658  0.6161 -0.3069
  239MOL0     O32852   4.422   8.103   5.106 -0.2784  0.1533 -0.5625
  239MOL0     C32853   4.473   8.098   5.240 -0.6496 -0.1195 -0.2115
  239MOL0     C32854   4.609   8.019   5.239  0.2910 -0.5628 -0.0796
  239MOL0     C32855   4.728   8.095   5.191  0.6834 -0.4326  0.2585
  239MOL0     C32856   4.751   8.216   5.278  0.0580  0.0029  0.4043
  239MOL0     C32857   4.863   8.296   5.218  0.3504 -0.2494  0.1616
  239MOL0     C32858   5.007   8.243   5.229 -0.2132  0.5724  0.9849
  239MOL0     C32859   5.109   8.343   5.167 -0.4998  0.3051  0.4217
  239MOL0     C32860   5.095   8.361   5.014 -0.0780 -0.5419  0.2346
  239MOL0     N32861   5.227   8.359   4.942 -0.8123  0.8170  0.1811
  239MOL0     C32862   5.298   8.242   4.910  1.0645  0.1393 -0.8758
  239MOL0     C32863   5.401   8.283   4.829  0.4375 -0.8099  0.4828
  239MOL0     C32864   5.504   8.196   4.768 -0.0979 -0.3636  1.2782
  239MOL0     C32865   5.639   8.213   4.828  0.8307  0.4459  0.1037
  239MOL0     C32866   5.635   8.201   4.984 -0.3867 -0.2015  0.4476
  239MOL0     C32867   5.777   8.193   5.039 -0.8764  0.0069 -0.4538
  239MOL0     O32868   5.859   8.307   4.987  0.8803 -0.0299  0.8946
  239MOL0     C32869   5.991   8.271   4.992 -0.2116 -0.4360 -1.0353
  239MOL0     C32870   6.069   8.290   5.108  0.3809 -0.2776 -0.3824
  239MOL0     C32871   6.202   8.255   5.118 -0.2835  0.7165  0.4809
  239MOL0     C32872   6.267   8.273   5.249  0.0712  0.7730 -0.4669
  239MOL0     C32873   6.268   8.201   5.003 -0.2919 -0.6107  0.2593
  239MOL0     C32874   6.412   8.150   5.017  0.6025  0.3642  0.5823
  239MOL0     O32875   6.497   8.208   5.115  0.0305 -0.5052  0.1657
  239MOL0     C32876   6.623   8.154   5.122  0.9677 -0.7791 -0.1251
  239MOL0     C32877   6.654   8.100   5.243  0.3448  0.3791  0.3040
  239MOL0     C32878   6.772   8.030   5.265  0.5137 -0.4535 -0.0685
  239MOL0     C32879   6.870   8.024   5.163 -0.4938 -0.7440 -0.2744
  239MOL0     O32880   6.991   7.962   5.190 -0.8804  0.0091 -0.7509
  239MOL0     C32881   7.085   7.943   5.090  0.1884  0.5947 -0.4138
  239MOL0     C32882   7.195   7.839   5.132  0.1643 -0.3604 -0.0820
  239MOL0     C32883   7.315   7.849   5.037 -0.3941  0.1515 -0.1482
  239MOL0     C32884   7.436   7.771   5.086  0.9575  0.0731 -0.2715
  239MOL0     C32885   7.562   7.773   4.993  0.2326 -0.2830 -0.5632
  239MOL0     C32886   7.651   7.896   5.028  0.4311  0.2444 -0.0311
  239MOL0     C32887   7.792   7.890   4.976 -0.4823 -0.3121  0.2036
  239MOL0     C32888   7.798   7.886   4.824  0.2194 -0.1319  0.4495
  239MOL0    Cl32889   7.967   7.899   4.746  0.2950  0.2029  0.2633
  239MOL0     C32890   6.841   8.094   5.042 -0.2356 -0.5853  0.0270
  239MOL0     C32891   6.711   8.154   5.017 -0.1853 -0.0301  0.3365
  239MOL0     O32892   6.446   8.065   4.930  1.2824  0.2520  0.3026
  239MOL0     C32893   6.193   8.189   4.881 -0.1697 -0.5279  0.0179
  239MOL0     C32894   6.061   8.219   4.874  0.4281 -0.4964 -0.0002
  239MOL0     N32895   5.400   8.421   4.823 -0.2362 -0.5153 -0.4165
  239MOL0     N32896   5.288   8.461   4.871 -0.0778 -0.7754  0.1453
  239MOL0     C32897   4.200   8.173   5.189 -0.4853 -0.9463  0.1564
  239MOL0     C32898   4.064   8.210   5.160 -0.5120  0.7263  0.0627
  239MOL0     C32899   3.701   8.346   4.967 -0.3590 -0.6918  0.8238
  239MOL0     C32900   3.660   8.260   4.859  0.1297  1.1507 -0.5916
  239MOL0     C32901   3.536   8.271   4.803  0.1258 -0.5911  0.0595
  239MOL0     C32902   3.447   8.376   4.842 -0.3176 -0.5016 -0.6559
  239MOL0     O32903   3.336   8.370   4.757  0.7950 -0.1161 -0.1096
  239MOL0     C32904   3.248   8.491   4.734 -0.5007  0.3455 -0.8192
  239MOL0     C32905   3.173   8.535   4.866 -0.7945  0.6905  0.2750
  239MOL0     C32906   3.049   8.442   4.893 -0.2987 -0.0032 -0.8004
  239MOL0     C32907   3.077   8.295   4.886  0.3785 -0.6200  0.3600
  239MOL0     C32908   3.173   8.249   4.988  0.1033 -1.1364  0.0666
  239MOL0     C32909   3.257   8.227   5.070  0.1706  0.4623  0.6059
  239MOL0     C32910   3.489   8.471   4.934 -0.2223 -0.1267 -0.5189
  239MOL0     C32911   3.610   8.455   5.002  0.2617  0.3859 -0.0720
  239MOL0     C32912   3.641   8.574   5.088 -0.0751 -0.8456 -0.1559
  239MOL0     H32913   4.069   8.138   4.828 -0.5291  2.7776 -0.2928
  239MOL0     H32914   4.296   8.074   4.882  0.1917  0.2670  1.7895
  239MOL0     H32915   4.402   8.053   5.309  0.0665  2.2199  2.1982
  239MOL0     H32916   4.484   8.200   5.276  3.3611  0.5333 -2.6220
  239MOL0     H32917   4.623   7.994   5.344 -1.3606  1.7150  0.7486
  239MOL0     H32918   4.603   7.925   5.184 -0.8570 -0.7217  0.2953
  239MOL0     H32919   4.812   8.026   5.203 -0.9992 -2.9412 -1.3285
  239MOL0     H32920   4.705   8.123   5.088 -0.6738  0.0889  0.6867
  239MOL0     H32921   4.667   8.287   5.275 -0.8188 -0.9002  2.2501
  239MOL0     H32922   4.771   8.190   5.382  3.0510 -0.0357 -0.0795
  239MOL0     H32923   4.861   8.389   5.276 -0.1374  0.7667 -1.3997
  239MOL0     H32924   4.846   8.316   5.111  1.6811  0.1176 -0.0053
  239MOL0     H32925   5.022   8.224   5.336  1.6176  2.0103  1.0471
  239MOL0     H32926   5.014   8.147   5.177 -1.9689  0.1947  1.3913
  239MOL0     H32927   5.210   8.303   5.184 -0.9465 -1.0836 -0.0586
  239MOL0     H32928   5.108   8.442   5.214  2.5239  1.3762 -1.4655
  239MOL0     H32929   5.024   8.286   4.977  0.0111  0.4064 -2.0367
  239MOL0     H32930   5.050   8.460   5.000  0.4061 -0.3759 -0.1475
  239MOL0     H32931   5.262   8.142   4.932 -4.0165  1.8259 -0.3179
  239MOL0     H32932   5.521   8.228   4.665  2.3743  2.4013  2.3959
  239MOL0     H32933   5.471   8.092   4.762  0.9203 -0.6058 -2.7666
  239MOL0     H32934   5.705   8.141   4.779 -0.0933  1.4820 -2.8847
  239MOL0     H32935   5.672   8.313   4.801  1.3534  0.2206 -0.1090
  239MOL0     H32936   5.594   8.293   5.027 -0.3899 -1.7742  4.1778
  239MOL0     H32937   5.582   8.116   5.028 -2.2158  1.0938  0.8331
  239MOL0     H32938   5.777   8.213   5.147  0.8445  3.7608 -0.9891
  239MOL0     H32939   5.817   8.092   5.024  1.0710  0.5738  0.5531
  239MOL0     H32940   6.012   8.328   5.193 -0.5205 -3.2682  0.4649
  239MOL0     H32941   6.330   8.362   5.236  1.4335 -0.1811 -0.6928
  239MOL0     H32942   6.321   8.182   5.277 -0.6276 -0.2488 -2.2550
  239MOL0     H32943   6.195   8.288   5.329 -0.8714 -0.9758 -0.9520
  239MOL0     H32944   6.573   8.106   5.316 -2.3115  1.4269 -2.4941
  239MOL0     H32945   6.791   7.973   5.356  2.4429 -0.2494 -0.3076
  239MOL0     H32946   7.040   7.918   4.993 -1.9752  1.0247  0.4232
  239MOL0     H32947   7.135   8.040   5.082  1.7368 -0.3364 -3.0805
  239MOL0     H32948   7.223   7.849   5.237  1.9058  0.8365 -0.6083
  239MOL0     H32949   7.158   7.736   5.126 -2.7061  0.3915  2.3468
  239MOL0     H32950   7.340   7.954   5.020 -0.0941  0.4286  1.8712
  239MOL0     H32951   7.283   7.803   4.942  0.8872 -0.3678 -0.3474
  239MOL0     H32952   7.404   7.667   5.099 -1.5780  0.6209 -1.5836
  239MOL0     H32953   7.473   7.824   5.174  1.1146 -1.3602  0.5647
  239MOL0     H32954   7.617   7.680   5.010  0.6062 -0.0725 -0.6322
  239MOL0     H32955   7.525   7.780   4.890 -2.9025  0.9107  0.4987
  239MOL0     H32956   7.650   7.908   5.137  2.4569 -1.4240  0.2404
  239MOL0     H32957   7.600   7.986   4.992  1.8573  2.0910  2.2738
  239MOL0     H32958   7.844   7.808   5.027 -0.2206 -1.1487 -1.3142
  239MOL0     H32959   7.837   7.982   5.013  4.0475 -1.8199 -0.8418
  239MOL0     H32960   7.738   7.966   4.779 -0.3429 -1.0049 -0.4161
  239MOL0     H32961   7.755   7.789   4.796  0.4117 -0.2013  0.3907
  239MOL0     H32962   6.906   8.111   4.956  2.1797 -0.2650  1.8169
  239MOL0     H32963   6.687   8.213   4.928 -3.2147  0.8814  1.6272
  239MOL0     H32964   6.249   8.163   4.792 -0.2659  0.2501 -0.2835
  239MOL0     H32965   6.007   8.208   4.781  1.8888  0.7288 -1.0299
  239MOL0     H32966   4.224   8.179   5.295  1.6553  3.8661 -0.3647
  239MOL0     H32967   4.016   8.242   5.252  1.7879 -4.2081  3.3953
  239MOL0     H32968   3.723   8.181   4.819  0.7518  1.9180 -1.1725
  239MOL0     H32969   3.499   8.206   4.724 -2.7166 -0.6885  1.3206
  239MOL0     H32970   3.306   8.575   4.697 -0.6106  0.4979 -0.6481
  239MOL0     H32971   3.177   8.466   4.654  0.4169  2.2526 -2.3070
  239MOL0     H32972   3.142   8.639   4.854 -0.6761  1.0230  2.5184
  239MOL0     H32973   3.233   8.527   4.957  0.7261 -1.2839 -0.8025
  239MOL0     H32974   3.022   8.463   4.997  2.3210 -0.6324  0.0864
  239MOL0     H32975   2.974   8.466   4.817 -0.6596  1.8340  0.0627
  239MOL0     H32976   3.107   8.283   4.782 -2.4046  1.1643 -0.7693
  239MOL0     H32977   2.988   8.231   4.897  0.1970 -0.8749 -2.1129
  239MOL0     H32978   3.331   8.202   5.143 -0.9620 -0.5068  1.4809
  239MOL0     H32979   3.422   8.555   4.954  0.6719  1.0732 -2.3015
  239MOL0     H32980   3.558   8.645   5.097  0.9177  0.9632 -3.6784
  239MOL0     H32981   3.673   8.544   5.188  0.4299  0.2655  0.0238
  239MOL0     H32982   3.713   8.643   5.043  1.0080 -1.5246  0.4862
  240MOL0     O32983   6.859   4.889   8.641 -0.0666  0.1588 -0.3836
  240MOL0     C32984   6.881   5.001   8.668 -0.5305  0.0982  0.5954
  240MOL0     O32985   7.005   5.057   8.646 -0.0078 -0.4985 -0.5281
  240MOL0     C32986   7.083   5.006   8.548 -0.0502  0.4969 -0.0072
  240MOL0     C32987   7.212   4.959   8.585  0.5350  0.8018  0.2913
  240MOL0     C32988   7.307   4.914   8.499 -0.2521 -0.3587 -0.5659
  240MOL0     C32989   7.281   4.923   8.364  0.2921  0.0949 -0.4499
  240MOL0     O32990   7.374   4.896   8.266  0.1542 -0.5226 -0.4517
  240MOL0     C32991   7.469   4.791   8.296 -0.1903 -0.4386 -0.1113
  240MOL0     C32992   7.516   4.720   8.170 -0.2950 -1.3305 -0.4430
  240MOL0     C32993   7.621   4.805   8.090 -0.8740 -0.3344  0.8919
  240MOL0     C32994   7.658   4.745   7.950 -0.9646 -0.0207 -0.2706
  240MOL0     C32995   7.758   4.817   7.853  0.3964  0.7788 -1.0019
  240MOL0     C32996   7.751   4.781   7.703  0.6002 -0.4510  0.5277
  240MOL0     C32997   7.611   4.797   7.647 -0.5739 -0.6566  0.7203
  240MOL0     C32998   7.605   4.798   7.490  0.3685  0.1482  0.4033
  240MOL0     N32999   7.667   4.672   7.442 -0.2886  0.1724  0.3559
  240MOL0     C33000   7.645   4.545   7.488  0.0861  0.1816 -0.1277
  240MOL0     C33001   7.756   4.476   7.458 -0.1723 -0.1667  0.3688
  240MOL0     C33002   7.769   4.324   7.483  0.4161 -0.0159 -0.1345
  240MOL0     C33003   7.916   4.284   7.487 -0.4624 -0.8012 -0.1008
  240MOL0     C33004   7.987   4.356   7.611  0.6128 -0.5444  0.5915
  240MOL0     C33005   8.144   4.340   7.611 -0.0426 -0.0313 -0.4726
  240MOL0     O33006   8.189   4.217   7.651  0.4037  0.0978 -0.0809
  240MOL0     C33007   8.321   4.190   7.640 -0.6446 -0.2824 -0.3959
  240MOL0     C33008   8.355   4.059   7.681  0.8683 -0.4578 -0.4797
  240MOL0     C33009   8.484   4.029   7.718  0.7529  0.0270 -0.1153
  240MOL0     C33010   8.495   3.898   7.802 -0.0840  0.0941  0.4860
  240MOL0     C33011   8.592   4.114   7.680 -0.0146  0.0184 -0.2979
  240MOL0     C33012   8.738   4.072   7.693 -0.1371  0.0292 -0.3932
  240MOL0     O33013   8.772   3.963   7.769 -0.1330  0.2736 -0.6332
  240MOL0     C33014   8.901   3.940   7.797  0.0690  0.1981  0.1309
  240MOL0     C33015   8.988   4.043   7.831  0.3775  0.2936 -0.3540
  240MOL0     C33016   9.119   4.003   7.869  0.3331 -0.5761 -0.0191
  240MOL0     C33017   9.162   3.870   7.871 -0.7435 -0.9405 -0.2448
  240MOL0     O33018   9.286   3.838   7.916 -0.0686  0.0241 -0.0200
  240MOL0     C33019   9.386   3.936   7.926 -0.4457  0.0198  0.1449
  240MOL0     C33020   9.506   3.862   7.951 -1.0174 -0.0040  0.4263
  240MOL0     C33021   9.629   3.956   7.930  0.0445 -0.7294 -0.7100
  240MOL0     C33022   9.761   3.887   7.865  0.6990 -0.6543  0.3178
  240MOL0     C33023   9.878   3.979   7.846  0.1352  0.5085 -0.1454
  240MOL0     C33024   9.937   4.024   7.977 -0.2854 -0.5203  0.0090
  240MOL0     C33025  10.063   4.113   7.960  1.0049 -0.0513 -0.1298
  240MOL0     C33026  10.098   4.173   8.098 -0.0040 -0.2924 -0.2899
  240MOL0    Cl33027   9.978   4.303   8.153 -0.2208 -0.0653  0.1403
  240MOL0     C33028   9.063   3.773   7.844 -0.0843  0.1460  0.0021
  240MOL0     C33029   8.943   3.809   7.805  0.1346  0.2412  0.1160
  240MOL0     O33030   8.820   4.142   7.633  0.4256 -1.3346  0.1954
  240MOL0     C33031   8.565   4.240   7.627  0.1459  0.9367 -0.0156
  240MOL0     C33032   8.429   4.280   7.614 -0.2433 -0.2971 -0.1358
  240MOL0     N33033   7.842   4.560   7.381  0.0096  0.5968 -0.5941
  240MOL0     N33034   7.785   4.672   7.362 -0.3030 -0.1063  0.4723
  240MOL0     C33035   7.155   4.964   8.320  0.0611  1.0714 -0.3150
  240MOL0     C33036   7.062   5.014   8.414  0.1077 -0.8206  0.5774
  240MOL0     C33037   6.770   5.084   8.733 -0.3094  0.1357  0.4523
  240MOL0     C33038   6.676   5.014   8.808 -0.0708 -0.8943 -0.2025
  240MOL0     C33039   6.570   5.076   8.879  0.1732 -0.2293 -0.5589
  240MOL0     C33040   6.552   5.216   8.862  0.1623  0.2212 -0.0698
  240MOL0     O33041   6.435   5.276   8.918 -0.6312  0.4852  0.1141
  240MOL0     C33042   6.386   5.227   9.047 -0.2431 -0.5547  1.0841
  240MOL0     C33043   6.298   5.335   9.110 -0.1561 -0.2769  0.5584
  240MOL0     C33044   6.370   5.461   9.160  0.7481 -0.3963 -0.2218
  240MOL0     C33045   6.297   5.502   9.292 -0.2719  0.9956  0.5831
  240MOL0     C33046   6.372   5.625   9.326 -0.0361  0.2381 -0.9173
  240MOL0     C33047   6.431   5.720   9.377  0.4430  0.4627 -0.0608
  240MOL0     C33048   6.640   5.287   8.778  0.5123 -0.2705  0.5636
  240MOL0     C33049   6.751   5.220   8.721 -0.3717 -0.1845 -0.9065
  240MOL0     C33050   6.840   5.301   8.631 -0.2302 -0.1932  0.3549
  240MOL0     H33051   7.237   4.967   8.691 -0.3284 -1.6023  0.7433
  240MOL0     H33052   7.404   4.887   8.540 -1.2462 -1.1525  1.3828
  240MOL0     H33053   7.425   4.720   8.367 -2.8556  0.1928 -1.0148
  240MOL0     H33054   7.558   4.834   8.343  0.0752  1.2022 -1.9912
  240MOL0     H33055   7.568   4.629   8.201  0.2527 -0.5623  0.9760
  240MOL0     H33056   7.435   4.679   8.108 -0.4420  0.1850 -1.3148
  240MOL0     H33057   7.573   4.902   8.072  1.2686  0.3261 -1.8808
  240MOL0     H33058   7.719   4.813   8.137  1.1774 -0.5301 -2.9501
  240MOL0     H33059   7.715   4.653   7.964  0.5579  0.9879  0.4938
  240MOL0     H33060   7.564   4.729   7.896  0.1117 -2.3220 -1.6220
  240MOL0     H33061   7.857   4.794   7.895 -0.5536 -1.5341  0.1566
  240MOL0     H33062   7.733   4.923   7.865  0.4225  0.6586  0.2480
  240MOL0     H33063   7.816   4.850   7.649 -1.8756  0.9471 -0.8515
  240MOL0     H33064   7.786   4.679   7.688  0.9291 -1.0883  4.5027
  240MOL0     H33065   7.583   4.896   7.684  1.8616  0.0724  0.7444
  240MOL0     H33066   7.549   4.715   7.686 -0.6967 -1.2627 -0.6811
  240MOL0     H33067   7.505   4.826   7.457  1.1703 -1.4335 -4.0633
  240MOL0     H33068   7.671   4.877   7.453  0.6790  0.6580  1.9340
  240MOL0     H33069   7.557   4.513   7.542  1.3839 -1.4150  1.1343
  240MOL0     H33070   7.726   4.272   7.397  0.4533  0.3939 -0.4053
  240MOL0     H33071   7.721   4.299   7.578  0.4110 -1.0432 -0.3969
  240MOL0     H33072   7.921   4.175   7.492 -0.5461 -0.8681 -1.1130
  240MOL0     H33073   7.956   4.327   7.394  0.8429  1.8349  1.5724
  240MOL0     H33074   7.964   4.463   7.599 -1.4284 -1.1010 -1.0863
  240MOL0     H33075   7.949   4.317   7.706  1.2087  0.5865  1.3272
  240MOL0     H33076   8.184   4.342   7.509 -0.3897  1.3341 -0.6051
  240MOL0     H33077   8.194   4.415   7.673 -0.8478  3.9967 -4.1806
  240MOL0     H33078   8.276   3.985   7.685  1.8474 -1.5049  0.0734
  240MOL0     H33079   8.588   3.844   7.781 -0.1760  0.0171  0.2811
  240MOL0     H33080   8.417   3.824   7.785  0.2691 -0.0398 -0.6455
  240MOL0     H33081   8.505   3.924   7.908  1.5983  0.0058  0.3889
  240MOL0     H33082   8.960   4.147   7.832  1.3219  0.5712 -1.3658
  240MOL0     H33083   9.191   4.077   7.903 -3.3340  2.9569  0.7819
  240MOL0     H33084   9.379   3.998   7.836 -1.4070  0.0563  0.2280
  240MOL0     H33085   9.366   4.003   8.011 -0.3302 -1.7051  1.5758
  240MOL0     H33086   9.518   3.822   8.052  2.0586  2.2227  1.0760
  240MOL0     H33087   9.513   3.793   7.867  1.6583  1.8619 -1.0362
  240MOL0     H33088   9.646   3.994   8.031 -1.5444  1.6144 -1.2415
  240MOL0     H33089   9.605   4.041   7.865 -2.5712 -2.5031 -2.2909
  240MOL0     H33090   9.728   3.839   7.773  1.1999 -0.8487  0.2386
  240MOL0     H33091   9.798   3.812   7.935  3.0939 -0.2730 -0.4529
  240MOL0     H33092   9.959   3.936   7.786  1.4051 -0.2819  2.0156
  240MOL0     H33093   9.842   4.065   7.788  0.8834  0.1307 -1.1825
  240MOL0     H33094   9.977   3.935   8.026  1.1222 -0.1489 -0.4417
  240MOL0     H33095   9.864   4.069   8.045 -0.3012 -2.0794  1.0974
  240MOL0     H33096  10.036   4.205   7.906 -2.3871  0.2278  1.8009
  240MOL0     H33097  10.142   4.059   7.907  0.2172  2.0102 -3.7768
  240MOL0     H33098  10.200   4.213   8.096  0.5480 -1.4204  1.9428
  240MOL0     H33099  10.107   4.091   8.170 -2.9163 -1.9998 -1.7070
  240MOL0     H33100   9.096   3.670   7.839  0.6724  0.2717  1.6388
  240MOL0     H33101   8.881   3.728   7.769  0.5662 -0.5258  1.0745
  240MOL0     H33102   8.648   4.306   7.603  0.7294  0.8814  1.7779
  240MOL0     H33103   8.404   4.379   7.577  0.7743  0.3131  0.7536
  240MOL0     H33104   7.132   4.961   8.214 -0.0659 -0.0732 -0.2697
  240MOL0     H33105   6.965   5.049   8.381  0.2871 -1.8379 -1.1608
  240MOL0     H33106   6.695   4.907   8.810 -1.0444 -1.0655  0.6235
  240MOL0     H33107   6.499   5.017   8.935 -1.0148 -2.0830 -3.7556
  240MOL0     H33108   6.333   5.132   9.036 -1.3402 -0.1158  2.4331
  240MOL0     H33109   6.477   5.212   9.106  0.6314 -0.1182 -0.1173
  240MOL0     H33110   6.244   5.285   9.191 -1.5054  1.0683  0.5248
  240MOL0     H33111   6.222   5.376   9.043  1.8699 -0.0068 -1.7120
  240MOL0     H33112   6.472   5.436   9.190  0.3012 -0.7512  1.0776
  240MOL0     H33113   6.371   5.544   9.089 -1.4200 -0.7739 -0.7842
  240MOL0     H33114   6.296   5.430   9.374 -1.7595 -0.0773 -0.3222
  240MOL0     H33115   6.192   5.520   9.267 -0.4374 -0.0822  0.4268
  240MOL0     H33116   6.489   5.798   9.421  3.3645  0.9276 -4.1027
  240MOL0     H33117   6.607   5.385   8.745  3.9435  0.2886 -1.6371
  240MOL0     H33118   6.935   5.305   8.684  0.4841 -0.1013 -0.8873
  240MOL0     H33119   6.846   5.243   8.539  0.7245 -1.4944  1.2085
  240MOL0     H33120   6.803   5.404   8.621  0.7090  0.1893  0.7262
  241MOL0     O33121   4.341   4.171   8.534  0.0514 -0.4033 -0.0976
  241MOL0     C33122   4.314   4.157   8.414 -0.7329 -0.6673  0.1910
  241MOL0     O33123   4.403   4.125   8.314 -0.4866  0.5391  0.4220
  241MOL0     C33124   4.531   4.084   8.344  0.3054  0.1664  0.5640
  241MOL0     C33125   4.585   3.981   8.272 -0.3449 -0.5533  1.3749
  241MOL0     C33126   4.713   3.930   8.300  0.3810  0.4363  0.2309
  241MOL0     C33127   4.792   3.990   8.397  0.3446 -0.4819 -1.2468
  241MOL0     O33128   4.907   3.921   8.434  0.2917 -0.5743 -0.3660
  241MOL0     C33129   5.014   4.002   8.489 -0.0372  0.2479 -0.3657
  241MOL0     C33130   5.136   3.916   8.499  0.1370 -0.5828 -0.3889
  241MOL0     C33131   5.257   3.983   8.572 -0.2812  0.8660  0.3798
  241MOL0     C33132   5.373   3.876   8.568  0.2470 -0.1563  0.4888
  241MOL0     C33133   5.486   3.933   8.657  0.7337 -0.4085 -0.0530
  241MOL0     C33134   5.618   3.867   8.645  0.1692  0.6891  0.1571
  241MOL0     C33135   5.691   3.876   8.506 -0.8025  0.7160 -0.1937
  241MOL0     C33136   5.716   4.020   8.457  0.5617  0.8050 -0.6665
  241MOL0     N33137   5.758   4.112   8.561 -0.4879  0.1333 -0.1416
  241MOL0     C33138   5.884   4.119   8.624 -0.1222 -1.1355 -0.0808
  241MOL0     C33139   5.878   4.230   8.699  0.4160  2.2639  0.4710
  241MOL0     C33140   5.974   4.287   8.801 -0.6409 -0.4871 -0.6193
  241MOL0     C33141   6.129   4.275   8.770 -0.0166 -0.2904  1.4717
  241MOL0     C33142   6.215   4.314   8.882  0.2848  0.6419  0.5048
  241MOL0     C33143   6.365   4.315   8.854  0.1960 -0.7109 -1.2970
  241MOL0     O33144   6.393   4.178   8.823  0.1845  0.4379 -0.4337
  241MOL0     C33145   6.522   4.137   8.840 -0.3326 -0.7998 -0.7613
  241MOL0     C33146   6.633   4.212   8.866 -0.5946  0.3415 -0.2667
  241MOL0     C33147   6.757   4.149   8.891 -0.5677 -0.0692  0.3509
  241MOL0     C33148   6.868   4.235   8.932 -0.8151 -0.5081  0.0998
  241MOL0     C33149   6.771   4.011   8.861  0.9255  0.6884 -0.0969
  241MOL0     C33150   6.894   3.928   8.876 -0.9039  0.5176 -0.1714
  241MOL0     O33151   6.902   3.802   8.819  0.3888  0.4383 -0.2468
  241MOL0     C33152   7.014   3.735   8.860  0.2499  0.4774 -0.2261
  241MOL0     C33153   7.056   3.710   8.994 -0.0581 -0.2740 -0.0370
  241MOL0     C33154   7.171   3.634   9.022  0.1597  0.0902  0.6899
  241MOL0     C33155   7.250   3.581   8.922 -0.1709  0.3577 -0.2830
  241MOL0     O33156   7.368   3.510   8.941  0.4383  0.4031  0.3394
  241MOL0     C33157   7.374   3.423   9.059 -0.3715  0.0288  0.6421
  241MOL0     C33158   7.516   3.349   9.066 -0.3092  0.5282 -0.5084
  241MOL0     C33159   7.536   3.266   9.198 -0.2473 -0.2011 -0.6124
  241MOL0     C33160   7.671   3.215   9.221  0.1553  0.5051 -0.1901
  241MOL0     C33161   7.689   3.135   9.353  0.0224 -0.0837  0.3315
  241MOL0     C33162   7.820   3.060   9.348 -1.1475 -0.4394  0.1463
  241MOL0     C33163   7.943   3.142   9.374  0.4530  0.3351  0.0765
  241MOL0     C33164   8.063   3.045   9.420 -0.4237 -0.7389 -0.3180
  241MOL0    Cl33165   8.202   3.151   9.465  0.2808  0.8258 -0.4026
  241MOL0     C33166   7.204   3.590   8.791  0.5015 -0.5131  0.5958
  241MOL0     C33167   7.084   3.666   8.765 -0.0875  0.3999  0.9258
  241MOL0     O33168   6.992   3.984   8.934  0.4504 -0.4156  0.6362
  241MOL0     C33169   6.654   3.940   8.821 -0.3552  0.3889  0.6042
  241MOL0     C33170   6.533   4.000   8.816  0.7705  0.6091  0.5492
  241MOL0     N33171   5.750   4.278   8.694  0.0621 -0.2140  0.9177
  241MOL0     N33172   5.681   4.221   8.603 -0.7980 -0.4656  0.0605
  241MOL0     C33173   4.741   4.107   8.460 -0.5000 -0.0305  0.0164
  241MOL0     C33174   4.613   4.145   8.438  0.6408 -1.1016  0.4912
  241MOL0     C33175   4.175   4.186   8.371  0.0235  0.2084  0.4087
  241MOL0     C33176   4.149   4.185   8.233  0.0860 -0.2847 -0.4665
  241MOL0     C33177   4.022   4.216   8.180 -0.0170  0.4188  0.6087
  241MOL0     C33178   3.916   4.249   8.259  1.2706 -0.9312  1.0835
  241MOL0     O33179   3.797   4.293   8.200 -1.1507  0.6450  0.3911
  241MOL0     C33180   3.671   4.262   8.263  0.1558 -0.0747 -0.2589
  241MOL0     C33181   3.561   4.331   8.183 -0.5860  0.1150  0.1989
  241MOL0     C33182   3.427   4.300   8.231 -0.0137  0.3354  1.0452
  241MOL0     C33183   3.375   4.401   8.322 -0.1428 -0.0814 -0.2624
  241MOL0     C33184   3.241   4.361   8.365  0.2059 -0.0041 -0.2669
  241MOL0     C33185   3.129   4.324   8.386  0.0580 -0.0864 -0.3303
  241MOL0     C33186   3.940   4.256   8.397 -0.6937  0.4387 -0.1459
  241MOL0     C33187   4.059   4.214   8.457 -0.4226 -0.2815  0.5621
  241MOL0     C33188   4.067   4.238   8.608 -0.6741 -0.3433 -0.2524
  241MOL0     H33189   4.513   3.942   8.201  1.7349 -1.5025 -0.3324
  241MOL0     H33190   4.759   3.845   8.251 -0.5458 -1.9474  3.2398
  241MOL0     H33191   4.997   4.050   8.586  0.9156  0.2432 -0.1841
  241MOL0     H33192   5.036   4.087   8.423  3.4849  1.4757  2.0643
  241MOL0     H33193   5.105   3.820   8.541  0.4843 -0.7475 -0.5093
  241MOL0     H33194   5.167   3.891   8.397  0.7236 -4.0763  0.5138
  241MOL0     H33195   5.282   4.070   8.510  0.5350  0.0589 -0.4410
  241MOL0     H33196   5.231   4.016   8.673 -0.6069  2.6681 -0.2462
  241MOL0     H33197   5.354   3.781   8.619  0.5985  0.2083  1.3293
  241MOL0     H33198   5.413   3.855   8.469 -2.3992  2.6544 -1.3610
  241MOL0     H33199   5.450   3.914   8.759 -1.2959 -0.4137 -0.7402
  241MOL0     H33200   5.492   4.042   8.644  2.9032 -0.5476 -0.7144
  241MOL0     H33201   5.678   3.904   8.728 -1.4483 -0.6079  1.9825
  241MOL0     H33202   5.606   3.759   8.655 -0.7986  0.7557 -0.1502
  241MOL0     H33203   5.647   3.812   8.429  3.5285 -2.0585 -0.7470
  241MOL0     H33204   5.790   3.829   8.514 -2.0427 -1.9801  0.3427
  241MOL0     H33205   5.772   4.048   8.367  1.0353 -0.3227 -0.7424
  241MOL0     H33206   5.616   4.046   8.421 -1.2128  0.4583  3.4649
  241MOL0     H33207   5.976   4.061   8.615  2.4749  2.6062 -0.1140
  241MOL0     H33208   5.953   4.246   8.900  0.5473  0.0709 -0.1172
  241MOL0     H33209   5.966   4.395   8.815  1.8266 -0.2123 -0.8668
  241MOL0     H33210   6.148   4.169   8.755 -0.0342 -0.1207  0.1636
  241MOL0     H33211   6.150   4.321   8.673 -1.4392 -1.0951  0.7435
  241MOL0     H33212   6.186   4.407   8.932 -3.1678 -1.3830  2.6618
  241MOL0     H33213   6.211   4.238   8.960  2.4850  0.8128  0.8666
  241MOL0     H33214   6.390   4.379   8.769 -0.4003 -0.4091 -1.2466
  241MOL0     H33215   6.424   4.347   8.940 -1.0719 -5.2393  1.6224
  241MOL0     H33216   6.640   4.319   8.886 -0.7472  0.0885  1.2998
  241MOL0     H33217   6.927   4.197   9.016 -0.1045  0.9953  0.3282
  241MOL0     H33218   6.846   4.336   8.969  3.7338  0.9424 -0.4449
  241MOL0     H33219   6.944   4.245   8.854  1.4422  0.8303  2.2791
  241MOL0     H33220   6.998   3.732   9.083  3.2428 -0.3541  2.3334
  241MOL0     H33221   7.197   3.605   9.123 -0.5297  1.9011  1.4257
  241MOL0     H33222   7.361   3.477   9.153  1.5201  1.0740  0.3569
  241MOL0     H33223   7.300   3.342   9.059 -0.6280  0.2347  2.1436
  241MOL0     H33224   7.522   3.288   8.975 -2.5935  2.3384 -1.9940
  241MOL0     H33225   7.600   3.420   9.068  2.3125 -2.3444  1.4448
  241MOL0     H33226   7.464   3.184   9.191  0.3316 -0.8329  0.4251
  241MOL0     H33227   7.487   3.307   9.287  0.4639 -2.9150  1.1576
  241MOL0     H33228   7.749   3.291   9.235  2.2646 -1.3519 -1.2510
  241MOL0     H33229   7.699   3.150   9.137 -0.3977  0.5337 -0.4011
  241MOL0     H33230   7.700   3.197   9.443  0.7715 -1.7627  1.4318
  241MOL0     H33231   7.601   3.071   9.356 -0.6042  0.7850  1.1699
  241MOL0     H33232   7.823   2.999   9.257 -1.7394 -0.4219  0.1056
  241MOL0     H33233   7.819   2.991   9.433 -2.5498 -1.1009 -0.3686
  241MOL0     H33234   7.927   3.213   9.456 -0.5475 -2.2523  2.2762
  241MOL0     H33235   7.957   3.199   9.282 -5.9454  2.9547  0.2268
  241MOL0     H33236   8.084   2.963   9.351  0.8844 -0.8901  0.2201
  241MOL0     H33237   8.045   2.999   9.518  2.4490  0.5766  0.9434
  241MOL0     H33238   7.259   3.535   8.715  0.3842  0.2059 -0.0274
  241MOL0     H33239   7.056   3.677   8.660 -1.1011  0.3191  1.1694
  241MOL0     H33240   6.658   3.834   8.800  2.9041  0.0722  2.1876
  241MOL0     H33241   6.448   3.939   8.787 -0.2059  1.2978  1.8669
  241MOL0     H33242   4.795   4.159   8.538  0.9677 -2.5930  0.8371
  241MOL0     H33243   4.566   4.228   8.490  0.6297 -0.3573 -0.6738
  241MOL0     H33244   4.222   4.139   8.166  0.0375 -0.6054 -0.3023
  241MOL0     H33245   4.006   4.212   8.073 -0.3102  0.2794  0.6590
  241MOL0     H33246   3.657   4.154   8.271 -2.5484  0.3848  3.4915
  241MOL0     H33247   3.660   4.315   8.357  0.0330  0.2613 -0.4596
  241MOL0     H33248   3.570   4.288   8.082 -0.7489  0.2557  0.1242
  241MOL0     H33249   3.573   4.439   8.187  3.2479 -0.2068  3.0624
  241MOL0     H33250   3.360   4.290   8.146  1.1287  0.3601  0.1171
  241MOL0     H33251   3.423   4.206   8.286  0.5169 -1.3289 -1.5901
  241MOL0     H33252   3.361   4.496   8.269  1.3109  1.1305  1.4173
  241MOL0     H33253   3.440   4.414   8.409 -1.2566  1.2274  0.4075
  241MOL0     H33254   3.028   4.299   8.409  0.8114 -1.5331  1.8162
  241MOL0     H33255   3.853   4.293   8.451 -2.0469 -1.6688 -0.7628
  241MOL0     H33256   3.964   4.238   8.647 -0.5217  0.2674  0.1691
  241MOL0     H33257   4.135   4.159   8.640 -0.7588 -0.4476 -0.3263
  241MOL0     H33258   4.107   4.338   8.628  1.1959 -1.0361 -0.3731
  242MOL0     O33259   2.463   5.297   9.694 -0.2047 -0.2948 -0.2677
  242MOL0     C33260   2.409   5.197   9.643 -0.1055  0.0565  0.7169
  242MOL0     O33261   2.458   5.095   9.572  0.3391 -0.4763  0.1915
  242MOL0     C33262   2.583   5.106   9.519  0.8398  0.0333  0.1003
  242MOL0     C33263   2.612   5.202   9.427 -0.3507  0.0139 -0.8384
  242MOL0     C33264   2.745   5.205   9.381 -0.2098  0.2611  0.3008
  242MOL0     C33265   2.852   5.127   9.426  0.1006  0.4163 -0.6190
  242MOL0     O33266   2.975   5.139   9.380 -0.0100 -0.1592 -0.5457
  242MOL0     C33267   3.063   5.024   9.382  0.2736 -0.6598 -0.6952
  242MOL0     C33268   3.201   5.064   9.327 -0.2868 -0.2456  0.1701
  242MOL0     C33269   3.300   4.947   9.352 -0.7197 -0.3261 -0.3104
  242MOL0     C33270   3.432   4.974   9.278 -0.5968  0.2522  0.9319
  242MOL0     C33271   3.525   4.860   9.301 -0.5768 -0.1489  0.1211
  242MOL0     C33272   3.664   4.898   9.233 -0.0229  0.8962  0.1785
  242MOL0     C33273   3.777   4.792   9.238 -0.1523  1.2192  0.6449
  242MOL0     C33274   3.925   4.841   9.247  0.2853 -0.0703 -0.0619
  242MOL0     N33275   3.940   4.933   9.357  0.5731  0.1894 -0.1754
  242MOL0     C33276   3.942   4.889   9.490 -0.2294  0.3214 -0.0118
  242MOL0     C33277   3.959   5.001   9.567  0.2172 -1.0790  0.6009
  242MOL0     C33278   3.965   5.017   9.719  0.1826  0.3254 -0.5567
  242MOL0     C33279   3.854   4.923   9.775  0.0544 -0.0195  0.7450
  242MOL0     C33280   3.851   4.940   9.927  0.2621 -0.4348  0.9726
  242MOL0     C33281   3.790   5.063   9.976  0.4231  0.1235  0.7021
  242MOL0     O33282   3.781   5.089  10.122 -0.5106  0.2754 -0.5532
  242MOL0     C33283   3.884   5.164  10.178 -0.8316 -0.5726  0.0857
  242MOL0     C33284   3.881   5.175  10.311  0.4178  0.1097 -0.0903
  242MOL0     C33285   3.973   5.258  10.383 -0.7102 -0.4165 -0.2009
  242MOL0     C33286   3.948   5.272  10.527  0.6080 -0.3578  0.8818
  242MOL0     C33287   4.072   5.330  10.309  0.1169 -0.5795  0.6926
  242MOL0     C33288   4.152   5.437  10.369  0.6360 -0.4908 -0.0651
  242MOL0     O33289   4.274   5.463  10.305 -0.5223  0.8660  0.7697
  242MOL0     C33290   4.334   5.578  10.342 -0.6105  0.2829 -0.3133
  242MOL0     C33291   4.319   5.687  10.262  0.2659  0.6318  0.5066
  242MOL0     C33292   4.384   5.807  10.295  0.3687 -0.2094 -0.4899
  242MOL0     C33293   4.475   5.814  10.404 -1.0357 -0.8774  0.3896
  242MOL0     O33294   4.561   5.922  10.425 -0.2816  0.2774  0.4224
  242MOL0     C33295   4.517   6.047  10.375  1.4198 -1.2288 -0.9076
  242MOL0     C33296   4.392   6.110  10.454  0.2015  0.1414  0.1903
  242MOL0     C33297   4.440   6.208  10.564 -0.2002 -0.0695 -0.4126
  242MOL0     C33298   4.326   6.266  10.647 -0.5359  0.4125 -0.0906
  242MOL0     C33299   4.390   6.329  10.772  0.5705 -0.0213  0.2237
  242MOL0     C33300   4.273   6.374  10.863 -1.2297 -0.5556  0.3705
  242MOL0     C33301   4.304   6.464  10.979 -0.7611 -0.4968  0.2947
  242MOL0     C33302   4.365   6.375  11.094  0.1996  0.1318  0.6550
  242MOL0    Cl33303   4.237   6.254  11.132  0.2125 -0.0582 -0.0838
  242MOL0     C33304   4.492   5.698  10.478  0.0446 -0.4522  0.3647
  242MOL0     C33305   4.421   5.580  10.456  0.3054 -0.1887 -0.4401
  242MOL0     O33306   4.119   5.503  10.472  0.3499  0.1072  0.9378
  242MOL0     C33307   4.084   5.298  10.173  0.0870  0.1071  0.6925
  242MOL0     C33308   3.999   5.208  10.108 -0.1413  0.3646  0.5776
  242MOL0     N33309   3.982   5.107   9.479  0.0337 -0.1086 -0.1852
  242MOL0     N33310   3.980   5.062   9.356  0.0181  0.3388  0.9186
  242MOL0     C33311   2.814   5.031   9.515 -0.1681 -0.2864 -0.6592
  242MOL0     C33312   2.681   5.019   9.575 -0.1543  0.0936  1.2808
  242MOL0     C33313   2.271   5.173   9.669  0.5136  0.7552  0.1423
  242MOL0     C33314   2.229   5.037   9.699 -0.0335 -0.2115  0.7327
  242MOL0     C33315   2.093   5.008   9.713  1.0838 -0.2259  0.5143
  242MOL0     C33316   1.992   5.110   9.720  0.5750 -0.5807 -0.8634
  242MOL0     O33317   1.857   5.072   9.746 -0.6899 -0.5525 -0.2307
  242MOL0     C33318   1.738   5.137   9.709  0.1762 -0.4565  1.2773
  242MOL0     C33319   1.644   5.038   9.645  0.3928  0.5844  0.8836
  242MOL0     C33320   1.687   5.004   9.499  0.1430  0.5620 -0.2970
  242MOL0     C33321   1.653   4.860   9.468 -0.4925 -0.3029  0.3461
  242MOL0     C33322   1.508   4.835   9.451 -1.2857  0.5200  0.2320
  242MOL0     C33323   1.395   4.793   9.449 -0.5143 -0.2750  1.2099
  242MOL0     C33324   2.035   5.246   9.702 -0.0489  0.0167  1.4416
  242MOL0     C33325   2.172   5.278   9.660 -0.2124 -0.1782 -0.8302
  242MOL0     C33326   2.208   5.421   9.634  0.2943 -0.0145  0.3656
  242MOL0     H33327   2.535   5.272   9.393 -1.3382 -1.6950 -2.3007
  242MOL0     H33328   2.772   5.264   9.295 -0.8618 -0.2514 -0.2587
  242MOL0     H33329   3.017   4.951   9.315  1.7063 -0.6301 -1.7592
  242MOL0     H33330   3.070   4.978   9.481  0.8804  0.1874 -0.3382
  242MOL0     H33331   3.192   5.073   9.219  2.3865  1.3330 -0.0175
  242MOL0     H33332   3.242   5.157   9.369  0.5412 -0.4534 -0.1651
  242MOL0     H33333   3.314   4.941   9.460  0.6961 -1.9041 -0.5333
  242MOL0     H33334   3.256   4.854   9.315 -1.3983  0.8240 -2.6263
  242MOL0     H33335   3.411   4.991   9.172 -1.9829 -1.1638  0.9483
  242MOL0     H33336   3.474   5.066   9.321 -0.4386  0.3138  0.6478
  242MOL0     H33337   3.492   4.763   9.262 -1.2852  0.0515  0.2147
  242MOL0     H33338   3.550   4.849   9.407  0.3177 -1.7996 -0.2145
  242MOL0     H33339   3.663   4.918   9.125 -0.4424 -1.8560 -0.3807
  242MOL0     H33340   3.691   4.993   9.281 -3.3555  2.1212 -0.1135
  242MOL0     H33341   3.770   4.729   9.149  0.2435  0.8597  0.8641
  242MOL0     H33342   3.751   4.726   9.322  0.6275 -1.3250 -0.9963
  242MOL0     H33343   3.996   4.758   9.258 -0.0670 -0.4784 -0.7842
  242MOL0     H33344   3.944   4.889   9.150 -1.7431 -4.2773 -2.8600
  242MOL0     H33345   3.926   4.789   9.530  0.0561  0.5282  0.6417
  242MOL0     H33346   3.938   5.120   9.743 -1.1573  0.2819 -1.7674
  242MOL0     H33347   4.064   4.986   9.753 -0.3312 -0.3010  0.4171
  242MOL0     H33348   3.752   4.948   9.746  0.3813 -1.2032 -1.7372
  242MOL0     H33349   3.882   4.825   9.735  3.6751  1.3557 -0.5066
  242MOL0     H33350   3.797   4.848   9.952 -0.4767 -0.1922  0.3042
  242MOL0     H33351   3.955   4.934   9.958  0.0035  0.4426  2.1132
  242MOL0     H33352   3.833   5.146   9.919  0.3400  0.9136  1.7504
  242MOL0     H33353   3.684   5.070   9.949  0.4074  0.5218  0.8625
  242MOL0     H33354   3.809   5.120  10.371  0.9985  0.5788  1.0614
  242MOL0     H33355   3.912   5.374  10.540  0.3764 -0.2068 -0.8110
  242MOL0     H33356   4.042   5.260  10.582  1.0160  2.1750  0.8244
  242MOL0     H33357   3.868   5.200  10.550  1.3225 -1.8274 -0.9722
  242MOL0     H33358   4.261   5.675  10.171  1.9781  2.9041 -0.9809
  242MOL0     H33359   4.370   5.888  10.224  2.0576  1.6939  1.1965
  242MOL0     H33360   4.600   6.117  10.389  0.0268  0.2435  0.6313
  242MOL0     H33361   4.496   6.044  10.268  0.0878  3.9976 -1.0521
  242MOL0     H33362   4.331   6.160  10.379 -0.5638 -0.4735  0.3958
  242MOL0     H33363   4.334   6.027  10.495 -0.9925 -0.1900 -2.0330
  242MOL0     H33364   4.498   6.290  10.521 -0.8070 -0.1419 -1.4254
  242MOL0     H33365   4.504   6.147  10.628 -2.3100 -1.8529  0.1363
  242MOL0     H33366   4.257   6.185  10.674 -3.6132  2.6165 -0.8781
  242MOL0     H33367   4.272   6.341  10.589  0.2240  2.2663  1.4929
  242MOL0     H33368   4.452   6.257  10.826  1.4485  0.0942 -0.6126
  242MOL0     H33369   4.438   6.419  10.735 -4.2985  2.7370 -0.2747
  242MOL0     H33370   4.197   6.297  10.884 -2.7218  0.5744 -0.6621
  242MOL0     H33371   4.216   6.435  10.793  0.7276 -0.9464 -1.6741
  242MOL0     H33372   4.222   6.529  11.011 -0.0983  1.8064 -2.2911
  242MOL0     H33373   4.379   6.538  10.947 -2.3897  0.7514 -0.7946
  242MOL0     H33374   4.397   6.424  11.186  1.8579 -1.1516  0.7961
  242MOL0     H33375   4.453   6.322  11.057  0.1277  1.8317 -2.2841
  242MOL0     H33376   4.566   5.711  10.556  0.7648 -0.1185 -0.3522
  242MOL0     H33377   4.443   5.490  10.513  0.2592  1.6438  2.7304
  242MOL0     H33378   4.148   5.359  10.111 -1.4040 -0.0865 -1.1221
  242MOL0     H33379   4.007   5.184  10.002 -2.3143  1.8361  0.0183
  242MOL0     H33380   2.880   4.948   9.536 -2.8859 -3.3921 -3.1956
  242MOL0     H33381   2.661   4.934   9.639  0.5433 -3.8048 -3.1031
  242MOL0     H33382   2.299   4.954   9.703  1.1604  0.7517  0.3772
  242MOL0     H33383   2.042   4.912   9.719 -2.7990  1.6711  0.9815
  242MOL0     H33384   1.703   5.196   9.794 -1.2753  0.3664  0.1667
  242MOL0     H33385   1.764   5.213   9.635  1.0067 -2.8936 -1.0929
  242MOL0     H33386   1.544   5.080   9.635  0.5127  0.8947  0.9958
  242MOL0     H33387   1.648   4.948   9.707 -0.7373 -2.2455 -2.7547
  242MOL0     H33388   1.638   5.064   9.422  0.2655  0.6343 -0.3200
  242MOL0     H33389   1.794   5.028   9.490  1.1754 -2.0304  2.9138
  242MOL0     H33390   1.697   4.782   9.531 -2.6851 -1.1318  0.9403
  242MOL0     H33391   1.700   4.834   9.372 -0.2281 -1.8502  0.8671
  242MOL0     H33392   1.294   4.761   9.430 -0.1839 -1.2396  1.0396
  242MOL0     H33393   1.957   5.322   9.697 -2.1066 -2.0835 -0.3298
  242MOL0     H33394   2.127   5.491   9.655 -0.2096 -0.8347  1.2378
  242MOL0     H33395   2.280   5.456   9.708 -0.8854  1.0692  1.0250
  242MOL0     H33396   2.237   5.440   9.530  0.2939 -1.4150  0.0783
  243MOL0     O33397   7.452   3.061   7.369 -0.4299  1.5114 -0.3390
  243MOL0     C33398   7.516   2.956   7.385  0.5353 -0.9973 -0.8481
  243MOL0     O33399   7.456   2.828   7.393  0.7530  0.0005  0.0594
  243MOL0     C33400   7.324   2.810   7.353 -0.8949 -0.2894  0.4886
  243MOL0     C33401   7.280   2.850   7.222 -0.2780 -0.6280 -0.0134
  243MOL0     C33402   7.150   2.827   7.173 -0.3114  0.7428  0.5440
  243MOL0     C33403   7.062   2.760   7.263  0.1704  0.6410 -0.1051
  243MOL0     O33404   6.936   2.741   7.219 -0.4434 -0.7158 -0.8147
  243MOL0     C33405   6.825   2.810   7.285 -1.3844 -0.0249  0.5541
  243MOL0     C33406   6.684   2.761   7.221 -0.5053 -0.3527 -0.2844
  243MOL0     C33407   6.562   2.841   7.286  0.6280  0.4004  0.0643
  243MOL0     C33408   6.428   2.761   7.280  0.0194  0.1254  0.0440
  243MOL0     C33409   6.300   2.842   7.294 -0.1816  0.5900  0.3463
  243MOL0     C33410   6.170   2.753   7.306  0.0716  0.2326  0.4549
  243MOL0     C33411   6.185   2.642   7.411 -0.2288 -0.7056 -0.0072
  243MOL0     C33412   6.218   2.686   7.562  0.6518 -0.2174  0.5562
  243MOL0     N33413   6.259   2.569   7.647 -0.0608 -0.1475  0.8082
  243MOL0     C33414   6.359   2.469   7.614 -0.0733  0.3783 -0.1690
  243MOL0     C33415   6.366   2.397   7.728  0.5776  0.7339  0.1336
  243MOL0     C33416   6.443   2.275   7.767  0.4434  0.5423 -0.3379
  243MOL0     C33417   6.590   2.278   7.747  0.0191 -0.2800 -0.0153
  243MOL0     C33418   6.669   2.156   7.801  0.1492  1.0930 -0.5153
  243MOL0     C33419   6.824   2.164   7.802  0.2298  0.2338  0.3248
  243MOL0     O33420   6.883   2.065   7.887 -0.4150 -0.1449  0.1817
  243MOL0     C33421   7.027   2.062   7.883  0.5815  0.3500  0.8256
  243MOL0     C33422   7.105   2.160   7.821  0.2072 -0.3416 -0.6308
  243MOL0     C33423   7.239   2.150   7.806  0.0313  1.2234  0.1727
  243MOL0     C33424   7.320   2.265   7.734 -0.3932  0.0947 -0.0863
  243MOL0     C33425   7.306   2.033   7.864  0.4415  0.4335  0.6894
  243MOL0     C33426   7.454   2.030   7.892 -0.3328 -0.9146 -0.7591
  243MOL0     O33427   7.495   1.909   7.946  0.2882 -0.3924 -0.0700
  243MOL0     C33428   7.634   1.889   7.959 -0.4994 -0.0969  0.5763
  243MOL0     C33429   7.694   1.803   7.867  0.4012 -0.0212  0.7716
  243MOL0     C33430   7.826   1.771   7.875  0.1028  0.5003 -0.2716
  243MOL0     C33431   7.901   1.838   7.960 -0.6015 -0.1015  0.0001
  243MOL0     O33432   8.034   1.791   7.952 -0.6929  0.0611  0.0896
  243MOL0     C33433   8.146   1.871   7.992  0.5043  0.5291  0.1808
  243MOL0     C33434   8.206   1.840   8.132 -0.2928  0.9737  0.5127
  243MOL0     C33435   8.357   1.859   8.131 -0.6879  0.1622 -0.0632
  243MOL0     C33436   8.423   1.819   8.266  0.1091 -0.4031  0.2122
  243MOL0     C33437   8.565   1.887   8.279  0.8538 -0.3405 -0.3031
  243MOL0     C33438   8.617   1.866   8.422 -0.2758 -0.5368  0.0215
  243MOL0     C33439   8.749   1.939   8.461  0.6406  0.1596  0.4861
  243MOL0     C33440   8.803   1.904   8.606  0.9065  0.3451  0.5288
  243MOL0    Cl33441   8.830   1.729   8.609  0.6712 -0.7060  0.2288
  243MOL0     C33442   7.851   1.926   8.051 -0.1162  0.7562  0.3402
  243MOL0     C33443   7.714   1.958   8.047  0.0969 -0.2740 -0.6017
  243MOL0     O33444   7.526   2.129   7.888  0.6175  0.2162  0.0154
  243MOL0     C33445   7.223   1.930   7.918  0.6817  0.6281  0.2284
  243MOL0     C33446   7.083   1.944   7.924 -0.6639 -0.3362 -0.6846
  243MOL0     N33447   6.293   2.456   7.828 -0.1803  0.4327 -0.7193
  243MOL0     N33448   6.232   2.557   7.781  0.2117 -0.0260 -0.0667
  243MOL0     C33449   7.099   2.715   7.392  0.2424  0.8223 -0.4766
  243MOL0     C33450   7.237   2.732   7.428  0.0051  0.3479  0.0889
  243MOL0     C33451   7.663   2.970   7.397  0.5622 -0.3122 -0.1880
  243MOL0     C33452   7.740   2.860   7.348 -0.9167  0.1400  0.4185
  243MOL0     C33453   7.885   2.863   7.342 -0.3045  0.7351  0.1064
  243MOL0     C33454   7.953   2.977   7.393  0.0545  0.4606  0.2168
  243MOL0     O33455   8.092   2.997   7.402 -0.1336  0.7159 -0.3342
  243MOL0     C33456   8.178   2.886   7.346  0.1744 -0.4260 -0.5374
  243MOL0     C33457   8.182   2.898   7.194 -0.4476  0.0276 -0.1360
  243MOL0     C33458   8.182   2.760   7.112  0.2060 -0.5387  0.0872
  243MOL0     C33459   8.304   2.666   7.111  0.3602 -0.0816 -0.2177
  243MOL0     C33460   8.419   2.729   7.042 -1.1109  0.5615  0.0747
  243MOL0     C33461   8.510   2.784   6.993 -1.0785 -0.3424  0.1207
  243MOL0     C33462   7.869   3.081   7.432  0.3764 -0.6793  0.0175
  243MOL0     C33463   7.729   3.083   7.442  0.6246 -0.1649  0.1794
  243MOL0     C33464   7.674   3.217   7.484  0.3375 -0.3735  0.3866
  243MOL0     H33465   7.336   2.907   7.148 -0.6823  0.1366  0.2554
  243MOL0     H33466   7.111   2.844   7.073 -2.8335  1.5775  1.5722
  243MOL0     H33467   6.830   2.919   7.288 -0.7616 -0.0615  1.1165
  243MOL0     H33468   6.821   2.775   7.388 -0.5306 -2.2081 -0.1009
  243MOL0     H33469   6.685   2.780   7.113 -2.1948  0.6916 -0.1445
  243MOL0     H33470   6.676   2.657   7.254  2.1288  0.0252  1.8813
  243MOL0     H33471   6.587   2.853   7.391  0.3942 -1.6538  0.3885
  243MOL0     H33472   6.566   2.935   7.231  3.7315  0.8107  0.8182
  243MOL0     H33473   6.426   2.705   7.186  0.8647 -0.0457  0.1216
  243MOL0     H33474   6.432   2.694   7.366  0.7188 -2.0943 -1.6112
  243MOL0     H33475   6.279   2.895   7.200 -0.1086 -2.0675 -1.2954
  243MOL0     H33476   6.315   2.905   7.382  4.3802  1.4875 -0.8202
  243MOL0     H33477   6.089   2.820   7.334 -0.4341 -0.1880  0.0071
  243MOL0     H33478   6.151   2.700   7.212 -0.8575  0.0154  0.7605
  243MOL0     H33479   6.264   2.576   7.373  2.7372  3.7908 -2.5377
  243MOL0     H33480   6.092   2.585   7.419 -1.2022  0.5545 -1.7534
  243MOL0     H33481   6.304   2.754   7.551  1.2256 -0.9255  0.5567
  243MOL0     H33482   6.131   2.740   7.600  1.3181  2.0361 -0.9418
  243MOL0     H33483   6.412   2.458   7.520 -0.6109  2.5562 -0.7746
  243MOL0     H33484   6.407   2.205   7.691 -0.2817  0.1786  0.3263
  243MOL0     H33485   6.426   2.237   7.868 -3.0824  1.8427 -0.2864
  243MOL0     H33486   6.612   2.275   7.640 -1.1769 -1.6802 -0.2478
  243MOL0     H33487   6.628   2.369   7.794 -0.3737  0.0230 -0.2842
  243MOL0     H33488   6.642   2.128   7.903  0.0065  0.0480 -0.8263
  243MOL0     H33489   6.628   2.075   7.739 -3.0867  1.8777  0.3801
  243MOL0     H33490   6.866   2.162   7.701 -1.0023  1.3666 -0.2324
  243MOL0     H33491   6.852   2.261   7.842  1.1020 -0.6912  2.0721
  243MOL0     H33492   7.066   2.254   7.781 -1.1857 -1.3208 -1.6724
  243MOL0     H33493   7.381   2.238   7.647 -0.5231  0.7745 -0.3970
  243MOL0     H33494   7.374   2.334   7.800 -1.7487  2.6319 -1.4822
  243MOL0     H33495   7.240   2.329   7.695 -3.0933 -1.8757  1.8875
  243MOL0     H33496   7.626   1.762   7.793 -0.8395  1.2857  1.1596
  243MOL0     H33497   7.883   1.708   7.808 -2.0146 -0.9278 -0.8316
  243MOL0     H33498   8.224   1.853   7.916  0.9030  2.8824 -0.0270
  243MOL0     H33499   8.108   1.973   7.984 -2.4212 -0.3090  1.8574
  243MOL0     H33500   8.155   1.911   8.198  0.5430  0.8451  1.3208
  243MOL0     H33501   8.188   1.737   8.162  2.3219  0.0079 -0.9084
  243MOL0     H33502   8.376   1.964   8.105 -2.5705  0.7033  0.5685
  243MOL0     H33503   8.406   1.793   8.059  1.9244  2.4150 -0.5318
  243MOL0     H33504   8.421   1.710   8.264  2.2698 -0.5053 -2.4508
  243MOL0     H33505   8.353   1.859   8.340 -0.9325 -1.8457  0.0541
  243MOL0     H33506   8.641   1.842   8.214  1.6671  2.1975 -1.2094
  243MOL0     H33507   8.544   1.993   8.260 -0.7374  0.0930  2.9909
  243MOL0     H33508   8.616   1.759   8.447 -1.1250 -0.6578 -0.4817
  243MOL0     H33509   8.548   1.912   8.494 -0.3323 -1.4220  0.5557
  243MOL0     H33510   8.724   2.045   8.463 -1.0287 -0.1877 -0.0864
  243MOL0     H33511   8.831   1.906   8.395 -0.9416 -4.8934  0.5828
  243MOL0     H33512   8.725   1.920   8.682  2.0362  1.2200  1.5441
  243MOL0     H33513   8.892   1.957   8.640  1.5806 -0.2853 -0.2040
  243MOL0     H33514   7.915   1.978   8.122 -0.2771 -0.3057  1.2852
  243MOL0     H33515   7.667   2.027   8.117 -4.2630 -4.3357  1.1078
  243MOL0     H33516   7.271   1.843   7.962  0.1926 -0.1661 -0.7485
  243MOL0     H33517   7.019   1.869   7.969 -0.4545 -0.8186 -1.1758
  243MOL0     H33518   7.021   2.657   7.442 -0.3874  1.2244 -0.9880
  243MOL0     H33519   7.275   2.687   7.519  0.6021  1.5725  0.4765
  243MOL0     H33520   7.689   2.772   7.311 -0.7334 -0.5797  1.8088
  243MOL0     H33521   7.936   2.772   7.310 -1.2009  0.6279 -1.0487
  243MOL0     H33522   8.283   2.891   7.375  0.0437  1.1552 -0.2848
  243MOL0     H33523   8.143   2.791   7.388  1.0809 -0.2981  0.5575
  243MOL0     H33524   8.267   2.960   7.162 -0.2706  0.4044  0.9876
  243MOL0     H33525   8.085   2.940   7.166 -1.9909  0.4307  4.8369
  243MOL0     H33526   8.099   2.697   7.145  0.5225 -0.9133  0.1777
  243MOL0     H33527   8.178   2.791   7.007  1.2727 -1.8234 -0.3628
  243MOL0     H33528   8.267   2.579   7.057 -0.7153  0.6195 -0.6329
  243MOL0     H33529   8.333   2.631   7.211 -0.9798  0.9601  0.5852
  243MOL0     H33530   8.602   2.831   6.964 -0.1105 -1.0386  1.9161
  243MOL0     H33531   7.917   3.175   7.461  1.3549  0.4882 -4.5462
  243MOL0     H33532   7.594   3.211   7.559 -2.8458 -2.6248 -2.8267
  243MOL0     H33533   7.757   3.272   7.529  1.6152 -3.6090  2.3307
  243MOL0     H33534   7.631   3.272   7.399 -0.2444 -1.9735 -0.3982
  244MOL0     O33535   9.490   3.994   0.830  0.3178 -0.2488  0.6917
  244MOL0     C33536   9.603   4.037   0.784 -0.9736 -0.2153 -0.3415
  244MOL0     O33537   9.685   4.135   0.835 -0.1396 -0.4846  0.1956
  244MOL0     C33538   9.631   4.211   0.941  0.0682 -0.4649  0.0395
  244MOL0     C33539   9.499   4.250   0.960 -0.2040  0.4698 -0.0641
  244MOL0     C33540   9.462   4.329   1.064  0.5155 -0.4414  0.1540
  244MOL0     C33541   9.553   4.369   1.163 -0.3070 -0.2735 -0.0991
  244MOL0     O33542   9.506   4.429   1.276  0.6916 -0.0334 -0.1502
  244MOL0     C33543   9.389   4.511   1.278  0.1743  0.5248 -0.7927
  244MOL0     C33544   9.376   4.572   1.423  0.9934  0.6626 -0.4988
  244MOL0     C33545   9.468   4.692   1.417  0.2065 -0.0850  0.6082
  244MOL0     C33546   9.462   4.776   1.543 -0.0379 -0.8578  0.2754
  244MOL0     C33547   9.551   4.908   1.546  0.0009  0.6549 -1.1292
  244MOL0     C33548   9.493   5.019   1.453 -0.0823 -0.1724  0.6798
  244MOL0     C33549   9.564   5.147   1.469  0.3138  0.0494 -0.2662
  244MOL0     C33550   9.710   5.137   1.434 -0.7163  0.0463  0.4414
  244MOL0     N33551   9.805   5.240   1.481  0.5449 -0.0468 -0.0794
  244MOL0     C33552   9.775   5.352   1.561  0.5982 -0.7356 -0.3705
  244MOL0     C33553   9.890   5.412   1.594 -0.7121 -0.2942 -0.0510
  244MOL0     C33554   9.914   5.544   1.664  0.3076 -0.8747 -0.2084
  244MOL0     C33555   9.979   5.518   1.807  0.0209 -0.2454  0.5984
  244MOL0     C33556  10.131   5.505   1.803 -0.4078  0.8498 -0.3686
  244MOL0     C33557  10.207   5.611   1.729  0.0751 -0.8413 -0.4640
  244MOL0     O33558  10.186   5.750   1.777 -0.4413  0.3477  0.1983
  244MOL0     C33559  10.307   5.820   1.777  0.5287  0.4434  0.1304
  244MOL0     C33560  10.381   5.824   1.898  0.3793 -0.0212  1.2352
  244MOL0     C33561  10.503   5.887   1.921 -0.4863 -0.1575  0.2158
  244MOL0     C33562  10.559   5.884   2.056  0.5609 -0.3879  0.3267
  244MOL0     C33563  10.557   5.968   1.814  0.6636  0.5045  0.1095
  244MOL0     C33564  10.689   6.038   1.801  0.4633 -0.4688 -0.2275
  244MOL0     O33565  10.720   6.087   1.675 -0.0229 -0.1057 -0.0773
  244MOL0     C33566  10.845   6.113   1.634 -0.0579 -0.8909  0.1901
  244MOL0     C33567  10.960   6.053   1.674 -0.0440 -0.1564 -0.2450
  244MOL0     C33568  11.078   6.101   1.626 -0.9431 -0.6934 -0.6634
  244MOL0     C33569  11.093   6.201   1.527  0.2812  0.2873  0.3002
  244MOL0     O33570  11.213   6.229   1.469  0.1511  0.2682 -0.3003
  244MOL0     C33571  11.330   6.244   1.537  1.1307  0.1592  0.1693
  244MOL0     C33572  11.431   6.310   1.451  0.6731 -0.1688 -0.2999
  244MOL0     C33573  11.562   6.341   1.532 -0.3211 -0.4297  0.7670
  244MOL0     C33574  11.653   6.438   1.448 -0.1990 -0.1514 -0.8807
  244MOL0     C33575  11.762   6.468   1.549 -0.5465  0.5985  0.4783
  244MOL0     C33576  11.867   6.566   1.509  0.8207 -0.6052 -0.0042
  244MOL0     C33577  11.955   6.526   1.395  0.0855  0.0733 -0.7856
  244MOL0     C33578  12.043   6.644   1.350  0.1110  0.2556  0.1575
  244MOL0    Cl33579  11.954   6.790   1.279  0.1643  0.0867 -0.1716
  244MOL0     C33580  10.976   6.261   1.481 -0.7353  0.0622  0.0244
  244MOL0     C33581  10.860   6.221   1.544 -0.6542  0.3235  0.3896
  244MOL0     O33582  10.771   6.017   1.888  0.0624 -0.4504 -0.1229
  244MOL0     C33583  10.478   5.967   1.694  0.2120  0.1008  1.2140
  244MOL0     C33584  10.359   5.892   1.670 -0.0419 -0.2562  0.1405
  244MOL0     N33585   9.992   5.347   1.537 -0.6783 -0.3682  0.2404
  244MOL0     N33586   9.939   5.239   1.475 -0.0740 -0.0576 -0.6096
  244MOL0     C33587   9.680   4.327   1.152  0.3962  0.0625 -0.4589
  244MOL0     C33588   9.721   4.262   1.037  0.1522  0.1237 -0.3229
  244MOL0     C33589   9.642   3.967   0.659 -0.6586 -1.2561  0.0008
  244MOL0     C33590   9.549   3.888   0.594  0.2425  0.1483  0.0102
  244MOL0     C33591   9.564   3.825   0.472 -0.5356  0.1173 -1.0314
  244MOL0     C33592   9.679   3.820   0.408 -0.7265 -0.4885  1.1216
  244MOL0     O33593   9.702   3.769   0.283  0.7277  0.4703 -0.1845
  244MOL0     C33594   9.595   3.699   0.211 -0.5122 -0.7531  0.1463
  244MOL0     C33595   9.571   3.554   0.247 -0.2130  0.3134 -0.5917
  244MOL0     C33596   9.545   3.522   0.396  0.0123 -0.2239 -0.4547
  244MOL0     C33597   9.533   3.369   0.408  0.9513 -0.0504  0.1096
  244MOL0     C33598   9.661   3.306   0.394 -0.3856 -0.7005  1.0109
  244MOL0     C33599   9.774   3.267   0.367 -0.5542  0.5553  0.1779
  244MOL0     C33600   9.774   3.897   0.466  0.1524 -0.1803 -0.3449
  244MOL0     C33601   9.769   3.970   0.591 -0.1097  0.1416 -0.3935
  244MOL0     C33602   9.893   4.041   0.642 -0.4310  0.3123  0.7689
  244MOL0     H33603   9.427   4.216   0.887 -0.4681 -0.1676  0.4868
  244MOL0     H33604   9.358   4.354   1.082  0.5493 -2.0815  3.2162
  244MOL0     H33605   9.300   4.451   1.261 -2.7540  4.8117 -2.2865
  244MOL0     H33606   9.390   4.589   1.201  0.8881 -1.9987 -3.5347
  244MOL0     H33607   9.273   4.596   1.450  1.8201  0.8656  2.8957
  244MOL0     H33608   9.395   4.494   1.497  1.4257  1.5890  0.3829
  244MOL0     H33609   9.570   4.653   1.405  0.6019  0.8118  0.9941
  244MOL0     H33610   9.431   4.754   1.335  1.4638  0.4588  0.4266
  244MOL0     H33611   9.360   4.808   1.567  0.3250 -0.0555  0.8130
  244MOL0     H33612   9.494   4.717   1.629 -1.2487 -4.0098 -1.2967
  244MOL0     H33613   9.657   4.888   1.527  0.2734 -0.6070  1.3365
  244MOL0     H33614   9.529   4.942   1.647 -2.3368 -2.8619 -0.2589
  244MOL0     H33615   9.502   4.995   1.346  0.0064 -2.3847  1.1306
  244MOL0     H33616   9.388   5.038   1.480  0.3629  4.1672  0.0240
  244MOL0     H33617   9.564   5.181   1.573  0.8199  0.4856 -0.4078
  244MOL0     H33618   9.519   5.222   1.404 -1.1035  0.1984  0.8198
  244MOL0     H33619   9.755   5.047   1.478 -0.7515 -0.3304 -0.2757
  244MOL0     H33620   9.725   5.124   1.327 -3.0834  1.3567 -0.1008
  244MOL0     H33621   9.679   5.380   1.604  1.1132  2.3625 -0.9879
  244MOL0     H33622   9.820   5.600   1.658 -0.6659 -2.5105 -1.0962
  244MOL0     H33623   9.993   5.602   1.614  2.7695 -1.8501  2.2810
  244MOL0     H33624   9.964   5.605   1.871  1.1898  1.0808 -0.8673
  244MOL0     H33625   9.932   5.425   1.843  0.4540 -2.7073 -4.3370
  244MOL0     H33626  10.169   5.492   1.905 -1.4738 -2.2014 -0.2351
  244MOL0     H33627  10.150   5.406   1.760 -1.2063 -0.1517  1.4783
  244MOL0     H33628  10.313   5.585   1.733  0.2484 -0.4023 -1.7797
  244MOL0     H33629  10.185   5.602   1.622 -3.0438  0.9595 -0.0905
  244MOL0     H33630  10.330   5.780   1.984  0.0201 -1.4679  0.3295
  244MOL0     H33631  10.656   5.833   2.049  0.3066 -0.6529 -2.4473
  244MOL0     H33632  10.492   5.828   2.121  1.5926 -1.7260  0.2764
  244MOL0     H33633  10.567   5.987   2.091 -0.4820 -0.5229  0.9837
  244MOL0     H33634  10.950   5.965   1.737 -1.1998  0.4160  0.4090
  244MOL0     H33635  11.165   6.051   1.667 -1.5605  0.0418  1.7123
  244MOL0     H33636  11.312   6.298   1.631 -2.3298 -0.2019 -0.1729
  244MOL0     H33637  11.365   6.143   1.557 -0.4432 -0.3075  0.6488
  244MOL0     H33638  11.459   6.246   1.367 -1.7363 -4.7870  2.0388
  244MOL0     H33639  11.393   6.407   1.418  1.3570  0.2933  0.2198
  244MOL0     H33640  11.616   6.247   1.545 -0.2737 -0.6769 -0.9550
  244MOL0     H33641  11.546   6.384   1.631 -1.8734  2.1653 -0.4948
  244MOL0     H33642  11.598   6.526   1.412 -1.3846  0.4376  2.0474
  244MOL0     H33643  11.690   6.379   1.364 -1.2542 -1.9638 -0.1253
  244MOL0     H33644  11.713   6.517   1.633 -2.1405  0.7344 -0.4887
  244MOL0     H33645  11.807   6.373   1.580  2.2230  1.6073 -0.1669
  244MOL0     H33646  11.919   6.595   1.600 -1.5597  2.3949  0.5929
  244MOL0     H33647  11.818   6.658   1.475  1.0063 -0.4548  0.1332
  244MOL0     H33648  11.885   6.508   1.313 -0.5037 -1.5423  0.0183
  244MOL0     H33649  12.006   6.431   1.416 -1.8739 -0.2158  3.9906
  244MOL0     H33650  12.103   6.602   1.269  1.0171  1.3814  0.2304
  244MOL0     H33651  12.111   6.664   1.433 -1.0377 -1.8475  1.7235
  244MOL0     H33652  10.980   6.340   1.407 -1.1986  2.5262  2.4917
  244MOL0     H33653  10.768   6.276   1.526 -0.6898  0.0480 -0.2872
  244MOL0     H33654  10.517   6.030   1.614  1.9956 -1.4779  0.7748
  244MOL0     H33655  10.317   5.891   1.570  0.6448  0.4444 -0.1670
  244MOL0     H33656   9.735   4.357   1.241 -0.9248  2.0741 -0.2579
  244MOL0     H33657   9.823   4.230   1.018 -0.0303  0.7601 -2.7334
  244MOL0     H33658   9.454   3.867   0.643 -1.3893  2.2814 -2.0591
  244MOL0     H33659   9.477   3.779   0.425 -0.7282  0.4609 -1.0169
  244MOL0     H33660   9.505   3.761   0.213 -0.2387 -0.2336 -1.6565
  244MOL0     H33661   9.631   3.710   0.108  0.5036  1.7128  0.6947
  244MOL0     H33662   9.659   3.498   0.214  0.1260  1.1686 -1.1958
  244MOL0     H33663   9.487   3.524   0.184  0.5117  0.0298 -1.4484
  244MOL0     H33664   9.617   3.562   0.468 -2.0306 -1.9569  2.8204
  244MOL0     H33665   9.457   3.581   0.421  2.3583  3.6133 -0.4912
  244MOL0     H33666   9.482   3.333   0.318 -0.0579 -0.2876  0.7600
  244MOL0     H33667   9.496   3.335   0.505 -0.0328  1.1898  0.1899
  244MOL0     H33668   9.863   3.212   0.345 -2.0258 -1.0236 -2.3548
  244MOL0     H33669   9.868   3.905   0.412  0.4898 -2.1258 -0.1200
  244MOL0     H33670   9.958   4.075   0.560 -0.5637  0.1538  0.5955
  244MOL0     H33671   9.880   4.132   0.701  2.6836  0.8224  0.8421
  244MOL0     H33672   9.955   3.972   0.700 -0.0604  2.1530  2.6590
  245MOL0     O33673   8.376   9.261   0.326  0.6554 -0.1032 -0.1937
  245MOL0     C33674   8.321   9.149   0.325  0.3889  0.5040 -0.3688
  245MOL0     O33675   8.375   9.034   0.269  0.1161  0.3827  0.3750
  245MOL0     C33676   8.505   9.055   0.227  0.1770 -0.2646  0.0903
  245MOL0     C33677   8.540   9.131   0.117 -0.4553  0.6488  0.1235
  245MOL0     C33678   8.673   9.154   0.093  0.5804  0.3373 -0.5615
  245MOL0     C33679   8.776   9.106   0.184  1.5680  0.5029 -0.5570
  245MOL0     O33680   8.906   9.121   0.158  0.6639  1.3369 -1.2229
  245MOL0     C33681   8.954   9.133   0.022 -1.2776  0.2826 -0.2572
  245MOL0     C33682   9.109   9.140   0.034 -0.1727  0.1091 -0.2179
  245MOL0     C33683   9.178   9.113  -0.107 -0.4314 -0.5933  0.4545
  245MOL0     C33684   9.150   9.227  -0.211 -0.4963 -0.4883 -0.1629
  245MOL0     C33685   9.232   9.188  -0.342 -0.1651 -0.0903 -0.4157
  245MOL0     C33686   9.135   9.117  -0.428  0.0876  0.4376 -0.8322
  245MOL0     C33687   9.184   9.105  -0.578 -0.0952 -0.7807 -0.3974
  245MOL0     C33688   9.083   9.056  -0.672  1.1134  0.6729  0.3338
  245MOL0     N33689   9.140   9.058  -0.807  0.9310  0.0534 -0.0465
  245MOL0     C33690   9.200   8.957  -0.874  0.8057  0.7460  0.7999
  245MOL0     C33691   9.232   9.011  -0.992 -0.0284  1.1740 -0.2963
  245MOL0     C33692   9.286   8.941  -1.107 -0.7540 -0.4633  0.4146
  245MOL0     C33693   9.431   8.892  -1.073 -0.2690 -0.8673  0.2395
  245MOL0     C33694   9.545   8.999  -1.065  0.6457  0.5650 -0.6307
  245MOL0     C33695   9.681   8.937  -1.026 -0.6889  0.4643  0.3126
  245MOL0     O33696   9.793   9.015  -1.071  0.2292 -0.4562 -0.0149
  245MOL0     C33697   9.903   8.938  -1.105 -0.0154 -0.2797  0.5951
  245MOL0     C33698   9.923   8.913  -1.240  0.0431  0.7123 -1.3129
  245MOL0     C33699  10.017   8.811  -1.272  0.9003 -0.2285 -0.0892
  245MOL0     C33700  10.019   8.786  -1.418  0.2478  0.1533  0.1723
  245MOL0     C33701  10.094   8.736  -1.174  0.3373  0.1084  0.0263
  245MOL0     C33702  10.192   8.624  -1.200  1.2725  0.0741  0.1174
  245MOL0     O33703  10.269   8.581  -1.087  0.5209  0.2457  1.0247
  245MOL0     C33704  10.378   8.499  -1.098  0.1913  0.6130 -0.5426
  245MOL0     C33705  10.390   8.383  -1.171  0.1152 -0.0888  0.1104
  245MOL0     C33706  10.516   8.310  -1.169 -0.7664 -0.7993 -0.2538
  245MOL0     C33707  10.620   8.349  -1.086  0.2538  0.1905 -0.4732
  245MOL0     O33708  10.738   8.284  -1.091 -0.3385 -0.5272  0.8258
  245MOL0     C33709  10.861   8.359  -1.098 -0.5060  0.2236 -0.0641
  245MOL0     C33710  10.958   8.262  -1.029  0.2696  0.9138 -0.4094
  245MOL0     C33711  10.903   8.170  -0.917  0.7189 -0.2405 -1.0649
  245MOL0     C33712  10.875   8.244  -0.795  0.5635 -0.2763  0.1805
  245MOL0     C33713  10.837   8.134  -0.686  0.1158 -0.5025  0.3504
  245MOL0     C33714  10.863   8.202  -0.554  0.2885  0.1475  0.7805
  245MOL0     C33715  10.997   8.217  -0.502  0.6228 -0.4613 -0.4350
  245MOL0     C33716  10.996   8.282  -0.365 -0.2300  0.0535 -1.1239
  245MOL0    Cl33717  11.164   8.312  -0.302  0.5491  0.2338  0.0618
  245MOL0     C33718  10.597   8.462  -1.005 -0.8031  0.3696 -0.1755
  245MOL0     C33719  10.481   8.538  -1.010 -0.3699 -0.3075 -0.0273
  245MOL0     O33720  10.201   8.585  -1.316 -0.1106  0.2361 -0.0762
  245MOL0     C33721  10.064   8.770  -1.038  0.1459  0.7750 -0.7881
  245MOL0     C33722   9.972   8.874  -1.006  0.2753 -0.0596 -0.0835
  245MOL0     N33723   9.183   9.136  -1.006 -0.2108 -0.0884  0.0301
  245MOL0     N33724   9.131   9.167  -0.886 -0.8363 -0.0384  0.8562
  245MOL0     C33725   8.738   9.022   0.279  0.3614  0.8096 -0.3289
  245MOL0     C33726   8.601   8.995   0.304  0.3056 -0.3737 -0.5547
  245MOL0     C33727   8.171   9.126   0.357 -0.4757 -0.3175 -0.4446
  245MOL0     C33728   8.092   9.023   0.288  0.5178  0.2027  0.2955
  245MOL0     C33729   7.961   9.001   0.326  0.0721 -0.8515 -0.7210
  245MOL0     C33730   7.899   9.074   0.423 -1.3048 -0.0083  0.0166
  245MOL0     O33731   7.775   9.044   0.454  0.8232  0.6358  0.0113
  245MOL0     C33732   7.723   9.077   0.586  0.8598 -0.3749 -0.0334
  245MOL0     C33733   7.614   8.972   0.614 -0.0316 -0.0616 -0.1145
  245MOL0     C33734   7.611   8.925   0.760 -0.0900  0.9465  0.1107
  245MOL0     C33735   7.466   8.900   0.808  0.7562 -0.1300  0.4808
  245MOL0     C33736   7.391   8.813   0.717  0.0830 -0.0462  0.9386
  245MOL0     C33737   7.322   8.746   0.649  0.5088 -0.0778 -0.3847
  245MOL0     C33738   7.979   9.180   0.484 -0.3079  1.0602 -0.2389
  245MOL0     C33739   8.102   9.207   0.451 -0.5962  0.0092  0.3555
  245MOL0     C33740   8.185   9.299   0.536 -0.5093  0.5848 -0.4148
  245MOL0     H33741   8.464   9.174   0.053  2.4986  0.1014 -4.1939
  245MOL0     H33742   8.696   9.209   0.003 -0.6121  1.3610 -0.2655
  245MOL0     H33743   8.924   9.227  -0.025 -1.8968 -0.6677 -1.8692
  245MOL0     H33744   8.916   9.052  -0.041  1.2014 -1.0070 -0.1874
  245MOL0     H33745   9.140   9.239   0.069  0.3073 -0.3237  0.6124
  245MOL0     H33746   9.144   9.063   0.103  1.2642  2.1624  1.5152
  245MOL0     H33747   9.287   9.099  -0.102 -0.4957 -1.5197 -0.3887
  245MOL0     H33748   9.137   9.022  -0.152  1.2770 -0.9889 -0.4151
  245MOL0     H33749   9.042   9.241  -0.216 -0.4074  0.4398  0.4456
  245MOL0     H33750   9.191   9.320  -0.170  1.4197 -1.5132  0.3714
  245MOL0     H33751   9.323   9.134  -0.312  1.2263  2.2454 -0.1899
  245MOL0     H33752   9.278   9.271  -0.396  2.1746 -1.6644 -1.0197
  245MOL0     H33753   9.111   9.021  -0.382  2.4000  1.8659  4.0494
  245MOL0     H33754   9.044   9.177  -0.434  0.6205  1.2356 -1.0756
  245MOL0     H33755   9.276   9.046  -0.582  1.0879  0.4229  3.8852
  245MOL0     H33756   9.218   9.204  -0.609  2.6828 -1.6751 -0.5079
  245MOL0     H33757   9.055   8.958  -0.634  1.6762  0.9323  1.4492
  245MOL0     H33758   8.985   9.104  -0.679 -1.1046 -3.6278 -1.1312
  245MOL0     H33759   9.213   8.857  -0.835  0.4232 -0.1026 -1.1301
  245MOL0     H33760   9.299   9.008  -1.193 -1.0545  0.0544  0.7676
  245MOL0     H33761   9.218   8.860  -1.135 -0.8840 -0.6311  1.2029
  245MOL0     H33762   9.432   8.843  -0.975  0.4085  2.5350  2.0823
  245MOL0     H33763   9.461   8.809  -1.138 -2.3589 -2.7012  1.4572
  245MOL0     H33764   9.547   9.048  -1.163  0.5190  0.7731 -0.5311
  245MOL0     H33765   9.524   9.081  -0.997 -2.1490  1.0751 -1.9711
  245MOL0     H33766   9.686   8.905  -0.921  2.0079 -0.8069 -0.1170
  245MOL0     H33767   9.680   8.843  -1.081 -1.3652  0.3631  0.4912
  245MOL0     H33768   9.858   8.971  -1.305 -0.9521  0.6227 -0.4335
  245MOL0     H33769   9.996   8.680  -1.432 -0.7026  0.3822 -0.0734
  245MOL0     H33770  10.117   8.802  -1.466 -1.2409 -0.6651 -3.4721
  245MOL0     H33771   9.939   8.829  -1.479 -1.3970 -3.6285 -0.6325
  245MOL0     H33772  10.301   8.352  -1.225  1.1544  1.6056 -2.7578
  245MOL0     H33773  10.519   8.208  -1.205  1.0638 -0.6341 -0.6564
  245MOL0     H33774  10.894   8.371  -1.202  2.6301 -0.8179  0.7061
  245MOL0     H33775  10.866   8.448  -1.035 -1.9552  0.4112 -0.1865
  245MOL0     H33776  10.984   8.195  -1.110  1.7859  1.2391 -0.2183
  245MOL0     H33777  11.045   8.312  -0.986  1.2050 -0.7478 -0.3016
  245MOL0     H33778  10.974   8.089  -0.898  0.6012 -0.3475 -1.0799
  245MOL0     H33779  10.806   8.130  -0.950  0.1539 -1.8632  2.1852
  245MOL0     H33780  10.785   8.305  -0.803 -0.9704 -2.4256  0.0048
  245MOL0     H33781  10.963   8.304  -0.770  0.7490 -1.7352  3.6452
  245MOL0     H33782  10.737   8.096  -0.707  0.2771 -0.8760  0.2446
  245MOL0     H33783  10.915   8.057  -0.683 -0.5711 -1.2489 -0.2890
  245MOL0     H33784  10.808   8.140  -0.483 -3.0300  2.9254  0.9061
  245MOL0     H33785  10.814   8.300  -0.551  0.8742  0.4734  0.0602
  245MOL0     H33786  11.056   8.278  -0.571 -1.2651  2.2234  0.1638
  245MOL0     H33787  11.045   8.119  -0.494  0.9597 -0.3397 -0.9384
  245MOL0     H33788  10.949   8.214  -0.293  2.7089 -0.9734  0.0048
  245MOL0     H33789  10.935   8.372  -0.366 -1.5026 -0.7524 -0.0472
  245MOL0     H33790  10.677   8.490  -0.938  1.3318 -2.4848 -1.3305
  245MOL0     H33791  10.465   8.622  -0.943  0.8257  0.3659 -0.5600
  245MOL0     H33792  10.106   8.715  -0.954 -2.0238  1.7486  1.0708
  245MOL0     H33793   9.941   8.880  -0.903 -0.1390 -2.2673 -0.0416
  245MOL0     H33794   8.820   8.998   0.347 -0.3555 -1.2383 -0.1195
  245MOL0     H33795   8.564   8.935   0.388 -0.6745  0.5622 -0.3005
  245MOL0     H33796   8.133   8.967   0.205 -2.4677 -1.1705 -0.4034
  245MOL0     H33797   7.905   8.918   0.285  1.1631 -1.5323 -0.8669
  245MOL0     H33798   7.804   9.085   0.660  2.6953  2.8650 -2.1430
  245MOL0     H33799   7.678   9.177   0.588  1.6596  0.0259 -1.2698
  245MOL0     H33800   7.633   8.874   0.568 -1.0397  0.4583 -1.7221
  245MOL0     H33801   7.521   9.004   0.567  0.7765 -0.9420 -2.4544
  245MOL0     H33802   7.669   8.832   0.767  0.3421  1.0540 -1.6564
  245MOL0     H33803   7.657   8.999   0.825 -1.0418  0.5111  1.3314
  245MOL0     H33804   7.421   9.000   0.811 -0.1498 -0.4722 -0.6790
  245MOL0     H33805   7.455   8.862   0.910 -2.8536 -0.7391  0.0141
  245MOL0     H33806   7.260   8.701   0.573 -1.1676  0.3428  0.6675
  245MOL0     H33807   7.927   9.240   0.558  0.3834  1.2797  0.0742
  245MOL0     H33808   8.124   9.350   0.612 -1.7799  1.5157 -1.9914
  245MOL0     H33809   8.277   9.260   0.580 -1.3420 -0.7643  0.1965
  245MOL0     H33810   8.227   9.372   0.467  3.3503  1.0810  2.1404
  246MOL0     O33811   4.660   2.829  10.152 -0.5099 -0.3982 -0.8434
  246MOL0     C33812   4.731   2.835  10.256  0.9035 -0.2528  0.3283
  246MOL0     O33813   4.868   2.832  10.262  0.2764 -0.6066 -1.0309
  246MOL0     C33814   4.941   2.784  10.160  0.2852  0.7290 -0.0608
  246MOL0     C33815   4.907   2.703  10.053  0.7741  0.5241 -0.0978
  246MOL0     C33816   5.007   2.648   9.970 -1.0028  1.0349 -0.2682
  246MOL0     C33817   5.149   2.672   9.988 -0.0930  0.1007 -0.0645
  246MOL0     O33818   5.235   2.616   9.900  0.2598 -0.9326  0.1834
  246MOL0     C33819   5.366   2.579   9.942  0.0001  0.2605 -0.1820
  246MOL0     C33820   5.430   2.512   9.816 -0.4958 -0.1221 -0.3133
  246MOL0     C33821   5.574   2.476   9.802 -0.4290 -0.0743  0.5505
  246MOL0     C33822   5.663   2.555   9.903  0.3515  0.1455 -0.6579
  246MOL0     C33823   5.799   2.506   9.893 -0.9743 -0.0265  0.0711
  246MOL0     C33824   5.877   2.596   9.985  0.9572 -1.2528  0.3317
  246MOL0     C33825   6.022   2.596   9.946 -0.2711  0.3853  0.4994
  246MOL0     C33826   6.105   2.697  10.027 -1.3105  0.6990  0.0741
  246MOL0     N33827   6.251   2.675  10.025 -0.9282 -0.3136  0.6608
  246MOL0     C33828   6.329   2.695   9.912  0.3249  1.1408  0.6924
  246MOL0     C33829   6.440   2.622   9.937 -0.4995 -0.2369 -0.1456
  246MOL0     C33830   6.551   2.608   9.843  1.3349  0.3356 -0.0386
  246MOL0     C33831   6.653   2.500   9.883 -0.0338  0.5335 -0.3581
  246MOL0     C33832   6.744   2.468   9.760  1.0638  0.0628  0.2775
  246MOL0     C33833   6.826   2.338   9.784 -0.9259  0.6140  0.0998
  246MOL0     O33834   6.908   2.297   9.673  0.2151 -0.7082  0.2886
  246MOL0     C33835   7.035   2.248   9.701 -0.0554 -0.1400 -0.4362
  246MOL0     C33836   7.043   2.144   9.787  0.2010  0.0861  0.6822
  246MOL0     C33837   7.166   2.091   9.841  0.0713 -0.5102 -0.8523
  246MOL0     C33838   7.165   1.979   9.946  0.5978  0.2617 -0.7019
  246MOL0     C33839   7.286   2.166   9.812  0.6574 -0.0044  0.7315
  246MOL0     C33840   7.411   2.158   9.886  0.1031  0.1517  0.3806
  246MOL0     O33841   7.441   2.049   9.967 -0.2552 -0.1414 -1.0484
  246MOL0     C33842   7.552   2.060  10.051 -1.9843 -1.2655 -0.8057
  246MOL0     C33843   7.540   2.068  10.189  0.6445  1.0056 -0.2857
  246MOL0     C33844   7.644   2.094  10.268 -0.7497  1.1368 -1.4441
  246MOL0     C33845   7.772   2.100  10.226 -0.3136  0.0181  0.3161
  246MOL0     O33846   7.881   2.115  10.297  0.1600 -0.4080  0.9145
  246MOL0     C33847   7.881   2.159  10.439 -0.7139  0.4150  0.1257
  246MOL0     C33848   8.023   2.166  10.489 -0.6900  0.4871  0.6431
  246MOL0     C33849   8.117   2.067  10.417  0.0601 -0.0554 -0.0767
  246MOL0     C33850   8.252   2.057  10.488  0.1021 -0.3635 -0.7136
  246MOL0     C33851   8.343   2.178  10.481  0.0947  0.2076  0.0348
  246MOL0     C33852   8.480   2.139  10.541  0.2691 -0.7964  0.9159
  246MOL0     C33853   8.491   2.125  10.692  0.3598 -0.5597  0.1366
  246MOL0     C33854   8.637   2.093  10.754  0.8654  1.2455  0.1615
  246MOL0    Cl33855   8.708   1.973  10.642 -0.1375 -0.4671  0.0547
  246MOL0     C33856   7.783   2.095  10.087  0.3354 -0.7928  0.1016
  246MOL0     C33857   7.681   2.074   9.999 -0.8209  0.2004 -0.1970
  246MOL0     O33858   7.490   2.253   9.872  0.3661  0.0802  0.3363
  246MOL0     C33859   7.272   2.267   9.717  0.1413 -0.3678 -0.5961
  246MOL0     C33860   7.149   2.302   9.662  0.1531  0.2850 -0.0408
  246MOL0     N33861   6.445   2.594  10.072 -0.1850  0.2918  0.7942
  246MOL0     N33862   6.328   2.624  10.129 -0.2454 -0.0479  0.3266
  246MOL0     C33863   5.180   2.740  10.100 -0.3688  0.3842 -0.1824
  246MOL0     C33864   5.080   2.795  10.184 -0.2307  0.8224 -0.7002
  246MOL0     C33865   4.653   2.842  10.386  0.6928 -0.6239  0.6140
  246MOL0     C33866   4.725   2.815  10.505  0.2655 -0.1999 -0.3320
  246MOL0     C33867   4.661   2.806  10.628  1.6821 -0.3443 -0.0803
  246MOL0     C33868   4.526   2.846  10.644  0.9648 -0.0867  0.4019
  246MOL0     O33869   4.474   2.852  10.771 -0.4307  1.2706  0.0052
  246MOL0     C33870   4.334   2.851  10.777 -0.4228  0.3585 -0.2219
  246MOL0     C33871   4.307   2.846  10.925 -0.2972 -0.2791  0.0564
  246MOL0     C33872   4.151   2.837  10.954  0.6499 -0.3612  0.1504
  246MOL0     C33873   4.077   2.964  10.918 -0.0909 -0.2605  0.2299
  246MOL0     C33874   4.117   3.089  10.987 -0.1573 -0.1315  0.2695
  246MOL0     C33875   4.155   3.195  11.039 -0.2576 -0.7980 -0.2662
  246MOL0     C33876   4.455   2.878  10.531  0.0819  0.8739 -0.2525
  246MOL0     C33877   4.507   2.864  10.401 -0.4609 -0.8402  0.3180
  246MOL0     C33878   4.419   2.890  10.279 -0.0077 -0.0256 -0.1043
  246MOL0     H33879   4.802   2.690  10.029  0.6796  0.8699  0.1272
  246MOL0     H33880   4.986   2.587   9.883 -2.2123  1.8877 -0.5963
  246MOL0     H33881   5.348   2.511  10.026  0.0311  3.4337  2.5575
  246MOL0     H33882   5.428   2.655   9.991  0.1535 -0.4073  0.6877
  246MOL0     H33883   5.371   2.423   9.790 -2.8510  1.0789  0.5807
  246MOL0     H33884   5.409   2.576   9.729  0.1907 -0.4842 -0.7534
  246MOL0     H33885   5.589   2.371   9.829  2.0527  0.5150  1.7558
  246MOL0     H33886   5.606   2.495   9.699  1.7530  0.6929  1.3049
  246MOL0     H33887   5.659   2.658   9.868  3.1779  0.1314 -1.2533
  246MOL0     H33888   5.625   2.552  10.006  0.3621 -1.6985 -0.6629
  246MOL0     H33889   5.836   2.512   9.790  0.8305 -4.1481  0.2958
  246MOL0     H33890   5.807   2.399   9.915 -2.6416 -0.5488 -1.5611
  246MOL0     H33891   5.839   2.697   9.966  0.4394 -1.6670 -0.9861
  246MOL0     H33892   5.866   2.566  10.089  0.4817 -1.3402  0.2574
  246MOL0     H33893   6.047   2.617   9.842 -3.2331 -0.0046 -0.3786
  246MOL0     H33894   6.075   2.502   9.963  0.3178  0.8146  1.1175
  246MOL0     H33895   6.083   2.799   9.996 -4.0687  0.6691  1.6441
  246MOL0     H33896   6.070   2.692  10.131 -1.5139 -0.1008 -0.0248
  246MOL0     H33897   6.308   2.749   9.820  0.5049  0.4998  0.2749
  246MOL0     H33898   6.596   2.708   9.835  1.1284  0.3776 -0.7714
  246MOL0     H33899   6.510   2.590   9.743  1.7227  2.9071 -0.7409
  246MOL0     H33900   6.719   2.532   9.964 -0.3515  0.1559  0.0538
  246MOL0     H33901   6.604   2.407   9.912  0.2886  0.9192  1.5575
  246MOL0     H33902   6.689   2.455   9.667  0.9806 -2.0205  0.5686
  246MOL0     H33903   6.820   2.546   9.755  0.5469  0.9385  3.3697
  246MOL0     H33904   6.900   2.353   9.863 -2.8111  0.7228  1.9343
  246MOL0     H33905   6.756   2.261   9.818 -2.1538  2.1091  1.1070
  246MOL0     H33906   6.949   2.095   9.810 -1.2177  0.1376 -4.0089
  246MOL0     H33907   7.062   1.943   9.939  0.2384  0.2370  2.9468
  246MOL0     H33908   7.177   2.025  10.044 -0.1237  1.5130 -1.1621
  246MOL0     H33909   7.244   1.906   9.932  0.9105  0.4340  0.1227
  246MOL0     H33910   7.441   2.064  10.234 -0.3317  2.8969 -2.1377
  246MOL0     H33911   7.624   2.124  10.371  2.8196  2.3096 -0.9224
  246MOL0     H33912   7.828   2.254  10.451 -0.6195  0.5564 -0.5254
  246MOL0     H33913   7.832   2.076  10.492  2.7348 -0.2465  2.5924
  246MOL0     H33914   8.067   2.265  10.479 -0.1971  0.1208 -1.1969
  246MOL0     H33915   8.023   2.153  10.597  0.5378  2.2584  0.8876
  246MOL0     H33916   8.128   2.094  10.312  0.0896  2.4021  0.4958
  246MOL0     H33917   8.076   1.966  10.429  1.9194 -1.0172 -1.3208
  246MOL0     H33918   8.304   1.969  10.450  0.5278 -0.3497 -0.1819
  246MOL0     H33919   8.233   2.039  10.594  1.5668 -1.9473 -0.6812
  246MOL0     H33920   8.358   2.193  10.374 -0.0132 -0.1547 -0.0344
  246MOL0     H33921   8.297   2.267  10.525 -0.8918 -1.3652  2.4144
  246MOL0     H33922   8.551   2.218  10.515  1.3525 -1.8164  0.6972
  246MOL0     H33923   8.512   2.048  10.489 -2.1263 -0.4566 -1.3582
  246MOL0     H33924   8.420   2.049  10.727 -0.1073 -0.7414 -1.1771
  246MOL0     H33925   8.464   2.218  10.742 -0.1246 -2.1020  3.0000
  246MOL0     H33926   8.631   2.062  10.859 -2.0106  2.2998  0.4175
  246MOL0     H33927   8.706   2.178  10.750  1.0892  1.0297 -0.8950
  246MOL0     H33928   7.884   2.108  10.049  0.7664 -0.0929  1.4067
  246MOL0     H33929   7.686   2.065   9.891 -3.5603 -2.7015 -0.2328
  246MOL0     H33930   7.355   2.326   9.680  4.1031 -2.6406  3.5415
  246MOL0     H33931   7.154   2.386   9.594 -0.6371  2.0299  1.9471
  246MOL0     H33932   5.282   2.761  10.130 -0.1554 -1.1520  0.2243
  246MOL0     H33933   5.117   2.856  10.266  2.3164  0.1263 -1.2400
  246MOL0     H33934   4.828   2.781  10.492  0.2972 -0.0340 -0.5198
  246MOL0     H33935   4.720   2.778  10.716  0.4883 -0.8101  0.5911
  246MOL0     H33936   4.286   2.939  10.733 -1.0593  0.4418  0.6067
  246MOL0     H33937   4.300   2.757  10.731  0.3946  0.1091 -0.3214
  246MOL0     H33938   4.351   2.932  10.976 -3.2486  1.7601 -0.6022
  246MOL0     H33939   4.358   2.756  10.961 -1.4427 -0.4337  1.3773
  246MOL0     H33940   4.104   2.754  10.900 -2.3920  1.8086 -0.7932
  246MOL0     H33941   4.144   2.819  11.062  0.6826 -0.8311  0.0765
  246MOL0     H33942   3.970   2.945  10.928  0.3317 -3.0072  0.2114
  246MOL0     H33943   4.088   2.981  10.811 -1.7140 -0.2337  0.0450
  246MOL0     H33944   4.173   3.292  11.083 -0.5350 -1.3935  1.2158
  246MOL0     H33945   4.350   2.903  10.537 -0.8455 -2.4690 -0.6730
  246MOL0     H33946   4.323   2.937  10.303 -0.2573 -0.6780  0.2018
  246MOL0     H33947   4.483   2.959  10.224  4.1120 -0.8131  3.1685
  246MOL0     H33948   4.408   2.799  10.219  2.5010 -1.4243  1.3851
  247MOL0     O33949   2.315  10.062   1.033 -0.0124  0.0272  0.3806
  247MOL0     C33950   2.266   9.981   1.114  0.0841  0.6823 -0.5042
  247MOL0     O33951   2.341   9.888   1.191  0.5922 -0.2034  0.1748
  247MOL0     C33952   2.479   9.889   1.185  0.1100 -0.3780  0.7297
  247MOL0     C33953   2.557  10.008   1.201  0.3454  1.3611  0.3697
  247MOL0     C33954   2.697  10.004   1.218 -0.0510  0.4644  0.2061
  247MOL0     C33955   2.769   9.882   1.210  0.4838 -0.5395 -0.3421
  247MOL0     O33956   2.908   9.865   1.210  0.2205  0.4683  0.1454
  247MOL0     C33957   2.981   9.960   1.276 -0.7821 -0.1921 -0.2015
  247MOL0     C33958   3.111   9.895   1.326  0.4468 -0.5839  0.5250
  247MOL0     C33959   3.210   9.982   1.402  0.2613 -0.6448  0.8072
  247MOL0     C33960   3.347   9.953   1.358 -0.9383  0.0896 -0.0375
  247MOL0     C33961   3.431  10.045   1.447  0.3219 -0.0618  0.5084
  247MOL0     C33962   3.439  10.192   1.413  0.3596 -0.5624 -0.4265
  247MOL0     C33963   3.536  10.266   1.507  0.0262  0.4891  0.9879
  247MOL0     C33964   3.536  10.420   1.482  0.0523 -0.2088 -0.2291
  247MOL0     N33965   3.403  10.480   1.482 -0.4556  0.1388 -0.1351
  247MOL0     C33966   3.314  10.479   1.588 -0.2452  0.7430  0.1890
  247MOL0     C33967   3.210  10.546   1.540 -0.6095 -0.1030  0.4453
  247MOL0     C33968   3.093  10.609   1.616  0.8489 -0.0149  0.8650
  247MOL0     C33969   3.129  10.729   1.703 -0.4306 -0.2431  0.5141
  247MOL0     C33970   3.143  10.715   1.859  0.5497  0.6099  0.7725
  247MOL0     C33971   3.233  10.598   1.912 -0.3071  0.3409 -0.3129
  247MOL0     O33972   3.367  10.606   1.851  0.4673 -0.3564  0.4062
  247MOL0     C33973   3.446  10.711   1.875  0.0705 -1.1635  0.2901
  247MOL0     C33974   3.424  10.810   1.974  0.5723  0.1642 -0.4546
  247MOL0     C33975   3.504  10.919   1.998 -0.0191 -1.0442 -0.8222
  247MOL0     C33976   3.465  11.016   2.102  0.0680 -0.9470  0.1339
  247MOL0     C33977   3.624  10.933   1.922 -0.1362  0.5070  0.4927
  247MOL0     C33978   3.734  11.036   1.944  0.8120 -0.3008  0.1599
  247MOL0     O33979   3.708  11.143   2.022 -0.0185  0.7083  0.3587
  247MOL0     C33980   3.816  11.220   2.055  0.7370 -0.1168 -0.0505
  247MOL0     C33981   3.838  11.233   2.202  0.2967  0.7385  0.4564
  247MOL0     C33982   3.940  11.315   2.247 -0.6528  0.1626 -0.2272
  247MOL0     C33983   4.018  11.376   2.157 -0.3910 -0.3587 -0.5256
  247MOL0     O33984   4.118  11.455   2.209  0.4242 -0.6609  0.0282
  247MOL0     C33985   4.207  11.411   2.314  0.3716  0.9824  0.9765
  247MOL0     C33986   4.362  11.422   2.290  0.4630 -0.5878  0.3800
  247MOL0     C33987   4.421  11.565   2.281  0.0247  0.0244 -1.2567
  247MOL0     C33988   4.569  11.565   2.348  0.0410  0.2396  0.5931
  247MOL0     C33989   4.666  11.525   2.232  0.4211 -0.4258 -0.4804
  247MOL0     C33990   4.818  11.528   2.269 -0.4051  0.2281  0.2655
  247MOL0     C33991   4.854  11.428   2.376 -0.3222 -0.2742 -0.2624
  247MOL0     C33992   4.991  11.375   2.386 -0.7570  0.7120 -0.3122
  247MOL0    Cl33993   5.113  11.503   2.397 -0.3779 -0.1971 -0.0511
  247MOL0     C33994   4.008  11.364   2.020  0.4612  0.2693 -0.4157
  247MOL0     C33995   3.907  11.281   1.971  0.5198  0.3409  0.5043
  247MOL0     O33996   3.844  11.012   1.898  0.1818  0.4585  0.0841
  247MOL0     C33997   3.652  10.825   1.832  0.9399  0.4435  0.6557
  247MOL0     C33998   3.559  10.729   1.794  0.9265 -0.2407  0.3014
  247MOL0     N33999   3.230  10.575   1.405  0.2798 -0.6223  0.0521
  247MOL0     N34000   3.353  10.548   1.379  0.1549 -0.7685  0.1255
  247MOL0     C34001   2.695   9.770   1.188 -0.0213  0.0977 -0.5132
  247MOL0     C34002   2.553   9.770   1.178 -0.2775 -0.4519  0.5261
  247MOL0     C34003   2.114   9.968   1.127  0.0806 -0.2439 -0.2581
  247MOL0     C34004   2.059   9.879   1.214 -1.0656 -0.2378 -0.4435
  247MOL0     C34005   1.925   9.847   1.225 -0.7430  0.3134 -0.1918
  247MOL0     C34006   1.833   9.913   1.145  0.0193  0.5202  0.8466
  247MOL0     O34007   1.702   9.902   1.144 -0.0561 -0.1566 -0.2496
  247MOL0     C34008   1.641   9.782   1.203 -0.4957 -0.5701 -0.4512
  247MOL0     C34009   1.491   9.794   1.181  0.3731 -0.2859  0.3124
  247MOL0     C34010   1.414   9.680   1.255 -0.0695 -0.8386  0.0729
  247MOL0     C34011   1.268   9.682   1.216 -0.4821 -0.1802  0.1481
  247MOL0     C34012   1.211   9.556   1.272 -0.2435 -0.0082 -0.5429
  247MOL0     C34013   1.158   9.461   1.317  0.4487 -0.9773 -1.0413
  247MOL0     C34014   1.884  10.012   1.059  0.5222  0.1881  0.4911
  247MOL0     C34015   2.022  10.036   1.042  1.1110 -0.0728  0.6071
  247MOL0     C34016   2.058  10.124   0.928 -0.6621 -0.6531 -0.0258
  247MOL0     H34017   2.510  10.106   1.209 -0.3854  1.0618 -0.1668
  247MOL0     H34018   2.736  10.103   1.235  0.5041  0.0943  1.2219
  247MOL0     H34019   2.922  10.005   1.356 -2.8117  0.1529 -1.8145
  247MOL0     H34020   2.993  10.033   1.196  0.4552 -1.6462 -1.4252
  247MOL0     H34021   3.089   9.812   1.394  0.3975 -0.0515  1.1615
  247MOL0     H34022   3.153   9.858   1.232 -0.1844  1.3936 -0.5978
  247MOL0     H34023   3.193  10.088   1.380 -0.4618 -0.7375  0.9055
  247MOL0     H34024   3.203   9.969   1.510  4.0958  2.6320  1.6952
  247MOL0     H34025   3.361   9.846   1.371 -0.8480  0.0339 -0.5710
  247MOL0     H34026   3.363   9.977   1.253 -1.1907 -1.1165 -0.3584
  247MOL0     H34027   3.536  10.013   1.443  0.3848  0.2656 -2.0822
  247MOL0     H34028   3.390  10.034   1.548 -2.6292 -0.6909 -0.6613
  247MOL0     H34029   3.475  10.212   1.311  0.7701  1.5217  0.0676
  247MOL0     H34030   3.342  10.239   1.430  1.4078  1.0396  1.6761
  247MOL0     H34031   3.638  10.229   1.489 -0.3579 -0.0653 -0.1336
  247MOL0     H34032   3.506  10.254   1.611  1.1999 -2.5443  1.0846
  247MOL0     H34033   3.589  10.476   1.560  0.5242  2.7927 -2.5130
  247MOL0     H34034   3.591  10.443   1.391  2.9583 -2.9121  0.6603
  247MOL0     H34035   3.326  10.438   1.688 -0.4938  0.6890  0.1971
  247MOL0     H34036   3.048  10.534   1.681 -1.7346  2.1635  1.7607
  247MOL0     H34037   3.017  10.643   1.545 -0.4334  1.9220  3.0199
  247MOL0     H34038   3.225  10.769   1.669 -0.1700 -0.5811  0.8392
  247MOL0     H34039   3.070  10.819   1.685  2.4161  2.2289  2.5924
  247MOL0     H34040   3.178  10.809   1.903  0.5141 -0.1595  2.5056
  247MOL0     H34041   3.043  10.702   1.900  1.3055  1.1393  2.9357
  247MOL0     H34042   3.242  10.608   2.020  3.1126 -0.6628 -0.3752
  247MOL0     H34043   3.180  10.506   1.886 -3.6076  2.2235 -0.8692
  247MOL0     H34044   3.330  10.807   2.030  0.3029 -2.1081 -0.9343
  247MOL0     H34045   3.539  11.019   2.183 -0.2808 -0.8009  0.4495
  247MOL0     H34046   3.369  10.992   2.147 -0.3776  1.9031  0.8492
  247MOL0     H34047   3.459  11.111   2.048  0.4345 -1.1352 -0.2509
  247MOL0     H34048   3.766  11.191   2.271  0.3855  0.3813  0.3349
  247MOL0     H34049   3.961  11.327   2.353 -2.4209 -1.9169  0.4350
  247MOL0     H34050   4.178  11.451   2.412  3.9489  3.3042  1.2782
  247MOL0     H34051   4.197  11.302   2.315  2.6215  0.7335  0.9553
  247MOL0     H34052   4.416  11.364   2.365 -0.2529 -1.7905 -0.0156
  247MOL0     H34053   4.383  11.364   2.200 -2.2142 -1.8040  0.4233
  247MOL0     H34054   4.353  11.632   2.335  1.1252 -0.0783  0.3134
  247MOL0     H34055   4.412  11.583   2.173  0.6413 -0.2387 -1.3548
  247MOL0     H34056   4.577  11.496   2.433  0.4904 -0.2284  0.1769
  247MOL0     H34057   4.591  11.668   2.378 -0.9360  1.4070 -2.3638
  247MOL0     H34058   4.621  11.431   2.197 -0.2821  0.2537 -1.4629
  247MOL0     H34059   4.658  11.597   2.150 -1.8804  0.7779  0.6923
  247MOL0     H34060   4.838  11.627   2.311 -2.3673  1.1075 -0.7270
  247MOL0     H34061   4.873  11.530   2.175  2.0894  0.2445  1.6389
  247MOL0     H34062   4.780  11.347   2.373 -1.2436  0.5262  0.2260
  247MOL0     H34063   4.832  11.467   2.476 -0.8435 -1.0847 -0.0477
  247MOL0     H34064   5.000  11.316   2.294  3.1949 -1.8678  1.4365
  247MOL0     H34065   5.014  11.302   2.465  1.3271  1.1101 -0.4836
  247MOL0     H34066   4.084  11.414   1.961  1.2792 -3.5391 -2.9152
  247MOL0     H34067   3.879  11.265   1.867  0.5956  2.2806  0.1483
  247MOL0     H34068   3.746  10.830   1.777  0.1556  1.8242 -0.6722
  247MOL0     H34069   3.595  10.676   1.707 -0.6540  0.5349 -0.8643
  247MOL0     H34070   2.751   9.678   1.180  1.0528  0.7162 -0.2973
  247MOL0     H34071   2.499   9.677   1.160  2.5380 -1.9922 -0.6426
  247MOL0     H34072   2.129   9.822   1.274 -2.4883 -1.3080  0.2586
  247MOL0     H34073   1.894   9.773   1.298  1.4551 -0.0003  0.4871
  247MOL0     H34074   1.684   9.692   1.159 -0.3699  0.6941 -3.1443
  247MOL0     H34075   1.639   9.787   1.312  0.2744  2.0747 -0.4907
  247MOL0     H34076   1.468   9.779   1.075  0.0649 -2.9639  0.6973
  247MOL0     H34077   1.453   9.889   1.220 -2.7415 -0.7630 -1.1958
  247MOL0     H34078   1.453   9.581   1.228  1.6202 -0.6834  1.7178
  247MOL0     H34079   1.426   9.693   1.363 -1.4625  1.6595 -0.0222
  247MOL0     H34080   1.270   9.682   1.107 -1.0306 -0.4459  0.1354
  247MOL0     H34081   1.218   9.771   1.256 -1.4629 -1.5534  2.1560
  247MOL0     H34082   1.111   9.374   1.359  0.4497  0.8944  3.4306
  247MOL0     H34083   1.814  10.056   0.989 -1.6164 -2.4327  0.8458
  247MOL0     H34084   2.142  10.100   0.862  1.3190  3.5351  0.6275
  247MOL0     H34085   1.973  10.142   0.862 -0.2736 -0.8964 -0.6051
  247MOL0     H34086   2.094  10.219   0.968  1.6597 -0.5053 -2.2149
  248MOL0     O34087   8.974   6.555   5.990  0.6811  0.0638  0.1012
  248MOL0     C34088   8.932   6.667   6.000  1.1709 -0.1139 -0.6110
  248MOL0     O34089   9.006   6.782   6.003 -0.2491  0.3523 -0.0220
  248MOL0     C34090   9.140   6.757   5.998 -0.0610 -0.0105  0.3705
  248MOL0     C34091   9.207   6.759   6.115  0.5819  0.2591 -0.3231
  248MOL0     C34092   9.347   6.740   6.109  0.4694 -0.2670  0.1902
  248MOL0     C34093   9.426   6.720   5.994 -0.7428 -0.0375  0.6184
  248MOL0     O34094   9.568   6.733   6.001 -0.7778 -0.2054 -0.3512
  248MOL0     C34095   9.656   6.743   5.888 -0.3587 -0.2990  0.3424
  248MOL0     C34096   9.804   6.756   5.939 -0.6216  0.3280  0.8017
  248MOL0     C34097   9.913   6.748   5.833 -0.0855  0.5005 -1.2077
  248MOL0     C34098  10.038   6.789   5.911 -0.1208  0.6936  0.5142
  248MOL0     C34099  10.098   6.669   5.999 -0.5333  0.5162 -0.0658
  248MOL0     C34100  10.245   6.669   6.033  0.4234 -0.1788 -1.4707
  248MOL0     C34101  10.276   6.788   6.132 -0.4105  0.6445  0.8321
  248MOL0     C34102  10.431   6.807   6.143 -0.1283 -0.9924 -0.3975
  248MOL0     N34103  10.472   6.927   6.220  0.0344  0.2205 -0.0683
  248MOL0     C34104  10.580   7.006   6.187 -0.2688 -0.6688 -1.1702
  248MOL0     C34105  10.573   7.100   6.281 -0.0070 -1.1303  0.2995
  248MOL0     C34106  10.653   7.222   6.286  0.1122 -0.3679  0.0373
  248MOL0     C34107  10.700   7.274   6.146  0.4741 -0.0850  1.1650
  248MOL0     C34108  10.792   7.384   6.173  0.4382 -0.5087 -0.0033
  248MOL0     C34109  10.852   7.433   6.043 -0.7468  0.0511 -0.4670
  248MOL0     O34110  10.952   7.530   6.071 -0.3021 -0.0863  0.0054
  248MOL0     C34111  11.048   7.555   5.975  0.7603 -0.1093  0.6223
  248MOL0     C34112  11.166   7.600   6.027  0.6148  0.1430 -0.7871
  248MOL0     C34113  11.265   7.654   5.950 -0.7025 -0.3265  0.2906
  248MOL0     C34114  11.390   7.697   6.020  0.3364 -0.6922 -0.0692
  248MOL0     C34115  11.245   7.650   5.810 -0.4486  0.3690  0.0240
  248MOL0     C34116  11.330   7.719   5.710  0.1758 -0.1144  0.1810
  248MOL0     O34117  11.327   7.682   5.573  0.2027  0.0668 -0.0961
  248MOL0     C34118  11.432   7.714   5.493 -0.7081 -0.1849  0.0366
  248MOL0     C34119  11.399   7.754   5.367  0.1130 -0.5687  0.0592
  248MOL0     C34120  11.503   7.769   5.278 -0.5934 -0.9614 -0.0325
  248MOL0     C34121  11.639   7.755   5.315  0.4996  0.4589 -1.2238
  248MOL0     O34122  11.743   7.776   5.233  0.1877  0.6949 -0.3778
  248MOL0     C34123  11.722   7.788   5.093 -0.2947 -0.1978 -0.7457
  248MOL0     C34124  11.855   7.792   5.032  0.0840 -0.7459  0.0075
  248MOL0     C34125  11.933   7.663   5.030 -1.3797  0.4950 -0.0438
  248MOL0     C34126  12.082   7.687   4.991  0.5769  0.1092 -0.7369
  248MOL0     C34127  12.170   7.559   5.008  0.3639 -0.6537  0.5734
  248MOL0     C34128  12.314   7.595   4.996  0.3080  0.5508 -0.6988
  248MOL0     C34129  12.402   7.472   5.032 -0.0252 -0.8235  0.6588
  248MOL0     C34130  12.551   7.507   5.024 -0.0161 -0.0321  0.5173
  248MOL0    Cl34131  12.603   7.652   5.128  0.1843 -0.3652 -0.1949
  248MOL0     C34132  11.663   7.712   5.439 -0.1150 -0.3096 -0.2047
  248MOL0     C34133  11.565   7.691   5.529  0.1768  1.5511 -0.2939
  248MOL0     O34134  11.400   7.808   5.750 -0.0401 -0.0205  0.3783
  248MOL0     C34135  11.135   7.581   5.759  0.7362 -0.6871  0.3184
  248MOL0     C34136  11.025   7.540   5.838  0.6748 -0.2880  0.5414
  248MOL0     N34137  10.478   7.073   6.379 -0.0025  0.0218  1.0083
  248MOL0     N34138  10.407   6.971   6.337  0.2579 -0.1528  0.4705
  248MOL0     C34139   9.351   6.713   5.870  0.5055  0.0110 -0.3312
  248MOL0     C34140   9.210   6.727   5.880  0.1404 -0.4570  0.0294
  248MOL0     C34141   8.787   6.670   5.992  0.5914  0.1690  0.3700
  248MOL0     C34142   8.720   6.569   6.073 -0.3751 -0.7862  0.3085
  248MOL0     C34143   8.585   6.569   6.074  0.6382 -0.2084  0.3022
  248MOL0     C34144   8.502   6.663   6.006 -0.4650 -0.7034  0.4753
  248MOL0     O34145   8.367   6.660   6.042  0.2255  0.6276  0.0550
  248MOL0     C34146   8.305   6.790   6.036  0.1915  0.9655  0.1551
  248MOL0     C34147   8.160   6.773   6.078 -0.4342 -0.2518  0.6658
  248MOL0     C34148   8.071   6.895   6.031  0.2767 -0.5911  0.0218
  248MOL0     C34149   7.923   6.865   6.021 -0.3363 -0.2589 -0.7909
  248MOL0     C34150   7.880   6.758   5.924  0.3788 -0.2775  0.2246
  248MOL0     C34151   7.845   6.666   5.850  0.2512  0.7824  0.2403
  248MOL0     C34152   8.568   6.751   5.919 -0.3902 -0.9043 -1.3637
  248MOL0     C34153   8.711   6.761   5.913 -0.1035 -0.2935 -0.5423
  248MOL0     C34154   8.766   6.853   5.813 -0.2536  0.0552  0.0076
  248MOL0     H34155   9.160   6.793   6.207 -0.7930  0.5505 -1.1156
  248MOL0     H34156   9.401   6.753   6.203 -0.0502 -2.7244  0.9135
  248MOL0     H34157   9.639   6.839   5.838  1.6972 -0.3452 -0.5122
  248MOL0     H34158   9.629   6.665   5.816  0.3054 -0.3036  0.0977
  248MOL0     H34159   9.803   6.851   5.993 -0.8488  0.5898  0.3432
  248MOL0     H34160   9.820   6.671   6.005 -1.1011 -1.5467 -1.3551
  248MOL0     H34161   9.930   6.647   5.796 -1.0276  0.0480 -0.4624
  248MOL0     H34162   9.898   6.820   5.752  0.4431  1.3225 -0.5955
  248MOL0     H34163  10.115   6.818   5.839  0.1352  3.4287  1.7618
  248MOL0     H34164  10.031   6.886   5.961  2.4846  1.4709 -0.4382
  248MOL0     H34165  10.084   6.578   5.940  0.0674 -1.0599  2.1024
  248MOL0     H34166  10.046   6.654   6.094  0.1181 -0.8620  0.0838
  248MOL0     H34167  10.276   6.570   6.069 -1.7820 -1.0819 -1.9138
  248MOL0     H34168  10.302   6.665   5.940 -1.6226 -2.4467 -2.7317
  248MOL0     H34169  10.234   6.774   6.232 -2.1769 -0.9029 -0.0468
  248MOL0     H34170  10.230   6.883   6.103  0.5022  1.0316  0.6179
  248MOL0     H34171  10.469   6.724   6.203  0.1369 -0.5262  0.0877
  248MOL0     H34172  10.478   6.819   6.045  2.1837 -1.4873  0.5748
  248MOL0     H34173  10.646   6.991   6.102  1.3446  2.2635 -0.5923
  248MOL0     H34174  10.743   7.197   6.343  1.8760 -2.3469 -3.3269
  248MOL0     H34175  10.604   7.304   6.339 -2.1643  0.4938 -3.1123
  248MOL0     H34176  10.749   7.197   6.085 -0.2336  0.0897  0.3433
  248MOL0     H34177  10.614   7.319   6.096  0.9403  2.6076  2.6199
  248MOL0     H34178  10.749   7.469   6.225  2.4717  0.4491  0.1857
  248MOL0     H34179  10.875   7.339   6.229  0.8603 -2.5457 -2.0710
  248MOL0     H34180  10.900   7.355   5.982  1.7252  2.7931 -2.2659
  248MOL0     H34181  10.761   7.468   5.993 -1.3516 -1.1000 -0.2269
  248MOL0     H34182  11.188   7.581   6.132 -1.5320  0.5656 -0.2109
  248MOL0     H34183  11.397   7.807   6.020 -0.2388 -0.6487 -0.0112
  248MOL0     H34184  11.482   7.655   5.980 -0.1715 -0.4230 -1.5608
  248MOL0     H34185  11.383   7.673   6.127  0.6546  2.0174  0.6356
  248MOL0     H34186  11.294   7.770   5.343 -0.4291 -1.3031  1.8232
  248MOL0     H34187  11.476   7.811   5.182 -0.1808  0.8104  0.5890
  248MOL0     H34188  11.661   7.708   5.050 -0.7422  0.4781 -1.3877
  248MOL0     H34189  11.683   7.887   5.070  1.9606  0.5408 -1.5734
  248MOL0     H34190  11.842   7.809   4.925 -1.0143 -1.1000  0.0717
  248MOL0     H34191  11.912   7.873   5.078 -1.2295  0.7916 -0.9913
  248MOL0     H34192  11.899   7.601   4.946 -1.8272 -0.6927  0.9675
  248MOL0     H34193  11.931   7.608   5.125 -0.3985 -0.2955 -0.4550
  248MOL0     H34194  12.122   7.761   5.061 -3.6105 -1.5246  3.9887
  248MOL0     H34195  12.080   7.733   4.892  2.6349  0.1557 -0.8077
  248MOL0     H34196  12.154   7.516   5.107 -0.4134 -0.6643  0.4471
  248MOL0     H34197  12.143   7.490   4.927 -2.2598  0.8932  0.0152
  248MOL0     H34198  12.332   7.686   5.054  1.4022  0.3768 -0.7514
  248MOL0     H34199  12.338   7.622   4.893  2.9049  0.3481 -0.2184
  248MOL0     H34200  12.379   7.395   4.957 -1.0135  0.3541 -0.2945
  248MOL0     H34201  12.364   7.439   5.129 -1.9083  0.6181  0.4706
  248MOL0     H34202  12.576   7.522   4.919 -2.5893  1.6352  0.0395
  248MOL0     H34203  12.597   7.413   5.054 -1.6119 -0.1306  2.9553
  248MOL0     H34204  11.770   7.703   5.459  0.1354 -0.7930 -1.6320
  248MOL0     H34205  11.609   7.668   5.625  1.3150  2.3666 -0.5923
  248MOL0     H34206  11.136   7.574   5.650  1.9048 -0.3788  0.2914
  248MOL0     H34207  10.937   7.506   5.784  1.4630  2.3428 -2.8128
  248MOL0     H34208   9.388   6.704   5.769 -3.0130 -1.8326 -1.6199
  248MOL0     H34209   9.144   6.726   5.794 -0.7222  0.6179  0.6465
  248MOL0     H34210   8.770   6.505   6.146 -1.9322 -0.4847  1.7158
  248MOL0     H34211   8.540   6.492   6.135  0.2511 -0.3376 -0.1392
  248MOL0     H34212   8.343   6.862   6.109 -1.6754  0.8197  1.3469
  248MOL0     H34213   8.292   6.822   5.932 -3.6705 -1.3045 -0.2534
  248MOL0     H34214   8.145   6.742   6.182  1.4195 -3.3406  0.1162
  248MOL0     H34215   8.121   6.688   6.021  0.4052 -1.3322  1.6740
  248MOL0     H34216   8.090   6.973   6.106 -0.5931 -2.7375  2.6026
  248MOL0     H34217   8.090   6.938   5.932 -2.3141  0.7145  0.0272
  248MOL0     H34218   7.860   6.951   6.001  1.7062  1.4318 -0.2960
  248MOL0     H34219   7.894   6.841   6.123 -1.4255 -2.4307 -1.5463
  248MOL0     H34220   7.814   6.575   5.805  1.4438 -0.0702  1.0753
  248MOL0     H34221   8.511   6.825   5.864  2.1703  1.8738 -0.5997
  248MOL0     H34222   8.845   6.912   5.860  0.8082 -1.3734  0.0860
  248MOL0     H34223   8.806   6.795   5.729  1.5274  1.7594 -0.3812
  248MOL0     H34224   8.688   6.917   5.770 -0.9448  0.4667  1.7472
  249MOL0     O34225  11.192   0.377   7.657 -0.0836  0.0786  0.5894
  249MOL0     C34226  11.165   0.306   7.557 -0.3805 -0.6556 -0.0379
  249MOL0     O34227  11.253   0.276   7.456 -0.8642 -0.7022 -0.1026
  249MOL0     C34228  11.383   0.280   7.473 -0.7904  0.6965 -0.0738
  249MOL0     C34229  11.453   0.293   7.359 -0.3464  0.6128 -0.5761
  249MOL0     C34230  11.580   0.255   7.358 -1.4375  0.8768 -0.2861
  249MOL0     C34231  11.650   0.216   7.470 -1.0395 -0.2388  0.1670
  249MOL0     O34232  11.774   0.160   7.442 -0.0814 -0.2399  0.4584
  249MOL0     C34233  11.868   0.263   7.394 -0.0165 -0.4391  0.2717
  249MOL0     C34234  11.938   0.316   7.514  0.7585 -0.2199  0.0368
  249MOL0     C34235  12.026   0.218   7.590  0.1941  0.6912 -1.1124
  249MOL0     C34236  12.104   0.291   7.699  0.4788  0.7127 -0.1451
  249MOL0     C34237  12.237   0.219   7.723  0.5022 -0.3804 -0.0480
  249MOL0     C34238  12.318   0.291   7.830 -1.2656 -0.2745 -0.0692
  249MOL0     C34239  12.459   0.237   7.864 -0.2636  0.7675  0.4285
  249MOL0     C34240  12.500   0.288   8.006  0.4367  0.0004  0.5707
  249MOL0     N34241  12.647   0.270   8.038 -0.5860  0.8579  0.4550
  249MOL0     C34242  12.748   0.270   7.948 -0.7108  0.5351 -0.0561
  249MOL0     C34243  12.864   0.283   8.023 -0.2484  0.4793 -0.1935
  249MOL0     C34244  13.005   0.301   7.967  0.9275 -0.2477  0.3875
  249MOL0     C34245  13.103   0.193   7.993 -0.8324 -0.1293  0.6736
  249MOL0     C34246  13.228   0.216   7.912  0.3944 -0.4254  0.5219
  249MOL0     C34247  13.330   0.110   7.924  1.0071  0.9396 -0.3075
  249MOL0     O34248  13.432   0.128   7.822 -0.8183 -0.8357  0.3922
  249MOL0     C34249  13.522   0.232   7.844  0.2216 -0.2824 -0.5919
  249MOL0     C34250  13.536   0.319   7.737 -0.7553  1.0642  0.3567
  249MOL0     C34251  13.645   0.407   7.736 -1.3295 -0.2731 -0.4128
  249MOL0     C34252  13.683   0.461   7.603  0.1025  0.0440 -0.0298
  249MOL0     C34253  13.735   0.418   7.855  0.0910  0.5969  0.1030
  249MOL0     C34254  13.857   0.505   7.858 -0.3419  0.2741 -0.1371
  249MOL0     O34255  13.951   0.458   7.935 -0.6896 -1.0054 -0.6070
  249MOL0     C34256  14.076   0.519   7.943  0.5285 -0.2247 -0.0661
  249MOL0     C34257  14.189   0.440   7.921  0.0201  0.1202 -0.0053
  249MOL0     C34258  14.311   0.504   7.921 -0.1448  0.2067 -0.8709
  249MOL0     C34259  14.340   0.640   7.956  0.5771  0.0823  0.7496
  249MOL0     O34260  14.466   0.698   7.956 -0.0872  0.2428  0.1693
  249MOL0     C34261  14.587   0.612   7.963 -0.1889 -0.3634  0.9512
  249MOL0     C34262  14.711   0.694   7.956  0.1855  0.4483 -0.8400
  249MOL0     C34263  14.839   0.618   7.970 -0.0559  1.5906 -0.1066
  249MOL0     C34264  14.960   0.707   7.952 -0.0862 -0.1846  0.0002
  249MOL0     C34265  15.084   0.629   7.928 -0.1767  0.1171  0.1954
  249MOL0     C34266  15.138   0.535   8.039 -0.2871  0.4735 -0.0396
  249MOL0     C34267  15.285   0.474   8.011  0.4249  0.5363  0.8109
  249MOL0     C34268  15.338   0.400   8.131 -0.2208  0.0159 -0.0080
  249MOL0    Cl34269  15.496   0.331   8.085  0.0244 -0.2395  0.3821
  249MOL0     C34270  14.224   0.712   7.981  0.2320  0.0746  0.1215
  249MOL0     C34271  14.095   0.650   7.985 -0.1228  0.2397  0.0709
  249MOL0     O34272  13.867   0.610   7.795  0.6122  0.0109 -0.2205
  249MOL0     C34273  13.705   0.333   7.961  0.2874 -0.7576 -0.5285
  249MOL0     C34274  13.598   0.246   7.963 -0.0782  0.3298  0.0577
  249MOL0     N34275  12.823   0.272   8.151 -0.1435 -0.2109  0.4204
  249MOL0     N34276  12.692   0.265   8.160  0.2262 -0.5828  0.0265
  249MOL0     C34277  11.588   0.213   7.588 -0.0623 -0.0784 -1.0698
  249MOL0     C34278  11.454   0.250   7.592 -0.2466  0.0538  0.4352
  249MOL0     C34279  11.012   0.270   7.549 -0.2239  0.1537 -0.4107
  249MOL0     C34280  10.926   0.326   7.647 -0.9769 -0.1290  0.8699
  249MOL0     C34281  10.784   0.312   7.637  0.4218  0.8176 -0.1133
  249MOL0     C34282  10.726   0.251   7.522  0.1054 -0.3413 -0.7338
  249MOL0     O34283  10.590   0.258   7.511  0.3672 -0.7933  0.2132
  249MOL0     C34284  10.531   0.227   7.385  0.0521  0.4324 -0.5292
  249MOL0     C34285  10.378   0.231   7.393  0.7164 -0.7383  0.2669
  249MOL0     C34286  10.310   0.182   7.270 -0.6741 -0.2216  0.2871
  249MOL0     C34287  10.158   0.197   7.297  1.2505  1.0125  0.0453
  249MOL0     C34288  10.103   0.076   7.369  0.6453  0.4082 -0.4984
  249MOL0     C34289  10.046  -0.013   7.432  1.0528 -1.2185  0.6105
  249MOL0     C34290  10.815   0.206   7.421 -0.0089  0.0026 -0.0190
  249MOL0     C34291  10.956   0.207   7.438 -0.0416  0.5555  0.8516
  249MOL0     C34292  11.023   0.159   7.311 -0.3036  0.5887  0.4195
  249MOL0     H34293  11.388   0.297   7.272 -3.4135 -4.1729  1.1090
  249MOL0     H34294  11.617   0.243   7.257 -2.0044 -1.3484 -0.2738
  249MOL0     H34295  11.821   0.339   7.330 -1.3728 -0.2166  1.4811
  249MOL0     H34296  11.946   0.217   7.333 -0.2719  0.0386 -0.4334
  249MOL0     H34297  11.988   0.406   7.478 -2.9790  1.2227 -2.0100
  249MOL0     H34298  11.861   0.357   7.580 -0.0760  0.5051 -1.3414
  249MOL0     H34299  11.965   0.138   7.635  0.0527  1.1796 -0.4215
  249MOL0     H34300  12.093   0.180   7.513 -1.8607 -1.2789 -2.0567
  249MOL0     H34301  12.124   0.388   7.652 -2.3949  1.1421 -0.6180
  249MOL0     H34302  12.033   0.310   7.780 -0.9192  1.2663 -1.4512
  249MOL0     H34303  12.295   0.218   7.630 -1.0601  4.0553 -1.3464
  249MOL0     H34304  12.213   0.120   7.760  1.2361 -0.7079 -0.4268
  249MOL0     H34305  12.329   0.394   7.794 -0.9271 -0.7541 -1.3862
  249MOL0     H34306  12.267   0.294   7.927 -0.7809 -3.7114  0.4128
  249MOL0     H34307  12.526   0.265   7.782 -0.9449 -1.0509 -0.8160
  249MOL0     H34308  12.463   0.129   7.881 -0.8970  1.0421  2.5038
  249MOL0     H34309  12.477   0.395   8.009 -1.1925 -0.2875 -0.5916
  249MOL0     H34310  12.444   0.244   8.089 -1.5272  0.4275 -0.4556
  249MOL0     H34311  12.743   0.273   7.839  1.7701  3.4953 -0.2266
  249MOL0     H34312  13.045   0.385   8.025 -0.0110 -0.1611  0.9225
  249MOL0     H34313  13.007   0.320   7.859  1.6940 -3.5441 -0.2662
  249MOL0     H34314  13.126   0.177   8.099 -0.7686 -3.4622  0.2649
  249MOL0     H34315  13.063   0.098   7.957 -0.3073  1.1507 -3.9626
  249MOL0     H34316  13.196   0.224   7.807 -1.8367 -2.2437  0.9779
  249MOL0     H34317  13.282   0.306   7.941  1.8583 -0.8832 -0.6469
  249MOL0     H34318  13.357   0.107   8.030 -2.4639 -1.0303  0.6762
  249MOL0     H34319  13.290   0.014   7.891  1.4645  0.1503  1.3590
  249MOL0     H34320  13.463   0.304   7.658 -0.7775  0.0001  0.5748
  249MOL0     H34321  13.738   0.385   7.546 -0.1220 -0.4995  0.4648
  249MOL0     H34322  13.733   0.558   7.612  1.9664 -1.0344  2.6892
  249MOL0     H34323  13.587   0.487   7.557  1.0646  4.2086 -0.0751
  249MOL0     H34324  14.173   0.335   7.901  0.7627 -0.2369  1.1980
  249MOL0     H34325  14.390   0.436   7.891  0.8229  1.3717 -1.0106
  249MOL0     H34326  14.583   0.558   8.058 -0.5030 -1.0183  0.5724
  249MOL0     H34327  14.602   0.540   7.882  2.1239 -3.0296  3.5424
  249MOL0     H34328  14.715   0.750   7.862  0.9609  0.2425 -0.9405
  249MOL0     H34329  14.705   0.763   8.040 -1.9492  0.5959 -1.0534
  249MOL0     H34330  14.826   0.538   7.897  0.8191 -0.2491  1.6594
  249MOL0     H34331  14.839   0.567   8.067 -3.6980  1.5900  0.0071
  249MOL0     H34332  14.984   0.778   8.031  1.5285  3.5559 -3.5012
  249MOL0     H34333  14.940   0.778   7.871  1.9162 -0.9798 -1.2926
  249MOL0     H34334  15.082   0.574   7.834 -1.2451 -1.5173  1.1212
  249MOL0     H34335  15.161   0.706   7.924 -0.5668  0.7049  2.5232
  249MOL0     H34336  15.064   0.455   8.051 -3.1423  2.8841 -0.0973
  249MOL0     H34337  15.148   0.577   8.140 -1.0150 -2.4857  1.3835
  249MOL0     H34338  15.366   0.548   8.005  3.2982 -2.3079  1.6546
  249MOL0     H34339  15.279   0.410   7.923 -0.0289  4.5454 -2.3528
  249MOL0     H34340  15.273   0.322   8.172  0.4623 -0.3278  0.4373
  249MOL0     H34341  15.350   0.467   8.217 -1.0099 -1.4285  1.2947
  249MOL0     H34342  14.231   0.820   7.993  0.2720 -0.1655  2.5771
  249MOL0     H34343  14.007   0.712   7.996 -0.1172  0.4722 -1.0788
  249MOL0     H34344  13.773   0.335   8.046  0.2678  1.4603 -0.4897
  249MOL0     H34345  13.573   0.177   8.043 -0.5416  0.3977 -0.0277
  249MOL0     H34346  11.639   0.171   7.675  1.4562  0.9666 -1.4094
  249MOL0     H34347  11.394   0.234   7.681 -2.0521  1.9476 -0.3550
  249MOL0     H34348  10.974   0.386   7.723  1.1083 -1.1423  0.4261
  249MOL0     H34349  10.725   0.348   7.720  0.5670 -1.2939  0.9905
  249MOL0     H34350  10.573   0.292   7.308  1.5777  1.1319  0.8338
  249MOL0     H34351  10.560   0.125   7.359 -3.8034 -1.7675  2.5658
  249MOL0     H34352  10.340   0.329   7.423 -1.3817 -0.4856 -2.7618
  249MOL0     H34353  10.365   0.149   7.463  1.1289  0.3864  1.7092
  249MOL0     H34354  10.348   0.239   7.184  1.5238 -2.6927 -0.4873
  249MOL0     H34355  10.348   0.082   7.247  1.6559  0.6198  0.1735
  249MOL0     H34356  10.100   0.201   7.204 -0.3571 -4.2447  0.5410
  249MOL0     H34357  10.139   0.293   7.346  0.2865  0.4029  0.9085
  249MOL0     H34358   9.983  -0.080   7.486 -0.7302  1.0253  1.4996
  249MOL0     H34359  10.772   0.152   7.337 -1.1250  2.3258 -1.0457
  249MOL0     H34360  11.115   0.104   7.335  0.9831  2.1888 -0.6950
  249MOL0     H34361  10.970   0.083   7.253  1.1332  1.0832 -1.6253
  249MOL0     H34362  11.053   0.241   7.246  1.9146  0.0541  0.6934
  250MOL0     O34363   9.557   3.428   4.232  0.1144 -0.0877  0.1601
  250MOL0     C34364   9.498   3.538   4.213 -0.2371  1.4108 -0.3820
  250MOL0     O34365   9.551   3.663   4.224  0.1172  0.3373 -0.6094
  250MOL0     C34366   9.668   3.680   4.296 -0.1475 -0.5360  0.9756
  250MOL0     C34367   9.705   3.605   4.405  0.1638 -0.5146  0.1980
  250MOL0     C34368   9.817   3.640   4.477 -0.3782 -0.0354 -0.1377
  250MOL0     C34369   9.899   3.741   4.437 -0.1618 -1.1637  0.4852
  250MOL0     O34370  10.011   3.760   4.509 -0.6326  0.2315  0.1809
  250MOL0     C34371  10.029   3.898   4.550 -0.2019 -0.1457  0.8524
  250MOL0     C34372  10.136   3.908   4.661 -0.2777  0.1408  0.1994
  250MOL0     C34373  10.280   3.867   4.611 -0.2243 -0.5419  0.0801
  250MOL0     C34374  10.376   3.863   4.734 -0.7354 -0.3165 -0.2528
  250MOL0     C34375  10.502   3.774   4.719 -0.6196  0.4106  0.3858
  250MOL0     C34376  10.611   3.816   4.619  0.3203 -0.4218 -0.5181
  250MOL0     C34377  10.715   3.707   4.601 -0.1115 -0.9334  0.8373
  250MOL0     C34378  10.839   3.763   4.529  0.0214  0.1786 -0.4946
  250MOL0     N34379  10.957   3.676   4.540 -0.1354 -0.0555  0.7564
  250MOL0     C34380  11.025   3.659   4.659 -1.0177  0.1568  0.3211
  250MOL0     C34381  11.136   3.581   4.631  0.2962  0.3518  0.7781
  250MOL0     C34382  11.247   3.550   4.725 -0.3476 -0.3624 -0.9083
  250MOL0     C34383  11.334   3.682   4.742 -0.2067 -0.1100 -0.7884
  250MOL0     C34384  11.413   3.715   4.619  0.8131 -0.6114 -0.6067
  250MOL0     C34385  11.525   3.805   4.647 -0.4593 -0.5996  0.2705
  250MOL0     O34386  11.644   3.737   4.681  0.6179 -0.2080 -0.1334
  250MOL0     C34387  11.766   3.803   4.688 -0.5159  0.4458 -1.0587
  250MOL0     C34388  11.891   3.729   4.705  0.1860  0.4033  0.7528
  250MOL0     C34389  12.017   3.792   4.732 -0.3442 -0.1349  0.3533
  250MOL0     C34390  12.140   3.696   4.742 -0.1524  0.8174 -0.8945
  250MOL0     C34391  12.026   3.932   4.734  0.1733 -0.3077 -0.7163
  250MOL0     C34392  12.147   4.005   4.757  0.5781 -0.1052 -0.2494
  250MOL0     O34393  12.164   4.130   4.702  0.6095  0.7361  0.7748
  250MOL0     C34394  12.290   4.175   4.719  0.6281  0.3414  0.0147
  250MOL0     C34395  12.307   4.287   4.797 -1.0254 -0.1546 -0.0272
  250MOL0     C34396  12.439   4.335   4.810 -0.2567  0.7546 -0.9753
  250MOL0     C34397  12.548   4.277   4.738  0.1424 -0.4267  0.1078
  250MOL0     O34398  12.676   4.324   4.746  0.1480  0.1322 -0.2754
  250MOL0     C34399  12.774   4.303   4.641  0.0906  0.1044  0.1699
  250MOL0     C34400  12.866   4.423   4.619 -0.3143  0.7447  0.0580
  250MOL0     C34401  12.827   4.517   4.505 -0.7935  0.5700  0.3248
  250MOL0     C34402  12.923   4.625   4.476 -0.5400 -0.2954  0.3775
  250MOL0     C34403  12.866   4.728   4.372  0.5639 -0.2504 -0.0872
  250MOL0     C34404  12.985   4.804   4.302  0.0714  0.3847 -0.4037
  250MOL0     C34405  12.920   4.928   4.247  0.7991 -0.6721  0.7596
  250MOL0     C34406  13.024   5.004   4.163  0.1837 -0.9101  0.4152
  250MOL0    Cl34407  12.958   5.152   4.089  0.0776 -0.5838  0.0288
  250MOL0     C34408  12.524   4.170   4.656  0.1576  1.3011 -0.2837
  250MOL0     C34409  12.399   4.120   4.648 -0.2214 -0.0857 -0.2102
  250MOL0     O34410  12.223   3.960   4.842  0.0911  0.6543 -0.2759
  250MOL0     C34411  11.906   3.999   4.737 -0.0508 -0.2966  0.0561
  250MOL0     C34412  11.786   3.941   4.711  0.0368  0.5909 -0.1101
  250MOL0     N34413  11.131   3.553   4.487  0.6181  0.4393 -0.1523
  250MOL0     N34414  11.013   3.601   4.440 -0.4567  0.2380 -0.5244
  250MOL0     C34415   9.861   3.822   4.329 -0.3207  0.5442  0.3505
  250MOL0     C34416   9.739   3.795   4.262 -0.2810  0.0979  0.1801
  250MOL0     C34417   9.370   3.525   4.144  0.3590  0.2813 -0.6381
  250MOL0     C34418   9.341   3.417   4.057 -0.2582 -0.7139  0.6638
  250MOL0     C34419   9.222   3.403   3.989  0.4157  0.3014  0.1487
  250MOL0     C34420   9.127   3.499   3.991 -1.2077 -0.3592 -0.4363
  250MOL0     O34421   9.015   3.497   3.903  0.2525 -0.3881 -0.0877
  250MOL0     C34422   8.903   3.405   3.912 -0.6480 -0.3963 -0.1006
  250MOL0     C34423   8.826   3.428   4.045  0.2571 -0.1742  0.4157
  250MOL0     C34424   8.693   3.352   4.053  0.1842 -0.1544  0.2161
  250MOL0     C34425   8.626   3.331   4.184  0.4820 -0.1958 -0.2077
  250MOL0     C34426   8.547   3.208   4.196  0.1683 -0.3840 -1.0426
  250MOL0     C34427   8.476   3.110   4.211 -0.2933  0.8167  1.3944
  250MOL0     C34428   9.146   3.608   4.080 -0.2584  0.3598 -0.5868
  250MOL0     C34429   9.266   3.619   4.155  0.5861 -0.6018 -0.1115
  250MOL0     C34430   9.273   3.741   4.234  0.4160  0.4696 -0.1327
  250MOL0     H34431   9.636   3.527   4.435 -0.0989 -0.9262 -1.4104
  250MOL0     H34432   9.834   3.569   4.558 -0.3500 -1.3565 -1.2743
  250MOL0     H34433   9.937   3.942   4.589  1.2644  1.7158  2.3759
  250MOL0     H34434  10.069   3.954   4.465 -2.1705 -0.6783 -0.5110
  250MOL0     H34435  10.143   4.009   4.702  0.1878  0.4627 -0.6573
  250MOL0     H34436  10.111   3.836   4.740  0.0326  0.6250  0.7491
  250MOL0     H34437  10.278   3.771   4.560 -0.6222  0.5776 -2.1006
  250MOL0     H34438  10.323   3.938   4.540  0.5780 -0.8782  0.2145
  250MOL0     H34439  10.419   3.963   4.746  1.9878 -1.6118  1.7845
  250MOL0     H34440  10.324   3.836   4.827 -0.1725 -0.2593  0.0845
  250MOL0     H34441  10.465   3.676   4.686  1.4210  0.4917 -2.4883
  250MOL0     H34442  10.535   3.764   4.823 -3.1829 -1.8165  1.1134
  250MOL0     H34443  10.571   3.825   4.517 -0.7733 -1.7972 -0.2421
  250MOL0     H34444  10.662   3.906   4.655  0.3108 -1.5002  2.3847
  250MOL0     H34445  10.676   3.626   4.538  0.0170  0.9018 -1.7411
  250MOL0     H34446  10.734   3.680   4.706 -1.9084 -2.9591  0.7225
  250MOL0     H34447  10.806   3.780   4.427 -0.3695 -1.3538 -0.6605
  250MOL0     H34448  10.867   3.854   4.582  0.6269 -0.4154  0.2344
  250MOL0     H34449  11.009   3.724   4.744 -1.1636 -0.1072  0.4972
  250MOL0     H34450  11.307   3.466   4.687  0.0189 -1.1226  1.1756
  250MOL0     H34451  11.198   3.528   4.821 -0.4077 -0.6636 -1.0055
  250MOL0     H34452  11.266   3.761   4.777 -0.6171 -1.3861  1.4731
  250MOL0     H34453  11.403   3.662   4.824  1.3875  0.3977 -1.9564
  250MOL0     H34454  11.458   3.628   4.570  1.9807 -0.2034 -0.2898
  250MOL0     H34455  11.335   3.761   4.558 -0.0032 -1.8442 -0.5221
  250MOL0     H34456  11.539   3.866   4.558 -4.2171 -1.4111 -1.0402
  250MOL0     H34457  11.502   3.875   4.728  1.3458  1.8713 -1.2102
  250MOL0     H34458  11.888   3.623   4.681 -0.0862  0.3091  1.2010
  250MOL0     H34459  12.146   3.655   4.843  0.5161  0.4646 -1.0705
  250MOL0     H34460  12.229   3.750   4.707 -1.6354  3.8212 -0.3403
  250MOL0     H34461  12.110   3.625   4.664 -4.4408  1.2249  0.1148
  250MOL0     H34462  12.227   4.341   4.846 -2.6173  1.8626 -4.3866
  250MOL0     H34463  12.453   4.425   4.869  0.5611  0.6207 -0.9506
  250MOL0     H34464  12.842   4.221   4.662  1.7554  1.2883 -0.3940
  250MOL0     H34465  12.722   4.277   4.548 -0.8424 -1.4210  1.0719
  250MOL0     H34466  12.862   4.479   4.713 -0.6325  1.7816 -0.5511
  250MOL0     H34467  12.971   4.396   4.605 -0.2088  0.2320  1.6664
  250MOL0     H34468  12.729   4.553   4.539 -0.7606 -0.2406  1.3623
  250MOL0     H34469  12.796   4.457   4.419 -0.1225 -2.1684  1.8476
  250MOL0     H34470  13.008   4.578   4.427  0.3405  1.2395  0.3615
  250MOL0     H34471  12.957   4.677   4.566  3.7414 -1.4190 -0.3643
  250MOL0     H34472  12.801   4.667   4.308 -1.3085  2.6039 -1.1306
  250MOL0     H34473  12.803   4.798   4.429  1.6868  0.9078 -0.2264
  250MOL0     H34474  13.020   4.740   4.221 -2.9775 -0.2234 -1.3794
  250MOL0     H34475  13.066   4.829   4.371  0.5834  1.4461 -1.3610
  250MOL0     H34476  12.883   4.997   4.323 -0.2219  1.0531 -1.2208
  250MOL0     H34477  12.841   4.906   4.174  0.3057  1.9409  0.4224
  250MOL0     H34478  13.068   4.944   4.083 -0.5868 -0.7045 -0.1704
  250MOL0     H34479  13.105   5.034   4.231  0.5448  0.2768 -0.5123
  250MOL0     H34480  12.607   4.119   4.608  0.1025  1.8312 -0.9558
  250MOL0     H34481  12.384   4.032   4.585  0.0728 -0.5166  0.3107
  250MOL0     H34482  11.923   4.103   4.761  0.7648  0.1228 -2.1896
  250MOL0     H34483  11.697   4.000   4.694 -0.8845 -1.0222 -1.1751
  250MOL0     H34484   9.917   3.911   4.301 -0.3151 -0.2861 -2.7217
  250MOL0     H34485   9.705   3.867   4.189 -1.1664 -0.1777  0.3021
  250MOL0     H34486   9.416   3.343   4.031 -1.4248 -1.7253  0.0744
  250MOL0     H34487   9.198   3.320   3.924  3.6078 -0.2344 -0.5295
  250MOL0     H34488   8.843   3.418   3.822  3.2016  1.5307 -2.6805
  250MOL0     H34489   8.940   3.301   3.910 -1.7573 -0.9052  2.5272
  250MOL0     H34490   8.808   3.535   4.060  3.8299  0.9201 -1.8524
  250MOL0     H34491   8.882   3.386   4.129 -0.4838  1.5062  1.8272
  250MOL0     H34492   8.617   3.401   3.991 -0.8330  0.0587  1.5837
  250MOL0     H34493   8.704   3.255   4.003 -2.2261 -0.3189 -0.0889
  250MOL0     H34494   8.550   3.410   4.194 -1.0488 -1.7042  0.5381
  250MOL0     H34495   8.704   3.332   4.260  1.7334 -2.8260 -1.3315
  250MOL0     H34496   8.415   3.024   4.233 -1.0340  1.1600  0.7239
  250MOL0     H34497   9.060   3.674   4.084  0.1761  0.8935  0.5620
  250MOL0     H34498   9.173   3.760   4.272 -0.7056  0.2317 -2.7773
  250MOL0     H34499   9.342   3.731   4.319  1.2498  1.2461 -0.6904
  250MOL0     H34500   9.322   3.821   4.176 -0.6064  0.0095 -1.6714
  251MOL0     O34501   3.146  10.219   2.616  0.2845  0.1909  0.5106
  251MOL0     C34502   3.061  10.258   2.697  0.1989  0.4951  0.4228
  251MOL0     O34503   3.090  10.286   2.822  0.4652 -0.4413 -0.1957
  251MOL0     C34504   3.222  10.275   2.861 -0.3215 -0.9474 -0.6959
  251MOL0     C34505   3.259  10.172   2.945 -0.1256  0.1782 -0.3698
  251MOL0     C34506   3.387  10.157   2.980 -0.1850  0.9293  0.1852
  251MOL0     C34507   3.493  10.237   2.939  0.4035 -0.4318  0.8556
  251MOL0     O34508   3.627  10.222   2.979 -0.5108 -0.4135 -0.1968
  251MOL0     C34509   3.667  10.117   3.066 -0.2223 -0.5893 -0.7796
  251MOL0     C34510   3.813  10.122   3.083  0.5034 -0.7196  0.0585
  251MOL0     C34511   3.893  10.092   2.954 -1.2016 -0.4248 -1.0712
  251MOL0     C34512   3.897   9.941   2.921  0.6228 -0.2610  0.4239
  251MOL0     C34513   4.019   9.897   2.827 -0.1071 -1.2910  0.2360
  251MOL0     C34514   4.049   9.749   2.813 -0.3757  0.0241  0.2392
  251MOL0     C34515   3.935   9.666   2.747 -1.0679  0.5605 -0.0344
  251MOL0     C34516   3.941   9.683   2.588 -0.1743 -0.1145 -0.4795
  251MOL0     N34517   4.064   9.637   2.528  0.3376 -1.2447 -0.2469
  251MOL0     C34518   4.149   9.542   2.583  0.5507 -0.4498 -1.0230
  251MOL0     C34519   4.236   9.513   2.481 -0.6938 -0.5828  0.1901
  251MOL0     C34520   4.358   9.430   2.488 -0.0979  0.3243 -0.5268
  251MOL0     C34521   4.461   9.481   2.588 -0.8720  0.5145  0.2316
  251MOL0     C34522   4.586   9.388   2.586 -0.3275  0.4140 -0.7013
  251MOL0     C34523   4.569   9.256   2.676 -0.6177 -0.1702  0.9126
  251MOL0     O34524   4.564   9.289   2.818 -0.7231 -0.2209 -0.0112
  251MOL0     C34525   4.685   9.322   2.877  0.1364  1.0446 -0.3964
  251MOL0     C34526   4.807   9.270   2.838 -0.2571  0.7073 -0.7711
  251MOL0     C34527   4.921   9.298   2.910  0.6427 -0.1468  0.5480
  251MOL0     C34528   5.051   9.260   2.841 -0.1178  0.1496  0.1522
  251MOL0     C34529   4.912   9.358   3.035 -0.5796 -0.0386 -0.3467
  251MOL0     C34530   5.038   9.389   3.118  0.0034 -0.0122  0.0937
  251MOL0     O34531   5.158   9.333   3.096 -0.8401 -0.1119 -0.0676
  251MOL0     C34532   5.257   9.339   3.189 -0.5386 -0.0170  0.6593
  251MOL0     C34533   5.392   9.376   3.141  0.1166  0.5374 -0.3861
  251MOL0     C34534   5.500   9.389   3.228 -0.9182 -0.5418  0.3708
  251MOL0     C34535   5.478   9.364   3.370 -0.3448  0.9941 -0.4021
  251MOL0     O34536   5.567   9.346   3.475  0.1570  0.1246  0.5051
  251MOL0     C34537   5.677   9.448   3.472  0.6977  0.8522 -0.2251
  251MOL0     C34538   5.768   9.466   3.600  0.6139  0.3031  0.0357
  251MOL0     C34539   5.919   9.497   3.576 -0.2121  0.4550 -0.0791
  251MOL0     C34540   5.994   9.493   3.708 -0.6257 -0.0819  0.8961
  251MOL0     C34541   6.134   9.548   3.693 -0.0787  0.1099  0.1673
  251MOL0     C34542   6.191   9.541   3.835 -0.0526  0.2019 -0.1776
  251MOL0     C34543   6.346   9.557   3.833  0.3693 -0.3784 -0.0644
  251MOL0     C34544   6.392   9.584   3.975  0.0425  0.2229 -0.5426
  251MOL0    Cl34545   6.395   9.432   4.061  0.0327  0.1269 -0.3573
  251MOL0     C34546   5.349   9.342   3.416  0.0074  0.1064  0.6501
  251MOL0     C34547   5.242   9.327   3.329  0.0579 -0.3837  0.1008
  251MOL0     O34548   5.017   9.469   3.208 -0.0722  0.2907 -0.6230
  251MOL0     C34549   4.780   9.401   3.078  0.2981  0.0436 -1.1828
  251MOL0     C34550   4.672   9.387   2.997  0.1630 -0.1297  1.0450
  251MOL0     N34551   4.211   9.614   2.383 -0.5675  0.8438 -0.4084
  251MOL0     N34552   4.113   9.683   2.407 -0.2743 -0.2581 -0.5387
  251MOL0     C34553   3.463  10.343   2.854 -0.5209  0.3504 -1.3944
  251MOL0     C34554   3.326  10.362   2.817  0.7704  0.3388  0.7912
  251MOL0     C34555   2.920  10.272   2.644 -0.1784  0.1232  1.2194
  251MOL0     C34556   2.891  10.206   2.518  1.1131  0.0251  0.4093
  251MOL0     C34557   2.759  10.204   2.464  0.4668 -0.0258 -0.7800
  251MOL0     C34558   2.651  10.271   2.530 -0.1011 -0.1399 -0.1662
  251MOL0     O34559   2.527  10.263   2.484 -0.0254 -0.4784 -0.0404
  251MOL0     C34560   2.423  10.188   2.554 -0.1848  0.6349  0.1345
  251MOL0     C34561   2.363  10.074   2.473 -0.9291 -0.3160 -0.6125
  251MOL0     C34562   2.467   9.979   2.422 -0.1782 -0.1934  0.1599
  251MOL0     C34563   2.545   9.900   2.527 -0.0047 -0.0552 -0.5143
  251MOL0     C34564   2.461   9.814   2.613 -0.3294 -0.4959  0.1989
  251MOL0     C34565   2.383   9.750   2.687  0.2896 -0.6006 -0.1747
  251MOL0     C34566   2.689  10.340   2.649  0.8059 -0.5377  0.6748
  251MOL0     C34567   2.820  10.353   2.702  0.0096 -0.0347  0.3356
  251MOL0     C34568   2.843  10.442   2.815  0.2953 -0.2777 -0.2950
  251MOL0     H34569   3.175  10.118   2.988 -1.4218  1.2622 -1.4528
  251MOL0     H34570   3.408  10.072   3.045  0.3252  0.4691 -0.5709
  251MOL0     H34571   3.640  10.016   3.033  2.1387 -1.6727  0.3139
  251MOL0     H34572   3.625  10.126   3.167  1.8538  0.0798  0.0829
  251MOL0     H34573   3.837  10.223   3.117  1.5759 -0.5801 -1.0470
  251MOL0     H34574   3.848  10.054   3.161 -1.4098 -0.4909  1.1793
  251MOL0     H34575   3.851  10.152   2.872 -3.5641 -1.2668 -0.5691
  251MOL0     H34576   3.998  10.121   2.958 -1.3210 -0.0670  2.0513
  251MOL0     H34577   3.912   9.893   3.019  1.1238 -1.1360 -0.0649
  251MOL0     H34578   3.802   9.909   2.878 -0.7030  3.1200  0.5515
  251MOL0     H34579   4.112   9.938   2.868  0.0178 -1.7843  0.4492
  251MOL0     H34580   4.013   9.922   2.721  2.3887 -0.6341  0.1884
  251MOL0     H34581   4.142   9.743   2.757 -1.3411 -1.0590 -1.3132
  251MOL0     H34582   4.061   9.699   2.910 -0.5270 -1.1876 -0.3493
  251MOL0     H34583   3.840   9.706   2.783 -0.5762  3.4553 -1.6608
  251MOL0     H34584   3.947   9.558   2.764  0.1670  0.1224 -3.0629
  251MOL0     H34585   3.854   9.630   2.547 -1.0291  0.0155  1.0838
  251MOL0     H34586   3.929   9.783   2.544  1.1329  0.1107 -0.3408
  251MOL0     H34587   4.141   9.491   2.678  0.1778  0.9486 -0.2729
  251MOL0     H34588   4.401   9.415   2.389  1.3708  0.8649 -0.0037
  251MOL0     H34589   4.329   9.329   2.518  1.3413  0.0355  0.0020
  251MOL0     H34590   4.485   9.586   2.567 -0.0309 -0.1404 -2.4712
  251MOL0     H34591   4.405   9.486   2.682 -3.5569 -0.3975 -1.2198
  251MOL0     H34592   4.600   9.348   2.485 -1.5099  2.5440 -1.7870
  251MOL0     H34593   4.678   9.442   2.608  0.2940 -0.4218 -1.1904
  251MOL0     H34594   4.469   9.224   2.647 -0.2820  0.8946 -1.6486
  251MOL0     H34595   4.624   9.169   2.638 -1.6389  0.4834 -2.2909
  251MOL0     H34596   4.810   9.223   2.741 -0.0696 -0.7787 -0.0795
  251MOL0     H34597   5.133   9.331   2.856  1.6392 -2.1605  2.4170
  251MOL0     H34598   5.036   9.250   2.733  0.4561  3.1094 -0.2909
  251MOL0     H34599   5.093   9.169   2.885  1.7597  2.3934  3.4808
  251MOL0     H34600   5.390   9.407   3.037  2.0626  1.2654 -0.2432
  251MOL0     H34601   5.600   9.420   3.201  0.0829 -1.3718  2.8291
  251MOL0     H34602   5.747   9.411   3.396  0.9659  0.4546  0.2077
  251MOL0     H34603   5.640   9.542   3.432  0.2913 -0.5394 -3.4653
  251MOL0     H34604   5.719   9.548   3.653 -0.5579  0.2492 -0.8962
  251MOL0     H34605   5.752   9.373   3.656  1.1873  1.1470  1.6496
  251MOL0     H34606   5.925   9.597   3.532 -1.8846 -0.1316 -1.7735
  251MOL0     H34607   5.965   9.421   3.512 -2.8890 -1.0033 -0.4228
  251MOL0     H34608   6.003   9.387   3.734  1.8660 -1.1051 -3.1120
  251MOL0     H34609   5.940   9.553   3.782  2.2290  2.2969  1.2070
  251MOL0     H34610   6.189   9.481   3.626  0.2564 -0.1387  0.6913
  251MOL0     H34611   6.145   9.653   3.664 -0.9015  0.3261  0.6152
  251MOL0     H34612   6.179   9.438   3.870  1.9068 -0.1655 -0.4576
  251MOL0     H34613   6.161   9.623   3.901  4.5398  2.7114 -0.7714
  251MOL0     H34614   6.374   9.638   3.766  0.7187  0.1391  0.6976
  251MOL0     H34615   6.386   9.466   3.788 -1.4592 -1.8950  1.1975
  251MOL0     H34616   6.323   9.658   4.017 -0.6521  0.5235 -2.1366
  251MOL0     H34617   6.495   9.621   3.967 -0.1011  0.8404  0.3314
  251MOL0     H34618   5.330   9.325   3.521  0.9877  1.9329  1.1663
  251MOL0     H34619   5.144   9.302   3.369  1.4454 -0.2726  3.8966
  251MOL0     H34620   4.775   9.451   3.175  0.7512 -0.9991 -0.6090
  251MOL0     H34621   4.575   9.425   3.025 -0.4685 -0.8201 -0.0919
  251MOL0     H34622   3.536  10.414   2.815  0.6183 -0.9248 -1.6669
  251MOL0     H34623   3.291  10.448   2.761 -1.2597 -1.8220 -1.5227
  251MOL0     H34624   2.966  10.143   2.471 -1.2711 -1.7513 -1.2723
  251MOL0     H34625   2.757  10.161   2.365 -0.6277 -0.2196 -0.6839
  251MOL0     H34626   2.449  10.152   2.654  0.2717  0.6851  0.0361
  251MOL0     H34627   2.340  10.255   2.579 -1.0679 -0.3645 -0.0705
  251MOL0     H34628   2.317  10.109   2.379  1.2877  2.4504 -0.8070
  251MOL0     H34629   2.292  10.026   2.541 -2.2108  0.3886 -1.4048
  251MOL0     H34630   2.411   9.912   2.356 -0.1147  0.6024 -0.7154
  251MOL0     H34631   2.532  10.035   2.355 -1.3343  3.2035  1.6484
  251MOL0     H34632   2.609   9.969   2.583  2.6164  0.9774 -4.3354
  251MOL0     H34633   2.616   9.849   2.461  1.8474 -0.2678  1.5002
  251MOL0     H34634   2.317   9.686   2.743 -2.8401  0.6003 -2.1978
  251MOL0     H34635   2.616  10.404   2.697  2.1028  0.7369  1.0172
  251MOL0     H34636   2.946  10.478   2.820  1.0157 -2.3197  1.0141
  251MOL0     H34637   2.776  10.528   2.814 -1.5222 -1.6453 -0.9128
  251MOL0     H34638   2.830  10.381   2.905  2.1842  0.7012  0.7055
  252MOL0     O34639   3.345   3.188   2.941 -0.4801 -0.8243 -0.7837
  252MOL0     C34640   3.285   3.281   2.888  0.4574  0.5991  0.3262
  252MOL0     O34641   3.350   3.383   2.823  0.7319 -0.1420 -0.1339
  252MOL0     C34642   3.484   3.395   2.809 -0.2216  0.9205 -0.1272
  252MOL0     C34643   3.562   3.298   2.748 -0.1860  1.1958 -0.2177
  252MOL0     C34644   3.699   3.322   2.704 -0.0184 -0.4886  0.0992
  252MOL0     C34645   3.751   3.443   2.745  0.0880 -0.9085 -0.0858
  252MOL0     O34646   3.867   3.494   2.702 -0.1105  0.0442  1.0317
  252MOL0     C34647   3.984   3.417   2.740 -1.0932  0.3985 -0.0234
  252MOL0     C34648   4.050   3.345   2.623 -0.7678  0.2219  0.0409
  252MOL0     C34649   4.201   3.362   2.646 -0.5537  0.4916 -0.2233
  252MOL0     C34650   4.284   3.326   2.523  0.2217  0.0447 -0.4469
  252MOL0     C34651   4.433   3.335   2.553  0.4655 -0.1975  0.4303
  252MOL0     C34652   4.523   3.279   2.443  0.1421  0.7851  0.6738
  252MOL0     C34653   4.676   3.307   2.470  0.4409  0.8722  0.4462
  252MOL0     C34654   4.720   3.454   2.497 -0.3545 -0.0336 -0.7530
  252MOL0     N34655   4.865   3.468   2.507  0.6902 -1.0685  0.1365
  252MOL0     C34656   4.954   3.526   2.414 -0.8466 -1.1094 -0.7701
  252MOL0     C34657   5.075   3.509   2.480 -0.2357 -0.3300 -0.5620
  252MOL0     C34658   5.208   3.546   2.412 -0.5165  0.5983 -0.8203
  252MOL0     C34659   5.332   3.469   2.479  0.2089 -0.3815  0.1693
  252MOL0     C34660   5.464   3.490   2.404 -0.0158  0.8207  0.7358
  252MOL0     C34661   5.506   3.629   2.363  0.3238 -0.0590  0.3839
  252MOL0     O34662   5.581   3.696   2.463  0.1117  0.3404  0.4373
  252MOL0     C34663   5.708   3.654   2.486  0.1087  0.8309  0.7277
  252MOL0     C34664   5.787   3.564   2.404  0.5107  0.1602 -1.1929
  252MOL0     C34665   5.925   3.551   2.422 -0.1635  0.2781  0.2815
  252MOL0     C34666   5.999   3.444   2.332  0.1931 -0.6027 -0.2541
  252MOL0     C34667   5.993   3.635   2.518  0.2274  0.5333 -0.5282
  252MOL0     C34668   6.145   3.637   2.535 -0.8512  0.6293 -0.3414
  252MOL0     O34669   6.203   3.700   2.641  0.2760  0.3591 -0.0448
  252MOL0     C34670   6.344   3.700   2.637  0.2479  0.2115 -0.7148
  252MOL0     C34671   6.415   3.775   2.540 -0.0590 -1.2538 -0.3526
  252MOL0     C34672   6.557   3.774   2.540  0.1437  0.7239  0.6405
  252MOL0     C34673   6.629   3.701   2.633 -1.1802 -0.2127 -0.4179
  252MOL0     O34674   6.768   3.695   2.641  0.0741  0.4289 -0.2121
  252MOL0     C34675   6.834   3.784   2.553  0.3513  0.6564 -0.9840
  252MOL0     C34676   6.983   3.765   2.572 -0.6741  0.2512  0.0154
  252MOL0     C34677   7.054   3.838   2.467 -0.7261 -0.7036  0.9619
  252MOL0     C34678   7.198   3.858   2.513  0.2872  0.4930  1.0143
  252MOL0     C34679   7.284   3.937   2.415  0.3121 -0.3891 -0.2790
  252MOL0     C34680   7.226   4.056   2.341 -1.4193  0.4410 -0.3024
  252MOL0     C34681   7.189   4.172   2.434  0.3027 -0.4868 -0.3603
  252MOL0     C34682   7.123   4.301   2.366  0.2428 -0.1073  0.3248
  252MOL0    Cl34683   6.999   4.262   2.240 -0.1601 -0.0783  0.7766
  252MOL0     C34684   6.559   3.623   2.721 -0.2256  0.3169 -0.6250
  252MOL0     C34685   6.419   3.617   2.723 -0.4180  0.4175  0.2348
  252MOL0     O34686   6.210   3.593   2.441 -0.2305  0.9370  0.0621
  252MOL0     C34687   5.917   3.719   2.602 -0.2496 -0.2139 -0.4917
  252MOL0     C34688   5.774   3.726   2.585 -1.3487 -0.5602  0.0945
  252MOL0     N34689   5.064   3.434   2.599 -0.5622 -0.3379 -0.5874
  252MOL0     N34690   4.931   3.426   2.625 -0.2642 -0.2047  0.8959
  252MOL0     C34691   3.666   3.542   2.795 -0.4431  0.1283  0.1865
  252MOL0     C34692   3.536   3.520   2.825 -0.3689 -0.2409 -0.3094
  252MOL0     C34693   3.130   3.278   2.882  0.2023 -0.0287  0.3595
  252MOL0     C34694   3.064   3.172   2.938  0.4662 -0.2580  0.1207
  252MOL0     C34695   2.928   3.170   2.925 -0.3098 -0.0112  0.1376
  252MOL0     C34696   2.849   3.269   2.864  0.1686 -0.1510  0.3493
  252MOL0     O34697   2.716   3.243   2.847 -0.8909  0.6572  0.3266
  252MOL0     C34698   2.631   3.345   2.786  0.7648 -0.2317 -0.4005
  252MOL0     C34699   2.487   3.299   2.784 -0.3509  0.2910 -1.3731
  252MOL0     C34700   2.404   3.414   2.835 -0.7201  0.0606 -0.6050
  252MOL0     C34701   2.390   3.534   2.733 -0.1079 -0.3136  0.4054
  252MOL0     C34702   2.479   3.651   2.749  0.2768  0.8169 -0.0617
  252MOL0     C34703   2.557   3.740   2.756  0.7883 -0.2314 -0.7548
  252MOL0     C34704   2.916   3.373   2.808 -0.4267  0.5452  0.0140
  252MOL0     C34705   3.055   3.377   2.813  0.4336  0.2209  0.0415
  252MOL0     C34706   3.110   3.503   2.754  1.4051 -0.1153 -0.2014
  252MOL0     H34707   3.513   3.204   2.726  0.6349  0.4065  1.2267
  252MOL0     H34708   3.755   3.237   2.669 -0.6666 -1.1658  0.6674
  252MOL0     H34709   3.965   3.335   2.811  0.3754 -3.7828 -3.9360
  252MOL0     H34710   4.051   3.481   2.797 -0.1465 -3.0923  3.2204
  252MOL0     H34711   4.032   3.237   2.624 -0.3767  0.1522  1.2801
  252MOL0     H34712   4.024   3.388   2.526 -0.0581  1.7664  0.5013
  252MOL0     H34713   4.227   3.465   2.674 -0.7387  0.4173  0.2366
  252MOL0     H34714   4.222   3.303   2.736 -3.0053  1.1750  0.8776
  252MOL0     H34715   4.253   3.223   2.504 -1.6007  0.6372 -0.8881
  252MOL0     H34716   4.260   3.392   2.439 -0.6537 -0.3534 -0.5178
  252MOL0     H34717   4.450   3.307   2.657  1.7084  0.8342  0.5277
  252MOL0     H34718   4.451   3.443   2.558  0.8624 -0.2733  0.7439
  252MOL0     H34719   4.510   3.170   2.445  2.4192  0.4155 -0.5820
  252MOL0     H34720   4.491   3.313   2.344 -0.4778 -1.1131  0.1740
  252MOL0     H34721   4.710   3.273   2.372  1.6630 -3.2716  2.0894
  252MOL0     H34722   4.718   3.243   2.548 -1.7072  0.1354  1.0501
  252MOL0     H34723   4.690   3.534   2.429  2.8131  1.9750 -0.0001
  252MOL0     H34724   4.675   3.481   2.594  2.2811 -0.2735  0.6159
  252MOL0     H34725   4.939   3.565   2.314  0.6516  0.5781 -0.3906
  252MOL0     H34726   5.226   3.652   2.427  1.5767  0.6158 -2.9639
  252MOL0     H34727   5.199   3.523   2.306 -1.4148  0.0876 -0.6537
  252MOL0     H34728   5.354   3.503   2.580 -0.0006 -1.5465  0.6222
  252MOL0     H34729   5.299   3.365   2.483 -1.2829  0.0863  0.4731
  252MOL0     H34730   5.547   3.445   2.458 -0.5278  0.9805  1.6669
  252MOL0     H34731   5.453   3.427   2.315 -1.0225 -0.6524  1.8756
  252MOL0     H34732   5.565   3.625   2.271  1.5154  0.1410  1.1078
  252MOL0     H34733   5.429   3.694   2.321  0.9305  0.7787  0.5472
  252MOL0     H34734   5.741   3.502   2.328 -2.9456 -1.8991  2.2266
  252MOL0     H34735   6.046   3.482   2.241 -1.0614 -0.7545 -0.9862
  252MOL0     H34736   5.923   3.368   2.309  0.6759 -0.9262 -0.8063
  252MOL0     H34737   6.078   3.392   2.387  0.8387 -0.3512 -0.9355
  252MOL0     H34738   6.368   3.852   2.480 -1.8159  0.0329  2.4930
  252MOL0     H34739   6.607   3.833   2.463  1.6335 -1.1567  0.1015
  252MOL0     H34740   6.807   3.776   2.447  1.6252  0.0194 -1.2868
  252MOL0     H34741   6.821   3.888   2.582 -0.9628  0.3182 -0.3136
  252MOL0     H34742   7.005   3.806   2.671 -2.6108  1.9923 -0.2086
  252MOL0     H34743   7.013   3.660   2.565  1.4815  0.7081  1.4101
  252MOL0     H34744   7.011   3.938   2.463  0.7788  0.0410  2.2828
  252MOL0     H34745   7.046   3.788   2.370 -0.6346  0.8798  0.1058
  252MOL0     H34746   7.243   3.759   2.516 -0.1004  0.1866 -1.4001
  252MOL0     H34747   7.210   3.906   2.611  3.3678 -0.3819  1.1487
  252MOL0     H34748   7.376   3.968   2.466  0.2586  0.5239 -0.7286
  252MOL0     H34749   7.317   3.864   2.340  2.1542 -0.7448  0.8035
  252MOL0     H34750   7.140   4.021   2.283 -0.5513 -1.9257 -0.2231
  252MOL0     H34751   7.301   4.093   2.271 -1.3372 -0.7458 -0.8666
  252MOL0     H34752   7.282   4.206   2.480 -2.0299  2.9998  2.3510
  252MOL0     H34753   7.120   4.137   2.511  0.9283 -0.5645  0.1682
  252MOL0     H34754   7.199   4.367   2.324 -0.2311 -0.2248 -0.7663
  252MOL0     H34755   7.081   4.348   2.456  0.0534 -1.3572  0.9114
  252MOL0     H34756   6.617   3.561   2.789 -1.0787  0.1697 -0.0118
  252MOL0     H34757   6.371   3.553   2.796 -0.7016 -0.1096 -0.4000
  252MOL0     H34758   5.969   3.765   2.685 -0.8051 -1.4481  0.5868
  252MOL0     H34759   5.715   3.793   2.646 -1.4636 -0.9266  0.3890
  252MOL0     H34760   3.707   3.642   2.804 -2.2637  0.9085  0.3228
  252MOL0     H34761   3.483   3.603   2.869 -2.6677 -2.2523  1.0136
  252MOL0     H34762   3.117   3.088   2.983 -1.4662 -0.3569  2.3603
  252MOL0     H34763   2.876   3.078   2.947 -2.4481  1.1744  0.3688
  252MOL0     H34764   2.647   3.442   2.833  1.7138 -0.2567 -0.6524
  252MOL0     H34765   2.670   3.331   2.685  1.3549 -2.0187  0.0243
  252MOL0     H34766   2.493   3.212   2.850  2.2738 -0.7263 -2.7749
  252MOL0     H34767   2.453   3.281   2.681  0.7494 -1.3344 -1.5088
  252MOL0     H34768   2.305   3.372   2.859 -0.3193 -0.4765  0.1465
  252MOL0     H34769   2.423   3.441   2.939  0.3086  3.3734 -1.5170
  252MOL0     H34770   2.294   3.587   2.740  1.0792  1.9083  0.7679
  252MOL0     H34771   2.396   3.487   2.634 -2.0604 -1.1074  0.6119
  252MOL0     H34772   2.631   3.817   2.765  0.4187  0.1808 -1.2306
  252MOL0     H34773   2.858   3.456   2.766 -4.0543 -1.4366  0.6857
  252MOL0     H34774   3.183   3.471   2.679  2.6300 -1.0912  1.3585
  252MOL0     H34775   3.034   3.563   2.702  0.2433 -0.9013  0.5473
  252MOL0     H34776   3.148   3.577   2.824 -2.5671  2.9378 -0.8882
  253MOL0     O34777   6.086   2.860   5.431  0.3718  0.1190  0.6608
  253MOL0     C34778   6.031   2.810   5.334 -0.0185 -0.2485 -0.4388
  253MOL0     O34779   5.988   2.673   5.322 -0.4345 -0.0903 -0.1383
  253MOL0     C34780   6.019   2.573   5.416 -0.1737  0.0459  0.0794
  253MOL0     C34781   6.146   2.546   5.451 -0.1608 -1.0100  0.2468
  253MOL0     C34782   6.178   2.443   5.532 -0.5697 -0.0438 -1.3589
  253MOL0     C34783   6.082   2.360   5.599  0.0759  0.3436  0.9559
  253MOL0     O34784   6.126   2.258   5.672 -0.1853 -0.5095  0.2116
  253MOL0     C34785   6.038   2.152   5.708  0.7860 -0.4893 -0.8715
  253MOL0     C34786   6.126   2.035   5.740  0.5910 -0.3935  0.3124
  253MOL0     C34787   6.200   2.058   5.874  0.3996  0.7210  0.0521
  253MOL0     C34788   6.286   1.940   5.910 -0.9888 -0.6435 -0.9375
  253MOL0     C34789   6.368   1.953   6.040 -0.0561  0.2375 -0.2204
  253MOL0     C34790   6.313   1.875   6.163 -0.1564  0.1350  0.2933
  253MOL0     C34791   6.160   1.909   6.188  0.0117 -0.0342 -0.1075
  253MOL0     C34792   6.144   2.053   6.239  0.4053 -0.3948  0.8174
  253MOL0     N34793   6.006   2.105   6.230  0.2915  0.4866  0.1085
  253MOL0     C34794   5.958   2.220   6.281  0.5042 -0.7842 -0.1568
  253MOL0     C34795   5.840   2.245   6.222  0.2454  0.5735 -0.8032
  253MOL0     C34796   5.745   2.361   6.239  0.4319  0.2935 -0.3637
  253MOL0     C34797   5.617   2.324   6.320  0.1554  0.4460  0.1518
  253MOL0     C34798   5.485   2.300   6.249 -0.1507 -0.7149  0.4280
  253MOL0     C34799   5.499   2.204   6.127 -0.5384  0.3943  0.2080
  253MOL0     O34800   5.365   2.168   6.090 -0.5595  0.1675 -0.2271
  253MOL0     C34801   5.297   2.069   6.160  0.0121 -0.3589 -0.8365
  253MOL0     C34802   5.166   2.049   6.131  0.1357  1.2708  0.3021
  253MOL0     C34803   5.086   1.961   6.204  0.4110  0.1055  0.4538
  253MOL0     C34804   4.939   1.945   6.159  0.6237  0.3735 -0.5421
  253MOL0     C34805   5.139   1.887   6.313 -0.5221 -0.0546 -0.0472
  253MOL0     C34806   5.067   1.778   6.388  0.5080  0.0623  0.0664
  253MOL0     O34807   5.134   1.721   6.489 -0.2376 -0.3086 -0.5926
  253MOL0     C34808   5.068   1.642   6.584  0.3425 -0.5896  0.4834
  253MOL0     C34809   5.053   1.695   6.710  0.7883  0.0829 -0.2461
  253MOL0     C34810   4.980   1.620   6.810  0.3258  0.0101 -0.3870
  253MOL0     C34811   4.919   1.500   6.782  0.8613 -0.1455  0.3432
  253MOL0     O34812   4.839   1.440   6.872  0.1252 -0.8607 -0.9013
  253MOL0     C34813   4.716   1.389   6.809 -0.5521 -0.1006 -0.0653
  253MOL0     C34814   4.636   1.330   6.931  0.1479 -1.3612 -0.7444
  253MOL0     C34815   4.490   1.287   6.891  0.1667 -1.1017  0.6648
  253MOL0     C34816   4.416   1.210   7.001  0.2568 -0.0313  0.0838
  253MOL0     C34817   4.281   1.148   6.958 -0.3281  0.9717 -1.0573
  253MOL0     C34818   4.289   1.005   6.911  0.0938  0.4431 -0.8119
  253MOL0     C34819   4.157   0.950   6.859 -0.4765 -0.7257  0.0385
  253MOL0     C34820   4.177   0.835   6.762 -0.2103 -0.4207  0.9630
  253MOL0    Cl34821   4.233   0.680   6.857  0.0684 -0.2951 -0.5954
  253MOL0     C34822   4.947   1.440   6.650  0.1892 -0.3704  1.0850
  253MOL0     C34823   5.023   1.503   6.561 -0.5691 -0.5249  0.3525
  253MOL0     O34824   4.949   1.751   6.361  0.0471  0.2769 -0.4768
  253MOL0     C34825   5.269   1.905   6.347 -1.5082  0.3589  0.2666
  253MOL0     C34826   5.350   2.002   6.271 -0.6838 -0.0528 -1.1136
  253MOL0     N34827   5.805   2.133   6.151 -0.5766 -0.4062  0.0753
  253MOL0     N34828   5.908   2.058   6.149  0.3850 -0.5952  0.6244
  253MOL0     C34829   5.948   2.390   5.568 -0.2554 -0.0021 -0.3913
  253MOL0     C34830   5.919   2.503   5.481  0.3757 -0.6703  0.0923
  253MOL0     C34831   6.003   2.895   5.219 -0.1606  0.1953  0.4357
  253MOL0     C34832   6.060   3.024   5.222 -0.8628 -0.2518  1.4802
  253MOL0     C34833   6.039   3.110   5.118  0.2802  0.1085  0.8296
  253MOL0     C34834   5.961   3.071   5.004 -0.0569  0.1820  0.0278
  253MOL0     O34835   5.956   3.165   4.901  0.2561 -0.1969  0.4281
  253MOL0     C34836   5.895   3.139   4.776  0.6889  0.1261 -1.0103
  253MOL0     C34837   6.005   3.102   4.676  0.3153  0.8888  0.2696
  253MOL0     C34838   5.953   3.085   4.538  0.5035  0.1983 -0.2427
  253MOL0     C34839   6.056   3.036   4.442 -0.2291  0.4708  0.1666
  253MOL0     C34840   6.164   3.133   4.420  0.1477 -0.2609 -0.4658
  253MOL0     C34841   6.256   3.217   4.396 -0.3078  0.9354 -1.1007
  253MOL0     C34842   5.900   2.950   5.003  0.0371  0.1412  0.8714
  253MOL0     C34843   5.919   2.861   5.109 -1.1272 -1.1096 -0.5511
  253MOL0     C34844   5.824   2.735   5.098  0.1878  0.0319 -0.1190
  253MOL0     H34845   6.216   2.616   5.405 -4.5151  1.8091 -2.8185
  253MOL0     H34846   6.283   2.420   5.549 -1.0603 -1.2588  0.1963
  253MOL0     H34847   5.956   2.119   5.643  0.3460 -0.1814 -0.4780
  253MOL0     H34848   5.980   2.180   5.796  2.0029 -0.1805 -0.1476
  253MOL0     H34849   6.065   1.944   5.747 -0.5773  0.2919 -0.5439
  253MOL0     H34850   6.204   2.018   5.666  1.5548 -1.0421  1.4469
  253MOL0     H34851   6.258   2.151   5.866  0.3840  0.7368  0.1189
  253MOL0     H34852   6.134   2.080   5.959  2.4522  1.1647  1.6041
  253MOL0     H34853   6.227   1.849   5.921  0.9429 -1.9667 -0.9897
  253MOL0     H34854   6.357   1.932   5.827 -0.0494 -1.1202 -0.1172
  253MOL0     H34855   6.374   2.059   6.067  0.8273  0.6806 -1.9759
  253MOL0     H34856   6.472   1.922   6.028 -0.1846 -0.3502  0.1186
  253MOL0     H34857   6.310   1.768   6.142 -0.5457  0.3710 -0.9220
  253MOL0     H34858   6.370   1.890   6.255 -2.2071  0.6495  1.5514
  253MOL0     H34859   6.116   1.841   6.262 -1.0975 -1.3740 -1.9108
  253MOL0     H34860   6.097   1.887   6.101 -0.4162  1.1948 -0.1209
  253MOL0     H34861   6.188   2.054   6.339 -0.3912  2.2245  1.2306
  253MOL0     H34862   6.206   2.119   6.179  0.3819  0.2491  1.4865
  253MOL0     H34863   5.999   2.284   6.359 -1.6405  4.0465 -2.6062
  253MOL0     H34864   5.714   2.372   6.135  2.6917  1.2026 -0.9886
  253MOL0     H34865   5.799   2.452   6.267  1.5483  0.4792 -2.9243
  253MOL0     H34866   5.641   2.241   6.388 -3.9217 -2.3069 -1.3984
  253MOL0     H34867   5.604   2.410   6.386 -0.9347 -0.2950  0.9280
  253MOL0     H34868   5.401   2.266   6.310 -1.2449 -2.4672 -1.9055
  253MOL0     H34869   5.459   2.401   6.214  1.9490  0.2858  1.6250
  253MOL0     H34870   5.547   2.253   6.041  1.5642 -2.8642 -0.6646
  253MOL0     H34871   5.556   2.116   6.158  0.6756  1.1205  0.1353
  253MOL0     H34872   5.113   2.111   6.059 -1.1366 -2.5600 -2.3376
  253MOL0     H34873   4.872   1.962   6.244  2.1305  0.3734  0.6805
  253MOL0     H34874   4.925   1.842   6.123 -0.7454  1.5349 -3.7288
  253MOL0     H34875   4.913   2.012   6.076  1.7731  0.3074 -0.9725
  253MOL0     H34876   5.093   1.792   6.737  2.1742  0.0289 -1.8754
  253MOL0     H34877   4.981   1.654   6.913  1.0095  0.1545 -0.4354
  253MOL0     H34878   4.655   1.463   6.757 -2.1918 -0.9469  0.5377
  253MOL0     H34879   4.740   1.299   6.751  1.7175  0.5140 -0.1726
  253MOL0     H34880   4.704   1.249   6.961  0.8302 -1.8985 -3.4695
  253MOL0     H34881   4.626   1.405   7.011  1.5630 -0.4944 -1.3407
  253MOL0     H34882   4.507   1.231   6.798 -0.1215 -1.6355  0.9323
  253MOL0     H34883   4.431   1.376   6.868 -1.9609 -2.2728  1.3396
  253MOL0     H34884   4.401   1.278   7.085  3.8202 -2.7654  3.2754
  253MOL0     H34885   4.495   1.144   7.037  2.7460  1.9704 -1.3667
  253MOL0     H34886   4.224   1.156   7.051  2.0753  2.0111  0.4146
  253MOL0     H34887   4.244   1.196   6.867 -1.6376 -3.0063 -2.8495
  253MOL0     H34888   4.314   0.942   6.997  0.8656  0.3612 -1.0952
  253MOL0     H34889   4.371   0.985   6.842  1.8259  0.2140  1.2268
  253MOL0     H34890   4.099   1.021   6.799 -0.9108 -1.6488 -0.6706
  253MOL0     H34891   4.095   0.929   6.947 -1.6499  2.4007  0.0928
  253MOL0     H34892   4.247   0.850   6.679 -0.5684 -2.2168  0.2933
  253MOL0     H34893   4.087   0.800   6.711  1.9212 -3.6369 -0.9698
  253MOL0     H34894   4.922   1.335   6.637 -3.3142  0.3996  0.6300
  253MOL0     H34895   5.048   1.458   6.465  2.0966  1.0978  0.1774
  253MOL0     H34896   5.314   1.844   6.425 -0.6197  0.8505  0.1457
  253MOL0     H34897   5.458   2.006   6.287 -1.0069  2.6033  1.3024
  253MOL0     H34898   5.865   2.330   5.604  0.1290 -1.4951 -1.8747
  253MOL0     H34899   5.815   2.527   5.459  1.0693  1.2944 -1.2905
  253MOL0     H34900   6.134   3.062   5.291 -1.2826  2.6233  0.5205
  253MOL0     H34901   6.091   3.206   5.113 -1.5505  1.2196  2.0828
  253MOL0     H34902   5.810   3.070   4.780 -2.7008  3.9909  2.3448
  253MOL0     H34903   5.846   3.231   4.741  1.1341  0.3716 -0.9960
  253MOL0     H34904   6.060   3.013   4.710 -2.3960 -1.9005 -1.9974
  253MOL0     H34905   6.071   3.189   4.674 -1.6465  2.4256 -0.4064
  253MOL0     H34906   5.871   3.013   4.533  0.8476 -0.5071  2.5964
  253MOL0     H34907   5.908   3.176   4.499 -1.8861 -1.0298 -0.5305
  253MOL0     H34908   5.999   3.029   4.349 -0.4699  3.1646  0.0219
  253MOL0     H34909   6.086   2.936   4.475  0.4427  0.9092  0.9363
  253MOL0     H34910   6.337   3.287   4.394  0.1737  0.3993 -0.7506
  253MOL0     H34911   5.838   2.916   4.921  2.9487 -1.4405 -0.8429
  253MOL0     H34912   5.754   2.733   5.014 -1.1114 -1.9079  0.9211
  253MOL0     H34913   5.882   2.643   5.106 -1.2110 -0.7513  2.3361
  253MOL0     H34914   5.763   2.730   5.189  0.7044 -0.2435  0.2233
  254MOL0     O34915   9.013   5.962  11.194  0.0749 -0.6016  0.2919
  254MOL0     C34916   8.912   5.954  11.111 -0.3504 -0.1745 -0.6688
  254MOL0     O34917   8.909   5.973  10.984 -0.9951  0.9434  0.2595
  254MOL0     C34918   9.028   5.971  10.905  0.0170 -0.5986 -0.5221
  254MOL0     C34919   9.138   6.051  10.924  0.2108  0.7152 -0.5844
  254MOL0     C34920   9.260   6.031  10.864  0.1108  0.0781  0.2649
  254MOL0     C34921   9.280   5.924  10.781  0.3811 -1.4688 -0.1744
  254MOL0     O34922   9.406   5.908  10.733  0.0300  0.5597  0.4906
  254MOL0     C34923   9.425   5.841  10.605 -0.5267  0.4545 -0.3888
  254MOL0     C34924   9.407   5.943  10.490  0.0108 -1.0501 -0.6010
  254MOL0     C34925   9.506   6.056  10.494 -0.5660  0.0569 -0.1133
  254MOL0     C34926   9.659   6.018  10.491  0.8246 -0.2086  0.4532
  254MOL0     C34927   9.696   5.935  10.363  0.1795  0.2373  0.2056
  254MOL0     C34928   9.845   5.910  10.342 -0.5213 -0.4937 -0.0733
  254MOL0     C34929   9.872   5.811  10.223  0.1240  0.6564 -0.0754
  254MOL0     C34930   9.840   5.881  10.091 -0.0383  0.0517 -0.4569
  254MOL0     N34931   9.838   5.792   9.982  0.4583 -0.0853  0.2215
  254MOL0     C34932   9.769   5.674   9.972 -0.1020 -0.0663 -0.3393
  254MOL0     C34933   9.789   5.620   9.851 -0.4970 -0.5480 -0.7310
  254MOL0     C34934   9.742   5.500   9.784  0.2096 -0.0324 -0.2528
  254MOL0     C34935   9.593   5.475   9.804 -0.8455  0.1299  0.3915
  254MOL0     C34936   9.559   5.348   9.738  0.1271  0.3701  0.6686
  254MOL0     C34937   9.418   5.338   9.682 -0.4795  0.0097 -0.0042
  254MOL0     O34938   9.327   5.381   9.781 -0.3682 -0.6095 -0.7529
  254MOL0     C34939   9.198   5.382   9.752  0.4300  0.0121  0.3885
  254MOL0     C34940   9.118   5.463   9.825  0.2550  0.4477 -0.3585
  254MOL0     C34941   8.979   5.485   9.792 -0.4297 -0.6247 -0.1377
  254MOL0     C34942   8.909   5.600   9.863 -0.4739 -0.3785 -0.2128
  254MOL0     C34943   8.917   5.407   9.688  0.2843 -0.8792  0.5364
  254MOL0     C34944   8.782   5.435   9.647  0.5263 -0.5326 -0.4948
  254MOL0     O34945   8.765   5.530   9.555 -0.4916  0.7229 -0.1691
  254MOL0     C34946   8.632   5.568   9.520 -0.5558  0.9267  0.8007
  254MOL0     C34947   8.566   5.633   9.623 -0.7285 -0.4046  0.2207
  254MOL0     C34948   8.433   5.665   9.603  0.9110  0.6546 -0.9968
  254MOL0     C34949   8.362   5.623   9.494  0.2970 -0.3725 -0.6469
  254MOL0     O34950   8.221   5.632   9.489 -0.6915 -0.2478 -0.4768
  254MOL0     C34951   8.147   5.683   9.601  0.3718 -0.2319 -0.4057
  254MOL0     C34952   8.005   5.682   9.548 -0.5095  0.1819 -0.1963
  254MOL0     C34953   7.901   5.734   9.640 -0.3215  1.3802  0.1083
  254MOL0     C34954   7.886   5.643   9.763 -0.0954 -0.3337 -0.9126
  254MOL0     C34955   7.781   5.693   9.869 -0.9616  0.5603  1.4689
  254MOL0     C34956   7.818   5.643  10.009  0.1685 -1.1194 -0.0137
  254MOL0     C34957   7.708   5.696  10.115 -0.5408  0.6794 -0.3987
  254MOL0     C34958   7.704   5.847  10.146  1.0480  0.5077 -0.2066
  254MOL0    Cl34959   7.857   5.895  10.218  0.0789 -0.3366 -0.3421
  254MOL0     C34960   8.432   5.562   9.389 -0.0624  0.4067 -0.3835
  254MOL0     C34961   8.563   5.539   9.399  0.3830  0.3761 -0.0329
  254MOL0     O34962   8.692   5.372   9.711 -0.2457  0.0038  0.4112
  254MOL0     C34963   8.999   5.322   9.610 -0.5340  0.6371  1.2459
  254MOL0     C34964   9.131   5.305   9.648 -0.3899  0.1568  0.0081
  254MOL0     N34965   9.860   5.720   9.781  0.3326  0.0216  0.2312
  254MOL0     N34966   9.898   5.810   9.866  0.3588 -0.0870 -0.5061
  254MOL0     C34967   9.171   5.837  10.767 -0.5488 -0.2566  0.0699
  254MOL0     C34968   9.045   5.857  10.828  0.1907 -0.3621  0.0411
  254MOL0     C34969   8.780   5.963  11.190 -0.0448  0.8647 -0.2560
  254MOL0     C34970   8.669   6.012  11.133 -0.4906 -0.0915 -0.3447
  254MOL0     C34971   8.543   6.023  11.195  0.1043 -0.9636  0.5734
  254MOL0     C34972   8.531   5.974  11.330  0.1684  0.1564  0.2299
  254MOL0     O34973   8.410   5.953  11.392 -0.0857  0.1689  0.0684
  254MOL0     C34974   8.287   5.978  11.311 -0.7191  0.2392 -0.8801
  254MOL0     C34975   8.160   5.940  11.382  0.6604  0.3494  0.8695
  254MOL0     C34976   8.172   5.803  11.443  0.2245  0.4141 -0.5298
  254MOL0     C34977   8.199   5.693  11.350 -0.3142  0.5549  0.4535
  254MOL0     C34978   8.134   5.716  11.215  0.1315  1.2068 -0.3498
  254MOL0     C34979   8.090   5.735  11.101  0.7365  0.1298 -0.5849
  254MOL0     C34980   8.642   5.911  11.389  0.1380  0.9245  0.2752
  254MOL0     C34981   8.767   5.904  11.320  0.0352 -0.0984 -0.6233
  254MOL0     C34982   8.861   5.817  11.392  0.7262  0.5582  0.2732
  254MOL0     H34983   9.127   6.139  10.986  2.1260  0.6616 -0.1257
  254MOL0     H34984   9.337   6.107  10.874  0.0561  0.6248 -2.5049
  254MOL0     H34985   9.355   5.758  10.593  0.9851 -0.9410  0.2080
  254MOL0     H34986   9.521   5.790  10.608 -1.3448 -1.1251  1.8840
  254MOL0     H34987   9.414   5.896  10.392  2.6506 -0.4827 -0.7531
  254MOL0     H34988   9.310   5.991  10.507  0.1078 -1.5788  1.9392
  254MOL0     H34989   9.495   6.125  10.410  1.3028 -0.5108 -0.8619
  254MOL0     H34990   9.489   6.124  10.578  0.8024  0.5044 -0.1877
  254MOL0     H34991   9.709   6.115  10.493 -0.1393  0.5098 -3.1937
  254MOL0     H34992   9.685   5.958  10.579  2.7493 -0.1391 -0.0156
  254MOL0     H34993   9.665   5.993  10.275 -0.1245  0.6206  0.5660
  254MOL0     H34994   9.646   5.838  10.372  1.2415 -0.2437  1.2160
  254MOL0     H34995   9.886   6.002  10.299 -0.9349  0.0770  0.7230
  254MOL0     H34996   9.889   5.877  10.436  1.4318 -0.9473 -1.0836
  254MOL0     H34997   9.814   5.718  10.231 -0.3305  0.4091 -4.1927
  254MOL0     H34998   9.980   5.790  10.230  0.4484  2.6179  1.8215
  254MOL0     H34999   9.742   5.930  10.093  0.3306  0.7805  0.3404
  254MOL0     H35000   9.914   5.961  10.079 -0.9519  1.4190  2.2635
  254MOL0     H35001   9.733   5.619  10.058  0.9619 -0.8787 -0.3890
  254MOL0     H35002   9.804   5.419   9.824  0.5033  1.6086  2.9159
  254MOL0     H35003   9.775   5.503   9.680  1.0635  0.1962  0.0148
  254MOL0     H35004   9.567   5.486   9.910  1.2689  2.4748  0.7768
  254MOL0     H35005   9.538   5.559   9.760 -2.5126 -1.6646 -1.1524
  254MOL0     H35006   9.604   5.345   9.638 -0.7768 -2.4085  0.2659
  254MOL0     H35007   9.568   5.256   9.796  2.4387  0.9881  1.3973
  254MOL0     H35008   9.406   5.406   9.598 -0.0109  3.7998  2.7248
  254MOL0     H35009   9.396   5.239   9.641 -1.5739  0.0824  0.3919
  254MOL0     H35010   9.155   5.532   9.900  1.1472  2.0819 -2.2221
  254MOL0     H35011   8.975   5.650   9.934  0.1309 -0.8155 -0.4555
  254MOL0     H35012   8.820   5.561   9.913 -0.5879 -0.4692 -0.4866
  254MOL0     H35013   8.894   5.669   9.779  0.8228 -3.4205 -3.2289
  254MOL0     H35014   8.621   5.660   9.712 -1.1579 -0.2679  0.4500
  254MOL0     H35015   8.384   5.728   9.676 -0.4260 -2.4106  0.9269
  254MOL0     H35016   8.146   5.618   9.689 -3.9152 -0.1163 -0.1402
  254MOL0     H35017   8.179   5.781   9.640  1.2683  0.0233 -1.7192
  254MOL0     H35018   8.002   5.726   9.447  0.5141 -0.3593 -0.4780
  254MOL0     H35019   7.979   5.578   9.530  1.3453  0.1969 -4.0475
  254MOL0     H35020   7.806   5.737   9.587 -1.1841 -2.4510  1.1545
  254MOL0     H35021   7.925   5.836   9.670 -2.1930  2.3307 -1.3960
  254MOL0     H35022   7.980   5.624   9.816 -0.9041 -3.1537 -0.2820
  254MOL0     H35023   7.843   5.547   9.732 -1.3731  0.1950 -0.8618
  254MOL0     H35024   7.786   5.802   9.874 -3.7267  0.6957  2.8546
  254MOL0     H35025   7.677   5.689   9.836 -0.3979  0.0729 -0.3334
  254MOL0     H35026   7.916   5.683  10.036 -0.3448 -0.5503  1.0653
  254MOL0     H35027   7.813   5.534  10.004  1.4699 -1.1886 -0.0451
  254MOL0     H35028   7.737   5.647  10.208  2.2895  1.0508 -1.0071
  254MOL0     H35029   7.605   5.668  10.091 -0.3453  0.3612 -0.8676
  254MOL0     H35030   7.630   5.873  10.223  0.8238 -0.1894 -0.1836
  254MOL0     H35031   7.678   5.907  10.058 -1.0096 -1.1632 -0.8084
  254MOL0     H35032   8.371   5.544   9.302  0.2850  0.2821 -0.6048
  254MOL0     H35033   8.609   5.505   9.307 -0.5450  1.2632 -0.8484
  254MOL0     H35034   8.960   5.266   9.525 -0.1516  1.8014  0.2813
  254MOL0     H35035   9.185   5.237   9.583  0.7274  1.0471 -0.0328
  254MOL0     H35036   9.184   5.756  10.696 -0.6244 -0.4066  0.2262
  254MOL0     H35037   8.952   5.801  10.827 -0.9394  0.7814  5.6522
  254MOL0     H35038   8.685   6.059  11.036 -0.5397  0.6809  0.0145
  254MOL0     H35039   8.458   6.065  11.142  1.5328 -1.3969 -2.2168
  254MOL0     H35040   8.279   6.078  11.267 -4.2452  0.7058  0.5035
  254MOL0     H35041   8.299   5.919  11.220 -0.2820 -0.1661 -0.5653
  254MOL0     H35042   8.075   5.963  11.317  0.5140  0.2347  1.0171
  254MOL0     H35043   8.141   6.011  11.463  0.1500  0.1791  0.9024
  254MOL0     H35044   8.241   5.797  11.528  2.5610 -2.4235 -2.4164
  254MOL0     H35045   8.077   5.781  11.494  1.4511 -0.5716  1.4641
  254MOL0     H35046   8.159   5.606  11.404 -2.5685  1.2911  0.0824
  254MOL0     H35047   8.303   5.663  11.330 -0.2934  0.8754  0.0779
  254MOL0     H35048   8.039   5.731  11.007  0.6307  0.4118 -0.5410
  254MOL0     H35049   8.612   5.871  11.486  3.9298 -0.1121  1.1778
  254MOL0     H35050   8.820   5.764  11.479  2.3846 -1.9587 -0.3539
  254MOL0     H35051   8.896   5.740  11.323 -1.5161  0.5983 -0.9939
  254MOL0     H35052   8.943   5.879  11.432  0.0397  2.1102 -0.6561
  255MOL0     O35053   9.544   3.557   6.585  0.1795  0.4644  0.0114
  255MOL0     C35054   9.434   3.612   6.577  0.3681  0.2292  0.1693
  255MOL0     O35055   9.404   3.726   6.639 -0.7094 -0.8589  0.2842
  255MOL0     C35056   9.508   3.767   6.734  0.2610  0.7051 -0.2918
  255MOL0     C35057   9.624   3.837   6.691 -0.0035  0.1627 -0.1782
  255MOL0     C35058   9.715   3.893   6.788  0.1037  0.5222  0.4430
  255MOL0     C35059   9.687   3.873   6.914  0.0630  0.1274 -0.6723
  255MOL0     O35060   9.751   3.935   7.011 -0.2559 -0.5599 -0.7827
  255MOL0     C35061   9.892   3.953   7.013  0.0895 -0.0165 -1.0970
  255MOL0     C35062   9.961   3.824   7.043  0.3604 -0.0151  0.7571
  255MOL0     C35063   9.972   3.740   6.920 -0.1082  0.6211 -0.9189
  255MOL0     C35064  10.102   3.654   6.916 -0.4283  0.1470  0.1927
  255MOL0     C35065  10.097   3.543   6.814 -0.0540  0.3616  0.2467
  255MOL0     C35066  10.188   3.423   6.853 -0.9190  0.2550  0.9389
  255MOL0     C35067  10.246   3.329   6.752  0.6267  0.9264 -0.3761
  255MOL0     C35068  10.304   3.381   6.620  0.2036 -0.7992  0.0532
  255MOL0     N35069  10.432   3.467   6.631  0.3056  0.5687  0.2918
  255MOL0     C35070  10.555   3.439   6.580 -1.1671 -0.0989 -0.1343
  255MOL0     C35071  10.641   3.537   6.614  0.5961  0.0548 -0.0246
  255MOL0     C35072  10.787   3.539   6.576  0.1495  0.1266  0.2842
  255MOL0     C35073  10.821   3.563   6.428  1.0335 -0.2898  0.9918
  255MOL0     C35074  10.756   3.690   6.373  0.3794 -0.0169  1.4670
  255MOL0     C35075  10.801   3.725   6.230 -0.5963 -0.4592 -0.7990
  255MOL0     O35076  10.757   3.626   6.137  0.3830 -0.6657  0.0385
  255MOL0     C35077  10.793   3.628   6.008  0.0478 -0.2266  0.4527
  255MOL0     C35078  10.700   3.586   5.911  0.5055  0.3181  0.1724
  255MOL0     C35079  10.735   3.551   5.779  0.4300 -0.5876 -0.2356
  255MOL0     C35080  10.643   3.486   5.678  0.3087  0.9840  1.1771
  255MOL0     C35081  10.870   3.571   5.745 -0.7182  0.7222 -0.1502
  255MOL0     C35082  10.934   3.549   5.612 -0.4547  0.0256 -0.0387
  255MOL0     O35083  11.049   3.484   5.606 -0.6232  1.0293  0.0230
  255MOL0     C35084  11.102   3.480   5.480 -0.3851 -0.3772  0.3608
  255MOL0     C35085  11.232   3.526   5.466  0.3853 -0.1078  0.4207
  255MOL0     C35086  11.309   3.510   5.351 -0.8414 -0.6275 -0.2696
  255MOL0     C35087  11.256   3.443   5.246 -0.7995  0.7331 -0.0006
  255MOL0     O35088  11.337   3.439   5.128 -0.0318  0.7171 -0.4026
  255MOL0     C35089  11.305   3.333   5.041 -0.5295  0.2104  0.5560
  255MOL0     C35090  11.426   3.285   4.957 -0.3574  1.0756  0.0664
  255MOL0     C35091  11.522   3.375   4.884 -0.2194 -0.1152 -0.0276
  255MOL0     C35092  11.587   3.286   4.777  0.3044 -0.3553 -0.7477
  255MOL0     C35093  11.728   3.344   4.744 -0.2728 -0.0084 -0.5317
  255MOL0     C35094  11.812   3.237   4.670 -0.7806 -0.7410 -0.2348
  255MOL0     C35095  11.967   3.266   4.664  0.5282  0.2964  0.0719
  255MOL0     C35096  12.020   3.318   4.534  0.0618  0.4105 -0.1207
  255MOL0    Cl35097  12.183   3.370   4.556  0.2245  0.1286  0.3666
  255MOL0     C35098  11.124   3.399   5.255 -0.1689  0.5281  0.4910
  255MOL0     C35099  11.057   3.414   5.371  0.2718  0.1657  0.0947
  255MOL0     O35100  10.879   3.603   5.514  0.2533 -1.0249  0.1481
  255MOL0     C35101  10.962   3.616   5.838 -0.2743  0.0849 -0.2738
  255MOL0     C35102  10.925   3.638   5.966 -0.0386 -0.3797  0.0517
  255MOL0     N35103  10.564   3.638   6.677  0.4610  0.4768  0.7534
  255MOL0     N35104  10.432   3.598   6.681 -0.1076  0.9145  0.2208
  255MOL0     C35105   9.576   3.804   6.956 -0.3232  0.1842 -0.0269
  255MOL0     C35106   9.488   3.741   6.867  0.4912  0.2545 -0.2267
  255MOL0     C35107   9.325   3.543   6.497 -0.1240 -0.4047 -0.6694
  255MOL0     C35108   9.197   3.602   6.505  0.0596  0.3366  0.1586
  255MOL0     C35109   9.093   3.547   6.430 -0.0170  0.2091  0.1557
  255MOL0     C35110   9.111   3.429   6.347  0.2033 -0.6898  0.0321
  255MOL0     O35111   9.018   3.380   6.267 -0.0374  0.2358  0.6151
  255MOL0     C35112   8.880   3.386   6.298 -0.0879  1.0844  0.9789
  255MOL0     C35113   8.808   3.262   6.254  0.7630 -0.5676  0.0708
  255MOL0     C35114   8.663   3.276   6.296  0.3981  0.8294 -0.0241
  255MOL0     C35115   8.575   3.154   6.248 -0.5161 -1.3723 -0.7380
  255MOL0     C35116   8.438   3.170   6.292  0.8676  0.3486 -0.4993
  255MOL0     C35117   8.329   3.152   6.351 -0.9098 -0.4664 -0.0295
  255MOL0     C35118   9.230   3.363   6.349 -0.3090  0.1337  0.3117
  255MOL0     C35119   9.342   3.423   6.419 -0.1166 -0.3571  0.1748
  255MOL0     C35120   9.474   3.340   6.399 -0.1741 -0.5170 -0.2172
  255MOL0     H35121   9.627   3.852   6.583 -3.1506 -1.9204 -0.6875
  255MOL0     H35122   9.802   3.952   6.760  1.5556 -2.0787 -0.9177
  255MOL0     H35123   9.921   4.015   7.097 -0.1322 -0.3586 -0.7636
  255MOL0     H35124   9.929   4.000   6.922 -2.3289  3.0935 -0.6390
  255MOL0     H35125  10.063   3.844   7.079  1.1610 -0.6363 -1.0446
  255MOL0     H35126   9.900   3.770   7.116 -2.3532  0.2291 -1.1945
  255MOL0     H35127   9.882   3.677   6.916 -0.4684  0.9652  0.7743
  255MOL0     H35128   9.973   3.798   6.828  0.4153  2.2241  0.0546
  255MOL0     H35129  10.193   3.714   6.906 -0.6059  0.4580  0.4075
  255MOL0     H35130  10.111   3.602   7.012  4.3371  0.1191 -0.0237
  255MOL0     H35131  10.140   3.589   6.724 -1.7003  1.0307 -0.2349
  255MOL0     H35132   9.995   3.517   6.784  1.3546 -2.2457 -2.9315
  255MOL0     H35133  10.279   3.458   6.904  1.9577 -2.2481 -2.0110
  255MOL0     H35134  10.128   3.355   6.913 -0.1091 -1.5320 -0.1973
  255MOL0     H35135  10.163   3.263   6.726  0.4914  1.1547 -0.5308
  255MOL0     H35136  10.314   3.259   6.801 -0.9686  1.8639  3.6104
  255MOL0     H35137  10.323   3.293   6.559 -0.4318  0.4328 -2.0235
  255MOL0     H35138  10.230   3.443   6.569  1.5364  3.2170  2.4736
  255MOL0     H35139  10.581   3.349   6.525  2.6065  0.5776  0.2914
  255MOL0     H35140  10.834   3.444   6.603 -0.3512  0.3299  1.9474
  255MOL0     H35141  10.850   3.615   6.622  1.0071  0.0314 -0.6959
  255MOL0     H35142  10.929   3.569   6.413  0.7946  0.5242 -0.6124
  255MOL0     H35143  10.784   3.484   6.362  0.3751 -0.2377  1.2992
  255MOL0     H35144  10.647   3.684   6.379  0.2240  1.4935  0.7922
  255MOL0     H35145  10.790   3.776   6.433  1.3906  1.3566 -0.9528
  255MOL0     H35146  10.767   3.822   6.193 -0.7264  0.2324  1.0291
  255MOL0     H35147  10.910   3.734   6.241 -0.5179 -2.2050  0.2803
  255MOL0     H35148  10.603   3.568   5.956  0.4299 -3.0336 -1.0633
  255MOL0     H35149  10.671   3.386   5.646 -1.4901  0.6533  0.4765
  255MOL0     H35150  10.648   3.550   5.589  2.1559  1.2654  1.4456
  255MOL0     H35151  10.540   3.486   5.715 -0.3978  1.2948 -0.6411
  255MOL0     H35152  11.271   3.586   5.548 -2.2594  1.5550  0.5591
  255MOL0     H35153  11.411   3.541   5.332 -1.9217  2.4931 -1.5938
  255MOL0     H35154  11.273   3.247   5.102 -2.0474  1.1695  1.1854
  255MOL0     H35155  11.220   3.365   4.980 -0.6700  0.3097  0.8018
  255MOL0     H35156  11.477   3.210   5.018 -2.5585 -0.2823  0.3713
  255MOL0     H35157  11.379   3.220   4.883  0.7563 -2.2602  2.0647
  255MOL0     H35158  11.593   3.417   4.955 -1.4436  1.0748  0.5462
  255MOL0     H35159  11.464   3.461   4.850 -2.2023 -1.1645  0.5330
  255MOL0     H35160  11.518   3.298   4.693 -3.0716 -0.1082  1.8473
  255MOL0     H35161  11.591   3.180   4.802  0.2368 -0.0890  0.4918
  255MOL0     H35162  11.717   3.440   4.692  1.1811 -0.0670 -1.0052
  255MOL0     H35163  11.780   3.357   4.839 -1.9502 -1.1937  0.5952
  255MOL0     H35164  11.779   3.233   4.565  0.8848 -0.8371 -0.7888
  255MOL0     H35165  11.804   3.136   4.711  0.8208 -0.3031  1.2634
  255MOL0     H35166  12.016   3.171   4.688  1.1691  0.2507 -1.3184
  255MOL0     H35167  11.990   3.346   4.735  2.2410  1.7303 -1.9783
  255MOL0     H35168  11.959   3.404   4.506  0.4910  0.1588 -1.9678
  255MOL0     H35169  12.023   3.238   4.459 -0.0216 -1.3395  1.6414
  255MOL0     H35170  11.069   3.358   5.171 -0.8764 -0.2768  1.3310
  255MOL0     H35171  10.953   3.382   5.376 -0.4312  2.4605  2.9945
  255MOL0     H35172  11.069   3.617   5.819 -0.0244  1.2814  0.9951
  255MOL0     H35173  10.994   3.666   6.045  0.6343  1.8300 -1.2563
  255MOL0     H35174   9.557   3.808   7.062 -0.1754  1.7014 -0.0338
  255MOL0     H35175   9.392   3.697   6.895 -0.0174  1.8948  0.7730
  255MOL0     H35176   9.164   3.691   6.557  0.4946 -1.4035  3.7044
  255MOL0     H35177   9.003   3.608   6.427 -1.1969 -0.7846  5.1881
  255MOL0     H35178   8.869   3.404   6.405  2.5340  4.4837  0.8876
  255MOL0     H35179   8.842   3.472   6.241 -0.3183 -0.7944 -1.9002
  255MOL0     H35180   8.861   3.174   6.290 -0.1228 -1.2379 -0.2410
  255MOL0     H35181   8.812   3.267   6.145  0.3622 -0.4364  0.0592
  255MOL0     H35182   8.664   3.281   6.405 -0.6545  0.0555  0.0373
  255MOL0     H35183   8.620   3.368   6.256  0.5743  0.5716 -0.8200
  255MOL0     H35184   8.610   3.067   6.305  1.8671  0.3064  0.5011
  255MOL0     H35185   8.567   3.144   6.139  0.1731 -1.1758 -0.8077
  255MOL0     H35186   8.244   3.136   6.414 -2.2990  0.5260 -1.5612
  255MOL0     H35187   9.239   3.268   6.297 -3.9239 -0.5946  0.7510
  255MOL0     H35188   9.460   3.252   6.336 -2.1414  1.4340 -2.7012
  255MOL0     H35189   9.538   3.408   6.342 -1.2814  1.1292  0.4192
  255MOL0     H35190   9.504   3.310   6.500 -1.7239 -0.5109  0.2616
  256MOL0     O35191   4.929   2.727   2.197  0.0046 -0.3260 -0.5387
  256MOL0     C35192   4.878   2.707   2.089 -0.3248  0.8922 -0.1717
  256MOL0     O35193   4.934   2.630   1.993 -0.1049 -0.1906  0.5243
  256MOL0     C35194   5.073   2.634   1.957 -0.6228 -0.2523 -0.9221
  256MOL0     C35195   5.159   2.741   1.988 -0.3894  0.2746 -0.5089
  256MOL0     C35196   5.294   2.736   1.951 -0.9459  0.8397  0.3685
  256MOL0     C35197   5.345   2.623   1.880 -0.2504  0.6464  0.0402
  256MOL0     O35198   5.471   2.614   1.833  0.3052  0.5121  0.3110
  256MOL0     C35199   5.590   2.673   1.890 -0.5976 -0.4716  0.3670
  256MOL0     C35200   5.724   2.614   1.830  0.6476  0.1698  0.1413
  256MOL0     C35201   5.757   2.477   1.879  0.2344  0.4168 -0.1167
  256MOL0     C35202   5.669   2.359   1.835 -0.1832 -0.4567  0.9320
  256MOL0     C35203   5.572   2.317   1.947  0.1916 -0.4289  0.8491
  256MOL0     C35204   5.493   2.201   1.901 -0.4418  0.3469  0.7266
  256MOL0     C35205   5.381   2.150   1.988 -0.2610 -0.3157 -0.3601
  256MOL0     C35206   5.330   2.006   1.948 -0.7990 -0.4268 -0.3569
  256MOL0     N35207   5.224   1.960   2.044  0.4667  0.4376  0.3871
  256MOL0     C35208   5.255   1.926   2.174  1.0183  0.6568 -0.3604
  256MOL0     C35209   5.144   1.870   2.231  0.6864 -0.4395  0.3563
  256MOL0     C35210   5.131   1.780   2.352 -0.2726 -0.1522 -0.2888
  256MOL0     C35211   5.086   1.851   2.477 -0.6733  0.8430  0.7237
  256MOL0     C35212   5.186   1.968   2.512 -0.1848  0.7885 -1.2358
  256MOL0     C35213   5.157   2.013   2.646  0.4316  0.6245 -0.2991
  256MOL0     O35214   5.019   2.026   2.670 -0.2179  0.1702 -0.3843
  256MOL0     C35215   4.965   2.051   2.795  0.2072 -0.5080  0.1738
  256MOL0     C35216   5.042   2.068   2.907  0.8465  0.5280  0.0611
  256MOL0     C35217   4.986   2.103   3.025  0.5752 -0.0878 -0.2332
  256MOL0     C35218   5.084   2.111   3.146 -0.1834 -0.3935 -0.3807
  256MOL0     C35219   4.841   2.115   3.046 -0.9128  0.4596 -0.4409
  256MOL0     C35220   4.769   2.166   3.166  0.6927 -0.0641  0.0385
  256MOL0     O35221   4.650   2.228   3.142  0.6990 -0.4812 -0.3767
  256MOL0     C35222   4.567   2.258   3.246  0.4566 -0.2853 -0.5029
  256MOL0     C35223   4.527   2.162   3.343  0.9111  0.3603 -0.6034
  256MOL0     C35224   4.450   2.205   3.451  0.4959  0.3224  0.4923
  256MOL0     C35225   4.401   2.337   3.447  0.4482 -0.7566 -0.0415
  256MOL0     O35226   4.313   2.389   3.537  0.3206 -0.5283 -0.3024
  256MOL0     C35227   4.338   2.357   3.682 -0.0633  0.1452 -0.2005
  256MOL0     C35228   4.244   2.441   3.772 -0.0110 -0.6524  0.7299
  256MOL0     C35229   4.291   2.579   3.795  0.1877 -0.3349  0.5041
  256MOL0     C35230   4.190   2.659   3.883 -0.1429 -0.3662 -0.4340
  256MOL0     C35231   4.146   2.783   3.802  0.1143  0.3477  0.0008
  256MOL0     C35232   4.092   2.894   3.883  0.1825  0.3021  0.1279
  256MOL0     C35233   4.059   3.016   3.788  0.0477 -0.0150 -0.8745
  256MOL0     C35234   3.922   3.018   3.719 -0.7461 -0.1670  0.5872
  256MOL0    Cl35235   3.949   3.022   3.553 -0.1561 -0.7575 -0.2833
  256MOL0     C35236   4.435   2.432   3.344  0.2904 -0.4901 -0.3088
  256MOL0     C35237   4.521   2.383   3.246  0.4916 -0.1419 -1.1930
  256MOL0     O35238   4.817   2.158   3.277 -0.0884  0.5434  0.5485
  256MOL0     C35239   4.776   2.087   2.930  0.6119  1.1869  1.4820
  256MOL0     C35240   4.831   2.062   2.802 -0.9181 -0.5027 -0.8114
  256MOL0     N35241   5.048   1.873   2.129  0.2056  0.3915 -0.4875
  256MOL0     N35242   5.094   1.930   2.026 -0.0751 -0.8883  0.2769
  256MOL0     C35243   5.267   2.513   1.867  1.0859  0.0699  0.0886
  256MOL0     C35244   5.130   2.520   1.902  0.0288  0.8047  0.2221
  256MOL0     C35245   4.731   2.727   2.060 -0.0161 -0.6907 -0.2043
  256MOL0     C35246   4.675   2.680   1.939 -0.4551 -0.5998  0.2062
  256MOL0     C35247   4.541   2.719   1.903 -0.3148  0.6348  0.3793
  256MOL0     C35248   4.465   2.792   1.988  0.7022  0.3532 -0.6354
  256MOL0     O35249   4.325   2.813   1.958  0.1048 -0.1408  0.2989
  256MOL0     C35250   4.309   2.892   1.840  0.0230  0.6497  0.3303
  256MOL0     C35251   4.172   2.965   1.838  0.0342  0.1203  0.2998
  256MOL0     C35252   4.050   2.880   1.796  0.7130 -0.1866 -0.5773
  256MOL0     C35253   3.945   2.983   1.747  0.3399 -0.0737 -0.7003
  256MOL0     C35254   3.824   2.927   1.675  0.5198 -0.9435  0.5000
  256MOL0     C35255   3.717   2.885   1.630  0.8681 -0.7819  0.0402
  256MOL0     C35256   4.505   2.817   2.113 -1.1576 -1.0743 -0.1563
  256MOL0     C35257   4.643   2.795   2.152  0.2058  0.0526 -0.5621
  256MOL0     C35258   4.667   2.834   2.298  0.1239 -0.0632 -0.5695
  256MOL0     H35259   5.131   2.830   2.043  0.1625 -0.0084  0.2365
  256MOL0     H35260   5.368   2.810   1.979  0.5963 -0.4873 -0.0738
  256MOL0     H35261   5.585   2.643   1.995  0.5863 -1.3719  0.1986
  256MOL0     H35262   5.596   2.782   1.882 -0.2074 -0.5402 -0.3692
  256MOL0     H35263   5.722   2.605   1.721  0.6089 -2.9592  0.3170
  256MOL0     H35264   5.799   2.685   1.867  0.2402  0.0387  1.2741
  256MOL0     H35265   5.863   2.463   1.855 -0.1225 -0.6822 -1.2102
  256MOL0     H35266   5.762   2.481   1.988 -1.4281  0.3661 -0.0191
  256MOL0     H35267   5.615   2.391   1.745  2.2152  0.6461 -0.2190
  256MOL0     H35268   5.734   2.271   1.829  2.4463  1.3005  1.6502
  256MOL0     H35269   5.511   2.406   1.965 -3.2082 -1.3291 -4.1701
  256MOL0     H35270   5.634   2.287   2.033 -0.4593  3.6469  2.9416
  256MOL0     H35271   5.447   2.214   1.802 -0.4130 -0.0978  0.6534
  256MOL0     H35272   5.569   2.125   1.882 -2.0751 -1.8021  2.3194
  256MOL0     H35273   5.307   2.230   1.981  2.0589  2.2816  1.9541
  256MOL0     H35274   5.415   2.151   2.092 -0.5635  0.6428 -0.2606
  256MOL0     H35275   5.292   2.010   1.845 -0.4849 -0.3763 -0.4709
  256MOL0     H35276   5.406   1.928   1.965  0.4077  1.0206  1.1782
  256MOL0     H35277   5.346   1.955   2.227 -0.0116  0.3862  1.6695
  256MOL0     H35278   5.226   1.732   2.376  0.7149  0.2450 -3.0567
  256MOL0     H35279   5.058   1.700   2.336 -2.2316  1.3217  0.7780
  256MOL0     H35280   4.992   1.899   2.451 -0.2054  1.8749  0.8566
  256MOL0     H35281   5.058   1.780   2.555  0.3679  0.3173  0.6412
  256MOL0     H35282   5.289   1.931   2.515 -0.9502 -1.5122  2.3237
  256MOL0     H35283   5.181   2.052   2.442  1.1383  0.7163 -1.4409
  256MOL0     H35284   5.206   1.939   2.711 -2.8503 -0.8910  0.6395
  256MOL0     H35285   5.210   2.109   2.650  0.4855  0.6582 -1.5448
  256MOL0     H35286   5.150   2.067   2.894  0.8061  0.3423 -0.2671
  256MOL0     H35287   5.184   2.075   3.117  0.8396  2.2539 -0.3518
  256MOL0     H35288   5.038   2.050   3.224 -0.1527 -2.1064 -1.6338
  256MOL0     H35289   5.098   2.212   3.184  4.2992 -1.7632  2.3425
  256MOL0     H35290   4.560   2.059   3.348  0.1982  0.1777  0.7063
  256MOL0     H35291   4.428   2.128   3.523 -0.9974 -1.3735 -1.6650
  256MOL0     H35292   4.330   2.251   3.709 -0.9848  0.3327  0.2782
  256MOL0     H35293   4.437   2.398   3.704 -0.9154  0.8211  2.8307
  256MOL0     H35294   4.142   2.431   3.734 -0.1369 -2.7413  1.5023
  256MOL0     H35295   4.250   2.406   3.875  1.3582  1.8123  1.5533
  256MOL0     H35296   4.300   2.619   3.694  0.4527 -0.1550  0.5982
  256MOL0     H35297   4.397   2.579   3.823 -0.0824 -0.3041  1.5807
  256MOL0     H35298   4.242   2.698   3.972  0.0408  1.5670 -1.3381
  256MOL0     H35299   4.097   2.611   3.913 -0.6161  1.4452  1.1307
  256MOL0     H35300   4.226   2.820   3.738  0.1971 -0.6173 -0.4667
  256MOL0     H35301   4.069   2.752   3.730 -0.8763 -1.2654  1.6550
  256MOL0     H35302   4.179   2.923   3.943 -0.1980  1.7683  0.0162
  256MOL0     H35303   4.016   2.874   3.959  2.0122 -0.7672  1.7661
  256MOL0     H35304   4.144   3.036   3.723  1.9153  1.1759  1.7305
  256MOL0     H35305   4.059   3.092   3.867  2.4559 -0.0763 -0.7423
  256MOL0     H35306   3.864   3.108   3.743  0.2992  0.8566 -0.5740
  256MOL0     H35307   3.860   2.931   3.740 -1.6645  0.2148 -0.4140
  256MOL0     H35308   4.400   2.535   3.347 -2.6151 -1.4063  1.2443
  256MOL0     H35309   4.538   2.452   3.165 -1.8926  0.8992 -0.8708
  256MOL0     H35310   4.668   2.101   2.933  0.4697  0.0398  2.3436
  256MOL0     H35311   4.766   2.065   2.715 -0.7797 -0.2898 -0.9095
  256MOL0     H35312   5.302   2.431   1.807 -0.7143 -0.5331 -0.2136
  256MOL0     H35313   5.077   2.425   1.905  3.4974 -1.2858  0.1162
  256MOL0     H35314   4.728   2.610   1.875 -0.4588  0.6253 -1.2172
  256MOL0     H35315   4.495   2.680   1.812 -1.1516 -0.2864  1.1676
  256MOL0     H35316   4.394   2.959   1.822  2.5057 -2.5564 -0.8686
  256MOL0     H35317   4.319   2.822   1.756  2.1053 -2.1723  2.6999
  256MOL0     H35318   4.180   3.047   1.765 -3.2237  0.1800 -0.1245
  256MOL0     H35319   4.154   3.006   1.938 -1.2642 -3.1381  1.5158
  256MOL0     H35320   4.083   2.821   1.710  1.1447  0.8055 -1.1121
  256MOL0     H35321   4.016   2.815   1.877  2.4910 -1.4314 -0.7747
  256MOL0     H35322   3.991   3.060   1.685 -0.0373  2.6497  2.1443
  256MOL0     H35323   3.903   3.036   1.833 -0.3036 -0.9137 -0.4838
  256MOL0     H35324   3.620   2.862   1.591  1.2068 -0.1438 -1.2711
  256MOL0     H35325   4.425   2.854   2.175 -0.4597  2.9076 -1.3476
  256MOL0     H35326   4.578   2.806   2.356  2.4578  0.0013  3.4353
  256MOL0     H35327   4.756   2.790   2.344  0.7146  0.7007 -0.9688
  256MOL0     H35328   4.676   2.943   2.302 -0.9333  0.0164  0.0340
  257MOL0     O35329   9.233   8.979   2.014  0.0811 -0.0342 -0.1445
  257MOL0     C35330   9.237   9.093   1.974  0.1590  1.0903  0.6948
  257MOL0     O35331   9.299   9.131   1.859 -0.1775  0.1047 -0.5251
  257MOL0     C35332   9.406   9.071   1.800 -0.0604  0.0045 -0.3890
  257MOL0     C35333   9.508   9.001   1.871 -0.0361 -0.2478  0.5333
  257MOL0     C35334   9.627   8.967   1.806 -0.2863  0.1477  1.0799
  257MOL0     C35335   9.640   9.000   1.668  0.5221  0.1727 -0.6878
  257MOL0     O35336   9.754   8.983   1.600 -1.0386 -0.7533  0.0164
  257MOL0     C35337   9.881   8.994   1.674  0.0582 -0.1352 -0.1831
  257MOL0     C35338   9.987   9.037   1.573 -0.1611 -1.1144 -0.3777
  257MOL0     C35339  10.128   9.003   1.616 -0.5739  0.5522 -0.3067
  257MOL0     C35340  10.212   8.975   1.491 -0.5903  0.6663  0.8486
  257MOL0     C35341  10.356   8.927   1.523  1.0719 -0.0725 -0.3097
  257MOL0     C35342  10.441   8.926   1.407  0.5647  0.0891  0.7720
  257MOL0     C35343  10.576   8.854   1.424  0.5967  0.1676 -0.2056
  257MOL0     C35344  10.666   8.869   1.295 -0.2836  0.5493 -0.6079
  257MOL0     N35345  10.812   8.835   1.318 -0.1908  0.0337 -0.4655
  257MOL0     C35346  10.872   8.717   1.308 -0.0285  0.2497  0.3455
  257MOL0     C35347  11.003   8.736   1.340 -0.1984  1.1011  0.7543
  257MOL0     C35348  11.103   8.622   1.341  0.2827  1.4103  0.3524
  257MOL0     C35349  11.066   8.511   1.439  0.2147  0.5318  0.0397
  257MOL0     C35350  11.188   8.420   1.464  0.0870  0.0304  0.3229
  257MOL0     C35351  11.219   8.320   1.350  0.9214 -0.1078 -0.7862
  257MOL0     O35352  11.311   8.224   1.397  0.0019 -1.0455  0.2584
  257MOL0     C35353  11.397   8.182   1.301  0.1038  0.2401  0.5504
  257MOL0     C35354  11.360   8.134   1.171 -0.1919  0.0478 -0.2841
  257MOL0     C35355  11.454   8.104   1.070 -0.7048  0.7080  0.6298
  257MOL0     C35356  11.395   8.090   0.929 -0.0418  0.5346  0.6918
  257MOL0     C35357  11.592   8.121   1.107 -0.0680  0.6809  0.7125
  257MOL0     C35358  11.703   8.102   1.012  0.2720 -0.2290  0.0339
  257MOL0     O35359  11.831   8.125   1.055 -0.3438 -0.2593 -0.1916
  257MOL0     C35360  11.937   8.101   0.972  0.5174 -0.5648 -0.5387
  257MOL0     C35361  11.992   7.978   0.952  0.4373  0.4388  0.2985
  257MOL0     C35362  12.087   7.964   0.855  0.9245  0.6152 -0.0177
  257MOL0     C35363  12.132   8.064   0.768 -0.7869  0.5286 -0.3669
  257MOL0     O35364  12.225   8.036   0.669 -0.1173  0.9647 -0.0067
  257MOL0     C35365  12.258   8.122   0.562 -0.4221  0.1412 -0.8534
  257MOL0     C35366  12.379   8.070   0.470  0.0596  0.4329 -0.4449
  257MOL0     C35367  12.342   7.964   0.374  0.6512 -0.4160 -0.5358
  257MOL0     C35368  12.301   7.833   0.429 -0.1351 -0.5282 -0.6749
  257MOL0     C35369  12.250   7.733   0.327  0.3254 -0.2544  0.2268
  257MOL0     C35370  12.239   7.596   0.397  0.9300 -0.2112  0.3567
  257MOL0     C35371  12.181   7.498   0.299  0.1480  0.0197  0.3737
  257MOL0     C35372  12.189   7.354   0.354  0.3796  0.5911 -1.6428
  257MOL0    Cl35373  12.093   7.323   0.505  0.0859 -0.1710  0.5465
  257MOL0     C35374  12.063   8.180   0.783  0.0692 -0.4146  0.6462
  257MOL0     C35375  11.973   8.207   0.886 -0.4193 -0.3147 -0.1881
  257MOL0     O35376  11.673   8.069   0.899 -0.2739  0.2293 -0.3037
  257MOL0     C35377  11.628   8.155   1.237 -0.2130 -0.8327 -0.7420
  257MOL0     C35378  11.531   8.179   1.335  0.5302  0.1347  0.5056
  257MOL0     N35379  11.022   8.874   1.361 -0.2261 -0.5055 -0.5680
  257MOL0     N35380  10.911   8.925   1.351 -0.1525 -0.0847 -0.0137
  257MOL0     C35381   9.544   9.068   1.599  2.0075  0.5010  0.8156
  257MOL0     C35382   9.423   9.098   1.666 -0.2454  0.3390 -0.6183
  257MOL0     C35383   9.142   9.187   2.039 -0.1109  0.3509 -0.0188
  257MOL0     C35384   9.188   9.312   2.083  0.2698  0.6125  0.1502
  257MOL0     C35385   9.101   9.402   2.142 -0.9603  0.6282  0.3196
  257MOL0     C35386   8.974   9.359   2.176  0.5350  0.1234  0.8296
  257MOL0     O35387   8.876   9.447   2.224 -0.1344 -0.0329 -0.1912
  257MOL0     C35388   8.922   9.545   2.327 -0.6430  0.1617  0.6708
  257MOL0     C35389   8.973   9.473   2.459  0.5726 -0.2108  1.0211
  257MOL0     C35390   8.868   9.391   2.523  0.3935 -0.2352 -0.7166
  257MOL0     C35391   8.914   9.329   2.659  0.0099 -0.7278 -0.5685
  257MOL0     C35392   8.853   9.397   2.772 -0.1520  0.7579  0.0436
  257MOL0     C35393   8.798   9.456   2.862  0.1537 -0.1879  0.0049
  257MOL0     C35394   8.931   9.233   2.147 -0.3545  0.4938 -0.2937
  257MOL0     C35395   9.012   9.142   2.076  0.5571 -0.1503 -0.1337
  257MOL0     C35396   8.964   9.009   2.039 -0.0250  0.3592  0.6466
  257MOL0     H35397   9.480   8.969   1.971 -1.7865 -0.5421 -0.0139
  257MOL0     H35398   9.693   8.913   1.873 -0.7750  1.4717  2.7119
  257MOL0     H35399   9.909   8.894   1.709 -1.8025 -1.1348 -1.3459
  257MOL0     H35400   9.886   9.063   1.758  1.4431 -3.1882  2.4777
  257MOL0     H35401   9.960   8.983   1.482 -0.4216 -0.4943 -0.6751
  257MOL0     H35402   9.984   9.145   1.553 -1.3959 -1.2329 -0.9089
  257MOL0     H35403  10.172   9.088   1.669 -0.7562  0.3426  0.1894
  257MOL0     H35404  10.125   8.919   1.686 -1.7200 -0.6604 -1.7288
  257MOL0     H35405  10.157   8.904   1.429 -2.7565  0.8369  2.4364
  257MOL0     H35406  10.206   9.069   1.437 -1.4789 -0.4778 -1.1432
  257MOL0     H35407  10.346   8.831   1.574 -2.9971  1.1941  1.7282
  257MOL0     H35408  10.407   8.991   1.596 -2.7673  0.8628  1.8313
  257MOL0     H35409  10.375   8.884   1.331  1.2951  1.2514 -0.5484
  257MOL0     H35410  10.457   9.029   1.375 -0.9705 -0.3358 -1.5904
  257MOL0     H35411  10.552   8.748   1.438  0.2069  0.6584  4.1293
  257MOL0     H35412  10.625   8.884   1.517  0.5577  0.4473 -0.2737
  257MOL0     H35413  10.616   8.808   1.218  1.2904  0.9320 -1.9947
  257MOL0     H35414  10.667   8.973   1.262 -0.6402  0.8011  0.1596
  257MOL0     H35415  10.816   8.631   1.274  1.7287 -0.7680 -0.1478
  257MOL0     H35416  11.199   8.668   1.364  1.2660 -0.4243  0.1765
  257MOL0     H35417  11.104   8.583   1.239  1.2313 -3.1128  1.8523
  257MOL0     H35418  11.039   8.550   1.538  0.9635 -2.5761  1.5863
  257MOL0     H35419  10.975   8.464   1.399  0.0086  1.3408 -0.4712
  257MOL0     H35420  11.272   8.486   1.485 -0.8359  0.7620  1.9085
  257MOL0     H35421  11.172   8.350   1.546 -2.4678 -0.5384 -0.5343
  257MOL0     H35422  11.125   8.273   1.319 -0.5589  0.5065  2.3319
  257MOL0     H35423  11.259   8.377   1.266  0.3609 -0.2982 -1.1906
  257MOL0     H35424  11.253   8.117   1.157 -0.2400 -0.4889  0.6284
  257MOL0     H35425  11.291   8.123   0.936  0.2998  2.4985 -2.0315
  257MOL0     H35426  11.409   7.990   0.887 -0.3642  2.2223 -4.0314
  257MOL0     H35427  11.437   8.164   0.860 -1.8891  0.1886 -0.8832
  257MOL0     H35428  11.966   7.894   1.015 -0.5583 -0.9887 -1.8603
  257MOL0     H35429  12.140   7.869   0.858  0.4829  0.3985  1.1792
  257MOL0     H35430  12.167   8.145   0.505 -0.4339 -0.1366 -0.9479
  257MOL0     H35431  12.300   8.205   0.620 -3.3267 -0.1425  1.9739
  257MOL0     H35432  12.396   8.155   0.403 -0.1650  0.6880 -0.1800
  257MOL0     H35433  12.462   8.041   0.535 -1.2633 -0.0454  1.0792
  257MOL0     H35434  12.421   7.952   0.299  0.3154  0.6480 -1.0752
  257MOL0     H35435  12.258   7.996   0.312 -1.8191  1.5550  3.4571
  257MOL0     H35436  12.227   7.842   0.509  1.1016 -1.9817  0.7149
  257MOL0     H35437  12.395   7.796   0.472 -0.0998 -0.1170 -0.3899
  257MOL0     H35438  12.158   7.763   0.275  1.0001  1.1731 -0.2116
  257MOL0     H35439  12.327   7.739   0.249  0.7325  5.1227  0.6230
  257MOL0     H35440  12.167   7.598   0.480 -2.7110 -2.3378 -2.4670
  257MOL0     H35441  12.332   7.571   0.447  0.3324 -1.3453  0.9508
  257MOL0     H35442  12.225   7.500   0.199  3.7763  0.9294  1.8281
  257MOL0     H35443  12.074   7.516   0.289 -0.9748 -5.1009  0.0172
  257MOL0     H35444  12.293   7.325   0.368  0.1693  0.0930 -1.0977
  257MOL0     H35445  12.142   7.289   0.279  0.0559  1.7762 -2.5050
  257MOL0     H35446  12.074   8.265   0.717  0.0418 -0.2183  0.8911
  257MOL0     H35447  11.932   8.308   0.891 -1.6615 -0.7954 -0.5143
  257MOL0     H35448  11.730   8.173   1.271 -1.0977  2.2477  0.6751
  257MOL0     H35449  11.554   8.206   1.437  1.4375 -2.5910  1.1080
  257MOL0     H35450   9.553   9.087   1.492 -0.5038  1.2349  0.6767
  257MOL0     H35451   9.348   9.151   1.608 -0.3693  2.4272  1.2727
  257MOL0     H35452   9.286   9.348   2.055  0.2232  0.4684 -0.1998
  257MOL0     H35453   9.132   9.501   2.174 -1.6417  0.2457  2.2698
  257MOL0     H35454   9.000   9.612   2.290 -2.0488  0.5438 -1.7768
  257MOL0     H35455   8.835   9.609   2.344 -1.4266 -0.8080  0.4128
  257MOL0     H35456   9.016   9.540   2.533  1.5044 -0.2395  0.5201
  257MOL0     H35457   9.054   9.403   2.434 -1.1085 -2.5214  1.6395
  257MOL0     H35458   8.781   9.458   2.526  1.6959  1.6025 -2.1471
  257MOL0     H35459   8.839   9.312   2.453 -0.6906  0.8980 -1.6012
  257MOL0     H35460   9.022   9.336   2.675  0.1648 -1.4680 -1.2228
  257MOL0     H35461   8.872   9.228   2.670  0.1235 -0.9225 -1.7319
  257MOL0     H35462   8.737   9.495   2.941  0.4939  0.9867 -0.2879
  257MOL0     H35463   8.832   9.218   2.189  0.0650 -0.7782  0.3222
  257MOL0     H35464   9.003   8.988   1.939  0.1127  1.2620  0.4981
  257MOL0     H35465   9.008   8.930   2.099  0.5382  0.1764  0.0090
  257MOL0     H35466   8.855   8.998   2.032 -0.0772  0.4140  1.3071
  258MOL0     O35467   4.402   0.128  10.010  0.0937 -0.2772 -0.9212
  258MOL0     C35468   4.372   0.109  10.131  0.1474  0.3309  0.6281
  258MOL0     O35469   4.245   0.128  10.189  0.8227 -0.0283  0.5739
  258MOL0     C35470   4.129   0.127  10.106 -0.2823  0.7885 -0.2445
  258MOL0     C35471   4.023   0.213  10.152 -0.7521  1.3796  0.9383
  258MOL0     C35472   3.909   0.233  10.076 -0.1903  0.0874  0.1907
  258MOL0     C35473   3.887   0.154   9.963 -0.4083 -0.0851 -0.5790
  258MOL0     O35474   3.773   0.171   9.887 -0.5356  0.2714  0.3576
  258MOL0     C35475   3.642   0.177   9.935  0.0426  0.2324  0.0451
  258MOL0     C35476   3.567   0.245   9.811 -0.5244 -0.4661 -0.1510
  258MOL0     C35477   3.428   0.277   9.842  0.3122 -1.0371  0.5407
  258MOL0     C35478   3.354   0.317   9.715 -0.5109  0.0322  0.3311
  258MOL0     C35479   3.198   0.319   9.736  0.3151 -0.1648  0.0859
  258MOL0     C35480   3.124   0.397   9.637 -0.1138  0.4416 -0.4002
  258MOL0     C35481   2.977   0.397   9.647 -0.1440  0.0375  0.3654
  258MOL0     C35482   2.918   0.532   9.600 -0.0941 -0.4935 -0.3892
  258MOL0     N35483   2.937   0.640   9.701 -0.2699  0.3580 -0.2810
  258MOL0     C35484   2.880   0.659   9.822  0.3490 -0.7228 -1.1355
  258MOL0     C35485   2.919   0.783   9.865  0.7761 -0.2816 -0.2812
  258MOL0     C35486   2.871   0.856   9.995  0.6006 -0.4257 -0.7717
  258MOL0     C35487   2.984   0.861  10.106  0.0182  0.0577 -0.4783
  258MOL0     C35488   2.922   0.936  10.225 -0.7276 -0.5973  1.1406
  258MOL0     C35489   3.013   0.941  10.345 -0.3979  1.2504 -0.2806
  258MOL0     O35490   3.051   0.808  10.385 -0.1638 -0.1990 -0.1785
  258MOL0     C35491   3.158   0.793  10.468 -0.4322 -0.0709  0.8366
  258MOL0     C35492   3.274   0.779  10.406 -0.4461 -0.3264 -0.2181
  258MOL0     C35493   3.396   0.767  10.483  0.3489  0.8915 -0.0814
  258MOL0     C35494   3.518   0.747  10.398 -0.2340 -0.2647 -0.1304
  258MOL0     C35495   3.389   0.776  10.629 -0.4414 -0.4356 -0.5613
  258MOL0     C35496   3.505   0.788  10.719 -0.6524 -0.0794 -0.2450
  258MOL0     O35497   3.628   0.820  10.667 -0.4215  0.3469  0.6840
  258MOL0     C35498   3.741   0.828  10.744 -0.0791  0.2967 -0.5451
  258MOL0     C35499   3.748   0.876  10.877 -0.0797 -1.0340  0.9437
  258MOL0     C35500   3.869   0.879  10.949  1.0159  0.2611 -0.0050
  258MOL0     C35501   3.984   0.831  10.891  0.7517  0.6134 -0.2979
  258MOL0     O35502   4.102   0.854  10.958  1.0796 -0.2218 -0.4709
  258MOL0     C35503   4.230   0.807  10.905  0.2719 -0.3397  0.3966
  258MOL0     C35504   4.325   0.801  11.015 -0.3319 -0.1947  0.3790
  258MOL0     C35505   4.349   0.947  11.058 -0.7044 -0.3008  0.7180
  258MOL0     C35506   4.469   0.969  11.140 -0.5930  0.5304  0.3060
  258MOL0     C35507   4.468   1.086  11.233 -0.2028  0.2934 -0.0760
  258MOL0     C35508   4.605   1.094  11.300  0.5193 -0.2056 -0.1152
  258MOL0     C35509   4.645   1.244  11.312  0.0537 -0.0947  1.6715
  258MOL0     C35510   4.555   1.334  11.411  0.6039  0.1540 -0.0158
  258MOL0    Cl35511   4.645   1.453  11.506 -0.2814  0.0723 -0.0692
  258MOL0     C35512   3.976   0.773  10.759 -0.0325  0.5005  0.4955
  258MOL0     C35513   3.862   0.770  10.692 -0.1585  0.6416 -0.0057
  258MOL0     O35514   3.492   0.761  10.836 -0.0673 -0.1542  0.5331
  258MOL0     C35515   3.255   0.779  10.681 -1.1655 -0.6697 -0.2669
  258MOL0     C35516   3.147   0.791  10.602 -0.0023  0.4619 -0.0627
  258MOL0     N35517   3.007   0.830   9.770  1.0579  0.0439  0.3558
  258MOL0     N35518   3.019   0.742   9.679 -0.5857  0.2978  0.0504
  258MOL0     C35519   3.988   0.065   9.918  0.6132  0.4139 -0.6601
  258MOL0     C35520   4.107   0.046   9.989 -0.0122  0.9661  0.1719
  258MOL0     C35521   4.487   0.073  10.226 -0.2082  0.2662  0.7028
  258MOL0     C35522   4.453   0.088  10.360  0.0296  0.5322  0.1709
  258MOL0     C35523   4.537   0.038  10.467  0.3610 -0.4431  0.1899
  258MOL0     C35524   4.655  -0.023  10.436 -0.8198  0.8203  0.4956
  258MOL0     O35525   4.739  -0.043  10.545  0.0375  0.3535 -0.0595
  258MOL0     C35526   4.878  -0.080  10.520  0.5850  0.4502  0.7204
  258MOL0     C35527   4.966  -0.065  10.646 -0.1827 -0.1908  0.2560
  258MOL0     C35528   5.085  -0.161  10.665  0.5764 -0.1833 -0.1208
  258MOL0     C35529   5.211  -0.126  10.577  0.0995 -0.3443 -0.5263
  258MOL0     C35530   5.340  -0.147  10.648 -0.0214  0.1289 -0.6577
  258MOL0     C35531   5.447  -0.153  10.713  0.6926 -0.7675  0.2918
  258MOL0     C35532   4.689  -0.034  10.298  0.5866  0.7321  0.5187
  258MOL0     C35533   4.610   0.010  10.195 -0.0024 -0.3032 -0.2998
  258MOL0     C35534   4.646  -0.032  10.063 -0.1198  0.0243 -0.4176
  258MOL0     H35535   4.038   0.263  10.247  0.8955  0.3682  1.2499
  258MOL0     H35536   3.826   0.293  10.111  0.2002  0.7010  0.0738
  258MOL0     H35537   3.633   0.241  10.023  0.1577 -0.4111  0.5317
  258MOL0     H35538   3.597   0.083   9.968  0.3327  0.2711  0.5528
  258MOL0     H35539   3.630   0.329   9.781  0.7045 -1.2150  0.2507
  258MOL0     H35540   3.563   0.174   9.728 -3.1241  1.7325 -2.0829
  258MOL0     H35541   3.378   0.191   9.886  0.2732 -1.5656 -0.4979
  258MOL0     H35542   3.427   0.358   9.916 -0.7214  2.3019 -2.7560
  258MOL0     H35543   3.401   0.407   9.676 -0.2749 -0.3230 -0.2225
  258MOL0     H35544   3.369   0.242   9.637  1.1671 -0.0665  0.7102
  258MOL0     H35545   3.168   0.369   9.829 -2.8800 -0.2816 -0.7682
  258MOL0     H35546   3.153   0.219   9.737 -3.1958  1.2590 -0.4936
  258MOL0     H35547   3.145   0.504   9.643 -1.4139  0.6941 -0.1312
  258MOL0     H35548   3.144   0.371   9.532 -2.2309  0.9515 -0.9936
  258MOL0     H35549   2.946   0.384   9.751  1.1842 -2.1066  0.5628
  258MOL0     H35550   2.929   0.315   9.593  0.5258 -1.0978  1.4370
  258MOL0     H35551   2.969   0.559   9.507  2.9474  0.2600  1.3716
  258MOL0     H35552   2.813   0.513   9.576 -0.4164  2.1820 -1.4800
  258MOL0     H35553   2.807   0.584   9.853  1.7537 -2.3152 -1.5486
  258MOL0     H35554   2.783   0.809  10.042  0.2739 -0.1745 -1.1256
  258MOL0     H35555   2.845   0.958   9.963  2.0984  1.3976  3.1855
  258MOL0     H35556   3.000   0.756  10.134  0.2801  0.2486  0.0977
  258MOL0     H35557   3.080   0.902  10.073 -0.0858  1.4161  0.8125
  258MOL0     H35558   2.901   1.041  10.206 -0.0842 -0.3306  1.8586
  258MOL0     H35559   2.829   0.882  10.247 -0.3898 -1.7980 -0.2091
  258MOL0     H35560   3.105   0.988  10.311 -0.3047  1.8758  0.7660
  258MOL0     H35561   2.962   0.996  10.425  0.2659 -1.0587  1.8574
  258MOL0     H35562   3.276   0.761  10.299 -1.7356 -2.5004  0.0622
  258MOL0     H35563   3.604   0.697  10.444 -0.7150  0.3184  1.4852
  258MOL0     H35564   3.561   0.842  10.367  2.4363 -1.1846  0.4881
  258MOL0     H35565   3.492   0.683  10.314  1.2271 -1.2215  0.1058
  258MOL0     H35566   3.665   0.906  10.941  0.8007  2.7164  0.5861
  258MOL0     H35567   3.869   0.910  11.053 -1.8309 -2.8519  1.0826
  258MOL0     H35568   4.224   0.711  10.853 -1.1845  0.3902 -0.8994
  258MOL0     H35569   4.267   0.873  10.825  3.0254 -1.8339  0.3171
  258MOL0     H35570   4.277   0.740  11.092 -2.3883  2.8421  1.7110
  258MOL0     H35571   4.415   0.752  10.978 -2.8935 -4.5025 -0.8627
  258MOL0     H35572   4.270   0.979  11.126 -0.0290 -0.5169  1.6130
  258MOL0     H35573   4.367   1.019  10.978  1.1374 -0.0052  1.3533
  258MOL0     H35574   4.558   0.968  11.077 -0.1404 -1.7448  0.8907
  258MOL0     H35575   4.489   0.879  11.198  2.5758 -0.1121 -1.5524
  258MOL0     H35576   4.452   1.175  11.172 -0.4411 -0.9163 -1.8611
  258MOL0     H35577   4.387   1.079  11.306  1.4148 -1.4544  1.6947
  258MOL0     H35578   4.685   1.046  11.243 -1.0911 -3.3709  0.0863
  258MOL0     H35579   4.602   1.042  11.396 -1.4102 -0.9459 -0.5451
  258MOL0     H35580   4.637   1.286  11.212  3.2638 -1.8751  0.5453
  258MOL0     H35581   4.750   1.258  11.339  0.5331  3.9775 -1.3517
  258MOL0     H35582   4.507   1.265  11.481  1.1367  0.6511  0.8564
  258MOL0     H35583   4.477   1.384  11.353  0.7219 -1.9823 -2.1997
  258MOL0     H35584   4.062   0.725  10.713 -2.0360 -2.4477 -0.5261
  258MOL0     H35585   3.858   0.719  10.596 -0.3355 -0.1541  0.4189
  258MOL0     H35586   3.241   0.794  10.788  0.5554  0.6676 -0.1956
  258MOL0     H35587   3.045   0.794  10.641 -0.1639  0.6681 -0.4889
  258MOL0     H35588   3.969   0.013   9.825 -0.3358 -0.4815  0.0053
  258MOL0     H35589   4.176  -0.028   9.950 -0.5209  0.5780 -0.0043
  258MOL0     H35590   4.363   0.139  10.393 -0.5436 -1.2828  1.6161
  258MOL0     H35591   4.505   0.055  10.570  0.4016 -1.9253  0.4626
  258MOL0     H35592   4.888  -0.184  10.486 -0.1973  0.9808 -1.2881
  258MOL0     H35593   4.921  -0.019  10.440 -0.1395 -0.0310 -0.0415
  258MOL0     H35594   4.909  -0.071  10.739 -1.5337  1.4413 -0.4157
  258MOL0     H35595   5.012   0.034  10.651 -2.6607  1.0457 -0.0256
  258MOL0     H35596   5.110  -0.155  10.771 -0.9770  0.5187  0.2376
  258MOL0     H35597   5.063  -0.267  10.651  1.6971 -0.7356  1.8836
  258MOL0     H35598   5.206  -0.019  10.555 -1.6573  0.0027  1.3325
  258MOL0     H35599   5.213  -0.176  10.479 -0.7020  0.4099 -0.9402
  258MOL0     H35600   5.546  -0.140  10.753  0.7052  1.3568 -0.2842
  258MOL0     H35601   4.785  -0.076  10.271  0.3028 -0.6106  1.5066
  258MOL0     H35602   4.716  -0.115  10.071 -1.1748 -0.8352  0.3364
  258MOL0     H35603   4.556  -0.074  10.015 -0.2028 -0.5832  0.2402
  258MOL0     H35604   4.687   0.053  10.007  2.8198 -0.7001  0.4725
  259MOL0     O35605   7.651  10.695   1.912  0.2024 -0.5274 -0.4659
  259MOL0     C35606   7.567  10.643   1.835 -0.6047 -0.1751 -0.2462
  259MOL0     O35607   7.560  10.515   1.806 -0.3475 -0.0402 -0.8187
  259MOL0     C35608   7.674  10.436   1.821 -0.1515  1.8991 -1.1510
  259MOL0     C35609   7.652  10.320   1.904 -0.2165 -0.1228 -0.2158
  259MOL0     C35610   7.757  10.225   1.925  0.3769 -0.0562  0.4433
  259MOL0     C35611   7.892  10.245   1.875 -0.2582 -0.3497 -0.0695
  259MOL0     O35612   7.989  10.147   1.889 -0.1766 -0.7420  0.1805
  259MOL0     C35613   7.967  10.034   1.977 -0.2128  0.1224 -0.1293
  259MOL0     C35614   8.082   9.928   1.970  0.2923 -0.0471 -0.5765
  259MOL0     C35615   8.065   9.821   2.073  0.4793 -1.4302  0.5595
  259MOL0     C35616   8.174   9.720   2.050 -0.0191  0.0050 -0.4399
  259MOL0     C35617   8.158   9.607   2.155 -0.6094  0.1795 -0.4461
  259MOL0     C35618   8.242   9.620   2.286 -0.8302  0.0006  0.0181
  259MOL0     C35619   8.383   9.570   2.260  0.5796 -0.8766 -0.8199
  259MOL0     C35620   8.455   9.571   2.395 -0.2814  0.9050  0.6027
  259MOL0     N35621   8.489   9.709   2.438 -0.3521  0.4042 -0.0376
  259MOL0     C35622   8.419   9.784   2.536  0.6656 -0.4534  0.1215
  259MOL0     C35623   8.492   9.898   2.552 -0.2359  0.0299 -0.2961
  259MOL0     C35624   8.468  10.003   2.662 -0.3976 -0.1560  0.1746
  259MOL0     C35625   8.479  10.148   2.609  0.7629 -0.1557  0.5958
  259MOL0     C35626   8.432  10.246   2.723  0.3756  0.1952  0.4363
  259MOL0     C35627   8.435  10.390   2.674  0.1581 -0.1847 -0.5552
  259MOL0     O35628   8.370  10.416   2.544  0.1647  0.0722  0.3705
  259MOL0     C35629   8.322  10.535   2.521  0.2007 -1.0842 -0.0164
  259MOL0     C35630   8.392  10.633   2.456  0.5030 -0.5995  0.2153
  259MOL0     C35631   8.339  10.756   2.431 -0.2060  0.6858 -0.4575
  259MOL0     C35632   8.429  10.859   2.362 -0.6110  0.4705  0.1892
  259MOL0     C35633   8.200  10.780   2.463 -0.3926 -0.0047 -0.7173
  259MOL0     C35634   8.119  10.898   2.428  0.4537 -0.6664 -0.3087
  259MOL0     O35635   8.013  10.925   2.496 -0.0051 -0.1222 -0.4936
  259MOL0     C35636   7.947  11.048   2.487 -0.4827  0.0794  0.1538
  259MOL0     C35637   7.818  11.056   2.429  0.3513  0.5452  0.5320
  259MOL0     C35638   7.745  11.179   2.434  0.5255 -0.0480  0.4048
  259MOL0     C35639   7.801  11.296   2.495 -0.6114  0.2117 -0.4872
  259MOL0     O35640   7.719  11.404   2.509  1.1043  0.0696 -0.6216
  259MOL0     C35641   7.777  11.527   2.494 -0.6019 -1.0711 -0.5370
  259MOL0     C35642   7.671  11.622   2.433  0.6491 -0.6365 -0.3118
  259MOL0     C35643   7.580  11.681   2.545  0.4318 -0.7415 -0.5120
  259MOL0     C35644   7.438  11.727   2.490 -0.4607 -0.3354  0.8842
  259MOL0     C35645   7.347  11.753   2.605 -0.5805 -0.0856 -0.3535
  259MOL0     C35646   7.205  11.781   2.555  0.4539  0.2052  0.2546
  259MOL0     C35647   7.086  11.755   2.650  0.1968  0.0787 -0.6326
  259MOL0     C35648   7.031  11.874   2.729 -0.0287  0.0826  0.7500
  259MOL0    Cl35649   6.906  11.840   2.859  0.0428 -0.0903 -0.2192
  259MOL0     C35650   7.936  11.287   2.540 -0.6568  0.1977 -0.0542
  259MOL0     C35651   8.004  11.162   2.532 -0.0625  0.3006 -0.0339
  259MOL0     O35652   8.159  10.971   2.333  0.4379 -0.1696  0.3253
  259MOL0     C35653   8.132  10.681   2.538  0.3715 -0.1210  0.2279
  259MOL0     C35654   8.195  10.564   2.569 -0.0629  0.3889 -0.0069
  259MOL0     N35655   8.602   9.891   2.466  0.1190  0.7542  0.6849
  259MOL0     N35656   8.603   9.779   2.404  0.2513 -0.0065  0.1310
  259MOL0     C35657   7.910  10.367   1.800 -0.0749 -0.7084  1.2804
  259MOL0     C35658   7.809  10.461   1.772  0.0019  0.1615  0.4127
  259MOL0     C35659   7.480  10.734   1.767 -0.5598  0.4823 -0.6349
  259MOL0     C35660   7.537  10.849   1.717 -0.3672  0.9201 -0.1319
  259MOL0     C35661   7.464  10.951   1.664  0.5871  0.1151 -0.4130
  259MOL0     C35662   7.329  10.930   1.636  0.2723 -0.6644  0.0260
  259MOL0     O35663   7.252  11.013   1.556 -0.2038  0.3577 -0.6752
  259MOL0     C35664   7.287  11.155   1.549  0.3424  0.0100 -0.5881
  259MOL0     C35665   7.272  11.233   1.686  0.0457  0.4979 -0.0768
  259MOL0     C35666   7.387  11.330   1.712  0.5381 -0.3098  0.8880
  259MOL0     C35667   7.338  11.448   1.797  0.4737 -0.1701  0.0465
  259MOL0     C35668   7.264  11.547   1.716 -1.1014  0.0820  0.1540
  259MOL0     C35669   7.200  11.628   1.646  0.4213 -0.0643 -1.0969
  259MOL0     C35670   7.270  10.808   1.675  0.3746 -0.4968 -0.0627
  259MOL0     C35671   7.342  10.714   1.745 -0.1845  0.1964  0.5019
  259MOL0     C35672   7.261  10.591   1.786 -0.4724 -0.3679  0.8187
  259MOL0     H35673   7.555  10.298   1.947 -0.1712  1.6241  0.8706
  259MOL0     H35674   7.729  10.134   1.975 -1.8096  0.9955  1.2681
  259MOL0     H35675   7.876   9.987   1.940  1.0064 -2.0349 -0.5984
  259MOL0     H35676   7.963  10.072   2.080 -0.4475  1.4486 -0.6146
  259MOL0     H35677   8.075   9.872   1.876 -3.3140 -3.2332  1.2697
  259MOL0     H35678   8.180   9.973   1.984  0.8632 -1.5070  0.3686
  259MOL0     H35679   8.061   9.865   2.173 -1.7972 -0.1408 -0.0198
  259MOL0     H35680   7.967   9.776   2.054 -0.1506 -2.8626  5.5970
  259MOL0     H35681   8.162   9.679   1.949 -0.8186  0.6204 -0.6058
  259MOL0     H35682   8.269   9.774   2.051  1.2452 -1.9345 -2.9287
  259MOL0     H35683   8.187   9.513   2.107  0.1956 -0.0587  0.4633
  259MOL0     H35684   8.052   9.591   2.180  0.0310 -1.2360  1.6590
  259MOL0     H35685   8.245   9.728   2.305  0.5317  0.1588 -0.9576
  259MOL0     H35686   8.200   9.574   2.376  0.7993  0.3325  0.9968
  259MOL0     H35687   8.430   9.640   2.191  2.6518 -0.2086  1.1422
  259MOL0     H35688   8.376   9.467   2.226 -0.6575 -1.0187 -0.1747
  259MOL0     H35689   8.398   9.525   2.476 -2.8415 -0.1223 -1.6360
  259MOL0     H35690   8.535   9.501   2.372 -1.5310 -0.0183 -1.2204
  259MOL0     H35691   8.333   9.752   2.594  1.3857  0.4411  1.7160
  259MOL0     H35692   8.543   9.986   2.740 -0.6816  0.7992  0.6745
  259MOL0     H35693   8.367   9.998   2.704 -0.0501  1.1860  1.2308
  259MOL0     H35694   8.582  10.163   2.575  0.8188  0.8340  1.1676
  259MOL0     H35695   8.419  10.156   2.518 -0.1995 -0.2867  1.2090
  259MOL0     H35696   8.326  10.226   2.739  0.1642  1.4041  0.6373
  259MOL0     H35697   8.494  10.232   2.812 -0.2022  0.6844  0.9244
  259MOL0     H35698   8.372  10.442   2.747 -0.5188  0.0814 -1.3063
  259MOL0     H35699   8.539  10.420   2.661 -0.3728  1.3146 -1.6292
  259MOL0     H35700   8.484  10.599   2.409  0.0691  0.8470 -1.7758
  259MOL0     H35701   8.436  10.943   2.431  0.7844  2.8450 -2.6765
  259MOL0     H35702   8.394  10.902   2.268 -0.4453 -2.9016 -1.5593
  259MOL0     H35703   8.528  10.817   2.343 -0.5939  1.1636 -1.3433
  259MOL0     H35704   7.768  10.968   2.389  0.4929  0.3120  0.8726
  259MOL0     H35705   7.649  11.174   2.384 -0.5312  2.3978  2.0143
  259MOL0     H35706   7.815  11.562   2.590 -0.7497 -2.3598  0.0176
  259MOL0     H35707   7.864  11.524   2.429  0.3655 -1.4005  0.7240
  259MOL0     H35708   7.723  11.704   2.384 -1.8731  1.5772  0.4639
  259MOL0     H35709   7.599  11.578   2.363 -1.1915 -3.2256  2.8795
  259MOL0     H35710   7.619  11.772   2.592 -1.1305 -1.3395  2.2266
  259MOL0     H35711   7.573  11.613   2.631  0.9759 -0.9370 -0.6171
  259MOL0     H35712   7.393  11.642   2.437 -1.6458  1.7004 -1.5648
  259MOL0     H35713   7.448  11.812   2.422 -0.4092 -0.2628  0.9836
  259MOL0     H35714   7.323  11.661   2.659 -0.8639 -0.1200 -0.5358
  259MOL0     H35715   7.389  11.823   2.677 -0.8519 -1.3272  1.0653
  259MOL0     H35716   7.187  11.713   2.471 -4.9129 -1.5959  2.4316
  259MOL0     H35717   7.210  11.881   2.511  1.9715 -1.1445 -3.0460
  259MOL0     H35718   7.105  11.679   2.726  1.9525  2.3702  1.3717
  259MOL0     H35719   6.997  11.733   2.590  0.5533 -0.9486 -0.7981
  259MOL0     H35720   6.984  11.946   2.661  1.7872 -0.3985 -1.1052
  259MOL0     H35721   7.114  11.924   2.779  3.7506 -2.6119 -2.2129
  259MOL0     H35722   7.991  11.373   2.576  2.2150 -0.5576 -2.2350
  259MOL0     H35723   8.101  11.153   2.579  0.8074  1.7778 -1.4360
  259MOL0     H35724   8.027  10.699   2.560 -0.3832  0.1362 -3.0041
  259MOL0     H35725   8.134  10.491   2.622 -0.3142  0.8431  0.3405
  259MOL0     H35726   8.013  10.379   1.766  0.4871 -4.6250  1.1869
  259MOL0     H35727   7.825  10.554   1.719  0.5044  1.6736  3.0427
  259MOL0     H35728   7.642  10.876   1.721 -0.0635  0.0097 -1.3955
  259MOL0     H35729   7.512  11.045   1.638  2.7888  0.2628  3.4935
  259MOL0     H35730   7.389  11.174   1.513 -0.2502  0.0477 -2.3301
  259MOL0     H35731   7.209  11.200   1.488  1.3526  2.1031 -0.4387
  259MOL0     H35732   7.279  11.164   1.771  1.1020  1.7731  0.9168
  259MOL0     H35733   7.180  11.292   1.674 -0.3113 -0.2459 -1.0969
  259MOL0     H35734   7.454  11.269   1.774  0.8877 -0.4656  0.3554
  259MOL0     H35735   7.430  11.365   1.618  0.4357  1.6885  1.5469
  259MOL0     H35736   7.430  11.492   1.838  1.1819 -1.6910  0.1359
  259MOL0     H35737   7.275  11.414   1.879  0.0447 -3.4054 -1.4962
  259MOL0     H35738   7.144  11.690   1.579 -0.0004 -0.2723 -0.9412
  259MOL0     H35739   7.168  10.782   1.647  0.2310 -0.8536  0.7638
  259MOL0     H35740   7.308  10.497   1.756 -2.5633 -0.7693 -1.4950
  259MOL0     H35741   7.240  10.577   1.893  0.7146 -1.9158  0.8875
  259MOL0     H35742   7.165  10.581   1.735  0.0689  0.6336 -0.4314
  260MOL0     O35743   4.588  10.168   8.394 -0.2708  0.1898 -0.0087
  260MOL0     C35744   4.684  10.229   8.347 -0.9928 -0.4548 -0.0758
  260MOL0     O35745   4.750  10.192   8.242  0.5773  0.7351 -0.4996
  260MOL0     C35746   4.705  10.089   8.165 -0.1499  0.5059  0.3869
  260MOL0     C35747   4.575  10.084   8.104  0.1642  0.1296 -0.7848
  260MOL0     C35748   4.539   9.971   8.025 -0.4657 -0.4324  0.0217
  260MOL0     C35749   4.632   9.868   7.997  0.6101  0.7134  0.4157
  260MOL0     O35750   4.579   9.775   7.919 -0.5831  0.5846 -0.6378
  260MOL0     C35751   4.641   9.644   7.939  0.1881  0.5847  0.1855
  260MOL0     C35752   4.748   9.632   7.839 -0.1068  0.1286 -0.3825
  260MOL0     C35753   4.827   9.499   7.845  0.1069  0.6058 -0.3247
  260MOL0     C35754   4.924   9.479   7.724  1.2127 -0.4889 -0.7083
  260MOL0     C35755   5.013   9.359   7.746  0.2659  0.7336 -0.4083
  260MOL0     C35756   5.086   9.334   7.610  0.2935  0.3243 -0.8659
  260MOL0     C35757   5.201   9.243   7.649 -0.1996 -0.5677 -0.8218
  260MOL0     C35758   5.288   9.218   7.532  0.8215  0.3777 -0.1011
  260MOL0     N35759   5.399   9.119   7.570  0.1574 -0.2126 -0.0313
  260MOL0     C35760   5.511   9.145   7.652  0.1765 -0.7836  0.8864
  260MOL0     C35761   5.553   9.016   7.675  0.3278  0.3264  0.7596
  260MOL0     C35762   5.687   8.982   7.753 -0.3352 -0.2998  0.1774
  260MOL0     C35763   5.803   9.063   7.702 -0.1373  0.5531 -0.6900
  260MOL0     C35764   5.898   8.995   7.597  0.0129 -0.2945 -0.0970
  260MOL0     C35765   6.018   9.078   7.571 -0.0715  0.6827  0.7686
  260MOL0     O35766   6.105   8.988   7.497  0.6822  0.0249  0.0543
  260MOL0     C35767   6.233   9.030   7.478 -0.0865  0.4331 -0.0690
  260MOL0     C35768   6.297   9.155   7.513 -0.5932 -0.5571  0.7805
  260MOL0     C35769   6.437   9.186   7.497  0.2648  0.3568 -0.4138
  260MOL0     C35770   6.484   9.324   7.548 -0.0337  0.0522 -0.3353
  260MOL0     C35771   6.520   9.090   7.439  0.6197  0.6184  0.4557
  260MOL0     C35772   6.667   9.095   7.421  0.0834 -0.3822  0.2787
  260MOL0     O35773   6.742   9.180   7.502  0.4096 -0.0256 -0.4775
  260MOL0     C35774   6.880   9.194   7.484 -0.2422  0.2478 -0.5559
  260MOL0     C35775   6.937   9.278   7.383  0.2022  1.0056 -0.6990
  260MOL0     C35776   7.077   9.291   7.379  0.3916  0.1615  0.2057
  260MOL0     C35777   7.164   9.229   7.468 -0.1960 -0.0690 -0.7584
  260MOL0     O35778   7.293   9.256   7.496  0.4207  0.1023  0.2180
  260MOL0     C35779   7.327   9.398   7.494 -1.1358 -0.9956  0.3866
  260MOL0     C35780   7.444   9.415   7.596 -0.8897 -0.3347  0.0532
  260MOL0     C35781   7.494   9.549   7.639 -0.1133  0.0323 -0.1572
  260MOL0     C35782   7.595   9.545   7.754 -0.3004 -0.0795 -0.9381
  260MOL0     C35783   7.591   9.669   7.840 -0.8442 -0.3633 -0.1166
  260MOL0     C35784   7.620   9.794   7.751  0.7752  0.1586 -0.1459
  260MOL0     C35785   7.628   9.925   7.838 -0.2838  0.3390  0.6216
  260MOL0     C35786   7.679  10.033   7.747 -0.7198 -1.1881  0.4904
  260MOL0    Cl35787   7.569  10.095   7.616 -0.0349  0.2566 -0.0747
  260MOL0     C35788   7.106   9.143   7.561 -0.1111 -0.2939  0.2437
  260MOL0     C35789   6.966   9.144   7.574 -0.6657  0.0910 -0.6783
  260MOL0     O35790   6.709   9.050   7.319  0.1125 -0.2718  0.6550
  260MOL0     C35791   6.457   8.967   7.393 -0.7232 -0.8063 -0.2475
  260MOL0     C35792   6.323   8.942   7.408 -0.0744 -0.4208 -0.2522
  260MOL0     N35793   5.482   8.920   7.609  0.5940  0.2278  0.0451
  260MOL0     N35794   5.387   8.983   7.546  0.0510 -0.1141 -0.7538
  260MOL0     C35795   4.759   9.869   8.065  0.2957  0.2004  0.3243
  260MOL0     C35796   4.792   9.981   8.146 -0.3287 -0.5408 -0.3249
  260MOL0     C35797   4.719  10.357   8.417  0.0867  0.5670  0.5061
  260MOL0     C35798   4.796  10.447   8.338 -1.2291  0.0142  0.1771
  260MOL0     C35799   4.838  10.562   8.398 -0.2692 -0.1641  0.0448
  260MOL0     C35800   4.801  10.608   8.522  0.3577  0.8081  0.9330
  260MOL0     O35801   4.833  10.735   8.563 -0.2784  0.2669  0.5480
  260MOL0     C35802   4.815  10.770   8.697  0.1799 -0.3956  0.5061
  260MOL0     C35803   4.912  10.885   8.719 -0.0438 -0.0825  0.0884
  260MOL0     C35804   5.053  10.834   8.687 -0.2073 -0.2202  0.5150
  260MOL0     C35805   5.160  10.892   8.779  0.1299  0.1768  0.4092
  260MOL0     C35806   5.150  11.035   8.798 -0.6043 -0.5843 -1.4514
  260MOL0     C35807   5.154  11.150   8.835 -0.3233 -0.4890 -0.3714
  260MOL0     C35808   4.712  10.522   8.591 -0.3542 -0.6695 -0.4302
  260MOL0     C35809   4.676  10.399   8.547  0.5935 -0.4920 -0.0958
  260MOL0     C35810   4.614  10.305   8.647  0.1870  0.1881  0.6969
  260MOL0     H35811   4.505  10.162   8.129 -1.3072 -1.6560  0.9581
  260MOL0     H35812   4.446   9.971   7.969  0.2891  2.9153 -1.5108
  260MOL0     H35813   4.564   9.568   7.921  2.5857 -2.4591  1.7389
  260MOL0     H35814   4.681   9.626   8.039 -0.2734  1.6614  0.5794
  260MOL0     H35815   4.687   9.636   7.749 -0.4135  0.5349 -0.1608
  260MOL0     H35816   4.821   9.714   7.842  1.6099 -1.3837  1.5766
  260MOL0     H35817   4.875   9.483   7.942  1.5176  0.1087 -1.0831
  260MOL0     H35818   4.756   9.415   7.836 -0.4717  0.9704  0.6925
  260MOL0     H35819   4.868   9.467   7.631  0.3117  1.4525 -0.4564
  260MOL0     H35820   4.984   9.569   7.707 -2.8268  3.0678  1.6554
  260MOL0     H35821   4.951   9.276   7.781  2.5959 -0.6623  0.6400
  260MOL0     H35822   5.084   9.379   7.826  1.0416  3.3302 -1.6173
  260MOL0     H35823   5.022   9.278   7.541  0.7031 -0.6663 -0.4717
  260MOL0     H35824   5.126   9.420   7.556  0.5633  0.1020 -1.0283
  260MOL0     H35825   5.155   9.149   7.679 -0.0695 -0.3640  0.0470
  260MOL0     H35826   5.253   9.293   7.732 -0.0687 -1.4836 -0.3364
  260MOL0     H35827   5.221   9.172   7.459  1.8344 -3.4954  1.1727
  260MOL0     H35828   5.336   9.308   7.492 -1.2594  0.9051 -1.5446
  260MOL0     H35829   5.560   9.238   7.681  0.7870 -1.1403  1.0046
  260MOL0     H35830   5.710   8.875   7.739 -0.3887 -0.1226 -1.5042
  260MOL0     H35831   5.677   9.006   7.859  0.6292  0.1616  0.1735
  260MOL0     H35832   5.765   9.159   7.665 -3.8605  1.2042  3.9306
  260MOL0     H35833   5.873   9.081   7.784 -0.5818 -0.7479  0.0061
  260MOL0     H35834   5.931   8.899   7.641  2.7709  0.8853  0.6661
  260MOL0     H35835   5.848   8.980   7.501  1.0989  0.7052 -0.8361
  260MOL0     H35836   5.991   9.170   7.520  2.0982  2.2111  2.2076
  260MOL0     H35837   6.066   9.108   7.665  1.5088 -4.9345  2.2026
  260MOL0     H35838   6.240   9.233   7.562  0.9529 -0.0972  1.9217
  260MOL0     H35839   6.547   9.376   7.475  0.1703  0.5691  0.1952
  260MOL0     H35840   6.540   9.319   7.642 -1.4918 -1.9229  0.5171
  260MOL0     H35841   6.402   9.395   7.569 -0.1023 -0.3563  0.8573
  260MOL0     H35842   6.877   9.336   7.314 -1.5263 -1.4649 -1.3933
  260MOL0     H35843   7.132   9.362   7.318  1.2904 -0.8516 -0.1972
  260MOL0     H35844   7.383   9.421   7.402  2.3065 -1.3512  2.1996
  260MOL0     H35845   7.249   9.472   7.510 -2.1444 -1.6319 -1.2530
  260MOL0     H35846   7.401   9.359   7.680  0.8085 -1.3056  0.3133
  260MOL0     H35847   7.531   9.359   7.559  0.2894  1.9870 -0.9117
  260MOL0     H35848   7.402   9.593   7.679 -1.6937 -3.5272  0.5431
  260MOL0     H35849   7.540   9.604   7.557 -0.9846  0.9470 -0.0581
  260MOL0     H35850   7.701   9.541   7.727  1.0457  2.7923  2.9005
  260MOL0     H35851   7.564   9.476   7.834  0.5139 -1.3496 -1.6720
  260MOL0     H35852   7.495   9.673   7.892 -1.0909 -4.3345 -0.0339
  260MOL0     H35853   7.668   9.664   7.917 -0.8078  1.6581  0.0521
  260MOL0     H35854   7.534   9.807   7.686  0.1154 -2.0446  0.2000
  260MOL0     H35855   7.711   9.782   7.691  0.3624  0.7536 -0.9105
  260MOL0     H35856   7.705   9.893   7.909  0.1090 -3.8862 -1.3490
  260MOL0     H35857   7.534   9.949   7.888 -0.2238  0.7680  0.5339
  260MOL0     H35858   7.779   9.994   7.727 -0.2974 -1.4816  2.8886
  260MOL0     H35859   7.700  10.110   7.821 -2.2782  0.7058 -0.9383
  260MOL0     H35860   7.164   9.091   7.636  0.0367 -1.5816 -0.7284
  260MOL0     H35861   6.912   9.099   7.658 -1.0289 -1.2687 -1.6052
  260MOL0     H35862   6.528   8.897   7.348  1.6834  1.5236 -0.3532
  260MOL0     H35863   6.278   8.860   7.354 -2.8090  0.8328 -0.0663
  260MOL0     H35864   4.829   9.787   8.078 -0.3528 -0.2115  1.3031
  260MOL0     H35865   4.896   9.983   8.178 -0.2632  1.1590 -0.5149
  260MOL0     H35866   4.832  10.420   8.239 -2.8497 -1.3889 -0.0852
  260MOL0     H35867   4.920  10.618   8.354 -1.2193  0.5023 -0.9395
  260MOL0     H35868   4.713  10.807   8.710 -0.1330  1.4834 -4.7867
  260MOL0     H35869   4.835  10.681   8.757 -2.3436 -2.8801 -1.9874
  260MOL0     H35870   4.908  10.935   8.817  4.9365  4.3607 -1.5196
  260MOL0     H35871   4.905  10.968   8.648  3.0038 -1.3564 -1.9035
  260MOL0     H35872   5.054  10.725   8.680 -0.4676 -0.2342  0.6578
  260MOL0     H35873   5.084  10.869   8.588  0.3462  1.3172  1.1920
  260MOL0     H35874   5.258  10.875   8.733 -0.0342 -0.7154  0.3559
  260MOL0     H35875   5.157  10.828   8.868  1.1750  1.4764  1.4306
  260MOL0     H35876   5.144  11.248   8.877 -0.0957 -0.3893 -0.5548
  260MOL0     H35877   4.686  10.552   8.692  2.3898  0.1307  0.0984
  260MOL0     H35878   4.631  10.198   8.627  1.0207  0.5412 -0.6584
  260MOL0     H35879   4.660  10.318   8.746 -0.9370  1.5005  1.0699
  260MOL0     H35880   4.509  10.334   8.647 -0.5461 -2.1973  1.6219
  261MOL0     O35881   8.042   5.502   2.474  0.0970 -0.3048 -0.5743
  261MOL0     C35882   8.079   5.522   2.590  0.5201  0.2877 -0.0051
  261MOL0     O35883   8.209   5.504   2.640  0.2277  0.8364  0.1041
  261MOL0     C35884   8.312   5.476   2.559 -0.6991 -0.3861  0.8211
  261MOL0     C35885   8.348   5.554   2.446  0.7293 -0.1925 -0.7270
  261MOL0     C35886   8.462   5.533   2.369  0.0701  0.5064 -0.8936
  261MOL0     C35887   8.553   5.427   2.405 -0.1187  0.7087 -0.1033
  261MOL0     O35888   8.669   5.397   2.336  0.3693 -0.4271  0.2099
  261MOL0     C35889   8.723   5.500   2.257 -0.1268  0.7469 -0.3090
  261MOL0     C35890   8.857   5.453   2.208 -0.6386 -0.1616  0.2258
  261MOL0     C35891   8.928   5.573   2.129  0.1384  0.5598 -0.1781
  261MOL0     C35892   9.058   5.517   2.068  1.1333  0.1829 -0.9008
  261MOL0     C35893   9.165   5.623   2.047 -0.7567  0.3003 -0.2767
  261MOL0     C35894   9.307   5.562   2.018  0.9521 -0.9479  0.2198
  261MOL0     C35895   9.420   5.658   2.027  0.0095  0.4973 -0.0108
  261MOL0     C35896   9.550   5.593   1.977 -0.4205  0.2737  0.5623
  261MOL0     N35897   9.667   5.675   1.987  0.4727  0.5326  0.1002
  261MOL0     C35898   9.731   5.685   2.106 -0.2620  0.7173 -0.6633
  261MOL0     C35899   9.830   5.777   2.088 -0.4741 -0.3224  0.1791
  261MOL0     C35900   9.916   5.833   2.204  0.0649  0.0060 -0.9350
  261MOL0     C35901  10.042   5.911   2.158 -0.1469  0.0313  0.0718
  261MOL0     C35902  10.018   6.059   2.131  0.5985  0.6713 -0.3574
  261MOL0     C35903  10.149   6.123   2.068  0.3467 -0.5900  0.1275
  261MOL0     O35904  10.117   6.266   2.052 -0.1610 -0.0533  0.2898
  261MOL0     C35905  10.221   6.342   2.026 -0.8514  0.3116 -0.3757
  261MOL0     C35906  10.300   6.305   1.911 -0.5196 -0.6900  0.7282
  261MOL0     C35907  10.406   6.393   1.871  1.1144 -0.5766 -0.2971
  261MOL0     C35908  10.464   6.347   1.738 -0.4744 -0.5340 -0.8132
  261MOL0     C35909  10.441   6.508   1.947 -0.0747  0.1079  0.1671
  261MOL0     C35910  10.561   6.598   1.918 -0.0112 -0.1887 -0.9308
  261MOL0     O35911  10.661   6.533   1.853  0.3664  0.4309  0.4319
  261MOL0     C35912  10.771   6.594   1.783  0.8233 -0.4719 -0.7731
  261MOL0     C35913  10.781   6.714   1.715 -0.2133  1.1912 -0.1004
  261MOL0     C35914  10.897   6.744   1.649  0.3073 -0.0587 -0.2575
  261MOL0     C35915  11.005   6.660   1.647 -0.1900 -0.0473 -0.0660
  261MOL0     O35916  11.120   6.699   1.583  0.0471 -0.3598 -0.5301
  261MOL0     C35917  11.130   6.655   1.453  0.1307  0.7111 -0.6096
  261MOL0     C35918  11.237   6.734   1.388  0.1266 -0.2190 -0.2454
  261MOL0     C35919  11.274   6.665   1.256  0.1629 -0.4974 -0.4420
  261MOL0     C35920  11.347   6.754   1.159 -0.0827  0.7835 -0.3182
  261MOL0     C35921  11.468   6.841   1.221  0.1782 -0.4772  0.3077
  261MOL0     C35922  11.542   6.904   1.090  0.2505 -0.0174  0.3287
  261MOL0     C35923  11.662   7.000   1.133  0.6044 -0.7899 -0.6045
  261MOL0     C35924  11.733   7.047   1.003  0.1020  0.6366 -0.1875
  261MOL0    Cl35925  11.822   7.203   1.036 -0.0613 -0.1743  0.0170
  261MOL0     C35926  11.001   6.541   1.721 -0.9188 -1.0281 -0.1805
  261MOL0     C35927  10.886   6.505   1.784 -0.0849 -0.6951 -0.1474
  261MOL0     O35928  10.561   6.710   1.965  0.2571  0.2036 -0.3038
  261MOL0     C35929  10.357   6.538   2.051  0.2510 -0.2188 -0.0847
  261MOL0     C35930  10.244   6.465   2.089  0.6024 -0.6713  0.5650
  261MOL0     N35931   9.808   5.834   1.962  1.2599  0.0666 -0.1383
  261MOL0     N35932   9.716   5.767   1.905  0.0902  0.4543  1.2584
  261MOL0     C35933   8.516   5.348   2.514 -0.2110  1.1461  0.7950
  261MOL0     C35934   8.402   5.377   2.592  0.3628  0.8005  0.1837
  261MOL0     C35935   7.988   5.572   2.695 -0.2222  1.0838  0.1007
  261MOL0     C35936   8.027   5.665   2.797 -1.0386 -0.2825 -0.5396
  261MOL0     C35937   7.936   5.707   2.894  0.0264  0.7004 -0.2453
  261MOL0     C35938   7.804   5.656   2.893 -1.1669  0.4085  0.1629
  261MOL0     O35939   7.704   5.697   2.981  0.1643 -0.2828 -0.6861
  261MOL0     C35940   7.730   5.796   3.085  0.3721 -0.1928 -0.3623
  261MOL0     C35941   7.709   5.940   3.028 -0.3632 -0.6152  0.7294
  261MOL0     C35942   7.562   5.971   2.971 -0.3595  0.1238  1.0738
  261MOL0     C35943   7.444   5.904   3.032  0.1478  0.3677  0.2372
  261MOL0     C35944   7.407   5.946   3.170  0.2957 -0.0054 -0.5533
  261MOL0     C35945   7.380   5.979   3.284  1.3292 -0.3074  0.2225
  261MOL0     C35946   7.774   5.551   2.803 -0.1475  0.5445  0.1812
  261MOL0     C35947   7.859   5.516   2.699  0.2637 -0.1516  0.4396
  261MOL0     C35948   7.804   5.407   2.606  0.5396  0.1917 -0.6989
  261MOL0     H35949   8.278   5.628   2.411  1.8215  1.1749 -0.1406
  261MOL0     H35950   8.475   5.595   2.281  0.8400  0.7507 -0.6189
  261MOL0     H35951   8.745   5.592   2.313 -0.5444  0.3535  0.5091
  261MOL0     H35952   8.649   5.527   2.181  0.2776 -2.3751 -1.9577
  261MOL0     H35953   8.919   5.421   2.293  0.8853  0.0802 -0.7618
  261MOL0     H35954   8.843   5.374   2.134  1.3186 -0.7353  0.4023
  261MOL0     H35955   8.859   5.611   2.053 -0.1479 -1.8518 -1.2184
  261MOL0     H35956   8.947   5.657   2.196  0.9314  0.8697 -0.7625
  261MOL0     H35957   9.099   5.439   2.134  1.6856  0.0845 -1.3598
  261MOL0     H35958   9.036   5.471   1.972  0.2379 -0.1267 -0.5620
  261MOL0     H35959   9.167   5.667   2.147 -3.5024 -2.5575  1.2244
  261MOL0     H35960   9.140   5.696   1.969  1.0523  0.8509 -0.3874
  261MOL0     H35961   9.331   5.478   2.085  0.7201 -1.0248  0.2047
  261MOL0     H35962   9.308   5.505   1.925  1.3510  0.3821 -0.6057
  261MOL0     H35963   9.432   5.683   2.132  2.3867  0.0771 -0.1279
  261MOL0     H35964   9.386   5.745   1.969 -0.9905  0.6091  0.7142
  261MOL0     H35965   9.558   5.500   2.034  1.1061  0.1915  0.2419
  261MOL0     H35966   9.540   5.571   1.870  2.3165  2.0775 -0.1798
  261MOL0     H35967   9.705   5.643   2.202  0.4163  4.9291  1.6253
  261MOL0     H35968   9.941   5.740   2.256  2.1112 -0.4171 -2.5432
  261MOL0     H35969   9.853   5.894   2.269  1.8704  0.4148  0.4890
  261MOL0     H35970  10.128   5.910   2.226 -1.3881  3.1426  1.9295
  261MOL0     H35971  10.072   5.861   2.066 -0.7733 -1.8247  0.8232
  261MOL0     H35972   9.929   6.075   2.070  1.0369  2.0988 -0.6393
  261MOL0     H35973  10.001   6.107   2.228  1.0634  3.6024 -1.6481
  261MOL0     H35974  10.240   6.112   2.129  1.4578  0.8866 -1.1932
  261MOL0     H35975  10.155   6.073   1.971 -2.2959 -2.0264  0.5992
  261MOL0     H35976  10.290   6.210   1.859  3.9622  0.2333 -2.3554
  261MOL0     H35977  10.487   6.440   1.685 -1.5375  1.8775  2.6097
  261MOL0     H35978  10.398   6.283   1.678 -0.3087 -0.9499 -0.5621
  261MOL0     H35979  10.559   6.298   1.765  0.4312  1.3267 -0.5002
  261MOL0     H35980  10.688   6.770   1.717 -1.2760 -0.2785 -2.6213
  261MOL0     H35981  10.917   6.844   1.611  1.6172  0.3421  1.3595
  261MOL0     H35982  11.155   6.550   1.435 -0.6412  0.6478 -1.3825
  261MOL0     H35983  11.035   6.677   1.402 -1.3879 -0.9632  1.3116
  261MOL0     H35984  11.223   6.842   1.377  1.0101  0.3548  3.2061
  261MOL0     H35985  11.318   6.719   1.460  1.1903 -0.1086 -1.3888
  261MOL0     H35986  11.195   6.611   1.203 -0.5811 -0.1425  0.2832
  261MOL0     H35987  11.344   6.585   1.282  0.6532  0.1477  0.2623
  261MOL0     H35988  11.275   6.825   1.117  0.8388  1.3021 -1.0318
  261MOL0     H35989  11.380   6.694   1.074 -2.7454 -0.4004 -0.6346
  261MOL0     H35990  11.426   6.922   1.280 -1.5308 -2.2119  1.5842
  261MOL0     H35991  11.538   6.785   1.284 -1.5925 -1.9386  1.0592
  261MOL0     H35992  11.463   6.953   1.032 -1.1376 -3.2389 -0.7349
  261MOL0     H35993  11.581   6.823   1.028 -4.6002 -0.9667 -1.9531
  261MOL0     H35994  11.732   6.951   1.200 -0.3047  0.1373  1.0921
  261MOL0     H35995  11.622   7.083   1.192 -0.0996 -2.9213  2.1338
  261MOL0     H35996  11.672   7.050   0.912  0.6691  0.1203 -0.5921
  261MOL0     H35997  11.809   6.969   0.991 -0.8055 -0.0496 -1.7425
  261MOL0     H35998  11.084   6.473   1.731  0.8945  1.0886  0.0277
  261MOL0     H35999  10.888   6.411   1.838  0.9658 -1.4254 -1.3895
  261MOL0     H36000  10.383   6.625   2.111 -0.8285  1.0966 -1.4193
  261MOL0     H36001  10.172   6.499   2.163 -0.1778  0.5952 -0.7425
  261MOL0     H36002   8.573   5.257   2.529 -0.2877  0.4997 -2.2384
  261MOL0     H36003   8.380   5.314   2.678  2.9670  1.4282  1.4307
  261MOL0     H36004   8.126   5.707   2.788 -2.1123  2.7710  0.7745
  261MOL0     H36005   7.972   5.777   2.969  1.1322 -0.3947  0.2886
  261MOL0     H36006   7.653   5.772   3.159 -1.2766 -2.9742 -2.7299
  261MOL0     H36007   7.826   5.789   3.136 -0.6563  2.3276  2.2174
  261MOL0     H36008   7.790   5.961   2.957  0.2501 -0.3651  1.4839
  261MOL0     H36009   7.701   6.016   3.106 -3.3865  0.0397 -0.0880
  261MOL0     H36010   7.550   6.080   2.968 -1.3824  0.0490  2.1358
  261MOL0     H36011   7.567   5.948   2.864 -0.9039 -0.5573  1.1855
  261MOL0     H36012   7.455   5.796   3.025  2.4315  0.4417  1.6652
  261MOL0     H36013   7.365   5.932   2.962  1.1801  2.6490 -0.1042
  261MOL0     H36014   7.347   6.022   3.377 -0.7398 -0.3990 -0.4309
  261MOL0     H36015   7.675   5.511   2.818  0.0561 -2.0460 -3.8554
  261MOL0     H36016   7.871   5.323   2.586  0.3238  0.2228 -1.6264
  261MOL0     H36017   7.706   5.366   2.635 -0.3085  0.3673 -3.0521
  261MOL0     H36018   7.783   5.453   2.509 -0.3561  1.2568 -0.0259
  262MOL0     O36019   7.575   1.497   7.752  0.3141 -0.1514  0.0532
  262MOL0     C36020   7.473   1.520   7.691 -0.1292 -0.2286  0.2346
  262MOL0     O36021   7.465   1.542   7.554 -0.2271  0.0977 -0.0202
  262MOL0     C36022   7.581   1.575   7.489  0.6954 -0.0118  0.3605
  262MOL0     C36023   7.613   1.483   7.387 -0.0805  0.3783 -0.0675
  262MOL0     C36024   7.726   1.490   7.304 -1.4131  0.7915 -0.3291
  262MOL0     C36025   7.812   1.595   7.330  0.1484 -0.7454  0.8189
  262MOL0     O36026   7.940   1.621   7.274  0.1650  0.4454 -0.4656
  262MOL0     C36027   7.997   1.513   7.205 -0.1662  0.0989  0.4720
  262MOL0     C36028   8.142   1.562   7.170 -0.2768  0.2449 -0.4769
  262MOL0     C36029   8.133   1.631   7.031 -0.2739 -0.2190 -0.4885
  262MOL0     C36030   8.228   1.745   7.013  1.0585 -0.1547 -0.8436
  262MOL0     C36031   8.246   1.795   6.865 -0.1603 -0.2556  0.0452
  262MOL0     C36032   8.385   1.869   6.842 -0.0351 -1.2404 -0.6010
  262MOL0     C36033   8.506   1.777   6.832 -0.1011  0.4459 -0.5568
  262MOL0     C36034   8.584   1.778   6.696 -0.2465 -0.4899  0.3914
  262MOL0     N36035   8.703   1.689   6.708  1.1762 -0.0534 -0.5695
  262MOL0     C36036   8.834   1.724   6.701 -0.0739  0.4769 -0.2920
  262MOL0     C36037   8.892   1.605   6.731  0.1244 -0.6726 -0.0085
  262MOL0     C36038   9.038   1.590   6.758  0.5416 -0.7261  0.2216
  262MOL0     C36039   9.118   1.584   6.621 -0.0320 -1.1589  0.7512
  262MOL0     C36040   9.119   1.446   6.580 -0.8183  0.1396 -0.3249
  262MOL0     C36041   9.182   1.428   6.445 -0.1543  0.6677  0.6583
  262MOL0     O36042   9.085   1.428   6.339  0.7632  0.0238  0.9150
  262MOL0     C36043   9.122   1.366   6.221 -0.2732 -0.2409  0.7191
  262MOL0     C36044   9.257   1.334   6.192  0.1580  0.2977 -0.6471
  262MOL0     C36045   9.296   1.281   6.070  0.7045  0.8243 -0.0480
  262MOL0     C36046   9.439   1.240   6.043  0.1213 -0.2700 -0.3027
  262MOL0     C36047   9.192   1.257   5.971 -0.0158 -0.5077  0.6208
  262MOL0     C36048   9.222   1.213   5.836  0.2568  0.0602  0.4150
  262MOL0     O36049   9.332   1.257   5.777  0.1709 -0.7478  0.8700
  262MOL0     C36050   9.360   1.197   5.659 -0.7437  0.6341  0.6011
  262MOL0     C36051   9.430   1.070   5.662  0.6128  0.3860  0.2622
  262MOL0     C36052   9.461   1.001   5.540  0.7093  0.4451 -0.2387
  262MOL0     C36053   9.425   1.055   5.418 -0.0720 -0.0095 -0.1789
  262MOL0     O36054   9.456   0.980   5.301  0.1292  0.3744 -0.0904
  262MOL0     C36055   9.407   1.020   5.174 -0.2001 -0.6120 -0.5313
  262MOL0     C36056   9.436   0.906   5.078 -0.0501 -0.1688  0.3587
  262MOL0     C36057   9.411   0.944   4.932 -0.3430 -0.2341  0.1505
  262MOL0     C36058   9.375   0.814   4.857  0.1501  0.0060  0.9569
  262MOL0     C36059   9.325   0.848   4.716 -0.0111 -0.4188  0.3301
  262MOL0     C36060   9.173   0.891   4.721  0.9653 -0.4961 -0.1238
  262MOL0     C36061   9.105   0.938   4.589  0.2911 -0.3902 -0.7385
  262MOL0     C36062   9.144   0.833   4.478  0.5312 -0.5488 -0.4193
  262MOL0    Cl36063   9.078   0.678   4.526 -0.1448 -0.1010 -0.4233
  262MOL0     C36064   9.354   1.172   5.417  0.0188  0.1676  0.1882
  262MOL0     C36065   9.329   1.251   5.536 -0.0948  0.1170 -1.1501
  262MOL0     O36066   9.136   1.146   5.772 -0.1000  0.2585  0.3004
  262MOL0     C36067   9.056   1.291   5.998 -0.2562  0.7544  0.4087
  262MOL0     C36068   9.022   1.341   6.123 -0.9889 -0.0280  0.2734
  262MOL0     N36069   8.794   1.508   6.731 -0.9703 -0.2814  0.5258
  262MOL0     N36070   8.678   1.557   6.732  0.1017 -0.1610 -0.2534
  262MOL0     C36071   7.786   1.691   7.432  0.1859  0.2339  0.9880
  262MOL0     C36072   7.670   1.684   7.512 -0.1326  0.6652 -0.0269
  262MOL0     C36073   7.345   1.512   7.776 -0.7996 -0.1612  0.5366
  262MOL0     C36074   7.353   1.501   7.915  0.0077  0.2894  0.3144
  262MOL0     C36075   7.242   1.516   7.992  0.1831 -0.0227  0.2693
  262MOL0     C36076   7.118   1.538   7.941  0.3487 -0.3797  0.1366
  262MOL0     O36077   7.005   1.568   8.010 -0.3225  0.1468  0.5072
  262MOL0     C36078   7.015   1.532   8.153  0.4213 -0.7455 -1.2435
  262MOL0     C36079   6.998   1.387   8.161 -0.0592  0.4454 -0.0625
  262MOL0     C36080   6.861   1.339   8.100  0.5819  0.3275  0.5729
  262MOL0     C36081   6.855   1.183   8.105  0.0715  0.0262 -1.0233
  262MOL0     C36082   6.719   1.124   8.081 -0.1613 -0.4951  1.0168
  262MOL0     C36083   6.608   1.093   8.049 -0.3454 -1.1344  0.6701
  262MOL0     C36084   7.112   1.552   7.796 -0.6507 -0.6134 -0.5118
  262MOL0     C36085   7.219   1.541   7.712 -0.1234  0.0955 -0.2267
  262MOL0     C36086   7.196   1.570   7.566  0.1323 -0.3734 -0.7786
  262MOL0     H36087   7.534   1.410   7.375 -0.1354 -0.2519  3.1513
  262MOL0     H36088   7.752   1.412   7.233 -1.2623 -2.8726  3.4239
  262MOL0     H36089   7.944   1.496   7.111 -1.6994  2.9944  0.7159
  262MOL0     H36090   8.014   1.426   7.269 -1.4618  1.0580  2.2132
  262MOL0     H36091   8.187   1.628   7.244 -2.3443 -0.8086  1.8638
  262MOL0     H36092   8.204   1.472   7.163 -1.0252 -0.8435  3.7701
  262MOL0     H36093   8.153   1.555   6.955 -0.0401 -0.9171  0.2563
  262MOL0     H36094   8.041   1.685   7.009  0.1262  1.0788  0.8500
  262MOL0     H36095   8.183   1.829   7.068  1.1328  0.5056 -1.7624
  262MOL0     H36096   8.323   1.729   7.065  0.2294  0.9445  1.1389
  262MOL0     H36097   8.163   1.861   6.838  0.6190  0.8461  0.2686
  262MOL0     H36098   8.249   1.711   6.795  0.0683  0.1673 -0.4565
  262MOL0     H36099   8.389   1.929   6.751  4.7153  2.4456  1.5755
  262MOL0     H36100   8.408   1.947   6.915 -0.6022 -2.1035  0.5497
  262MOL0     H36101   8.481   1.671   6.845  0.8220  0.3333  0.4585
  262MOL0     H36102   8.583   1.794   6.908 -0.0288 -0.9618 -0.2720
  262MOL0     H36103   8.515   1.731   6.624 -0.5880 -0.5475  0.7500
  262MOL0     H36104   8.618   1.878   6.671  1.6274 -1.4121 -1.0181
  262MOL0     H36105   8.887   1.818   6.693 -0.2244  0.4127 -2.8176
  262MOL0     H36106   9.067   1.508   6.826 -0.3183  0.8124  2.5712
  262MOL0     H36107   9.066   1.679   6.815  0.5962 -0.0033 -0.9040
  262MOL0     H36108   9.058   1.639   6.548 -1.9577  0.2606  3.2457
  262MOL0     H36109   9.221   1.619   6.613 -0.2610 -0.8892 -2.3202
  262MOL0     H36110   9.179   1.403   6.661 -1.4827 -0.8321 -0.3386
  262MOL0     H36111   9.021   1.398   6.583 -1.9365  2.3294  2.0950
  262MOL0     H36112   9.257   1.506   6.433 -1.9025  2.6612  1.8579
  262MOL0     H36113   9.243   1.338   6.438 -0.3025  0.6844 -1.4686
  262MOL0     H36114   9.331   1.343   6.270  0.7237 -1.1388 -0.9730
  262MOL0     H36115   9.478   1.296   5.957 -0.0353 -1.5080 -1.2149
  262MOL0     H36116   9.452   1.136   6.012 -1.0979  0.0692 -2.1064
  262MOL0     H36117   9.501   1.247   6.133 -0.0808 -1.0154 -0.1018
  262MOL0     H36118   9.461   1.031   5.759 -1.3386  1.6211  1.4727
  262MOL0     H36119   9.517   0.908   5.532 -0.3951 -0.0602 -2.9472
  262MOL0     H36120   9.302   1.046   5.193  0.9186  1.9038  3.3260
  262MOL0     H36121   9.464   1.109   5.145 -2.6558  1.9528  1.8210
  262MOL0     H36122   9.543   0.885   5.088  0.3082  0.9737 -0.8083
  262MOL0     H36123   9.375   0.820   5.109 -1.0707 -0.1589 -1.4840
  262MOL0     H36124   9.486   1.011   4.888 -2.5798  2.0528 -0.4316
  262MOL0     H36125   9.317   1.000   4.930 -0.8389 -1.0014  1.0564
  262MOL0     H36126   9.293   0.763   4.907 -1.7157  2.2284  0.3234
  262MOL0     H36127   9.468   0.757   4.868 -1.0532 -1.7376  2.5970
  262MOL0     H36128   9.395   0.924   4.680 -0.0265  1.4920  3.9339
  262MOL0     H36129   9.325   0.756   4.657 -2.8933 -1.2364  1.4515
  262MOL0     H36130   9.152   0.979   4.783 -0.6195  0.2600 -1.6540
  262MOL0     H36131   9.115   0.813   4.772 -0.2577  0.3566 -0.1626
  262MOL0     H36132   9.151   1.031   4.555 -0.6400  0.0866 -0.7219
  262MOL0     H36133   8.997   0.941   4.603  0.6303  0.8228  2.2337
  262MOL0     H36134   9.253   0.831   4.474  0.5169 -1.8657 -0.5762
  262MOL0     H36135   9.103   0.860   4.381 -2.3844 -1.3781  0.4711
  262MOL0     H36136   9.337   1.239   5.334  0.7365 -0.6192 -0.6045
  262MOL0     H36137   9.281   1.348   5.536  0.2902  0.7798  5.8835
  262MOL0     H36138   8.980   1.288   5.921 -2.0963 -1.1127  2.1924
  262MOL0     H36139   8.918   1.363   6.148 -0.1420  1.3172  3.0303
  262MOL0     H36140   7.849   1.779   7.439  1.5343 -0.2131 -2.8187
  262MOL0     H36141   7.645   1.771   7.572 -1.0972  1.7258 -1.8871
  262MOL0     H36142   7.439   1.455   7.962 -1.2669 -0.8802  1.6127
  262MOL0     H36143   7.263   1.519   8.099 -0.0677  0.1850  0.3145
  262MOL0     H36144   7.100   1.567   8.212 -0.2434 -0.9887 -0.1146
  262MOL0     H36145   6.931   1.584   8.199  2.1092  0.7314  0.2637
  262MOL0     H36146   6.999   1.348   8.263 -1.7495 -0.9356 -0.5076
  262MOL0     H36147   7.076   1.339   8.101  1.2928  1.2164  1.0440
  262MOL0     H36148   6.779   1.383   8.156  0.2774  2.2130 -1.2083
  262MOL0     H36149   6.854   1.363   7.993  0.6033  0.8370  0.6857
  262MOL0     H36150   6.878   1.162   8.210 -0.1107  2.8920 -0.3221
  262MOL0     H36151   6.935   1.137   8.047 -0.6135 -0.4736 -1.5812
  262MOL0     H36152   6.507   1.064   8.035 -2.0974  1.6645  5.0829
  262MOL0     H36153   7.017   1.585   7.755  0.1913  2.1403 -0.4579
  262MOL0     H36154   7.090   1.569   7.539  0.3733 -1.6649 -1.7764
  262MOL0     H36155   7.229   1.674   7.560  3.3365 -1.1137  1.4774
  262MOL0     H36156   7.251   1.501   7.501  4.0983  1.4088  0.4019
  263MOL0     O36157   3.136   0.407   1.675  0.2776 -0.3458 -0.0325
  263MOL0     C36158   3.019   0.375   1.668  0.1306 -0.5710  0.3197
  263MOL0     O36159   2.953   0.278   1.738 -0.5950  0.0469 -0.7659
  263MOL0     C36160   2.998   0.230   1.864 -0.0473 -0.1627 -0.2450
  263MOL0     C36161   3.086   0.292   1.949  0.2194 -0.5635 -0.3270
  263MOL0     C36162   3.133   0.238   2.070 -0.4710  0.3658 -0.5015
  263MOL0     C36163   3.076   0.119   2.119 -0.4548 -0.1433  0.0822
  263MOL0     O36164   3.109   0.084   2.243 -0.0446 -0.0707 -0.3159
  263MOL0     C36165   3.150  -0.050   2.252 -0.3399 -0.7579  0.2370
  263MOL0     C36166   3.042  -0.124   2.335  0.3032  0.1434  0.2472
  263MOL0     C36167   3.068  -0.272   2.361 -0.8477 -0.7362 -1.3151
  263MOL0     C36168   3.206  -0.288   2.424  0.0614  0.9219  0.3180
  263MOL0     C36169   3.207  -0.421   2.506  0.6296  0.5691 -1.0696
  263MOL0     C36170   3.344  -0.447   2.573  0.4347  0.8361 -0.2981
  263MOL0     C36171   3.362  -0.590   2.626  0.7228 -0.0235  0.4256
  263MOL0     C36172   3.280  -0.628   2.753 -0.0199 -0.1949 -0.1553
  263MOL0     N36173   3.134  -0.660   2.732  0.4197  0.3394 -0.0906
  263MOL0     C36174   3.092  -0.741   2.627 -0.3188 -0.1651  0.6665
  263MOL0     C36175   2.957  -0.722   2.616 -0.2802  0.5249  1.0276
  263MOL0     C36176   2.878  -0.780   2.502 -0.9878 -0.3676  0.3897
  263MOL0     C36177   2.882  -0.680   2.402 -0.0221 -0.1696  0.2661
  263MOL0     C36178   2.793  -0.561   2.443  0.2472  0.4454  0.1209
  263MOL0     C36179   2.753  -0.474   2.319  0.2462 -0.2178 -0.4922
  263MOL0     O36180   2.662  -0.371   2.346 -0.3449  0.3313  0.0340
  263MOL0     C36181   2.649  -0.267   2.257  0.7210 -0.5447  0.4784
  263MOL0     C36182   2.653  -0.269   2.116  0.2446  0.3359  0.1140
  263MOL0     C36183   2.615  -0.167   2.030  0.0847 -0.3458  0.1434
  263MOL0     C36184   2.612  -0.212   1.884  0.3737 -0.1480  0.6385
  263MOL0     C36185   2.590  -0.046   2.082 -0.3916 -0.6554  0.4510
  263MOL0     C36186   2.540   0.071   1.999 -0.2266 -0.2756 -0.1936
  263MOL0     O36187   2.549   0.194   2.056  0.0851 -0.3875 -0.0880
  263MOL0     C36188   2.537   0.301   1.969  0.7325  1.4000  0.6817
  263MOL0     C36189   2.650   0.346   1.895 -0.0463 -0.7875  0.1906
  263MOL0     C36190   2.621   0.452   1.801  0.2346 -0.0919 -0.5707
  263MOL0     C36191   2.494   0.501   1.772  0.0460 -0.5471 -0.8713
  263MOL0     O36192   2.472   0.592   1.672  0.1874  0.2202 -0.0686
  263MOL0     C36193   2.582   0.669   1.613  0.1775  0.3431 -0.0137
  263MOL0     C36194   2.543   0.786   1.527  0.8254 -0.2972  0.1043
  263MOL0     C36195   2.465   0.891   1.620 -0.2024  0.7303  0.9826
  263MOL0     C36196   2.438   1.008   1.525 -0.0835 -1.7150  0.0435
  263MOL0     C36197   2.328   1.106   1.586 -0.6353  0.8706  0.3624
  263MOL0     C36198   2.184   1.057   1.575 -0.3152  0.4702  0.8581
  263MOL0     C36199   2.075   1.145   1.638 -0.0729 -0.2442 -0.1096
  263MOL0     C36200   1.941   1.122   1.571  0.7135  0.3052 -0.5714
  263MOL0    Cl36201   1.898   0.950   1.594  0.5103 -0.4167  0.2839
  263MOL0     C36202   2.388   0.456   1.859 -0.2257 -0.2440  0.5423
  263MOL0     C36203   2.412   0.353   1.944  0.2444  0.1171 -0.1038
  263MOL0     O36204   2.511   0.055   1.880  0.2252  0.2806  0.0779
  263MOL0     C36205   2.592  -0.032   2.223  0.5315 -0.8585  0.2350
  263MOL0     C36206   2.623  -0.138   2.309 -0.7894 -0.4814  0.2025
  263MOL0     N36207   2.919  -0.634   2.710 -1.0168 -0.7731 -0.7625
  263MOL0     N36208   3.026  -0.589   2.782 -0.2801 -0.6429 -0.8249
  263MOL0     C36209   2.978   0.062   2.041 -0.7006 -0.1578  0.2180
  263MOL0     C36210   2.948   0.113   1.913 -0.3250  0.1600 -0.2811
  263MOL0     C36211   2.947   0.419   1.550 -0.2648  0.0638 -0.3405
  263MOL0     C36212   2.828   0.351   1.506  0.3406 -0.1201 -0.2865
  263MOL0     C36213   2.769   0.394   1.387 -0.1128  0.0922 -0.3849
  263MOL0     C36214   2.822   0.495   1.304 -0.3317 -0.6515 -1.1094
  263MOL0     O36215   2.761   0.521   1.189 -0.4467  0.2041 -0.2278
  263MOL0     C36216   2.824   0.592   1.079  0.0425  0.0364 -0.4813
  263MOL0     C36217   2.799   0.743   1.092 -0.7082  0.1671  1.0047
  263MOL0     C36218   2.645   0.772   1.077 -0.7785 -0.2337  0.2975
  263MOL0     C36219   2.623   0.913   1.032  0.3448 -0.5732 -0.1538
  263MOL0     C36220   2.666   0.997   1.145 -0.9817 -0.1902 -0.1074
  263MOL0     C36221   2.715   1.049   1.247  0.9786  0.1810 -0.3343
  263MOL0     C36222   2.937   0.552   1.348 -0.3795 -0.6593 -0.4650
  263MOL0     C36223   2.998   0.523   1.470  0.5775 -1.0390  1.1969
  263MOL0     C36224   3.118   0.616   1.492  0.2973  0.3392 -0.2666
  263MOL0     H36225   3.143   0.378   1.914 -1.1564  1.1728  1.4935
  263MOL0     H36226   3.206   0.272   2.142 -2.3167  1.3539  0.9902
  263MOL0     H36227   3.248  -0.040   2.300  0.3473  1.9920 -1.5182
  263MOL0     H36228   3.164  -0.099   2.155 -2.2152  0.9407 -0.9747
  263MOL0     H36229   3.041  -0.082   2.435  1.0135 -2.6689  1.5464
  263MOL0     H36230   2.947  -0.105   2.285  1.7556  2.0940 -2.0064
  263MOL0     H36231   2.990  -0.313   2.426 -0.8915 -0.9328 -1.4911
  263MOL0     H36232   3.064  -0.327   2.267  1.4439 -0.5614 -1.5886
  263MOL0     H36233   3.289  -0.279   2.353  0.0070  3.9936  0.5216
  263MOL0     H36234   3.222  -0.206   2.494 -0.7716  3.0175 -1.8318
  263MOL0     H36235   3.185  -0.510   2.446 -0.3136 -1.0748  1.5316
  263MOL0     H36236   3.130  -0.412   2.584  0.2166  3.0882 -1.6767
  263MOL0     H36237   3.416  -0.448   2.490  2.5357 -0.8328  1.4167
  263MOL0     H36238   3.370  -0.368   2.645 -1.0697  1.2345 -0.1648
  263MOL0     H36239   3.469  -0.586   2.649  0.9094  1.0789 -0.5314
  263MOL0     H36240   3.350  -0.667   2.550  0.6752  1.0680 -0.7050
  263MOL0     H36241   3.318  -0.716   2.806  1.5508  1.6804  2.0563
  263MOL0     H36242   3.288  -0.547   2.827 -2.8868  1.3133 -1.3243
  263MOL0     H36243   3.170  -0.794   2.573  1.0775  1.7266  0.7089
  263MOL0     H36244   2.778  -0.809   2.536 -1.1415 -0.4254 -0.1162
  263MOL0     H36245   2.934  -0.870   2.477 -0.2713  0.9204 -3.1142
  263MOL0     H36246   2.983  -0.644   2.382  0.6253 -1.5496  0.9147
  263MOL0     H36247   2.859  -0.717   2.301  0.3786  0.5027 -0.0791
  263MOL0     H36248   2.696  -0.590   2.485  0.5669 -0.5339  0.2165
  263MOL0     H36249   2.847  -0.501   2.518  0.0570  0.8305 -0.0480
  263MOL0     H36250   2.837  -0.436   2.262  0.5941  2.8644  1.7880
  263MOL0     H36251   2.700  -0.548   2.259  0.9433 -0.3694 -0.9265
  263MOL0     H36252   2.694  -0.360   2.074 -2.9276 -1.8031  1.2271
  263MOL0     H36253   2.654  -0.313   1.882  0.7772 -0.1575  3.8924
  263MOL0     H36254   2.675  -0.142   1.828  0.6650 -0.4035  0.6413
  263MOL0     H36255   2.508  -0.221   1.854  0.1468 -2.8642  1.8722
  263MOL0     H36256   2.751   0.310   1.909  0.8170  1.0590 -0.9694
  263MOL0     H36257   2.703   0.500   1.749 -1.3987  1.9361 -1.4031
  263MOL0     H36258   2.659   0.707   1.681  0.6577  2.9155 -1.8640
  263MOL0     H36259   2.623   0.590   1.549  0.9284  1.3529 -0.7938
  263MOL0     H36260   2.631   0.828   1.477  0.4839 -1.8630 -1.9587
  263MOL0     H36261   2.482   0.746   1.445  2.0797  1.2316 -1.6387
  263MOL0     H36262   2.535   0.928   1.696  0.2425  0.7252  0.5797
  263MOL0     H36263   2.370   0.848   1.651 -0.3796 -0.3565 -0.9390
  263MOL0     H36264   2.399   0.967   1.432 -1.0916 -0.1925 -0.2524
  263MOL0     H36265   2.534   1.059   1.509 -1.3050  1.2077  1.2258
  263MOL0     H36266   2.354   1.131   1.689  0.4915  1.2765 -0.0012
  263MOL0     H36267   2.341   1.197   1.525 -2.3502  0.6276 -0.4363
  263MOL0     H36268   2.171   0.961   1.626  4.1491 -1.5335 -1.2143
  263MOL0     H36269   2.162   1.049   1.468 -0.3897  1.7130  0.7688
  263MOL0     H36270   2.102   1.251   1.632  2.7561 -0.8847 -0.0830
  263MOL0     H36271   2.073   1.125   1.745  1.5995  2.3198  0.4953
  263MOL0     H36272   1.943   1.149   1.465 -3.0985 -0.6727 -1.0438
  263MOL0     H36273   1.858   1.185   1.602 -2.2838 -2.1012 -3.0075
  263MOL0     H36274   2.285   0.477   1.829 -0.2066 -0.1342  0.5537
  263MOL0     H36275   2.322   0.323   1.997 -1.4587  0.1793 -2.7797
  263MOL0     H36276   2.544   0.059   2.257  0.2414  0.8749 -4.0874
  263MOL0     H36277   2.627  -0.123   2.417 -0.6071  0.0418  0.1208
  263MOL0     H36278   2.922  -0.024   2.077  0.6187 -1.1871 -0.1046
  263MOL0     H36279   2.895   0.059   1.834  1.8805  1.1736 -2.6217
  263MOL0     H36280   2.773   0.277   1.563  1.6205  1.0969  2.7494
  263MOL0     H36281   2.685   0.334   1.354 -0.3184 -0.0935  0.4402
  263MOL0     H36282   2.931   0.567   1.075 -0.4166 -2.8530  1.5384
  263MOL0     H36283   2.776   0.549   0.991 -1.7319 -0.9521  0.8938
  263MOL0     H36284   2.844   0.800   1.011 -0.5678 -1.2524  0.0385
  263MOL0     H36285   2.833   0.775   1.191 -2.8265  1.7223  1.2964
  263MOL0     H36286   2.609   0.699   1.004  3.5401 -0.0099 -2.4155
  263MOL0     H36287   2.584   0.764   1.167 -1.2634  1.2970  0.1402
  263MOL0     H36288   2.516   0.923   1.011 -0.0596 -0.8814  1.5913
  263MOL0     H36289   2.685   0.939   0.946  2.3145 -0.5010  1.2206
  263MOL0     H36290   2.753   1.116   1.322  1.0189  0.2259 -0.3947
  263MOL0     H36291   2.978   0.641   1.300  0.7094 -1.7552 -1.6458
  263MOL0     H36292   3.142   0.624   1.598  1.3021  0.2758 -0.4806
  263MOL0     H36293   3.208   0.585   1.439  1.6585  3.1770  0.2386
  263MOL0     H36294   3.096   0.718   1.460 -0.0841  0.2577 -0.2756
  264MOL0     O36295   0.213   7.794   4.682 -0.6321 -0.3826 -0.4107
  264MOL0     C36296   0.230   7.775   4.558 -0.0127 -0.0023  0.0836
  264MOL0     O36297   0.131   7.744   4.469  0.2251  0.0221 -0.1468
  264MOL0     C36298   0.013   7.696   4.522 -0.8547  0.1605  0.7343
  264MOL0     C36299  -0.082   7.784   4.565  0.9319 -0.3815  0.5546
  264MOL0     C36300  -0.213   7.739   4.601  1.1312  0.8835 -0.5136
  264MOL0     C36301  -0.243   7.596   4.591  0.0128 -0.2828  0.4081
  264MOL0     O36302  -0.367   7.549   4.629  0.3261  0.7834 -1.2495
  264MOL0     C36303  -0.398   7.407   4.615 -0.6398 -0.3883 -0.4001
  264MOL0     C36304  -0.543   7.377   4.633 -0.0319 -0.4888  0.0121
  264MOL0     C36305  -0.579   7.392   4.778 -0.5111  0.3322 -0.1138
  264MOL0     C36306  -0.723   7.351   4.807  0.0812  0.8590 -0.2194
  264MOL0     C36307  -0.756   7.360   4.959  0.0482 -0.0731 -0.0768
  264MOL0     C36308  -0.743   7.231   5.041  0.6855  0.4164 -0.6936
  264MOL0     C36309  -0.828   7.111   4.998  0.2488 -1.0051 -0.3358
  264MOL0     C36310  -0.848   6.997   5.103 -0.3095 -0.5087 -0.3374
  264MOL0     N36311  -0.724   6.939   5.157  0.2438 -0.0309 -0.2866
  264MOL0     C36312  -0.682   6.814   5.124 -1.1195 -0.4392  0.1281
  264MOL0     C36313  -0.564   6.797   5.190 -0.0815  0.9833 -0.2483
  264MOL0     C36314  -0.492   6.668   5.174  0.3058 -0.6615 -1.2503
  264MOL0     C36315  -0.359   6.671   5.259  1.0560  0.1445  1.0165
  264MOL0     C36316  -0.307   6.531   5.269 -0.2610  0.3826 -0.1531
  264MOL0     C36317  -0.175   6.536   5.352 -0.7302  0.4818  0.1604
  264MOL0     O36318  -0.132   6.400   5.381 -0.2617 -0.1927 -1.2521
  264MOL0     C36319  -0.039   6.395   5.478 -0.2527  0.0994 -0.2627
  264MOL0     C36320   0.070   6.475   5.495  0.0047 -0.3866  0.2274
  264MOL0     C36321   0.170   6.445   5.597  0.0724 -1.0270  0.7280
  264MOL0     C36322   0.291   6.533   5.608 -0.2724 -0.7703  0.1202
  264MOL0     C36323   0.157   6.327   5.676  0.4611 -0.1766  0.1666
  264MOL0     C36324   0.251   6.271   5.783  0.0769 -0.7095  0.2526
  264MOL0     O36325   0.344   6.362   5.831 -0.5530 -0.1042 -0.3970
  264MOL0     C36326   0.440   6.327   5.928 -0.0023 -1.0179 -1.0532
  264MOL0     C36327   0.414   6.232   6.029 -0.1463 -0.0737 -0.2168
  264MOL0     C36328   0.507   6.194   6.121 -0.3362  0.2880 -0.8111
  264MOL0     C36329   0.638   6.255   6.120 -0.8793 -0.6705 -0.3368
  264MOL0     O36330   0.732   6.232   6.223  0.3307  0.6777 -0.0015
  264MOL0     C36331   0.722   6.106   6.285 -0.8813 -0.1964 -0.2308
  264MOL0     C36332   0.833   6.092   6.391  0.6337 -0.7120 -0.1586
  264MOL0     C36333   0.973   6.089   6.326 -0.0037  0.7275 -0.0808
  264MOL0     C36334   1.000   5.948   6.284 -0.6794  0.9636 -0.0868
  264MOL0     C36335   1.137   5.927   6.211  0.0415  0.4992  0.1742
  264MOL0     C36336   1.176   5.776   6.186 -0.3884  0.8063  0.2272
  264MOL0     C36337   1.092   5.706   6.081  0.8478 -0.6967  0.2121
  264MOL0     C36338   1.111   5.560   6.090  0.1674 -0.0949  0.5438
  264MOL0    Cl36339   1.036   5.485   5.940  0.0851 -0.4387  0.1392
  264MOL0     C36340   0.667   6.357   6.024 -0.0848 -0.4113  0.7468
  264MOL0     C36341   0.569   6.382   5.923  0.7034 -0.1421 -0.1725
  264MOL0     O36342   0.239   6.154   5.812  0.2888  0.5365 -0.8343
  264MOL0     C36343   0.029   6.259   5.670 -0.5625 -0.1246  0.1290
  264MOL0     C36344  -0.059   6.288   5.568  0.1927 -0.8993  0.8556
  264MOL0     N36345  -0.531   6.911   5.252  0.9821 -0.2380  0.2660
  264MOL0     N36346  -0.629   6.997   5.234  0.0239  0.5617  0.0713
  264MOL0     C36347  -0.134   7.510   4.554 -0.3442 -0.1839 -0.4415
  264MOL0     C36348  -0.010   7.557   4.511 -0.2962 -0.2380 -0.7832
  264MOL0     C36349   0.370   7.791   4.518  0.3448  0.1117 -0.4779
  264MOL0     C36350   0.482   7.760   4.611  0.4136 -0.3573 -0.4397
  264MOL0     C36351   0.615   7.773   4.567 -0.2160 -0.2832 -0.2058
  264MOL0     C36352   0.641   7.827   4.447  1.2869  0.1585  0.5276
  264MOL0     O36353   0.771   7.836   4.401  0.4451 -0.2295  0.3469
  264MOL0     C36354   0.816   7.760   4.292 -0.3861  0.1047 -0.3628
  264MOL0     C36355   0.852   7.822   4.161 -0.6877 -0.4207  0.8492
  264MOL0     C36356   0.919   7.960   4.183  0.0640 -0.7414  0.1322
  264MOL0     C36357   1.005   8.004   4.063 -0.6443 -1.2310 -0.4582
  264MOL0     C36358   1.134   7.939   4.063  1.1379 -0.2922 -0.0786
  264MOL0     C36359   1.240   7.885   4.073  0.2823 -0.4096  0.3847
  264MOL0     C36360   0.538   7.863   4.361 -0.1268  0.0719  0.0211
  264MOL0     C36361   0.404   7.854   4.395  0.5078  1.1967 -0.7227
  264MOL0     C36362   0.300   7.904   4.303  0.7287  0.2718  0.7872
  264MOL0     H36363  -0.062   7.890   4.565 -0.6694 -0.0475 -0.2378
  264MOL0     H36364  -0.290   7.808   4.634 -0.6509 -2.3198  2.7616
  264MOL0     H36365  -0.338   7.351   4.688  0.0316 -0.1116 -0.7297
  264MOL0     H36366  -0.375   7.384   4.511 -3.9057  2.9153 -2.1002
  264MOL0     H36367  -0.607   7.451   4.584  1.4990  3.5635  3.4561
  264MOL0     H36368  -0.559   7.274   4.601 -0.5157 -0.1821 -0.7412
  264MOL0     H36369  -0.516   7.326   4.839 -0.5258  1.1160  0.7853
  264MOL0     H36370  -0.575   7.498   4.805 -3.7718  0.3011  0.8749
  264MOL0     H36371  -0.787   7.425   4.757 -0.7794 -0.3296 -0.9327
  264MOL0     H36372  -0.749   7.256   4.761 -1.5751  0.7322  0.8879
  264MOL0     H36373  -0.856   7.395   4.986 -0.7946  0.0494 -3.0141
  264MOL0     H36374  -0.692   7.431   5.012 -1.4013  0.5582  0.8822
  264MOL0     H36375  -0.641   7.198   5.020  0.6750 -0.4796  0.5463
  264MOL0     H36376  -0.759   7.245   5.148 -1.6483 -0.5703 -0.8279
  264MOL0     H36377  -0.794   7.068   4.903  0.7323  1.1169 -1.1768
  264MOL0     H36378  -0.930   7.146   4.979 -1.2446 -4.1115  1.1484
  264MOL0     H36379  -0.917   7.046   5.173 -0.3661 -1.1674  0.0720
  264MOL0     H36380  -0.912   6.919   5.060 -0.3226  0.2325 -1.7130
  264MOL0     H36381  -0.722   6.739   5.056  1.3995 -2.1048  0.3552
  264MOL0     H36382  -0.475   6.658   5.066  0.7368 -0.2917 -1.2190
  264MOL0     H36383  -0.552   6.583   5.209 -0.2891  0.2508  0.0303
  264MOL0     H36384  -0.280   6.736   5.220  1.6570  0.1072  2.1511
  264MOL0     H36385  -0.382   6.699   5.362 -6.9378 -1.3631  0.3092
  264MOL0     H36386  -0.372   6.464   5.324 -1.1730 -0.2622 -1.9260
  264MOL0     H36387  -0.280   6.492   5.170  3.6568  3.0055 -0.3524
  264MOL0     H36388  -0.105   6.600   5.297 -1.4072  1.3554  0.2734
  264MOL0     H36389  -0.191   6.586   5.448  0.0129  0.9717  0.0397
  264MOL0     H36390   0.081   6.563   5.431 -1.1909  1.7603  2.8006
  264MOL0     H36391   0.309   6.549   5.715  0.4700 -1.2234  0.0693
  264MOL0     H36392   0.276   6.634   5.566  2.1915 -1.1707 -1.9491
  264MOL0     H36393   0.370   6.482   5.553  0.1720 -0.9655  0.9349
  264MOL0     H36394   0.317   6.185   6.044 -1.2046  2.1573  0.4072
  264MOL0     H36395   0.470   6.126   6.197  1.9992 -3.2818 -2.5752
  264MOL0     H36396   0.631   6.105   6.345 -1.2645 -0.1478 -0.8051
  264MOL0     H36397   0.721   6.018   6.219 -0.1838  1.0897 -2.0449
  264MOL0     H36398   0.815   6.184   6.447 -2.9848 -0.9549 -0.6749
  264MOL0     H36399   0.827   6.000   6.451  1.1857 -1.4616 -1.2386
  264MOL0     H36400   1.048   6.116   6.401  0.0196  1.0149 -0.2068
  264MOL0     H36401   0.987   6.164   6.248 -1.1610  0.3187 -0.7000
  264MOL0     H36402   0.916   5.922   6.218  0.4125 -0.3550 -1.0016
  264MOL0     H36403   0.988   5.891   6.376 -0.3418  1.7899  0.4773
  264MOL0     H36404   1.154   5.990   6.123  5.2142  0.2351  0.6575
  264MOL0     H36405   1.218   5.962   6.276  2.3815  0.3484 -2.4623
  264MOL0     H36406   1.154   5.722   6.279  0.5672  2.5818  1.5524
  264MOL0     H36407   1.283   5.772   6.166 -0.3065  1.1291  0.5957
  264MOL0     H36408   1.123   5.744   5.984 -0.0124  2.7813  1.1414
  264MOL0     H36409   0.985   5.730   6.089  1.1245  0.5569  0.4270
  264MOL0     H36410   1.070   5.518   6.182  1.4611 -2.8877 -0.0611
  264MOL0     H36411   1.218   5.542   6.077 -0.3344 -1.1219 -3.1472
  264MOL0     H36412   0.766   6.400   6.013  0.7120 -2.6056 -1.7344
  264MOL0     H36413   0.592   6.460   5.851  2.3192  0.3005  0.7747
  264MOL0     H36414   0.007   6.178   5.739  0.0326 -0.3986 -0.0014
  264MOL0     H36415  -0.141   6.218   5.554 -1.3293  1.1110 -1.0158
  264MOL0     H36416  -0.149   7.403   4.553 -0.8363 -0.1478  0.9893
  264MOL0     H36417   0.067   7.485   4.485  0.5002 -0.1008  1.0030
  264MOL0     H36418   0.455   7.717   4.707 -0.5100  0.3656 -0.3589
  264MOL0     H36419   0.700   7.744   4.628  1.2004  0.3177 -1.7986
  264MOL0     H36420   0.908   7.707   4.319  0.0369 -0.7995 -3.2696
  264MOL0     H36421   0.738   7.687   4.271 -0.8835  0.8993 -1.3302
  264MOL0     H36422   0.758   7.833   4.106 -0.7009 -1.9883  0.5222
  264MOL0     H36423   0.919   7.761   4.099  1.1857  2.1151  0.2169
  264MOL0     H36424   0.840   8.035   4.196 -1.0139 -1.8074 -0.0839
  264MOL0     H36425   0.980   7.952   4.274 -0.0679  0.0565  0.2983
  264MOL0     H36426   1.020   8.112   4.075  0.3150 -1.4613  0.5874
  264MOL0     H36427   0.950   7.993   3.969 -1.1282  0.6142 -0.4295
  264MOL0     H36428   1.339   7.848   4.092  0.0075 -2.1557 -1.2904
  264MOL0     H36429   0.562   7.913   4.267  0.2958  0.2508  0.2239
  264MOL0     H36430   0.227   7.970   4.351  2.0585  0.9631  1.9470
  264MOL0     H36431   0.333   7.963   4.217  1.3656  1.5280  1.8464
  264MOL0     H36432   0.252   7.818   4.255  1.1300  1.5219 -2.0946
  265MOL0     O36433   5.604   6.962  11.191  0.2221 -0.4458 -0.2325
  265MOL0     C36434   5.536   6.897  11.276 -0.5458  0.1615  1.4063
  265MOL0     O36435   5.573   6.867  11.402  1.0074  0.2840 -0.0238
  265MOL0     C36436   5.694   6.900  11.442  0.0200 -0.4672 -0.0881
  265MOL0     C36437   5.787   6.807  11.482  0.0104  0.6105  0.0182
  265MOL0     C36438   5.910   6.841  11.542  1.3531  0.1444 -0.6353
  265MOL0     C36439   5.942   6.974  11.548 -0.0007 -0.0043 -0.4235
  265MOL0     O36440   6.066   6.995  11.600  0.2435 -0.8877 -0.7219
  265MOL0     C36441   6.155   7.065  11.503 -0.3760  0.4756 -0.3143
  265MOL0     C36442   6.291   6.985  11.513  1.0342 -0.4967 -0.3840
  265MOL0     C36443   6.368   7.018  11.643 -0.1874  0.8568 -0.2882
  265MOL0     C36444   6.498   6.938  11.625 -0.0720  0.2538  0.1516
  265MOL0     C36445   6.603   7.009  11.716 -0.8877  0.1202  0.4723
  265MOL0     C36446   6.727   6.916  11.727 -0.5778 -0.7720 -0.0589
  265MOL0     C36447   6.845   6.979  11.806  0.3487  1.1017 -0.3728
  265MOL0     C36448   6.956   6.872  11.840  1.7034 -0.8628 -0.3377
  265MOL0     N36449   7.065   6.930  11.916  0.6360 -0.3072 -0.0418
  265MOL0     C36450   7.181   6.871  11.942 -0.1907  0.2679 -0.2363
  265MOL0     C36451   7.241   6.943  12.037 -1.1268 -0.3160 -0.2131
  265MOL0     C36452   7.360   6.900  12.109 -0.7480  0.4768  0.2763
  265MOL0     C36453   7.483   6.934  12.026 -0.2562 -0.0062  0.9135
  265MOL0     C36454   7.615   6.898  12.099  0.5866  0.4303  0.1082
  265MOL0     C36455   7.734   6.902  12.000 -0.5764 -1.0254 -0.3625
  265MOL0     O36456   7.780   7.041  12.002  0.0160 -0.1775  0.6578
  265MOL0     C36457   7.907   7.061  11.957  0.7228  0.1009 -0.3438
  265MOL0     C36458   7.975   6.986  11.862 -0.0610 -0.5200  0.3143
  265MOL0     C36459   8.112   7.020  11.828  0.2888 -0.9318 -0.5046
  265MOL0     C36460   8.182   6.929  11.736  0.4369 -0.2053  0.1638
  265MOL0     C36461   8.178   7.138  11.891 -0.1539 -0.6305  0.4336
  265MOL0     C36462   8.317   7.192  11.863 -1.0516  0.2250  0.0998
  265MOL0     O36463   8.383   7.235  11.975  0.1443 -0.5424  0.4584
  265MOL0     C36464   8.507   7.290  11.960 -0.6961 -0.4707 -0.5727
  265MOL0     C36465   8.513   7.428  11.992  0.1633 -0.6647 -0.3170
  265MOL0     C36466   8.636   7.487  11.996 -0.3354 -0.1395  0.2055
  265MOL0     C36467   8.752   7.420  11.956 -0.0399  0.3300  0.5221
  265MOL0     O36468   8.867   7.494  11.967  0.8440 -0.5222  1.2833
  265MOL0     C36469   8.986   7.421  11.980 -0.8683  0.2388 -0.3050
  265MOL0     C36470   9.107   7.519  12.017  0.6573 -0.3930  0.3883
  265MOL0     C36471   9.139   7.625  11.905 -0.8657 -0.8367 -0.2294
  265MOL0     C36472   9.245   7.727  11.956 -0.4144  0.6504 -1.1243
  265MOL0     C36473   9.360   7.654  12.026 -0.1516 -0.1297  0.3643
  265MOL0     C36474   9.465   7.767  12.063  0.8028 -0.1477 -0.5045
  265MOL0     C36475   9.589   7.709  12.132 -0.4096  0.3317  0.2658
  265MOL0     C36476   9.653   7.789  12.244  0.3397 -0.3270  0.9748
  265MOL0    Cl36477   9.828   7.740  12.248 -0.4312 -0.2116 -0.2319
  265MOL0     C36478   8.736   7.289  11.905  0.1122  0.7323 -0.0692
  265MOL0     C36479   8.618   7.222  11.911 -0.0410  0.0890  0.3107
  265MOL0     O36480   8.362   7.192  11.745  0.2806  0.8766  0.3966
  265MOL0     C36481   8.095   7.208  11.982 -0.5726  0.9742 -0.6473
  265MOL0     C36482   7.968   7.164  12.022 -0.9842  0.2197  0.0157
  265MOL0     N36483   7.163   7.047  12.075 -0.4644 -0.3387  0.2276
  265MOL0     N36484   7.060   7.040  12.002  0.7774  0.2297 -0.4131
  265MOL0     C36485   5.851   7.074  11.506 -0.7560  0.6232  0.5118
  265MOL0     C36486   5.732   7.035  11.454  0.5211 -0.4433  0.5544
  265MOL0     C36487   5.412   6.828  11.225 -0.2407 -0.2191  0.7708
  265MOL0     C36488   5.376   6.704  11.288 -0.6192 -1.5796 -0.6715
  265MOL0     C36489   5.265   6.632  11.246  0.2650 -0.2925  0.3580
  265MOL0     C36490   5.201   6.656  11.121 -0.3490 -0.3433  0.9171
  265MOL0     O36491   5.102   6.567  11.076  0.2602 -0.0439  0.5810
  265MOL0     C36492   5.021   6.616  10.969 -0.3225 -0.8593  0.0748
  265MOL0     C36493   4.922   6.508  10.949  0.4279 -0.2605  0.8428
  265MOL0     C36494   4.823   6.559  10.836 -0.3237  0.2127 -1.2958
  265MOL0     C36495   4.713   6.465  10.806 -0.5059  0.4938  0.6748
  265MOL0     C36496   4.774   6.345  10.749  0.1863  0.6324 -0.1054
  265MOL0     C36497   4.831   6.240  10.737  0.3914 -0.3978 -0.8798
  265MOL0     C36498   5.241   6.774  11.055 -1.2715 -0.3396 -0.2231
  265MOL0     C36499   5.350   6.863  11.100 -0.0724 -0.2363  0.9345
  265MOL0     C36500   5.375   6.992  11.013 -0.2361 -0.1439 -0.1596
  265MOL0     H36501   5.771   6.700  11.471  1.8216  0.4363 -1.5178
  265MOL0     H36502   5.976   6.775  11.596 -0.6395 -1.7419 -0.3859
  265MOL0     H36503   6.162   7.171  11.529 -1.4735  0.2916  0.7991
  265MOL0     H36504   6.117   7.058  11.401 -1.6688 -1.1790  0.2345
  265MOL0     H36505   6.274   6.878  11.498 -1.8207 -0.3944  1.3713
  265MOL0     H36506   6.348   7.027  11.430 -0.2647 -0.2390 -1.1729
  265MOL0     H36507   6.380   7.124  11.665 -3.0549  1.3502 -0.8028
  265MOL0     H36508   6.310   6.974  11.725  1.5294  1.4381  1.3394
  265MOL0     H36509   6.484   6.835  11.657 -1.2457  0.4022  0.1494
  265MOL0     H36510   6.530   6.936  11.520  0.4010 -0.6541  0.3081
  265MOL0     H36511   6.561   7.019  11.816 -0.4745 -0.4845  0.7123
  265MOL0     H36512   6.635   7.095  11.656  0.0969 -1.5427 -1.5553
  265MOL0     H36513   6.688   6.828  11.779  2.6279  0.4120  5.0456
  265MOL0     H36514   6.769   6.891  11.629  4.1125  0.7817  1.3023
  265MOL0     H36515   6.801   7.014  11.900 -1.6236 -0.4254 -0.6689
  265MOL0     H36516   6.889   7.063  11.752  1.9660 -1.2556 -3.0599
  265MOL0     H36517   6.903   6.811  11.914 -0.6514  0.1271 -1.1074
  265MOL0     H36518   6.990   6.818  11.751  2.6579 -0.1122 -0.4400
  265MOL0     H36519   7.230   6.780  11.908 -0.1180  0.4355 -0.5854
  265MOL0     H36520   7.352   6.794  12.135 -0.6093 -0.8380 -4.1385
  265MOL0     H36521   7.368   6.964  12.196 -0.9694 -0.9357  1.3756
  265MOL0     H36522   7.479   6.877  11.932  2.4431  1.0225  0.0773
  265MOL0     H36523   7.490   7.041  12.006 -0.3822  0.4665  3.1316
  265MOL0     H36524   7.627   6.959  12.189  1.4204 -0.8388  0.8918
  265MOL0     H36525   7.604   6.800  12.147 -0.5973  0.7087  0.4658
  265MOL0     H36526   7.810   6.838  12.045 -0.9300 -2.3015 -1.5066
  265MOL0     H36527   7.702   6.877  11.899 -1.2830  0.9914 -0.6924
  265MOL0     H36528   7.929   6.898  11.818  1.8140 -0.8597 -1.1239
  265MOL0     H36529   8.186   6.962  11.632 -4.6297 -1.2544 -0.6428
  265MOL0     H36530   8.134   6.831  11.727  1.0014 -0.3350 -1.7996
  265MOL0     H36531   8.286   6.919  11.769  0.8932 -0.4553 -1.2777
  265MOL0     H36532   8.427   7.482  12.031  1.0044  0.0242  0.6235
  265MOL0     H36533   8.634   7.592  12.025 -0.8721  0.0230 -0.3982
  265MOL0     H36534   8.970   7.337  12.048  0.9115 -0.5814 -0.8320
  265MOL0     H36535   9.003   7.377  11.881 -0.4785  0.6821 -0.4427
  265MOL0     H36536   9.080   7.574  12.108  0.1695  1.2251 -0.7032
  265MOL0     H36537   9.194   7.452  12.027  0.5403 -1.2425 -2.9718
  265MOL0     H36538   9.046   7.678  11.884 -0.2628  0.3765  0.0437
  265MOL0     H36539   9.177   7.581  11.813  0.0410  2.4495 -1.5585
  265MOL0     H36540   9.189   7.785  12.030 -1.2395 -1.0521 -0.3593
  265MOL0     H36541   9.298   7.786  11.880  1.4813  0.3080 -0.1093
  265MOL0     H36542   9.325   7.599  12.113 -1.6925 -1.2857 -0.9337
  265MOL0     H36543   9.404   7.584  11.955 -0.1194  0.6741 -0.4413
  265MOL0     H36544   9.419   7.845  12.124 -1.9722 -0.8369 -1.5483
  265MOL0     H36545   9.496   7.826  11.976 -0.6175  0.8310 -0.3684
  265MOL0     H36546   9.654   7.687  12.047 -0.9321  0.2582 -0.1176
  265MOL0     H36547   9.563   7.609  12.168 -0.2011  0.1247 -0.1579
  265MOL0     H36548   9.609   7.776  12.343  1.8801  2.6177  2.1954
  265MOL0     H36549   9.650   7.897  12.225  2.7261 -0.1812  1.1368
  265MOL0     H36550   8.831   7.241  11.885  1.2622  2.3681  1.2564
  265MOL0     H36551   8.607   7.117  11.883 -2.1419  0.2470  0.3780
  265MOL0     H36552   8.147   7.285  12.037  0.5160 -1.3927  1.8818
  265MOL0     H36553   7.911   7.216  12.099  0.2000  0.1678  0.9518
  265MOL0     H36554   5.872   7.179  11.489  3.9234 -0.7009 -4.7288
  265MOL0     H36555   5.656   7.107  11.423  0.7976 -1.0083 -1.5690
  265MOL0     H36556   5.419   6.682  11.385  3.2318 -0.7387 -1.9918
  265MOL0     H36557   5.248   6.533  11.287 -0.1580 -0.8449 -1.0530
  265MOL0     H36558   4.961   6.701  11.002  0.3590  0.5961 -2.2153
  265MOL0     H36559   5.079   6.644  10.881 -0.0347  1.9335  1.0649
  265MOL0     H36560   4.874   6.487  11.045 -0.1531  0.0422  0.6240
  265MOL0     H36561   4.970   6.410  10.934 -0.7373 -0.6502 -0.6223
  265MOL0     H36562   4.775   6.648  10.878 -1.4764 -1.0186  0.1337
  265MOL0     H36563   4.874   6.579  10.741  1.1506  0.4739 -0.4821
  265MOL0     H36564   4.638   6.496  10.733  1.4473 -2.6980 -3.0330
  265MOL0     H36565   4.668   6.423  10.897  0.7091 -1.1947  0.5458
  265MOL0     H36566   4.899   6.158  10.725  1.2208 -0.1382  1.5063
  265MOL0     H36567   5.190   6.807  10.965  0.3875  3.0388 -0.0947
  265MOL0     H36568   5.464   6.988  10.949  0.1513 -0.4733  0.3894
  265MOL0     H36569   5.294   7.013  10.943  0.2163  3.6098  0.2274
  265MOL0     H36570   5.383   7.081  11.076 -2.0537 -1.1528  1.5828
  266MOL0     O36571   0.055   3.825   5.523  0.7054 -0.8421 -0.6068
  266MOL0     C36572   0.073   3.872   5.640 -0.3659 -0.4057  1.0356
  266MOL0     O36573   0.192   3.896   5.688  0.8583 -0.0948  0.2057
  266MOL0     C36574   0.285   3.940   5.597 -0.5392 -0.3518  0.0704
  266MOL0     C36575   0.336   3.858   5.493 -0.4983  0.6402 -1.0006
  266MOL0     C36576   0.432   3.910   5.403  0.1915  0.1467  1.0391
  266MOL0     C36577   0.474   4.041   5.419 -1.0085  0.2860  0.3590
  266MOL0     O36578   0.549   4.086   5.312 -0.3896 -0.5245  0.1543
  266MOL0     C36579   0.532   4.217   5.276 -1.0125 -0.2266  0.6612
  266MOL0     C36580   0.616   4.241   5.149  0.2143  0.2517 -0.4745
  266MOL0     C36581   0.769   4.222   5.175 -0.1099 -0.9324  1.6916
  266MOL0     C36582   0.819   4.298   5.303  0.1901  0.3169  1.0867
  266MOL0     C36583   0.957   4.347   5.294 -0.8632 -0.4589  0.2710
  266MOL0     C36584   0.976   4.459   5.189 -0.8120 -0.1334 -0.3219
  266MOL0     C36585   1.110   4.525   5.225 -1.1109 -0.0033  0.8812
  266MOL0     C36586   1.232   4.424   5.243 -0.4854  0.2730  0.0382
  266MOL0     N36587   1.359   4.498   5.234 -0.1269 -0.2521 -0.7894
  266MOL0     C36588   1.427   4.553   5.336  0.0753 -0.6023 -0.2436
  266MOL0     C36589   1.534   4.624   5.280 -0.2638  0.0009 -0.1767
  266MOL0     C36590   1.651   4.680   5.352 -0.9629  0.1678 -0.3575
  266MOL0     C36591   1.763   4.743   5.251  0.2077 -0.4179 -0.2801
  266MOL0     C36592   1.898   4.773   5.322 -0.1717  0.1000  0.9141
  266MOL0     C36593   1.971   4.644   5.372  0.9041  0.2210  0.8907
  266MOL0     O36594   2.039   4.581   5.265 -0.1393  0.2364  0.5927
  266MOL0     C36595   2.173   4.603   5.232 -0.7390  0.3064  0.1816
  266MOL0     C36596   2.224   4.552   5.109  0.2946 -0.3818 -0.0544
  266MOL0     C36597   2.349   4.584   5.066  0.2534 -0.6678  0.0270
  266MOL0     C36598   2.398   4.540   4.933  0.8779  0.0698 -0.1662
  266MOL0     C36599   2.438   4.659   5.152 -0.1756 -0.4256  0.2375
  266MOL0     C36600   2.575   4.697   5.126  0.6388  0.3194  0.2236
  266MOL0     O36601   2.626   4.814   5.185  0.1317  0.0887 -0.3276
  266MOL0     C36602   2.761   4.847   5.154 -0.2742  0.3929  0.5737
  266MOL0     C36603   2.855   4.793   5.242  0.8395 -0.2509 -0.0515
  266MOL0     C36604   2.986   4.826   5.238 -0.6381 -0.0761 -0.7486
  266MOL0     C36605   3.028   4.912   5.138 -0.5472 -0.3818  0.1986
  266MOL0     O36606   3.163   4.954   5.154 -0.2808 -0.2660 -0.2975
  266MOL0     C36607   3.237   4.933   5.033  0.5397 -0.7490  0.2186
  266MOL0     C36608   3.372   5.012   5.039  0.0044 -0.3070 -0.6716
  266MOL0     C36609   3.462   4.973   5.155  0.4392  0.0029  1.1614
  266MOL0     C36610   3.611   5.023   5.143  0.3937 -0.1479  0.2341
  266MOL0     C36611   3.676   4.974   5.278 -0.1595  0.5679 -0.3179
  266MOL0     C36612   3.830   4.990   5.285 -0.5305  0.0568  0.7234
  266MOL0     C36613   3.882   4.911   5.408  0.1065  0.3185  0.3031
  266MOL0     C36614   4.031   4.929   5.446 -0.0590  0.2748 -0.3108
  266MOL0    Cl36615   4.125   4.864   5.312 -0.2760  0.4366 -0.1769
  266MOL0     C36616   2.928   4.968   5.047 -0.2683  0.1471 -0.7256
  266MOL0     C36617   2.796   4.933   5.048  0.7985  0.4574  0.3414
  266MOL0     O36618   2.647   4.619   5.057 -0.7007 -0.6998 -0.3560
  266MOL0     C36619   2.384   4.720   5.273  0.1033 -0.1844  0.2176
  266MOL0     C36620   2.253   4.684   5.306  0.0237 -0.6543 -0.5471
  266MOL0     N36621   1.518   4.620   5.146  0.0098 -0.8986  0.3868
  266MOL0     N36622   1.429   4.530   5.121  0.2814  0.2893  0.1195
  266MOL0     C36623   0.430   4.123   5.526  0.2875  0.1235 -0.1140
  266MOL0     C36624   0.336   4.066   5.608 -0.9971 -0.0314 -0.2318
  266MOL0     C36625  -0.045   3.891   5.729  0.2883 -0.3026  0.6421
  266MOL0     C36626  -0.018   3.886   5.869  0.1083  0.0778  0.0430
  266MOL0     C36627  -0.117   3.904   5.965 -0.2608  0.0226  0.2142
  266MOL0     C36628  -0.248   3.920   5.933  0.8364 -0.1662  0.5172
  266MOL0     O36629  -0.346   3.922   6.030 -0.2094  0.5125 -0.3636
  266MOL0     C36630  -0.478   3.979   6.000 -0.0788 -0.9811  0.7123
  266MOL0     C36631  -0.489   4.129   5.943  0.0348  0.2061  0.2065
  266MOL0     C36632  -0.416   4.233   6.021 -0.1446 -0.0330  1.0641
  266MOL0     C36633  -0.478   4.255   6.156 -0.2608  0.8094 -0.0996
  266MOL0     C36634  -0.382   4.349   6.225  0.4227 -0.0640  0.6588
  266MOL0     C36635  -0.305   4.424   6.275 -0.1404  0.9014 -0.7440
  266MOL0     C36636  -0.274   3.917   5.788 -0.0055 -0.7026  0.4603
  266MOL0     C36637  -0.173   3.917   5.690 -0.6103 -0.1224 -0.6679
  266MOL0     C36638  -0.212   3.947   5.551 -0.7965 -0.2831  0.4933
  266MOL0     H36639   0.313   3.752   5.483  4.0443 -0.7778  0.8503
  266MOL0     H36640   0.475   3.843   5.329  1.5241 -0.7747  2.5684
  266MOL0     H36641   0.561   4.273   5.365  1.1878 -0.7543  0.3349
  266MOL0     H36642   0.428   4.231   5.245 -0.9998 -2.9682 -0.9838
  266MOL0     H36643   0.581   4.166   5.077 -1.2781  0.7292 -0.2916
  266MOL0     H36644   0.596   4.344   5.118  1.5806  0.9694  0.9243
  266MOL0     H36645   0.781   4.116   5.200 -0.2219 -1.2670  0.4078
  266MOL0     H36646   0.820   4.251   5.082 -1.4832  1.6090  1.6515
  266MOL0     H36647   0.756   4.386   5.316  0.3039  0.7213 -0.8062
  266MOL0     H36648   0.814   4.221   5.380  2.4744 -1.0435 -0.0120
  266MOL0     H36649   1.027   4.266   5.269  0.5778  1.0121 -0.6912
  266MOL0     H36650   0.974   4.390   5.393 -1.6726  1.3319 -0.3310
  266MOL0     H36651   0.985   4.410   5.091  0.4516 -1.9784  0.6673
  266MOL0     H36652   0.890   4.527   5.185 -0.4208  0.3359 -2.5891
  266MOL0     H36653   1.118   4.588   5.314  3.9614 -0.2828  0.8941
  266MOL0     H36654   1.138   4.590   5.142 -2.8332  0.5033  0.6566
  266MOL0     H36655   1.236   4.372   5.339  0.4752  0.9370  0.3665
  266MOL0     H36656   1.234   4.347   5.166 -1.5354  0.4675 -0.2133
  266MOL0     H36657   1.406   4.543   5.442 -1.8152  2.2924 -0.2347
  266MOL0     H36658   1.684   4.591   5.407 -0.0236 -0.5744 -2.0414
  266MOL0     H36659   1.624   4.743   5.437 -1.1172  0.0949 -0.3519
  266MOL0     H36660   1.800   4.657   5.195  1.2784 -1.6120  2.1029
  266MOL0     H36661   1.736   4.837   5.202  0.5148  0.1425  0.6042
  266MOL0     H36662   1.957   4.827   5.248 -0.2613 -1.3022 -0.2293
  266MOL0     H36663   1.879   4.833   5.411 -2.9845  1.4266 -0.4416
  266MOL0     H36664   2.035   4.665   5.459  0.1366  2.5488  0.9725
  266MOL0     H36665   1.903   4.566   5.408  2.6061 -3.6037 -3.2218
  266MOL0     H36666   2.151   4.506   5.042  2.0253 -1.3914 -1.3231
  266MOL0     H36667   2.306   4.553   4.874  2.7540 -0.1110 -3.3515
  266MOL0     H36668   2.425   4.434   4.925  1.7025  0.1947  0.8212
  266MOL0     H36669   2.470   4.602   4.879  0.7778 -1.1464 -1.7776
  266MOL0     H36670   2.818   4.727   5.320  1.5966 -0.1184  0.4317
  266MOL0     H36671   3.056   4.774   5.302 -0.9258  0.7253  0.2340
  266MOL0     H36672   3.245   4.824   5.032 -2.3166 -1.0230  0.4537
  266MOL0     H36673   3.193   4.962   4.937  2.0987 -0.3795 -0.4221
  266MOL0     H36674   3.417   4.997   4.941 -0.4739  0.8117 -1.0824
  266MOL0     H36675   3.360   5.120   5.053 -0.6270 -0.4059 -0.3960
  266MOL0     H36676   3.456   4.863   5.160 -0.4921 -0.0390 -0.2920
  266MOL0     H36677   3.429   5.013   5.251  1.0597  3.6321 -0.0099
  266MOL0     H36678   3.619   5.129   5.116  0.4630 -0.7169 -2.2362
  266MOL0     H36679   3.650   4.958   5.064 -0.6732 -4.8013  3.1609
  266MOL0     H36680   3.622   5.003   5.368  0.3799  0.4755  0.0416
  266MOL0     H36681   3.653   4.867   5.275 -0.6987  0.5279  2.5130
  266MOL0     H36682   3.864   5.094   5.290 -0.9177  0.1832  0.7389
  266MOL0     H36683   3.882   4.950   5.198 -0.3376  0.2536  0.7464
  266MOL0     H36684   3.863   4.805   5.390  2.9309 -0.1840 -0.1770
  266MOL0     H36685   3.828   4.934   5.500  1.1300 -1.8229  1.5208
  266MOL0     H36686   4.060   4.884   5.541  3.3917 -0.2265 -1.4380
  266MOL0     H36687   4.043   5.037   5.458  0.0751  0.0562  1.8189
  266MOL0     H36688   2.972   5.046   4.985  0.7052 -2.0143 -2.8907
  266MOL0     H36689   2.729   4.992   4.987 -0.5998  0.4183  1.7703
  266MOL0     H36690   2.451   4.784   5.330  3.3753 -0.8854 -2.4984
  266MOL0     H36691   2.218   4.742   5.391 -0.4255  1.0974 -1.8790
  266MOL0     H36692   0.475   4.218   5.550  0.5856  0.4411 -1.7722
  266MOL0     H36693   0.305   4.119   5.697  1.1870 -1.0996  1.2764
  266MOL0     H36694   0.085   3.884   5.903  0.3350 -1.0983 -0.6410
  266MOL0     H36695  -0.079   3.902   6.067 -0.1211  3.2337  0.3562
  266MOL0     H36696  -0.513   3.925   5.912  0.4309 -1.0122  0.5276
  266MOL0     H36697  -0.544   3.957   6.085  1.2073 -3.0141  1.2636
  266MOL0     H36698  -0.593   4.158   5.923  0.2015 -1.2579 -3.6470
  266MOL0     H36699  -0.446   4.132   5.843 -0.1522 -1.7367  0.0427
  266MOL0     H36700  -0.312   4.205   6.035 -0.5649 -0.2503  4.3356
  266MOL0     H36701  -0.410   4.323   5.959 -0.2648 -1.4463 -1.1140
  266MOL0     H36702  -0.491   4.158   6.204  2.1118 -0.5989 -2.0722
  266MOL0     H36703  -0.580   4.293   6.146 -0.9862  0.1057  3.4784
  266MOL0     H36704  -0.245   4.490   6.334  2.7749 -0.4492 -2.0403
  266MOL0     H36705  -0.378   3.923   5.757  0.6640  2.9399 -1.6786
  266MOL0     H36706  -0.144   4.027   5.519  0.9849 -1.8902  0.0232
  266MOL0     H36707  -0.198   3.855   5.493 -0.3620  0.3186 -0.3863
  266MOL0     H36708  -0.315   3.981   5.543 -0.0100  2.2097  0.2460
  267MOL0     O36709   1.112   7.344   8.886 -0.0982 -0.4821 -0.2875
  267MOL0     C36710   1.130   7.409   8.989 -0.2211 -0.1718  0.1287
  267MOL0     O36711   1.243   7.419   9.053 -0.3559  0.5376  0.7257
  267MOL0     C36712   1.361   7.391   8.990  0.0369  0.4184  0.4119
  267MOL0     C36713   1.394   7.390   8.853  0.0850 -0.0257 -0.2422
  267MOL0     C36714   1.525   7.355   8.815 -0.5692  0.1470 -0.5975
  267MOL0     C36715   1.623   7.326   8.907 -0.3577  0.0057 -0.4129
  267MOL0     O36716   1.759   7.322   8.881  0.7679 -0.6071 -0.5986
  267MOL0     C36717   1.798   7.362   8.746  0.3151  0.2194 -0.0075
  267MOL0     C36718   1.949   7.332   8.757  0.3986 -0.4679 -0.4736
  267MOL0     C36719   2.024   7.339   8.626 -0.2035  0.8354  0.3105
  267MOL0     C36720   2.178   7.353   8.620 -0.1502 -0.3904 -0.7341
  267MOL0     C36721   2.240   7.222   8.661  0.1854 -0.0303  0.2479
  267MOL0     C36722   2.386   7.225   8.638  0.6432 -0.0231  0.2915
  267MOL0     C36723   2.429   7.209   8.492 -0.3790 -0.0289  0.2426
  267MOL0     C36724   2.570   7.265   8.498 -0.5680 -0.5326  0.2891
  267MOL0     N36725   2.636   7.262   8.364  0.8949  0.5393  0.5944
  267MOL0     C36726   2.706   7.154   8.327  0.1926 -0.0378  0.7821
  267MOL0     C36727   2.728   7.190   8.198 -1.7222  0.2068  0.6553
  267MOL0     C36728   2.792   7.110   8.091 -0.8416 -0.3337  0.5304
  267MOL0     C36729   2.929   7.058   8.134 -1.0403  0.1129  1.0685
  267MOL0     C36730   2.954   6.922   8.076  0.1350 -0.3362 -0.5407
  267MOL0     C36731   3.104   6.883   8.116  0.6570  0.2791 -0.5114
  267MOL0     O36732   3.187   6.984   8.052 -0.8392  0.5033 -0.5393
  267MOL0     C36733   3.324   6.962   8.061  0.4424  0.4054  0.3926
  267MOL0     C36734   3.399   7.006   7.953  0.8192 -0.1156 -0.2702
  267MOL0     C36735   3.537   7.009   7.950 -0.7303  0.2001 -0.1477
  267MOL0     C36736   3.594   7.072   7.833 -0.2627 -0.0631  0.5100
  267MOL0     C36737   3.602   6.939   8.061 -0.8700 -0.1496 -0.6846
  267MOL0     C36738   3.749   6.943   8.097 -0.0904 -0.7250  0.2131
  267MOL0     O36739   3.798   6.856   8.193 -1.2011  0.4938  0.1263
  267MOL0     C36740   3.929   6.878   8.232  0.0765  0.2474  0.2484
  267MOL0     C36741   4.043   6.808   8.187  0.9918 -0.6260 -0.9207
  267MOL0     C36742   4.164   6.847   8.241 -0.2757  0.0671  0.1517
  267MOL0     C36743   4.182   6.960   8.326 -0.2522  0.6057 -0.3811
  267MOL0     O36744   4.314   6.996   8.364  0.3375  0.1644 -0.2371
  267MOL0     C36745   4.349   7.088   8.468  0.1983  0.7579 -0.2449
  267MOL0     C36746   4.493   7.131   8.454  0.2988 -0.1521  0.4638
  267MOL0     C36747   4.589   7.123   8.576 -0.4091  0.1048  0.2103
  267MOL0     C36748   4.722   7.066   8.533 -0.5522 -0.2325  0.8755
  267MOL0     C36749   4.831   7.089   8.634 -0.6843  0.3675 -0.0157
  267MOL0     C36750   4.799   7.022   8.766 -0.0922 -0.7642 -0.0493
  267MOL0     C36751   4.892   7.045   8.892 -0.0618  0.2866 -0.3605
  267MOL0     C36752   5.036   7.015   8.864 -0.3236  0.3534 -0.5790
  267MOL0    Cl36753   5.063   6.853   8.812 -0.1345  0.0443  0.4745
  267MOL0     C36754   4.066   7.022   8.373 -0.5214  0.3639  0.0870
  267MOL0     C36755   3.941   6.980   8.328 -0.2213 -0.4775  0.1382
  267MOL0     O36756   3.820   7.022   8.035  0.6047 -0.4146  0.3683
  267MOL0     C36757   3.523   6.871   8.160  0.1705 -0.2071 -0.1999
  267MOL0     C36758   3.388   6.891   8.164  0.0270  0.0535 -0.8060
  267MOL0     N36759   2.701   7.321   8.181  0.2841 -0.6787  1.0154
  267MOL0     N36760   2.634   7.358   8.276  0.6383  0.0645 -0.8548
  267MOL0     C36761   1.596   7.325   9.047 -0.1629  0.0646 -0.4168
  267MOL0     C36762   1.464   7.366   9.084 -0.1165 -0.7552  0.3030
  267MOL0     C36763   1.005   7.450   9.073  0.2667  0.2901 -0.1886
  267MOL0     C36764   0.876   7.417   9.025  0.2102 -0.3531 -0.6397
  267MOL0     C36765   0.762   7.463   9.087  1.1670 -0.1940 -0.4074
  267MOL0     C36766   0.764   7.535   9.204 -0.2256  0.0255 -0.2187
  267MOL0     O36767   0.642   7.567   9.255 -0.0972  0.4272 -0.0705
  267MOL0     C36768   0.631   7.588   9.394  0.5914 -0.9183 -0.2647
  267MOL0     C36769   0.639   7.462   9.470 -0.2956 -0.2894  0.6841
  267MOL0     C36770   0.624   7.476   9.627 -0.6677  0.2951  0.2284
  267MOL0     C36771   0.646   7.345   9.701 -0.1677  0.7742 -0.0866
  267MOL0     C36772   0.526   7.268   9.677 -0.2953  0.4996  1.0500
  267MOL0     C36773   0.419   7.209   9.669  0.7089  0.7895  0.0808
  267MOL0     C36774   0.890   7.559   9.267 -0.3711  0.4349  0.3691
  267MOL0     C36775   1.007   7.528   9.192  0.5178 -0.1865 -0.9045
  267MOL0     C36776   1.136   7.582   9.259  0.9827  0.3112 -0.2800
  267MOL0     H36777   1.323   7.417   8.776  0.2280 -0.8550 -0.6771
  267MOL0     H36778   1.560   7.350   8.712  2.2657 -0.5969  0.3274
  267MOL0     H36779   1.771   7.465   8.721  0.0123 -0.3927 -2.5204
  267MOL0     H36780   1.761   7.288   8.674 -0.1831 -1.7525  2.1758
  267MOL0     H36781   1.989   7.412   8.820 -1.4787  0.3617 -0.2606
  267MOL0     H36782   1.966   7.231   8.794  0.7196  0.1970  1.2851
  267MOL0     H36783   1.989   7.251   8.573 -2.4805  2.9686 -2.0076
  267MOL0     H36784   1.997   7.429   8.569  3.1973  0.9833 -1.2792
  267MOL0     H36785   2.216   7.380   8.522 -0.4397 -3.0109 -1.6320
  267MOL0     H36786   2.200   7.431   8.694 -1.1074 -0.9466  0.1806
  267MOL0     H36787   2.195   7.134   8.613  0.2616  0.2876 -0.4243
  267MOL0     H36788   2.227   7.212   8.769  1.6579  0.9210  0.5312
  267MOL0     H36789   2.433   7.315   8.679  0.4596  0.0620  0.3125
  267MOL0     H36790   2.434   7.134   8.676  0.1809 -0.4416 -0.1093
  267MOL0     H36791   2.363   7.272   8.432  3.9961  4.9396 -0.1283
  267MOL0     H36792   2.431   7.106   8.455  1.0819 -0.1398  0.5613
  267MOL0     H36793   2.575   7.371   8.526 -2.1262  0.5947 -3.1066
  267MOL0     H36794   2.627   7.207   8.570  1.2166  1.2814  0.4202
  267MOL0     H36795   2.729   7.061   8.377  0.3344  1.5732  4.0100
  267MOL0     H36796   2.811   7.166   7.998  2.5975  0.4485  1.5700
  267MOL0     H36797   2.730   7.021   8.077 -1.3663 -0.0196  0.8336
  267MOL0     H36798   2.997   7.131   8.090 -0.9353  0.6923  2.1490
  267MOL0     H36799   2.948   7.065   8.242  1.4009 -0.0809  0.7183
  267MOL0     H36800   2.888   6.848   8.123  2.2298 -1.6746  0.4998
  267MOL0     H36801   2.946   6.933   7.968 -0.1781  2.3459 -0.2957
  267MOL0     H36802   3.114   6.882   8.225 -0.5970  0.2201 -0.3771
  267MOL0     H36803   3.118   6.785   8.069 -1.2713 -0.2007 -0.1628
  267MOL0     H36804   3.328   7.049   7.883  0.8074 -1.3058 -1.0216
  267MOL0     H36805   3.525   7.131   7.771 -4.0631 -1.0535  3.3953
  267MOL0     H36806   3.638   6.993   7.772 -0.0086  0.6154 -0.1962
  267MOL0     H36807   3.675   7.139   7.863  0.5567 -0.8862  0.1794
  267MOL0     H36808   4.046   6.721   8.123 -2.5820 -0.7449 -1.1146
  267MOL0     H36809   4.250   6.789   8.208  0.9196  0.9436  1.6022
  267MOL0     H36810   4.275   7.169   8.464  0.7014  1.2248 -0.2384
  267MOL0     H36811   4.340   7.040   8.566  1.5604  0.6801 -0.1450
  267MOL0     H36812   4.551   7.094   8.369 -0.8670  0.0213 -0.4355
  267MOL0     H36813   4.484   7.237   8.427 -2.4192 -0.6445 -0.9336
  267MOL0     H36814   4.550   7.050   8.648  2.7914 -1.4673  0.4926
  267MOL0     H36815   4.604   7.224   8.615 -0.3404  0.0957  0.2058
  267MOL0     H36816   4.749   7.111   8.438  0.6131 -3.1748 -0.3238
  267MOL0     H36817   4.716   6.958   8.515  1.3591 -0.2551  0.1917
  267MOL0     H36818   4.914   7.031   8.592  1.1802  1.3377  2.1526
  267MOL0     H36819   4.857   7.194   8.645  1.2425  0.3358 -3.1682
  267MOL0     H36820   4.787   6.914   8.752 -2.2160 -1.5395  5.1781
  267MOL0     H36821   4.705   7.069   8.797 -0.1903 -0.8636 -0.1957
  267MOL0     H36822   4.865   6.983   8.978  3.5758 -2.5514 -1.0138
  267MOL0     H36823   4.890   7.150   8.925  1.1472 -0.6735  3.2801
  267MOL0     H36824   5.102   7.036   8.949 -0.9443 -0.9270  0.2426
  267MOL0     H36825   5.080   7.071   8.780  1.4303  1.5326  1.0412
  267MOL0     H36826   4.059   7.105   8.443 -0.2705  0.6889 -0.2630
  267MOL0     H36827   3.856   7.032   8.371  1.3616 -0.0113  3.0055
  267MOL0     H36828   3.561   6.810   8.241  1.2309 -0.0914 -0.5907
  267MOL0     H36829   3.327   6.848   8.242 -0.6002  0.2308 -1.1915
  267MOL0     H36830   1.682   7.295   9.105 -0.9496 -1.7554 -0.1310
  267MOL0     H36831   1.440   7.369   9.190  1.1966 -1.2776  0.6349
  267MOL0     H36832   0.861   7.356   8.936 -2.6481  1.1995 -1.3221
  267MOL0     H36833   0.666   7.431   9.048  1.2669 -2.9220  1.3602
  267MOL0     H36834   0.693   7.673   9.425 -0.5724 -0.9627  2.3950
  267MOL0     H36835   0.525   7.606   9.414  0.5788 -0.7247 -0.5018
  267MOL0     H36836   0.737   7.420   9.444  0.2636  1.4897 -0.2860
  267MOL0     H36837   0.561   7.392   9.440 -1.0587 -0.1223  2.2058
  267MOL0     H36838   0.713   7.528   9.664 -1.0606  1.4446 -0.3832
  267MOL0     H36839   0.540   7.536   9.661  0.8227  1.5267  1.8979
  267MOL0     H36840   0.654   7.380   9.804  2.9379  0.1176 -0.0074
  267MOL0     H36841   0.739   7.298   9.669 -1.4254 -0.6146 -1.9372
  267MOL0     H36842   0.325   7.157   9.661  0.2857  1.5855 -0.2633
  267MOL0     H36843   0.904   7.601   9.366  0.6535  0.5671  0.1821
  267MOL0     H36844   1.192   7.494   9.292  1.8062  0.7090 -0.5977
  267MOL0     H36845   1.187   7.643   9.184 -1.2659  1.4604 -0.9690
  267MOL0     H36846   1.130   7.642   9.350  1.8516  1.1645 -0.7684
  268MOL0     O36847   5.192   8.041   1.576 -0.4259  0.2887  0.2082
  268MOL0     C36848   5.247   7.988   1.674  0.0960  0.5165  0.0205
  268MOL0     O36849   5.235   7.860   1.705 -0.4146 -0.5923 -0.4299
  268MOL0     C36850   5.140   7.777   1.637  0.0675  0.1369  0.0308
  268MOL0     C36851   5.163   7.636   1.645  0.3361  0.1470 -0.3039
  268MOL0     C36852   5.069   7.541   1.593 -0.1840  0.0287 -0.2236
  268MOL0     C36853   4.947   7.579   1.539  0.4282 -0.4556  0.2213
  268MOL0     O36854   4.867   7.496   1.462  0.7162  0.4652  0.2589
  268MOL0     C36855   4.919   7.357   1.445 -0.3557  0.3832  0.5866
  268MOL0     C36856   4.822   7.296   1.334 -0.9006  0.7387 -0.1517
  268MOL0     C36857   4.859   7.339   1.190  0.1713  0.3663 -0.1855
  268MOL0     C36858   4.911   7.216   1.117 -0.1737  0.2087  0.0759
  268MOL0     C36859   4.941   7.255   0.965 -0.1354 -0.0139 -0.2142
  268MOL0     C36860   4.994   7.145   0.884  0.1571  0.5185  0.9467
  268MOL0     C36861   5.130   7.094   0.924  0.4525  0.0946  0.2698
  268MOL0     C36862   5.178   6.979   0.848 -0.3529  1.0871 -0.3074
  268MOL0     N36863   5.318   6.948   0.877 -0.1200  0.1371 -0.8087
  268MOL0     C36864   5.433   7.026   0.836  0.2161 -0.3993  0.1657
  268MOL0     C36865   5.536   6.950   0.883 -0.6990  0.2916 -0.3154
  268MOL0     C36866   5.678   6.979   0.841 -0.8435 -0.1415 -0.0337
  268MOL0     C36867   5.774   6.932   0.951 -0.2687 -0.0226 -0.1833
  268MOL0     C36868   5.844   6.793   0.950  0.0796 -0.1164  0.1593
  268MOL0     C36869   5.986   6.806   1.013 -0.4635 -0.1223  0.6389
  268MOL0     O36870   6.005   6.899   1.123 -0.5136  0.8917 -0.3468
  268MOL0     C36871   6.133   6.913   1.170 -0.1397  0.5500 -0.4885
  268MOL0     C36872   6.232   6.817   1.147  0.8802  0.1779 -0.5613
  268MOL0     C36873   6.365   6.844   1.189  0.5413 -0.1738 -0.1942
  268MOL0     C36874   6.475   6.747   1.142  0.3645  1.3097 -0.1947
  268MOL0     C36875   6.395   6.950   1.270 -0.9999 -0.0445  0.0078
  268MOL0     C36876   6.532   6.986   1.316  0.1583  0.0312  0.3478
  268MOL0     O36877   6.627   6.979   1.224 -0.2308 -0.1111  0.3512
  268MOL0     C36878   6.754   7.008   1.260 -0.5631 -0.2339  0.1671
  268MOL0     C36879   6.808   7.137   1.262  0.0040 -0.5631 -0.4408
  268MOL0     C36880   6.936   7.169   1.310 -0.1499 -0.2987 -0.4399
  268MOL0     C36881   7.024   7.062   1.348  0.0553 -0.7611 -0.5430
  268MOL0     O36882   7.147   7.081   1.402  0.5037  0.6542  0.8352
  268MOL0     C36883   7.164   7.195   1.485  0.4327  0.2774 -0.1758
  268MOL0     C36884   7.252   7.149   1.591 -0.8310 -0.3096  0.8042
  268MOL0     C36885   7.301   7.254   1.691 -0.0833 -0.3223  0.0258
  268MOL0     C36886   7.409   7.204   1.772  0.3679  0.7720  0.0687
  268MOL0     C36887   7.464   7.315   1.862 -0.4449  0.0540  0.3283
  268MOL0     C36888   7.362   7.355   1.980 -0.3528  0.1623 -0.3679
  268MOL0     C36889   7.282   7.250   2.059 -0.2429 -0.2909 -0.1493
  268MOL0     C36890   7.367   7.183   2.167 -0.3873  0.1352 -0.0067
  268MOL0    Cl36891   7.251   7.078   2.268  0.0883 -0.7656  0.6138
  268MOL0     C36892   6.976   6.930   1.332  0.2571  0.2842  0.3003
  268MOL0     C36893   6.843   6.906   1.290  0.1488  0.3673 -0.0724
  268MOL0     O36894   6.541   7.036   1.425 -0.1095 -0.8976 -0.3871
  268MOL0     C36895   6.292   7.043   1.303  0.4863 -0.0398 -0.3418
  268MOL0     C36896   6.160   7.025   1.250 -0.0362  0.3104 -0.3643
  268MOL0     N36897   5.490   6.836   0.943 -0.1969  0.2479 -0.2318
  268MOL0     N36898   5.362   6.848   0.950 -0.2314 -0.6856 -0.2234
  268MOL0     C36899   4.915   7.719   1.558 -0.5284 -0.5324  0.8223
  268MOL0     C36900   5.013   7.809   1.594  0.0683 -0.1685 -0.6112
  268MOL0     C36901   5.354   8.062   1.745 -0.5733  0.6868  0.6550
  268MOL0     C36902   5.460   8.112   1.663 -0.1463  0.2242  0.9914
  268MOL0     C36903   5.579   8.149   1.723 -0.7965  0.7276 -0.2002
  268MOL0     C36904   5.604   8.152   1.854 -0.5765 -0.4668  1.2917
  268MOL0     O36905   5.716   8.219   1.904  0.6639  0.0168  0.6209
  268MOL0     C36906   5.836   8.150   1.868 -1.1752  0.2786 -0.4601
  268MOL0     C36907   5.837   8.011   1.924  0.5789 -0.5146  0.7533
  268MOL0     C36908   5.985   7.957   1.939  1.0316  0.9978 -0.1334
  268MOL0     C36909   6.083   8.015   2.046 -0.3089  0.0339 -0.0230
  268MOL0     C36910   6.056   7.972   2.183  0.3902  0.5559  0.2113
  268MOL0     C36911   6.040   7.931   2.296 -0.1959  0.4863 -1.1048
  268MOL0     C36912   5.496   8.112   1.928  0.3215 -0.1521  0.4592
  268MOL0     C36913   5.374   8.068   1.880 -0.2113  0.1764 -0.3309
  268MOL0     C36914   5.262   8.034   1.982 -0.1481 -0.5588 -0.5385
  268MOL0     H36915   5.254   7.595   1.688 -0.3557  0.5471  1.6579
  268MOL0     H36916   5.104   7.439   1.597 -1.0051 -0.2226  2.3893
  268MOL0     H36917   4.907   7.296   1.535 -0.4854  3.6391  2.9245
  268MOL0     H36918   5.022   7.375   1.413 -0.2591  0.5636  0.9949
  268MOL0     H36919   4.819   7.187   1.341 -0.5107  0.4536 -3.1420
  268MOL0     H36920   4.724   7.339   1.357 -0.3408  1.5661  0.7580
  268MOL0     H36921   4.771   7.376   1.136  1.1611 -0.0923 -2.2190
  268MOL0     H36922   4.935   7.418   1.187 -0.2193  0.7270 -1.1020
  268MOL0     H36923   5.001   7.178   1.168  0.3808  0.8051 -0.4362
  268MOL0     H36924   4.832   7.142   1.107 -0.1986  0.3644 -0.9850
  268MOL0     H36925   5.009   7.341   0.962  1.6472 -1.3911 -0.9066
  268MOL0     H36926   4.846   7.289   0.923  0.0738 -1.6007 -2.1046
  268MOL0     H36927   4.927   7.058   0.884 -0.4019  0.9396  1.2191
  268MOL0     H36928   4.991   7.180   0.780 -2.6635 -3.8031 -0.7074
  268MOL0     H36929   5.123   7.075   1.031 -1.4060  3.8175  0.9824
  268MOL0     H36930   5.200   7.172   0.894  1.4002  0.2914  2.7869
  268MOL0     H36931   5.128   6.898   0.903  2.2007 -0.7610 -0.5092
  268MOL0     H36932   5.161   6.991   0.740  3.0044  0.0163 -1.0823
  268MOL0     H36933   5.444   7.104   0.761 -1.0053  1.2920  1.6631
  268MOL0     H36934   5.683   7.088   0.829 -4.3035  0.3037  1.3307
  268MOL0     H36935   5.689   6.928   0.745  0.0479  0.6661 -0.3751
  268MOL0     H36936   5.856   7.003   0.940 -1.3201  1.5139  1.2505
  268MOL0     H36937   5.727   6.954   1.048 -0.5339 -0.3694 -0.2323
  268MOL0     H36938   5.790   6.724   1.016  0.8494 -2.2345 -1.3378
  268MOL0     H36939   5.848   6.759   0.846 -1.8062  1.1377 -0.3778
  268MOL0     H36940   6.017   6.704   1.039  1.3638  0.7814  2.2502
  268MOL0     H36941   6.048   6.837   0.928 -1.4014 -1.5440 -0.6352
  268MOL0     H36942   6.219   6.721   1.099 -1.1287 -0.4222  1.0283
  268MOL0     H36943   6.427   6.666   1.085 -1.7187  1.9509  0.5374
  268MOL0     H36944   6.524   6.704   1.229 -0.8584  2.2010  0.9768
  268MOL0     H36945   6.549   6.799   1.081 -0.1858  0.2481 -1.8507
  268MOL0     H36946   6.746   7.224   1.242  0.6004  0.6824  2.5639
  268MOL0     H36947   6.968   7.272   1.322  3.1026 -1.3786  1.5342
  268MOL0     H36948   7.199   7.289   1.441  0.8697  0.7925  1.2032
  268MOL0     H36949   7.063   7.217   1.523 -0.7921 -0.3037 -2.8883
  268MOL0     H36950   7.198   7.082   1.659 -1.8820  2.0431  2.3935
  268MOL0     H36951   7.346   7.109   1.550  1.4570  2.4453  2.9460
  268MOL0     H36952   7.211   7.276   1.750 -2.6313 -2.5388 -2.7249
  268MOL0     H36953   7.330   7.346   1.640  1.1885 -0.4869  0.4092
  268MOL0     H36954   7.489   7.176   1.704  1.2054  1.9930  0.5236
  268MOL0     H36955   7.377   7.112   1.824  1.8376 -0.3854 -1.0124
  268MOL0     H36956   7.557   7.286   1.911 -1.9362  0.1534  3.4280
  268MOL0     H36957   7.486   7.401   1.797 -0.4342 -1.3803 -1.6688
  268MOL0     H36958   7.279   7.406   1.930  0.3921  1.1146 -0.6607
  268MOL0     H36959   7.395   7.424   2.057  0.0249 -0.3097 -0.0990
  268MOL0     H36960   7.237   7.179   1.989 -3.9797 -0.8231  2.5156
  268MOL0     H36961   7.196   7.292   2.110  0.4522 -0.2974  1.0664
  268MOL0     H36962   7.417   7.254   2.234  2.2036 -1.6858  0.1506
  268MOL0     H36963   7.450   7.126   2.125  0.3127  2.4969 -2.0984
  268MOL0     H36964   7.045   6.852   1.360  0.3763  0.5380  0.7187
  268MOL0     H36965   6.808   6.805   1.270  1.3916 -0.1471  0.3121
  268MOL0     H36966   6.315   7.138   1.351 -1.2315 -0.4633  1.4557
  268MOL0     H36967   6.078   7.094   1.265 -0.2357  0.3081 -1.3715
  268MOL0     H36968   4.822   7.760   1.520 -0.8169 -2.3098 -0.5245
  268MOL0     H36969   4.986   7.913   1.603 -2.1711 -0.7051 -0.5165
  268MOL0     H36970   5.445   8.109   1.556  1.7264  1.0149  0.6516
  268MOL0     H36971   5.667   8.165   1.661  2.3605 -2.0605  3.0681
  268MOL0     H36972   5.847   8.154   1.759 -1.0050 -0.4600 -0.4776
  268MOL0     H36973   5.927   8.196   1.906 -0.2318 -1.5378 -0.4159
  268MOL0     H36974   5.787   7.941   1.856 -0.8722  1.1376  0.0273
  268MOL0     H36975   5.792   8.012   2.024 -0.1412 -0.2066  0.4373
  268MOL0     H36976   5.969   7.853   1.967 -2.3303  0.8742 -1.9738
  268MOL0     H36977   6.035   7.955   1.842  3.3224 -1.1831  0.9680
  268MOL0     H36978   6.083   8.124   2.037  1.7847  0.0469 -0.4125
  268MOL0     H36979   6.184   7.976   2.028 -0.7758 -0.4990 -1.6791
  268MOL0     H36980   6.025   7.898   2.397  0.0663  1.3678 -0.7676
  268MOL0     H36981   5.500   8.129   2.035 -1.2663 -0.5609  0.6164
  268MOL0     H36982   5.169   8.080   1.948  0.4082  0.4549 -0.7226
  268MOL0     H36983   5.254   7.925   1.990 -0.6309 -0.4470  0.7818
  268MOL0     H36984   5.289   8.073   2.081 -0.6872 -2.1734  0.2798
  269MOL0     O36985  10.663   3.482   4.265 -0.0291  0.0175  0.0324
  269MOL0     C36986  10.631   3.374   4.217  1.0531 -0.1610  0.0414
  269MOL0     O36987  10.710   3.282   4.175 -0.0025  0.1412 -0.5025
  269MOL0     C36988  10.846   3.304   4.165 -0.3571 -0.4573 -0.6774
  269MOL0     C36989  10.903   3.421   4.116  0.2333 -0.2656  0.0650
  269MOL0     C36990  11.044   3.426   4.096 -0.1769  0.2877  0.7366
  269MOL0     C36991  11.124   3.321   4.125  0.4014  0.1040  0.9219
  269MOL0     O36992  11.256   3.333   4.085 -0.7958  0.4719 -0.6672
  269MOL0     C36993  11.356   3.281   4.167  0.4479 -0.6480  0.2627
  269MOL0     C36994  11.481   3.324   4.101  0.7686  0.4049  0.5774
  269MOL0     C36995  11.601   3.297   4.188 -0.6695 -0.8854  0.0998
  269MOL0     C36996  11.733   3.321   4.112 -0.7372 -0.1385 -0.6675
  269MOL0     C36997  11.858   3.262   4.184  0.1433  0.1304  0.2396
  269MOL0     C36998  11.975   3.249   4.081  0.0995 -0.1035 -0.2965
  269MOL0     C36999  12.063   3.374   4.083 -0.2515 -0.5055 -0.1770
  269MOL0     C37000  12.124   3.400   3.946 -0.2130  0.2588  1.1968
  269MOL0     N37001  12.223   3.516   3.937 -0.1210 -1.0614 -0.2041
  269MOL0     C37002  12.202   3.653   3.967  0.1780 -0.1547 -0.0536
  269MOL0     C37003  12.312   3.710   3.932  0.1097  0.7171  0.6486
  269MOL0     C37004  12.344   3.849   3.954 -0.4300  0.0390 -0.0958
  269MOL0     C37005  12.236   3.927   4.030 -0.1573 -0.2133  0.1088
  269MOL0     C37006  12.293   4.065   4.059 -0.0008  0.1408  0.7218
  269MOL0     C37007  12.334   4.089   4.203  0.4203 -0.3482 -0.3287
  269MOL0     O37008  12.454   4.023   4.242  0.0831  0.3623  0.8916
  269MOL0     C37009  12.573   4.089   4.234 -0.0911 -0.4242 -0.6486
  269MOL0     C37010  12.602   4.202   4.154  0.2975 -0.6366  0.0880
  269MOL0     C37011  12.723   4.260   4.152  0.6313 -0.4288 -0.3104
  269MOL0     C37012  12.727   4.382   4.059 -0.0955 -0.0956 -0.3935
  269MOL0     C37013  12.826   4.205   4.229  0.1131  0.2898 -0.3796
  269MOL0     C37014  12.961   4.261   4.215 -0.3767 -0.0634 -0.2698
  269MOL0     O37015  13.007   4.299   4.091 -0.3455 -0.2540  0.8560
  269MOL0     C37016  13.138   4.357   4.088 -0.5374 -0.0110 -0.4434
  269MOL0     C37017  13.145   4.493   4.043  0.2585  0.2299  0.2211
  269MOL0     C37018  13.259   4.565   4.055  0.4014 -0.3124 -0.7306
  269MOL0     C37019  13.374   4.512   4.086 -0.1120  0.1704 -0.4713
  269MOL0     O37020  13.486   4.589   4.080 -0.6610 -0.2051 -0.0482
  269MOL0     C37021  13.626   4.533   4.078 -0.1331 -0.0349 -0.4170
  269MOL0     C37022  13.635   4.444   3.950 -0.2951 -0.9412 -0.6742
  269MOL0     C37023  13.770   4.368   3.924  0.4260 -0.1699  0.4786
  269MOL0     C37024  13.896   4.451   3.906  0.6406 -0.0233 -0.4898
  269MOL0     C37025  14.031   4.369   3.892 -0.0163 -0.0221  0.4635
  269MOL0     C37026  14.143   4.467   3.884 -0.0451 -0.3129 -0.1588
  269MOL0     C37027  14.274   4.401   3.867  0.1630  0.1741  0.1186
  269MOL0     C37028  14.394   4.501   3.843  0.2880  0.0504  0.8660
  269MOL0    Cl37029  14.434   4.601   3.986  0.0010  0.1986  0.2351
  269MOL0     C37030  13.370   4.381   4.135  0.1138 -0.8072 -0.2557
  269MOL0     C37031  13.252   4.304   4.137 -0.9676  0.3777  1.0887
  269MOL0     O37032  13.026   4.264   4.322 -0.3121 -0.8789 -0.4251
  269MOL0     C37033  12.800   4.088   4.301  0.5460 -1.2908  0.0024
  269MOL0     C37034  12.673   4.029   4.313 -0.3535 -1.0360  0.5439
  269MOL0     N37035  12.398   3.625   3.874  0.0434  0.1006  0.4354
  269MOL0     N37036  12.343   3.508   3.876  0.1420  0.2667  1.2135
  269MOL0     C37037  11.072   3.205   4.186 -0.1068  0.5312  0.7578
  269MOL0     C37038  10.927   3.197   4.201 -0.1339 -0.1104  0.1167
  269MOL0     C37039  10.480   3.350   4.205 -0.3194 -0.5622 -0.2877
  269MOL0     C37040  10.400   3.431   4.282 -0.4243 -0.2943  0.3459
  269MOL0     C37041  10.263   3.433   4.272  0.2733  0.8253  0.0283
  269MOL0     C37042  10.203   3.336   4.195 -0.6513  0.5663 -0.0623
  269MOL0     O37043  10.062   3.328   4.191 -0.4820 -0.0631  0.4449
  269MOL0     C37044   9.970   3.442   4.187 -0.2813 -0.5969  0.0042
  269MOL0     C37045   9.996   3.531   4.063  0.9506  1.3776  0.5518
  269MOL0     C37046   9.950   3.468   3.930  0.3772 -0.1532 -0.8198
  269MOL0     C37047   9.964   3.565   3.817  0.4452 -0.0522  0.5759
  269MOL0     C37048   9.962   3.475   3.695 -1.2143 -0.2667  0.1621
  269MOL0     C37049   9.971   3.398   3.600 -0.2988  0.0807 -0.0834
  269MOL0     C37050  10.280   3.240   4.127 -0.3728 -0.0158 -0.0776
  269MOL0     C37051  10.420   3.248   4.128 -0.8055  0.7473 -0.6883
  269MOL0     C37052  10.492   3.145   4.047 -0.3674 -0.6015 -0.6689
  269MOL0     H37053  10.841   3.507   4.091  1.8502  0.7606 -0.5971
  269MOL0     H37054  11.090   3.515   4.056  1.8247  0.3268  2.9593
  269MOL0     H37055  11.357   3.172   4.172  3.3764 -0.7126  0.2184
  269MOL0     H37056  11.344   3.325   4.267 -2.0179  1.6516 -0.9218
  269MOL0     H37057  11.487   3.277   4.003 -1.1045  0.2554  0.4912
  269MOL0     H37058  11.476   3.432   4.083 -0.1928  0.6072  1.8820
  269MOL0     H37059  11.600   3.355   4.281 -1.2902  0.7579 -0.8811
  269MOL0     H37060  11.596   3.189   4.200 -1.5179 -0.7669  0.8651
  269MOL0     H37061  11.718   3.275   4.014  0.9952  0.0608 -1.0671
  269MOL0     H37062  11.741   3.428   4.087 -2.7928  0.1363 -0.3014
  269MOL0     H37063  11.827   3.158   4.198 -0.3456 -0.1301 -2.1800
  269MOL0     H37064  11.891   3.310   4.276 -0.9555  1.0577  0.1773
  269MOL0     H37065  12.034   3.163   4.112 -0.5720 -1.3000 -2.1881
  269MOL0     H37066  11.936   3.227   3.981 -2.4755  0.7194  0.4346
  269MOL0     H37067  12.141   3.371   4.158 -0.8716 -0.3552  0.4835
  269MOL0     H37068  11.997   3.457   4.112 -0.3155 -0.3464 -0.7611
  269MOL0     H37069  12.167   3.307   3.909 -0.7319  0.0513  1.1125
  269MOL0     H37070  12.040   3.428   3.880 -1.8770  1.1496  3.5578
  269MOL0     H37071  12.107   3.693   4.002 -0.6062 -2.8379  1.1935
  269MOL0     H37072  12.356   3.899   3.858  0.5813 -0.5103 -0.2584
  269MOL0     H37073  12.432   3.865   4.018 -1.6342  0.5800  1.5090
  269MOL0     H37074  12.136   3.928   3.986 -0.2109 -3.7417 -0.1097
  269MOL0     H37075  12.228   3.881   4.129 -0.8415  1.7816  1.0409
  269MOL0     H37076  12.385   4.082   4.003 -2.1423  3.1272 -2.2985
  269MOL0     H37077  12.231   4.153   4.039  1.4856  1.9789  3.5838
  269MOL0     H37078  12.344   4.197   4.217 -1.1084 -0.1475 -0.6322
  269MOL0     H37079  12.273   4.051   4.285  6.1894 -2.1239  3.8256
  269MOL0     H37080  12.518   4.243   4.099  0.9644  0.3030 -0.2443
  269MOL0     H37081  12.629   4.424   4.036  0.6420  1.3951 -0.9111
  269MOL0     H37082  12.757   4.354   3.957 -0.5308 -0.1504 -0.5109
  269MOL0     H37083  12.786   4.465   4.099 -1.7817  1.6454 -1.3777
  269MOL0     H37084  13.052   4.537   4.008  0.5964  1.7222  1.1182
  269MOL0     H37085  13.264   4.668   4.019  1.6685 -0.7887 -2.0433
  269MOL0     H37086  13.699   4.614   4.084 -0.5677  0.3282  0.0135
  269MOL0     H37087  13.650   4.472   4.165  0.5756  1.0703  0.1818
  269MOL0     H37088  13.545   4.384   3.935 -0.8046 -0.1804 -0.7143
  269MOL0     H37089  13.615   4.509   3.865 -0.4407 -1.0152 -0.6980
  269MOL0     H37090  13.754   4.309   3.833 -0.6895 -2.2136  1.9109
  269MOL0     H37091  13.782   4.289   3.999 -0.6726 -0.2920  0.5313
  269MOL0     H37092  13.897   4.519   3.992 -1.4273  2.0126 -1.9759
  269MOL0     H37093  13.891   4.532   3.832  2.5792  0.0885 -0.5684
  269MOL0     H37094  14.047   4.306   3.980  0.4176  0.0092  0.4111
  269MOL0     H37095  14.020   4.313   3.798 -1.7748  0.9949  0.0136
  269MOL0     H37096  14.148   4.523   3.979  0.0910  1.0001 -0.9092
  269MOL0     H37097  14.127   4.538   3.803  0.3410  0.7546  0.6630
  269MOL0     H37098  14.271   4.338   3.777  1.1727  2.1403 -1.3595
  269MOL0     H37099  14.287   4.335   3.953 -0.0175  1.1702  0.9326
  269MOL0     H37100  14.360   4.577   3.772  0.3121  1.6403  2.4851
  269MOL0     H37101  14.492   4.461   3.817  0.1945  0.5969 -0.4329
  269MOL0     H37102  13.465   4.338   4.166  0.5756 -0.0630 -0.5957
  269MOL0     H37103  13.262   4.200   4.167 -1.2129  0.2894  0.8638
  269MOL0     H37104  12.883   4.050   4.360 -1.7586 -3.1629  2.2928
  269MOL0     H37105  12.646   3.940   4.369 -0.8928 -2.2217 -1.4919
  269MOL0     H37106  11.129   3.116   4.209 -0.4176  0.2661  0.5183
  269MOL0     H37107  10.874   3.115   4.247  0.7476  0.3418  2.0715
  269MOL0     H37108  10.449   3.499   4.351  3.8179 -2.2161 -0.4448
  269MOL0     H37109  10.205   3.497   4.338 -1.3423 -1.3409  0.8285
  269MOL0     H37110   9.870   3.402   4.169  0.6321 -2.5293 -1.0336
  269MOL0     H37111   9.988   3.493   4.283  0.4650 -4.5270  2.1873
  269MOL0     H37112  10.100   3.565   4.068  1.3546  0.3677 -0.6492
  269MOL0     H37113   9.927   3.614   4.081 -0.7051  0.4546 -1.2823
  269MOL0     H37114  10.006   3.375   3.915  0.6593 -0.2430  0.6814
  269MOL0     H37115   9.845   3.439   3.927  0.3048  0.1146 -0.9776
  269MOL0     H37116  10.056   3.623   3.825 -1.2650  2.7508  1.4875
  269MOL0     H37117   9.881   3.637   3.811  0.5761  0.2310  1.9624
  269MOL0     H37118   9.997   3.327   3.524 -2.2179 -0.7738 -0.0002
  269MOL0     H37119  10.223   3.164   4.075 -1.6628 -0.9166  2.4811
  269MOL0     H37120  10.561   3.182   3.970 -3.8084  2.2638 -2.6686
  269MOL0     H37121  10.554   3.095   4.122 -1.0523  0.7450  0.8409
  269MOL0     H37122  10.434   3.077   3.984 -1.3728 -0.2042 -0.1925
  270MOL0     O37123   5.862   0.769   3.453 -0.1640 -0.9725  0.0617
  270MOL0     C37124   5.788   0.700   3.386 -0.0001  0.1841 -0.2183
  270MOL0     O37125   5.827   0.596   3.299  0.2965 -0.0176 -0.4415
  270MOL0     C37126   5.959   0.562   3.282  0.2766 -0.2078 -0.1035
  270MOL0     C37127   6.001   0.431   3.311 -0.2485 -0.1023 -0.2566
  270MOL0     C37128   6.139   0.403   3.294 -0.7715  0.1254 -0.2986
  270MOL0     C37129   6.226   0.501   3.238 -0.5370 -0.4761 -0.1290
  270MOL0     O37130   6.361   0.482   3.218 -0.0363 -0.3877 -0.5857
  270MOL0     C37131   6.429   0.365   3.271 -0.0469 -0.5184  0.6272
  270MOL0     C37132   6.574   0.369   3.218 -0.3867  0.0834 -0.0249
  270MOL0     C37133   6.664   0.250   3.246 -0.1563  1.0185 -0.0449
  270MOL0     C37134   6.795   0.238   3.166  0.5631 -0.2094 -0.6598
  270MOL0     C37135   6.870   0.116   3.214  0.2675 -0.3562 -0.5438
  270MOL0     C37136   6.993   0.091   3.120  0.1956 -0.2490 -0.4346
  270MOL0     C37137   7.091   0.210   3.126 -0.2118  0.6110  0.6775
  270MOL0     C37138   7.199   0.184   3.012 -0.3871 -0.0877  0.1507
  270MOL0     N37139   7.285   0.068   3.041  0.4352 -0.0883  0.0424
  270MOL0     C37140   7.284  -0.055   2.984  0.0919  0.2307  0.0300
  270MOL0     C37141   7.354  -0.129   3.076  0.0751  0.1420 -0.7621
  270MOL0     C37142   7.377  -0.273   3.077 -1.1957  1.0814  0.1948
  270MOL0     C37143   7.272  -0.361   3.149 -0.1843  0.6322  0.0909
  270MOL0     C37144   7.127  -0.304   3.140  0.5338 -0.5874  0.2326
  270MOL0     C37145   7.030  -0.392   3.211  1.3344 -0.2906  0.4237
  270MOL0     O37146   7.017  -0.511   3.136  0.1472  0.7866  0.5419
  270MOL0     C37147   6.914  -0.605   3.160  0.2253  0.0845 -0.3339
  270MOL0     C37148   6.823  -0.617   3.270 -0.7147 -0.1242  0.6676
  270MOL0     C37149   6.715  -0.713   3.274  0.4509  0.7103 -0.0796
  270MOL0     C37150   6.621  -0.699   3.396  0.5536  0.0340 -0.1707
  270MOL0     C37151   6.707  -0.813   3.174  1.2410 -0.4015  0.4055
  270MOL0     C37152   6.600  -0.916   3.157 -0.5659  0.1411 -0.1613
  270MOL0     O37153   6.590  -0.975   3.033  0.0233  0.0641  0.5530
  270MOL0     C37154   6.469  -1.012   2.985 -0.4352  0.4414  0.8089
  270MOL0     C37155   6.349  -0.962   3.030 -0.3785  0.1318  0.3558
  270MOL0     C37156   6.226  -1.001   2.983 -0.1867  0.2604 -0.1527
  270MOL0     C37157   6.225  -1.112   2.890  0.2581  0.3138 -0.3934
  270MOL0     O37158   6.101  -1.150   2.834  0.2804  0.4192 -0.3110
  270MOL0     C37159   6.083  -1.119   2.697  0.6038 -0.8595  0.1208
  270MOL0     C37160   5.995  -0.999   2.671 -0.0244  0.1209  0.1792
  270MOL0     C37161   5.847  -1.021   2.698  0.0975 -0.2544  0.7622
  270MOL0     C37162   5.763  -0.886   2.686 -0.4094 -0.4683  0.2425
  270MOL0     C37163   5.613  -0.905   2.707  0.1574 -0.4151 -0.5133
  270MOL0     C37164   5.560  -0.968   2.844  0.0534  0.3861  0.5974
  270MOL0     C37165   5.424  -0.908   2.873 -0.6733  0.0283 -0.3306
  270MOL0     C37166   5.369  -0.914   3.023  0.6590 -1.0962  0.0190
  270MOL0    Cl37167   5.492  -0.866   3.125 -0.3297 -0.1359  0.1606
  270MOL0     C37168   6.345  -1.173   2.853  0.2735 -1.7611 -0.1669
  270MOL0     C37169   6.467  -1.120   2.893  0.7226  0.5947  0.6791
  270MOL0     O37170   6.535  -0.953   3.259  0.1481  0.2064 -0.5632
  270MOL0     C37171   6.810  -0.813   3.071 -0.1087 -0.1285  0.4505
  270MOL0     C37172   6.902  -0.707   3.072  0.4952  0.3855 -0.5332
  270MOL0     N37173   7.403  -0.047   3.178  0.4249 -0.4609  0.6378
  270MOL0     N37174   7.361   0.074   3.157 -0.5830  0.2002 -0.5386
  270MOL0     C37175   6.174   0.624   3.199  0.3438  0.3135 -0.5963
  270MOL0     C37176   6.040   0.653   3.224 -0.2351 -1.5311  0.2589
  270MOL0     C37177   5.644   0.700   3.420 -0.0207 -0.0291 -0.0312
  270MOL0     C37178   5.574   0.578   3.413 -0.5491 -0.7311  0.1734
  270MOL0     C37179   5.448   0.561   3.458 -0.6755 -0.2503  0.3224
  270MOL0     C37180   5.390   0.652   3.544  0.7661 -0.7277  0.0288
  270MOL0     O37181   5.263   0.632   3.594 -0.1629 -0.5990  0.2209
  270MOL0     C37182   5.166   0.544   3.540 -0.5447  0.2013  0.3858
  270MOL0     C37183   5.043   0.562   3.627 -0.7260  0.2813  0.7405
  270MOL0     C37184   4.930   0.648   3.565 -0.4650 -0.6772 -0.0176
  270MOL0     C37185   4.964   0.793   3.586  0.3326 -0.0346  0.0268
  270MOL0     C37186   4.871   0.891   3.528  0.1766 -0.1142  0.0651
  270MOL0     C37187   4.775   0.962   3.487 -0.1120 -0.4743 -0.3698
  270MOL0     C37188   5.460   0.777   3.568  0.4590  0.3367  0.2371
  270MOL0     C37189   5.581   0.804   3.487 -0.4581  0.3868 -0.6828
  270MOL0     C37190   5.648   0.936   3.496  1.1575 -0.5313  0.2734
  270MOL0     H37191   5.935   0.359   3.359  0.2705 -0.9494 -0.7937
  270MOL0     H37192   6.176   0.305   3.320  1.9774  1.0446 -0.3301
  270MOL0     H37193   6.376   0.281   3.224  0.3035 -0.5088  0.2020
  270MOL0     H37194   6.420   0.369   3.379 -0.5935  1.1193  0.5574
  270MOL0     H37195   6.566   0.381   3.110  2.6301 -0.7317 -0.4151
  270MOL0     H37196   6.620   0.455   3.269 -0.2670 -0.4360  0.7619
  270MOL0     H37197   6.680   0.226   3.351 -4.3211 -2.3393  0.0950
  270MOL0     H37198   6.605   0.166   3.208  1.9016 -0.0729 -0.9925
  270MOL0     H37199   6.780   0.239   3.058  2.0780  0.3419 -0.8903
  270MOL0     H37200   6.858   0.324   3.187  0.8579 -0.4845 -0.3931
  270MOL0     H37201   6.803   0.031   3.202  1.0969 -1.9781  4.1831
  270MOL0     H37202   6.913   0.144   3.311  0.8077 -1.5972 -0.4048
  270MOL0     H37203   7.049   0.006   3.160  0.1147 -1.0788 -2.0149
  270MOL0     H37204   6.961   0.066   3.018 -2.3569 -3.5508  0.9721
  270MOL0     H37205   7.144   0.213   3.222  2.7771  0.2937 -0.8217
  270MOL0     H37206   7.037   0.303   3.105 -0.0619  0.2331 -1.7650
  270MOL0     H37207   7.144   0.165   2.919 -1.6108 -1.1451  1.0415
  270MOL0     H37208   7.261   0.273   3.007 -0.9428  0.2852 -0.2871
  270MOL0     H37209   7.238  -0.084   2.890  0.7439 -3.1132  0.6029
  270MOL0     H37210   7.473  -0.291   3.127 -2.3722  2.5056  3.1610
  270MOL0     H37211   7.400  -0.300   2.973 -2.8018  1.1907 -0.2120
  270MOL0     H37212   7.264  -0.461   3.106 -2.3156  0.8826 -0.1850
  270MOL0     H37213   7.301  -0.386   3.252 -0.8273 -1.5565 -0.2101
  270MOL0     H37214   7.126  -0.200   3.175  0.6832  0.8138 -3.4964
  270MOL0     H37215   7.085  -0.284   3.041 -0.4893  2.7007  1.2066
  270MOL0     H37216   7.071  -0.419   3.308  0.3816  0.7227  1.1358
  270MOL0     H37217   6.932  -0.348   3.232  1.5189 -0.6404  2.1486
  270MOL0     H37218   6.823  -0.538   3.344 -0.6826  2.7376 -2.1527
  270MOL0     H37219   6.635  -0.779   3.469  0.4702  1.5451  1.5760
  270MOL0     H37220   6.518  -0.688   3.360 -0.5272  0.4443  2.7576
  270MOL0     H37221   6.644  -0.612   3.457  0.6497 -0.7708  0.9725
  270MOL0     H37222   6.341  -0.891   3.111  2.0150  1.5296 -0.5198
  270MOL0     H37223   6.126  -0.966   3.008 -2.2219 -1.6817 -4.4888
  270MOL0     H37224   6.169  -1.102   2.631  1.5180 -0.3119  1.4143
  270MOL0     H37225   6.027  -1.205   2.658 -1.2351 -0.7993  2.4106
  270MOL0     H37226   6.045  -0.915   2.719  2.1098 -1.7111  1.3962
  270MOL0     H37227   5.995  -0.982   2.563 -2.0365 -0.1499  0.0884
  270MOL0     H37228   5.826  -1.073   2.793 -0.2113  0.6823  1.2134
  270MOL0     H37229   5.814  -1.079   2.612  1.4777  4.1250 -3.1361
  270MOL0     H37230   5.785  -0.833   2.593  3.9830 -1.7997  0.2574
  270MOL0     H37231   5.797  -0.814   2.761  0.2005 -0.2982 -0.1876
  270MOL0     H37232   5.568  -0.806   2.698  2.1363  0.6756  0.9591
  270MOL0     H37233   5.585  -0.972   2.624  1.4526 -1.4410 -0.1534
  270MOL0     H37234   5.625  -0.937   2.926  0.5110  1.0676 -0.0140
  270MOL0     H37235   5.569  -1.077   2.841 -2.4898  0.0975  1.3624
  270MOL0     H37236   5.356  -0.939   2.793 -1.3021  3.4309 -1.2941
  270MOL0     H37237   5.430  -0.800   2.860  0.0707  0.3147  2.0425
  270MOL0     H37238   5.334  -1.013   3.054  0.7264 -0.7402  1.2950
  270MOL0     H37239   5.289  -0.839   3.027  1.8495  0.4153 -2.1808
  270MOL0     H37240   6.344  -1.252   2.777 -1.8577 -0.7257 -1.3140
  270MOL0     H37241   6.560  -1.150   2.845  1.0857  1.9064  0.5300
  270MOL0     H37242   6.806  -0.875   2.982 -2.6587  2.3559 -1.3244
  270MOL0     H37243   6.977  -0.701   2.994 -0.3582  1.1201 -1.3265
  270MOL0     H37244   6.246   0.698   3.166  0.8798  0.8276  1.5382
  270MOL0     H37245   6.013   0.756   3.199  3.1905 -0.1881  1.4690
  270MOL0     H37246   5.636   0.495   3.379  3.2812  1.3827  1.3973
  270MOL0     H37247   5.409   0.465   3.426  1.5267  0.0309 -3.8771
  270MOL0     H37248   5.142   0.571   3.436  2.1147 -0.4966 -0.4767
  270MOL0     H37249   5.211   0.445   3.540 -1.3511 -0.2295 -1.4763
  270MOL0     H37250   5.066   0.591   3.730 -0.9728 -0.1973  0.9347
  270MOL0     H37251   5.005   0.459   3.632  0.2741 -0.0608  1.7892
  270MOL0     H37252   4.918   0.618   3.461 -1.0026  1.9120 -0.7675
  270MOL0     H37253   4.836   0.629   3.618 -1.0106 -1.6539 -1.2735
  270MOL0     H37254   5.061   0.815   3.541 -0.5637 -0.1487 -2.0781
  270MOL0     H37255   4.961   0.814   3.693  0.9264  0.7272 -0.0932
  270MOL0     H37256   4.697   1.013   3.435 -1.4744 -1.8886  0.2047
  270MOL0     H37257   5.405   0.851   3.625 -2.2099 -0.7703 -0.7050
  270MOL0     H37258   5.569   1.008   3.515 -1.8046 -2.0996 -4.4666
  270MOL0     H37259   5.726   0.948   3.572 -1.3332 -0.4430  2.9995
  270MOL0     H37260   5.689   0.967   3.400  1.1068 -2.1536 -0.3013
  271MOL0     O37261   9.299   3.424   0.677 -0.0046 -0.7041 -0.3583
  271MOL0     C37262   9.226   3.519   0.682  0.0432 -0.2456  0.1414
  271MOL0     O37263   9.127   3.536   0.588  0.6225 -0.0724 -0.4647
  271MOL0     C37264   9.151   3.519   0.457  0.8701 -0.4150  0.4544
  271MOL0     C37265   9.207   3.627   0.370 -0.1182  0.2854 -0.0007
  271MOL0     C37266   9.243   3.592   0.243 -0.4097  0.2834  1.2620
  271MOL0     C37267   9.223   3.459   0.187  0.4576  0.4092  0.1026
  271MOL0     O37268   9.233   3.443   0.051 -0.2230 -0.6006 -0.3631
  271MOL0     C37269   9.288   3.311   0.027 -0.1727  0.0267  0.1852
  271MOL0     C37270   9.335   3.311  -0.117 -0.1615 -0.8109 -0.0768
  271MOL0     C37271   9.458   3.399  -0.131 -0.1492 -0.1643  0.5953
  271MOL0     C37272   9.538   3.367  -0.268 -0.1079  0.1451 -0.4826
  271MOL0     C37273   9.637   3.475  -0.300 -0.1858 -0.3836 -0.3907
  271MOL0     C37274   9.741   3.493  -0.187 -0.2164 -0.6489  0.3738
  271MOL0     C37275   9.838   3.378  -0.160  0.3259 -0.0847  0.1459
  271MOL0     C37276   9.945   3.342  -0.260 -0.1324  0.4427 -0.1012
  271MOL0     N37277  10.041   3.448  -0.294 -0.2041  0.5275 -0.7879
  271MOL0     C37278  10.049   3.512  -0.415 -0.8727  0.3087  0.4245
  271MOL0     C37279  10.153   3.595  -0.404 -0.2091  0.6710 -0.8495
  271MOL0     C37280  10.210   3.692  -0.503 -1.3173 -0.1838 -0.2258
  271MOL0     C37281  10.283   3.816  -0.439 -0.3018  0.0875  0.1367
  271MOL0     C37282  10.194   3.894  -0.344 -0.7823  0.3748  0.4382
  271MOL0     C37283  10.269   4.007  -0.286 -1.0130 -0.3500 -0.4642
  271MOL0     O37284  10.336   4.087  -0.383 -0.1600 -0.5706 -0.3264
  271MOL0     C37285  10.448   4.140  -0.345 -0.8574 -0.1779 -0.0005
  271MOL0     C37286  10.549   4.145  -0.441  0.4856  0.7708  0.8450
  271MOL0     C37287  10.665   4.220  -0.427 -0.1496 -0.2057  0.6096
  271MOL0     C37288  10.761   4.222  -0.533 -0.1757 -0.7870  0.7195
  271MOL0     C37289  10.687   4.303  -0.321  0.5827 -0.1231  0.2188
  271MOL0     C37290  10.821   4.367  -0.276  0.1523 -0.1335  0.3331
  271MOL0     O37291  10.808   4.479  -0.186 -0.3904  0.6589 -0.4585
  271MOL0     C37292  10.923   4.529  -0.115 -0.4823 -0.7606  0.8715
  271MOL0     C37293  10.895   4.585   0.010  0.2244 -0.4557  1.1054
  271MOL0     C37294  11.002   4.641   0.083  0.0343  0.2983  0.0812
  271MOL0     C37295  11.134   4.630   0.038  0.3992  0.2833 -0.2829
  271MOL0     O37296  11.238   4.672   0.123  0.2525 -0.5037  0.2528
  271MOL0     C37297  11.316   4.782   0.067  0.0453 -0.1903 -0.0459
  271MOL0     C37298  11.441   4.798   0.162 -0.6906  0.2882  0.0890
  271MOL0     C37299  11.551   4.696   0.132  0.4123  0.5720  1.1255
  271MOL0     C37300  11.507   4.556   0.169  0.0445 -0.1110  0.2172
  271MOL0     C37301  11.627   4.454   0.169  0.2241 -0.2426  0.4915
  271MOL0     C37302  11.575   4.316   0.215  0.3247 -0.1936  0.5854
  271MOL0     C37303  11.689   4.215   0.193  0.1672 -0.1488 -0.2678
  271MOL0     C37304  11.659   4.071   0.241  0.1001  0.0080 -0.8778
  271MOL0    Cl37305  11.817   3.990   0.268  0.5479 -0.2561 -0.8027
  271MOL0     C37306  11.159   4.569  -0.084 -0.1640 -0.2942 -0.1139
  271MOL0     C37307  11.048   4.525  -0.163  0.6838 -0.8416 -0.8204
  271MOL0     O37308  10.923   4.299  -0.301 -0.4503 -0.1132 -0.0335
  271MOL0     C37309  10.591   4.312  -0.225 -0.4771 -0.2352  0.2204
  271MOL0     C37310  10.471   4.227  -0.235  0.0023 -0.1850 -0.9495
  271MOL0     N37311  10.203   3.571  -0.273 -0.4229 -0.1839  0.3201
  271MOL0     N37312  10.138   3.484  -0.210  0.1967 -0.5389 -0.9899
  271MOL0     C37313   9.177   3.363   0.277 -0.3020 -0.3452 -0.2321
  271MOL0     C37314   9.132   3.389   0.404 -0.1863 -0.6683  0.2448
  271MOL0     C37315   9.228   3.606   0.798  0.0104 -0.5942 -0.3659
  271MOL0     C37316   9.108   3.668   0.845 -0.4291  0.0460  0.2226
  271MOL0     C37317   9.104   3.772   0.943 -0.1187 -0.8673  0.0529
  271MOL0     C37318   9.228   3.817   0.997 -0.0305  0.7981 -0.2177
  271MOL0     O37319   9.220   3.904   1.102 -0.0153 -0.3249 -0.3144
  271MOL0     C37320   9.345   3.960   1.159  0.5536 -0.0447 -0.6410
  271MOL0     C37321   9.317   4.069   1.267 -0.6271  0.5585 -0.6789
  271MOL0     C37322   9.198   4.049   1.362  0.1689 -0.0826 -0.0731
  271MOL0     C37323   9.189   4.162   1.458  0.1634 -0.0037  0.0485
  271MOL0     C37324   9.118   4.283   1.401 -0.2295 -0.6476 -0.3793
  271MOL0     C37325   9.059   4.383   1.351 -0.1811 -0.3260 -0.1341
  271MOL0     C37326   9.342   3.754   0.958  0.0632 -0.2707  0.3172
  271MOL0     C37327   9.351   3.651   0.864 -0.3279 -0.0216  0.2047
  271MOL0     C37328   9.488   3.608   0.818 -0.6555  0.7066  0.0534
  271MOL0     H37329   9.212   3.732   0.396 -0.1663  1.3433 -3.7551
  271MOL0     H37330   9.292   3.655   0.169  0.0002 -0.2206  1.0930
  271MOL0     H37331   9.216   3.230   0.034  1.7893 -2.2526 -3.0276
  271MOL0     H37332   9.368   3.273   0.091 -3.2266 -3.9507  2.0630
  271MOL0     H37333   9.368   3.209  -0.140 -0.4488 -1.6330  2.8082
  271MOL0     H37334   9.253   3.335  -0.185  0.4955  0.6867 -0.3767
  271MOL0     H37335   9.421   3.502  -0.128  0.8229  0.2545 -0.6749
  271MOL0     H37336   9.527   3.387  -0.047 -1.7275 -0.3624  1.8929
  271MOL0     H37337   9.585   3.269  -0.263 -0.8206 -0.2425 -1.1972
  271MOL0     H37338   9.468   3.379  -0.351 -0.2767  2.7691 -0.0406
  271MOL0     H37339   9.581   3.568  -0.312 -0.3833 -0.4446  0.0520
  271MOL0     H37340   9.704   3.458  -0.384  0.0375 -0.5411 -0.1808
  271MOL0     H37341   9.800   3.581  -0.214  0.9094 -1.5325 -0.1171
  271MOL0     H37342   9.698   3.509  -0.088  1.9086  2.7569  0.8862
  271MOL0     H37343   9.778   3.289  -0.142 -0.1862  0.0706 -0.7504
  271MOL0     H37344   9.903   3.408  -0.077  0.4156  0.8988 -0.2558
  271MOL0     H37345   9.980   3.246  -0.222 -1.6261 -0.1485 -0.1467
  271MOL0     H37346   9.896   3.306  -0.351 -2.2952 -2.2450  1.9670
  271MOL0     H37347   9.978   3.504  -0.498  1.0730 -1.8403 -1.1624
  271MOL0     H37348  10.130   3.737  -0.564 -2.1467 -2.0004 -0.5370
  271MOL0     H37349  10.276   3.626  -0.560 -0.5611  0.2897  0.0929
  271MOL0     H37350  10.367   3.786  -0.376  0.2239  0.1323 -0.5397
  271MOL0     H37351  10.318   3.872  -0.526  0.0576 -2.1284 -1.2480
  271MOL0     H37352  10.111   3.936  -0.402 -1.0028  1.7416  1.7023
  271MOL0     H37353  10.171   3.818  -0.269  0.3300  0.4524  0.8678
  271MOL0     H37354  10.209   4.069  -0.219 -1.6409 -2.5286  1.1223
  271MOL0     H37355  10.343   3.970  -0.214 -1.2885 -0.8654 -0.4397
  271MOL0     H37356  10.541   4.080  -0.528  1.0456  1.8268 -0.0165
  271MOL0     H37357  10.717   4.210  -0.633 -0.5120  2.1524  0.4240
  271MOL0     H37358  10.841   4.150  -0.511 -0.0967 -0.9254  0.0110
  271MOL0     H37359  10.805   4.322  -0.533  3.1316 -2.0799 -0.5808
  271MOL0     H37360  10.793   4.604   0.042  0.1681 -0.4138  0.9019
  271MOL0     H37361  10.964   4.692   0.171  1.9848  1.2207  0.4334
  271MOL0     H37362  11.345   4.767  -0.038  0.0021  2.5299 -0.5100
  271MOL0     H37363  11.264   4.877   0.082 -3.8385 -2.4570  2.9441
  271MOL0     H37364  11.478   4.901   0.157  1.5626 -0.3872  1.3679
  271MOL0     H37365  11.409   4.784   0.266 -1.8819  0.8166 -0.1876
  271MOL0     H37366  11.642   4.724   0.186  1.8720 -1.3030 -0.2437
  271MOL0     H37367  11.585   4.709   0.029  1.2093  1.0670  1.4429
  271MOL0     H37368  11.428   4.518   0.102 -0.4283  1.8503 -0.3971
  271MOL0     H37369  11.462   4.559   0.268 -1.9718 -1.3207 -0.5980
  271MOL0     H37370  11.671   4.455   0.069 -0.4718  1.4264  0.1657
  271MOL0     H37371  11.699   4.481   0.246 -1.3740 -0.2184  2.0507
  271MOL0     H37372  11.488   4.285   0.156 -0.1170  1.4682  0.3323
  271MOL0     H37373  11.547   4.321   0.321 -2.0879  1.3878 -0.0409
  271MOL0     H37374  11.778   4.246   0.248  1.2534 -1.9354 -0.9404
  271MOL0     H37375  11.719   4.221   0.088  3.0207  3.5605  0.5671
  271MOL0     H37376  11.586   4.029   0.172  0.2779 -0.9015 -0.5245
  271MOL0     H37377  11.607   4.072   0.337  1.7491 -2.4867  0.1571
  271MOL0     H37378  11.261   4.559  -0.120  0.3228  0.2522  1.0434
  271MOL0     H37379  11.065   4.485  -0.263  4.1023 -1.4621 -0.1164
  271MOL0     H37380  10.620   4.372  -0.139  0.9355 -0.0000 -0.3760
  271MOL0     H37381  10.400   4.244  -0.155  0.8541 -2.2475  0.3384
  271MOL0     H37382   9.167   3.262   0.238  2.3007  0.1900 -2.7137
  271MOL0     H37383   9.093   3.310   0.468 -0.4588  0.3222  1.3586
  271MOL0     H37384   9.025   3.635   0.784 -2.4171  2.8731  1.1901
  271MOL0     H37385   9.016   3.828   0.974 -0.6473 -2.6808  2.0761
  271MOL0     H37386   9.407   3.878   1.198  0.5749  0.4800  0.4563
  271MOL0     H37387   9.402   4.010   1.080  0.5933 -1.4043 -1.5174
  271MOL0     H37388   9.286   4.154   1.205 -2.5263 -1.3974 -2.5589
  271MOL0     H37389   9.408   4.081   1.327 -0.1117  0.8178 -1.4950
  271MOL0     H37390   9.106   4.033   1.306  1.9314 -1.7182 -2.7368
  271MOL0     H37391   9.211   3.957   1.420 -0.7469 -0.3540 -0.2947
  271MOL0     H37392   9.287   4.192   1.498 -0.9555  0.7652  2.3930
  271MOL0     H37393   9.129   4.146   1.548 -0.2368  0.2108 -0.1805
  271MOL0     H37394   9.011   4.464   1.301  1.6952 -0.1689 -1.7875
  271MOL0     H37395   9.434   3.790   1.001  0.6489 -0.9067 -0.3667
  271MOL0     H37396   9.566   3.649   0.883  0.5655  3.4067 -2.8698
  271MOL0     H37397   9.499   3.499   0.822 -3.3777  0.3493 -0.0156
  271MOL0     H37398   9.521   3.655   0.725  0.9432  2.1443  1.2775
  272MOL0     O37399   9.405   2.589  11.336 -0.5155  0.2657 -0.3095
  272MOL0     C37400   9.345   2.620  11.436  0.2196  0.0428 -0.0483
  272MOL0     O37401   9.400   2.626  11.559 -0.2785 -0.1266  0.1499
  272MOL0     C37402   9.529   2.663  11.592  0.1346  0.2639  0.0945
  272MOL0     C37403   9.549   2.707  11.725  0.1209 -0.1310 -0.2363
  272MOL0     C37404   9.674   2.761  11.769 -0.1134 -0.2114  0.2058
  272MOL0     C37405   9.781   2.756  11.667  0.4431 -0.0969  0.2353
  272MOL0     O37406   9.907   2.799  11.699 -0.4466 -0.5636 -0.7438
  272MOL0     C37407   9.946   2.783  11.835 -0.0762 -0.1380  0.0370
  272MOL0     C37408   9.964   2.915  11.908 -0.6096 -1.2460  0.8101
  272MOL0     C37409  10.066   3.010  11.836 -0.5453 -0.6179 -0.4920
  272MOL0     C37410  10.216   3.011  11.887 -0.0184  0.6642  0.7340
  272MOL0     C37411  10.238   3.069  12.024 -1.0486  0.6239 -0.5620
  272MOL0     C37412  10.387   3.092  12.040 -0.2764  0.5116 -0.7154
  272MOL0     C37413  10.430   3.153  12.170 -0.8412  0.1611  0.0371
  272MOL0     C37414  10.571   3.209  12.183  0.2308  0.5852 -0.4235
  272MOL0     N37415  10.595   3.335  12.106 -0.0304  0.0024 -0.5543
  272MOL0     C37416  10.652   3.347  11.983 -0.2741  0.1208 -0.0145
  272MOL0     C37417  10.629   3.472  11.947 -0.2806 -0.4878  0.2816
  272MOL0     C37418  10.674   3.529  11.819  0.1873 -0.4934 -0.7144
  272MOL0     C37419  10.810   3.597  11.822 -0.1041 -0.0945  0.1610
  272MOL0     C37420  10.828   3.699  11.929 -0.6037  0.6319  0.1623
  272MOL0     C37421  10.967   3.769  11.920 -0.0220  0.2034 -0.3178
  272MOL0     O37422  10.947   3.851  11.800 -0.5554  0.5391 -0.1816
  272MOL0     C37423  10.894   3.976  11.795 -0.2214 -0.4098 -1.2343
  272MOL0     C37424  10.903   4.058  11.681 -0.3298 -1.1880 -0.3986
  272MOL0     C37425  10.832   4.181  11.664 -0.3720 -0.6625 -1.1319
  272MOL0     C37426  10.832   4.242  11.527 -0.7536  0.4776  0.6367
  272MOL0     C37427  10.781   4.240  11.788  1.3735  0.2543 -0.3386
  272MOL0     C37428  10.714   4.367  11.788 -0.2259  0.6014 -0.5104
  272MOL0     O37429  10.691   4.413  11.914 -0.1430  0.5721  0.0493
  272MOL0     C37430  10.627   4.531  11.922 -0.6030 -0.2613  0.6847
  272MOL0     C37431  10.703   4.648  11.924 -0.4267  0.0761 -0.1074
  272MOL0     C37432  10.643   4.779  11.913  0.4531 -0.3148 -0.1095
  272MOL0     C37433  10.500   4.781  11.904  1.2161  0.1223 -0.1191
  272MOL0     O37434  10.418   4.893  11.894  0.3886  0.1447  0.4404
  272MOL0     C37435  10.475   5.014  11.845 -0.0312 -0.2685 -0.6313
  272MOL0     C37436  10.529   5.100  11.955 -0.1995 -0.1740 -0.4213
  272MOL0     C37437  10.651   5.178  11.915 -1.1082 -0.7277  0.7581
  272MOL0     C37438  10.625   5.283  11.805 -0.5690  1.0384 -0.2591
  272MOL0     C37439  10.745   5.369  11.773 -0.1625  0.0572  0.6461
  272MOL0     C37440  10.725   5.465  11.655  0.4166 -0.6643 -0.0596
  272MOL0     C37441  10.819   5.589  11.639  0.5121  0.2099 -0.0165
  272MOL0     C37442  10.831   5.648  11.495  0.2986  0.3871  0.4666
  272MOL0    Cl37443  10.668   5.703  11.448  0.0674 -0.4964  0.2644
  272MOL0     C37444  10.424   4.670  11.922 -0.2320 -0.2556  0.0062
  272MOL0     C37445  10.487   4.547  11.924  0.9827  0.0748 -0.4082
  272MOL0     O37446  10.666   4.417  11.682 -0.4137 -0.4793 -0.6021
  272MOL0     C37447  10.778   4.165  11.904 -0.5851  0.6034 -0.6742
  272MOL0     C37448  10.830   4.033  11.906  0.0435 -0.1256  0.8280
  272MOL0     N37449  10.545   3.528  12.034  0.3299 -0.4642  0.7176
  272MOL0     N37450  10.523   3.444  12.120  0.9175  0.1162 -0.0563
  272MOL0     C37451   9.761   2.689  11.543 -0.6700 -0.2757  0.4911
  272MOL0     C37452   9.637   2.648  11.506  1.1532  0.6616  0.6660
  272MOL0     C37453   9.189   2.614  11.425 -1.1365  0.1778 -0.0366
  272MOL0     C37454   9.121   2.619  11.549 -0.1418  0.4296 -0.9413
  272MOL0     C37455   8.983   2.598  11.552 -0.5254 -0.1315  0.5240
  272MOL0     C37456   8.915   2.570  11.430 -0.2277  0.4857  0.2604
  272MOL0     O37457   8.781   2.541  11.450  0.9532 -0.0487 -0.2228
  272MOL0     C37458   8.705   2.477  11.347  0.4541  0.3765 -0.1081
  272MOL0     C37459   8.563   2.455  11.392 -0.0700 -0.1264 -0.1722
  272MOL0     C37460   8.492   2.585  11.428  0.4723  0.3648 -0.1042
  272MOL0     C37461   8.358   2.551  11.499  0.2903 -0.8443 -0.6286
  272MOL0     C37462   8.266   2.484  11.406 -0.5195  0.2268  1.0173
  272MOL0     C37463   8.191   2.431  11.329 -0.7244 -0.3958 -0.0418
  272MOL0     C37464   8.993   2.575  11.310  1.1834  0.3990 -0.6608
  272MOL0     C37465   9.122   2.603  11.299 -0.3965  0.1302 -0.6727
  272MOL0     C37466   9.179   2.622  11.162 -0.0576 -0.8499 -0.2145
  272MOL0     H37467   9.467   2.718  11.796  1.8260  2.3521  1.5053
  272MOL0     H37468   9.683   2.807  11.867 -0.9183 -1.4558  0.8981
  272MOL0     H37469  10.043   2.734  11.822 -1.7122 -2.7862 -3.9646
  272MOL0     H37470   9.890   2.713  11.898  1.9480 -2.1893 -0.3115
  272MOL0     H37471   9.867   2.966  11.913 -0.0599  0.0433 -0.5475
  272MOL0     H37472   9.999   2.903  12.011  2.6279  1.2300  0.1771
  272MOL0     H37473  10.061   2.983  11.730  1.5249  0.9922 -1.0629
  272MOL0     H37474  10.041   3.115  11.852  1.7954 -0.3148  2.0655
  272MOL0     H37475  10.241   2.905  11.891 -4.0857 -0.3921  2.5251
  272MOL0     H37476  10.285   3.060  11.817  4.3635 -1.3618  3.1753
  272MOL0     H37477  10.202   3.007  12.107  2.7392  3.2564  3.5543
  272MOL0     H37478  10.188   3.166  12.036 -0.4748  0.7570  1.1567
  272MOL0     H37479  10.432   2.992  12.046 -3.3284 -0.8533  3.0845
  272MOL0     H37480  10.433   3.140  11.953 -1.1048  0.0109 -1.4498
  272MOL0     H37481  10.431   3.066  12.237 -2.0622  0.4702  0.4840
  272MOL0     H37482  10.354   3.222  12.208 -0.3478 -0.4925  2.3353
  272MOL0     H37483  10.578   3.222  12.291 -1.1300 -4.4419  0.5222
  272MOL0     H37484  10.630   3.122  12.155 -0.9891 -0.1440 -0.8323
  272MOL0     H37485  10.706   3.268  11.931  1.5444  0.9549  0.5285
  272MOL0     H37486  10.599   3.602  11.789 -1.1995 -2.0082 -1.0834
  272MOL0     H37487  10.678   3.454  11.740 -1.3634 -0.7840 -0.5516
  272MOL0     H37488  10.889   3.524  11.843  0.9288  0.8611 -0.3284
  272MOL0     H37489  10.845   3.626  11.723  0.1729 -2.1608 -0.3916
  272MOL0     H37490  10.739   3.763  11.925 -1.5611 -0.6730  0.0390
  272MOL0     H37491  10.813   3.648  12.025 -0.1481 -1.9339 -1.0497
  272MOL0     H37492  10.991   3.832  12.007  1.3881 -0.0354 -0.5168
  272MOL0     H37493  11.046   3.694  11.908 -0.9392 -1.0213  1.0311
  272MOL0     H37494  10.965   4.026  11.598 -0.2784  0.9082 -1.2374
  272MOL0     H37495  10.735   4.218  11.482  0.2962 -0.9842 -0.9249
  272MOL0     H37496  10.906   4.197  11.461  0.0462  0.9997  1.1471
  272MOL0     H37497  10.868   4.344  11.541  2.3214 -0.7109  2.2234
  272MOL0     H37498  10.811   4.642  11.935 -0.2730  2.6194  0.4527
  272MOL0     H37499  10.704   4.868  11.924 -0.5854  0.4477 -0.3253
  272MOL0     H37500  10.552   4.991  11.771 -0.0134 -0.4831 -0.5459
  272MOL0     H37501  10.397   5.069  11.792 -1.2526 -0.5515  0.7929
  272MOL0     H37502  10.454   5.160  12.007  1.2811 -0.3404  2.0385
  272MOL0     H37503  10.554   5.032  12.037 -0.1057  0.5672  0.1672
  272MOL0     H37504  10.729   5.112  11.876 -0.8031  0.1125 -0.1261
  272MOL0     H37505  10.689   5.218  12.009  0.4094 -2.0440  0.7469
  272MOL0     H37506  10.540   5.348  11.827 -2.0177 -0.3417 -1.5190
  272MOL0     H37507  10.613   5.222  11.715  2.8484  0.1763 -0.2535
  272MOL0     H37508  10.776   5.419  11.865  1.6748 -1.7295  1.0857
  272MOL0     H37509  10.827   5.303  11.742  0.4222  2.0231 -2.5356
  272MOL0     H37510  10.622   5.500  11.665  1.6928  3.6727  0.1481
  272MOL0     H37511  10.740   5.402  11.567  2.0093 -0.0042 -0.2823
  272MOL0     H37512  10.918   5.575  11.684  0.0354 -2.3341  0.3961
  272MOL0     H37513  10.788   5.673  11.702  1.0852  0.8519 -0.5701
  272MOL0     H37514  10.873   5.574  11.426 -2.2447 -1.6320  0.9145
  272MOL0     H37515  10.909   5.723  11.505  1.0084 -0.6926  4.8141
  272MOL0     H37516  10.316   4.673  11.932 -0.0021 -0.0471  3.4534
  272MOL0     H37517  10.418   4.463  11.919 -1.6301  2.0514  0.5079
  272MOL0     H37518  10.746   4.205  12.000  3.0805  2.4732 -0.0866
  272MOL0     H37519  10.815   3.971  11.994 -1.1201 -2.3921 -0.8663
  272MOL0     H37520   9.842   2.681  11.470 -0.9228 -0.8650  0.2622
  272MOL0     H37521   9.621   2.610  11.405  0.3329  2.0749  0.2360
  272MOL0     H37522   9.177   2.637  11.640 -2.0300  1.9074 -0.0008
  272MOL0     H37523   8.911   2.613  11.632 -1.3245 -1.2607  0.0489
  272MOL0     H37524   8.701   2.544  11.261 -0.2155 -1.3796 -1.5123
  272MOL0     H37525   8.756   2.387  11.310 -1.6828 -0.2496 -1.7103
  272MOL0     H37526   8.564   2.389  11.479 -0.7199  0.3988  0.2446
  272MOL0     H37527   8.515   2.407  11.307  0.0430  1.7556 -1.3526
  272MOL0     H37528   8.550   2.647  11.497 -3.9443  2.5323  2.0567
  272MOL0     H37529   8.476   2.650  11.341 -1.9669 -1.5784 -1.2436
  272MOL0     H37530   8.300   2.634  11.541 -0.8746 -1.4969 -0.9211
  272MOL0     H37531   8.377   2.489  11.587 -1.8801 -2.2561 -1.0889
  272MOL0     H37532   8.132   2.376  11.259 -0.7950  0.4243 -0.6389
  272MOL0     H37533   8.925   2.581  11.225  0.3447  0.8110  0.0240
  272MOL0     H37534   9.241   2.712  11.154 -1.8799  0.4312 -0.4781
  272MOL0     H37535   9.234   2.530  11.142 -0.0036 -0.6095 -1.1904
  272MOL0     H37536   9.101   2.622  11.086  1.4942 -0.8508 -1.8781
  273MOL0     O37537   3.954   7.908   8.275 -0.3743 -0.7557  0.0763
  273MOL0     C37538   3.903   7.894   8.164 -0.2092 -0.6134 -0.7499
  273MOL0     O37539   3.953   7.838   8.050 -0.0740  0.5060 -0.2819
  273MOL0     C37540   4.083   7.822   8.029 -0.2881 -0.7341 -0.5535
  273MOL0     C37541   4.122   7.722   7.944  0.6423  0.0562 -0.9640
  273MOL0     C37542   4.263   7.707   7.918  1.0485  0.0683  0.5236
  273MOL0     C37543   4.354   7.800   7.960 -0.5582  0.0709  0.8736
  273MOL0     O37544   4.480   7.776   7.921 -0.6184  0.0073 -0.3984
  273MOL0     C37545   4.569   7.888   7.907 -0.3558  0.3363 -0.0660
  273MOL0     C37546   4.706   7.834   7.879 -0.0508 -0.0769  0.2729
  273MOL0     C37547   4.707   7.785   7.732 -0.1640 -0.3320  0.0453
  273MOL0     C37548   4.840   7.711   7.705  0.6610  0.3298  0.1884
  273MOL0     C37549   4.830   7.654   7.565 -0.1033 -0.2741  0.8203
  273MOL0     C37550   4.967   7.592   7.532 -0.3208  0.8285 -0.7550
  273MOL0     C37551   4.969   7.535   7.397 -0.1971 -0.0769 -0.4929
  273MOL0     C37552   5.107   7.480   7.373 -0.4250  0.2532  0.9279
  273MOL0     N37553   5.183   7.591   7.312  0.4136 -0.8951 -0.1485
  273MOL0     C37554   5.256   7.696   7.368 -0.1238 -0.2046  0.2450
  273MOL0     C37555   5.296   7.767   7.263  0.4528 -0.7527 -1.0507
  273MOL0     C37556   5.368   7.904   7.276 -0.0605 -0.2011 -0.4262
  273MOL0     C37557   5.346   8.007   7.151  0.9779 -0.4674 -0.3945
  273MOL0     C37558   5.216   8.077   7.138 -0.9814 -0.2744 -0.4968
  273MOL0     C37559   5.115   8.006   7.045  0.2180  0.2091  0.4123
  273MOL0     O37560   5.003   8.087   7.006  0.5949 -0.2019 -0.0386
  273MOL0     C37561   4.915   8.124   7.104 -0.0813  0.1862  0.5033
  273MOL0     C37562   4.841   8.031   7.174  0.9410 -0.0877  0.7302
  273MOL0     C37563   4.761   8.073   7.285 -0.1108 -0.2619 -0.9156
  273MOL0     C37564   4.683   7.964   7.360  0.1189  0.3847 -0.2951
  273MOL0     C37565   4.759   8.210   7.328 -0.9703 -0.2398 -0.0854
  273MOL0     C37566   4.687   8.272   7.442 -0.3318  0.7497  0.3200
  273MOL0     O37567   4.659   8.401   7.434  0.5392  0.8988  0.0515
  273MOL0     C37568   4.589   8.458   7.538  0.8685  0.1186  0.3912
  273MOL0     C37569   4.447   8.468   7.544 -0.6470  0.5710  0.0249
  273MOL0     C37570   4.375   8.542   7.636 -0.3845 -0.1669  0.9187
  273MOL0     C37571   4.438   8.610   7.744  0.0903 -0.0955 -0.1141
  273MOL0     O37572   4.367   8.670   7.851 -0.6004 -0.2983  0.9573
  273MOL0     C37573   4.435   8.774   7.924  0.3931  0.5843  0.1043
  273MOL0     C37574   4.352   8.809   8.051  0.9028  0.3819 -1.0961
  273MOL0     C37575   4.235   8.905   8.024  0.0771 -0.6258  0.2678
  273MOL0     C37576   4.146   8.926   8.145 -0.5760  0.5360 -0.6466
  273MOL0     C37577   4.227   8.978   8.267  0.3997 -0.9586 -0.2755
  273MOL0     C37578   4.263   9.130   8.260 -0.6316  0.4314  1.0911
  273MOL0     C37579   4.188   9.215   8.354  0.0185  0.2390 -0.8238
  273MOL0     C37580   4.038   9.199   8.342  0.6111  0.1570 -0.2802
  273MOL0    Cl37581   3.949   9.315   8.451  0.1453 -0.2571  0.0622
  273MOL0     C37582   4.580   8.601   7.737 -0.8604 -0.2945  0.1580
  273MOL0     C37583   4.660   8.540   7.633 -0.0153 -0.2478  0.4254
  273MOL0     O37584   4.657   8.201   7.535  0.0903 -0.2918 -0.2807
  273MOL0     C37585   4.829   8.301   7.252 -0.3284 -0.7073 -0.6259
  273MOL0     C37586   4.904   8.261   7.145 -1.2021  0.6471 -0.5880
  273MOL0     N37587   5.259   7.714   7.142  0.0949  0.4868  0.1165
  273MOL0     N37588   5.204   7.598   7.174  0.1413 -0.3249  0.4367
  273MOL0     C37589   4.310   7.904   8.037  0.2168 -0.0703  0.4898
  273MOL0     C37590   4.176   7.911   8.070 -0.2515 -0.2089  0.2859
  273MOL0     C37591   3.764   7.917   8.152 -0.3082 -0.2603  0.5471
  273MOL0     C37592   3.672   7.810   8.190  0.3074 -0.2262  0.1319
  273MOL0     C37593   3.536   7.825   8.158 -0.0047  0.4043 -0.1016
  273MOL0     C37594   3.481   7.943   8.104  0.0144  0.6342 -0.5515
  273MOL0     O37595   3.349   7.949   8.091  0.3039  0.2071 -0.1500
  273MOL0     C37596   3.260   7.845   8.139  0.8736 -0.9625  0.2283
  273MOL0     C37597   3.106   7.887   8.121 -0.5782 -0.1062  0.3909
  273MOL0     C37598   3.078   7.880   7.967 -0.2458  0.2479 -0.3092
  273MOL0     C37599   2.939   7.940   7.928 -1.2403 -1.0330  0.1774
  273MOL0     C37600   2.837   7.853   7.977  0.3671 -0.1286  0.2342
  273MOL0     C37601   2.755   7.774   8.012  0.1118  0.6221  0.2178
  273MOL0     C37602   3.574   8.048   8.079  0.4131  0.7619  0.7823
  273MOL0     C37603   3.707   8.038   8.098  1.3419  0.2692  0.5167
  273MOL0     C37604   3.784   8.156   8.042  0.1078  0.2010  0.6390
  273MOL0     H37605   4.038   7.664   7.907 -1.0720  1.4229  0.5908
  273MOL0     H37606   4.302   7.620   7.865  1.5489  0.5798  0.0522
  273MOL0     H37607   4.564   7.953   7.995 -2.5129 -0.4512  0.4763
  273MOL0     H37608   4.528   7.961   7.837 -0.0895 -0.2358 -0.8382
  273MOL0     H37609   4.778   7.917   7.885  0.6195 -0.5970 -0.3885
  273MOL0     H37610   4.732   7.758   7.953  2.0399 -0.5709 -0.8887
  273MOL0     H37611   4.618   7.723   7.719  0.5314 -1.2439 -0.5520
  273MOL0     H37612   4.703   7.870   7.664 -0.0683  0.2123  0.7100
  273MOL0     H37613   4.929   7.774   7.710  0.1267  1.6232 -3.5022
  273MOL0     H37614   4.855   7.631   7.778  1.0943  0.5252  0.3132
  273MOL0     H37615   4.804   7.729   7.490  0.1394  2.3884  3.2438
  273MOL0     H37616   4.754   7.575   7.569  0.8484 -1.2026  1.0995
  273MOL0     H37617   5.047   7.667   7.536 -1.9620  2.6275 -0.2121
  273MOL0     H37618   4.984   7.506   7.598 -0.8029  0.1885 -1.4587
  273MOL0     H37619   4.932   7.613   7.329 -0.1399  1.9624  1.6971
  273MOL0     H37620   4.898   7.453   7.405  0.0355 -0.1251  1.8540
  273MOL0     H37621   5.153   7.438   7.463  0.3528 -0.4476  0.2180
  273MOL0     H37622   5.084   7.406   7.296 -1.7683 -1.9379  3.2626
  273MOL0     H37623   5.280   7.719   7.472  0.3350 -2.4281  0.7007
  273MOL0     H37624   5.475   7.887   7.288  0.5220  1.7790 -2.2489
  273MOL0     H37625   5.338   7.948   7.372  0.2549  1.7343 -1.1746
  273MOL0     H37626   5.432   8.075   7.150 -0.0528  0.9543 -2.8888
  273MOL0     H37627   5.369   7.948   7.061 -2.0728  0.5381 -1.9768
  273MOL0     H37628   5.175   8.095   7.238 -0.9189 -1.1238 -0.3051
  273MOL0     H37629   5.219   8.183   7.115 -0.6635  0.2217  1.5945
  273MOL0     H37630   5.177   7.979   6.959  2.5989 -0.2503  2.1780
  273MOL0     H37631   5.079   7.915   7.094 -1.5027  1.0460  0.7658
  273MOL0     H37632   4.839   7.928   7.139  1.8453 -0.0378  0.5065
  273MOL0     H37633   4.576   7.984   7.368 -0.2489 -1.9818  3.5371
  273MOL0     H37634   4.715   7.966   7.465 -2.2415 -2.5539  0.6294
  273MOL0     H37635   4.708   7.862   7.329  1.0912  0.2927  0.7386
  273MOL0     H37636   4.381   8.417   7.474 -1.3706 -0.1552  1.2079
  273MOL0     H37637   4.267   8.541   7.629 -0.3257 -2.7439 -3.6239
  273MOL0     H37638   4.537   8.750   7.954  0.4327 -2.4430 -2.0026
  273MOL0     H37639   4.436   8.855   7.849 -2.5120 -2.7648 -4.0404
  273MOL0     H37640   4.323   8.716   8.100 -1.3289  2.7027  2.4748
  273MOL0     H37641   4.417   8.865   8.118 -1.5734  2.8319 -0.5185
  273MOL0     H37642   4.167   8.865   7.947 -3.0874 -1.3232  3.1721
  273MOL0     H37643   4.269   9.006   7.997  1.2093 -0.6990  1.3637
  273MOL0     H37644   4.092   8.833   8.167  0.7750  0.4231  2.9197
  273MOL0     H37645   4.070   9.003   8.124  1.1989  2.5796  0.0415
  273MOL0     H37646   4.173   8.951   8.358  1.8239 -1.6271  0.3987
  273MOL0     H37647   4.321   8.921   8.277  1.6824  1.1130  0.0322
  273MOL0     H37648   4.254   9.163   8.156 -1.3142 -1.9384  0.3448
  273MOL0     H37649   4.368   9.142   8.289 -1.6061  0.9027  4.9782
  273MOL0     H37650   4.211   9.321   8.340 -0.4176  0.3602 -0.6461
  273MOL0     H37651   4.225   9.195   8.455 -0.9850 -2.3098 -0.8930
  273MOL0     H37652   4.011   9.094   8.357  0.7217  0.1559 -0.0813
  273MOL0     H37653   4.012   9.226   8.239  0.6960 -1.9104 -0.8913
  273MOL0     H37654   4.644   8.648   7.811 -0.1449 -0.8937 -0.0681
  273MOL0     H37655   4.768   8.549   7.632 -0.0748  0.4568  0.2834
  273MOL0     H37656   4.835   8.407   7.274  0.3989 -0.1957 -3.0716
  273MOL0     H37657   4.965   8.334   7.093  0.6618 -1.6192 -1.8141
  273MOL0     H37658   4.376   7.980   8.078  1.0129  0.1460 -1.1095
  273MOL0     H37659   4.158   7.983   8.149 -1.4168  0.5909 -0.6841
  273MOL0     H37660   3.723   7.720   8.223  0.3213  0.6244  2.6645
  273MOL0     H37661   3.467   7.744   8.182 -1.1500  1.2054 -0.5653
  273MOL0     H37662   3.277   7.750   8.087 -0.4457 -0.3993 -1.2892
  273MOL0     H37663   3.272   7.829   8.246 -0.4541  0.8619  0.6822
  273MOL0     H37664   3.095   7.988   8.162  3.5141  1.1888 -1.1810
  273MOL0     H37665   3.055   7.810   8.179 -0.0820  0.7013  1.9423
  273MOL0     H37666   3.162   7.927   7.915  0.5340 -1.5817 -0.7455
  273MOL0     H37667   3.075   7.775   7.937 -0.8137 -0.1307  1.0072
  273MOL0     H37668   2.939   7.945   7.819 -1.0154  1.2586  0.2281
  273MOL0     H37669   2.935   8.043   7.965  0.7986 -0.3632 -1.2358
  273MOL0     H37670   2.670   7.710   8.021  0.4552  0.1690  0.2532
  273MOL0     H37671   3.539   8.140   8.033 -0.1230  1.1661  1.9823
  273MOL0     H37672   3.859   8.176   8.119 -1.1190  1.2938  1.6052
  273MOL0     H37673   3.832   8.128   7.948 -1.3165  3.0363 -1.0946
  273MOL0     H37674   3.716   8.241   8.028 -1.7194 -1.3492 -0.3462
  274MOL0     O37675   8.827   4.654   2.320  0.2231 -0.4999  0.0153
  274MOL0     C37676   8.883   4.593   2.226  0.5768 -0.7305 -0.5822
  274MOL0     O37677   9.018   4.586   2.209 -0.3392  0.2136 -0.5976
  274MOL0     C37678   9.109   4.644   2.298 -0.5626  0.4433 -0.5128
  274MOL0     C37679   9.232   4.695   2.244  0.3212 -0.4007  0.2995
  274MOL0     C37680   9.335   4.740   2.330  0.3039 -0.0569 -0.8538
  274MOL0     C37681   9.320   4.727   2.471 -0.7473  0.1722 -0.9967
  274MOL0     O37682   9.420   4.759   2.560  0.0070  0.5393  0.2142
  274MOL0     C37683   9.554   4.721   2.511  1.0220 -0.1583 -0.6935
  274MOL0     C37684   9.661   4.749   2.614 -0.1396 -0.4469  0.9871
  274MOL0     C37685   9.698   4.901   2.635 -0.6542 -0.5380 -0.5666
  274MOL0     C37686   9.740   4.963   2.495 -0.9176  0.0376 -0.0842
  274MOL0     C37687   9.809   5.105   2.519  0.0500  1.2801 -0.2947
  274MOL0     C37688   9.936   5.123   2.602 -0.8834  0.0640  0.0811
  274MOL0     C37689  10.058   5.037   2.564  0.1779  1.0889  0.2262
  274MOL0     C37690  10.164   5.035   2.665  0.1720 -0.3020 -0.0111
  274MOL0     N37691  10.301   4.985   2.625 -0.8116  0.2245  0.0122
  274MOL0     C37692  10.427   5.043   2.659  0.0783  0.3596 -0.6945
  274MOL0     C37693  10.522   4.969   2.596 -0.3603  0.5593  0.0007
  274MOL0     C37694  10.667   4.986   2.599 -0.2023 -0.6247  0.5490
  274MOL0     C37695  10.692   5.113   2.513 -0.6122 -1.0525 -0.1199
  274MOL0     C37696  10.838   5.147   2.490  0.1547 -0.7128 -0.3990
  274MOL0     C37697  10.888   5.089   2.357  0.4843 -0.0049 -0.3380
  274MOL0     O37698  11.029   5.071   2.355  0.1596  0.1676 -0.0019
  274MOL0     C37699  11.086   4.976   2.432  0.2428 -0.6979 -0.0932
  274MOL0     C37700  11.013   4.873   2.513 -0.2586 -0.1715  0.4313
  274MOL0     C37701  11.075   4.808   2.613 -0.2353  1.2940 -1.2164
  274MOL0     C37702  10.992   4.708   2.691 -0.2233  0.1458 -0.1057
  274MOL0     C37703  11.216   4.821   2.627 -0.4679  0.8833  0.2994
  274MOL0     C37704  11.303   4.742   2.719 -0.2784 -1.0813  0.1436
  274MOL0     O37705  11.435   4.722   2.685  0.1248 -0.2754 -0.0197
  274MOL0     C37706  11.528   4.664   2.768 -0.4444  0.0897 -0.3473
  274MOL0     C37707  11.562   4.530   2.744  0.4396 -0.2081  0.2674
  274MOL0     C37708  11.645   4.463   2.828 -0.8037  0.2274 -0.0883
  274MOL0     C37709  11.707   4.516   2.939 -0.1109  0.5085 -0.6162
  274MOL0     O37710  11.799   4.456   3.023 -0.3148 -0.2854  0.6033
  274MOL0     C37711  11.869   4.343   2.964  0.1606 -0.2791 -0.0114
  274MOL0     C37712  11.990   4.313   3.049 -0.0660  0.5227 -0.4630
  274MOL0     C37713  12.007   4.167   3.080  0.5111 -0.0619  0.1471
  274MOL0     C37714  12.095   4.149   3.208  0.3229  0.6154 -0.1197
  274MOL0     C37715  12.243   4.176   3.182 -0.0027 -0.1257 -0.3624
  274MOL0     C37716  12.331   4.107   3.289  0.6026 -0.1216  0.6520
  274MOL0     C37717  12.283   4.148   3.428 -0.0414  0.8329 -1.0903
  274MOL0     C37718  12.372   4.107   3.544 -0.5377 -0.7656 -0.1227
  274MOL0    Cl37719  12.317   4.181   3.700  0.1991  0.3345  0.0318
  274MOL0     C37720  11.666   4.648   2.966 -0.7270 -0.6454 -0.1617
  274MOL0     C37721  11.568   4.716   2.887  0.3229 -0.0269 -0.2039
  274MOL0     O37722  11.248   4.698   2.823 -0.0593  0.1159  0.0132
  274MOL0     C37723  11.286   4.911   2.547  0.1499 -0.1788 -0.4031
  274MOL0     C37724  11.219   4.994   2.453  0.5080  0.0437 -0.4078
  274MOL0     N37725  10.457   4.875   2.513  1.2034 -0.5985  0.3563
  274MOL0     N37726  10.331   4.887   2.539  0.0324 -0.2067 -0.1344
  274MOL0     C37727   9.196   4.697   2.521 -0.2597 -0.1576 -0.3931
  274MOL0     C37728   9.093   4.649   2.435  0.0022 -0.3139 -0.0117
  274MOL0     C37729   8.796   4.541   2.115  0.0678  0.4035  1.1781
  274MOL0     C37730   8.872   4.478   2.005 -0.0752 -0.4658  0.2166
  274MOL0     C37731   8.811   4.417   1.898  0.2063  0.2712 -0.6497
  274MOL0     C37732   8.673   4.404   1.906  0.5441  0.3601 -0.3028
  274MOL0     O37733   8.623   4.333   1.803  0.3427 -0.0580  0.7509
  274MOL0     C37734   8.485   4.332   1.776  0.8229  0.0177 -0.6979
  274MOL0     C37735   8.477   4.235   1.664 -0.5845  0.0334 -0.0615
  274MOL0     C37736   8.339   4.218   1.605 -0.4290 -0.4129  0.2297
  274MOL0     C37737   8.337   4.130   1.490 -0.8828 -0.3330  0.5285
  274MOL0     C37738   8.198   4.086   1.461 -0.2353 -0.0825  0.5238
  274MOL0     C37739   8.086   4.071   1.423  0.6602 -0.5379 -0.4046
  274MOL0     C37740   8.598   4.456   2.013 -0.0535 -0.3931  0.5289
  274MOL0     C37741   8.655   4.540   2.111  0.4485  0.0256 -0.1157
  274MOL0     C37742   8.559   4.599   2.205 -0.6713  0.5765  0.3337
  274MOL0     H37743   9.237   4.694   2.135 -1.5377 -0.2121  0.1687
  274MOL0     H37744   9.420   4.791   2.285 -0.2437  0.7733 -0.9561
  274MOL0     H37745   9.583   4.781   2.424  0.7676  1.6695  0.4285
  274MOL0     H37746   9.556   4.617   2.477  2.9182 -0.6897  0.9001
  274MOL0     H37747   9.634   4.705   2.711 -0.2483 -0.8127  0.7929
  274MOL0     H37748   9.746   4.695   2.571  2.2259  1.5155  2.8902
  274MOL0     H37749   9.610   4.958   2.668  0.5369  0.9199  0.2268
  274MOL0     H37750   9.780   4.921   2.704 -2.8242 -0.8452  2.3086
  274MOL0     H37751   9.807   4.903   2.435 -0.0252  1.3702 -0.4612
  274MOL0     H37752   9.652   4.970   2.430 -0.8247 -3.1729 -0.7190
  274MOL0     H37753   9.729   5.157   2.572 -0.5550  1.7540 -1.6141
  274MOL0     H37754   9.822   5.149   2.419 -0.7225 -0.0089 -0.9852
  274MOL0     H37755   9.974   5.224   2.584 -0.7337  0.0865  0.5248
  274MOL0     H37756   9.913   5.109   2.708 -0.7540  1.0837  0.2630
  274MOL0     H37757  10.091   5.057   2.462 -0.4354  1.1637  0.0412
  274MOL0     H37758  10.019   4.936   2.554 -4.1504  2.3627  1.8912
  274MOL0     H37759  10.169   5.134   2.712  0.4902 -0.5933  0.5757
  274MOL0     H37760  10.129   4.962   2.738 -1.0184 -0.7345 -0.9760
  274MOL0     H37761  10.458   5.128   2.719  2.8066  0.8352 -2.5887
  274MOL0     H37762  10.715   4.904   2.546 -1.2060  1.0686 -3.3260
  274MOL0     H37763  10.711   5.003   2.698  0.4116 -2.7131  0.6758
  274MOL0     H37764  10.629   5.115   2.424 -0.7109  1.5306 -0.0591
  274MOL0     H37765  10.655   5.205   2.560 -0.5028  0.9784 -3.6735
  274MOL0     H37766  10.853   5.256   2.489  1.7373 -0.8914  0.2282
  274MOL0     H37767  10.909   5.108   2.563 -0.2097 -0.4402  0.1011
  274MOL0     H37768  10.830   5.000   2.330 -2.8442  1.5942  0.9943
  274MOL0     H37769  10.865   5.173   2.290  3.0724  1.4122  0.4232
  274MOL0     H37770  10.905   4.866   2.510 -0.7047  4.0243  0.7371
  274MOL0     H37771  10.895   4.701   2.640  0.2840  1.9985 -1.4460
  274MOL0     H37772  10.971   4.734   2.795  2.0146  2.0135 -0.0269
  274MOL0     H37773  11.036   4.608   2.682  1.4689  0.9951 -2.3388
  274MOL0     H37774  11.519   4.481   2.657 -2.0195 -1.2758  1.9674
  274MOL0     H37775  11.675   4.362   2.802  3.9241  1.2421  0.6086
  274MOL0     H37776  11.808   4.252   2.966 -0.2577 -0.0337 -0.9312
  274MOL0     H37777  11.909   4.363   2.864  0.2635 -0.7566 -0.0710
  274MOL0     H37778  12.084   4.354   3.008 -0.0211  1.3819  0.4508
  274MOL0     H37779  11.987   4.369   3.143 -4.4334 -0.7919  0.3824
  274MOL0     H37780  12.051   4.110   2.999 -1.9651 -4.6227  1.6644
  274MOL0     H37781  11.906   4.129   3.094  0.0652  1.4213  1.3094
  274MOL0     H37782  12.084   4.048   3.248 -2.6122  1.0045  0.2879
  274MOL0     H37783  12.051   4.202   3.293 -1.5372 -0.1685 -0.5497
  274MOL0     H37784  12.278   4.130   3.088 -1.8826 -0.6805 -0.8270
  274MOL0     H37785  12.268   4.282   3.172  2.2433 -0.4476  1.0735
  274MOL0     H37786  12.437   4.134   3.282  0.4138  0.2263 -1.7105
  274MOL0     H37787  12.323   3.998   3.287 -1.7457 -0.0515  2.3209
  274MOL0     H37788  12.177   4.125   3.441 -0.4992  1.8663 -2.7020
  274MOL0     H37789  12.295   4.257   3.434  1.6364  0.6360  0.0265
  274MOL0     H37790  12.478   4.134   3.533 -1.4176  2.0273 -3.8075
  274MOL0     H37791  12.378   3.998   3.551  2.4506 -0.7482 -0.7250
  274MOL0     H37792  11.689   4.691   3.063 -3.3385  0.9449 -0.1515
  274MOL0     H37793  11.532   4.807   2.934  2.0059  1.1820 -1.1295
  274MOL0     H37794  11.390   4.920   2.574 -0.3240  0.8134  1.2673
  274MOL0     H37795  11.263   5.084   2.411  0.7103 -0.1954 -0.7165
  274MOL0     H37796   9.170   4.690   2.626 -0.1528 -1.7294 -0.4391
  274MOL0     H37797   9.000   4.626   2.486  1.2724 -1.1194  2.0663
  274MOL0     H37798   8.981   4.481   2.002 -0.1097  0.2073 -1.8364
  274MOL0     H37799   8.874   4.371   1.822 -0.2193 -2.8593  0.7283
  274MOL0     H37800   8.429   4.314   1.868 -0.3068  3.4433 -0.5441
  274MOL0     H37801   8.447   4.423   1.727  0.2250 -0.3482 -0.9262
  274MOL0     H37802   8.516   4.134   1.680  0.4948 -0.2137 -3.3892
  274MOL0     H37803   8.541   4.271   1.582 -2.0385  0.0156 -1.2411
  274MOL0     H37804   8.274   4.176   1.682  0.4400 -4.2009 -0.8921
  274MOL0     H37805   8.315   4.320   1.575  1.5918  0.5522  1.6865
  274MOL0     H37806   8.397   4.042   1.516 -0.0661  0.2622  0.6820
  274MOL0     H37807   8.367   4.184   1.400 -0.4372 -0.6143  0.5044
  274MOL0     H37808   7.987   4.047   1.390  0.2379  0.0625  0.4056
  274MOL0     H37809   8.490   4.458   2.020 -0.0927  2.5403  0.2499
  274MOL0     H37810   8.454   4.583   2.178 -0.2368 -0.8861 -0.6097
  274MOL0     H37811   8.568   4.561   2.307  0.4537  0.2926  0.1385
  274MOL0     H37812   8.577   4.707   2.216  0.8821  0.3745 -0.0328
  275MOL0     O37813   4.404   6.340   2.676 -0.2098  0.4862 -0.1696
  275MOL0     C37814   4.306   6.316   2.600 -0.2876  0.4888 -0.1830
  275MOL0     O37815   4.257   6.187   2.581 -0.0834  0.2905  0.5450
  275MOL0     C37816   4.300   6.081   2.653 -0.8410  0.2638 -0.3225
  275MOL0     C37817   4.250   6.033   2.773 -0.4693 -0.6281  0.1477
  275MOL0     C37818   4.323   5.936   2.844 -0.9521 -0.8978 -0.2489
  275MOL0     C37819   4.447   5.892   2.805 -0.2429 -0.0352 -0.0332
  275MOL0     O37820   4.528   5.797   2.855  0.2962 -0.2592 -0.5712
  275MOL0     C37821   4.510   5.767   2.999 -0.6395 -0.2846  1.1822
  275MOL0     C37822   4.440   5.627   3.007 -0.0636  0.5333  0.6466
  275MOL0     C37823   4.372   5.608   3.147  0.0877  0.6122 -0.8283
  275MOL0     C37824   4.295   5.479   3.167 -0.0784  0.1889 -0.2584
  275MOL0     C37825   4.374   5.346   3.131  0.6208  0.2430  0.1215
  275MOL0     C37826   4.501   5.319   3.199 -0.1054  0.4392 -0.5265
  275MOL0     C37827   4.545   5.169   3.180 -0.0344  0.0977  0.6514
  275MOL0     C37828   4.679   5.140   3.255 -0.5799  0.5291  0.1514
  275MOL0     N37829   4.788   5.219   3.195  0.0702  0.3543  1.2488
  275MOL0     C37830   4.865   5.174   3.092 -0.0286 -0.8892  0.5830
  275MOL0     C37831   4.952   5.269   3.071 -0.6742 -0.8797  0.3631
  275MOL0     C37832   5.065   5.263   2.968  0.1541 -0.2652  0.5319
  275MOL0     C37833   5.151   5.142   2.984  0.2891  0.3314 -0.2242
  275MOL0     C37834   5.259   5.157   2.878  0.3698 -0.2812 -0.5675
  275MOL0     C37835   5.378   5.066   2.885 -0.4291 -0.1923 -0.8241
  275MOL0     O37836   5.448   5.089   3.006 -0.3139  0.6320 -0.2523
  275MOL0     C37837   5.545   4.988   3.030  0.0927 -0.2329  0.1278
  275MOL0     C37838   5.585   4.881   2.950  0.3534 -0.5119 -0.3235
  275MOL0     C37839   5.678   4.782   2.979  0.1815  0.3676  0.1556
  275MOL0     C37840   5.717   4.683   2.874 -0.4662 -0.8201  0.0342
  275MOL0     C37841   5.748   4.791   3.103  0.2437 -0.9702 -0.0332
  275MOL0     C37842   5.857   4.698   3.155 -0.2313 -0.6155  0.5397
  275MOL0     O37843   5.943   4.752   3.250 -0.8344  0.0408  0.2608
  275MOL0     C37844   6.040   4.668   3.299 -0.3293 -0.1557 -0.0309
  275MOL0     C37845   6.026   4.543   3.360 -0.4364 -0.3635 -0.5219
  275MOL0     C37846   6.123   4.505   3.453  0.1910 -0.5238 -0.9047
  275MOL0     C37847   6.247   4.570   3.466  0.5391 -0.4295  0.8266
  275MOL0     O37848   6.355   4.513   3.534 -0.5350  0.3976 -0.4392
  275MOL0     C37849   6.484   4.545   3.482  0.1972 -0.5681 -0.1296
  275MOL0     C37850   6.580   4.447   3.551  0.2812  0.3277  0.7636
  275MOL0     C37851   6.622   4.485   3.698 -0.3491 -0.5450  0.2110
  275MOL0     C37852   6.687   4.376   3.772 -0.3430  0.6747 -0.0282
  275MOL0     C37853   6.812   4.316   3.713 -0.6519  0.4448  0.5328
  275MOL0     C37854   6.886   4.207   3.792 -0.0405  0.4558  0.3678
  275MOL0     C37855   6.994   4.153   3.697 -0.5614 -0.0262 -1.2022
  275MOL0     C37856   7.122   4.106   3.783 -0.7687  0.0128  0.0642
  275MOL0    Cl37857   7.096   3.977   3.893  0.3925 -0.2415  0.2783
  275MOL0     C37858   6.263   4.696   3.407 -0.3056  0.5561  0.3665
  275MOL0     C37859   6.156   4.740   3.329 -0.6538  0.3625  0.0361
  275MOL0     O37860   5.852   4.584   3.124  0.1942 -0.3074 -0.6159
  275MOL0     C37861   5.720   4.914   3.181  0.4571  0.0808  0.3572
  275MOL0     C37862   5.617   5.001   3.144 -0.0775  0.3592  0.1381
  275MOL0     N37863   4.932   5.372   3.166 -0.1728 -0.5576  0.2013
  275MOL0     N37864   4.847   5.330   3.248 -0.7237  0.0174  0.1920
  275MOL0     C37865   4.498   5.946   2.691 -1.0544 -0.6507  0.4353
  275MOL0     C37866   4.426   6.035   2.613  0.1383 -0.7570 -0.4926
  275MOL0     C37867   4.255   6.433   2.534  1.4830 -0.0869 -0.1536
  275MOL0     C37868   4.269   6.553   2.596  0.4319 -0.0677 -0.4488
  275MOL0     C37869   4.223   6.672   2.534 -0.0366 -0.3988 -0.2833
  275MOL0     C37870   4.167   6.679   2.406 -0.6120  0.7099 -0.2648
  275MOL0     O37871   4.100   6.785   2.345 -0.0912  0.5907  0.2472
  275MOL0     C37872   4.086   6.906   2.420 -0.3139 -0.6044  0.8224
  275MOL0     C37873   3.997   6.998   2.328  0.2028 -0.1134 -0.2623
  275MOL0     C37874   4.068   7.061   2.204 -0.7210  0.3138  0.3215
  275MOL0     C37875   4.183   7.158   2.243  1.3376 -0.1772 -0.1598
  275MOL0     C37876   4.238   7.223   2.118 -0.3043  0.1566 -0.2747
  275MOL0     C37877   4.274   7.278   2.017 -0.2424  0.8995  0.0908
  275MOL0     C37878   4.165   6.552   2.343  0.3019  0.2391  0.3158
  275MOL0     C37879   4.202   6.432   2.403  0.2364 -0.9044  0.3477
  275MOL0     C37880   4.182   6.307   2.323  0.2697  0.0332  0.7282
  275MOL0     H37881   4.148   6.057   2.802 -0.9126 -0.7447 -1.2266
  275MOL0     H37882   4.282   5.902   2.939 -2.8082 -0.9996 -1.0412
  275MOL0     H37883   4.462   5.850   3.051 -1.0503 -0.5613  1.2451
  275MOL0     H37884   4.607   5.750   3.048  1.1840  1.6818 -1.4391
  275MOL0     H37885   4.363   5.624   2.929  1.5352  1.3370 -1.0407
  275MOL0     H37886   4.514   5.552   2.977 -1.1037  0.5323 -2.2985
  275MOL0     H37887   4.454   5.588   3.216  0.3532 -2.7493 -1.9063
  275MOL0     H37888   4.321   5.702   3.164  2.6238  2.1046 -0.9520
  275MOL0     H37889   4.270   5.477   3.273 -0.5062  0.6694 -0.3449
  275MOL0     H37890   4.204   5.472   3.107 -1.1367 -1.5360  1.4422
  275MOL0     H37891   4.398   5.347   3.024 -0.1552 -0.3551 -0.0626
  275MOL0     H37892   4.324   5.257   3.169  2.3992  0.5897  3.6148
  275MOL0     H37893   4.585   5.383   3.170 -0.2988  0.5260 -0.9086
  275MOL0     H37894   4.494   5.343   3.305  0.1091 -2.8389  0.3526
  275MOL0     H37895   4.537   5.140   3.075  0.1952  2.8539 -0.1978
  275MOL0     H37896   4.471   5.101   3.223 -0.9315 -0.9591 -2.3310
  275MOL0     H37897   4.672   5.163   3.362 -0.4645  0.5528  0.1542
  275MOL0     H37898   4.701   5.033   3.247  0.3282  0.7075  0.1320
  275MOL0     H37899   4.871   5.078   3.042  0.2577 -0.0350 -1.1022
  275MOL0     H37900   5.120   5.357   2.973  1.0250 -0.6814 -0.8695
  275MOL0     H37901   5.020   5.259   2.869 -2.5935  0.4020  1.6498
  275MOL0     H37902   5.186   5.125   3.086  0.8378 -1.1067 -0.6219
  275MOL0     H37903   5.092   5.053   2.957 -0.1507  0.6276 -0.2472
  275MOL0     H37904   5.213   5.146   2.779 -1.4181  0.7185  0.1051
  275MOL0     H37905   5.295   5.260   2.873 -0.6391  0.0790 -0.6707
  275MOL0     H37906   5.336   4.965   2.882 -0.9737  0.0296 -3.9670
  275MOL0     H37907   5.449   5.085   2.805  0.8876  0.9731  0.5609
  275MOL0     H37908   5.537   4.874   2.853  1.4250  2.7408 -1.2147
  275MOL0     H37909   5.691   4.729   2.778 -2.6589  2.2955  1.9381
  275MOL0     H37910   5.666   4.588   2.885 -0.7916 -0.7516 -0.8230
  275MOL0     H37911   5.825   4.664   2.882 -0.3987  0.3296  2.8362
  275MOL0     H37912   5.936   4.482   3.371  1.0263 -2.3546  1.2618
  275MOL0     H37913   6.110   4.408   3.502  0.8431 -0.0869  0.1641
  275MOL0     H37914   6.478   4.528   3.374  1.5685  2.7321 -0.8386
  275MOL0     H37915   6.511   4.647   3.509 -0.6684  0.2503 -2.1730
  275MOL0     H37916   6.537   4.347   3.553 -0.9185  0.7414 -1.1420
  275MOL0     H37917   6.666   4.441   3.484 -1.4289 -0.7567 -1.4378
  275MOL0     H37918   6.534   4.526   3.749  0.5956  1.8293  0.0517
  275MOL0     H37919   6.692   4.569   3.704 -2.4119  1.1730  3.3860
  275MOL0     H37920   6.620   4.294   3.798  1.4337 -0.0306  2.7140
  275MOL0     H37921   6.725   4.422   3.863  0.9219  1.6796 -1.0234
  275MOL0     H37922   6.796   4.290   3.608 -1.0858 -0.3743  0.7959
  275MOL0     H37923   6.890   4.393   3.713 -0.2114  0.0051  1.3373
  275MOL0     H37924   6.816   4.134   3.833  1.1594  0.5185  2.6840
  275MOL0     H37925   6.947   4.247   3.873 -0.4214  1.0979  0.3494
  275MOL0     H37926   7.025   4.225   3.620 -2.7493 -0.2971 -2.4280
  275MOL0     H37927   6.967   4.071   3.629 -0.0088 -0.5273 -0.8270
  275MOL0     H37928   7.148   4.191   3.847 -2.4502  0.4647  0.2041
  275MOL0     H37929   7.203   4.083   3.713  0.9341  0.7269  1.7039
  275MOL0     H37930   6.357   4.749   3.422  0.4940 -0.1870 -1.6534
  275MOL0     H37931   6.174   4.843   3.298 -0.6584  1.0069  2.0190
  275MOL0     H37932   5.755   4.927   3.282 -0.0732  0.5058  0.4894
  275MOL0     H37933   5.603   5.086   3.210  1.6230  0.7594  0.0407
  275MOL0     H37934   4.596   5.918   2.653 -0.6957 -0.0647  0.9181
  275MOL0     H37935   4.463   6.083   2.522  0.8115  0.8803  0.5910
  275MOL0     H37936   4.296   6.555   2.701  0.2616 -1.7287 -0.3487
  275MOL0     H37937   4.237   6.760   2.596 -0.2559  1.9732 -3.3582
  275MOL0     H37938   4.050   6.892   2.523  0.3289 -1.4081  0.9564
  275MOL0     H37939   4.185   6.946   2.445 -0.2296 -0.6221  0.5237
  275MOL0     H37940   3.942   7.079   2.377 -0.0770  0.5591 -1.6266
  275MOL0     H37941   3.917   6.930   2.299 -0.1016 -0.1600  0.6509
  275MOL0     H37942   4.100   6.986   2.131 -0.0375  2.0288 -1.2221
  275MOL0     H37943   4.000   7.126   2.149  1.5573  0.6653 -2.2901
  275MOL0     H37944   4.263   7.100   2.290 -0.6068 -0.0065  3.7691
  275MOL0     H37945   4.145   7.238   2.308 -1.0857 -2.0173  0.8134
  275MOL0     H37946   4.295   7.321   1.922  0.8538 -1.3115 -0.7402
  275MOL0     H37947   4.135   6.559   2.239 -2.9265  0.8505  1.1814
  275MOL0     H37948   4.131   6.326   2.228  1.1963  0.3230  0.2808
  275MOL0     H37949   4.275   6.253   2.305  0.7205  0.7458  0.9034
  275MOL0     H37950   4.109   6.245   2.377 -2.9200 -1.0628 -4.1504
  276MOL0     O37951   1.841   5.775   8.507  0.0159  0.1269 -0.2068
  276MOL0     C37952   1.837   5.851   8.417  0.1665 -0.0675 -0.3293
  276MOL0     O37953   1.920   5.961   8.392  0.0354  0.3373  1.1203
  276MOL0     C37954   2.016   5.990   8.482  0.1211  0.7581 -0.5680
  276MOL0     C37955   2.150   5.979   8.442  0.1503  0.4252 -0.0048
  276MOL0     C37956   2.245   6.004   8.532 -0.5514 -0.6002 -0.2748
  276MOL0     C37957   2.215   6.027   8.668  0.6353  0.7448  0.8481
  276MOL0     O37958   2.309   6.049   8.769 -0.2996  0.0304  0.3491
  276MOL0     C37959   2.450   6.056   8.744  0.1320  0.2184 -0.3478
  276MOL0     C37960   2.512   6.092   8.882  0.2900  0.6555  1.1956
  276MOL0     C37961   2.666   6.077   8.887  0.2128 -0.4665 -0.1497
  276MOL0     C37962   2.704   5.937   8.939 -0.5056  0.7221  0.7074
  276MOL0     C37963   2.855   5.921   8.948 -0.3544  0.6535 -0.2330
  276MOL0     C37964   2.900   5.847   8.815  0.6189 -0.1301 -0.4152
  276MOL0     C37965   3.049   5.847   8.805 -0.1950 -0.3356  0.8579
  276MOL0     C37966   3.115   5.806   8.932 -0.5110  0.3478 -0.1480
  276MOL0     N37967   3.262   5.789   8.903  0.0767  0.6030 -0.1369
  276MOL0     C37968   3.326   5.668   8.901 -0.4212  0.2011  0.8198
  276MOL0     C37969   3.452   5.699   8.867 -0.1068  0.8911 -0.0737
  276MOL0     C37970   3.558   5.590   8.891  0.0046 -1.1657  0.1862
  276MOL0     C37971   3.681   5.585   8.800  0.1800 -0.0430 -0.7344
  276MOL0     C37972   3.639   5.584   8.658  0.4626  0.6114 -0.1784
  276MOL0     C37973   3.761   5.609   8.568  0.8280 -0.1643  0.7678
  276MOL0     O37974   3.715   5.606   8.432 -0.2532 -0.6799  0.1836
  276MOL0     C37975   3.804   5.586   8.326 -0.2980 -0.2741 -0.1484
  276MOL0     C37976   3.945   5.590   8.328 -0.0599 -0.1684 -0.3088
  276MOL0     C37977   4.028   5.565   8.222 -0.0472  0.5914  0.1118
  276MOL0     C37978   4.177   5.579   8.256 -0.1320  0.6515 -0.4107
  276MOL0     C37979   3.965   5.535   8.090 -0.3402 -0.3243 -0.7162
  276MOL0     C37980   4.034   5.505   7.963 -0.7275  0.4659 -0.0941
  276MOL0     O37981   4.171   5.533   7.957  0.3455  0.0559 -0.2423
  276MOL0     C37982   4.230   5.504   7.846  0.6459  0.2231 -0.1091
  276MOL0     C37983   4.295   5.381   7.822 -0.5008  0.1590  0.4695
  276MOL0     C37984   4.363   5.359   7.696 -0.4339 -0.7798 -1.2796
  276MOL0     C37985   4.367   5.461   7.605 -0.6688 -0.5681 -0.2259
  276MOL0     O37986   4.444   5.456   7.491  0.1776 -0.0257  0.0041
  276MOL0     C37987   4.465   5.331   7.430  0.5657 -0.2010  0.4239
  276MOL0     C37988   4.546   5.354   7.293 -0.1448 -0.8526 -0.1618
  276MOL0     C37989   4.701   5.364   7.326 -0.0732  0.2730 -0.7576
  276MOL0     C37990   4.776   5.459   7.227 -0.2459  0.1697 -0.2233
  276MOL0     C37991   4.917   5.497   7.275  0.0276 -0.0769 -0.3772
  276MOL0     C37992   5.013   5.389   7.333  0.0890  0.0191 -0.5694
  276MOL0     C37993   5.130   5.466   7.400 -0.5242  0.6583 -0.6533
  276MOL0     C37994   5.208   5.368   7.482 -0.4568 -0.1446 -0.3786
  276MOL0    Cl37995   5.303   5.269   7.366  0.1424  0.1424  0.2998
  276MOL0     C37996   4.302   5.582   7.631  0.5449  0.1213  0.2226
  276MOL0     C37997   4.231   5.602   7.747 -1.0063  0.4672 -1.1765
  276MOL0     O37998   3.974   5.439   7.880  1.0513 -0.0978  0.4831
  276MOL0     C37999   3.821   5.536   8.091 -0.3190  0.2338  0.2426
  276MOL0     C38000   3.749   5.545   8.202  0.0899 -0.5651 -0.5428
  276MOL0     N38001   3.464   5.836   8.853  0.1663 -0.3450  0.6649
  276MOL0     N38002   3.348   5.891   8.886 -0.1671  0.7647 -0.6113
  276MOL0     C38003   2.080   6.031   8.710  0.0123 -0.5046 -0.0696
  276MOL0     C38004   1.983   6.017   8.612  0.2961  0.2467 -1.3587
  276MOL0     C38005   1.711   5.846   8.338  0.3175 -0.5635 -0.2454
  276MOL0     C38006   1.590   5.869   8.403  0.1529  1.1779  0.3475
  276MOL0     C38007   1.471   5.880   8.326  0.0285  0.4150 -0.6871
  276MOL0     C38008   1.477   5.880   8.189  0.3469 -0.7742  0.5212
  276MOL0     O38009   1.356   5.901   8.123  0.2396  0.5719  0.3652
  276MOL0     C38010   1.359   5.956   7.990  0.8857  0.2789  0.6332
  276MOL0     C38011   1.263   6.077   7.970  1.0617  0.6232  0.7055
  276MOL0     C38012   1.296   6.151   7.834 -0.2880  0.1660  0.3258
  276MOL0     C38013   1.212   6.281   7.815  0.1640  1.6064 -0.2627
  276MOL0     C38014   1.081   6.234   7.762  0.4912 -1.0151 -0.8141
  276MOL0     C38015   0.972   6.236   7.705 -0.1997  0.7532  0.5428
  276MOL0     C38016   1.595   5.849   8.122 -1.0792 -0.0696 -0.0424
  276MOL0     C38017   1.712   5.824   8.199 -0.6336  0.6430  0.4408
  276MOL0     C38018   1.832   5.785   8.114  0.1477  0.7162 -0.2820
  276MOL0     H38019   2.180   5.963   8.339  1.4084 -1.4216  0.5967
  276MOL0     H38020   2.343   6.012   8.486 -0.7118 -1.3893 -0.7661
  276MOL0     H38021   2.477   6.125   8.664  1.3604 -1.2577 -1.2602
  276MOL0     H38022   2.494   5.959   8.718  1.7559  0.7836  0.1188
  276MOL0     H38023   2.480   6.192   8.913 -2.4545  1.1025 -2.4807
  276MOL0     H38024   2.477   6.030   8.965 -0.9425 -1.0684 -0.5143
  276MOL0     H38025   2.714   6.085   8.789  0.7068  2.4265  0.2427
  276MOL0     H38026   2.711   6.148   8.957  0.8456 -0.5995 -0.4204
  276MOL0     H38027   2.661   5.922   9.038  0.8808  1.9241  1.5134
  276MOL0     H38028   2.661   5.870   8.863  0.4049  0.5369  0.3420
  276MOL0     H38029   2.876   5.848   9.026 -1.3426  1.4302  0.7864
  276MOL0     H38030   2.918   6.007   8.972  3.7146 -1.8028 -1.2904
  276MOL0     H38031   2.867   5.744   8.802  2.2452 -1.0376  1.9779
  276MOL0     H38032   2.863   5.904   8.730 -0.4793  2.1228  1.4620
  276MOL0     H38033   3.079   5.948   8.777  0.5226 -0.9865 -0.8573
  276MOL0     H38034   3.075   5.780   8.722  0.2081  0.9350 -0.0675
  276MOL0     H38035   3.107   5.881   9.011  2.9540  0.3492  0.3903
  276MOL0     H38036   3.072   5.712   8.967  0.2210  0.6066  1.5846
  276MOL0     H38037   3.279   5.573   8.924  1.2413 -0.7267  0.4767
  276MOL0     H38038   3.512   5.491   8.883 -1.6153 -0.4763  0.5013
  276MOL0     H38039   3.579   5.595   8.998  0.1986  1.2465  0.1127
  276MOL0     H38040   3.752   5.665   8.824  0.9748 -1.0188  0.2965
  276MOL0     H38041   3.750   5.500   8.806 -0.4350 -0.5248 -0.3210
  276MOL0     H38042   3.592   5.486   8.644  0.8810  0.2309  1.0002
  276MOL0     H38043   3.558   5.656   8.644  0.2204  0.4919  0.5819
  276MOL0     H38044   3.801   5.703   8.608  0.6798 -0.5216  1.8040
  276MOL0     H38045   3.844   5.541   8.589  0.1745 -1.8587 -1.7385
  276MOL0     H38046   3.994   5.620   8.420 -2.7524  0.1935  1.0925
  276MOL0     H38047   4.236   5.557   8.166 -2.7201 -2.5234 -1.5111
  276MOL0     H38048   4.214   5.521   8.340  3.2594  2.2731 -0.6277
  276MOL0     H38049   4.196   5.686   8.271 -2.6234  1.3992 -1.8852
  276MOL0     H38050   4.290   5.300   7.894  0.7963 -0.1064  0.2917
  276MOL0     H38051   4.401   5.260   7.674 -1.0471 -1.9074  2.1000
  276MOL0     H38052   4.527   5.264   7.490  3.1755  1.2368 -0.5090
  276MOL0     H38053   4.372   5.279   7.404  0.4324  1.4483 -2.8761
  276MOL0     H38054   4.537   5.269   7.223  0.8373  0.0223 -1.4012
  276MOL0     H38055   4.511   5.444   7.242  1.0637 -0.8694 -1.0735
  276MOL0     H38056   4.740   5.262   7.318 -0.5671  0.0641 -0.5472
  276MOL0     H38057   4.706   5.411   7.425 -0.9293  2.9183 -1.8937
  276MOL0     H38058   4.716   5.546   7.201  0.9106  0.9485 -0.3700
  276MOL0     H38059   4.776   5.412   7.128  2.3972  1.9610 -1.1834
  276MOL0     H38060   4.973   5.511   7.182  0.2908 -2.0090 -0.5579
  276MOL0     H38061   4.915   5.580   7.346 -2.1886 -0.6691  0.3191
  276MOL0     H38062   5.035   5.312   7.259 -0.1668 -0.8669  0.2443
  276MOL0     H38063   4.959   5.336   7.412 -0.3014 -0.9440 -1.4604
  276MOL0     H38064   5.085   5.550   7.454 -0.3598  0.6346 -0.4784
  276MOL0     H38065   5.194   5.517   7.327 -1.2407  1.2901 -0.8583
  276MOL0     H38066   5.140   5.304   7.538  2.7695 -3.1643  0.4455
  276MOL0     H38067   5.273   5.425   7.550 -1.9915  0.2057  0.8477
  276MOL0     H38068   4.308   5.661   7.557  1.0436  1.9207  2.0867
  276MOL0     H38069   4.178   5.696   7.760  3.3199  2.7306  3.5878
  276MOL0     H38070   3.780   5.525   7.991 -0.8976 -0.5091  0.5507
  276MOL0     H38071   3.641   5.530   8.202 -0.0071  0.0859 -1.1973
  276MOL0     H38072   2.050   6.047   8.813  2.2942 -0.9531  0.7158
  276MOL0     H38073   1.879   6.029   8.643  0.0213 -0.8120 -1.8145
  276MOL0     H38074   1.598   5.895   8.508 -0.7146 -0.5004  0.8741
  276MOL0     H38075   1.376   5.910   8.370  1.0496  3.6020 -0.4723
  276MOL0     H38076   1.457   6.001   7.970 -0.4181  2.6584 -0.8842
  276MOL0     H38077   1.351   5.875   7.916 -0.3922  1.2012 -0.2824
  276MOL0     H38078   1.283   6.151   8.049  2.1145  2.2348 -0.9624
  276MOL0     H38079   1.159   6.043   7.972  1.1435  0.3599  0.4976
  276MOL0     H38080   1.401   6.177   7.848  0.6957 -3.3589  0.6516
  276MOL0     H38081   1.302   6.083   7.749 -2.3866  1.5418 -1.0095
  276MOL0     H38082   1.258   6.344   7.739  0.5282  1.7214  0.0525
  276MOL0     H38083   1.191   6.324   7.913  1.7895 -1.2532  1.4724
  276MOL0     H38084   0.886   6.241   7.641 -0.5804 -0.7812  0.9090
  276MOL0     H38085   1.588   5.837   8.014 -1.4282 -1.1293  0.0834
  276MOL0     H38086   1.837   5.680   8.086 -2.6153  0.4350  0.0080
  276MOL0     H38087   1.838   5.855   8.030  2.9275 -0.7959 -1.4575
  276MOL0     H38088   1.917   5.803   8.181 -1.0790  2.1502  0.9993
  277MOL0     O38089   9.604   3.322   7.417 -0.0575  0.0806  0.2759
  277MOL0     C38090   9.626   3.312   7.297 -0.8668  0.3140 -0.0679
  277MOL0     O38091   9.756   3.338   7.243  0.2903 -0.0344  0.2049
  277MOL0     C38092   9.854   3.409   7.320 -0.4758  0.1961 -0.6716
  277MOL0     C38093   9.945   3.338   7.393 -0.2776  0.2170 -0.8032
  277MOL0     C38094  10.053   3.399   7.462 -0.0598 -0.2813 -0.4063
  277MOL0     C38095  10.068   3.536   7.445 -0.7419 -0.4155  0.2828
  277MOL0     O38096  10.184   3.594   7.485 -0.8850  0.5152 -0.2538
  277MOL0     C38097  10.295   3.571   7.399  0.2431 -0.0645 -0.3108
  277MOL0     C38098  10.419   3.649   7.450 -0.8681  0.1698 -0.5662
  277MOL0     C38099  10.508   3.566   7.541 -0.5712 -0.1299 -0.1877
  277MOL0     C38100  10.636   3.645   7.586  0.6697  0.0215  0.7554
  277MOL0     C38101  10.706   3.567   7.692  0.5695  0.6748  0.3267
  277MOL0     C38102  10.818   3.665   7.750  0.5071 -0.1410 -0.7973
  277MOL0     C38103  10.899   3.602   7.866  0.5899  0.3679 -0.2369
  277MOL0     C38104  10.971   3.477   7.814 -0.1380  0.8180  0.2681
  277MOL0     N38105  11.072   3.500   7.714 -0.3434 -0.6826 -0.0157
  277MOL0     C38106  11.194   3.573   7.744 -0.2842 -0.6069  1.3247
  277MOL0     C38107  11.256   3.599   7.618  0.7737  0.3090  0.6154
  277MOL0     C38108  11.387   3.665   7.584 -0.0620  0.5947 -0.2741
  277MOL0     C38109  11.500   3.591   7.644 -0.4955  0.7968 -1.1364
  277MOL0     C38110  11.629   3.680   7.660  0.9185  0.2543  0.3909
  277MOL0     C38111  11.730   3.610   7.760 -0.6147  0.4709 -0.8466
  277MOL0     O38112  11.778   3.501   7.695  0.7390 -0.2609 -0.4821
  277MOL0     C38113  11.824   3.404   7.779 -0.1929 -0.4235 -0.2142
  277MOL0     C38114  11.946   3.352   7.742  0.4733 -0.1268 -0.0985
  277MOL0     C38115  12.023   3.268   7.823 -0.0816  0.2932 -1.1545
  277MOL0     C38116  12.153   3.224   7.755 -0.4427 -0.7163 -0.2183
  277MOL0     C38117  11.974   3.229   7.942  0.9260 -0.8341 -0.8767
  277MOL0     C38118  12.055   3.147   8.036  0.4694  0.8530  0.0221
  277MOL0     O38119  11.985   3.087   8.139  0.3580 -0.3570 -0.1111
  277MOL0     C38120  11.992   2.949   8.149 -0.4338 -0.0441  0.4947
  277MOL0     C38121  11.868   2.879   8.148  0.0086  0.2418 -0.0985
  277MOL0     C38122  11.874   2.739   8.159  0.6530  0.0523  0.1324
  277MOL0     C38123  11.992   2.671   8.183 -0.4244  0.3009  0.0896
  277MOL0     O38124  12.005   2.530   8.190 -0.3028 -0.5747 -0.0565
  277MOL0     C38125  11.890   2.455   8.152 -0.0178 -0.0198  0.3065
  277MOL0     C38126  11.934   2.307   8.155 -0.6303  0.6226 -0.9463
  277MOL0     C38127  11.826   2.202   8.126  0.2311 -0.4516  0.1387
  277MOL0     C38128  11.881   2.062   8.114  0.0757  0.4770 -0.0457
  277MOL0     C38129  11.784   1.964   8.055 -0.2298  1.1057  0.7481
  277MOL0     C38130  11.848   1.844   7.987 -0.4610  0.0700 -0.3742
  277MOL0     C38131  11.962   1.760   8.060  0.0433 -0.5884  0.1873
  277MOL0     C38132  12.019   1.632   7.991  0.3713  0.0213  0.6854
  277MOL0    Cl38133  12.071   1.674   7.828  0.0492  0.2442  0.4856
  277MOL0     C38134  12.104   2.748   8.215 -0.1959 -0.3391  1.1962
  277MOL0     C38135  12.109   2.881   8.186  0.2294 -1.1561 -0.0698
  277MOL0     O38136  12.175   3.139   8.021  0.2477  0.6080 -0.0440
  277MOL0     C38137  11.849   3.286   7.981  0.3816  0.0301 -0.6750
  277MOL0     C38138  11.767   3.366   7.902  0.4070  0.9694 -0.2232
  277MOL0     N38139  11.169   3.547   7.520  0.0734 -0.3941  0.3193
  277MOL0     N38140  11.071   3.491   7.572  0.5515  0.4287 -0.5433
  277MOL0     C38141   9.971   3.606   7.374  0.0854 -0.4373 -0.3929
  277MOL0     C38142   9.864   3.542   7.319  0.0142 -0.0547  0.8606
  277MOL0     C38143   9.502   3.286   7.210 -0.0549  0.7009 -0.4556
  277MOL0     C38144   9.379   3.253   7.274  0.3696 -0.1689  0.5523
  277MOL0     C38145   9.256   3.231   7.210  0.7275  0.0710 -0.1138
  277MOL0     C38146   9.242   3.246   7.077  0.2112 -0.1593  1.0611
  277MOL0     O38147   9.124   3.226   7.007 -0.2059  0.4369  0.3347
  277MOL0     C38148   8.996   3.238   7.075 -0.2082 -0.2087  0.0234
  277MOL0     C38149   8.878   3.215   6.970 -0.3464  0.2408 -0.5910
  277MOL0     C38150   8.747   3.256   7.039  0.6072 -0.4462  0.1730
  277MOL0     C38151   8.628   3.219   6.946  1.0288  0.2418 -0.9632
  277MOL0     C38152   8.497   3.251   7.001  0.4710  0.0444  0.5253
  277MOL0     C38153   8.380   3.258   7.034 -0.2267 -1.0910 -0.7164
  277MOL0     C38154   9.360   3.271   7.007  0.2568 -0.4536  0.0157
  277MOL0     C38155   9.490   3.308   7.068  0.7649 -0.3895 -0.6107
  277MOL0     C38156   9.602   3.357   6.984 -0.6414 -0.7612 -0.6091
  277MOL0     H38157   9.931   3.230   7.395 -0.2536  0.2180 -0.5833
  277MOL0     H38158  10.125   3.350   7.525  0.3916  3.2105  2.1102
  277MOL0     H38159  10.269   3.616   7.302 -2.1986  0.4568  0.5040
  277MOL0     H38160  10.325   3.471   7.367  2.2766 -0.0350  1.3492
  277MOL0     H38161  10.483   3.664   7.363  1.2921 -1.9185  0.5292
  277MOL0     H38162  10.393   3.742   7.500  1.9382  1.2816 -0.9492
  277MOL0     H38163  10.449   3.544   7.631 -0.7953  2.1556  0.2909
  277MOL0     H38164  10.521   3.467   7.496 -4.7507  0.4123 -3.1993
  277MOL0     H38165  10.702   3.661   7.501 -3.4759  0.9786 -2.6070
  277MOL0     H38166  10.606   3.742   7.626 -1.5202  0.3719 -1.5101
  277MOL0     H38167  10.757   3.486   7.639  1.9958  1.0962  0.9917
  277MOL0     H38168  10.650   3.522   7.775 -0.7766  0.6249 -0.5773
  277MOL0     H38169  10.893   3.690   7.675  3.0821 -0.3062  1.5669
  277MOL0     H38170  10.767   3.759   7.774 -0.2205 -0.8471  0.5389
  277MOL0     H38171  10.848   3.592   7.962  0.9183  0.9643 -0.0007
  277MOL0     H38172  10.969   3.677   7.902 -0.8792  0.7715  2.0277
  277MOL0     H38173  11.020   3.431   7.900 -2.2617  0.8548  1.5640
  277MOL0     H38174  10.899   3.405   7.776  0.6317  0.1118  0.1179
  277MOL0     H38175  11.239   3.594   7.840 -0.6425 -0.8563  1.5475
  277MOL0     H38176  11.396   3.769   7.617  1.7337  0.6696 -0.9261
  277MOL0     H38177  11.397   3.639   7.478 -2.2318 -0.9832 -0.1723
  277MOL0     H38178  11.477   3.558   7.746 -1.1435 -0.8928 -1.7977
  277MOL0     H38179  11.529   3.500   7.591 -0.8720  0.7301 -1.2242
  277MOL0     H38180  11.675   3.716   7.568  0.3214 -2.7124 -1.1934
  277MOL0     H38181  11.599   3.769   7.716  1.2642  1.0938 -0.7379
  277MOL0     H38182  11.814   3.679   7.771 -0.4590  0.0426  1.0076
  277MOL0     H38183  11.682   3.588   7.856 -1.6424 -2.2382 -1.8953
  277MOL0     H38184  11.983   3.385   7.646 -2.2130 -1.2604 -1.6441
  277MOL0     H38185  12.172   3.121   7.785  3.5888  0.2205  0.9748
  277MOL0     H38186  12.241   3.274   7.796  0.8803  0.5448 -4.1173
  277MOL0     H38187  12.155   3.239   7.646 -1.5905 -2.1533 -0.4645
  277MOL0     H38188  11.771   2.923   8.129 -0.3915 -0.8183 -0.5926
  277MOL0     H38189  11.772   2.701   8.154  0.2864  1.0798 -0.3707
  277MOL0     H38190  11.801   2.482   8.208  0.5139 -0.7044  1.5210
  277MOL0     H38191  11.867   2.470   8.046 -0.0733 -1.0410  0.1666
  277MOL0     H38192  12.019   2.293   8.088 -1.5494 -0.7788 -1.8732
  277MOL0     H38193  11.964   2.288   8.259  1.5446  1.6126 -1.3311
  277MOL0     H38194  11.775   2.222   8.032 -0.7740  1.0941  0.9562
  277MOL0     H38195  11.741   2.205   8.195 -1.8998 -1.7016 -2.2522
  277MOL0     H38196  11.913   2.024   8.211 -0.7154 -0.1599 -0.0217
  277MOL0     H38197  11.970   2.055   8.051 -0.5688 -0.5402 -0.8867
  277MOL0     H38198  11.720   1.943   8.141 -0.0757 -0.2072  0.5775
  277MOL0     H38199  11.715   2.008   7.983  1.5395  2.2710 -0.2928
  277MOL0     H38200  11.882   1.855   7.883  0.7352  0.0363  0.0053
  277MOL0     H38201  11.762   1.777   7.979 -0.7653  0.4378 -0.2334
  277MOL0     H38202  11.934   1.734   8.163  1.7802  0.0957  0.8770
  277MOL0     H38203  12.048   1.826   8.074  0.8484 -1.1723 -1.7152
  277MOL0     H38204  11.951   1.547   7.978  2.3949 -1.3575 -2.1925
  277MOL0     H38205  12.107   1.601   8.048 -0.8367 -2.5267  1.3076
  277MOL0     H38206  12.192   2.692   8.245  2.4860  1.7529 -2.0201
  277MOL0     H38207  12.195   2.941   8.211  0.7066 -2.0357  0.4712
  277MOL0     H38208  11.821   3.267   8.084 -1.5613  0.1232 -1.1525
  277MOL0     H38209  11.671   3.395   7.941  0.2163 -1.3224  1.2038
  277MOL0     H38210   9.983   3.711   7.350 -0.1199 -0.4728 -0.6570
  277MOL0     H38211   9.805   3.597   7.246 -0.6608  1.8815  2.7322
  277MOL0     H38212   9.388   3.251   7.382 -0.2455 -0.4704  0.6014
  277MOL0     H38213   9.176   3.199   7.277  0.9692 -4.4384 -1.6179
  277MOL0     H38214   8.994   3.162   7.154 -0.3421 -0.3538 -0.1194
  277MOL0     H38215   8.997   3.338   7.120  0.3852  0.5368 -1.5867
  277MOL0     H38216   8.885   3.110   6.944 -0.3276  0.3125 -0.8722
  277MOL0     H38217   8.895   3.280   6.884 -1.1212  0.1618 -0.8033
  277MOL0     H38218   8.729   3.195   7.127 -1.4374  0.8775  0.7474
  277MOL0     H38219   8.744   3.361   7.070  2.3919  0.0282 -1.0394
  277MOL0     H38220   8.626   3.110   6.947 -2.5123  0.1826 -1.5508
  277MOL0     H38221   8.631   3.255   6.843 -0.8248  0.8614 -0.8344
  277MOL0     H38222   8.283   3.281   7.071 -0.3831 -2.3380 -0.2870
  277MOL0     H38223   9.345   3.273   6.899 -1.4092 -0.0870  0.2194
  277MOL0     H38224   9.677   3.278   6.984  1.5567  1.1931 -1.5861
  277MOL0     H38225   9.578   3.385   6.881  1.4972  3.2989 -0.2075
  277MOL0     H38226   9.652   3.441   7.032 -0.8871 -0.9261 -0.0508
  278MOL0     O38227   3.197   5.514  10.078  0.4677  0.2935 -0.4852
  278MOL0     C38228   3.192   5.428   9.990 -0.7452  0.8331 -0.0225
  278MOL0     O38229   3.082   5.387   9.924 -0.2006  0.0196  0.9148
  278MOL0     C38230   2.959   5.412   9.972  0.0301  0.8108 -0.1955
  278MOL0     C38231   2.857   5.421   9.875  0.2051 -0.7451  0.1825
  278MOL0     C38232   2.726   5.445   9.909 -0.0436 -0.4708  0.4194
  278MOL0     C38233   2.688   5.447  10.043 -0.0504  0.2252  0.1465
  278MOL0     O38234   2.556   5.463  10.087 -0.0039  0.7561  0.1182
  278MOL0     C38235   2.445   5.488   9.996 -0.8343  0.6742 -0.0132
  278MOL0     C38236   2.451   5.630   9.944 -0.6339  1.0404 -0.8598
  278MOL0     C38237   2.401   5.713  10.066  0.5924 -0.4415  0.3790
  278MOL0     C38238   2.515   5.817  10.090  0.5829  0.4507 -0.5189
  278MOL0     C38239   2.464   5.900  10.212 -0.5170 -0.0526  0.1529
  278MOL0     C38240   2.354   5.997  10.188  0.3171  0.3214  0.4651
  278MOL0     C38241   2.369   6.122  10.287  0.3070 -0.2382  0.6822
  278MOL0     C38242   2.377   6.252  10.203  0.1700 -0.0969  0.3312
  278MOL0     N38243   2.392   6.360  10.304  0.3565 -0.8514  0.2556
  278MOL0     C38244   2.515   6.421  10.334  0.3652  0.2104  0.7137
  278MOL0     C38245   2.481   6.531  10.410 -0.1934  0.5738  0.8993
  278MOL0     C38246   2.572   6.640  10.463 -0.0212 -0.7768  0.6240
  278MOL0     C38247   2.584   6.741  10.344 -0.2578 -1.1078 -0.1254
  278MOL0     C38248   2.630   6.883  10.403  0.5047  0.2261  0.0072
  278MOL0     C38249   2.773   6.872  10.465 -0.3735 -0.0316  0.1318
  278MOL0     O38250   2.797   7.006  10.482 -0.8283 -0.4084  0.0439
  278MOL0     C38251   2.922   7.046  10.530 -0.3856 -0.0847  0.1574
  278MOL0     C38252   3.033   6.961  10.552 -0.0940  0.5955 -0.1753
  278MOL0     C38253   3.151   7.009  10.600 -0.7776 -0.8153 -0.2999
  278MOL0     C38254   3.271   6.912  10.620 -0.2210 -0.0826  0.7549
  278MOL0     C38255   3.157   7.142  10.648 -0.4510 -0.1726 -0.8170
  278MOL0     C38256   3.279   7.197  10.718 -0.4768  0.3685  0.1889
  278MOL0     O38257   3.284   7.335  10.734  0.3596  0.0588  0.3311
  278MOL0     C38258   3.389   7.396  10.801 -0.2076 -0.4627 -0.1374
  278MOL0     C38259   3.442   7.511  10.739 -0.3994 -0.0741 -0.5264
  278MOL0     C38260   3.555   7.579  10.792  0.3584  0.0774 -0.7530
  278MOL0     C38261   3.609   7.531  10.919 -0.0592 -0.4528 -0.6480
  278MOL0     O38262   3.715   7.603  10.969  0.0680  0.7750  0.2230
  278MOL0     C38263   3.725   7.619  11.113 -0.2586 -0.3117  0.2373
  278MOL0     C38264   3.830   7.730  11.129 -0.0381  0.1029  0.8441
  278MOL0     C38265   3.799   7.860  11.057  1.2343  0.7002 -0.1568
  278MOL0     C38266   3.826   7.986  11.135  0.0242  0.2956  0.3976
  278MOL0     C38267   3.715   8.090  11.123  0.7164 -0.5448  0.0063
  278MOL0     C38268   3.600   8.044  11.220 -0.0372 -0.0214  0.4214
  278MOL0     C38269   3.499   8.158  11.219 -0.0841  0.0735 -0.5856
  278MOL0     C38270   3.366   8.110  11.277 -0.1590  0.4200  0.0957
  278MOL0    Cl38271   3.270   7.998  11.174 -0.2247  0.0027  0.3620
  278MOL0     C38272   3.563   7.408  10.975  0.0606 -0.2360  0.3452
  278MOL0     C38273   3.446   7.347  10.927 -0.4674  0.9200 -0.5005
  278MOL0     O38274   3.352   7.111  10.776  0.0035 -0.8395  0.0427
  278MOL0     C38275   3.048   7.227  10.628 -0.5555 -0.4979 -0.0389
  278MOL0     C38276   2.934   7.181  10.568 -0.0449 -0.5155 -0.7700
  278MOL0     N38277   2.348   6.538  10.420  0.3696 -1.0043  0.0411
  278MOL0     N38278   2.300   6.430  10.371  0.7543  0.0471  0.2047
  278MOL0     C38279   2.792   5.445  10.137  0.0468 -0.4229 -0.5866
  278MOL0     C38280   2.924   5.426  10.108 -0.2581  0.4925  0.8376
  278MOL0     C38281   3.326   5.378   9.939 -0.6037 -0.1178 -1.1276
  278MOL0     C38282   3.339   5.353   9.797 -0.0852  0.0771  0.2251
  278MOL0     C38283   3.460   5.323   9.741  0.5635  0.1758  0.4100
  278MOL0     C38284   3.571   5.320   9.819  0.5612  0.3888  0.0831
  278MOL0     O38285   3.702   5.316   9.776  0.1007 -0.1919  0.4708
  278MOL0     C38286   3.721   5.306   9.629 -0.2104 -0.5993 -0.5806
  278MOL0     C38287   3.692   5.442   9.567 -0.2036 -0.5839  0.1668
  278MOL0     C38288   3.777   5.550   9.636  0.8627 -0.2480 -0.3675
  278MOL0     C38289   3.753   5.687   9.564  0.1198 -0.3403  0.5295
  278MOL0     C38290   3.813   5.796   9.634  0.2562 -0.0689 -0.0700
  278MOL0     C38291   3.863   5.887   9.693  0.1971 -0.0441  0.2946
  278MOL0     C38292   3.571   5.333   9.958  0.3763  0.4506  0.4324
  278MOL0     C38293   3.444   5.363  10.020  0.3735 -0.6678  0.1810
  278MOL0     C38294   3.442   5.394  10.165 -0.1572 -0.3036 -0.5680
  278MOL0     H38295   2.890   5.400   9.774  0.1060 -0.1698  0.0312
  278MOL0     H38296   2.657   5.453   9.825  0.7351 -0.9918 -0.2852
  278MOL0     H38297   2.353   5.466  10.051 -0.2306 -1.8585  0.1075
  278MOL0     H38298   2.440   5.427   9.906 -0.9754  1.3888 -0.4955
  278MOL0     H38299   2.554   5.659   9.923  0.0582 -1.0340 -0.6490
  278MOL0     H38300   2.401   5.649   9.849  2.0091  5.5525 -1.6080
  278MOL0     H38301   2.315   5.774  10.038  2.0974  1.9147  0.6845
  278MOL0     H38302   2.378   5.654  10.156  1.7123  2.6108  2.8287
  278MOL0     H38303   2.609   5.763  10.103 -1.0474 -2.3417  0.4935
  278MOL0     H38304   2.532   5.888  10.009 -1.6199  2.4147  0.6104
  278MOL0     H38305   2.555   5.952  10.243  1.3892 -2.8475 -0.3821
  278MOL0     H38306   2.441   5.835  10.297 -1.7045  1.7448  1.2561
  278MOL0     H38307   2.365   6.041  10.088 -0.2330  0.3658  0.4215
  278MOL0     H38308   2.260   5.943  10.202  1.5810 -1.7270  1.4478
  278MOL0     H38309   2.454   6.110  10.354  0.5088  0.6957  0.5964
  278MOL0     H38310   2.284   6.120  10.355 -0.3201  0.1498 -0.0649
  278MOL0     H38311   2.463   6.250  10.135  2.6960  0.0374  3.2996
  278MOL0     H38312   2.288   6.275  10.144 -0.5149 -0.8442  1.0488
  278MOL0     H38313   2.617   6.398  10.306 -0.1255 -0.3269 -0.6745
  278MOL0     H38314   2.663   6.604  10.511 -0.7633  2.0230  4.7079
  278MOL0     H38315   2.522   6.684  10.550  3.0355  1.7607  1.3251
  278MOL0     H38316   2.642   6.699  10.262  0.2745 -0.7950  0.0875
  278MOL0     H38317   2.484   6.755  10.301  0.5130 -1.1555 -1.9880
  278MOL0     H38318   2.624   6.959  10.325  3.8760  0.3313 -0.3087
  278MOL0     H38319   2.565   6.911  10.486  0.2976  0.2020 -0.1452
  278MOL0     H38320   2.780   6.822  10.562  1.4489 -1.0962 -0.5009
  278MOL0     H38321   2.845   6.831  10.393  1.2305  1.6265  0.7118
  278MOL0     H38322   3.025   6.855  10.530 -1.5174  1.1822 -2.7340
  278MOL0     H38323   3.360   6.969  10.590  0.3617 -1.8797 -1.2132
  278MOL0     H38324   3.261   6.835  10.543  1.3631 -2.0344  2.4015
  278MOL0     H38325   3.287   6.864  10.717  0.3104  0.2657  0.8392
  278MOL0     H38326   3.402   7.545  10.644 -2.4456 -1.0807 -0.0650
  278MOL0     H38327   3.595   7.673  10.754 -0.4328  0.2565 -1.1695
  278MOL0     H38328   3.625   7.638  11.152 -0.3759  0.8350 -0.5865
  278MOL0     H38329   3.769   7.537  11.170 -0.8422 -0.0067  1.1327
  278MOL0     H38330   3.841   7.750  11.236 -0.3566 -1.1516  1.1285
  278MOL0     H38331   3.922   7.682  11.093 -0.7756 -0.8561  0.1899
  278MOL0     H38332   3.693   7.851  11.032  0.3926 -1.6829  3.5823
  278MOL0     H38333   3.855   7.855  10.963 -0.9345 -0.7578 -1.4590
  278MOL0     H38334   3.927   8.015  11.105 -0.4062 -0.3501 -1.8915
  278MOL0     H38335   3.829   7.960  11.241  1.1815 -0.3245  0.2238
  278MOL0     H38336   3.756   8.187  11.152  1.4268 -1.0168  0.6311
  278MOL0     H38337   3.679   8.094  11.020  1.6025  1.9557 -0.2826
  278MOL0     H38338   3.636   8.007  11.317  1.6589 -0.1765 -0.2411
  278MOL0     H38339   3.553   7.957  11.174 -1.2824  0.1808  1.2682
  278MOL0     H38340   3.486   8.201  11.120  0.2388  1.4709 -0.0427
  278MOL0     H38341   3.552   8.229  11.282 -0.5699 -0.8997  0.9945
  278MOL0     H38342   3.299   8.192  11.306 -3.0038 -2.5749  2.7652
  278MOL0     H38343   3.376   8.061  11.374 -1.6869  0.8225  0.4783
  278MOL0     H38344   3.621   7.376  11.061  0.2989 -0.0215  0.2698
  278MOL0     H38345   3.405   7.257  10.970 -1.5869  1.2402 -0.8480
  278MOL0     H38346   3.038   7.333  10.649 -0.8820 -0.6438  0.5617
  278MOL0     H38347   2.851   7.248  10.549 -0.3945 -0.5112  0.6293
  278MOL0     H38348   2.769   5.447  10.243  0.5885  2.4917 -0.4409
  278MOL0     H38349   3.003   5.440  10.181  3.3215 -1.6883 -2.2599
  278MOL0     H38350   3.245   5.378   9.748 -1.7256 -1.9427  2.0969
  278MOL0     H38351   3.459   5.291   9.637 -1.0257  1.6791 -0.0984
  278MOL0     H38352   3.826   5.278   9.618  0.4140 -0.5542  3.5779
  278MOL0     H38353   3.672   5.222   9.579 -1.6812 -0.1965  0.1523
  278MOL0     H38354   3.587   5.468   9.588  0.5589  1.2016  2.0893
  278MOL0     H38355   3.704   5.452   9.459  2.7116 -3.7776  0.0187
  278MOL0     H38356   3.756   5.569   9.741 -1.8017 -2.2857 -0.4396
  278MOL0     H38357   3.880   5.519   9.618  0.0332 -2.4638 -1.6502
  278MOL0     H38358   3.645   5.700   9.558  0.3214  1.8081  0.7006
  278MOL0     H38359   3.778   5.684   9.458 -0.8930  1.2947  0.2155
  278MOL0     H38360   3.891   5.977   9.742 -0.6591  2.0556 -2.7920
  278MOL0     H38361   3.663   5.343  10.016  1.1387 -1.5025 -0.3433
  278MOL0     H38362   3.534   5.362  10.215  0.7592 -0.8229 -2.4711
  278MOL0     H38363   3.425   5.501  10.180 -0.5513 -0.4976  0.4777
  278MOL0     H38364   3.361   5.340  10.215 -0.5280  0.2216 -0.6021
  279MOL0     O38365   8.298   0.598   0.329 -0.5570 -0.4549  0.2971
  279MOL0     C38366   8.267   0.508   0.253 -0.5821  0.4083  1.7558
  279MOL0     O38367   8.346   0.404   0.221 -0.3080 -0.4232  0.4105
  279MOL0     C38368   8.457   0.360   0.291 -0.6640 -0.1350 -0.5700
  279MOL0     C38369   8.499   0.418   0.415  0.2198  0.1923 -0.2130
  279MOL0     C38370   8.597   0.355   0.489  0.0216  0.7120  0.4624
  279MOL0     C38371   8.661   0.239   0.440 -0.0701 -0.1318 -1.3126
  279MOL0     O38372   8.777   0.191   0.512 -0.5571  0.2538 -0.4955
  279MOL0     C38373   8.791   0.222   0.652 -0.3433 -0.1663  0.4693
  279MOL0     C38374   8.875   0.127   0.738  0.6764 -0.3529  0.1200
  279MOL0     C38375   9.010   0.112   0.676  0.2970  0.1455  0.2499
  279MOL0     C38376   9.100   0.049   0.785  0.1357  0.3093  0.2862
  279MOL0     C38377   9.245   0.052   0.738  0.3138 -0.3076 -0.0778
  279MOL0     C38378   9.341   0.085   0.852  0.4877 -0.5840  0.2655
  279MOL0     C38379   9.491   0.052   0.826  0.0133  1.0596 -0.7643
  279MOL0     C38380   9.549   0.130   0.709 -0.5744 -1.0892  0.0664
  279MOL0     N38381   9.572   0.276   0.755  0.3335  0.9202  1.2045
  279MOL0     C38382   9.487   0.379   0.738 -0.2131  0.6413  0.0815
  279MOL0     C38383   9.539   0.484   0.804 -0.5904  0.4209  0.5780
  279MOL0     C38384   9.466   0.605   0.849  0.2476  0.0417 -0.3707
  279MOL0     C38385   9.494   0.726   0.747  0.0427 -0.3020  0.2414
  279MOL0     C38386   9.645   0.761   0.738 -0.4000 -0.7239 -0.3695
  279MOL0     C38387   9.688   0.882   0.653 -0.2743  0.4651 -1.2784
  279MOL0     O38388   9.628   0.871   0.528  0.5072 -0.1772  0.0627
  279MOL0     C38389   9.630   0.978   0.436  0.1852  0.2383  0.0652
  279MOL0     C38390   9.582   0.955   0.308  0.1083 -0.4873  0.1248
  279MOL0     C38391   9.591   1.057   0.210 -0.0214  0.0441 -0.0940
  279MOL0     C38392   9.560   1.013   0.064 -0.3217 -0.3797  0.5083
  279MOL0     C38393   9.660   1.184   0.231  0.3021 -0.4512  0.7722
  279MOL0     C38394   9.673   1.294   0.133  0.2523  0.2757 -1.0988
  279MOL0     O38395   9.639   1.278   0.004 -0.1183  0.4451 -0.1286
  279MOL0     C38396   9.707   1.363  -0.085  0.2836 -0.3972 -0.0232
  279MOL0     C38397   9.838   1.342  -0.120  0.0097  0.5176 -0.0351
  279MOL0     C38398   9.898   1.419  -0.216 -1.0196  0.2610  0.6176
  279MOL0     C38399   9.834   1.531  -0.274  0.2598 -0.7114  0.0659
  279MOL0     O38400   9.897   1.616  -0.364  0.0757  0.0124  0.2304
  279MOL0     C38401   9.820   1.648  -0.480  0.2031 -0.0246  1.1786
  279MOL0     C38402   9.920   1.697  -0.595  0.1716 -0.8318  0.0296
  279MOL0     C38403   9.996   1.581  -0.654  0.3144  0.6551  0.1186
  279MOL0     C38404  10.070   1.601  -0.794 -0.0378 -0.3114 -1.0734
  279MOL0     C38405  10.195   1.520  -0.806  0.2379  0.1875 -0.6761
  279MOL0     C38406  10.175   1.377  -0.780  0.5881 -0.4219 -0.1637
  279MOL0     C38407  10.274   1.281  -0.835  0.0767 -0.0232  0.9889
  279MOL0     C38408  10.262   1.142  -0.790 -0.3923  0.6319 -0.1451
  279MOL0    Cl38409  10.336   1.113  -0.639  0.5956 -0.0866  0.1400
  279MOL0     C38410   9.698   1.554  -0.240  0.2093 -0.4124  0.2366
  279MOL0     C38411   9.635   1.461  -0.158  0.2357  0.0992 -0.0197
  279MOL0     O38412   9.727   1.393   0.182 -0.3833 -0.6179  0.2718
  279MOL0     C38413   9.696   1.204   0.367  0.2840 -0.3153  0.5554
  279MOL0     C38414   9.689   1.101   0.461 -0.3258  0.2042  0.5306
  279MOL0     N38415   9.671   0.454   0.835  0.3889 -0.1629 -0.7469
  279MOL0     N38416   9.684   0.323   0.816 -0.1616 -1.0229 -0.5155
  279MOL0     C38417   8.632   0.191   0.317  0.9975  0.0520  0.7383
  279MOL0     C38418   8.534   0.250   0.243 -0.1533 -0.7239 -0.3333
  279MOL0     C38419   8.128   0.505   0.200 -0.4576  0.6928 -0.2271
  279MOL0     C38420   8.025   0.566   0.271  0.1604  0.7081  0.6624
  279MOL0     C38421   7.896   0.575   0.216  0.0290 -0.5289 -1.2329
  279MOL0     C38422   7.867   0.514   0.094 -0.1922 -0.5937  0.1516
  279MOL0     O38423   7.737   0.522   0.059  0.1634  0.3041 -0.3639
  279MOL0     C38424   7.697   0.517  -0.076  0.3986 -0.3374 -0.0520
  279MOL0     C38425   7.544   0.563  -0.087  0.4303  0.7873 -0.7745
  279MOL0     C38426   7.449   0.470  -0.014  0.2689 -0.0602  0.3886
  279MOL0     C38427   7.310   0.509  -0.068  0.6671  0.3000 -0.4008
  279MOL0     C38428   7.212   0.431   0.007  0.8968  0.1558  0.3930
  279MOL0     C38429   7.129   0.353   0.059 -0.3862  0.3093 -0.0661
  279MOL0     C38430   7.963   0.446   0.030 -0.6459 -0.0937  0.1643
  279MOL0     C38431   8.094   0.448   0.068 -0.8526  0.1874 -1.1908
  279MOL0     C38432   8.192   0.379  -0.025 -0.6230  0.5907  0.5259
  279MOL0     H38433   8.461   0.503   0.472  3.7297  1.8493 -0.1084
  279MOL0     H38434   8.626   0.395   0.586 -2.9976  2.0685  0.9095
  279MOL0     H38435   8.692   0.231   0.698  1.1384  0.5646  3.7702
  279MOL0     H38436   8.842   0.315   0.675  1.0719 -1.2406  1.9389
  279MOL0     H38437   8.880   0.183   0.832  0.4569 -0.8611  0.4393
  279MOL0     H38438   8.828   0.030   0.754  2.6173 -1.2832  0.3628
  279MOL0     H38439   9.014   0.053   0.584  1.3447 -1.5000  1.2697
  279MOL0     H38440   9.058   0.205   0.645 -0.6260  0.2921 -0.7598
  279MOL0     H38441   9.081   0.106   0.876  0.0845  5.0655 -2.4090
  279MOL0     H38442   9.069  -0.056   0.786 -3.4402  1.1273 -2.5042
  279MOL0     H38443   9.265   0.127   0.661  4.7069  0.1181  1.2135
  279MOL0     H38444   9.273  -0.048   0.704  0.4763 -0.0403 -0.7530
  279MOL0     H38445   9.333   0.189   0.884 -0.5640 -0.7414  0.5703
  279MOL0     H38446   9.306   0.037   0.944  0.7190  1.7934  1.6825
  279MOL0     H38447   9.497  -0.054   0.801 -1.5004  1.1449 -1.6296
  279MOL0     H38448   9.545   0.064   0.921 -5.3961  0.9760  2.7300
  279MOL0     H38449   9.644   0.087   0.675  1.5506  1.9973  1.5770
  279MOL0     H38450   9.483   0.133   0.622  1.7815  1.4414 -1.8140
  279MOL0     H38451   9.381   0.367   0.717  0.0569 -1.5383 -0.2406
  279MOL0     H38452   9.492   0.619   0.954  1.3072  1.7743 -0.8282
  279MOL0     H38453   9.360   0.581   0.834  0.0161  0.4745  0.5339
  279MOL0     H38454   9.450   0.698   0.651 -2.2513 -2.7221  1.8386
  279MOL0     H38455   9.449   0.821   0.777  1.8995  0.7044 -0.0075
  279MOL0     H38456   9.675   0.787   0.840 -0.8711  0.9129 -0.6274
  279MOL0     H38457   9.695   0.674   0.695  0.0607  0.1660 -1.7164
  279MOL0     H38458   9.644   0.970   0.700  1.8888  0.2396  1.3464
  279MOL0     H38459   9.797   0.876   0.650 -0.3272 -1.3524 -1.0020
  279MOL0     H38460   9.527   0.862   0.300 -4.3206  1.6838  2.0105
  279MOL0     H38461   9.648   1.034   0.003 -0.6160  3.3507  1.1432
  279MOL0     H38462   9.476   1.071   0.025  1.7290  2.4815  0.0307
  279MOL0     H38463   9.538   0.905   0.060 -3.5091  0.1834 -0.9967
  279MOL0     H38464   9.895   1.262  -0.074 -0.4853 -1.0467 -1.9961
  279MOL0     H38465  10.003   1.402  -0.239 -0.3456  2.4985  1.6878
  279MOL0     H38466   9.767   1.561  -0.518  0.3450  0.7358 -0.8996
  279MOL0     H38467   9.752   1.729  -0.452 -0.7052 -0.3188 -0.0971
  279MOL0     H38468   9.853   1.737  -0.672 -0.9033 -0.6768  1.0290
  279MOL0     H38469   9.979   1.781  -0.560 -0.6470  0.4693 -1.5484
  279MOL0     H38470   9.926   1.498  -0.669  1.9109 -0.9606  1.1740
  279MOL0     H38471  10.059   1.541  -0.573  0.5122 -2.5733 -1.4605
  279MOL0     H38472  10.100   1.706  -0.803 -0.7436  0.1250  1.0710
  279MOL0     H38473   9.997   1.579  -0.872  1.9104 -0.0080 -3.0830
  279MOL0     H38474  10.228   1.540  -0.908 -2.0129  2.5930 -1.0416
  279MOL0     H38475  10.273   1.558  -0.741 -0.4589  0.3756  0.0644
  279MOL0     H38476  10.074   1.344  -0.807  0.2345  0.5561 -0.1032
  279MOL0     H38477  10.179   1.376  -0.670  1.3484  0.1748 -0.1823
  279MOL0     H38478  10.375   1.315  -0.811  1.0140 -1.1903 -1.0587
  279MOL0     H38479  10.271   1.281  -0.944  2.9177 -1.1154  0.8171
  279MOL0     H38480  10.323   1.082  -0.858  2.1278  1.9924  0.7888
  279MOL0     H38481  10.157   1.110  -0.796 -0.7241  0.4033  3.8688
  279MOL0     H38482   9.638   1.634  -0.283 -1.6657 -0.8741  1.8252
  279MOL0     H38483   9.528   1.462  -0.143 -0.8005  1.2991 -5.3784
  279MOL0     H38484   9.728   1.303   0.396  0.9211  0.2456 -1.8069
  279MOL0     H38485   9.739   1.120   0.555  1.5145  1.6081 -0.6611
  279MOL0     H38486   8.682   0.102   0.279 -3.6891 -1.2242 -3.5060
  279MOL0     H38487   8.506   0.215   0.144 -3.8671  2.4148 -0.6650
  279MOL0     H38488   8.036   0.613   0.368  1.6845  0.5823  0.5765
  279MOL0     H38489   7.809   0.609   0.271 -0.2728 -1.3602 -1.1762
  279MOL0     H38490   7.762   0.580  -0.138  1.0028 -0.4411  0.4763
  279MOL0     H38491   7.712   0.416  -0.117 -2.3266 -0.3159 -1.3112
  279MOL0     H38492   7.521   0.580  -0.193 -0.2507 -0.0429 -0.7777
  279MOL0     H38493   7.525   0.661  -0.042 -2.6259 -0.1635  0.2659
  279MOL0     H38494   7.464   0.362  -0.021  0.7753  0.0341 -0.1378
  279MOL0     H38495   7.453   0.499   0.091  3.7769  2.2548 -0.2068
  279MOL0     H38496   7.296   0.486  -0.174  2.0056 -1.3267 -0.2717
  279MOL0     H38497   7.300   0.617  -0.056  3.6203  0.6515 -0.3784
  279MOL0     H38498   7.081   0.273   0.112  4.1154 -2.9517 -0.3071
  279MOL0     H38499   7.934   0.388  -0.057  0.7303 -0.2358 -0.2181
  279MOL0     H38500   8.259   0.312   0.029  0.6671  1.4792  0.0834
  279MOL0     H38501   8.139   0.316  -0.098  0.6181 -0.6116  0.6174
  279MOL0     H38502   8.251   0.451  -0.082  0.3752  0.5111  1.4311
  280MOL0     O38503   3.080   4.622   9.650  0.1404 -0.2189 -0.1152
  280MOL0     C38504   3.048   4.503   9.630  0.8138  0.1831 -0.0348
  280MOL0     O38505   3.120   4.405   9.584  0.6745 -0.1494  0.1167
  280MOL0     C38506   3.252   4.426   9.542 -0.1915 -0.9920 -0.2953
  280MOL0     C38507   3.326   4.546   9.518 -0.4196  0.6788 -0.6666
  280MOL0     C38508   3.463   4.552   9.491 -0.4782 -0.0378  0.0193
  280MOL0     C38509   3.540   4.431   9.477 -1.0960 -0.2525  0.3225
  280MOL0     O38510   3.671   4.451   9.454 -0.4288 -0.4808  0.5241
  280MOL0     C38511   3.763   4.345   9.440  0.0625  0.2608 -0.1138
  280MOL0     C38512   3.873   4.402   9.344 -0.3354 -0.3281  0.2554
  280MOL0     C38513   3.845   4.396   9.191 -0.1907  0.4018  0.3595
  280MOL0     C38514   3.932   4.482   9.103 -0.4869 -0.8324 -0.7680
  280MOL0     C38515   3.880   4.501   8.963 -0.0513  0.0374 -0.1113
  280MOL0     C38516   3.975   4.590   8.886 -0.2500  1.2042 -0.0235
  280MOL0     C38517   3.948   4.639   8.748  0.2087 -0.1459 -0.3209
  280MOL0     C38518   4.040   4.756   8.696  0.3626  0.7748 -0.1522
  280MOL0     N38519   4.184   4.731   8.700  0.1774 -0.6927 -0.0348
  280MOL0     C38520   4.259   4.629   8.638  1.3851  0.7069 -0.1327
  280MOL0     C38521   4.383   4.646   8.685 -0.2165  0.5219 -0.5700
  280MOL0     C38522   4.495   4.551   8.658 -1.2241 -0.5946 -0.1460
  280MOL0     C38523   4.507   4.438   8.763 -0.0214 -0.0584  0.4865
  280MOL0     C38524   4.509   4.490   8.910  0.0486  0.4534  0.9335
  280MOL0     C38525   4.636   4.570   8.932  0.0544 -0.2104  0.8281
  280MOL0     O38526   4.746   4.473   8.912  0.8899 -0.1890  0.4208
  280MOL0     C38527   4.879   4.529   8.910  0.4417  0.4732  0.0109
  280MOL0     C38528   4.980   4.433   8.870  0.6406 -0.1163  0.8279
  280MOL0     C38529   5.115   4.464   8.851  0.5882 -0.0946 -0.0568
  280MOL0     C38530   5.212   4.357   8.794 -0.5054  0.1329  0.3053
  280MOL0     C38531   5.147   4.601   8.890  0.2333 -0.4467 -0.3480
  280MOL0     C38532   5.291   4.644   8.889  0.7090 -0.7454 -0.0979
  280MOL0     O38533   5.400   4.565   8.917  0.7836  0.3233 -0.2009
  280MOL0     C38534   5.522   4.632   8.921  0.1146  1.3221  0.1295
  280MOL0     C38535   5.619   4.615   8.818  0.4599  0.7450  0.3099
  280MOL0     C38536   5.742   4.679   8.817  0.1939  0.3993 -0.1970
  280MOL0     C38537   5.780   4.758   8.929  0.1911  0.1470 -0.2779
  280MOL0     O38538   5.909   4.811   8.932 -0.1778 -0.4658  0.6005
  280MOL0     C38539   5.978   4.817   9.051 -0.2669  0.6364  0.2508
  280MOL0     C38540   6.116   4.885   9.034  0.4762  0.2562  0.8070
  280MOL0     C38541   6.223   4.790   8.966  0.1743  0.2811 -0.2949
  280MOL0     C38542   6.215   4.790   8.810  0.1344  0.3164 -0.1480
  280MOL0     C38543   6.336   4.707   8.756  0.4969  0.1859 -0.0626
  280MOL0     C38544   6.333   4.703   8.601  1.0104 -0.0824  0.7733
  280MOL0     C38545   6.405   4.584   8.541  0.2629  0.1486 -0.4706
  280MOL0     C38546   6.553   4.589   8.569 -0.0725  0.0267 -0.0112
  280MOL0    Cl38547   6.652   4.456   8.499  0.3417  0.3638  0.2945
  280MOL0     C38548   5.685   4.778   9.028 -0.1593  0.2644  0.8506
  280MOL0     C38549   5.561   4.712   9.030 -0.0728 -0.6758 -0.4360
  280MOL0     O38550   5.304   4.762   8.849  0.0767  0.6733  0.4470
  280MOL0     C38551   5.046   4.698   8.936 -0.7112  0.3225  0.3530
  280MOL0     C38552   4.916   4.656   8.948  0.3975  0.2144 -1.0636
  280MOL0     N38553   4.383   4.756   8.771 -0.5488 -0.5171 -0.1609
  280MOL0     N38554   4.269   4.818   8.759 -0.3691  0.0008  0.1990
  280MOL0     C38555   3.468   4.309   9.476  0.0579 -0.2617  0.1477
  280MOL0     C38556   3.329   4.315   9.509  0.0173 -0.5959  0.1497
  280MOL0     C38557   2.925   4.449   9.687  0.5698  0.1206 -0.1894
  280MOL0     C38558   2.869   4.322   9.641  0.0568  0.9003  0.3088
  280MOL0     C38559   2.772   4.259   9.713 -1.0421 -0.3303 -1.1030
  280MOL0     C38560   2.716   4.319   9.825  0.4414 -0.0643 -0.6209
  280MOL0     O38561   2.617   4.264   9.902  0.0449 -0.0958  0.2194
  280MOL0     C38562   2.569   4.134   9.859 -0.2612 -0.3585  0.2515
  280MOL0     C38563   2.449   4.087   9.950  0.9017  0.1351  0.8608
  280MOL0     C38564   2.328   4.157   9.918  0.6514 -0.1331  0.5367
  280MOL0     C38565   2.223   4.110  10.017 -0.8373  0.5892 -0.0369
  280MOL0     C38566   2.098   4.187  10.001 -0.2844 -0.5536 -0.8958
  280MOL0     C38567   1.997   4.254   9.989  0.3401 -0.5987 -0.3676
  280MOL0     C38568   2.757   4.448   9.862  0.3404  1.8326 -0.1232
  280MOL0     C38569   2.857   4.518   9.793 -0.0962  0.7276  0.2088
  280MOL0     C38570   2.876   4.661   9.821 -0.0981  0.1063 -0.4638
  280MOL0     H38571   3.269   4.636   9.541 -1.8776 -0.0701 -1.2163
  280MOL0     H38572   3.502   4.654   9.490 -0.4473 -0.0295  1.3513
  280MOL0     H38573   3.717   4.255   9.399  2.4385 -1.4428  0.7782
  280MOL0     H38574   3.799   4.320   9.540  1.0184 -0.0583 -0.5349
  280MOL0     H38575   3.898   4.504   9.373  1.7675 -0.1355 -1.9280
  280MOL0     H38576   3.968   4.349   9.355  1.0184  1.5950 -1.4772
  280MOL0     H38577   3.850   4.292   9.159 -2.1181  0.4216 -0.1341
  280MOL0     H38578   3.743   4.427   9.166  0.0526 -1.8459 -4.3989
  280MOL0     H38579   3.938   4.582   9.147  0.0253 -0.7261 -1.0608
  280MOL0     H38580   4.033   4.440   9.092 -0.4790 -1.6508  1.8477
  280MOL0     H38581   3.785   4.554   8.972 -1.3653 -1.9830 -1.3048
  280MOL0     H38582   3.856   4.407   8.912 -1.3298  1.9242 -3.2856
  280MOL0     H38583   4.005   4.683   8.935 -0.0026  1.0554  0.1126
  280MOL0     H38584   4.067   4.530   8.887  1.0069  3.0282  2.0415
  280MOL0     H38585   3.850   4.687   8.741  0.7641  1.7340  2.9053
  280MOL0     H38586   3.949   4.563   8.669 -1.8339  1.7479 -2.3171
  280MOL0     H38587   4.021   4.767   8.589  0.3785  0.3516 -0.1987
  280MOL0     H38588   4.015   4.845   8.754  2.4436  0.7197  0.9175
  280MOL0     H38589   4.228   4.544   8.579 -0.0020 -0.0782  1.6566
  280MOL0     H38590   4.590   4.603   8.648 -0.5025 -2.1063 -1.7222
  280MOL0     H38591   4.481   4.500   8.562 -1.4652  1.0671 -1.0389
  280MOL0     H38592   4.425   4.366   8.756 -1.2996  1.1859  1.7273
  280MOL0     H38593   4.592   4.371   8.747 -2.2173 -3.6119  2.5254
  280MOL0     H38594   4.418   4.543   8.938 -1.7669 -3.7293  3.8800
  280MOL0     H38595   4.501   4.402   8.974 -2.4600 -1.2741 -1.5523
  280MOL0     H38596   4.633   4.647   8.854 -2.5539 -0.6555  0.3826
  280MOL0     H38597   4.627   4.617   9.030 -1.0256  0.8890  0.2314
  280MOL0     H38598   4.949   4.331   8.849 -0.5139  0.1721  1.0390
  280MOL0     H38599   5.294   4.413   8.749  0.5244  0.6830  2.6959
  280MOL0     H38600   5.163   4.297   8.717 -0.2398  0.2782  0.0188
  280MOL0     H38601   5.270   4.293   8.861  1.6961  0.9594 -0.6849
  280MOL0     H38602   5.597   4.561   8.727  1.0191  2.0288 -0.6197
  280MOL0     H38603   5.800   4.662   8.727  0.2439 -1.4046  0.1309
  280MOL0     H38604   5.917   4.882   9.115 -0.6463 -0.2029  0.7604
  280MOL0     H38605   5.992   4.720   9.101  1.2549  0.5293 -0.3594
  280MOL0     H38606   6.111   4.977   8.975 -2.6145 -1.8680 -2.7108
  280MOL0     H38607   6.151   4.901   9.136 -0.9061  0.2435  1.3081
  280MOL0     H38608   6.198   4.688   8.997 -0.6525 -0.2882 -2.6404
  280MOL0     H38609   6.319   4.823   9.006  0.1668  1.7359 -1.4202
  280MOL0     H38610   6.214   4.894   8.776  0.6525  0.8608  1.4120
  280MOL0     H38611   6.131   4.727   8.779  1.0957 -1.5192  0.7849
  280MOL0     H38612   6.435   4.739   8.788 -0.4700  1.6343  1.7126
  280MOL0     H38613   6.327   4.607   8.799  0.4247  0.5554  0.7959
  280MOL0     H38614   6.368   4.794   8.552 -1.6014  1.0241  0.7902
  280MOL0     H38615   6.232   4.695   8.558  1.4579  1.6894 -0.7223
  280MOL0     H38616   6.380   4.586   8.434  1.5608 -0.0535 -0.7964
  280MOL0     H38617   6.364   4.488   8.572  0.2714  0.8474  1.8858
  280MOL0     H38618   6.569   4.577   8.676  3.5228 -1.4090 -0.5704
  280MOL0     H38619   6.591   4.689   8.547  3.1807 -0.6630  1.9401
  280MOL0     H38620   5.710   4.832   9.119  0.6278 -0.6711  1.2076
  280MOL0     H38621   5.489   4.710   9.111  0.4724  0.4566  0.0915
  280MOL0     H38622   5.068   4.802   8.955  0.6378 -0.2980  2.4888
  280MOL0     H38623   4.845   4.724   8.994  1.0075 -0.0722  0.3484
  280MOL0     H38624   3.517   4.216   9.446  1.1903  0.9926 -2.1597
  280MOL0     H38625   3.280   4.218   9.515 -0.5548 -0.4930 -2.1163
  280MOL0     H38626   2.918   4.257   9.568 -1.4292 -1.2928  1.1583
  280MOL0     H38627   2.751   4.156   9.685  1.5856 -1.5435  0.8687
  280MOL0     H38628   2.536   4.140   9.755 -3.0716  0.4536  1.1146
  280MOL0     H38629   2.653   4.064   9.866  1.5484  1.5807 -0.7931
  280MOL0     H38630   2.479   4.107  10.054  0.6727  0.5998  0.8400
  280MOL0     H38631   2.442   3.980   9.928  2.3715  0.7060 -3.0856
  280MOL0     H38632   2.354   4.261   9.942  1.8554  0.2310 -2.0379
  280MOL0     H38633   2.296   4.148   9.814 -0.9353 -0.2972  1.0206
  280MOL0     H38634   2.261   4.119  10.119  2.6901 -0.7345 -1.0465
  280MOL0     H38635   2.196   4.005  10.003 -0.1071  0.3701  0.1487
  280MOL0     H38636   1.910   4.316   9.982 -0.5377 -1.1245  3.5439
  280MOL0     H38637   2.703   4.493   9.944  0.9757 -0.0219  1.3845
  280MOL0     H38638   2.968   4.671   9.879 -1.1046 -0.6017  1.3564
  280MOL0     H38639   2.884   4.726   9.734 -2.6029  2.0818  0.6200
  280MOL0     H38640   2.799   4.709   9.883 -1.0299  1.5344 -2.6177
  281MOL0     O38641   0.917   9.424   6.390  0.2164  0.3124 -0.1798
  281MOL0     C38642   0.815   9.499   6.401 -1.1249  0.1219 -0.4384
  281MOL0     O38643   0.829   9.634   6.390  1.5234 -0.0904  0.1808
  281MOL0     C38644   0.955   9.686   6.375  0.1481  0.2401  0.4443
  281MOL0     C38645   1.039   9.742   6.467  0.0760  0.7609  0.3755
  281MOL0     C38646   1.177   9.760   6.435 -0.3135 -0.4039 -0.0899
  281MOL0     C38647   1.223   9.739   6.300 -0.1689 -0.7860  0.0802
  281MOL0     O38648   1.361   9.758   6.264  0.4746 -0.2342 -0.1308
  281MOL0     C38649   1.396   9.750   6.122  0.4251  0.3594 -0.1174
  281MOL0     C38650   1.549   9.771   6.081  0.2290  0.0289 -0.0482
  281MOL0     C38651   1.567   9.785   5.933 -0.2667  0.5316 -0.0994
  281MOL0     C38652   1.708   9.833   5.891  0.2783  0.0470 -0.3872
  281MOL0     C38653   1.704   9.887   5.745  0.0381  0.3134 -0.1945
  281MOL0     C38654   1.838   9.945   5.699 -0.1306  0.3075  0.3143
  281MOL0     C38655   1.839   9.981   5.553 -0.3877  0.1043 -0.7158
  281MOL0     C38656   1.979  10.035   5.533 -0.2688 -0.5067  0.2502
  281MOL0     N38657   1.985  10.120   5.415 -1.1724 -0.6317  0.5434
  281MOL0     C38658   2.049  10.085   5.295 -0.2686  0.3255  0.0532
  281MOL0     C38659   2.040  10.186   5.213 -0.3718 -0.2172  1.0481
  281MOL0     C38660   2.106  10.181   5.082  0.0126  0.1321  0.0811
  281MOL0     C38661   2.100  10.296   4.995 -0.6166 -0.8411  0.3417
  281MOL0     C38662   2.198  10.281   4.866  0.3251  0.1045  0.2560
  281MOL0     C38663   2.172  10.386   4.756 -0.4294  0.4318  0.0736
  281MOL0     O38664   2.277  10.377   4.653  0.3391 -0.6762 -0.7068
  281MOL0     C38665   2.403  10.428   4.673 -0.0622  0.1615 -0.2527
  281MOL0     C38666   2.430  10.531   4.766 -0.0320  0.5186 -0.1988
  281MOL0     C38667   2.554  10.587   4.772  0.3803 -0.1791  0.3943
  281MOL0     C38668   2.571  10.687   4.883 -0.2965  0.3791 -0.3019
  281MOL0     C38669   2.655  10.560   4.679  0.2757 -0.1588 -0.1599
  281MOL0     C38670   2.790  10.621   4.664  1.1180  0.3790  0.4198
  281MOL0     O38671   2.871  10.639   4.763 -0.7828  0.1756  0.3069
  281MOL0     C38672   2.999  10.684   4.745  0.2339  0.5705 -0.4560
  281MOL0     C38673   3.084  10.639   4.641  0.7219  0.0997 -0.3300
  281MOL0     C38674   3.207  10.701   4.619  0.9120 -0.4950 -0.6341
  281MOL0     C38675   3.255  10.796   4.705 -0.0771  0.7891 -0.4258
  281MOL0     O38676   3.377  10.856   4.678 -0.1672 -0.3009 -0.1220
  281MOL0     C38677   3.428  10.900   4.549  0.2497  0.3395 -0.8647
  281MOL0     C38678   3.561  10.974   4.568  0.3721 -1.6117  0.9269
  281MOL0     C38679   3.603  11.035   4.421 -0.0629 -0.2610 -0.1733
  281MOL0     C38680   3.723  11.135   4.429 -0.3896  0.1374 -1.2148
  281MOL0     C38681   3.858  11.046   4.441  0.8962  0.6571 -0.3297
  281MOL0     C38682   3.908  11.044   4.587  0.3098  0.4967 -0.1713
  281MOL0     C38683   4.019  10.936   4.596  0.1950 -0.7765  0.1490
  281MOL0     C38684   4.056  10.911   4.745 -0.0053  0.2690 -0.2842
  281MOL0    Cl38685   4.212  10.823   4.765  0.1832  0.4530 -0.1361
  281MOL0     C38686   3.183  10.825   4.823  0.0479  1.3186  0.3484
  281MOL0     C38687   3.051  10.766   4.849 -1.0021  0.5984 -0.1414
  281MOL0     O38688   2.817  10.643   4.546  0.0282  0.1109  0.0189
  281MOL0     C38689   2.627  10.452   4.588 -0.0847  0.1955  0.5584
  281MOL0     C38690   2.509  10.380   4.586  1.2727  0.2122 -0.5469
  281MOL0     N38691   1.986  10.289   5.284  0.4092  0.2001  0.1035
  281MOL0     N38692   1.950  10.246   5.401 -0.4514 -0.4480  0.9111
  281MOL0     C38693   1.131   9.707   6.205  0.1772  0.2626  0.2913
  281MOL0     C38694   0.999   9.687   6.245  0.3827 -0.1713 -0.1063
  281MOL0     C38695   0.684   9.437   6.430 -0.2187 -0.0017 -0.5460
  281MOL0     C38696   0.565   9.503   6.402 -0.5147  0.1897  0.6591
  281MOL0     C38697   0.443   9.456   6.450  0.0283  0.0543  1.0131
  281MOL0     C38698   0.433   9.332   6.502  0.1491 -0.1378  0.5845
  281MOL0     O38699   0.306   9.279   6.526 -0.4590  0.0702 -0.0257
  281MOL0     C38700   0.283   9.182   6.631 -0.1159  0.3544  0.2018
  281MOL0     C38701   0.127   9.185   6.661 -0.3371 -0.2597  0.0934
  281MOL0     C38702   0.071   9.322   6.685 -0.1301 -0.1498  0.1490
  281MOL0     C38703  -0.084   9.322   6.684 -1.3145 -0.5881 -0.1848
  281MOL0     C38704  -0.133   9.217   6.770  0.6144 -0.8807 -0.5237
  281MOL0     C38705  -0.172   9.132   6.846  0.5734 -0.1558 -0.4650
  281MOL0     C38706   0.545   9.265   6.533 -0.2131 -0.5136 -0.2811
  281MOL0     C38707   0.677   9.307   6.493 -0.7922 -0.0319 -0.0078
  281MOL0     C38708   0.786   9.203   6.523  0.2384  0.4210  0.0888
  281MOL0     H38709   1.004   9.738   6.570 -0.4720  2.9444  0.3234
  281MOL0     H38710   1.249   9.801   6.505  1.8590  1.2806 -3.0648
  281MOL0     H38711   1.343   9.835   6.078 -0.7896 -1.7179 -2.9957
  281MOL0     H38712   1.370   9.649   6.087  1.8346 -0.2586  0.5469
  281MOL0     H38713   1.590   9.860   6.130 -1.1597 -0.0903  1.4662
  281MOL0     H38714   1.611   9.694   6.129  2.0414  0.6689 -1.3046
  281MOL0     H38715   1.560   9.695   5.871  2.7409 -0.1513  0.3732
  281MOL0     H38716   1.492   9.858   5.903 -1.0716 -0.6300 -1.0221
  281MOL0     H38717   1.737   9.917   5.955 -1.4138  1.1754 -1.0355
  281MOL0     H38718   1.787   9.760   5.912  0.6240  1.4101  4.3464
  281MOL0     H38719   1.626   9.963   5.736 -0.8954 -0.6816 -0.8470
  281MOL0     H38720   1.683   9.804   5.677  0.6047  0.6304 -0.7610
  281MOL0     H38721   1.864  10.029   5.764  1.4716 -1.2350  1.7600
  281MOL0     H38722   1.915   9.869   5.715 -0.3803  0.0567  0.3306
  281MOL0     H38723   1.760  10.049   5.520 -1.4385 -0.2369  0.9736
  281MOL0     H38724   1.840   9.887   5.498  1.1444 -1.7147  2.1375
  281MOL0     H38725   2.009  10.103   5.614 -1.9390  2.0607 -1.1660
  281MOL0     H38726   2.050   9.952   5.526  0.4616 -0.0027  1.3700
  281MOL0     H38727   2.072   9.983   5.267  0.7551  0.9210 -1.3933
  281MOL0     H38728   2.075  10.092   5.026  2.7390 -1.6553  1.1928
  281MOL0     H38729   2.213  10.167   5.101  0.2119 -0.0325 -1.0740
  281MOL0     H38730   1.994  10.307   4.971 -0.6028 -2.0119 -0.3091
  281MOL0     H38731   2.121  10.391   5.046  0.9731  1.0122 -3.3805
  281MOL0     H38732   2.298  10.297   4.906  1.1237  0.2170 -1.7129
  281MOL0     H38733   2.186  10.182   4.820  2.3920  0.9133 -2.2507
  281MOL0     H38734   2.075  10.374   4.706 -1.6111  0.4013  2.2634
  281MOL0     H38735   2.174  10.487   4.796  0.9226  0.5966 -0.3752
  281MOL0     H38736   2.352  10.559   4.837  0.5139  0.5991  0.3813
  281MOL0     H38737   2.662  10.653   4.933  0.0975  0.3305 -1.0307
  281MOL0     H38738   2.488  10.696   4.953 -2.8739  1.9108 -3.3050
  281MOL0     H38739   2.595  10.787   4.845  0.7390  0.4559  0.5048
  281MOL0     H38740   3.045  10.563   4.573 -2.2417  0.7133  0.5217
  281MOL0     H38741   3.247  10.676   4.520 -0.6495  1.1259 -1.7251
  281MOL0     H38742   3.448  10.807   4.494 -0.3606  0.7091 -1.7295
  281MOL0     H38743   3.357  10.961   4.493 -0.6170  1.4294  1.2971
  281MOL0     H38744   3.537  11.044   4.648  0.9272 -0.0784 -0.1864
  281MOL0     H38745   3.634  10.905   4.610  0.4595 -1.0231  1.7632
  281MOL0     H38746   3.516  11.093   4.389  1.0474  1.5865 -0.0238
  281MOL0     H38747   3.631  10.957   4.350 -0.0624 -0.6863  0.2817
  281MOL0     H38748   3.703  11.212   4.504 -2.3670 -1.1791 -0.3144
  281MOL0     H38749   3.726  11.185   4.331 -0.9354  0.1014 -1.2525
  281MOL0     H38750   3.842  10.943   4.409  0.7901  0.2318  1.0513
  281MOL0     H38751   3.938  11.088   4.379  2.9990  0.0413  1.8416
  281MOL0     H38752   3.821  11.026   4.651 -0.8249  1.0319 -1.5162
  281MOL0     H38753   3.938  11.146   4.614  0.4015  0.8979 -1.7153
  281MOL0     H38754   4.108  10.974   4.545  1.6918 -4.3450 -0.2102
  281MOL0     H38755   3.987  10.849   4.538 -2.1714  0.6386 -0.8558
  281MOL0     H38756   3.986  10.844   4.795  2.5933 -2.0075  0.5740
  281MOL0     H38757   4.069  11.010   4.789  0.7844  0.4865 -0.9634
  281MOL0     H38758   3.217  10.899   4.894  0.7070  0.8418  0.5443
  281MOL0     H38759   2.992  10.790   4.937 -0.0141  1.0295  0.4130
  281MOL0     H38760   2.694  10.429   4.506 -0.2676  0.1351  0.4261
  281MOL0     H38761   2.484  10.296   4.522  1.8208  0.4560 -1.0863
  281MOL0     H38762   1.152   9.693   6.100  0.3217  0.2523  0.3224
  281MOL0     H38763   0.929   9.646   6.173 -0.8127  0.9550  0.3679
  281MOL0     H38764   0.578   9.600   6.355  1.9318  1.1444  3.0174
  281MOL0     H38765   0.355   9.518   6.433  0.6383  0.7500  0.3342
  281MOL0     H38766   0.305   9.081   6.596  0.5530  0.3902  0.4948
  281MOL0     H38767   0.348   9.196   6.718 -0.9156  1.3899  0.6606
  281MOL0     H38768   0.110   9.117   6.744 -0.5122 -0.1837  0.1214
  281MOL0     H38769   0.086   9.141   6.569  2.7008 -0.0566 -1.4946
  281MOL0     H38770   0.109   9.383   6.767 -0.1538  0.1577 -0.0650
  281MOL0     H38771   0.106   9.385   6.603 -1.2135 -1.6702 -1.5484
  281MOL0     H38772  -0.129   9.311   6.585 -3.9667  0.9720  0.7355
  281MOL0     H38773  -0.119   9.423   6.708 -1.7208  0.1280 -3.3699
  281MOL0     H38774  -0.214   9.054   6.906  0.8888  0.6645  0.8489
  281MOL0     H38775   0.532   9.167   6.577  0.4630 -0.0370  1.0244
  281MOL0     H38776   0.748   9.101   6.520 -0.4231  0.6761 -2.1630
  281MOL0     H38777   0.864   9.214   6.446 -1.7480  1.5096 -1.9131
  281MOL0     H38778   0.822   9.208   6.626  0.1081 -3.0958  0.4399
  282MOL0     O38779  11.247   0.554   0.278  0.2467 -0.5348  0.5522
  282MOL0     C38780  11.359   0.508   0.270  0.5285  0.4164  0.6853
  282MOL0     O38781  11.373   0.374   0.293  0.6558  0.6470 -0.6843
  282MOL0     C38782  11.275   0.303   0.364  0.0585 -0.1929 -0.2776
  282MOL0     C38783  11.249   0.319   0.500  0.5708 -0.5935 -0.2165
  282MOL0     C38784  11.154   0.225   0.567 -0.9642  0.2135 -0.3358
  282MOL0     C38785  11.092   0.125   0.494 -0.7224 -0.1474  0.0606
  282MOL0     O38786  10.987   0.046   0.538  0.0965  0.2806 -0.6476
  282MOL0     C38787  10.866   0.064   0.460 -0.0453  0.0824 -0.6868
  282MOL0     C38788  10.759   0.115   0.552 -0.2914 -1.0541 -0.0510
  282MOL0     C38789  10.781   0.268   0.606  0.0756 -0.0891  1.4295
  282MOL0     C38790  10.822   0.265   0.757  0.1505 -0.2931 -0.3639
  282MOL0     C38791  10.882   0.394   0.807 -0.3952 -0.3827 -0.0489
  282MOL0     C38792  10.863   0.403   0.963  0.2178 -0.5231 -0.7326
  282MOL0     C38793  10.898   0.544   1.013 -0.8744  0.2215  0.3800
  282MOL0     C38794  10.873   0.550   1.163 -0.4521 -0.1805  0.4558
  282MOL0     N38795  10.906   0.677   1.218 -0.7242 -1.0406 -0.1482
  282MOL0     C38796  11.022   0.692   1.283  0.2500  0.1335 -0.7273
  282MOL0     C38797  11.009   0.818   1.324 -0.7987  0.6419 -0.2385
  282MOL0     C38798  11.113   0.889   1.398  0.6128 -0.5111 -0.3507
  282MOL0     C38799  11.247   0.921   1.328  0.3736  0.0115 -0.7989
  282MOL0     C38800  11.228   1.008   1.207  0.7456  0.5290 -1.3799
  282MOL0     C38801  11.157   1.144   1.239 -0.1778 -0.1430  0.2364
  282MOL0     O38802  11.180   1.223   1.118  1.0506  0.7953  0.3355
  282MOL0     C38803  11.288   1.301   1.103  0.0556 -1.0326 -0.2360
  282MOL0     C38804  11.404   1.301   1.187  0.0813  0.3970 -0.2489
  282MOL0     C38805  11.513   1.389   1.164  1.0634  0.2202  0.3179
  282MOL0     C38806  11.614   1.410   1.274  0.5371 -0.2390  0.1541
  282MOL0     C38807  11.516   1.464   1.042  1.1577  0.0499  0.3285
  282MOL0     C38808  11.631   1.548   1.006 -0.0718  0.1037  0.5799
  282MOL0     O38809  11.756   1.486   0.993 -0.4438  0.3117 -0.3863
  282MOL0     C38810  11.859   1.555   0.950  0.6037 -0.5588  0.9761
  282MOL0     C38811  11.923   1.641   1.035 -0.1974  0.4699  0.1676
  282MOL0     C38812  12.027   1.719   0.980  0.4728  0.5282 -0.0860
  282MOL0     C38813  12.069   1.712   0.849 -0.0701 -0.9822  0.2919
  282MOL0     O38814  12.163   1.811   0.807 -0.0838  0.0783 -0.3950
  282MOL0     C38815  12.278   1.745   0.758 -0.3603 -0.1334  0.5024
  282MOL0     C38816  12.372   1.862   0.720 -0.5934 -0.1475 -0.7027
  282MOL0     C38817  12.407   1.956   0.839 -0.0908  0.0733 -0.5254
  282MOL0     C38818  12.485   2.075   0.784  0.1548  0.8329 -0.4827
  282MOL0     C38819  12.517   2.177   0.892  0.3202  0.2440  0.2788
  282MOL0     C38820  12.614   2.123   0.991  0.4947 -0.0798 -0.3405
  282MOL0     C38821  12.649   2.223   1.099  0.3812  0.3931 -0.2963
  282MOL0     C38822  12.757   2.326   1.048  0.0207 -0.0553 -0.3401
  282MOL0    Cl38823  12.924   2.265   1.057  0.0210 -0.1544 -0.2491
  282MOL0     C38824  12.012   1.615   0.764  0.2386 -0.0854 -0.0570
  282MOL0     C38825  11.904   1.545   0.814  0.2852  0.0298 -0.3027
  282MOL0     O38826  11.603   1.669   0.977  0.0363  0.4530 -0.1664
  282MOL0     C38827  11.407   1.448   0.954 -0.0871  0.0815 -0.0401
  282MOL0     C38828  11.290   1.369   0.987  0.6721  0.4531 -0.3032
  282MOL0     N38829  10.897   0.885   1.273  0.3260 -0.4490  0.2556
  282MOL0     N38830  10.840   0.796   1.206 -0.0984 -0.1967 -0.0567
  282MOL0     C38831  11.139   0.106   0.367  0.2511 -0.4929 -0.4607
  282MOL0     C38832  11.207   0.203   0.303 -0.0570  0.7148 -0.2709
  282MOL0     C38833  11.482   0.578   0.215 -0.2470  0.2900 -0.1074
  282MOL0     C38834  11.472   0.720   0.196  0.1154 -0.1161  0.5931
  282MOL0     C38835  11.584   0.795   0.146  0.2436  0.7171 -0.3195
  282MOL0     C38836  11.699   0.733   0.097  0.3815  0.2468 -0.2321
  282MOL0     O38837  11.800   0.807   0.035  0.3032 -0.4801 -0.5011
  282MOL0     C38838  11.924   0.740   0.029 -0.8673  0.5242 -0.5065
  282MOL0     C38839  12.040   0.833  -0.010 -0.2128 -0.7516 -0.4316
  282MOL0     C38840  12.167   0.760  -0.013 -0.4851  0.3296  0.3238
  282MOL0     C38841  12.264   0.836  -0.109  0.1592 -0.4894 -0.3674
  282MOL0     C38842  12.394   0.769  -0.117  0.6542 -0.3339  0.4919
  282MOL0     C38843  12.511   0.746  -0.135 -1.2933  0.3780 -0.2466
  282MOL0     C38844  11.703   0.594   0.125  0.3340 -0.7018  0.5512
  282MOL0     C38845  11.601   0.515   0.178 -0.1762 -0.1558 -0.3212
  282MOL0     C38846  11.626   0.367   0.173 -0.1403 -0.2357 -0.2668
  282MOL0     H38847  11.298   0.390   0.566  0.5652 -0.3884 -0.4302
  282MOL0     H38848  11.136   0.251   0.670  2.9260 -0.4937  0.6889
  282MOL0     H38849  10.843  -0.028   0.405  0.3844  1.0531 -2.5219
  282MOL0     H38850  10.885   0.135   0.380  0.1173  2.6525  1.5040
  282MOL0     H38851  10.661   0.125   0.503 -0.4978  3.4292  0.8111
  282MOL0     H38852  10.745   0.052   0.640 -2.5110 -0.2916  0.2139
  282MOL0     H38853  10.858   0.317   0.545 -1.1201  0.0904 -0.0002
  282MOL0     H38854  10.688   0.321   0.586 -1.5030 -3.3443 -0.8223
  282MOL0     H38855  10.728   0.243   0.809  0.8459 -0.1437  1.0099
  282MOL0     H38856  10.890   0.182   0.774 -0.9980 -1.0613  0.6604
  282MOL0     H38857  10.833   0.480   0.759 -0.0859 -0.2181 -0.0710
  282MOL0     H38858  10.978   0.393   0.756 -1.9525 -1.6025 -3.2462
  282MOL0     H38859  10.755   0.385   0.968  0.0726  0.3128 -0.6831
  282MOL0     H38860  10.919   0.323   1.011  0.1123 -0.0855  0.1368
  282MOL0     H38861  10.833   0.614   0.961 -0.1028  1.7449  1.3682
  282MOL0     H38862  11.006   0.558   1.002 -0.6487 -1.2076  0.5844
  282MOL0     H38863  10.764   0.545   1.168 -0.5743  0.1453 -1.3518
  282MOL0     H38864  10.921   0.466   1.214 -1.0491  0.8866  2.9548
  282MOL0     H38865  11.103   0.625   1.308  0.4843  1.2113  1.7325
  282MOL0     H38866  11.125   0.821   1.483 -0.8978  0.8422  1.0274
  282MOL0     H38867  11.072   0.978   1.446 -1.1351 -1.3637 -0.1838
  282MOL0     H38868  11.312   0.965   1.405 -2.1039  0.3207  1.2330
  282MOL0     H38869  11.290   0.827   1.293 -1.9414 -1.4543  0.0930
  282MOL0     H38870  11.331   1.017   1.174  1.3431 -0.5422  0.0856
  282MOL0     H38871  11.174   0.960   1.125  1.5703 -0.6650 -1.2514
  282MOL0     H38872  11.049   1.142   1.259  0.0584  2.1624  2.2117
  282MOL0     H38873  11.205   1.190   1.326  0.5146  1.7238 -1.0647
  282MOL0     H38874  11.406   1.236   1.274 -2.8395 -2.0814 -1.8547
  282MOL0     H38875  11.577   1.491   1.337 -2.2659 -2.4823  1.6637
  282MOL0     H38876  11.711   1.430   1.229  0.0410 -0.0096 -0.8380
  282MOL0     H38877  11.630   1.322   1.338  1.5451  0.3659  0.7607
  282MOL0     H38878  11.893   1.660   1.138 -2.9528 -0.9324 -0.2559
  282MOL0     H38879  12.061   1.793   1.051  2.3235  0.5380 -0.9283
  282MOL0     H38880  12.311   1.681   0.841  1.7497 -2.0805 -1.7002
  282MOL0     H38881  12.248   1.692   0.667  2.2550 -0.9616  0.0475
  282MOL0     H38882  12.454   1.806   0.675 -2.5378 -3.9800  0.0816
  282MOL0     H38883  12.336   1.912   0.630  0.0632  1.2652 -0.2091
  282MOL0     H38884  12.469   1.895   0.905 -0.9071  0.2165  0.3976
  282MOL0     H38885  12.321   1.987   0.900  0.8243 -0.3679  1.0485
  282MOL0     H38886  12.417   2.120   0.711 -0.0305  0.2147 -0.6961
  282MOL0     H38887  12.578   2.050   0.733  1.1177  0.4535  1.3663
  282MOL0     H38888  12.569   2.262   0.847  1.8922 -2.1033 -2.6832
  282MOL0     H38889  12.423   2.209   0.939 -0.0716  2.1074 -1.6328
  282MOL0     H38890  12.707   2.086   0.946  1.2002 -0.4060  1.3018
  282MOL0     H38891  12.582   2.035   1.047  1.3417 -1.5476 -2.0424
  282MOL0     H38892  12.681   2.169   1.189 -2.8642 -0.2318  0.5949
  282MOL0     H38893  12.560   2.278   1.128 -0.7076 -1.6634  0.4671
  282MOL0     H38894  12.755   2.426   1.093  1.8619 -0.0520 -0.1782
  282MOL0     H38895  12.737   2.349   0.943 -2.2307 -0.5595 -0.0664
  282MOL0     H38896  12.047   1.615   0.661  1.8205  0.8014  0.4472
  282MOL0     H38897  11.839   1.483   0.753  0.0033 -2.2712  2.1426
  282MOL0     H38898  11.399   1.511   0.866 -1.1682 -0.5214 -0.3854
  282MOL0     H38899  11.208   1.359   0.917 -1.5647 -0.0917  2.2396
  282MOL0     H38900  11.102   0.026   0.304 -1.1347  2.5512 -3.8838
  282MOL0     H38901  11.224   0.193   0.197 -0.5996 -1.4570 -0.2050
  282MOL0     H38902  11.378   0.770   0.216 -0.4249  0.6460 -3.1257
  282MOL0     H38903  11.556   0.899   0.128  0.9974  1.7007  3.3061
  282MOL0     H38904  11.938   0.705   0.132 -2.7861  0.1718 -0.3328
  282MOL0     H38905  11.917   0.653  -0.037 -0.1968 -0.1937  0.3229
  282MOL0     H38906  12.043   0.921   0.055 -3.1562 -1.0198  0.2196
  282MOL0     H38907  12.028   0.871  -0.112 -0.3947  0.2484 -0.0526
  282MOL0     H38908  12.220   0.749   0.083 -1.8353 -1.5923  0.8989
  282MOL0     H38909  12.140   0.665  -0.059 -0.2310  0.3738  0.0839
  282MOL0     H38910  12.260   0.942  -0.081  0.1732  0.0484 -2.2200
  282MOL0     H38911  12.227   0.836  -0.212 -1.0457 -2.0530  0.0274
  282MOL0     H38912  12.617   0.742  -0.145 -1.0854  0.4795  1.5632
  282MOL0     H38913  11.794   0.538   0.105  1.2647  0.8335  0.2950
  282MOL0     H38914  11.730   0.337   0.187 -0.2208  0.9775  4.8317
  282MOL0     H38915  11.582   0.306   0.253  0.7618 -1.1128 -0.4188
  282MOL0     H38916  11.585   0.319   0.083 -0.3291  1.9409 -1.4050
  283MOL0     O38917   3.708   7.596   1.211 -0.5081 -0.0512 -0.1218
  283MOL0     C38918   3.701   7.620   1.333  0.0609  0.6068 -0.0172
  283MOL0     O38919   3.810   7.627   1.414 -0.2572  0.3030  0.2374
  283MOL0     C38920   3.947   7.626   1.366  0.3538  0.6437  0.1574
  283MOL0     C38921   4.031   7.715   1.430 -0.5273 -0.7119 -0.5134
  283MOL0     C38922   4.173   7.710   1.395  1.1252 -0.4246 -0.0110
  283MOL0     C38923   4.228   7.621   1.306  0.3432  0.7254  1.0113
  283MOL0     O38924   4.358   7.615   1.282 -1.1157 -0.7868 -0.2555
  283MOL0     C38925   4.456   7.687   1.365 -0.3775  0.3326  0.5457
  283MOL0     C38926   4.599   7.664   1.305 -0.2221  0.1483  1.4922
  283MOL0     C38927   4.605   7.725   1.164  0.5472 -1.1092 -0.1366
  283MOL0     C38928   4.729   7.692   1.086  0.1482  0.3559  0.2662
  283MOL0     C38929   4.853   7.732   1.160 -0.2309  0.5071  0.0161
  283MOL0     C38930   4.978   7.734   1.064 -0.7181 -0.2302  0.5409
  283MOL0     C38931   5.111   7.779   1.142  0.3955  0.2889  0.2192
  283MOL0     C38932   5.153   7.684   1.249 -0.6956 -0.5363  0.2884
  283MOL0     N38933   5.201   7.560   1.193  0.5200  0.0504 -0.2252
  283MOL0     C38934   5.240   7.452   1.270 -0.3173  0.5984 -0.6558
  283MOL0     C38935   5.264   7.341   1.195  0.7388  0.0160  0.2572
  283MOL0     C38936   5.300   7.201   1.252  0.6754  0.9772  0.9873
  283MOL0     C38937   5.441   7.161   1.222 -0.5343  0.0498  0.0119
  283MOL0     C38938   5.539   7.232   1.317  0.4901  0.4381  0.5802
  283MOL0     C38939   5.683   7.249   1.255  0.0491 -0.5490 -0.1862
  283MOL0     O38940   5.764   7.312   1.354  0.8945  0.1240  0.0987
  283MOL0     C38941   5.886   7.349   1.328 -0.2153  0.5160  0.9270
  283MOL0     C38942   5.960   7.330   1.215 -1.2148  0.6693 -0.6194
  283MOL0     C38943   6.097   7.364   1.196  1.0253  1.1982 -0.8824
  283MOL0     C38944   6.164   7.327   1.064  0.1454 -0.8373 -0.3373
  283MOL0     C38945   6.160   7.438   1.294  0.2606 -0.4735  0.5096
  283MOL0     C38946   6.307   7.474   1.295  0.2064  0.1721 -0.7795
  283MOL0     O38947   6.389   7.392   1.236  0.4246  0.4599  1.0321
  283MOL0     C38948   6.518   7.433   1.245 -0.8890  0.1661 -0.2182
  283MOL0     C38949   6.566   7.513   1.144 -0.8363 -0.4054  1.5839
  283MOL0     C38950   6.693   7.572   1.150  0.4718 -0.0952  0.1038
  283MOL0     C38951   6.777   7.548   1.261 -0.0181 -0.3807  0.1990
  283MOL0     O38952   6.896   7.616   1.265 -0.2787 -0.0690  0.2425
  283MOL0     C38953   7.007   7.547   1.202 -0.0083  0.1479 -0.5508
  283MOL0     C38954   7.140   7.631   1.217  0.1032 -0.4168 -0.7785
  283MOL0     C38955   7.171   7.633   1.371 -0.0386  0.1691  0.4160
  283MOL0     C38956   7.305   7.703   1.396 -0.1528  0.0982  0.2349
  283MOL0     C38957   7.344   7.705   1.542 -0.2271  0.1693  0.0599
  283MOL0     C38958   7.476   7.769   1.568  0.0229  0.4374 -0.1080
  283MOL0     C38959   7.518   7.740   1.710 -0.4103 -0.5364 -0.3253
  283MOL0     C38960   7.669   7.787   1.738  0.2387 -0.3948 -0.3310
  283MOL0    Cl38961   7.672   7.955   1.803  0.0951 -0.5858  0.2815
  283MOL0     C38962   6.729   7.471   1.373 -0.2322  0.0079 -0.2524
  283MOL0     C38963   6.599   7.415   1.360 -0.5573  0.2362  0.1199
  283MOL0     O38964   6.343   7.557   1.383  0.0305 -0.0695  0.0157
  283MOL0     C38965   6.088   7.471   1.417  0.3869 -0.6118  0.0080
  283MOL0     C38966   5.953   7.430   1.424  0.5534  0.7835 -0.8554
  283MOL0     N38967   5.259   7.397   1.057  0.5101 -0.8551  0.0311
  283MOL0     N38968   5.218   7.521   1.063 -0.1922 -0.6908 -0.8141
  283MOL0     C38969   4.139   7.547   1.222 -0.7057 -0.0944  0.5255
  283MOL0     C38970   4.003   7.547   1.260 -0.2042  0.1738  0.0985
  283MOL0     C38971   3.573   7.599   1.407  0.2463 -0.4659 -0.7102
  283MOL0     C38972   3.573   7.616   1.548 -0.0728 -0.3421  0.1655
  283MOL0     C38973   3.473   7.602   1.638  0.0103 -0.5629 -0.0796
  283MOL0     C38974   3.346   7.570   1.589 -0.2802 -0.3564 -0.1403
  283MOL0     O38975   3.245   7.539   1.675  0.3905 -0.1156  0.9185
  283MOL0     C38976   3.111   7.533   1.628  0.6434  1.1931  0.4478
  283MOL0     C38977   3.068   7.383   1.648  0.1835  0.3203  0.1394
  283MOL0     C38978   2.929   7.363   1.589  0.0968  0.0551 -1.0931
  283MOL0     C38979   2.829   7.408   1.691 -0.6649  0.2218  0.3032
  283MOL0     C38980   2.696   7.397   1.638 -0.1595 -0.0032  0.9383
  283MOL0     C38981   2.590   7.396   1.582  0.8055  0.2486 -0.1455
  283MOL0     C38982   3.336   7.559   1.445 -0.2803  0.0055 -0.2718
  283MOL0     C38983   3.443   7.584   1.352  0.1824  0.5790 -0.2493
  283MOL0     C38984   3.421   7.563   1.203  0.4765 -0.1238 -0.2795
  283MOL0     H38985   3.979   7.785   1.494  0.9941  0.5450 -0.5844
  283MOL0     H38986   4.225   7.775   1.465 -0.6147  0.0323  0.9212
  283MOL0     H38987   4.459   7.655   1.470  2.7935  2.4884  1.2652
  283MOL0     H38988   4.437   7.795   1.364  3.0400  1.0529  0.7379
  283MOL0     H38989   4.675   7.710   1.368 -0.1818  1.1472  0.7404
  283MOL0     H38990   4.617   7.556   1.300  0.7348  0.3570 -0.1624
  283MOL0     H38991   4.526   7.681   1.103 -0.4353  2.5722 -1.8143
  283MOL0     H38992   4.578   7.831   1.164  0.8809 -1.0220 -0.4959
  283MOL0     H38993   4.739   7.592   1.043  3.8746  0.7488 -0.1652
  283MOL0     H38994   4.721   7.750   0.995  0.8501 -0.7202 -0.5134
  283MOL0     H38995   4.868   7.657   1.239 -2.1141 -0.0570 -0.0980
  283MOL0     H38996   4.840   7.827   1.212 -0.6082 -0.4187  1.7246
  283MOL0     H38997   4.993   7.635   1.020 -0.5691  0.3838 -0.8194
  283MOL0     H38998   4.963   7.802   0.980  0.5083 -0.7545 -0.1167
  283MOL0     H38999   5.116   7.879   1.185  4.2286  0.6811 -0.8100
  283MOL0     H39000   5.191   7.781   1.068 -0.0871 -0.6157 -0.3430
  283MOL0     H39001   5.227   7.727   1.316 -2.8604  0.4579  2.1570
  283MOL0     H39002   5.063   7.680   1.311 -0.3452  0.3118  0.8653
  283MOL0     H39003   5.238   7.448   1.379 -1.1165 -2.2247 -0.6947
  283MOL0     H39004   5.240   7.118   1.213 -0.8836  1.3278  2.4989
  283MOL0     H39005   5.276   7.205   1.359 -1.7077 -1.1601  0.6463
  283MOL0     H39006   5.456   7.053   1.233  2.1925  0.4488  0.8620
  283MOL0     H39007   5.461   7.178   1.116  2.7766 -0.3516  0.4613
  283MOL0     H39008   5.511   7.337   1.332  1.9901  0.9071  0.3306
  283MOL0     H39009   5.535   7.177   1.411  0.4338 -0.3943  0.1013
  283MOL0     H39010   5.717   7.151   1.221  0.4554  0.2809 -2.3997
  283MOL0     H39011   5.676   7.315   1.168 -0.3802  2.9408  2.2975
  283MOL0     H39012   5.920   7.269   1.133 -0.5651 -1.6957  0.7336
  283MOL0     H39013   6.229   7.241   1.074 -0.4818 -1.2355  0.4370
  283MOL0     H39014   6.217   7.417   1.032 -0.0471 -1.1938 -1.7591
  283MOL0     H39015   6.094   7.290   0.988 -0.6158 -0.6610  0.2555
  283MOL0     H39016   6.508   7.531   1.054  3.4218 -1.7743 -1.7935
  283MOL0     H39017   6.716   7.641   1.068  0.5489  0.2318  0.3989
  283MOL0     H39018   7.009   7.444   1.240 -0.7796  0.7161  1.1124
  283MOL0     H39019   6.995   7.541   1.093  0.4597  1.4956 -0.6922
  283MOL0     H39020   7.218   7.579   1.161 -0.3520  0.2901 -2.1114
  283MOL0     H39021   7.126   7.731   1.174 -0.4896  0.2482  0.8936
  283MOL0     H39022   7.165   7.529   1.407 -5.3195  0.6501  1.6714
  283MOL0     H39023   7.091   7.684   1.425  0.6465 -0.2566  1.8986
  283MOL0     H39024   7.300   7.806   1.359  0.2157  0.0993  0.1816
  283MOL0     H39025   7.385   7.656   1.338 -1.5099  2.2474 -3.7707
  283MOL0     H39026   7.267   7.758   1.599 -0.3345  0.0796 -0.0002
  283MOL0     H39027   7.338   7.605   1.585 -1.3285  0.7709  1.3729
  283MOL0     H39028   7.476   7.875   1.542 -3.8145  0.4624 -0.5081
  283MOL0     H39029   7.555   7.731   1.502  1.0112  0.8566  0.7907
  283MOL0     H39030   7.502   7.632   1.721 -1.2731 -0.2649  1.4914
  283MOL0     H39031   7.455   7.783   1.788  0.0061 -1.8475  0.7892
  283MOL0     H39032   7.727   7.778   1.645 -0.4795  2.7903 -1.2142
  283MOL0     H39033   7.723   7.730   1.814  0.6073 -0.2504 -0.4804
  283MOL0     H39034   6.795   7.429   1.448 -0.4185 -0.7010 -0.4787
  283MOL0     H39035   6.562   7.355   1.444 -1.8409  0.1317 -0.4988
  283MOL0     H39036   6.144   7.513   1.500  1.0500 -3.4276  1.1047
  283MOL0     H39037   5.902   7.458   1.516 -0.1965 -0.1690 -0.9707
  283MOL0     H39038   4.178   7.501   1.132  2.0546 -1.7178  2.3925
  283MOL0     H39039   3.930   7.482   1.212 -1.9571  1.1441  1.3363
  283MOL0     H39040   3.668   7.631   1.599 -0.5008 -0.1455  0.9159
  283MOL0     H39041   3.486   7.596   1.746 -2.4838  2.6355  0.5682
  283MOL0     H39042   3.056   7.596   1.699 -3.0133 -2.7368  1.5153
  283MOL0     H39043   3.096   7.580   1.530 -2.2791 -0.2478  0.0723
  283MOL0     H39044   3.076   7.353   1.753  0.4262  3.7341  1.2078
  283MOL0     H39045   3.131   7.321   1.583 -2.2285 -1.6653 -0.4298
  283MOL0     H39046   2.921   7.429   1.503  0.5538  2.3753  0.5577
  283MOL0     H39047   2.898   7.260   1.569 -1.8048  0.4986 -0.6041
  283MOL0     H39048   2.854   7.511   1.722  0.2648 -0.2059  1.0596
  283MOL0     H39049   2.842   7.347   1.781  1.7186 -0.0672 -0.1655
  283MOL0     H39050   2.487   7.378   1.563  0.4360  0.7252  1.2144
  283MOL0     H39051   3.239   7.556   1.398  0.1607  3.1582 -1.6391
  283MOL0     H39052   3.495   7.489   1.169  0.0593  0.2047 -2.0026
  283MOL0     H39053   3.319   7.526   1.188  0.4097 -0.1476  0.2230
  283MOL0     H39054   3.438   7.650   1.139 -2.5591  0.5097 -0.3486
  284MOL0     O39055   9.219   6.462   1.974  0.9678 -0.0234 -0.2133
  284MOL0     C39056   9.096   6.477   1.956 -0.6555 -0.1001  0.8668
  284MOL0     O39057   9.033   6.509   1.833  0.3600  0.4835 -0.2769
  284MOL0     C39058   9.116   6.554   1.733  0.4688 -0.8265 -0.3516
  284MOL0     C39059   9.124   6.485   1.616 -0.9094  0.0935 -0.2262
  284MOL0     C39060   9.190   6.526   1.499  0.2207  1.1184  0.2668
  284MOL0     C39061   9.247   6.650   1.498 -0.6845 -0.0005  0.0324
  284MOL0     O39062   9.334   6.701   1.404  0.3975  0.3173  0.2749
  284MOL0     C39063   9.280   6.712   1.273 -0.3877 -0.6890 -0.1183
  284MOL0     C39064   9.383   6.753   1.179 -0.3062  0.3331 -0.3875
  284MOL0     C39065   9.349   6.758   1.033 -0.2581  0.2899  0.1199
  284MOL0     C39066   9.479   6.799   0.948  0.3126  0.2442 -1.0240
  284MOL0     C39067   9.415   6.826   0.810 -0.6482  0.2610  0.5799
  284MOL0     C39068   9.524   6.889   0.719  0.0613 -0.5045 -0.1975
  284MOL0     C39069   9.475   6.938   0.579 -0.3752 -0.0600 -0.6195
  284MOL0     C39070   9.445   6.826   0.476 -0.2980  0.3943 -0.3291
  284MOL0     N39071   9.355   6.858   0.371 -0.1656  0.2193 -0.9107
  284MOL0     C39072   9.355   6.971   0.295  0.8361 -0.7090  0.7333
  284MOL0     C39073   9.246   6.947   0.211  0.0603 -0.4791  0.4666
  284MOL0     C39074   9.183   7.036   0.102  0.2322  0.3585  0.5756
  284MOL0     C39075   9.259   7.046  -0.032 -0.0993  0.0124 -0.5410
  284MOL0     C39076   9.285   6.918  -0.105  0.0733  0.1569  0.2740
  284MOL0     C39077   9.401   6.936  -0.207  0.0103 -0.1938  0.2791
  284MOL0     O39078   9.358   7.033  -0.301  0.1269 -0.2567 -0.4080
  284MOL0     C39079   9.455   7.119  -0.338  0.8424 -0.4826 -0.5067
  284MOL0     C39080   9.559   7.077  -0.419 -0.2387 -0.2569  0.6929
  284MOL0     C39081   9.656   7.168  -0.463  0.4179  0.8554  0.6957
  284MOL0     C39082   9.764   7.099  -0.538 -0.1711  0.0160  0.5172
  284MOL0     C39083   9.643   7.306  -0.440  0.8275  0.4687 -0.1090
  284MOL0     C39084   9.729   7.406  -0.499 -0.4998  1.2025  0.3007
  284MOL0     O39085   9.812   7.370  -0.607  0.5902 -0.6186  0.3999
  284MOL0     C39086   9.908   7.458  -0.647  0.1295  0.2145 -0.0955
  284MOL0     C39087  10.040   7.422  -0.617  0.3511 -0.0798  0.0591
  284MOL0     C39088  10.150   7.498  -0.661  0.4150  0.5490  0.3455
  284MOL0     C39089  10.133   7.596  -0.756  0.3629  0.5365 -0.8801
  284MOL0     O39090  10.240   7.674  -0.794  0.4713 -0.0079 -0.4151
  284MOL0     C39091  10.224   7.777  -0.897 -0.0702 -0.0228  0.0025
  284MOL0     C39092  10.357   7.849  -0.918 -0.0860  0.5989  0.3405
  284MOL0     C39093  10.467   7.760  -0.958  0.0884  0.0551  0.1523
  284MOL0     C39094  10.569   7.849  -1.032 -0.2870 -0.8612  0.9039
  284MOL0     C39095  10.689   7.766  -1.071 -0.5781 -0.9200  0.6577
  284MOL0     C39096  10.798   7.857  -1.126  0.0228  0.0921 -0.3621
  284MOL0     C39097  10.901   7.776  -1.208  0.9176 -0.5031 -0.4007
  284MOL0     C39098  11.033   7.841  -1.245 -0.1922  0.2999  0.1653
  284MOL0    Cl39099  11.003   8.006  -1.330 -0.2274 -0.1628 -0.7559
  284MOL0     C39100   9.997   7.622  -0.796 -0.1423 -0.1209 -0.1520
  284MOL0     C39101   9.879   7.562  -0.738 -0.1676 -0.1287 -0.1480
  284MOL0     O39102   9.731   7.518  -0.445 -0.2203 -1.0714 -0.2989
  284MOL0     C39103   9.530   7.347  -0.380 -0.0621  0.0354 -0.4372
  284MOL0     C39104   9.433   7.255  -0.334  0.2964 -0.4237  0.2399
  284MOL0     N39105   9.200   6.819   0.219  0.7249 -0.2686 -0.0334
  284MOL0     N39106   9.263   6.774   0.327  0.8336  0.0795  0.6098
  284MOL0     C39107   9.233   6.732   1.611 -0.9012  0.0603  0.1373
  284MOL0     C39108   9.162   6.686   1.732  0.0187  0.3382 -0.4218
  284MOL0     C39109   9.003   6.431   2.068  0.4722  0.2879 -0.0747
  284MOL0     C39110   9.063   6.412   2.190  0.2199 -0.3250  0.9712
  284MOL0     C39111   8.984   6.384   2.307 -0.0195 -0.2667  0.3315
  284MOL0     C39112   8.849   6.371   2.298  0.1547 -0.0979  0.7676
  284MOL0     O39113   8.762   6.323   2.396  0.2990 -1.0024 -0.2499
  284MOL0     C39114   8.819   6.290   2.529  0.5927 -0.6220  0.0646
  284MOL0     C39115   8.706   6.239   2.608 -0.5127  0.4164 -0.2001
  284MOL0     C39116   8.600   6.340   2.636  0.1878 -0.2874 -1.1060
  284MOL0     C39117   8.504   6.286   2.739  0.9102 -0.5318 -0.3648
  284MOL0     C39118   8.382   6.366   2.739 -0.4941  0.1323 -0.3009
  284MOL0     C39119   8.272   6.420   2.729 -0.0392  0.3357  0.6460
  284MOL0     C39120   8.791   6.388   2.169  0.9950 -0.3000 -0.0054
  284MOL0     C39121   8.865   6.414   2.056  0.2887 -0.5692  0.1120
  284MOL0     C39122   8.784   6.439   1.929 -0.4885 -0.5994 -0.1898
  284MOL0     H39123   9.061   6.397   1.606 -3.0889  1.5812 -0.2798
  284MOL0     H39124   9.189   6.458   1.415 -5.2392  1.2403 -0.1366
  284MOL0     H39125   9.213   6.798   1.280 -1.3802 -1.5188  0.9041
  284MOL0     H39126   9.222   6.623   1.247  1.0746 -1.1962 -1.9117
  284MOL0     H39127   9.416   6.854   1.207 -1.1649  0.7037 -0.6951
  284MOL0     H39128   9.461   6.678   1.197 -0.3924  0.5997  1.1972
  284MOL0     H39129   9.305   6.665   0.995  1.0246 -0.8974  1.3793
  284MOL0     H39130   9.275   6.838   1.026  2.2251  2.7264  0.1131
  284MOL0     H39131   9.532   6.885   0.991 -2.3800 -0.1530  3.8447
  284MOL0     H39132   9.555   6.721   0.938  2.9318  2.5259 -0.2936
  284MOL0     H39133   9.328   6.891   0.817 -0.6505  0.3177  0.0396
  284MOL0     H39134   9.365   6.740   0.765 -2.5684  0.6721  1.8290
  284MOL0     H39135   9.578   6.970   0.769  0.8173 -1.7750  1.1548
  284MOL0     H39136   9.601   6.811   0.709 -0.5787 -0.8192 -4.1007
  284MOL0     H39137   9.552   7.010   0.550 -0.1435  0.9399  2.1861
  284MOL0     H39138   9.381   6.992   0.589  0.8752  2.3447 -1.0113
  284MOL0     H39139   9.536   6.785   0.432 -1.1336 -1.9419 -0.0209
  284MOL0     H39140   9.403   6.735   0.520 -0.3372 -0.1630 -1.5119
  284MOL0     H39141   9.405   7.068   0.301 -0.9687  0.4616 -1.7254
  284MOL0     H39142   9.183   7.136   0.145  0.8377  0.9312 -0.7041
  284MOL0     H39143   9.079   7.016   0.074  0.3703 -1.5108  1.2407
  284MOL0     H39144   9.202   7.110  -0.099 -3.2837 -0.7210  1.2624
  284MOL0     H39145   9.353   7.094  -0.001 -1.6718  2.1691  1.1717
  284MOL0     H39146   9.307   6.833  -0.040  4.0522  2.1124  1.8252
  284MOL0     H39147   9.200   6.885  -0.165  2.2268 -1.3532 -2.1268
  284MOL0     H39148   9.490   6.966  -0.150  1.1392  1.5178 -2.2321
  284MOL0     H39149   9.428   6.850  -0.269  0.0127  0.8728 -1.2231
  284MOL0     H39150   9.560   6.972  -0.447 -0.2070 -0.4964  1.5827
  284MOL0     H39151   9.759   6.990  -0.533 -0.1473  0.0541  1.5366
  284MOL0     H39152   9.854   7.130  -0.484 -0.1600 -0.2378  0.6464
  284MOL0     H39153   9.775   7.110  -0.646  4.0062  0.2944  0.8321
  284MOL0     H39154  10.045   7.333  -0.555 -0.6609  0.3447  0.7877
  284MOL0     H39155  10.250   7.462  -0.642  0.2295 -0.7572 -0.9547
  284MOL0     H39156  10.187   7.736  -0.991 -4.9705 -1.4865  2.2183
  284MOL0     H39157  10.152   7.857  -0.874 -0.0925 -0.2402  0.6921
  284MOL0     H39158  10.345   7.931  -0.988  0.6955  1.3907  1.1120
  284MOL0     H39159  10.393   7.898  -0.827 -1.0112  1.9694 -0.0037
  284MOL0     H39160  10.426   7.681  -1.022 -1.2202  0.7561  0.1025
  284MOL0     H39161  10.511   7.704  -0.874 -0.4440 -1.4609 -0.5448
  284MOL0     H39162  10.597   7.933  -0.967 -0.1535 -0.5712  0.4764
  284MOL0     H39163  10.533   7.892  -1.126  4.6911 -2.7391 -2.2546
  284MOL0     H39164  10.737   7.723  -0.982 -2.5542 -0.9760  1.7569
  284MOL0     H39165  10.655   7.678  -1.126 -0.3254 -0.8652  0.4125
  284MOL0     H39166  10.838   7.917  -1.044 -2.9419  1.6165  0.0842
  284MOL0     H39167  10.749   7.928  -1.193  0.3851  2.0153  1.2981
  284MOL0     H39168  10.859   7.746  -1.305  0.8496  0.8592 -0.8172
  284MOL0     H39169  10.915   7.679  -1.159  3.1511 -0.4720 -0.8504
  284MOL0     H39170  11.074   7.769  -1.316 -2.3790  0.3934 -1.2936
  284MOL0     H39171  11.092   7.865  -1.156  1.1636 -1.5893 -0.1655
  284MOL0     H39172   9.977   7.700  -0.868  1.2039 -0.7396 -1.2608
  284MOL0     H39173   9.777   7.590  -0.761  0.8433  3.1544 -1.0693
  284MOL0     H39174   9.502   7.452  -0.374 -0.0018 -0.0198  1.6877
  284MOL0     H39175   9.344   7.284  -0.279  0.8359  1.6981  0.0690
  284MOL0     H39176   9.282   6.828   1.599  1.6502 -1.3428 -1.6342
  284MOL0     H39177   9.148   6.750   1.819 -0.9695 -0.9881  0.4359
  284MOL0     H39178   9.167   6.434   2.207  0.0057  0.1720  1.6765
  284MOL0     H39179   9.034   6.368   2.402  1.8246 -1.9513 -0.8417
  284MOL0     H39180   8.898   6.216   2.519  1.4499  0.6228 -3.7337
  284MOL0     H39181   8.847   6.381   2.584 -1.9976 -0.8741  2.0329
  284MOL0     H39182   8.747   6.198   2.701  1.7751 -1.3510 -1.8551
  284MOL0     H39183   8.663   6.152   2.558 -2.2614  1.9904 -1.6229
  284MOL0     H39184   8.643   6.434   2.671  1.0334 -1.8182  2.2926
  284MOL0     H39185   8.547   6.364   2.543  1.1181 -0.9971 -1.8410
  284MOL0     H39186   8.555   6.290   2.836  0.7834  0.2847 -0.3261
  284MOL0     H39187   8.489   6.178   2.729  3.8280 -1.3028  2.0608
  284MOL0     H39188   8.176   6.467   2.732  1.1893  3.0005  1.0033
  284MOL0     H39189   8.686   6.362   2.166  1.4725 -2.4749  0.4395
  284MOL0     H39190   8.812   6.355   1.864 -1.1145 -2.4041  1.7839
  284MOL0     H39191   8.677   6.438   1.952 -0.2783 -1.2748  0.7983
  284MOL0     H39192   8.812   6.535   1.884  0.2658  0.1454  1.7873
  285MOL0     O39193   6.440   4.272   7.778 -0.5614 -0.0744 -1.4100
  285MOL0     C39194   6.471   4.284   7.905  0.3877 -0.9278 -0.7792
  285MOL0     O39195   6.504   4.190   7.996  0.0428 -0.2577 -0.5256
  285MOL0     C39196   6.491   4.059   7.950  0.4258 -0.1980  0.6271
  285MOL0     C39197   6.578   4.011   7.849  1.0884 -0.3268 -0.5032
  285MOL0     C39198   6.581   3.873   7.820 -0.8011  0.6282 -0.0379
  285MOL0     C39199   6.493   3.793   7.875  1.0052  0.3140 -0.2727
  285MOL0     O39200   6.485   3.662   7.832 -0.2294  0.1372  0.1632
  285MOL0     C39201   6.363   3.599   7.846 -0.1908 -0.0533 -0.3161
  285MOL0     C39202   6.355   3.477   7.752  0.2949 -0.5950  0.0642
  285MOL0     C39203   6.314   3.521   7.616  0.9273 -0.6839  0.7051
  285MOL0     C39204   6.432   3.558   7.525 -0.4122 -0.3636 -1.2632
  285MOL0     C39205   6.375   3.643   7.404  0.0055 -0.5486 -0.3642
  285MOL0     C39206   6.476   3.661   7.288 -0.2358  0.4447  0.5722
  285MOL0     C39207   6.404   3.696   7.158  0.4260 -0.6057  0.3375
  285MOL0     C39208   6.498   3.682   7.045  0.3254 -0.0203 -1.1011
  285MOL0     N39209   6.613   3.765   7.047 -0.5860  0.3959  0.0379
  285MOL0     C39210   6.734   3.715   7.090 -0.4281 -0.4912  0.4091
  285MOL0     C39211   6.823   3.806   7.055 -0.0867 -0.3046  0.1448
  285MOL0     C39212   6.965   3.795   7.087 -0.1374  0.6321 -0.1265
  285MOL0     C39213   7.051   3.828   6.957 -0.5550 -0.5122 -0.3767
  285MOL0     C39214   7.199   3.822   6.992 -0.0448 -0.1939 -0.0291
  285MOL0     C39215   7.249   3.676   7.032  0.2401 -0.8112  0.0302
  285MOL0     O39216   7.308   3.609   6.920 -0.4175 -0.7470 -0.3534
  285MOL0     C39217   7.440   3.627   6.891 -0.1889  0.8237  0.5705
  285MOL0     C39218   7.490   3.552   6.787 -0.3225 -0.7427 -0.0609
  285MOL0     C39219   7.631   3.550   6.759  0.9385 -0.1445 -1.4054
  285MOL0     C39220   7.672   3.452   6.660 -0.1198  0.2665 -0.1744
  285MOL0     C39221   7.717   3.645   6.821  0.8129 -0.7464 -1.0239
  285MOL0     C39222   7.861   3.673   6.781 -0.1041  0.2102  0.2510
  285MOL0     O39223   7.942   3.747   6.868  0.3416 -0.2768 -0.2322
  285MOL0     C39224   8.059   3.797   6.824  0.5030 -0.0137 -0.8982
  285MOL0     C39225   8.175   3.761   6.882 -0.0253 -0.2634 -0.3259
  285MOL0     C39226   8.295   3.836   6.855  0.9608 -0.6777 -0.6579
  285MOL0     C39227   8.292   3.941   6.765 -0.6195  0.3149  0.5660
  285MOL0     O39228   8.411   3.994   6.741  0.0595  0.0452 -0.5036
  285MOL0     C39229   8.414   4.136   6.744 -0.2173 -0.0711 -0.2185
  285MOL0     C39230   8.563   4.178   6.738  0.1315 -0.1108  0.8998
  285MOL0     C39231   8.620   4.160   6.593 -0.3021 -0.2711 -0.4263
  285MOL0     C39232   8.773   4.177   6.590 -0.1740  0.6613 -0.3421
  285MOL0     C39233   8.839   4.044   6.637  0.1240 -0.2576 -0.4182
  285MOL0     C39234   8.994   4.052   6.652 -0.2905 -0.7892  0.0545
  285MOL0     C39235   9.050   3.941   6.745 -0.1423  0.3348  0.4873
  285MOL0     C39236   9.200   3.957   6.749 -0.1666  0.5879 -0.6196
  285MOL0    Cl39237   9.264   4.092   6.850  0.1971 -0.0824 -0.0791
  285MOL0     C39238   8.173   3.988   6.706 -0.5905  0.3814 -1.0326
  285MOL0     C39239   8.058   3.911   6.737 -0.3329  0.5909 -0.4563
  285MOL0     O39240   7.893   3.627   6.669 -0.1318  0.6259  0.0164
  285MOL0     C39241   7.663   3.717   6.925  0.3499 -0.0928 -0.9459
  285MOL0     C39242   7.532   3.702   6.965  0.9594 -0.2057 -0.3091
  285MOL0     N39243   6.750   3.906   6.985 -0.0904  0.3241  0.4037
  285MOL0     N39244   6.632   3.874   6.974 -0.5112  0.0265 -0.4102
  285MOL0     C39245   6.402   3.841   7.979 -1.1047 -0.1068 -0.3297
  285MOL0     C39246   6.413   3.969   8.021  0.3939 -0.3345 -0.6573
  285MOL0     C39247   6.468   4.424   7.966  0.5560  0.2548 -0.2157
  285MOL0     C39248   6.514   4.439   8.098 -0.0519 -0.0431 -0.4050
  285MOL0     C39249   6.512   4.565   8.165  0.4355 -0.8298 -0.0775
  285MOL0     C39250   6.453   4.676   8.105 -0.2441 -0.9759  0.5174
  285MOL0     O39251   6.437   4.792   8.176 -0.3580  0.2484 -0.0949
  285MOL0     C39252   6.392   4.919   8.122  0.0165 -0.3715  0.4846
  285MOL0     C39253   6.236   4.931   8.142 -0.5863  1.2345 -1.1566
  285MOL0     C39254   6.203   4.931   8.293  0.3855  0.5916  0.8980
  285MOL0     C39255   6.050   4.906   8.312 -0.5514 -0.0160  0.0151
  285MOL0     C39256   6.000   4.930   8.449  0.1032  0.2330  1.4387
  285MOL0     C39257   5.978   4.941   8.565 -1.0514  0.6178  1.0767
  285MOL0     C39258   6.402   4.656   7.972 -0.0704  0.0924 -0.1615
  285MOL0     C39259   6.408   4.532   7.905  0.0212  0.6998  0.3234
  285MOL0     C39260   6.350   4.540   7.760 -0.1450  0.0141 -0.4087
  285MOL0     H39261   6.651   4.086   7.819  2.4633 -1.3389  0.2068
  285MOL0     H39262   6.649   3.833   7.746 -1.2006  0.3727 -0.2674
  285MOL0     H39263   6.281   3.670   7.831 -0.0596  0.8809  2.6462
  285MOL0     H39264   6.348   3.564   7.949 -2.4332  0.4138 -0.4274
  285MOL0     H39265   6.450   3.424   7.743  1.7640  1.8364  0.3775
  285MOL0     H39266   6.276   3.417   7.797 -1.6750  1.7835 -0.0183
  285MOL0     H39267   6.239   3.459   7.567 -1.0464  2.2149 -0.2091
  285MOL0     H39268   6.261   3.616   7.622  1.9413  0.0193 -0.7492
  285MOL0     H39269   6.502   3.612   7.590 -3.2443  0.4025  1.3895
  285MOL0     H39270   6.480   3.466   7.490 -2.1066 -1.6981 -0.2622
  285MOL0     H39271   6.341   3.739   7.444  1.9128 -0.8789  2.2882
  285MOL0     H39272   6.291   3.594   7.353  2.0009 -3.0456 -1.4928
  285MOL0     H39273   6.543   3.745   7.309 -3.1954  3.0978  0.2590
  285MOL0     H39274   6.536   3.571   7.273  0.5409  0.8948  0.9337
  285MOL0     H39275   6.373   3.801   7.153  1.3221 -0.2845  1.3302
  285MOL0     H39276   6.321   3.627   7.136  0.6088 -0.7409  0.0605
  285MOL0     H39277   6.533   3.578   7.037  2.1056  0.6395 -2.9864
  285MOL0     H39278   6.439   3.707   6.957 -4.2609 -0.9857  1.3749
  285MOL0     H39279   6.761   3.621   7.138 -0.1949 -0.2785  0.6931
  285MOL0     H39280   6.978   3.691   7.120  0.7638 -1.2187 -5.3591
  285MOL0     H39281   6.992   3.862   7.169  2.9661 -1.7077  0.9934
  285MOL0     H39282   7.032   3.760   6.874 -0.8993 -1.8019  0.7264
  285MOL0     H39283   7.021   3.922   6.910 -2.1780 -0.3810  0.8327
  285MOL0     H39284   7.271   3.860   6.919  0.5796 -1.0313  0.1357
  285MOL0     H39285   7.204   3.881   7.085  0.9440 -0.9062  0.3819
  285MOL0     H39286   7.322   3.678   7.113 -0.4562  0.8296  0.6570
  285MOL0     H39287   7.171   3.610   7.070  1.0764 -1.3499  0.8562
  285MOL0     H39288   7.413   3.502   6.729 -0.7906  2.2130 -2.2203
  285MOL0     H39289   7.588   3.390   6.629 -2.1412  1.6432  2.1740
  285MOL0     H39290   7.750   3.383   6.693  0.8475  1.6615  0.5929
  285MOL0     H39291   7.700   3.509   6.570  1.0582  0.8362  0.5168
  285MOL0     H39292   8.182   3.680   6.953 -0.6640  1.0713  1.3164
  285MOL0     H39293   8.389   3.800   6.896  0.4417 -0.7548  0.5067
  285MOL0     H39294   8.358   4.174   6.658 -0.6092 -0.8225 -0.3055
  285MOL0     H39295   8.370   4.168   6.838  0.4195  1.3888 -0.4011
  285MOL0     H39296   8.566   4.286   6.757  2.1240 -0.5136  3.3875
  285MOL0     H39297   8.621   4.125   6.814  2.6392 -0.3562 -1.0774
  285MOL0     H39298   8.581   4.234   6.523 -0.8498  0.4003  0.5536
  285MOL0     H39299   8.597   4.062   6.548  0.8699 -0.0154 -1.6162
  285MOL0     H39300   8.800   4.255   6.661  0.2692  0.7633 -0.6218
  285MOL0     H39301   8.815   4.199   6.492  2.1480 -2.1039 -0.0935
  285MOL0     H39302   8.787   4.033   6.733 -0.1810  0.3064 -0.5170
  285MOL0     H39303   8.803   3.961   6.575 -0.0556  0.4612 -1.2925
  285MOL0     H39304   9.023   4.142   6.707 -3.4872  0.0960  0.5207
  285MOL0     H39305   9.043   4.065   6.555  1.8548  0.1144  1.1992
  285MOL0     H39306   9.023   3.844   6.702 -0.0506 -0.5935  2.4036
  285MOL0     H39307   9.010   3.949   6.846 -0.6694 -1.3841  0.4476
  285MOL0     H39308   9.247   3.961   6.650 -1.2443 -2.1534 -1.3122
  285MOL0     H39309   9.236   3.868   6.801 -2.2231 -1.5512 -2.6735
  285MOL0     H39310   8.177   4.066   6.630  0.6397 -1.4781 -3.0173
  285MOL0     H39311   7.964   3.936   6.688 -0.0953  0.5970 -0.9162
  285MOL0     H39312   7.717   3.796   6.977 -1.1796 -0.0842  0.7161
  285MOL0     H39313   7.510   3.764   7.051  0.9158  1.9277 -1.7767
  285MOL0     H39314   6.333   3.777   8.034  1.6897 -2.1946  0.9907
  285MOL0     H39315   6.335   3.999   8.091 -0.5282 -1.5563 -1.1305
  285MOL0     H39316   6.554   4.353   8.152 -2.0387 -2.3657 -2.4250
  285MOL0     H39317   6.543   4.575   8.268  1.0615  1.2509 -0.4132
  285MOL0     H39318   6.441   5.001   8.176  0.0187  0.8738 -1.3070
  285MOL0     H39319   6.407   4.939   8.015 -2.8132 -5.5151 -1.2356
  285MOL0     H39320   6.190   4.841   8.101  0.4950  0.3179 -0.4181
  285MOL0     H39321   6.194   5.016   8.088 -1.7158 -0.0459 -2.3641
  285MOL0     H39322   6.268   4.859   8.343  1.1187  0.0996 -0.6999
  285MOL0     H39323   6.231   5.027   8.338  3.6646 -0.0391  0.4146
  285MOL0     H39324   6.029   4.799   8.302  2.5232 -0.7616  0.4417
  285MOL0     H39325   5.984   4.957   8.241  1.6341 -0.3511 -2.3816
  285MOL0     H39326   5.960   4.952   8.670 -0.4737 -2.0857  1.5335
  285MOL0     H39327   6.357   4.738   7.918  0.7129  1.5361  1.2908
  285MOL0     H39328   6.284   4.627   7.757 -0.1896 -0.0259 -0.6378
  285MOL0     H39329   6.418   4.556   7.675  0.9349 -1.4778  0.1349
  285MOL0     H39330   6.293   4.448   7.741 -0.1213  0.0258 -0.5364
  286MOL0     O39331  11.291   5.766   1.147 -0.0831  0.3316  0.3815
  286MOL0     C39332  11.217   5.862   1.169  0.3212  0.6493  0.2321
  286MOL0     O39333  11.257   5.992   1.194 -0.1463 -0.4527  0.3681
  286MOL0     C39334  11.393   5.999   1.208 -0.3210 -0.9198  0.2186
  286MOL0     C39335  11.451   5.994   1.333 -0.8133 -0.4923 -0.7472
  286MOL0     C39336  11.587   6.009   1.351 -0.6564  0.0180 -0.5035
  286MOL0     C39337  11.670   6.032   1.245  0.6544  0.0924  0.3848
  286MOL0     O39338  11.809   6.045   1.273 -0.4630 -0.3256  0.2088
  286MOL0     C39339  11.872   6.144   1.198 -0.3403  0.1917 -0.0220
  286MOL0     C39340  12.029   6.121   1.202 -0.3861 -0.7484 -1.1331
  286MOL0     C39341  12.088   6.006   1.107  0.5455  0.4290 -0.2116
  286MOL0     C39342  12.048   5.865   1.154 -0.6009  1.0311 -0.0697
  286MOL0     C39343  12.076   5.761   1.047  0.4343  0.1693  0.2768
  286MOL0     C39344  12.225   5.717   1.045 -0.0073  0.6544  0.3416
  286MOL0     C39345  12.267   5.654   1.180  0.9779  0.4069 -0.0249
  286MOL0     C39346  12.383   5.561   1.173 -0.2859  0.0941  0.7291
  286MOL0     N39347  12.421   5.502   1.303  1.1510  0.2119  0.1028
  286MOL0     C39348  12.534   5.435   1.330 -0.7682 -0.3083  0.5854
  286MOL0     C39349  12.560   5.457   1.463  0.1447 -0.1512  0.2820
  286MOL0     C39350  12.666   5.385   1.539 -0.3034 -0.5319 -0.1911
  286MOL0     C39351  12.751   5.487   1.615  0.1189 -0.0510  0.0009
  286MOL0     C39352  12.898   5.448   1.644  0.2801 -0.6061  0.0176
  286MOL0     C39353  12.975   5.439   1.513 -0.1152 -0.6115 -0.2223
  286MOL0     O39354  12.978   5.569   1.455 -0.1259 -0.2535  0.5933
  286MOL0     C39355  13.091   5.612   1.397 -0.3562 -0.7893 -0.7372
  286MOL0     C39356  13.092   5.750   1.387 -0.8710  0.7483  0.0545
  286MOL0     C39357  13.201   5.821   1.329 -0.1320  0.1292  0.3973
  286MOL0     C39358  13.176   5.968   1.314 -0.4174 -1.2291  0.8239
  286MOL0     C39359  13.303   5.750   1.263  0.1639 -0.9284  0.2901
  286MOL0     C39360  13.406   5.815   1.184 -0.4181  0.0154 -0.9712
  286MOL0     O39361  13.447   5.752   1.073 -0.3048 -0.2033  0.2157
  286MOL0     C39362  13.560   5.787   1.015 -0.9502  0.2212 -0.0554
  286MOL0     C39363  13.685   5.772   1.083 -0.1304  0.1840 -0.2255
  286MOL0     C39364  13.803   5.787   1.011 -0.7340 -0.3393 -0.2776
  286MOL0     C39365  13.806   5.835   0.886 -0.4346  0.0843  0.2176
  286MOL0     O39366  13.919   5.866   0.823 -0.0534 -0.1316  0.1082
  286MOL0     C39367  14.037   5.775   0.849  0.3521  1.1588 -0.2984
  286MOL0     C39368  14.120   5.767   0.727  0.2452  0.6229  0.2540
  286MOL0     C39369  14.164   5.917   0.696 -0.3073  0.1565  0.0733
  286MOL0     C39370  14.274   5.978   0.788  0.0603 -0.2161  0.3860
  286MOL0     C39371  14.249   6.123   0.822 -0.4442 -0.6418  0.1629
  286MOL0     C39372  14.289   6.212   0.703 -0.0499 -0.6246  0.5919
  286MOL0     C39373  14.265   6.362   0.719  0.4481 -0.6148 -0.0156
  286MOL0     C39374  14.333   6.443   0.600  0.0248 -0.5681 -0.2865
  286MOL0    Cl39375  14.286   6.607   0.613  0.1354  0.1543  0.3725
  286MOL0     C39376  13.688   5.856   0.820 -0.3007  0.4562  0.6620
  286MOL0     C39377  13.568   5.827   0.879  0.8010  0.5750 -0.1241
  286MOL0     O39378  13.463   5.909   1.235  0.3296  0.9170  0.3546
  286MOL0     C39379  13.306   5.613   1.273  0.6349 -0.0233  0.3933
  286MOL0     C39380  13.197   5.543   1.338 -0.0177  0.1466 -0.7550
  286MOL0     N39381  12.458   5.525   1.518 -0.0947  0.9992  0.0509
  286MOL0     N39382  12.383   5.559   1.422  0.0337  0.3398 -0.1331
  286MOL0     C39383  11.613   6.033   1.116  0.6321  0.5396 -0.0910
  286MOL0     C39384  11.473   6.022   1.098 -0.0207 -0.3271 -0.2676
  286MOL0     C39385  11.072   5.841   1.175  0.9650 -0.5735  0.9848
  286MOL0     C39386  10.987   5.941   1.238 -0.5932 -0.1707 -0.4006
  286MOL0     C39387  10.853   5.934   1.228  0.0337 -0.0256 -0.7466
  286MOL0     C39388  10.780   5.826   1.163 -0.4319  0.0513 -0.1647
  286MOL0     O39389  10.644   5.812   1.164  0.2343 -0.0518 -0.2538
  286MOL0     C39390  10.560   5.893   1.245  0.5219  0.7079  0.4893
  286MOL0     C39391  10.408   5.883   1.207 -2.0190  0.5309  1.3158
  286MOL0     C39392  10.329   5.767   1.248 -0.0856 -0.5574  0.9602
  286MOL0     C39393  10.218   5.749   1.150  0.2070 -0.0559 -0.2680
  286MOL0     C39394  10.121   5.645   1.194 -0.1022 -0.0074 -0.0526
  286MOL0     C39395  10.053   5.558   1.240  0.8919 -0.2393  0.3566
  286MOL0     C39396  10.859   5.733   1.091 -0.3132  0.7842 -0.2508
  286MOL0     C39397  11.003   5.737   1.098  0.0482  0.9909 -0.2086
  286MOL0     C39398  11.082   5.623   1.027 -0.5232  0.2637 -0.6397
  286MOL0     H39399  11.396   5.977   1.425  0.5742 -0.1450  0.1771
  286MOL0     H39400  11.636   6.004   1.448  0.6630  0.2660 -1.1388
  286MOL0     H39401  11.838   6.241   1.237 -0.7891  1.2758 -2.8873
  286MOL0     H39402  11.843   6.146   1.093 -1.0608  2.2116  0.1761
  286MOL0     H39403  12.089   6.212   1.195 -1.2173  0.0387  0.9271
  286MOL0     H39404  12.056   6.089   1.303  0.1836  0.7598 -0.7824
  286MOL0     H39405  12.059   6.027   1.003 -0.8742  0.0550  0.0841
  286MOL0     H39406  12.197   6.007   1.112  0.5368 -0.5643  0.3797
  286MOL0     H39407  12.111   5.846   1.241  1.5087 -0.1929 -1.7557
  286MOL0     H39408  11.941   5.852   1.176 -1.0042  1.0613 -1.8371
  286MOL0     H39409  12.036   5.792   0.951  0.0706  1.3107  0.7869
  286MOL0     H39410  12.027   5.667   1.074  0.1529  0.3264  0.3100
  286MOL0     H39411  12.239   5.642   0.966  0.5664 -0.5299  1.5317
  286MOL0     H39412  12.292   5.801   1.023  0.5256 -0.1713 -1.3851
  286MOL0     H39413  12.184   5.602   1.228  1.7789 -3.2732 -2.2322
  286MOL0     H39414  12.306   5.735   1.242  1.8801  0.4376 -0.6196
  286MOL0     H39415  12.376   5.484   1.096 -2.5060 -0.1129  1.0666
  286MOL0     H39416  12.466   5.620   1.133 -2.5851  1.6206 -2.2063
  286MOL0     H39417  12.590   5.375   1.259 -0.3811 -0.6642  1.1872
  286MOL0     H39418  12.719   5.320   1.468 -3.1096 -1.2512 -1.7810
  286MOL0     H39419  12.622   5.317   1.612  0.2920 -0.6565  0.0564
  286MOL0     H39420  12.747   5.581   1.558 -1.3550 -0.9092 -1.4032
  286MOL0     H39421  12.707   5.516   1.711  2.4059  1.9752  0.5272
  286MOL0     H39422  12.943   5.531   1.699 -1.5710 -0.0691  0.8023
  286MOL0     H39423  12.902   5.359   1.708  0.9939  0.8110  2.0276
  286MOL0     H39424  13.080   5.411   1.525  0.7830  1.3753 -2.5790
  286MOL0     H39425  12.926   5.359   1.456 -3.3840 -0.0044  1.4980
  286MOL0     H39426  13.006   5.796   1.435 -0.1236  0.3433  1.8498
  286MOL0     H39427  13.244   6.014   1.386 -0.2134 -2.1333  1.2279
  286MOL0     H39428  13.071   5.986   1.338 -0.4975 -1.6521  0.8144
  286MOL0     H39429  13.193   6.012   1.216 -1.3831  0.9253  1.5583
  286MOL0     H39430  13.684   5.745   1.188 -3.2379 -0.6381 -0.3634
  286MOL0     H39431  13.900   5.776   1.057  0.4201 -2.4871 -2.9287
  286MOL0     H39432  14.089   5.813   0.938  0.0567  0.4319  0.1957
  286MOL0     H39433  14.008   5.672   0.872  4.1177  0.3185  1.5733
  286MOL0     H39434  14.208   5.704   0.741  0.3016  0.9956  1.6584
  286MOL0     H39435  14.052   5.728   0.651 -1.7431 -0.4421  2.4551
  286MOL0     H39436  14.078   5.984   0.692  0.5352  1.2532  0.0887
  286MOL0     H39437  14.199   5.910   0.593 -0.6076  0.1315 -0.0304
  286MOL0     H39438  14.368   5.972   0.734  1.1816 -0.2792  2.2614
  286MOL0     H39439  14.281   5.917   0.878  0.0213 -0.8653 -0.0459
  286MOL0     H39440  14.146   6.150   0.848 -0.1011 -0.3615  1.2934
  286MOL0     H39441  14.307   6.156   0.908  0.1231 -0.0249 -0.4433
  286MOL0     H39442  14.236   6.181   0.613  1.8054 -0.7890 -0.4841
  286MOL0     H39443  14.396   6.197   0.688 -0.0729 -0.2007 -0.0086
  286MOL0     H39444  14.317   6.395   0.809  0.9789 -1.1960 -0.1089
  286MOL0     H39445  14.156   6.374   0.729  0.5452 -0.9719  1.7315
  286MOL0     H39446  14.305   6.402   0.503 -0.6621 -1.1171  0.1332
  286MOL0     H39447  14.440   6.422   0.608 -0.5077 -3.0045  1.7445
  286MOL0     H39448  13.705   5.891   0.719 -0.8133 -0.6305  0.1878
  286MOL0     H39449  13.473   5.842   0.829 -0.0732 -0.7162  1.0580
  286MOL0     H39450  13.385   5.552   1.230 -1.1433 -0.5019 -2.4628
  286MOL0     H39451  13.209   5.436   1.348 -0.4246 -0.2719 -3.6121
  286MOL0     H39452  11.676   6.041   1.028  1.1807 -1.4747  0.0751
  286MOL0     H39453  11.430   6.035   0.999  1.2241  3.1804 -0.4726
  286MOL0     H39454  11.039   6.018   1.294 -0.4047 -0.0213 -0.7769
  286MOL0     H39455  10.798   6.018   1.270  1.8794  1.4318 -1.1454
  286MOL0     H39456  10.579   5.879   1.351 -2.1000 -3.8389  0.6576
  286MOL0     H39457  10.578   5.999   1.226  0.8257  0.1806 -2.8105
  286MOL0     H39458  10.406   5.902   1.099 -0.9184  1.0446  1.3721
  286MOL0     H39459  10.358   5.972   1.247 -1.3864  1.8824 -0.7654
  286MOL0     H39460  10.397   5.683   1.235 -0.3963 -0.6768  0.1141
  286MOL0     H39461  10.275   5.778   1.343 -2.8829 -2.6544 -0.2821
  286MOL0     H39462  10.259   5.714   1.055  0.7028 -1.0600  0.3023
  286MOL0     H39463  10.157   5.839   1.138  1.3655  1.0048  1.3582
  286MOL0     H39464   9.989   5.476   1.265 -0.0178  0.3935  0.1687
  286MOL0     H39465  10.804   5.651   1.046  0.0119 -1.7872  3.5595
  286MOL0     H39466  11.137   5.564   1.101 -0.8559 -0.2379 -0.7880
  286MOL0     H39467  11.019   5.549   0.978  0.8957 -1.6768  0.2916
  286MOL0     H39468  11.157   5.656   0.955  1.6749 -2.3592  0.2852
  287MOL0     O39469   5.066   8.033   4.766  0.2528  0.4497  0.0458
  287MOL0     C39470   5.032   7.918   4.806 -0.8154  0.5283 -0.5366
  287MOL0     O39471   5.116   7.815   4.850 -0.2208 -0.4208  0.0019
  287MOL0     C39472   5.254   7.829   4.826  0.0336  0.0635  0.8039
  287MOL0     C39473   5.339   7.826   4.934  0.4021  0.8963 -0.1900
  287MOL0     C39474   5.474   7.830   4.912  0.0377 -1.0375 -0.3562
  287MOL0     C39475   5.531   7.833   4.778 -0.0178  0.4388 -1.3534
  287MOL0     O39476   5.666   7.847   4.780 -0.3412  0.4537  0.2981
  287MOL0     C39477   5.740   7.849   4.651 -0.1154 -0.2796  0.5048
  287MOL0     C39478   5.887   7.884   4.686 -0.5898 -0.0592  0.5774
  287MOL0     C39479   5.955   7.784   4.777  0.4235 -0.3448  0.1228
  287MOL0     C39480   6.104   7.829   4.791  0.3096  1.4799  0.0192
  287MOL0     C39481   6.186   7.724   4.870  0.9505  0.1791 -1.0862
  287MOL0     C39482   6.327   7.734   4.816 -0.4166 -0.2674  0.3747
  287MOL0     C39483   6.434   7.646   4.883  0.0447 -0.0483  0.1812
  287MOL0     C39484   6.492   7.704   5.014  1.2477 -0.4459  0.4108
  287MOL0     N39485   6.597   7.626   5.076  0.2735 -0.6786  0.3253
  287MOL0     C39486   6.728   7.659   5.064 -0.0473  0.1266 -0.0295
  287MOL0     C39487   6.784   7.538   5.114  0.7777 -0.2152 -0.7001
  287MOL0     C39488   6.931   7.538   5.158  0.2532  0.0000  0.2074
  287MOL0     C39489   6.971   7.393   5.194 -0.1808 -0.2674  0.3175
  287MOL0     C39490   7.125   7.377   5.219  0.5774 -0.4641  0.0753
  287MOL0     C39491   7.209   7.375   5.093  0.2073  0.8246 -1.1013
  287MOL0     O39492   7.342   7.381   5.138 -0.7968 -0.4579  0.5463
  287MOL0     C39493   7.446   7.366   5.046 -0.0394  0.6446 -0.5733
  287MOL0     C39494   7.572   7.372   5.107 -0.0402  0.4062  0.4477
  287MOL0     C39495   7.692   7.352   5.027 -0.9587  0.0248 -0.1386
  287MOL0     C39496   7.825   7.352   5.099 -0.4054 -0.1228  0.5784
  287MOL0     C39497   7.680   7.315   4.892  0.3001  0.0426 -0.0612
  287MOL0     C39498   7.797   7.271   4.802 -0.2336 -0.4090  0.2362
  287MOL0     O39499   7.769   7.182   4.704 -0.1893  0.2644  0.4728
  287MOL0     C39500   7.868   7.108   4.654  0.4088  0.2281 -0.6478
  287MOL0     C39501   7.864   6.974   4.666 -0.0406  0.8038 -0.0033
  287MOL0     C39502   7.965   6.890   4.621 -0.8000  0.0521  0.5787
  287MOL0     C39503   8.080   6.939   4.562 -0.8681 -0.4287  0.5338
  287MOL0     O39504   8.169   6.839   4.514  0.8174 -0.8360  0.4971
  287MOL0     C39505   8.289   6.871   4.443 -0.3138 -0.6518  0.4700
  287MOL0     C39506   8.331   6.734   4.392  0.1520 -0.2731  0.5713
  287MOL0     C39507   8.276   6.700   4.244 -0.3797  0.1514  0.1483
  287MOL0     C39508   8.125   6.717   4.235 -0.3913 -0.5409 -0.7615
  287MOL0     C39509   8.040   6.609   4.299  0.8980  0.0960  0.1650
  287MOL0     C39510   7.896   6.648   4.270 -0.3531  1.6365 -0.0215
  287MOL0     C39511   7.775   6.596   4.350 -0.0354  0.6490  0.1186
  287MOL0     C39512   7.642   6.666   4.329  0.5561 -0.1954 -0.3975
  287MOL0    Cl39513   7.492   6.583   4.406 -0.7379 -0.0658 -0.2653
  287MOL0     C39514   8.091   7.078   4.549 -0.1275 -0.6045  0.6277
  287MOL0     C39515   7.975   7.160   4.585  0.5928 -0.1001  0.0699
  287MOL0     O39516   7.902   7.334   4.817 -0.7652  0.2093  0.0728
  287MOL0     C39517   7.550   7.317   4.833  0.3024 -0.0606  0.0627
  287MOL0     C39518   7.435   7.338   4.910  1.0215 -0.9575 -0.2675
  287MOL0     N39519   6.690   7.445   5.161 -0.0070  0.4250 -0.3959
  287MOL0     N39520   6.579   7.506   5.144  0.2021  0.7150  0.9215
  287MOL0     C39521   5.441   7.834   4.670  0.2268 -0.4546 -0.5639
  287MOL0     C39522   5.305   7.839   4.689  0.0513 -0.4422 -0.6392
  287MOL0     C39523   4.887   7.893   4.831  0.8855  0.0127  0.3195
  287MOL0     C39524   4.845   7.753   4.838  0.0397  0.2239  0.0053
  287MOL0     C39525   4.717   7.719   4.884  0.5125 -0.4363  1.2097
  287MOL0     C39526   4.612   7.817   4.901 -0.3485 -0.1816 -0.9547
  287MOL0     O39527   4.484   7.789   4.927  0.5947 -0.0534 -0.4397
  287MOL0     C39528   4.447   7.648   4.954 -1.2412 -0.1939 -0.3477
  287MOL0     C39529   4.308   7.639   5.001  0.4137 -0.2921  0.5539
  287MOL0     C39530   4.279   7.704   5.143  0.7425  0.4794 -0.6809
  287MOL0     C39531   4.127   7.721   5.166 -0.3318 -1.0056 -1.0734
  287MOL0     C39532   4.037   7.610   5.129  0.3933 -0.3522 -0.8777
  287MOL0     C39533   3.984   7.512   5.097 -0.2088  1.0747  0.4579
  287MOL0     C39534   4.655   7.944   4.869  0.5738  0.3973 -0.5177
  287MOL0     C39535   4.785   7.989   4.840  0.1084 -0.4041  0.5625
  287MOL0     C39536   4.794   8.135   4.817  0.0826  0.1802 -0.2681
  287MOL0     H39537   5.307   7.816   5.037  1.0295  0.3278 -0.0448
  287MOL0     H39538   5.534   7.846   5.001  0.7743 -0.0712 -1.0075
  287MOL0     H39539   5.711   7.930   4.584 -2.3740 -1.6093 -0.2140
  287MOL0     H39540   5.738   7.757   4.592  3.5909 -0.9507  1.1446
  287MOL0     H39541   5.936   7.891   4.589 -0.0548  0.7717  0.9049
  287MOL0     H39542   5.888   7.977   4.744  0.9965  1.5959 -1.9024
  287MOL0     H39543   5.911   7.785   4.877 -1.3728 -1.1980 -0.6196
  287MOL0     H39544   5.941   7.688   4.728  2.0293 -0.8108  0.5044
  287MOL0     H39545   6.144   7.848   4.691  0.9406  0.2442  0.0166
  287MOL0     H39546   6.105   7.926   4.842 -1.0873  2.0792 -1.0253
  287MOL0     H39547   6.144   7.623   4.872 -0.2354  0.6371 -2.0449
  287MOL0     H39548   6.185   7.749   4.977 -1.8879  1.2382 -1.2693
  287MOL0     H39549   6.323   7.714   4.708 -1.0630 -0.0284  0.3525
  287MOL0     H39550   6.351   7.841   4.821 -0.1386 -0.3315  0.4212
  287MOL0     H39551   6.518   7.634   4.814 -0.3760  2.1382 -0.8002
  287MOL0     H39552   6.385   7.550   4.899 -2.9137  1.1963 -0.5912
  287MOL0     H39553   6.521   7.809   5.002 -0.4905  0.4418  3.0800
  287MOL0     H39554   6.413   7.708   5.089  2.9484 -0.7323  2.3184
  287MOL0     H39555   6.769   7.757   5.042 -1.4050  0.0975 -3.1823
  287MOL0     H39556   6.945   7.591   5.252  0.5517  0.0788  0.1209
  287MOL0     H39557   7.007   7.582   5.093  0.4870 -0.5134  0.1230
  287MOL0     H39558   6.924   7.376   5.292  0.4274 -3.2282  0.1968
  287MOL0     H39559   6.937   7.319   5.121 -1.8862  0.6752  0.1063
  287MOL0     H39560   7.143   7.476   5.261 -0.3813  0.0634 -0.7264
  287MOL0     H39561   7.142   7.300   5.295 -1.2179 -2.0630 -1.0563
  287MOL0     H39562   7.189   7.284   5.036  0.7594 -1.0408  1.5003
  287MOL0     H39563   7.208   7.463   5.028  1.7515  2.9953  1.6013
  287MOL0     H39564   7.567   7.388   5.214 -1.4438  0.8412  0.3408
  287MOL0     H39565   7.875   7.257   5.077  1.5606 -0.0176  3.8692
  287MOL0     H39566   7.811   7.352   5.207 -0.5663 -2.9559  0.6411
  287MOL0     H39567   7.894   7.430   5.066  1.1437 -1.3794  0.7295
  287MOL0     H39568   7.783   6.921   4.714  1.4664 -0.6636  1.0317
  287MOL0     H39569   7.952   6.783   4.631 -1.4602  0.2543  2.3968
  287MOL0     H39570   8.279   6.942   4.360  1.6094 -0.8613  0.0194
  287MOL0     H39571   8.369   6.909   4.508 -0.0685 -3.4863  1.9597
  287MOL0     H39572   8.440   6.724   4.382  0.0423  0.4502 -1.9384
  287MOL0     H39573   8.302   6.657   4.464 -2.0428  0.6292  0.7297
  287MOL0     H39574   8.301   6.607   4.193 -4.3544  0.5046 -2.9082
  287MOL0     H39575   8.313   6.778   4.178 -1.2796  1.0078  0.6186
  287MOL0     H39576   8.117   6.720   4.125  0.1315 -0.0323 -0.7915
  287MOL0     H39577   8.101   6.816   4.273  0.7707 -0.5115 -0.0627
  287MOL0     H39578   8.061   6.508   4.262 -0.5065 -0.4365  0.7366
  287MOL0     H39579   8.047   6.602   4.408  3.5514  1.5352  0.1667
  287MOL0     H39580   7.886   6.618   4.165  2.0754 -1.9651  0.5934
  287MOL0     H39581   7.890   6.757   4.278  0.8832  2.0974 -3.6576
  287MOL0     H39582   7.795   6.597   4.458  1.4265  0.1673 -0.1289
  287MOL0     H39583   7.760   6.491   4.325  1.5179 -0.8309  4.4491
  287MOL0     H39584   7.621   6.671   4.221 -0.5421  2.7444 -0.1557
  287MOL0     H39585   7.646   6.765   4.377  0.7266 -0.6164  0.4738
  287MOL0     H39586   8.175   7.135   4.509 -0.5732  0.4668  1.1783
  287MOL0     H39587   7.984   7.267   4.568 -1.9959 -0.0889 -1.7420
  287MOL0     H39588   7.536   7.278   4.732  2.0329 -1.4314  0.2950
  287MOL0     H39589   7.333   7.330   4.873  0.7686  2.4090 -0.6444
  287MOL0     H39590   5.469   7.856   4.567  0.8442 -0.4637 -0.4012
  287MOL0     H39591   5.227   7.841   4.615  1.2334  1.7128 -1.9637
  287MOL0     H39592   4.909   7.673   4.801  0.5787  1.0631 -0.9492
  287MOL0     H39593   4.703   7.611   4.887  0.5753 -0.5286 -0.8307
  287MOL0     H39594   4.463   7.592   4.862 -0.6042  2.0004 -1.6590
  287MOL0     H39595   4.515   7.605   5.028 -0.6099 -1.7097 -1.7529
  287MOL0     H39596   4.274   7.535   5.003 -2.5098  0.5596  0.4294
  287MOL0     H39597   4.237   7.669   4.923  0.5395 -0.1204  0.5023
  287MOL0     H39598   4.321   7.636   5.219 -1.1908  0.5694  0.5256
  287MOL0     H39599   4.323   7.803   5.160 -3.6157  2.0713  3.6197
  287MOL0     H39600   4.097   7.811   5.112  0.1353 -1.0591 -1.4254
  287MOL0     H39601   4.118   7.746   5.272 -0.3871 -0.6745 -1.1535
  287MOL0     H39602   3.942   7.417   5.073  0.1783  1.2641 -1.1260
  287MOL0     H39603   4.583   8.026   4.874  1.4789  1.2277 -0.8650
  287MOL0     H39604   4.698   8.184   4.833  1.1477  1.3738  3.7475
  287MOL0     H39605   4.870   8.186   4.878 -0.5081  0.6383  0.0873
  287MOL0     H39606   4.831   8.144   4.714  0.7887  0.7642  0.0215
  288MOL0     O39607   2.654   0.380  10.562 -0.3059  0.3637  0.2047
  288MOL0     C39608   2.640   0.467  10.653 -0.1670  0.0969 -0.8323
  288MOL0     O39609   2.745   0.531  10.714 -0.0016  0.0407 -0.6418
  288MOL0     C39610   2.879   0.500  10.686 -0.4097 -0.3870  0.3412
  288MOL0     C39611   2.969   0.532  10.797 -0.2691 -0.1068  0.5952
  288MOL0     C39612   3.103   0.505  10.790  0.6624  0.3366  0.3014
  288MOL0     C39613   3.154   0.443  10.682  1.2206  0.4543  0.0895
  288MOL0     O39614   3.282   0.420  10.659 -0.4649 -0.2241 -0.5151
  288MOL0     C39615   3.384   0.431  10.756 -0.3444 -0.0678  0.5586
  288MOL0     C39616   3.525   0.402  10.686 -0.5841 -0.8274 -0.6908
  288MOL0     C39617   3.643   0.388  10.793 -0.0560  0.9598  0.0351
  288MOL0     C39618   3.778   0.373  10.728  1.1014 -0.8075 -0.2426
  288MOL0     C39619   3.882   0.380  10.833  0.2176  0.0754 -0.0580
  288MOL0     C39620   4.024   0.389  10.775 -1.0487 -0.3814  0.7773
  288MOL0     C39621   4.137   0.340  10.863  0.3213 -0.1011  0.4920
  288MOL0     C39622   4.148   0.435  10.984 -0.1673  0.5968  0.7272
  288MOL0     N39623   4.277   0.411  11.053 -0.0865 -0.1401  0.7370
  288MOL0     C39624   4.305   0.312  11.139  0.8838  0.2505 -0.6957
  288MOL0     C39625   4.440   0.317  11.143 -0.3779 -0.9530  1.3950
  288MOL0     C39626   4.522   0.211  11.212 -0.1821 -0.2127  0.6056
  288MOL0     C39627   4.607   0.274  11.316 -0.3692 -0.4461 -0.2058
  288MOL0     C39628   4.719   0.358  11.247  0.0154 -0.6500 -0.7787
  288MOL0     C39629   4.834   0.381  11.354  0.1275 -0.1287  0.4119
  288MOL0     O39630   4.789   0.427  11.480 -0.1867  0.3231 -0.2413
  288MOL0     C39631   4.888   0.447  11.570 -0.5299  0.1750  0.1732
  288MOL0     C39632   4.933   0.569  11.604 -1.7104  0.1680 -0.0573
  288MOL0     C39633   5.041   0.595  11.690 -0.2659 -0.6602 -0.4452
  288MOL0     C39634   5.080   0.738  11.724  0.8047  0.1034  1.2692
  288MOL0     C39635   5.122   0.482  11.732 -0.2547 -0.2476 -0.4251
  288MOL0     C39636   5.255   0.484  11.795  0.3687  0.2949 -0.1579
  288MOL0     O39637   5.342   0.386  11.770 -0.4105  0.7565 -0.0623
  288MOL0     C39638   5.452   0.391  11.862 -0.1246  0.3777  0.4860
  288MOL0     C39639   5.450   0.347  11.985  1.1634  0.4105 -0.0058
  288MOL0     C39640   5.567   0.351  12.061  0.7074  0.5625  1.2539
  288MOL0     C39641   5.685   0.400  12.010 -0.7394  0.5329 -0.4541
  288MOL0     O39642   5.808   0.406  12.078  0.0160 -0.2910 -0.1597
  288MOL0     C39643   5.852   0.286  12.140  0.2241  0.4975  0.3026
  288MOL0     C39644   6.000   0.325  12.184 -0.2458  0.5497 -0.0295
  288MOL0     C39645   6.076   0.222  12.274  0.2813 -0.3466  0.5340
  288MOL0     C39646   6.067   0.081  12.218  0.7350 -0.0093 -0.9509
  288MOL0     C39647   6.189  -0.012  12.267 -0.6083  0.8590  0.1541
  288MOL0     C39648   6.229  -0.126  12.171  0.4692  0.3691  0.0988
  288MOL0     C39649   6.120  -0.214  12.115 -0.6414  1.5178 -0.1625
  288MOL0     C39650   6.169  -0.345  12.071  0.1441  0.5093 -0.1069
  288MOL0    Cl39651   6.148  -0.451  12.218 -0.1871  0.2334 -0.2017
  288MOL0     C39652   5.689   0.419  11.874  0.6837  0.2436 -0.0609
  288MOL0     C39653   5.572   0.428  11.803  0.6524  0.5237 -0.2372
  288MOL0     O39654   5.275   0.575  11.872  0.1121 -0.2528 -0.0549
  288MOL0     C39655   5.073   0.356  11.700 -0.7421  1.1995 -0.6555
  288MOL0     C39656   4.957   0.345  11.626  0.5668  0.6662  0.2493
  288MOL0     N39657   4.481   0.430  11.065 -0.2254  0.1750  0.5725
  288MOL0     N39658   4.387   0.474  11.004  0.4275  0.3696  0.9480
  288MOL0     C39659   3.065   0.417  10.574  1.2937  0.2536 -1.0603
  288MOL0     C39660   2.928   0.446  10.570  0.6381 -0.0613 -0.7240
  288MOL0     C39661   2.505   0.500  10.698 -0.1680  0.7968 -0.5170
  288MOL0     C39662   2.391   0.450  10.631  0.6256  0.5156  1.0025
  288MOL0     C39663   2.263   0.470  10.682 -1.1234  0.9314 -0.5366
  288MOL0     C39664   2.239   0.559  10.785 -0.9994  0.3399  0.1693
  288MOL0     O39665   2.107   0.585  10.816 -0.3596 -0.0223  0.1255
  288MOL0     C39666   2.086   0.676  10.921  0.0571 -0.3060  0.8168
  288MOL0     C39667   1.932   0.682  10.941 -0.1286 -0.4165 -0.1968
  288MOL0     C39668   1.888   0.544  10.987  0.5304 -0.5029 -0.2936
  288MOL0     C39669   1.735   0.532  11.017 -0.0823 -0.3278  0.0759
  288MOL0     C39670   1.688   0.626  11.119  0.2419 -1.4895 -0.4054
  288MOL0     C39671   1.614   0.695  11.185  0.1273 -0.2483 -0.9700
  288MOL0     C39672   2.354   0.596  10.858  0.1334 -0.8587  0.7714
  288MOL0     C39673   2.481   0.570  10.817  0.3900  0.0618  0.7671
  288MOL0     C39674   2.595   0.614  10.913  0.4052  0.3730 -0.4566
  288MOL0     H39675   2.927   0.586  10.880 -1.2613 -1.8515  1.2926
  288MOL0     H39676   3.170   0.543  10.866  1.5960  0.2331 -0.4559
  288MOL0     H39677   3.375   0.352  10.831  1.1385 -0.3367  0.4870
  288MOL0     H39678   3.381   0.533  10.795 -0.6456 -0.0379  0.4596
  288MOL0     H39679   3.538   0.309  10.630 -0.5940 -1.3646  0.1800
  288MOL0     H39680   3.549   0.486  10.621 -2.8845  0.9863  0.6478
  288MOL0     H39681   3.648   0.481  10.852  1.9065  0.2609  1.0548
  288MOL0     H39682   3.624   0.304  10.860  1.2213 -1.1852 -2.1447
  288MOL0     H39683   3.774   0.289  10.658 -1.4493 -0.1459 -1.0025
  288MOL0     H39684   3.797   0.468  10.676  0.9283 -0.9616 -0.5908
  288MOL0     H39685   3.875   0.281  10.880 -0.1597 -0.0179 -0.3027
  288MOL0     H39686   3.863   0.454  10.910  1.5590  1.2540 -0.8219
  288MOL0     H39687   4.025   0.329  10.683 -1.2023 -0.1977  0.6547
  288MOL0     H39688   4.039   0.492  10.743  1.2646 -1.0235 -0.4046
  288MOL0     H39689   4.229   0.336  10.804  0.5748  0.0807  0.8718
  288MOL0     H39690   4.119   0.243  10.909 -1.2128 -0.1099 -0.0607
  288MOL0     H39691   4.147   0.539  10.950  0.0169 -0.2654 -2.2134
  288MOL0     H39692   4.065   0.425  11.055  0.0581 -0.0361  0.9011
  288MOL0     H39693   4.241   0.230  11.171  0.4563  0.6058 -0.6165
  288MOL0     H39694   4.593   0.176  11.136  1.3993 -1.2740  2.4764
  288MOL0     H39695   4.467   0.124  11.250 -1.5024  0.4603  0.2940
  288MOL0     H39696   4.549   0.348  11.371 -1.3960  0.0439 -1.8538
  288MOL0     H39697   4.649   0.194  11.378  1.0241 -3.3751 -4.4255
  288MOL0     H39698   4.771   0.305  11.167 -1.5443 -1.4308 -1.3089
  288MOL0     H39699   4.691   0.457  11.209  2.0747  0.6713  0.8875
  288MOL0     H39700   4.897   0.291  11.352 -0.2249 -0.3755 -1.1683
  288MOL0     H39701   4.911   0.452  11.322 -0.4643  0.5154  0.4106
  288MOL0     H39702   4.890   0.656  11.557  1.8512  1.8414 -0.5705
  288MOL0     H39703   5.005   0.798  11.673 -0.9262 -2.2355  0.8774
  288MOL0     H39704   5.178   0.752  11.679  0.7061  0.9973  1.3189
  288MOL0     H39705   5.073   0.752  11.833 -1.8102  1.9860  0.9432
  288MOL0     H39706   5.356   0.310  12.024  2.7647 -1.9433  1.9496
  288MOL0     H39707   5.565   0.315  12.163  1.8975  2.6792  2.0909
  288MOL0     H39708   5.798   0.258  12.230  0.4711  0.1260  0.3373
  288MOL0     H39709   5.856   0.200  12.072 -1.8633 -0.6849  1.5862
  288MOL0     H39710   6.066   0.346  12.100  1.7722  3.1930  2.0270
  288MOL0     H39711   6.001   0.416  12.244  1.3378  0.2581  0.4274
  288MOL0     H39712   6.014   0.234  12.363 -0.3533  1.5735 -0.1132
  288MOL0     H39713   6.180   0.257  12.283  0.3267 -0.0804 -0.8500
  288MOL0     H39714   6.073   0.089  12.109 -0.7372  1.3142 -0.9650
  288MOL0     H39715   5.970   0.030  12.226 -0.2101  1.5516 -1.9142
  288MOL0     H39716   6.271   0.060  12.271  0.2264 -0.1051  0.9681
  288MOL0     H39717   6.161  -0.051  12.365 -0.9003 -4.5475 -1.7249
  288MOL0     H39718   6.294  -0.197  12.223 -0.4429 -0.0311  0.7316
  288MOL0     H39719   6.281  -0.078  12.088  2.3208  0.1169  1.0620
  288MOL0     H39720   6.078  -0.177  12.022  1.1319 -0.3954 -1.8278
  288MOL0     H39721   6.043  -0.241  12.189  0.8463 -0.1232  0.8808
  288MOL0     H39722   6.275  -0.331  12.046  0.4694 -0.3382  0.7135
  288MOL0     H39723   6.107  -0.382  11.989  0.2119  0.8870 -0.3300
  288MOL0     H39724   5.782   0.438  11.822  1.0235 -1.3479 -0.0701
  288MOL0     H39725   5.571   0.438  11.695  1.0926 -1.2958 -0.4455
  288MOL0     H39726   5.126   0.267  11.731  1.1816  2.2678 -0.7747
  288MOL0     H39727   4.924   0.244  11.604 -0.4947  0.4282  2.6613
  288MOL0     H39728   3.106   0.366  10.487  0.2488  0.7845 -1.8961
  288MOL0     H39729   2.866   0.428  10.483  1.4317 -2.0947 -0.9308
  288MOL0     H39730   2.400   0.386  10.545  0.8519  1.3233  0.4128
  288MOL0     H39731   2.172   0.431  10.637 -0.6828 -2.2570  1.0311
  288MOL0     H39732   2.132   0.659  11.018  0.3240  3.2128  1.4544
  288MOL0     H39733   2.130   0.773  10.894 -0.9475  0.7034  2.6122
  288MOL0     H39734   1.886   0.701  10.844  0.2424 -2.9418 -0.9480
  288MOL0     H39735   1.899   0.754  11.017 -1.1803 -0.7619 -0.3095
  288MOL0     H39736   1.925   0.459  10.929 -0.1620  0.7151 -2.6128
  288MOL0     H39737   1.939   0.536  11.083  1.1197  1.7474 -0.3723
  288MOL0     H39738   1.711   0.428  11.040 -0.0595 -0.7443 -1.6872
  288MOL0     H39739   1.685   0.561  10.924  0.4719  1.6691  0.3406
  288MOL0     H39740   1.548   0.758  11.242  1.0987 -0.2715  0.2069
  288MOL0     H39741   2.342   0.654  10.948  1.5651 -2.7122  2.2322
  288MOL0     H39742   2.550   0.656  11.004  2.5216  2.8217 -0.4199
  288MOL0     H39743   2.659   0.532  10.945  0.0180  0.2879  0.1137
  288MOL0     H39744   2.654   0.694  10.867 -0.0498  1.5147  0.8504
  289MOL0     O39745   1.010   0.356   8.939 -0.4408 -1.1922  0.0770
  289MOL0     C39746   0.979   0.239   8.921 -0.3333 -0.4900 -0.2859
  289MOL0     O39747   1.054   0.136   8.958 -0.0487 -0.0854 -0.0515
  289MOL0     C39748   1.169   0.134   9.026  0.4206 -0.1500 -0.1151
  289MOL0     C39749   1.158   0.115   9.162  0.5414  0.5390 -0.1355
  289MOL0     C39750   1.270   0.121   9.243 -0.7760 -0.6322 -0.4088
  289MOL0     C39751   1.402   0.146   9.187  0.1359  0.3512 -0.2600
  289MOL0     O39752   1.511   0.116   9.251  0.2008  0.7939 -0.1775
  289MOL0     C39753   1.628   0.194   9.225  0.1652  0.0213 -0.3371
  289MOL0     C39754   1.736   0.166   9.327 -0.3499 -0.6346 -0.6315
  289MOL0     C39755   1.868   0.250   9.309  0.5616 -0.5368 -0.9838
  289MOL0     C39756   1.953   0.171   9.215  0.0771  1.3592  0.0318
  289MOL0     C39757   2.077   0.236   9.172 -0.2395 -0.2035  0.1950
  289MOL0     C39758   2.169   0.125   9.112  0.1323  0.0908  0.3325
  289MOL0     C39759   2.308   0.179   9.087  0.0640  0.7351  0.1639
  289MOL0     C39760   2.412   0.080   9.028 -0.0468  0.4303 -0.2676
  289MOL0     N39761   2.550   0.130   9.023  0.0152 -0.3706 -0.0282
  289MOL0     C39762   2.595   0.214   8.928 -1.1522 -0.3201  0.0121
  289MOL0     C39763   2.726   0.243   8.965  0.9031 -0.2155  0.7361
  289MOL0     C39764   2.814   0.326   8.889 -0.4540  0.1550  0.3912
  289MOL0     C39765   2.961   0.268   8.883  0.9766 -0.3056 -0.3840
  289MOL0     C39766   3.057   0.383   8.848  0.3382  0.0536 -0.3302
  289MOL0     C39767   3.202   0.335   8.879 -0.3498  0.1943 -0.2962
  289MOL0     O39768   3.227   0.198   8.847 -0.1173  0.1499 -0.9532
  289MOL0     C39769   3.365   0.160   8.858 -0.0005 -0.4950 -0.6030
  289MOL0     C39770   3.403   0.052   8.799 -0.5945  0.1408  0.5718
  289MOL0     C39771   3.530  -0.005   8.818  0.8257  0.0121  0.7436
  289MOL0     C39772   3.542  -0.141   8.754  0.4320 -0.8949 -0.3848
  289MOL0     C39773   3.621   0.051   8.907  0.6034  0.7088 -0.9775
  289MOL0     C39774   3.749  -0.011   8.945 -0.9436 -1.5768 -0.1316
  289MOL0     O39775   3.821   0.057   9.049  0.0465 -0.5552 -0.0627
  289MOL0     C39776   3.961   0.057   9.066 -0.1035  0.3454  0.8503
  289MOL0     C39777   4.015   0.104   9.188 -0.2863 -0.2696 -0.4240
  289MOL0     C39778   4.152   0.093   9.222  0.0642  0.7095  1.0726
  289MOL0     C39779   4.241   0.033   9.132  0.4669  1.0369 -2.0058
  289MOL0     O39780   4.373   0.040   9.159  0.1212  0.0000 -0.4491
  289MOL0     C39781   4.411  -0.009   9.287  0.0229 -0.1147  0.7027
  289MOL0     C39782   4.556  -0.054   9.298  0.6296 -0.5795 -0.3818
  289MOL0     C39783   4.570  -0.121   9.437  1.0361 -0.2080  1.6688
  289MOL0     C39784   4.709  -0.178   9.460 -0.1162 -0.2354  0.7953
  289MOL0     C39785   4.713  -0.255   9.592 -0.7632 -0.4232  0.4558
  289MOL0     C39786   4.859  -0.309   9.605  0.0077 -0.2931 -0.4534
  289MOL0     C39787   4.882  -0.365   9.743 -0.2335  0.3328 -0.1882
  289MOL0     C39788   4.854  -0.508   9.754  0.2397  0.4846 -0.2684
  289MOL0    Cl39789   4.704  -0.552   9.689 -0.1715  0.3639 -0.0085
  289MOL0     C39790   4.193   0.002   9.006  0.0572 -0.2456  0.1181
  289MOL0     C39791   4.054   0.003   8.974  0.1865 -0.1405 -0.8627
  289MOL0     O39792   3.798  -0.089   8.864  0.8027  0.6263 -0.5238
  289MOL0     C39793   3.584   0.170   8.973  0.9249  0.2533  0.7990
  289MOL0     C39794   3.459   0.222   8.949  0.9719 -0.5082 -0.1166
  289MOL0     N39795   2.750   0.174   9.085  0.5967  0.1102  0.6058
  289MOL0     N39796   2.648   0.105   9.108  0.8975  0.2252 -0.3947
  289MOL0     C39797   1.403   0.173   9.049  0.0415 -0.2899 -0.2854
  289MOL0     C39798   1.291   0.163   8.965  0.2874  0.0807 -1.4948
  289MOL0     C39799   0.848   0.209   8.866 -0.6017  0.0314 -0.5006
  289MOL0     C39800   0.754   0.144   8.951  0.1909 -0.5783  0.0956
  289MOL0     C39801   0.629   0.108   8.904 -0.3991 -0.6265  0.4064
  289MOL0     C39802   0.587   0.154   8.781 -0.1941  0.0188  0.0176
  289MOL0     O39803   0.462   0.124   8.746  0.8417  0.8549 -0.0795
  289MOL0     C39804   0.396   0.141   8.616 -0.3215  0.0242 -0.9781
  289MOL0     C39805   0.449   0.039   8.521  0.1622  0.5462 -0.3476
  289MOL0     C39806   0.412  -0.101   8.555 -0.6246  0.1579 -0.3381
  289MOL0     C39807   0.387  -0.194   8.435 -0.5564  0.9792  0.2843
  289MOL0     C39808   0.524  -0.219   8.382  0.2880 -0.0401 -0.5234
  289MOL0     C39809   0.624  -0.244   8.321 -0.2073 -0.5851  0.1208
  289MOL0     C39810   0.670   0.234   8.702  0.5314  0.9237  0.3133
  289MOL0     C39811   0.811   0.249   8.732  0.1817 -0.8618  0.0624
  289MOL0     C39812   0.885   0.335   8.643 -1.0086  0.1821 -0.2873
  289MOL0     H39813   1.059   0.100   9.202  0.3303  1.4537 -0.2960
  289MOL0     H39814   1.262   0.085   9.345  0.6965  0.4034  0.1047
  289MOL0     H39815   1.606   0.302   9.219 -3.7275 -0.6001  0.2662
  289MOL0     H39816   1.669   0.161   9.129 -0.1741  0.3355 -0.5928
  289MOL0     H39817   1.695   0.192   9.425  1.4464 -2.7593  0.7583
  289MOL0     H39818   1.757   0.059   9.326  0.1509 -0.5362 -0.9829
  289MOL0     H39819   1.837   0.346   9.266  0.1591 -0.0043  0.4688
  289MOL0     H39820   1.920   0.262   9.404 -1.0020  1.9144 -0.3439
  289MOL0     H39821   1.974   0.074   9.260 -1.9385  1.0006  0.2784
  289MOL0     H39822   1.895   0.150   9.125  0.7906  0.6025 -0.2636
  289MOL0     H39823   2.126   0.276   9.261  3.8563 -1.4153 -1.3017
  289MOL0     H39824   2.056   0.323   9.108  2.5959  1.9885  2.0025
  289MOL0     H39825   2.195   0.040   9.175 -0.6751 -0.2348  0.2305
  289MOL0     H39826   2.110   0.089   9.027 -0.3745  0.0059  0.7181
  289MOL0     H39827   2.344   0.206   9.187  1.4084  2.0971 -0.6474
  289MOL0     H39828   2.297   0.274   9.034  1.7257  1.5487  1.1965
  289MOL0     H39829   2.420  -0.013   9.085  1.9208 -0.0127 -1.1870
  289MOL0     H39830   2.383   0.064   8.923 -2.9324  1.2634  0.3123
  289MOL0     H39831   2.542   0.250   8.840 -1.1866  1.9892  0.9139
  289MOL0     H39832   2.814   0.426   8.932  2.5559  0.7248 -0.6696
  289MOL0     H39833   2.771   0.345   8.790 -1.5205 -1.4135  0.5188
  289MOL0     H39834   2.984   0.229   8.982  0.9577 -1.3492 -0.7740
  289MOL0     H39835   2.969   0.179   8.820 -2.0784 -0.4814 -0.6764
  289MOL0     H39836   3.053   0.388   8.738  0.7746 -3.0436 -0.5884
  289MOL0     H39837   3.049   0.478   8.901  1.2214 -1.6667  3.1315
  289MOL0     H39838   3.274   0.404   8.833  0.4250  0.0212  0.6210
  289MOL0     H39839   3.229   0.342   8.985 -0.4774 -1.2711 -0.1487
  289MOL0     H39840   3.326   0.001   8.741  1.0759  0.4229 -2.0728
  289MOL0     H39841   3.549  -0.222   8.827  0.5390  0.0288  0.6423
  289MOL0     H39842   3.637  -0.143   8.700  1.4383 -0.2980  1.2954
  289MOL0     H39843   3.461  -0.167   8.684 -0.1821 -0.8373  0.2939
  289MOL0     H39844   3.956   0.152   9.266 -0.4319 -2.7910  1.1109
  289MOL0     H39845   4.185   0.127   9.319  2.2330  1.8607  0.0081
  289MOL0     H39846   4.398   0.070   9.361  0.8720 -1.5695  2.4885
  289MOL0     H39847   4.340  -0.092   9.299 -1.1591  0.3326 -2.2136
  289MOL0     H39848   4.572  -0.122   9.213  0.2211 -0.3638 -0.6363
  289MOL0     H39849   4.631   0.026   9.298 -0.9384  0.9516 -0.0019
  289MOL0     H39850   4.494  -0.200   9.438 -1.8195  2.3452  0.7644
  289MOL0     H39851   4.546  -0.056   9.522  1.8263 -0.4206  2.0677
  289MOL0     H39852   4.781  -0.096   9.465 -0.4127  0.1741 -0.9823
  289MOL0     H39853   4.740  -0.239   9.374  2.0492 -0.8883  1.9677
  289MOL0     H39854   4.695  -0.182   9.672 -0.2941 -0.2141  0.3769
  289MOL0     H39855   4.633  -0.328   9.589 -1.5325  0.1837  3.1274
  289MOL0     H39856   4.928  -0.226   9.586 -1.5469  0.7784 -1.6638
  289MOL0     H39857   4.872  -0.385   9.528  0.9320  0.6454 -1.2497
  289MOL0     H39858   4.820  -0.314   9.817 -0.5088 -2.1476  1.3778
  289MOL0     H39859   4.987  -0.351   9.771  0.2357  2.1465 -2.5126
  289MOL0     H39860   4.872  -0.544   9.856  3.4905  1.6086 -0.3188
  289MOL0     H39861   4.924  -0.561   9.689  1.8647  2.5459 -0.3031
  289MOL0     H39862   4.261  -0.017   8.923 -1.0786  3.8837 -2.0293
  289MOL0     H39863   4.014  -0.032   8.879 -1.3028 -0.6860 -0.0559
  289MOL0     H39864   3.639   0.227   9.047 -0.5163  3.0728 -0.1297
  289MOL0     H39865   3.438   0.299   9.023 -0.1581  0.4472 -1.3797
  289MOL0     H39866   1.497   0.212   9.010 -0.3563  2.0474  0.9089
  289MOL0     H39867   1.293   0.182   8.858 -0.3202 -1.1585 -1.7548
  289MOL0     H39868   0.783   0.105   9.048  1.6582  2.2947  0.9293
  289MOL0     H39869   0.559   0.051   8.965 -0.6262  0.9534  1.6906
  289MOL0     H39870   0.290   0.130   8.642 -0.1615  1.0239  0.1339
  289MOL0     H39871   0.419   0.239   8.573 -0.8141  0.3628 -0.4770
  289MOL0     H39872   0.559   0.039   8.521  0.2295  0.8057 -2.8542
  289MOL0     H39873   0.410   0.075   8.426 -1.7140 -2.5329 -0.8804
  289MOL0     H39874   0.481  -0.137   8.631 -1.6676  1.6116  1.3548
  289MOL0     H39875   0.312  -0.101   8.599 -0.8781  2.6833 -0.7859
  289MOL0     H39876   0.325  -0.140   8.362 -1.0711  0.3851  0.2716
  289MOL0     H39877   0.335  -0.289   8.450 -0.8838  1.1163  0.0444
  289MOL0     H39878   0.713  -0.262   8.265 -0.0652 -0.0155  0.1598
  289MOL0     H39879   0.617   0.276   8.617  0.0810  1.2177  0.7439
  289MOL0     H39880   0.991   0.307   8.635 -1.9469 -4.4059  0.8828
  289MOL0     H39881   0.845   0.326   8.542 -0.2718 -3.5564 -0.3860
  289MOL0     H39882   0.866   0.438   8.674 -1.9152  0.1973 -0.8618
  290MOL0     O39883   6.592   4.512  10.393  0.1853  0.1968 -0.6090
  290MOL0     C39884   6.637   4.592  10.317 -1.1722 -1.0718  0.2908
  290MOL0     O39885   6.760   4.657  10.329 -0.8777  0.1968 -0.2644
  290MOL0     C39886   6.813   4.659  10.453 -0.7847 -0.7958 -1.0800
  290MOL0     C39887   6.870   4.544  10.509 -0.3187  0.0661 -0.0413
  290MOL0     C39888   6.932   4.541  10.629  0.0681  0.2921  0.1613
  290MOL0     C39889   6.926   4.657  10.713 -0.6361  0.3065  0.0219
  290MOL0     O39890   6.969   4.648  10.843  0.3220 -0.5498  0.0946
  290MOL0     C39891   7.007   4.762  10.912  0.1897 -0.0013  1.2552
  290MOL0     C39892   7.107   4.713  11.014  0.0707 -0.1796 -0.5775
  290MOL0     C39893   7.178   4.832  11.071 -0.0123  0.0935  0.5397
  290MOL0     C39894   7.254   4.794  11.200 -0.3702 -0.8491 -0.4575
  290MOL0     C39895   7.303   4.917  11.265  0.0833 -0.2012  0.6963
  290MOL0     C39896   7.371   4.894  11.406 -0.1047 -0.3341 -0.6956
  290MOL0     C39897   7.491   4.790  11.395  0.9978 -0.1239 -0.0812
  290MOL0     C39898   7.612   4.849  11.335 -0.8506  0.7932  0.3118
  290MOL0     N39899   7.730   4.760  11.346 -0.1667 -0.1110  0.3438
  290MOL0     C39900   7.730   4.629  11.310  1.0526 -0.0169  0.2025
  290MOL0     C39901   7.855   4.588  11.319 -0.9731  0.7048 -0.6758
  290MOL0     C39902   7.911   4.452  11.282  0.1030  0.8739 -0.7559
  290MOL0     C39903   7.962   4.383  11.413 -0.7918  1.1663  0.4754
  290MOL0     C39904   8.112   4.416  11.464 -0.4122  0.0175 -0.5949
  290MOL0     C39905   8.218   4.362  11.372  0.5563  0.1950  0.3182
  290MOL0     O39906   8.297   4.269  11.443  0.3174  0.5180  0.0679
  290MOL0     C39907   8.423   4.298  11.494 -0.2729  0.1957  0.0318
  290MOL0     C39908   8.451   4.423  11.540  1.1731 -0.1891 -0.4406
  290MOL0     C39909   8.584   4.454  11.577  0.0030  0.2780  0.4794
  290MOL0     C39910   8.615   4.600  11.604 -0.6229 -0.5795  0.2338
  290MOL0     C39911   8.686   4.355  11.569  0.2849  0.3493 -0.3374
  290MOL0     C39912   8.826   4.382  11.599  0.3353  0.8797 -0.2647
  290MOL0     O39913   8.919   4.299  11.549 -0.7591  0.5021  0.2221
  290MOL0     C39914   9.039   4.307  11.605 -0.0986 -0.3543 -0.0682
  290MOL0     C39915   9.083   4.213  11.702  0.2507  0.2526  0.7257
  290MOL0     C39916   9.201   4.224  11.768 -0.2792 -0.1325 -0.0662
  290MOL0     C39917   9.278   4.342  11.745 -0.5568 -0.4025  0.2061
  290MOL0     O39918   9.389   4.378  11.827  0.3327 -0.2914  0.0741
  290MOL0     C39919   9.473   4.286  11.891 -0.0394 -0.1480 -0.1820
  290MOL0     C39920   9.580   4.356  11.974  0.9935  0.0105 -0.5562
  290MOL0     C39921   9.669   4.445  11.894 -0.3805 -0.8465  0.3446
  290MOL0     C39922   9.761   4.370  11.800  1.0661  0.4265  0.8990
  290MOL0     C39923   9.892   4.447  11.767  0.4426  0.3858  0.8069
  290MOL0     C39924   9.994   4.362  11.684 -0.8749  0.2911  0.3672
  290MOL0     C39925  10.136   4.424  11.649 -0.0041 -0.3231 -0.0512
  290MOL0     C39926  10.224   4.330  11.578 -0.1143  0.1216  1.0407
  290MOL0    Cl39927  10.152   4.332  11.409 -0.1230  0.0789 -0.0707
  290MOL0     C39928   9.233   4.439  11.654 -0.5261 -0.4928 -0.6658
  290MOL0     C39929   9.124   4.421  11.581 -0.0488  0.2961  1.2402
  290MOL0     O39930   8.859   4.458  11.690 -0.3963 -0.7578  0.6405
  290MOL0     C39931   8.649   4.231  11.539 -0.3315 -0.5719  0.6163
  290MOL0     C39932   8.521   4.198  11.501  0.8388 -0.0696  1.1196
  290MOL0     N39933   7.928   4.693  11.365  0.5242 -0.3959 -0.0348
  290MOL0     N39934   7.857   4.792  11.377 -0.0037 -0.2746 -0.1583
  290MOL0     C39935   6.874   4.776  10.662  0.2104 -0.4960  0.8872
  290MOL0     C39936   6.823   4.780  10.523 -0.2647  0.2708  0.1728
  290MOL0     C39937   6.558   4.619  10.194  0.1166 -0.6116 -0.4282
  290MOL0     C39938   6.587   4.742  10.124  1.0586 -0.2491  0.5640
  290MOL0     C39939   6.533   4.762   9.994  0.4058  0.1260  0.3759
  290MOL0     C39940   6.456   4.665   9.931  0.0436 -0.1624  0.4371
  290MOL0     O39941   6.417   4.685   9.797  0.9182 -0.3956 -0.2967
  290MOL0     C39942   6.408   4.572   9.714 -0.0893  0.2264 -0.1110
  290MOL0     C39943   6.398   4.606   9.565  0.8656  0.3200  0.4244
  290MOL0     C39944   6.289   4.713   9.543 -0.4453  0.2176 -0.6402
  290MOL0     C39945   6.284   4.744   9.389 -0.1319  0.0748 -1.0549
  290MOL0     C39946   6.225   4.633   9.319 -0.7852 -0.9837  0.1450
  290MOL0     C39947   6.207   4.530   9.251 -0.4112  0.0943  0.6470
  290MOL0     C39948   6.431   4.547  10.007  0.4691 -0.1170  0.1292
  290MOL0     C39949   6.471   4.526  10.138  0.1204 -0.4289  0.2916
  290MOL0     C39950   6.448   4.390  10.195 -0.1076 -0.6277 -0.2945
  290MOL0     H39951   6.864   4.454  10.449  1.9891  0.3732 -0.8117
  290MOL0     H39952   6.976   4.448  10.662  1.9491  1.4764  1.1397
  290MOL0     H39953   6.917   4.815  10.944  0.2850  0.6738  0.4520
  290MOL0     H39954   7.065   4.828  10.846  0.3916 -0.8357  0.5809
  290MOL0     H39955   7.053   4.661  11.092  0.8505  2.2355  1.7423
  290MOL0     H39956   7.181   4.645  10.970  1.3226 -0.7349  2.1505
  290MOL0     H39957   7.251   4.870  10.999 -2.3925  3.3642 -0.3729
  290MOL0     H39958   7.098   4.901  11.097  0.0480  0.6696 -0.7224
  290MOL0     H39959   7.191   4.732  11.264 -1.7774  1.1907  0.1934
  290MOL0     H39960   7.337   4.732  11.163 -0.6576 -2.1279  0.9370
  290MOL0     H39961   7.219   4.987  11.279  1.2960  1.3356  0.5395
  290MOL0     H39962   7.368   4.954  11.185 -1.8850 -1.9468 -1.8528
  290MOL0     H39963   7.401   4.984  11.460  3.5486 -1.0614 -1.2359
  290MOL0     H39964   7.295   4.850  11.471  1.1693 -1.0786  0.3334
  290MOL0     H39965   7.458   4.700  11.342  1.8515  0.4627 -1.6627
  290MOL0     H39966   7.518   4.765  11.498  0.5254  0.2405  0.1352
  290MOL0     H39967   7.592   4.872  11.229 -0.9851 -1.4209 -0.1969
  290MOL0     H39968   7.627   4.931  11.405 -0.9825 -0.0317  1.3201
  290MOL0     H39969   7.640   4.570  11.289  1.0561  0.8877 -2.8896
  290MOL0     H39970   7.990   4.461  11.206  1.9314 -0.2244  0.9065
  290MOL0     H39971   7.830   4.390  11.242 -0.5836  1.9357 -1.0408
  290MOL0     H39972   7.892   4.409  11.492  0.1482 -0.7406  2.0345
  290MOL0     H39973   7.935   4.280  11.388 -2.2649  0.9550  2.6653
  290MOL0     H39974   8.125   4.524  11.469 -0.4606 -0.0218  2.5504
  290MOL0     H39975   8.124   4.378  11.566  1.9705 -0.4639 -1.0017
  290MOL0     H39976   8.162   4.316  11.290  1.6965  1.4851 -1.2476
  290MOL0     H39977   8.277   4.442  11.327  1.9754 -1.4111 -0.7948
  290MOL0     H39978   8.376   4.501  11.542  1.8901  0.5156 -0.4430
  290MOL0     H39979   8.718   4.628  11.580 -0.1018 -1.5859  1.1932
  290MOL0     H39980   8.589   4.633  11.705  1.1914  1.2625  0.1376
  290MOL0     H39981   8.551   4.659  11.538 -1.2711 -0.3846  1.0175
  290MOL0     H39982   9.024   4.126  11.729 -1.6096  2.2390  3.4728
  290MOL0     H39983   9.238   4.135  11.819 -1.0131 -0.7878 -0.6500
  290MOL0     H39984   9.414   4.238  11.969  3.6385  0.8141  3.5717
  290MOL0     H39985   9.526   4.212  11.831 -0.4312 -1.1700  0.7109
  290MOL0     H39986   9.536   4.401  12.064  0.4566 -2.3711  0.4444
  290MOL0     H39987   9.629   4.270  12.021 -0.7150 -2.3171 -2.7889
  290MOL0     H39988   9.735   4.497  11.964  1.0386 -0.0474 -1.5092
  290MOL0     H39989   9.614   4.522  11.839 -2.6485 -1.3909  1.7143
  290MOL0     H39990   9.712   4.345  11.705  2.0792 -3.3187  1.1847
  290MOL0     H39991   9.779   4.282  11.862  0.7545  1.6605  2.8099
  290MOL0     H39992   9.869   4.545  11.725 -1.3382  0.1921  1.2623
  290MOL0     H39993   9.934   4.461  11.867 -1.4496 -3.1806  2.2887
  290MOL0     H39994   9.941   4.346  11.589 -3.1720  4.0942  0.8093
  290MOL0     H39995  10.010   4.269  11.739 -0.8713  1.4483  2.4099
  290MOL0     H39996  10.176   4.436  11.749 -0.3478  0.6747 -0.0183
  290MOL0     H39997  10.121   4.523  11.604 -0.0774 -0.2616  0.1085
  290MOL0     H39998  10.204   4.229  11.614 -0.0462 -0.2496  0.0722
  290MOL0     H39999  10.330   4.359  11.573 -0.1373  0.0434 -0.4357
  290MOL0     H40000   9.297   4.527  11.643 -0.7189  0.3157  3.2150
  290MOL0     H40001   9.109   4.492  11.500  2.6050 -0.2987  0.1292
  290MOL0     H40002   8.729   4.159  11.522  0.6023  0.1717  1.6934
  290MOL0     H40003   8.502   4.098  11.465  2.3969 -0.0452  0.1037
  290MOL0     H40004   6.866   4.865  10.722 -1.7145  0.9019 -1.2779
  290MOL0     H40005   6.783   4.877  10.494  0.5399  1.7181  3.4134
  290MOL0     H40006   6.646   4.808  10.187 -1.8430  0.0572  3.2086
  290MOL0     H40007   6.558   4.857   9.948  0.5457  0.5926  1.3766
  290MOL0     H40008   6.502   4.516   9.713  0.7932  1.6469 -1.7313
  290MOL0     H40009   6.323   4.508   9.739  0.2424  0.5040  1.8782
  290MOL0     H40010   6.374   4.519   9.503 -2.2975  2.7039 -2.0521
  290MOL0     H40011   6.498   4.648   9.551  1.2381 -0.0658  1.7862
  290MOL0     H40012   6.190   4.684   9.581 -0.2004  0.2966  0.0633
  290MOL0     H40013   6.321   4.804   9.595 -1.6776 -0.0332  0.6269
  290MOL0     H40014   6.389   4.763   9.364 -0.3088 -0.2067 -2.0760
  290MOL0     H40015   6.231   4.839   9.377 -0.7205 -0.4678 -3.1974
  290MOL0     H40016   6.197   4.438   9.198 -3.0948 -0.5894  2.1415
  290MOL0     H40017   6.365   4.471   9.965 -0.8294  1.1352 -0.1632
  290MOL0     H40018   6.546   4.349  10.219  1.0882  2.2048  0.1254
  290MOL0     H40019   6.396   4.406  10.290  1.4066  0.8735  0.3385
  290MOL0     H40020   6.392   4.322  10.130  0.0763 -1.8573  0.8055
  291MOL0     O40021  11.414   3.682   1.502 -0.5369  0.1027  0.0485
  291MOL0     C40022  11.414   3.668   1.625 -0.1128 -0.3193  0.1294
  291MOL0     O40023  11.469   3.754   1.712  0.0778  0.8714  0.6797
  291MOL0     C40024  11.511   3.876   1.677  0.3428 -0.0640 -0.4052
  291MOL0     C40025  11.420   3.983   1.650  0.3639 -0.5187  0.3499
  291MOL0     C40026  11.466   4.110   1.629  0.7870 -0.4334 -0.0420
  291MOL0     C40027  11.606   4.139   1.630  0.6247 -0.1495 -0.1832
  291MOL0     O40028  11.666   4.263   1.615 -0.0762  0.2314  0.1243
  291MOL0     C40029  11.587   4.378   1.623  0.9968 -0.0114 -0.5620
  291MOL0     C40030  11.670   4.497   1.685  0.4189 -0.0054  0.1476
  291MOL0     C40031  11.592   4.599   1.768 -0.9161 -0.2756  0.4240
  291MOL0     C40032  11.690   4.694   1.821  0.2328 -0.1884 -0.5476
  291MOL0     C40033  11.626   4.821   1.878 -0.3214 -0.8700 -0.4330
  291MOL0     C40034  11.531   4.805   1.997 -0.1938 -0.1607  0.5849
  291MOL0     C40035  11.521   4.939   2.080  0.1043  0.6986  1.0787
  291MOL0     C40036  11.455   4.919   2.226 -0.5639  0.1742 -0.4668
  291MOL0     N40037  11.546   4.834   2.309 -1.0394  0.4758  0.4436
  291MOL0     C40038  11.672   4.872   2.354  0.9610  0.0182 -0.0691
  291MOL0     C40039  11.720   4.771   2.425  0.9199 -0.3056 -0.1915
  291MOL0     C40040  11.852   4.756   2.484  0.6028 -0.0783  0.6597
  291MOL0     C40041  11.849   4.744   2.635  0.0569  0.5068  0.3430
  291MOL0     C40042  11.996   4.738   2.680  0.5428  0.3517 -0.3687
  291MOL0     C40043  11.998   4.708   2.835 -0.1339  0.3671  0.3183
  291MOL0     O40044  12.120   4.648   2.858  0.4369 -0.3543 -0.0351
  291MOL0     C40045  12.163   4.620   2.981  0.3981 -0.5131  0.0921
  291MOL0     C40046  12.093   4.639   3.102  0.2416 -0.6095 -0.1689
  291MOL0     C40047  12.161   4.624   3.223  0.1469 -0.3298  1.1550
  291MOL0     C40048  12.101   4.677   3.353  0.1240 -0.5134 -1.3100
  291MOL0     C40049  12.296   4.568   3.218  0.1504  0.1864 -0.1378
  291MOL0     C40050  12.379   4.541   3.335  0.2671 -0.0317  0.3574
  291MOL0     O40051  12.511   4.545   3.308 -0.3794  0.3970 -0.3843
  291MOL0     C40052  12.596   4.468   3.380 -0.1858 -0.4416 -0.5965
  291MOL0     C40053  12.589   4.392   3.502 -0.8185  0.7047  0.3353
  291MOL0     C40054  12.705   4.320   3.538  0.4810  1.1190  0.5916
  291MOL0     C40055  12.832   4.334   3.473  0.8197 -0.1990  0.2662
  291MOL0     O40056  12.949   4.296   3.528  0.1459  0.1540  0.2042
  291MOL0     C40057  12.950   4.205   3.635 -0.1986  0.3594 -0.0075
  291MOL0     C40058  13.090   4.160   3.669  0.3948  0.1788 -0.0811
  291MOL0     C40059  13.168   4.274   3.744 -0.0671 -0.1590  0.1552
  291MOL0     C40060  13.281   4.211   3.821 -0.5789  0.6400  0.0304
  291MOL0     C40061  13.382   4.141   3.727 -0.7874  0.5512 -0.0072
  291MOL0     C40062  13.496   4.077   3.809  0.4987  0.3167  1.2098
  291MOL0     C40063  13.569   3.980   3.716 -0.3382 -0.2733 -0.2822
  291MOL0     C40064  13.655   4.045   3.610  0.1782 -0.5975  0.4240
  291MOL0    Cl40065  13.821   4.112   3.665  0.1676 -0.0850  0.3146
  291MOL0     C40066  12.844   4.418   3.363  0.2277  0.4234  0.0047
  291MOL0     C40067  12.725   4.481   3.318  0.1594  0.4246  0.7533
  291MOL0     O40068  12.327   4.520   3.449  0.1349  0.1860  0.1028
  291MOL0     C40069  12.358   4.537   3.094 -0.1177 -0.0804  0.8013
  291MOL0     C40070  12.292   4.567   2.982 -0.7448 -0.3900  0.6616
  291MOL0     N40071  11.621   4.674   2.422  0.8350  0.7476 -0.3967
  291MOL0     N40072  11.517   4.711   2.354  0.1968 -0.0403  0.4515
  291MOL0     C40073  11.690   4.033   1.662 -0.1572  0.6154  0.6764
  291MOL0     C40074  11.644   3.899   1.670 -0.0011 -0.7753 -1.0661
  291MOL0     C40075  11.346   3.544   1.679  0.2753 -0.2677 -0.4013
  291MOL0     C40076  11.286   3.563   1.808  0.2194  1.0765  0.0396
  291MOL0     C40077  11.220   3.449   1.865 -0.3760 -1.2007  2.0639
  291MOL0     C40078  11.209   3.324   1.805 -0.2507  0.0616 -0.2433
  291MOL0     O40079  11.159   3.214   1.876  0.3327  0.6736  0.2367
  291MOL0     C40080  11.152   3.088   1.803 -0.1827 -0.2886  0.5041
  291MOL0     C40081  11.062   2.988   1.875  0.3191 -1.0281  1.8254
  291MOL0     C40082  11.139   2.924   1.986  0.9250  0.3217  0.5128
  291MOL0     C40083  11.041   2.857   2.082 -0.2453  0.3163 -0.1132
  291MOL0     C40084  10.961   2.943   2.163  0.2078  0.7577  0.9186
  291MOL0     C40085  10.899   3.017   2.229 -0.1604  1.1200  0.2951
  291MOL0     C40086  11.262   3.314   1.669 -0.0314 -0.6511  0.2927
  291MOL0     C40087  11.338   3.421   1.612  0.4089  0.5200  0.4534
  291MOL0     C40088  11.383   3.400   1.465  0.3364  0.4142  0.7175
  291MOL0     H40089  11.314   3.961   1.641  0.0547  1.7589 -3.9269
  291MOL0     H40090  11.403   4.194   1.602  3.3720  1.7897  0.4564
  291MOL0     H40091  11.498   4.366   1.685  0.6303 -0.2432 -1.1202
  291MOL0     H40092  11.540   4.413   1.531 -2.4673  2.1438  1.7926
  291MOL0     H40093  11.757   4.455   1.736  1.8404  1.2365 -1.1510
  291MOL0     H40094  11.721   4.558   1.610  0.2852  1.5906  1.3052
  291MOL0     H40095  11.512   4.652   1.716 -2.0702 -1.4146  0.9838
  291MOL0     H40096  11.535   4.548   1.846 -1.1082 -0.6293  0.0557
  291MOL0     H40097  11.754   4.648   1.897  0.5496  1.0257 -0.0690
  291MOL0     H40098  11.749   4.734   1.738 -1.2015  0.0487 -1.4897
  291MOL0     H40099  11.573   4.882   1.805 -0.3276  0.3345  0.5507
  291MOL0     H40100  11.713   4.877   1.913  0.7716 -3.0540  0.5679
  291MOL0     H40101  11.429   4.782   1.965  0.4856 -0.8499 -1.2584
  291MOL0     H40102  11.569   4.723   2.059 -1.6520  0.1931  1.9831
  291MOL0     H40103  11.465   5.018   2.028 -0.0511 -0.1805 -0.1160
  291MOL0     H40104  11.623   4.975   2.095  0.8016 -0.6093 -0.2821
  291MOL0     H40105  11.453   5.017   2.275  2.1664 -0.0648  0.3280
  291MOL0     H40106  11.354   4.878   2.222 -0.2038 -0.6473 -1.8952
  291MOL0     H40107  11.707   4.973   2.339 -0.4703  0.7199  1.1149
  291MOL0     H40108  11.905   4.848   2.456  0.9414 -0.3018  0.5458
  291MOL0     H40109  11.904   4.671   2.437  1.8500  1.3470 -0.6943
  291MOL0     H40110  11.806   4.836   2.677 -1.4654  0.7365 -1.6001
  291MOL0     H40111  11.787   4.661   2.669  1.0973 -0.9382 -1.1637
  291MOL0     H40112  12.042   4.653   2.630 -1.5486 -2.6808  2.4465
  291MOL0     H40113  12.050   4.830   2.656 -0.7784  0.6680 -2.3197
  291MOL0     H40114  11.992   4.797   2.898 -2.4288 -1.2637  2.6141
  291MOL0     H40115  11.915   4.638   2.851  1.0305 -1.3607 -0.7432
  291MOL0     H40116  11.989   4.669   3.108  0.3015 -0.5400  0.6009
  291MOL0     H40117  12.174   4.737   3.409 -2.8892  1.8734  0.3136
  291MOL0     H40118  12.065   4.596   3.417  0.9113  0.4303  0.3952
  291MOL0     H40119  12.022   4.749   3.336  0.4504  0.6701  1.6446
  291MOL0     H40120  12.500   4.383   3.564 -2.4921 -1.3332 -2.1687
  291MOL0     H40121  12.697   4.262   3.630  0.9230 -0.8673 -0.5697
  291MOL0     H40122  12.910   4.262   3.719 -0.6951  2.2879 -1.4587
  291MOL0     H40123  12.891   4.118   3.605 -1.3995  1.3534 -0.6617
  291MOL0     H40124  13.076   4.084   3.747  0.5564 -1.0008 -1.1786
  291MOL0     H40125  13.143   4.116   3.584  3.0070 -1.0926  2.0305
  291MOL0     H40126  13.105   4.330   3.813 -0.6015  2.5716 -2.3635
  291MOL0     H40127  13.211   4.351   3.679  2.5108 -0.3703  1.4843
  291MOL0     H40128  13.241   4.142   3.896 -0.3543 -0.2787 -0.6793
  291MOL0     H40129  13.340   4.282   3.879  1.3956 -1.8096  1.2040
  291MOL0     H40130  13.337   4.056   3.675 -1.0886 -0.0325  1.1724
  291MOL0     H40131  13.416   4.206   3.645 -1.1095 -1.9119 -2.2273
  291MOL0     H40132  13.453   4.022   3.893 -0.0242  2.2770  2.2927
  291MOL0     H40133  13.564   4.150   3.853 -0.9210  2.1894  0.4504
  291MOL0     H40134  13.491   3.911   3.681 -2.6471  1.0836  1.8965
  291MOL0     H40135  13.634   3.916   3.776  0.8217  2.3657  1.4463
  291MOL0     H40136  13.609   4.124   3.550  0.9989 -0.2923  0.1821
  291MOL0     H40137  13.671   3.972   3.529 -3.4483 -3.3126  1.8776
  291MOL0     H40138  12.940   4.438   3.318  0.2505  1.0518  0.3210
  291MOL0     H40139  12.735   4.527   3.221  1.4796 -3.3280 -1.0682
  291MOL0     H40140  12.459   4.496   3.089  0.1891  0.7050  0.3364
  291MOL0     H40141  12.336   4.548   2.885 -0.0417  1.2524  0.6270
  291MOL0     H40142  11.796   4.048   1.680  0.8387 -1.4980 -2.6259
  291MOL0     H40143  11.706   3.814   1.694  0.2799  0.1643  1.9214
  291MOL0     H40144  11.281   3.663   1.851  0.5687 -0.6910  4.7643
  291MOL0     H40145  11.170   3.476   1.957 -0.9614  0.5578  1.2759
  291MOL0     H40146  11.109   3.094   1.703 -1.6945  0.0214  1.1450
  291MOL0     H40147  11.255   3.052   1.792 -0.6270 -0.7621 -3.4964
  291MOL0     H40148  11.035   2.915   1.798  3.7610 -0.1744 -0.4576
  291MOL0     H40149  10.973   3.038   1.913  0.9580  1.0421  0.7036
  291MOL0     H40150  11.207   2.843   1.960 -1.7915 -2.4921  1.4587
  291MOL0     H40151  11.199   2.997   2.041  2.4376  0.1723 -0.8917
  291MOL0     H40152  11.100   2.795   2.151 -0.3055  0.1126 -0.2438
  291MOL0     H40153  10.962   2.802   2.031 -0.9482  2.3559 -1.2983
  291MOL0     H40154  10.837   3.077   2.291  0.7111  0.4913  1.8308
  291MOL0     H40155  11.260   3.221   1.615  1.2890 -0.4782 -0.1009
  291MOL0     H40156  11.330   3.461   1.390  1.7957 -1.3606 -1.9116
  291MOL0     H40157  11.489   3.418   1.443  0.6192 -0.6897  1.1475
  291MOL0     H40158  11.374   3.295   1.436  0.1180  0.0051  2.2098
  292MOL0     O40159   5.042   9.133   1.465  0.1816  0.6431  0.4940
  292MOL0     C40160   4.980   9.154   1.364  0.2020 -0.1364  0.3010
  292MOL0     O40161   5.034   9.164   1.241 -0.2047 -0.9671 -0.0558
  292MOL0     C40162   5.168   9.184   1.220 -0.6937  0.7579 -0.2802
  292MOL0     C40163   5.209   9.286   1.137 -0.2919  0.2395 -0.6642
  292MOL0     C40164   5.339   9.323   1.130  0.2678  0.6486 -0.5313
  292MOL0     C40165   5.443   9.244   1.188  0.7964  0.0017  1.1100
  292MOL0     O40166   5.575   9.280   1.153  0.2309  0.8261 -0.5614
  292MOL0     C40167   5.659   9.260   1.265 -0.5046 -0.0792  0.8801
  292MOL0     C40168   5.800   9.301   1.226  0.0398  0.4971 -0.3797
  292MOL0     C40169   5.893   9.288   1.348 -0.8356 -0.2808  0.9801
  292MOL0     C40170   6.043   9.313   1.310 -0.5374 -0.4807 -0.2026
  292MOL0     C40171   6.117   9.282   1.443  0.3498  0.3768 -0.2642
  292MOL0     C40172   6.270   9.258   1.438 -0.2558  0.5962 -0.4755
  292MOL0     C40173   6.353   9.250   1.574  0.0561 -0.4802  0.3374
  292MOL0     C40174   6.490   9.204   1.539 -0.2268 -0.1565  0.5686
  292MOL0     N40175   6.567   9.173   1.652  1.1359  0.7374 -0.8061
  292MOL0     C40176   6.604   9.261   1.743  0.4395 -0.2446 -0.5345
  292MOL0     C40177   6.665   9.179   1.831 -0.1594  0.6838  0.1323
  292MOL0     C40178   6.746   9.226   1.955  0.2921 -0.1421  0.1669
  292MOL0     C40179   6.779   9.128   2.064 -0.4043 -0.2190  0.6661
  292MOL0     C40180   6.659   9.081   2.142  0.3528  0.0768  0.2320
  292MOL0     C40181   6.695   8.981   2.248  0.6068  0.7149  0.1411
  292MOL0     O40182   6.749   9.048   2.356 -0.0167  0.0228 -0.1031
  292MOL0     C40183   6.886   9.046   2.384 -0.3624 -0.2667  0.1546
  292MOL0     C40184   6.933   9.139   2.478  0.2232  0.5532 -0.3939
  292MOL0     C40185   7.067   9.158   2.517  0.9152  0.1475 -0.0261
  292MOL0     C40186   7.088   9.270   2.617  0.0743 -0.3986  0.9117
  292MOL0     C40187   7.162   9.062   2.469 -0.2456 -0.1459 -0.1486
  292MOL0     C40188   7.307   9.068   2.501 -0.7536  0.5257 -1.1203
  292MOL0     O40189   7.373   8.944   2.489  0.3996 -0.4559 -0.0876
  292MOL0     C40190   7.491   8.920   2.553  0.1401 -0.3991 -0.4738
  292MOL0     C40191   7.499   8.927   2.691  0.6255  0.1174  0.5906
  292MOL0     C40192   7.620   8.908   2.757 -0.2725 -0.1625 -0.3231
  292MOL0     C40193   7.736   8.899   2.680 -0.2427  0.6776  0.3063
  292MOL0     O40194   7.861   8.896   2.739 -0.3449 -0.0182  0.4442
  292MOL0     C40195   7.887   8.847   2.871 -0.0838 -0.0303 -0.3785
  292MOL0     C40196   8.004   8.936   2.916 -0.0832  0.4806  0.4856
  292MOL0     C40197   8.011   8.921   3.071 -0.5200 -0.3908 -0.4656
  292MOL0     C40198   8.059   8.770   3.101 -0.2650  0.5127 -0.0337
  292MOL0     C40199   8.117   8.769   3.251 -0.1436  0.7434  0.0001
  292MOL0     C40200   8.007   8.776   3.352 -0.7982 -0.2790  0.8634
  292MOL0     C40201   8.048   8.731   3.490  0.0608 -0.4530 -0.3762
  292MOL0     C40202   8.112   8.846   3.556 -0.4744 -1.4010 -0.3927
  292MOL0    Cl40203   8.182   8.776   3.707  0.4083  0.1612 -0.4746
  292MOL0     C40204   7.731   8.890   2.538 -0.6373 -0.1204 -0.2427
  292MOL0     C40205   7.603   8.899   2.477  0.2316 -0.2631  0.2762
  292MOL0     O40206   7.362   9.169   2.544 -0.2828  0.0330  0.6102
  292MOL0     C40207   7.116   8.957   2.384  0.2898 -0.8107 -0.2835
  292MOL0     C40208   6.976   8.948   2.353 -0.7461  0.2575 -0.4213
  292MOL0     N40209   6.661   9.045   1.792  0.7970  0.0236 -0.6528
  292MOL0     N40210   6.606   9.047   1.675  0.4868 -0.1202  0.8350
  292MOL0     C40211   5.404   9.128   1.262  0.4740  0.3733 -0.6955
  292MOL0     C40212   5.271   9.102   1.280 -0.4272  0.6034  0.6664
  292MOL0     C40213   4.832   9.170   1.366  0.3704  0.1487 -0.3349
  292MOL0     C40214   4.757   9.161   1.242  0.3427  0.7501  0.1312
  292MOL0     C40215   4.617   9.186   1.242 -0.3498  0.4354  0.4635
  292MOL0     C40216   4.548   9.226   1.355 -1.1185  0.0195 -0.0174
  292MOL0     O40217   4.410   9.246   1.372 -0.4251  0.8071 -0.3666
  292MOL0     C40218   4.327   9.218   1.259  0.8442  0.1322 -0.0196
  292MOL0     C40219   4.190   9.259   1.304  0.6387  0.4227  0.6506
  292MOL0     C40220   4.131   9.169   1.408 -0.9411  0.7449 -0.5372
  292MOL0     C40221   4.105   9.030   1.354 -0.3394 -0.6760  0.0181
  292MOL0     C40222   3.985   8.978   1.424  0.0826 -0.0563 -0.2989
  292MOL0     C40223   3.883   8.936   1.481 -0.0731  0.0518 -0.1709
  292MOL0     C40224   4.623   9.228   1.475 -0.5844 -0.5691  0.5772
  292MOL0     C40225   4.762   9.209   1.483 -0.2880  0.0480  0.1806
  292MOL0     C40226   4.829   9.226   1.620 -0.0772  0.6543 -0.4676
  292MOL0     H40227   5.128   9.341   1.090 -0.0040  2.6979  1.5182
  292MOL0     H40228   5.382   9.401   1.068  0.4106  2.2888  1.4984
  292MOL0     H40229   5.673   9.155   1.292 -1.4911 -0.4401  0.0501
  292MOL0     H40230   5.615   9.313   1.351 -2.8896  1.3165 -1.0461
  292MOL0     H40231   5.843   9.239   1.147 -1.1198 -2.5121  1.1843
  292MOL0     H40232   5.806   9.405   1.192  3.4109  0.2462 -0.9032
  292MOL0     H40233   5.860   9.360   1.424  1.8846  2.6628 -0.3758
  292MOL0     H40234   5.887   9.186   1.386  1.4562 -0.8327  0.0245
  292MOL0     H40235   6.089   9.256   1.229 -2.4896 -1.3730 -0.7455
  292MOL0     H40236   6.053   9.419   1.283  0.9728 -1.0549 -2.1662
  292MOL0     H40237   6.071   9.195   1.490 -0.3016  0.5276 -0.6103
  292MOL0     H40238   6.104   9.365   1.513 -3.2169 -1.4622  1.4950
  292MOL0     H40239   6.293   9.167   1.382  0.8553 -0.3880  1.4605
  292MOL0     H40240   6.306   9.344   1.380 -0.5358  1.9288  1.2222
  292MOL0     H40241   6.299   9.173   1.629 -0.7351  1.0111  1.7406
  292MOL0     H40242   6.348   9.346   1.626 -0.6253  0.0968 -0.7381
  292MOL0     H40243   6.473   9.112   1.482  0.5850 -0.2696  0.5015
  292MOL0     H40244   6.536   9.280   1.474 -1.8598  2.4625  2.2627
  292MOL0     H40245   6.605   9.369   1.748  0.0844 -0.2836  0.7286
  292MOL0     H40246   6.685   9.306   1.996  0.6939  1.9912 -3.0709
  292MOL0     H40247   6.839   9.270   1.920 -0.4402  0.9301 -0.4659
  292MOL0     H40248   6.818   9.040   2.013 -2.7663 -0.4186 -0.9769
  292MOL0     H40249   6.848   9.180   2.132  2.0734 -0.9556 -1.1689
  292MOL0     H40250   6.619   9.158   2.209  1.8378 -0.7673  2.1907
  292MOL0     H40251   6.583   9.028   2.083  3.3484 -3.0635 -1.1783
  292MOL0     H40252   6.608   8.928   2.287  2.2930 -1.9318  0.6048
  292MOL0     H40253   6.754   8.896   2.211 -1.7377 -0.2469 -1.6350
  292MOL0     H40254   6.859   9.214   2.505 -1.3771 -0.7990 -0.8297
  292MOL0     H40255   7.186   9.315   2.604  1.4346 -3.4391 -0.2639
  292MOL0     H40256   7.090   9.227   2.717 -0.6920  0.3232  1.2516
  292MOL0     H40257   7.013   9.350   2.608  1.6872  0.9519 -1.7835
  292MOL0     H40258   7.410   8.946   2.750  2.4317  0.0239  3.5002
  292MOL0     H40259   7.611   8.926   2.863  0.8872  2.6233 -0.5971
  292MOL0     H40260   7.796   8.859   2.932  0.3158 -1.7687  0.6424
  292MOL0     H40261   7.912   8.741   2.883 -2.7193 -0.5450  1.9479
  292MOL0     H40262   8.102   8.910   2.875 -0.1901 -0.1312  0.6057
  292MOL0     H40263   7.979   9.038   2.885  0.9148  1.2818  2.1463
  292MOL0     H40264   7.915   8.935   3.123 -0.5872 -0.3076 -0.6110
  292MOL0     H40265   8.072   8.993   3.126 -2.6073 -0.4160  2.1141
  292MOL0     H40266   8.140   8.740   3.033  0.2997 -3.1441  2.0229
  292MOL0     H40267   7.970   8.708   3.087 -1.7014  1.7396  2.8730
  292MOL0     H40268   8.183   8.682   3.259 -1.1008 -0.4425 -3.3499
  292MOL0     H40269   8.188   8.852   3.258 -1.0595  1.7303 -1.7080
  292MOL0     H40270   7.929   8.706   3.319  0.5007 -0.7726 -1.3159
  292MOL0     H40271   7.972   8.880   3.345 -0.1715 -0.1777 -1.5591
  292MOL0     H40272   8.128   8.657   3.483  2.5342  1.9937  0.2438
  292MOL0     H40273   7.959   8.700   3.545 -0.3364 -1.6824 -1.6630
  292MOL0     H40274   8.043   8.925   3.585 -0.0484  0.4465 -3.8180
  292MOL0     H40275   8.194   8.893   3.501 -2.6834 -0.2436 -2.8971
  292MOL0     H40276   7.823   8.872   2.482 -0.8565 -3.9192  0.3119
  292MOL0     H40277   7.584   8.907   2.371  0.9523 -0.8910  0.0937
  292MOL0     H40278   7.182   8.880   2.344  1.1779 -1.3878  2.1388
  292MOL0     H40279   6.951   8.864   2.289 -1.1237  0.6563 -0.8031
  292MOL0     H40280   5.478   9.068   1.315  0.3388  2.9999  2.8282
  292MOL0     H40281   5.232   9.017   1.336 -2.7047  0.5466 -0.8604
  292MOL0     H40282   4.821   9.140   1.157  0.7691  3.1735 -0.1995
  292MOL0     H40283   4.562   9.169   1.150 -0.3929 -2.9601  0.9865
  292MOL0     H40284   4.361   9.277   1.173  2.0537  0.2458  0.5191
  292MOL0     H40285   4.329   9.112   1.231 -2.0442  0.9325 -4.2307
  292MOL0     H40286   4.134   9.247   1.210 -1.8965 -3.3269  2.3836
  292MOL0     H40287   4.199   9.363   1.336 -1.8320  0.8204  0.2556
  292MOL0     H40288   4.194   9.145   1.494 -0.5420 -0.5545 -1.1625
  292MOL0     H40289   4.038   9.217   1.441 -0.4534  0.7333  0.9392
  292MOL0     H40290   4.190   8.962   1.365 -1.1692 -1.7727 -0.2302
  292MOL0     H40291   4.086   9.042   1.247 -2.3251 -0.5628  0.3588
  292MOL0     H40292   3.794   8.909   1.533  1.1074  0.2170  2.0956
  292MOL0     H40293   4.559   9.261   1.556  0.6921  0.9999  0.9929
  292MOL0     H40294   4.762   9.241   1.705 -1.9147  1.5913 -2.0142
  292MOL0     H40295   4.886   9.136   1.645  0.6000  1.1391 -0.2280
  292MOL0     H40296   4.903   9.307   1.626  2.1733 -1.3613  2.8972
  293MOL0     O40297   9.427   3.372   9.825 -0.0470 -0.3927  0.3940
  293MOL0     C40298   9.340   3.348   9.747  0.3896 -0.0875  0.1049
  293MOL0     O40299   9.328   3.232   9.668  0.5454  0.6019  0.6384
  293MOL0     C40300   9.432   3.153   9.617  0.2722 -0.6631 -0.1623
  293MOL0     C40301   9.400   3.027   9.569 -0.5610  0.4310  0.0909
  293MOL0     C40302   9.502   2.933   9.537 -0.4049 -0.0792 -0.2074
  293MOL0     C40303   9.642   2.961   9.559  0.1107 -0.2285  0.4832
  293MOL0     O40304   9.738   2.866   9.532  0.3896 -0.0704 -0.0613
  293MOL0     C40305   9.873   2.877   9.571  0.0499  0.0341  0.2622
  293MOL0     C40306   9.962   2.751   9.565  0.0220  0.0585 -0.2275
  293MOL0     C40307   9.961   2.702   9.422  0.9535 -0.6137  0.0707
  293MOL0     C40308  10.082   2.608   9.399  0.2226  0.0345  0.5900
  293MOL0     C40309  10.059   2.527   9.276  1.3420  0.5232  0.1329
  293MOL0     C40310  10.156   2.412   9.254 -0.5350 -0.2599  0.1898
  293MOL0     C40311  10.297   2.469   9.220 -0.6953  0.1427 -0.3633
  293MOL0     C40312  10.400   2.354   9.196  1.7295 -0.8379  0.0289
  293MOL0     N40313  10.529   2.406   9.187 -0.2148 -0.1354 -0.1296
  293MOL0     C40314  10.564   2.524   9.124  0.5494 -0.1752 -0.3775
  293MOL0     C40315  10.698   2.537   9.150 -0.1229  0.4803  0.9985
  293MOL0     C40316  10.784   2.649   9.119  0.0177 -0.3847  0.1576
  293MOL0     C40317  10.861   2.621   8.988  0.3965  0.0701  0.1219
  293MOL0     C40318  10.999   2.556   9.017  0.5829  0.3437 -0.7334
  293MOL0     C40319  11.101   2.570   8.908 -0.1951  0.4143 -0.0656
  293MOL0     O40320  11.192   2.457   8.901 -0.0798  1.3857  0.5043
  293MOL0     C40321  11.251   2.435   8.779 -0.1446 -0.2466  0.1196
  293MOL0     C40322  11.274   2.304   8.748 -0.5811  0.0563 -0.8082
  293MOL0     C40323  11.327   2.264   8.627  0.8227  0.0329  0.4701
  293MOL0     C40324  11.354   2.113   8.616 -0.4784  1.4194 -1.0914
  293MOL0     C40325  11.365   2.360   8.531 -0.7738 -0.8633  0.4606
  293MOL0     C40326  11.453   2.340   8.408  0.4180  0.0495  0.1204
  293MOL0     O40327  11.446   2.420   8.300 -0.6598  0.6674 -0.2667
  293MOL0     C40328  11.501   2.379   8.177  0.5432  0.8816  1.2877
  293MOL0     C40329  11.559   2.473   8.087 -0.4377 -0.9333 -0.5377
  293MOL0     C40330  11.599   2.441   7.960 -0.2513 -0.7434  0.4932
  293MOL0     C40331  11.583   2.315   7.908 -0.1169  0.5967 -0.6010
  293MOL0     O40332  11.627   2.292   7.780  0.5244  0.2989  0.8107
  293MOL0     C40333  11.566   2.192   7.711  0.1358  0.6522 -0.0726
  293MOL0     C40334  11.635   2.161   7.581 -0.1965  0.5264  0.5469
  293MOL0     C40335  11.775   2.098   7.604 -0.2417 -0.0204 -0.3190
  293MOL0     C40336  11.847   2.056   7.475 -0.1983  0.2421 -0.2360
  293MOL0     C40337  11.969   1.967   7.502  0.8148  0.0582 -0.3465
  293MOL0     C40338  12.019   1.908   7.367  0.5420  0.0433  0.1018
  293MOL0     C40339  12.118   1.805   7.390  0.1912 -0.6590 -0.1850
  293MOL0     C40340  12.248   1.862   7.452 -0.4098 -0.3911 -0.0928
  293MOL0    Cl40341  12.385   1.746   7.438 -0.0058  0.0514  0.2785
  293MOL0     C40342  11.524   2.220   7.996 -0.7256 -0.3348  0.2648
  293MOL0     C40343  11.485   2.249   8.128 -0.0564 -0.6798  0.8752
  293MOL0     O40344  11.519   2.243   8.413 -0.7197  0.2100  0.8396
  293MOL0     C40345  11.328   2.494   8.548  0.9639  0.1582 -0.9886
  293MOL0     C40346  11.280   2.534   8.676 -0.3605 -0.4858  0.3664
  293MOL0     N40347  10.752   2.433   9.221 -0.0227 -0.2311  0.2640
  293MOL0     N40348  10.640   2.362   9.248 -0.1740 -0.1541 -0.6593
  293MOL0     C40349   9.667   3.093   9.598  0.6530  0.8527 -0.0553
  293MOL0     C40350   9.568   3.184   9.635  0.2639 -0.0982 -0.1498
  293MOL0     C40351   9.242   3.448   9.734 -0.7504 -0.3770  0.0774
  293MOL0     C40352   9.110   3.401   9.740 -0.5560  0.6039  0.1845
  293MOL0     C40353   9.002   3.483   9.709  0.0339  0.1057 -0.5123
  293MOL0     C40354   9.030   3.621   9.686  0.3314 -1.2139 -0.1428
  293MOL0     O40355   8.931   3.707   9.660 -0.3779  0.3998  0.5722
  293MOL0     C40356   8.863   3.685   9.533  0.2173 -0.5721 -0.0579
  293MOL0     C40357   8.726   3.736   9.551  0.2766 -0.3041 -0.3135
  293MOL0     C40358   8.659   3.783   9.421  0.1272  0.1211 -0.8656
  293MOL0     C40359   8.636   3.939   9.414 -1.2478  0.0047  0.7604
  293MOL0     C40360   8.764   3.997   9.369 -0.7169  0.5699 -0.0638
  293MOL0     C40361   8.874   4.027   9.325  0.6554 -0.4918  0.4717
  293MOL0     C40362   9.169   3.673   9.696 -0.4654 -0.1263 -0.3702
  293MOL0     C40363   9.273   3.588   9.719  0.4756 -0.1301 -0.2019
  293MOL0     C40364   9.407   3.637   9.701  0.1461  0.5546 -0.2323
  293MOL0     H40365   9.296   3.007   9.545  0.0599 -1.4849 -1.2719
  293MOL0     H40366   9.480   2.831   9.505  1.9211 -0.3013 -1.3198
  293MOL0     H40367   9.865   2.904   9.676 -2.1274  0.1645  0.0983
  293MOL0     H40368   9.920   2.964   9.523  2.2773  1.1083  3.9662
  293MOL0     H40369  10.064   2.770   9.598  1.0280  0.2220 -3.0965
  293MOL0     H40370   9.916   2.674   9.628 -0.6142 -0.3194 -1.1385
  293MOL0     H40371   9.867   2.650   9.402  0.9928 -1.1853  1.3049
  293MOL0     H40372   9.981   2.787   9.356  1.7658 -4.0383 -4.5469
  293MOL0     H40373  10.176   2.665   9.391  1.4146 -1.7627  1.1558
  293MOL0     H40374  10.085   2.546   9.489  1.0954 -0.0935  0.4894
  293MOL0     H40375  10.040   2.583   9.184 -1.3940 -3.2965 -1.9777
  293MOL0     H40376   9.959   2.482   9.286  1.1097  1.2329  1.0767
  293MOL0     H40377  10.152   2.337   9.334 -1.3853  0.7481  1.1274
  293MOL0     H40378  10.126   2.360   9.163 -1.1829 -0.9099  0.7570
  293MOL0     H40379  10.330   2.528   9.307 -3.1617  2.3494 -0.7691
  293MOL0     H40380  10.286   2.540   9.138 -1.0006  0.8805  0.2962
  293MOL0     H40381  10.402   2.294   9.287  3.0112 -0.7907  0.0476
  293MOL0     H40382  10.376   2.291   9.110  1.9380 -1.8188  0.6707
  293MOL0     H40383  10.494   2.587   9.070  1.0433 -0.6069 -1.5534
  293MOL0     H40384  10.855   2.668   9.199 -1.5721 -2.4570  2.2135
  293MOL0     H40385  10.718   2.736   9.114  1.9237  1.0626 -1.5281
  293MOL0     H40386  10.802   2.563   8.916  0.2032  0.8983 -0.3979
  293MOL0     H40387  10.889   2.714   8.938 -0.3682 -0.4462 -1.3030
  293MOL0     H40388  11.046   2.599   9.106 -1.4321  1.5908 -0.2113
  293MOL0     H40389  10.981   2.450   9.036 -0.6242  0.2376 -2.2651
  293MOL0     H40390  11.042   2.563   8.816  1.8051  1.5329 -1.5019
  293MOL0     H40391  11.138   2.672   8.892  2.4677 -0.7200 -1.7059
  293MOL0     H40392  11.257   2.230   8.827  1.2565  0.6558  0.2182
  293MOL0     H40393  11.449   2.093   8.666  0.4495 -0.4120 -3.4020
  293MOL0     H40394  11.353   2.084   8.510 -1.4494 -2.6111 -0.1455
  293MOL0     H40395  11.281   2.054   8.672 -1.7613  2.4330 -1.6403
  293MOL0     H40396  11.564   2.575   8.122 -1.1825 -0.6885 -1.1310
  293MOL0     H40397  11.651   2.524   7.913  1.3037 -0.5476  2.4132
  293MOL0     H40398  11.564   2.095   7.760 -2.0443  0.0879 -1.1374
  293MOL0     H40399  11.466   2.218   7.676  0.1464 -0.8232 -1.3072
  293MOL0     H40400  11.573   2.095   7.520 -1.6542  1.5163  0.9014
  293MOL0     H40401  11.649   2.253   7.524  1.3734 -0.5355 -0.8861
  293MOL0     H40402  11.759   2.008   7.664 -2.3501 -1.3645 -2.7405
  293MOL0     H40403  11.833   2.175   7.656 -1.0394  1.8356 -2.0261
  293MOL0     H40404  11.877   2.144   7.417 -1.6755  1.0102  0.1081
  293MOL0     H40405  11.775   1.999   7.415 -1.1658  1.4559 -0.2876
  293MOL0     H40406  12.046   2.030   7.545  1.8069 -0.8903 -0.6732
  293MOL0     H40407  11.949   1.895   7.582  0.9574  0.3759 -0.0249
  293MOL0     H40408  12.048   1.998   7.312  0.7633  1.2894  2.1652
  293MOL0     H40409  11.934   1.862   7.314 -1.4805  2.1496  1.3150
  293MOL0     H40410  12.136   1.754   7.295 -1.7695 -0.1414 -0.8865
  293MOL0     H40411  12.071   1.727   7.452 -2.3343 -0.0507 -1.2316
  293MOL0     H40412  12.222   1.895   7.553  0.1380  0.8409 -0.3394
  293MOL0     H40413  12.284   1.953   7.404 -1.0974 -0.2233 -0.3074
  293MOL0     H40414  11.532   2.116   7.965  1.1451 -0.4998  1.2210
  293MOL0     H40415  11.445   2.169   8.188 -3.4562  0.4925  0.4094
  293MOL0     H40416  11.346   2.572   8.475  0.3729  2.3497  1.0838
  293MOL0     H40417  11.287   2.641   8.693  1.1395 -0.4427 -0.3395
  293MOL0     H40418   9.772   3.116   9.613  0.7272  0.0958  0.7156
  293MOL0     H40419   9.608   3.276   9.677  2.6968 -1.3501  0.4868
  293MOL0     H40420   9.095   3.295   9.762 -1.3538  0.7367  0.3223
  293MOL0     H40421   8.905   3.434   9.709  0.7407 -1.4318  1.1905
  293MOL0     H40422   8.911   3.750   9.460  1.8820 -0.7976  0.7943
  293MOL0     H40423   8.859   3.582   9.496 -0.9841 -1.0415  1.2821
  293MOL0     H40424   8.724   3.823   9.617 -0.5651 -0.0425 -0.6735
  293MOL0     H40425   8.667   3.655   9.596 -0.8797 -1.1916 -3.1935
  293MOL0     H40426   8.711   3.759   9.329 -0.3122  1.4072 -1.4755
  293MOL0     H40427   8.560   3.739   9.406 -1.0636  2.3905 -0.1618
  293MOL0     H40428   8.609   3.976   9.513 -1.5827  1.4828  0.1518
  293MOL0     H40429   8.557   3.961   9.342 -0.1179  0.3599 -0.4021
  293MOL0     H40430   8.959   4.079   9.286 -1.1458 -0.4500 -3.9222
  293MOL0     H40431   9.191   3.779   9.686 -2.3331  0.2488 -0.8966
  293MOL0     H40432   9.403   3.747   9.702 -1.6590  0.5114  0.0532
  293MOL0     H40433   9.470   3.614   9.788  1.4259  2.9222 -0.4347
  293MOL0     H40434   9.450   3.599   9.608 -1.0725  1.1684 -1.0652
  294MOL0     O40435   3.013   1.430   6.964  0.2899  0.1595  0.2601
  294MOL0     C40436   3.048   1.320   6.910  0.7678 -0.2523 -0.4838
  294MOL0     O40437   3.032   1.192   6.964  0.2941 -0.0395  0.6626
  294MOL0     C40438   2.995   1.181   7.098 -0.4888  0.0949  0.7876
  294MOL0     C40439   2.877   1.136   7.144  0.1512 -0.7740  0.4277
  294MOL0     C40440   2.853   1.120   7.276 -0.0728 -0.0192 -0.9523
  294MOL0     C40441   2.950   1.145   7.375 -0.1891 -0.2050 -0.8327
  294MOL0     O40442   2.929   1.111   7.504 -0.0148  0.2193 -0.0596
  294MOL0     C40443   2.793   1.073   7.543  0.0524 -0.2190 -0.2032
  294MOL0     C40444   2.783   1.073   7.696  0.8685  0.4345 -0.1436
  294MOL0     C40445   2.787   1.219   7.744 -0.3474 -0.1387  0.8824
  294MOL0     C40446   2.648   1.282   7.731  0.1697  0.0905  0.0125
  294MOL0     C40447   2.648   1.419   7.800 -0.4742  0.7421  0.1356
  294MOL0     C40448   2.503   1.466   7.800 -0.7665 -0.5032 -1.2791
  294MOL0     C40449   2.488   1.610   7.847  0.0818  0.7050  0.3279
  294MOL0     C40450   2.338   1.628   7.830  0.2628 -1.0344 -1.0104
  294MOL0     N40451   2.308   1.768   7.853 -0.5672  0.1935  0.8284
  294MOL0     C40452   2.332   1.846   7.964 -0.0302  0.9977  0.3136
  294MOL0     C40453   2.277   1.966   7.931 -0.1939 -0.4606 -0.3443
  294MOL0     C40454   2.255   2.076   8.020  0.3329 -0.0517 -0.4785
  294MOL0     C40455   2.379   2.166   8.056  0.0223 -0.1286 -0.1668
  294MOL0     C40456   2.332   2.294   8.120 -0.0797 -0.7971  0.6339
  294MOL0     C40457   2.454   2.377   8.184 -0.3712 -0.8746  0.6925
  294MOL0     O40458   2.545   2.413   8.078  0.5876  0.3722  0.2708
  294MOL0     C40459   2.680   2.395   8.103  0.2004  0.8510  0.4067
  294MOL0     C40460   2.737   2.302   8.190  1.0548  0.3662  0.5394
  294MOL0     C40461   2.873   2.303   8.232 -0.5427  0.2934 -0.4279
  294MOL0     C40462   2.924   2.198   8.334 -0.9285  0.3066  0.1029
  294MOL0     C40463   2.962   2.399   8.167 -0.0818 -0.4749  0.8107
  294MOL0     C40464   3.110   2.398   8.174  0.3236  0.2889 -0.5008
  294MOL0     O40465   3.167   2.518   8.139 -0.2643  1.1671  0.1481
  294MOL0     C40466   3.297   2.541   8.135 -0.2818 -1.0724 -0.3381
  294MOL0     C40467   3.340   2.651   8.206  0.2487  0.1127 -0.5283
  294MOL0     C40468   3.466   2.695   8.198 -0.3622 -0.3539  0.0912
  294MOL0     C40469   3.551   2.628   8.105  0.9943 -0.6581 -0.3537
  294MOL0     O40470   3.683   2.658   8.097  0.0774 -0.0130  0.7577
  294MOL0     C40471   3.743   2.765   8.179 -0.2360 -0.0941 -0.3169
  294MOL0     C40472   3.899   2.782   8.172  0.5222  0.2176  0.2792
  294MOL0     C40473   3.947   2.777   8.030 -0.5328 -0.0701  0.4899
  294MOL0     C40474   3.877   2.879   7.934  0.4357 -0.4527 -0.1416
  294MOL0     C40475   3.931   2.891   7.791  0.5658  0.3206  0.4797
  294MOL0     C40476   3.910   2.761   7.714  0.8844 -0.0123 -0.1183
  294MOL0     C40477   3.967   2.745   7.575  0.4952 -0.5219  0.1084
  294MOL0     C40478   4.104   2.807   7.559  0.3583 -0.2600 -1.0617
  294MOL0    Cl40479   4.218   2.720   7.655  0.1205  0.3255  0.1451
  294MOL0     C40480   3.502   2.528   8.027  1.0438  0.3134  0.1225
  294MOL0     C40481   3.384   2.471   8.051  0.4248  0.0281 -0.4560
  294MOL0     O40482   3.163   2.296   8.201 -0.4240  0.5347 -0.5673
  294MOL0     C40483   2.905   2.488   8.072  0.3154 -0.6275  0.3943
  294MOL0     C40484   2.764   2.487   8.042 -0.4352  0.0981  0.1575
  294MOL0     N40485   2.251   1.959   7.793 -0.2737  0.2939 -0.2850
  294MOL0     N40486   2.268   1.844   7.743 -0.6841  0.6059  0.4747
  294MOL0     C40487   3.065   1.190   7.326  0.3577 -0.9996 -0.2470
  294MOL0     C40488   3.085   1.217   7.188 -0.2013 -0.0165 -0.1497
  294MOL0     C40489   3.093   1.317   6.773  0.6564 -0.2850  0.7390
  294MOL0     C40490   3.107   1.190   6.706  0.5410 -0.8240  0.3212
  294MOL0     C40491   3.138   1.182   6.575 -0.0161  0.6327 -0.4863
  294MOL0     C40492   3.125   1.290   6.486 -0.3068 -0.4400 -1.6261
  294MOL0     O40493   3.151   1.281   6.351 -0.0180 -0.5774 -0.3259
  294MOL0     C40494   3.179   1.159   6.285 -0.0281  0.6628  0.3396
  294MOL0     C40495   3.331   1.117   6.293  0.2660 -0.2611 -0.3971
  294MOL0     C40496   3.388   1.040   6.171  0.7434  0.1135 -0.8952
  294MOL0     C40497   3.541   1.052   6.161  0.4436 -0.5933  0.6483
  294MOL0     C40498   3.588   1.178   6.097 -0.1732  0.4517  0.0487
  294MOL0     C40499   3.620   1.291   6.066  0.7021  0.2007 -0.2562
  294MOL0     C40500   3.098   1.412   6.552 -0.5162 -0.5616  0.6982
  294MOL0     C40501   3.104   1.428   6.690 -0.2623 -1.1026  0.1930
  294MOL0     C40502   3.124   1.574   6.734  0.2447  0.4116  0.0287
  294MOL0     H40503   2.806   1.102   7.069  1.9094  0.2708 -1.8473
  294MOL0     H40504   2.763   1.064   7.300  0.8567 -0.6921  1.3160
  294MOL0     H40505   2.768   0.972   7.511  0.5357 -0.8224  1.2419
  294MOL0     H40506   2.720   1.143   7.501 -1.7802 -2.1874 -0.4088
  294MOL0     H40507   2.693   1.026   7.736  1.1636  0.5655  0.6786
  294MOL0     H40508   2.881   1.026   7.713  0.9848  0.3131 -1.0813
  294MOL0     H40509   2.812   1.213   7.851 -1.2195  0.1533  1.1071
  294MOL0     H40510   2.858   1.283   7.690  0.0459 -0.4806  0.9894
  294MOL0     H40511   2.621   1.293   7.626 -0.5054 -0.6018  0.1091
  294MOL0     H40512   2.571   1.217   7.774 -0.3681  1.1307  0.6596
  294MOL0     H40513   2.710   1.485   7.740  0.6049 -2.3382 -2.4263
  294MOL0     H40514   2.690   1.413   7.901  2.2317 -1.5055 -1.0047
  294MOL0     H40515   2.461   1.450   7.701 -0.0602  2.2592 -2.1094
  294MOL0     H40516   2.448   1.404   7.872 -1.8378 -0.6194 -2.1741
  294MOL0     H40517   2.552   1.677   7.790 -1.2743  0.8464 -1.0954
  294MOL0     H40518   2.518   1.624   7.951  0.0795  0.1002  0.4119
  294MOL0     H40519   2.284   1.594   7.741  1.3983  0.0022 -2.1238
  294MOL0     H40520   2.290   1.566   7.907 -1.8952 -0.9485 -2.2280
  294MOL0     H40521   2.383   1.817   8.056 -1.9519  1.1583  1.4855
  294MOL0     H40522   2.214   2.030   8.110  0.4120  1.0636  0.1470
  294MOL0     H40523   2.175   2.139   7.980 -0.0130 -0.3362 -0.2385
  294MOL0     H40524   2.448   2.118   8.127  1.2897 -1.7140 -2.3641
  294MOL0     H40525   2.426   2.186   7.959 -2.2207 -1.4877 -1.6072
  294MOL0     H40526   2.286   2.354   8.040  0.2136 -0.6319  0.5848
  294MOL0     H40527   2.262   2.270   8.200 -1.3270  0.0929 -0.1434
  294MOL0     H40528   2.422   2.476   8.218 -0.8771 -1.3732  1.6887
  294MOL0     H40529   2.506   2.323   8.263 -0.8500 -2.4085  0.0056
  294MOL0     H40530   2.673   2.220   8.221  1.4468  0.7008  2.3261
  294MOL0     H40531   2.972   2.236   8.424 -0.0743  0.8030 -0.5432
  294MOL0     H40532   2.997   2.126   8.295  0.5286  1.6056  0.3313
  294MOL0     H40533   2.832   2.143   8.358 -0.5726 -1.4591 -2.2165
  294MOL0     H40534   3.275   2.714   8.265 -1.5974 -0.2003 -2.1249
  294MOL0     H40535   3.502   2.775   8.262  0.4644  1.2590 -2.2522
  294MOL0     H40536   3.698   2.856   8.140 -1.7927 -0.0639  1.4105
  294MOL0     H40537   3.708   2.753   8.282 -1.8532 -1.2265 -0.9524
  294MOL0     H40538   3.932   2.878   8.212  1.6913 -0.5444  1.2205
  294MOL0     H40539   3.946   2.702   8.231  0.4327  0.4095  0.6140
  294MOL0     H40540   3.918   2.681   7.986  2.6455 -0.5641 -0.7750
  294MOL0     H40541   4.055   2.786   8.026 -0.1537 -3.5104 -0.6214
  294MOL0     H40542   3.875   2.979   7.978 -0.3247 -1.4371  2.2247
  294MOL0     H40543   3.772   2.849   7.928  0.2152  0.2200  0.2498
  294MOL0     H40544   3.882   2.973   7.739  3.2288  1.3223 -0.6417
  294MOL0     H40545   4.036   2.924   7.799  0.6227  0.2329  0.1232
  294MOL0     H40546   3.802   2.752   7.699  1.1864 -1.2045 -1.9700
  294MOL0     H40547   3.942   2.677   7.776  1.0773  0.4944  0.4682
  294MOL0     H40548   3.900   2.789   7.502 -0.4276  1.4891  2.0541
  294MOL0     H40549   3.974   2.636   7.565 -1.5512 -0.6056 -0.7121
  294MOL0     H40550   4.111   2.913   7.586  2.8393 -0.5487 -0.3578
  294MOL0     H40551   4.125   2.796   7.452  1.7482 -0.8875 -0.7367
  294MOL0     H40552   3.565   2.475   7.956 -1.6905 -2.5980 -0.3507
  294MOL0     H40553   3.353   2.386   7.991  1.4443 -1.2338  0.7747
  294MOL0     H40554   2.976   2.550   8.019  0.6431  1.1192  2.7333
  294MOL0     H40555   2.729   2.563   7.973  4.6889  1.2437 -1.6381
  294MOL0     H40556   3.144   1.219   7.394 -1.2121  1.7166  0.5528
  294MOL0     H40557   3.181   1.247   7.150  0.1800 -0.9219  0.0599
  294MOL0     H40558   3.090   1.090   6.745  1.7556 -1.8421 -1.5432
  294MOL0     H40559   3.167   1.083   6.540  1.2168 -0.1259  2.3649
  294MOL0     H40560   3.101   1.087   6.312 -2.8196  3.3349 -0.0024
  294MOL0     H40561   3.165   1.183   6.179 -0.2355  1.0068  0.4456
  294MOL0     H40562   3.324   1.065   6.389  1.8336 -0.2707 -0.2701
  294MOL0     H40563   3.396   1.205   6.302 -1.6472  1.1705  0.1312
  294MOL0     H40564   3.370   0.934   6.195  2.1019  0.0122 -0.2255
  294MOL0     H40565   3.335   1.070   6.080 -1.2807 -1.6558 -0.3978
  294MOL0     H40566   3.583   0.972   6.099  4.2472  2.3958 -1.0531
  294MOL0     H40567   3.588   1.035   6.258 -0.6745 -4.6788  0.6439
  294MOL0     H40568   3.634   1.397   6.055  0.2761  0.4048  1.0638
  294MOL0     H40569   3.088   1.504   6.495  2.1923  0.4877  1.7488
  294MOL0     H40570   3.189   1.609   6.653  1.8684 -4.5287 -1.1359
  294MOL0     H40571   3.028   1.627   6.738  0.1365  0.1807  0.4754
  294MOL0     H40572   3.176   1.584   6.829  1.5026 -0.8643 -0.4896
  295MOL0     O40573   2.388   5.841   9.253 -0.2581 -0.3770 -0.4844
  295MOL0     C40574   2.283   5.834   9.323  0.8937  0.2815  0.2617
  295MOL0     O40575   2.289   5.826   9.458  0.5053 -0.2051  0.2664
  295MOL0     C40576   2.408   5.825   9.527  0.2685 -0.5879  0.0907
  295MOL0     C40577   2.454   5.945   9.572 -0.5203  0.3013 -1.4288
  295MOL0     C40578   2.584   5.956   9.619 -0.1514  0.5046  0.2621
  295MOL0     C40579   2.662   5.842   9.640 -0.3234  0.5062  0.0768
  295MOL0     O40580   2.787   5.867   9.693 -0.0510  0.2489 -0.4573
  295MOL0     C40581   2.839   5.777   9.798  0.3119 -0.2746 -0.9101
  295MOL0     C40582   2.955   5.825   9.879  0.2559 -0.4502 -0.4153
  295MOL0     C40583   2.903   5.951   9.952  0.4502  0.1753 -0.1412
  295MOL0     C40584   3.010   6.033  10.020 -0.7981  0.2362 -0.5384
  295MOL0     C40585   2.970   6.127  10.125  0.5549 -0.0404 -0.2529
  295MOL0     C40586   3.077   6.203  10.191 -0.2453 -0.5759  0.8243
  295MOL0     C40587   3.030   6.280  10.318  0.1143  0.1072 -0.5682
  295MOL0     C40588   3.105   6.415  10.343 -0.2187  0.5437 -0.5907
  295MOL0     N40589   3.060   6.478  10.471 -0.3383 -0.8183  0.4372
  295MOL0     C40590   3.115   6.458  10.595 -0.0401 -0.1152 -0.5941
  295MOL0     C40591   3.071   6.553  10.680 -0.0606 -0.4426 -0.0886
  295MOL0     C40592   3.106   6.570  10.824  0.0360  0.0253  0.5606
  295MOL0     C40593   3.016   6.660  10.917 -1.0165 -0.1899  0.1334
  295MOL0     C40594   3.069   6.659  11.059 -0.0269 -0.7054  0.4098
  295MOL0     C40595   3.199   6.746  11.070  0.5046  0.0619 -0.8734
  295MOL0     O40596   3.250   6.713  11.205  0.2128  0.0465  0.1853
  295MOL0     C40597   3.368   6.766  11.235 -0.1099  0.3829 -0.9034
  295MOL0     C40598   3.434   6.869  11.173 -0.2755  0.6492  0.0658
  295MOL0     C40599   3.560   6.914  11.211  0.2731  0.9743  0.8048
  295MOL0     C40600   3.637   6.989  11.107 -0.4187 -0.3527 -0.5758
  295MOL0     C40601   3.615   6.861  11.330 -0.9966 -0.0200  0.0553
  295MOL0     C40602   3.738   6.910  11.400  0.2524 -0.4191  0.4764
  295MOL0     O40603   3.761   6.854  11.524  0.3917  0.5058 -0.1053
  295MOL0     C40604   3.873   6.895  11.592  0.0539  0.2914 -0.8841
  295MOL0     C40605   3.916   7.026  11.612  1.2217  0.1976  0.0317
  295MOL0     C40606   4.040   7.053  11.677  0.3402  0.0998 -0.0339
  295MOL0     C40607   4.118   6.951  11.737  0.3125  0.0626 -0.0701
  295MOL0     O40608   4.230   6.971  11.810  0.0156  0.2633 -0.1685
  295MOL0     C40609   4.312   7.097  11.797  0.0391  0.4065  0.3764
  295MOL0     C40610   4.256   7.213  11.881 -0.3596  0.7650  0.8727
  295MOL0     C40611   4.336   7.346  11.864  0.3711  0.2984 -0.2686
  295MOL0     C40612   4.316   7.407  11.723  0.5613 -0.2887 -0.7867
  295MOL0     C40613   4.402   7.537  11.715  0.0701  0.4219  0.1030
  295MOL0     C40614   4.371   7.585  11.572 -0.2531  0.3684 -0.0443
  295MOL0     C40615   4.419   7.730  11.534  0.3817  0.6340  0.2418
  295MOL0     C40616   4.565   7.741  11.527  0.1873 -0.3893  1.1211
  295MOL0    Cl40617   4.616   7.638  11.388  0.0373  0.2068 -0.1823
  295MOL0     C40618   4.074   6.822  11.712  0.0053 -0.1709  0.4201
  295MOL0     C40619   3.957   6.796  11.640  0.3105  0.6201 -0.5483
  295MOL0     O40620   3.811   6.985  11.338  0.1246  0.5548 -0.9414
  295MOL0     C40621   3.539   6.767  11.399 -0.8915  0.6235  0.3666
  295MOL0     C40622   3.424   6.713  11.345  0.1769  0.1482  0.1646
  295MOL0     N40623   2.977   6.624  10.608  0.4949  0.6888  0.3059
  295MOL0     N40624   2.968   6.579  10.485 -0.6464 -0.0626 -0.2828
  295MOL0     C40625   2.612   5.716   9.606 -0.4924 -0.0094 -0.3280
  295MOL0     C40626   2.484   5.704   9.550  0.2626 -0.4976  0.8618
  295MOL0     C40627   2.150   5.822   9.261  0.6520 -0.2829  0.7059
  295MOL0     C40628   2.042   5.790   9.348 -0.4342 -0.2409 -0.0229
  295MOL0     C40629   1.914   5.798   9.311 -0.3066 -0.2882  0.6690
  295MOL0     C40630   1.890   5.833   9.175  0.3154  0.1007  0.3138
  295MOL0     O40631   1.762   5.843   9.132 -0.1126 -0.0481 -0.5117
  295MOL0     C40632   1.680   5.732   9.143 -0.2201  0.1883  0.5869
  295MOL0     C40633   1.561   5.737   9.036 -0.2946  0.0811 -0.1140
  295MOL0     C40634   1.447   5.832   9.065  0.6669 -0.1800  0.2678
  295MOL0     C40635   1.330   5.821   8.963  0.3489 -0.7923 -0.8534
  295MOL0     C40636   1.230   5.925   8.976  0.7420 -0.9863  0.0861
  295MOL0     C40637   1.145   6.015   8.971 -0.0374  0.0117  0.4214
  295MOL0     C40638   1.985   5.863   9.084 -0.2034  1.1553  0.0935
  295MOL0     C40639   2.118   5.845   9.124 -0.4305 -0.1022  0.4697
  295MOL0     C40640   2.215   5.861   9.016  0.1960  0.2192  0.8665
  295MOL0     H40641   2.390   6.033   9.563 -2.1465 -0.7720 -0.6992
  295MOL0     H40642   2.613   6.046   9.672 -1.4574 -0.2177  2.3253
  295MOL0     H40643   2.874   5.690   9.742 -0.5521 -0.4664 -1.1692
  295MOL0     H40644   2.755   5.752   9.864  1.0900 -1.2455 -0.2590
  295MOL0     H40645   2.980   5.751   9.956  0.6886  1.1743  1.0612
  295MOL0     H40646   3.052   5.832   9.830  0.4188 -2.2766 -0.4484
  295MOL0     H40647   2.863   6.022   9.880 -3.1152 -1.7908 -0.3553
  295MOL0     H40648   2.820   5.916  10.014  0.8785 -0.8517 -0.1169
  295MOL0     H40649   3.076   5.962  10.070  0.8558  1.7046 -0.5441
  295MOL0     H40650   3.073   6.071   9.939 -1.1173  2.0457  0.0276
  295MOL0     H40651   2.912   6.074  10.201 -2.4269  2.5266 -0.5243
  295MOL0     H40652   2.903   6.196  10.071 -0.6146  1.0012  2.3442
  295MOL0     H40653   3.158   6.133  10.209  1.2956  0.3518 -1.9758
  295MOL0     H40654   3.115   6.267  10.111 -3.8981  0.1269 -0.5474
  295MOL0     H40655   3.041   6.205  10.397 -2.1632 -0.4840 -0.7381
  295MOL0     H40656   2.924   6.305  10.311  0.1341  0.8502  1.2284
  295MOL0     H40657   3.212   6.392  10.346 -0.1127  1.0941  1.3679
  295MOL0     H40658   3.109   6.479  10.255 -0.2468  0.0099 -0.9876
  295MOL0     H40659   3.197   6.388  10.608  2.3623  2.9366  2.3433
  295MOL0     H40660   3.207   6.610  10.838  0.9346 -2.2489  1.1285
  295MOL0     H40661   3.108   6.470  10.868  0.9511 -0.4240 -0.4535
  295MOL0     H40662   3.008   6.762  10.878  3.5674  0.8807  1.4064
  295MOL0     H40663   2.922   6.607  10.933 -1.1704 -0.7858 -2.3187
  295MOL0     H40664   3.004   6.705  11.135  1.2891  2.8931 -0.4368
  295MOL0     H40665   3.081   6.555  11.089  3.0046 -0.7305 -0.6148
  295MOL0     H40666   3.283   6.725  11.004  1.7350  0.0084  0.6568
  295MOL0     H40667   3.182   6.854  11.062  0.4637  0.2205  0.9074
  295MOL0     H40668   3.389   6.908  11.082 -2.0670 -1.2250  0.0613
  295MOL0     H40669   3.581   7.013  11.016  0.0565  3.7664  0.0410
  295MOL0     H40670   3.728   6.937  11.075  0.6846  0.7950  0.5619
  295MOL0     H40671   3.681   7.077  11.154 -2.6592 -0.7992  2.7219
  295MOL0     H40672   3.859   7.107  11.566  1.4439  1.4019  1.7782
  295MOL0     H40673   4.064   7.159  11.679 -0.2953  0.2651 -0.8110
  295MOL0     H40674   4.418   7.084  11.819 -0.0367 -1.3782 -0.1421
  295MOL0     H40675   4.306   7.134  11.694  0.9357  2.8504  1.1240
  295MOL0     H40676   4.153   7.242  11.858 -1.5296 -2.8947  0.8864
  295MOL0     H40677   4.247   7.177  11.983 -0.5174  3.1029  1.7473
  295MOL0     H40678   4.440   7.315  11.870 -0.2847 -2.0474  0.0035
  295MOL0     H40679   4.300   7.420  11.936  0.7972 -1.8882  2.3707
  295MOL0     H40680   4.215   7.448  11.713  1.3337  2.8214  2.1455
  295MOL0     H40681   4.327   7.338  11.639  1.1140 -0.4251 -0.6056
  295MOL0     H40682   4.378   7.602  11.799  2.9582  1.3123  0.3558
  295MOL0     H40683   4.507   7.507  11.718 -0.5276 -2.1508 -1.7173
  295MOL0     H40684   4.261   7.585  11.568 -0.3276  0.4370  1.5920
  295MOL0     H40685   4.395   7.504  11.502  0.0083  0.0635  0.3961
  295MOL0     H40686   4.384   7.805  11.605 -1.3928 -1.3054  1.5282
  295MOL0     H40687   4.372   7.759  11.439  2.6436  2.7949 -0.3352
  295MOL0     H40688   4.604   7.697  11.619  0.6165 -0.5732  0.8541
  295MOL0     H40689   4.597   7.845  11.512  1.2881 -1.0095 -1.4509
  295MOL0     H40690   4.142   6.738  11.729 -0.7417 -1.6716 -3.1199
  295MOL0     H40691   3.928   6.693  11.621 -1.6988  0.9408  0.4890
  295MOL0     H40692   3.547   6.727  11.500 -2.7642  0.8682  0.6484
  295MOL0     H40693   3.359   6.638  11.389 -0.4788 -1.3750 -3.1114
  295MOL0     H40694   2.676   5.631   9.627 -3.1086 -1.4307  2.8982
  295MOL0     H40695   2.437   5.612   9.517  2.7695 -2.4849  2.4934
  295MOL0     H40696   2.061   5.755   9.449 -2.6615  2.1370  1.3496
  295MOL0     H40697   1.828   5.778   9.374 -1.9422 -1.7007 -1.8815
  295MOL0     H40698   1.740   5.647   9.110 -0.5035  0.2777 -0.2022
  295MOL0     H40699   1.638   5.727   9.244  0.0596  5.5335  1.2540
  295MOL0     H40700   1.522   5.639   9.007  0.7685 -0.6864  0.9226
  295MOL0     H40701   1.606   5.770   8.942  2.4083  4.4570  2.3913
  295MOL0     H40702   1.412   5.814   9.167 -3.3089  0.4312 -0.8156
  295MOL0     H40703   1.485   5.933   9.052 -0.6083  0.3466  0.4300
  295MOL0     H40704   1.282   5.725   8.986 -0.6602  0.0574  0.7343
  295MOL0     H40705   1.361   5.820   8.858 -0.2904 -0.9184 -1.0478
  295MOL0     H40706   1.070   6.091   8.982  0.0043  0.2652 -0.8682
  295MOL0     H40707   1.946   5.902   8.991  0.4128  0.6201 -0.3961
  295MOL0     H40708   2.257   5.962   9.012  0.1369  0.2716  1.4503
  295MOL0     H40709   2.302   5.797   9.027  1.0924  1.1023 -0.7498
  295MOL0     H40710   2.171   5.829   8.921  0.8171 -3.0798  1.6055
  296MOL0     O40711   1.475   3.671   5.555 -0.3914 -1.0949 -0.4774
  296MOL0     C40712   1.523   3.559   5.524  0.6899  0.5042 -0.2900
  296MOL0     O40713   1.473   3.438   5.566 -0.0382 -0.3002  0.2619
  296MOL0     C40714   1.358   3.415   5.639 -0.1354  0.4998 -0.2467
  296MOL0     C40715   1.254   3.503   5.633  1.9215 -0.1000 -0.3866
  296MOL0     C40716   1.131   3.483   5.696 -0.0936  0.0380 -0.4921
  296MOL0     C40717   1.111   3.355   5.767 -0.4453  0.6409  1.7098
  296MOL0     O40718   1.002   3.313   5.836 -0.0084 -0.1232  0.2735
  296MOL0     C40719   0.907   3.418   5.856  0.5332 -0.3397 -0.7198
  296MOL0     C40720   0.816   3.381   5.978  0.0533  0.2070 -0.0447
  296MOL0     C40721   0.731   3.260   5.957 -0.2214  0.9475 -0.4938
  296MOL0     C40722   0.650   3.220   6.077  0.8475  0.6342 -1.0115
  296MOL0     C40723   0.576   3.086   6.049 -0.8228  0.4583 -0.3043
  296MOL0     C40724   0.505   3.026   6.167  0.1216 -0.1542 -0.9457
  296MOL0     C40725   0.384   3.117   6.215 -0.9337 -0.3542  0.1485
  296MOL0     C40726   0.345   3.078   6.359 -0.2461 -0.2961 -0.1628
  296MOL0     N40727   0.221   3.136   6.403  1.2812  0.5483  0.1451
  296MOL0     C40728   0.097   3.104   6.346 -0.3223 -0.7051 -0.3586
  296MOL0     C40729   0.015   3.193   6.407 -0.2907 -0.9849 -0.3247
  296MOL0     C40730  -0.131   3.211   6.383  0.2323 -0.9144  0.0800
  296MOL0     C40731  -0.162   3.354   6.324  0.5608 -0.3465 -0.1664
  296MOL0     C40732  -0.111   3.380   6.177  0.3289  0.2571 -0.7461
  296MOL0     C40733  -0.140   3.526   6.141  0.3500 -0.8144  0.6979
  296MOL0     O40734  -0.138   3.564   6.007 -0.0939 -0.0612 -0.4715
  296MOL0     C40735  -0.010   3.550   5.950 -0.2102  0.1328 -0.6479
  296MOL0     C40736   0.109   3.522   6.023  0.0899 -0.0225  0.3698
  296MOL0     C40737   0.229   3.495   5.961 -0.6571  0.2654 -0.1415
  296MOL0     C40738   0.348   3.461   6.052 -0.2138 -0.3832  0.0463
  296MOL0     C40739   0.240   3.514   5.822  0.9836 -0.0084 -0.2346
  296MOL0     C40740   0.357   3.489   5.737 -0.4587  0.0753 -0.5055
  296MOL0     O40741   0.429   3.370   5.760  0.8909 -0.2524 -0.7129
  296MOL0     C40742   0.523   3.338   5.670  0.5682  0.2996  0.2440
  296MOL0     C40743   0.618   3.422   5.614 -0.3103  0.5545 -0.2229
  296MOL0     C40744   0.711   3.370   5.533 -0.2107  0.2632  1.3397
  296MOL0     C40745   0.705   3.241   5.498 -0.7960  0.5889  0.0903
  296MOL0     O40746   0.785   3.181   5.404 -0.3955  0.4344  0.1162
  296MOL0     C40747   0.928   3.188   5.444  0.5288  0.4431  0.5405
  296MOL0     C40748   0.970   3.097   5.563 -0.4535 -0.0031 -0.0972
  296MOL0     C40749   0.987   2.955   5.517  0.9882  0.7295 -0.2805
  296MOL0     C40750   1.129   2.893   5.534 -0.2890  0.7441 -0.5273
  296MOL0     C40751   1.253   2.962   5.465  0.2138 -0.0464 -0.9749
  296MOL0     C40752   1.236   2.975   5.315 -0.5777  0.1178  0.8029
  296MOL0     C40753   1.364   3.007   5.239  0.2953 -0.1359  0.3791
  296MOL0     C40754   1.406   3.151   5.256 -0.7232 -0.5145 -0.7240
  296MOL0    Cl40755   1.509   3.171   5.403 -0.0533  0.3185  0.2074
  296MOL0     C40756   0.615   3.150   5.555 -0.3979 -0.2861 -0.7064
  296MOL0     C40757   0.517   3.204   5.640  0.5247  0.1635 -0.4255
  296MOL0     O40758   0.367   3.562   5.640 -0.3753  0.0363  0.3083
  296MOL0     C40759   0.121   3.543   5.754  0.5846 -0.3438  0.0205
  296MOL0     C40760  -0.005   3.558   5.812 -0.1773  0.7859 -0.3971
  296MOL0     N40761   0.091   3.283   6.485  0.4812  0.2556 -0.5520
  296MOL0     N40762   0.211   3.245   6.483  0.1959 -0.0066 -0.2610
  296MOL0     C40763   1.216   3.260   5.760  0.3249  0.2514 -0.0304
  296MOL0     C40764   1.344   3.294   5.707  0.5848 -0.1447  0.1154
  296MOL0     C40765   1.645   3.562   5.437  0.7727  0.4078 -0.9249
  296MOL0     C40766   1.725   3.448   5.440 -0.3229 -0.5406 -0.1765
  296MOL0     C40767   1.846   3.446   5.371 -0.4908  0.7866 -0.1022
  296MOL0     C40768   1.878   3.552   5.289 -0.5368  0.4527  0.1209
  296MOL0     O40769   1.995   3.522   5.214  0.0951  0.2042  0.0894
  296MOL0     C40770   1.999   3.570   5.082 -0.3982  0.0682 -1.1426
  296MOL0     C40771   2.096   3.487   4.994 -0.0725  0.1988  0.7604
  296MOL0     C40772   2.233   3.482   5.058 -0.1150  0.0515  0.6882
  296MOL0     C40773   2.336   3.393   4.979  0.4946 -0.6929 -0.3536
  296MOL0     C40774   2.393   3.465   4.869  0.2281 -0.8020  0.7681
  296MOL0     C40775   2.453   3.520   4.777  0.1665 -0.8772 -0.9463
  296MOL0     C40776   1.800   3.668   5.281 -0.1894 -0.1779  0.0218
  296MOL0     C40777   1.686   3.672   5.364 -0.0438 -0.3577 -0.0009
  296MOL0     C40778   1.617   3.811   5.357  0.8277  0.0005  0.7295
  296MOL0     H40779   1.258   3.597   5.579  0.7225  1.7780  2.5145
  296MOL0     H40780   1.053   3.559   5.691 -0.6938 -0.3100  2.1794
  296MOL0     H40781   0.847   3.449   5.770  1.2847  0.1436 -1.0835
  296MOL0     H40782   0.956   3.510   5.889  0.8901 -0.3816 -1.1151
  296MOL0     H40783   0.867   3.380   6.074 -0.6632  2.6710  0.4186
  296MOL0     H40784   0.754   3.468   5.999  0.8313  0.4143  1.5139
  296MOL0     H40785   0.660   3.274   5.875  0.3932  0.8505 -1.0610
  296MOL0     H40786   0.795   3.175   5.928  0.7338  1.8173 -1.0066
  296MOL0     H40787   0.710   3.219   6.168 -2.6955 -1.0591  1.5554
  296MOL0     H40788   0.585   3.304   6.105 -0.5785 -0.7609  0.0139
  296MOL0     H40789   0.648   3.015   6.009  1.5581  1.7157  1.4634
  296MOL0     H40790   0.501   3.119   5.977 -0.5711  2.9832  0.4892
  296MOL0     H40791   0.461   2.931   6.135 -0.4927 -1.3072  2.8671
  296MOL0     H40792   0.569   3.001   6.252 -1.6068 -0.0129  0.4405
  296MOL0     H40793   0.299   3.120   6.146  0.4023 -0.4532 -1.5601
  296MOL0     H40794   0.435   3.213   6.226 -0.3645 -0.8579  2.4293
  296MOL0     H40795   0.332   2.970   6.345  2.6800 -0.5869 -1.2139
  296MOL0     H40796   0.423   3.112   6.427 -0.6527  2.3680 -0.9084
  296MOL0     H40797   0.049   3.031   6.281 -1.6338  0.5563 -0.8821
  296MOL0     H40798  -0.190   3.210   6.475  0.6236  1.8189  0.4402
  296MOL0     H40799  -0.169   3.132   6.318 -2.6894  0.5670 -0.1497
  296MOL0     H40800  -0.271   3.363   6.320  0.0947 -4.6162 -1.5936
  296MOL0     H40801  -0.124   3.427   6.396  0.0216 -0.6431  0.4205
  296MOL0     H40802  -0.004   3.357   6.175  0.3522  0.3198 -0.3840
  296MOL0     H40803  -0.165   3.313   6.110 -0.3335 -2.4396  2.1850
  296MOL0     H40804  -0.245   3.539   6.168  0.1854  3.2629 -1.1721
  296MOL0     H40805  -0.086   3.588   6.212 -4.4195  3.1219  1.3468
  296MOL0     H40806   0.106   3.520   6.131 -3.0346  0.4071  0.4006
  296MOL0     H40807   0.405   3.555   6.057 -1.2470  0.1941  1.8833
  296MOL0     H40808   0.406   3.382   6.006  0.3891  0.1994 -0.2114
  296MOL0     H40809   0.318   3.424   6.151  1.1422 -0.8267  0.3149
  296MOL0     H40810   0.614   3.525   5.650 -1.2482  0.2615  0.5688
  296MOL0     H40811   0.781   3.429   5.476  0.7084 -2.6403 -0.7717
  296MOL0     H40812   0.992   3.165   5.358 -2.7411 -1.0937 -1.6673
  296MOL0     H40813   0.950   3.290   5.478 -2.4563  0.5537  2.5047
  296MOL0     H40814   1.064   3.142   5.594 -0.5318 -0.9711  1.6508
  296MOL0     H40815   0.896   3.106   5.643  0.1308  3.5835  0.1704
  296MOL0     H40816   0.956   2.946   5.412 -2.3300 -1.6748  0.7422
  296MOL0     H40817   0.909   2.894   5.562 -0.7439  2.4627 -0.7777
  296MOL0     H40818   1.123   2.789   5.499 -2.0800  1.0695 -1.3006
  296MOL0     H40819   1.150   2.884   5.641  1.4344  0.0993 -0.8810
  296MOL0     H40820   1.249   3.066   5.498 -2.0554 -0.2856 -0.3089
  296MOL0     H40821   1.348   2.915   5.491 -1.5659 -4.1627 -1.0461
  296MOL0     H40822   1.158   3.045   5.281 -1.2612 -0.7513  0.5441
  296MOL0     H40823   1.202   2.876   5.283  0.2123 -0.5840  2.0731
  296MOL0     H40824   1.342   2.984   5.134 -0.8203 -0.6730  0.7165
  296MOL0     H40825   1.448   2.948   5.276  0.6799  0.3162  0.2471
  296MOL0     H40826   1.321   3.220   5.267  1.0152  1.3228  3.7675
  296MOL0     H40827   1.464   3.194   5.174  0.5452  2.1543  1.3972
  296MOL0     H40828   0.612   3.043   5.536 -1.2226 -0.0310 -2.0780
  296MOL0     H40829   0.440   3.135   5.672  0.9762 -0.7098 -1.1808
  296MOL0     H40830   0.135   3.544   5.647 -0.5603  0.3505 -0.1358
  296MOL0     H40831  -0.095   3.587   5.759 -0.6533 -0.8909 -0.5727
  296MOL0     H40832   1.190   3.163   5.801  1.5023 -0.7646 -1.5909
  296MOL0     H40833   1.414   3.211   5.703 -0.7697 -1.2524 -2.4322
  296MOL0     H40834   1.694   3.367   5.505 -2.2516 -0.1969 -0.5982
  296MOL0     H40835   1.918   3.364   5.379  0.1416  1.2271 -1.0523
  296MOL0     H40836   1.900   3.577   5.037  0.8300  1.1309 -3.8662
  296MOL0     H40837   2.025   3.675   5.095 -1.2322  0.2233 -0.6502
  296MOL0     H40838   2.115   3.550   4.906  2.2543 -0.9931  0.3340
  296MOL0     H40839   2.062   3.384   4.981 -0.4564  0.5610 -1.6253
  296MOL0     H40840   2.273   3.584   5.061  1.2678 -0.3816 -1.2740
  296MOL0     H40841   2.229   3.445   5.161 -1.1187 -2.0511 -0.0504
  296MOL0     H40842   2.284   3.305   4.941 -0.3073  0.2530 -1.5300
  296MOL0     H40843   2.417   3.362   5.046  0.1373 -0.5558  0.1521
  296MOL0     H40844   2.515   3.564   4.701 -1.0663 -0.6366 -1.8256
  296MOL0     H40845   1.834   3.750   5.219 -2.5349  0.2483 -0.8237
  296MOL0     H40846   1.517   3.807   5.313  1.8548 -1.3144 -1.6728
  296MOL0     H40847   1.612   3.855   5.457 -2.4297 -0.7556  1.0078
  296MOL0     H40848   1.667   3.880   5.289  0.8727  0.5804  1.3504
  297MOL0     O40849   8.968   1.025   1.882 -0.4127 -0.3559  0.1060
  297MOL0     C40850   8.928   1.039   1.766  0.4471 -0.5263  0.5878
  297MOL0     O40851   8.974   1.124   1.671 -0.4592 -0.7761  0.7730
  297MOL0     C40852   9.107   1.165   1.663  0.3787 -0.6149  0.7035
  297MOL0     C40853   9.131   1.285   1.589 -0.2043  0.6263 -0.1483
  297MOL0     C40854   9.258   1.337   1.572  0.0104 -0.6613 -0.4974
  297MOL0     C40855   9.367   1.282   1.646 -0.8696 -0.7935 -0.6981
  297MOL0     O40856   9.500   1.331   1.645  0.2702  0.5497  0.0023
  297MOL0     C40857   9.528   1.467   1.682 -0.2700 -0.3779  0.0367
  297MOL0     C40858   9.552   1.492   1.838  0.1713 -0.6358  0.3661
  297MOL0     C40859   9.590   1.634   1.881  0.0910  0.8402 -0.7207
  297MOL0     C40860   9.680   1.635   2.001  0.1679  0.1934  0.9751
  297MOL0     C40861   9.736   1.767   2.039 -0.3326 -0.0138  0.2581
  297MOL0     C40862   9.800   1.776   2.176 -0.9191 -0.2184 -0.4849
  297MOL0     C40863   9.931   1.707   2.181  0.5642  0.0289 -0.0856
  297MOL0     C40864  10.029   1.746   2.295 -0.7152  0.1058  0.8670
  297MOL0     N40865  10.087   1.877   2.250  0.0721 -0.0267 -0.6148
  297MOL0     C40866  10.053   1.990   2.315  0.4584 -0.2764 -0.6177
  297MOL0     C40867  10.104   2.084   2.230 -0.7558 -0.0761  0.4459
  297MOL0     C40868  10.074   2.233   2.237  0.6945 -0.0157 -0.7373
  297MOL0     C40869  10.109   2.289   2.373 -0.6304  0.1994  0.2902
  297MOL0     C40870  10.257   2.271   2.418  0.4463  0.4138 -1.5587
  297MOL0     C40871  10.333   2.398   2.408 -0.1564 -0.1306  0.5971
  297MOL0     O40872  10.466   2.376   2.447  0.2711 -0.1362 -0.2419
  297MOL0     C40873  10.536   2.489   2.470 -0.7186  0.9010  0.9631
  297MOL0     C40874  10.660   2.462   2.515 -0.6251  0.9392 -0.6752
  297MOL0     C40875  10.759   2.557   2.540  0.1728 -0.0477 -0.0140
  297MOL0     C40876  10.882   2.508   2.608  0.1950 -0.2326  0.6483
  297MOL0     C40877  10.729   2.700   2.507 -1.0928  0.1606  0.1851
  297MOL0     C40878  10.826   2.806   2.532 -1.1494 -0.1165 -0.8075
  297MOL0     O40879  10.965   2.785   2.522  0.5147  0.1854  0.2965
  297MOL0     C40880  11.046   2.868   2.587 -0.5048 -0.4062  0.0995
  297MOL0     C40881  11.063   2.866   2.720 -0.1315  0.3361 -0.3289
  297MOL0     C40882  11.160   2.948   2.775 -0.1134 -0.5623  0.0574
  297MOL0     C40883  11.246   3.028   2.705  0.1820  0.0661 -0.3971
  297MOL0     O40884  11.333   3.103   2.780 -0.1523  0.1137 -0.2797
  297MOL0     C40885  11.436   3.179   2.720 -0.3102 -0.3195  0.8492
  297MOL0     C40886  11.464   3.302   2.806  0.2499  0.1340  0.4777
  297MOL0     C40887  11.576   3.284   2.909 -0.3528  0.8133 -0.4571
  297MOL0     C40888  11.607   3.407   2.995  0.3718 -0.4397 -0.5940
  297MOL0     C40889  11.760   3.404   3.039  1.0851  0.2386  0.2548
  297MOL0     C40890  11.827   3.527   3.097  0.0503  0.6958  0.4080
  297MOL0     C40891  11.892   3.625   2.998 -0.3561  0.3494 -0.1855
  297MOL0     C40892  11.923   3.767   3.050  0.9195 -0.3128  0.2598
  297MOL0    Cl40893  12.004   3.852   2.915 -0.1380 -0.0047  0.0040
  297MOL0     C40894  11.240   3.021   2.570  1.1251 -0.4465  0.4525
  297MOL0     C40895  11.135   2.948   2.506  0.6033 -0.3777  0.0024
  297MOL0     O40896  10.773   2.917   2.534  0.4310  0.1658  0.2900
  297MOL0     C40897  10.598   2.725   2.461 -0.4347 -1.3506 -0.5491
  297MOL0     C40898  10.509   2.622   2.441  1.1744 -0.2245 -0.6815
  297MOL0     N40899  10.184   2.025   2.128 -0.4294 -0.0184 -0.7962
  297MOL0     N40900  10.169   1.903   2.147 -0.6144 -0.4724  0.1839
  297MOL0     C40901   9.344   1.168   1.724 -0.4351 -0.5227  0.6032
  297MOL0     C40902   9.214   1.111   1.730  0.1368  0.8652  0.6009
  297MOL0     C40903   8.794   0.988   1.745  0.5049  0.4658  0.3150
  297MOL0     C40904   8.723   1.048   1.646  0.1971 -0.2025  0.2024
  297MOL0     C40905   8.594   1.011   1.614  0.0950 -0.2453 -0.0082
  297MOL0     C40906   8.532   0.908   1.687  0.0225 -0.3583 -0.0176
  297MOL0     O40907   8.406   0.867   1.674 -0.3024  0.4966 -0.3852
  297MOL0     C40908   8.344   0.883   1.545  0.0288 -0.6039  0.5345
  297MOL0     C40909   8.203   0.838   1.558  0.2661 -0.2091  0.4349
  297MOL0     C40910   8.182   0.686   1.590  0.1471 -0.8633 -1.0756
  297MOL0     C40911   8.062   0.682   1.692 -0.0176 -0.0431  0.1188
  297MOL0     C40912   7.941   0.733   1.645 -0.0288  0.0440 -0.3740
  297MOL0     C40913   7.826   0.760   1.599  0.2786 -0.9185  0.8073
  297MOL0     C40914   8.595   0.853   1.797 -0.2373  0.5267 -0.2839
  297MOL0     C40915   8.731   0.884   1.824  0.0325 -0.2755 -0.4925
  297MOL0     C40916   8.790   0.805   1.941  0.2422  0.3809  0.2747
  297MOL0     H40917   9.052   1.337   1.535 -0.7311  2.2437  2.0026
  297MOL0     H40918   9.293   1.417   1.508  0.6915  0.9550  1.7626
  297MOL0     H40919   9.459   1.540   1.639  2.9119  2.7034 -0.2627
  297MOL0     H40920   9.622   1.478   1.628  0.0441  3.6179  1.0762
  297MOL0     H40921   9.466   1.450   1.891 -1.4666  1.0326 -0.8453
  297MOL0     H40922   9.632   1.421   1.862  0.2866 -0.4753  0.4605
  297MOL0     H40923   9.647   1.671   1.795 -3.3591  1.6503 -2.8740
  297MOL0     H40924   9.503   1.693   1.912 -1.8306 -1.7431 -0.7484
  297MOL0     H40925   9.627   1.591   2.086 -0.9969  0.2743  0.3031
  297MOL0     H40926   9.772   1.576   1.988  0.2408 -0.7136  4.5683
  297MOL0     H40927   9.657   1.843   2.038 -0.1283  0.2834  2.2942
  297MOL0     H40928   9.808   1.803   1.965 -0.1004 -1.4393 -0.2347
  297MOL0     H40929   9.813   1.881   2.202  0.0175 -0.8100  1.6426
  297MOL0     H40930   9.736   1.730   2.251  0.1501 -0.5741  0.2216
  297MOL0     H40931   9.982   1.716   2.084  1.4215 -0.2026  0.3337
  297MOL0     H40932   9.916   1.600   2.195 -0.5004  0.1098 -0.5106
  297MOL0     H40933   9.976   1.753   2.390 -1.7330 -1.2873  0.4378
  297MOL0     H40934  10.105   1.667   2.289 -2.1447 -1.2249 -2.7946
  297MOL0     H40935   9.977   2.002   2.392 -0.2836 -2.9907 -0.8271
  297MOL0     H40936   9.966   2.239   2.221  0.7793  1.5574 -0.8486
  297MOL0     H40937  10.121   2.296   2.161 -1.3419  2.8144  0.2028
  297MOL0     H40938  10.079   2.395   2.375 -0.0580  0.3860 -0.4550
  297MOL0     H40939  10.048   2.236   2.446 -0.3377  2.0996  2.0078
  297MOL0     H40940  10.241   2.239   2.522  0.6821  0.2751 -1.5632
  297MOL0     H40941  10.310   2.197   2.357 -1.4273 -1.3586 -1.1514
  297MOL0     H40942  10.325   2.422   2.301 -0.1064 -1.0333  0.3791
  297MOL0     H40943  10.289   2.479   2.466 -0.5903 -1.1250  1.6881
  297MOL0     H40944  10.672   2.357   2.542 -2.1975  1.0559  0.6128
  297MOL0     H40945  10.973   2.526   2.550 -0.2732  0.1892  0.0358
  297MOL0     H40946  10.878   2.400   2.625  0.2784  0.1680  3.7713
  297MOL0     H40947  10.897   2.547   2.709  1.5766  1.6776 -0.2375
  297MOL0     H40948  11.002   2.808   2.788 -1.7478  2.7440  0.3845
  297MOL0     H40949  11.178   2.958   2.882  1.1695  2.0554 -0.3154
  297MOL0     H40950  11.522   3.112   2.711 -1.2589 -1.5179  0.3506
  297MOL0     H40951  11.412   3.206   2.617  1.8994 -1.7213 -0.1259
  297MOL0     H40952  11.488   3.387   2.741 -0.8227  0.6760  0.7708
  297MOL0     H40953  11.369   3.325   2.855 -0.3356  3.4383 -1.8487
  297MOL0     H40954  11.669   3.246   2.867  0.2526  0.7672  0.8884
  297MOL0     H40955  11.547   3.213   2.986  1.5431  0.9226  0.3936
  297MOL0     H40956  11.542   3.399   3.082 -0.0038 -4.3822 -1.0666
  297MOL0     H40957  11.586   3.494   2.932 -1.6415 -1.4274 -1.3586
  297MOL0     H40958  11.768   3.321   3.111 -2.9685 -0.0569  0.6439
  297MOL0     H40959  11.823   3.381   2.953  1.7919  2.1273  0.2167
  297MOL0     H40960  11.897   3.516   3.181  1.7395  1.4240 -0.8316
  297MOL0     H40961  11.741   3.583   3.134 -3.5302 -1.4918 -3.6452
  297MOL0     H40962  11.836   3.616   2.905 -1.4382 -0.9037  0.5506
  297MOL0     H40963  11.988   3.574   2.992 -0.4372  0.1275  0.3358
  297MOL0     H40964  11.994   3.755   3.132  0.4690 -0.3600  0.6488
  297MOL0     H40965  11.830   3.812   3.086  1.1701  0.1225  0.3640
  297MOL0     H40966  11.302   3.082   2.505 -0.6901  3.0162  1.6527
  297MOL0     H40967  11.109   2.949   2.400 -0.9996  0.7916  0.3691
  297MOL0     H40968  10.557   2.823   2.438 -0.0652 -1.7069 -2.9639
  297MOL0     H40969  10.419   2.646   2.385  0.6753 -1.0398 -0.2412
  297MOL0     H40970   9.429   1.123   1.774  1.7018  1.1821 -1.2858
  297MOL0     H40971   9.188   1.019   1.781 -0.5019 -0.7480 -2.3871
  297MOL0     H40972   8.770   1.123   1.583 -1.1807  0.0480 -0.5955
  297MOL0     H40973   8.540   1.060   1.534  1.8560 -0.2075 -1.2499
  297MOL0     H40974   8.349   0.987   1.509 -0.3348 -1.1720 -1.2521
  297MOL0     H40975   8.403   0.824   1.475  0.1773  1.6088 -1.3300
  297MOL0     H40976   8.161   0.859   1.459 -1.2605  0.5698  1.2081
  297MOL0     H40977   8.148   0.899   1.631 -0.3569 -1.9555  1.4688
  297MOL0     H40978   8.161   0.632   1.497  0.1358  2.0898 -2.9330
  297MOL0     H40979   8.276   0.650   1.632  0.2665  0.6055 -0.0035
  297MOL0     H40980   8.095   0.732   1.784 -0.7794  0.8328 -0.0717
  297MOL0     H40981   8.045   0.578   1.721  0.7742  0.4293  2.5195
  297MOL0     H40982   7.733   0.789   1.555  0.3312 -1.8005  0.0878
  297MOL0     H40983   8.553   0.778   1.864 -0.0998  0.6647 -0.0438
  297MOL0     H40984   8.888   0.843   1.973  1.0680 -0.2485 -1.3904
  297MOL0     H40985   8.718   0.813   2.023 -1.4848  0.0653 -1.1450
  297MOL0     H40986   8.800   0.699   1.917 -2.7760  0.1769 -0.4435
  298MOL0     O40987   1.891   0.161   8.295  0.3530 -0.4358  0.6497
  298MOL0     C40988   1.864   0.084   8.382  0.4762  0.5903 -0.8377
  298MOL0     O40989   1.958  -0.007   8.428 -0.1095  0.1739 -0.2251
  298MOL0     C40990   2.039  -0.079   8.343  0.1814  0.2505 -0.1367
  298MOL0     C40991   2.028  -0.097   8.213 -0.2693 -0.1561  0.1358
  298MOL0     C40992   2.131  -0.155   8.134  0.9906 -0.5320  0.0631
  298MOL0     C40993   2.253  -0.190   8.188  0.6069 -0.2341  0.1247
  298MOL0     O40994   2.363  -0.219   8.110  0.2537 -0.3179 -0.3598
  298MOL0     C40995   2.347  -0.233   7.970  0.3664 -0.1760  0.4057
  298MOL0     C40996   2.479  -0.284   7.909  0.0460 -0.5000 -0.6879
  298MOL0     C40997   2.560  -0.392   7.975 -0.0574  0.2638 -0.0593
  298MOL0     C40998   2.677  -0.448   7.894  0.1455  1.6027 -0.2965
  298MOL0     C40999   2.791  -0.354   7.868 -0.0617  0.5363  0.2692
  298MOL0     C41000   2.890  -0.436   7.786 -0.1137  0.2148  0.3444
  298MOL0     C41001   3.005  -0.356   7.734  0.7329 -0.0200 -0.3224
  298MOL0     C41002   3.074  -0.442   7.618 -0.6275 -0.2108 -0.0862
  298MOL0     N41003   3.098  -0.576   7.670 -0.1135  0.5884  0.1849
  298MOL0     C41004   3.203  -0.599   7.760 -0.1468 -0.3476  0.1310
  298MOL0     C41005   3.203  -0.733   7.782  0.9049 -0.2274  0.6333
  298MOL0     C41006   3.298  -0.811   7.861 -0.2289  0.2372 -0.1830
  298MOL0     C41007   3.247  -0.964   7.874 -0.3755 -0.0545  0.4188
  298MOL0     C41008   3.336  -1.044   7.975 -1.0529  0.0287 -0.5488
  298MOL0     C41009   3.275  -1.177   8.010  0.5024  0.1089 -0.0661
  298MOL0     O41010   3.384  -1.244   8.078 -0.4883 -0.2675  0.5068
  298MOL0     C41011   3.453  -1.348   8.020 -0.0226 -1.1149  0.5996
  298MOL0     C41012   3.424  -1.401   7.894  1.1317 -0.1358 -0.0698
  298MOL0     C41013   3.482  -1.523   7.843 -0.0799  1.5374 -0.1556
  298MOL0     C41014   3.454  -1.568   7.700 -0.6668 -0.6738  0.3989
  298MOL0     C41015   3.586  -1.584   7.923 -1.1068 -0.0048 -0.1202
  298MOL0     C41016   3.652  -1.701   7.872  0.1147  0.7463  0.3958
  298MOL0     O41017   3.792  -1.701   7.882  0.6374  0.2180  0.2786
  298MOL0     C41018   3.864  -1.816   7.836  0.0478  0.9188 -1.0003
  298MOL0     C41019   3.903  -1.917   7.934  0.0413  0.1260  0.4172
  298MOL0     C41020   3.980  -2.021   7.882  0.3624 -0.6587 -0.3974
  298MOL0     C41021   4.004  -2.036   7.745 -0.2770  0.0481  0.0810
  298MOL0     O41022   4.074  -2.139   7.688  0.0248  0.5203 -0.3668
  298MOL0     C41023   4.051  -2.268   7.740  0.2091 -0.5196 -0.1603
  298MOL0     C41024   4.107  -2.374   7.650 -0.9422 -0.0723 -0.4587
  298MOL0     C41025   4.257  -2.355   7.621 -0.3572  0.1561  0.0701
  298MOL0     C41026   4.311  -2.452   7.509 -0.3433 -0.6275  0.3811
  298MOL0     C41027   4.458  -2.462   7.500  0.0111  0.9917  0.4450
  298MOL0     C41028   4.499  -2.553   7.377  0.3853 -0.1950  0.0245
  298MOL0     C41029   4.653  -2.581   7.367 -0.5686 -0.5222 -1.1550
  298MOL0     C41030   4.687  -2.694   7.271  0.4758  0.1755 -0.0368
  298MOL0    Cl41031   4.858  -2.738   7.278  0.2382  0.3248 -0.3303
  298MOL0     C41032   3.967  -1.937   7.655 -0.0736  0.3937  0.1057
  298MOL0     C41033   3.898  -1.828   7.700 -0.5853 -0.1931  0.6026
  298MOL0     O41034   3.588  -1.781   7.810 -0.5883  0.2654  0.2482
  298MOL0     C41035   3.624  -1.524   8.047 -0.0574  0.0496  0.5799
  298MOL0     C41036   3.553  -1.410   8.101 -0.2194 -1.3017 -0.9002
  298MOL0     N41037   3.099  -0.791   7.703  0.2704 -0.2237  0.7554
  298MOL0     N41038   3.044  -0.694   7.629 -0.3014  0.7250  0.5650
  298MOL0     C41039   2.259  -0.180   8.325  0.3186 -0.0193 -0.8700
  298MOL0     C41040   2.156  -0.123   8.400 -0.3680 -0.5572  0.6613
  298MOL0     C41041   1.726   0.069   8.440 -0.2403 -0.1717 -0.2166
  298MOL0     C41042   1.624   0.163   8.415  0.3076 -0.2378 -0.7405
  298MOL0     C41043   1.501   0.141   8.450 -0.9712  0.4292  0.3893
  298MOL0     C41044   1.462   0.045   8.542 -0.2511 -1.1705 -0.3819
  298MOL0     O41045   1.337   0.008   8.590 -0.2899  0.1085  0.4735
  298MOL0     C41046   1.222   0.077   8.536 -0.2411  0.3888  0.3210
  298MOL0     C41047   1.093   0.018   8.597 -0.6996 -0.3748 -0.3970
  298MOL0     C41048   1.067  -0.121   8.561  0.7199  0.9303  0.4113
  298MOL0     C41049   0.922  -0.177   8.558  0.1982 -0.4970 -0.2576
  298MOL0     C41050   0.856  -0.173   8.682  0.5476  0.3025 -0.5240
  298MOL0     C41051   0.800  -0.160   8.789 -0.2746  0.4878  0.4153
  298MOL0     C41052   1.565  -0.032   8.588 -0.0856  0.6927  0.0238
  298MOL0     C41053   1.692  -0.039   8.532  0.4973 -0.3241  0.0355
  298MOL0     C41054   1.780  -0.143   8.589 -0.7927 -0.3827 -0.0300
  298MOL0     H41055   1.932  -0.064   8.175 -1.2968 -0.1011  2.5865
  298MOL0     H41056   2.102  -0.169   8.031  0.7484 -2.3110  0.3322
  298MOL0     H41057   2.323  -0.138   7.922  0.4770  1.0765  2.6547
  298MOL0     H41058   2.275  -0.312   7.946  0.0825  0.2643 -0.2068
  298MOL0     H41059   2.454  -0.317   7.807  0.0240  0.3127 -0.9555
  298MOL0     H41060   2.550  -0.201   7.897 -1.1123  0.3999 -1.5949
  298MOL0     H41061   2.592  -0.360   8.074  0.5476 -1.2720  0.2806
  298MOL0     H41062   2.491  -0.468   8.014  1.9051 -2.5018 -1.5766
  298MOL0     H41063   2.717  -0.533   7.949  1.2909  3.3273  1.7022
  298MOL0     H41064   2.642  -0.494   7.802 -1.8261 -0.3450  1.3108
  298MOL0     H41065   2.855  -0.337   7.955  2.7439  0.2918 -1.6266
  298MOL0     H41066   2.749  -0.264   7.824 -4.2762 -1.3895 -0.1470
  298MOL0     H41067   2.929  -0.516   7.850  0.6853  2.1190  2.3515
  298MOL0     H41068   2.844  -0.479   7.696 -0.6470 -1.6418  1.4361
  298MOL0     H41069   3.074  -0.337   7.816  1.4103 -1.5571 -0.5123
  298MOL0     H41070   2.967  -0.265   7.685 -1.3784 -0.6654  0.0078
  298MOL0     H41071   3.012  -0.441   7.528  3.3962  3.9624 -3.2827
  298MOL0     H41072   3.169  -0.390   7.599 -0.5753 -0.5243 -0.6839
  298MOL0     H41073   3.275  -0.528   7.798  0.3532 -0.7553 -0.0394
  298MOL0     H41074   3.306  -0.773   7.963 -1.3737 -0.3278  0.1382
  298MOL0     H41075   3.394  -0.799   7.809  0.8212 -1.0680  1.3452
  298MOL0     H41076   3.143  -0.960   7.909 -0.6349  0.4829 -0.3963
  298MOL0     H41077   3.239  -1.010   7.776  0.4276  0.7367 -0.0317
  298MOL0     H41078   3.439  -1.046   7.939 -0.2039 -1.5320  1.6871
  298MOL0     H41079   3.337  -0.981   8.065 -1.2965  1.5234 -1.5425
  298MOL0     H41080   3.201  -1.143   8.083  0.7203  1.8646 -0.5974
  298MOL0     H41081   3.230  -1.224   7.922 -1.5801  3.2423 -0.8714
  298MOL0     H41082   3.345  -1.361   7.831  0.3231 -1.9931 -0.3216
  298MOL0     H41083   3.381  -1.496   7.663  1.8680  2.4572  1.1073
  298MOL0     H41084   3.414  -1.668   7.680  0.0795 -0.8499 -0.2566
  298MOL0     H41085   3.543  -1.566   7.637 -0.3936 -2.4749  0.6550
  298MOL0     H41086   3.889  -1.901   8.040  1.9263 -0.5901  0.8072
  298MOL0     H41087   4.007  -2.096   7.955 -2.4661 -0.0376  1.4260
  298MOL0     H41088   4.110  -2.283   7.831 -1.5791  3.1401  1.8583
  298MOL0     H41089   3.948  -2.278   7.773  0.5466  2.0155  2.0780
  298MOL0     H41090   4.103  -2.478   7.685  1.5931 -1.2431 -3.2683
  298MOL0     H41091   4.049  -2.362   7.558 -2.0251  1.4805  0.3663
  298MOL0     H41092   4.318  -2.363   7.711  0.1078 -0.5865 -0.3002
  298MOL0     H41093   4.265  -2.255   7.577  0.5028 -0.1722 -0.5413
  298MOL0     H41094   4.276  -2.415   7.412  1.3264 -0.8259 -0.3512
  298MOL0     H41095   4.254  -2.544   7.519 -3.5164  1.3513  2.1239
  298MOL0     H41096   4.496  -2.360   7.487 -0.4146  1.0344 -0.5921
  298MOL0     H41097   4.489  -2.494   7.600  1.7848  3.3970  0.7391
  298MOL0     H41098   4.467  -2.512   7.281 -1.7361  0.8630  1.1005
  298MOL0     H41099   4.449  -2.649   7.390  0.2383  0.0061  1.0039
  298MOL0     H41100   4.686  -2.602   7.469 -0.5861 -0.0921 -1.0552
  298MOL0     H41101   4.706  -2.494   7.328  0.0181 -0.8081 -1.0057
  298MOL0     H41102   4.654  -2.669   7.170 -1.3007 -0.2425  0.4192
  298MOL0     H41103   4.643  -2.789   7.302  4.9544 -1.6930  1.4563
  298MOL0     H41104   4.003  -1.959   7.555 -0.7324 -0.4734  0.0416
  298MOL0     H41105   3.861  -1.753   7.631 -0.7738  0.8555  1.8123
  298MOL0     H41106   3.704  -1.562   8.109 -0.5717 -1.1938  0.5035
  298MOL0     H41107   3.575  -1.367   8.198 -1.7892  1.6471 -1.7490
  298MOL0     H41108   2.346  -0.211   8.382 -0.9482 -1.2581  0.4534
  298MOL0     H41109   2.182  -0.113   8.505  1.7599 -1.3643  0.2562
  298MOL0     H41110   1.640   0.247   8.348 -1.7187  0.2826 -0.6443
  298MOL0     H41111   1.424   0.210   8.417 -0.6848  1.5842  1.9971
  298MOL0     H41112   1.238   0.184   8.555  2.0874 -0.1591  1.9283
  298MOL0     H41113   1.218   0.068   8.427  1.2520 -2.1511  0.4112
  298MOL0     H41114   1.022   0.082   8.546 -0.3728  0.7358  0.4892
  298MOL0     H41115   1.090   0.033   8.706 -0.2873  0.8402 -0.5415
  298MOL0     H41116   1.116  -0.152   8.468 -1.6070 -4.6871  0.6229
  298MOL0     H41117   1.119  -0.187   8.632  1.8692 -1.5744 -2.5064
  298MOL0     H41118   0.922  -0.278   8.517 -1.0485 -0.2378 -0.9705
  298MOL0     H41119   0.863  -0.110   8.494 -2.3900 -0.7449  1.7017
  298MOL0     H41120   0.758  -0.168   8.888  2.8970 -0.5916  1.8247
  298MOL0     H41121   1.540  -0.114   8.654 -2.2763  0.6459 -0.8014
  298MOL0     H41122   1.876  -0.106   8.626 -0.6818 -1.0976  0.4223
  298MOL0     H41123   1.730  -0.203   8.666 -0.0223  0.0310  0.8109
  298MOL0     H41124   1.797  -0.215   8.508  0.0114  0.2397 -0.4309
  299MOL0     O41125   3.126   9.963   0.024 -0.1825  0.2135 -0.2131
  299MOL0     C41126   3.231   9.925   0.073 -0.2411 -0.0520  0.6186
  299MOL0     O41127   3.257   9.794   0.122  0.0638 -0.5535  0.1560
  299MOL0     C41128   3.144   9.708   0.134 -0.7091  0.0421 -0.6738
  299MOL0     C41129   3.129   9.633   0.249 -0.4193  1.0984 -0.8367
  299MOL0     C41130   3.028   9.543   0.273  0.5791 -0.3070 -0.1417
  299MOL0     C41131   2.919   9.538   0.179 -0.2188 -0.2496 -0.2856
  299MOL0     O41132   2.802   9.471   0.203  0.0939 -0.4291 -0.5419
  299MOL0     C41133   2.770   9.426   0.335  0.6002  0.1658  0.5027
  299MOL0     C41134   2.633   9.356   0.329  0.4291 -0.2694  1.6394
  299MOL0     C41135   2.595   9.271   0.452 -0.2078  0.9431  0.0289
  299MOL0     C41136   2.564   9.355   0.572  0.1835 -0.0795 -0.7926
  299MOL0     C41137   2.478   9.271   0.667  0.0067  0.5754 -0.5149
  299MOL0     C41138   2.446   9.346   0.795 -0.0019 -0.2168 -0.4422
  299MOL0     C41139   2.561   9.395   0.878 -0.1407  0.2245 -0.7520
  299MOL0     C41140   2.637   9.289   0.966 -0.3947  0.5171  0.4506
  299MOL0     N41141   2.740   9.353   1.046  0.3417  0.6451  0.6177
  299MOL0     C41142   2.855   9.414   0.991  0.3880  0.2880 -1.6518
  299MOL0     C41143   2.936   9.423   1.100  0.8083  0.3520 -0.2823
  299MOL0     C41144   3.074   9.478   1.099  0.1931 -0.4190  0.8855
  299MOL0     C41145   3.135   9.476   1.241  0.0156 -0.0596 -0.8760
  299MOL0     C41146   3.272   9.554   1.255  0.4122  0.0943 -1.0164
  299MOL0     C41147   3.331   9.537   1.391 -0.4915  0.5920 -0.0448
  299MOL0     O41148   3.235   9.561   1.486  0.0081  0.4529  0.4777
  299MOL0     C41149   3.270   9.562   1.619  0.1061  0.8191 -0.0729
  299MOL0     C41150   3.156   9.541   1.702  0.5997  0.2493  0.3538
  299MOL0     C41151   3.169   9.532   1.843 -0.4476 -0.4711  0.0541
  299MOL0     C41152   3.048   9.550   1.923  0.4325 -0.8327  0.2354
  299MOL0     C41153   3.304   9.541   1.899  0.7637  0.9896 -0.1900
  299MOL0     C41154   3.339   9.539   2.047 -0.3969  0.9727  0.5002
  299MOL0     O41155   3.472   9.539   2.084  0.3757 -0.0000 -0.0836
  299MOL0     C41156   3.502   9.633   2.179 -0.1902  1.0131 -0.4175
  299MOL0     C41157   3.561   9.750   2.143  1.0433  1.1219  0.2799
  299MOL0     C41158   3.610   9.838   2.231 -0.6318 -0.5412 -0.7834
  299MOL0     C41159   3.585   9.832   2.367  0.2814  0.0877 -0.2594
  299MOL0     O41160   3.650   9.911   2.457 -0.1303 -0.6374  0.9016
  299MOL0     C41161   3.575   9.953   2.572  1.8176 -0.0722 -0.0968
  299MOL0     C41162   3.663  10.052   2.650 -0.2271  0.5638  0.0770
  299MOL0     C41163   3.684  10.180   2.574 -0.4928 -0.3349 -0.7188
  299MOL0     C41164   3.773  10.278   2.646 -0.1662  0.6445  0.6666
  299MOL0     C41165   3.777  10.409   2.563  0.7121  1.0930 -0.1511
  299MOL0     C41166   3.894  10.499   2.602  0.2040  0.1326  0.2413
  299MOL0     C41167   4.032  10.443   2.574 -0.3729 -0.7306 -1.1332
  299MOL0     C41168   4.145  10.535   2.639  0.2230  0.9417 -0.3399
  299MOL0    Cl41169   4.127  10.706   2.587 -0.3760  0.0735 -0.1385
  299MOL0     C41170   3.500   9.725   2.407  0.3889 -0.2125 -0.5195
  299MOL0     C41171   3.470   9.621   2.317  0.4814 -0.1457  0.4970
  299MOL0     O41172   3.249   9.544   2.125 -0.0841  0.2313 -0.4702
  299MOL0     C41173   3.412   9.550   1.808  0.2633  0.5930 -0.8133
  299MOL0     C41174   3.400   9.563   1.671  0.1392 -0.8273 -0.2482
  299MOL0     N41175   2.859   9.378   1.210 -0.0507 -0.8558 -0.0159
  299MOL0     N41176   2.743   9.343   1.179 -0.5890  0.1469  0.3602
  299MOL0     C41177   2.929   9.621   0.065 -0.6947 -0.4808 -0.3620
  299MOL0     C41178   3.044   9.696   0.044  0.0606 -0.1763 -0.1511
  299MOL0     C41179   3.354  10.010   0.075 -0.1010  0.8260 -0.4937
  299MOL0     C41180   3.481   9.944   0.101  0.8631 -0.0970 -0.0704
  299MOL0     C41181   3.600  10.011   0.115  0.6830 -0.9388  0.4016
  299MOL0     C41182   3.605  10.147   0.074 -0.9648  0.5411  0.4029
  299MOL0     O41183   3.721  10.221   0.057  0.5500 -0.6439 -0.3188
  299MOL0     C41184   3.756  10.271  -0.067  0.4436 -0.3561 -0.3944
  299MOL0     C41185   3.896  10.328  -0.067  0.0255  0.9949  0.3299
  299MOL0     C41186   3.895  10.464   0.001  0.0743 -0.7330  0.2826
  299MOL0     C41187   4.043  10.511   0.026 -0.3550 -0.0860  0.1096
  299MOL0     C41188   4.108  10.535  -0.102  0.1828 -0.2300 -1.0743
  299MOL0     C41189   4.153  10.560  -0.215  0.3843  0.0212  0.0724
  299MOL0     C41190   3.492  10.211   0.034  0.1557  0.7555 -0.1240
  299MOL0     C41191   3.362  10.150   0.049 -0.4950 -0.2422  0.0964
  299MOL0     C41192   3.240  10.233   0.009 -0.4369  0.6157  0.2530
  299MOL0     H41193   3.205   9.667   0.319 -0.8894  0.9254 -0.2290
  299MOL0     H41194   3.033   9.497   0.371  0.2833  0.0993  0.0633
  299MOL0     H41195   2.775   9.509   0.406  2.4596  0.8166 -0.3147
  299MOL0     H41196   2.845   9.347   0.351  0.4150 -0.5192 -1.6418
  299MOL0     H41197   2.558   9.434   0.314 -0.5377 -1.4963 -0.4067
  299MOL0     H41198   2.627   9.289   0.243 -0.2013  1.9472 -0.1368
  299MOL0     H41199   2.500   9.220   0.432 -0.6247  0.6710  2.4483
  299MOL0     H41200   2.669   9.192   0.469 -1.0321 -0.1689 -1.3160
  299MOL0     H41201   2.660   9.390   0.611  0.2714  0.4433 -1.4519
  299MOL0     H41202   2.501   9.441   0.545 -0.2606 -1.0519 -3.1119
  299MOL0     H41203   2.525   9.174   0.688  1.0483  1.0570 -0.6051
  299MOL0     H41204   2.384   9.246   0.616 -1.2467  4.8684 -0.6950
  299MOL0     H41205   2.390   9.437   0.771 -2.2376 -0.8661  1.9039
  299MOL0     H41206   2.394   9.269   0.852 -0.2691 -0.4881 -1.0349
  299MOL0     H41207   2.527   9.463   0.956  0.9856  0.0118 -0.0474
  299MOL0     H41208   2.630   9.457   0.819  3.6753 -1.9383  1.0004
  299MOL0     H41209   2.575   9.235   1.038 -2.9768  3.3445  0.5351
  299MOL0     H41210   2.680   9.216   0.896  0.5908  0.9657  0.5736
  299MOL0     H41211   2.876   9.438   0.888  4.3399 -0.8870 -1.2737
  299MOL0     H41212   3.080   9.582   1.064 -1.2403 -0.6900 -0.2253
  299MOL0     H41213   3.137   9.424   1.028 -0.7585 -0.0720 -0.2388
  299MOL0     H41214   3.070   9.537   1.305  0.8171  0.7126 -0.7795
  299MOL0     H41215   3.152   9.370   1.262  0.8657  0.4352  1.0932
  299MOL0     H41216   3.335   9.541   1.166  0.5574  1.8750 -1.2143
  299MOL0     H41217   3.248   9.660   1.247 -0.5427 -0.0554 -0.3599
  299MOL0     H41218   3.366   9.436   1.416 -2.6970  0.2172  1.9669
  299MOL0     H41219   3.416   9.603   1.408 -0.6152  0.9289 -0.6870
  299MOL0     H41220   3.060   9.543   1.651  0.4571 -2.6492  0.3244
  299MOL0     H41221   2.962   9.542   1.856  0.5660  1.2867 -0.2496
  299MOL0     H41222   3.041   9.643   1.980  1.3583 -1.0201  0.6785
  299MOL0     H41223   3.046   9.466   1.993 -1.6261  1.6735  3.4929
  299MOL0     H41224   3.570   9.767   2.036 -1.2411 -2.6490 -0.7144
  299MOL0     H41225   3.678   9.913   2.194  0.1013 -1.0575 -0.5066
  299MOL0     H41226   3.478   9.995   2.543  1.3281  1.6113  3.4259
  299MOL0     H41227   3.554   9.872   2.642 -1.7023  0.2702 -0.5941
  299MOL0     H41228   3.619  10.064   2.749 -0.0105 -1.6056  0.4935
  299MOL0     H41229   3.756   9.999   2.676 -0.0276  1.3715  1.0785
  299MOL0     H41230   3.584  10.222   2.563 -0.2255  0.1313 -1.4184
  299MOL0     H41231   3.727  10.170   2.474  1.7373  2.5400 -0.1841
  299MOL0     H41232   3.872  10.232   2.645 -0.0328  0.8188  2.8028
  299MOL0     H41233   3.734  10.294   2.747 -0.6323 -1.4611  0.8612
  299MOL0     H41234   3.801  10.384   2.459 -1.8258  1.9437 -1.0230
  299MOL0     H41235   3.679  10.458   2.564 -1.0395 -2.1086 -0.3748
  299MOL0     H41236   3.879  10.524   2.707 -0.5383 -0.7923  0.3707
  299MOL0     H41237   3.887  10.590   2.542 -3.2239  0.7671  1.3924
  299MOL0     H41238   4.038  10.426   2.466 -1.9675  0.2545 -1.4172
  299MOL0     H41239   4.047  10.347   2.624  0.7703  0.4955  1.0399
  299MOL0     H41240   4.245  10.500   2.611 -0.2178  1.2383 -2.4840
  299MOL0     H41241   4.139  10.527   2.748  1.2308  0.3126 -0.3189
  299MOL0     H41242   3.473   9.721   2.512 -3.9864  2.3036 -1.3071
  299MOL0     H41243   3.409   9.534   2.339  0.4434  0.2669  2.2207
  299MOL0     H41244   3.517   9.566   1.834  0.1038  3.0268 -1.3595
  299MOL0     H41245   3.484   9.561   1.602  0.0785  2.1549 -0.5446
  299MOL0     H41246   2.856   9.621  -0.015 -0.8929 -1.4767 -0.1930
  299MOL0     H41247   3.054   9.740  -0.055 -2.4434 -2.2474 -1.4644
  299MOL0     H41248   3.482   9.836   0.117  1.6181 -0.3032 -1.3600
  299MOL0     H41249   3.681   9.958   0.163  2.1720  2.3281  1.8327
  299MOL0     H41250   3.760  10.188  -0.138  2.7700 -1.1599  0.5872
  299MOL0     H41251   3.676  10.341  -0.093 -2.2744 -1.1817  4.5031
  299MOL0     H41252   3.935  10.323  -0.169 -0.4570 -0.5659  0.2056
  299MOL0     H41253   3.960  10.261  -0.009  0.7396 -0.1210 -1.6770
  299MOL0     H41254   3.845  10.543  -0.056 -0.0331  1.6122  3.3965
  299MOL0     H41255   3.834  10.452   0.091  0.4006 -2.8701  0.2587
  299MOL0     H41256   4.106  10.433   0.071  1.3426  1.2679  0.2137
  299MOL0     H41257   4.033  10.601   0.088 -2.2911  1.5221 -2.3324
  299MOL0     H41258   4.184  10.585  -0.314 -0.5397 -1.1045 -0.5258
  299MOL0     H41259   3.496  10.316   0.008 -3.4186  1.0244 -0.0786
  299MOL0     H41260   3.161  10.203   0.078 -1.2710 -0.2911 -1.0453
  299MOL0     H41261   3.264  10.339   0.024  0.1208  0.6206 -0.5913
  299MOL0     H41262   3.206  10.219  -0.094  2.4421 -2.7436 -0.4300
  300MOL0     O41263   7.039  10.288   4.796 -0.4616  0.0901 -0.3026
  300MOL0     C41264   7.125  10.243   4.722  0.6315  0.3095  0.5243
  300MOL0     O41265   7.266  10.252   4.745 -0.1223 -0.2552  0.1518
  300MOL0     C41266   7.299  10.282   4.875 -0.5510 -0.1534  0.0631
  300MOL0     C41267   7.289  10.409   4.920 -0.9763 -0.9062 -0.5528
  300MOL0     C41268   7.334  10.434   5.052 -0.1495  0.8079 -0.1234
  300MOL0     C41269   7.393  10.334   5.131  0.9537  0.6013 -0.2374
  300MOL0     O41270   7.421  10.390   5.262  0.5890  0.8793  0.2592
  300MOL0     C41271   7.453  10.292   5.366 -0.7110 -0.1790 -0.0375
  300MOL0     C41272   7.503  10.366   5.491 -0.5267 -0.3621 -0.8409
  300MOL0     C41273   7.662  10.365   5.498 -0.4752  1.1395 -0.1924
  300MOL0     C41274   7.709  10.434   5.635 -1.3386 -0.6163  0.7228
  300MOL0     C41275   7.862  10.466   5.626 -1.0311  0.4421 -1.3549
  300MOL0     C41276   7.879  10.607   5.561  0.4059  0.0787 -0.0877
  300MOL0     C41277   8.020  10.646   5.519  0.2384 -0.2538 -0.8080
  300MOL0     C41278   8.123  10.630   5.632  0.1431 -0.1549  0.6771
  300MOL0     N41279   8.258  10.669   5.587  0.1006 -0.5159 -0.3297
  300MOL0     C41280   8.305  10.742   5.473 -0.2606  0.2628  0.4382
  300MOL0     C41281   8.441  10.765   5.507  0.2583  0.2381  0.0169
  300MOL0     C41282   8.539  10.837   5.413  0.4079 -0.5729 -0.3783
  300MOL0     C41283   8.689  10.781   5.425  0.5536  0.5945 -0.1967
  300MOL0     C41284   8.785  10.872   5.351  0.1729 -0.4762 -0.1161
  300MOL0     C41285   8.927  10.822   5.349 -0.2141  0.3494  0.3061
  300MOL0     O41286   8.971  10.792   5.482 -0.1474  0.1551 -0.0879
  300MOL0     C41287   9.094  10.731   5.491 -0.2194  1.0288  0.3770
  300MOL0     C41288   9.181  10.718   5.375 -0.1458  0.2009  0.8624
  300MOL0     C41289   9.319  10.682   5.386  0.3140 -0.1771 -0.3775
  300MOL0     C41290   9.399  10.640   5.267 -0.1345  0.4271  1.1015
  300MOL0     C41291   9.372  10.657   5.512  0.2448 -0.0209 -0.3627
  300MOL0     C41292   9.517  10.619   5.541  0.2249 -0.4537  0.0265
  300MOL0     O41293   9.607  10.633   5.449 -0.7229  0.0592  0.1658
  300MOL0     C41294   9.738  10.635   5.487 -0.3948  1.0274 -0.4056
  300MOL0     C41295   9.809  10.519   5.458 -0.2142 -0.7423  0.5007
  300MOL0     C41296   9.943  10.515   5.491  0.4864  0.0915  0.4603
  300MOL0     C41297  10.004  10.632   5.533  0.0976  0.1136 -0.6056
  300MOL0     O41298  10.129  10.600   5.581 -0.2743 -0.1399  0.4680
  300MOL0     C41299  10.243  10.666   5.523  0.3338  0.4495  0.4266
  300MOL0     C41300  10.274  10.581   5.388  0.0914 -0.3717 -0.5107
  300MOL0     C41301  10.400  10.644   5.325 -0.4057 -0.6827 -1.3003
  300MOL0     C41302  10.450  10.563   5.209 -0.6409 -0.5922  0.0410
  300MOL0     C41303  10.566  10.643   5.147  0.6209  0.1726 -0.5569
  300MOL0     C41304  10.630  10.587   5.021 -0.3040 -0.1221 -0.0495
  300MOL0     C41305  10.553  10.646   4.894  0.0356  0.3017 -0.0562
  300MOL0     C41306  10.605  10.597   4.761 -0.4106  0.5624  0.4045
  300MOL0    Cl41307  10.780  10.587   4.750  0.1067 -0.1658  0.2618
  300MOL0     C41308   9.935  10.749   5.555 -0.5535  0.1933  0.3945
  300MOL0     C41309   9.797  10.752   5.542 -0.6831 -0.7095  0.7340
  300MOL0     O41310   9.543  10.570   5.651  0.4032 -0.5421  0.8243
  300MOL0     C41311   9.280  10.660   5.622 -1.1139  0.5266  0.1139
  300MOL0     C41312   9.148  10.707   5.617 -0.3783  0.6681  0.3704
  300MOL0     N41313   8.469  10.703   5.627  0.1813 -0.4011  0.1109
  300MOL0     N41314   8.355  10.654   5.680 -0.3918 -0.0148  0.1025
  300MOL0     C41315   7.405  10.201   5.082  0.0960  0.3686 -0.5176
  300MOL0     C41316   7.341  10.178   4.957 -0.2166  0.8093  0.8015
  300MOL0     C41317   7.084  10.175   4.593  0.1697 -0.9305 -0.8043
  300MOL0     C41318   7.179  10.098   4.526  0.9332 -0.1361 -0.2775
  300MOL0     C41319   7.136  10.033   4.406 -0.1392 -0.3714  0.5598
  300MOL0     C41320   7.005  10.026   4.368 -0.3515  0.3138 -0.3816
  300MOL0     O41321   6.964   9.957   4.265 -0.3307 -0.0365  0.7051
  300MOL0     C41322   6.923   9.826   4.286 -0.4506 -0.7984 -1.0932
  300MOL0     C41323   6.777   9.816   4.247  0.4654  0.2275  0.2582
  300MOL0     C41324   6.726   9.676   4.293  0.5685 -0.5509 -0.3525
  300MOL0     C41325   6.780   9.563   4.206  0.4580 -0.6960 -0.6726
  300MOL0     C41326   6.766   9.588   4.067  0.0180  0.4352  0.4477
  300MOL0     C41327   6.754   9.619   3.945  0.4098 -0.0330 -0.2406
  300MOL0     C41328   6.911  10.102   4.437  0.0423 -1.0290 -0.2396
  300MOL0     C41329   6.945  10.165   4.554 -0.1353 -0.6100 -0.1403
  300MOL0     C41330   6.828  10.236   4.619 -0.2336  0.3230  0.1417
  300MOL0     H41331   7.246  10.486   4.856  0.4118  0.5329  0.1820
  300MOL0     H41332   7.333  10.531   5.099  0.1908  0.4638  0.6134
  300MOL0     H41333   7.529  10.228   5.321 -0.2731  1.2912 -1.4823
  300MOL0     H41334   7.367  10.227   5.379 -0.6660 -0.5673 -1.5241
  300MOL0     H41335   7.475  10.472   5.490  0.3320 -0.1197 -0.1332
  300MOL0     H41336   7.464  10.320   5.582 -0.3109  2.4596  0.8025
  300MOL0     H41337   7.694  10.260   5.496 -0.1750  1.2080  0.4933
  300MOL0     H41338   7.701  10.401   5.402  0.0987 -2.8737 -1.6906
  300MOL0     H41339   7.658  10.526   5.663 -1.7931 -0.4573 -0.5788
  300MOL0     H41340   7.693  10.353   5.708  0.7234 -3.8716 -2.1086
  300MOL0     H41341   7.912  10.383   5.573  0.7084  0.0242  0.7736
  300MOL0     H41342   7.907  10.473   5.726  2.1806 -3.6319 -2.2136
  300MOL0     H41343   7.821  10.595   5.469  1.0474  0.1339 -0.5088
  300MOL0     H41344   7.837  10.684   5.626  0.7146 -0.6713  1.0404
  300MOL0     H41345   8.027  10.746   5.475 -1.3113  0.1282 -0.2600
  300MOL0     H41346   8.059  10.576   5.444  4.2081  1.0209 -0.1672
  300MOL0     H41347   8.088  10.673   5.726 -2.6446  0.2870 -0.4497
  300MOL0     H41348   8.120  10.522   5.651 -1.7380 -0.4561 -0.9516
  300MOL0     H41349   8.259  10.773   5.380  1.8983  1.6945 -0.2327
  300MOL0     H41350   8.534  10.937   5.457  1.5464 -0.8421  0.4308
  300MOL0     H41351   8.505  10.842   5.309 -2.1390 -0.7236  0.3784
  300MOL0     H41352   8.725  10.785   5.529  0.6378 -1.8985 -0.0911
  300MOL0     H41353   8.692  10.680   5.385 -1.0892 -1.0071  3.3308
  300MOL0     H41354   8.745  10.864   5.250 -2.7865 -0.6602  0.9777
  300MOL0     H41355   8.792  10.976   5.385  2.9590  0.3273 -2.6848
  300MOL0     H41356   8.936  10.729   5.293  2.6066  0.5966  0.2025
  300MOL0     H41357   8.994  10.884   5.289  1.5841 -1.0694  0.7764
  300MOL0     H41358   9.139  10.735   5.277  0.9013  5.6096  1.0252
  300MOL0     H41359   9.446  10.543   5.285 -1.7419  0.1512  4.8279
  300MOL0     H41360   9.480  10.712   5.248  0.0489 -0.3655 -1.3914
  300MOL0     H41361   9.339  10.651   5.176 -0.8859 -1.8304  1.2659
  300MOL0     H41362   9.759  10.432   5.416  0.4463 -1.7226  1.6860
  300MOL0     H41363  10.001  10.425   5.476 -0.6582 -0.3236 -1.8866
  300MOL0     H41364  10.236  10.775   5.511  2.5755  0.9298  2.6593
  300MOL0     H41365  10.332  10.652   5.585  0.2458  4.7578  1.8992
  300MOL0     H41366  10.290  10.475   5.409 -1.3639 -0.6488 -0.6653
  300MOL0     H41367  10.190  10.582   5.317 -1.2146  1.1073  0.9628
  300MOL0     H41368  10.468  10.657   5.409 -0.9293  2.5229 -1.2434
  300MOL0     H41369  10.380  10.746   5.290  2.3262  0.7650  0.9934
  300MOL0     H41370  10.376  10.549   5.129 -0.1128 -0.4770 -0.4741
  300MOL0     H41371  10.494  10.464   5.226  0.6082 -0.4975 -2.1932
  300MOL0     H41372  10.536  10.746   5.124 -1.1489 -0.5974 -1.8962
  300MOL0     H41373  10.641  10.655   5.226  1.6324  3.8809 -1.8696
  300MOL0     H41374  10.644  10.479   5.020  0.6124 -0.0791 -3.2442
  300MOL0     H41375  10.735  10.617   5.025  1.0215 -3.8221  6.1812
  300MOL0     H41376  10.566  10.754   4.903 -1.6284  0.4241  1.5134
  300MOL0     H41377  10.447  10.618   4.892  0.2584 -0.5272 -0.7021
  300MOL0     H41378  10.565  10.665   4.687 -1.7036  2.6094  2.8245
  300MOL0     H41379  10.577  10.491   4.752 -0.3028  0.2630  2.8790
  300MOL0     H41380   9.989  10.835   5.594  0.8522 -0.5772  0.2469
  300MOL0     H41381   9.744  10.846   5.555 -2.8321 -1.5662 -1.2308
  300MOL0     H41382   9.309  10.626   5.720  0.3656  1.6490  0.1016
  300MOL0     H41383   9.082  10.715   5.702  0.5684  0.0783  1.1729
  300MOL0     H41384   7.441  10.126   5.151  0.9447  0.8398 -0.4340
  300MOL0     H41385   7.311  10.081   4.919 -1.2151  1.1428  0.7012
  300MOL0     H41386   7.285  10.105   4.550  1.2693 -1.6012 -1.2069
  300MOL0     H41387   7.215   9.968   4.372  1.4620  1.0154  1.4773
  300MOL0     H41388   6.988   9.767   4.220  0.1359 -1.9824  0.4986
  300MOL0     H41389   6.939   9.800   4.391  0.2498 -0.7601 -1.1905
  300MOL0     H41390   6.755   9.832   4.141  0.3806  2.9298  0.6259
  300MOL0     H41391   6.725   9.890   4.308  1.7907  1.8015 -0.4571
  300MOL0     H41392   6.738   9.655   4.400 -1.7406 -1.7383 -0.2754
  300MOL0     H41393   6.618   9.667   4.285  0.3813  1.0455  0.0781
  300MOL0     H41394   6.721   9.475   4.232 -0.1257 -0.1633 -0.1635
  300MOL0     H41395   6.885   9.540   4.226 -0.1394 -1.0466  2.4206
  300MOL0     H41396   6.751   9.645   3.841  0.2051  0.5582 -0.0934
  300MOL0     H41397   6.808  10.090   4.406 -0.2874  3.2032 -1.3653
  300MOL0     H41398   6.822  10.186   4.716  0.2587 -1.7315 -0.8201
  300MOL0     H41399   6.853  10.342   4.608  2.3064 -0.3541 -1.7677
  300MOL0     H41400   6.733  10.222   4.568  0.0724  0.1605 -0.3908
  301MOL0     O41401   7.156   1.424   0.874 -0.2713  0.5574  0.3336
  301MOL0     C41402   7.124   1.348   0.779 -0.5287 -0.6589 -0.1009
  301MOL0     O41403   7.199   1.258   0.714  0.0918 -0.3558  0.7341
  301MOL0     C41404   7.332   1.253   0.739  0.1846 -0.4386 -0.6146
  301MOL0     C41405   7.409   1.369   0.730 -0.6869  0.8495  0.4732
  301MOL0     C41406   7.548   1.368   0.781  0.1326  0.3897  0.6780
  301MOL0     C41407   7.602   1.254   0.847 -0.4073  0.2137 -0.2062
  301MOL0     O41408   7.732   1.269   0.897  0.7639 -0.1251  0.4510
  301MOL0     C41409   7.813   1.149   0.892  0.1095 -1.3344 -0.6142
  301MOL0     C41410   7.940   1.180   0.961 -0.4992  0.0319 -0.0862
  301MOL0     C41411   8.042   1.072   0.918 -0.1712 -0.0397  0.3892
  301MOL0     C41412   8.179   1.092   0.983 -0.7312  0.1223 -0.9458
  301MOL0     C41413   8.267   0.976   0.944  0.4890 -0.0522  0.4066
  301MOL0     C41414   8.400   0.990   1.021  0.7466 -0.4655 -0.4859
  301MOL0     C41415   8.506   0.879   0.986 -0.5206 -0.1047 -0.4438
  301MOL0     C41416   8.612   0.845   1.094  0.0324 -0.4162  0.0711
  301MOL0     N41417   8.693   0.964   1.130  0.1799 -0.5695  0.1540
  301MOL0     C41418   8.770   1.040   1.045 -0.3422  1.2181  0.4629
  301MOL0     C41419   8.853   1.107   1.128  0.5239 -0.5734  0.3367
  301MOL0     C41420   8.955   1.203   1.077 -0.3484 -0.1290 -0.5033
  301MOL0     C41421   8.958   1.337   1.157 -0.9623 -0.8808  0.0677
  301MOL0     C41422   9.079   1.434   1.114 -0.0060 -0.0367  0.3794
  301MOL0     C41423   9.209   1.393   1.185  0.6161  0.2970 -0.2299
  301MOL0     O41424   9.309   1.486   1.151  0.1968 -0.1194  0.2412
  301MOL0     C41425   9.412   1.519   1.235  0.0168 -0.9337  0.7484
  301MOL0     C41426   9.417   1.643   1.285  0.6080  0.1149  0.5494
  301MOL0     C41427   9.530   1.684   1.366  1.0142  0.0400 -0.1138
  301MOL0     C41428   9.521   1.817   1.429 -0.6722  0.9706 -0.0556
  301MOL0     C41429   9.632   1.596   1.381 -0.1697  0.2133  0.1617
  301MOL0     C41430   9.762   1.623   1.438 -0.2944  0.2984 -0.0861
  301MOL0     O41431   9.789   1.754   1.458  0.3731 -0.3934 -0.2606
  301MOL0     C41432   9.911   1.789   1.509  0.2935  0.0373  0.1443
  301MOL0     C41433   9.925   1.808   1.648  0.7696 -0.3616  0.1044
  301MOL0     C41434  10.048   1.849   1.699 -0.5928 -0.7250 -0.6524
  301MOL0     C41435  10.161   1.867   1.613  0.1377  0.3827 -0.3759
  301MOL0     O41436  10.284   1.918   1.652  0.3731  1.2917  0.2701
  301MOL0     C41437  10.292   1.991   1.770 -0.1575  0.5766 -0.2461
  301MOL0     C41438  10.433   2.043   1.775 -0.2901 -0.2341 -0.2143
  301MOL0     C41439  10.473   2.109   1.905  0.2073  0.5920 -0.4205
  301MOL0     C41440  10.608   2.183   1.872 -0.6511  0.0303 -0.6162
  301MOL0     C41441  10.655   2.252   2.002  0.5537  0.3872  0.1274
  301MOL0     C41442  10.589   2.395   2.000  0.7500 -0.2221 -0.8963
  301MOL0     C41443  10.622   2.469   2.135  0.2179 -0.1216  0.9287
  301MOL0     C41444  10.738   2.563   2.111 -0.3387 -0.2653  0.0427
  301MOL0    Cl41445  10.886   2.470   2.116 -0.0747  0.0797 -0.0203
  301MOL0     C41446  10.146   1.820   1.478  0.5240  0.0819 -0.3264
  301MOL0     C41447  10.023   1.786   1.426  0.1491 -0.3363 -0.8379
  301MOL0     O41448   9.840   1.530   1.474  0.4300 -0.4652  0.3289
  301MOL0     C41449   9.619   1.467   1.333  0.5899 -0.0123  0.8296
  301MOL0     C41450   9.513   1.429   1.251  0.0596 -0.4556 -0.1402
  301MOL0     N41451   8.814   1.083   1.264 -0.3505 -0.1604  0.2923
  301MOL0     N41452   8.734   0.983   1.261  0.2226  0.1851  0.2857
  301MOL0     C41453   7.524   1.140   0.848 -0.5277  0.0850 -0.2289
  301MOL0     C41454   7.398   1.132   0.786  0.7785 -1.1298 -1.0806
  301MOL0     C41455   6.979   1.364   0.761  0.7247 -0.3340  0.7543
  301MOL0     C41456   6.911   1.490   0.749 -0.5441  0.6925 -0.5457
  301MOL0     C41457   6.776   1.497   0.741  0.0227  1.0290 -0.5263
  301MOL0     C41458   6.695   1.378   0.750 -0.2893  0.9670 -0.7621
  301MOL0     O41459   6.559   1.376   0.762 -0.1605 -0.3658  0.5874
  301MOL0     C41460   6.493   1.503   0.780  0.2587  1.0102  0.0572
  301MOL0     C41461   6.349   1.493   0.723  0.2113  0.1564  0.4967
  301MOL0     C41462   6.246   1.425   0.814 -0.4151  0.2878  0.2302
  301MOL0     C41463   6.119   1.371   0.754  0.1343  0.4537  0.0574
  301MOL0     C41464   6.041   1.469   0.677 -0.1591  0.3267 -0.3659
  301MOL0     C41465   5.966   1.545   0.612 -0.4896 -0.4977 -0.5089
  301MOL0     C41466   6.756   1.255   0.749 -0.6120 -0.5602 -0.1621
  301MOL0     C41467   6.895   1.243   0.761 -0.4081 -0.0149 -0.0740
  301MOL0     C41468   6.964   1.105   0.783 -0.3166 -0.0979  0.5488
  301MOL0     H41469   7.356   1.458   0.700 -1.1704  0.8321  1.2460
  301MOL0     H41470   7.598   1.463   0.790  0.2268  0.2206  2.1830
  301MOL0     H41471   7.836   1.138   0.786  0.3890  0.0159 -0.7171
  301MOL0     H41472   7.778   1.054   0.932  2.0872 -1.6257  0.5592
  301MOL0     H41473   7.982   1.279   0.939 -1.7969  1.0632  1.7252
  301MOL0     H41474   7.925   1.161   1.068  1.8707  1.3960  0.5556
  301MOL0     H41475   7.999   0.975   0.944 -2.6255  0.5107 -1.2163
  301MOL0     H41476   8.042   1.079   0.809  0.0954  0.2642  0.4071
  301MOL0     H41477   8.212   1.191   0.948 -1.7014  0.8480  0.1242
  301MOL0     H41478   8.177   1.108   1.091  2.5119 -0.0867 -0.7565
  301MOL0     H41479   8.283   0.974   0.836  1.2377 -1.5023  0.5125
  301MOL0     H41480   8.219   0.883   0.975 -1.7958  0.1661 -2.1176
  301MOL0     H41481   8.443   1.090   1.014 -0.5281  0.2565  1.3145
  301MOL0     H41482   8.375   0.993   1.127 -0.3484  0.7623 -0.7455
  301MOL0     H41483   8.567   0.895   0.897  0.6849 -4.0417 -0.5228
  301MOL0     H41484   8.439   0.793   0.972 -4.3090  2.4998  0.2718
  301MOL0     H41485   8.553   0.818   1.182  0.8716  0.0223  0.7884
  301MOL0     H41486   8.666   0.754   1.064 -2.9641 -2.1005 -0.5989
  301MOL0     H41487   8.777   1.043   0.937 -0.2046  2.6181  0.5016
  301MOL0     H41488   8.953   1.229   0.971 -0.4546 -1.6112 -0.8917
  301MOL0     H41489   9.053   1.158   1.096  0.0160  1.2142  1.0102
  301MOL0     H41490   8.871   1.399   1.132  1.9217  3.0385 -1.3169
  301MOL0     H41491   8.962   1.317   1.264 -0.1508  4.1424  1.2594
  301MOL0     H41492   9.098   1.437   1.007 -0.6657 -0.6481  0.2363
  301MOL0     H41493   9.052   1.536   1.142 -5.5163 -1.0807 -0.0727
  301MOL0     H41494   9.197   1.391   1.294  2.5832  1.7215  0.0716
  301MOL0     H41495   9.252   1.298   1.153  0.6226  0.6434 -1.3011
  301MOL0     H41496   9.325   1.700   1.276 -0.2769 -1.4365 -0.6538
  301MOL0     H41497   9.555   1.816   1.533  0.0789 -0.1862 -0.2940
  301MOL0     H41498   9.417   1.852   1.423 -1.1202 -0.4659 -1.4898
  301MOL0     H41499   9.576   1.888   1.367 -2.3303  0.5514 -2.1194
  301MOL0     H41500   9.839   1.807   1.715 -0.0023  1.6378 -0.7911
  301MOL0     H41501  10.044   1.880   1.803  2.2081 -1.4379 -0.2353
  301MOL0     H41502  10.233   2.083   1.769  4.3596  3.9246  2.3141
  301MOL0     H41503  10.274   1.930   1.858  2.5134 -0.5377 -0.3805
  301MOL0     H41504  10.502   1.961   1.755  2.0028  0.9653  2.1679
  301MOL0     H41505  10.450   2.112   1.691  3.1827 -1.9769 -1.1216
  301MOL0     H41506  10.488   2.030   1.980 -2.4767  1.0192  0.6891
  301MOL0     H41507  10.408   2.176   1.963  2.0451 -0.0107  2.5925
  301MOL0     H41508  10.600   2.256   1.791 -0.2368  2.3747  1.3546
  301MOL0     H41509  10.671   2.099   1.839 -1.6864 -0.8392 -0.4382
  301MOL0     H41510  10.634   2.188   2.088  1.2098  0.1967  0.1512
  301MOL0     H41511  10.761   2.278   2.006  0.4113  0.8253  2.7545
  301MOL0     H41512  10.483   2.394   1.974  1.3166  1.1617 -3.7753
  301MOL0     H41513  10.638   2.453   1.920  1.7447 -1.1280 -0.9621
  301MOL0     H41514  10.637   2.399   2.217  3.2732 -2.1405 -1.0907
  301MOL0     H41515  10.534   2.527   2.161  0.3121 -0.3391  1.7556
  301MOL0     H41516  10.758   2.638   2.189  1.1694  2.5058 -2.7693
  301MOL0     H41517  10.729   2.626   2.022  3.5123  4.1252  2.2815
  301MOL0     H41518  10.231   1.808   1.411  2.7474 -0.9663  2.5067
  301MOL0     H41519  10.025   1.756   1.322 -0.6606  2.7419 -1.8612
  301MOL0     H41520   9.690   1.387   1.355 -0.1873 -0.8216  0.4592
  301MOL0     H41521   9.510   1.326   1.218 -3.5886 -0.7363  0.6588
  301MOL0     H41522   7.553   1.041   0.882 -1.1614 -1.1107 -2.8763
  301MOL0     H41523   7.344   1.038   0.792 -1.1107  0.0014  0.6206
  301MOL0     H41524   6.969   1.581   0.736  2.4885 -0.8579  1.1733
  301MOL0     H41525   6.729   1.595   0.735 -0.9061  0.6575  0.4022
  301MOL0     H41526   6.487   1.533   0.885  1.6756 -1.7966  1.0286
  301MOL0     H41527   6.530   1.591   0.725 -1.5678  0.7771 -1.6683
  301MOL0     H41528   6.358   1.436   0.630 -2.7748 -1.1128  0.8825
  301MOL0     H41529   6.313   1.596   0.717 -1.4703 -0.1571  3.5048
  301MOL0     H41530   6.296   1.346   0.870 -0.2900 -0.4299 -0.8664
  301MOL0     H41531   6.221   1.496   0.893  0.4214  1.3391 -0.4203
  301MOL0     H41532   6.060   1.330   0.837 -1.1321  0.1307 -0.9588
  301MOL0     H41533   6.138   1.284   0.691 -1.4691  0.2447 -0.1801
  301MOL0     H41534   5.887   1.606   0.573 -0.0032 -0.1513 -0.9593
  301MOL0     H41535   6.696   1.165   0.754  0.0765 -1.0650 -0.8426
  301MOL0     H41536   7.045   1.117   0.856  1.3183 -0.3650 -1.1471
  301MOL0     H41537   6.900   1.027   0.825  0.0255 -0.1611  0.9546
  301MOL0     H41538   7.003   1.075   0.685  2.6440  0.9290  1.2989
  302MOL0     O41539   5.101   7.177   9.747 -0.2457  0.7157 -0.2482
  302MOL0     C41540   5.025   7.091   9.772 -0.0706 -0.6228  0.5547
  302MOL0     O41541   5.062   6.954   9.794  0.2814 -0.0766  0.2919
  302MOL0     C41542   5.192   6.919   9.812 -0.2666 -0.5218  0.0619
  302MOL0     C41543   5.231   6.811   9.743  0.3180 -0.5165 -0.1035
  302MOL0     C41544   5.355   6.762   9.762  0.0822 -0.1959  0.7726
  302MOL0     C41545   5.452   6.829   9.824  0.1818  0.0090 -0.1210
  302MOL0     O41546   5.586   6.790   9.844  0.6225  0.0546 -1.3638
  302MOL0     C41547   5.620   6.650   9.840  0.5444 -0.7130  0.2425
  302MOL0     C41548   5.767   6.620   9.876 -0.4340  0.3189  0.4610
  302MOL0     C41549   5.865   6.720   9.811  0.1088 -0.7494 -0.1699
  302MOL0     C41550   6.014   6.683   9.841 -0.0490  0.9921  0.2617
  302MOL0     C41551   6.104   6.789   9.778 -0.8646 -0.1871  1.0483
  302MOL0     C41552   6.248   6.750   9.794 -0.1618 -0.0347  1.3247
  302MOL0     C41553   6.347   6.856   9.743  0.1049  0.2577 -0.6549
  302MOL0     C41554   6.485   6.785   9.729 -0.0313 -0.2378 -0.2912
  302MOL0     N41555   6.584   6.886   9.691  0.0357  0.3054  0.3198
  302MOL0     C41556   6.628   6.895   9.565 -0.4738 -0.6976  0.0538
  302MOL0     C41557   6.749   6.958   9.560 -0.3689 -0.2657 -0.4255
  302MOL0     C41558   6.819   7.003   9.440 -0.7520  0.2239  0.9777
  302MOL0     C41559   6.926   6.905   9.393  0.4165  0.1308  0.1721
  302MOL0     C41560   6.862   6.781   9.335  0.1994 -0.5527  0.5389
  302MOL0     C41561   6.946   6.663   9.336 -0.3913  0.5119  0.3993
  302MOL0     O41562   7.072   6.693   9.271 -0.0156 -0.0461  0.5438
  302MOL0     C41563   7.169   6.598   9.291 -0.5632  0.3431 -0.5895
  302MOL0     C41564   7.144   6.461   9.293  0.8764  0.5307  0.4267
  302MOL0     C41565   7.247   6.370   9.311 -0.0112  0.4593 -0.1168
  302MOL0     C41566   7.208   6.222   9.320 -0.5266  0.0089 -0.3768
  302MOL0     C41567   7.382   6.415   9.294 -0.4461  0.5148 -0.0571
  302MOL0     C41568   7.491   6.318   9.302 -0.1853 -0.8338  0.8431
  302MOL0     O41569   7.606   6.350   9.216  0.1215  0.0565 -0.5471
  302MOL0     C41570   7.720   6.272   9.237 -0.1566 -0.0995 -0.0547
  302MOL0     C41571   7.775   6.191   9.139  0.3385  1.0306 -0.2323
  302MOL0     C41572   7.889   6.122   9.164 -0.0530 -0.4666 -0.5818
  302MOL0     C41573   7.955   6.129   9.293 -0.0775 -0.2429 -0.5292
  302MOL0     O41574   8.058   6.046   9.324 -0.0706  0.3443  0.2240
  302MOL0     C41575   8.189   6.102   9.286 -0.0560  0.0214 -0.2075
  302MOL0     C41576   8.288   6.051   9.393  0.1481 -0.6271 -0.1510
  302MOL0     C41577   8.276   6.104   9.537 -0.9373  0.4203 -0.3820
  302MOL0     C41578   8.362   6.223   9.575 -0.1490 -0.3170  0.3884
  302MOL0     C41579   8.518   6.216   9.551  0.2596 -0.1605 -0.2727
  302MOL0     C41580   8.591   6.168   9.681  0.2569 -0.3029 -0.4608
  302MOL0     C41581   8.742   6.187   9.647  0.4595  0.1078 -0.1378
  302MOL0     C41582   8.823   6.125   9.763 -0.3915  0.0337 -0.1579
  302MOL0    Cl41583   8.778   5.951   9.783 -0.1606 -0.3587  0.5428
  302MOL0     C41584   7.901   6.204   9.394 -0.0904 -0.5250  0.3981
  302MOL0     C41585   7.784   6.275   9.367  0.4980 -0.6563 -0.3912
  302MOL0     O41586   7.490   6.221   9.377  0.3066  0.4072  0.6373
  302MOL0     C41587   7.413   6.548   9.273  0.9258 -0.4834 -0.3688
  302MOL0     C41588   7.306   6.638   9.286 -0.0948 -0.0407 -0.3653
  302MOL0     N41589   6.769   6.994   9.690 -0.3169  0.7251 -0.4189
  302MOL0     N41590   6.675   6.946   9.769  0.3952 -0.1222 -0.2301
  302MOL0     C41591   5.420   6.949   9.884  0.5295  0.0670 -0.1866
  302MOL0     C41592   5.284   6.988   9.888  0.5665  0.9861  0.0356
  302MOL0     C41593   4.880   7.114   9.773  0.0064 -0.1321  0.5570
  302MOL0     C41594   4.796   7.001   9.767  1.6263 -0.6405 -0.0015
  302MOL0     C41595   4.658   7.016   9.794  0.8055  0.5199  0.5705
  302MOL0     C41596   4.604   7.136   9.838  0.0832 -0.1939 -0.2043
  302MOL0     O41597   4.474   7.165   9.879 -0.0977  0.3396 -0.3165
  302MOL0     C41598   4.384   7.053   9.881 -0.3768  0.9139 -0.6747
  302MOL0     C41599   4.256   7.089   9.966  0.5624  0.0944 -0.4649
  302MOL0     C41600   4.140   7.004   9.918  1.2588 -0.2758 -0.6281
  302MOL0     C41601   4.015   7.069   9.954  0.3950  0.6103  0.5634
  302MOL0     C41602   3.913   6.996   9.879  0.7932  0.1997  0.6108
  302MOL0     C41603   3.816   6.935   9.832  0.4056 -0.5106 -0.4261
  302MOL0     C41604   4.679   7.249   9.835 -1.0895  0.1061 -0.2837
  302MOL0     C41605   4.814   7.247   9.787  0.1044  0.2200 -0.3353
  302MOL0     C41606   4.888   7.376   9.769  0.0228 -0.3227 -0.4066
  302MOL0     H41607   5.161   6.756   9.681  0.4417  2.9529 -3.6983
  302MOL0     H41608   5.386   6.672   9.710 -0.6450  0.7854 -1.4599
  302MOL0     H41609   5.589   6.612   9.742  0.7946  0.3511 -0.2574
  302MOL0     H41610   5.565   6.586   9.910 -0.6492  0.1694  0.1443
  302MOL0     H41611   5.790   6.634   9.982  1.8791 -1.2596  0.2561
  302MOL0     H41612   5.795   6.516   9.854 -1.9490 -0.5430  2.4177
  302MOL0     H41613   5.835   6.730   9.707  0.9844  0.5498 -0.3305
  302MOL0     H41614   5.853   6.817   9.861  0.0289 -1.4511  1.2326
  302MOL0     H41615   6.024   6.671   9.950 -3.5907 -0.6233  0.5299
  302MOL0     H41616   6.033   6.584   9.798  0.1840  1.4765 -0.7784
  302MOL0     H41617   6.096   6.882   9.834 -1.4088  1.0464 -0.9682
  302MOL0     H41618   6.068   6.807   9.676 -0.3531 -2.8837  0.3153
  302MOL0     H41619   6.249   6.732   9.902 -1.3854 -0.5357  1.2660
  302MOL0     H41620   6.261   6.654   9.743 -1.3579  0.0916  0.7553
  302MOL0     H41621   6.345   6.929   9.825  1.4195 -0.1589 -0.2275
  302MOL0     H41622   6.316   6.892   9.644 -0.3886 -1.0943 -1.0142
  302MOL0     H41623   6.514   6.758   9.831  0.6126  0.9096 -0.1570
  302MOL0     H41624   6.479   6.707   9.653 -3.8037  1.2432 -1.7799
  302MOL0     H41625   6.571   6.858   9.480  1.1363  0.3047 -1.5046
  302MOL0     H41626   6.869   7.097   9.465 -1.1066  0.8868 -0.6764
  302MOL0     H41627   6.743   7.018   9.364  1.6353 -1.3384 -1.9304
  302MOL0     H41628   6.985   6.955   9.316 -0.1362  0.3227 -0.1370
  302MOL0     H41629   6.992   6.886   9.478 -1.2278 -1.3024  1.1844
  302MOL0     H41630   6.767   6.761   9.386 -0.6529  2.4282  0.2843
  302MOL0     H41631   6.820   6.809   9.239 -5.2615 -0.1674  2.6702
  302MOL0     H41632   6.953   6.641   9.443  0.1646  1.4123  0.5660
  302MOL0     H41633   6.894   6.580   9.287 -1.5270  1.3423  0.1552
  302MOL0     H41634   7.043   6.422   9.291  2.1270 -3.1033  1.3717
  302MOL0     H41635   7.228   6.182   9.420 -0.5535 -1.8085 -1.0420
  302MOL0     H41636   7.269   6.166   9.248 -0.9363 -2.8296  1.2972
  302MOL0     H41637   7.109   6.189   9.289 -0.4461  0.9357 -1.7001
  302MOL0     H41638   7.733   6.164   9.043 -0.2882 -0.7753  0.5134
  302MOL0     H41639   7.934   6.062   9.085 -1.5416 -1.6135 -0.6012
  302MOL0     H41640   8.219   6.050   9.194  0.6514  1.8752 -1.0580
  302MOL0     H41641   8.201   6.209   9.270  3.3472 -0.6382 -3.2128
  302MOL0     H41642   8.269   5.944   9.397 -1.3595 -0.3508  1.5820
  302MOL0     H41643   8.390   6.063   9.354  1.3103  0.3738  2.8949
  302MOL0     H41644   8.301   6.026   9.609  1.0991 -2.1703 -3.5915
  302MOL0     H41645   8.171   6.131   9.551 -1.3775  0.5799 -3.2487
  302MOL0     H41646   8.331   6.247   9.677 -1.8359  2.8491 -0.7184
  302MOL0     H41647   8.327   6.298   9.504  2.3148 -0.1857 -0.8027
  302MOL0     H41648   8.543   6.142   9.474 -1.3496  0.5368 -1.5217
  302MOL0     H41649   8.559   6.310   9.514  1.8428 -0.4809  0.5749
  302MOL0     H41650   8.563   6.064   9.696 -0.4645  0.0054  0.4632
  302MOL0     H41651   8.556   6.223   9.769 -0.3031 -2.8528  1.0000
  302MOL0     H41652   8.759   6.293   9.629 -0.7207  0.1894 -0.8837
  302MOL0     H41653   8.769   6.144   9.550  1.1371  0.6563 -0.1999
  302MOL0     H41654   8.812   6.184   9.855  2.6738 -0.6176  0.7473
  302MOL0     H41655   8.930   6.131   9.739 -0.5479  1.6548 -0.5982
  302MOL0     H41656   7.947   6.210   9.492 -0.1507 -2.4305  0.5769
  302MOL0     H41657   7.738   6.338   9.444  0.7473  1.5703 -1.9596
  302MOL0     H41658   7.514   6.587   9.272 -0.4649  3.6463  1.3508
  302MOL0     H41659   7.328   6.744   9.284  1.9577 -0.4473 -0.8844
  302MOL0     H41660   5.484   7.021   9.934  0.6396  0.8814 -1.4602
  302MOL0     H41661   5.273   7.089   9.928  2.3290  1.8618 -1.5448
  302MOL0     H41662   4.835   6.903   9.740  0.7706 -1.3183  1.1538
  302MOL0     H41663   4.593   6.929   9.805  0.7514  0.7335  2.0446
  302MOL0     H41664   4.356   7.030   9.778 -1.3389 -2.8594  0.2643
  302MOL0     H41665   4.426   6.965   9.930 -0.1834  1.4669  0.1813
  302MOL0     H41666   4.237   7.195   9.949  0.7602  0.4262  1.2806
  302MOL0     H41667   4.268   7.073  10.073  0.8757  0.5565 -0.4311
  302MOL0     H41668   4.140   6.995   9.809 -1.6749  0.1432 -0.7252
  302MOL0     H41669   4.138   6.904   9.963 -0.1750 -0.8486 -1.8939
  302MOL0     H41670   4.017   7.173   9.919 -1.6522 -0.0716 -1.9573
  302MOL0     H41671   3.985   7.061  10.058  0.3236 -2.1750  0.4001
  302MOL0     H41672   3.740   6.894   9.769 -0.9812  4.0338 -2.1308
  302MOL0     H41673   4.627   7.340   9.864 -2.9638 -1.8679  3.3369
  302MOL0     H41674   4.829   7.467   9.756 -0.5858 -0.6686 -0.1216
  302MOL0     H41675   4.955   7.385   9.855 -0.3321 -1.2670 -0.0181
  302MOL0     H41676   4.958   7.372   9.685  0.9795 -1.1768  0.4112
  303MOL0     O41677  10.586   2.342   3.566  0.4257  0.0776  0.3546
  303MOL0     C41678  10.532   2.243   3.604  0.1450 -0.8184 -0.9862
  303MOL0     O41679  10.598   2.145   3.682 -0.1807  0.1688 -0.0997
  303MOL0     C41680  10.721   2.185   3.745  0.1426  0.0146  1.0200
  303MOL0     C41681  10.728   2.265   3.859  0.3345 -1.2138 -0.1291
  303MOL0     C41682  10.845   2.302   3.915 -0.5767 -0.2693 -0.1480
  303MOL0     C41683  10.965   2.261   3.853  0.5566 -0.1274 -0.0028
  303MOL0     O41684  11.081   2.311   3.918 -0.0830 -0.3959  0.2394
  303MOL0     C41685  11.191   2.346   3.832  0.0668  0.2837  0.1255
  303MOL0     C41686  11.306   2.385   3.913 -0.6999 -0.9902 -0.3686
  303MOL0     C41687  11.419   2.457   3.837  0.0676  0.6845  0.0591
  303MOL0     C41688  11.544   2.459   3.917 -0.1650  0.0535  1.1080
  303MOL0     C41689  11.664   2.522   3.841  0.2115  0.1668 -0.1860
  303MOL0     C41690  11.774   2.543   3.938  0.5520 -0.1441  0.3196
  303MOL0     C41691  11.875   2.638   3.873  0.4930  0.5306 -0.9190
  303MOL0     C41692  11.987   2.680   3.956  0.2254 -0.4550 -0.0183
  303MOL0     N41693  12.068   2.568   4.009 -0.0092 -0.0168 -0.3044
  303MOL0     C41694  12.152   2.479   3.948  0.3001  0.2329 -0.6071
  303MOL0     C41695  12.182   2.390   4.047  0.9542  0.2604  0.2455
  303MOL0     C41696  12.241   2.247   4.030 -0.4132 -0.8741  0.1783
  303MOL0     C41697  12.383   2.219   4.066 -0.2993  1.3081 -0.4432
  303MOL0     C41698  12.401   2.203   4.215 -0.3553  0.1321  0.0612
  303MOL0     C41699  12.558   2.183   4.242 -0.5980  0.1690 -0.4157
  303MOL0     O41700  12.582   2.189   4.378  0.2080 -0.3030 -0.1028
  303MOL0     C41701  12.709   2.142   4.426  0.4104 -0.8097 -0.5506
  303MOL0     C41702  12.810   2.091   4.352 -0.1780 -0.1300  0.6006
  303MOL0     C41703  12.943   2.083   4.405 -0.6527  0.2063  0.5936
  303MOL0     C41704  13.048   2.006   4.324 -0.0764 -0.2400 -1.5205
  303MOL0     C41705  12.965   2.110   4.541 -0.0174  0.5099 -0.1269
  303MOL0     C41706  13.098   2.095   4.614  0.6777  0.7363  0.4147
  303MOL0     O41707  13.175   1.987   4.576 -0.3520 -0.0954 -0.4355
  303MOL0     C41708  13.304   1.968   4.614  0.3362 -0.6858 -0.3807
  303MOL0     C41709  13.400   2.069   4.598  0.0386  0.6139 -0.7380
  303MOL0     C41710  13.526   2.049   4.647  0.4734  0.7357 -0.2910
  303MOL0     C41711  13.570   1.936   4.714  0.2256  0.7017 -0.9673
  303MOL0     O41712  13.698   1.890   4.755  1.0688 -0.5904 -1.0021
  303MOL0     C41713  13.786   1.995   4.794  0.9709  0.0789  0.3507
  303MOL0     C41714  13.924   1.937   4.829 -0.6462  0.2787  0.1822
  303MOL0     C41715  13.975   1.889   4.688 -0.5919  0.5485 -0.0179
  303MOL0     C41716  14.120   1.833   4.703  0.3308  0.4134  0.3384
  303MOL0     C41717  14.180   1.798   4.561 -0.3053  0.3408  0.0175
  303MOL0     C41718  14.333   1.796   4.555 -0.1028  0.0251 -0.2759
  303MOL0     C41719  14.394   1.790   4.416 -0.2515  0.4344 -0.0538
  303MOL0     C41720  14.525   1.714   4.412  0.0776  0.7347  0.3573
  303MOL0    Cl41721  14.573   1.711   4.235 -0.1342  0.3718  0.1338
  303MOL0     C41722  13.463   1.847   4.745 -0.0142  0.9708 -0.3471
  303MOL0     C41723  13.332   1.860   4.692  0.4376  0.3639  0.6661
  303MOL0     O41724  13.120   2.168   4.704 -0.6600 -0.3675 -0.5742
  303MOL0     C41725  12.853   2.149   4.616 -0.2125  0.8926  0.2484
  303MOL0     C41726  12.726   2.172   4.560  0.2642 -0.0627 -0.2560
  303MOL0     N41727  12.128   2.433   4.169  0.3547 -0.0882 -0.1970
  303MOL0     N41728  12.048   2.530   4.141 -0.1979  0.5790 -0.4608
  303MOL0     C41729  10.962   2.184   3.741  0.0145 -0.2322  0.7699
  303MOL0     C41730  10.840   2.146   3.685 -1.0015 -0.4326  0.7817
  303MOL0     C41731  10.392   2.234   3.573 -0.3044  0.7415 -0.5739
  303MOL0     C41732  10.316   2.130   3.640 -0.5791 -0.0187 -0.3655
  303MOL0     C41733  10.186   2.114   3.618  0.2869 -0.2204 -0.2716
  303MOL0     C41734  10.110   2.202   3.548 -0.4997  0.3295 -0.5640
  303MOL0     O41735   9.978   2.198   3.521  0.8082  0.3247  0.1837
  303MOL0     C41736   9.887   2.107   3.582 -0.6809  0.5038  0.9659
  303MOL0     C41737   9.877   1.981   3.497 -0.3398  0.0710  0.3010
  303MOL0     C41738   9.813   1.862   3.567 -0.4305  0.1381 -0.0988
  303MOL0     C41739   9.661   1.837   3.534  0.1914 -0.4058  0.8311
  303MOL0     C41740   9.634   1.782   3.398 -0.5714 -0.5081 -1.0850
  303MOL0     C41741   9.605   1.738   3.294 -0.0046 -0.5895  1.5098
  303MOL0     C41742  10.173   2.302   3.475  0.1370  0.2123 -0.3020
  303MOL0     C41743  10.316   2.311   3.480  0.0594 -0.3212  0.2038
  303MOL0     C41744  10.379   2.412   3.380 -0.6965  0.1335  0.6381
  303MOL0     H41745  10.631   2.295   3.897  0.4596  1.3736 -1.6516
  303MOL0     H41746  10.849   2.379   3.992 -2.7311  0.1950 -0.4593
  303MOL0     H41747  11.167   2.429   3.766  3.8116  1.2431 -0.2592
  303MOL0     H41748  11.219   2.256   3.777 -0.9126  0.6053 -0.9328
  303MOL0     H41749  11.264   2.449   3.991  1.4576  0.8686 -0.6102
  303MOL0     H41750  11.344   2.294   3.961 -1.8256 -1.6382 -0.6696
  303MOL0     H41751  11.421   2.407   3.740 -1.5522 -1.8412  1.2085
  303MOL0     H41752  11.385   2.560   3.823  1.3407  0.9007 -1.7603
  303MOL0     H41753  11.531   2.523   4.004  3.8696 -1.6845  3.2774
  303MOL0     H41754  11.565   2.355   3.947  0.9166  0.2170  0.9478
  303MOL0     H41755  11.627   2.608   3.784 -2.3515 -2.3240 -2.6369
  303MOL0     H41756  11.698   2.454   3.762 -0.4941 -0.7947  0.3227
  303MOL0     H41757  11.744   2.577   4.038  1.5473  0.2971  0.4801
  303MOL0     H41758  11.817   2.444   3.954 -2.4348 -1.4465  0.9882
  303MOL0     H41759  11.813   2.724   3.846  1.0658  1.4878  0.6696
  303MOL0     H41760  11.914   2.587   3.785 -1.9024 -1.4057 -0.9502
  303MOL0     H41761  12.060   2.732   3.892  1.0081 -0.4690  0.8315
  303MOL0     H41762  11.947   2.747   4.033 -1.9196 -1.9858  0.2745
  303MOL0     H41763  12.168   2.459   3.842  0.0163  0.2073 -0.6456
  303MOL0     H41764  12.229   2.227   3.923  2.0622 -3.1040  0.2147
  303MOL0     H41765  12.176   2.179   4.086  0.1033  1.2016  3.5276
  303MOL0     H41766  12.411   2.120   4.028  1.1521  0.9145  1.5001
  303MOL0     H41767  12.455   2.287   4.019 -0.8006  1.8138 -0.4915
  303MOL0     H41768  12.361   2.298   4.252 -0.5179  0.3148 -0.5739
  303MOL0     H41769  12.349   2.113   4.249  1.4389 -1.8354 -2.1343
  303MOL0     H41770  12.598   2.089   4.204  1.9986  1.0211  0.0469
  303MOL0     H41771  12.624   2.260   4.201  1.0364 -0.3967  1.0316
  303MOL0     H41772  12.794   2.068   4.247  0.4110  5.5079 -1.0372
  303MOL0     H41773  13.134   2.072   4.307 -0.2466  1.1562  2.1939
  303MOL0     H41774  12.999   1.975   4.231 -2.2677 -2.0139  0.1168
  303MOL0     H41775  13.078   1.912   4.373 -0.4833 -0.0791 -0.9493
  303MOL0     H41776  13.377   2.166   4.556 -0.1569  0.9104  0.0275
  303MOL0     H41777  13.603   2.125   4.638  1.3950  0.0564  1.4529
  303MOL0     H41778  13.799   2.066   4.711 -1.4326 -1.6679 -1.6402
  303MOL0     H41779  13.742   2.036   4.886 -0.9085 -0.3695 -0.3037
  303MOL0     H41780  13.993   2.007   4.876 -0.1185 -0.9660  1.3213
  303MOL0     H41781  13.910   1.845   4.886  0.4755 -0.3489 -0.5218
  303MOL0     H41782  13.971   1.967   4.612  1.3326  0.0481 -0.6945
  303MOL0     H41783  13.919   1.802   4.649  0.6396 -0.0069 -0.6087
  303MOL0     H41784  14.124   1.747   4.770  1.7952  0.1659 -0.0313
  303MOL0     H41785  14.193   1.901   4.749  3.2813 -3.8975  2.7314
  303MOL0     H41786  14.143   1.704   4.520  0.1138  0.7895 -1.4608
  303MOL0     H41787  14.147   1.874   4.490  1.1371  0.6154 -0.4029
  303MOL0     H41788  14.368   1.706   4.608  2.3745  0.8622 -0.3476
  303MOL0     H41789  14.372   1.890   4.596 -0.8740  1.2196 -2.1733
  303MOL0     H41790  14.414   1.886   4.367  1.4942  0.7656  1.2102
  303MOL0     H41791  14.319   1.736   4.358 -1.5251  0.1956  1.7264
  303MOL0     H41792  14.511   1.616   4.459 -0.5496  0.8459  0.4116
  303MOL0     H41793  14.606   1.767   4.463  2.4827 -1.4639 -0.9120
  303MOL0     H41794  13.497   1.753   4.787 -2.2206  1.2143  2.2578
  303MOL0     H41795  13.253   1.791   4.721 -0.2050  0.5207 -0.6501
  303MOL0     H41796  12.864   2.178   4.720 -0.8790  0.2138  0.5215
  303MOL0     H41797  12.649   2.222   4.616  0.9957  1.1816 -0.3255
  303MOL0     H41798  11.046   2.139   3.689 -0.7413 -0.1090 -0.6350
  303MOL0     H41799  10.846   2.075   3.603 -0.3566 -0.7711  1.1102
  303MOL0     H41800  10.362   2.059   3.708  0.6803 -0.8997 -2.0625
  303MOL0     H41801  10.140   2.032   3.673  0.6136 -1.6439 -2.0458
  303MOL0     H41802   9.926   2.080   3.681  0.8477 -1.4033 -0.0833
  303MOL0     H41803   9.786   2.147   3.586 -0.8438  0.2590 -0.2254
  303MOL0     H41804   9.980   1.956   3.470 -0.2018  0.3915  0.5254
  303MOL0     H41805   9.827   1.998   3.402 -0.8122 -1.0723  0.3327
  303MOL0     H41806   9.872   1.774   3.540  0.3104  0.4016  0.6409
  303MOL0     H41807   9.819   1.870   3.675 -0.2439 -4.0682  0.3845
  303MOL0     H41808   9.595   1.922   3.554 -0.7831 -0.9211 -0.1612
  303MOL0     H41809   9.632   1.758   3.603 -0.9510 -0.1256  0.6925
  303MOL0     H41810   9.592   1.693   3.197  0.9954  1.6730  0.2564
  303MOL0     H41811  10.125   2.372   3.408  2.7737  0.6123 -1.9064
  303MOL0     H41812  10.413   2.504   3.427  1.0966  1.1199 -2.3388
  303MOL0     H41813  10.470   2.362   3.346 -0.0743 -0.4299  3.0145
  303MOL0     H41814  10.321   2.455   3.297  0.7024 -2.2566 -1.7634
  304MOL0     O41815  10.939   6.566  10.288  0.2284  0.8829 -0.2880
  304MOL0     C41816  11.031   6.516  10.357 -0.2412  0.7616 -0.2806
  304MOL0     O41817  11.162   6.557  10.365 -1.2119  0.0546  0.5300
  304MOL0     C41818  11.204   6.680  10.325 -0.2132 -0.2411 -0.4070
  304MOL0     C41819  11.134   6.794  10.303  0.1029 -1.1574 -0.2278
  304MOL0     C41820  11.186   6.913  10.268 -0.0322  0.5928 -0.0851
  304MOL0     C41821  11.323   6.942  10.256 -0.6340  0.2628  0.1424
  304MOL0     O41822  11.383   7.051  10.195 -0.8675  0.2505  0.0618
  304MOL0     C41823  11.358   7.180  10.252 -0.5640 -0.3740 -0.1208
  304MOL0     C41824  11.441   7.290  10.185  0.4010  0.1069  0.1478
  304MOL0     C41825  11.586   7.273  10.203  0.3471  0.7503 -0.0759
  304MOL0     C41826  11.658   7.359  10.102  0.0095  0.5034  0.3615
  304MOL0     C41827  11.810   7.372  10.109 -0.6344 -0.0655  0.2799
  304MOL0     C41828  11.902   7.242  10.072  1.0243  0.4687 -0.6732
  304MOL0     C41829  12.055   7.278  10.090 -0.1523 -0.1856 -0.2281
  304MOL0     C41830  12.148   7.168  10.028 -0.0937 -0.1843  0.1212
  304MOL0     N41831  12.283   7.223  10.003  0.4371  0.2573 -0.2241
  304MOL0     C41832  12.394   7.211  10.078 -0.3301 -0.2182 -1.3903
  304MOL0     C41833  12.498   7.236  10.000  0.4064 -0.1609 -0.1184
  304MOL0     C41834  12.648   7.230  10.019  0.7683 -0.6996  0.4790
  304MOL0     C41835  12.702   7.361  10.072 -0.0293  0.3150 -0.6568
  304MOL0     C41836  12.859   7.363  10.069  0.5893 -0.4405 -0.3922
  304MOL0     C41837  12.909   7.437   9.934 -0.8656  0.2898 -1.5087
  304MOL0     O41838  13.044   7.459   9.964  0.2988  0.6607  0.0772
  304MOL0     C41839  13.132   7.490   9.861  0.5233  0.0422 -0.1810
  304MOL0     C41840  13.264   7.476   9.881 -0.0711  0.0927 -0.1316
  304MOL0     C41841  13.366   7.533   9.802 -0.2475  0.6519 -0.1794
  304MOL0     C41842  13.509   7.506   9.835 -0.9176 -0.0493 -0.3415
  304MOL0     C41843  13.321   7.624   9.696 -0.9251 -0.2117 -0.9803
  304MOL0     C41844  13.404   7.703   9.599 -0.1857 -0.5025 -0.1488
  304MOL0     O41845  13.344   7.794   9.524 -0.3156 -0.1098  0.0745
  304MOL0     C41846  13.413   7.845   9.417 -0.7471  0.0618 -0.0030
  304MOL0     C41847  13.527   7.793   9.347 -0.1564 -0.4914  0.5130
  304MOL0     C41848  13.588   7.870   9.247  0.2092 -0.2818  0.3782
  304MOL0     C41849  13.549   8.000   9.216 -0.1670  0.9477 -0.1242
  304MOL0     O41850  13.629   8.070   9.129  0.7350  0.2198 -0.5211
  304MOL0     C41851  13.570   8.167   9.042  0.3556  0.2866  0.2984
  304MOL0     C41852  13.620   8.155   8.903  0.2276 -0.2627  0.9552
  304MOL0     C41853  13.763   8.203   8.866  1.0169  0.7205  0.5152
  304MOL0     C41854  13.869   8.109   8.918  0.1862 -0.1340 -0.6469
  304MOL0     C41855  13.999   8.167   8.862  0.0169  0.9797  0.1714
  304MOL0     C41856  14.118   8.095   8.925  0.5155 -0.3967  0.3259
  304MOL0     C41857  14.238   8.165   8.859  0.1571  0.1281 -0.1603
  304MOL0     C41858  14.341   8.052   8.844 -0.4060  0.8189  0.5525
  304MOL0    Cl41859  14.511   8.111   8.802 -0.0987  0.1875  0.3386
  304MOL0     C41860  13.432   8.049   9.277  0.0911  0.2260 -0.0504
  304MOL0     C41861  13.365   7.974   9.382  0.0556  0.1841 -0.4766
  304MOL0     O41862  13.526   7.683   9.609  0.3241 -0.3272  0.5748
  304MOL0     C41863  13.179   7.637   9.673  0.7975  0.3286  0.7711
  304MOL0     C41864  13.088   7.569   9.752 -0.0235 -0.8643 -0.0771
  304MOL0     N41865  12.450   7.293   9.890 -0.3929 -0.2863 -0.7291
  304MOL0     N41866  12.323   7.283   9.890  0.4115  0.1936  0.3919
  304MOL0     C41867  11.405   6.825  10.279  0.7718  1.3387 -0.6314
  304MOL0     C41868  11.345   6.702  10.309  0.5973 -0.3550 -0.7945
  304MOL0     C41869  10.997   6.394  10.424  0.2273  0.0933 -0.7617
  304MOL0     C41870  10.864   6.372  10.459  0.3686  0.4473  0.1872
  304MOL0     C41871  10.825   6.262  10.543  0.1457 -0.6985 -0.6174
  304MOL0     C41872  10.921   6.174  10.588  0.3553  0.5913 -0.2409
  304MOL0     O41873  10.884   6.080  10.687 -0.1089 -0.1718  0.5032
  304MOL0     C41874  10.964   6.083  10.797  0.1322  0.2408  0.5376
  304MOL0     C41875  10.916   5.996  10.913 -0.1091  0.9659  0.0729
  304MOL0     C41876  10.986   6.023  11.053 -0.2876  0.2656  0.3516
  304MOL0     C41877  10.923   5.926  11.161 -0.0586 -0.5728  0.4448
  304MOL0     C41878  10.935   5.777  11.133 -0.5536  0.1815 -0.6590
  304MOL0     C41879  10.928   5.660  11.093  0.8149 -0.1846  0.1649
  304MOL0     C41880  11.050   6.175  10.529  0.9070 -0.1939  0.8693
  304MOL0     C41881  11.092   6.295  10.459 -0.3765 -0.0142  0.1218
  304MOL0     C41882  11.241   6.302  10.426 -0.6855 -0.0155  0.0256
  304MOL0     H41883  11.026   6.800  10.320 -0.0536  4.6810 -1.1462
  304MOL0     H41884  11.113   6.989  10.242 -1.0548 -1.2595 -3.1753
  304MOL0     H41885  11.381   7.173  10.358  0.9990 -1.0553 -0.4845
  304MOL0     H41886  11.253   7.207  10.235 -0.5437 -1.3923 -2.1856
  304MOL0     H41887  11.423   7.267  10.079 -0.1224 -0.2428  0.3089
  304MOL0     H41888  11.411   7.389  10.221  1.4747  0.0097  1.4037
  304MOL0     H41889  11.625   7.288  10.304  0.7909  0.6788 -0.2348
  304MOL0     H41890  11.613   7.170  10.183  1.6314  1.4026 -1.9790
  304MOL0     H41891  11.626   7.323  10.004 -0.6838  1.0463  0.3776
  304MOL0     H41892  11.613   7.458  10.115  2.2943  1.6578 -0.1464
  304MOL0     H41893  11.837   7.407  10.209  2.6026 -1.7635  0.1446
  304MOL0     H41894  11.843   7.455  10.046  2.0213 -1.8663 -0.9052
  304MOL0     H41895  11.869   7.150  10.122 -1.2658  1.3844 -0.3556
  304MOL0     H41896  11.893   7.226   9.964  0.3251 -2.4662 -0.2906
  304MOL0     H41897  12.082   7.293  10.195 -0.5414  0.0846 -0.1626
  304MOL0     H41898  12.071   7.372  10.037  0.6575 -0.3597 -0.3043
  304MOL0     H41899  12.156   7.079  10.091 -2.2941 -0.2342  0.3906
  304MOL0     H41900  12.114   7.146   9.926 -0.3164  0.8454 -0.0384
  304MOL0     H41901  12.413   7.170  10.176 -1.0435  1.4857 -0.4864
  304MOL0     H41902  12.701   7.195   9.929 -0.1681  1.9250 -1.2215
  304MOL0     H41903  12.667   7.165  10.104 -1.5129  0.8400  2.2839
  304MOL0     H41904  12.670   7.448  10.013  2.0358  1.7910  0.2561
  304MOL0     H41905  12.676   7.388  10.175  0.7261  1.0537 -0.6512
  304MOL0     H41906  12.903   7.418  10.153 -0.6108 -2.2430  1.4918
  304MOL0     H41907  12.904   7.264  10.074  0.3513 -0.6065 -1.3270
  304MOL0     H41908  12.908   7.372   9.846  2.5390 -3.3606  0.7938
  304MOL0     H41909  12.857   7.532   9.919 -1.2546  0.3401  0.0619
  304MOL0     H41910  13.278   7.417   9.971  2.9451 -1.9772 -1.7858
  304MOL0     H41911  13.531   7.455   9.930 -0.2041  1.8838  0.5974
  304MOL0     H41912  13.554   7.603   9.855  1.4511 -0.9757 -0.8952
  304MOL0     H41913  13.567   7.460   9.755  1.4936 -1.0631  1.8496
  304MOL0     H41914  13.560   7.691   9.364  1.8995  0.1023  0.3392
  304MOL0     H41915  13.677   7.836   9.194 -1.5380 -1.7829 -1.7414
  304MOL0     H41916  13.462   8.147   9.038  0.4054  0.1072 -0.2095
  304MOL0     H41917  13.583   8.272   9.070 -1.7299  0.6290  0.1159
  304MOL0     H41918  13.624   8.049   8.874 -1.1047  0.2995 -1.5789
  304MOL0     H41919  13.541   8.196   8.839 -0.6308  1.8438  3.2348
  304MOL0     H41920  13.787   8.301   8.907  1.2495 -0.3906  3.1903
  304MOL0     H41921  13.768   8.208   8.756 -1.1427  0.1922  0.3448
  304MOL0     H41922  13.853   8.007   8.882 -3.4627 -0.2800  0.9346
  304MOL0     H41923  13.879   8.110   9.027 -0.3608  0.2433 -0.5922
  304MOL0     H41924  14.007   8.162   8.753 -1.7359 -1.5649  0.0733
  304MOL0     H41925  13.997   8.272   8.894 -2.0311  1.3613 -0.9936
  304MOL0     H41926  14.105   7.988   8.907 -2.0800 -0.3896  1.7366
  304MOL0     H41927  14.130   8.115   9.032 -0.9826  0.7796  0.3066
  304MOL0     H41928  14.278   8.241   8.927  1.1979 -2.3723  2.2065
  304MOL0     H41929  14.227   8.207   8.759 -0.5186 -2.0398 -1.0619
  304MOL0     H41930  14.305   7.983   8.767  2.2090 -0.9087  0.7373
  304MOL0     H41931  14.352   8.001   8.940  0.7582  1.4725  0.7931
  304MOL0     H41932  13.395   8.146   9.244  0.4421 -0.2957 -2.0984
  304MOL0     H41933  13.283   8.020   9.436  1.2063  2.1801 -0.3385
  304MOL0     H41934  13.128   7.706   9.607  3.9906  1.8400 -0.2707
  304MOL0     H41935  12.985   7.590   9.726  0.0425 -1.0945 -0.5234
  304MOL0     H41936  11.510   6.824  10.251  0.8170 -0.6579 -0.5499
  304MOL0     H41937  11.409   6.614  10.315  0.3417 -0.5362 -0.7454
  304MOL0     H41938  10.787   6.436  10.418 -0.5308 -0.1688  0.8737
  304MOL0     H41939  10.722   6.254  10.574 -0.6274 -1.5736 -3.1787
  304MOL0     H41940  11.066   6.070  10.758 -1.1248 -0.6624 -2.8468
  304MOL0     H41941  10.959   6.183  10.841  0.0491  1.0206 -1.1674
  304MOL0     H41942  10.911   5.889  10.891 -0.9490  0.5675  1.9973
  304MOL0     H41943  10.812   6.025  10.926 -0.3494 -0.2994  1.1433
  304MOL0     H41944  11.094   6.007  11.045 -0.1147  1.8789 -0.8111
  304MOL0     H41945  10.971   6.128  11.077 -0.7950  0.1567  0.5348
  304MOL0     H41946  10.817   5.952  11.162 -0.6029 -2.6437  0.1607
  304MOL0     H41947  10.974   5.956  11.254  0.5573  0.9357 -0.3470
  304MOL0     H41948  10.902   5.559  11.068 -0.4632 -0.4797  2.4129
  304MOL0     H41949  11.114   6.091  10.549  0.1037 -0.5334  2.1205
  304MOL0     H41950  11.265   6.306  10.319  0.1062  1.3237  0.2323
  304MOL0     H41951  11.290   6.389  10.471  0.0980 -0.9452  1.0304
  304MOL0     H41952  11.285   6.213  10.471  1.3440  2.1350  2.6092
  305MOL0     O41953   7.047  10.338   8.581 -0.0032 -0.2745  0.0992
  305MOL0     C41954   6.929  10.304   8.570 -0.1315 -0.8455 -0.2211
  305MOL0     O41955   6.886  10.235   8.464 -0.2461  0.2853  0.3443
  305MOL0     C41956   6.949  10.244   8.342 -0.2687  0.2863  0.7893
  305MOL0     C41957   7.011  10.137   8.286 -0.7203  0.2742 -1.3893
  305MOL0     C41958   7.080  10.152   8.161 -0.4040  0.5037 -0.2160
  305MOL0     C41959   7.097  10.275   8.098  0.5287  0.2222  1.1188
  305MOL0     O41960   7.161  10.307   7.983 -0.5415  0.1807  0.2001
  305MOL0     C41961   7.226  10.198   7.916  0.0869 -0.3067 -0.5096
  305MOL0     C41962   7.130  10.123   7.822  0.1704 -0.4553  0.5217
  305MOL0     C41963   7.212  10.022   7.738 -0.3803 -0.0330 -0.3199
  305MOL0     C41964   7.132   9.948   7.631 -0.3786  0.3814  0.1088
  305MOL0     C41965   7.213   9.826   7.575  0.7657 -0.3834 -0.1260
  305MOL0     C41966   7.138   9.771   7.447  0.0716  0.3793  0.4025
  305MOL0     C41967   7.022   9.672   7.470  0.1610  0.0966  0.6618
  305MOL0     C41968   6.955   9.642   7.334  0.4017  0.3858 -0.6917
  305MOL0     N41969   6.887   9.752   7.273  0.1226 -0.5408  0.4788
  305MOL0     C41970   6.752   9.758   7.256  0.2844  0.8403 -0.6605
  305MOL0     C41971   6.732   9.858   7.174 -0.3851 -0.7341 -0.1774
  305MOL0     C41972   6.591   9.894   7.130  0.0675 -0.0540  1.0584
  305MOL0     C41973   6.543  10.001   7.230 -0.6592  0.4222 -0.2707
  305MOL0     C41974   6.394  10.040   7.203  0.2024 -0.2866 -0.0166
  305MOL0     C41975   6.316  10.105   7.318 -0.9243  0.2493 -0.8833
  305MOL0     O41976   6.303  10.028   7.432  0.2068  0.3272 -0.1379
  305MOL0     C41977   6.226   9.915   7.441  0.0025  0.3169  0.2879
  305MOL0     C41978   6.239   9.847   7.562  0.5857  0.4137 -0.4867
  305MOL0     C41979   6.176   9.720   7.583 -0.6534  0.4124  0.6374
  305MOL0     C41980   6.215   9.648   7.711  0.5326 -0.5327  0.0664
  305MOL0     C41981   6.094   9.662   7.470 -0.3943  0.0011 -0.4485
  305MOL0     C41982   6.034   9.527   7.477  0.1202  0.0264 -0.1769
  305MOL0     O41983   5.980   9.485   7.359 -0.2154  0.0891 -0.4339
  305MOL0     C41984   5.876   9.397   7.363  0.2459  0.4129  0.2872
  305MOL0     C41985   5.874   9.277   7.287 -0.7627 -0.3793 -0.2786
  305MOL0     C41986   5.762   9.195   7.291 -0.9278  0.6778  0.1201
  305MOL0     C41987   5.646   9.243   7.339 -0.3284 -0.4352  0.7791
  305MOL0     O41988   5.523   9.183   7.320 -0.1190 -0.1160  0.1955
  305MOL0     C41989   5.490   9.127   7.191  0.8563 -0.5370 -0.7426
  305MOL0     C41990   5.359   9.051   7.202  0.6259 -0.0003 -0.1423
  305MOL0     C41991   5.293   9.038   7.059 -0.3544 -0.3467  0.4123
  305MOL0     C41992   5.167   8.954   7.075  0.7880  0.0261  0.3616
  305MOL0     C41993   5.070   8.947   6.962 -0.1142 -0.1139  1.1695
  305MOL0     C41994   4.946   8.857   7.004  0.6286 -0.4753  1.0594
  305MOL0     C41995   4.871   8.817   6.884 -0.3880  0.0760 -0.0986
  305MOL0     C41996   4.776   8.918   6.830 -0.1695  0.8165  0.4607
  305MOL0    Cl41997   4.647   8.984   6.941  0.2052  0.2549 -0.2508
  305MOL0     C41998   5.652   9.356   7.419  0.2451  0.3818  0.2959
  305MOL0     C41999   5.755   9.440   7.423 -0.7468 -0.3941 -0.1800
  305MOL0     O42000   6.014   9.474   7.589  0.1935 -0.3161  0.9712
  305MOL0     C42001   6.083   9.739   7.349 -1.0315  0.4290  0.0072
  305MOL0     C42002   6.150   9.862   7.334  0.6443  0.3840 -0.4512
  305MOL0     N42003   6.856   9.909   7.135  0.4172 -0.0836 -0.8824
  305MOL0     N42004   6.950   9.837   7.190  0.4354  0.4155 -0.5814
  305MOL0     C42005   7.032  10.382   8.151 -0.3772  0.2959 -0.4281
  305MOL0     C42006   6.964  10.359   8.273 -0.0337 -0.2187  0.2422
  305MOL0     C42007   6.825  10.366   8.660  0.6531  0.3415 -0.0546
  305MOL0     C42008   6.695  10.390   8.606 -1.3461 -0.1912  0.8238
  305MOL0     C42009   6.597  10.452   8.684 -0.2328 -0.1329  0.5579
  305MOL0     C42010   6.616  10.492   8.818 -0.7480 -1.6758 -0.0679
  305MOL0     O42011   6.523  10.577   8.871 -0.7006 -0.1561  0.2033
  305MOL0     C42012   6.527  10.616   9.013  0.1317  1.0417 -0.0705
  305MOL0     C42013   6.459  10.508   9.104 -0.0099  0.1252  0.2088
  305MOL0     C42014   6.451  10.549   9.241  1.5241 -0.1012  0.4826
  305MOL0     C42015   6.400  10.439   9.331 -0.0147  0.2515  0.4996
  305MOL0     C42016   6.489  10.323   9.345 -0.4460 -0.0935 -0.7940
  305MOL0     C42017   6.560  10.223   9.342 -0.4360 -0.0325  0.7729
  305MOL0     C42018   6.742  10.448   8.873 -0.2589  0.8278 -0.0915
  305MOL0     C42019   6.846  10.384   8.797 -0.0743 -0.5521  0.2238
  305MOL0     C42020   6.971  10.353   8.873  0.0076  0.3555 -1.0711
  305MOL0     H42021   6.993  10.042   8.336 -0.7449  0.3236 -1.3051
  305MOL0     H42022   7.119  10.063   8.111 -0.7896  1.5366 -2.5025
  305MOL0     H42023   7.269  10.132   7.992 -2.4883  1.7185  3.0066
  305MOL0     H42024   7.304  10.237   7.850  2.5571 -1.7849  1.3784
  305MOL0     H42025   7.046  10.082   7.879  0.0407 -1.4837 -0.3788
  305MOL0     H42026   7.084  10.195   7.754 -2.4640  0.0894  2.6964
  305MOL0     H42027   7.292  10.067   7.679  1.7870 -3.2449 -0.1052
  305MOL0     H42028   7.260   9.945   7.799  0.3448 -0.7808 -1.8055
  305MOL0     H42029   7.030   9.923   7.662 -0.1839 -1.9076 -0.8917
  305MOL0     H42030   7.131  10.029   7.558  2.1179  1.4830  1.1507
  305MOL0     H42031   7.219   9.746   7.650  0.2521 -0.7252 -0.4347
  305MOL0     H42032   7.315   9.859   7.560 -0.0995  2.9739  0.7217
  305MOL0     H42033   7.103   9.859   7.392  1.5619  0.7527  0.0150
  305MOL0     H42034   7.200   9.717   7.375 -2.7134  1.6953 -3.3014
  305MOL0     H42035   6.950   9.705   7.545  0.2947  0.0582  0.8066
  305MOL0     H42036   7.069   9.579   7.503  0.4727 -1.0125 -2.5687
  305MOL0     H42037   7.021   9.588   7.266  0.7138 -2.8439  1.9576
  305MOL0     H42038   6.878   9.570   7.364  0.3550  0.5100 -0.5104
  305MOL0     H42039   6.691   9.678   7.297  1.8995 -0.3785 -0.5387
  305MOL0     H42040   6.529   9.804   7.127  2.0173 -1.6132 -4.6172
  305MOL0     H42041   6.590   9.938   7.029 -0.1090 -0.8775  0.6922
  305MOL0     H42042   6.557   9.962   7.330  0.1503 -1.7413 -1.1801
  305MOL0     H42043   6.611  10.087   7.224 -1.2933  0.8569 -2.1037
  305MOL0     H42044   6.387  10.108   7.118 -0.0950 -0.1919  0.0837
  305MOL0     H42045   6.341   9.952   7.166 -0.8728 -0.0363  0.8771
  305MOL0     H42046   6.363  10.201   7.341 -0.5879 -0.1457  0.1536
  305MOL0     H42047   6.214  10.127   7.286 -2.4528 -0.6935  2.8527
  305MOL0     H42048   6.309   9.893   7.632  3.5573 -2.9554 -0.9515
  305MOL0     H42049   6.145   9.675   7.790 -0.2176 -2.3514  0.0865
  305MOL0     H42050   6.311   9.688   7.744  0.0765  0.4763  0.1995
  305MOL0     H42051   6.228   9.539   7.703 -1.4227 -0.7162 -1.1484
  305MOL0     H42052   5.967   9.245   7.243 -0.8429 -3.0315  1.2472
  305MOL0     H42053   5.775   9.108   7.227  4.0564  1.8370 -0.8596
  305MOL0     H42054   5.490   9.211   7.120 -2.5394  1.5682  1.4649
  305MOL0     H42055   5.557   9.049   7.153 -1.6489 -2.7594 -0.8445
  305MOL0     H42056   5.384   8.957   7.251  1.5400  0.1711 -0.2515
  305MOL0     H42057   5.291   9.110   7.264 -1.7327  1.0901 -3.4588
  305MOL0     H42058   5.373   8.986   7.005  1.0137  1.3633  0.7060
  305MOL0     H42059   5.265   9.133   7.013  2.4240  1.1675  1.5957
  305MOL0     H42060   5.105   8.994   7.155 -0.0371 -1.7547  0.6608
  305MOL0     H42061   5.189   8.851   7.105 -2.3794 -1.0879 -0.7105
  305MOL0     H42062   5.030   9.045   6.935 -1.6010 -0.9191  0.2964
  305MOL0     H42063   5.121   8.912   6.872 -1.4771 -2.3452  1.1772
  305MOL0     H42064   4.879   8.909   7.074 -0.8112  0.6123 -1.0064
  305MOL0     H42065   4.981   8.765   7.051 -1.5527 -0.8477  2.1300
  305MOL0     H42066   4.812   8.733   6.922 -0.2606  1.2071  2.9385
  305MOL0     H42067   4.938   8.796   6.800 -1.7914 -0.4275 -1.1325
  305MOL0     H42068   4.727   8.864   6.749  1.7878 -0.8599  0.2973
  305MOL0     H42069   4.836   8.999   6.788 -1.0477  0.9092 -0.6467
  305MOL0     H42070   5.562   9.392   7.468 -0.5134  0.1392 -0.8606
  305MOL0     H42071   5.751   9.539   7.466  1.0482 -0.0543 -0.6878
  305MOL0     H42072   6.026   9.708   7.262 -0.0578  1.1326 -0.8964
  305MOL0     H42073   6.140   9.920   7.243  0.0732 -2.5505 -2.3731
  305MOL0     H42074   7.046  10.477   8.099  1.6049  0.6534  0.6526
  305MOL0     H42075   6.926  10.449   8.321 -0.0694  1.1875 -2.2393
  305MOL0     H42076   6.674  10.378   8.500 -2.1405 -3.2849  1.2428
  305MOL0     H42077   6.504  10.475   8.632  0.7116  0.6273 -0.8887
  305MOL0     H42078   6.632  10.633   9.038  0.6142  0.4602 -1.6165
  305MOL0     H42079   6.480  10.715   9.018  0.1776  1.0662 -0.1380
  305MOL0     H42080   6.511  10.412   9.097  1.6231  1.0755 -3.2759
  305MOL0     H42081   6.357  10.503   9.066 -1.2917  4.6257  2.3532
  305MOL0     H42082   6.546  10.589   9.278  2.1113  0.3814 -1.3799
  305MOL0     H42083   6.383  10.634   9.228  0.9555 -0.9145 -2.8950
  305MOL0     H42084   6.297  10.407   9.310 -0.4044  0.9572  1.2744
  305MOL0     H42085   6.405  10.478   9.433  0.1111 -0.1167  0.6344
  305MOL0     H42086   6.614  10.134   9.321  0.3492  0.8990 -1.4873
  305MOL0     H42087   6.757  10.457   8.980 -2.6759  2.9085  0.1726
  305MOL0     H42088   7.053  10.311   8.814 -0.7538 -2.6514 -0.2031
  305MOL0     H42089   7.001  10.444   8.924 -2.2955  2.1078 -2.6187
  305MOL0     H42090   6.960  10.279   8.952 -1.7228 -1.7931 -3.1386
  306MOL0     O42091   0.000  11.094  10.368  0.2741  0.1776  0.7681
  306MOL0     C42092   0.103  11.036  10.387  0.3260 -0.1263  0.5872
  306MOL0     O42093   0.116  10.910  10.439 -0.6570 -0.5525 -0.1834
  306MOL0     C42094  -0.001  10.841  10.480  0.4135  0.1293  0.4501
  306MOL0     C42095  -0.002  10.711  10.429 -0.1624  1.0586 -0.0990
  306MOL0     C42096  -0.099  10.620  10.478 -0.4834  0.0584 -0.1095
  306MOL0     C42097  -0.206  10.666  10.556  0.4204  0.8184  0.0868
  306MOL0     O42098  -0.312  10.583  10.583  0.1626  0.3084  0.1445
  306MOL0     C42099  -0.443  10.650  10.568  0.4281  0.2808 -0.6500
  306MOL0     C42100  -0.553  10.551  10.547  0.2179  0.1032  0.6667
  306MOL0     C42101  -0.553  10.478  10.414  0.0099 -0.1177  0.4844
  306MOL0     C42102  -0.596  10.337  10.438 -0.6707 -0.0631  0.4542
  306MOL0     C42103  -0.744  10.339  10.492  0.9022  0.2835  0.0752
  306MOL0     C42104  -0.816  10.213  10.447  0.2341  0.1983 -0.4939
  306MOL0     C42105  -0.964  10.222  10.496 -0.5279 -0.0504  0.1233
  306MOL0     C42106  -0.982  10.150  10.630  0.0561 -0.2674  0.0781
  306MOL0     N42107  -0.996  10.004  10.627  0.3657 -0.2679  0.0057
  306MOL0     C42108  -1.070   9.929  10.532  0.6507  0.5835 -0.6664
  306MOL0     C42109  -1.067   9.804  10.581  0.3867 -0.4141 -0.2245
  306MOL0     C42110  -1.139   9.683  10.532 -0.6828 -0.1596  0.0652
  306MOL0     C42111  -1.108   9.546  10.595 -0.4922  0.1583 -0.4286
  306MOL0     C42112  -0.968   9.492  10.542  0.3634 -0.2018  0.6244
  306MOL0     C42113  -0.926   9.380  10.629 -0.0379 -0.3969 -0.5308
  306MOL0     O42114  -0.781   9.390  10.641  0.0870 -0.2235  0.6322
  306MOL0     C42115  -0.710   9.322  10.731  1.1044  0.9297 -0.2558
  306MOL0     C42116  -0.757   9.205  10.805 -0.3177 -0.1756  0.2736
  306MOL0     C42117  -0.665   9.124  10.883  0.6657  0.5569 -0.5139
  306MOL0     C42118  -0.716   8.994  10.942 -0.3513  0.1016  0.1467
  306MOL0     C42119  -0.529   9.169  10.895 -0.2026 -0.4877 -0.5786
  306MOL0     C42120  -0.419   9.109  10.968 -0.2578  0.7849 -0.3429
  306MOL0     O42121  -0.301   9.084  10.910  0.0546 -0.0051 -0.3776
  306MOL0     C42122  -0.200   9.078  10.999 -0.7011  0.1063 -0.0144
  306MOL0     C42123  -0.156   8.959  11.056  0.1415  0.3254  1.1365
  306MOL0     C42124  -0.041   8.953  11.130 -0.0143  0.1134  0.2355
  306MOL0     C42125   0.034   9.073  11.155 -0.0137  0.0091 -0.2347
  306MOL0     O42126   0.155   9.065  11.213 -0.6360 -0.1588 -0.4065
  306MOL0     C42127   0.227   9.181  11.248  0.3432  0.0436 -0.5999
  306MOL0     C42128   0.338   9.156  11.354 -0.4915 -0.5614  0.3781
  306MOL0     C42129   0.432   9.045  11.322  0.4778 -0.3176  0.0833
  306MOL0     C42130   0.542   9.059  11.426 -0.4610  1.0705 -0.3807
  306MOL0     C42131   0.651   9.161  11.399 -0.7081  0.0426 -0.0349
  306MOL0     C42132   0.775   9.120  11.482 -0.3303  1.1766  0.6390
  306MOL0     C42133   0.885   9.211  11.430  0.1461 -0.3120 -0.2817
  306MOL0     C42134   0.980   9.235  11.548 -0.4186 -1.0372 -0.0405
  306MOL0    Cl42135   1.123   9.331  11.484 -0.1305 -0.2647  0.3366
  306MOL0     C42136  -0.015   9.193  11.092 -0.1939  0.1271 -0.9635
  306MOL0     C42137  -0.134   9.194  11.022 -0.2822 -0.2195  0.8009
  306MOL0     O42138  -0.449   9.068  11.087 -0.0415  0.5368  0.4376
  306MOL0     C42139  -0.489   9.281  10.819  0.1846  0.1510 -0.8951
  306MOL0     C42140  -0.576   9.356  10.745  0.1698  0.6108  1.0357
  306MOL0     N42141  -0.999   9.814  10.698 -0.2877 -0.5616  0.1673
  306MOL0     N42142  -0.943   9.927  10.717 -0.3434 -0.0100  0.2726
  306MOL0     C42143  -0.197  10.797  10.606 -0.1807  0.0513 -0.6791
  306MOL0     C42144  -0.100  10.883  10.569 -0.5080  0.6736  0.3652
  306MOL0     C42145   0.230  11.106  10.336  0.0922 -0.6490  0.1439
  306MOL0     C42146   0.335  11.020  10.310 -0.1996  0.7567  1.2541
  306MOL0     C42147   0.453  11.066  10.254 -0.4987 -0.1347 -0.4330
  306MOL0     C42148   0.464  11.201  10.239 -0.1976 -0.6847 -0.2262
  306MOL0     O42149   0.590  11.253  10.204  0.2443  0.1122  0.3329
  306MOL0     C42150   0.585  11.356  10.104  0.3949  0.0779  0.6665
  306MOL0     C42151   0.627  11.503  10.156 -0.6352 -0.3064 -0.5988
  306MOL0     C42152   0.690  11.500  10.297 -0.5275 -1.1661  0.6242
  306MOL0     C42153   0.744  11.641  10.349  0.4651  0.6983  0.3004
  306MOL0     C42154   0.862  11.683  10.264  0.0288 -0.3447 -0.4246
  306MOL0     C42155   0.957  11.690  10.189 -0.2065 -0.3167  0.3212
  306MOL0     C42156   0.358  11.290  10.273  0.0602  0.3680 -0.3458
  306MOL0     C42157   0.240  11.244  10.325 -0.3141  0.0697 -0.6286
  306MOL0     C42158   0.129  11.346  10.338 -0.2609 -0.1981 -0.1407
  306MOL0     H42159   0.073  10.670  10.362 -1.7450 -1.2931 -0.5511
  306MOL0     H42160  -0.099  10.526  10.423  1.6728  0.7565 -1.4311
  306MOL0     H42161  -0.437  10.724  10.487 -1.6104  0.6773 -0.5069
  306MOL0     H42162  -0.460  10.702  10.663  1.6695 -0.9615  0.2894
  306MOL0     H42163  -0.553  10.475  10.626 -0.8463 -1.6433 -0.8949
  306MOL0     H42164  -0.649  10.601  10.564  0.0001 -0.1469  0.2209
  306MOL0     H42165  -0.621  10.530  10.345  0.7340  1.6664  1.0839
  306MOL0     H42166  -0.458  10.480  10.359 -0.4974  3.3539 -0.5315
  306MOL0     H42167  -0.587  10.264  10.357  1.0245  0.3366  0.2415
  306MOL0     H42168  -0.517  10.292  10.499 -0.4922 -1.0148 -0.4548
  306MOL0     H42169  -0.802  10.417  10.442 -0.2048 -1.1920 -1.0479
  306MOL0     H42170  -0.751  10.371  10.596 -3.6432  2.0676 -0.5441
  306MOL0     H42171  -0.821  10.222  10.338 -2.3391  1.7162 -0.3348
  306MOL0     H42172  -0.768  10.117  10.469 -0.5308 -1.3510 -4.7314
  306MOL0     H42173  -1.044  10.183  10.432 -1.5195  3.0284 -0.6597
  306MOL0     H42174  -0.986  10.328  10.509 -0.3302 -0.0850  0.7797
  306MOL0     H42175  -0.906  10.181  10.703 -0.4785 -2.0858  1.5051
  306MOL0     H42176  -1.069  10.192  10.681  0.3707 -0.4533  0.7881
  306MOL0     H42177  -1.128   9.970  10.449 -2.3625  1.5115  1.7224
  306MOL0     H42178  -1.130   9.681  10.423  1.0106 -2.9349  0.1520
  306MOL0     H42179  -1.246   9.696  10.551 -0.4012  1.8970  0.5075
  306MOL0     H42180  -1.103   9.549  10.705 -0.0128 -1.7176 -0.3687
  306MOL0     H42181  -1.184   9.471  10.571  0.2854 -0.3767 -1.2413
  306MOL0     H42182  -0.964   9.456  10.439 -3.7680 -2.3112  0.9649
  306MOL0     H42183  -0.900   9.577  10.548 -0.8345  0.7428  1.2929
  306MOL0     H42184  -0.975   9.386  10.726 -0.7241  0.0758 -0.8990
  306MOL0     H42185  -0.950   9.278  10.598  0.8920 -1.3175  1.6039
  306MOL0     H42186  -0.857   9.163  10.795 -0.2726 -0.4337  0.8749
  306MOL0     H42187  -0.820   9.009  10.969  0.1492  1.0893  1.6317
  306MOL0     H42188  -0.657   8.961  11.028  0.4873  0.1921 -0.3727
  306MOL0     H42189  -0.708   8.915  10.867  0.6082  0.0400  0.3005
  306MOL0     H42190  -0.216   8.870  11.040 -0.0350  0.6576 -0.1308
  306MOL0     H42191   0.006   8.866  11.175  0.4157 -0.0384 -0.4975
  306MOL0     H42192   0.271   9.224  11.158  0.0732 -0.0242 -0.7668
  306MOL0     H42193   0.156   9.253  11.289  1.5701  1.0400 -0.1370
  306MOL0     H42194   0.393   9.248  11.372  0.5243 -1.4873  2.3728
  306MOL0     H42195   0.292   9.124  11.449  2.3482  2.2227  2.9370
  306MOL0     H42196   0.484   9.063  11.227 -1.6512  0.4617 -0.9900
  306MOL0     H42197   0.379   8.950  11.326 -2.0516  0.5866 -4.5414
  306MOL0     H42198   0.582   8.961  11.456 -0.7414  1.3070  0.8204
  306MOL0     H42199   0.505   9.094  11.523  3.1848 -1.5824  2.2618
  306MOL0     H42200   0.668   9.142  11.293 -1.6787 -0.8599 -0.0490
  306MOL0     H42201   0.617   9.264  11.411 -1.7882 -0.1315 -1.3526
  306MOL0     H42202   0.814   9.020  11.458  0.7779  0.7707  3.6898
  306MOL0     H42203   0.757   9.124  11.590 -3.1444  3.0971  0.1873
  306MOL0     H42204   0.842   9.308  11.402  1.1445 -0.3317 -2.0718
  306MOL0     H42205   0.931   9.172  11.338  1.4637  1.2022 -0.3140
  306MOL0     H42206   1.021   9.141  11.587 -0.7212 -0.5046  1.6414
  306MOL0     H42207   0.933   9.289  11.630  0.5741  0.8346 -0.6343
  306MOL0     H42208   0.048   9.281  11.098  0.8199 -0.6269 -0.0223
  306MOL0     H42209  -0.158   9.277  10.955 -2.2130 -0.0720  1.5898
  306MOL0     H42210  -0.384   9.307  10.825  0.6984 -2.0188  0.8627
  306MOL0     H42211  -0.531   9.450  10.714  0.7873  0.8501  2.5531
  306MOL0     H42212  -0.270  10.831  10.678 -0.8715  1.3241 -1.9372
  306MOL0     H42213  -0.099  10.985  10.607  0.1983  0.2323  1.5781
  306MOL0     H42214   0.341  10.914  10.333 -1.1018  0.6308  0.9251
  306MOL0     H42215   0.531  10.993  10.237  1.3409  1.9015 -1.3373
  306MOL0     H42216   0.663  11.328  10.032  0.2846  0.1446  0.5222
  306MOL0     H42217   0.492  11.367  10.049 -0.1684 -0.9345  1.3832
  306MOL0     H42218   0.539  11.568  10.164 -0.4908 -0.0331 -1.1506
  306MOL0     H42219   0.688  11.547  10.077  0.5111 -1.8272 -0.5945
  306MOL0     H42220   0.612  11.466  10.365 -1.5109  4.0421  2.5399
  306MOL0     H42221   0.779  11.439  10.316  0.8729  0.8678  0.9136
  306MOL0     H42222   0.770  11.637  10.456 -0.7540  2.9201  0.7470
  306MOL0     H42223   0.664  11.715  10.342  1.2498  1.5155 -0.3103
  306MOL0     H42224   1.040  11.705  10.123  0.4674 -0.0372  1.2116
  306MOL0     H42225   0.381  11.395  10.257 -0.7873  0.1724 -3.4418
  306MOL0     H42226   0.092  11.334  10.440  2.1947 -0.3888  0.8041
  306MOL0     H42227   0.164  11.449  10.326  0.6290 -0.5803 -1.0517
  306MOL0     H42228   0.054  11.323  10.262 -1.8776  1.9425  0.7176
  307MOL0     O42229  10.484  10.678   7.744 -0.4257 -0.4119 -0.1654
  307MOL0     C42230  10.408  10.668   7.651  0.1391  0.2716  0.2495
  307MOL0     O42231  10.434  10.617   7.527 -0.0449 -0.1749 -0.3887
  307MOL0     C42232  10.564  10.596   7.474  0.9979  1.1050 -0.5181
  307MOL0     C42233  10.688  10.632   7.530  0.1351 -0.0956  0.4205
  307MOL0     C42234  10.806  10.605   7.470 -0.2869  0.2335  0.5993
  307MOL0     C42235  10.815  10.532   7.349  0.3509  0.3497  0.2542
  307MOL0     O42236  10.939  10.531   7.302  0.0194  0.2807 -0.5468
  307MOL0     C42237  10.966  10.430   7.204  1.1490 -1.2973  0.3716
  307MOL0     C42238  11.114  10.441   7.176  0.2004 -0.3152  0.2466
  307MOL0     C42239  11.198  10.374   7.282  0.3536 -0.4491  0.0456
  307MOL0     C42240  11.346  10.378   7.260 -0.0633  0.4343 -0.2578
  307MOL0     C42241  11.420  10.290   7.369 -0.2529 -0.0094 -0.4111
  307MOL0     C42242  11.572  10.268   7.344 -0.1387  1.0055 -0.8753
  307MOL0     C42243  11.634  10.161   7.444  0.5470  0.9740  0.6121
  307MOL0     C42244  11.779  10.160   7.418 -0.2671  0.1376 -0.3032
  307MOL0     N42245  11.844  10.060   7.505  0.3377 -0.1552 -0.1063
  307MOL0     C42246  11.827  10.046   7.639 -0.0548 -1.3929  0.0415
  307MOL0     C42247  11.902   9.940   7.672 -0.3529 -0.8155  1.5283
  307MOL0     C42248  11.917   9.862   7.803  0.4490 -0.5351 -0.1190
  307MOL0     C42249  12.040   9.906   7.886  0.1486  0.5811  0.3951
  307MOL0     C42250  12.042   9.833   8.026  0.2077  0.0159  0.1651
  307MOL0     C42251  12.189   9.826   8.080  0.4936  0.2572  0.6457
  307MOL0     O42252  12.199   9.926   8.176 -0.7228 -0.8085  0.0320
  307MOL0     C42253  12.328   9.953   8.218  0.9563 -0.0028  0.2363
  307MOL0     C42254  12.416  10.015   8.136 -1.0911 -0.3795  0.6150
  307MOL0     C42255  12.554  10.044   8.176 -0.0632 -0.0290 -0.1526
  307MOL0     C42256  12.638  10.132   8.091 -0.6696  0.4144 -0.7475
  307MOL0     C42257  12.592  10.000   8.306  0.3471 -0.0859 -0.1510
  307MOL0     C42258  12.721  10.037   8.369 -0.5087  1.0674  0.4950
  307MOL0     O42259  12.718  10.090   8.490  0.1251 -0.0161 -1.0722
  307MOL0     C42260  12.812  10.175   8.538 -0.0896  0.0548  0.0169
  307MOL0     C42261  12.792  10.234   8.666  0.0727 -0.6711  0.7620
  307MOL0     C42262  12.889  10.316   8.738  0.9094  0.3483  0.0262
  307MOL0     C42263  13.011  10.328   8.675 -0.3465  0.6884 -1.4210
  307MOL0     O42264  13.099  10.404   8.744 -0.6465 -0.2326  0.1905
  307MOL0     C42265  13.240  10.398   8.728  0.0917 -0.0512  0.5564
  307MOL0     C42266  13.295  10.499   8.626 -1.0247 -0.4425  0.3974
  307MOL0     C42267  13.444  10.525   8.642 -0.6767 -0.3698  0.7725
  307MOL0     C42268  13.503  10.613   8.528  0.4438  0.4104 -1.3478
  307MOL0     C42269  13.494  10.546   8.391  0.5212 -0.5499  0.0145
  307MOL0     C42270  13.553  10.401   8.384  0.6080 -0.6564  0.3959
  307MOL0     C42271  13.699  10.397   8.415  0.5338  0.6515 -1.1483
  307MOL0     C42272  13.784  10.279   8.380 -0.1858  1.1423  1.0496
  307MOL0    Cl42273  13.785  10.277   8.191 -0.2695  0.0098  0.3089
  307MOL0     C42274  13.037  10.272   8.554 -0.1174 -0.2692  1.2850
  307MOL0     C42275  12.942  10.199   8.488 -0.0432 -0.1357  0.1254
  307MOL0     O42276  12.820  10.024   8.296 -0.3799 -0.4502  0.4038
  307MOL0     C42277  12.497   9.932   8.384  0.1049  0.0610  0.0199
  307MOL0     C42278  12.365   9.909   8.352 -0.3548 -0.0933  0.3291
  307MOL0     N42279  11.955   9.894   7.552 -0.1534 -0.0140 -0.1141
  307MOL0     N42280  11.918   9.965   7.460  0.3010 -0.0758  0.0572
  307MOL0     C42281  10.694  10.476   7.297  0.4508 -0.5864  0.1608
  307MOL0     C42282  10.572  10.512   7.368  0.2912  0.1201 -0.2345
  307MOL0     C42283  10.271  10.694   7.679 -0.5407 -0.2178  0.1413
  307MOL0     C42284  10.167  10.610   7.638  0.7307  0.5688  0.1959
  307MOL0     C42285  10.032  10.638   7.662  0.8947 -0.1771 -0.5772
  307MOL0     C42286   9.997  10.759   7.731 -0.2665 -0.4010 -0.3220
  307MOL0     O42287   9.872  10.787   7.780  0.6071  0.1416  0.0277
  307MOL0     C42288   9.761  10.703   7.739  0.4935 -0.0566 -1.0281
  307MOL0     C42289   9.632  10.761   7.789 -0.3882  0.5920 -1.3022
  307MOL0     C42290   9.509  10.712   7.717  0.2158  0.1872  0.3342
  307MOL0     C42291   9.383  10.767   7.792 -0.2015  0.1174  0.5410
  307MOL0     C42292   9.369  10.729   7.934 -0.0773 -0.1696 -0.5757
  307MOL0     C42293   9.341  10.689   8.045  0.5410 -0.1365 -0.4703
  307MOL0     C42294  10.095  10.843   7.776  0.2979 -0.0872  1.2206
  307MOL0     C42295  10.230  10.808   7.753 -0.3600 -0.1465 -0.2664
  307MOL0     C42296  10.332  10.909   7.810  0.2753  0.4606 -0.5253
  307MOL0     H42297  10.693  10.691   7.621  3.3282  1.7716 -0.7990
  307MOL0     H42298  10.894  10.643   7.520  0.3791 -0.0751 -0.3144
  307MOL0     H42299  10.917  10.453   7.109  1.0522 -1.3898  0.3984
  307MOL0     H42300  10.938  10.327   7.230  0.9298 -0.9882  1.3865
  307MOL0     H42301  11.136  10.398   7.078 -0.5673 -0.0742 -0.0364
  307MOL0     H42302  11.148  10.544   7.162  0.3377 -0.4667 -0.6071
  307MOL0     H42303  11.195  10.427   7.378 -1.6023 -0.5494  0.0753
  307MOL0     H42304  11.175  10.267   7.293  0.9650 -0.4838  1.2310
  307MOL0     H42305  11.368  10.335   7.162  0.5429  1.4373 -0.5661
  307MOL0     H42306  11.382  10.481   7.266 -0.6053  0.6187 -0.1059
  307MOL0     H42307  11.369  10.194   7.379  0.2295 -0.3615 -1.2181
  307MOL0     H42308  11.403  10.341   7.464 -2.0783  0.6617 -1.0555
  307MOL0     H42309  11.579  10.226   7.244  3.7426  0.3506 -0.4919
  307MOL0     H42310  11.624  10.363   7.326  3.6022 -0.4953  0.8771
  307MOL0     H42311  11.596  10.062   7.415 -3.1955  2.7377 -1.1915
  307MOL0     H42312  11.601  10.170   7.548 -1.9109  0.0139  0.0072
  307MOL0     H42313  11.806  10.145   7.312  1.3961 -1.8885  0.3369
  307MOL0     H42314  11.819  10.261   7.428  0.2624 -0.1212  0.2591
  307MOL0     H42315  11.773  10.114   7.704  4.6759  0.6154  2.3679
  307MOL0     H42316  11.929   9.755   7.783  0.6594 -0.7462  1.0563
  307MOL0     H42317  11.831   9.876   7.868 -0.3875 -0.2735 -1.2484
  307MOL0     H42318  12.118   9.858   7.826 -0.3971  0.7447 -0.4668
  307MOL0     H42319  12.051  10.014   7.892  1.3071  0.3856  3.7271
  307MOL0     H42320  11.974   9.879   8.098 -0.3784 -0.9921  0.2827
  307MOL0     H42321  12.016   9.727   8.016 -2.9142  0.7108 -0.0662
  307MOL0     H42322  12.231   9.730   8.112 -1.7873 -1.7438 -1.9383
  307MOL0     H42323  12.259   9.822   7.996 -0.2029 -4.1633  0.0575
  307MOL0     H42324  12.379  10.065   8.047  0.5754  0.1621  0.1919
  307MOL0     H42325  12.690  10.207   8.151 -0.5661  0.8772 -1.3986
  307MOL0     H42326  12.572  10.184   8.020 -0.7937  0.1215 -0.8489
  307MOL0     H42327  12.703  10.072   8.026 -0.6104 -0.6360  0.2561
  307MOL0     H42328  12.692  10.225   8.708 -1.0611  2.7251 -0.8200
  307MOL0     H42329  12.865  10.366   8.831  3.3305  1.5336  0.1027
  307MOL0     H42330  13.285  10.435   8.820 -2.0095 -0.1233  1.6708
  307MOL0     H42331  13.279  10.297   8.716 -2.7600 -1.3326  1.3987
  307MOL0     H42332  13.273  10.450   8.531  0.0801 -0.6277  0.2200
  307MOL0     H42333  13.241  10.595   8.628 -0.4568 -0.0249  4.6992
  307MOL0     H42334  13.499  10.430   8.638 -1.8533 -1.0288 -2.2364
  307MOL0     H42335  13.463  10.582   8.734  0.4325  1.5760 -0.5992
  307MOL0     H42336  13.607  10.644   8.546  0.1018  1.0304 -0.3450
  307MOL0     H42337  13.455  10.711   8.539  1.1006  0.5849  0.3209
  307MOL0     H42338  13.394  10.560   8.349  1.4547  1.0132 -1.8762
  307MOL0     H42339  13.556  10.606   8.324  2.3558 -0.9014  1.3113
  307MOL0     H42340  13.545  10.379   8.277  0.9960 -1.1134  0.4593
  307MOL0     H42341  13.494  10.334   8.447 -1.3206  0.5314 -0.0372
  307MOL0     H42342  13.708  10.411   8.523  1.4120  0.5871 -1.1999
  307MOL0     H42343  13.748  10.481   8.364  1.5095  0.5319 -0.4496
  307MOL0     H42344  13.744  10.186   8.420  0.1240  1.3365  1.8137
  307MOL0     H42345  13.884  10.307   8.413 -0.8454  2.7304  1.8539
  307MOL0     H42346  13.135  10.281   8.509 -0.6442  0.8710  0.3236
  307MOL0     H42347  12.974  10.151   8.396 -0.1647  0.0395 -0.0105
  307MOL0     H42348  12.533   9.902   8.481 -0.8002  1.0810  0.6971
  307MOL0     H42349  12.301   9.851   8.417 -0.5733  1.8458  1.9477
  307MOL0     H42350  10.671  10.420   7.207 -1.3293 -2.5865  1.7296
  307MOL0     H42351  10.474  10.479   7.334  0.9141 -1.0656 -0.9263
  307MOL0     H42352  10.196  10.525   7.577  3.4311  0.9820  0.7867
  307MOL0     H42353   9.958  10.564   7.633 -0.3270  0.9848 -0.5147
  307MOL0     H42354   9.769  10.684   7.632 -0.9868 -0.5579 -1.0715
  307MOL0     H42355   9.758  10.599   7.775 -0.8565  1.1914  3.0298
  307MOL0     H42356   9.633  10.871   7.792 -0.9624  0.5867 -0.1744
  307MOL0     H42357   9.620  10.727   7.892 -1.0199 -0.8398 -1.8332
  307MOL0     H42358   9.504  10.757   7.618  1.0719 -0.7020 -0.1340
  307MOL0     H42359   9.513  10.603   7.701 -3.7495  0.3366 -3.6910
  307MOL0     H42360   9.295  10.727   7.742 -0.4463 -1.9507  2.4689
  307MOL0     H42361   9.386  10.877   7.785  0.2999 -0.0062 -2.1175
  307MOL0     H42362   9.315  10.641   8.137  0.9592 -1.4054 -0.9860
  307MOL0     H42363  10.059  10.929   7.831 -4.6753 -2.1024  1.6383
  307MOL0     H42364  10.403  10.943   7.734 -0.4646 -0.5896 -1.7118
  307MOL0     H42365  10.268  10.994   7.838 -0.3306 -0.3791  0.7355
  307MOL0     H42366  10.382  10.874   7.901 -1.0570  0.8522  0.3956
  308MOL0     O42367  11.246   0.351   2.775  0.5861  0.7451 -0.1451
  308MOL0     C42368  11.171   0.258   2.822 -0.0031 -0.2199 -0.5427
  308MOL0     O42369  11.211   0.151   2.902 -0.2470  0.1202 -1.1137
  308MOL0     C42370  11.305   0.182   2.990  0.0281 -0.3922 -0.4308
  308MOL0     C42371  11.436   0.226   2.961  0.3593 -0.5601 -1.1090
  308MOL0     C42372  11.521   0.255   3.065  0.8997  0.3428 -0.3827
  308MOL0     C42373  11.485   0.227   3.201  0.2283 -0.2748 -0.2796
  308MOL0     O42374  11.576   0.227   3.303 -0.1934  0.1536 -0.0617
  308MOL0     C42375  11.715   0.239   3.277  0.5083 -0.3442 -0.0328
  308MOL0     C42376  11.813   0.211   3.393 -0.3620  0.6963 -0.3097
  308MOL0     C42377  11.965   0.216   3.346 -1.0768  0.4199  0.4101
  308MOL0     C42378  12.015   0.353   3.374  0.3822  0.7229  0.4498
  308MOL0     C42379  12.136   0.397   3.278 -0.0094 -0.1076 -0.6752
  308MOL0     C42380  12.274   0.382   3.342 -0.2467 -0.7542  1.0901
  308MOL0     C42381  12.381   0.424   3.245 -0.1695 -0.6227  0.5992
  308MOL0     C42382  12.524   0.407   3.298  0.1237 -0.4429  0.3741
  308MOL0     N42383  12.616   0.503   3.230 -0.5659  1.0429  0.5749
  308MOL0     C42384  12.712   0.580   3.286 -0.3508 -0.2830 -0.8255
  308MOL0     C42385  12.778   0.636   3.176 -0.0194 -0.1635  0.2304
  308MOL0     C42386  12.902   0.722   3.175  0.6134  1.3134  0.0722
  308MOL0     C42387  12.864   0.868   3.183 -0.0054  0.9867  0.7284
  308MOL0     C42388  12.974   0.960   3.138  0.6322 -0.5872  0.6884
  308MOL0     C42389  12.943   1.101   3.179 -0.4177  0.8539 -0.7221
  308MOL0     O42390  13.035   1.191   3.104 -0.1415  0.0393 -0.1214
  308MOL0     C42391  13.171   1.181   3.097  1.1621  0.1188 -0.2456
  308MOL0     C42392  13.244   1.149   3.214  0.9271  1.3764  0.6574
  308MOL0     C42393  13.383   1.154   3.207  0.0436 -0.4646 -0.7868
  308MOL0     C42394  13.456   1.123   3.340  0.5977  0.1630 -0.2896
  308MOL0     C42395  13.452   1.184   3.089  0.5855  0.0822  0.5039
  308MOL0     C42396  13.594   1.176   3.081 -1.3969  0.1597  0.7075
  308MOL0     O42397  13.646   1.134   2.962  0.7359 -0.5123 -0.6622
  308MOL0     C42398  13.770   1.182   2.929 -0.0145  0.3347 -0.2025
  308MOL0     C42399  13.815   1.309   2.933  0.0163 -0.5193 -0.9866
  308MOL0     C42400  13.944   1.333   2.890  0.8000  0.0510  0.0012
  308MOL0     C42401  14.024   1.236   2.838  0.7822 -1.0120  0.1175
  308MOL0     O42402  14.147   1.283   2.811 -0.3884  0.4263  0.3290
  308MOL0     C42403  14.243   1.186   2.771 -0.1881  0.7017  0.0393
  308MOL0     C42404  14.386   1.256   2.765  0.5636  0.4396 -0.4491
  308MOL0     C42405  14.436   1.319   2.897  0.2271  0.3085  0.3329
  308MOL0     C42406  14.581   1.380   2.868 -0.9799  0.1297 -0.7326
  308MOL0     C42407  14.674   1.377   2.992  0.5994  0.7887  0.0231
  308MOL0     C42408  14.799   1.456   2.965  0.3467  0.9121 -0.3580
  308MOL0     C42409  14.906   1.395   2.866 -0.8828 -0.4570 -0.3614
  308MOL0     C42410  15.007   1.500   2.834  0.3755 -0.3138 -0.1607
  308MOL0    Cl42411  15.120   1.422   2.725  0.3155 -0.0300  0.1796
  308MOL0     C42412  13.970   1.106   2.816 -0.4981  0.3044 -0.1914
  308MOL0     C42413  13.842   1.079   2.865  0.5477  0.0295 -0.6330
  308MOL0     O42414  13.663   1.218   3.170  0.2456 -0.3624  0.0612
  308MOL0     C42415  13.379   1.217   2.975 -0.0182 -0.1021  0.1033
  308MOL0     C42416  13.241   1.218   2.979  0.4539 -0.2109  0.2069
  308MOL0     N42417  12.720   0.593   3.051 -0.0888 -0.7086 -0.3300
  308MOL0     N42418  12.633   0.508   3.093  0.3972 -0.7822  0.3182
  308MOL0     C42419  11.360   0.170   3.226  0.7589 -0.6532 -0.1774
  308MOL0     C42420  11.273   0.154   3.118  0.1860  0.1595  0.6109
  308MOL0     C42421  11.032   0.235   2.765 -0.0228 -0.4110  0.0544
  308MOL0     C42422  10.937   0.185   2.851  0.3448  0.3796 -0.0097
  308MOL0     C42423  10.811   0.172   2.808  0.3840 -0.1669  0.4080
  308MOL0     C42424  10.764   0.215   2.690  0.1406 -0.4875  0.2523
  308MOL0     O42425  10.638   0.205   2.640 -0.8659  0.0341 -0.5746
  308MOL0     C42426  10.576   0.074   2.667 -0.1059 -0.4213 -0.1176
  308MOL0     C42427  10.512   0.019   2.541  0.1000 -0.1871 -0.6981
  308MOL0     C42428  10.389   0.112   2.498 -0.3005  0.1525 -0.4989
  308MOL0     C42429  10.319   0.040   2.378 -0.4350 -0.1377 -0.5797
  308MOL0     C42430  10.254   0.137   2.287  0.9271 -0.4940 -0.4966
  308MOL0     C42431  10.210   0.231   2.229  0.0930  0.2536  0.1317
  308MOL0     C42432  10.861   0.265   2.594  1.1661  0.1992 -0.5389
  308MOL0     C42433  10.997   0.263   2.627 -0.2945 -0.0260  0.1077
  308MOL0     C42434  11.097   0.300   2.518  0.0309  0.8568 -0.5769
  308MOL0     H42435  11.461   0.256   2.860  0.1021 -2.0435 -1.6313
  308MOL0     H42436  11.620   0.298   3.048  2.4430 -2.1751  1.5544
  308MOL0     H42437  11.732   0.340   3.239  0.3491 -0.1420  0.4170
  308MOL0     H42438  11.747   0.164   3.205  2.9677  2.1522 -1.7106
  308MOL0     H42439  11.797   0.283   3.474 -2.6653 -0.5429  0.4357
  308MOL0     H42440  11.798   0.117   3.448 -0.2759  2.2654  2.6369
  308MOL0     H42441  12.013   0.140   3.408 -3.3497 -1.8253 -0.4047
  308MOL0     H42442  11.982   0.189   3.241 -1.6543 -1.0774  0.6746
  308MOL0     H42443  11.939   0.430   3.362  0.5005  1.0326  1.5972
  308MOL0     H42444  12.046   0.356   3.479 -1.9284 -0.8906  1.2485
  308MOL0     H42445  12.119   0.501   3.251  2.3366  0.6841  0.6349
  308MOL0     H42446  12.125   0.338   3.186  0.6351 -0.0814 -0.7673
  308MOL0     H42447  12.273   0.437   3.437  1.0398  0.7185  0.2827
  308MOL0     H42448  12.297   0.278   3.368  0.5508 -0.8421  0.0666
  308MOL0     H42449  12.364   0.527   3.214 -2.2580 -1.5406 -1.5851
  308MOL0     H42450  12.364   0.369   3.152 -0.3095  0.5622 -0.0821
  308MOL0     H42451  12.511   0.428   3.404  1.6722 -0.3224  0.5606
  308MOL0     H42452  12.562   0.309   3.265  0.6072  0.5502 -2.2299
  308MOL0     H42453  12.730   0.604   3.390  1.3300 -0.6210 -1.0045
  308MOL0     H42454  12.953   0.699   3.081  0.7616  2.6057 -0.1839
  308MOL0     H42455  12.968   0.694   3.257 -0.5687 -0.8856  0.3413
  308MOL0     H42456  12.769   0.878   3.129  1.9314 -3.2821 -4.3574
  308MOL0     H42457  12.847   0.884   3.290 -0.6285  2.3876  0.4427
  308MOL0     H42458  13.065   0.926   3.190 -0.7451 -0.9768  2.9764
  308MOL0     H42459  12.982   0.952   3.029 -3.0742 -0.7931  0.3269
  308MOL0     H42460  12.836   1.117   3.160 -0.0439  2.3554 -1.7974
  308MOL0     H42461  12.963   1.096   3.286  0.4473  0.4264 -0.9023
  308MOL0     H42462  13.200   1.114   3.306  1.5479  0.4103  0.5991
  308MOL0     H42463  13.385   1.084   3.414  1.6463 -0.2639  0.5264
  308MOL0     H42464  13.513   1.211   3.370 -0.0307  0.6195 -0.4294
  308MOL0     H42465  13.530   1.046   3.317  0.4179 -0.0009 -0.3221
  308MOL0     H42466  13.756   1.391   2.974  1.8998 -0.4599  1.8984
  308MOL0     H42467  13.972   1.438   2.895  1.0713  0.2537 -3.2789
  308MOL0     H42468  14.253   1.106   2.845  2.3641 -0.0421 -0.9974
  308MOL0     H42469  14.212   1.152   2.672 -1.5625  2.3539 -0.1397
  308MOL0     H42470  14.458   1.182   2.730  0.4735  0.6041 -0.9809
  308MOL0     H42471  14.386   1.332   2.687 -0.4642  0.7093 -0.2009
  308MOL0     H42472  14.444   1.239   2.972 -0.8537 -0.5194 -0.4081
  308MOL0     H42473  14.370   1.399   2.932 -0.7313  0.5039 -1.7557
  308MOL0     H42474  14.572   1.485   2.839  1.3468  0.4514 -0.4682
  308MOL0     H42475  14.633   1.326   2.788  0.7691 -0.7991  0.9557
  308MOL0     H42476  14.622   1.426   3.074  3.6175  2.4196  1.0950
  308MOL0     H42477  14.700   1.274   3.020  1.1702  1.1421  0.8070
  308MOL0     H42478  14.847   1.470   3.062  2.7974  1.0941 -1.5172
  308MOL0     H42479  14.780   1.556   2.924  0.8873  0.0778 -2.8037
  308MOL0     H42480  14.864   1.357   2.773  1.5677  0.0697 -1.7828
  308MOL0     H42481  14.953   1.313   2.922  0.0888  1.0996  1.2485
  308MOL0     H42482  15.054   1.532   2.927  1.3922 -1.6219 -0.1931
  308MOL0     H42483  14.961   1.588   2.788 -0.4827 -0.7081 -0.0771
  308MOL0     H42484  14.021   1.022   2.770 -1.2245 -0.6238  0.6700
  308MOL0     H42485  13.805   0.978   2.853  0.8809 -0.3685  1.4074
  308MOL0     H42486  13.430   1.240   2.882 -1.3503  0.9867 -0.4010
  308MOL0     H42487  13.184   1.255   2.895 -0.1100  0.7049  0.9725
  308MOL0     H42488  11.339   0.134   3.326  3.8176 -1.4932  0.2514
  308MOL0     H42489  11.178   0.102   3.123  2.2144 -3.8224  2.3634
  308MOL0     H42490  10.952   0.145   2.951 -3.3981 -1.5836 -0.0725
  308MOL0     H42491  10.735   0.131   2.874 -1.1372  1.8394 -0.0344
  308MOL0     H42492  10.645   0.002   2.711  1.4930  1.6195  0.9009
  308MOL0     H42493  10.490   0.089   2.733 -0.1221  1.1164 -0.4373
  308MOL0     H42494  10.475  -0.082   2.563  2.1321 -1.4349 -2.5628
  308MOL0     H42495  10.585   0.011   2.459  1.4576 -1.8232  0.5839
  308MOL0     H42496  10.315   0.131   2.576 -0.0448 -1.4234  0.1725
  308MOL0     H42497  10.429   0.205   2.459  0.9939  1.2614  3.0804
  308MOL0     H42498  10.239  -0.020   2.422  0.0295  0.6164  1.4254
  308MOL0     H42499  10.389  -0.021   2.320  0.8599 -0.5749  1.3088
  308MOL0     H42500  10.183   0.302   2.153  2.0530 -2.0006 -2.9748
  308MOL0     H42501  10.831   0.311   2.500  2.5815  0.9711 -0.6490
  308MOL0     H42502  11.064   0.267   2.420  2.3220 -1.0490 -0.7911
  308MOL0     H42503  11.108   0.408   2.504  0.7190  0.7093 -1.2958
  308MOL0     H42504  11.195   0.255   2.537 -0.0827  0.4900 -0.8521
  309MOL0     O42505  10.096   3.131   4.643  0.1601 -0.1529 -0.3034
  309MOL0     C42506  10.035   3.031   4.609 -0.7312  0.6459  0.2393
  309MOL0     O42507  10.094   2.906   4.618  0.8188  0.1488  0.0733
  309MOL0     C42508  10.201   2.869   4.699 -0.6031 -0.5339 -0.4326
  309MOL0     C42509  10.298   2.782   4.645 -0.1717  0.0955  0.4005
  309MOL0     C42510  10.389   2.712   4.735 -0.0876  0.7871  0.6149
  309MOL0     C42511  10.396   2.753   4.865  0.7971 -0.8900  0.3422
  309MOL0     O42512  10.505   2.700   4.935 -0.0123  0.3387 -0.1457
  309MOL0     C42513  10.495   2.706   5.074  0.5167 -0.1981 -0.3377
  309MOL0     C42514  10.578   2.596   5.142  0.5594 -0.6737 -0.5073
  309MOL0     C42515  10.723   2.626   5.132  0.4658 -0.0705  0.4433
  309MOL0     C42516  10.808   2.539   5.219 -0.3651  0.2744  0.0388
  309MOL0     C42517  10.960   2.545   5.204  0.2802  0.7277 -0.1547
  309MOL0     C42518  11.023   2.681   5.209 -0.5861 -0.1501  0.1603
  309MOL0     C42519  11.170   2.673   5.221  0.2507 -0.2355  0.4544
  309MOL0     C42520  11.243   2.821   5.232  0.8345  1.3069 -0.1012
  309MOL0     N42521  11.390   2.796   5.264  0.2879 -0.0237 -0.3318
  309MOL0     C42522  11.451   2.685   5.329 -0.3352  0.1339  0.1959
  309MOL0     C42523  11.577   2.683   5.292  0.1542 -0.5395  0.8873
  309MOL0     C42524  11.685   2.578   5.316 -1.1515  0.2443 -0.3851
  309MOL0     C42525  11.819   2.628   5.384 -0.8561 -0.3410  0.5087
  309MOL0     C42526  11.897   2.713   5.290  0.0697  0.1448 -0.7604
  309MOL0     C42527  12.024   2.775   5.355 -0.4569 -0.9994 -0.4564
  309MOL0     O42528  12.123   2.667   5.364  0.0310  0.4228  0.0856
  309MOL0     C42529  12.221   2.665   5.266  0.5539  0.0438  0.4702
  309MOL0     C42530  12.203   2.684   5.128  0.4434 -0.6506 -0.0749
  309MOL0     C42531  12.299   2.664   5.031 -0.1400  0.0479  0.1099
  309MOL0     C42532  12.273   2.695   4.884  0.1477 -0.0782 -0.0334
  309MOL0     C42533  12.426   2.632   5.086  0.3002 -0.9959  0.9053
  309MOL0     C42534  12.551   2.628   5.011  0.2195  0.1127  0.1842
  309MOL0     O42535  12.663   2.683   5.062  1.0876 -0.2614  0.0688
  309MOL0     C42536  12.774   2.702   4.990 -0.0881  0.3350  1.0828
  309MOL0     C42537  12.885   2.740   5.068  0.1265 -0.3105  0.2704
  309MOL0     C42538  13.008   2.780   5.013 -0.1748 -0.0137 -0.0127
  309MOL0     C42539  13.025   2.758   4.876 -0.0215 -0.0816 -0.1915
  309MOL0     O42540  13.143   2.796   4.817 -0.0051 -0.6033 -0.9589
  309MOL0     C42541  13.238   2.704   4.766  0.2313 -0.9289 -0.3253
  309MOL0     C42542  13.376   2.761   4.744 -0.1278  0.0768  0.1717
  309MOL0     C42543  13.432   2.828   4.872 -0.3683  1.3699  0.7276
  309MOL0     C42544  13.543   2.930   4.852  0.1975 -0.2527 -0.1354
  309MOL0     C42545  13.671   2.876   4.772  0.4463  0.0549 -0.5120
  309MOL0     C42546  13.799   2.959   4.758  0.5321 -0.0321  0.4013
  309MOL0     C42547  13.771   3.079   4.669 -0.3812 -0.1358 -0.9304
  309MOL0     C42548  13.882   3.189   4.660 -0.1246 -0.0449  0.0556
  309MOL0    Cl42549  14.021   3.121   4.584  0.4733  0.5126  0.1641
  309MOL0     C42550  12.912   2.729   4.794  0.5266 -0.1647  0.0957
  309MOL0     C42551  12.790   2.704   4.853 -0.6759  1.1317 -0.0468
  309MOL0     O42552  12.548   2.544   4.922 -0.6662 -0.4554  0.3269
  309MOL0     C42553  12.449   2.618   5.222  0.9390  0.9712 -0.2885
  309MOL0     C42554  12.347   2.629   5.308  0.4935 -0.3338 -0.4267
  309MOL0     N42555  11.594   2.801   5.214 -0.4253  0.3912  0.3440
  309MOL0     N42556  11.487   2.864   5.195  0.4089  0.5038  0.1736
  309MOL0     C42557  10.298   2.843   4.919  0.7357  0.9163  0.7582
  309MOL0     C42558  10.199   2.898   4.833 -0.4953 -0.5849 -0.6041
  309MOL0     C42559   9.893   3.042   4.576 -0.4099 -0.0065  0.5464
  309MOL0     C42560   9.800   2.937   4.611 -0.6641  0.5856  0.3450
  309MOL0     C42561   9.663   2.942   4.589 -0.1210  0.5283 -0.9509
  309MOL0     C42562   9.620   3.054   4.523  0.7483  0.2621 -0.4038
  309MOL0     O42563   9.486   3.061   4.498  0.0438 -0.0938  0.6439
  309MOL0     C42564   9.414   3.188   4.490  0.5237  0.9595  0.3315
  309MOL0     C42565   9.268   3.161   4.429 -0.1547  0.9569  0.0991
  309MOL0     C42566   9.269   3.137   4.281  0.4593 -0.5106  0.7723
  309MOL0     C42567   9.142   3.059   4.236 -0.5689  0.6507 -0.7703
  309MOL0     C42568   9.128   3.054   4.094  0.3334 -0.0501  0.3139
  309MOL0     C42569   9.124   3.053   3.974 -0.2649 -0.2792 -0.5969
  309MOL0     C42570   9.702   3.159   4.486 -0.2657  0.2322  0.7056
  309MOL0     C42571   9.833   3.162   4.516 -0.0214  0.8418 -0.1093
  309MOL0     C42572   9.908   3.277   4.469 -0.6555 -0.5686 -0.4596
  309MOL0     H42573  10.293   2.754   4.540  2.3853 -1.4374  0.5905
  309MOL0     H42574  10.457   2.645   4.684 -0.4847  2.4339 -2.2500
  309MOL0     H42575  10.391   2.700   5.107 -0.0620  2.3702 -1.4475
  309MOL0     H42576  10.525   2.806   5.107  1.3112 -0.6342  0.2992
  309MOL0     H42577  10.548   2.603   5.246 -3.5242 -0.9952 -1.4968
  309MOL0     H42578  10.560   2.502   5.088  0.2941  0.6205 -2.7916
  309MOL0     H42579  10.767   2.613   5.032  2.2826  0.0804  1.1783
  309MOL0     H42580  10.738   2.732   5.158 -0.5445 -0.4793  3.0132
  309MOL0     H42581  10.785   2.555   5.325  0.0742  1.7519 -0.0564
  309MOL0     H42582  10.774   2.439   5.192 -0.1052 -0.5523  2.5051
  309MOL0     H42583  10.978   2.489   5.112 -4.5047 -0.2431 -0.7831
  309MOL0     H42584  11.002   2.482   5.283 -2.1300 -0.8483 -0.0274
  309MOL0     H42585  11.005   2.741   5.120 -4.0440 -0.1815  0.6664
  309MOL0     H42586  10.994   2.737   5.298  1.3637  1.7028 -0.3167
  309MOL0     H42587  11.196   2.616   5.131 -3.2741 -0.8798 -0.2989
  309MOL0     H42588  11.195   2.616   5.311 -1.5711  1.7017  2.3222
  309MOL0     H42589  11.231   2.870   5.135 -2.4556 -1.2276 -1.1748
  309MOL0     H42590  11.208   2.883   5.315 -1.4882  2.2315 -1.6863
  309MOL0     H42591  11.406   2.599   5.379 -2.4390  0.5072 -0.9045
  309MOL0     H42592  11.707   2.516   5.228 -2.0409  0.4018 -0.7268
  309MOL0     H42593  11.646   2.503   5.385  0.7625  1.1523  1.8394
  309MOL0     H42594  11.787   2.695   5.464 -0.8793  1.4031 -0.9054
  309MOL0     H42595  11.871   2.548   5.439  0.9164  1.9818  2.4148
  309MOL0     H42596  11.930   2.656   5.202 -3.1045 -0.5645 -1.6194
  309MOL0     H42597  11.832   2.798   5.267 -3.2164 -1.6060  1.2884
  309MOL0     H42598  12.066   2.863   5.305 -1.2590 -0.1371  0.3499
  309MOL0     H42599  12.012   2.816   5.455  1.8640 -0.5391 -0.3113
  309MOL0     H42600  12.104   2.714   5.096  0.7236  0.8073  0.3505
  309MOL0     H42601  12.325   2.787   4.858  1.6569 -0.2146  2.2001
  309MOL0     H42602  12.165   2.711   4.871 -0.1717 -0.7898  1.5005
  309MOL0     H42603  12.317   2.607   4.837  2.2757  0.0973  1.4948
  309MOL0     H42604  12.873   2.743   5.176  0.8389 -3.0370  0.4966
  309MOL0     H42605  13.086   2.812   5.081 -0.6901 -1.5309  1.3797
  309MOL0     H42606  13.230   2.609   4.821 -1.9832  0.6627  2.3811
  309MOL0     H42607  13.203   2.682   4.665 -0.7460 -1.1141  0.0389
  309MOL0     H42608  13.430   2.674   4.707  4.9285  2.6982  0.4623
  309MOL0     H42609  13.367   2.826   4.656 -0.6527 -1.8072 -1.2319
  309MOL0     H42610  13.467   2.745   4.934  2.2323  2.6338  1.0876
  309MOL0     H42611  13.353   2.880   4.927 -2.0823 -0.9016  0.5363
  309MOL0     H42612  13.582   2.959   4.950  0.9502  0.4156 -0.6134
  309MOL0     H42613  13.498   3.023   4.814 -2.2174 -1.8315 -1.3350
  309MOL0     H42614  13.706   2.785   4.822 -1.3307 -1.3583 -1.6570
  309MOL0     H42615  13.638   2.852   4.670  0.9238  2.7589 -1.3723
  309MOL0     H42616  13.874   2.894   4.711  1.4285  0.7163  0.7765
  309MOL0     H42617  13.839   2.989   4.855  0.3700  0.4928  0.3086
  309MOL0     H42618  13.681   3.128   4.706  1.3525  2.0827  0.6772
  309MOL0     H42619  13.750   3.051   4.565  0.9641  0.3466 -1.3582
  309MOL0     H42620  13.913   3.220   4.761  0.6512  0.4203 -0.3170
  309MOL0     H42621  13.842   3.275   4.606  1.4538  1.4989  1.2409
  309MOL0     H42622  12.919   2.715   4.687 -1.5919  0.1888 -0.1211
  309MOL0     H42623  12.707   2.692   4.784 -1.8616 -2.2988  1.7329
  309MOL0     H42624  12.549   2.595   5.257  0.9689  2.7557  0.9410
  309MOL0     H42625  12.357   2.596   5.411 -0.5884  0.2921 -0.1155
  309MOL0     H42626  10.304   2.864   5.026  0.5301 -0.8994  1.1537
  309MOL0     H42627  10.112   2.946   4.877  0.7747  1.0556  0.2443
  309MOL0     H42628   9.837   2.841   4.646 -0.5424  0.5750  0.1896
  309MOL0     H42629   9.594   2.860   4.605 -1.1036  1.1358 -1.8953
  309MOL0     H42630   9.395   3.237   4.586 -2.1948  0.6860  0.0250
  309MOL0     H42631   9.452   3.263   4.420  0.0804  0.7828 -0.1085
  309MOL0     H42632   9.210   3.251   4.450  0.0402  1.6819 -2.1954
  309MOL0     H42633   9.219   3.074   4.474  1.1082 -0.7104 -1.5680
  309MOL0     H42634   9.281   3.235   4.234 -1.2014 -0.2243  0.9139
  309MOL0     H42635   9.359   3.075   4.276  0.2655 -1.1468  3.4578
  309MOL0     H42636   9.047   3.088   4.282 -0.4628 -0.0421 -0.0892
  309MOL0     H42637   9.167   2.962   4.278  2.3432  1.6767  0.0825
  309MOL0     H42638   9.111   3.059   3.868  0.0173  2.4121 -0.5483
  309MOL0     H42639   9.650   3.239   4.433 -0.6545 -1.7637 -2.1420
  309MOL0     H42640   9.933   3.340   4.555  3.3798  1.0789 -2.5781
  309MOL0     H42641  10.003   3.253   4.420  0.2482  0.9289  0.4607
  309MOL0     H42642   9.845   3.341   4.407 -1.3499 -1.3873 -0.6201
  310MOL0     O42643   2.396   7.927   5.579  0.1506  0.2668 -0.5224
  310MOL0     C42644   2.314   7.912   5.669 -1.2692  0.2558 -0.2457
  310MOL0     O42645   2.200   7.848   5.665  0.2931 -0.0496  0.5836
  310MOL0     C42646   2.131   7.802   5.554 -0.1010  0.2849 -0.4777
  310MOL0     C42647   2.179   7.792   5.419 -0.3514  0.4155  0.3290
  310MOL0     C42648   2.092   7.773   5.310 -0.1861 -0.4348  0.9895
  310MOL0     C42649   1.953   7.758   5.329  0.2988  0.4617 -0.2522
  310MOL0     O42650   1.885   7.731   5.215 -0.1194  0.1006 -0.5182
  310MOL0     C42651   1.750   7.794   5.203  0.5578 -0.2034 -0.6255
  310MOL0     C42652   1.692   7.776   5.065 -0.1501 -0.0713  0.6199
  310MOL0     C42653   1.622   7.638   5.034 -0.3648  0.3371 -0.6866
  310MOL0     C42654   1.570   7.669   4.893  0.1558 -1.4941  0.2866
  310MOL0     C42655   1.488   7.565   4.819  0.1944  0.2231  0.1990
  310MOL0     C42656   1.547   7.429   4.848 -0.2301 -0.0698 -0.1726
  310MOL0     C42657   1.484   7.318   4.769  0.6483  0.3297  0.4153
  310MOL0     C42658   1.526   7.315   4.615  0.2780 -0.3548 -0.1621
  310MOL0     N42659   1.426   7.234   4.544 -0.3407  0.1749  0.6453
  310MOL0     C42660   1.400   7.097   4.552 -0.6967  0.5197 -0.0517
  310MOL0     C42661   1.291   7.086   4.466 -0.2322  0.9186  0.0038
  310MOL0     C42662   1.222   6.963   4.423  0.1551  0.4883 -0.3262
  310MOL0     C42663   1.270   6.907   4.289 -0.3520  0.3332  0.0963
  310MOL0     C42664   1.195   6.783   4.230  0.2376 -0.2945 -0.1835
  310MOL0     C42665   1.176   6.655   4.316  0.0893 -0.3655  0.8902
  310MOL0     O42666   1.131   6.546   4.224 -0.7231  0.6213  0.2323
  310MOL0     C42667   1.222   6.479   4.143 -0.6690 -0.1658 -0.2781
  310MOL0     C42668   1.170   6.388   4.051  0.1313  0.6745 -0.0521
  310MOL0     C42669   1.247   6.331   3.951  0.2772  0.2543 -0.1462
  310MOL0     C42670   1.169   6.245   3.849 -0.2955 -0.1229 -0.5959
  310MOL0     C42671   1.383   6.367   3.940 -0.2498  0.7723  1.0791
  310MOL0     C42672   1.470   6.309   3.837  0.1139  0.3769  0.1059
  310MOL0     O42673   1.594   6.273   3.876 -0.2820  0.1818  0.1656
  310MOL0     C42674   1.693   6.249   3.782  0.0371  0.2289  0.5457
  310MOL0     C42675   1.740   6.338   3.681 -0.0819 -1.0025 -0.3434
  310MOL0     C42676   1.858   6.315   3.611 -0.1600  0.1957  0.1119
  310MOL0     C42677   1.938   6.206   3.629  1.3551 -0.1281 -0.1139
  310MOL0     O42678   2.045   6.188   3.540  0.0582  0.0577  0.3077
  310MOL0     C42679   2.091   6.061   3.527  0.1216  0.1566  0.5431
  310MOL0     C42680   2.182   6.027   3.407 -0.2211  0.4021  0.0435
  310MOL0     C42681   2.324   6.082   3.434  0.5207  0.6237 -0.8690
  310MOL0     C42682   2.420   6.065   3.313 -0.4190  0.9183 -0.1435
  310MOL0     C42683   2.564   6.097   3.351 -0.0167  0.0750 -0.1380
  310MOL0     C42684   2.660   6.114   3.240 -1.1768 -0.0813  0.1131
  310MOL0     C42685   2.688   5.995   3.162 -0.0641  0.1327  0.3784
  310MOL0     C42686   2.771   5.877   3.216 -0.2576  0.4264 -0.4569
  310MOL0    Cl42687   2.787   5.731   3.109 -0.1556  0.3982  0.3359
  310MOL0     C42688   1.890   6.109   3.723 -0.1566  0.6090 -0.5138
  310MOL0     C42689   1.774   6.135   3.798 -0.4842  0.1962  0.3322
  310MOL0     O42690   1.427   6.293   3.725  0.0761 -0.5314 -0.0852
  310MOL0     C42691   1.441   6.454   4.033 -0.1092 -0.0714  0.1601
  310MOL0     C42692   1.366   6.510   4.133  0.2059  0.1413 -0.4938
  310MOL0     N42693   1.259   7.212   4.420 -0.0864 -0.6573  0.1770
  310MOL0     N42694   1.349   7.293   4.454 -0.1222  0.1598 -0.6173
  310MOL0     C42695   1.905   7.765   5.457 -0.5204 -0.2142 -0.4723
  310MOL0     C42696   1.996   7.788   5.564  0.7331  0.2217  0.0596
  310MOL0     C42697   2.340   7.983   5.797 -0.6749  0.6269  0.0513
  310MOL0     C42698   2.228   8.026   5.862 -0.1636 -0.2816 -0.2236
  310MOL0     C42699   2.240   8.068   6.000 -0.5755 -1.0781 -0.2839
  310MOL0     C42700   2.370   8.087   6.055 -0.4243 -0.3393 -0.0339
  310MOL0     O42701   2.395   8.153   6.174 -0.2506 -0.5968 -0.6039
  310MOL0     C42702   2.294   8.210   6.265  0.2620 -0.4645 -0.5717
  310MOL0     C42703   2.350   8.316   6.359  0.0962 -0.2702 -0.0189
  310MOL0     C42704   2.246   8.425   6.394  0.7235  1.1789  0.0920
  310MOL0     C42705   2.293   8.490   6.523  0.4494 -0.4429 -0.0710
  310MOL0     C42706   2.410   8.569   6.506  0.1043 -0.3487  0.4627
  310MOL0     C42707   2.521   8.618   6.501  0.6111 -0.7338  0.0148
  310MOL0     C42708   2.479   8.054   5.977  0.2204  0.0815  0.3402
  310MOL0     C42709   2.474   8.001   5.849  0.2524  0.6087  0.9683
  310MOL0     C42710   2.603   7.955   5.771  0.5931 -0.3387 -0.1655
  310MOL0     H42711   2.283   7.791   5.388 -0.2926 -0.8453  0.5174
  310MOL0     H42712   2.141   7.778   5.214 -0.7958  0.3327  0.7037
  310MOL0     H42713   1.767   7.901   5.217  6.8688 -1.0751  1.8419
  310MOL0     H42714   1.680   7.755   5.278  0.7948 -1.0454 -0.8348
  310MOL0     H42715   1.609   7.848   5.060 -0.0676  0.0840  1.3562
  310MOL0     H42716   1.769   7.804   4.993 -0.4052 -0.1743  0.3023
  310MOL0     H42717   1.685   7.549   5.038 -2.2143 -0.9950  0.8401
  310MOL0     H42718   1.538   7.613   5.100 -0.4321  0.7657 -0.6067
  310MOL0     H42719   1.522   7.767   4.891  0.3121 -1.4211 -0.0936
  310MOL0     H42720   1.662   7.678   4.833  0.9670  0.3786  1.7276
  310MOL0     H42721   1.496   7.579   4.711 -2.3640 -1.0918 -0.2233
  310MOL0     H42722   1.384   7.585   4.844  0.0377  2.7759 -2.0844
  310MOL0     H42723   1.654   7.429   4.826 -0.1092 -3.3359 -0.1406
  310MOL0     H42724   1.528   7.407   4.954 -3.2312  2.4195 -0.0344
  310MOL0     H42725   1.375   7.318   4.782  0.7988 -2.1058  2.3953
  310MOL0     H42726   1.508   7.217   4.803 -2.7659 -0.0041  2.2563
  310MOL0     H42727   1.532   7.416   4.573 -1.7497 -0.9603 -2.1048
  310MOL0     H42728   1.622   7.263   4.606 -1.1154 -2.8279 -1.9277
  310MOL0     H42729   1.447   7.013   4.602  2.0520  0.9580 -1.7107
  310MOL0     H42730   1.114   6.976   4.418  0.2771  1.8988  0.4169
  310MOL0     H42731   1.235   6.889   4.503  2.2638 -1.0106 -1.9496
  310MOL0     H42732   1.269   6.986   4.214 -1.6505  0.2969  0.0599
  310MOL0     H42733   1.372   6.873   4.312 -0.9069 -1.8575 -0.4184
  310MOL0     H42734   1.092   6.805   4.201 -0.7902 -1.4102  2.3091
  310MOL0     H42735   1.258   6.759   4.144 -1.3280 -0.9726 -1.1771
  310MOL0     H42736   1.269   6.622   4.363 -0.8191 -0.3282  2.7993
  310MOL0     H42737   1.104   6.676   4.395 -0.1676  2.9714 -0.0921
  310MOL0     H42738   1.065   6.362   4.057 -0.4015  2.3343 -1.3486
  310MOL0     H42739   1.177   6.141   3.881  3.0939 -0.3049 -1.6129
  310MOL0     H42740   1.212   6.238   3.748  1.5339 -0.2975  0.1528
  310MOL0     H42741   1.062   6.267   3.842 -0.0408  1.2859 -0.4578
  310MOL0     H42742   1.695   6.436   3.669  0.6940 -0.6203 -0.1909
  310MOL0     H42743   1.902   6.386   3.541 -0.8951  0.5423 -0.0103
  310MOL0     H42744   2.138   6.023   3.618 -1.5268  0.1258  1.4171
  310MOL0     H42745   2.004   5.999   3.501  0.8370 -0.9364  0.6692
  310MOL0     H42746   2.191   5.918   3.399  1.9297  0.5861 -0.6464
  310MOL0     H42747   2.149   6.078   3.316  4.5864  5.0108  0.3803
  310MOL0     H42748   2.361   6.031   3.523  0.8026  1.9128 -0.2406
  310MOL0     H42749   2.308   6.187   3.458 -4.4186  0.0712 -0.6216
  310MOL0     H42750   2.384   6.126   3.230 -0.6432 -0.0716 -0.7951
  310MOL0     H42751   2.415   5.966   3.267  0.3636  2.5199 -4.0846
  310MOL0     H42752   2.552   6.196   3.396 -1.6697 -0.2884  0.2815
  310MOL0     H42753   2.600   6.018   3.418 -0.1809 -0.0748 -0.2255
  310MOL0     H42754   2.752   6.161   3.275  0.0788  1.0236 -4.0813
  310MOL0     H42755   2.634   6.198   3.174 -0.3575  0.6387  0.6860
  310MOL0     H42756   2.750   6.019   3.075 -0.7583 -2.9509 -1.1516
  310MOL0     H42757   2.594   5.958   3.119 -0.7812  2.0789  0.1756
  310MOL0     H42758   2.733   5.829   3.307  0.1372 -1.4675 -1.2466
  310MOL0     H42759   2.875   5.904   3.234  0.5591 -2.3674 -0.5160
  310MOL0     H42760   1.943   6.015   3.734  0.5785  1.3273  3.7095
  310MOL0     H42761   1.744   6.057   3.868 -1.3240  2.1144  2.2625
  310MOL0     H42762   1.543   6.489   4.030 -0.2261  0.2278 -0.4868
  310MOL0     H42763   1.420   6.581   4.195  0.7745 -0.6395 -0.0863
  310MOL0     H42764   1.798   7.747   5.460 -0.5082 -0.9134 -2.3732
  310MOL0     H42765   1.966   7.817   5.664  3.9220  2.6112  0.4831
  310MOL0     H42766   2.125   8.020   5.831 -0.6926  1.3360  1.0619
  310MOL0     H42767   2.150   8.097   6.053 -1.2482  1.9112 -2.7716
  310MOL0     H42768   2.209   8.257   6.214  1.6201  1.5535 -1.1098
  310MOL0     H42769   2.253   8.128   6.325 -0.3911 -1.3264 -2.1366
  310MOL0     H42770   2.441   8.351   6.311  0.2970 -1.7546 -0.7889
  310MOL0     H42771   2.396   8.259   6.440  0.5607 -2.5945 -1.8169
  310MOL0     H42772   2.229   8.499   6.316 -1.8691  0.2073 -0.3724
  310MOL0     H42773   2.147   8.380   6.401  0.4165  1.9215  0.6972
  310MOL0     H42774   2.300   8.426   6.612  2.3480  1.3700  1.1742
  310MOL0     H42775   2.218   8.564   6.552  2.4928  1.9675 -0.5782
  310MOL0     H42776   2.620   8.657   6.511 -0.4813  3.2440 -2.1475
  310MOL0     H42777   2.574   8.046   6.029 -0.3864  2.0817  1.9058
  310MOL0     H42778   2.694   7.969   5.829  0.7730  2.3066 -0.9881
  310MOL0     H42779   2.597   7.848   5.748 -1.1267 -0.6890  1.6528
  310MOL0     H42780   2.615   8.033   5.695 -0.3152 -1.4089 -1.4681
  311MOL0     O42781  10.090   5.197   4.288 -1.0029  0.3153 -0.3908
  311MOL0     C42782   9.985   5.262   4.257  0.0030  0.0105 -0.7785
  311MOL0     O42783   9.987   5.379   4.189 -0.0960 -0.4803 -0.1283
  311MOL0     C42784  10.099   5.397   4.108  0.6509 -0.1247  0.0057
  311MOL0     C42785  10.175   5.505   4.133 -0.8010  0.9642 -0.8204
  311MOL0     C42786  10.291   5.519   4.068 -0.7728  0.3782 -0.2664
  311MOL0     C42787  10.328   5.436   3.963  0.2498 -0.3244  0.0411
  311MOL0     O42788  10.451   5.451   3.908 -0.3409 -0.0989 -0.0849
  311MOL0     C42789  10.497   5.361   3.816  0.2227 -0.1244  0.0885
  311MOL0     C42790  10.636   5.417   3.762 -0.6009  0.9397  0.2060
  311MOL0     C42791  10.697   5.336   3.642 -0.3254  0.7646  0.1578
  311MOL0     C42792  10.619   5.370   3.516  0.5268 -0.2038  0.8250
  311MOL0     C42793  10.686   5.311   3.390  1.0946  0.9471 -0.0733
  311MOL0     C42794  10.607   5.316   3.258 -0.8897  0.1575  0.6127
  311MOL0     C42795  10.508   5.209   3.239 -0.0849 -0.3251 -1.1519
  311MOL0     C42796  10.411   5.241   3.132  0.7402  0.2656 -0.2027
  311MOL0     N42797  10.283   5.168   3.118  0.0077  0.0384 -0.0310
  311MOL0     C42798  10.181   5.166   3.215 -0.9342 -0.2116 -0.9431
  311MOL0     C42799  10.090   5.085   3.161  0.1197  0.1720  0.2469
  311MOL0     C42800   9.973   5.019   3.225  0.2867  0.1559  0.2131
  311MOL0     C42801   9.839   5.082   3.204 -0.2246 -0.2538  0.2654
  311MOL0     C42802   9.780   5.040   3.068 -0.6995  0.0629 -0.4098
  311MOL0     C42803   9.628   5.071   3.053 -0.4011 -0.7446  0.1349
  311MOL0     O42804   9.551   4.997   3.147  0.2041 -0.3601 -0.0938
  311MOL0     C42805   9.431   4.955   3.108  0.9117  0.1568 -0.9111
  311MOL0     C42806   9.348   4.984   2.994 -0.1194 -0.1629  0.4750
  311MOL0     C42807   9.227   4.909   2.959 -0.3252 -0.4247 -0.3616
  311MOL0     C42808   9.148   4.961   2.845  0.1847  0.6349  0.2215
  311MOL0     C42809   9.192   4.797   3.042 -0.4390  0.8804 -0.2510
  311MOL0     C42810   9.095   4.686   3.009  0.5826 -0.9881 -0.7482
  311MOL0     O42811   9.076   4.591   3.110 -0.6018  0.5946 -0.0723
  311MOL0     C42812   9.011   4.470   3.085 -0.4062 -0.6837  0.1281
  311MOL0     C42813   9.019   4.407   2.959 -0.2092 -0.1023 -0.0668
  311MOL0     C42814   8.944   4.294   2.934 -0.0834  0.7779 -0.2194
  311MOL0     C42815   8.858   4.242   3.028 -0.2200  0.8808  0.4079
  311MOL0     O42816   8.772   4.149   2.997 -0.3343  0.5476  0.2699
  311MOL0     C42817   8.638   4.182   2.980  0.3935 -0.7213 -0.8008
  311MOL0     C42818   8.607   4.211   2.836  0.2824 -0.5901  0.3917
  311MOL0     C42819   8.455   4.215   2.827 -0.3489 -0.1914  0.2181
  311MOL0     C42820   8.398   4.347   2.870  0.4750 -0.6002 -0.4931
  311MOL0     C42821   8.295   4.345   2.989 -0.4562 -0.0815 -0.0207
  311MOL0     C42822   8.150   4.299   2.946 -0.3681  0.5738  1.0831
  311MOL0     C42823   8.038   4.283   3.039 -0.0073  0.0408 -0.7791
  311MOL0     C42824   7.899   4.284   2.968  0.3554 -0.1237  0.6181
  311MOL0    Cl42825   7.852   4.124   2.935  0.3583 -0.0737 -0.2792
  311MOL0     C42826   8.855   4.304   3.151 -0.7820  0.5079 -0.0167
  311MOL0     C42827   8.932   4.419   3.185 -0.4301 -0.5052 -0.1773
  311MOL0     O42828   9.019   4.700   2.915  0.5409 -0.5745  0.2442
  311MOL0     C42829   9.265   4.787   3.164  0.3099 -0.0892 -0.7979
  311MOL0     C42830   9.381   4.859   3.191 -0.1741  1.5731  0.2313
  311MOL0     N42831  10.129   5.041   3.033 -0.6008 -0.7593  0.4307
  311MOL0     N42832  10.251   5.090   3.013  0.7174  0.5620  0.2912
  311MOL0     C42833  10.245   5.332   3.926  0.4258 -0.2893  0.0600
  311MOL0     C42834  10.128   5.308   3.998 -0.1643 -0.3438 -0.2892
  311MOL0     C42835   9.850   5.222   4.318 -0.1142 -0.2767  0.2978
  311MOL0     C42836   9.734   5.259   4.254 -0.5594  0.6375  0.6005
  311MOL0     C42837   9.611   5.205   4.294  0.2997  0.1410 -0.9091
  311MOL0     C42838   9.596   5.120   4.398 -0.2856  0.0909 -0.0303
  311MOL0     O42839   9.466   5.083   4.418  0.5648 -1.1239 -0.1825
  311MOL0     C42840   9.437   4.979   4.510  0.5199  0.1606 -0.2980
  311MOL0     C42841   9.436   4.848   4.440  0.0655  0.0747  0.8311
  311MOL0     C42842   9.354   4.840   4.309 -0.2316 -0.6261  1.1414
  311MOL0     C42843   9.328   4.695   4.246 -0.2780 -0.3811  0.4729
  311MOL0     C42844   9.258   4.717   4.120 -0.3820  0.3926 -0.1411
  311MOL0     C42845   9.213   4.732   4.011 -0.1327 -0.7871 -0.0675
  311MOL0     C42846   9.707   5.090   4.475  0.3464 -0.1254 -1.0079
  311MOL0     C42847   9.833   5.141   4.435 -0.1216  1.1032  0.1153
  311MOL0     C42848   9.956   5.085   4.508 -0.4886 -0.0723  0.0215
  311MOL0     H42849  10.149   5.575   4.212  0.0665  1.9133 -1.3515
  311MOL0     H42850  10.370   5.590   4.093  4.2425 -3.9070 -1.9566
  311MOL0     H42851  10.423   5.347   3.736 -1.7927  0.0546  1.8471
  311MOL0     H42852  10.523   5.266   3.863 -0.3166 -0.0716  0.5044
  311MOL0     H42853  10.625   5.522   3.733  0.6008  0.4325 -2.3610
  311MOL0     H42854  10.704   5.400   3.846 -0.3982 -1.2507 -0.3395
  311MOL0     H42855  10.799   5.370   3.620  0.2779 -0.0037  1.6099
  311MOL0     H42856  10.705   5.233   3.679 -2.2402  1.4601  2.8524
  311MOL0     H42857  10.520   5.323   3.517 -0.6105  1.8882 -1.7117
  311MOL0     H42858  10.608   5.477   3.499  2.5876  0.1352  1.4034
  311MOL0     H42859  10.716   5.208   3.408  0.3153  0.2603 -2.2871
  311MOL0     H42860  10.782   5.363   3.383  1.7253 -0.1773 -0.0767
  311MOL0     H42861  10.567   5.417   3.245  1.3217  1.2097  1.4361
  311MOL0     H42862  10.680   5.304   3.177  0.0669 -1.3773  1.6494
  311MOL0     H42863  10.443   5.191   3.325  2.2312 -0.9292  0.5638
  311MOL0     H42864  10.558   5.114   3.222  1.4922 -1.0088  5.0082
  311MOL0     H42865  10.391   5.347   3.149 -1.1733 -0.5674  4.2815
  311MOL0     H42866  10.453   5.237   3.032  2.4533  3.1522  0.3033
  311MOL0     H42867  10.185   5.192   3.320 -3.7368 -1.0682 -0.5505
  311MOL0     H42868   9.982   5.009   3.334 -1.0602  0.4201  0.3703
  311MOL0     H42869   9.977   4.914   3.192  1.1979  0.3241 -0.2360
  311MOL0     H42870   9.769   5.061   3.286  0.2178  1.0023  0.9884
  311MOL0     H42871   9.862   5.189   3.201  2.0475 -0.7085 -0.0748
  311MOL0     H42872   9.835   5.081   2.983  0.3802 -2.2325 -0.9001
  311MOL0     H42873   9.801   4.933   3.067 -0.6128 -0.1353  3.7075
  311MOL0     H42874   9.621   5.178   3.072 -0.8062  0.1705 -4.1218
  311MOL0     H42875   9.600   5.042   2.951 -3.4207  0.1080  0.6131
  311MOL0     H42876   9.384   5.063   2.929 -0.1300 -2.1893 -2.1441
  311MOL0     H42877   9.134   4.891   2.762  3.2509  1.3183 -0.9921
  311MOL0     H42878   9.198   5.050   2.804 -4.6130  2.5710 -2.2990
  311MOL0     H42879   9.049   4.985   2.885  0.5347  1.8781  0.4048
  311MOL0     H42880   9.084   4.455   2.887 -2.9727  1.4327 -1.7040
  311MOL0     H42881   8.941   4.240   2.840  4.8592 -3.7962  1.6833
  311MOL0     H42882   8.575   4.102   3.020  0.7776  0.3699  2.2641
  311MOL0     H42883   8.621   4.276   3.035  0.4718 -1.2705  0.1853
  311MOL0     H42884   8.646   4.305   2.796  0.7300  0.6999  3.5614
  311MOL0     H42885   8.650   4.131   2.774  0.5742  0.0379 -0.2209
  311MOL0     H42886   8.395   4.138   2.876 -2.9714  1.3377 -0.4131
  311MOL0     H42887   8.431   4.201   2.721  2.4958  0.8739 -0.6617
  311MOL0     H42888   8.349   4.397   2.786  0.5412  2.1992  1.0023
  311MOL0     H42889   8.479   4.406   2.915 -0.4578  0.2023  0.1761
  311MOL0     H42890   8.336   4.266   3.053 -1.2100 -0.7180 -0.3205
  311MOL0     H42891   8.289   4.440   3.042  0.5446 -0.0002 -0.0248
  311MOL0     H42892   8.157   4.210   2.883  0.2984  1.7588 -0.6133
  311MOL0     H42893   8.116   4.375   2.875  2.2232  0.9319  0.0980
  311MOL0     H42894   8.047   4.368   3.107  0.0533 -2.0263  1.9532
  311MOL0     H42895   8.051   4.200   3.108  1.8161 -0.7343 -1.9761
  311MOL0     H42896   7.904   4.334   2.871 -1.5863 -1.4989 -0.2627
  311MOL0     H42897   7.833   4.344   3.031 -0.2620  1.9448 -1.8296
  311MOL0     H42898   8.785   4.266   3.225  0.4700 -1.6715  0.1312
  311MOL0     H42899   8.906   4.481   3.270 -0.4483  0.2612 -0.7358
  311MOL0     H42900   9.229   4.715   3.237  1.1943  0.9510  0.7257
  311MOL0     H42901   9.435   4.845   3.284 -0.8903  4.1848  1.1067
  311MOL0     H42902  10.278   5.256   3.856 -1.1883  0.3306 -1.4398
  311MOL0     H42903  10.065   5.221   3.979 -2.1987  0.9479  0.2153
  311MOL0     H42904   9.738   5.341   4.183 -0.8321  2.1718  2.2881
  311MOL0     H42905   9.511   5.229   4.260 -0.1150  1.0419  0.8277
  311MOL0     H42906   9.500   4.975   4.600 -0.8806  2.1311  0.8558
  311MOL0     H42907   9.341   4.991   4.561  2.3319  1.3295  3.1746
  311MOL0     H42908   9.399   4.769   4.506 -0.3649  0.3503  0.9185
  311MOL0     H42909   9.539   4.831   4.406 -0.3282  2.5880 -2.0540
  311MOL0     H42910   9.257   4.892   4.316  0.1198  0.0691  0.9360
  311MOL0     H42911   9.405   4.895   4.230 -0.4538  0.2483  1.5932
  311MOL0     H42912   9.255   4.638   4.304  0.8955 -2.9804 -0.4427
  311MOL0     H42913   9.421   4.639   4.233  0.2118  0.5144  0.0256
  311MOL0     H42914   9.162   4.746   3.918 -0.3428 -0.5824  0.0787
  311MOL0     H42915   9.711   5.032   4.566 -0.6089  0.8946 -0.2916
  311MOL0     H42916  10.030   5.026   4.454 -0.3159  2.4337 -2.7057
  311MOL0     H42917  10.012   5.171   4.547  0.8440  0.0687 -2.0758
  311MOL0     H42918   9.914   5.023   4.588  0.4311 -0.4207  0.2437
  312MOL0     O42919   8.968   6.685   8.248 -0.5326 -0.6565  0.2532
  312MOL0     C42920   8.923   6.779   8.311  0.3437 -0.4062  0.2676
  312MOL0     O42921   8.979   6.835   8.425  0.2302 -0.1170 -0.1344
  312MOL0     C42922   9.103   6.787   8.467 -0.2237  0.1385 -0.5507
  312MOL0     C42923   9.119   6.662   8.521 -0.9934  0.5162  0.8998
  312MOL0     C42924   9.250   6.631   8.570 -0.3694  0.1662 -0.2981
  312MOL0     C42925   9.354   6.722   8.563  0.5832 -0.4366 -1.0685
  312MOL0     O42926   9.484   6.691   8.610 -1.0888 -0.1808 -0.3872
  312MOL0     C42927   9.591   6.791   8.606  0.6566 -0.4595  0.5541
  312MOL0     C42928   9.724   6.718   8.644 -0.0553 -0.8202  0.0590
  312MOL0     C42929   9.718   6.690   8.794  0.1108  0.2695 -0.5565
  312MOL0     C42930   9.812   6.772   8.872 -0.2549 -0.0026 -0.3466
  312MOL0     C42931   9.965   6.775   8.840  0.3686 -0.3999 -0.1611
  312MOL0     C42932  10.046   6.648   8.870  0.1554 -0.1478  0.3559
  312MOL0     C42933  10.053   6.554   8.731  0.4482 -1.0039 -0.7275
  312MOL0     C42934  10.096   6.408   8.769 -0.6553  0.5373  0.3999
  312MOL0     N42935  10.244   6.382   8.734  0.3723 -0.0644  0.4125
  312MOL0     C42936  10.344   6.464   8.791 -0.0595  0.2841  0.2687
  312MOL0     C42937  10.451   6.420   8.724 -0.0180 -0.2049  0.3802
  312MOL0     C42938  10.595   6.456   8.764 -0.1791 -0.2559 -0.5037
  312MOL0     C42939  10.635   6.583   8.691  0.2901 -0.3378  0.0211
  312MOL0     C42940  10.561   6.698   8.751  0.8069  0.0706 -0.0841
  312MOL0     C42941  10.616   6.838   8.719  0.4279 -0.2227  1.1198
  312MOL0     O42942  10.532   6.923   8.800 -0.9551  0.3141  0.3005
  312MOL0     C42943  10.408   6.967   8.763 -0.8716  0.0431  0.6417
  312MOL0     C42944  10.328   7.042   8.851 -0.7375 -0.0430  0.0284
  312MOL0     C42945  10.200   7.086   8.821  0.8972  0.3600 -1.3436
  312MOL0     C42946  10.151   7.174   8.931  0.1524 -0.6091 -0.0608
  312MOL0     C42947  10.136   7.054   8.700 -0.2309 -0.7220 -0.5463
  312MOL0     C42948   9.999   7.106   8.670  0.1056 -0.3226 -0.1432
  312MOL0     O42949   9.932   7.049   8.565  0.6658 -0.1839  0.1547
  312MOL0     C42950   9.803   7.080   8.532  0.0873  0.5418 -1.1633
  312MOL0     C42951   9.759   7.056   8.400 -1.5359 -0.5752  0.2615
  312MOL0     C42952   9.636   7.083   8.364  0.3465 -0.1743  1.2434
  312MOL0     C42953   9.543   7.137   8.454  0.6694  0.0790 -0.7555
  312MOL0     O42954   9.421   7.186   8.411  0.1733 -0.5662 -0.5408
  312MOL0     C42955   9.370   7.151   8.286  0.3056  0.0870  0.5777
  312MOL0     C42956   9.246   7.243   8.243  0.6037 -0.2956 -0.1558
  312MOL0     C42957   9.130   7.243   8.333 -0.3621  0.1075  0.7373
  312MOL0     C42958   9.013   7.326   8.291  0.1214 -0.5330  0.3068
  312MOL0     C42959   8.896   7.328   8.389  0.7975 -0.4036  0.5061
  312MOL0     C42960   8.773   7.398   8.327  0.2855  0.5517  0.0550
  312MOL0     C42961   8.656   7.395   8.429 -0.4036 -0.5546 -1.0050
  312MOL0     C42962   8.540   7.460   8.351 -0.8378  0.3570 -0.3315
  312MOL0    Cl42963   8.495   7.355   8.219 -0.0276 -0.0517 -0.2852
  312MOL0     C42964   9.576   7.160   8.586 -0.4351 -0.2646 -0.3274
  312MOL0     C42965   9.705   7.129   8.628 -0.7285  0.0847  0.5676
  312MOL0     O42966   9.960   7.201   8.739 -0.3187  0.0898 -0.4815
  312MOL0     C42967  10.213   6.978   8.614 -0.1194 -0.4414  0.7248
  312MOL0     C42968  10.342   6.932   8.644 -0.3396 -0.0853  0.8204
  312MOL0     N42969  10.421   6.345   8.616 -0.1960 -0.0304 -0.1776
  312MOL0     N42970  10.299   6.310   8.627  0.4921 -0.4898  0.5118
  312MOL0     C42971   9.325   6.860   8.533  0.5037 -0.0312 -0.3730
  312MOL0     C42972   9.205   6.890   8.475  0.0322  1.0817  0.6036
  312MOL0     C42973   8.783   6.823   8.267 -0.6736 -0.3138  0.1128
  312MOL0     C42974   8.750   6.958   8.296  0.1265  0.2007  0.8878
  312MOL0     C42975   8.631   7.012   8.253  0.1818  0.6125  0.3113
  312MOL0     C42976   8.541   6.931   8.180  0.2802  0.5897  0.2614
  312MOL0     O42977   8.432   7.003   8.129  0.0504  0.2126  0.2984
  312MOL0     C42978   8.334   6.915   8.076  0.9442 -0.2664 -0.0888
  312MOL0     C42979   8.207   6.978   8.023  0.2831 -0.3236 -0.3546
  312MOL0     C42980   8.233   7.041   7.886 -0.9554  0.2260 -0.1101
  312MOL0     C42981   8.139   7.154   7.841  0.3758  0.4747  0.9808
  312MOL0     C42982   8.147   7.172   7.701  0.5247 -0.5670  0.2971
  312MOL0     C42983   8.147   7.204   7.584  0.3317 -0.7269  0.3448
  312MOL0     C42984   8.571   6.790   8.165  0.1139  0.2046  0.5405
  312MOL0     C42985   8.693   6.738   8.204  0.5669  0.6309 -0.1984
  312MOL0     C42986   8.714   6.594   8.175  1.1676  0.0547 -0.0311
  312MOL0     H42987   9.035   6.592   8.521  1.9178 -3.3124  0.4993
  312MOL0     H42988   9.280   6.531   8.598  1.2945  1.2399  2.0808
  312MOL0     H42989   9.577   6.875   8.674  0.6270  0.6193 -0.7390
  312MOL0     H42990   9.601   6.833   8.505 -1.4869 -0.5772  0.2286
  312MOL0     H42991   9.731   6.622   8.592  1.6336 -0.7971  0.2048
  312MOL0     H42992   9.816   6.765   8.610 -0.7721  0.3998 -0.2545
  312MOL0     H42993   9.616   6.697   8.832  0.2232 -1.6050  0.1877
  312MOL0     H42994   9.739   6.583   8.808 -1.2772  0.1603  0.8745
  312MOL0     H42995   9.781   6.876   8.857 -0.0112  0.1131 -0.0498
  312MOL0     H42996   9.793   6.750   8.977 -1.2188  1.9608 -0.0627
  312MOL0     H42997  10.006   6.854   8.903  0.8681  1.6677 -2.9004
  312MOL0     H42998   9.988   6.799   8.736 -0.0786 -0.8832 -0.3734
  312MOL0     H42999  10.148   6.670   8.904  0.5524  0.2886 -1.0554
  312MOL0     H43000   9.998   6.596   8.953  0.7281  1.3266  1.6708
  312MOL0     H43001  10.122   6.604   8.662 -0.3336 -0.1315 -0.9041
  312MOL0     H43002   9.956   6.540   8.681  0.7650  0.4133 -1.8209
  312MOL0     H43003  10.084   6.390   8.876 -0.7828 -3.4967 -0.1613
  312MOL0     H43004  10.043   6.341   8.701  3.6270 -3.0987  0.1716
  312MOL0     H43005  10.340   6.543   8.864  1.7333 -0.3548  1.1020
  312MOL0     H43006  10.662   6.373   8.741  0.8642  0.6383 -0.7915
  312MOL0     H43007  10.607   6.479   8.871  0.5510 -0.6692 -0.4885
  312MOL0     H43008  10.742   6.599   8.708  0.4575 -3.6666  3.5385
  312MOL0     H43009  10.627   6.561   8.584  0.0419  0.3854 -0.1088
  312MOL0     H43010  10.454   6.687   8.728  0.2783 -1.1607  2.5615
  312MOL0     H43011  10.573   6.701   8.860 -1.2498 -1.0593  0.2265
  312MOL0     H43012  10.720   6.841   8.750  1.2513 -1.4035 -1.2450
  312MOL0     H43013  10.612   6.867   8.613 -1.3840  2.5161  1.8385
  312MOL0     H43014  10.374   7.068   8.946 -1.2440  3.0822 -0.4869
  312MOL0     H43015  10.137   7.278   8.898  0.7750  0.2004  2.0427
  312MOL0     H43016  10.224   7.182   9.013 -0.0211 -5.4214  0.8161
  312MOL0     H43017  10.057   7.135   8.971  0.3361 -0.7080  0.2753
  312MOL0     H43018   9.822   7.011   8.324  3.3091  1.2666  2.7437
  312MOL0     H43019   9.608   7.061   8.261 -1.7299 -0.2671  1.7748
  312MOL0     H43020   9.439   7.172   8.204 -0.1755  0.9883  0.3997
  312MOL0     H43021   9.338   7.046   8.289  0.1261  0.1560  1.3431
  312MOL0     H43022   9.279   7.347   8.236 -1.7556  0.4329 -1.5079
  312MOL0     H43023   9.213   7.212   8.143 -0.2234 -2.3858  0.7156
  312MOL0     H43024   9.174   7.272   8.429  3.7768 -2.8867  0.0168
  312MOL0     H43025   9.101   7.137   8.331  1.9886 -0.5878 -1.6924
  312MOL0     H43026   8.970   7.277   8.204 -1.2127  1.1443 -0.0185
  312MOL0     H43027   9.053   7.427   8.274  1.6683 -0.2718  4.2724
  312MOL0     H43028   8.870   7.228   8.423  1.8416 -0.7855  0.2145
  312MOL0     H43029   8.921   7.388   8.477 -3.2365  1.1350  0.8075
  312MOL0     H43030   8.746   7.350   8.233  1.6420  0.8338 -0.4975
  312MOL0     H43031   8.796   7.500   8.294 -1.6001  1.6297  1.8003
  312MOL0     H43032   8.676   7.465   8.510  2.3801 -1.3574 -0.9087
  312MOL0     H43033   8.634   7.294   8.463  1.6950 -0.7427 -0.0531
  312MOL0     H43034   8.574   7.560   8.324 -0.7781  0.0921 -1.2460
  312MOL0     H43035   8.444   7.467   8.403 -1.0529  2.2914 -0.9155
  312MOL0     H43036   9.502   7.191   8.660 -2.8376 -1.1700 -2.2236
  312MOL0     H43037   9.727   7.132   8.735 -0.8697  2.1302  0.5875
  312MOL0     H43038  10.175   6.932   8.524 -1.4584  0.1870  0.9327
  312MOL0     H43039  10.370   6.863   8.565 -1.6526 -0.3456  0.5636
  312MOL0     H43040   9.401   6.936   8.545 -0.9024  1.9372 -2.9660
  312MOL0     H43041   9.203   6.991   8.436  0.5289  0.0376 -2.4275
  312MOL0     H43042   8.823   7.018   8.350 -0.0391  0.6953  0.5740
  312MOL0     H43043   8.587   7.109   8.272  2.4797  2.8447 -4.2804
  312MOL0     H43044   8.383   6.874   7.988  0.7344 -0.7826  0.0345
  312MOL0     H43045   8.317   6.838   8.151  1.2105  2.6091  3.1671
  312MOL0     H43046   8.175   7.055   8.095 -2.7835 -2.1792  0.4748
  312MOL0     H43047   8.133   6.897   8.019  1.0642 -1.0946  0.3629
  312MOL0     H43048   8.334   7.084   7.883 -0.9407  0.2522  0.6009
  312MOL0     H43049   8.229   6.962   7.811  1.2263  0.4040 -0.4707
  312MOL0     H43050   8.159   7.248   7.893  1.6291  2.6437 -3.0358
  312MOL0     H43051   8.040   7.124   7.876  0.6136  0.0376  1.2909
  312MOL0     H43052   8.156   7.213   7.477 -2.0322 -3.0298 -0.1291
  312MOL0     H43053   8.499   6.723   8.120  2.0467 -1.3375 -0.3758
  312MOL0     H43054   8.790   6.574   8.099  2.4131 -2.4001  1.7272
  312MOL0     H43055   8.739   6.541   8.267  2.6714 -0.0139 -0.4562
  312MOL0     H43056   8.622   6.539   8.150  2.1478 -1.6295 -0.0549
  313MOL0     O43057   8.841   2.694   4.641 -1.1546 -0.2859  0.6029
  313MOL0     C43058   8.826   2.784   4.559 -0.3715 -0.3759  0.4440
  313MOL0     O43059   8.910   2.815   4.463 -0.4330 -0.1581 -0.1603
  313MOL0     C43060   9.039   2.765   4.476 -0.6359 -0.1368 -0.0610
  313MOL0     C43061   9.148   2.823   4.536 -0.7050 -0.7787  0.2226
  313MOL0     C43062   9.280   2.777   4.522  0.2073 -0.5744  0.4759
  313MOL0     C43063   9.310   2.674   4.433  1.0176  1.0795 -0.0960
  313MOL0     O43064   9.447   2.632   4.432  0.0216 -0.2594  0.5959
  313MOL0     C43065   9.454   2.494   4.483  0.2839 -0.2540  0.6211
  313MOL0     C43066   9.594   2.442   4.425  0.9645  1.0704  0.4291
  313MOL0     C43067   9.714   2.533   4.454 -0.4122 -0.2211  0.4398
  313MOL0     C43068   9.842   2.471   4.402 -0.5751 -1.6356 -0.0717
  313MOL0     C43069   9.956   2.577   4.418  1.1535  0.2503  0.6401
  313MOL0     C43070  10.091   2.518   4.401  0.2505 -0.0807  1.2207
  313MOL0     C43071  10.094   2.423   4.285  0.5725  0.3411 -0.3369
  313MOL0     C43072  10.233   2.414   4.211  0.0475 -0.6887  0.2009
  313MOL0     N43073  10.338   2.355   4.290  0.0616  0.0498  0.0634
  313MOL0     C43074  10.466   2.404   4.316 -0.6173  0.2184 -0.2864
  313MOL0     C43075  10.515   2.316   4.403  0.0852  0.0615  0.7720
  313MOL0     C43076  10.655   2.285   4.443  0.5402 -0.3863 -0.4315
  313MOL0     C43077  10.733   2.238   4.321 -0.1414  0.1475 -0.6000
  313MOL0     C43078  10.881   2.210   4.367  0.8108  0.2438 -0.1622
  313MOL0     C43079  10.954   2.129   4.255  0.1945  0.1704  0.1792
  313MOL0     O43080  11.097   2.119   4.303  0.1478 -1.2743  0.2785
  313MOL0     C43081  11.195   2.075   4.223 -0.1676  0.3534 -0.1353
  313MOL0     C43082  11.183   2.039   4.088  0.5856 -0.4227 -0.1207
  313MOL0     C43083  11.293   2.006   4.008 -0.2511  0.7073  0.8068
  313MOL0     C43084  11.248   1.978   3.865  0.8724  0.6513  0.9784
  313MOL0     C43085  11.424   2.010   4.061  0.3041  0.1254 -0.4355
  313MOL0     C43086  11.552   1.998   3.981  0.0457  0.5526 -0.2467
  313MOL0     O43087  11.675   2.035   4.037 -0.0089  0.6114 -1.2506
  313MOL0     C43088  11.780   2.034   3.953  0.4955  0.1013 -0.0447
  313MOL0     C43089  11.865   1.929   3.938 -0.0629 -0.3838  0.9834
  313MOL0     C43090  11.980   1.943   3.851 -0.0940 -0.6340  0.5181
  313MOL0     C43091  12.008   2.066   3.785 -0.7899  0.4197  0.6191
  313MOL0     O43092  12.125   2.081   3.714 -0.9447 -0.2781 -0.1076
  313MOL0     C43093  12.117   2.024   3.584  1.0165 -0.7506 -0.2104
  313MOL0     C43094  12.238   2.082   3.507  0.7480 -0.0021  0.5675
  313MOL0     C43095  12.269   2.230   3.528  0.8279  0.0643  0.7251
  313MOL0     C43096  12.297   2.283   3.386 -0.0847 -0.8164  0.1776
  313MOL0     C43097  12.319   2.442   3.382 -1.4129  0.1082  0.2877
  313MOL0     C43098  12.446   2.484   3.449 -0.1518  0.0798  0.5849
  313MOL0     C43099  12.461   2.645   3.468  0.7383 -0.3163 -0.2617
  313MOL0     C43100  12.607   2.667   3.518  0.2002  0.2559 -0.5285
  313MOL0    Cl43101  12.721   2.636   3.380  0.3328 -0.1904  0.2351
  313MOL0     C43102  11.927   2.173   3.816 -0.5216 -0.7828  0.4793
  313MOL0     C43103  11.812   2.155   3.889  0.2919  0.7681  0.1342
  313MOL0     O43104  11.543   1.963   3.865 -0.8947  0.1350 -0.5277
  313MOL0     C43105  11.437   2.035   4.206  0.7100 -0.9300  0.1205
  313MOL0     C43106  11.320   2.063   4.282  0.5239 -0.1740  1.2951
  313MOL0     N43107  10.421   2.217   4.413 -1.1735  0.5895 -0.5464
  313MOL0     N43108  10.307   2.238   4.357 -0.6859  0.6806 -0.8881
  313MOL0     C43109   9.204   2.621   4.356 -0.4347 -0.5157 -0.0615
  313MOL0     C43110   9.069   2.662   4.386 -0.1821 -0.1463 -0.4422
  313MOL0     C43111   8.698   2.854   4.563 -0.1126  0.4607 -0.6744
  313MOL0     C43112   8.584   2.785   4.598  0.0284  0.2172  1.0725
  313MOL0     C43113   8.455   2.844   4.598 -0.0293 -0.2043 -0.7684
  313MOL0     C43114   8.437   2.977   4.562 -0.0016  0.6837 -0.1312
  313MOL0     O43115   8.314   3.033   4.572  0.0982  0.0964 -0.6373
  313MOL0     C43116   8.310   3.173   4.578  0.5180  0.0820 -0.9515
  313MOL0     C43117   8.166   3.225   4.604  0.0438 -0.5519 -0.3136
  313MOL0     C43118   8.092   3.178   4.728  0.2771  0.3148 -0.2538
  313MOL0     C43119   7.950   3.221   4.725  0.1363  0.2926  0.6483
  313MOL0     C43120   7.851   3.158   4.632  0.3170  0.8086 -0.2840
  313MOL0     C43121   7.773   3.099   4.560 -0.5420 -0.3111 -0.5892
  313MOL0     C43122   8.550   3.044   4.520 -0.7318  0.1092 -0.4060
  313MOL0     C43123   8.675   2.988   4.527 -0.8197  0.8295 -0.2358
  313MOL0     C43124   8.781   3.092   4.481  0.3280  0.2245 -0.2202
  313MOL0     H43125   9.126   2.897   4.612  1.6205  2.9536 -2.3636
  313MOL0     H43126   9.361   2.824   4.576  0.1578  1.4876 -1.1415
  313MOL0     H43127   9.374   2.432   4.440  1.5497 -2.3260  1.1194
  313MOL0     H43128   9.460   2.484   4.592  1.4310  2.4631  0.8711
  313MOL0     H43129   9.615   2.344   4.469 -0.8482  1.7293  2.9232
  313MOL0     H43130   9.577   2.425   4.318 -1.9106  0.5400  0.8919
  313MOL0     H43131   9.699   2.627   4.399 -1.3700 -0.1710  0.7758
  313MOL0     H43132   9.715   2.556   4.561  1.0307 -3.8244  1.3431
  313MOL0     H43133   9.863   2.385   4.466  0.1566 -1.4441 -0.0535
  313MOL0     H43134   9.823   2.434   4.300 -2.9471  0.3233 -0.4541
  313MOL0     H43135   9.948   2.623   4.516 -2.5938  1.6620 -0.1837
  313MOL0     H43136   9.942   2.660   4.348 -1.6955 -1.4672 -1.0282
  313MOL0     H43137  10.161   2.598   4.374 -1.4616  1.0551 -0.1232
  313MOL0     H43138  10.132   2.477   4.494  3.5984 -0.6192 -0.3388
  313MOL0     H43139  10.029   2.460   4.205  0.8782 -1.3235 -1.3974
  313MOL0     H43140  10.059   2.325   4.319  2.0397 -0.2663 -0.5167
  313MOL0     H43141  10.212   2.354   4.121  0.4479  3.8080 -3.2658
  313MOL0     H43142  10.272   2.509   4.174  1.1139 -1.9598 -2.2053
  313MOL0     H43143  10.523   2.489   4.280 -1.2461  1.0902  0.6720
  313MOL0     H43144  10.658   2.207   4.520  2.8775  0.4854  0.4692
  313MOL0     H43145  10.696   2.382   4.471 -0.4725  0.3407 -1.3900
  313MOL0     H43146  10.687   2.152   4.273 -0.0736  1.2958 -2.8292
  313MOL0     H43147  10.741   2.305   4.236  3.2665 -1.3045 -1.6177
  313MOL0     H43148  10.926   2.308   4.386 -2.9636  2.2427 -0.5785
  313MOL0     H43149  10.872   2.142   4.453  2.8111  0.4012  0.2215
  313MOL0     H43150  10.894   2.038   4.247  3.3549 -1.9473 -1.8664
  313MOL0     H43151  10.937   2.164   4.153 -2.3665 -4.4706 -1.2508
  313MOL0     H43152  11.083   2.040   4.046  0.1093 -1.0244  0.9614
  313MOL0     H43153  11.304   1.901   3.812  0.4891  0.5315  0.7439
  313MOL0     H43154  11.242   2.069   3.803 -0.2070  0.5100  0.8673
  313MOL0     H43155  11.140   1.967   3.852  1.0886  0.5321 -1.2562
  313MOL0     H43156  11.844   1.840   3.995 -0.4695  0.0155  1.4667
  313MOL0     H43157  12.046   1.858   3.842 -1.0571 -1.5489  1.8198
  313MOL0     H43158  12.130   1.916   3.592  0.5883 -0.6821  1.9924
  313MOL0     H43159  12.017   2.051   3.547  0.1142 -0.4049  2.2591
  313MOL0     H43160  12.321   2.017   3.536 -1.5138 -3.4260  0.0535
  313MOL0     H43161  12.199   2.065   3.406 -1.2601  0.5327  1.2098
  313MOL0     H43162  12.350   2.245   3.599  0.0601  1.4595  1.3621
  313MOL0     H43163  12.183   2.282   3.571  0.5512 -1.3162  1.9177
  313MOL0     H43164  12.227   2.262   3.305  3.3341  1.0843 -3.7179
  313MOL0     H43165  12.391   2.240   3.351 -1.3386 -1.4223 -2.7105
  313MOL0     H43166  12.326   2.479   3.279  0.8512  0.1682  0.4051
  313MOL0     H43167  12.231   2.488   3.427 -1.8950  0.8627 -1.3461
  313MOL0     H43168  12.529   2.451   3.385  0.7256  0.5859  1.4397
  313MOL0     H43169  12.473   2.426   3.538  3.2784 -4.3222 -2.8458
  313MOL0     H43170  12.383   2.680   3.536  1.0399  2.4061 -1.1672
  313MOL0     H43171  12.447   2.708   3.379  0.8378  2.3371  1.5000
  313MOL0     H43172  12.633   2.608   3.607 -0.8520  1.4939  0.6616
  313MOL0     H43173  12.609   2.771   3.553 -2.4668  0.7842 -1.6620
  313MOL0     H43174  11.947   2.273   3.778  0.9364 -0.1101  2.7665
  313MOL0     H43175  11.742   2.238   3.889 -1.0343 -0.3298  0.0094
  313MOL0     H43176  11.534   2.024   4.253  0.1789 -0.9941  1.2283
  313MOL0     H43177  11.343   2.087   4.386 -1.2244  1.8919  1.2736
  313MOL0     H43178   9.227   2.537   4.290 -1.1081 -0.3954 -0.4501
  313MOL0     H43179   8.985   2.617   4.335 -0.1515 -1.6841  0.7733
  313MOL0     H43180   8.584   2.679   4.623 -0.9595 -0.1704 -0.4222
  313MOL0     H43181   8.372   2.787   4.639 -1.6930  1.3120 -1.8304
  313MOL0     H43182   8.381   3.204   4.655  0.6778 -1.4994 -0.4223
  313MOL0     H43183   8.354   3.211   4.485  0.1622 -1.0174 -1.5894
  313MOL0     H43184   8.096   3.202   4.524 -0.1767 -1.6410  0.1787
  313MOL0     H43185   8.175   3.334   4.603 -1.4506 -0.4172 -0.2881
  313MOL0     H43186   8.095   3.070   4.745  2.1299  0.5815  1.5430
  313MOL0     H43187   8.148   3.219   4.813  1.9422 -0.3529 -1.0047
  313MOL0     H43188   7.957   3.329   4.709 -2.0843  0.2531 -1.0557
  313MOL0     H43189   7.909   3.205   4.825  0.1269 -1.2017  0.4255
  313MOL0     H43190   7.704   3.060   4.488  1.5325 -1.9083 -1.8267
  313MOL0     H43191   8.539   3.149   4.494  1.4447  0.2225 -1.0640
  313MOL0     H43192   8.736   3.187   4.454  0.9702  0.0185 -2.1999
  313MOL0     H43193   8.857   3.113   4.557 -1.3120  2.5820  0.8452
  313MOL0     H43194   8.833   3.059   4.390 -1.6885 -2.9719 -0.3670
  314MOL0     O43195   4.120   9.750   5.774 -0.1818  0.6876  1.1260
  314MOL0     C43196   4.175   9.637   5.776 -0.1349 -1.2751  0.1937
  314MOL0     O43197   4.120   9.523   5.821  0.7829 -0.4060  0.5200
  314MOL0     C43198   3.996   9.537   5.877 -0.0016 -0.2830 -0.8362
  314MOL0     C43199   3.902   9.446   5.849 -0.4981  0.3929  0.0864
  314MOL0     C43200   3.779   9.437   5.921  0.3482  0.1155  0.5243
  314MOL0     C43201   3.744   9.529   6.021  0.4173  0.5492  0.4255
  314MOL0     O43202   3.622   9.514   6.084 -0.6327 -0.3044 -0.1826
  314MOL0     C43203   3.546   9.617   6.156  0.5228 -0.2705  0.7444
  314MOL0     C43204   3.410   9.570   6.208 -0.3226 -0.5462 -0.5262
  314MOL0     C43205   3.318   9.697   6.230 -0.3816  1.1743  0.3412
  314MOL0     C43206   3.183   9.651   6.281  0.2048  0.0161  0.1618
  314MOL0     C43207   3.080   9.770   6.260 -0.4382 -0.4088  0.1094
  314MOL0     C43208   3.095   9.858   6.382 -0.4303  0.6372 -0.5209
  314MOL0     C43209   3.017   9.993   6.386 -0.4685  0.6802  0.2560
  314MOL0     C43210   3.105  10.107   6.344 -0.0816 -0.0147  0.1790
  314MOL0     N43211   3.180  10.088   6.215  0.4061 -0.1410  0.4214
  314MOL0     C43212   3.307  10.036   6.198 -0.3970  0.3631 -0.9753
  314MOL0     C43213   3.335  10.062   6.065 -0.5912 -0.4256 -0.5574
  314MOL0     C43214   3.463  10.023   6.003  0.2120  0.1153 -0.0588
  314MOL0     C43215   3.587  10.092   6.052  0.1330  0.5425 -0.5664
  314MOL0     C43216   3.621  10.043   6.196  0.4740  0.1326  0.1720
  314MOL0     C43217   3.770  10.080   6.226 -0.1407 -0.0586 -0.1206
  314MOL0     O43218   3.848  10.009   6.129  0.3563  0.2102 -0.1105
  314MOL0     C43219   3.982  10.041   6.118 -0.2163  0.4464 -1.0895
  314MOL0     C43220   4.045  10.122   6.201 -0.4358  0.1941 -0.5541
  314MOL0     C43221   4.179  10.154   6.188 -0.3873 -0.1315  0.2324
  314MOL0     C43222   4.236  10.219   6.314 -0.3313  0.4616  0.2490
  314MOL0     C43223   4.247  10.113   6.070  0.3960 -0.0950  0.5501
  314MOL0     C43224   4.387  10.153   6.027  0.1418  0.1789  0.9130
  314MOL0     O43225   4.441  10.129   5.896  0.2478 -1.0508  0.0499
  314MOL0     C43226   4.567  10.162   5.857 -0.4232  0.2759 -0.5142
  314MOL0     C43227   4.640  10.274   5.902  0.0463 -0.4090 -0.1717
  314MOL0     C43228   4.770  10.288   5.855  0.2372 -0.0317  0.3167
  314MOL0     C43229   4.832  10.201   5.752  0.2519  0.4043 -0.9916
  314MOL0     O43230   4.964  10.222   5.717 -0.0673 -0.3538  0.6429
  314MOL0     C43231   5.040  10.336   5.765  0.3617  0.2548  0.7917
  314MOL0     C43232   5.182  10.345   5.704 -0.1911  0.0398  1.1099
  314MOL0     C43233   5.272  10.218   5.731  0.1575 -0.3647  0.2531
  314MOL0     C43234   5.392  10.211   5.633  1.0443 -0.3113 -0.2512
  314MOL0     C43235   5.479  10.331   5.647  0.3036 -0.4226 -0.6563
  314MOL0     C43236   5.535  10.359   5.790  0.1062 -0.3909  0.2040
  314MOL0     C43237   5.665  10.436   5.787 -0.3004 -0.1327  0.2538
  314MOL0     C43238   5.635  10.578   5.751 -0.0732 -0.9260  0.8522
  314MOL0    Cl43239   5.766  10.689   5.791  0.0864  0.2171 -0.0157
  314MOL0     C43240   4.752  10.092   5.716 -0.1974 -0.1078  0.4373
  314MOL0     C43241   4.628  10.067   5.770  0.5597 -0.7866 -0.5118
  314MOL0     O43242   4.454  10.203   6.115  0.0795 -0.2253  0.0074
  314MOL0     C43243   4.180  10.031   5.985  0.4622 -0.6561  0.4472
  314MOL0     C43244   4.049   9.985   6.010 -0.6303  0.3808  0.3874
  314MOL0     N43245   3.215  10.092   6.002 -0.8605 -0.9337  0.3860
  314MOL0     N43246   3.132  10.117   6.095  0.0491  0.1604 -0.3530
  314MOL0     C43247   3.844   9.629   6.052  0.6275  0.0723  0.7789
  314MOL0     C43248   3.972   9.627   5.996  0.4696  0.4088 -0.5231
  314MOL0     C43249   4.316   9.628   5.726 -0.0312 -0.5606  0.9320
  314MOL0     C43250   4.394   9.527   5.775  0.1708  0.0532  0.3488
  314MOL0     C43251   4.537   9.513   5.749  0.5588  0.3762  0.4618
  314MOL0     C43252   4.605   9.622   5.687  0.7033 -0.9260 -0.0147
  314MOL0     O43253   4.737   9.626   5.657 -0.1579 -0.3329  0.4828
  314MOL0     C43254   4.816   9.502   5.643  0.9136 -0.2485  0.4932
  314MOL0     C43255   4.955   9.542   5.589 -0.0018 -0.9612  0.2768
  314MOL0     C43256   5.058   9.447   5.638  0.1712  0.0838  0.2584
  314MOL0     C43257   5.189   9.458   5.558  0.7480 -0.1530 -0.1877
  314MOL0     C43258   5.285   9.352   5.609  0.0183  0.0377 -0.0645
  314MOL0     C43259   5.367   9.265   5.647  0.5852 -0.3139 -0.1314
  314MOL0     C43260   4.521   9.725   5.636 -0.4854  0.3916 -0.5867
  314MOL0     C43261   4.383   9.733   5.648 -0.0630 -0.1418 -0.1968
  314MOL0     C43262   4.318   9.861   5.589  0.0850 -0.0218 -0.4340
  314MOL0     H43263   3.926   9.375   5.770  2.8583  0.6732  0.7119
  314MOL0     H43264   3.712   9.354   5.905 -0.3134  0.9377 -1.3247
  314MOL0     H43265   3.535   9.706   6.094  1.5061 -0.1481  0.7364
  314MOL0     H43266   3.594   9.658   6.245  0.4887 -0.8653  1.0452
  314MOL0     H43267   3.362   9.503   6.136  0.2887  0.7911 -2.2479
  314MOL0     H43268   3.438   9.517   6.299  0.8372 -1.2629 -1.2631
  314MOL0     H43269   3.359   9.769   6.302  2.5150  1.3268 -1.2861
  314MOL0     H43270   3.308   9.757   6.139 -1.6189  1.0988  0.4207
  314MOL0     H43271   3.154   9.561   6.226  1.0962  0.4708 -1.0968
  314MOL0     H43272   3.193   9.618   6.385 -0.2176  2.1788  0.9578
  314MOL0     H43273   2.976   9.736   6.267 -0.9361  1.0195 -0.0727
  314MOL0     H43274   3.086   9.817   6.161  0.6656  1.7038  1.1392
  314MOL0     H43275   3.075   9.798   6.471  0.3192 -0.8474 -1.3055
  314MOL0     H43276   3.198   9.886   6.406  0.0081 -0.6555 -0.8066
  314MOL0     H43277   3.001   9.993   6.494  3.6387 -1.0013  1.0479
  314MOL0     H43278   2.927   9.989   6.324  0.0054 -0.5562 -0.3964
  314MOL0     H43279   3.054  10.203   6.353  0.0470  0.1104 -0.3505
  314MOL0     H43280   3.191  10.114   6.412  1.3799 -1.8171 -1.3619
  314MOL0     H43281   3.365   9.980   6.271 -2.1459  0.8533  0.8816
  314MOL0     H43282   3.447  10.045   5.897  1.1738 -0.8476 -0.4213
  314MOL0     H43283   3.471   9.914   6.009 -0.0633  0.1531  1.3805
  314MOL0     H43284   3.674  10.066   5.990  0.9128  0.2114  0.6322
  314MOL0     H43285   3.570  10.200   6.053  1.3574  0.7621 -1.0473
  314MOL0     H43286   3.553  10.089   6.269 -1.7602 -0.9412 -1.1392
  314MOL0     H43287   3.603   9.936   6.213 -2.7810  0.6403  0.5887
  314MOL0     H43288   3.774  10.188   6.207  0.6200 -0.4599 -2.6713
  314MOL0     H43289   3.797  10.067   6.331 -1.3278  2.6054  0.6186
  314MOL0     H43290   3.996  10.162   6.289  1.8409  0.6373  0.5675
  314MOL0     H43291   4.184  10.187   6.405 -0.3426  1.7853  0.7250
  314MOL0     H43292   4.238  10.327   6.301 -2.1116  0.5281  0.2161
  314MOL0     H43293   4.337  10.180   6.327  0.2385  0.7136 -2.7055
  314MOL0     H43294   4.599  10.356   5.960  1.7283  0.7406 -0.5428
  314MOL0     H43295   4.823  10.376   5.891 -0.8716  0.4772  0.7464
  314MOL0     H43296   4.978  10.424   5.745 -0.3082 -0.3677  0.0704
  314MOL0     H43297   5.050  10.324   5.873 -1.4494 -1.2874  0.8418
  314MOL0     H43298   5.177  10.363   5.596  1.2976  0.6628  1.1260
  314MOL0     H43299   5.237  10.433   5.737  0.3812 -0.5301  1.7016
  314MOL0     H43300   5.211  10.128   5.722  1.8416 -2.2002  4.5060
  314MOL0     H43301   5.301  10.222   5.836 -3.3256  0.7697  1.3031
  314MOL0     H43302   5.356  10.208   5.529  1.7753  5.0788 -0.9513
  314MOL0     H43303   5.456  10.126   5.659  0.7800  0.5158  3.6979
  314MOL0     H43304   5.558  10.307   5.574 -0.8778 -2.0626 -1.4657
  314MOL0     H43305   5.423  10.418   5.613  1.1248 -0.1459 -1.3582
  314MOL0     H43306   5.547  10.260   5.835 -1.0107 -1.8893 -2.5407
  314MOL0     H43307   5.462  10.412   5.852  1.7674  0.6403  1.3473
  314MOL0     H43308   5.733  10.388   5.716 -1.4021 -1.4384  0.0346
  314MOL0     H43309   5.712  10.434   5.885  1.3915 -3.5742 -0.4611
  314MOL0     H43310   5.562  10.608   5.827 -0.6023 -1.4193  0.5478
  314MOL0     H43311   5.605  10.586   5.646 -3.3591 -1.0252  1.6704
  314MOL0     H43312   4.789  10.028   5.637 -1.5861 -1.4450  0.8199
  314MOL0     H43313   4.578   9.979   5.730 -1.4810 -0.3465  0.8849
  314MOL0     H43314   4.228  10.016   5.889  0.0361  0.6779 -0.0021
  314MOL0     H43315   3.998   9.919   5.941 -0.3469  0.1086  0.4372
  314MOL0     H43316   3.816   9.699   6.130  2.4581 -1.1533  2.6472
  314MOL0     H43317   4.045   9.698   6.033  1.3160 -1.6552  2.1230
  314MOL0     H43318   4.347   9.451   5.836 -0.2040  1.2552  1.6318
  314MOL0     H43319   4.589   9.425   5.786 -0.0985 -0.3958 -0.3890
  314MOL0     H43320   4.809   9.452   5.740 -2.7935 -0.6040  0.1718
  314MOL0     H43321   4.764   9.443   5.567 -2.1829  1.0027  1.5145
  314MOL0     H43322   4.974   9.641   5.631 -0.9083 -0.2814 -0.8539
  314MOL0     H43323   4.956   9.554   5.481  1.5184  2.9877  0.5715
  314MOL0     H43324   5.061   9.475   5.744 -1.5007 -0.1125  0.3865
  314MOL0     H43325   5.020   9.345   5.625  1.1150 -0.0823 -1.4531
  314MOL0     H43326   5.243   9.550   5.583  0.8021 -0.3475  0.4410
  314MOL0     H43327   5.174   9.455   5.450  1.7462 -0.8266 -0.3203
  314MOL0     H43328   5.436   9.190   5.679  0.3455 -0.1674  0.7669
  314MOL0     H43329   4.571   9.806   5.583  2.1402 -1.1003 -0.5412
  314MOL0     H43330   4.270   9.916   5.671  2.6370  0.1052  1.0693
  314MOL0     H43331   4.386   9.919   5.526 -0.8962 -1.5234 -3.0316
  314MOL0     H43332   4.238   9.856   5.515 -1.1068  0.7120  0.7557
  315MOL0     O43333   0.941   5.366   7.279 -0.5679  1.0432 -0.5655
  315MOL0     C43334   0.914   5.374   7.161  0.1228 -0.2110  0.0959
  315MOL0     O43335   1.002   5.339   7.065 -0.0433  0.0079 -0.3999
  315MOL0     C43336   1.122   5.298   7.101 -0.0613 -0.8017  1.0946
  315MOL0     C43337   1.128   5.165   7.149  0.3704  0.4285  0.1160
  315MOL0     C43338   1.246   5.091   7.155 -1.6503  0.3970 -0.7244
  315MOL0     C43339   1.365   5.155   7.112  0.1932  0.7584  0.2231
  315MOL0     O43340   1.485   5.095   7.092  0.1614 -0.3043  0.4232
  315MOL0     C43341   1.528   4.994   7.187  0.3067 -0.6826  0.2615
  315MOL0     C43342   1.689   4.991   7.185  0.3122  0.3416 -0.1194
  315MOL0     C43343   1.744   4.860   7.131 -0.4917 -0.7591 -0.6816
  315MOL0     C43344   1.901   4.875   7.120  0.1444 -1.0174 -0.1658
  315MOL0     C43345   1.963   4.763   7.042  0.7532  0.1832 -0.8242
  315MOL0     C43346   1.952   4.766   6.890  0.0135 -0.6064 -0.5087
  315MOL0     C43347   1.999   4.635   6.844  0.3815  0.2623 -1.3229
  315MOL0     C43348   2.037   4.639   6.698  0.0827  0.1805 -0.6503
  315MOL0     N43349   2.098   4.519   6.641 -0.0102  0.2872 -0.2472
  315MOL0     C43350   2.049   4.392   6.647 -0.1726 -0.7094  0.7226
  315MOL0     C43351   2.109   4.320   6.551  0.4686 -0.3076  0.1092
  315MOL0     C43352   2.062   4.185   6.512 -0.2969  0.3279  0.5653
  315MOL0     C43353   2.155   4.065   6.537 -0.1062  1.1558 -0.5183
  315MOL0     C43354   2.218   4.061   6.675 -0.3794  0.0359  0.2869
  315MOL0     C43355   2.364   4.107   6.686  1.3382  0.5102  0.0322
  315MOL0     O43356   2.453   4.025   6.618  0.0251 -0.0135  0.0322
  315MOL0     C43357   2.582   4.066   6.605  0.2207 -0.1981 -0.3608
  315MOL0     C43358   2.647   4.180   6.656  0.9085  0.0691 -0.0567
  315MOL0     C43359   2.782   4.183   6.664 -0.8931 -0.4957  0.2561
  315MOL0     C43360   2.843   4.305   6.736  0.4177  0.4823 -0.0156
  315MOL0     C43361   2.860   4.085   6.601 -0.2770  0.2804  0.1887
  315MOL0     C43362   3.006   4.085   6.604 -0.0601 -0.8848  0.5746
  315MOL0     O43363   3.059   4.089   6.729  0.0455 -0.3531  0.0088
  315MOL0     C43364   3.192   4.130   6.731  0.3738  0.2198  0.3087
  315MOL0     C43365   3.234   4.246   6.792 -0.2154  0.0123  0.3179
  315MOL0     C43366   3.368   4.276   6.817  0.6421  0.0212  0.0874
  315MOL0     C43367   3.466   4.182   6.796  0.0205  0.0130  0.2190
  315MOL0     O43368   3.597   4.198   6.824 -0.2888  0.1447 -1.1386
  315MOL0     C43369   3.668   4.277   6.727  0.3233 -0.4304  1.5316
  315MOL0     C43370   3.804   4.306   6.768 -0.6423 -0.3262  0.0196
  315MOL0     C43371   3.875   4.403   6.684  1.8544  0.2127 -0.4679
  315MOL0     C43372   4.020   4.406   6.735 -0.4045  0.4713 -0.0472
  315MOL0     C43373   4.100   4.502   6.657  0.2358  0.6883  0.3758
  315MOL0     C43374   4.244   4.524   6.714 -0.1371  0.0599 -0.0473
  315MOL0     C43375   4.320   4.617   6.632  0.0250  1.3086 -0.1466
  315MOL0     C43376   4.465   4.618   6.685  0.0661 -0.5137  0.1836
  315MOL0    Cl43377   4.460   4.688   6.849  0.0042 -0.0093 -0.1862
  315MOL0     C43378   3.428   4.067   6.728 -0.5714 -1.2155 -0.5960
  315MOL0     C43379   3.297   4.039   6.705 -0.2801  0.3137  0.1689
  315MOL0     O43380   3.065   4.086   6.499 -0.3677 -0.2081 -0.4097
  315MOL0     C43381   2.788   3.989   6.532 -1.0870  0.0238  0.0614
  315MOL0     C43382   2.661   3.968   6.547  0.6161  0.1207 -0.4411
  315MOL0     N43383   2.183   4.406   6.475 -0.6863 -0.7296 -0.2968
  315MOL0     N43384   2.175   4.526   6.532 -0.5466 -0.0178 -0.5293
  315MOL0     C43385   1.360   5.288   7.073  0.0025 -1.4546 -0.2976
  315MOL0     C43386   1.246   5.359   7.061  0.3317 -0.6032 -0.9974
  315MOL0     C43387   0.778   5.407   7.124 -0.4457  0.1695  0.0719
  315MOL0     C43388   0.717   5.329   7.020 -0.0893 -0.6586 -0.6245
  315MOL0     C43389   0.592   5.362   6.970  0.5338 -0.4197 -0.0232
  315MOL0     C43390   0.523   5.471   7.022 -0.4765  0.7553 -0.8498
  315MOL0     O43391   0.416   5.508   6.956 -0.5948 -0.1144 -0.5276
  315MOL0     C43392   0.393   5.647   6.933 -0.2556  0.0767  0.4881
  315MOL0     C43393   0.247   5.673   6.882  0.3636  0.0673  0.4877
  315MOL0     C43394   0.232   5.604   6.743 -0.4380  0.2163 -0.0624
  315MOL0     C43395   0.324   5.668   6.639  0.7256  0.6605 -0.7518
  315MOL0     C43396   0.268   5.647   6.503  0.3927 -0.0515 -0.2383
  315MOL0     C43397   0.227   5.667   6.384  0.3190 -0.1727 -0.7162
  315MOL0     C43398   0.575   5.536   7.137  0.3994  0.6721  0.9260
  315MOL0     C43399   0.705   5.511   7.186 -0.4807 -0.8150  0.1333
  315MOL0     C43400   0.750   5.580   7.313  1.1427 -0.1814 -0.4099
  315MOL0     H43401   1.034   5.114   7.163 -0.5441  1.9544 -0.2901
  315MOL0     H43402   1.234   4.988   7.188 -3.8483  0.5293 -0.9919
  315MOL0     H43403   1.475   4.903   7.157 -2.5100  1.4581 -1.8177
  315MOL0     H43404   1.505   5.015   7.293  1.4877 -1.6148  0.7208
  315MOL0     H43405   1.725   5.084   7.142 -0.0065  0.9778  0.9368
  315MOL0     H43406   1.726   4.988   7.288  1.8922 -0.3353 -0.6697
  315MOL0     H43407   1.713   4.774   7.191  0.6417 -1.4991 -1.1291
  315MOL0     H43408   1.714   4.836   7.028 -1.0659 -0.6571 -0.5445
  315MOL0     H43409   1.921   4.970   7.068 -0.4921 -2.8897 -4.2210
  315MOL0     H43410   1.927   4.883   7.226 -1.2608 -0.2332  0.1473
  315MOL0     H43411   1.908   4.674   7.073 -1.2343  2.3681  2.5603
  315MOL0     H43412   2.066   4.762   7.078 -0.0991  1.1420  1.8690
  315MOL0     H43413   1.851   4.793   6.857 -2.6583 -0.8406  5.9866
  315MOL0     H43414   2.026   4.834   6.846  0.6704 -1.1212 -0.2193
  315MOL0     H43415   1.921   4.560   6.859  0.5371  0.4628  0.7081
  315MOL0     H43416   2.076   4.593   6.910 -1.6832 -1.0134  0.3894
  315MOL0     H43417   1.948   4.666   6.641 -0.1159  0.8248 -0.0538
  315MOL0     H43418   2.100   4.725   6.672 -0.6222  0.9680  0.1804
  315MOL0     H43419   1.970   4.364   6.715 -0.3363 -1.4947  0.2294
  315MOL0     H43420   2.045   4.184   6.404  0.3699  0.9996  0.4422
  315MOL0     H43421   1.974   4.168   6.574  0.8325  1.5519  2.5995
  315MOL0     H43422   2.086   3.980   6.532  0.5597  0.4433  1.5284
  315MOL0     H43423   2.228   4.056   6.455  0.0342  0.5022 -0.3290
  315MOL0     H43424   2.160   4.125   6.740 -0.5857  0.2095 -0.0668
  315MOL0     H43425   2.208   3.957   6.708  0.0122  0.4475  1.7650
  315MOL0     H43426   2.379   4.211   6.654  1.3678 -0.2871 -2.8464
  315MOL0     H43427   2.391   4.101   6.792  0.1954  1.5033  0.4077
  315MOL0     H43428   2.584   4.257   6.701  0.9040 -0.2655  0.5214
  315MOL0     H43429   2.901   4.271   6.822  1.9356  2.4941 -0.1704
  315MOL0     H43430   2.759   4.370   6.762 -0.0330 -0.5960  1.3138
  315MOL0     H43431   2.913   4.358   6.670 -2.0743  1.8866 -1.6834
  315MOL0     H43432   3.155   4.316   6.819  0.7656  1.0982  0.4164
  315MOL0     H43433   3.391   4.370   6.865 -0.7277  0.2824  0.2601
  315MOL0     H43434   3.671   4.222   6.632 -0.2882 -3.4668  3.1427
  315MOL0     H43435   3.621   4.374   6.711  2.1136  0.0750 -1.5036
  315MOL0     H43436   3.802   4.351   6.868  2.0745  1.3082 -0.5508
  315MOL0     H43437   3.865   4.215   6.767 -0.6573 -0.3464  0.5138
  315MOL0     H43438   3.831   4.503   6.687 -0.0104 -0.5464  2.9257
  315MOL0     H43439   3.860   4.363   6.583 -0.7718 -0.3667  0.0720
  315MOL0     H43440   4.063   4.306   6.734 -1.8478 -0.3639  3.7772
  315MOL0     H43441   4.015   4.441   6.838 -1.4765 -2.2975  0.9430
  315MOL0     H43442   4.100   4.458   6.557 -0.4517 -0.1592  0.7403
  315MOL0     H43443   4.044   4.596   6.651 -0.4189  0.2145 -1.8730
  315MOL0     H43444   4.294   4.426   6.716  3.0074  1.5030 -1.6764
  315MOL0     H43445   4.231   4.563   6.815  3.3243 -2.9195  1.7881
  315MOL0     H43446   4.278   4.718   6.630  1.9214  2.1586  0.9887
  315MOL0     H43447   4.332   4.587   6.527 -1.1445  1.5298 -0.3627
  315MOL0     H43448   4.531   4.670   6.616  0.3076 -0.5367  0.3958
  315MOL0     H43449   4.514   4.521   6.690 -0.1265 -0.5533  2.9126
  315MOL0     H43450   3.513   4.002   6.707  1.1446  0.2820  1.3207
  315MOL0     H43451   3.254   3.945   6.670  1.9395 -1.4163  1.7629
  315MOL0     H43452   2.840   3.918   6.469 -0.3714  1.6438 -1.2315
  315MOL0     H43453   2.624   3.879   6.498  1.1517  0.8213 -2.2152
  315MOL0     H43454   1.447   5.350   7.053 -0.0740  0.2425  3.5719
  315MOL0     H43455   1.257   5.463   7.031  2.7385 -1.2664 -2.6894
  315MOL0     H43456   0.768   5.259   6.954  0.0602 -1.1948  0.0437
  315MOL0     H43457   0.557   5.309   6.882  3.6382 -2.6913 -0.0678
  315MOL0     H43458   0.409   5.703   7.026  4.3404 -1.5397  0.9172
  315MOL0     H43459   0.464   5.688   6.861  1.6341 -2.4935  0.7715
  315MOL0     H43460   0.226   5.781   6.881 -0.2330  0.0381 -2.8213
  315MOL0     H43461   0.171   5.624   6.944  0.2701 -2.8787 -1.7350
  315MOL0     H43462   0.240   5.496   6.756  1.7896  0.7326  5.3902
  315MOL0     H43463   0.128   5.617   6.710 -0.3147  0.6025 -0.3048
  315MOL0     H43464   0.421   5.618   6.643  0.7013  0.3312 -2.9872
  315MOL0     H43465   0.344   5.773   6.664 -1.4709  0.8457  0.4481
  315MOL0     H43466   0.211   5.680   6.279  2.4714 -1.0468 -1.2063
  315MOL0     H43467   0.513   5.611   7.187 -0.4040  1.9326 -1.8012
  315MOL0     H43468   0.672   5.647   7.352  0.5607 -2.0351  1.7905
  315MOL0     H43469   0.779   5.516   7.396  1.5819  1.0939  0.4620
  315MOL0     H43470   0.835   5.644   7.289  0.2169  1.4746  0.5322
  316MOL0     O43471   3.111   7.877   1.899  0.4570  0.4502 -0.0630
  316MOL0     C43472   3.011   7.937   1.857  0.4639  0.5315  0.6493
  316MOL0     O43473   3.001   8.072   1.833 -0.2637  0.1872 -0.3688
  316MOL0     C43474   3.119   8.151   1.833  0.4521 -0.0346  0.0210
  316MOL0     C43475   3.107   8.250   1.738 -0.5725  0.3728 -0.1916
  316MOL0     C43476   3.211   8.350   1.729 -0.4144 -0.1805  0.2051
  316MOL0     C43477   3.313   8.344   1.827 -0.7066  0.3391  0.5010
  316MOL0     O43478   3.414   8.443   1.821  0.0753  0.3147  0.5399
  316MOL0     C43479   3.549   8.397   1.839 -0.3951 -0.1538  0.1884
  316MOL0     C43480   3.649   8.509   1.831 -0.0647 -0.1850  0.1223
  316MOL0     C43481   3.794   8.460   1.878  1.1456 -0.3646  0.0041
  316MOL0     C43482   3.808   8.442   2.029 -0.5159 -0.7979 -0.1341
  316MOL0     C43483   3.955   8.405   2.063 -1.3284  0.3219 -0.4229
  316MOL0     C43484   3.969   8.313   2.183 -0.3369  0.2149 -0.2945
  316MOL0     C43485   4.112   8.301   2.245 -0.0956  0.7002  0.9327
  316MOL0     C43486   4.147   8.435   2.323 -0.0243 -0.1155  0.4232
  316MOL0     N43487   4.291   8.455   2.341  0.4797 -0.2406  0.0560
  316MOL0     C43488   4.376   8.386   2.423  0.2949  0.2628 -0.2085
  316MOL0     C43489   4.497   8.448   2.397 -0.2821 -0.0110 -0.0107
  316MOL0     C43490   4.625   8.422   2.477 -0.7004 -0.6476  0.0755
  316MOL0     C43491   4.735   8.519   2.438 -0.3309  0.0222 -0.2778
  316MOL0     C43492   4.854   8.520   2.537 -0.7330 -0.0637  0.0700
  316MOL0     C43493   4.988   8.559   2.472 -0.4061  0.4747 -0.4015
  316MOL0     O43494   5.068   8.601   2.581  1.1662 -0.0432  0.5103
  316MOL0     C43495   5.206   8.593   2.567 -0.2599 -0.6515 -0.7970
  316MOL0     C43496   5.277   8.584   2.688  0.2055 -0.6112  0.3486
  316MOL0     C43497   5.410   8.590   2.691 -0.2808 -0.2951 -0.5919
  316MOL0     C43498   5.484   8.602   2.825 -0.0490 -0.2214 -0.2909
  316MOL0     C43499   5.480   8.586   2.567  0.1547 -0.0904  0.7233
  316MOL0     C43500   5.627   8.594   2.567 -0.3972  0.6477 -0.4061
  316MOL0     O43501   5.700   8.520   2.667 -0.2187  0.5171 -0.0368
  316MOL0     C43502   5.824   8.568   2.710 -0.7298 -0.2318 -1.1564
  316MOL0     C43503   5.879   8.485   2.803  0.1295 -0.2340  0.6558
  316MOL0     C43504   6.004   8.510   2.856  0.5228 -0.1731 -0.1422
  316MOL0     C43505   6.089   8.607   2.804 -0.3218  0.2859 -0.1146
  316MOL0     O43506   6.216   8.604   2.854 -0.4352  0.6135 -1.2079
  316MOL0     C43507   6.321   8.669   2.778  0.5644  0.5812  0.1279
  316MOL0     C43508   6.453   8.642   2.848 -0.7826 -0.3405 -0.0972
  316MOL0     C43509   6.560   8.741   2.788  0.2601 -0.7538  0.1326
  316MOL0     C43510   6.690   8.743   2.876  0.4255 -0.1144  0.7278
  316MOL0     C43511   6.787   8.850   2.838 -0.9683  0.9940 -0.3943
  316MOL0     C43512   6.868   8.826   2.703  0.3564 -0.6144 -0.0954
  316MOL0     C43513   6.938   8.697   2.686 -0.4165  0.8166  0.3542
  316MOL0     C43514   7.058   8.677   2.780 -0.7461 -0.0577 -0.0014
  316MOL0    Cl43515   7.178   8.800   2.732 -0.4654  0.1107  0.0549
  316MOL0     C43516   6.049   8.673   2.689  0.2512 -0.1898 -0.5825
  316MOL0     C43517   5.915   8.655   2.645 -1.1756 -0.2731  0.1073
  316MOL0     O43518   5.667   8.694   2.502 -0.3637  0.0268  0.0444
  316MOL0     C43519   5.411   8.591   2.444  1.2345  0.5171 -0.6166
  316MOL0     C43520   5.275   8.589   2.452  0.2035  1.1419 -0.6405
  316MOL0     N43521   4.477   8.558   2.322 -0.3296 -0.0524 -0.6562
  316MOL0     N43522   4.354   8.555   2.279  0.1182 -0.1300  0.1862
  316MOL0     C43523   3.318   8.238   1.926 -0.2931  0.4030 -0.1477
  316MOL0     C43524   3.217   8.143   1.930  0.0352 -0.5746  0.0195
  316MOL0     C43525   2.886   7.846   1.850 -0.5577 -0.1447 -0.4285
  316MOL0     C43526   2.889   7.721   1.921  0.0493 -0.2323 -0.9398
  316MOL0     C43527   2.767   7.650   1.938  0.0884 -0.1345 -0.1404
  316MOL0     C43528   2.645   7.703   1.888 -0.4233 -0.3652  0.2017
  316MOL0     O43529   2.538   7.624   1.914 -0.3464 -0.3040 -0.1524
  316MOL0     C43530   2.423   7.634   1.838  0.8533 -0.3574  0.0037
  316MOL0     C43531   2.359   7.501   1.857  0.1965  0.5720  0.3743
  316MOL0     C43532   2.203   7.492   1.822  0.0982  0.1618  0.1362
  316MOL0     C43533   2.171   7.347   1.837  1.6561  0.3498 -0.2126
  316MOL0     C43534   2.231   7.260   1.734 -0.4085 -0.2708  0.0916
  316MOL0     C43535   2.281   7.203   1.641 -0.5380  0.1403 -0.4761
  316MOL0     C43536   2.648   7.816   1.815  0.7745 -0.2313 -0.3542
  316MOL0     C43537   2.767   7.887   1.793 -0.1034  0.9132  0.7897
  316MOL0     C43538   2.759   8.022   1.720 -1.2363 -1.2736  0.2864
  316MOL0     H43539   3.027   8.253   1.664  0.6718  2.2721 -1.5673
  316MOL0     H43540   3.217   8.425   1.650 -3.1687  0.5426  0.5762
  316MOL0     H43541   3.576   8.329   1.757 -2.0200  1.9178 -2.2419
  316MOL0     H43542   3.555   8.343   1.934  3.1590 -3.0854 -1.4704
  316MOL0     H43543   3.648   8.537   1.725 -0.7899  0.4294  0.2816
  316MOL0     H43544   3.625   8.590   1.900  0.2153  0.7696 -0.8584
  316MOL0     H43545   3.813   8.369   1.821  1.6383  0.5945 -1.4065
  316MOL0     H43546   3.872   8.527   1.841  0.0677 -0.2755 -2.2561
  316MOL0     H43547   3.795   8.536   2.084 -1.1420 -2.0655  1.9709
  316MOL0     H43548   3.735   8.374   2.073  0.9260 -1.7028  0.9281
  316MOL0     H43549   4.003   8.503   2.067 -1.8166  0.5305  0.6164
  316MOL0     H43550   3.985   8.339   1.981  1.5989  0.9201  0.0727
  316MOL0     H43551   3.894   8.342   2.258 -0.2389 -0.8379  0.2246
  316MOL0     H43552   3.936   8.214   2.151  1.2247 -1.0150  1.6968
  316MOL0     H43553   4.180   8.276   2.163 -1.2922  1.3254 -0.3046
  316MOL0     H43554   4.116   8.222   2.320 -0.2823  1.3030  1.5915
  316MOL0     H43555   4.101   8.522   2.275  0.4003 -0.0696  0.0962
  316MOL0     H43556   4.104   8.430   2.423  0.0256 -2.3492  0.3947
  316MOL0     H43557   4.365   8.299   2.487  1.2376  2.2848  2.9304
  316MOL0     H43558   4.665   8.321   2.468  0.0460 -0.6321  2.5767
  316MOL0     H43559   4.596   8.426   2.582 -1.7154 -4.0714  0.0598
  316MOL0     H43560   4.769   8.494   2.337 -0.2005  0.7344 -0.4182
  316MOL0     H43561   4.690   8.619   2.434  2.0878  1.1595 -3.2223
  316MOL0     H43562   4.827   8.602   2.605  0.0560  1.2230 -1.1167
  316MOL0     H43563   4.865   8.430   2.598  2.5671 -0.0078 -0.2560
  316MOL0     H43564   5.030   8.470   2.424  0.8710 -0.3556  2.0975
  316MOL0     H43565   4.978   8.645   2.405 -3.7352 -0.2555 -0.9942
  316MOL0     H43566   5.225   8.584   2.783 -0.4926  0.4575 -0.0206
  316MOL0     H43567   5.569   8.670   2.828 -0.7148  0.6536 -0.8350
  316MOL0     H43568   5.527   8.505   2.853 -0.8714  0.5297  4.4279
  316MOL0     H43569   5.412   8.633   2.902 -0.2965 -0.8436 -0.2694
  316MOL0     H43570   5.816   8.410   2.849  0.4039  0.4261  2.1969
  316MOL0     H43571   6.037   8.449   2.939 -0.2682 -0.7032 -0.2069
  316MOL0     H43572   6.312   8.623   2.679  2.2300  0.4851 -0.0053
  316MOL0     H43573   6.302   8.776   2.767  1.9409  0.7869 -0.4411
  316MOL0     H43574   6.443   8.668   2.954  2.0579  2.0898 -0.2917
  316MOL0     H43575   6.485   8.540   2.826  2.0103  0.6270 -0.9458
  316MOL0     H43576   6.505   8.836   2.789 -0.4182 -1.1257 -0.6639
  316MOL0     H43577   6.580   8.706   2.687  0.0369 -1.7906  0.4299
  316MOL0     H43578   6.736   8.644   2.883  2.8602  0.6836 -2.2021
  316MOL0     H43579   6.646   8.748   2.976 -1.1185 -1.1190  0.1418
  316MOL0     H43580   6.741   8.949   2.828  0.0085  1.7144  1.6496
  316MOL0     H43581   6.854   8.846   2.925 -0.2590 -1.3602 -0.9915
  316MOL0     H43582   6.939   8.909   2.695  1.7596 -1.5476  1.8832
  316MOL0     H43583   6.805   8.846   2.616  1.9080 -2.4895 -1.7656
  316MOL0     H43584   6.980   8.690   2.585 -1.4424 -0.2784 -0.0205
  316MOL0     H43585   6.873   8.609   2.690  1.0169 -0.3666 -1.2695
  316MOL0     H43586   7.109   8.580   2.778 -1.4059 -0.4614  1.3252
  316MOL0     H43587   7.022   8.688   2.883 -2.2402  0.3192 -0.5286
  316MOL0     H43588   6.105   8.743   2.628 -2.0328  2.7691  0.4490
  316MOL0     H43589   5.903   8.703   2.548  0.9396 -0.5356 -0.3453
  316MOL0     H43590   5.457   8.608   2.347  0.0215  3.1990 -0.8181
  316MOL0     H43591   5.212   8.589   2.364 -2.7672  0.2936  1.3605
  316MOL0     H43592   3.388   8.230   2.008 -2.1801  0.5405  1.5601
  316MOL0     H43593   3.232   8.073   2.012  0.4925 -0.7474 -0.2060
  316MOL0     H43594   2.985   7.689   1.959  0.2654  0.7626 -0.6100
  316MOL0     H43595   2.752   7.557   1.992  1.3546  0.2189  0.8608
  316MOL0     H43596   2.363   7.715   1.879  0.6366 -1.2959  1.6018
  316MOL0     H43597   2.441   7.657   1.732  0.7455 -0.9828 -0.1505
  316MOL0     H43598   2.365   7.479   1.965 -2.4258 -0.0705  0.4535
  316MOL0     H43599   2.407   7.420   1.801 -1.8798 -0.9285  0.6294
  316MOL0     H43600   2.137   7.558   1.880 -2.0438 -2.2594  0.6443
  316MOL0     H43601   2.190   7.525   1.719  2.1358  1.6512  0.3065
  316MOL0     H43602   2.063   7.332   1.828  1.9069 -1.4839 -0.5604
  316MOL0     H43603   2.195   7.301   1.933 -2.8541 -1.3108  0.3828
  316MOL0     H43604   2.343   7.167   1.562 -1.9162  1.4106 -2.2157
  316MOL0     H43605   2.555   7.865   1.789  0.4424 -1.2844 -1.2034
  316MOL0     H43606   2.839   8.047   1.649 -1.5249 -0.3385  0.2691
  316MOL0     H43607   2.672   8.025   1.654  0.2159 -2.6096 -1.8271
  316MOL0     H43608   2.746   8.099   1.796 -5.1334 -1.3828 -0.0590
  317MOL0     O43609   7.477   5.381   3.434  0.0924  0.8433 -0.9232
  317MOL0     C43610   7.443   5.487   3.379  1.0152  0.0535 -0.5372
  317MOL0     O43611   7.496   5.535   3.268  0.5696  0.4146  1.0336
  317MOL0     C43612   7.613   5.487   3.231 -0.8877 -0.8419 -1.0281
  317MOL0     C43613   7.617   5.376   3.154 -0.0776  0.5784  1.3728
  317MOL0     C43614   7.742   5.323   3.115  0.1142 -0.0301 -0.3280
  317MOL0     C43615   7.865   5.385   3.155  0.9281 -0.8176 -0.0828
  317MOL0     O43616   7.987   5.322   3.155  0.0140  0.6596  0.1205
  317MOL0     C43617   8.007   5.229   3.047  0.9936  0.1490  0.4484
  317MOL0     C43618   8.156   5.202   3.020  0.1598 -0.0747  0.8526
  317MOL0     C43619   8.257   5.317   3.006 -0.9116  0.7805 -0.7844
  317MOL0     C43620   8.405   5.263   2.957  1.3355 -0.6300 -0.4668
  317MOL0     C43621   8.480   5.206   3.075  0.5301  0.3540 -0.4351
  317MOL0     C43622   8.616   5.163   3.030 -0.0277 -0.2913  0.2595
  317MOL0     C43623   8.673   5.087   3.143 -0.1847  0.1266 -0.3326
  317MOL0     C43624   8.777   4.986   3.093  0.0407 -0.6464  0.0795
  317MOL0     N43625   8.868   4.928   3.190 -0.1856 -0.2870 -0.7274
  317MOL0     C43626   8.821   4.843   3.289  0.8490 -0.1315 -0.3989
  317MOL0     C43627   8.931   4.843   3.368 -0.5041 -0.4866  0.3217
  317MOL0     C43628   8.948   4.742   3.477 -0.1189  0.3029 -0.2957
  317MOL0     C43629   9.090   4.690   3.507  0.6144  0.1895  0.1987
  317MOL0     C43630   9.157   4.802   3.591 -1.0133 -0.0965  0.2555
  317MOL0     C43631   9.294   4.758   3.645 -0.7042  0.1682 -0.1402
  317MOL0     O43632   9.307   4.862   3.732  0.2419  0.4194 -0.1558
  317MOL0     C43633   9.433   4.908   3.765 -0.5061  0.0051  0.1693
  317MOL0     C43634   9.456   5.030   3.830 -0.6868 -0.0697 -0.4174
  317MOL0     C43635   9.584   5.083   3.855  0.4054 -0.4944 -0.6462
  317MOL0     C43636   9.593   5.207   3.938  0.1201  0.6623  0.3132
  317MOL0     C43637   9.697   5.007   3.812  0.0723  0.2958 -0.7578
  317MOL0     C43638   9.846   5.048   3.841  0.5859 -0.1336  0.5809
  317MOL0     O43639   9.918   4.940   3.846  0.6642  0.2079 -0.2125
  317MOL0     C43640  10.051   4.950   3.810  0.1645 -0.0374 -0.4065
  317MOL0     C43641  10.080   4.950   3.680 -0.5695 -0.3113 -0.0293
  317MOL0     C43642  10.213   4.970   3.636  0.5268 -0.4927 -0.4604
  317MOL0     C43643  10.322   4.985   3.730  0.0648 -0.4334  0.5382
  317MOL0     O43644  10.450   5.001   3.686 -0.0422  0.3773 -0.3589
  317MOL0     C43645  10.500   4.916   3.574 -0.0241 -0.3245 -0.1891
  317MOL0     C43646  10.650   4.922   3.568  0.0348  0.4487  0.0427
  317MOL0     C43647  10.707   4.818   3.464 -0.1255 -0.1279 -0.5162
  317MOL0     C43648  10.859   4.828   3.453  0.0725  0.6540  0.0883
  317MOL0     C43649  10.917   4.728   3.358 -0.3104  0.3740 -0.1573
  317MOL0     C43650  11.059   4.758   3.329  0.6004 -0.7669  0.1632
  317MOL0     C43651  11.126   4.652   3.238 -0.2488 -1.0816  0.1333
  317MOL0     C43652  11.258   4.693   3.173 -0.8426  0.0679 -0.1551
  317MOL0    Cl43653  11.370   4.736   3.305  0.0120  0.0395  0.0961
  317MOL0     C43654  10.289   4.979   3.871 -0.0274  1.0220 -0.4203
  317MOL0     C43655  10.154   4.962   3.911 -0.7058 -0.7263  1.4238
  317MOL0     O43656   9.887   5.160   3.831 -0.2025  0.2384  0.0904
  317MOL0     C43657   9.678   4.889   3.743  0.2152 -0.0130 -0.0517
  317MOL0     C43658   9.549   4.839   3.721  0.1212  0.4561  0.0885
  317MOL0     N43659   9.035   4.925   3.323  0.2814 -0.4260  0.5994
  317MOL0     N43660   8.990   4.972   3.215 -0.1523  0.1029  0.2742
  317MOL0     C43661   7.856   5.503   3.228  0.3736 -0.3685 -0.6978
  317MOL0     C43662   7.731   5.560   3.262  0.2732  0.3700 -0.0494
  317MOL0     C43663   7.334   5.566   3.443  0.1450  0.6831  0.1323
  317MOL0     C43664   7.259   5.658   3.370  0.1249  0.2342 -0.8623
  317MOL0     C43665   7.176   5.749   3.440 -0.1505 -0.4024 -0.2083
  317MOL0     C43666   7.156   5.739   3.578  0.6693 -0.4936  0.4545
  317MOL0     O43667   7.064   5.816   3.650  0.7546  0.0408 -0.2519
  317MOL0     C43668   6.924   5.782   3.653 -0.0609 -0.1275 -0.0917
  317MOL0     C43669   6.884   5.661   3.745 -0.0122 -0.0664  0.2802
  317MOL0     C43670   6.917   5.691   3.888  0.1951  0.6934 -0.5441
  317MOL0     C43671   6.914   5.563   3.985 -0.2270 -0.4864  0.8028
  317MOL0     C43672   7.002   5.456   3.941 -0.1777 -1.2212 -0.7074
  317MOL0     C43673   7.086   5.375   3.913  0.1843  1.2957 -0.5640
  317MOL0     C43674   7.220   5.642   3.648 -0.3384  0.6543  0.1101
  317MOL0     C43675   7.321   5.567   3.585  1.2006  0.3688 -0.0342
  317MOL0     C43676   7.395   5.474   3.684 -0.0304 -0.7751  1.5003
  317MOL0     H43677   7.524   5.336   3.115 -0.4481  0.8635  1.9489
  317MOL0     H43678   7.744   5.242   3.043  1.2256  0.9283 -1.4233
  317MOL0     H43679   7.962   5.265   2.954 -3.2658 -1.4373  1.6255
  317MOL0     H43680   7.948   5.139   3.072  0.9355  0.4400  1.4258
  317MOL0     H43681   8.193   5.135   3.100  0.0639  0.2937  1.2072
  317MOL0     H43682   8.163   5.143   2.929  1.4637  0.6496  0.4492
  317MOL0     H43683   8.216   5.392   2.937 -1.5886 -0.2766 -1.5470
  317MOL0     H43684   8.270   5.363   3.104 -4.3485 -0.9234  0.6053
  317MOL0     H43685   8.402   5.185   2.881 -0.5680 -0.3727 -0.6965
  317MOL0     H43686   8.466   5.342   2.912 -0.9143  1.5713  0.0786
  317MOL0     H43687   8.429   5.122   3.125  0.4494  0.1647 -0.8347
  317MOL0     H43688   8.495   5.288   3.146 -2.5485 -0.1956  1.0486
  317MOL0     H43689   8.602   5.101   2.941 -1.8162  1.5741 -0.8172
  317MOL0     H43690   8.690   5.239   3.002 -1.6299  0.7817 -1.1897
  317MOL0     H43691   8.601   5.027   3.199 -0.6400  1.9671  1.1468
  317MOL0     H43692   8.704   5.165   3.213 -3.2045  1.0930  0.0690
  317MOL0     H43693   8.733   4.906   3.032 -0.5081  1.0395 -1.8632
  317MOL0     H43694   8.838   5.034   3.016  1.6561 -0.9801  1.0974
  317MOL0     H43695   8.728   4.790   3.310 -1.1826  3.9029  2.0341
  317MOL0     H43696   8.903   4.651   3.436  0.3839  0.8384 -2.1327
  317MOL0     H43697   8.901   4.778   3.569  1.2565  1.0074  0.1633
  317MOL0     H43698   9.091   4.596   3.563  1.1715 -0.6170 -1.1284
  317MOL0     H43699   9.143   4.668   3.414 -1.3513 -0.5531 -0.7977
  317MOL0     H43700   9.192   4.889   3.533  1.5486  0.7039  2.7702
  317MOL0     H43701   9.095   4.829   3.677 -1.4470 -1.5423  0.4184
  317MOL0     H43702   9.276   4.667   3.703 -2.7718  1.4264  1.3114
  317MOL0     H43703   9.369   4.741   3.567 -1.0918 -2.9101  0.0322
  317MOL0     H43704   9.373   5.098   3.847  0.9904  2.4952 -1.9331
  317MOL0     H43705   9.542   5.289   3.886  0.0250 -0.0240 -0.6960
  317MOL0     H43706   9.698   5.227   3.959 -0.0106  0.3528  1.3114
  317MOL0     H43707   9.542   5.204   4.035  0.1455 -2.8703  0.3299
  317MOL0     H43708  10.006   4.930   3.602 -0.4213  2.3354 -0.9629
  317MOL0     H43709  10.247   4.976   3.533 -1.5543  2.2145 -1.0850
  317MOL0     H43710  10.464   4.814   3.584 -1.7141  0.4157  2.1231
  317MOL0     H43711  10.461   4.950   3.478 -0.1105  2.3481  0.6956
  317MOL0     H43712  10.687   5.024   3.553 -0.9311  0.4206 -3.3025
  317MOL0     H43713  10.682   4.874   3.661 -0.2055 -3.5633 -1.7326
  317MOL0     H43714  10.667   4.843   3.365 -1.4024  0.7949  0.1999
  317MOL0     H43715  10.675   4.717   3.491  2.0073 -1.2883 -2.0738
  317MOL0     H43716  10.900   4.807   3.552 -0.1828 -0.0113  0.0541
  317MOL0     H43717  10.890   4.932   3.434  0.4903  0.2545 -1.5403
  317MOL0     H43718  10.910   4.629   3.403 -1.5747  0.5493  0.0822
  317MOL0     H43719  10.860   4.732   3.264  0.3451 -2.2805 -0.7509
  317MOL0     H43720  11.123   4.772   3.417  0.9471  3.9136 -0.5922
  317MOL0     H43721  11.072   4.857   3.284  0.5886  0.6150  2.9764
  317MOL0     H43722  11.068   4.618   3.152  0.9604 -1.8446 -0.4190
  317MOL0     H43723  11.148   4.563   3.297 -2.5572 -0.0468  2.7730
  317MOL0     H43724  11.246   4.781   3.110  0.9590 -0.8409 -1.8843
  317MOL0     H43725  11.295   4.605   3.120 -1.3955  0.2815 -0.8987
  317MOL0     H43726  10.368   4.989   3.945 -0.4927  1.7617 -0.0069
  317MOL0     H43727  10.114   4.969   4.012 -1.6578  0.1706  1.0010
  317MOL0     H43728   9.756   4.836   3.690 -0.2837  0.6162 -1.4845
  317MOL0     H43729   9.547   4.745   3.667 -0.2354 -0.5510  1.7612
  317MOL0     H43730   7.939   5.562   3.265 -1.2598  2.1660 -0.8517
  317MOL0     H43731   7.731   5.650   3.322  1.8908 -0.4828  1.2984
  317MOL0     H43732   7.271   5.670   3.262  0.4088  1.3685 -0.7223
  317MOL0     H43733   7.126   5.832   3.393  0.4337  0.8053  1.2364
  317MOL0     H43734   6.868   5.874   3.674 -2.7290 -1.3604 -1.2588
  317MOL0     H43735   6.903   5.749   3.551  0.1682  1.4550 -0.6881
  317MOL0     H43736   6.941   5.573   3.715 -0.2787 -0.2002  0.1699
  317MOL0     H43737   6.779   5.634   3.735  0.3087 -1.2024 -0.1554
  317MOL0     H43738   7.021   5.724   3.892  1.2121 -2.2679  1.9347
  317MOL0     H43739   6.850   5.766   3.929  1.7061  2.3075 -0.9289
  317MOL0     H43740   6.816   5.515   3.991  1.0750 -3.0879  3.4241
  317MOL0     H43741   6.952   5.604   4.078 -1.8765  0.3621  1.1534
  317MOL0     H43742   7.158   5.299   3.891 -1.5209 -0.3459 -0.7070
  317MOL0     H43743   7.196   5.627   3.753 -3.6822 -0.2422 -0.6622
  317MOL0     H43744   7.371   5.511   3.784 -0.0284  2.4050  0.4355
  317MOL0     H43745   7.363   5.370   3.684  1.4861 -1.4434  5.6335
  317MOL0     H43746   7.501   5.488   3.660 -0.8773  0.5357 -1.9970
  318MOL0     O43747  10.380   7.600   4.960  0.6078  0.2826 -0.1779
  318MOL0     C43748  10.349   7.583   4.840  0.0003  0.0411 -0.3616
  318MOL0     O43749  10.385   7.671   4.743 -1.1433  0.4477  0.2757
  318MOL0     C43750  10.476   7.765   4.778 -0.6133  0.1020 -0.1430
  318MOL0     C43751  10.446   7.898   4.737 -0.0399 -0.2711  0.9263
  318MOL0     C43752  10.522   8.007   4.774 -0.2949  0.0254  0.1528
  318MOL0     C43753  10.635   7.992   4.843  0.5412  0.4147 -0.1174
  318MOL0     O43754  10.700   8.096   4.895 -0.4308 -0.1447 -1.2351
  318MOL0     C43755  10.709   8.218   4.826 -1.2566 -0.5795  0.3688
  318MOL0     C43756  10.846   8.288   4.876 -0.3245 -0.0273  0.4140
  318MOL0     C43757  10.845   8.306   5.029  0.1611  1.3153  0.0119
  318MOL0     C43758  10.965   8.393   5.072  0.1345  0.7581 -0.2570
  318MOL0     C43759  10.996   8.387   5.219 -0.4178 -0.2589  0.2389
  318MOL0     C43760  11.125   8.458   5.267 -0.0208 -0.3813  0.3788
  318MOL0     C43761  11.148   8.596   5.210 -0.0718 -0.2084  0.2875
  318MOL0     C43762  11.271   8.674   5.249  0.6250 -0.4669 -0.0223
  318MOL0     N43763  11.391   8.617   5.189 -0.1665  0.2612 -0.5025
  318MOL0     C43764  11.444   8.639   5.060  0.0361  0.3847  0.1606
  318MOL0     C43765  11.562   8.569   5.066 -0.2850 -1.1578  0.4433
  318MOL0     C43766  11.650   8.544   4.946  0.7357 -0.1375  0.4279
  318MOL0     C43767  11.739   8.661   4.922 -0.4602  0.4995  0.0509
  318MOL0     C43768  11.814   8.657   4.787 -0.3040 -0.6511  0.3924
  318MOL0     C43769  11.895   8.528   4.769  0.6062 -0.5555 -0.1476
  318MOL0     O43770  11.997   8.510   4.867 -0.7742  0.6960  0.1112
  318MOL0     C43771  12.132   8.508   4.819  0.2530 -0.1429 -0.0408
  318MOL0     C43772  12.181   8.488   4.689  1.1369  1.0738 -0.4917
  318MOL0     C43773  12.315   8.494   4.655 -1.1648 -0.6399 -1.1302
  318MOL0     C43774  12.363   8.443   4.515 -0.4656 -0.3139 -0.1160
  318MOL0     C43775  12.400   8.527   4.767  0.1476 -0.9320 -0.1283
  318MOL0     C43776  12.544   8.518   4.739  0.8082 -0.7193  0.1876
  318MOL0     O43777  12.623   8.492   4.847 -0.1597 -0.0141 -0.4991
  318MOL0     C43778  12.755   8.480   4.810  0.8232  0.6433  0.9665
  318MOL0     C43779  12.847   8.570   4.856  0.1938  0.2282 -0.1425
  318MOL0     C43780  12.985   8.575   4.815  0.4793  0.1612  0.2470
  318MOL0     C43781  13.027   8.477   4.732 -0.4518  1.0026 -0.3456
  318MOL0     O43782  13.160   8.467   4.678  1.0039 -0.1749 -0.1523
  318MOL0     C43783  13.263   8.532   4.751 -0.1655 -0.3607  0.4937
  318MOL0     C43784  13.399   8.509   4.687 -0.1868 -0.3392  0.2213
  318MOL0     C43785  13.509   8.535   4.788 -0.5829  0.6140  0.0061
  318MOL0     C43786  13.630   8.471   4.734  0.4430  0.5626 -0.6728
  318MOL0     C43787  13.742   8.451   4.837  0.4732  0.3595  1.1753
  318MOL0     C43788  13.817   8.579   4.859 -0.1806  0.2732 -0.0710
  318MOL0     C43789  13.949   8.546   4.924  0.1019  0.1441 -0.0516
  318MOL0     C43790  14.019   8.677   4.950  0.6504 -0.9758  0.0726
  318MOL0    Cl43791  14.169   8.623   5.036 -0.2123  0.4050 -0.3847
  318MOL0     C43792  12.935   8.373   4.692  0.6807 -0.1098 -0.1782
  318MOL0     C43793  12.801   8.383   4.723  0.4122 -0.5477 -0.5779
  318MOL0     O43794  12.586   8.554   4.627 -0.1489 -0.3514 -0.8139
  318MOL0     C43795  12.358   8.551   4.894  0.4125 -0.7033 -0.1737
  318MOL0     C43796  12.222   8.538   4.924 -0.6344  0.6058  0.3329
  318MOL0     N43797  11.589   8.526   5.196  0.0851 -0.2068 -0.2601
  318MOL0     N43798  11.485   8.553   5.269  0.1156  0.2865 -0.5612
  318MOL0     C43799  10.683   7.866   4.876  0.2416  0.9839 -0.5214
  318MOL0     C43800  10.600   7.751   4.844  0.1663 -0.3134 -0.0492
  318MOL0     C43801  10.244   7.478   4.804  0.2976 -0.0385 -0.5699
  318MOL0     C43802  10.201   7.469   4.666  0.1859  0.2014  0.0668
  318MOL0     C43803  10.100   7.389   4.625 -0.2033 -0.3177 -0.4440
  318MOL0     C43804  10.051   7.287   4.707 -1.2512  0.2483  0.1058
  318MOL0     O43805   9.945   7.216   4.646  0.1290 -0.3018 -0.1433
  318MOL0     C43806   9.893   7.106   4.721  0.4031 -0.0759  0.7177
  318MOL0     C43807   9.761   7.057   4.663 -0.5258 -0.0729 -0.7365
  318MOL0     C43808   9.769   6.992   4.519  0.3328  0.3408  0.0900
  318MOL0     C43809   9.646   6.913   4.477  0.0978 -0.2840  0.2223
  318MOL0     C43810   9.650   6.862   4.333 -0.4451 -0.2901 -0.7755
  318MOL0     C43811   9.643   6.803   4.226  0.2024 -0.0566 -0.3780
  318MOL0     C43812  10.100   7.287   4.841  0.6071 -0.4061  0.1859
  318MOL0     C43813  10.198   7.381   4.889 -0.0178  0.2313 -0.3541
  318MOL0     C43814  10.241   7.363   5.038  0.1141 -0.0940 -0.5693
  318MOL0     H43815  10.346   7.920   4.700 -0.0195 -1.4242  0.1607
  318MOL0     H43816  10.495   8.110   4.754  0.0390  0.5273  2.1222
  318MOL0     H43817  10.623   8.285   4.838  0.6744  2.0333  0.5446
  318MOL0     H43818  10.729   8.201   4.720  0.2682  0.2183  0.5009
  318MOL0     H43819  10.931   8.232   4.837 -1.5214 -0.5000 -1.6966
  318MOL0     H43820  10.856   8.391   4.839  2.1838 -0.3994 -0.0706
  318MOL0     H43821  10.747   8.346   5.055 -1.9585 -1.7754 -2.4327
  318MOL0     H43822  10.837   8.210   5.080 -3.1193  1.4240 -0.1142
  318MOL0     H43823  11.051   8.363   5.012  0.9441  1.1065  0.7117
  318MOL0     H43824  10.937   8.492   5.035  4.2039  1.2689 -2.4557
  318MOL0     H43825  11.000   8.281   5.246  3.0323 -0.9115 -2.1222
  318MOL0     H43826  10.915   8.431   5.278 -0.1844  0.6550 -0.1093
  318MOL0     H43827  11.117   8.453   5.376 -0.1589 -0.5844  0.3586
  318MOL0     H43828  11.210   8.395   5.242  0.5803 -0.2760  2.0115
  318MOL0     H43829  11.058   8.653   5.238 -0.5920 -0.5607 -0.6131
  318MOL0     H43830  11.155   8.579   5.102  1.1953  0.1700  0.2978
  318MOL0     H43831  11.269   8.776   5.211 -3.3658 -0.2207  0.3615
  318MOL0     H43832  11.282   8.691   5.356 -1.0674  2.1689 -0.1861
  318MOL0     H43833  11.391   8.685   4.976 -0.9125  1.2928  1.2137
  318MOL0     H43834  11.580   8.536   4.862  0.5872 -0.5615  0.5884
  318MOL0     H43835  11.708   8.454   4.970 -2.7800 -1.9211  3.1228
  318MOL0     H43836  11.679   8.752   4.914  2.1418  2.4721  1.5030
  318MOL0     H43837  11.815   8.676   4.999  3.1297 -1.2767 -2.8232
  318MOL0     H43838  11.742   8.677   4.708  2.4191  0.8269 -1.8726
  318MOL0     H43839  11.888   8.738   4.782  0.2939 -1.1668 -5.0724
  318MOL0     H43840  11.819   8.451   4.784 -3.4104  3.3423  2.0186
  318MOL0     H43841  11.911   8.526   4.661 -1.0883 -0.4980 -0.4287
  318MOL0     H43842  12.110   8.444   4.620  0.8249 -0.0542  0.5052
  318MOL0     H43843  12.388   8.528   4.451  2.6229 -1.1844 -0.2121
  318MOL0     H43844  12.276   8.387   4.480  0.1601  0.3493 -2.9749
  318MOL0     H43845  12.441   8.371   4.541 -1.7425 -1.5140  0.5242
  318MOL0     H43846  12.806   8.640   4.928 -0.3906 -0.5801  0.3304
  318MOL0     H43847  13.048   8.659   4.843  1.7216  0.1170 -2.1382
  318MOL0     H43848  13.255   8.641   4.757  0.9737 -0.2056 -0.4333
  318MOL0     H43849  13.255   8.508   4.858 -0.2395  0.2045  0.6198
  318MOL0     H43850  13.385   8.407   4.652 -4.4954 -0.0810  0.6246
  318MOL0     H43851  13.419   8.584   4.610 -1.1990 -0.7045 -0.4135
  318MOL0     H43852  13.485   8.491   4.885 -1.2846  4.0251  1.5220
  318MOL0     H43853  13.522   8.643   4.800 -1.2529  0.5641  1.2135
  318MOL0     H43854  13.663   8.514   4.639  1.8543 -1.9092 -1.3962
  318MOL0     H43855  13.602   8.369   4.704 -2.1823  0.5136  1.5916
  318MOL0     H43856  13.704   8.413   4.932  0.3706 -0.8894  0.6529
  318MOL0     H43857  13.806   8.370   4.800 -1.6873 -1.8839  2.0512
  318MOL0     H43858  13.761   8.638   4.932 -2.5684 -1.5285 -0.3194
  318MOL0     H43859  13.833   8.637   4.768  0.5106 -0.5160 -0.4679
  318MOL0     H43860  14.009   8.484   4.857  0.1699 -0.3560  0.4702
  318MOL0     H43861  13.944   8.488   5.016 -0.6016 -3.2091 -2.0290
  318MOL0     H43862  13.960   8.752   5.004  0.9662 -0.4166 -0.3408
  318MOL0     H43863  14.046   8.719   4.853 -2.3668 -3.8737 -2.2370
  318MOL0     H43864  12.969   8.293   4.627  0.1704  0.8095 -1.6131
  318MOL0     H43865  12.740   8.308   4.673 -0.7381 -1.6583  2.2817
  318MOL0     H43866  12.418   8.589   4.977  1.1181 -2.3766  0.1295
  318MOL0     H43867  12.177   8.560   5.020 -0.0011 -0.8631  0.9974
  318MOL0     H43868  10.773   7.856   4.936 -0.8301 -0.5473  0.9079
  318MOL0     H43869  10.632   7.653   4.880 -1.1928 -2.0969 -3.2591
  318MOL0     H43870  10.242   7.537   4.592 -3.5932  0.1611 -2.3700
  318MOL0     H43871  10.063   7.393   4.523 -4.9158  0.0485  1.0321
  318MOL0     H43872   9.972   7.032   4.730  1.4573  1.1820  2.3206
  318MOL0     H43873   9.883   7.147   4.822  3.6705 -1.2500  1.6226
  318MOL0     H43874   9.697   7.146   4.659 -0.6912 -0.1291  0.3676
  318MOL0     H43875   9.717   6.982   4.731  1.4960 -1.9606 -1.4101
  318MOL0     H43876   9.779   7.066   4.440 -2.6161  0.1391 -0.5586
  318MOL0     H43877   9.854   6.924   4.505 -1.0776 -1.1117 -1.9722
  318MOL0     H43878   9.554   6.969   4.496  2.2076  2.2586  4.4182
  318MOL0     H43879   9.642   6.822   4.538  2.0568 -0.2590  0.4325
  318MOL0     H43880   9.662   6.741   4.140  1.6518 -1.0165  0.5821
  318MOL0     H43881  10.062   7.220   4.918 -1.8882 -0.6549 -1.1622
  318MOL0     H43882  10.349   7.374   5.047  0.1952 -0.8678 -0.5253
  318MOL0     H43883  10.185   7.437   5.095 -2.9847 -2.8930  0.2997
  318MOL0     H43884  10.213   7.263   5.070  1.5308 -0.0809  0.8124
  319MOL0     O43885   2.509   9.504  10.186 -0.3450 -0.1841 -1.2241
  319MOL0     C43886   2.456   9.603  10.234  0.2630  0.1276 -0.1300
  319MOL0     O43887   2.512   9.723  10.244  0.0792 -0.5533 -0.0970
  319MOL0     C43888   2.650   9.725  10.219  0.6881 -0.8842 -0.4496
  319MOL0     C43889   2.750   9.654  10.292 -0.1004  0.5236 -0.4419
  319MOL0     C43890   2.890   9.659  10.268 -0.0262  0.2980  0.0492
  319MOL0     C43891   2.933   9.732  10.155 -0.5383 -0.0941  0.4463
  319MOL0     O43892   3.073   9.736  10.148  0.2082  0.9369  0.1006
  319MOL0     C43893   3.129   9.820  10.039  0.2966  0.5436  0.2064
  319MOL0     C43894   3.281   9.816  10.037  0.9821 -0.6285  1.0282
  319MOL0     C43895   3.339   9.685   9.992  0.5265  0.0506 -0.5832
  319MOL0     C43896   3.489   9.678   9.992  0.7266 -0.2562 -0.1861
  319MOL0     C43897   3.527   9.541   9.937  0.4144  0.7966  0.0524
  319MOL0     C43898   3.677   9.521   9.935 -0.0927 -0.7666 -1.2962
  319MOL0     C43899   3.749   9.625   9.840 -0.3634 -0.4095 -0.1318
  319MOL0     C43900   3.894   9.582   9.798  0.0597 -0.4016  1.3531
  319MOL0     N43901   3.985   9.550   9.904  0.2211 -0.5907  0.0704
  319MOL0     C43902   3.997   9.431   9.976 -0.4548 -0.3612 -0.5200
  319MOL0     C43903   4.078   9.458  10.081 -0.2598 -0.7692  0.2951
  319MOL0     C43904   4.132   9.377  10.190  0.0986  1.1187 -0.4326
  319MOL0     C43905   4.175   9.234  10.154 -0.4335 -0.1889  0.9576
  319MOL0     C43906   4.265   9.185  10.262 -0.1862 -0.8563 -0.2887
  319MOL0     C43907   4.410   9.185  10.238  1.2851 -0.0427 -0.4767
  319MOL0     O43908   4.480   9.108  10.338 -0.1202 -0.2113 -0.4346
  319MOL0     C43909   4.616   9.091  10.319  0.6773  0.0567  0.1230
  319MOL0     C43910   4.687   9.019  10.413 -0.1012  0.5647 -0.5799
  319MOL0     C43911   4.826   8.994  10.414  0.0015 -0.1796  0.3382
  319MOL0     C43912   4.894   8.924  10.533  0.2466  0.0154  0.1809
  319MOL0     C43913   4.898   9.035  10.306  0.5896  1.4375 -0.7296
  319MOL0     C43914   5.049   9.013  10.294 -0.0765 -1.2710  0.2986
  319MOL0     O43915   5.099   9.096  10.195 -0.3267  0.3003  0.2139
  319MOL0     C43916   5.235   9.091  10.178  0.5775 -1.2041 -0.1972
  319MOL0     C43917   5.324   9.137  10.278 -0.1010 -0.7644  0.7728
  319MOL0     C43918   5.466   9.135  10.250  0.3177  0.0043  0.1196
  319MOL0     C43919   5.515   9.075  10.134  0.5657  0.5999  0.9280
  319MOL0     O43920   5.650   9.066  10.102  0.0589  0.6037 -0.2470
  319MOL0     C43921   5.745   9.055  10.209 -0.8266 -0.1740  0.0592
  319MOL0     C43922   5.892   9.025  10.161 -0.5796  0.5741 -0.1542
  319MOL0     C43923   5.979   8.947  10.262 -0.3184  0.0224 -0.9964
  319MOL0     C43924   6.052   9.052  10.355  0.5479 -0.3197  0.2793
  319MOL0     C43925   6.138   8.991  10.455  0.0334 -0.4369  0.5636
  319MOL0     C43926   6.270   8.953  10.394 -0.0536 -0.5330 -0.5539
  319MOL0     C43927   6.377   8.941  10.507 -0.7454 -0.5475 -0.6180
  319MOL0     C43928   6.516   8.882  10.477 -0.3171  0.9144  0.8723
  319MOL0    Cl43929   6.590   9.011  10.383  0.1530  0.1231  0.1562
  319MOL0     C43930   5.423   9.036  10.040 -0.0069  0.0738 -0.7380
  319MOL0     C43931   5.286   9.051  10.059 -0.6061  0.4433 -0.6246
  319MOL0     O43932   5.109   8.928  10.365 -0.0721 -0.1452 -0.6518
  319MOL0     C43933   4.828   9.090  10.201 -0.3392  0.3151  0.1287
  319MOL0     C43934   4.691   9.122  10.209 -0.8454  0.0449 -0.4924
  319MOL0     N43935   4.131   9.582  10.046 -0.5220 -0.4326 -0.0512
  319MOL0     N43936   4.074   9.635   9.950  0.6759  0.5214  0.1718
  319MOL0     C43937   2.838   9.814  10.091  1.2913 -0.2367 -0.0724
  319MOL0     C43938   2.699   9.800  10.114  0.2454  0.0673  0.3598
  319MOL0     C43939   2.324   9.581  10.302 -0.2680 -1.3440  0.4790
  319MOL0     C43940   2.231   9.485  10.252  0.8766 -0.0603 -0.7778
  319MOL0     C43941   2.095   9.485  10.301 -0.4414  0.3847 -0.4831
  319MOL0     C43942   2.057   9.565  10.414 -0.5993 -0.0237 -0.0938
  319MOL0     O43943   1.940   9.536  10.474 -0.1611  0.5877 -0.1760
  319MOL0     C43944   1.913   9.583  10.608 -0.3772  0.9617  0.1288
  319MOL0     C43945   1.766   9.553  10.647 -0.4750 -0.2895  0.9100
  319MOL0     C43946   1.671   9.614  10.544  0.6541 -0.6312  0.1781
  319MOL0     C43947   1.563   9.677  10.630  0.0256 -0.3017 -0.3798
  319MOL0     C43948   1.607   9.799  10.705 -0.7380  0.0270  0.4673
  319MOL0     C43949   1.659   9.885  10.770  0.6727  0.3432  0.7634
  319MOL0     C43950   2.152   9.653  10.462 -0.3106  0.0160 -0.3437
  319MOL0     C43951   2.276   9.671  10.407 -0.3765 -0.3828 -0.1781
  319MOL0     C43952   2.359   9.786  10.472  0.0727  0.0052 -0.1820
  319MOL0     H43953   2.723   9.607  10.386 -0.2308  0.8926 -0.2943
  319MOL0     H43954   2.957   9.604  10.332 -1.9596 -2.4632 -0.1116
  319MOL0     H43955   3.096   9.923  10.052 -0.7563  0.2946 -0.3967
  319MOL0     H43956   3.095   9.791   9.939 -0.3423 -0.7671  0.7861
  319MOL0     H43957   3.318   9.892   9.968 -0.5582 -1.0075 -0.2863
  319MOL0     H43958   3.317   9.837  10.138  3.1403  1.2749 -0.0491
  319MOL0     H43959   3.301   9.613  10.066  0.1768  0.5897 -0.2267
  319MOL0     H43960   3.294   9.672   9.893  1.5011  0.1361 -1.0401
  319MOL0     H43961   3.523   9.758   9.925 -0.1026 -1.6029 -2.3174
  319MOL0     H43962   3.534   9.696  10.090  0.9065 -0.7404 -0.1762
  319MOL0     H43963   3.496   9.533   9.832 -1.6828 -2.7272  0.7988
  319MOL0     H43964   3.475   9.466   9.997 -2.1539  2.2188 -0.2400
  319MOL0     H43965   3.704   9.526  10.041  0.9731  1.3940 -1.6060
  319MOL0     H43966   3.702   9.417   9.911 -0.7147 -1.6957  1.6053
  319MOL0     H43967   3.750   9.720   9.895 -1.1982 -1.2983  1.4948
  319MOL0     H43968   3.692   9.628   9.747  0.2719  2.1581 -0.5261
  319MOL0     H43969   3.889   9.498   9.728  5.5139  1.5996 -2.0114
  319MOL0     H43970   3.945   9.663   9.745  0.3087  0.7854  3.3134
  319MOL0     H43971   3.954   9.332   9.969  0.1725 -0.8027  1.1559
  319MOL0     H43972   4.064   9.369  10.276  0.1116 -2.4823 -0.5758
  319MOL0     H43973   4.215   9.434  10.231  0.6318 -0.9903  1.6470
  319MOL0     H43974   4.093   9.162  10.158  0.6861 -1.5235  0.5924
  319MOL0     H43975   4.212   9.213  10.053  1.8488  0.3597  1.6100
  319MOL0     H43976   4.244   9.243  10.353 -2.8053  0.3233 -1.5125
  319MOL0     H43977   4.231   9.085  10.288 -0.8472 -0.4956  0.2959
  319MOL0     H43978   4.433   9.147  10.138 -0.7318 -2.3281 -0.1954
  319MOL0     H43979   4.451   9.286  10.241  3.0677 -0.6685 -2.0671
  319MOL0     H43980   4.640   8.977  10.502  1.1523  0.3215 -0.0050
  319MOL0     H43981   4.982   8.979  10.568  0.4995  1.5191 -2.5104
  319MOL0     H43982   4.911   8.819  10.506  1.1179 -0.0452  0.9108
  319MOL0     H43983   4.815   8.929  10.608 -0.9868 -0.8966 -0.9947
  319MOL0     H43984   5.292   9.177  10.374  0.6727 -0.3287  0.8592
  319MOL0     H43985   5.535   9.175  10.324  1.9413 -2.3129 -0.0082
  319MOL0     H43986   5.749   9.140  10.278 -2.7881 -1.0625  1.3593
  319MOL0     H43987   5.707   8.969  10.265 -0.2594 -0.5631 -0.1446
  319MOL0     H43988   5.883   8.952  10.080  1.9122 -0.3776  0.3123
  319MOL0     H43989   5.944   9.108  10.113  0.9431 -0.4783 -0.4156
  319MOL0     H43990   6.049   8.888  10.201  0.1729 -0.4985  0.0356
  319MOL0     H43991   5.922   8.875  10.321 -1.2723  0.7265 -1.0431
  319MOL0     H43992   5.968   9.100  10.406  1.8693  0.0940  2.1586
  319MOL0     H43993   6.109   9.128  10.301 -1.3047  1.3200  0.5179
  319MOL0     H43994   6.159   9.068  10.529  1.9871 -0.0954 -0.2750
  319MOL0     H43995   6.090   8.902  10.498  1.8429 -1.2867  0.9204
  319MOL0     H43996   6.298   9.034  10.325 -0.7285  1.6240  1.5794
  319MOL0     H43997   6.267   8.858  10.339  2.2150 -1.2639  0.4526
  319MOL0     H43998   6.333   8.878  10.584 -2.1775  0.3093 -0.6938
  319MOL0     H43999   6.392   9.033  10.564 -0.2441 -1.1250  0.1882
  319MOL0     H44000   6.505   8.792  10.416 -0.9256  3.0737 -2.4223
  319MOL0     H44001   6.569   8.867  10.572 -0.4699  2.1297  1.1692
  319MOL0     H44002   5.447   8.990   9.945 -1.1545  0.0824 -1.0526
  319MOL0     H44003   5.224   9.033   9.972 -0.6617 -0.9327 -0.3212
  319MOL0     H44004   4.873   9.121  10.107 -1.0112  2.9473  0.5687
  319MOL0     H44005   4.652   9.172  10.120 -2.4488 -2.8621 -1.5593
  319MOL0     H44006   2.860   9.890  10.017  0.5595  1.5173  1.4372
  319MOL0     H44007   2.624   9.852  10.056 -0.7285 -2.3408 -0.6600
  319MOL0     H44008   2.265   9.408  10.183  0.2757 -1.0149 -0.0293
  319MOL0     H44009   2.025   9.411  10.263  0.3047 -0.1997 -0.7483
  319MOL0     H44010   1.974   9.530  10.682 -0.5852  2.4409  1.4047
  319MOL0     H44011   1.932   9.690  10.623  1.1365  0.4352  2.3203
  319MOL0     H44012   1.754   9.576  10.753 -1.5033  1.3496  0.4909
  319MOL0     H44013   1.752   9.445  10.642  1.5866 -0.5446 -1.0520
  319MOL0     H44014   1.716   9.691  10.481 -0.1435  0.4168  0.8633
  319MOL0     H44015   1.631   9.550  10.465 -0.7506 -0.5564  0.8037
  319MOL0     H44016   1.534   9.591  10.691 -0.7289 -2.8207 -3.9659
  319MOL0     H44017   1.483   9.702  10.559  1.3060 -1.6637 -2.3790
  319MOL0     H44018   1.703   9.957  10.837  1.8568  0.7483 -0.4297
  319MOL0     H44019   2.131   9.714  10.550 -2.3082 -1.5451  0.3416
  319MOL0     H44020   2.328   9.794  10.576 -1.0502  1.2366 -0.5915
  319MOL0     H44021   2.466   9.763  10.478  0.1890 -0.2549 -2.4608
  319MOL0     H44022   2.344   9.881  10.420  1.1421  0.4674  0.3234
  320MOL0     O44023   3.570   1.161   2.140  0.1025  0.5754  0.4969
  320MOL0     C44024   3.604   1.161   2.255  0.0961  0.4174 -0.9897
  320MOL0     O44025   3.516   1.160   2.355 -0.6619 -0.7968  0.2159
  320MOL0     C44026   3.374   1.150   2.343  0.1484 -0.8915  0.1836
  320MOL0     C44027   3.316   1.213   2.448  0.1390 -0.0996 -0.0378
  320MOL0     C44028   3.180   1.200   2.453  0.2746  0.4009  0.0265
  320MOL0     C44029   3.104   1.110   2.370  0.1059  1.0555 -0.2139
  320MOL0     O44030   2.971   1.096   2.390  0.4502  0.2221  0.2552
  320MOL0     C44031   2.882   1.001   2.330 -0.5506  0.3964 -0.3876
  320MOL0     C44032   2.750   0.988   2.394  0.9048 -0.1124  0.3374
  320MOL0     C44033   2.668   1.120   2.379  0.6619  0.5699 -0.2467
  320MOL0     C44034   2.534   1.104   2.442 -0.3980 -0.5283 -0.5014
  320MOL0     C44035   2.463   1.241   2.450 -0.1139 -0.2734 -0.0107
  320MOL0     C44036   2.341   1.243   2.543 -0.3619  0.4721  0.7113
  320MOL0     C44037   2.215   1.180   2.481  0.2829 -0.3419 -0.7341
  320MOL0     C44038   2.135   1.108   2.588 -0.3325  0.2620  0.1124
  320MOL0     N44039   2.189   0.972   2.619 -0.1108 -1.0001 -0.2163
  320MOL0     C44040   2.162   0.907   2.733  0.4080  0.5001 -0.3733
  320MOL0     C44041   2.209   0.783   2.699 -0.1003 -0.1951  0.0515
  320MOL0     C44042   2.219   0.679   2.800 -0.1294  0.0492  0.2263
  320MOL0     C44043   2.126   0.563   2.775  0.7685 -0.5269  0.5062
  320MOL0     C44044   1.980   0.594   2.796  1.5110  0.5343  0.2088
  320MOL0     C44045   1.903   0.457   2.794  0.5718  1.6934 -0.2719
  320MOL0     O44046   1.769   0.471   2.852  0.0175 -0.2325 -0.1670
  320MOL0     C44047   1.699   0.355   2.879  0.4331  0.4518  0.1169
  320MOL0     C44048   1.744   0.222   2.877  1.2345  0.4049 -0.1423
  320MOL0     C44049   1.667   0.122   2.933  0.2158 -0.4504  0.6678
  320MOL0     C44050   1.719  -0.018   2.911  0.4156 -0.3537 -0.4752
  320MOL0     C44051   1.542   0.152   2.990  0.9046  0.5437 -1.1713
  320MOL0     C44052   1.430   0.055   3.031  0.7049  0.6016 -1.0645
  320MOL0     O44053   1.299   0.098   3.018 -0.0643  0.1817 -0.1751
  320MOL0     C44054   1.189   0.036   3.059  0.7690  0.8623 -0.1808
  320MOL0     C44055   1.182  -0.091   3.108 -0.1007  0.5225 -0.2672
  320MOL0     C44056   1.058  -0.148   3.152  0.5412 -0.1417  0.0753
  320MOL0     C44057   0.941  -0.074   3.139  0.2949  0.8188 -0.1631
  320MOL0     O44058   0.824  -0.132   3.186 -0.6742  0.8004  0.4551
  320MOL0     C44059   0.698  -0.090   3.138  0.2172  0.3257 -0.3647
  320MOL0     C44060   0.586  -0.177   3.213  0.0776 -0.3824 -0.0322
  320MOL0     C44061   0.449  -0.150   3.157 -0.1503  0.3718  0.5482
  320MOL0     C44062   0.327  -0.170   3.248 -0.8886  1.0970  0.4034
  320MOL0     C44063   0.199  -0.190   3.158 -0.5169 -0.2608 -0.1632
  320MOL0     C44064   0.079  -0.173   3.244  0.0394 -0.3051 -0.4611
  320MOL0     C44065  -0.045  -0.208   3.163  0.1689 -0.1884  0.0658
  320MOL0     C44066  -0.183  -0.209   3.226  0.1809  0.3782 -0.6130
  320MOL0    Cl44067  -0.310  -0.243   3.110 -0.3420  0.1059  0.0722
  320MOL0     C44068   0.948   0.049   3.078  0.3682 -0.4734  0.3430
  320MOL0     C44069   1.067   0.107   3.045 -0.5687  0.1961  0.0658
  320MOL0     O44070   1.470  -0.040   3.098  0.5430 -0.4245  0.1573
  320MOL0     C44071   1.501   0.286   2.993  0.1195 -1.0483  0.3069
  320MOL0     C44072   1.575   0.375   2.936 -1.4126 -0.4699 -0.1702
  320MOL0     N44073   2.258   0.780   2.570  0.4729 -0.1730 -0.5629
  320MOL0     N44074   2.231   0.896   2.524  0.5767 -0.6682  0.8169
  320MOL0     C44075   3.173   1.042   2.268  0.4678  0.0865 -0.4719
  320MOL0     C44076   3.310   1.067   2.254 -0.1440  0.1993  0.4172
  320MOL0     C44077   3.743   1.180   2.286  0.1170 -0.2592 -0.3982
  320MOL0     C44078   3.821   1.223   2.175 -0.5400  0.4942 -0.3015
  320MOL0     C44079   3.961   1.236   2.187  0.0270 -0.6225 -0.4011
  320MOL0     C44080   4.023   1.207   2.314  0.3454  0.6718  0.1332
  320MOL0     O44081   4.158   1.218   2.335  0.4414 -0.0467  0.5493
  320MOL0     C44082   4.224   1.320   2.257  0.4137  1.0715 -0.2270
  320MOL0     C44083   4.365   1.339   2.313 -1.0460 -0.3190 -1.3286
  320MOL0     C44084   4.435   1.460   2.245  1.1888 -0.2208  0.3915
  320MOL0     C44085   4.550   1.508   2.324 -0.3204 -0.3024 -0.0152
  320MOL0     C44086   4.656   1.570   2.252  0.0054  0.3173 -0.2413
  320MOL0     C44087   4.751   1.619   2.193  0.1158 -0.9859  0.4345
  320MOL0     C44088   3.938   1.168   2.421 -0.4593 -1.0604  0.1876
  320MOL0     C44089   3.798   1.165   2.418 -0.4246 -0.0551 -0.4007
  320MOL0     C44090   3.727   1.131   2.542  0.1493 -0.3096 -0.1461
  320MOL0     H44091   3.374   1.276   2.515 -1.8638  1.7291  0.0710
  320MOL0     H44092   3.124   1.263   2.521  1.5496 -0.9699  2.5068
  320MOL0     H44093   2.928   0.902   2.335  0.3104  0.7172 -1.4663
  320MOL0     H44094   2.870   1.021   2.223  2.4276  1.0410 -0.6820
  320MOL0     H44095   2.706   0.898   2.348  0.9992  1.1012 -2.2855
  320MOL0     H44096   2.769   0.964   2.499  0.4576 -3.1253 -0.1532
  320MOL0     H44097   2.715   1.213   2.410 -3.2129  3.0986 -1.2982
  320MOL0     H44098   2.659   1.135   2.272  0.8014  4.1999  0.1433
  320MOL0     H44099   2.474   1.037   2.381 -1.5597 -1.9585  2.0562
  320MOL0     H44100   2.543   1.064   2.544 -1.2030 -1.5265 -0.8075
  320MOL0     H44101   2.426   1.262   2.349  1.1193 -0.3656 -0.4904
  320MOL0     H44102   2.525   1.326   2.480  1.0549 -0.3698 -1.9991
  320MOL0     H44103   2.364   1.183   2.632 -0.0440  2.3760  1.9735
  320MOL0     H44104   2.323   1.343   2.585 -0.7498 -0.5447  3.1680
  320MOL0     H44105   2.241   1.109   2.401  0.3014  0.0577 -1.0830
  320MOL0     H44106   2.149   1.260   2.447 -1.2032 -0.6252  1.2919
  320MOL0     H44107   2.117   1.173   2.674 -0.2655  2.2108 -1.2699
  320MOL0     H44108   2.043   1.085   2.533 -0.6161  2.3602 -0.3548
  320MOL0     H44109   2.126   0.949   2.826 -0.9431 -0.9024 -0.2170
  320MOL0     H44110   2.201   0.731   2.895  2.9645 -0.2010  1.0415
  320MOL0     H44111   2.319   0.636   2.797  0.0747  0.5408 -2.4317
  320MOL0     H44112   2.147   0.536   2.671 -3.1054  1.6643 -1.0222
  320MOL0     H44113   2.153   0.482   2.844 -2.8389  0.5072  3.4024
  320MOL0     H44114   1.973   0.647   2.891  0.7248  0.5091  0.1714
  320MOL0     H44115   1.938   0.658   2.717 -2.2950 -2.1912 -0.2815
  320MOL0     H44116   1.906   0.405   2.698  1.1912 -0.8044  1.0335
  320MOL0     H44117   1.959   0.397   2.867 -1.5422 -0.4003 -0.2717
  320MOL0     H44118   1.841   0.195   2.838  0.5217 -1.1899 -0.9020
  320MOL0     H44119   1.649  -0.100   2.929  4.0934 -3.2861  1.8438
  320MOL0     H44120   1.813  -0.032   2.964 -1.1310  0.4803  2.7233
  320MOL0     H44121   1.749  -0.024   2.805  0.0100 -0.2072 -0.6004
  320MOL0     H44122   1.267  -0.159   3.111 -0.5608 -0.0529 -0.0540
  320MOL0     H44123   1.062  -0.235   3.217 -0.9533 -0.3547 -0.0868
  320MOL0     H44124   0.682   0.015   3.163  1.2411  0.6359 -0.9822
  320MOL0     H44125   0.692  -0.092   3.029  1.4299  1.0601 -0.4552
  320MOL0     H44126   0.609  -0.283   3.227 -2.3165 -1.1889 -1.5061
  320MOL0     H44127   0.575  -0.146   3.318 -2.0431  2.5861 -0.9621
  320MOL0     H44128   0.440  -0.201   3.061  1.6447  1.9023 -0.4810
  320MOL0     H44129   0.452  -0.046   3.125 -0.3197 -0.0107 -0.7744
  320MOL0     H44130   0.316  -0.083   3.314 -0.8280  1.6462 -0.3009
  320MOL0     H44131   0.339  -0.261   3.308  1.5218  1.6504  0.8557
  320MOL0     H44132   0.189  -0.117   3.077  2.0608 -0.6571 -0.9236
  320MOL0     H44133   0.198  -0.291   3.115 -1.5350 -0.2473 -0.2074
  320MOL0     H44134   0.076  -0.075   3.291 -2.4117 -1.3526  1.7891
  320MOL0     H44135   0.094  -0.240   3.329 -1.6298  0.2607  0.3105
  320MOL0     H44136  -0.021  -0.305   3.118  2.0057  0.0811  0.4182
  320MOL0     H44137  -0.042  -0.140   3.077  2.5363 -2.0528 -1.4526
  320MOL0     H44138  -0.188  -0.111   3.274  2.0079  0.4351 -0.4565
  320MOL0     H44139  -0.193  -0.289   3.301 -0.0387 -0.3087 -1.3605
  320MOL0     H44140   0.856   0.106   3.064  0.3230 -1.0660 -2.2164
  320MOL0     H44141   1.077   0.206   3.001 -1.6137 -0.6146 -2.1632
  320MOL0     H44142   1.396   0.307   3.016  0.4883 -0.3010  1.4089
  320MOL0     H44143   1.549   0.480   2.928 -3.7048 -0.8732  0.9764
  320MOL0     H44144   3.120   0.977   2.199 -0.0170 -0.7619  0.6855
  320MOL0     H44145   3.376   1.021   2.182  0.3196  0.6650  0.5405
  320MOL0     H44146   3.764   1.244   2.085 -0.9871  1.6584  0.2275
  320MOL0     H44147   4.012   1.263   2.096 -1.8983  1.4654 -0.9536
  320MOL0     H44148   4.237   1.283   2.155  1.5618  2.1813 -0.5131
  320MOL0     H44149   4.163   1.410   2.262  1.8996  2.0677  0.9822
  320MOL0     H44150   4.430   1.257   2.281 -1.5313 -0.4998 -1.8761
  320MOL0     H44151   4.371   1.343   2.422 -0.5993  0.7183 -1.3778
  320MOL0     H44152   4.472   1.431   2.146  0.9480  0.8031 -0.0074
  320MOL0     H44153   4.364   1.543   2.246  1.4772  0.0621 -0.7085
  320MOL0     H44154   4.591   1.423   2.379  0.6636 -0.1032 -0.4261
  320MOL0     H44155   4.524   1.590   2.391 -1.4016 -1.6267  1.2698
  320MOL0     H44156   4.830   1.674   2.146 -0.3426 -1.6810 -1.2095
  320MOL0     H44157   3.985   1.168   2.519 -2.7836 -0.8620  1.3766
  320MOL0     H44158   3.648   1.203   2.564 -1.4896 -1.7243 -1.1428
  320MOL0     H44159   3.679   1.033   2.534 -1.3810  0.3518  0.5906
  320MOL0     H44160   3.800   1.134   2.624  1.4151 -0.8758 -1.2144
  321MOL0     O44161   8.041   8.841   9.338 -0.1519  0.3185  0.7748
  321MOL0     C44162   8.025   8.774   9.442 -0.3051 -0.2430  0.6185
  321MOL0     O44163   8.080   8.806   9.563 -0.4575  0.4675 -0.0664
  321MOL0     C44164   8.166   8.905   9.579  0.4426 -0.1486  0.4624
  321MOL0     C44165   8.163   8.985   9.694 -0.0114 -0.0616 -0.4828
  321MOL0     C44166   8.260   9.087   9.706  0.7761  1.9371  0.1042
  321MOL0     C44167   8.366   9.105   9.614 -0.2229 -0.1785 -0.4213
  321MOL0     O44168   8.469   9.198   9.620 -0.2461  0.4260  0.6508
  321MOL0     C44169   8.481   9.291   9.733  0.1145 -0.4896 -0.7018
  321MOL0     C44170   8.621   9.346   9.741  0.1459 -0.0181  0.3199
  321MOL0     C44171   8.642   9.451   9.844 -0.4809 -0.0093 -0.1016
  321MOL0     C44172   8.693   9.396   9.973  0.4105  0.4774  1.1551
  321MOL0     C44173   8.844   9.376   9.979 -1.6845 -0.1671 -1.2269
  321MOL0     C44174   8.925   9.499  10.011 -0.8312  0.3106  0.3073
  321MOL0     C44175   9.045   9.463  10.099  1.2122 -0.7580  0.9051
  321MOL0     C44176   9.164   9.430  10.010 -0.0178  0.4043  0.3561
  321MOL0     N44177   9.289   9.471  10.075  0.2908 -0.6757 -0.0141
  321MOL0     C44178   9.384   9.381  10.107 -0.0815 -0.1764 -0.4147
  321MOL0     C44179   9.476   9.446  10.178 -0.5922 -0.7452 -0.2865
  321MOL0     C44180   9.613   9.389  10.232  0.3888 -0.7613  0.3801
  321MOL0     C44181   9.725   9.402  10.129 -0.0752  0.5401  1.1239
  321MOL0     C44182   9.690   9.354   9.991  0.1689 -0.1906 -0.3379
  321MOL0     C44183   9.800   9.365   9.885 -0.0187 -0.2625  0.3492
  321MOL0     O44184   9.880   9.239   9.877 -0.2843 -0.5976  0.6316
  321MOL0     C44185  10.005   9.222   9.930 -1.2355  0.8965  0.8573
  321MOL0     C44186  10.075   9.322  10.007  0.1992 -0.3036 -0.1038
  321MOL0     C44187  10.190   9.307  10.076 -0.1614  0.2404  0.5873
  321MOL0     C44188  10.247   9.431  10.149  0.0868  0.5671  0.4895
  321MOL0     C44189  10.271   9.193  10.046 -0.1940  0.1947 -0.1988
  321MOL0     C44190  10.409   9.160  10.110 -0.0249 -0.0247  0.3100
  321MOL0     O44191  10.451   9.032  10.109  0.3385  0.2167 -0.0779
  321MOL0     C44192  10.584   9.010  10.129  0.8591 -0.4402  0.2132
  321MOL0     C44193  10.689   9.075  10.066 -0.3324  0.5188  0.4858
  321MOL0     C44194  10.821   9.044  10.079  0.0418  0.2711  0.0840
  321MOL0     C44195  10.855   8.928  10.153  0.5699 -0.0273 -0.4432
  321MOL0     O44196  10.975   8.879  10.181  0.1913 -0.1096 -0.5062
  321MOL0     C44197  11.101   8.916  10.120 -0.2372  0.6143  0.3027
  321MOL0     C44198  11.149   8.798  10.031 -0.1733  0.1295 -0.3282
  321MOL0     C44199  11.265   8.840   9.942  0.2378 -0.5274 -0.0127
  321MOL0     C44200  11.305   8.721   9.851 -0.1934  0.9111  0.7918
  321MOL0     C44201  11.398   8.750   9.734  0.5758  0.0325 -0.4815
  321MOL0     C44202  11.525   8.807   9.779  0.6580 -0.2112 -0.0666
  321MOL0     C44203  11.619   8.823   9.657 -0.4769 -0.0196  0.0270
  321MOL0     C44204  11.759   8.859   9.698 -0.2028 -0.0039  0.1559
  321MOL0    Cl44205  11.757   9.035   9.707  0.3050  0.0202 -0.6104
  321MOL0     C44206  10.751   8.855  10.221  0.6629  0.2666 -0.0555
  321MOL0     C44207  10.620   8.895  10.202 -0.1780 -0.2066  0.3249
  321MOL0     O44208  10.470   9.261  10.138 -0.0122  0.2363 -0.2453
  321MOL0     C44209  10.212   9.092   9.961 -0.5010 -0.2245  0.6382
  321MOL0     C44210  10.079   9.104   9.915 -0.7904  0.7029  0.3021
  321MOL0     N44211   9.441   9.579  10.174 -0.0334 -0.2512  1.0323
  321MOL0     N44212   9.320   9.595  10.129  0.4008 -0.3703 -0.6176
  321MOL0     C44213   8.372   9.019   9.506  0.2312  0.8699 -0.0311
  321MOL0     C44214   8.274   8.912   9.492  0.4180 -0.4520  0.1433
  321MOL0     C44215   7.914   8.678   9.449 -0.6510  0.1330  0.0428
  321MOL0     C44216   7.873   8.635   9.578  0.3815  0.0437 -0.5651
  321MOL0     C44217   7.785   8.522   9.586  0.5117 -0.6595 -0.3509
  321MOL0     C44218   7.737   8.459   9.471  0.0650 -0.5280  0.7171
  321MOL0     O44219   7.669   8.339   9.475  0.6369  0.2517 -0.0172
  321MOL0     C44220   7.640   8.270   9.600  0.2515 -0.4570 -0.8380
  321MOL0     C44221   7.768   8.201   9.660  0.2404 -0.0655  0.8797
  321MOL0     C44222   7.843   8.125   9.548  0.5169 -0.2627  0.3079
  321MOL0     C44223   7.917   8.000   9.619 -1.3176  0.0180 -0.0660
  321MOL0     C44224   8.009   8.050   9.727  0.2759  0.4156  0.1287
  321MOL0     C44225   8.086   8.083   9.816 -0.4388  0.5458 -0.5431
  321MOL0     C44226   7.771   8.513   9.346  0.4781 -0.0992 -0.4803
  321MOL0     C44227   7.868   8.610   9.335  0.4652 -0.6082 -0.6250
  321MOL0     C44228   7.906   8.634   9.192  0.5394  0.0169 -0.2395
  321MOL0     H44229   8.090   8.983   9.774  1.5194  2.7018  1.1165
  321MOL0     H44230   8.248   9.140   9.800  0.6066 -1.3366  2.0856
  321MOL0     H44231   8.463   9.242   9.830 -0.6718 -0.9203 -1.0581
  321MOL0     H44232   8.415   9.378   9.724 -1.0728 -1.1412  1.0233
  321MOL0     H44233   8.690   9.265   9.765 -0.0625  0.3468  2.3543
  321MOL0     H44234   8.642   9.382   9.640  2.1530 -1.9738 -0.0347
  321MOL0     H44235   8.710   9.528   9.806  0.7156 -1.5922 -1.3137
  321MOL0     H44236   8.547   9.502   9.864 -0.1472  0.3439  0.6032
  321MOL0     H44237   8.670   9.460  10.058 -3.4245  0.2678  0.4478
  321MOL0     H44238   8.641   9.300   9.980 -0.0353  0.4090 -1.6345
  321MOL0     H44239   8.891   9.317   9.900  1.6271  2.9896 -1.9189
  321MOL0     H44240   8.861   9.310  10.065 -1.7381 -0.5803 -1.5329
  321MOL0     H44241   8.957   9.552   9.921  3.2352 -0.1793  1.2403
  321MOL0     H44242   8.863   9.576  10.058  2.3208  3.0986  0.2872
  321MOL0     H44243   9.028   9.375  10.163 -2.2828 -1.3635 -0.6020
  321MOL0     H44244   9.063   9.552  10.160  0.4843  1.2385 -1.6413
  321MOL0     H44245   9.166   9.321  10.003 -1.5167  0.1477  2.6700
  321MOL0     H44246   9.177   9.477   9.912 -1.0099  0.5951  0.3086
  321MOL0     H44247   9.379   9.273  10.096  0.4020 -0.1720 -0.7253
  321MOL0     H44248   9.596   9.283  10.253  1.2073 -1.1288 -0.6732
  321MOL0     H44249   9.635   9.438  10.327 -0.4291  0.2495  0.0572
  321MOL0     H44250   9.749   9.509  10.129  1.6476  0.1843  2.5215
  321MOL0     H44251   9.812   9.352  10.171  0.4870  2.7228  2.7268
  321MOL0     H44252   9.673   9.247  10.009  0.2265 -0.2152 -0.4335
  321MOL0     H44253   9.599   9.400   9.952  0.9900  1.7573 -0.0260
  321MOL0     H44254   9.753   9.380   9.787 -0.9536  1.4541  1.0167
  321MOL0     H44255   9.862   9.453   9.906  2.8376 -2.1244  0.3048
  321MOL0     H44256  10.025   9.416  10.028 -1.3771 -1.6884  3.1893
  321MOL0     H44257  10.287   9.387  10.241  0.1205 -1.8062 -0.5963
  321MOL0     H44258  10.178   9.513  10.170 -0.2999 -0.2909  2.8478
  321MOL0     H44259  10.320   9.471  10.078 -1.3969  1.5806 -0.5103
  321MOL0     H44260  10.666   9.171  10.020  0.5169  2.3722  3.5776
  321MOL0     H44261  10.899   9.102  10.030  0.1399  0.3218  0.2946
  321MOL0     H44262  11.087   9.001  10.053 -1.5087 -0.5347 -0.9645
  321MOL0     H44263  11.175   8.943  10.195  0.3942  1.5252 -0.6336
  321MOL0     H44264  11.177   8.718  10.101 -1.1269  2.0105  2.3202
  321MOL0     H44265  11.064   8.761   9.974  0.6937 -1.8978 -0.4044
  321MOL0     H44266  11.355   8.885   9.984  1.3129 -2.0575 -0.6015
  321MOL0     H44267  11.218   8.911   9.873  1.8925 -0.7319 -1.4123
  321MOL0     H44268  11.218   8.681   9.800  0.7322  1.4802 -1.3487
  321MOL0     H44269  11.351   8.634   9.898  2.2446  0.0945 -2.7388
  321MOL0     H44270  11.430   8.653   9.696 -0.2583 -0.4123 -0.0649
  321MOL0     H44271  11.339   8.800   9.656 -1.4213 -1.9446 -0.3309
  321MOL0     H44272  11.565   8.741   9.857 -2.2691 -0.4563  1.3489
  321MOL0     H44273  11.506   8.909   9.814  0.6057  0.2437 -1.3778
  321MOL0     H44274  11.584   8.900   9.588  0.0719 -1.0635 -1.4814
  321MOL0     H44275  11.627   8.734   9.594 -1.2240 -0.2949  0.3149
  321MOL0     H44276  11.837   8.815   9.635 -1.9361 -1.4064 -1.1454
  321MOL0     H44277  11.770   8.825   9.802  1.5050 -1.3753 -0.4195
  321MOL0     H44278  10.771   8.771  10.287  0.0069  1.7138  2.0952
  321MOL0     H44279  10.554   8.829  10.256  2.1045 -1.2581  2.0102
  321MOL0     H44280  10.266   9.002   9.935 -1.3477 -0.8887  1.1027
  321MOL0     H44281  10.044   9.025   9.849 -0.4804 -1.1644  2.2575
  321MOL0     H44282   8.449   9.032   9.431  1.3031 -2.9521  0.2029
  321MOL0     H44283   8.293   8.836   9.417  1.0031 -0.1495 -0.0198
  321MOL0     H44284   7.905   8.684   9.670  0.7443 -0.4301 -0.4349
  321MOL0     H44285   7.761   8.487   9.687  1.0519  0.9600  0.3669
  321MOL0     H44286   7.579   8.331   9.667 -0.1092 -0.6575 -0.9850
  321MOL0     H44287   7.581   8.179   9.587  0.1532 -0.1169 -3.3008
  321MOL0     H44288   7.738   8.126   9.734  0.8723 -3.3685 -1.9333
  321MOL0     H44289   7.839   8.273   9.702  0.1185  0.6553 -0.1041
  321MOL0     H44290   7.776   8.089   9.470  1.6783 -1.3774 -0.2142
  321MOL0     H44291   7.920   8.186   9.500  0.4691 -0.1575  0.3647
  321MOL0     H44292   7.981   7.948   9.547 -0.7971  0.2284  0.2336
  321MOL0     H44293   7.846   7.928   9.661 -0.8027 -0.1501  0.5358
  321MOL0     H44294   8.141   8.120   9.900  0.2488 -3.2101  0.8549
  321MOL0     H44295   7.719   8.466   9.263 -4.1811 -2.2442  3.2090
  321MOL0     H44296   7.916   8.741   9.170  1.7660  0.3655  1.7712
  321MOL0     H44297   8.003   8.588   9.175  1.7059  2.4474 -0.5989
  321MOL0     H44298   7.824   8.592   9.133  0.8614 -2.8216  1.1826
  322MOL0     O44299   4.045   2.703   0.856  0.0179  0.4373 -0.1248
  322MOL0     C44300   3.957   2.642   0.790 -0.4953  0.0687  0.2281
  322MOL0     O44301   3.940   2.646   0.657 -0.9694  0.0586 -0.0316
  322MOL0     C44302   4.032   2.720   0.589 -0.9755 -0.5138 -0.3239
  322MOL0     C44303   3.993   2.851   0.553 -0.1395 -0.1212 -0.5068
  322MOL0     C44304   4.085   2.922   0.467  0.7855  0.5306 -0.0146
  322MOL0     C44305   4.198   2.867   0.403 -0.7686  1.1584 -0.0230
  322MOL0     O44306   4.278   2.937   0.309 -0.3034  0.3650 -0.1202
  322MOL0     C44307   4.362   2.861   0.210  0.6931 -0.5378 -0.3014
  322MOL0     C44308   4.379   2.950   0.095 -0.2028 -0.4925  0.4871
  322MOL0     C44309   4.496   2.900   0.010 -0.3548 -0.1984  0.6507
  322MOL0     C44310   4.520   2.995  -0.111  0.0630 -0.4144 -0.3448
  322MOL0     C44311   4.607   2.935  -0.219 -0.5579  0.5034  0.5883
  322MOL0     C44312   4.643   3.043  -0.328 -0.3184 -1.1605 -0.3478
  322MOL0     C44313   4.749   2.982  -0.426  0.3417  0.3780  0.5420
  322MOL0     C44314   4.758   3.056  -0.561  0.3167  0.3901  0.1309
  322MOL0     N44315   4.799   3.195  -0.528  0.4275  0.7490 -0.3278
  322MOL0     C44316   4.717   3.304  -0.511  0.0614  0.7661  0.3093
  322MOL0     C44317   4.797   3.411  -0.515 -0.5661 -0.3354 -0.1859
  322MOL0     C44318   4.736   3.546  -0.506  0.4037 -0.6965  0.3020
  322MOL0     C44319   4.741   3.609  -0.648  0.0002 -0.6228 -0.0396
  322MOL0     C44320   4.882   3.648  -0.697  0.0227  0.6676  0.0087
  322MOL0     C44321   4.935   3.779  -0.637  0.3020 -0.3641  0.5131
  322MOL0     O44322   4.864   3.897  -0.680  0.3049  0.3717 -0.5431
  322MOL0     C44323   4.896   4.022  -0.627  0.3916 -0.6738 -0.9257
  322MOL0     C44324   5.026   4.077  -0.604  0.5164 -0.4996  0.6772
  322MOL0     C44325   5.052   4.205  -0.553 -0.2611 -0.0937  0.3726
  322MOL0     C44326   5.196   4.239  -0.535  0.3923  0.0354  0.3090
  322MOL0     C44327   4.939   4.294  -0.531 -0.3874  0.5238 -0.2033
  322MOL0     C44328   4.961   4.435  -0.474 -0.1994  1.4350  0.3430
  322MOL0     O44329   4.860   4.479  -0.390 -0.1241 -0.1590  0.2901
  322MOL0     C44330   4.865   4.612  -0.357  0.0298 -0.1987  0.0797
  322MOL0     C44331   4.933   4.653  -0.240 -0.6185 -0.5728 -0.2109
  322MOL0     C44332   4.950   4.791  -0.221 -0.0808  0.4111  0.0457
  322MOL0     C44333   4.898   4.888  -0.302  0.2222  0.2439  0.6275
  322MOL0     O44334   4.928   5.018  -0.275 -0.2506  0.6257  0.4367
  322MOL0     C44335   4.884   5.130  -0.349 -0.1926 -0.1118 -1.0968
  322MOL0     C44336   4.749   5.167  -0.299  0.6995  0.3523 -0.5284
  322MOL0     C44337   4.760   5.247  -0.171  0.5061  0.6281  0.0770
  322MOL0     C44338   4.815   5.379  -0.172 -0.3028 -0.2631 -0.2401
  322MOL0     C44339   4.814   5.442  -0.028  0.4263 -0.2474 -0.2044
  322MOL0     C44340   4.862   5.586  -0.033  0.7860  0.1864  0.7421
  322MOL0     C44341   4.842   5.663   0.097 -0.0964  0.2158 -0.5348
  322MOL0     C44342   4.926   5.787   0.098 -0.5654 -0.3021 -0.2358
  322MOL0    Cl44343   4.834   5.882  -0.014  0.1185  0.2899  0.2727
  322MOL0     C44344   4.809   4.842  -0.403 -0.6963 -0.3433 -0.1008
  322MOL0     C44345   4.798   4.711  -0.434  0.3302  1.1579  0.7835
  322MOL0     O44346   5.046   4.509  -0.520  0.2832 -0.1241 -0.0736
  322MOL0     C44347   4.809   4.246  -0.556  0.5651  1.2411  0.5110
  322MOL0     C44348   4.790   4.115  -0.611  0.5056 -0.3968 -0.7641
  322MOL0     N44349   4.933   3.363  -0.502 -0.1963 -0.1252  0.0359
  322MOL0     N44350   4.922   3.240  -0.512 -0.1061  0.4249  0.5416
  322MOL0     C44351   4.240   2.739   0.443  0.9264  0.7501 -0.4079
  322MOL0     C44352   4.156   2.671   0.536  0.0800  0.4177 -1.2973
  322MOL0     C44353   3.871   2.562   0.885  1.0082 -0.1068  0.4936
  322MOL0     C44354   3.920   2.481   0.990  0.0747 -0.3608  0.2760
  322MOL0     C44355   3.840   2.408   1.084 -0.3582  0.9477  1.0446
  322MOL0     C44356   3.706   2.435   1.091  0.3867 -0.9121  0.9411
  322MOL0     O44357   3.609   2.400   1.179  0.2802 -0.7808  0.3345
  322MOL0     C44358   3.647   2.304   1.276 -0.0186 -0.0912  0.6401
  322MOL0     C44359   3.518   2.262   1.359  0.5689  0.4658 -0.6315
  322MOL0     C44360   3.553   2.168   1.475 -0.0292  0.3161 -0.5695
  322MOL0     C44361   3.425   2.099   1.523  0.1266 -0.4208  0.4786
  322MOL0     C44362   3.471   1.985   1.601  0.0652  0.4485  0.3836
  322MOL0     C44363   3.507   1.886   1.673 -0.6670  0.2672  0.1992
  322MOL0     C44364   3.654   2.521   0.986  0.6503  0.4998 -0.2549
  322MOL0     C44365   3.730   2.571   0.882 -0.4542 -0.1192  0.3589
  322MOL0     C44366   3.668   2.650   0.767 -0.7313 -1.2785 -0.0118
  322MOL0     H44367   3.903   2.890   0.598  0.8247 -1.5640  2.9927
  322MOL0     H44368   4.050   3.023   0.448 -4.4492 -1.1495 -0.8304
  322MOL0     H44369   4.323   2.760   0.192  1.3008 -0.8843  0.2531
  322MOL0     H44370   4.455   2.830   0.258 -0.0091 -0.2233  1.3293
  322MOL0     H44371   4.286   2.952   0.037 -0.1490  1.4181  0.4307
  322MOL0     H44372   4.395   3.052   0.129 -0.8974 -0.5138  0.8981
  322MOL0     H44373   4.587   2.912   0.070  0.1738 -0.2823 -0.1230
  322MOL0     H44374   4.478   2.796  -0.018 -2.0625  0.1246  0.4642
  322MOL0     H44375   4.421   3.017  -0.150  0.0989  1.5749  0.5175
  322MOL0     H44376   4.556   3.092  -0.073 -2.0206  0.3078 -0.0783
  322MOL0     H44377   4.559   2.850  -0.269  2.1524 -0.2697 -0.8858
  322MOL0     H44378   4.702   2.892  -0.187  1.0451  0.8869 -3.0738
  322MOL0     H44379   4.559   3.076  -0.390  0.1203 -1.7273 -1.2735
  322MOL0     H44380   4.689   3.133  -0.286  0.9545 -0.8125 -2.3347
  322MOL0     H44381   4.732   2.877  -0.452  1.2602  0.2680  0.3321
  322MOL0     H44382   4.851   2.995  -0.389  0.5964  1.5631 -0.4765
  322MOL0     H44383   4.827   3.007  -0.631 -1.6461 -2.7700  0.2235
  322MOL0     H44384   4.662   3.059  -0.612  0.6257  1.0783 -0.4246
  322MOL0     H44385   4.608   3.308  -0.513  0.0809  1.2071 -1.0937
  322MOL0     H44386   4.785   3.601  -0.424 -0.1109 -4.4523  3.4253
  322MOL0     H44387   4.631   3.536  -0.478  0.4937 -0.9045  0.5695
  322MOL0     H44388   4.687   3.540  -0.714 -1.2312 -1.1145  1.4164
  322MOL0     H44389   4.683   3.702  -0.640  0.2580 -0.3729 -0.9476
  322MOL0     H44390   4.961   3.575  -0.677  0.1930  1.2088  1.4519
  322MOL0     H44391   4.877   3.667  -0.805  1.0751  2.6862  0.2714
  322MOL0     H44392   4.934   3.771  -0.528 -0.6704 -1.2188  0.4489
  322MOL0     H44393   5.039   3.799  -0.665  0.8789 -1.1989  1.9473
  322MOL0     H44394   5.112   4.011  -0.618 -0.9035 -2.1238 -0.8948
  322MOL0     H44395   5.208   4.275  -0.433 -0.1197 -0.5094  0.5623
  322MOL0     H44396   5.224   4.317  -0.608  0.3140  1.2677  1.5595
  322MOL0     H44397   5.256   4.149  -0.549 -0.9676 -0.9554  0.7041
  322MOL0     H44398   4.979   4.584  -0.170 -0.6184 -2.3703 -1.8908
  322MOL0     H44399   5.020   4.817  -0.143 -0.2512  1.6258 -0.1989
  322MOL0     H44400   4.960   5.208  -0.340  1.1050 -1.5730  1.8987
  322MOL0     H44401   4.876   5.110  -0.457 -0.1141  0.6561 -1.2464
  322MOL0     H44402   4.695   5.232  -0.369  0.1982  0.7195  0.1850
  322MOL0     H44403   4.693   5.075  -0.279  1.2740  0.4301  1.7488
  322MOL0     H44404   4.820   5.189  -0.101 -0.7063  0.9977  1.4632
  322MOL0     H44405   4.661   5.248  -0.125  0.6518 -1.7688  0.6148
  322MOL0     H44406   4.755   5.450  -0.230 -2.4596 -1.0179  0.9384
  322MOL0     H44407   4.916   5.364  -0.211 -2.1671 -1.2759 -5.4536
  322MOL0     H44408   4.708   5.441  -0.000  1.0092 -2.7543  2.4577
  322MOL0     H44409   4.869   5.388   0.050 -0.9607 -2.0819 -0.4128
  322MOL0     H44410   4.809   5.630  -0.117  0.5873 -3.3519 -1.1840
  322MOL0     H44411   4.968   5.584  -0.059  0.8819 -1.0856  1.1366
  322MOL0     H44412   4.867   5.608   0.188 -1.8291 -2.3980 -1.5384
  322MOL0     H44413   4.735   5.684   0.111 -0.2062 -0.8388  0.3183
  322MOL0     H44414   5.028   5.763   0.066 -0.5145 -0.7876  0.2799
  322MOL0     H44415   4.922   5.822   0.202 -0.6715 -1.1457  0.0543
  322MOL0     H44416   4.751   4.917  -0.457 -0.3475 -0.0324 -0.0512
  322MOL0     H44417   4.759   4.677  -0.530  0.8160 -0.8813  1.2546
  322MOL0     H44418   4.730   4.311  -0.521  2.0457  3.2985  0.1851
  322MOL0     H44419   4.688   4.083  -0.633  0.9296 -1.6101 -1.0047
  322MOL0     H44420   4.337   2.699   0.418  1.4001 -0.4722  2.9688
  322MOL0     H44421   4.191   2.572   0.565  0.3684  0.2053 -2.3373
  322MOL0     H44422   4.027   2.461   0.984  0.5455  2.2683 -1.6577
  322MOL0     H44423   3.900   2.351   1.154  1.8325  1.1940 -0.5307
  322MOL0     H44424   3.680   2.212   1.226 -1.0919  1.0160 -2.3561
  322MOL0     H44425   3.728   2.326   1.346  1.3436 -2.7181  0.0268
  322MOL0     H44426   3.443   2.221   1.290  2.4337 -0.6627 -2.1099
  322MOL0     H44427   3.481   2.354   1.404 -0.5174  0.1681 -0.8792
  322MOL0     H44428   3.629   2.102   1.435  0.0658  1.8605 -3.1804
  322MOL0     H44429   3.598   2.229   1.554  2.7884 -1.3967 -0.7362
  322MOL0     H44430   3.371   2.062   1.435  2.1324 -1.9512 -0.1882
  322MOL0     H44431   3.365   2.171   1.579  1.3859 -0.5926  2.1089
  322MOL0     H44432   3.525   1.799   1.732  2.1188 -0.1727 -1.1399
  322MOL0     H44433   3.552   2.556   0.997  0.2481 -0.5886 -0.3909
  322MOL0     H44434   3.563   2.621   0.769 -0.7573 -1.1897 -0.0899
  322MOL0     H44435   3.683   2.758   0.782  3.7501 -1.7558  0.4117
  322MOL0     H44436   3.708   2.619   0.670  0.3426  0.6906 -0.2466
  323MOL0     O44437   8.919  10.141   6.177  0.3709 -0.8890 -0.0570
  323MOL0     C44438   8.949  10.041   6.236 -0.0979 -0.5211  0.1250
  323MOL0     O44439   9.074   9.981   6.222  0.9381  0.1054  0.4313
  323MOL0     C44440   9.162  10.059   6.161 -0.0496 -1.0030  0.4845
  323MOL0     C44441   9.188  10.031   6.023  0.3527  0.0083  0.3054
  323MOL0     C44442   9.289  10.104   5.956  0.6010 -0.0409 -0.4074
  323MOL0     C44443   9.370  10.198   6.024 -0.1998  0.6922 -0.0240
  323MOL0     O44444   9.487  10.255   5.983  0.2464  0.8431  0.1106
  323MOL0     C44445   9.507  10.285   5.843  0.2452  0.3177 -0.3398
  323MOL0     C44446   9.653  10.263   5.809 -0.3668  1.1039 -0.2579
  323MOL0     C44447   9.752  10.349   5.888 -0.3993 -0.9709 -0.2547
  323MOL0     C44448   9.899  10.315   5.851 -0.4587  0.0626  0.4403
  323MOL0     C44449  10.001  10.428   5.881 -0.5183 -0.1148  0.6390
  323MOL0     C44450  10.146  10.371   5.858 -1.1614  0.5645  0.1395
  323MOL0     C44451  10.240  10.477   5.910 -0.5355  0.6520 -0.4857
  323MOL0     C44452  10.385  10.439   5.900 -0.9716 -0.1661 -0.4151
  323MOL0     N44453  10.478  10.525   5.974 -0.8281 -0.3307  0.2198
  323MOL0     C44454  10.508  10.655   5.937 -0.8125  0.6963 -0.4442
  323MOL0     C44455  10.626  10.685   6.005  0.2351 -0.6940  0.2999
  323MOL0     C44456  10.703  10.811   6.004 -0.3811  0.1960  0.3016
  323MOL0     C44457  10.631  10.929   5.939  0.0077 -0.0426  0.2326
  323MOL0     C44458  10.729  11.049   5.939 -0.0549  1.0712  0.1933
  323MOL0     C44459  10.668  11.156   5.848  0.7344 -0.0744 -0.0879
  323MOL0     O44460  10.741  11.280   5.863  0.3381  0.0868 -0.6449
  323MOL0     C44461  10.851  11.307   5.784  0.6477  0.1569  0.1914
  323MOL0     C44462  10.897  11.225   5.678  0.6376 -0.2199 -0.8524
  323MOL0     C44463  11.022  11.252   5.610  0.4778 -0.0456  0.2610
  323MOL0     C44464  11.055  11.149   5.511  0.0867 -0.0282  0.2076
  323MOL0     C44465  11.100  11.365   5.630 -0.6181  0.1636 -0.2647
  323MOL0     C44466  11.226  11.399   5.561  0.2027 -0.2673  0.4304
  323MOL0     O44467  11.311  11.452   5.646 -0.8173  0.3200  0.6486
  323MOL0     C44468  11.419  11.518   5.587  0.3968  0.7768 -0.1254
  323MOL0     C44469  11.523  11.435   5.538  0.6692 -0.1805 -0.4189
  323MOL0     C44470  11.636  11.492   5.483  0.2779 -0.2104 -0.8368
  323MOL0     C44471  11.652  11.631   5.476 -0.1799 -0.3931 -0.1329
  323MOL0     O44472  11.747  11.710   5.417 -1.2002 -0.0535  0.6718
  323MOL0     C44473  11.872  11.638   5.405  0.4164  0.5837  0.4087
  323MOL0     C44474  11.978  11.727   5.346 -0.4519  0.9871  0.2793
  323MOL0     C44475  12.082  11.642   5.267 -0.1146 -1.0852  0.0970
  323MOL0     C44476  12.163  11.552   5.351  0.1393 -0.1306 -0.0970
  323MOL0     C44477  12.286  11.497   5.277  0.0674 -0.0487 -0.0027
  323MOL0     C44478  12.354  11.389   5.360  0.0226 -0.6923 -0.3034
  323MOL0     C44479  12.478  11.320   5.296  0.3117  0.3616 -0.6644
  323MOL0     C44480  12.463  11.293   5.141 -0.8636 -0.0824 -0.1250
  323MOL0    Cl44481  12.344  11.165   5.116 -0.4290  0.0796 -0.3796
  323MOL0     C44482  11.542  11.708   5.520  0.2152 -0.4250  0.3298
  323MOL0     C44483  11.433  11.653   5.576  0.2000  0.4300  0.3047
  323MOL0     O44484  11.240  11.383   5.437 -0.2054 -0.4820 -0.8031
  323MOL0     C44485  11.059  11.437   5.737 -0.0164 -0.1712 -0.1806
  323MOL0     C44486  10.938  11.407   5.816 -0.4930  0.1603 -0.4850
  323MOL0     N44487  10.655  10.579   6.086  0.1715  0.4239 -0.3371
  323MOL0     N44488  10.578  10.482   6.063 -0.2294  0.5550 -0.2223
  323MOL0     C44489   9.345  10.207   6.161  0.6839  0.8546  0.2328
  323MOL0     C44490   9.243  10.152   6.232  0.4972  0.8699  0.0566
  323MOL0     C44491   8.841   9.981   6.315  0.8196 -0.3768  0.8836
  323MOL0     C44492   8.752  10.070   6.376 -1.0530  0.1502  0.1888
  323MOL0     C44493   8.635  10.025   6.447 -0.0188 -0.2371  0.5732
  323MOL0     C44494   8.610   9.885   6.448  0.4435 -0.0411  1.0828
  323MOL0     O44495   8.499   9.831   6.501 -0.1965 -0.1255 -0.8834
  323MOL0     C44496   8.372   9.896   6.478 -0.3669 -0.1622  1.0245
  323MOL0     C44497   8.258   9.791   6.489  0.5880 -0.4804  0.8706
  323MOL0     C44498   8.119   9.854   6.511 -0.3899 -0.2815  0.2458
  323MOL0     C44499   8.006   9.747   6.497 -0.2118  0.7028 -0.2140
  323MOL0     C44500   7.963   9.728   6.364  0.1829  1.0322 -0.4137
  323MOL0     C44501   7.935   9.676   6.260  0.3577 -0.3931  0.1666
  323MOL0     C44502   8.691   9.791   6.370  0.2040 -0.0858 -0.7033
  323MOL0     C44503   8.808   9.840   6.314 -0.2482 -0.4204  0.2052
  323MOL0     C44504   8.892   9.735   6.241  0.7930 -0.5518 -0.0988
  323MOL0     H44505   9.119   9.967   5.970  1.5059 -0.3461 -0.7960
  323MOL0     H44506   9.301  10.085   5.850 -0.6255  1.9672 -0.9649
  323MOL0     H44507   9.479  10.390   5.830  0.1157  0.6785  2.2494
  323MOL0     H44508   9.451  10.217   5.779 -0.1115 -2.1551  2.3908
  323MOL0     H44509   9.669  10.160   5.843 -1.9513  0.7785 -0.3980
  323MOL0     H44510   9.664  10.273   5.701 -0.7903  2.5586 -0.1836
  323MOL0     H44511   9.739  10.457   5.883  3.6759 -0.3148 -0.1261
  323MOL0     H44512   9.743  10.315   5.992 -0.2068  0.5020  0.2549
  323MOL0     H44513   9.928  10.223   5.903 -2.0469 -0.8897 -0.2912
  323MOL0     H44514   9.907  10.281   5.748  2.3687  0.9729  0.2765
  323MOL0     H44515  10.000  10.462   5.985 -0.2784 -0.4851  0.7662
  323MOL0     H44516   9.989  10.512   5.813 -1.5809  1.1023  2.2384
  323MOL0     H44517  10.161  10.274   5.907  0.5661  1.5852  1.7961
  323MOL0     H44518  10.165  10.360   5.751  1.7436 -2.6517  0.7991
  323MOL0     H44519  10.210  10.517   6.007  0.6507  1.0600 -0.2743
  323MOL0     H44520  10.228  10.557   5.836 -0.5858 -0.7647 -2.0798
  323MOL0     H44521  10.395  10.343   5.951 -1.4199  1.5883  3.3474
  323MOL0     H44522  10.418  10.420   5.797  0.8439 -0.7789  0.2290
  323MOL0     H44523  10.463  10.723   5.865 -1.3842 -0.8168 -1.5693
  323MOL0     H44524  10.797  10.794   5.951 -1.8696 -1.5810 -1.9608
  323MOL0     H44525  10.722  10.836   6.109 -1.9730  2.3794  0.1240
  323MOL0     H44526  10.602  10.901   5.837  1.8672 -1.1599 -0.0340
  323MOL0     H44527  10.535  10.945   5.987 -0.9829 -1.0067 -1.3237
  323MOL0     H44528  10.748  11.070   6.045 -1.4764 -1.3711  0.9976
  323MOL0     H44529  10.821  11.006   5.900  0.3488 -0.4175  2.5646
  323MOL0     H44530  10.654  11.128   5.743  2.5832  2.6777 -1.1907
  323MOL0     H44531  10.574  11.188   5.895  1.1681 -1.3431  1.7300
  323MOL0     H44532  10.845  11.132   5.657 -1.0393  0.1868  1.1170
  323MOL0     H44533  11.127  11.077   5.552  2.2823  1.5301 -0.7132
  323MOL0     H44534  11.092  11.191   5.417 -0.9307  1.5097  0.4615
  323MOL0     H44535  10.965  11.090   5.492  1.7531 -2.2179 -1.4438
  323MOL0     H44536  11.516  11.328   5.551 -0.0751  0.0453  1.2227
  323MOL0     H44537  11.711  11.416   5.465 -0.6525 -1.5552  0.6885
  323MOL0     H44538  11.888  11.604   5.508 -2.6372 -0.7214  0.5481
  323MOL0     H44539  11.856  11.553   5.339 -1.3896  0.5402  0.8650
  323MOL0     H44540  11.938  11.805   5.280  0.7264  1.7089  0.3807
  323MOL0     H44541  12.033  11.783   5.423 -1.6762  2.1633  0.3474
  323MOL0     H44542  12.153  11.718   5.233 -0.7621  0.8465  2.7759
  323MOL0     H44543  12.036  11.597   5.178  0.3882  0.0119 -0.7403
  323MOL0     H44544  12.097  11.477   5.394  0.2581  0.9663  2.1152
  323MOL0     H44545  12.212  11.615   5.425 -0.9658  1.1753 -0.4431
  323MOL0     H44546  12.242  11.454   5.187 -0.2795  1.1099 -0.4061
  323MOL0     H44547  12.363  11.573   5.260  0.6081 -0.3143  1.1101
  323MOL0     H44548  12.280  11.309   5.371  0.7407 -1.6148 -1.8099
  323MOL0     H44549  12.381  11.422   5.461  2.0184 -0.5611 -0.8472
  323MOL0     H44550  12.504  11.228   5.349 -3.3755 -0.7966 -0.5894
  323MOL0     H44551  12.557  11.394   5.311 -0.3266  1.3607 -2.0551
  323MOL0     H44552  12.562  11.267   5.102 -0.5467 -0.1284  0.6828
  323MOL0     H44553  12.423  11.383   5.094 -3.4736  0.0401  2.0741
  323MOL0     H44554  11.534  11.816   5.519 -2.1985 -0.5286  1.9256
  323MOL0     H44555  11.365  11.727   5.615  2.6503  2.6281  0.6746
  323MOL0     H44556  11.124  11.519   5.770  0.4003  0.3465 -2.1353
  323MOL0     H44557  10.907  11.469   5.900  1.2459  0.6140 -0.1418
  323MOL0     H44558   9.417  10.268   6.214 -0.8971  2.5980  0.4493
  323MOL0     H44559   9.221  10.171   6.337 -2.8517  3.3536 -0.9247
  323MOL0     H44560   8.789  10.172   6.379 -3.9357  1.3668 -1.0752
  323MOL0     H44561   8.570  10.093   6.500 -0.2127 -0.6440  0.8641
  323MOL0     H44562   8.358   9.976   6.552  0.6002 -1.6366  2.8847
  323MOL0     H44563   8.373   9.929   6.374 -0.3103  0.8809  1.3464
  323MOL0     H44564   8.285   9.730   6.576 -0.9282 -2.1887  0.1945
  323MOL0     H44565   8.248   9.723   6.404 -1.0623 -1.4063  1.7420
  323MOL0     H44566   8.108   9.895   6.612 -0.8365 -0.0662  0.1150
  323MOL0     H44567   8.104   9.933   6.437 -0.3031  2.1867  2.7230
  323MOL0     H44568   7.918   9.770   6.558  0.6085  1.0415  0.8573
  323MOL0     H44569   8.049   9.653   6.530  1.7133  2.1612  1.7138
  323MOL0     H44570   7.921   9.627   6.166  2.4584 -2.6680  0.9090
  323MOL0     H44571   8.666   9.686   6.365 -1.3409  0.3219 -2.0584
  323MOL0     H44572   8.993   9.743   6.283  1.7525  2.1302 -2.6004
  323MOL0     H44573   8.854   9.632   6.245  2.6352 -1.2801 -0.2179
  323MOL0     H44574   8.899   9.751   6.133 -1.1667 -0.7836 -0.2947
  324MOL0     O44575   4.379   5.028   7.518  0.5755  0.1556 -0.2046
  324MOL0     C44576   4.399   4.943   7.432 -0.0936  0.0810 -0.1441
  324MOL0     O44577   4.304   4.854   7.382 -0.6363 -0.2213 -0.4189
  324MOL0     C44578   4.169   4.868   7.407  0.4030 -0.0355 -0.4010
  324MOL0     C44579   4.096   4.966   7.482 -0.2371  0.2319  0.1702
  324MOL0     C44580   3.964   4.949   7.502 -0.5356  0.1412 -0.3994
  324MOL0     C44581   3.895   4.844   7.452  0.6069 -0.1360 -0.5205
  324MOL0     O44582   3.761   4.824   7.470  0.1243 -0.0658  0.0198
  324MOL0     C44583   3.682   4.901   7.561  0.6625  0.2288 -0.1240
  324MOL0     C44584   3.664   4.824   7.695 -0.3557  0.4060  0.1214
  324MOL0     C44585   3.789   4.820   7.765  0.1150  1.0007 -0.2494
  324MOL0     C44586   3.842   4.947   7.837  0.3586 -0.1954  0.9647
  324MOL0     C44587   3.982   4.916   7.891 -0.6566  0.2927 -0.2326
  324MOL0     C44588   4.058   5.039   7.917  0.0134  0.5115 -0.3760
  324MOL0     C44589   4.202   5.013   7.969 -0.0240  0.4109  0.2342
  324MOL0     C44590   4.303   4.970   7.858  0.5965 -0.5842  0.2034
  324MOL0     N44591   4.433   4.946   7.902 -0.1378  0.3951 -0.2541
  324MOL0     C44592   4.466   4.840   7.979  0.6854 -0.9481 -0.0885
  324MOL0     C44593   4.599   4.848   7.997 -0.0496 -0.0709  0.3927
  324MOL0     C44594   4.699   4.757   8.073  0.0572  0.1149  0.2300
  324MOL0     C44595   4.770   4.825   8.189  0.2921  0.2228 -0.3395
  324MOL0     C44596   4.850   4.936   8.129  0.0323 -0.0498 -0.6661
  324MOL0     C44597   4.971   4.962   8.218 -0.0793 -0.3628  0.0497
  324MOL0     O44598   5.060   4.845   8.224  0.7219 -0.1702  0.5409
  324MOL0     C44599   5.122   4.821   8.099 -0.9076 -0.3620  0.6688
  324MOL0     C44600   5.136   4.903   7.987 -0.1871 -1.8636 -0.2263
  324MOL0     C44601   5.235   4.889   7.883  0.6495 -0.4673  0.0455
  324MOL0     C44602   5.241   4.990   7.772 -0.4433 -0.0591  0.7433
  324MOL0     C44603   5.319   4.778   7.888  0.7843 -0.1775 -0.3171
  324MOL0     C44604   5.426   4.751   7.791 -0.8686  0.1457  1.0485
  324MOL0     O44605   5.537   4.666   7.832  0.1426  0.6041 -0.0326
  324MOL0     C44606   5.622   4.604   7.745 -0.0972 -0.4996  0.3916
  324MOL0     C44607   5.651   4.464   7.776  0.2990  0.0235  0.6052
  324MOL0     C44608   5.760   4.406   7.701  0.3203 -0.5404  0.2784
  324MOL0     C44609   5.834   4.480   7.607  0.4482  0.5904  0.2209
  324MOL0     O44610   5.928   4.404   7.539  0.6138  0.3171 -0.2186
  324MOL0     C44611   6.044   4.478   7.499  0.2536  0.1463  0.5273
  324MOL0     C44612   6.134   4.364   7.441  0.1286  0.6130 -0.7040
  324MOL0     C44613   6.221   4.418   7.326 -0.2967 -0.3565 -0.6029
  324MOL0     C44614   6.147   4.424   7.195  0.2291 -0.3916  0.4054
  324MOL0     C44615   6.233   4.507   7.098 -0.6410 -0.7409 -0.0408
  324MOL0     C44616   6.166   4.495   6.960  0.0074  0.0977  0.7772
  324MOL0     C44617   6.263   4.574   6.861  0.6383  0.7477 -0.4726
  324MOL0     C44618   6.201   4.584   6.728 -0.8645 -0.1910  0.0183
  324MOL0    Cl44619   6.071   4.700   6.728 -0.2876  0.0583  0.0284
  324MOL0     C44620   5.804   4.608   7.578  0.4092  0.3070  0.5618
  324MOL0     C44621   5.702   4.671   7.652  0.3796 -0.2596  0.4731
  324MOL0     O44622   5.427   4.810   7.684  0.0378  0.3814 -0.0991
  324MOL0     C44623   5.299   4.689   7.994  0.4494 -1.0959 -0.0624
  324MOL0     C44624   5.203   4.710   8.092 -0.0198 -0.7387 -0.6817
  324MOL0     N44625   4.649   4.956   7.931  0.3024 -0.0087  0.3573
  324MOL0     N44626   4.549   5.011   7.864 -0.2015 -0.5389  1.0110
  324MOL0     C44627   3.960   4.755   7.362  0.3358 -0.8030  0.0112
  324MOL0     C44628   4.096   4.766   7.349  0.2929 -0.2230  0.7919
  324MOL0     C44629   4.531   4.960   7.367  0.1743  0.1267  0.2152
  324MOL0     C44630   4.645   4.981   7.449  0.1416 -0.6325  0.4607
  324MOL0     C44631   4.770   5.000   7.392 -0.6015 -0.0408  0.0835
  324MOL0     C44632   4.789   4.995   7.250  0.3063  0.9817 -0.6416
  324MOL0     O44633   4.910   4.991   7.181 -0.8287 -0.4474 -0.4191
  324MOL0     C44634   5.038   5.012   7.249 -0.6697 -0.6491 -0.9148
  324MOL0     C44635   5.099   4.875   7.295  0.4016  0.6624 -0.6684
  324MOL0     C44636   5.242   4.907   7.348  0.0529 -0.1772  0.1701
  324MOL0     C44637   5.325   4.780   7.385  0.5274 -0.2736 -0.3213
  324MOL0     C44638   5.359   4.703   7.265 -1.1358 -0.7729  0.1456
  324MOL0     C44639   5.361   4.653   7.152 -0.1401 -0.0387 -0.5856
  324MOL0     C44640   4.671   4.982   7.172  0.4565 -0.1981 -0.7767
  324MOL0     C44641   4.543   4.970   7.227 -0.3187  0.2090 -0.5243
  324MOL0     C44642   4.425   4.963   7.134  0.3989  0.0953  0.0260
  324MOL0     H44643   4.141   5.054   7.527 -0.6929  1.9952 -2.5751
  324MOL0     H44644   3.923   5.018   7.575 -2.0440 -1.9250  0.7995
  324MOL0     H44645   3.580   4.889   7.524  1.2954 -3.5396 -1.0512
  324MOL0     H44646   3.709   5.007   7.562 -1.8119  0.9502  2.2748
  324MOL0     H44647   3.585   4.878   7.749 -0.8494  1.7225 -1.8395
  324MOL0     H44648   3.620   4.727   7.668  2.8842 -0.6929 -1.6953
  324MOL0     H44649   3.762   4.749   7.844 -1.0882 -1.5749 -2.8044
  324MOL0     H44650   3.865   4.771   7.704 -0.9590  0.2358 -1.0071
  324MOL0     H44651   3.852   5.030   7.767  1.2370 -0.4636  0.7665
  324MOL0     H44652   3.773   4.989   7.911  0.0671  0.9712  0.0546
  324MOL0     H44653   4.030   4.852   7.816  3.2004  2.1928  0.3587
  324MOL0     H44654   3.967   4.869   7.988 -1.8938 -0.2474 -0.6682
  324MOL0     H44655   4.061   5.104   7.829  1.8505 -1.3429 -1.7953
  324MOL0     H44656   4.011   5.085   8.004  1.6766 -2.5336  2.3548
  324MOL0     H44657   4.205   4.936   8.046 -0.3783  0.8049  0.6508
  324MOL0     H44658   4.252   5.102   8.010 -0.2046  0.3303  0.6373
  324MOL0     H44659   4.260   4.885   7.805 -0.9614 -1.0289  2.0699
  324MOL0     H44660   4.305   5.051   7.784 -1.5447 -2.9865 -2.6848
  324MOL0     H44661   4.390   4.773   8.018 -2.9176  2.8391  0.1168
  324MOL0     H44662   4.779   4.715   8.011 -1.1889  0.1076 -1.4478
  324MOL0     H44663   4.641   4.677   8.119  2.7609 -1.1093  1.7449
  324MOL0     H44664   4.695   4.861   8.259 -0.5053  3.0781 -2.4597
  324MOL0     H44665   4.827   4.751   8.244 -0.7869 -0.1828  0.2652
  324MOL0     H44666   4.885   4.912   8.028 -0.1840  0.1857 -0.8010
  324MOL0     H44667   4.789   5.026   8.114  0.5326  0.2413 -0.9994
  324MOL0     H44668   5.030   5.042   8.171  0.1612  0.3010  1.4135
  324MOL0     H44669   4.946   4.995   8.319 -2.2385 -0.6814 -0.3425
  324MOL0     H44670   5.065   4.983   7.968 -0.4639 -2.4157 -1.6183
  324MOL0     H44671   5.163   5.066   7.777 -0.8840 -0.0502 -3.3155
  324MOL0     H44672   5.234   4.944   7.673 -0.9783  0.6763  0.4304
  324MOL0     H44673   5.330   5.055   7.776 -3.4897  4.5900  0.9343
  324MOL0     H44674   5.603   4.410   7.857  0.0512  0.5691  0.8274
  324MOL0     H44675   5.785   4.302   7.723  0.7161 -0.0510  2.3086
  324MOL0     H44676   6.012   4.546   7.419 -0.4975  0.0497  0.7340
  324MOL0     H44677   6.099   4.539   7.571 -1.0761  3.5656 -1.1302
  324MOL0     H44678   6.207   4.330   7.515 -1.0715 -0.5173  0.0034
  324MOL0     H44679   6.079   4.273   7.416 -1.6833  1.4485  0.0544
  324MOL0     H44680   6.313   4.359   7.312  0.2785 -0.1129  1.7478
  324MOL0     H44681   6.251   4.515   7.368 -3.1505  0.8838 -1.1968
  324MOL0     H44682   6.050   4.469   7.219  0.1914 -1.6478  2.8593
  324MOL0     H44683   6.133   4.318   7.173  2.7106 -0.7749  0.3719
  324MOL0     H44684   6.241   4.609   7.138  2.0622 -0.7891 -0.2870
  324MOL0     H44685   6.336   4.469   7.103 -0.3613  0.0583  0.5726
  324MOL0     H44686   6.071   4.550   6.964  0.7227  1.6157 -1.3050
  324MOL0     H44687   6.159   4.390   6.930  1.7278 -0.0702  0.8887
  324MOL0     H44688   6.353   4.517   6.836 -0.2530 -1.0879  0.3579
  324MOL0     H44689   6.287   4.673   6.900  1.1529 -0.0483  1.3152
  324MOL0     H44690   6.175   4.481   6.700  0.4792 -0.2119 -1.2567
  324MOL0     H44691   6.277   4.610   6.654 -1.1872  1.6474  0.2852
  324MOL0     H44692   5.858   4.671   7.509 -0.5758 -0.0957 -0.6210
  324MOL0     H44693   5.686   4.777   7.638  3.1522  0.1057 -0.5651
  324MOL0     H44694   5.371   4.609   8.012  1.4158  0.0260  1.3335
  324MOL0     H44695   5.199   4.652   8.184 -0.6000  1.5810  0.8415
  324MOL0     H44696   3.908   4.674   7.313 -0.3670 -0.3464 -0.0230
  324MOL0     H44697   4.155   4.689   7.300 -1.0711 -0.6072 -0.3049
  324MOL0     H44698   4.633   4.995   7.556  0.7046 -1.8582  0.6931
  324MOL0     H44699   4.863   5.010   7.447  1.0826 -1.2013 -2.3576
  324MOL0     H44700   5.108   5.062   7.183 -2.2440  2.3472 -0.4877
  324MOL0     H44701   5.023   5.085   7.330 -1.2869 -1.0641 -0.6449
  324MOL0     H44702   5.117   4.824   7.200  0.6995  0.7638 -0.6671
  324MOL0     H44703   5.037   4.821   7.367 -0.5024  2.2046 -0.2494
  324MOL0     H44704   5.300   4.956   7.269  3.6013 -0.9840  2.0358
  324MOL0     H44705   5.242   4.967   7.440  2.7691 -1.5665  1.2005
  324MOL0     H44706   5.263   4.725   7.457 -1.2948  2.4725  0.3428
  324MOL0     H44707   5.416   4.816   7.435 -2.6906  0.9000  5.5980
  324MOL0     H44708   5.370   4.595   7.063  0.4245  0.2149 -0.6986
  324MOL0     H44709   4.676   4.989   7.064  1.5865 -1.7416 -0.8501
  324MOL0     H44710   4.384   4.864   7.159  1.4822 -0.6546 -1.0853
  324MOL0     H44711   4.345   5.035   7.153  0.7903  0.4749  0.2481
  324MOL0     H44712   4.451   4.953   7.029 -2.2821 -1.2087 -0.6172
  325MOL0     O44713   0.091   5.241   3.588 -0.4411  0.6430  0.0486
  325MOL0     C44714  -0.011   5.289   3.550  0.5886 -0.3566 -0.4839
  325MOL0     O44715  -0.022   5.387   3.465  0.0069  0.0898 -0.2332
  325MOL0     C44716   0.097   5.435   3.415 -0.4406  0.9016 -0.2525
  325MOL0     C44717   0.155   5.555   3.467 -0.4386  0.2927  0.2136
  325MOL0     C44718   0.279   5.601   3.417 -0.7794 -0.0050 -0.2482
  325MOL0     C44719   0.354   5.527   3.329  0.8889  0.2617  0.0392
  325MOL0     O44720   0.473   5.583   3.284  0.2942 -0.2054 -0.6869
  325MOL0     C44721   0.566   5.504   3.210  0.0939  0.4913  0.4349
  325MOL0     C44722   0.529   5.523   3.062 -0.4509  0.6568 -0.5322
  325MOL0     C44723   0.624   5.466   2.969 -0.3593  0.2333  0.5671
  325MOL0     C44724   0.580   5.479   2.821 -0.5634 -0.9014  0.2551
  325MOL0     C44725   0.688   5.408   2.738  0.5549 -0.5909 -0.2239
  325MOL0     C44726   0.724   5.448   2.596  0.2967  0.0188 -0.5956
  325MOL0     C44727   0.796   5.582   2.609  0.7731 -1.3555  0.2572
  325MOL0     C44728   0.863   5.617   2.471  0.8535  1.2817 -0.4374
  325MOL0     N44729   0.994   5.546   2.455 -0.3661  0.1098  0.0430
  325MOL0     C44730   1.068   5.557   2.345 -0.5325  0.1484 -0.4474
  325MOL0     C44731   1.184   5.495   2.377  0.2262  0.0477 -0.3079
  325MOL0     C44732   1.298   5.479   2.282  0.8372  0.2540  0.3174
  325MOL0     C44733   1.265   5.497   2.136 -0.5068 -0.3584  0.8658
  325MOL0     C44734   1.387   5.456   2.046 -0.0042 -0.2588  0.1860
  325MOL0     C44735   1.515   5.523   2.092  0.5362  0.3179 -0.1582
  325MOL0     O44736   1.615   5.485   2.001 -0.2445  0.1157  0.0393
  325MOL0     C44737   1.751   5.496   2.024  0.7930 -0.2858  0.4446
  325MOL0     C44738   1.818   5.553   2.136 -0.4326  0.3912 -0.3853
  325MOL0     C44739   1.959   5.561   2.151  0.2464  0.4150  0.5499
  325MOL0     C44740   2.017   5.631   2.269 -0.7332 -0.6526 -0.5059
  325MOL0     C44741   2.034   5.508   2.044  0.2382 -0.5201  0.0804
  325MOL0     C44742   2.180   5.522   2.028 -0.3296 -0.3653 -0.1359
  325MOL0     O44743   2.241   5.419   1.961  0.2588  0.9098  0.5528
  325MOL0     C44744   2.379   5.417   1.951 -0.4415 -0.8324  1.1389
  325MOL0     C44745   2.441   5.398   1.818 -0.5346 -0.3902 -0.3543
  325MOL0     C44746   2.578   5.398   1.799  0.7335  0.2276  0.2582
  325MOL0     C44747   2.660   5.410   1.910  0.0986  0.3176 -0.3726
  325MOL0     O44748   2.791   5.393   1.870 -0.1658 -0.6062  0.3182
  325MOL0     C44749   2.887   5.408   1.975 -0.3095  0.1945  0.2142
  325MOL0     C44750   3.027   5.366   1.917 -0.5299  0.3951  0.0757
  325MOL0     C44751   3.144   5.348   2.020  0.8700 -0.1011 -0.2505
  325MOL0     C44752   3.185   5.491   2.037 -0.5426 -0.3705  0.2344
  325MOL0     C44753   3.286   5.517   2.147  0.5309 -0.0031 -0.4868
  325MOL0     C44754   3.419   5.444   2.134 -0.5055  0.2717 -0.3283
  325MOL0     C44755   3.512   5.486   2.018  1.3617 -0.1744  0.3208
  325MOL0     C44756   3.648   5.416   2.009  0.3449 -0.2176 -0.5720
  325MOL0    Cl44757   3.762   5.503   2.119  0.1859 -0.1398 -0.2648
  325MOL0     C44758   2.601   5.424   2.037 -1.3786 -0.6395  1.3139
  325MOL0     C44759   2.460   5.422   2.052 -0.4680  0.5670 -0.5880
  325MOL0     O44760   2.237   5.619   2.063 -0.4343  0.3911 -0.4752
  325MOL0     C44761   1.973   5.437   1.941  0.3642  0.3745  0.3533
  325MOL0     C44762   1.834   5.433   1.935  0.5990 -0.3150 -0.5301
  325MOL0     N44763   1.173   5.455   2.512  0.0760  0.7731 -0.1315
  325MOL0     N44764   1.061   5.482   2.553  0.2975 -0.4374 -0.1916
  325MOL0     C44765   0.295   5.407   3.278 -0.3417  0.2378  0.2108
  325MOL0     C44766   0.172   5.361   3.323 -0.2581 -0.5620 -0.6928
  325MOL0     C44767  -0.138   5.240   3.604  0.4639  0.0480  0.6605
  325MOL0     C44768  -0.234   5.328   3.636 -0.6732  0.0673 -0.2154
  325MOL0     C44769  -0.349   5.292   3.717 -1.0823 -0.1038  0.1644
  325MOL0     C44770  -0.381   5.162   3.746 -0.6145 -0.3283 -0.4827
  325MOL0     O44771  -0.503   5.136   3.807 -0.7461  0.0172 -0.0905
  325MOL0     C44772  -0.517   5.011   3.868 -0.1959  0.3377 -0.2238
  325MOL0     C44773  -0.427   5.001   3.995  0.1864 -0.4158 -0.8423
  325MOL0     C44774  -0.445   4.872   4.084  0.3778 -0.0164 -0.1704
  325MOL0     C44775  -0.323   4.857   4.172  0.5155  0.1901  0.1809
  325MOL0     C44776  -0.307   4.969   4.263 -0.4469 -0.4255  0.7907
  325MOL0     C44777  -0.292   5.059   4.344 -0.2140  1.0417  0.5650
  325MOL0     C44778  -0.292   5.071   3.691  0.2134  0.1006 -0.2526
  325MOL0     C44779  -0.168   5.103   3.631  0.2178  0.5749  0.6641
  325MOL0     C44780  -0.071   5.000   3.581 -0.0132 -0.1022  0.0780
  325MOL0     H44781   0.100   5.624   3.531  0.5942  0.4399  0.9722
  325MOL0     H44782   0.306   5.704   3.440 -0.7737 -0.3332  1.3044
  325MOL0     H44783   0.554   5.400   3.241 -1.8366 -0.3917 -2.8834
  325MOL0     H44784   0.671   5.530   3.227  0.2498 -0.3190  0.7812
  325MOL0     H44785   0.439   5.464   3.041  1.5413 -3.1330  0.6348
  325MOL0     H44786   0.520   5.630   3.040  0.1213  0.5914 -1.1425
  325MOL0     H44787   0.712   5.528   2.985  0.6062 -1.0813  0.4749
  325MOL0     H44788   0.637   5.360   2.994 -2.8643 -0.7239 -1.6607
  325MOL0     H44789   0.478   5.445   2.801 -0.2482 -0.1739 -3.0256
  325MOL0     H44790   0.589   5.586   2.802  1.5790 -0.7544  1.6999
  325MOL0     H44791   0.649   5.306   2.742 -0.9636 -0.0160  0.4156
  325MOL0     H44792   0.781   5.408   2.797 -0.6272 -0.6543  1.7141
  325MOL0     H44793   0.786   5.377   2.541  0.6859 -0.4072  0.3567
  325MOL0     H44794   0.631   5.455   2.539 -2.1965 -2.8273  2.6959
  325MOL0     H44795   0.870   5.589   2.689  1.0553  2.4654 -0.1695
  325MOL0     H44796   0.722   5.662   2.619  1.0946 -0.8050 -1.5577
  325MOL0     H44797   0.787   5.580   2.402 -0.6764  1.4506  1.0746
  325MOL0     H44798   0.866   5.724   2.445  1.4621  0.9099 -1.9931
  325MOL0     H44799   1.043   5.608   2.253 -1.4035 -1.7876 -1.3398
  325MOL0     H44800   1.349   5.385   2.308  0.4348  0.0964  0.5335
  325MOL0     H44801   1.363   5.563   2.311  0.4236  0.0985  1.8075
  325MOL0     H44802   1.177   5.438   2.111 -1.0756  1.5999 -2.3572
  325MOL0     H44803   1.243   5.602   2.114  0.5123 -0.9169 -4.1540
  325MOL0     H44804   1.409   5.350   2.054  0.8577  0.0252  2.6725
  325MOL0     H44805   1.370   5.484   1.942 -0.5569 -0.1595  0.2986
  325MOL0     H44806   1.508   5.632   2.099 -1.3110  0.1685  1.3886
  325MOL0     H44807   1.536   5.496   2.196  0.1083  3.5681  0.8882
  325MOL0     H44808   1.751   5.589   2.214  0.4128 -0.2374  0.6642
  325MOL0     H44809   2.093   5.556   2.293 -0.9113 -1.3601 -2.0308
  325MOL0     H44810   1.951   5.646   2.355  0.7229 -1.1584  0.7422
  325MOL0     H44811   2.060   5.727   2.236 -2.2051 -0.4417 -1.9036
  325MOL0     H44812   2.375   5.400   1.732 -0.3089  2.6594 -0.5476
  325MOL0     H44813   2.626   5.388   1.702 -1.7853 -0.6275 -0.9840
  325MOL0     H44814   2.884   5.513   2.005 -0.5920 -0.0445  1.0567
  325MOL0     H44815   2.872   5.341   2.060  3.3649  0.4068  1.1953
  325MOL0     H44816   3.009   5.267   1.872 -1.4169  0.6747 -0.2036
  325MOL0     H44817   3.056   5.437   1.839  1.2591  1.0357  1.2699
  325MOL0     H44818   3.226   5.286   1.982  0.3403 -0.9095 -0.0936
  325MOL0     H44819   3.100   5.299   2.107 -0.7006  0.0124 -0.9397
  325MOL0     H44820   3.103   5.561   2.058 -0.2996 -0.0751  0.2076
  325MOL0     H44821   3.231   5.527   1.944  0.4152 -3.8531 -0.7661
  325MOL0     H44822   3.317   5.621   2.161 -1.8280  0.6442  0.3734
  325MOL0     H44823   3.228   5.490   2.236  2.0937  2.9100  1.5865
  325MOL0     H44824   3.402   5.336   2.131  1.1581 -0.0060 -0.8096
  325MOL0     H44825   3.478   5.469   2.223 -0.9660  0.0183  0.0555
  325MOL0     H44826   3.526   5.593   2.003 -0.9221  0.0709 -0.4252
  325MOL0     H44827   3.463   5.461   1.923  3.4611 -0.7586 -0.6704
  325MOL0     H44828   3.682   5.430   1.906  1.8288  3.8639  0.2814
  325MOL0     H44829   3.646   5.311   2.039  2.6302  0.2796  1.6617
  325MOL0     H44830   2.668   5.425   2.122  1.5888 -1.4774 -0.8390
  325MOL0     H44831   2.422   5.425   2.154 -0.9284 -1.6041 -0.6542
  325MOL0     H44832   2.031   5.391   1.861 -0.2869 -1.0022  0.6573
  325MOL0     H44833   1.780   5.374   1.861 -1.0926 -1.1814  1.2907
  325MOL0     H44834   0.350   5.352   3.202  0.6714  0.0992  1.0113
  325MOL0     H44835   0.130   5.266   3.293 -0.8575 -0.8749  1.0446
  325MOL0     H44836  -0.213   5.432   3.613  0.1115 -0.4230 -1.8663
  325MOL0     H44837  -0.407   5.378   3.749  3.1299  2.5607  1.5882
  325MOL0     H44838  -0.620   4.990   3.899 -0.4115 -0.6818 -1.5718
  325MOL0     H44839  -0.490   4.931   3.799  1.5360 -0.1810  0.9788
  325MOL0     H44840  -0.447   5.075   4.072 -1.5055 -1.4689 -0.2194
  325MOL0     H44841  -0.320   5.007   3.971  0.7787 -0.2921  1.6233
  325MOL0     H44842  -0.532   4.891   4.148 -0.7522 -1.7978 -1.0830
  325MOL0     H44843  -0.449   4.785   4.017  1.1803  2.2381 -3.3662
  325MOL0     H44844  -0.240   4.831   4.106 -1.7406 -0.4554 -2.6626
  325MOL0     H44845  -0.335   4.762   4.226  1.1885 -0.1163 -0.2000
  325MOL0     H44846  -0.278   5.139   4.413 -0.3365 -0.1412  1.9942
  325MOL0     H44847  -0.315   4.965   3.702  2.4685 -0.7922 -3.1051
  325MOL0     H44848  -0.057   5.014   3.473  1.8651  2.5241  0.5895
  325MOL0     H44849   0.022   5.012   3.637  1.0798 -2.1750 -1.1711
  325MOL0     H44850  -0.098   4.895   3.594  1.6306 -0.4813  0.5709
  326MOL0     O44851   9.775   6.484   9.436 -0.5023  0.2652 -0.2025
  326MOL0     C44852   9.838   6.410   9.358 -0.0473 -0.1804 -0.1323
  326MOL0     O44853   9.967   6.366   9.378 -0.4203 -0.2353  0.4728
  326MOL0     C44854  10.010   6.342   9.501  0.9731  0.0847  0.3453
  326MOL0     C44855   9.934   6.298   9.604  0.2809 -0.6584  0.2948
  326MOL0     C44856   9.994   6.259   9.729 -0.4621 -0.1366  0.3957
  326MOL0     C44857  10.129   6.274   9.755  0.7001  0.0742  0.9366
  326MOL0     O44858  10.183   6.236   9.867 -0.5819  0.0893  0.4636
  326MOL0     C44859  10.237   6.101   9.864 -0.0177 -0.5585 -0.4427
  326MOL0     C44860  10.276   6.051  10.003  0.2781  0.5538  0.6709
  326MOL0     C44861  10.375   5.934   9.993 -0.0630  0.7442  0.5506
  326MOL0     C44862  10.295   5.804   9.977  0.5032  0.6902 -0.4742
  326MOL0     C44863  10.376   5.673  10.001 -0.2125 -0.1003 -0.2779
  326MOL0     C44864  10.343   5.556   9.907 -0.6794  0.9199  0.1778
  326MOL0     C44865  10.201   5.501   9.919 -0.2948 -0.7587 -0.2165
  326MOL0     C44866  10.162   5.464  10.064 -0.3329 -1.4102 -0.5826
  326MOL0     N44867  10.033   5.396  10.079  0.6137 -0.0173  0.3404
  326MOL0     C44868   9.979   5.291   9.992  0.3803 -0.3069 -0.5833
  326MOL0     C44869   9.851   5.260  10.039  0.0724  0.5263 -0.2779
  326MOL0     C44870   9.759   5.162   9.980 -0.3289  0.6049  0.0312
  326MOL0     C44871   9.802   5.019  10.021  0.4855  0.4702 -0.5258
  326MOL0     C44872   9.914   4.951   9.932  0.2171 -0.0669 -0.1753
  326MOL0     C44873   9.889   4.912   9.781  0.6379 -0.0683  0.4096
  326MOL0     O44874   9.883   5.021   9.687  0.2736  0.2285 -0.0995
  326MOL0     C44875   9.999   5.093   9.667  0.5884  0.5425 -0.7088
  326MOL0     C44876   9.973   5.224   9.619  0.1667  1.0719 -0.4043
  326MOL0     C44877  10.079   5.304   9.576  0.5048 -1.7433 -0.6812
  326MOL0     C44878  10.047   5.435   9.517 -0.5287 -0.2570  0.4372
  326MOL0     C44879  10.212   5.252   9.591  0.0833 -0.9789  0.0553
  326MOL0     C44880  10.337   5.333   9.554 -0.0092  0.0654 -0.6339
  326MOL0     O44881  10.450   5.255   9.542  0.6232  0.2192  1.0382
  326MOL0     C44882  10.559   5.322   9.491 -0.1605 -0.3401 -0.5345
  326MOL0     C44883  10.580   5.328   9.356 -0.0016  0.6947 -0.1107
  326MOL0     C44884  10.675   5.415   9.294  0.6104  0.0750  0.2658
  326MOL0     C44885  10.764   5.485   9.377  0.6497 -0.5697  0.5808
  326MOL0     O44886  10.866   5.560   9.321 -0.7241 -0.0142 -0.4128
  326MOL0     C44887  10.894   5.552   9.176  0.4556  1.0702  0.4535
  326MOL0     C44888  11.026   5.624   9.151  0.2122  0.1880  0.3320
  326MOL0     C44889  11.039   5.627   8.996 -0.7167  0.3802 -0.8902
  326MOL0     C44890  11.180   5.675   8.974  0.3913  0.8903 -0.3525
  326MOL0     C44891  11.225   5.688   8.820  0.3315 -0.7107 -0.3381
  326MOL0     C44892  11.318   5.578   8.758 -0.6621 -0.1871 -0.3576
  326MOL0     C44893  11.451   5.579   8.838 -0.2361  0.3627  0.9603
  326MOL0     C44894  11.546   5.475   8.781 -0.6414  0.0792  0.5480
  326MOL0    Cl44895  11.487   5.307   8.801 -0.1416  0.3558 -0.1233
  326MOL0     C44896  10.739   5.482   9.507 -0.1044  0.0220  0.1095
  326MOL0     C44897  10.638   5.409   9.570  0.3541  0.1944 -0.4464
  326MOL0     O44898  10.335   5.462   9.556 -0.1854 -0.4001  0.9385
  326MOL0     C44899  10.229   5.129   9.658 -0.4044 -0.1915 -0.1716
  326MOL0     C44900  10.128   5.047   9.693 -0.0242 -0.0910  0.8428
  326MOL0     N44901   9.822   5.346  10.134 -0.1753 -0.6795  0.0440
  326MOL0     N44902   9.923   5.432  10.150  0.1761 -0.2552 -0.4361
  326MOL0     C44903  10.205   6.321   9.648 -0.5605  0.4995  0.7134
  326MOL0     C44904  10.147   6.361   9.529  1.3225 -0.2289 -0.0036
  326MOL0     C44905   9.798   6.387   9.213  0.0662 -0.5980  0.2674
  326MOL0     C44906   9.875   6.298   9.134  0.5313 -0.8249 -0.3891
  326MOL0     C44907   9.839   6.280   8.999 -0.2992  0.1277  0.2636
  326MOL0     C44908   9.721   6.331   8.938  0.1792  0.0306 -0.2216
  326MOL0     O44909   9.707   6.308   8.804 -0.0060 -0.1739 -0.2185
  326MOL0     C44910   9.578   6.326   8.760 -0.1437  0.5875  0.1748
  326MOL0     C44911   9.556   6.261   8.624 -0.0776 -0.5376 -0.2061
  326MOL0     C44912   9.640   6.328   8.511  0.2870  0.3010  0.6411
  326MOL0     C44913   9.622   6.249   8.380 -0.0563 -1.0422  0.5118
  326MOL0     C44914   9.667   6.332   8.267 -0.2720  0.3633 -0.4419
  326MOL0     C44915   9.695   6.391   8.165 -0.2955  0.0645 -0.1952
  326MOL0     C44916   9.652   6.429   9.015  0.1671 -0.1069 -0.6493
  326MOL0     C44917   9.691   6.457   9.148  0.2921 -0.2611 -1.0936
  326MOL0     C44918   9.606   6.548   9.227  0.4214 -0.1505  0.5331
  326MOL0     H44919   9.827   6.280   9.605  0.5229 -2.8634  3.8206
  326MOL0     H44920   9.939   6.217   9.812  0.5941 -1.7044  0.3458
  326MOL0     H44921  10.319   6.083   9.794 -0.2547 -0.2997 -0.7911
  326MOL0     H44922  10.161   6.032   9.827 -1.2077  0.0673  0.7274
  326MOL0     H44923  10.316   6.130  10.067  1.4585  1.1407 -0.7309
  326MOL0     H44924  10.187   6.021  10.059 -0.1511  0.3111 -0.1236
  326MOL0     H44925  10.452   5.944   9.916 -2.1176 -1.9293 -2.0898
  326MOL0     H44926  10.436   5.943  10.083 -0.0792  2.2786  0.4509
  326MOL0     H44927  10.214   5.801  10.050 -0.2500 -0.5487 -1.3102
  326MOL0     H44928  10.253   5.803   9.876  1.7926 -0.2790 -1.0325
  326MOL0     H44929  10.348   5.640  10.101  2.5898 -0.2160  0.5745
  326MOL0     H44930  10.485   5.685  10.001 -0.3727  1.6874 -1.3062
  326MOL0     H44931  10.368   5.583   9.804  0.5226  0.1577  0.2474
  326MOL0     H44932  10.405   5.469   9.930 -1.1730  0.5955  0.2926
  326MOL0     H44933  10.194   5.415   9.852  0.0303 -2.8818  2.3199
  326MOL0     H44934  10.133   5.582   9.889  1.7294 -0.0422 -3.3877
  326MOL0     H44935  10.249   5.412  10.105  0.2289 -1.2369 -1.5264
  326MOL0     H44936  10.148   5.554  10.126 -2.6211 -0.1813 -2.7253
  326MOL0     H44937  10.043   5.246   9.916  2.3643  0.3800  0.5918
  326MOL0     H44938   9.763   5.172   9.871 -0.7984  0.7001  0.0209
  326MOL0     H44939   9.658   5.190  10.010 -0.5947  0.3723 -0.6305
  326MOL0     H44940   9.844   5.011  10.122 -1.2997  0.5480  0.2456
  326MOL0     H44941   9.721   4.947  10.011  1.5861 -0.9147  0.2762
  326MOL0     H44942  10.008   5.008   9.931 -1.0017  2.0511 -1.0902
  326MOL0     H44943   9.928   4.850   9.972 -0.3163 -0.9693 -2.1845
  326MOL0     H44944   9.969   4.842   9.756  0.2680 -0.2169 -0.3642
  326MOL0     H44945   9.793   4.860   9.771  1.1869 -0.6193 -4.1968
  326MOL0     H44946   9.870   5.253   9.604 -0.5854 -1.0234  0.4067
  326MOL0     H44947  10.091   5.439   9.417  0.4831  1.8562  0.9170
  326MOL0     H44948  10.085   5.522   9.571 -1.3175  1.1448 -1.1789
  326MOL0     H44949   9.941   5.451   9.499 -0.1779 -1.1141 -2.9836
  326MOL0     H44950  10.508   5.267   9.302  0.4302  0.6962 -0.7015
  326MOL0     H44951  10.669   5.427   9.186 -3.3072 -1.1958  0.1523
  326MOL0     H44952  10.895   5.451   9.136 -0.0998  1.8673 -1.7096
  326MOL0     H44953  10.821   5.609   9.118  2.2091  1.9278 -1.0095
  326MOL0     H44954  11.019   5.718   9.207 -1.5271 -1.1081  2.4427
  326MOL0     H44955  11.095   5.561   9.207 -1.6455 -2.8430 -0.4904
  326MOL0     H44956  10.965   5.688   8.943  1.3639  2.5274 -1.4891
  326MOL0     H44957  11.035   5.527   8.951 -0.9178 -0.6847  1.3364
  326MOL0     H44958  11.243   5.608   9.033 -1.1141 -1.7306 -1.4960
  326MOL0     H44959  11.171   5.775   9.016  0.0032  0.3976  0.7858
  326MOL0     H44960  11.135   5.690   8.759  0.7217 -0.1044 -0.9139
  326MOL0     H44961  11.268   5.789   8.819 -1.9665  0.3214 -0.5181
  326MOL0     H44962  11.317   5.609   8.653 -0.5366  1.4448  0.0883
  326MOL0     H44963  11.260   5.486   8.759 -1.9550  0.4066 -4.4983
  326MOL0     H44964  11.433   5.577   8.946 -0.7993  1.3819  0.9094
  326MOL0     H44965  11.499   5.675   8.817 -1.2854  0.5007 -1.0227
  326MOL0     H44966  11.632   5.476   8.849 -0.6841  0.5808  0.5982
  326MOL0     H44967  11.566   5.494   8.675 -0.5420 -2.7634 -0.0206
  326MOL0     H44968  10.798   5.550   9.568  1.5579 -1.8431  0.6933
  326MOL0     H44969  10.609   5.413   9.675  1.5956 -1.7534  0.0187
  326MOL0     H44970  10.325   5.087   9.687 -1.8799 -2.5808  1.6463
  326MOL0     H44971  10.161   4.953   9.736  3.8315  1.6904  2.2869
  326MOL0     H44972  10.313   6.323   9.657 -0.3331 -2.7690  0.0538
  326MOL0     H44973  10.205   6.393   9.443 -0.7583 -0.1609 -1.4638
  326MOL0     H44974   9.974   6.260   9.160  0.1331 -2.2570 -0.8598
  326MOL0     H44975   9.913   6.224   8.944  2.3785  0.4188  3.2860
  326MOL0     H44976   9.509   6.281   8.832  1.1028 -2.7774 -0.5715
  326MOL0     H44977   9.551   6.433   8.757  0.3993  0.7581  1.1346
  326MOL0     H44978   9.449   6.268   8.605 -0.5559 -0.1599  2.3099
  326MOL0     H44979   9.588   6.157   8.629 -0.4197 -0.7308 -1.5706
  326MOL0     H44980   9.612   6.434   8.503  1.3298  0.5160 -0.5393
  326MOL0     H44981   9.747   6.329   8.533  1.4537  0.9262 -4.0082
  326MOL0     H44982   9.517   6.225   8.364  0.0389 -1.1863  0.0596
  326MOL0     H44983   9.688   6.162   8.392  1.7134  0.1554 -0.0557
  326MOL0     H44984   9.724   6.442   8.075  1.9416  3.7547  2.3578
  326MOL0     H44985   9.584   6.502   8.972 -0.8724 -0.4295  0.4053
  326MOL0     H44986   9.515   6.581   9.176  0.2875 -2.8763 -1.2160
  326MOL0     H44987   9.573   6.497   9.317 -2.0144  0.1513 -0.0990
  326MOL0     H44988   9.662   6.638   9.255  0.7668 -0.3936  0.6283
  327MOL0     O44989   5.900  10.355   6.520  0.5558  0.4235 -1.3938
  327MOL0     C44990   5.867  10.467   6.573 -0.2853  0.0597 -0.5132
  327MOL0     O44991   5.947  10.564   6.629 -0.0052 -0.1231  0.1525
  327MOL0     C44992   6.076  10.582   6.582  0.4823  0.6078 -1.2263
  327MOL0     C44993   6.183  10.548   6.672 -0.0428 -0.1101 -0.0817
  327MOL0     C44994   6.312  10.573   6.621 -0.9687  0.4557 -1.0155
  327MOL0     C44995   6.328  10.623   6.494  0.5915 -0.4389 -0.9019
  327MOL0     O44996   6.458  10.641   6.450  0.2029 -0.3004  0.2802
  327MOL0     C44997   6.482  10.723   6.337  0.5050  0.3917  0.8968
  327MOL0     C44998   6.631  10.749   6.331 -0.9397  0.2150 -0.1792
  327MOL0     C44999   6.678  10.843   6.444 -0.0182  0.0035  0.8599
  327MOL0     C45000   6.666  10.993   6.400  0.4983 -0.4254  0.3658
  327MOL0     C45001   6.773  11.067   6.305 -0.1980  0.0716 -0.0369
  327MOL0     C45002   6.915  11.078   6.359 -0.4544  0.0189  0.2528
  327MOL0     C45003   7.022  11.090   6.241  0.3898  0.4989  0.3837
  327MOL0     C45004   7.008  11.215   6.154  0.4675 -0.2280 -0.0322
  327MOL0     N45005   7.131  11.226   6.072 -0.3327 -0.4661  0.4075
  327MOL0     C45006   7.248  11.296   6.110  0.3691  0.6261  0.5142
  327MOL0     C45007   7.341  11.257   6.012  0.1126  0.1292 -0.1107
  327MOL0     C45008   7.488  11.322   5.998 -0.1765  0.1721  0.7475
  327MOL0     C45009   7.597  11.240   6.054 -0.5193  0.6005  0.6880
  327MOL0     C45010   7.647  11.308   6.190  0.0397  0.1411  0.9432
  327MOL0     C45011   7.745  11.216   6.267  0.6114  0.6352 -0.1956
  327MOL0     O45012   7.842  11.139   6.185 -0.0323  0.5544 -0.2077
  327MOL0     C45013   7.978  11.163   6.197 -0.4124  0.2924  0.6690
  327MOL0     C45014   8.055  11.196   6.091  0.1472 -0.9026  0.4243
  327MOL0     C45015   8.192  11.240   6.106 -0.4215  0.2231 -1.0621
  327MOL0     C45016   8.253  11.304   5.984 -0.0401  0.0931 -0.8014
  327MOL0     C45017   8.262  11.218   6.224  0.6475 -0.7526 -0.2170
  327MOL0     C45018   8.411  11.228   6.245 -0.0225 -0.1349  0.1047
  327MOL0     O45019   8.476  11.292   6.149  0.0327 -0.2482  0.5552
  327MOL0     C45020   8.615  11.293   6.165 -0.1132 -0.3036 -0.0802
  327MOL0     C45021   8.692  11.194   6.119 -0.1290  0.0932 -0.0097
  327MOL0     C45022   8.834  11.204   6.111 -0.6550 -0.6479 -0.2480
  327MOL0     C45023   8.889  11.333   6.138  0.0667  0.3531  0.0449
  327MOL0     O45024   9.024  11.342   6.123 -0.5049  0.2778  0.7158
  327MOL0     C45025   9.091  11.293   6.006 -0.0616  0.0969  1.2001
  327MOL0     C45026   9.243  11.348   6.001  0.3089 -0.0363  0.0958
  327MOL0     C45027   9.320  11.273   6.108 -0.4756  0.5546  0.3426
  327MOL0     C45028   9.474  11.317   6.119 -0.1720  0.3136  0.1814
  327MOL0     C45029   9.532  11.258   6.244 -0.1192 -0.0831 -0.1767
  327MOL0     C45030   9.687  11.252   6.251 -0.3664 -0.0579 -1.3616
  327MOL0     C45031   9.742  11.397   6.264  0.4087  0.1455 -0.3295
  327MOL0     C45032   9.891  11.391   6.305 -0.5619  0.3202  0.3955
  327MOL0    Cl45033   9.989  11.319   6.175  0.2565  0.0274  0.2239
  327MOL0     C45034   8.809  11.436   6.182  0.9785 -0.0700  0.7372
  327MOL0     C45035   8.667  11.414   6.200  0.6284 -0.2416 -0.0140
  327MOL0     O45036   8.454  11.183   6.353 -0.2647 -0.2663  0.9509
  327MOL0     C45037   8.182  11.173   6.329 -0.7874 -0.3340 -0.9192
  327MOL0     C45038   8.045  11.148   6.324 -0.3640 -0.3950  0.2489
  327MOL0     N45039   7.281  11.163   5.928 -0.6093 -0.1109  0.0588
  327MOL0     N45040   7.156  11.146   5.970  0.0421 -0.2061 -0.0841
  327MOL0     C45041   6.217  10.653   6.418  0.6022  0.5839  0.3206
  327MOL0     C45042   6.092  10.635   6.460  0.4515  0.7936 -0.5942
  327MOL0     C45043   5.726  10.479   6.609 -0.3487 -0.7444 -0.8670
  327MOL0     C45044   5.645  10.364   6.612 -0.9243 -0.6218  1.3425
  327MOL0     C45045   5.514  10.363   6.644 -1.0051  0.1297 -0.3756
  327MOL0     C45046   5.456  10.477   6.688  0.2170 -0.2243 -0.4059
  327MOL0     O45047   5.325  10.463   6.721 -0.0448 -0.7772 -0.5277
  327MOL0     C45048   5.260  10.561   6.811  0.6084 -0.7073  0.5177
  327MOL0     C45049   5.331  10.560   6.952 -0.1026  0.0553  0.5671
  327MOL0     C45050   5.330  10.416   7.013 -0.1144  0.0381 -1.1577
  327MOL0     C45051   5.379  10.420   7.161  0.3893 -0.5622 -0.2288
  327MOL0     C45052   5.363  10.288   7.223 -0.3803  0.4707 -0.2303
  327MOL0     C45053   5.337  10.186   7.288  0.2102  0.3414  0.3342
  327MOL0     C45054   5.530  10.594   6.681 -0.0946  0.4201 -0.0586
  327MOL0     C45055   5.661  10.601   6.644 -0.3202  0.4629 -0.2421
  327MOL0     C45056   5.726  10.737   6.633 -0.8857  1.0834  0.0691
  327MOL0     H45057   6.154  10.519   6.773 -0.7310  0.5436 -0.0852
  327MOL0     H45058   6.399  10.552   6.683 -0.1294  1.1534 -1.9343
  327MOL0     H45059   6.427  10.818   6.337 -1.2554 -0.5701  1.6856
  327MOL0     H45060   6.449  10.671   6.247  0.3365  1.1196  0.5317
  327MOL0     H45061   6.688  10.657   6.353 -0.1744  0.9037  0.8565
  327MOL0     H45062   6.657  10.777   6.229 -0.0725 -1.9238 -0.6136
  327MOL0     H45063   6.619  10.828   6.535 -0.9183  0.5804  0.3832
  327MOL0     H45064   6.782  10.809   6.450 -0.9290 -3.1493  0.6714
  327MOL0     H45065   6.565  10.999   6.357  1.4803 -2.5541 -2.6146
  327MOL0     H45066   6.665  11.051   6.493  2.7263  1.8173 -0.8787
  327MOL0     H45067   6.732  11.162   6.271 -2.8100 -0.7366  0.6228
  327MOL0     H45068   6.777  11.002   6.217  0.0218 -0.4302  0.3353
  327MOL0     H45069   6.923  11.165   6.425  0.4696 -0.0413  0.2296
  327MOL0     H45070   6.934  10.989   6.418 -1.6487 -1.3485 -1.3283
  327MOL0     H45071   7.005  10.996   6.188 -0.4332 -0.7640  2.7207
  327MOL0     H45072   7.123  11.067   6.277 -0.8702 -2.7595  2.2719
  327MOL0     H45073   6.919  11.206   6.091  0.2342 -1.1612  0.4209
  327MOL0     H45074   6.993  11.301   6.219  2.6085  0.1307  0.0629
  327MOL0     H45075   7.261  11.358   6.198 -2.2664  0.9237  0.7898
  327MOL0     H45076   7.491  11.424   6.038 -4.1499  1.5119 -1.7267
  327MOL0     H45077   7.502  11.334   5.890 -3.5729  0.2903  0.1991
  327MOL0     H45078   7.555  11.139   6.063 -4.2475  1.7814 -1.5466
  327MOL0     H45079   7.680  11.241   5.983  0.1004  0.4109  1.3917
  327MOL0     H45080   7.691  11.405   6.165 -3.8932  1.3134 -2.4994
  327MOL0     H45081   7.557  11.329   6.247 -1.8180 -3.5216 -0.3182
  327MOL0     H45082   7.796  11.283   6.337 -2.9910 -0.4243  3.9063
  327MOL0     H45083   7.682  11.140   6.316  1.3915 -1.7932 -2.6999
  327MOL0     H45084   8.010  11.190   5.993  1.7882  0.5520 -0.4692
  327MOL0     H45085   8.193  11.361   5.913  0.3117  1.3437 -0.1388
  327MOL0     H45086   8.322  11.240   5.930  1.9721 -0.8939  2.5964
  327MOL0     H45087   8.304  11.394   6.020 -1.0839  0.9503 -1.3995
  327MOL0     H45088   8.640  11.099   6.104 -0.4918  0.5598 -1.9632
  327MOL0     H45089   8.898  11.121   6.084  0.9169  0.1263  0.9451
  327MOL0     H45090   9.083  11.184   6.002  0.4931  0.0864 -1.0347
  327MOL0     H45091   9.043  11.328   5.915 -1.7667 -2.1449  1.1490
  327MOL0     H45092   9.282  11.324   5.902  0.5489 -0.1301  0.2142
  327MOL0     H45093   9.246  11.456   6.015  2.8135  0.4104 -2.9326
  327MOL0     H45094   9.308  11.170   6.074 -1.3370  0.4212  1.0047
  327MOL0     H45095   9.263  11.285   6.201 -1.3928 -3.2384  0.4625
  327MOL0     H45096   9.487  11.426   6.126 -0.0907  0.2407  1.4434
  327MOL0     H45097   9.520  11.292   6.023 -0.4076 -0.5213  0.2817
  327MOL0     H45098   9.491  11.318   6.326  2.2685  0.5018  0.6630
  327MOL0     H45099   9.502  11.154   6.255  2.3567 -0.6343  2.1625
  327MOL0     H45100   9.736  11.198   6.170  2.8686 -0.2580  0.5335
  327MOL0     H45101   9.706  11.191   6.340  2.7636  1.9213 -0.5446
  327MOL0     H45102   9.697  11.448   6.350 -1.3531 -1.2656 -0.3585
  327MOL0     H45103   9.723  11.461   6.177 -1.3588 -1.1992 -0.9905
  327MOL0     H45104   9.906  11.336   6.398 -2.4132  1.0442  1.1686
  327MOL0     H45105   9.927  11.493   6.319 -2.5355  0.7488  3.0757
  327MOL0     H45106   8.857  11.530   6.206  2.7359  0.1541 -2.8598
  327MOL0     H45107   8.607  11.497   6.236 -0.2069 -1.8611  2.5730
  327MOL0     H45108   8.237  11.148   6.420 -1.2389  0.3094 -0.4613
  327MOL0     H45109   7.992  11.123   6.415  0.3516  1.7595  1.3390
  327MOL0     H45110   6.236  10.681   6.315  1.5610 -0.6769  0.1402
  327MOL0     H45111   6.006  10.673   6.406 -0.4389 -0.4413 -0.1023
  327MOL0     H45112   5.685  10.267   6.589  0.7078  0.9994 -4.0390
  327MOL0     H45113   5.456  10.272   6.646 -1.4894  0.4477  0.1890
  327MOL0     H45114   5.254  10.660   6.765  1.4813 -0.7690  0.2411
  327MOL0     H45115   5.160  10.529   6.839  0.5944  0.9127  2.5962
  327MOL0     H45116   5.280  10.634   7.014  1.9426  0.4032  1.9404
  327MOL0     H45117   5.436  10.584   6.932 -0.3154  0.2510 -0.3469
  327MOL0     H45118   5.225  10.383   7.019 -1.1438  3.0007 -1.4348
  327MOL0     H45119   5.389  10.342   6.958 -1.5324 -0.4922 -2.0329
  327MOL0     H45120   5.320  10.499   7.210 -0.1122  0.6474 -2.6057
  327MOL0     H45121   5.479  10.460   7.178 -0.5346  2.1148 -0.4691
  327MOL0     H45122   5.307  10.103   7.348 -1.6755  1.4466  0.9946
  327MOL0     H45123   5.476  10.686   6.701  0.6241  0.4943  1.7627
  327MOL0     H45124   5.655  10.819   6.621 -0.0786  2.0525  1.6281
  327MOL0     H45125   5.779  10.757   6.726 -0.4323 -2.0117  0.5770
  327MOL0     H45126   5.790  10.748   6.545 -0.9502 -1.6804 -0.4191
  328MOL0     O45127   7.285   5.849   5.754 -0.2610  0.5861  0.5979
  328MOL0     C45128   7.303   5.952   5.823  0.0676  0.3900 -0.4581
  328MOL0     O45129   7.417   6.020   5.835 -0.6856 -0.1597  0.6028
  328MOL0     C45130   7.527   5.973   5.768  0.2860 -0.7300  0.7545
  328MOL0     C45131   7.539   6.014   5.640  0.1599 -0.9868  0.0619
  328MOL0     C45132   7.657   5.994   5.566  0.0366  0.4563 -0.3133
  328MOL0     C45133   7.753   5.903   5.623  0.3577  0.5814 -0.6752
  328MOL0     O45134   7.870   5.877   5.566 -0.0917  0.4164 -0.3297
  328MOL0     C45135   7.919   5.980   5.482 -0.1225  0.8393  0.1645
  328MOL0     C45136   8.059   5.949   5.438  0.0294 -0.1894  0.3633
  328MOL0     C45137   8.166   5.978   5.536  0.3281  0.1044  0.8933
  328MOL0     C45138   8.303   5.909   5.503 -0.2933  0.0146  0.2134
  328MOL0     C45139   8.428   5.988   5.533 -0.7178  0.4647  0.2691
  328MOL0     C45140   8.547   5.889   5.573 -0.0533  0.2046  0.0578
  328MOL0     C45141   8.676   5.959   5.624 -0.0183 -0.1830 -0.1442
  328MOL0     C45142   8.760   5.865   5.712 -0.1662 -0.1215 -0.3999
  328MOL0     N45143   8.883   5.919   5.761 -0.3685 -0.8490 -0.7329
  328MOL0     C45144   8.879   6.026   5.847 -1.8685  0.2727  0.0887
  328MOL0     C45145   9.011   6.051   5.873 -1.0859  0.2422 -0.0465
  328MOL0     C45146   9.078   6.166   5.947  0.0767 -0.1608  0.1848
  328MOL0     C45147   9.201   6.130   6.031  0.0055 -0.4721  0.3600
  328MOL0     C45148   9.278   6.258   6.068  0.0520  1.1080 -0.7193
  328MOL0     C45149   9.392   6.215   6.155 -0.1955  0.5322  1.0896
  328MOL0     O45150   9.477   6.329   6.144  0.1360  0.2924 -0.2822
  328MOL0     C45151   9.600   6.322   6.205  0.5222 -0.1358 -0.2746
  328MOL0     C45152   9.626   6.234   6.307 -0.5148 -0.7723 -0.0813
  328MOL0     C45153   9.760   6.236   6.361  0.5043 -0.2552 -0.5143
  328MOL0     C45154   9.789   6.132   6.460 -0.1908 -0.0930  0.3006
  328MOL0     C45155   9.855   6.326   6.315  0.5631 -0.3298  0.6227
  328MOL0     C45156  10.001   6.330   6.350 -0.2922 -0.0846  0.0888
  328MOL0     O45157  10.054   6.449   6.401 -0.3085 -0.0494  0.2065
  328MOL0     C45158  10.183   6.448   6.454 -0.0153 -0.1164  0.2891
  328MOL0     C45159  10.211   6.406   6.579 -0.8823  0.8682  0.8289
  328MOL0     C45160  10.347   6.400   6.630 -0.0946 -0.2807  0.0783
  328MOL0     C45161  10.459   6.432   6.554 -0.2756 -0.5960 -0.5075
  328MOL0     O45162  10.584   6.444   6.611  0.6618 -0.6325  0.8777
  328MOL0     C45163  10.604   6.405   6.745 -0.4371  0.1859 -0.2132
  328MOL0     C45164  10.748   6.425   6.803  0.3727 -0.2104 -0.0684
  328MOL0     C45165  10.791   6.567   6.792 -0.0832 -0.6906 -0.4230
  328MOL0     C45166  10.921   6.602   6.846 -0.7953 -0.8580 -0.5554
  328MOL0     C45167  10.915   6.613   7.004 -0.3128  0.5483  0.1417
  328MOL0     C45168  11.040   6.647   7.082 -0.0039 -0.0402  0.4525
  328MOL0     C45169  11.023   6.636   7.231  0.5863 -0.7666 -0.4456
  328MOL0     C45170  11.151   6.651   7.310 -0.0912  0.3178  0.9156
  328MOL0    Cl45171  11.126   6.688   7.476  0.1121  0.2592 -0.3460
  328MOL0     C45172  10.421   6.485   6.433 -0.8191 -0.7787 -0.8701
  328MOL0     C45173  10.289   6.497   6.388  0.3679 -0.3165  0.4366
  328MOL0     O45174  10.067   6.230   6.332  0.4095 -0.3503 -0.2559
  328MOL0     C45175   9.815   6.418   6.216 -0.1059 -0.1656 -0.3892
  328MOL0     C45176   9.684   6.425   6.172  0.0471  0.9349  0.7744
  328MOL0     N45177   9.089   5.954   5.801  0.7929  0.3040  0.0688
  328MOL0     N45178   9.006   5.873   5.748 -0.9906  0.8082  0.4419
  328MOL0     C45179   7.729   5.850   5.747  0.1524 -0.1719 -0.6169
  328MOL0     C45180   7.620   5.888   5.822  0.0446  1.1637 -0.0826
  328MOL0     C45181   7.193   6.022   5.898 -0.1124  0.3349 -0.2350
  328MOL0     C45182   7.145   6.142   5.845 -0.5077  0.1717 -0.4688
  328MOL0     C45183   7.039   6.204   5.911  0.0113 -0.8093 -0.9756
  328MOL0     C45184   6.976   6.150   6.022  0.1378  0.4675 -0.0078
  328MOL0     O45185   6.885   6.231   6.081  0.1254 -0.1618  0.4290
  328MOL0     C45186   6.803   6.186   6.187 -0.6953  0.3596  0.4549
  328MOL0     C45187   6.877   6.203   6.315 -0.0647 -0.1620  0.5761
  328MOL0     C45188   6.793   6.168   6.437  0.3160 -0.6847  0.1412
  328MOL0     C45189   6.883   6.147   6.562  0.2099  0.4662 -0.4847
  328MOL0     C45190   6.800   6.123   6.681  0.0603  0.2639  0.8383
  328MOL0     C45191   6.746   6.112   6.788  0.6084 -0.3528  1.4155
  328MOL0     C45192   7.021   6.024   6.066  0.0877  0.4113 -0.3195
  328MOL0     C45193   7.130   5.959   6.009  0.7812 -0.6550 -0.3596
  328MOL0     C45194   7.179   5.823   6.059  0.4113 -0.0621 -0.5760
  328MOL0     H45195   7.459   6.065   5.586  0.4285  0.4549  0.9694
  328MOL0     H45196   7.657   6.043   5.469  0.7475  2.8299  0.8193
  328MOL0     H45197   7.917   6.076   5.533 -1.4172 -0.1087  1.9816
  328MOL0     H45198   7.863   5.984   5.388  0.6324  3.3165 -0.2567
  328MOL0     H45199   8.074   5.847   5.403  1.8917  0.8606 -2.2421
  328MOL0     H45200   8.082   6.015   5.354  0.7434  1.5244  1.8295
  328MOL0     H45201   8.181   6.085   5.547 -1.4323  0.3532  1.0851
  328MOL0     H45202   8.133   5.947   5.636 -1.9835  2.1943  0.8750
  328MOL0     H45203   8.304   5.816   5.560 -0.4247  0.0617  0.2943
  328MOL0     H45204   8.302   5.893   5.394 -3.3202  0.0802  0.1369
  328MOL0     H45205   8.409   6.045   5.624 -2.5715  1.4179 -0.6718
  328MOL0     H45206   8.467   6.055   5.456 -2.5583 -0.0786 -1.2067
  328MOL0     H45207   8.507   5.818   5.646 -2.1035  1.0424 -0.1968
  328MOL0     H45208   8.588   5.835   5.487 -0.5059  1.2851 -0.8633
  328MOL0     H45209   8.647   6.051   5.676  3.4509  2.3287 -2.1881
  328MOL0     H45210   8.725   5.990   5.531  0.0052 -0.0221 -0.0777
  328MOL0     H45211   8.703   5.823   5.796 -0.7380 -0.1876 -0.8174
  328MOL0     H45212   8.780   5.786   5.640 -1.3861  0.9657 -1.9890
  328MOL0     H45213   8.793   6.075   5.891 -0.7214  3.5936 -1.1044
  328MOL0     H45214   8.992   6.207   6.001 -0.6780 -0.7199 -0.5642
  328MOL0     H45215   9.101   6.246   5.876  0.6681 -1.9543 -1.7584
  328MOL0     H45216   9.166   6.081   6.123 -1.0891  2.4083  1.5946
  328MOL0     H45217   9.272   6.071   5.973  0.3998  0.1696  0.1757
  328MOL0     H45218   9.317   6.315   5.983 -0.5547  0.4141 -1.4918
  328MOL0     H45219   9.210   6.322   6.125 -0.1620 -0.2160  0.5761
  328MOL0     H45220   9.372   6.188   6.259 -0.5295  1.5059  1.2875
  328MOL0     H45221   9.447   6.133   6.107 -0.3184  0.1239  1.6349
  328MOL0     H45222   9.550   6.160   6.333  0.1664 -2.1481 -1.7819
  328MOL0     H45223   9.852   6.163   6.544 -1.6386 -0.4491  1.5651
  328MOL0     H45224   9.825   6.042   6.410 -1.2863 -0.7507  0.6597
  328MOL0     H45225   9.700   6.104   6.517  0.8264  1.6016  2.9434
  328MOL0     H45226  10.127   6.381   6.643 -2.8478 -0.9000 -2.2090
  328MOL0     H45227  10.349   6.358   6.730 -0.2847 -2.1173 -0.6505
  328MOL0     H45228  10.539   6.468   6.807 -1.4645  1.3108 -2.3422
  328MOL0     H45229  10.582   6.300   6.766 -1.7425  0.9469  2.8146
  328MOL0     H45230  10.758   6.399   6.908  2.3290 -2.2121 -0.6806
  328MOL0     H45231  10.816   6.357   6.750  1.0001 -0.1760  0.6698
  328MOL0     H45232  10.727   6.646   6.833  2.7557  0.3562  2.4161
  328MOL0     H45233  10.799   6.583   6.684  0.7928 -0.0117 -0.2728
  328MOL0     H45234  10.947   6.703   6.813 -2.7029 -0.3071 -0.4566
  328MOL0     H45235  11.004   6.537   6.818  0.4193  0.0808  0.7180
  328MOL0     H45236  10.831   6.671   7.044  0.1905  0.8056  0.8339
  328MOL0     H45237  10.891   6.514   7.045  1.1385  0.7756  1.5881
  328MOL0     H45238  11.080   6.746   7.057  2.4167 -0.5988  1.8317
  328MOL0     H45239  11.118   6.577   7.053  1.1682  1.8963 -1.3790
  328MOL0     H45240  10.979   6.542   7.264 -1.3510  0.1382 -0.2963
  328MOL0     H45241  10.957   6.718   7.262 -0.2889 -0.2443 -3.3688
  328MOL0     H45242  11.215   6.727   7.263  0.7731 -0.3592  0.9546
  328MOL0     H45243  11.208   6.557   7.301  2.1127  1.6208  0.4170
  328MOL0     H45244  10.496   6.528   6.368  0.2424 -1.5516 -0.1862
  328MOL0     H45245  10.289   6.548   6.292 -4.8972 -3.2734 -1.5732
  328MOL0     H45246   9.894   6.481   6.174 -1.6251  1.3268 -1.1334
  328MOL0     H45247   9.662   6.493   6.091 -0.1517 -1.0529 -0.9130
  328MOL0     H45248   7.795   5.773   5.785 -0.5142 -1.1255 -1.3438
  328MOL0     H45249   7.603   5.851   5.923 -0.4762  2.2146  0.2230
  328MOL0     H45250   7.193   6.188   5.759 -0.7831 -0.0809 -0.7592
  328MOL0     H45251   7.015   6.304   5.875 -0.6076  0.3690  2.4035
  328MOL0     H45252   6.716   6.251   6.182 -0.1316  1.0515 -3.0365
  328MOL0     H45253   6.769   6.085   6.163  1.8845 -0.3341 -0.6890
  328MOL0     H45254   6.910   6.307   6.313  0.0848 -0.2081  0.6036
  328MOL0     H45255   6.971   6.149   6.304 -0.4524 -0.9000  0.7953
  328MOL0     H45256   6.724   6.252   6.452  1.5034  0.5041 -0.8189
  328MOL0     H45257   6.726   6.085   6.411  0.4367 -0.3532 -1.3050
  328MOL0     H45258   6.946   6.236   6.570  1.1174 -0.1242 -0.8749
  328MOL0     H45259   6.945   6.057   6.551  0.2231  0.5807 -1.4906
  328MOL0     H45260   6.685   6.095   6.874  1.0659  0.2781  1.8703
  328MOL0     H45261   6.982   5.985   6.159  1.1903  2.5637  1.1065
  328MOL0     H45262   7.144   5.818   6.163 -0.5653 -2.0836 -0.9652
  328MOL0     H45263   7.136   5.748   5.993 -0.0587  0.3569 -0.7464
  328MOL0     H45264   7.287   5.804   6.066  0.4816 -0.2962 -2.0911
  329MOL0     O45265   9.034   4.838   6.136  0.5745  0.4104 -0.6907
  329MOL0     C45266   8.990   4.805   6.031 -0.1284 -0.9175 -0.7954
  329MOL0     O45267   9.062   4.760   5.928  0.3521 -0.4714  0.1735
  329MOL0     C45268   9.200   4.766   5.940  0.0893 -0.5455  0.2424
  329MOL0     C45269   9.263   4.648   5.952 -0.0296  0.2896 -0.0348
  329MOL0     C45270   9.402   4.647   5.968  0.4788 -0.1781  0.6851
  329MOL0     C45271   9.481   4.766   5.964 -0.5901 -1.1807 -1.0530
  329MOL0     O45272   9.619   4.752   5.966  0.3823 -0.4525 -0.4440
  329MOL0     C45273   9.691   4.871   5.989 -0.8149  0.0932  0.0538
  329MOL0     C45274   9.694   4.932   6.143  0.2806  0.5295 -0.2617
  329MOL0     C45275   9.733   5.085   6.149  0.7787  0.5117  0.5169
  329MOL0     C45276   9.876   5.105   6.111 -0.5227  0.6713 -0.2476
  329MOL0     C45277   9.918   5.249   6.134  0.2426 -0.0068 -0.9940
  329MOL0     C45278  10.073   5.262   6.106 -0.6812  1.6855  0.1512
  329MOL0     C45279  10.124   5.406   6.089  0.6632  0.0860  0.1720
  329MOL0     C45280  10.138   5.491   6.218  0.2599  0.0238 -0.7447
  329MOL0     N45281  10.242   5.430   6.315  0.0708 -0.2338  0.0785
  329MOL0     C45282  10.217   5.332   6.404  0.4963  0.7893  0.6594
  329MOL0     C45283  10.308   5.348   6.502 -0.4359  0.8535  0.2780
  329MOL0     C45284  10.342   5.269   6.621  0.1070  0.0622 -0.6086
  329MOL0     C45285  10.474   5.201   6.597  0.0815  0.4230 -0.4131
  329MOL0     C45286  10.491   5.104   6.713 -0.0972  0.0116 -0.6207
  329MOL0     C45287  10.627   5.037   6.711 -0.4145  0.4177  0.2016
  329MOL0     O45288  10.639   4.972   6.837 -0.4683 -0.0112 -0.8560
  329MOL0     C45289  10.771   4.941   6.871 -0.3465 -0.0737  0.2375
  329MOL0     C45290  10.789   4.807   6.900 -0.0420  0.4956 -0.4541
  329MOL0     C45291  10.908   4.748   6.934  0.0572  0.0383 -0.1767
  329MOL0     C45292  10.906   4.599   6.956  0.2512  0.1148 -0.2358
  329MOL0     C45293  11.026   4.821   6.947  0.6278 -0.6733 -0.0570
  329MOL0     C45294  11.153   4.768   7.004 -0.0072  0.1380  0.8544
  329MOL0     O45295  11.173   4.634   7.014 -0.2767  0.0506  0.1710
  329MOL0     C45296  11.282   4.584   7.072 -0.4550 -0.0105  0.2642
  329MOL0     C45297  11.356   4.489   7.004  1.5749 -0.2752  0.0512
  329MOL0     C45298  11.459   4.421   7.063  0.1017 -0.2514  0.1475
  329MOL0     C45299  11.492   4.443   7.202 -0.9865  0.2709 -0.2229
  329MOL0     O45300  11.596   4.364   7.251 -0.0883 -0.0917 -0.0775
  329MOL0     C45301  11.614   4.386   7.389 -0.6419 -0.6986 -0.1259
  329MOL0     C45302  11.714   4.282   7.433 -0.3350  0.3529 -0.4386
  329MOL0     C45303  11.654   4.141   7.413 -0.3380 -0.1320 -0.0982
  329MOL0     C45304  11.704   4.044   7.518 -0.0818 -0.3274 -0.1786
  329MOL0     C45305  11.640   4.074   7.656 -0.0886  0.1207 -0.3809
  329MOL0     C45306  11.729   4.024   7.773  0.2295  0.1374  0.2265
  329MOL0     C45307  11.672   3.988   7.911  0.5103  0.3390 -0.1051
  329MOL0     C45308  11.592   4.100   7.988 -0.1282 -0.5486 -0.6623
  329MOL0    Cl45309  11.640   4.121   8.154 -0.3734  0.0930  0.1310
  329MOL0     C45310  11.429   4.550   7.269 -0.1302 -0.5167  0.3061
  329MOL0     C45311  11.318   4.617   7.202  0.0179  0.3149  0.0829
  329MOL0     O45312  11.239   4.851   7.036  0.3433  0.6810 -0.1353
  329MOL0     C45313  11.011   4.960   6.909  0.6000  1.0070  0.0606
  329MOL0     C45314  10.886   5.019   6.876 -0.2442 -0.5185 -0.0523
  329MOL0     N45315  10.395   5.452   6.456  0.0142 -0.3947 -0.1570
  329MOL0     N45316  10.347   5.500   6.349  0.5919 -0.1849  0.5924
  329MOL0     C45317   9.411   4.889   5.949 -0.6041  0.4983  0.0905
  329MOL0     C45318   9.275   4.889   5.944  0.1399  0.4242  0.0351
  329MOL0     C45319   8.845   4.798   6.021  0.1096  0.6298  1.0100
  329MOL0     C45320   8.794   4.706   5.928 -0.4101 -0.1301  0.9668
  329MOL0     C45321   8.654   4.674   5.919 -0.4204  0.5186  0.8525
  329MOL0     C45322   8.564   4.731   6.008  0.4741  0.0082  0.2505
  329MOL0     O45323   8.438   4.686   6.002  0.5574 -0.2889 -0.7099
  329MOL0     C45324   8.328   4.768   6.037  0.3104 -0.6499  0.3687
  329MOL0     C45325   8.212   4.701   5.963  0.3997 -0.0425 -0.7846
  329MOL0     C45326   8.240   4.656   5.818 -0.4520  0.8136  0.1598
  329MOL0     C45327   8.105   4.610   5.756 -0.8020 -0.3447  0.4379
  329MOL0     C45328   8.101   4.618   5.608 -0.7010  0.1757 -0.0301
  329MOL0     C45329   8.082   4.645   5.495  0.6693  0.0965  0.3639
  329MOL0     C45330   8.612   4.829   6.095  0.6408  0.8784  0.5585
  329MOL0     C45331   8.740   4.871   6.086  0.1682  0.0547 -0.8434
  329MOL0     C45332   8.768   4.985   6.172 -0.2582 -0.5950 -0.2874
  329MOL0     H45333   9.200   4.561   5.964 -0.2921  0.5486  0.5351
  329MOL0     H45334   9.452   4.552   5.987  0.9580  0.5123  3.2756
  329MOL0     H45335   9.661   4.942   5.911  0.7482 -1.0571 -1.6818
  329MOL0     H45336   9.793   4.841   5.963 -0.6405  1.2095 -0.6028
  329MOL0     H45337   9.590   4.927   6.176 -0.0441  0.4280 -1.2429
  329MOL0     H45338   9.760   4.873   6.206  0.5973  0.2009 -0.8860
  329MOL0     H45339   9.659   5.141   6.091  0.5698  2.5232  2.6112
  329MOL0     H45340   9.723   5.116   6.253  0.5794 -2.1526  1.3642
  329MOL0     H45341   9.947   5.045   6.169  0.5081  0.6763 -1.4388
  329MOL0     H45342   9.888   5.070   6.008 -2.1505  1.6004 -0.7787
  329MOL0     H45343   9.891   5.272   6.238  0.6490 -0.6718 -0.7277
  329MOL0     H45344   9.861   5.317   6.070  1.1169  0.1422 -1.6253
  329MOL0     H45345  10.134   5.199   6.171 -2.7852 -1.5957 -0.8223
  329MOL0     H45346  10.082   5.209   6.010  1.1689 -0.3693  1.3587
  329MOL0     H45347  10.082   5.461   6.005  1.7273  0.6653  0.0005
  329MOL0     H45348  10.231   5.391   6.071  0.8623  0.8486  0.6813
  329MOL0     H45349  10.167   5.595   6.204 -3.3457  1.5659  1.6718
  329MOL0     H45350  10.039   5.493   6.264  0.2367  2.2265 -0.8260
  329MOL0     H45351  10.136   5.260   6.397  2.4598 -1.6393  1.4187
  329MOL0     H45352  10.264   5.193   6.630  0.2601 -0.0780 -0.4658
  329MOL0     H45353  10.336   5.349   6.695 -1.6013  0.6673 -1.3565
  329MOL0     H45354  10.468   5.136   6.509  2.0576  0.1898 -0.4250
  329MOL0     H45355  10.561   5.266   6.584 -0.2520  0.9688  0.0637
  329MOL0     H45356  10.490   5.155   6.810  0.1205 -0.2365 -0.4897
  329MOL0     H45357  10.413   5.030   6.694  1.9245 -1.7959 -2.4137
  329MOL0     H45358  10.639   4.983   6.617 -1.5537  1.5728 -0.6441
  329MOL0     H45359  10.708   5.109   6.726  3.6592 -3.4688 -0.8994
  329MOL0     H45360  10.708   4.740   6.873  1.1408  0.0025 -3.1185
  329MOL0     H45361  10.807   4.555   6.971  0.8221 -0.7811  1.1875
  329MOL0     H45362  10.950   4.585   7.056 -0.9446 -2.2670  0.0388
  329MOL0     H45363  10.954   4.545   6.874 -3.1005 -1.2899 -1.4304
  329MOL0     H45364  11.335   4.471   6.899 -1.0636  0.0284  0.4477
  329MOL0     H45365  11.515   4.338   7.021 -1.8363 -1.4408 -0.2245
  329MOL0     H45366  11.663   4.481   7.415 -0.1937 -1.0123  0.1971
  329MOL0     H45367  11.519   4.380   7.443 -0.0042 -1.4662  0.9457
  329MOL0     H45368  11.811   4.296   7.384  1.1088  1.9130  2.5571
  329MOL0     H45369  11.731   4.288   7.541 -2.7956 -0.8658  0.0874
  329MOL0     H45370  11.691   4.107   7.316 -3.5149 -0.5063 -1.3008
  329MOL0     H45371  11.545   4.141   7.404 -0.4748 -0.7038  1.3567
  329MOL0     H45372  11.813   4.048   7.528  0.1510 -2.3733 -1.2822
  329MOL0     H45373  11.675   3.944   7.483 -2.5214  0.6380 -1.1436
  329MOL0     H45374  11.609   4.178   7.667  1.6412  1.0249 -3.2237
  329MOL0     H45375  11.548   4.016   7.668  0.2656 -0.1796  1.1054
  329MOL0     H45376  11.810   4.094   7.796 -0.4007  0.4034  1.7966
  329MOL0     H45377  11.770   3.928   7.741 -2.1467 -0.2209 -2.0596
  329MOL0     H45378  11.750   3.946   7.974  0.0545  0.2466  0.4068
  329MOL0     H45379  11.606   3.901   7.902 -0.4846  0.9415  1.0616
  329MOL0     H45380  11.484   4.080   7.987 -0.4769  1.1977 -0.7743
  329MOL0     H45381  11.612   4.192   7.933 -1.0043 -0.8344 -1.4922
  329MOL0     H45382  11.452   4.579   7.371  1.6922 -3.1623  0.7513
  329MOL0     H45383  11.266   4.696   7.256  0.7521  0.3587  0.7374
  329MOL0     H45384  11.102   5.020   6.910  2.2218 -1.1397 -2.7278
  329MOL0     H45385  10.875   5.127   6.870  0.2117 -0.4787 -0.2250
  329MOL0     H45386   9.458   4.986   5.934 -1.9860  0.9658 -1.6725
  329MOL0     H45387   9.227   4.986   5.938 -2.4846 -0.5871  2.3615
  329MOL0     H45388   8.860   4.662   5.854  0.1842  3.3836 -0.8160
  329MOL0     H45389   8.619   4.610   5.839 -1.2065  2.6368 -0.5779
  329MOL0     H45390   8.303   4.766   6.143  1.5185 -1.9181  0.6553
  329MOL0     H45391   8.352   4.870   6.006  2.0800 -1.1563 -0.0750
  329MOL0     H45392   8.119   4.756   5.977  0.8300  0.3655  0.6258
  329MOL0     H45393   8.188   4.603   6.008  1.5736 -0.1694 -0.3880
  329MOL0     H45394   8.289   4.734   5.760  2.6458 -0.3285  1.0548
  329MOL0     H45395   8.311   4.574   5.819 -1.4473 -0.1824  4.0591
  329MOL0     H45396   8.026   4.673   5.797 -1.0537 -0.9043  0.8187
  329MOL0     H45397   8.083   4.511   5.797 -2.6162 -0.7049 -1.2492
  329MOL0     H45398   8.059   4.669   5.394 -3.6107  0.5046  1.2424
  329MOL0     H45399   8.537   4.881   6.155 -0.4644  0.0839 -0.0894
  329MOL0     H45400   8.865   5.032   6.151 -1.3118  1.5069 -0.7404
  329MOL0     H45401   8.685   5.055   6.160 -0.7593 -1.0883  0.2673
  329MOL0     H45402   8.767   4.942   6.273  0.0288 -1.2100 -0.5449
  330MOL0     O45403   7.192   6.665   2.702 -0.7403  0.0795 -0.2442
  330MOL0     C45404   7.257   6.656   2.807 -0.6985 -0.0371  0.5060
  330MOL0     O45405   7.208   6.617   2.926 -0.2899 -0.2791  0.0352
  330MOL0     C45406   7.070   6.578   2.936 -0.1940 -0.0830  0.7835
  330MOL0     C45407   6.987   6.652   3.022 -0.6573 -0.1082 -0.2918
  330MOL0     C45408   6.858   6.602   3.051 -0.4502 -0.2596  0.2694
  330MOL0     C45409   6.799   6.498   2.975 -0.9429 -0.9746  0.6374
  330MOL0     O45410   6.676   6.447   3.015  0.4413 -0.1859  0.0755
  330MOL0     C45411   6.644   6.314   2.963 -0.7936  0.7621  0.2630
  330MOL0     C45412   6.539   6.241   3.055 -0.4294 -0.8003  0.0830
  330MOL0     C45413   6.400   6.288   3.029  0.3723 -0.4070 -0.0492
  330MOL0     C45414   6.305   6.228   3.136 -0.2366  0.3256 -0.0187
  330MOL0     C45415   6.167   6.291   3.123 -0.3468  0.6562  0.2340
  330MOL0     C45416   6.076   6.197   3.039  0.3737 -0.5946  0.3597
  330MOL0     C45417   5.940   6.262   3.024 -0.0710  0.5888 -0.6808
  330MOL0     C45418   5.826   6.195   3.104  0.1688  0.3838  0.1523
  330MOL0     N45419   5.859   6.228   3.243 -0.4135 -0.0159 -0.5107
  330MOL0     C45420   5.928   6.141   3.331  0.5033  0.4538 -0.4071
  330MOL0     C45421   5.902   6.202   3.455 -0.0384  0.6327  0.3090
  330MOL0     C45422   5.961   6.148   3.574 -0.5397  0.5082 -1.1969
  330MOL0     C45423   6.104   6.193   3.583 -0.4455 -0.3538 -0.6598
  330MOL0     C45424   6.179   6.152   3.711  0.3513  0.2247  0.7360
  330MOL0     C45425   6.301   6.226   3.750  1.2309  0.5880 -0.5677
  330MOL0     O45426   6.405   6.201   3.647 -0.5735 -0.1399 -0.0686
  330MOL0     C45427   6.527   6.257   3.671  0.4170 -0.0261  0.5062
  330MOL0     C45428   6.569   6.302   3.795 -0.0542 -0.0552  0.0995
  330MOL0     C45429   6.700   6.327   3.817 -0.4252 -0.7157 -0.1276
  330MOL0     C45430   6.733   6.377   3.960 -0.3090  0.9991 -0.4307
  330MOL0     C45431   6.799   6.298   3.722  0.0335 -0.2002  0.1397
  330MOL0     C45432   6.945   6.319   3.746  0.5024 -0.1584 -0.5496
  330MOL0     O45433   7.019   6.255   3.654  0.0677  0.1678  0.6008
  330MOL0     C45434   7.157   6.265   3.655  0.1480  0.5878 -0.3079
  330MOL0     C45435   7.218   6.146   3.630 -0.9652  0.1800 -0.4334
  330MOL0     C45436   7.361   6.146   3.612  0.4554  0.8332  0.3070
  330MOL0     C45437   7.438   6.269   3.619  0.1011  0.6434 -0.4507
  330MOL0     O45438   7.567   6.278   3.611 -0.7300 -0.2601 -0.5494
  330MOL0     C45439   7.615   6.276   3.477 -0.3497 -0.4665  0.2242
  330MOL0     C45440   7.769   6.231   3.470  0.5925  0.0056 -0.6497
  330MOL0     C45441   7.802   6.224   3.326  0.1252 -1.0929  0.0902
  330MOL0     C45442   7.939   6.162   3.287 -0.5206 -0.8401 -1.3466
  330MOL0     C45443   7.978   6.203   3.149  0.1730  0.4570  0.4155
  330MOL0     C45444   8.115   6.152   3.109  0.3363  0.0412  0.2497
  330MOL0     C45445   8.150   6.194   2.976  0.3114  0.1265 -0.4092
  330MOL0     C45446   8.141   6.087   2.874 -0.0792  0.1669  0.0276
  330MOL0    Cl45447   8.241   5.949   2.920 -0.4442 -0.2808 -0.0448
  330MOL0     C45448   7.371   6.384   3.650  0.1251 -0.1357 -0.2673
  330MOL0     C45449   7.231   6.386   3.657 -1.1027  0.2064 -0.5544
  330MOL0     O45450   6.982   6.418   3.814  0.4118 -0.1574  0.0780
  330MOL0     C45451   6.749   6.247   3.598 -0.2286  0.0773 -0.4333
  330MOL0     C45452   6.616   6.229   3.575 -0.3718  0.3613 -0.9287
  330MOL0     N45453   5.827   6.315   3.435 -0.4039 -0.3976  0.7282
  330MOL0     N45454   5.802   6.335   3.308 -0.3070 -0.4315  0.1202
  330MOL0     C45455   6.886   6.442   2.879 -0.7579  0.3352 -0.4749
  330MOL0     C45456   7.027   6.468   2.871 -0.1389  0.4952 -0.4686
  330MOL0     C45457   7.409   6.701   2.817  0.4507  0.2110  0.2483
  330MOL0     C45458   7.456   6.719   2.951  0.4763  0.7856  0.1915
  330MOL0     C45459   7.589   6.751   2.964 -0.7971 -0.5784 -0.6469
  330MOL0     C45460   7.667   6.779   2.852  0.1257  0.2278 -0.0207
  330MOL0     O45461   7.794   6.831   2.855  0.2775 -0.1480  0.2543
  330MOL0     C45462   7.856   6.875   2.980  0.9219 -0.9062  0.1245
  330MOL0     C45463   7.924   6.764   3.046  0.3122  0.1302 -0.1113
  330MOL0     C45464   8.017   6.691   2.937  0.2776 -0.2385 -0.4404
  330MOL0     C45465   8.086   6.568   3.011  0.3524  0.2670 -0.6982
  330MOL0     C45466   8.156   6.601   3.137  0.3152 -0.6173 -0.3101
  330MOL0     C45467   8.201   6.626   3.251 -0.7890 -0.0499 -0.4199
  330MOL0     C45468   7.623   6.748   2.729 -0.3759  0.1720  0.5578
  330MOL0     C45469   7.487   6.716   2.701  0.2453 -0.1517 -0.4337
  330MOL0     C45470   7.447   6.705   2.557  0.0619  1.1342 -0.0248
  330MOL0     H45471   7.029   6.740   3.069 -0.3604  0.1198 -0.9669
  330MOL0     H45472   6.802   6.615   3.143  0.3516 -0.3186  0.7769
  330MOL0     H45473   6.737   6.257   2.965  0.1035  2.1461  2.7491
  330MOL0     H45474   6.608   6.328   2.861 -1.4305  1.3376  0.5506
  330MOL0     H45475   6.549   6.133   3.043  1.4678 -0.6289 -0.2282
  330MOL0     H45476   6.568   6.247   3.160  0.4493 -1.3829 -0.1197
  330MOL0     H45477   6.389   6.396   3.027 -0.0762 -0.3714  2.2303
  330MOL0     H45478   6.372   6.263   2.926 -1.1653  0.5292  0.1074
  330MOL0     H45479   6.297   6.119   3.126 -1.1229  0.5435 -2.5406
  330MOL0     H45480   6.360   6.251   3.227 -1.6201  2.4760  0.3176
  330MOL0     H45481   6.178   6.386   3.070 -0.5936 -0.8446 -2.6627
  330MOL0     H45482   6.112   6.305   3.217  0.4363 -0.4307  0.8735
  330MOL0     H45483   6.128   6.174   2.945  3.3727 -0.4410  1.8744
  330MOL0     H45484   6.068   6.097   3.084  2.4625 -0.4165  1.2467
  330MOL0     H45485   5.907   6.261   2.920 -0.6697  3.7127 -0.6237
  330MOL0     H45486   5.949   6.370   3.041  2.3912  0.5633 -1.3908
  330MOL0     H45487   5.736   6.247   3.069  0.7515  1.0660 -0.3355
  330MOL0     H45488   5.828   6.086   3.091  0.1674 -0.2627  4.2524
  330MOL0     H45489   5.987   6.052   3.311 -1.2072 -1.7522  3.1583
  330MOL0     H45490   5.956   6.039   3.563 -3.0530  0.5645 -1.2466
  330MOL0     H45491   5.908   6.187   3.662  0.5393 -0.4491 -0.0800
  330MOL0     H45492   6.155   6.158   3.493  1.3497 -0.1974  0.2585
  330MOL0     H45493   6.106   6.303   3.584 -0.3934 -0.1239  5.2214
  330MOL0     H45494   6.122   6.176   3.802  1.2317  0.1570  1.3198
  330MOL0     H45495   6.198   6.045   3.696 -0.1067  0.5261 -2.9352
  330MOL0     H45496   6.273   6.331   3.759  0.8213  0.3346  2.1412
  330MOL0     H45497   6.322   6.204   3.856  1.2175  1.4662 -0.3718
  330MOL0     H45498   6.503   6.314   3.881  0.5244  0.1906  0.5148
  330MOL0     H45499   6.692   6.306   4.033 -2.5322  0.4818 -2.0629
  330MOL0     H45500   6.693   6.477   3.979 -0.7606  0.7175  0.1519
  330MOL0     H45501   6.839   6.386   3.985 -0.3077 -0.2264  0.0910
  330MOL0     H45502   7.159   6.056   3.644 -1.5605  1.0561  4.3555
  330MOL0     H45503   7.415   6.051   3.609 -0.0895  0.5347 -0.8178
  330MOL0     H45504   7.575   6.197   3.413 -1.2467  0.1202  0.0421
  330MOL0     H45505   7.598   6.373   3.429 -2.0556 -1.4297 -1.2223
  330MOL0     H45506   7.824   6.317   3.510 -3.2299  2.8951 -0.9506
  330MOL0     H45507   7.795   6.141   3.526  2.6607  0.8484 -0.1779
  330MOL0     H45508   7.798   6.329   3.296 -0.8818 -1.3972 -0.8907
  330MOL0     H45509   7.731   6.183   3.254  1.7852  1.0151 -3.0034
  330MOL0     H45510   7.924   6.054   3.299  1.9813 -0.9577  2.1415
  330MOL0     H45511   8.007   6.198   3.365 -3.0633 -0.4849  0.8672
  330MOL0     H45512   7.902   6.182   3.073  2.1288  2.2923 -2.2309
  330MOL0     H45513   7.989   6.312   3.147  2.4867  0.2847  0.3342
  330MOL0     H45514   8.121   6.042   3.109 -1.4387 -0.0861 -0.9328
  330MOL0     H45515   8.195   6.196   3.170  0.5045  0.7897 -0.5013
  330MOL0     H45516   8.258   6.204   2.962  0.2976 -2.7676 -4.0619
  330MOL0     H45517   8.107   6.293   2.963  2.5212  1.4787  1.6613
  330MOL0     H45518   8.178   6.121   2.777 -1.2136 -2.6452 -1.5287
  330MOL0     H45519   8.039   6.058   2.845  0.5551  0.9754 -3.4328
  330MOL0     H45520   7.423   6.480   3.651 -0.0851 -0.0156  1.2613
  330MOL0     H45521   7.175   6.478   3.669  1.3159  1.7032 -0.0405
  330MOL0     H45522   6.821   6.233   3.519  2.1588  1.4205  1.3654
  330MOL0     H45523   6.585   6.181   3.483 -1.0074 -2.9223  0.8239
  330MOL0     H45524   6.849   6.359   2.819  0.0089 -1.1325  1.0317
  330MOL0     H45525   7.089   6.410   2.804 -0.4751  1.0201 -1.2450
  330MOL0     H45526   7.389   6.703   3.035 -2.1055  0.2808 -1.8423
  330MOL0     H45527   7.617   6.766   3.068 -0.6540 -0.6315 -0.6774
  330MOL0     H45528   7.923   6.958   2.955  0.4986 -0.3450  0.8191
  330MOL0     H45529   7.789   6.923   3.053  0.4523  0.7395 -1.3256
  330MOL0     H45530   7.847   6.693   3.077 -0.0180  1.1854  1.6088
  330MOL0     H45531   7.985   6.794   3.132  0.4536 -1.0219  0.2037
  330MOL0     H45532   7.961   6.652   2.852  0.0353 -0.0111 -0.3877
  330MOL0     H45533   8.095   6.759   2.902  1.7415 -1.3695  0.4917
  330MOL0     H45534   8.150   6.514   2.941 -0.8035  0.0259 -1.5892
  330MOL0     H45535   8.004   6.500   3.036  0.4924  0.1207 -0.6333
  330MOL0     H45536   8.261   6.637   3.340 -0.1647  0.0867 -0.8469
  330MOL0     H45537   7.692   6.765   2.646 -2.4732 -1.8785 -1.7573
  330MOL0     H45538   7.387   6.791   2.525  0.2009  2.0748  2.0928
  330MOL0     H45539   7.524   6.707   2.479 -2.4363  0.2667 -2.7051
  330MOL0     H45540   7.410   6.604   2.538  2.8535 -0.2400  1.2224
  331MOL0     O45541   4.687   4.759   1.402  0.4877  0.0134 -0.6287
  331MOL0     C45542   4.607   4.826   1.333  0.4759 -0.4344 -0.7439
  331MOL0     O45543   4.647   4.908   1.229  0.4323 -0.6993 -0.1879
  331MOL0     C45544   4.765   4.878   1.172 -0.1699  0.3831  0.0382
  331MOL0     C45545   4.766   4.805   1.056 -0.2051 -0.1632 -0.0673
  331MOL0     C45546   4.888   4.757   1.003  0.5615  0.2358 -0.4364
  331MOL0     C45547   5.011   4.792   1.075  1.0073  0.8471 -0.0302
  331MOL0     O45548   5.146   4.762   1.037  0.0988  0.3112  0.1880
  331MOL0     C45549   5.170   4.734   0.897 -0.4427  0.0768 -0.1455
  331MOL0     C45550   5.321   4.733   0.865  1.3129  0.0766 -0.1963
  331MOL0     C45551   5.397   4.610   0.912 -0.0605 -0.4703  0.2199
  331MOL0     C45552   5.540   4.613   0.883  0.7539 -0.1877 -0.3484
  331MOL0     C45553   5.630   4.496   0.931  0.0587 -0.6871 -0.3112
  331MOL0     C45554   5.774   4.511   0.888  0.4887 -0.3107 -0.1645
  331MOL0     C45555   5.823   4.650   0.914  0.6613  0.2568 -0.1352
  331MOL0     C45556   5.973   4.652   0.911 -0.0533 -0.4262  0.2028
  331MOL0     N45557   6.030   4.621   0.783  0.2294  0.5560 -0.1333
  331MOL0     C45558   6.063   4.498   0.741 -0.4387  0.2789  0.1739
  331MOL0     C45559   6.127   4.519   0.627 -0.2548  0.8884  0.0546
  331MOL0     C45560   6.188   4.408   0.547 -0.2488 -0.2207  0.4995
  331MOL0     C45561   6.321   4.447   0.475 -0.0109  0.0061  0.5089
  331MOL0     C45562   6.360   4.359   0.357 -0.0011 -0.1557 -0.0185
  331MOL0     C45563   6.502   4.376   0.310 -0.1445  0.5396 -0.2758
  331MOL0     O45564   6.582   4.265   0.362  0.0460 -0.0589  0.2024
  331MOL0     C45565   6.664   4.293   0.467  0.3792 -0.0415  0.1898
  331MOL0     C45566   6.796   4.303   0.444 -0.0967  0.1110  0.4255
  331MOL0     C45567   6.897   4.298   0.546  0.1914 -0.0886  0.1985
  331MOL0     C45568   7.037   4.320   0.497  0.0041  1.2328 -0.2244
  331MOL0     C45569   6.849   4.288   0.683 -0.5939  1.1799 -0.4979
  331MOL0     C45570   6.938   4.294   0.799  0.6309  0.4958 -0.3297
  331MOL0     O45571   7.069   4.254   0.787  1.0288  0.2146  0.3887
  331MOL0     C45572   7.132   4.224   0.903  0.1235  0.3310 -0.5279
  331MOL0     C45573   7.084   4.127   0.998 -0.0297 -0.5400  0.3430
  331MOL0     C45574   7.152   4.107   1.118  0.6180 -0.1559  0.2262
  331MOL0     C45575   7.262   4.179   1.156  0.3997 -1.0511 -0.0079
  331MOL0     O45576   7.323   4.167   1.278  0.2283  0.3288 -0.5689
  331MOL0     C45577   7.279   4.078   1.381  0.5671  0.9204  0.6312
  331MOL0     C45578   7.293   4.139   1.517  0.2499  0.4164 -0.1165
  331MOL0     C45579   7.441   4.152   1.548 -0.0472  0.4465 -0.0735
  331MOL0     C45580   7.476   4.241   1.672  0.0581  0.2563 -0.0868
  331MOL0     C45581   7.441   4.167   1.798 -0.3365 -0.3133  0.0591
  331MOL0     C45582   7.454   4.243   1.928 -0.1671 -0.0767  0.3928
  331MOL0     C45583   7.327   4.327   1.964  0.3697 -0.1657  0.2439
  331MOL0     C45584   7.358   4.414   2.092  0.1001  1.1313 -0.2129
  331MOL0    Cl45585   7.422   4.312   2.231 -0.1810 -0.0092 -0.2337
  331MOL0     C45586   7.302   4.281   1.066  0.5134  0.5136 -0.2791
  331MOL0     C45587   7.241   4.296   0.937 -1.1376  0.2981 -0.3888
  331MOL0     O45588   6.891   4.338   0.904 -0.4689  0.4087  0.5934
  331MOL0     C45589   6.705   4.282   0.703  0.2648 -0.1399 -0.5024
  331MOL0     C45590   6.617   4.279   0.597  0.1512 -0.1323  0.3258
  331MOL0     N45591   6.138   4.660   0.605 -0.5159 -0.3581  0.1164
  331MOL0     N45592   6.079   4.714   0.694 -0.2896 -0.2622 -0.9339
  331MOL0     C45593   5.000   4.863   1.197 -0.3580  0.2695 -0.1177
  331MOL0     C45594   4.877   4.903   1.242  0.6629  0.2092 -0.3065
  331MOL0     C45595   4.461   4.830   1.363 -1.2273  0.5671  0.3896
  331MOL0     C45596   4.377   4.796   1.258  0.1592  1.1121 -0.3893
  331MOL0     C45597   4.239   4.787   1.281  0.1303 -0.4413  0.1021
  331MOL0     C45598   4.192   4.819   1.411 -0.1259  1.1028 -0.9216
  331MOL0     O45599   4.070   4.833   1.459  0.7055  0.7837 -0.1878
  331MOL0     C45600   3.955   4.840   1.371 -0.2692  0.2317  0.2364
  331MOL0     C45601   3.951   4.966   1.288 -0.3433 -0.1947 -0.3475
  331MOL0     C45602   3.825   4.982   1.194 -0.6056 -0.3214  0.5609
  331MOL0     C45603   3.704   5.044   1.259 -0.0093  0.7851 -0.1215
  331MOL0     C45604   3.631   4.954   1.339  0.2133 -0.6855 -0.1598
  331MOL0     C45605   3.575   4.889   1.424  0.4815  0.7283 -0.1993
  331MOL0     C45606   4.280   4.853   1.519 -0.5183 -0.3310 -0.0675
  331MOL0     C45607   4.417   4.850   1.495 -0.3583 -0.2225  0.2976
  331MOL0     C45608   4.513   4.886   1.610  0.3936 -0.5605 -0.0869
  331MOL0     H45609   4.678   4.801   0.993  1.1600  0.1632 -2.0795
  331MOL0     H45610   4.894   4.707   0.907 -0.5945  1.5731 -1.2371
  331MOL0     H45611   5.121   4.809   0.834 -1.3802  0.5742  1.1356
  331MOL0     H45612   5.128   4.636   0.876 -1.1253  0.0825  1.0999
  331MOL0     H45613   5.327   4.739   0.756  0.9024 -1.2532 -0.3036
  331MOL0     H45614   5.369   4.824   0.903 -3.4378  3.0799 -0.4873
  331MOL0     H45615   5.382   4.601   1.020 -2.7188 -1.5128 -0.1648
  331MOL0     H45616   5.353   4.515   0.884 -1.5677  0.5365 -0.9773
  331MOL0     H45617   5.551   4.620   0.774 -1.7334  0.5723 -0.6194
  331MOL0     H45618   5.571   4.707   0.930  3.6952 -1.7077  1.0554
  331MOL0     H45619   5.576   4.408   0.895 -2.4792  1.5229 -2.4328
  331MOL0     H45620   5.634   4.483   1.039  1.3445 -2.0408 -0.4916
  331MOL0     H45621   5.836   4.433   0.933  1.2214 -0.5129 -1.4720
  331MOL0     H45622   5.771   4.487   0.782 -1.5146 -1.7142  0.1704
  331MOL0     H45623   5.790   4.689   1.011 -0.7676 -0.7320 -0.1969
  331MOL0     H45624   5.790   4.723   0.839  0.7120  1.8340  1.3317
  331MOL0     H45625   6.005   4.755   0.926  6.2752 -1.8591 -0.8529
  331MOL0     H45626   6.014   4.597   0.996 -1.2544  2.0861  2.5576
  331MOL0     H45627   6.045   4.399   0.781  0.8855 -1.0205 -2.2320
  331MOL0     H45628   6.120   4.355   0.481  0.7656  1.4574 -2.0319
  331MOL0     H45629   6.221   4.345   0.630  0.0877  0.0495  0.5766
  331MOL0     H45630   6.305   4.546   0.432 -0.1466 -0.2661 -0.0749
  331MOL0     H45631   6.396   4.452   0.554 -0.9399 -0.4663  1.4434
  331MOL0     H45632   6.349   4.254   0.385 -0.5184  0.0249  0.4778
  331MOL0     H45633   6.299   4.384   0.269  1.5928  1.8916 -0.6161
  331MOL0     H45634   6.501   4.364   0.201  1.3731 -2.4889 -0.0588
  331MOL0     H45635   6.540   4.469   0.353  4.4618 -1.2573  0.0562
  331MOL0     H45636   6.816   4.320   0.338 -0.3392  0.8686  0.5032
  331MOL0     H45637   7.109   4.290   0.575 -1.2538  1.9128  1.2404
  331MOL0     H45638   7.056   4.427   0.485 -0.2353  1.4421  1.1133
  331MOL0     H45639   7.049   4.267   0.402  0.8677  0.4084  0.3159
  331MOL0     H45640   7.001   4.062   0.972 -0.8828  1.2135 -1.5857
  331MOL0     H45641   7.117   4.021   1.174  0.2214  0.3635  0.7861
  331MOL0     H45642   7.173   4.055   1.371  1.1324 -2.1594  0.5735
  331MOL0     H45643   7.330   3.981   1.382  0.6285  0.9524  0.5719
  331MOL0     H45644   7.244   4.236   1.506 -0.8463  0.1620  2.1379
  331MOL0     H45645   7.251   4.072   1.592  2.7024 -2.5311 -1.1328
  331MOL0     H45646   7.482   4.209   1.464  1.0421  1.0384  0.8257
  331MOL0     H45647   7.483   4.051   1.556 -2.4148 -0.5579  0.5839
  331MOL0     H45648   7.418   4.333   1.678  0.3892  0.5014 -0.5342
  331MOL0     H45649   7.583   4.264   1.663  0.0995 -0.0728 -0.4784
  331MOL0     H45650   7.334   4.149   1.791 -0.8911  2.6226 -0.0817
  331MOL0     H45651   7.487   4.068   1.811  0.9434 -0.1610 -2.7564
  331MOL0     H45652   7.538   4.313   1.929 -0.1181 -0.1371  0.6281
  331MOL0     H45653   7.474   4.171   2.008 -2.0175  0.4287  1.3836
  331MOL0     H45654   7.242   4.259   1.977  1.4741 -1.7013 -0.2608
  331MOL0     H45655   7.292   4.393   1.884 -0.0386  1.1488  1.4655
  331MOL0     H45656   7.268   4.458   2.137  1.6528  3.4546  0.7832
  331MOL0     H45657   7.428   4.493   2.061  2.6876 -1.3038 -0.9596
  331MOL0     H45658   7.391   4.339   1.086 -0.6812  4.1738 -4.0902
  331MOL0     H45659   7.292   4.361   0.866  0.4274  0.6592  1.0173
  331MOL0     H45660   6.666   4.276   0.804  3.2424  1.3684  0.8729
  331MOL0     H45661   6.511   4.266   0.611  0.4434 -3.5492  0.2525
  331MOL0     H45662   5.084   4.880   1.263 -1.1236  4.0432  0.1142
  331MOL0     H45663   4.860   4.945   1.340  0.7348  0.9326 -0.6020
  331MOL0     H45664   4.421   4.771   1.163 -2.3707 -2.0816 -0.9302
  331MOL0     H45665   4.168   4.758   1.204  1.3407 -0.6758 -0.9464
  331MOL0     H45666   3.963   4.762   1.295 -0.4548 -3.2443  3.5214
  331MOL0     H45667   3.864   4.819   1.427 -0.5186  1.1489  0.1882
  331MOL0     H45668   4.038   4.965   1.222 -1.0803  0.1732 -1.3536
  331MOL0     H45669   3.960   5.057   1.348 -0.0649 -1.8732  2.3474
  331MOL0     H45670   3.849   5.046   1.109 -0.1374  0.1872  1.0628
  331MOL0     H45671   3.800   4.880   1.163 -0.9436 -0.1523  0.2717
  331MOL0     H45672   3.627   5.074   1.187 -1.4713  0.7432  1.3591
  331MOL0     H45673   3.740   5.131   1.315  3.5272 -1.7696  1.9593
  331MOL0     H45674   3.533   4.841   1.510 -1.0939  1.0734 -0.7416
  331MOL0     H45675   4.244   4.879   1.618  1.9412  0.2951  0.7335
  331MOL0     H45676   4.482   4.978   1.660  1.0627 -0.5003  0.2257
  331MOL0     H45677   4.516   4.807   1.685  2.4589  1.8288  2.6111
  331MOL0     H45678   4.619   4.894   1.581  0.4638  2.4935  0.6780
  332MOL0     O45679   5.568   8.418   7.012 -0.4954 -0.0455 -0.3686
  332MOL0     C45680   5.491   8.343   6.946 -0.3617  0.5396 -0.2707
  332MOL0     O45681   5.537   8.228   6.891 -0.5792  0.0977 -0.4197
  332MOL0     C45682   5.648   8.167   6.946 -0.5383 -0.1050 -0.3207
  332MOL0     C45683   5.731   8.106   6.846  0.8464  0.1325 -0.2464
  332MOL0     C45684   5.829   8.013   6.882 -0.8621  0.3599 -0.1806
  332MOL0     C45685   5.865   7.987   7.017  0.8119  0.2561  1.8238
  332MOL0     O45686   5.966   7.906   7.032 -0.6629 -0.6614 -0.4139
  332MOL0     C45687   6.020   7.881   7.165 -0.6770 -0.1766  0.6790
  332MOL0     C45688   6.123   7.761   7.168 -0.3646 -1.1884  0.2133
  332MOL0     C45689   6.244   7.800   7.080  0.0671  0.1936  0.6967
  332MOL0     C45690   6.365   7.724   7.140  1.0710 -1.1585  0.1071
  332MOL0     C45691   6.495   7.729   7.053  0.3116  0.3349 -0.5354
  332MOL0     C45692   6.616   7.676   7.127  0.2836  0.5361 -0.0470
  332MOL0     C45693   6.740   7.641   7.041  0.0213 -0.4445  0.0999
  332MOL0     C45694   6.816   7.766   7.005  0.0785 -0.1077  0.0684
  332MOL0     N45695   6.884   7.839   7.115  0.0283 -0.0477 -0.0157
  332MOL0     C45696   6.935   7.772   7.232 -0.6829 -0.8214  0.1166
  332MOL0     C45697   6.986   7.876   7.308  0.4343  0.8581 -0.1742
  332MOL0     C45698   7.054   7.855   7.441  0.7352  0.5982 -0.0047
  332MOL0     C45699   7.178   7.761   7.436 -0.0665 -0.1081 -0.1512
  332MOL0     C45700   7.276   7.795   7.546  0.1371 -0.2776  0.2741
  332MOL0     C45701   7.424   7.760   7.518  0.3730  0.1700  0.0770
  332MOL0     O45702   7.449   7.795   7.377  0.6902  0.4378 -0.8477
  332MOL0     C45703   7.572   7.769   7.324  0.0067  0.7545 -0.5513
  332MOL0     C45704   7.674   7.867   7.317  0.2854 -0.5243  0.2337
  332MOL0     C45705   7.804   7.835   7.263 -0.0545  0.1481 -0.6482
  332MOL0     C45706   7.902   7.952   7.253  0.7707  0.2754 -0.5277
  332MOL0     C45707   7.822   7.705   7.203 -0.4941  0.1142 -0.9565
  332MOL0     C45708   7.948   7.673   7.120 -0.5518  0.2464 -0.8088
  332MOL0     O45709   7.967   7.534   7.098  0.4455  0.1719  0.3141
  332MOL0     C45710   8.076   7.512   7.013  0.7444  0.4484 -0.6847
  332MOL0     C45711   8.056   7.492   6.877 -0.9543 -0.1836  0.2496
  332MOL0     C45712   8.170   7.470   6.786  0.4084  0.7108 -0.9396
  332MOL0     C45713   8.301   7.449   6.827 -0.2416 -0.8478  0.1566
  332MOL0     O45714   8.404   7.420   6.746 -0.2588 -0.0045  0.7394
  332MOL0     C45715   8.377   7.371   6.612 -0.2167  0.0257 -0.5068
  332MOL0     C45716   8.323   7.226   6.622  0.4158 -0.9032  0.1322
  332MOL0     C45717   8.394   7.131   6.717  0.1814  0.0883 -0.6251
  332MOL0     C45718   8.545   7.121   6.676  0.2198  0.3626  0.2143
  332MOL0     C45719   8.614   7.007   6.747  0.1954 -0.3949 -0.3915
  332MOL0     C45720   8.755   6.981   6.705 -0.2083 -0.1945 -0.5133
  332MOL0     C45721   8.843   7.105   6.706 -0.0663  0.1336  0.6012
  332MOL0     C45722   8.969   7.066   6.781 -0.0710  0.7376 -0.6150
  332MOL0    Cl45723   9.102   7.167   6.725 -0.3483 -0.3018 -0.0460
  332MOL0     C45724   8.317   7.463   6.968  0.1735 -0.0152  0.6205
  332MOL0     C45725   8.205   7.487   7.058 -0.2253 -0.9548  0.7417
  332MOL0     O45726   8.026   7.761   7.085  0.5820  0.0705 -0.2661
  332MOL0     C45727   7.721   7.606   7.223  0.0195 -0.3944  0.4567
  332MOL0     C45728   7.603   7.639   7.287 -0.4794  0.1764 -0.0330
  332MOL0     N45729   6.970   7.991   7.242  0.2721  0.6265  0.7469
  332MOL0     N45730   6.910   7.971   7.129 -0.1330  0.4343  0.2247
  332MOL0     C45731   5.793   8.068   7.115  0.4192 -0.2282  0.6912
  332MOL0     C45732   5.691   8.161   7.080 -0.0673  0.1529 -0.8060
  332MOL0     C45733   5.356   8.378   6.906  0.2292  0.6723  0.4182
  332MOL0     C45734   5.273   8.283   6.851 -0.0151  0.1804 -0.3962
  332MOL0     C45735   5.144   8.306   6.802  0.7525  0.0946 -0.0661
  332MOL0     C45736   5.097   8.430   6.794  0.0304 -0.0770 -0.2628
  332MOL0     O45737   4.968   8.453   6.746  0.3682  0.4104  0.4362
  332MOL0     C45738   4.966   8.441   6.605 -0.2894 -0.7389  0.0494
  332MOL0     C45739   4.931   8.572   6.538 -0.5532 -1.0015 -0.1981
  332MOL0     C45740   4.794   8.630   6.581  0.5874 -0.2118  0.5985
  332MOL0     C45741   4.679   8.583   6.499  0.1268 -0.0829  0.2443
  332MOL0     C45742   4.556   8.627   6.563 -0.0565 -0.4499 -0.7419
  332MOL0     C45743   4.466   8.674   6.618 -1.1803  0.6752 -0.4595
  332MOL0     C45744   5.172   8.538   6.843 -0.0502 -0.3883 -0.5808
  332MOL0     C45745   5.308   8.512   6.911  0.4930  0.2983 -0.6750
  332MOL0     C45746   5.386   8.630   6.956  1.0554  0.3683  0.5150
  332MOL0     H45747   5.707   8.113   6.741 -2.5937  0.3644  0.4270
  332MOL0     H45748   5.873   7.951   6.804 -0.8879  0.0297  0.0618
  332MOL0     H45749   5.942   7.851   7.235 -1.8026  2.5052  0.6988
  332MOL0     H45750   6.075   7.967   7.206  0.1309 -1.0122  1.3800
  332MOL0     H45751   6.146   7.738   7.273 -4.0839 -3.8134  0.6605
  332MOL0     H45752   6.080   7.672   7.121 -0.2810 -2.5266  2.5378
  332MOL0     H45753   6.232   7.761   6.979  2.7892  2.7288 -0.7636
  332MOL0     H45754   6.247   7.909   7.077 -0.1235  0.2303  1.5883
  332MOL0     H45755   6.379   7.780   7.233 -0.7146  0.3287 -0.4435
  332MOL0     H45756   6.345   7.617   7.153  0.9622 -1.1368  0.1202
  332MOL0     H45757   6.513   7.831   7.018  1.2143  0.0548 -0.8958
  332MOL0     H45758   6.471   7.662   6.970  0.3268 -0.0430 -0.2358
  332MOL0     H45759   6.646   7.755   7.196  2.6545  0.1854 -0.6057
  332MOL0     H45760   6.588   7.586   7.184 -1.0117  2.1132  1.9807
  332MOL0     H45761   6.714   7.588   6.949 -0.6074 -0.6860  0.4098
  332MOL0     H45762   6.804   7.579   7.106  0.2305  0.4203  0.7434
  332MOL0     H45763   6.886   7.742   6.925 -0.1892  0.9812 -0.5244
  332MOL0     H45764   6.757   7.842   6.952  0.3165  0.7827  1.0463
  332MOL0     H45765   6.918   7.666   7.250 -0.1241 -0.8103  0.7634
  332MOL0     H45766   6.978   7.800   7.497  1.3855  0.9831  1.2958
  332MOL0     H45767   7.065   7.946   7.502  0.0371 -1.0305  2.7469
  332MOL0     H45768   7.158   7.654   7.438  0.0481 -0.1382 -0.4486
  332MOL0     H45769   7.222   7.777   7.337 -1.7708 -0.8860 -1.0731
  332MOL0     H45770   7.270   7.904   7.561  0.1503 -0.2773  0.2780
  332MOL0     H45771   7.239   7.739   7.633 -2.4048  0.2851 -0.3446
  332MOL0     H45772   7.504   7.798   7.582  0.6217 -1.7396  0.9948
  332MOL0     H45773   7.427   7.651   7.529 -1.7137  0.2610  2.5163
  332MOL0     H45774   7.652   7.967   7.353  0.0298  0.2243 -1.9002
  332MOL0     H45775   7.911   7.986   7.150 -1.3953  1.2172 -0.4517
  332MOL0     H45776   7.996   7.916   7.297 -0.2293 -3.4032 -1.0108
  332MOL0     H45777   7.853   8.034   7.306 -0.9325 -1.9471  1.6388
  332MOL0     H45778   7.958   7.502   6.832 -0.0050 -0.9221 -2.1109
  332MOL0     H45779   8.150   7.474   6.680  0.8648  2.9341 -0.9928
  332MOL0     H45780   8.324   7.443   6.549 -2.5673 -0.8040  0.4219
  332MOL0     H45781   8.471   7.355   6.558 -0.5125  0.0186 -1.0206
  332MOL0     H45782   8.219   7.232   6.653  0.5258 -1.3216  0.5963
  332MOL0     H45783   8.321   7.185   6.520 -1.1928  0.9771 -0.6445
  332MOL0     H45784   8.360   7.030   6.695  0.9274 -0.4060  0.4137
  332MOL0     H45785   8.394   7.154   6.824  2.1064 -0.6313 -0.4283
  332MOL0     H45786   8.604   7.213   6.686 -0.7242  0.9864  0.0999
  332MOL0     H45787   8.561   7.098   6.570 -1.8180 -1.3872  0.2121
  332MOL0     H45788   8.605   7.020   6.856 -4.6269  3.2057 -0.8923
  332MOL0     H45789   8.563   6.915   6.716  1.3525 -0.3298 -2.6568
  332MOL0     H45790   8.760   6.941   6.604 -1.2274 -3.6448  0.6684
  332MOL0     H45791   8.793   6.897   6.764  2.2776 -0.8489 -2.8725
  332MOL0     H45792   8.804   7.190   6.763  0.2990 -0.1905  1.3457
  332MOL0     H45793   8.858   7.139   6.603  0.4188  4.1910  1.8191
  332MOL0     H45794   8.989   6.961   6.758 -0.5389  0.7564 -1.1271
  332MOL0     H45795   8.948   7.078   6.887 -1.9376  2.4439 -1.0982
  332MOL0     H45796   8.411   7.445   7.019  0.6719  1.2527  0.2007
  332MOL0     H45797   8.235   7.478   7.162  0.3205 -0.1479  0.6705
  332MOL0     H45798   7.733   7.508   7.177 -1.5834  0.6215 -2.4232
  332MOL0     H45799   7.544   7.549   7.302  0.6779 -0.3969  1.3321
  332MOL0     H45800   5.826   8.067   7.219  0.1500  1.0742  0.8133
  332MOL0     H45801   5.647   8.222   7.158  0.3600 -1.5823  0.8691
  332MOL0     H45802   5.305   8.179   6.844 -0.5853 -0.0752  0.5502
  332MOL0     H45803   5.090   8.220   6.764 -0.5094  0.0902  1.6268
  332MOL0     H45804   5.067   8.411   6.576  0.3392 -0.7786  2.0941
  332MOL0     H45805   4.888   8.372   6.572  0.4722 -0.0933 -3.4630
  332MOL0     H45806   4.953   8.550   6.433  3.3727  0.9753  0.0404
  332MOL0     H45807   5.011   8.639   6.570 -1.2678  1.0951 -2.4680
  332MOL0     H45808   4.765   8.600   6.683 -4.3216  0.4436 -0.3406
  332MOL0     H45809   4.798   8.739   6.576 -0.4387 -0.0215  2.7143
  332MOL0     H45810   4.680   8.474   6.495 -0.7710 -0.1280  0.9015
  332MOL0     H45811   4.676   8.620   6.396  2.0018 -2.3598 -0.6931
  332MOL0     H45812   4.376   8.719   6.654 -2.9153 -1.0615 -2.3283
  332MOL0     H45813   5.140   8.641   6.851 -2.6213 -1.1064 -0.7560
  332MOL0     H45814   5.454   8.621   7.041  0.2437  1.2908  1.2794
  332MOL0     H45815   5.434   8.664   6.863 -2.2877 -1.3167 -2.0347
  332MOL0     H45816   5.324   8.713   6.991  0.8672 -0.3082  1.8482
  333MOL0     O45817   8.186  10.152   7.757  0.4545  0.3234  0.2280
  333MOL0     C45818   8.067  10.144   7.771  0.2935  0.5376  0.5306
  333MOL0     O45819   7.961  10.200   7.700  0.0770  0.0832  0.1700
  333MOL0     C45820   7.976  10.315   7.633  0.4524  0.0284  0.9694
  333MOL0     C45821   7.864  10.354   7.557  0.4042  0.2919 -0.0910
  333MOL0     C45822   7.864  10.475   7.486  0.2901 -0.3608 -0.6971
  333MOL0     C45823   7.970  10.561   7.482  0.3331 -0.2051  0.5436
  333MOL0     O45824   7.949  10.680   7.414 -0.3129  0.3638 -1.0278
  333MOL0     C45825   8.040  10.792   7.431  0.0606 -0.0810  0.0369
  333MOL0     C45826   8.158  10.791   7.322  0.1445  0.1456  0.4481
  333MOL0     C45827   8.279  10.870   7.387  0.2479 -0.6825  0.6669
  333MOL0     C45828   8.411  10.818   7.325  0.2797  0.3861  0.2903
  333MOL0     C45829   8.531  10.898   7.383  0.1656 -0.3408 -0.0166
  333MOL0     C45830   8.581  10.829   7.505 -0.3898 -0.0611  0.7400
  333MOL0     C45831   8.700  10.906   7.563  0.1259  0.3672 -0.4207
  333MOL0     C45832   8.836  10.853   7.504 -0.1186  0.0461 -0.3172
  333MOL0     N45833   8.875  10.716   7.546  1.2862  0.5382 -0.3496
  333MOL0     C45834   8.975  10.686   7.637 -0.2735  0.1169  0.1026
  333MOL0     C45835   8.996  10.553   7.634 -0.1052 -0.5847 -0.8223
  333MOL0     C45836   9.084  10.465   7.707  0.1831 -0.1756  0.1963
  333MOL0     C45837   9.064  10.503   7.859 -0.6467  0.1535 -0.0642
  333MOL0     C45838   9.125  10.400   7.956  0.8676 -0.9661  0.4229
  333MOL0     C45839   9.273  10.361   7.919  0.6600  0.5234  0.2798
  333MOL0     O45840   9.349  10.331   8.033 -0.1005  0.4361 -0.6632
  333MOL0     C45841   9.487  10.349   8.025 -0.2619  0.1386  0.4464
  333MOL0     C45842   9.552  10.393   8.143 -0.2983  0.4063 -0.2114
  333MOL0     C45843   9.689  10.417   8.145  0.2977  1.0694 -0.0007
  333MOL0     C45844   9.753  10.470   8.277  0.1964  0.3114  0.7940
  333MOL0     C45845   9.770  10.389   8.031  0.2104 -0.7476 -1.2347
  333MOL0     C45846   9.924  10.387   8.041 -1.1722  0.1317 -0.0790
  333MOL0     O45847   9.984  10.398   7.925  0.2301 -0.5809  0.5165
  333MOL0     C45848  10.113  10.358   7.905 -0.5726  1.0059 -0.2717
  333MOL0     C45849  10.208  10.452   7.941 -0.0990  0.1277 -0.2273
  333MOL0     C45850  10.345  10.427   7.932  1.0415  0.2631  0.3074
  333MOL0     C45851  10.383  10.302   7.887 -0.4993 -0.2372  0.1826
  333MOL0     O45852  10.519  10.281   7.876 -1.1897 -0.5594 -0.1101
  333MOL0     C45853  10.563  10.137   7.875  0.2773  0.2497  0.3740
  333MOL0     C45854  10.708  10.134   7.901  0.0756 -0.0746 -0.2547
  333MOL0     C45855  10.755   9.995   7.927  0.1960  0.6190 -0.0041
  333MOL0     C45856  10.728   9.897   7.805  0.4655  0.0748  1.1002
  333MOL0     C45857  10.808   9.767   7.802  0.3994 -0.1729  0.1706
  333MOL0     C45858  10.962   9.785   7.790  0.1810  0.0446  0.1011
  333MOL0     C45859  11.045   9.653   7.788 -0.2875 -0.0653  0.6533
  333MOL0     C45860  11.193   9.697   7.807 -0.5799 -0.8766  0.3281
  333MOL0    Cl45861  11.274   9.791   7.675  0.6094 -0.4275 -0.0600
  333MOL0     C45862  10.287  10.198   7.861 -0.0436  0.2217 -0.4635
  333MOL0     C45863  10.152  10.232   7.860  0.3274  0.0480  0.9032
  333MOL0     O45864   9.985  10.345   8.146  0.2530 -0.2190 -0.3575
  333MOL0     C45865   9.705  10.349   7.917 -0.2535  0.1089  0.4691
  333MOL0     C45866   9.567  10.325   7.911 -1.0460  0.0235  0.4660
  333MOL0     N45867   8.918  10.501   7.532  0.5783 -0.7818 -0.4720
  333MOL0     N45868   8.842  10.597   7.483 -0.0216 -0.2632  0.0402
  333MOL0     C45869   8.086  10.524   7.556  0.2084 -0.1290 -0.3146
  333MOL0     C45870   8.081  10.405   7.631  0.0592  0.1822  0.3362
  333MOL0     C45871   8.016  10.050   7.874  0.4809  0.7976 -0.1491
  333MOL0     C45872   8.041   9.914   7.854  0.4198  0.2447 -0.0131
  333MOL0     C45873   7.987   9.816   7.946  0.2033  0.4132  0.4832
  333MOL0     C45874   7.909   9.857   8.055  0.0419  0.6639  1.2368
  333MOL0     O45875   7.861   9.756   8.123  0.2584  0.8670 -0.7430
  333MOL0     C45876   7.747   9.771   8.208 -0.7178  0.2522  0.1645
  333MOL0     C45877   7.732   9.648   8.293 -0.1444  0.0888 -0.4869
  333MOL0     C45878   7.683   9.530   8.207 -0.2776 -0.2746  0.3060
  333MOL0     C45879   7.797   9.438   8.168  0.6863 -0.1454 -0.1325
  333MOL0     C45880   7.756   9.362   8.049  0.4344 -0.5603  0.4365
  333MOL0     C45881   7.698   9.292   7.970 -0.3619  0.9453 -0.7347
  333MOL0     C45882   7.896   9.991   8.086  0.5324  0.4605  0.0658
  333MOL0     C45883   7.947  10.086   7.996 -0.1880  0.5243  0.5017
  333MOL0     C45884   7.936  10.231   8.030 -0.1604  0.4419  0.7063
  333MOL0     H45885   7.773  10.296   7.548  1.0771 -0.5450 -2.0455
  333MOL0     H45886   7.773  10.493   7.430 -1.1938 -0.3682  1.5610
  333MOL0     H45887   8.070  10.790   7.536 -1.4212  1.3253  0.5330
  333MOL0     H45888   7.996  10.891   7.417 -0.5680 -0.3361  0.1793
  333MOL0     H45889   8.174  10.683   7.309 -3.4012 -0.3569 -1.0003
  333MOL0     H45890   8.129  10.834   7.226  2.2643 -1.8629 -1.2226
  333MOL0     H45891   8.252  10.974   7.367 -1.6965 -1.4906 -1.5166
  333MOL0     H45892   8.286  10.860   7.495  0.0538  0.9527  0.8448
  333MOL0     H45893   8.428  10.710   7.330  1.4916  0.5684  0.5018
  333MOL0     H45894   8.408  10.839   7.217 -0.0381 -1.0438  0.0000
  333MOL0     H45895   8.490  10.995   7.413 -1.8661 -1.4089  0.8938
  333MOL0     H45896   8.611  10.907   7.310 -0.9901 -0.4937 -1.3391
  333MOL0     H45897   8.508  10.827   7.587  0.2343  1.4111  1.3733
  333MOL0     H45898   8.611  10.725   7.489  0.8437 -0.5674  4.9524
  333MOL0     H45899   8.698  10.895   7.672 -0.7375  0.3213 -0.4348
  333MOL0     H45900   8.690  11.013   7.545  0.5603  0.6933  1.0761
  333MOL0     H45901   8.829  10.866   7.396 -1.5453  1.0825 -0.1162
  333MOL0     H45902   8.905  10.931   7.538  0.1433 -0.7329  1.0186
  333MOL0     H45903   9.030  10.755   7.701  1.1291 -2.1512  1.5156
  333MOL0     H45904   9.185  10.464   7.666 -0.4588  0.6856 -1.5151
  333MOL0     H45905   9.050  10.361   7.708 -1.1412  0.2380  0.5463
  333MOL0     H45906   9.115  10.599   7.863 -1.1611  0.4487 -0.4355
  333MOL0     H45907   8.961  10.525   7.890  0.3332  2.1641  2.0050
  333MOL0     H45908   9.136  10.448   8.054  3.4986 -0.5233 -0.0224
  333MOL0     H45909   9.080  10.301   7.964  3.6572 -2.8571 -3.9423
  333MOL0     H45910   9.272  10.276   7.850 -0.0398  0.4645  0.3515
  333MOL0     H45911   9.303  10.455   7.873 -2.6682  1.6579  0.1334
  333MOL0     H45912   9.484  10.397   8.228 -1.1985 -1.2343 -0.8075
  333MOL0     H45913   9.671  10.510   8.336 -2.0229 -2.2050 -0.3353
  333MOL0     H45914   9.833  10.543   8.267  0.9766 -0.3455  2.1245
  333MOL0     H45915   9.796  10.382   8.326  0.1746 -1.8176 -2.6465
  333MOL0     H45916  10.181  10.553   7.972  1.6249  1.2724 -2.2375
  333MOL0     H45917  10.414  10.507   7.958  2.3393 -0.4840 -0.7106
  333MOL0     H45918  10.524  10.083   7.962  0.5019  0.6776  0.7446
  333MOL0     H45919  10.524  10.094   7.782  0.3089  0.0332  0.4606
  333MOL0     H45920  10.759  10.187   7.819 -0.6261  1.1917  0.0946
  333MOL0     H45921  10.729  10.192   7.991 -0.2809  0.5827 -0.5885
  333MOL0     H45922  10.701   9.952   8.011 -0.9447 -0.3696 -1.1931
  333MOL0     H45923  10.863   9.997   7.947  0.4221  0.1110 -1.0666
  333MOL0     H45924  10.758   9.947   7.712  0.4519  0.7490  1.4480
  333MOL0     H45925  10.620   9.888   7.789  0.2792 -0.7206  2.6395
  333MOL0     H45926  10.780   9.710   7.892 -2.2981 -0.8779 -0.9977
  333MOL0     H45927  10.780   9.701   7.719 -2.2029  0.8548  0.1411
  333MOL0     H45928  11.000   9.856   7.865  0.7926  0.3592 -0.4962
  333MOL0     H45929  10.980   9.839   7.697  1.3771  0.8483  0.7758
  333MOL0     H45930  11.039   9.598   7.693  2.0357  3.4831 -1.8038
  333MOL0     H45931  11.008   9.588   7.868  1.7176 -1.6887  0.3596
  333MOL0     H45932  11.261   9.612   7.818  1.6992  0.3838 -2.6325
  333MOL0     H45933  11.193   9.754   7.900 -1.7629 -0.4044  0.0654
  333MOL0     H45934  10.319  10.099   7.830 -0.3896 -0.7119  1.9337
  333MOL0     H45935  10.077  10.156   7.840  2.0155 -0.9394 -2.4323
  333MOL0     H45936   9.757  10.318   7.827  1.1031  1.0016  0.9091
  333MOL0     H45937   9.535  10.279   7.819  0.8331  2.1570 -1.3888
  333MOL0     H45938   8.179  10.577   7.571  0.3497 -0.3324 -0.4636
  333MOL0     H45939   8.170  10.383   7.689  1.2214 -0.9391 -1.7546
  333MOL0     H45940   8.104   9.888   7.770 -0.4084 -0.1472 -0.5175
  333MOL0     H45941   7.987   9.710   7.921  0.1760  0.2597  1.1305
  333MOL0     H45942   7.759   9.853   8.280 -0.4691 -0.6633  1.2017
  333MOL0     H45943   7.652   9.798   8.161 -1.0968 -1.6711 -0.2625
  333MOL0     H45944   7.649   9.675   8.359 -1.0676 -0.4808 -1.3721
  333MOL0     H45945   7.818   9.623   8.355 -0.5922 -2.4029 -0.7316
  333MOL0     H45946   7.616   9.468   8.268 -0.8454  0.3688  0.3434
  333MOL0     H45947   7.627   9.561   8.118  1.4784  1.4600 -0.2510
  333MOL0     H45948   7.840   9.380   8.250  2.0395  1.7796  0.5938
  333MOL0     H45949   7.880   9.506   8.145  1.0699 -0.9111 -1.1009
  333MOL0     H45950   7.647   9.232   7.897  2.3520 -2.4271 -0.1684
  333MOL0     H45951   7.839  10.023   8.172 -0.9685  3.2261 -1.7827
  333MOL0     H45952   7.855  10.254   8.100  0.3712 -2.3948  2.4064
  333MOL0     H45953   8.033  10.267   8.065  0.2023  0.0010  0.1723
  333MOL0     H45954   7.920  10.286   7.937  2.6651 -0.5517 -0.4724
  334MOL0     O45955  10.614  10.664   9.140 -0.5382  0.5680  0.5052
  334MOL0     C45956  10.528  10.747   9.158  1.4151  0.2674 -0.7125
  334MOL0     O45957  10.490  10.801   9.278 -0.1496 -0.0958  0.6797
  334MOL0     C45958  10.541  10.755   9.395 -0.5536  0.5498  0.0286
  334MOL0     C45959  10.607  10.847   9.475 -0.3005 -0.4914 -0.7211
  334MOL0     C45960  10.651  10.803   9.606 -0.2258  0.8057  0.4098
  334MOL0     C45961  10.619  10.669   9.652 -0.7382 -0.0712  0.2023
  334MOL0     O45962  10.641  10.625   9.781  0.3667  0.2349  0.3352
  334MOL0     C45963  10.760  10.674   9.849  0.5313  0.3924  0.0625
  334MOL0     C45964  10.801  10.570   9.949  0.0587  0.5954 -0.2598
  334MOL0     C45965  10.915  10.621  10.035 -1.1624  0.2637  0.1954
  334MOL0     C45966  11.056  10.620   9.965  0.0647  0.1012 -0.4664
  334MOL0     C45967  11.155  10.689  10.061 -0.3560 -0.6586  0.4717
  334MOL0     C45968  11.300  10.688  10.017  0.0141 -0.6033  0.0627
  334MOL0     C45969  11.361  10.552   9.964  1.3176 -0.1019  0.3802
  334MOL0     C45970  11.509  10.583   9.920 -0.0706  0.2065  0.1113
  334MOL0     N45971  11.605  10.563  10.026 -0.0873 -0.1548 -0.2093
  334MOL0     C45972  11.632  10.444  10.094  0.1297 -0.2449  0.8387
  334MOL0     C45973  11.706  10.475  10.196 -1.3142 -0.6250 -0.3326
  334MOL0     C45974  11.755  10.385  10.304  0.2168  0.1284 -0.5174
  334MOL0     C45975  11.670  10.402  10.431  0.4817 -0.5717  1.0570
  334MOL0     C45976  11.745  10.338  10.546 -0.2948 -0.3145  0.2453
  334MOL0     C45977  11.790  10.195  10.531  0.2964 -0.3866 -0.5788
  334MOL0     O45978  11.840  10.139  10.654  0.3004 -0.3280 -0.4727
  334MOL0     C45979  11.802  10.014  10.671 -0.4800 -0.2121 -0.3551
  334MOL0     C45980  11.805   9.923  10.569  0.5205  1.1806 -0.7448
  334MOL0     C45981  11.776   9.791  10.592 -0.0334  0.3934  0.3304
  334MOL0     C45982  11.806   9.696  10.473  0.4107 -0.4308  0.3603
  334MOL0     C45983  11.745   9.748  10.723 -0.5644  0.9050  0.4863
  334MOL0     C45984  11.735   9.606  10.766 -0.3322 -0.5122  0.7383
  334MOL0     O45985  11.703   9.507  10.680  0.2295  0.1257  0.1144
  334MOL0     C45986  11.722   9.375  10.724  0.1636 -0.5359 -0.5767
  334MOL0     C45987  11.615   9.305  10.777  0.5475 -0.1199 -0.1118
  334MOL0     C45988  11.638   9.172  10.811  0.5349 -0.3453  0.4231
  334MOL0     C45989  11.759   9.112  10.798 -0.8051  0.5645 -0.6520
  334MOL0     O45990  11.779   8.976  10.829  0.1265  0.5520 -0.2632
  334MOL0     C45991  11.710   8.902  10.933  0.2568 -0.7710 -0.0158
  334MOL0     C45992  11.717   8.750  10.908  0.0884  0.6197 -0.1433
  334MOL0     C45993  11.574   8.686  10.909 -0.8886  0.3727 -0.1381
  334MOL0     C45994  11.586   8.533  10.916 -0.8967 -0.3661  0.4227
  334MOL0     C45995  11.452   8.466  10.937 -0.5762  0.0884  0.4132
  334MOL0     C45996  11.359   8.458  10.808 -0.3310 -0.1066  0.5340
  334MOL0     C45997  11.428   8.401  10.683 -0.1041  0.4317 -0.3570
  334MOL0     C45998  11.325   8.350  10.571 -0.0644 -0.0015 -0.6408
  334MOL0    Cl45999  11.228   8.211  10.633  0.3629 -0.6648  0.5393
  334MOL0     C46000  11.867   9.176  10.731  0.2225 -0.1222  0.4185
  334MOL0     C46001  11.847   9.318  10.705  0.2075  0.7194  2.0112
  334MOL0     O46002  11.744   9.594  10.889 -0.2418  0.7258  0.5048
  334MOL0     C46003  11.737   9.841  10.821  0.5540 -0.2124 -0.1528
  334MOL0     C46004  11.766   9.970  10.799 -0.0723 -0.1578  0.2651
  334MOL0     N46005  11.715  10.615  10.208 -0.9937  0.4284  0.0550
  334MOL0     N46006  11.666  10.665  10.099  0.2101 -0.3774  0.6060
  334MOL0     C46007  10.541  10.589   9.570  0.7882  0.1150  0.3069
  334MOL0     C46008  10.502  10.631   9.445  0.6279 -1.1999  0.2255
  334MOL0     C46009  10.455  10.806   9.029 -0.0595  0.5405 -0.7064
  334MOL0     C46010  10.401  10.936   9.045  0.4773  0.8205 -0.7980
  334MOL0     C46011  10.316  10.983   8.947  0.3429 -0.1355  1.1406
  334MOL0     C46012  10.275  10.905   8.828 -0.3901  0.5524  0.2843
  334MOL0     O46013  10.195  10.945   8.729  0.0772  0.6954  0.0544
  334MOL0     C46014  10.094  11.051   8.756 -0.8500  0.7762 -0.0933
  334MOL0     C46015  10.142  11.177   8.682 -0.2695 -0.6900  0.3154
  334MOL0     C46016  10.061  11.192   8.549 -0.3282  0.7757 -0.0266
  334MOL0     C46017  10.104  11.313   8.457  0.8028 -0.1728  0.2661
  334MOL0     C46018   9.999  11.365   8.379 -0.1155 -0.4276 -1.4052
  334MOL0     C46019   9.907  11.416   8.317 -0.2426 -0.6214  0.2628
  334MOL0     C46020  10.330  10.776   8.818 -0.6761 -0.2389  0.3972
  334MOL0     C46021  10.420  10.733   8.914  0.3881  0.3460  0.2958
  334MOL0     C46022  10.473  10.597   8.892  0.0565 -0.6860 -0.1977
  334MOL0     H46023  10.632  10.945   9.434 -1.7296  0.0338 -0.3637
  334MOL0     H46024  10.702  10.869   9.676 -0.7729  0.4410  1.1699
  334MOL0     H46025  10.730  10.764   9.904 -1.1086  0.6289 -1.1416
  334MOL0     H46026  10.839  10.699   9.778 -1.6720  0.4780 -2.4906
  334MOL0     H46027  10.716  10.551  10.016  1.0496 -0.4966  0.7184
  334MOL0     H46028  10.828  10.477   9.899 -1.0367  0.6320 -0.9620
  334MOL0     H46029  10.901  10.723  10.072  2.1631  1.2594 -0.9266
  334MOL0     H46030  10.923  10.553  10.120  0.1971 -0.8664 -0.8065
  334MOL0     H46031  11.077  10.513   9.962 -1.6219 -0.3014  0.4232
  334MOL0     H46032  11.063  10.664   9.865  1.0663 -1.1034 -0.9535
  334MOL0     H46033  11.137  10.644  10.159  0.5206  1.3518  1.5970
  334MOL0     H46034  11.132  10.796  10.059  1.6423 -0.1719 -2.0463
  334MOL0     H46035  11.316  10.771   9.948 -5.0455  1.8281  1.3246
  334MOL0     H46036  11.355  10.710  10.109  0.2837  2.3963 -0.7079
  334MOL0     H46037  11.302  10.527   9.875  0.9509 -0.1963  0.6499
  334MOL0     H46038  11.351  10.476  10.041 -1.4833  0.5068  0.7176
  334MOL0     H46039  11.542  10.519   9.838  1.0759  1.1802 -0.2215
  334MOL0     H46040  11.503  10.685   9.884 -2.9585 -0.2683 -0.9658
  334MOL0     H46041  11.606  10.341  10.071  0.0664 -0.1230  0.3358
  334MOL0     H46042  11.860  10.412  10.321  0.2290  0.8888 -1.6901
  334MOL0     H46043  11.761  10.281  10.271  2.9483  0.4535 -1.3532
  334MOL0     H46044  11.646  10.506  10.452 -0.6852 -0.5342 -0.2436
  334MOL0     H46045  11.568  10.360  10.426  0.3425 -0.2252  0.9671
  334MOL0     H46046  11.834  10.401  10.550 -0.8611  0.7311 -1.7709
  334MOL0     H46047  11.690  10.343  10.641  0.7586 -1.5100  0.9423
  334MOL0     H46048  11.707  10.133  10.494 -0.0096 -0.6961  0.5935
  334MOL0     H46049  11.866  10.182  10.454  2.8389 -0.8670  1.8747
  334MOL0     H46050  11.851   9.943  10.472  1.5015 -2.4745 -1.1886
  334MOL0     H46051  11.769   9.746  10.384  0.9118 -0.9063 -0.1233
  334MOL0     H46052  11.745   9.605  10.469  0.0828 -0.1956 -3.3243
  334MOL0     H46053  11.914   9.684  10.464  0.8738  0.7582  3.1620
  334MOL0     H46054  11.528   9.368  10.790  1.5642  1.4721 -0.6536
  334MOL0     H46055  11.557   9.107  10.844 -0.3506  1.0798  1.1356
  334MOL0     H46056  11.742   8.925  11.035 -1.7128 -1.0532  0.6914
  334MOL0     H46057  11.606   8.935  10.931  1.3284  3.2232 -2.4967
  334MOL0     H46058  11.753   8.717  10.810 -0.2850  2.1887 -0.8230
  334MOL0     H46059  11.795   8.707  10.973  2.6522  0.0547 -3.3325
  334MOL0     H46060  11.515   8.713  10.821 -0.3337 -0.1921 -0.6973
  334MOL0     H46061  11.516   8.712  10.998 -1.5772 -1.1952 -0.0913
  334MOL0     H46062  11.648   8.513  11.004  1.8138  2.5025 -0.6681
  334MOL0     H46063  11.631   8.496  10.824 -2.3359 -0.0014 -0.4614
  334MOL0     H46064  11.473   8.360  10.957  0.5911  0.3073  0.4334
  334MOL0     H46065  11.396   8.509  11.021 -0.5978 -0.4914  0.7013
  334MOL0     H46066  11.323   8.561  10.791  1.3289  0.5421  0.8007
  334MOL0     H46067  11.274   8.391  10.825 -1.1617  0.7310 -0.1635
  334MOL0     H46068  11.486   8.315  10.717  1.8378  1.0993 -1.8021
  334MOL0     H46069  11.493   8.474  10.634 -0.5964  2.5086  1.9016
  334MOL0     H46070  11.383   8.318  10.484 -1.0851  2.2855 -2.2573
  334MOL0     H46071  11.255   8.430  10.547 -1.1623 -0.6836  0.1701
  334MOL0     H46072  11.954   9.119  10.701 -0.7126 -1.6586  0.5170
  334MOL0     H46073  11.917   9.374  10.644 -3.3406  0.6789 -2.6775
  334MOL0     H46074  11.705   9.820  10.922  1.1018  0.0313  0.0732
  334MOL0     H46075  11.759  10.039  10.883 -0.2932 -0.6795  0.6789
  334MOL0     H46076  10.495  10.499   9.609 -0.9821  0.2442 -1.3386
  334MOL0     H46077  10.437  10.574   9.379  0.1750 -3.9755  2.8639
  334MOL0     H46078  10.435  11.000   9.125  1.3184 -0.1685 -0.3406
  334MOL0     H46079  10.274  11.083   8.959  1.3828  0.5985 -0.7460
  334MOL0     H46080   9.991  11.032   8.727 -0.2939  0.7816 -2.2600
  334MOL0     H46081  10.084  11.063   8.864 -0.4684 -2.3868  0.3915
  334MOL0     H46082  10.248  11.172   8.656 -0.6835  0.4216 -1.8108
  334MOL0     H46083  10.127  11.267   8.742 -1.6577 -0.2374 -0.6384
  334MOL0     H46084  10.066  11.102   8.488 -0.7454  0.8602 -0.1871
  334MOL0     H46085   9.955  11.189   8.575 -0.5096 -4.4970 -0.4053
  334MOL0     H46086  10.188  11.298   8.389 -1.3836 -0.2319 -2.6018
  334MOL0     H46087  10.113  11.400   8.523 -0.8126  0.6997 -0.6125
  334MOL0     H46088   9.824  11.467   8.273 -0.5810  1.4772  3.0654
  334MOL0     H46089  10.307  10.713   8.733  1.2613 -0.5415  0.0553
  334MOL0     H46090  10.582  10.607   8.891 -0.0506  1.0732  0.7745
  334MOL0     H46091  10.440  10.523   8.966 -1.2074 -0.5663 -0.6231
  334MOL0     H46092  10.451  10.564   8.790 -5.0302  1.9871 -0.2942
  335MOL0     O46093   2.481   6.613   1.226 -0.0985 -0.2578  0.3671
  335MOL0     C46094   2.475   6.717   1.167  0.9302 -0.3602  0.3188
  335MOL0     O46095   2.391   6.819   1.193  0.3768  0.1626  0.4831
  335MOL0     C46096   2.285   6.790   1.270 -0.5828  0.8706  0.5778
  335MOL0     C46097   2.289   6.827   1.407  0.5439 -0.7034  1.1542
  335MOL0     C46098   2.171   6.825   1.480  0.3209 -0.3421 -0.1494
  335MOL0     C46099   2.056   6.770   1.418  0.3319  0.3989  0.5045
  335MOL0     O46100   1.943   6.762   1.495  0.3967 -0.8762  0.7280
  335MOL0     C46101   1.846   6.657   1.473  0.8135  1.0453 -0.3110
  335MOL0     C46102   1.719   6.684   1.545  0.6945  0.4690  1.0928
  335MOL0     C46103   1.716   6.647   1.695 -0.0509 -0.3597 -0.4953
  335MOL0     C46104   1.830   6.718   1.779 -0.8175  0.0422 -0.4040
  335MOL0     C46105   1.819   6.870   1.782  0.9254  0.7023 -0.8524
  335MOL0     C46106   1.950   6.929   1.831 -0.0369 -0.9631  0.0436
  335MOL0     C46107   1.946   7.087   1.839  0.2673 -0.6689  0.5830
  335MOL0     C46108   1.840   7.149   1.933 -1.1091 -0.1037  0.3199
  335MOL0     N46109   1.853   7.108   2.071 -0.1399  0.4949  0.1313
  335MOL0     C46110   1.800   6.985   2.125 -0.2184  0.6951  0.3120
  335MOL0     C46111   1.832   6.992   2.254 -0.3384 -0.5602 -0.7498
  335MOL0     C46112   1.813   6.888   2.356  0.6730 -0.1106  0.5398
  335MOL0     C46113   1.933   6.802   2.397  0.1080 -0.4985  0.1898
  335MOL0     C46114   2.011   6.743   2.278  0.3565 -0.2477  0.0889
  335MOL0     C46115   1.931   6.638   2.190 -0.0247  0.3566  1.0212
  335MOL0     O46116   2.017   6.612   2.074  0.9260  0.0698  0.0166
  335MOL0     C46117   2.137   6.550   2.103 -0.7522  0.3232 -0.6043
  335MOL0     C46118   2.170   6.464   2.212  1.0536  0.5634  0.1698
  335MOL0     C46119   2.297   6.409   2.233 -0.4795  0.2381  1.0460
  335MOL0     C46120   2.316   6.315   2.349 -0.7256 -0.0110 -0.1450
  335MOL0     C46121   2.395   6.440   2.129 -0.5329  0.2964  0.2726
  335MOL0     C46122   2.540   6.396   2.140  0.1055  0.0320 -0.5877
  335MOL0     O46123   2.591   6.358   2.258  0.9643  0.3365 -0.0427
  335MOL0     C46124   2.726   6.336   2.260  0.4193 -0.9231  0.1997
  335MOL0     C46125   2.810   6.416   2.339  0.1768  0.5694 -0.3314
  335MOL0     C46126   2.948   6.374   2.355  0.4576 -0.9804  0.6509
  335MOL0     C46127   2.993   6.255   2.293  0.2604 -1.2713 -0.1458
  335MOL0     O46128   3.118   6.197   2.303 -0.7538 -1.0794 -0.8777
  335MOL0     C46129   3.235   6.265   2.244 -0.6439  0.0928  0.2210
  335MOL0     C46130   3.321   6.160   2.174  0.0178 -0.4642  0.8588
  335MOL0     C46131   3.382   6.066   2.276 -0.0912  0.4504 -0.7327
  335MOL0     C46132   3.450   5.948   2.203 -0.4628  0.6778  0.2450
  335MOL0     C46133   3.590   5.958   2.138  0.3969 -0.0822  0.4030
  335MOL0     C46134   3.686   5.997   2.246  1.1528  0.0633 -0.2259
  335MOL0     C46135   3.830   5.997   2.199  0.4891  0.0929 -0.5684
  335MOL0     C46136   3.925   6.046   2.317  0.0284 -0.6402 -0.4360
  335MOL0    Cl46137   3.896   5.949   2.471  0.3356  0.0658 -0.2037
  335MOL0     C46138   2.910   6.191   2.207 -0.4506 -0.6046  0.1203
  335MOL0     C46139   2.778   6.223   2.194 -0.5446 -0.2316  0.2534
  335MOL0     O46140   2.606   6.409   2.036 -0.6254  0.3240 -0.8152
  335MOL0     C46141   2.360   6.515   2.014  0.1550  0.0313 -1.3157
  335MOL0     C46142   2.235   6.576   2.011 -0.6657  0.0604  0.3654
  335MOL0     N46143   1.888   7.121   2.278  0.0423  0.5737 -0.7682
  335MOL0     N46144   1.908   7.179   2.170 -0.4728 -0.0294 -0.6509
  335MOL0     C46145   2.060   6.731   1.281 -0.1394  0.7309  0.0203
  335MOL0     C46146   2.168   6.751   1.206  1.6696 -0.4217  0.5646
  335MOL0     C46147   2.588   6.751   1.084  0.1724  0.1216  0.0358
  335MOL0     C46148   2.636   6.883   1.093 -0.6100  0.1992 -0.8853
  335MOL0     C46149   2.746   6.919   1.026 -0.2593  0.1991 -0.1653
  335MOL0     C46150   2.820   6.837   0.947 -1.2261 -0.3681  0.6547
  335MOL0     O46151   2.941   6.873   0.882 -0.3162  0.3669  0.2162
  335MOL0     C46152   3.013   6.991   0.931  0.2731 -0.1801  0.5597
  335MOL0     C46153   3.137   7.004   0.844 -0.0308  0.5057 -0.6215
  335MOL0     C46154   3.230   7.119   0.905  0.0701  0.2462  0.2638
  335MOL0     C46155   3.323   7.182   0.809 -0.3010 -0.1668  0.3903
  335MOL0     C46156   3.416   7.290   0.863  0.6434 -0.5825  0.7061
  335MOL0     C46157   3.492   7.362   0.914  0.3182 -0.0652  0.5353
  335MOL0     C46158   2.772   6.706   0.930 -0.0735  0.9792 -0.6611
  335MOL0     C46159   2.658   6.663   0.999  0.8338  0.1108  0.5122
  335MOL0     C46160   2.613   6.521   0.988 -0.7710  0.9745 -0.1416
  335MOL0     H46161   2.383   6.871   1.439 -0.7047  2.5603  0.7608
  335MOL0     H46162   2.171   6.862   1.582  2.6427 -0.8121  0.0854
  335MOL0     H46163   1.885   6.559   1.503 -0.3484  0.7745  0.3858
  335MOL0     H46164   1.811   6.650   1.369 -0.2032 -1.6953  0.1257
  335MOL0     H46165   1.684   6.787   1.532  1.3145  0.3363 -2.9364
  335MOL0     H46166   1.651   6.616   1.493  0.8416  2.8960 -2.7165
  335MOL0     H46167   1.621   6.678   1.740 -0.9352 -1.4666 -1.5236
  335MOL0     H46168   1.714   6.538   1.708 -0.1667 -0.5454 -1.9114
  335MOL0     H46169   1.835   6.688   1.884  0.6396  1.2233 -0.1081
  335MOL0     H46170   1.933   6.696   1.748  0.3481  2.0625  1.7016
  335MOL0     H46171   1.734   6.898   1.846  0.3175  0.8980 -1.7258
  335MOL0     H46172   1.801   6.896   1.677 -1.3725 -2.3050 -1.3402
  335MOL0     H46173   1.961   6.895   1.934 -0.6371  0.7204  0.7119
  335MOL0     H46174   2.043   6.896   1.784  1.5349  2.8293  0.0853
  335MOL0     H46175   1.926   7.130   1.740 -3.2821  2.2235  2.3088
  335MOL0     H46176   2.046   7.123   1.865  0.0974  1.7537 -1.7096
  335MOL0     H46177   1.859   7.257   1.929  2.1616 -0.5932 -0.9340
  335MOL0     H46178   1.741   7.126   1.894  0.4398 -1.8580 -2.9831
  335MOL0     H46179   1.748   6.905   2.075  1.2190  0.7515 -1.3442
  335MOL0     H46180   1.737   6.820   2.317 -2.9317  3.1152  1.4388
  335MOL0     H46181   1.783   6.943   2.445  1.8365  0.5677  0.5343
  335MOL0     H46182   2.009   6.860   2.450  0.5919  0.1865 -1.2295
  335MOL0     H46183   1.890   6.729   2.467  1.4065 -1.0008  0.4837
  335MOL0     H46184   2.046   6.822   2.210  1.4062  0.1828  1.0938
  335MOL0     H46185   2.098   6.700   2.328 -1.6188 -1.5112  2.6613
  335MOL0     H46186   1.903   6.546   2.243 -0.9789 -0.3310 -0.5844
  335MOL0     H46187   1.840   6.678   2.144  0.6660  0.2025 -0.5396
  335MOL0     H46188   2.091   6.437   2.281  0.6580 -1.2031 -0.9191
  335MOL0     H46189   2.224   6.259   2.369 -1.0941  1.3739  2.5405
  335MOL0     H46190   2.351   6.370   2.438 -1.5232  0.0213  0.1584
  335MOL0     H46191   2.391   6.242   2.319 -0.2075  0.7674 -0.7797
  335MOL0     H46192   2.765   6.500   2.391  1.2140  2.5295 -2.3786
  335MOL0     H46193   3.015   6.437   2.413 -1.6899  1.9878  0.1308
  335MOL0     H46194   3.216   6.357   2.188  3.4475  0.9993  0.0239
  335MOL0     H46195   3.288   6.318   2.323  0.1578 -0.4522  0.0552
  335MOL0     H46196   3.267   6.099   2.101  0.7280 -0.3222  0.1967
  335MOL0     H46197   3.408   6.201   2.121  1.5454 -1.2962  2.5757
  335MOL0     H46198   3.294   6.033   2.332  0.3024 -0.1140 -0.4494
  335MOL0     H46199   3.442   6.125   2.346  0.3480 -2.0145  1.1081
  335MOL0     H46200   3.392   5.911   2.118  2.4793 -0.4399 -1.3995
  335MOL0     H46201   3.444   5.871   2.280 -0.2346 -1.6622 -1.9553
  335MOL0     H46202   3.611   5.857   2.100  1.5344  0.9316 -1.8098
  335MOL0     H46203   3.584   6.045   2.073  1.1552  1.0462  1.7866
  335MOL0     H46204   3.667   5.929   2.330 -3.5096  0.8999 -0.2911
  335MOL0     H46205   3.667   6.097   2.286  1.1761  0.0846 -0.2687
  335MOL0     H46206   3.852   6.051   2.106  1.2524 -1.1519 -1.1382
  335MOL0     H46207   3.859   5.896   2.169 -2.7975 -0.7737 -1.2786
  335MOL0     H46208   3.903   6.153   2.321 -3.4342 -1.1719 -1.7801
  335MOL0     H46209   4.031   6.030   2.294  0.3978  1.6892 -0.6361
  335MOL0     H46210   2.940   6.108   2.144 -0.6901 -0.0730 -0.7086
  335MOL0     H46211   2.715   6.166   2.127 -0.6477 -1.9767  1.7868
  335MOL0     H46212   2.421   6.545   1.929  1.7928  2.3462  0.5667
  335MOL0     H46213   2.198   6.644   1.935  1.8247  1.1489  0.0126
  335MOL0     H46214   1.973   6.685   1.235 -0.7756  0.5463  1.3590
  335MOL0     H46215   2.172   6.721   1.102  2.0177  2.2802 -0.2698
  335MOL0     H46216   2.579   6.960   1.144 -0.3013  0.6647 -1.2360
  335MOL0     H46217   2.782   7.015   1.059 -0.5844  0.9605 -1.8910
  335MOL0     H46218   2.951   7.079   0.911 -1.9091 -1.2836  2.0018
  335MOL0     H46219   3.027   6.971   1.037  2.6968 -2.2430 -0.0673
  335MOL0     H46220   3.101   7.028   0.744 -2.0088 -0.3045 -0.1574
  335MOL0     H46221   3.190   6.908   0.838 -1.7033 -0.4527 -0.9164
  335MOL0     H46222   3.173   7.200   0.950  3.6089  2.2181  1.6139
  335MOL0     H46223   3.289   7.079   0.988 -0.7572 -0.1454  0.6760
  335MOL0     H46224   3.267   7.225   0.726 -0.6506  1.4700  1.4092
  335MOL0     H46225   3.387   7.104   0.767 -0.8265  0.7804 -2.3894
  335MOL0     H46226   3.565   7.432   0.951  3.3564 -2.0788 -1.2249
  335MOL0     H46227   2.834   6.636   0.875  1.7039  1.4313  0.6571
  335MOL0     H46228   2.692   6.470   0.931 -1.5447  5.6889 -6.5470
  335MOL0     H46229   2.599   6.479   1.088 -3.4132  0.7748 -0.5229
  335MOL0     H46230   2.525   6.504   0.925 -0.7877  1.0950 -0.1520
  336MOL0     O46231   7.355  11.346  10.228  0.0922  0.0456  0.1468
  336MOL0     C46232   7.287  11.261  10.170 -0.2521 -0.1594 -1.2168
  336MOL0     O46233   7.320  11.210  10.054  0.5163  0.0815 -0.3961
  336MOL0     C46234   7.436  11.250  10.001 -0.6259  0.8695  0.8043
  336MOL0     C46235   7.552  11.168   9.988  0.3233  0.0765 -0.1951
  336MOL0     C46236   7.668  11.219   9.928  0.0484 -0.1825 -0.6655
  336MOL0     C46237   7.677  11.347   9.882  0.5124  0.2963  0.3189
  336MOL0     O46238   7.797  11.396   9.847  0.2292  0.1338  0.0805
  336MOL0     C46239   7.830  11.531   9.843 -0.1322  0.0725  0.2381
  336MOL0     C46240   7.973  11.532   9.795 -0.2108  0.2395  0.3407
  336MOL0     C46241   8.046  11.668   9.789  0.2584 -0.3743  0.5974
  336MOL0     C46242   7.958  11.773   9.711 -0.4268  0.7593  0.2640
  336MOL0     C46243   8.046  11.897   9.683 -0.6073 -0.9420 -0.4556
  336MOL0     C46244   8.137  11.876   9.563  0.4611 -0.3712 -0.4425
  336MOL0     C46245   8.232  11.991   9.547  0.0044 -0.2224 -0.4554
  336MOL0     C46246   8.309  11.958   9.426  0.7095 -0.5017  0.8198
  336MOL0     N46247   8.412  12.062   9.393  0.5928 -0.6256 -0.1230
  336MOL0     C46248   8.422  12.137   9.281  0.5962  0.3539  0.3606
  336MOL0     C46249   8.528  12.214   9.292  0.4787 -0.1517 -0.4518
  336MOL0     C46250   8.572  12.314   9.189 -0.2924 -0.4127  0.3767
  336MOL0     C46251   8.645  12.245   9.082  1.3964 -0.1517  0.0245
  336MOL0     C46252   8.674  12.324   8.962  0.1792  0.4069 -0.0297
  336MOL0     C46253   8.776  12.240   8.876 -1.0790 -0.1489 -0.0059
  336MOL0     O46254   8.825  12.324   8.771 -0.3452 -0.3892 -0.3552
  336MOL0     C46255   8.939  12.401   8.784  0.2301 -0.3915 -0.0064
  336MOL0     C46256   8.972  12.485   8.679  0.0658  0.1474 -0.2362
  336MOL0     C46257   9.080  12.580   8.687  0.5344 -0.2018  0.0761
  336MOL0     C46258   9.097  12.669   8.566  0.4480  0.0031  0.2321
  336MOL0     C46259   9.157  12.590   8.798  0.3394  0.0997  0.5364
  336MOL0     C46260   9.264  12.687   8.809  0.2574 -0.4833  0.2183
  336MOL0     O46261   9.391  12.643   8.819 -0.4151  1.1234 -0.3846
  336MOL0     C46262   9.496  12.739   8.846  0.0422  0.6456  0.2516
  336MOL0     C46263   9.624  12.695   8.809  0.1410  0.6337  0.2893
  336MOL0     C46264   9.734  12.778   8.820 -0.1220  0.6842  0.1730
  336MOL0     C46265   9.718  12.902   8.879  0.0663  0.1554  0.6468
  336MOL0     O46266   9.820  12.990   8.902 -0.4897  0.1978  0.0650
  336MOL0     C46267   9.931  12.933   8.976 -0.8605 -0.1007 -0.4903
  336MOL0     C46268  10.023  13.046   9.015 -1.0120 -0.1940 -0.3932
  336MOL0     C46269  10.140  12.986   9.098  0.1908  0.5789  0.6053
  336MOL0     C46270  10.279  13.003   9.028 -0.6618  0.2141 -0.6372
  336MOL0     C46271  10.305  12.913   8.901 -0.1169  0.4179 -0.3722
  336MOL0     C46272  10.350  12.764   8.935 -0.1774  0.1880  0.1062
  336MOL0     C46273  10.391  12.703   8.796  0.4717 -0.0419  0.0119
  336MOL0     C46274  10.272  12.679   8.688 -0.6843  0.7349 -0.3617
  336MOL0    Cl46275  10.136  12.576   8.727 -0.5260 -0.1156 -0.1271
  336MOL0     C46276   9.597  12.939   8.931 -0.3173  0.2951 -0.7545
  336MOL0     C46277   9.483  12.855   8.920  0.0937  0.0055  0.3608
  336MOL0     O46278   9.228  12.806   8.813 -0.4021  0.1384  0.7482
  336MOL0     C46279   9.122  12.501   8.900 -0.3694  1.0498 -0.4112
  336MOL0     C46280   9.012  12.411   8.895 -0.1131  0.4062  0.3022
  336MOL0     N46281   8.590  12.180   9.405 -0.2846 -0.1021  0.0986
  336MOL0     N46282   8.524  12.098   9.476  1.0587 -0.9542 -0.0052
  336MOL0     C46283   7.558  11.425   9.879  0.3996 -0.2964 -1.1255
  336MOL0     C46284   7.442  11.376   9.934  0.1800  0.0660  0.5085
  336MOL0     C46285   7.154  11.226  10.233  1.1454  0.0112  0.4972
  336MOL0     C46286   7.056  11.151  10.158  0.3542  0.1893  0.1233
  336MOL0     C46287   6.943  11.084  10.215 -0.3600  0.2836  0.1477
  336MOL0     C46288   6.913  11.118  10.347 -0.8044  1.0208 -1.1903
  336MOL0     O46289   6.798  11.083  10.420 -0.3647 -0.0108 -0.4046
  336MOL0     C46290   6.680  11.036  10.355 -0.3146 -0.5971  0.5439
  336MOL0     C46291   6.644  10.893  10.377 -0.8723 -0.4062  0.1320
  336MOL0     C46292   6.586  10.874  10.517 -0.6064 -0.1680  0.0152
  336MOL0     C46293   6.569  10.722  10.541  0.6064  0.2906 -0.2256
  336MOL0     C46294   6.476  10.696  10.647  0.1776  0.8202 -0.3987
  336MOL0     C46295   6.406  10.677  10.744  0.3604  0.7573  0.9768
  336MOL0     C46296   6.993  11.208  10.417 -1.2615 -0.1068  0.0519
  336MOL0     C46297   7.119  11.257  10.369  0.9506 -0.0650 -0.1384
  336MOL0     C46298   7.196  11.338  10.471 -0.0289 -0.1901 -0.1309
  336MOL0     H46299   7.560  11.070  10.033 -2.0264 -0.7547 -1.4197
  336MOL0     H46300   7.755  11.155   9.937  0.3511  0.4858  2.1041
  336MOL0     H46301   7.813  11.568   9.945 -0.1507 -0.2147  0.3394
  336MOL0     H46302   7.772  11.593   9.774  0.3956  2.3022  1.6915
  336MOL0     H46303   8.025  11.461   9.860 -0.3654  0.1044  0.3179
  336MOL0     H46304   7.971  11.485   9.697  0.2405  1.0529 -0.0629
  336MOL0     H46305   8.075  11.709   9.886  0.0327  1.9277 -0.2485
  336MOL0     H46306   8.134  11.658   9.725 -1.0509 -2.9782 -0.9816
  336MOL0     H46307   7.929  11.719   9.619 -2.5688 -1.7853  2.2535
  336MOL0     H46308   7.868  11.806   9.765 -1.3446 -0.0683 -0.6971
  336MOL0     H46309   8.096  11.944   9.768 -1.5950 -0.1260 -0.2986
  336MOL0     H46310   7.986  11.981   9.645 -1.1568 -1.5323 -0.9293
  336MOL0     H46311   8.194  11.783   9.572 -0.0507 -0.9172 -2.3179
  336MOL0     H46312   8.076  11.868   9.473  1.2768 -0.1945 -1.0193
  336MOL0     H46313   8.306  12.008   9.627 -1.3528  2.0239  0.4023
  336MOL0     H46314   8.163  12.075   9.542 -1.4573 -1.3749 -0.2960
  336MOL0     H46315   8.359  11.862   9.442 -2.0766 -1.8078  2.3507
  336MOL0     H46316   8.235  11.945   9.347  0.4215  1.4517  0.7206
  336MOL0     H46317   8.356  12.126   9.195  0.3641  2.9360  0.1255
  336MOL0     H46318   8.645  12.383   9.233  0.5105  0.1556 -1.7470
  336MOL0     H46319   8.490  12.367   9.139  1.9993  1.6693 -1.4036
  336MOL0     H46320   8.742  12.211   9.119  1.0139 -2.4705 -0.9502
  336MOL0     H46321   8.602  12.152   9.044  2.5151 -1.2387  1.3248
  336MOL0     H46322   8.585  12.337   8.901  0.8810 -0.0168 -1.1677
  336MOL0     H46323   8.721  12.417   8.994  1.4430  0.2035 -1.1980
  336MOL0     H46324   8.854  12.191   8.935 -0.4429  1.3372  0.4324
  336MOL0     H46325   8.709  12.171   8.825  0.3923 -0.3222 -1.7797
  336MOL0     H46326   8.906  12.485   8.592 -2.9039  1.3172  1.8320
  336MOL0     H46327   9.195  12.717   8.569  0.1415  0.8116 -1.6917
  336MOL0     H46328   9.018  12.745   8.569 -1.9473 -2.1992 -2.0970
  336MOL0     H46329   9.071  12.610   8.478 -1.6830 -1.2624  1.6149
  336MOL0     H46330   9.646  12.592   8.782  3.3079  1.1898  0.4209
  336MOL0     H46331   9.834  12.750   8.788  0.6560  2.7126  0.6679
  336MOL0     H46332   9.892  12.885   9.066 -1.2059 -0.3970 -0.7924
  336MOL0     H46333   9.982  12.853   8.920  1.4318  0.8678  0.1191
  336MOL0     H46334  10.067  13.105   8.933  0.0077 -0.5174 -0.0921
  336MOL0     H46335   9.972  13.118   9.079 -0.6634  2.5724 -2.9682
  336MOL0     H46336  10.123  12.882   9.124  0.3229  0.4662  0.2548
  336MOL0     H46337  10.144  13.035   9.196  1.8810  0.6607  0.5324
  336MOL0     H46338  10.354  12.979   9.105 -0.5566 -0.0750 -0.8288
  336MOL0     H46339  10.282  13.110   9.005  1.0889  0.2260 -0.4991
  336MOL0     H46340  10.215  12.898   8.841 -1.3984  0.3398  1.5064
  336MOL0     H46341  10.390  12.951   8.842 -0.3615 -0.3022 -1.2161
  336MOL0     H46342  10.266  12.710   8.978 -0.7702  0.1193 -1.1107
  336MOL0     H46343  10.428  12.775   9.011 -2.9591 -0.6234  3.2961
  336MOL0     H46344  10.439  12.607   8.816  1.9493  0.5212 -0.6769
  336MOL0     H46345  10.471  12.768   8.760  0.7725 -1.2622 -1.6584
  336MOL0     H46346  10.329  12.622   8.614  0.9838  3.0621 -1.0055
  336MOL0     H46347  10.249  12.780   8.651  3.0166  2.4171  1.3975
  336MOL0     H46348   9.587  13.037   8.977  5.9868  0.2385  1.7792
  336MOL0     H46349   9.388  12.882   8.965  0.0839 -1.9613  1.6548
  336MOL0     H46350   9.186  12.491   8.987  1.9393  2.2276 -1.8859
  336MOL0     H46351   8.996  12.344   8.979  0.2902 -1.7080 -1.2155
  336MOL0     H46352   7.559  11.525   9.836  2.8756 -1.2157 -3.4548
  336MOL0     H46353   7.352  11.436   9.928 -0.9902 -1.6880 -0.3013
  336MOL0     H46354   7.074  11.127  10.053  0.8882  0.7972  0.0702
  336MOL0     H46355   6.870  11.022  10.166 -0.6582  1.2243 -0.6365
  336MOL0     H46356   6.588  11.086  10.386 -0.9538 -1.5021  0.1653
  336MOL0     H46357   6.685  11.075  10.253 -0.3695  2.1214  1.5200
  336MOL0     H46358   6.733  10.833  10.355 -1.1034 -0.6530 -0.1316
  336MOL0     H46359   6.574  10.863  10.299  1.1071  1.9236 -2.7615
  336MOL0     H46360   6.638  10.921  10.601  0.1797 -0.4724 -0.2854
  336MOL0     H46361   6.484  10.914  10.518  0.0171  1.4764  0.5771
  336MOL0     H46362   6.670  10.684  10.558  1.3293  1.1203 -2.3169
  336MOL0     H46363   6.539  10.680  10.445  0.0252  2.2899 -0.9660
  336MOL0     H46364   6.348  10.644  10.828  0.6462 -2.1434  0.1332
  336MOL0     H46365   6.956  11.232  10.517  0.9911  0.1391  0.8868
  336MOL0     H46366   7.301  11.309  10.474 -0.1583 -0.8729 -1.3432
  336MOL0     H46367   7.189  11.444  10.446 -3.0147 -0.0286  0.9960
  336MOL0     H46368   7.146  11.321  10.567 -1.2250  0.3848 -0.6272
  337MOL0     O46369  10.059   5.870   2.564  0.4826 -0.0425 -0.3440
  337MOL0     C46370  10.077   5.985   2.532 -0.1516  0.0624  0.5076
  337MOL0     O46371   9.995   6.091   2.563  0.2958 -0.2603  1.1553
  337MOL0     C46372   9.904   6.069   2.659 -0.2948 -0.1350 -0.7971
  337MOL0     C46373   9.907   6.138   2.785 -0.5838  0.8242  0.5622
  337MOL0     C46374   9.801   6.118   2.878 -1.0962 -0.8332  0.8374
  337MOL0     C46375   9.697   6.019   2.848  0.2073  0.0423 -0.4148
  337MOL0     O46376   9.583   5.999   2.921  0.2878  0.2652 -0.8576
  337MOL0     C46377   9.575   6.055   3.049 -0.0564 -0.2495  0.8772
  337MOL0     C46378   9.433   6.072   3.102  1.4917  0.4297 -0.3939
  337MOL0     C46379   9.363   5.944   3.121  0.0319 -0.4009 -1.0816
  337MOL0     C46380   9.219   5.967   3.177  0.2035 -0.0126 -0.4720
  337MOL0     C46381   9.145   5.840   3.205  0.0692 -0.0695 -0.2420
  337MOL0     C46382   9.043   5.866   3.316 -0.0222  0.2680 -0.2221
  337MOL0     C46383   8.983   5.737   3.381 -0.6071 -0.0114  0.5397
  337MOL0     C46384   8.872   5.760   3.483 -0.2514 -0.0145  0.0583
  337MOL0     N46385   8.894   5.862   3.584  0.1977  0.0443  0.0891
  337MOL0     C46386   9.005   5.858   3.669  0.1677 -0.5325  0.0111
  337MOL0     C46387   8.984   5.964   3.747 -0.2458 -0.6004  0.1555
  337MOL0     C46388   9.081   6.022   3.853  0.9516  0.1654  0.8805
  337MOL0     C46389   9.121   6.160   3.817  0.2489 -0.2384  0.1957
  337MOL0     C46390   9.225   6.217   3.909 -0.3329  0.0180 -0.6944
  337MOL0     C46391   9.302   6.333   3.840 -0.4564  0.0249 -0.3388
  337MOL0     O46392   9.347   6.414   3.940  1.0030 -0.4259 -0.3756
  337MOL0     C46393   9.476   6.402   3.979 -1.7306 -0.2603 -0.1669
  337MOL0     C46394   9.511   6.321   4.085 -1.2608 -0.3363  0.5853
  337MOL0     C46395   9.638   6.308   4.134 -0.3952  0.4691  0.4200
  337MOL0     C46396   9.665   6.238   4.274  0.1880 -0.9522 -0.4542
  337MOL0     C46397   9.745   6.389   4.076 -0.6876 -0.4506  0.0786
  337MOL0     C46398   9.888   6.383   4.126 -0.0903 -0.4275 -0.2047
  337MOL0     O46399   9.932   6.262   4.159 -0.4463  0.2140  0.4358
  337MOL0     C46400  10.065   6.242   4.194  0.1617 -0.2201  0.6730
  337MOL0     C46401  10.115   6.264   4.326 -0.5432  0.3639 -0.4064
  337MOL0     C46402  10.247   6.213   4.352  0.5539  0.2618 -0.3866
  337MOL0     C46403  10.325   6.131   4.266  0.3367  0.1442  1.4864
  337MOL0     O46404  10.448   6.090   4.301 -0.1699 -0.1450  0.2702
  337MOL0     C46405  10.492   6.094   4.440 -0.4757  0.0844 -0.1525
  337MOL0     C46406  10.578   6.217   4.462 -0.1343  0.3750 -0.4225
  337MOL0     C46407  10.695   6.215   4.364 -0.0731 -0.5887  0.4560
  337MOL0     C46408  10.794   6.324   4.398 -0.6031  0.7549 -0.4280
  337MOL0     C46409  10.733   6.466   4.425 -0.1493  0.5391  0.0936
  337MOL0     C46410  10.669   6.529   4.299 -0.7333  0.7898  0.2367
  337MOL0     C46411  10.585   6.653   4.346 -0.1707  0.9306  0.8326
  337MOL0     C46412  10.556   6.752   4.231  0.1324 -0.4842 -0.4858
  337MOL0    Cl46413  10.679   6.877   4.203  0.1853  0.4473  0.1609
  337MOL0     C46414  10.268   6.099   4.147 -1.0783 -0.7811  0.8559
  337MOL0     C46415  10.144   6.162   4.106  0.8514  0.4247  0.0536
  337MOL0     O46416   9.959   6.483   4.114  0.7284  0.4715 -0.4128
  337MOL0     C46417   9.711   6.483   3.971  0.4912  0.1824 -0.4484
  337MOL0     C46418   9.580   6.474   3.918 -0.2426 -0.2015 -0.4841
  337MOL0     N46419   8.863   6.024   3.703 -0.6294  0.2207  0.3033
  337MOL0     N46420   8.814   5.961   3.608 -0.2323  0.9764  0.4539
  337MOL0     C46421   9.699   5.957   2.727 -0.1281 -1.2066 -0.1514
  337MOL0     C46422   9.803   5.977   2.637 -0.8248 -0.5742 -0.1854
  337MOL0     C46423  10.210   6.029   2.461  0.4979 -0.4494 -0.3066
  337MOL0     C46424  10.227   6.160   2.434 -0.3606  0.7314  0.0751
  337MOL0     C46425  10.339   6.212   2.362  0.0903  0.1927 -0.1846
  337MOL0     C46426  10.449   6.128   2.328 -0.6151 -0.0474  0.1484
  337MOL0     O46427  10.554   6.165   2.243 -0.2676 -0.8705 -0.2198
  337MOL0     C46428  10.557   6.294   2.198  0.3343 -0.5430 -0.6843
  337MOL0     C46429  10.690   6.313   2.124  0.5375 -0.2891 -0.3127
  337MOL0     C46430  10.803   6.273   2.212 -0.3393  0.2882  0.4668
  337MOL0     C46431  10.938   6.275   2.135  0.1265 -0.4460 -0.8822
  337MOL0     C46432  11.050   6.258   2.229  0.2678  0.0799  0.0812
  337MOL0     C46433  11.133   6.251   2.323 -0.9785  0.1513  0.0322
  337MOL0     C46434  10.437   5.989   2.366 -0.3026 -0.1216 -0.4661
  337MOL0     C46435  10.314   5.934   2.426 -1.0207  0.4938  0.5505
  337MOL0     C46436  10.313   5.785   2.446  0.6309 -0.6101  0.7876
  337MOL0     H46437   9.990   6.203   2.813 -1.5880  2.2954  0.2022
  337MOL0     H46438   9.811   6.181   2.966 -1.1040  2.6680 -1.4759
  337MOL0     H46439   9.605   6.160   3.046 -1.1445  0.0641 -2.4546
  337MOL0     H46440   9.642   6.000   3.117  2.3696 -0.1383 -1.2778
  337MOL0     H46441   9.443   6.121   3.199  3.2501 -1.3803  0.4187
  337MOL0     H46442   9.374   6.142   3.043 -0.7405  0.7799  2.0601
  337MOL0     H46443   9.354   5.910   3.018 -1.6149  2.2325 -1.9095
  337MOL0     H46444   9.420   5.876   3.185 -1.4705 -0.6188  0.0853
  337MOL0     H46445   9.235   6.024   3.269 -1.0068 -0.8699  0.2899
  337MOL0     H46446   9.166   6.044   3.119  0.6121  0.1560 -0.6316
  337MOL0     H46447   9.221   5.767   3.231  2.4569  2.0697 -0.7562
  337MOL0     H46448   9.094   5.808   3.113 -3.5634  0.3846  1.4239
  337MOL0     H46449   9.082   5.932   3.394 -3.0294  1.0000  0.7960
  337MOL0     H46450   8.965   5.926   3.269 -1.0791  1.0232  2.3566
  337MOL0     H46451   9.062   5.683   3.434 -0.6131 -0.7106 -0.1503
  337MOL0     H46452   8.943   5.675   3.300 -0.0230 -0.5499  0.6568
  337MOL0     H46453   8.778   5.780   3.430 -1.0599 -0.8087  1.1482
  337MOL0     H46454   8.853   5.669   3.539  0.3551 -0.2311 -0.0784
  337MOL0     H46455   9.087   5.787   3.674 -0.5198 -1.3424 -0.0150
  337MOL0     H46456   9.173   5.964   3.852  0.7825 -0.1844 -2.0203
  337MOL0     H46457   9.031   6.023   3.951 -5.0001 -3.7211 -1.5028
  337MOL0     H46458   9.162   6.164   3.716 -1.4195  1.6310 -0.4800
  337MOL0     H46459   9.044   6.237   3.816 -0.0259 -0.4956 -1.8555
  337MOL0     H46460   9.172   6.239   4.002 -0.6515  0.9397 -1.0848
  337MOL0     H46461   9.297   6.136   3.925 -0.1481 -0.2971 -2.7829
  337MOL0     H46462   9.388   6.282   3.795  0.6096  0.3072  1.2500
  337MOL0     H46463   9.243   6.396   3.774 -0.0576  0.5547 -0.1998
  337MOL0     H46464   9.436   6.266   4.142 -1.2888 -0.7008  0.2007
  337MOL0     H46465   9.721   6.145   4.263 -1.7213 -2.2905  0.5103
  337MOL0     H46466   9.566   6.222   4.318  0.2840 -1.1702 -0.3150
  337MOL0     H46467   9.718   6.311   4.335  1.0549 -0.3518 -1.8840
  337MOL0     H46468  10.046   6.306   4.399 -0.7474 -1.0788  0.2493
  337MOL0     H46469  10.277   6.230   4.455 -1.7332  1.2360  0.1881
  337MOL0     H46470  10.407   6.083   4.508 -0.5842 -1.3703 -0.5018
  337MOL0     H46471  10.556   6.008   4.459  0.6508  0.8738 -0.3011
  337MOL0     H46472  10.511   6.303   4.451 -1.2971 -0.1595  1.8558
  337MOL0     H46473  10.621   6.236   4.561 -0.6980  0.2772 -0.1556
  337MOL0     H46474  10.667   6.240   4.261  0.6844 -0.9351  0.1595
  337MOL0     H46475  10.740   6.115   4.366 -1.8861 -1.4608  1.8789
  337MOL0     H46476  10.874   6.323   4.323  0.6854  0.3714  0.8970
  337MOL0     H46477  10.837   6.310   4.498 -0.3597  3.7006 -0.0068
  337MOL0     H46478  10.661   6.455   4.506  1.6990 -0.5911  1.6800
  337MOL0     H46479  10.808   6.530   4.473  0.0924  0.0784  0.3356
  337MOL0     H46480  10.601   6.456   4.254  0.6851  0.1340 -0.9102
  337MOL0     H46481  10.745   6.547   4.222 -1.2320 -0.5827 -0.6124
  337MOL0     H46482  10.647   6.710   4.417  2.9881  2.1090 -2.5363
  337MOL0     H46483  10.488   6.627   4.390 -0.1038 -0.2005  0.3334
  337MOL0     H46484  10.459   6.803   4.242 -1.3179 -2.5529 -2.6208
  337MOL0     H46485  10.551   6.688   4.142 -1.5669  1.5201 -1.9492
  337MOL0     H46486  10.318   6.035   4.075  0.0506 -0.8152  1.6445
  337MOL0     H46487  10.095   6.126   4.016  2.0079 -0.8201 -0.1156
  337MOL0     H46488   9.783   6.537   3.910  1.6492 -1.6718 -0.8158
  337MOL0     H46489   9.568   6.543   3.835  0.9298 -0.0962 -0.5861
  337MOL0     H46490   9.625   5.880   2.710 -2.4329 -0.1679  3.8287
  337MOL0     H46491   9.797   5.939   2.535 -1.6707 -1.2147  0.0969
  337MOL0     H46492  10.148   6.233   2.452 -2.8140 -1.1520 -2.2067
  337MOL0     H46493  10.337   6.316   2.332  2.5727 -0.0225 -1.3461
  337MOL0     H46494  10.477   6.317   2.127 -0.9973  3.4639  1.7481
  337MOL0     H46495  10.568   6.361   2.284 -1.1662 -1.0891 -0.0348
  337MOL0     H46496  10.703   6.414   2.086 -1.8235 -0.1590 -0.9707
  337MOL0     H46497  10.688   6.245   2.038 -0.5640 -2.0349  1.0246
  337MOL0     H46498  10.803   6.344   2.295 -1.4747  0.7868  0.0556
  337MOL0     H46499  10.797   6.170   2.249 -1.6115 -1.0677 -3.0532
  337MOL0     H46500  10.955   6.367   2.079  1.1510 -0.7522 -1.1120
  337MOL0     H46501  10.939   6.191   2.064  1.3368  1.5564 -3.3903
  337MOL0     H46502  11.198   6.263   2.407  1.3124  6.4493 -2.0929
  337MOL0     H46503  10.516   5.928   2.323  0.7196 -0.8875  2.3133
  337MOL0     H46504  10.271   5.737   2.357  0.7769  2.0371 -0.8311
  337MOL0     H46505  10.416   5.750   2.460  0.8371 -0.1879  0.3669
  337MOL0     H46506  10.259   5.762   2.538 -1.0832 -1.7615 -0.4383
  338MOL0     O46507   5.535  10.175   3.443  0.0502  0.4644 -0.0063
  338MOL0     C46508   5.552  10.065   3.393 -1.3823 -0.3851  0.1133
  338MOL0     O46509   5.674   9.993   3.398  0.8461 -0.0451  0.1338
  338MOL0     C46510   5.771  10.020   3.486  0.4684  0.3600 -0.2782
  338MOL0     C46511   5.857   9.907   3.492  0.6960 -0.2756 -0.0559
  338MOL0     C46512   5.948   9.898   3.592  0.6967 -1.1757 -0.6090
  338MOL0     C46513   5.972  10.009   3.676 -0.4751 -0.0323  0.3126
  338MOL0     O46514   6.068   9.998   3.770  0.3532  0.1981  0.2616
  338MOL0     C46515   6.068  10.099   3.864  0.0317 -0.9252  0.2933
  338MOL0     C46516   6.134  10.044   3.997  0.3287 -0.1122  0.3846
  338MOL0     C46517   6.264   9.972   3.978  0.0483 -0.3682 -0.3287
  338MOL0     C46518   6.368  10.065   3.911  0.0070 -0.5007 -0.2182
  338MOL0     C46519   6.499   9.991   3.902 -0.0632  0.2787  0.7710
  338MOL0     C46520   6.604  10.096   3.870  0.2208  0.3587 -0.1776
  338MOL0     C46521   6.749  10.034   3.861 -0.3588  0.8377 -1.2581
  338MOL0     C46522   6.863  10.130   3.822  0.2289 -0.2972  0.1342
  338MOL0     N46523   6.993  10.062   3.845  0.1719  0.5301  0.3537
  338MOL0     C46524   7.040  10.044   3.971 -0.6864  0.0073 -0.1846
  338MOL0     C46525   7.169   9.990   3.956 -0.8860  0.6363 -0.1418
  338MOL0     C46526   7.267   9.924   4.055 -0.1513  0.2466 -0.4683
  338MOL0     C46527   7.369   9.825   3.995  0.1778 -0.0263  0.3429
  338MOL0     C46528   7.286   9.697   3.973 -0.2633  0.0262  0.5154
  338MOL0     C46529   7.336   9.622   3.847 -0.1077 -0.1710 -0.6641
  338MOL0     O46530   7.270   9.496   3.834 -0.2202  0.7399  0.3523
  338MOL0     C46531   7.136   9.496   3.773 -0.4080  1.0299  0.4330
  338MOL0     C46532   7.087   9.599   3.690  0.4680  0.0573  0.7469
  338MOL0     C46533   6.961   9.581   3.634 -1.0235  0.2420 -0.4124
  338MOL0     C46534   6.891   9.704   3.586  0.3649  0.1513 -0.5949
  338MOL0     C46535   6.891   9.458   3.645  0.4548  1.1614  0.7899
  338MOL0     C46536   6.775   9.437   3.560  0.7062 -0.3106  0.3207
  338MOL0     O46537   6.680   9.527   3.587  0.0847 -0.0122  0.5958
  338MOL0     C46538   6.562   9.540   3.519  0.7174 -0.8774 -0.3776
  338MOL0     C46539   6.502   9.666   3.525 -0.7804  0.8205  0.8885
  338MOL0     C46540   6.375   9.690   3.473  0.4034 -0.0783 -0.0371
  338MOL0     C46541   6.305   9.583   3.406 -0.2292  0.0250  1.2219
  338MOL0     O46542   6.188   9.596   3.328 -0.0240 -0.4942 -0.5928
  338MOL0     C46543   6.135   9.727   3.306  0.8420  0.0455 -0.5134
  338MOL0     C46544   6.031   9.715   3.195 -0.2602  0.7263  0.4845
  338MOL0     C46545   5.929   9.606   3.203  0.0968  0.2831 -0.2768
  338MOL0     C46546   5.863   9.583   3.061 -0.9335 -0.4166  0.8304
  338MOL0     C46547   5.796   9.701   2.999 -0.2236  0.9357 -0.6726
  338MOL0     C46548   5.724   9.662   2.868 -0.1442 -0.4292  0.2825
  338MOL0     C46549   5.601   9.750   2.853 -0.6667 -0.4851  0.1239
  338MOL0     C46550   5.498   9.690   2.751 -0.2828 -0.3434  0.0811
  338MOL0    Cl46551   5.436   9.528   2.811  0.3916 -0.1233 -0.0936
  338MOL0     C46552   6.373   9.465   3.394  0.3227 -0.6568 -0.3715
  338MOL0     C46553   6.496   9.440   3.446 -0.6656 -0.3184  0.1567
  338MOL0     O46554   6.778   9.358   3.464 -0.3560  0.3167 -0.0605
  338MOL0     C46555   6.947   9.352   3.714 -0.0570 -0.2696 -0.4233
  338MOL0     C46556   7.071   9.373   3.783 -0.6045 -0.3767 -0.6460
  338MOL0     N46557   7.194   9.982   3.822  0.3542  0.0792  0.2292
  338MOL0     N46558   7.089  10.017   3.755 -0.5221 -0.0780 -1.1848
  338MOL0     C46559   5.897  10.126   3.652 -0.8851 -1.5291  0.0131
  338MOL0     C46560   5.795  10.127   3.564  0.0104  0.2949  0.4138
  338MOL0     C46561   5.459  10.009   3.293  0.3547 -0.0570  0.2682
  338MOL0     C46562   5.387  10.095   3.214  0.2620 -0.1369 -0.0467
  338MOL0     C46563   5.295  10.055   3.120  0.7254 -0.0041 -0.2170
  338MOL0     C46564   5.272   9.925   3.100 -0.3414  0.8773  0.4443
  338MOL0     O46565   5.179   9.895   3.005  0.8652 -0.1041 -0.5575
  338MOL0     C46566   5.180   9.758   2.971  0.3874  0.6123  0.6720
  338MOL0     C46567   5.086   9.743   2.859 -0.2286  0.9286  0.6125
  338MOL0     C46568   4.937   9.752   2.909 -0.8620  0.4154 -0.1574
  338MOL0     C46569   4.840   9.716   2.788 -0.3451 -0.7421 -0.1039
  338MOL0     C46570   4.699   9.737   2.824 -0.1033 -0.0951  0.4535
  338MOL0     C46571   4.591   9.751   2.882  0.1431 -0.2488  0.7283
  338MOL0     C46572   5.347   9.830   3.172 -0.0363 -0.0167 -0.4370
  338MOL0     C46573   5.433   9.869   3.276 -0.1363  0.5327  0.1687
  338MOL0     C46574   5.494   9.761   3.362 -0.2551  0.2185  0.2085
  338MOL0     H46575   5.840   9.822   3.427  0.5364 -0.2006 -0.1135
  338MOL0     H46576   6.000   9.804   3.607  1.5012 -0.4199  1.8030
  338MOL0     H46577   5.969  10.129   3.898 -0.4112 -2.6593  0.5883
  338MOL0     H46578   6.119  10.187   3.823 -1.7767 -0.2154 -0.5509
  338MOL0     H46579   6.151  10.122   4.072 -0.3421  1.2698 -0.8441
  338MOL0     H46580   6.068   9.968   4.039  1.0127 -3.2167 -3.5415
  338MOL0     H46581   6.303   9.951   4.078  0.5934  0.8902 -0.2491
  338MOL0     H46582   6.249   9.876   3.928 -0.8523 -0.1050 -0.5787
  338MOL0     H46583   6.341  10.099   3.811 -0.9136  0.8701  0.4635
  338MOL0     H46584   6.372  10.152   3.977 -2.1943 -1.2447  1.0046
  338MOL0     H46585   6.498   9.928   3.812  0.2664  4.1817 -2.2734
  338MOL0     H46586   6.532   9.924   3.981  0.7016 -0.3469 -0.0456
  338MOL0     H46587   6.573  10.143   3.776  0.9760 -0.2972 -0.7775
  338MOL0     H46588   6.606  10.169   3.951  0.9114  1.3515 -1.0501
  338MOL0     H46589   6.743   9.942   3.803  0.4213 -1.1087  1.5325
  338MOL0     H46590   6.788   9.998   3.957 -0.1756  3.4383 -0.2833
  338MOL0     H46591   6.855  10.160   3.717  1.8483 -1.3191 -0.3260
  338MOL0     H46592   6.857  10.219   3.885  0.4228 -0.3757  0.2641
  338MOL0     H46593   7.000  10.063   4.070 -0.2130 -2.0635  0.4501
  338MOL0     H46594   7.213   9.876   4.137  0.6387 -0.7041 -0.4868
  338MOL0     H46595   7.323  10.007   4.101 -0.9398 -0.4175  1.8415
  338MOL0     H46596   7.431   9.854   3.910 -1.9510 -1.7343 -1.9571
  338MOL0     H46597   7.442   9.805   4.073  1.9262 -1.7121 -1.5939
  338MOL0     H46598   7.296   9.636   4.064 -0.0027  1.3982  1.4440
  338MOL0     H46599   7.182   9.718   3.947  0.1041  0.4651 -0.6767
  338MOL0     H46600   7.327   9.691   3.762 -0.4485 -0.2029 -0.6540
  338MOL0     H46601   7.443   9.607   3.864 -0.0699  1.4718  0.8469
  338MOL0     H46602   7.132   9.698   3.687  0.0812  0.2043 -0.9268
  338MOL0     H46603   6.961   9.788   3.580  1.0423  0.1331  3.6304
  338MOL0     H46604   6.819   9.738   3.662 -0.8187 -2.2660 -0.5219
  338MOL0     H46605   6.838   9.698   3.491 -2.1835  0.4966  0.7108
  338MOL0     H46606   6.549   9.747   3.581  1.2116  1.3224 -1.3362
  338MOL0     H46607   6.324   9.786   3.475  1.4669  0.4871  1.1935
  338MOL0     H46608   6.107   9.772   3.402  2.2061  1.0282 -0.5512
  338MOL0     H46609   6.217   9.797   3.285  0.6869  0.6475  0.7534
  338MOL0     H46610   5.977   9.809   3.179 -0.0181  1.3392  2.8945
  338MOL0     H46611   6.096   9.689   3.111 -1.2249 -3.1862  0.7730
  338MOL0     H46612   5.856   9.626   3.282  3.6959  1.2605  3.1313
  338MOL0     H46613   5.984   9.514   3.224 -0.5592 -0.7033 -2.6068
  338MOL0     H46614   5.785   9.506   3.063 -1.3118 -0.2983 -2.7194
  338MOL0     H46615   5.944   9.545   2.998 -0.5525  0.9881  0.4494
  338MOL0     H46616   5.729   9.736   3.079 -0.4083 -0.9925  0.0568
  338MOL0     H46617   5.868   9.778   2.971  2.2283 -0.6857  0.8565
  338MOL0     H46618   5.683   9.561   2.864 -1.2187 -0.2817  3.8921
  338MOL0     H46619   5.790   9.679   2.782 -0.1844 -2.5362 -0.2025
  338MOL0     H46620   5.637   9.848   2.820 -1.0515 -0.0480  0.9747
  338MOL0     H46621   5.555   9.772   2.950  0.3318  1.1075  0.2654
  338MOL0     H46622   5.543   9.669   2.654  0.1575 -0.1157  0.2313
  338MOL0     H46623   5.415   9.761   2.752  0.8189  1.0554 -1.3964
  338MOL0     H46624   6.333   9.388   3.330  0.3516  0.1945 -1.4346
  338MOL0     H46625   6.549   9.346   3.439  0.3866  0.1693  1.1288
  338MOL0     H46626   6.894   9.258   3.713  0.4044 -0.5615  0.8872
  338MOL0     H46627   7.126   9.297   3.837  1.6688 -0.7420 -3.2188
  338MOL0     H46628   5.921  10.221   3.698  1.5275 -0.8208 -2.4497
  338MOL0     H46629   5.746  10.224   3.568  1.0473  0.7862  2.1726
  338MOL0     H46630   5.396  10.203   3.223 -4.0830  0.4224 -0.2467
  338MOL0     H46631   5.242  10.123   3.053  3.1071  1.9124 -0.3244
  338MOL0     H46632   5.280   9.719   2.949  1.2061  2.0300  1.6450
  338MOL0     H46633   5.149   9.688   3.049  2.2434 -1.0709 -0.0124
  338MOL0     H46634   5.096   9.641   2.819  3.5684  0.8608  1.3695
  338MOL0     H46635   5.114   9.818   2.785 -0.9281  2.7549  2.1080
  338MOL0     H46636   4.920   9.679   2.989 -0.1386  0.3381 -0.0626
  338MOL0     H46637   4.915   9.851   2.952  2.4110  0.0089  3.0362
  338MOL0     H46638   4.852   9.611   2.758 -0.4833 -0.2720 -1.9439
  338MOL0     H46639   4.855   9.776   2.698 -2.3498 -1.5099 -1.0120
  338MOL0     H46640   4.506   9.770   2.944 -0.5959  0.1317 -0.3842
  338MOL0     H46641   5.346   9.725   3.146  1.2921 -1.2955  3.8509
  338MOL0     H46642   5.427   9.677   3.377  1.2562 -0.6478  2.6982
  338MOL0     H46643   5.588   9.734   3.314  1.0119  1.8549  1.6192
  338MOL0     H46644   5.506   9.799   3.464 -0.6718  0.3563  0.2074
  339MOL0     O46645   6.688   2.375   8.630  0.4510  0.3529 -0.7356
  339MOL0     C46646   6.634   2.413   8.740 -0.8024  0.1227 -0.7249
  339MOL0     O46647   6.692   2.398   8.864 -0.0901 -0.1909  0.2777
  339MOL0     C46648   6.814   2.346   8.857  0.1198 -0.7703 -0.5315
  339MOL0     C46649   6.826   2.208   8.861  0.5699  0.5603 -0.4276
  339MOL0     C46650   6.958   2.155   8.881 -0.4311  0.2855 -0.8090
  339MOL0     C46651   7.070   2.242   8.878 -0.6105  0.4078  0.3265
  339MOL0     O46652   7.199   2.203   8.861  0.7215  0.3850  0.4733
  339MOL0     C46653   7.226   2.063   8.868  0.6290  0.1748  0.4138
  339MOL0     C46654   7.373   2.038   8.841 -0.7940  0.0884  0.1797
  339MOL0     C46655   7.461   2.052   8.968  0.6567  0.4276  0.3101
  339MOL0     C46656   7.611   2.049   8.938  0.5320 -0.0053 -0.1569
  339MOL0     C46657   7.701   2.015   9.054 -0.1032  0.3017  0.4586
  339MOL0     C46658   7.839   1.977   8.998 -0.2516 -0.4919 -0.0137
  339MOL0     C46659   7.927   1.928   9.108  0.5749 -0.5053 -0.1822
  339MOL0     C46660   8.067   1.912   9.058 -0.2415  0.4719  0.3941
  339MOL0     N46661   8.155   1.883   9.174  0.4969 -0.5924 -0.1266
  339MOL0     C46662   8.268   1.947   9.207 -0.5083  0.1311 -0.6523
  339MOL0     C46663   8.330   1.852   9.290  0.0768  0.5324  0.3811
  339MOL0     C46664   8.455   1.865   9.369  0.5155 -0.7674 -0.1350
  339MOL0     C46665   8.433   1.974   9.479  0.2810 -0.9444 -0.6212
  339MOL0     C46666   8.562   2.045   9.512 -0.0460  0.6330  0.1265
  339MOL0     C46667   8.571   2.106   9.653 -0.7621 -0.6358  0.1567
  339MOL0     O46668   8.556   2.020   9.767 -0.6565  0.9312  0.3667
  339MOL0     C46669   8.665   1.938   9.802  0.1715 -0.7060 -0.0875
  339MOL0     C46670   8.794   1.931   9.761  1.0334 -0.2320  0.0508
  339MOL0     C46671   8.877   1.831   9.808  0.0746  0.1500  0.6037
  339MOL0     C46672   9.011   1.803   9.730  0.1957 -0.4175  0.2588
  339MOL0     C46673   8.846   1.752   9.918 -0.1984 -0.4298 -0.9513
  339MOL0     C46674   8.942   1.668   9.990 -0.4740 -0.7774  0.1489
  339MOL0     O46675   9.072   1.708   9.998 -0.4703  0.1223  0.3270
  339MOL0     C46676   9.169   1.619  10.058  0.4591 -0.6830 -0.0256
  339MOL0     C46677   9.182   1.632  10.189  1.0376  0.3925 -0.4015
  339MOL0     C46678   9.275   1.552  10.257 -0.0395  0.5105  0.0335
  339MOL0     C46679   9.348   1.453  10.186 -0.4990 -0.7861 -0.2747
  339MOL0     O46680   9.442   1.378  10.258 -0.1002  0.6706 -0.0881
  339MOL0     C46681   9.527   1.282  10.188 -0.6776  0.4924 -0.5504
  339MOL0     C46682   9.595   1.190  10.284 -1.0099  0.7637  0.6953
  339MOL0     C46683   9.669   1.079  10.208 -0.6410 -0.2166  0.3576
  339MOL0     C46684   9.579   0.955  10.184 -0.6963 -0.0838 -0.5736
  339MOL0     C46685   9.673   0.837  10.142 -0.3369  0.0787 -0.0616
  339MOL0     C46686   9.587   0.710  10.120 -0.4795 -0.1591 -0.4122
  339MOL0     C46687   9.506   0.697   9.993 -0.3381 -0.4339  0.1024
  339MOL0     C46688   9.460   0.555   9.988 -0.1454 -0.5259 -0.7623
  339MOL0    Cl46689   9.354   0.536   9.841 -0.0545 -0.1573 -0.1236
  339MOL0     C46690   9.336   1.446  10.051 -0.0301 -0.2598  0.1537
  339MOL0     C46691   9.248   1.528   9.980  0.4768 -0.3857 -0.9767
  339MOL0     O46692   8.906   1.555  10.027  0.1130  0.0363  0.3932
  339MOL0     C46693   8.716   1.764   9.978  0.0974 -0.7531 -0.1798
  339MOL0     C46694   8.630   1.858   9.917  0.0483 -0.3428 -0.0655
  339MOL0     N46695   8.243   1.746   9.315 -0.0143 -0.1767  0.0612
  339MOL0     N46696   8.142   1.771   9.243  0.2083  0.7471  0.6448
  339MOL0     C46697   7.055   2.381   8.874 -1.0288 -0.4538 -0.8147
  339MOL0     C46698   6.926   2.428   8.862  0.4903 -0.9646  0.1557
  339MOL0     C46699   6.491   2.473   8.737  0.6954 -0.4794 -0.9582
  339MOL0     C46700   6.426   2.483   8.866 -0.1287 -0.5012  0.3464
  339MOL0     C46701   6.296   2.534   8.875 -0.6160 -0.1423  0.0759
  339MOL0     C46702   6.231   2.578   8.759  0.1918 -0.8147 -0.2511
  339MOL0     O46703   6.103   2.623   8.777 -0.1315  0.7545  0.2685
  339MOL0     C46704   6.014   2.642   8.666 -0.0037  0.0388 -0.5781
  339MOL0     C46705   5.867   2.654   8.713  0.5212 -0.3314 -0.7955
  339MOL0     C46706   5.775   2.692   8.596 -0.6247 -0.5336  0.4824
  339MOL0     C46707   5.733   2.839   8.569 -0.0044  0.1319 -0.4364
  339MOL0     C46708   5.665   2.887   8.688  0.8732  0.0237 -0.2229
  339MOL0     C46709   5.589   2.916   8.781  0.0584 -0.6906 -0.2224
  339MOL0     C46710   6.293   2.569   8.637  0.3454 -0.4414 -0.7126
  339MOL0     C46711   6.419   2.509   8.623  0.4865 -0.6310 -0.1786
  339MOL0     C46712   6.472   2.508   8.476 -0.3093  1.0373 -0.1746
  339MOL0     H46713   6.734   2.153   8.878  1.8034 -1.0451  1.3727
  339MOL0     H46714   6.981   2.051   8.897 -1.2307  0.0711 -1.0371
  339MOL0     H46715   7.171   1.993   8.803  1.6281 -0.4254  0.1866
  339MOL0     H46716   7.204   2.032   8.970  1.4631  1.2020  0.9261
  339MOL0     H46717   7.379   1.941   8.791  1.3282  0.6400 -0.7243
  339MOL0     H46718   7.396   2.115   8.767  3.9985 -0.6330  0.6191
  339MOL0     H46719   7.434   2.148   9.013  0.5436  0.1309  0.8892
  339MOL0     H46720   7.449   1.963   9.030  3.0141 -0.0138  0.2253
  339MOL0     H46721   7.630   1.992   8.847  1.2257 -0.0891  0.0357
  339MOL0     H46722   7.630   2.154   8.913 -0.7279  0.1588 -0.4895
  339MOL0     H46723   7.656   1.933   9.111 -1.5138  0.7118 -0.0259
  339MOL0     H46724   7.706   2.105   9.115  0.6241  1.9820 -1.9427
  339MOL0     H46725   7.826   1.900   8.922 -0.6383  0.4185 -0.8906
  339MOL0     H46726   7.889   2.063   8.953 -2.4032  0.7527 -0.1574
  339MOL0     H46727   7.885   1.832   9.139  0.9078  0.2024  2.7376
  339MOL0     H46728   7.929   1.986   9.201  0.6337 -0.1805 -0.3831
  339MOL0     H46729   8.078   1.833   8.983  1.5306  1.2305 -0.1910
  339MOL0     H46730   8.100   2.001   9.003 -1.1259  1.5488  1.5508
  339MOL0     H46731   8.293   2.052   9.192 -3.3227  0.7627 -1.4081
  339MOL0     H46732   8.533   1.893   9.297  0.1440 -0.1645 -0.3142
  339MOL0     H46733   8.484   1.773   9.420  0.8483  0.7275  2.5625
  339MOL0     H46734   8.365   2.053   9.447  2.1366  0.5089 -1.1856
  339MOL0     H46735   8.390   1.935   9.571  0.0755  0.6957  0.0013
  339MOL0     H46736   8.639   1.968   9.504 -2.7022 -2.0798 -1.5606
  339MOL0     H46737   8.590   2.120   9.437 -2.5493 -0.8856 -2.5639
  339MOL0     H46738   8.670   2.154   9.660  1.0624 -3.7678 -1.7638
  339MOL0     H46739   8.502   2.191   9.654  0.2429  0.2738 -1.9703
  339MOL0     H46740   8.822   1.985   9.671 -0.1816  1.1007  0.4400
  339MOL0     H46741   9.100   1.807   9.794 -1.0166 -1.7271  2.1253
  339MOL0     H46742   9.038   1.877   9.654  1.6551 -3.0043 -1.9167
  339MOL0     H46743   8.993   1.705   9.686 -0.0065 -0.4787  0.4719
  339MOL0     H46744   9.119   1.709  10.230 -2.1591  0.1516 -4.2695
  339MOL0     H46745   9.286   1.572  10.363  0.4842 -1.0860  0.3046
  339MOL0     H46746   9.466   1.221  10.120  1.9531 -2.0414 -0.8516
  339MOL0     H46747   9.596   1.328  10.116 -0.6324 -1.4452 -1.8580
  339MOL0     H46748   9.663   1.243  10.352 -0.0482 -2.2503  2.2618
  339MOL0     H46749   9.526   1.140  10.352  2.3251 -1.2543  2.9236
  339MOL0     H46750   9.752   1.048  10.272 -1.1913  0.1182  1.2475
  339MOL0     H46751   9.704   1.129  10.117  1.6871 -0.3215  1.1405
  339MOL0     H46752   9.510   0.968  10.101 -0.6565 -1.1437 -0.7923
  339MOL0     H46753   9.526   0.938  10.278  4.3193 -0.5778  2.5558
  339MOL0     H46754   9.719   0.866  10.047 -0.5266  1.6984  0.2996
  339MOL0     H46755   9.756   0.832  10.213 -0.4842  1.0978  0.2118
  339MOL0     H46756   9.523   0.695  10.207  0.2233 -1.7148 -0.1296
  339MOL0     H46757   9.646   0.619  10.132  1.4828  1.2896  1.7954
  339MOL0     H46758   9.567   0.715   9.904  0.0109  0.4521  0.5080
  339MOL0     H46759   9.429   0.774   9.999  1.9838  1.9319  3.1236
  339MOL0     H46760   9.394   0.520  10.068 -1.8914  1.4016 -1.2537
  339MOL0     H46761   9.552   0.497   9.980  0.6904  0.4962  0.9013
  339MOL0     H46762   9.389   1.379   9.985 -0.7462 -2.3478  1.5987
  339MOL0     H46763   9.241   1.525   9.872 -1.5431 -2.8297 -0.8694
  339MOL0     H46764   8.691   1.698  10.060  1.9733 -0.2134  0.9034
  339MOL0     H46765   8.541   1.886   9.972  0.5463  0.9965  0.0769
  339MOL0     H46766   7.132   2.457   8.873 -0.6363 -0.8102  0.3579
  339MOL0     H46767   6.907   2.535   8.856 -0.7016 -1.1617  0.1715
  339MOL0     H46768   6.481   2.452   8.955 -1.8849  0.9780  2.0437
  339MOL0     H46769   6.239   2.557   8.964 -0.2089 -0.4684  0.4281
  339MOL0     H46770   6.056   2.722   8.605  1.8323 -0.0267  0.5003
  339MOL0     H46771   6.008   2.546   8.613 -1.4479  0.1182 -0.5893
  339MOL0     H46772   5.856   2.726   8.795  0.7901 -1.9504  0.7324
  339MOL0     H46773   5.843   2.558   8.758  1.5547  0.5705  1.8898
  339MOL0     H46774   5.816   2.645   8.506  0.3480 -3.1091  2.1354
  339MOL0     H46775   5.687   2.630   8.616 -0.2535 -1.4794 -0.6773
  339MOL0     H46776   5.659   2.832   8.489 -1.4764  1.6166  0.7305
  339MOL0     H46777   5.814   2.903   8.531 -0.0983  0.3793 -0.2252
  339MOL0     H46778   5.518   2.946   8.855 -0.2610  0.7815 -1.0686
  339MOL0     H46779   6.230   2.596   8.553 -0.7856 -1.4966 -0.2251
  339MOL0     H46780   6.410   2.565   8.407  1.9718  1.2344 -2.2074
  339MOL0     H46781   6.575   2.541   8.462  1.4034 -3.1787  0.7695
  339MOL0     H46782   6.474   2.407   8.434  0.4250  0.6058  0.8476
  340MOL0     O46783   1.972   6.121   6.210 -0.3862  0.7062 -0.5521
  340MOL0     C46784   1.957   6.048   6.306 -0.3699  0.6071  0.1296
  340MOL0     O46785   2.056   6.027   6.398 -0.4449 -0.6840 -0.8821
  340MOL0     C46786   2.181   6.090   6.374 -0.4959 -0.3496  0.1988
  340MOL0     C46787   2.204   6.217   6.434 -0.3905 -0.2834  0.1135
  340MOL0     C46788   2.316   6.296   6.401 -0.0126  0.3642 -0.0336
  340MOL0     C46789   2.424   6.242   6.335 -0.6460 -0.2593  0.3332
  340MOL0     O46790   2.538   6.320   6.316  0.5990  0.3674 -0.4579
  340MOL0     C46791   2.592   6.359   6.441  0.5782  0.0188  0.0868
  340MOL0     C46792   2.684   6.471   6.406 -0.0857  0.7678 -0.1455
  340MOL0     C46793   2.807   6.423   6.318  0.1599 -1.4782  0.6416
  340MOL0     C46794   2.905   6.535   6.304 -1.0425 -1.3136  0.5643
  340MOL0     C46795   3.037   6.499   6.229 -0.5432  0.7713  0.4101
  340MOL0     C46796   3.018   6.450   6.087  0.0371 -0.1923 -1.0162
  340MOL0     C46797   3.148   6.449   6.002  0.4353  0.0302 -0.0502
  340MOL0     C46798   3.142   6.437   5.844  1.2534 -0.1958  0.6761
  340MOL0     N46799   3.259   6.506   5.788 -0.0662 -0.5652 -0.4841
  340MOL0     C46800   3.349   6.430   5.719 -0.2886 -0.3659 -0.3232
  340MOL0     C46801   3.445   6.525   5.666 -0.5266  0.0129  0.6632
  340MOL0     C46802   3.549   6.493   5.557  0.3438  0.3183 -0.4670
  340MOL0     C46803   3.678   6.552   5.589  0.1892 -0.5014 -0.0799
  340MOL0     C46804   3.787   6.502   5.498 -0.1995 -0.3060 -0.2424
  340MOL0     C46805   3.927   6.572   5.550 -0.3827  0.3177 -0.7372
  340MOL0     O46806   3.917   6.704   5.611 -0.3166  0.4530  0.2489
  340MOL0     C46807   4.032   6.776   5.636 -0.1845 -0.4676  0.3657
  340MOL0     C46808   4.159   6.730   5.617  0.0042  0.2820  0.5863
  340MOL0     C46809   4.275   6.810   5.614  0.1974 -0.7275  0.0632
  340MOL0     C46810   4.391   6.732   5.577  0.2070  0.4532  1.2264
  340MOL0     C46811   4.263   6.945   5.657 -0.9966  0.3087 -0.1893
  340MOL0     C46812   4.381   7.038   5.652 -0.3653 -0.1171  0.2152
  340MOL0     O46813   4.497   6.987   5.617 -0.5786  0.1414  0.0430
  340MOL0     C46814   4.604   7.069   5.598 -0.7133 -0.7669 -0.4754
  340MOL0     C46815   4.660   7.087   5.474 -0.5949  0.5840  0.5713
  340MOL0     C46816   4.770   7.163   5.447 -0.1760  0.1682 -0.0697
  340MOL0     C46817   4.838   7.228   5.551  0.1450 -0.2692  0.0070
  340MOL0     O46818   4.962   7.289   5.531  0.0479  0.3689  0.4678
  340MOL0     C46819   4.966   7.422   5.580  0.4289 -0.1134 -0.3974
  340MOL0     C46820   5.061   7.507   5.488 -0.9115  0.8268 -0.3863
  340MOL0     C46821   5.204   7.452   5.503 -1.0217  0.6954 -0.1092
  340MOL0     C46822   5.288   7.481   5.380  0.0973 -0.1219 -0.6313
  340MOL0     C46823   5.436   7.473   5.422 -0.6274 -0.4376 -0.6802
  340MOL0     C46824   5.522   7.533   5.304 -0.5326 -0.2845 -0.2572
  340MOL0     C46825   5.673   7.548   5.329  0.1265  0.6671 -0.5760
  340MOL0     C46826   5.757   7.551   5.212  0.7194 -0.3283 -0.3129
  340MOL0    Cl46827   5.729   7.684   5.101 -0.1746 -0.4393 -0.3532
  340MOL0     C46828   4.777   7.230   5.676  0.0209  0.7348 -0.7878
  340MOL0     C46829   4.663   7.141   5.700  0.3580 -0.2672  0.5060
  340MOL0     O46830   4.361   7.154   5.706 -0.2966 -0.0717  0.4278
  340MOL0     C46831   4.141   6.998   5.690 -0.5579  0.6547 -0.3814
  340MOL0     C46832   4.024   6.914   5.677  0.6959  0.2473 -0.5805
  340MOL0     N46833   3.407   6.649   5.711  0.2561 -0.0051 -0.2123
  340MOL0     N46834   3.295   6.639   5.784  0.1047  0.0520 -0.5002
  340MOL0     C46835   2.404   6.110   6.275  0.7594  0.0614  0.5329
  340MOL0     C46836   2.288   6.036   6.300 -0.0393 -0.0262  0.6038
  340MOL0     C46837   1.819   5.996   6.336  0.1093 -0.0085  0.0867
  340MOL0     C46838   1.804   5.924   6.458  0.5330 -0.4730  0.4685
  340MOL0     C46839   1.680   5.870   6.501  0.1567  0.8200  0.6195
  340MOL0     C46840   1.567   5.880   6.417 -0.3379  0.2468  0.5438
  340MOL0     O46841   1.444   5.818   6.444 -0.6065 -0.0564 -0.0205
  340MOL0     C46842   1.407   5.779   6.575  0.0593 -0.9496 -0.3876
  340MOL0     C46843   1.372   5.902   6.662 -0.6205  0.4388 -0.3466
  340MOL0     C46844   1.234   5.967   6.627  0.2058 -0.1215  0.0911
  340MOL0     C46845   1.206   6.080   6.723  0.0537  0.1587 -0.8359
  340MOL0     C46846   1.073   6.125   6.710  0.2005 -0.1217  0.5073
  340MOL0     C46847   0.955   6.163   6.695 -0.4013  0.4316 -0.0624
  340MOL0     C46848   1.573   5.954   6.295 -0.6124 -0.3396 -0.7612
  340MOL0     C46849   1.696   6.018   6.255 -0.3235 -0.2229 -0.7293
  340MOL0     C46850   1.698   6.102   6.126 -0.6756 -0.8003 -0.8023
  340MOL0     H46851   2.123   6.268   6.486 -1.0439 -1.4572  0.2854
  340MOL0     H46852   2.304   6.396   6.443 -2.2025  0.0900  0.0831
  340MOL0     H46853   2.648   6.274   6.482  2.6849  1.8603  1.2149
  340MOL0     H46854   2.519   6.395   6.514  1.6932  1.4230  0.5464
  340MOL0     H46855   2.626   6.555   6.366  1.3361  1.4467 -0.8451
  340MOL0     H46856   2.726   6.512   6.498 -0.3280  0.8981 -0.0911
  340MOL0     H46857   2.857   6.334   6.356  1.5507 -1.8995 -1.9243
  340MOL0     H46858   2.769   6.389   6.221 -2.0390 -1.7825  1.5322
  340MOL0     H46859   2.857   6.622   6.258 -0.4754 -0.2582  1.8900
  340MOL0     H46860   2.932   6.568   6.405 -0.1831 -0.1370 -0.0099
  340MOL0     H46861   3.081   6.417   6.285  1.7292  1.2089 -0.6149
  340MOL0     H46862   3.108   6.582   6.229  0.1466  0.2344 -1.8283
  340MOL0     H46863   2.988   6.344   6.085  0.3496 -0.2736 -2.0321
  340MOL0     H46864   2.941   6.504   6.033  0.1990 -1.1877 -2.3136
  340MOL0     H46865   3.204   6.362   6.039  1.3132 -0.4876 -2.4070
  340MOL0     H46866   3.198   6.541   6.032 -1.6046  1.8552 -1.8903
  340MOL0     H46867   3.142   6.334   5.809 -0.0966  0.4347 -1.3456
  340MOL0     H46868   3.050   6.488   5.812  2.0908  0.6940 -0.3772
  340MOL0     H46869   3.346   6.330   5.677  0.1530 -0.6305  0.2593
  340MOL0     H46870   3.503   6.543   5.471  0.4897  1.2928  0.0118
  340MOL0     H46871   3.552   6.390   5.522  1.0361  0.3733 -0.5943
  340MOL0     H46872   3.677   6.661   5.599 -0.0180 -0.6168  1.4302
  340MOL0     H46873   3.698   6.523   5.693  0.6715 -0.1283 -0.0665
  340MOL0     H46874   3.793   6.395   5.518  0.7201 -0.3855 -0.8915
  340MOL0     H46875   3.758   6.523   5.395 -1.8142 -1.4077 -0.0395
  340MOL0     H46876   3.978   6.508   5.623  1.3638  3.1446  0.6768
  340MOL0     H46877   3.985   6.589   5.459  1.9797  2.3463  1.0133
  340MOL0     H46878   4.161   6.624   5.594 -3.9340  0.4122 -1.0885
  340MOL0     H46879   4.369   6.626   5.563  1.2650  0.5656 -2.7187
  340MOL0     H46880   4.478   6.750   5.641  1.7272  1.9352 -1.0778
  340MOL0     H46881   4.420   6.768   5.477 -0.7157 -1.7816  0.0850
  340MOL0     H46882   4.614   7.041   5.387  1.8839  1.3308 -1.2441
  340MOL0     H46883   4.814   7.179   5.349  1.2419  3.7989  0.9844
  340MOL0     H46884   4.865   7.466   5.581  1.3017  1.9842  0.3130
  340MOL0     H46885   5.004   7.406   5.681 -0.2748 -1.7272 -0.3510
  340MOL0     H46886   5.019   7.484   5.389 -0.4438  1.2129 -0.6756
  340MOL0     H46887   5.059   7.614   5.507  0.3192  0.2375  4.1099
  340MOL0     H46888   5.207   7.345   5.525 -1.0509  1.0959  2.0539
  340MOL0     H46889   5.239   7.498   5.596 -0.7585  0.8698 -0.2957
  340MOL0     H46890   5.277   7.583   5.342  3.2096  0.1072 -1.1385
  340MOL0     H46891   5.263   7.420   5.293 -1.8237  0.7978 -0.7894
  340MOL0     H46892   5.457   7.532   5.511  1.3895 -0.8431 -0.8277
  340MOL0     H46893   5.463   7.373   5.456  0.8004 -0.1537 -0.9330
  340MOL0     H46894   5.482   7.632   5.281 -0.3868 -0.4341 -1.1879
  340MOL0     H46895   5.507   7.468   5.217 -0.5219 -0.4618 -0.1286
  340MOL0     H46896   5.701   7.458   5.385  2.2123  0.0314 -2.4864
  340MOL0     H46897   5.696   7.641   5.382 -0.3648  0.3056  0.2893
  340MOL0     H46898   5.748   7.457   5.156  0.3597  0.7631 -2.1837
  340MOL0     H46899   5.862   7.553   5.243  0.9581 -3.4570 -0.6499
  340MOL0     H46900   4.828   7.285   5.754 -1.7693  0.2324  0.8333
  340MOL0     H46901   4.623   7.137   5.801  0.1845  0.1962  0.4578
  340MOL0     H46902   4.140   7.104   5.715  1.0156  0.5221  0.3415
  340MOL0     H46903   3.923   6.950   5.694  0.0569 -0.9358 -1.7018
  340MOL0     H46904   2.486   6.070   6.218 -0.3064 -4.3959  1.7274
  340MOL0     H46905   2.277   5.934   6.265 -1.8638 -1.0204  3.6692
  340MOL0     H46906   1.889   5.906   6.523  0.2564  0.9890  1.2888
  340MOL0     H46907   1.666   5.800   6.583 -1.9250 -0.4676 -0.7406
  340MOL0     H46908   1.314   5.722   6.560 -1.0682  0.4124  1.0556
  340MOL0     H46909   1.482   5.720   6.628  1.1939  1.0342  0.2932
  340MOL0     H46910   1.459   5.968   6.650 -0.1306 -0.2258 -0.4893
  340MOL0     H46911   1.373   5.877   6.768  2.4902  0.9816 -0.1536
  340MOL0     H46912   1.240   5.997   6.522 -0.4065  0.3954  0.1975
  340MOL0     H46913   1.148   5.900   6.638 -1.3678  1.9688  1.1378
  340MOL0     H46914   1.286   6.152   6.702 -0.8037  1.5320  0.4314
  340MOL0     H46915   1.206   6.042   6.826 -0.5149  0.3754 -0.7571
  340MOL0     H46916   0.859   6.209   6.686 -0.1308  0.9694 -0.2326
  340MOL0     H46917   1.479   5.968   6.243  0.4041  0.7036 -2.4156
  340MOL0     H46918   1.732   6.202   6.156  1.2794 -0.6397 -3.1681
  340MOL0     H46919   1.769   6.067   6.050 -0.3245  0.7601 -1.2478
  340MOL0     H46920   1.597   6.102   6.083 -0.2827  0.3868 -1.8018
  341MOL0     O46921   3.260   6.379   0.460  0.2106 -0.4497 -0.5941
  341MOL0     C46922   3.304   6.296   0.379  0.3946  0.9627 -1.0177
  341MOL0     O46923   3.430   6.306   0.319  0.5290  0.0753  0.7975
  341MOL0     C46924   3.516   6.388   0.391  0.0678  0.4475  0.4794
  341MOL0     C46925   3.575   6.487   0.322 -0.1315 -0.8300 -0.1541
  341MOL0     C46926   3.680   6.567   0.383 -0.1920  0.1763 -0.0136
  341MOL0     C46927   3.735   6.537   0.508  0.9032 -1.1743 -0.4286
  341MOL0     O46928   3.839   6.609   0.552  0.6755 -0.6363 -0.1213
  341MOL0     C46929   3.933   6.546   0.634  0.6827  0.3770 -0.2533
  341MOL0     C46930   4.065   6.620   0.615  0.4416 -0.0914 -0.0561
  341MOL0     C46931   4.187   6.568   0.695 -0.3262  0.9852 -0.1842
  341MOL0     C46932   4.325   6.606   0.636 -0.2795 -0.1664  0.2924
  341MOL0     C46933   4.369   6.744   0.692 -0.0267 -0.5528  0.0778
  341MOL0     C46934   4.515   6.772   0.679 -0.2948 -0.1357 -0.1491
  341MOL0     C46935   4.560   6.898   0.752  0.5809 -0.1480  0.2418
  341MOL0     C46936   4.709   6.928   0.735  0.2064 -0.5351  0.1446
  341MOL0     N46937   4.801   6.811   0.750 -0.4275 -1.1089  0.0010
  341MOL0     C46938   4.825   6.750   0.865  0.0109 -1.0117 -0.2082
  341MOL0     C46939   4.930   6.675   0.850 -0.5720  0.1342 -0.3657
  341MOL0     C46940   4.991   6.601   0.971 -0.1953  0.5312 -0.1135
  341MOL0     C46941   5.131   6.633   1.002 -0.6933  0.4403  0.3743
  341MOL0     C46942   5.174   6.550   1.122 -0.5065 -0.3527 -0.5750
  341MOL0     C46943   5.319   6.584   1.150 -0.0497 -0.3772  0.0728
  341MOL0     O46944   5.363   6.536   1.282 -0.3215  0.3148  0.0689
  341MOL0     C46945   5.471   6.594   1.336  0.1025 -1.0317 -0.9836
  341MOL0     C46946   5.503   6.544   1.462  0.7479 -0.2443 -0.1478
  341MOL0     C46947   5.613   6.596   1.534 -0.0732 -0.0912  0.1481
  341MOL0     C46948   5.612   6.566   1.681  0.5745  0.1703 -0.6361
  341MOL0     C46949   5.702   6.686   1.469  0.8731  0.1483 -0.2103
  341MOL0     C46950   5.823   6.735   1.530  0.3063 -0.0858 -0.1489
  341MOL0     O46951   5.896   6.641   1.605  0.1724 -0.3471 -0.1212
  341MOL0     C46952   6.021   6.686   1.651 -0.3464 -0.4493  0.1574
  341MOL0     C46953   6.132   6.730   1.568  0.4264  0.4941 -0.9936
  341MOL0     C46954   6.256   6.731   1.634 -0.3456 -0.7389 -0.5013
  341MOL0     C46955   6.268   6.731   1.775 -0.2553 -0.0287 -0.5958
  341MOL0     O46956   6.391   6.742   1.832 -0.0135 -0.5370 -0.8967
  341MOL0     C46957   6.417   6.875   1.880  0.0913  0.0922 -1.0946
  341MOL0     C46958   6.545   6.878   1.964  0.2901  0.2762 -0.0582
  341MOL0     C46959   6.522   6.814   2.105 -1.3087  0.0984  0.4596
  341MOL0     C46960   6.659   6.813   2.172  0.9170  0.2967 -0.1218
  341MOL0     C46961   6.644   6.772   2.322  0.5393  0.4116 -0.3784
  341MOL0     C46962   6.779   6.746   2.388  0.4131  0.0158  0.6690
  341MOL0     C46963   6.880   6.857   2.393 -0.3672 -0.0966  0.5140
  341MOL0     C46964   7.007   6.825   2.465 -0.7266 -0.8095 -0.2549
  341MOL0    Cl46965   7.088   6.985   2.510 -0.1281  0.2457  0.0154
  341MOL0     C46966   6.153   6.707   1.851  0.1589  0.1629 -0.0454
  341MOL0     C46967   6.032   6.676   1.788  0.2242 -0.8125 -0.0154
  341MOL0     O46968   5.842   6.856   1.526  0.0487 -0.2527  0.0729
  341MOL0     C46969   5.676   6.730   1.337  0.8221  0.5034  0.4863
  341MOL0     C46970   5.560   6.681   1.273  0.0209 -0.0839 -0.2178
  341MOL0     N46971   4.979   6.699   0.724 -0.0942  0.6827  0.6467
  341MOL0     N46972   4.888   6.768   0.656  0.4275  0.0578 -0.3940
  341MOL0     C46973   3.669   6.435   0.579 -0.6244  0.8974  0.2010
  341MOL0     C46974   3.568   6.364   0.526 -0.1545  0.8094  0.9026
  341MOL0     C46975   3.205   6.192   0.340  0.1214 -0.2189  0.2349
  341MOL0     C46976   3.171   6.176   0.210  0.2207 -0.0382  0.3672
  341MOL0     C46977   3.080   6.076   0.164  0.7904  0.0793  0.4171
  341MOL0     C46978   3.016   5.999   0.262  0.0330  1.1380 -0.0685
  341MOL0     O46979   2.929   5.900   0.224  0.5475 -0.1286  0.6249
  341MOL0     C46980   2.839   5.912   0.110 -0.4157  0.5095 -1.1623
  341MOL0     C46981   2.730   6.015   0.124  0.4500  0.5476 -0.0828
  341MOL0     C46982   2.666   6.018   0.263 -0.3198 -0.1385 -0.5004
  341MOL0     C46983   2.561   6.127   0.269 -0.2475  0.3166 -0.1147
  341MOL0     C46984   2.502   6.164   0.400 -0.2172  0.6408 -0.2058
  341MOL0     C46985   2.466   6.189   0.515 -0.2805  0.6826 -0.1013
  341MOL0     C46986   3.048   6.012   0.401  0.4348  0.8793  0.5558
  341MOL0     C46987   3.149   6.100   0.434  0.6257  0.2030 -0.5080
  341MOL0     C46988   3.202   6.086   0.573 -0.4109 -0.3865  0.6051
  341MOL0     H46989   3.545   6.509   0.220  0.5765  0.8309 -0.0292
  341MOL0     H46990   3.731   6.646   0.330 -0.2208  0.1017 -0.1547
  341MOL0     H46991   3.953   6.440   0.616 -1.2106  0.3986 -2.8727
  341MOL0     H46992   3.901   6.567   0.737  0.8773 -1.1927  0.1586
  341MOL0     H46993   4.095   6.616   0.510  1.5428  0.3281  0.2242
  341MOL0     H46994   4.048   6.727   0.633 -1.6349 -0.7949  2.9982
  341MOL0     H46995   4.176   6.583   0.803  0.0087 -2.2324  0.4175
  341MOL0     H46996   4.180   6.460   0.681 -1.0155  1.2902 -2.5503
  341MOL0     H46997   4.400   6.530   0.657  0.9966  0.0449 -2.8864
  341MOL0     H46998   4.312   6.609   0.527 -0.7115  0.7094  0.3566
  341MOL0     H46999   4.346   6.751   0.799 -0.7445  1.0471 -0.1678
  341MOL0     H47000   4.323   6.834   0.652  0.7502  0.4265  1.3291
  341MOL0     H47001   4.567   6.681   0.709 -0.9526  0.0657  1.7284
  341MOL0     H47002   4.539   6.798   0.575  3.0126  1.5393  0.8839
  341MOL0     H47003   4.545   6.869   0.857 -1.7633  0.9894  0.2725
  341MOL0     H47004   4.507   6.989   0.722  2.0536  1.0760  1.1308
  341MOL0     H47005   4.725   6.977   0.639 -2.0776  1.9051  0.8770
  341MOL0     H47006   4.745   6.999   0.811 -2.2247  1.2255 -0.2358
  341MOL0     H47007   4.772   6.768   0.957 -2.2150 -2.2344 -1.1642
  341MOL0     H47008   4.989   6.492   0.959  3.4354  0.4108 -0.5121
  341MOL0     H47009   4.940   6.634   1.062  1.3094  0.3770  0.8180
  341MOL0     H47010   5.195   6.608   0.917 -4.1135 -2.3927 -1.6595
  341MOL0     H47011   5.145   6.740   1.019  0.1250  0.9919 -2.9452
  341MOL0     H47012   5.116   6.566   1.214  0.4115 -0.3989  0.0306
  341MOL0     H47013   5.162   6.443   1.105  1.7124 -1.2465  2.5885
  341MOL0     H47014   5.381   6.547   1.068  0.3915  0.1906  0.1420
  341MOL0     H47015   5.325   6.693   1.150 -2.3492 -0.1886 -1.2358
  341MOL0     H47016   5.426   6.482   1.506  0.9788 -2.1058 -2.1796
  341MOL0     H47017   5.605   6.458   1.700  3.3875 -0.2235 -1.3170
  341MOL0     H47018   5.532   6.622   1.730 -1.0339 -1.0938 -1.7001
  341MOL0     H47019   5.699   6.594   1.741 -1.9458  1.7800  2.5882
  341MOL0     H47020   6.130   6.739   1.460  4.3428 -2.0099 -1.4484
  341MOL0     H47021   6.345   6.748   1.574  0.1563  2.3098  0.9127
  341MOL0     H47022   6.419   6.944   1.794 -1.9050 -0.0118 -1.2787
  341MOL0     H47023   6.337   6.909   1.946 -1.4585 -1.3910 -2.1229
  341MOL0     H47024   6.625   6.834   1.904 -0.5326  0.1316 -1.0824
  341MOL0     H47025   6.577   6.982   1.977  1.1183  0.0869 -0.5234
  341MOL0     H47026   6.489   6.712   2.085  0.1734 -0.0010 -1.8982
  341MOL0     H47027   6.453   6.871   2.167  0.6820  0.7638  2.1977
  341MOL0     H47028   6.703   6.913   2.168  0.1640  0.5899 -1.3481
  341MOL0     H47029   6.728   6.742   2.126  1.2830 -0.5604  1.6412
  341MOL0     H47030   6.599   6.850   2.385  1.4068 -0.8373  1.9007
  341MOL0     H47031   6.590   6.678   2.328  2.5483 -0.7886 -0.0967
  341MOL0     H47032   6.811   6.655   2.336 -0.9868  0.5000 -1.1237
  341MOL0     H47033   6.772   6.725   2.495  1.1647 -0.1155  0.7003
  341MOL0     H47034   6.831   6.933   2.455 -3.5106  0.0555 -1.8963
  341MOL0     H47035   6.908   6.897   2.295  4.0245 -2.5191  0.5308
  341MOL0     H47036   7.074   6.767   2.399 -0.2459 -0.4159 -0.1205
  341MOL0     H47037   6.983   6.765   2.553  0.7910  0.1742  0.8871
  341MOL0     H47038   6.157   6.704   1.959  1.5979 -0.9268 -0.1009
  341MOL0     H47039   5.950   6.643   1.850  1.6254  0.1959  2.5202
  341MOL0     H47040   5.744   6.793   1.281 -1.3274  2.2011 -0.3907
  341MOL0     H47041   5.548   6.713   1.170 -1.7553  2.7544  0.7472
  341MOL0     H47042   3.707   6.409   0.677  0.0407  0.3090 -0.2090
  341MOL0     H47043   3.519   6.284   0.581 -1.1016 -0.0213 -1.0199
  341MOL0     H47044   3.211   6.254   0.147 -0.0197  0.7242  1.1427
  341MOL0     H47045   3.043   6.063   0.062  2.5198 -1.0753 -0.1004
  341MOL0     H47046   2.894   5.944   0.021  2.3679 -2.4428 -0.6972
  341MOL0     H47047   2.786   5.819   0.085 -1.7464  1.4830 -2.1206
  341MOL0     H47048   2.656   5.979   0.052  0.1232  0.3310  0.3537
  341MOL0     H47049   2.760   6.113   0.088 -2.2480  0.7830 -1.9801
  341MOL0     H47050   2.614   5.927   0.293 -2.0780  0.5937 -1.2158
  341MOL0     H47051   2.745   6.026   0.338 -0.4135  0.6957 -0.4781
  341MOL0     H47052   2.486   6.109   0.192 -0.3311  3.3385 -0.8445
  341MOL0     H47053   2.618   6.213   0.233  1.2452 -0.7456 -0.3734
  341MOL0     H47054   2.439   6.201   0.618  0.7265  2.0075  0.0249
  341MOL0     H47055   3.007   5.946   0.476  1.3260 -0.3437  0.0061
  341MOL0     H47056   3.211   6.185   0.620  1.1892 -0.1724 -0.0771
  341MOL0     H47057   3.149   6.010   0.631 -0.8187 -0.2663  0.3955
  341MOL0     H47058   3.305   6.054   0.552 -0.3733 -1.8755  2.8253
  342MOL0     O47059   9.526  10.955  10.858 -0.7685  0.4930  0.2933
  342MOL0     C47060   9.440  11.050  10.856 -0.4873  0.7167  0.5894
  342MOL0     O47061   9.321  11.038  10.797 -0.8900  0.0654  1.3707
  342MOL0     C47062   9.264  10.915  10.763  0.5883  0.5488  0.7305
  342MOL0     C47063   9.257  10.807  10.848  0.2467  0.2550 -0.1153
  342MOL0     C47064   9.197  10.691  10.817 -0.8303  0.1085  0.3791
  342MOL0     C47065   9.142  10.672  10.691  0.2939 -0.3758  0.0956
  342MOL0     O47066   9.078  10.548  10.659 -0.1300 -0.7893  0.2558
  342MOL0     C47067   9.079  10.508  10.525  0.3146  0.7463  0.2101
  342MOL0     C47068   8.980  10.394  10.513 -0.2070  0.1147  0.6130
  342MOL0     C47069   8.992  10.311  10.387  0.7941  1.0863  0.0992
  342MOL0     C47070   8.885  10.196  10.399 -0.1582 -0.6874  0.9123
  342MOL0     C47071   8.879  10.114  10.265 -0.7725  0.3213 -0.4120
  342MOL0     C47072   8.778   9.993  10.288 -0.2980 -0.2028  0.2739
  342MOL0     C47073   8.742   9.930  10.155 -0.3800  0.1610  0.1531
  342MOL0     C47074   8.646  10.008  10.071  0.3359  0.0539 -0.3380
  342MOL0     N47075   8.632   9.951   9.941 -0.2040 -0.0179 -0.2654
  342MOL0     C47076   8.694   9.993   9.831 -0.1226 -0.2672 -0.2551
  342MOL0     C47077   8.634   9.920   9.732 -0.5427 -1.0375  0.2414
  342MOL0     C47078   8.669   9.947   9.583 -0.2775  0.2352  0.5908
  342MOL0     C47079   8.676   9.806   9.515 -0.1618 -1.1843  0.6171
  342MOL0     C47080   8.811   9.739   9.541  0.0588 -0.1381  0.1734
  342MOL0     C47081   8.822   9.604   9.461 -0.3337 -0.9277 -0.6359
  342MOL0     O47082   8.886   9.503   9.539 -0.1503  0.0652  0.1041
  342MOL0     C47083   9.027   9.500   9.542 -0.2261  0.1813 -0.4906
  342MOL0     C47084   9.116   9.597   9.492  0.9123  0.0932 -0.6487
  342MOL0     C47085   9.259   9.586   9.497 -0.6849 -0.0033  0.5743
  342MOL0     C47086   9.330   9.697   9.439 -0.1184 -0.0235  0.1590
  342MOL0     C47087   9.305   9.463   9.546  0.3234  0.8111  0.1431
  342MOL0     C47088   9.453   9.427   9.543  0.4117 -0.0856  0.5251
  342MOL0     O47089   9.541   9.516   9.498  0.5872 -0.3509 -0.3008
  342MOL0     C47090   9.673   9.504   9.527  0.2227  0.0123 -0.2755
  342MOL0     C47091   9.748   9.615   9.569  0.7305 -0.2866 -0.4021
  342MOL0     C47092   9.885   9.607   9.596  0.0894 -0.1502 -0.4445
  342MOL0     C47093   9.950   9.485   9.578  0.3086  0.9421 -0.4625
  342MOL0     O47094  10.083   9.479   9.607 -0.6453  0.1086  0.1332
  342MOL0     C47095  10.140   9.349   9.615 -0.6058  0.6262  0.8516
  342MOL0     C47096  10.277   9.337   9.675 -0.2036 -0.6196  0.1256
  342MOL0     C47097  10.367   9.240   9.610 -0.2310  0.0547 -0.1542
  342MOL0     C47098  10.493   9.195   9.686  1.3838  0.0963 -0.0482
  342MOL0     C47099  10.580   9.106   9.593  1.0405  0.5631 -0.6812
  342MOL0     C47100  10.716   9.082   9.638  0.2973 -0.4886 -0.6134
  342MOL0     C47101  10.796   9.010   9.530  0.5541  0.4110 -0.1866
  342MOL0     C47102  10.925   8.941   9.561 -0.7124  0.2720  0.0162
  342MOL0    Cl47103  10.895   8.792   9.661  0.2904 -0.3417 -0.4277
  342MOL0     C47104   9.880   9.379   9.520 -0.0622  0.7720  0.1659
  342MOL0     C47105   9.743   9.390   9.495 -0.5000 -0.3062  0.4217
  342MOL0     O47106   9.483   9.316   9.587 -0.3311  0.7701  0.1086
  342MOL0     C47107   9.219   9.368   9.594  0.3337 -1.6404 -0.7754
  342MOL0     C47108   9.082   9.394   9.609  0.2242  0.5438  0.3808
  342MOL0     N47109   8.540   9.834   9.786  0.1345 -0.5786 -0.7213
  342MOL0     N47110   8.531   9.859   9.914 -0.2829  0.0986  0.4870
  342MOL0     C47111   9.147  10.779  10.598  0.3463  0.1539  0.0122
  342MOL0     C47112   9.202  10.898  10.639  0.2367  0.2716  0.0425
  342MOL0     C47113   9.490  11.181  10.899 -0.5625  0.5577 -0.2680
  342MOL0     C47114   9.480  11.296  10.809  0.1118  0.4234  0.2337
  342MOL0     C47115   9.534  11.424  10.843  0.0859 -0.5103  0.7964
  342MOL0     C47116   9.606  11.440  10.962 -0.0460 -0.4509  0.4892
  342MOL0     O47117   9.654  11.568  10.985  0.6729 -0.9718 -0.4835
  342MOL0     C47118   9.738  11.588  11.107 -0.1161 -0.3748  0.3562
  342MOL0     C47119   9.805  11.733  11.095  0.0313 -0.2340  0.0557
  342MOL0     C47120   9.701  11.844  11.102 -0.4482 -0.2376  0.5741
  342MOL0     C47121   9.756  11.984  11.085  0.0783  0.3855 -0.2768
  342MOL0     C47122   9.645  12.084  11.078  0.4391 -0.4080  0.1114
  342MOL0     C47123   9.562  12.174  11.076 -0.8954 -0.5474 -0.6574
  342MOL0     C47124   9.617  11.327  11.044 -0.9100 -0.2363 -0.1802
  342MOL0     C47125   9.574  11.199  11.015  0.7385 -0.2771 -0.1869
  342MOL0     C47126   9.607  11.088  11.109 -0.6589 -0.2715  0.0613
  342MOL0     H47127   9.291  10.808  10.951 -3.1151 -1.2697  1.1627
  342MOL0     H47128   9.177  10.627  10.903 -0.5725  0.4962  0.7277
  342MOL0     H47129   9.178  10.470  10.496 -0.0260 -0.8007  1.0013
  342MOL0     H47130   9.057  10.583  10.448  2.0791  0.1000 -0.9854
  342MOL0     H47131   9.006  10.324  10.592  2.7911 -0.2045 -0.5342
  342MOL0     H47132   8.881  10.440  10.521 -0.8982 -0.3040 -3.4355
  342MOL0     H47133   8.962  10.363  10.296 -0.6312  0.0337 -0.0677
  342MOL0     H47134   9.096  10.278  10.370 -0.2028 -1.6672 -1.3896
  342MOL0     H47135   8.908  10.134  10.486 -2.0968 -0.7415  1.4442
  342MOL0     H47136   8.788  10.243  10.418  1.1556  2.5903  0.2060
  342MOL0     H47137   8.980  10.082  10.239 -2.1169 -1.6259 -3.9521
  342MOL0     H47138   8.838  10.177  10.186  0.6116  1.6931 -0.0728
  342MOL0     H47139   8.838   9.924  10.347  1.1450  1.0591  0.3462
  342MOL0     H47140   8.691  10.035  10.339 -1.9828 -0.6134 -2.1286
  342MOL0     H47141   8.700   9.831  10.178 -0.8997  0.3377 -0.0240
  342MOL0     H47142   8.831   9.899  10.101 -2.0720 -1.2541 -1.9959
  342MOL0     H47143   8.549  10.013  10.122  0.6112  2.0311  0.0980
  342MOL0     H47144   8.670  10.114  10.056  1.3798 -0.0802  0.3097
  342MOL0     H47145   8.772  10.067   9.813  0.0173  0.5293  3.0081
  342MOL0     H47146   8.771   9.987   9.592  0.6110 -1.9501  0.8088
  342MOL0     H47147   8.611  10.028   9.536 -0.0083  1.5038  2.3469
  342MOL0     H47148   8.593   9.756   9.566 -0.5111  0.7148  2.0756
  342MOL0     H47149   8.661   9.803   9.407  2.4151 -1.2009  0.2015
  342MOL0     H47150   8.882   9.814   9.505 -1.7256  2.6987  2.0823
  342MOL0     H47151   8.817   9.713   9.647 -0.0594 -1.2135 -0.0740
  342MOL0     H47152   8.719   9.567   9.451 -0.9989  0.3983  0.7783
  342MOL0     H47153   8.870   9.620   9.364  2.0015  0.3279  0.6508
  342MOL0     H47154   9.072   9.682   9.441 -2.6302 -0.5510  1.0080
  342MOL0     H47155   9.438   9.701   9.449 -0.0445 -1.9626  0.3490
  342MOL0     H47156   9.291   9.791   9.482 -0.7583  1.0854 -2.6531
  342MOL0     H47157   9.303   9.700   9.333  2.6572 -1.0298 -0.6440
  342MOL0     H47158   9.700   9.712   9.574  1.4861  0.1752 -1.6478
  342MOL0     H47159   9.939   9.699   9.616 -1.2311  0.6691 -0.5075
  342MOL0     H47160  10.071   9.274   9.655  0.4463  0.2219  1.9685
  342MOL0     H47161  10.151   9.328   9.508  1.0420  0.4182  1.0231
  342MOL0     H47162  10.319   9.437   9.659  0.9268 -1.3139 -1.5268
  342MOL0     H47163  10.266   9.319   9.782  0.1295 -1.3824  0.0344
  342MOL0     H47164  10.405   9.284   9.517 -0.0428 -1.6338 -0.8987
  342MOL0     H47165  10.310   9.152   9.580 -1.4383  0.6907  0.1881
  342MOL0     H47166  10.463   9.135   9.772  2.0527 -1.9786 -1.2187
  342MOL0     H47167  10.563   9.276   9.708  1.2722  0.8473 -2.1672
  342MOL0     H47168  10.519   9.022   9.556 -0.0890  1.0597 -0.0001
  342MOL0     H47169  10.600   9.161   9.501  2.5938  0.0238 -0.6923
  342MOL0     H47170  10.710   9.012   9.722  1.6130  0.0576 -0.0312
  342MOL0     H47171  10.767   9.175   9.665  1.1848 -0.2702 -2.8431
  342MOL0     H47172  10.817   9.074   9.443  2.1377 -0.1657 -0.2681
  342MOL0     H47173  10.734   8.928   9.493 -2.3224  2.7136 -0.7942
  342MOL0     H47174  10.995   9.002   9.619  1.1878 -1.0448 -0.8054
  342MOL0     H47175  10.968   8.908   9.466 -1.3131 -1.1597  0.2071
  342MOL0     H47176   9.921   9.284   9.486 -1.5261  0.0319  0.4139
  342MOL0     H47177   9.697   9.304   9.447 -0.9396 -0.8939  1.8634
  342MOL0     H47178   9.261   9.277   9.636  0.5570 -1.4183 -0.5151
  342MOL0     H47179   9.016   9.329   9.666  2.7171 -1.9866  0.6480
  342MOL0     H47180   9.117  10.763  10.495  1.8963 -0.9887 -0.2899
  342MOL0     H47181   9.212  10.988  10.578  0.4629  1.1016  1.2526
  342MOL0     H47182   9.417  11.273  10.723  0.6079 -0.3337  0.0661
  342MOL0     H47183   9.516  11.511  10.781 -0.8262 -1.1050  0.2039
  342MOL0     H47184   9.677  11.576  11.197 -1.6758 -1.1550 -0.7559
  342MOL0     H47185   9.819  11.514  11.107  1.6260  1.3974 -1.3667
  342MOL0     H47186   9.861  11.738  11.001  0.8529  1.6539  0.5968
  342MOL0     H47187   9.873  11.749  11.179 -1.1506 -1.2069  1.2522
  342MOL0     H47188   9.631  11.834  11.019 -0.2624  3.8961 -0.2764
  342MOL0     H47189   9.640  11.831  11.191 -1.6999  0.4505 -0.1640
  342MOL0     H47190   9.822  11.989  10.998 -2.4415 -0.3834 -2.3639
  342MOL0     H47191   9.796  12.010  11.184 -2.3410  2.5721  0.2183
  342MOL0     H47192   9.491  12.254  11.078  1.0724  1.2653  0.3683
  342MOL0     H47193   9.683  11.341  11.130  3.0119 -2.3155 -2.5621
  342MOL0     H47194   9.632  11.116  11.211  0.1780  2.4541 -0.7965
  342MOL0     H47195   9.522  11.020  11.097  0.7281 -1.6985 -2.6893
  342MOL0     H47196   9.696  11.038  11.069  0.5257  0.1043  2.0982
  343MOL0     O47197   8.450   3.639   1.820  0.4215  0.0165  0.0026
  343MOL0     C47198   8.427   3.702   1.717  0.6810 -0.1994 -1.3425
  343MOL0     O47199   8.450   3.835   1.710  0.6576  0.8230  0.1333
  343MOL0     C47200   8.485   3.906   1.822 -0.7168 -0.1941  1.1566
  343MOL0     C47201   8.384   3.982   1.885 -0.3041 -1.1270  0.0617
  343MOL0     C47202   8.417   4.052   2.006  0.2065  0.0102  0.0970
  343MOL0     C47203   8.551   4.054   2.046 -0.6315  0.5416 -0.0531
  343MOL0     O47204   8.598   4.119   2.157 -0.5548  0.3203  0.2125
  343MOL0     C47205   8.511   4.204   2.234 -0.5799 -0.7336  0.0403
  343MOL0     C47206   8.578   4.232   2.365 -0.2915  0.8884 -0.4648
  343MOL0     C47207   8.716   4.287   2.352 -0.3750  1.4085  0.7377
  343MOL0     C47208   8.776   4.311   2.492 -0.5344  0.6402 -0.7959
  343MOL0     C47209   8.922   4.350   2.488 -0.2451 -0.1210  0.7861
  343MOL0     C47210   9.012   4.235   2.452 -0.3920  0.4249  0.4114
  343MOL0     C47211   9.162   4.289   2.448 -0.4333  0.7104 -0.1800
  343MOL0     C47212   9.258   4.168   2.448 -0.0702  0.3998 -0.2144
  343MOL0     N47213   9.364   4.167   2.344  0.4427 -0.3397  0.0493
  343MOL0     C47214   9.486   4.095   2.356  0.1991  0.3805 -0.2966
  343MOL0     C47215   9.540   4.077   2.230  0.7704  0.0046 -0.8798
  343MOL0     C47216   9.673   4.007   2.195 -0.4194  0.4048 -0.1916
  343MOL0     C47217   9.693   3.882   2.282 -0.0544  0.2257 -0.5750
  343MOL0     C47218   9.819   3.893   2.360  0.1856 -0.6074  0.1365
  343MOL0     C47219   9.852   3.763   2.442 -0.0603 -0.7715  0.7120
  343MOL0     O47220   9.998   3.763   2.470  0.0565  0.3635 -0.0082
  343MOL0     C47221  10.042   3.822   2.588 -0.4100  0.3947  0.1005
  343MOL0     C47222   9.964   3.907   2.665  1.1928 -0.4306 -0.4146
  343MOL0     C47223  10.008   3.990   2.768  0.4634 -0.3101  0.0367
  343MOL0     C47224   9.897   4.070   2.841 -0.0956 -0.7307  0.5461
  343MOL0     C47225  10.140   3.962   2.824 -0.1916 -0.4480  0.6493
  343MOL0     C47226  10.194   4.008   2.947 -0.1115  0.0721  0.2025
  343MOL0     O47227  10.106   4.029   3.051  0.3383 -0.4263  0.4599
  343MOL0     C47228  10.152   4.116   3.146 -0.1522  0.1303 -0.3156
  343MOL0     C47229  10.122   4.251   3.135 -0.3113  0.0203 -0.5038
  343MOL0     C47230  10.174   4.335   3.238 -0.2064 -0.3628 -0.1631
  343MOL0     C47231  10.251   4.285   3.345 -0.1695 -0.0459 -0.5616
  343MOL0     O47232  10.311   4.371   3.434 -0.6660 -0.8956 -0.1552
  343MOL0     C47233  10.451   4.375   3.435  0.1349 -0.2176  0.1793
  343MOL0     C47234  10.501   4.445   3.305  0.6816 -0.2994 -0.4056
  343MOL0     C47235  10.640   4.387   3.252  0.8469  0.3900  0.1615
  343MOL0     C47236  10.749   4.403   3.356 -0.4981  0.1947 -0.1836
  343MOL0     C47237  10.878   4.361   3.285  0.0994 -0.5049  0.6720
  343MOL0     C47238  10.997   4.321   3.382 -0.5304 -0.2347 -0.9165
  343MOL0     C47239  10.992   4.181   3.442 -0.3113  0.9576  1.1766
  343MOL0     C47240  11.021   4.067   3.340 -0.2169 -1.6597  0.0197
  343MOL0    Cl47241  11.023   3.899   3.400  0.3641 -0.4235 -0.2084
  343MOL0     C47242  10.283   4.143   3.346 -0.0317 -0.6142 -0.0760
  343MOL0     C47243  10.232   4.060   3.246 -0.9056  0.0723 -0.7897
  343MOL0     O47244  10.313   4.034   2.950 -0.1044  0.5694 -0.2465
  343MOL0     C47245  10.228   3.883   2.742  0.3120  0.1946 -0.5498
  343MOL0     C47246  10.175   3.815   2.628 -0.3125  0.0254 -0.0386
  343MOL0     N47247   9.443   4.144   2.148  0.2056  0.8632 -0.0048
  343MOL0     N47248   9.343   4.200   2.218 -1.0497  0.0160  0.1078
  343MOL0     C47249   8.650   3.973   1.982 -0.2112 -0.3157  0.3144
  343MOL0     C47250   8.620   3.917   1.863  0.1658  0.5166  0.5621
  343MOL0     C47251   8.353   3.640   1.615 -0.4593 -0.2496  0.8806
  343MOL0     C47252   8.282   3.723   1.526 -0.1315 -0.6075 -0.3866
  343MOL0     C47253   8.215   3.673   1.411  0.1073  0.4947  0.8882
  343MOL0     C47254   8.220   3.539   1.371  1.0416  0.9103  0.0417
  343MOL0     O47255   8.155   3.493   1.255  0.0890  0.1922  0.1488
  343MOL0     C47256   8.151   3.359   1.217 -0.2169 -0.5424 -0.1675
  343MOL0     C47257   8.104   3.340   1.072  0.6903  0.3301 -0.5610
  343MOL0     C47258   7.956   3.389   1.042 -0.9400  0.3467  0.1737
  343MOL0     C47259   7.908   3.366   0.893  0.2958  0.5164  0.1775
  343MOL0     C47260   7.787   3.440   0.886  0.6921  0.2711 -0.3071
  343MOL0     C47261   7.688   3.510   0.884 -0.0961  0.7193  0.0616
  343MOL0     C47262   8.288   3.463   1.460  0.1182  0.0720 -0.4606
  343MOL0     C47263   8.354   3.501   1.576 -0.2395  0.1507 -0.0840
  343MOL0     C47264   8.429   3.402   1.657 -0.3374  0.2220 -0.0883
  343MOL0     H47265   8.287   3.996   1.838  0.6807 -1.4651 -2.2230
  343MOL0     H47266   8.343   4.113   2.058 -0.7507 -0.0924 -1.1074
  343MOL0     H47267   8.411   4.161   2.247 -0.6722 -0.6919 -0.5019
  343MOL0     H47268   8.502   4.306   2.196 -0.5513 -1.0303 -0.7708
  343MOL0     H47269   8.515   4.298   2.425  1.5974  2.3133  0.0543
  343MOL0     H47270   8.577   4.139   2.424  1.0601 -0.0957 -1.9215
  343MOL0     H47271   8.770   4.215   2.290 -4.0355 -3.0717  2.1593
  343MOL0     H47272   8.716   4.375   2.287 -0.2891  0.6912 -0.2470
  343MOL0     H47273   8.715   4.379   2.551  0.7326  0.5607  0.6820
  343MOL0     H47274   8.776   4.214   2.542 -0.6486  0.1969 -1.6283
  343MOL0     H47275   8.950   4.391   2.586 -1.3851 -0.0586  1.0956
  343MOL0     H47276   8.941   4.427   2.412  0.6279 -0.0991  1.0187
  343MOL0     H47277   9.005   4.156   2.527 -0.3220  1.2550  1.3152
  343MOL0     H47278   8.974   4.193   2.359 -0.4609 -0.7690  0.9602
  343MOL0     H47279   9.171   4.356   2.534  0.1003 -2.4809  2.4484
  343MOL0     H47280   9.179   4.351   2.359  3.7739 -0.0891 -0.1047
  343MOL0     H47281   9.306   4.170   2.546 -0.7903 -3.4887  0.3589
  343MOL0     H47282   9.198   4.077   2.446 -0.2593  0.5178  0.0407
  343MOL0     H47283   9.524   4.049   2.446 -1.2114 -1.7385 -0.7184
  343MOL0     H47284   9.747   4.085   2.215 -0.7633  1.2696 -2.0733
  343MOL0     H47285   9.667   3.970   2.092 -1.4204  0.0601 -0.0242
  343MOL0     H47286   9.605   3.855   2.342  0.8466  0.2521  0.7976
  343MOL0     H47287   9.695   3.794   2.216  1.4648  1.3025 -2.0390
  343MOL0     H47288   9.898   3.892   2.284  1.0464 -0.2452  1.0108
  343MOL0     H47289   9.823   3.984   2.420  1.7069 -1.1081  0.8697
  343MOL0     H47290   9.794   3.774   2.533  2.5354  1.3288  2.2546
  343MOL0     H47291   9.832   3.671   2.385  0.5648 -1.4344  1.5322
  343MOL0     H47292   9.856   3.915   2.659  1.0130  1.6400  2.9818
  343MOL0     H47293   9.842   4.014   2.916 -1.7995  1.3731  0.9607
  343MOL0     H47294   9.824   4.118   2.774 -0.2170  0.9627  1.8190
  343MOL0     H47295   9.946   4.147   2.901 -0.9276 -1.6770  2.5076
  343MOL0     H47296  10.062   4.285   3.051  0.0041  3.0194  0.3748
  343MOL0     H47297  10.157   4.442   3.230  1.6505  0.0177  0.4681
  343MOL0     H47298  10.479   4.429   3.526  0.1825 -0.4339  0.2932
  343MOL0     H47299  10.490   4.273   3.442  0.0420 -0.1819  1.3823
  343MOL0     H47300  10.427   4.456   3.225 -1.3751 -0.8052  1.3430
  343MOL0     H47301  10.523   4.546   3.343 -0.1313 -0.8089  1.5432
  343MOL0     H47302  10.658   4.443   3.160 -1.5473  0.8697 -0.0887
  343MOL0     H47303  10.621   4.280   3.240 -4.8158  1.0262  0.5827
  343MOL0     H47304  10.723   4.346   3.446 -1.0781  3.3396  1.7899
  343MOL0     H47305  10.750   4.505   3.396  1.4497 -0.0159  0.4358
  343MOL0     H47306  10.868   4.285   3.207 -2.6371  1.0988 -0.6744
  343MOL0     H47307  10.904   4.458   3.241  1.4067 -1.0333  0.2314
  343MOL0     H47308  10.992   4.391   3.467 -1.6489 -0.1486 -1.0417
  343MOL0     H47309  11.087   4.339   3.323  0.4728 -0.7305  0.4224
  343MOL0     H47310  10.900   4.151   3.493 -1.3131  2.1084  0.1084
  343MOL0     H47311  11.077   4.180   3.510 -1.2166  1.6686  2.3644
  343MOL0     H47312  11.119   4.085   3.294 -0.6363  0.7274 -0.0919
  343MOL0     H47313  10.960   4.066   3.250 -0.5569 -2.5193  0.2465
  343MOL0     H47314  10.351   4.099   3.417  2.3984  0.7262 -1.4500
  343MOL0     H47315  10.239   3.951   3.243  4.1888 -0.0257  2.4049
  343MOL0     H47316  10.332   3.875   2.770  0.2749  2.6286  0.4957
  343MOL0     H47317  10.238   3.754   2.565 -0.3459  2.6505 -2.7955
  343MOL0     H47318   8.746   3.981   2.032  0.7396  1.2479 -1.6201
  343MOL0     H47319   8.698   3.857   1.817  1.1457  0.2210  2.5091
  343MOL0     H47320   8.271   3.829   1.545 -1.5547 -0.9034  0.6370
  343MOL0     H47321   8.163   3.739   1.342 -2.3154 -1.7366  0.4404
  343MOL0     H47322   8.249   3.310   1.223  0.1166  0.0622 -0.6066
  343MOL0     H47323   8.079   3.310   1.283 -0.8448  1.5858  0.8298
  343MOL0     H47324   8.102   3.232   1.056 -0.1281  0.0445  1.1528
  343MOL0     H47325   8.174   3.387   1.003  3.2596 -1.2502  0.8221
  343MOL0     H47326   7.900   3.334   1.118  1.6756 -2.4446  0.2929
  343MOL0     H47327   7.955   3.493   1.075 -0.8419 -0.0468  1.4598
  343MOL0     H47328   7.883   3.262   0.873 -0.3315  0.4561  1.1785
  343MOL0     H47329   7.985   3.405   0.827 -1.0030  0.2603 -1.5599
  343MOL0     H47330   7.605   3.578   0.875  1.3322  2.5809  0.4757
  343MOL0     H47331   8.284   3.357   1.437  0.2533  0.1522 -0.8667
  343MOL0     H47332   8.421   3.300   1.617 -0.6204  0.6919 -1.2850
  343MOL0     H47333   8.535   3.428   1.650  0.2360 -1.5169  1.2951
  343MOL0     H47334   8.403   3.396   1.763 -2.5994 -1.7068 -0.6579
  344MOL0     O47335   0.586   0.493   6.761 -0.9785  0.6380  0.0024
  344MOL0     C47336   0.504   0.442   6.846  0.3667 -0.2563 -0.2363
  344MOL0     O47337   0.367   0.463   6.849  0.5237 -0.1119  0.0250
  344MOL0     C47338   0.309   0.548   6.756  0.2022 -0.4229 -0.0632
  344MOL0     C47339   0.191   0.605   6.806 -0.1275  0.0545 -0.4762
  344MOL0     C47340   0.125   0.711   6.744  0.1638  0.0972  1.1918
  344MOL0     C47341   0.171   0.755   6.619  0.1584 -0.1093  0.2453
  344MOL0     O47342   0.123   0.851   6.543  0.2547  0.1314 -0.6983
  344MOL0     C47343   0.002   0.929   6.581 -0.8350 -0.3750  0.0947
  344MOL0     C47344   0.001   1.047   6.481  0.6245  0.2522  0.3872
  344MOL0     C47345  -0.107   1.154   6.481  0.3066 -0.2565  0.1312
  344MOL0     C47346  -0.206   1.140   6.368 -0.1265 -0.5493  0.2106
  344MOL0     C47347  -0.317   1.253   6.349 -0.0087  0.2250  0.7961
  344MOL0     C47348  -0.414   1.273   6.476  0.1805  0.2268  1.2230
  344MOL0     C47349  -0.485   1.140   6.523  0.3554  0.0927  0.2289
  344MOL0     C47350  -0.616   1.190   6.595 -0.4036  0.0069 -0.3179
  344MOL0     N47351  -0.705   1.093   6.657  0.2229 -0.5210  1.1559
  344MOL0     C47352  -0.770   0.998   6.578  0.0512  0.4056  0.2546
  344MOL0     C47353  -0.836   0.921   6.667 -0.1519 -0.8747  0.1210
  344MOL0     C47354  -0.930   0.811   6.646 -0.2652  0.0439 -0.0109
  344MOL0     C47355  -1.036   0.799   6.747  0.5315  1.0863  0.6759
  344MOL0     C47356  -1.122   0.929   6.770 -0.1063 -0.0971 -0.6727
  344MOL0     C47357  -1.244   0.894   6.854  0.3717 -0.1409  0.6104
  344MOL0     O47358  -1.333   1.008   6.852  0.5018  1.1248  0.0046
  344MOL0     C47359  -1.417   1.024   6.958 -0.2617 -0.3428 -0.6712
  344MOL0     C47360  -1.410   0.963   7.090  0.3530  0.3185  0.0098
  344MOL0     C47361  -1.505   0.987   7.189 -0.1957 -0.5429 -0.1814
  344MOL0     C47362  -1.478   0.925   7.320  0.9483  0.4165  0.5265
  344MOL0     C47363  -1.609   1.076   7.157  0.1607 -0.4532  0.5379
  344MOL0     C47364  -1.727   1.091   7.247 -0.1325  0.8220 -1.4789
  344MOL0     O47365  -1.810   1.194   7.216  0.2559 -0.1867  0.4527
  344MOL0     C47366  -1.922   1.209   7.284 -0.3912  0.0256 -0.1776
  344MOL0     C47367  -2.042   1.170   7.222  0.0174  0.0818 -0.0847
  344MOL0     C47368  -2.164   1.202   7.285  0.0225 -0.1897  0.3549
  344MOL0     C47369  -2.164   1.280   7.404  0.2431  0.3845  0.3028
  344MOL0     O47370  -2.293   1.320   7.446 -0.1249 -0.1502 -0.0311
  344MOL0     C47371  -2.314   1.427   7.544  0.7338  0.2697 -0.1957
  344MOL0     C47372  -2.357   1.372   7.682  0.6958 -0.3584  0.0250
  344MOL0     C47373  -2.475   1.276   7.661  0.2732 -0.6277 -0.6728
  344MOL0     C47374  -2.569   1.293   7.774  0.7742  0.2583  0.0517
  344MOL0     C47375  -2.697   1.221   7.750  0.2793  0.5837  0.2706
  344MOL0     C47376  -2.695   1.068   7.793  0.0218 -0.4749  0.4375
  344MOL0     C47377  -2.834   1.043   7.868 -0.4024  0.7546  0.0353
  344MOL0     C47378  -2.844   0.899   7.917 -0.5472 -1.1138  1.5390
  344MOL0    Cl47379  -2.843   0.786   7.788  0.1500  0.1878  0.0691
  344MOL0     C47380  -2.041   1.311   7.465  0.5427  1.0542  0.2247
  344MOL0     C47381  -1.922   1.274   7.407 -0.2076 -0.5906  0.6099
  344MOL0     O47382  -1.740   1.003   7.341 -0.2065 -0.2946 -0.4707
  344MOL0     C47383  -1.624   1.122   7.025 -0.3879 -0.0833  0.0172
  344MOL0     C47384  -1.529   1.104   6.928 -0.8705 -0.0223 -0.3352
  344MOL0     N47385  -0.791   0.960   6.794  0.0986  0.3257 -0.5015
  344MOL0     N47386  -0.714   1.064   6.790  0.6374 -1.0227 -0.1479
  344MOL0     C47387   0.283   0.690   6.560 -0.0734  0.4008 -0.2393
  344MOL0     C47388   0.351   0.581   6.624 -0.2369  0.3499 -0.4748
  344MOL0     C47389   0.563   0.350   6.944  0.7431  0.3779 -0.5793
  344MOL0     C47390   0.470   0.252   6.998  1.1784 -1.2732 -0.6481
  344MOL0     C47391   0.507   0.136   7.054 -0.1006 -0.0784  0.1704
  344MOL0     C47392   0.641   0.108   7.075  0.4014  0.0207 -0.1633
  344MOL0     O47393   0.690   0.006   7.149 -0.0615 -0.4496 -0.5589
  344MOL0     C47394   0.782  -0.081   7.080  0.9214  0.1545  0.2538
  344MOL0     C47395   0.714  -0.157   6.962  0.1604  0.0196  0.1789
  344MOL0     C47396   0.590  -0.234   6.992 -0.1270 -0.2822  0.0233
  344MOL0     C47397   0.558  -0.325   6.882 -0.0725  0.1524  0.5545
  344MOL0     C47398   0.550  -0.249   6.751 -0.0188 -0.0432  0.1269
  344MOL0     C47399   0.555  -0.190   6.641  0.5907 -0.2166 -0.0052
  344MOL0     C47400   0.738   0.199   7.036 -0.3294 -0.9505  0.5785
  344MOL0     C47401   0.701   0.322   6.970  0.3117  0.5338 -0.6186
  344MOL0     C47402   0.815   0.419   6.928  0.0247  0.6453 -0.2427
  344MOL0     H47403   0.146   0.578   6.901  0.2652  2.1534  0.3600
  344MOL0     H47404   0.045   0.765   6.795  1.3314  0.2981  2.9113
  344MOL0     H47405   0.010   0.959   6.686  0.3485 -0.0981 -0.0615
  344MOL0     H47406  -0.082   0.858   6.574  1.3974 -3.0582 -1.3583
  344MOL0     H47407   0.086   1.109   6.513  0.9036  2.5501 -4.0407
  344MOL0     H47408   0.017   1.016   6.377  0.6567 -0.8361  0.7101
  344MOL0     H47409  -0.163   1.149   6.575 -3.5405  2.5097 -1.7494
  344MOL0     H47410  -0.063   1.254   6.479  1.4768 -0.7177 -3.2238
  344MOL0     H47411  -0.155   1.117   6.275  3.1626 -0.4496  1.8397
  344MOL0     H47412  -0.269   1.053   6.388 -1.0570  0.0557 -0.0234
  344MOL0     H47413  -0.380   1.216   6.267  0.8464 -0.2194  0.3197
  344MOL0     H47414  -0.286   1.354   6.325  1.3751 -0.5882 -1.0959
  344MOL0     H47415  -0.363   1.324   6.558  3.0505 -0.9078  0.2696
  344MOL0     H47416  -0.490   1.345   6.443 -0.2107  0.3875  2.4301
  344MOL0     H47417  -0.418   1.079   6.584  1.1511  1.5711  0.9030
  344MOL0     H47418  -0.506   1.099   6.424  0.0144  1.7342 -0.4109
  344MOL0     H47419  -0.595   1.262   6.674 -4.1762  0.4768  0.4625
  344MOL0     H47420  -0.671   1.252   6.524  5.3451  3.9192 -2.0434
  344MOL0     H47421  -0.764   0.980   6.471  2.3662  2.5682 -0.0692
  344MOL0     H47422  -0.866   0.723   6.653 -0.0740  0.1275 -0.6481
  344MOL0     H47423  -0.964   0.830   6.543  4.8837 -0.0140 -1.9928
  344MOL0     H47424  -1.101   0.722   6.703 -0.2825  1.6208  0.9219
  344MOL0     H47425  -0.996   0.768   6.845 -1.4605  0.3151  1.2915
  344MOL0     H47426  -1.061   1.004   6.821  0.1730 -1.0784  0.5104
  344MOL0     H47427  -1.167   0.965   6.678 -0.8333 -0.6388 -0.5361
  344MOL0     H47428  -1.306   0.817   6.808  2.8314 -0.7485 -1.9299
  344MOL0     H47429  -1.205   0.859   6.950  0.2265  0.6509  0.9708
  344MOL0     H47430  -1.321   0.906   7.117 -0.7241 -1.8576 -0.7283
  344MOL0     H47431  -1.368   0.927   7.324  1.3127  3.1065 -3.8694
  344MOL0     H47432  -1.526   0.827   7.313 -0.3041  1.1146 -1.1585
  344MOL0     H47433  -1.516   0.980   7.407  2.5681  1.7962  0.4229
  344MOL0     H47434  -2.035   1.140   7.118  1.4681  2.2488 -0.6728
  344MOL0     H47435  -2.261   1.177   7.241  0.2390 -0.0655 -0.2048
  344MOL0     H47436  -2.225   1.490   7.543  1.2712 -0.4439 -2.3969
  344MOL0     H47437  -2.395   1.492   7.508  0.6012 -0.3983 -1.1478
  344MOL0     H47438  -2.279   1.305   7.717  1.7941 -0.3248 -2.1573
  344MOL0     H47439  -2.375   1.453   7.753  2.1799  0.3205 -0.3410
  344MOL0     H47440  -2.443   1.172   7.671  0.6911 -0.6089 -1.6838
  344MOL0     H47441  -2.523   1.295   7.564  3.4760 -0.6240 -2.3915
  344MOL0     H47442  -2.594   1.399   7.778  2.0072  0.5865 -0.5168
  344MOL0     H47443  -2.531   1.267   7.873  0.5956  1.0185  0.3258
  344MOL0     H47444  -2.771   1.272   7.812 -1.8322 -1.5504 -0.3561
  344MOL0     H47445  -2.732   1.237   7.648 -0.4698 -0.4055  0.3602
  344MOL0     H47446  -2.609   1.056   7.859  0.4161  0.8859  0.2013
  344MOL0     H47447  -2.675   1.004   7.707 -2.5044 -1.0206  0.1609
  344MOL0     H47448  -2.921   1.062   7.805 -2.0735  3.0038  2.7669
  344MOL0     H47449  -2.846   1.115   7.950 -0.2012  1.3159 -0.4188
  344MOL0     H47450  -2.935   0.882   7.975 -0.4486 -3.4345  1.0992
  344MOL0     H47451  -2.768   0.887   7.995 -1.5322 -1.6024  2.4591
  344MOL0     H47452  -2.043   1.351   7.566 -0.0291 -1.3976  1.2772
  344MOL0     H47453  -1.834   1.299   7.466 -0.1597 -2.6059  1.4763
  344MOL0     H47454  -1.703   1.184   6.983 -0.3872 -0.7844 -1.0726
  344MOL0     H47455  -1.546   1.149   6.831 -1.3867 -0.9816 -0.7102
  344MOL0     H47456   0.318   0.725   6.464  1.5584  4.7773  1.6833
  344MOL0     H47457   0.442   0.543   6.579 -0.0736 -0.6229  0.6228
  344MOL0     H47458   0.362   0.259   7.003  1.3510  1.4940  1.9912
  344MOL0     H47459   0.434   0.071   7.101  2.5271 -1.8807  2.0305
  344MOL0     H47460   0.877  -0.035   7.051  1.2078  0.3061  1.3764
  344MOL0     H47461   0.812  -0.159   7.150 -1.9132 -0.8594  0.4823
  344MOL0     H47462   0.790  -0.224   6.921  0.8128 -1.6385  3.7388
  344MOL0     H47463   0.684  -0.081   6.889  1.6657 -0.1820 -0.6776
  344MOL0     H47464   0.604  -0.301   7.078 -0.4434 -1.8540 -1.1039
  344MOL0     H47465   0.512  -0.162   7.017  0.5947  0.9391 -1.1188
  344MOL0     H47466   0.461  -0.369   6.904 -0.2849  0.7552  0.8283
  344MOL0     H47467   0.629  -0.409   6.882  0.3263  0.4843  0.6220
  344MOL0     H47468   0.550  -0.129   6.553  2.6070  1.3584  0.9203
  344MOL0     H47469   0.841   0.166   7.049  1.2732  1.7965 -3.3161
  344MOL0     H47470   0.820   0.419   6.819 -2.6571 -0.5920 -0.4683
  344MOL0     H47471   0.783   0.515   6.971 -0.1474 -0.6816  2.8901
  344MOL0     H47472   0.910   0.401   6.978  0.0073  0.1957 -0.3718
  345MOL0     O47473   4.904   9.812   4.778  0.9714  0.5315 -0.7536
  345MOL0     C47474   4.975   9.851   4.694  0.2746 -0.2152  0.2681
  345MOL0     O47475   5.111   9.825   4.686  0.0322  0.2693 -0.6341
  345MOL0     C47476   5.190   9.750   4.769  0.3286  1.1325 -0.3097
  345MOL0     C47477   5.319   9.740   4.725 -0.4854 -0.8811 -0.0415
  345MOL0     C47478   5.411   9.673   4.807  0.0119  0.0860 -0.0369
  345MOL0     C47479   5.378   9.618   4.930  1.2239  0.3173 -0.4590
  345MOL0     O47480   5.469   9.566   5.010 -0.6767 -0.1042 -0.2089
  345MOL0     C47481   5.576   9.652   5.053 -0.3815  0.1980  0.1284
  345MOL0     C47482   5.641   9.610   5.183  0.2252  0.2907  0.0913
  345MOL0     C47483   5.779   9.680   5.208  0.2319  1.2377 -0.1355
  345MOL0     C47484   5.870   9.593   5.292 -0.3897 -0.5134 -0.3107
  345MOL0     C47485   5.975   9.666   5.375 -0.8927  0.4619  0.7873
  345MOL0     C47486   6.062   9.574   5.450  0.2555 -0.0253 -0.1026
  345MOL0     C47487   6.167   9.660   5.517 -0.4899  0.2520 -0.1442
  345MOL0     C47488   6.248   9.577   5.606  0.7523  0.6946  0.2821
  345MOL0     N47489   6.344   9.652   5.682 -0.4296 -0.3161 -0.5160
  345MOL0     C47490   6.318   9.736   5.786 -0.3976  0.0101 -0.4020
  345MOL0     C47491   6.430   9.746   5.866 -0.6498  0.8084 -0.1485
  345MOL0     C47492   6.444   9.834   5.982 -0.5386 -0.6128 -0.6355
  345MOL0     C47493   6.560   9.789   6.077 -0.2529 -0.1072 -0.2586
  345MOL0     C47494   6.703   9.817   6.020 -0.6164  1.0871 -0.7885
  345MOL0     C47495   6.816   9.750   6.111 -0.8457  0.6541  0.2574
  345MOL0     O47496   6.794   9.619   6.152 -0.5199  0.3400 -0.7834
  345MOL0     C47497   6.857   9.520   6.080  0.0329 -0.7823 -0.1806
  345MOL0     C47498   6.827   9.488   5.950 -0.0979  1.0908 -0.0278
  345MOL0     C47499   6.895   9.385   5.878 -0.2177 -0.7311 -0.3320
  345MOL0     C47500   6.848   9.353   5.745 -0.7344  0.2415  0.2502
  345MOL0     C47501   6.985   9.308   5.953  0.2132 -0.2452 -0.2231
  345MOL0     C47502   7.060   9.193   5.899  0.9239  0.0730 -0.4950
  345MOL0     O47503   7.091   9.087   5.979  0.2912  1.1139 -1.2280
  345MOL0     C47504   7.176   8.986   5.934 -0.8172  0.3208  0.9758
  345MOL0     C47505   7.131   8.912   5.825 -0.4757  0.4604 -0.3283
  345MOL0     C47506   7.204   8.803   5.776 -0.2564  0.4740 -0.9622
  345MOL0     C47507   7.327   8.767   5.835 -0.3474  0.1802  0.4771
  345MOL0     O47508   7.402   8.681   5.756 -0.5945  0.3306  0.0360
  345MOL0     C47509   7.537   8.641   5.805 -0.2190 -0.4235 -0.2494
  345MOL0     C47510   7.585   8.538   5.707 -0.6873 -0.2324 -0.3293
  345MOL0     C47511   7.722   8.477   5.745 -0.2513 -0.5175  1.2937
  345MOL0     C47512   7.753   8.374   5.638 -0.2750 -0.3228 -0.4862
  345MOL0     C47513   7.877   8.299   5.684  0.2285  0.2426  0.2095
  345MOL0     C47514   7.881   8.173   5.601  0.7755 -0.4899  0.1815
  345MOL0     C47515   8.003   8.084   5.641 -0.5515  0.2180 -0.6175
  345MOL0     C47516   8.122   8.113   5.555 -0.1300 -0.2136  0.2688
  345MOL0    Cl47517   8.089   8.087   5.383 -0.3114 -0.5078 -0.3223
  345MOL0     C47518   7.374   8.847   5.940  0.1237  0.2311 -0.4302
  345MOL0     C47519   7.298   8.954   5.996  0.7855 -0.2375  0.2988
  345MOL0     O47520   7.081   9.203   5.781  0.1213  0.2422  0.9478
  345MOL0     C47521   6.990   9.322   6.093 -0.3448  0.1643  0.7765
  345MOL0     C47522   6.935   9.438   6.155  0.0582  0.8180  0.0187
  345MOL0     N47523   6.520   9.666   5.800 -0.5730  0.4734  0.1413
  345MOL0     N47524   6.472   9.611   5.695 -0.0385  0.0055  1.5322
  345MOL0     C47525   5.237   9.616   4.969 -0.6432 -0.2896  0.1315
  345MOL0     C47526   5.146   9.686   4.886 -0.3902 -0.1541  0.1817
  345MOL0     C47527   4.918   9.930   4.577  0.2648  0.0079  0.4457
  345MOL0     C47528   4.993  10.050   4.537  0.5904  0.5070 -0.5467
  345MOL0     C47529   4.932  10.139   4.449  1.0163 -0.5616 -0.0078
  345MOL0     C47530   4.807  10.110   4.382  0.6459 -0.6186  0.3090
  345MOL0     O47531   4.747  10.189   4.285 -0.0280  0.6638 -0.1380
  345MOL0     C47532   4.822  10.278   4.212  0.3322  1.1837  0.2513
  345MOL0     C47533   4.925  10.211   4.125 -0.8828 -0.5701 -0.7220
  345MOL0     C47534   4.859  10.134   4.014  1.0461  0.0360  1.2936
  345MOL0     C47535   4.845   9.982   4.051 -0.3894 -0.6487 -0.2885
  345MOL0     C47536   4.815   9.918   3.922 -1.0275  0.6432 -0.4066
  345MOL0     C47537   4.796   9.856   3.820  0.8159  0.6610 -0.0620
  345MOL0     C47538   4.743   9.986   4.419  0.6983  0.3004  0.4672
  345MOL0     C47539   4.792   9.903   4.517 -0.3781 -0.3753  0.2921
  345MOL0     C47540   4.717   9.776   4.550 -0.6568  0.0983 -0.5846
  345MOL0     H47541   5.351   9.795   4.637  1.6592 -3.5090 -1.0143
  345MOL0     H47542   5.513   9.663   4.771  1.0706  1.3875  2.3736
  345MOL0     H47543   5.550   9.757   5.062  0.1759  0.5324 -1.7455
  345MOL0     H47544   5.650   9.644   4.972 -2.4563 -1.6355 -1.7271
  345MOL0     H47545   5.571   9.628   5.265 -1.5033 -0.7301 -1.1016
  345MOL0     H47546   5.669   9.505   5.167 -1.2289 -0.0320 -0.5027
  345MOL0     H47547   5.826   9.703   5.112  1.6093  2.4636  0.7828
  345MOL0     H47548   5.768   9.778   5.258 -0.1059  1.3483 -0.4195
  345MOL0     H47549   5.808   9.535   5.360  1.0732 -1.9557 -0.1338
  345MOL0     H47550   5.915   9.521   5.223  1.7154  0.8866 -0.5086
  345MOL0     H47551   5.927   9.728   5.452 -0.6322 -0.5642  1.8067
  345MOL0     H47552   6.038   9.726   5.309 -0.5468 -1.5071 -0.7583
  345MOL0     H47553   6.003   9.515   5.521  0.4046 -0.1811 -0.1086
  345MOL0     H47554   6.094   9.499   5.378 -0.0745 -0.2579 -0.0120
  345MOL0     H47555   6.117   9.737   5.576  0.3541  1.2772 -0.7435
  345MOL0     H47556   6.234   9.710   5.447  0.9821 -0.7312  0.5039
  345MOL0     H47557   6.176   9.536   5.677 -2.8768  2.3523 -2.1035
  345MOL0     H47558   6.294   9.501   5.542 -0.3300 -0.5282  0.9110
  345MOL0     H47559   6.233   9.793   5.821 -0.8945 -0.1701 -1.2722
  345MOL0     H47560   6.356   9.825   6.047  1.0131  0.2640  1.7116
  345MOL0     H47561   6.467   9.937   5.954 -1.7591  0.2349  1.2321
  345MOL0     H47562   6.545   9.841   6.172 -0.4812  0.8077 -0.7859
  345MOL0     H47563   6.562   9.680   6.092 -0.7245 -0.0042  0.6096
  345MOL0     H47564   6.704   9.789   5.914 -2.0999  3.1253 -1.4174
  345MOL0     H47565   6.715   9.926   6.017 -2.1873  1.3058 -0.4746
  345MOL0     H47566   6.913   9.751   6.060  0.1136 -3.1933  1.6193
  345MOL0     H47567   6.828   9.797   6.209  1.1361 -1.9592  1.3930
  345MOL0     H47568   6.743   9.540   5.905 -0.3997  1.5347  0.9949
  345MOL0     H47569   6.925   9.369   5.669 -1.4089  0.4969 -0.3778
  345MOL0     H47570   6.762   9.411   5.713 -0.3868  0.1946 -0.8007
  345MOL0     H47571   6.828   9.246   5.737  1.0152 -0.0075 -1.5620
  345MOL0     H47572   7.040   8.943   5.776  0.0290  0.9198 -0.9861
  345MOL0     H47573   7.183   8.753   5.682  1.7009 -3.4687  0.4619
  345MOL0     H47574   7.601   8.728   5.818 -0.7285 -0.1466  0.4768
  345MOL0     H47575   7.514   8.601   5.904 -0.1335  3.3546  1.4773
  345MOL0     H47576   7.510   8.458   5.695  1.5550 -3.0781  2.8669
  345MOL0     H47577   7.573   8.591   5.612 -1.9683  4.5210  2.1787
  345MOL0     H47578   7.728   8.444   5.849  0.5849  1.2242  1.8335
  345MOL0     H47579   7.789   8.564   5.744 -2.5426  1.3553  1.5627
  345MOL0     H47580   7.780   8.419   5.541 -0.2040 -1.9486 -1.2488
  345MOL0     H47581   7.668   8.308   5.618 -0.7643 -0.4473  1.7707
  345MOL0     H47582   7.967   8.358   5.665 -0.4059  1.7617  1.6547
  345MOL0     H47583   7.876   8.274   5.791 -0.5418  2.7575  0.8566
  345MOL0     H47584   7.877   8.196   5.494 -0.3643 -0.6823  0.1726
  345MOL0     H47585   7.789   8.123   5.629 -0.8265  1.6847 -0.8540
  345MOL0     H47586   7.974   7.979   5.631  2.1044 -0.7152  0.5835
  345MOL0     H47587   8.032   8.105   5.744 -2.8155  0.7917 -0.0429
  345MOL0     H47588   8.205   8.050   5.587  1.7345  1.6040 -0.8196
  345MOL0     H47589   8.162   8.214   5.566 -0.5570  0.1419 -1.2101
  345MOL0     H47590   7.473   8.827   5.980 -0.1509 -0.4222 -0.0578
  345MOL0     H47591   7.332   9.025   6.071  2.4738  0.0424 -0.6630
  345MOL0     H47592   7.059   9.262   6.152  2.4804  3.3821  1.0672
  345MOL0     H47593   6.951   9.456   6.261  0.6073 -0.7250  0.2252
  345MOL0     H47594   5.196   9.556   5.049 -1.2047  1.4566  1.1959
  345MOL0     H47595   5.043   9.699   4.918 -0.0085  0.1156  1.3714
  345MOL0     H47596   5.093  10.065   4.579  0.4173 -0.8594  0.4068
  345MOL0     H47597   4.988  10.227   4.419  1.0786 -0.8750 -0.8324
  345MOL0     H47598   4.757  10.342   4.153 -3.0167 -0.3635  2.0163
  345MOL0     H47599   4.880  10.339   4.282  1.8974 -0.1148  0.1509
  345MOL0     H47600   4.994  10.147   4.181 -0.8206 -0.8217 -1.0816
  345MOL0     H47601   4.976  10.292   4.072 -2.6038  0.1591 -1.3300
  345MOL0     H47602   4.765  10.178   3.981  2.0043  1.4949  0.3610
  345MOL0     H47603   4.930  10.152   3.932  1.4522  0.1246  1.6595
  345MOL0     H47604   4.769   9.978   4.130  2.1620  1.4195  2.5025
  345MOL0     H47605   4.938   9.949   4.099  0.5934 -2.1407 -2.9929
  345MOL0     H47606   4.779   9.802   3.728 -1.4970  0.8913  0.1514
  345MOL0     H47607   4.646   9.951   4.386  1.6434 -2.0335 -0.0126
  345MOL0     H47608   4.781   9.688   4.563  0.4628  0.8489 -0.8613
  345MOL0     H47609   4.665   9.791   4.645  1.2598  2.1053  0.2307
  345MOL0     H47610   4.662   9.739   4.464 -0.0182 -0.6522 -0.6828
  346MOL0     O47611   0.560   5.130  10.606 -0.1480 -0.0578 -0.5047
  346MOL0     C47612   0.597   5.188  10.706  0.4081  0.1991 -0.0206
  346MOL0     O47613   0.723   5.181  10.755  0.4728  0.8197  0.7123
  346MOL0     C47614   0.791   5.066  10.767 -0.4002  0.9025 -0.0533
  346MOL0     C47615   0.921   5.073  10.735 -0.7671 -0.0195 -0.0768
  346MOL0     C47616   0.998   4.951  10.722  0.3629 -1.7680 -0.8190
  346MOL0     C47617   0.941   4.828  10.744 -0.0383  1.0702  0.4908
  346MOL0     O47618   1.011   4.716  10.719  0.1167  0.5566  0.1905
  346MOL0     C47619   0.963   4.583  10.751 -0.0490  0.3090  0.1093
  346MOL0     C47620   1.059   4.470  10.702  0.2506  0.8488  0.5488
  346MOL0     C47621   1.202   4.486  10.748 -0.6563 -0.0478 -0.2543
  346MOL0     C47622   1.280   4.548  10.640 -0.0894 -0.5914 -0.3535
  346MOL0     C47623   1.407   4.631  10.676 -0.2808  0.8228  0.1112
  346MOL0     C47624   1.522   4.534  10.717  0.0809  1.1302  0.1321
  346MOL0     C47625   1.575   4.446  10.602  0.9910  1.5021 -0.5383
  346MOL0     C47626   1.646   4.521  10.491  0.1570 -0.0910 -0.0084
  346MOL0     N47627   1.731   4.437  10.409 -1.3807  0.3485 -0.4350
  346MOL0     C47628   1.835   4.357  10.456  0.6106  0.8278  0.6248
  346MOL0     C47629   1.884   4.290  10.356 -0.3829 -0.3979  0.6340
  346MOL0     C47630   1.973   4.177  10.383 -0.7225 -0.1383  0.0332
  346MOL0     C47631   2.126   4.210  10.380 -0.0048 -0.2139  0.5779
  346MOL0     C47632   2.175   4.318  10.474  0.0225  0.7636  0.0159
  346MOL0     C47633   2.323   4.359  10.447  0.0025  0.4686 -0.4136
  346MOL0     O47634   2.412   4.268  10.502 -0.8299  0.1826 -0.5659
  346MOL0     C47635   2.533   4.234  10.442 -0.1645  0.7076  0.2871
  346MOL0     C47636   2.596   4.131  10.511  0.1931  0.3278  0.1754
  346MOL0     C47637   2.704   4.068  10.453 -0.0711 -0.0525  0.0938
  346MOL0     C47638   2.761   3.966  10.539 -0.8811  0.6898 -0.3653
  346MOL0     C47639   2.748   4.105  10.324 -0.5869 -0.0741 -0.0408
  346MOL0     C47640   2.851   4.020  10.250  0.0511 -0.5617 -0.3801
  346MOL0     O47641   2.909   4.077  10.138  0.6748 -0.0881  0.1334
  346MOL0     C47642   3.015   4.022  10.074 -0.3103  0.7299 -0.5858
  346MOL0     C47643   3.125   3.962  10.155  0.5330  0.1541 -0.2754
  346MOL0     C47644   3.235   3.908  10.092 -0.2710 -0.0015 -0.2619
  346MOL0     C47645   3.263   3.939   9.952  0.0895  0.2524 -1.0600
  346MOL0     O47646   3.362   3.906   9.874 -0.2626 -0.7835  0.1405
  346MOL0     C47647   3.465   3.823   9.918 -0.1933  0.6903 -0.6271
  346MOL0     C47648   3.565   3.797   9.809 -0.0131 -0.0517 -0.3016
  346MOL0     C47649   3.634   3.930   9.755  0.4846  0.1149 -0.6665
  346MOL0     C47650   3.734   3.883   9.650  0.2126 -0.5742  0.3524
  346MOL0     C47651   3.816   4.005   9.602  0.6072 -0.0198 -0.1046
  346MOL0     C47652   3.928   3.959   9.506  0.6536 -0.4712 -0.1779
  346MOL0     C47653   4.030   4.070   9.512  0.1016 -0.2091  0.1809
  346MOL0     C47654   4.133   4.047   9.623 -0.0909  0.3113 -0.4742
  346MOL0    Cl47655   4.247   4.193   9.626 -0.1917  0.6457  0.7610
  346MOL0     C47656   3.159   4.010   9.879  0.3759  0.2077 -0.2388
  346MOL0     C47657   3.039   4.046   9.940 -0.4297 -0.7890  0.8618
  346MOL0     O47658   2.861   3.897  10.278 -0.4678 -0.0629 -0.2406
  346MOL0     C47659   2.681   4.212  10.262 -0.8032  0.6092 -0.2942
  346MOL0     C47660   2.577   4.283  10.317 -0.5104 -0.3392  0.0610
  346MOL0     N47661   1.823   4.332  10.244 -0.0485 -0.2608  0.5242
  346MOL0     N47662   1.742   4.432  10.273 -1.0066 -0.8939 -0.4279
  346MOL0     C47663   0.812   4.822  10.793  0.5511  0.4965 -0.0657
  346MOL0     C47664   0.742   4.939  10.796  0.3901 -0.9114  0.0487
  346MOL0     C47665   0.508   5.295  10.765 -0.0091 -0.0378  0.7913
  346MOL0     C47666   0.581   5.401  10.811  0.7721 -0.0820  0.0839
  346MOL0     C47667   0.501   5.508  10.870 -0.3759 -0.3025  0.1609
  346MOL0     C47668   0.362   5.501  10.876  0.0408  0.5666 -0.2516
  346MOL0     O47669   0.286   5.600  10.949 -1.2166  0.7187 -0.1752
  346MOL0     C47670   0.224   5.543  11.069  0.2787 -0.2418  0.1846
  346MOL0     C47671   0.071   5.560  11.084 -1.1909 -0.0297  0.1128
  346MOL0     C47672   0.025   5.539  11.231  0.4586 -0.8235  0.4122
  346MOL0     C47673  -0.125   5.575  11.250 -0.9697  0.9185 -0.1634
  346MOL0     C47674  -0.208   5.465  11.198  0.3297 -0.4598 -0.0492
  346MOL0     C47675  -0.274   5.381  11.141  0.0525  0.7453 -0.0434
  346MOL0     C47676   0.296   5.380  10.824 -0.5940 -1.2274  0.0868
  346MOL0     C47677   0.366   5.284  10.757  0.0995 -0.3652 -0.5545
  346MOL0     C47678   0.298   5.166  10.704 -0.0025 -0.1975  0.2531
  346MOL0     H47679   0.967   5.168  10.707  0.9192 -1.2574 -1.7923
  346MOL0     H47680   1.098   4.967  10.684  1.3094  0.6180  2.2629
  346MOL0     H47681   0.865   4.574  10.705 -0.5872  3.3879  0.4565
  346MOL0     H47682   0.954   4.579  10.860 -1.3298  2.7051  0.1455
  346MOL0     H47683   1.025   4.378  10.750 -1.6750  1.5953  0.6996
  346MOL0     H47684   1.046   4.465  10.593 -0.1892  2.4565  0.4960
  346MOL0     H47685   1.202   4.548  10.838 -1.3242  1.1384 -1.0473
  346MOL0     H47686   1.249   4.388  10.763  1.5468  0.7926 -1.1533
  346MOL0     H47687   1.310   4.471  10.569  2.6972 -0.4946  0.5956
  346MOL0     H47688   1.211   4.615  10.587  0.2820 -0.4555 -0.6650
  346MOL0     H47689   1.374   4.703  10.751 -0.7134  0.6427  0.0986
  346MOL0     H47690   1.446   4.692  10.594  1.1201 -0.0890  0.0715
  346MOL0     H47691   1.602   4.587  10.769  1.6644 -1.0816  0.1034
  346MOL0     H47692   1.485   4.465  10.793  2.1074 -1.1318 -0.7947
  346MOL0     H47693   1.497   4.379  10.565  1.0742  2.2914 -2.2426
  346MOL0     H47694   1.646   4.373  10.644 -0.6670 -1.5801 -2.7120
  346MOL0     H47695   1.573   4.570  10.426  0.7052  0.4863 -0.1975
  346MOL0     H47696   1.708   4.601  10.532  0.0722  0.3022 -0.6318
  346MOL0     H47697   1.861   4.343  10.561  0.9154 -2.8033  0.1963
  346MOL0     H47698   1.965   4.110  10.296 -0.9849 -3.3006  2.3311
  346MOL0     H47699   1.943   4.121  10.472  0.6664 -1.3369 -0.2152
  346MOL0     H47700   2.183   4.118  10.394  1.6882  0.1495 -2.9072
  346MOL0     H47701   2.142   4.244  10.277 -1.2799  1.3012  0.8452
  346MOL0     H47702   2.117   4.410  10.461 -1.7384 -0.0661  1.4783
  346MOL0     H47703   2.171   4.283  10.578  2.2345 -0.0872 -0.1332
  346MOL0     H47704   2.339   4.360  10.339 -0.7560 -1.4091 -0.5814
  346MOL0     H47705   2.360   4.454  10.487 -1.2137  1.1403 -0.8340
  346MOL0     H47706   2.555   4.084  10.599 -1.3129 -0.6449 -0.9937
  346MOL0     H47707   2.870   3.954  10.528 -0.9873  1.0234 -1.8982
  346MOL0     H47708   2.718   3.867  10.518 -1.7626  0.8049  0.8112
  346MOL0     H47709   2.731   3.981  10.643 -0.6479  1.0780 -0.3542
  346MOL0     H47710   3.096   3.939  10.257 -0.7747 -3.4667 -1.3162
  346MOL0     H47711   3.295   3.846  10.158 -0.7541 -2.8186 -2.2813
  346MOL0     H47712   3.525   3.859  10.002 -0.5602  0.9188 -0.4649
  346MOL0     H47713   3.424   3.724   9.940  0.0131  0.4035 -1.4880
  346MOL0     H47714   3.639   3.725   9.843 -0.3100 -0.7956 -1.1926
  346MOL0     H47715   3.506   3.752   9.729 -0.5515 -0.8021  0.5006
  346MOL0     H47716   3.691   3.983   9.832  0.5971 -0.2259 -0.5115
  346MOL0     H47717   3.555   3.993   9.713 -0.3623 -0.6742 -0.3069
  346MOL0     H47718   3.690   3.844   9.558 -0.5597 -1.1608  0.9575
  346MOL0     H47719   3.808   3.814   9.691  1.2503  0.8980  1.0693
  346MOL0     H47720   3.760   4.087   9.557  3.7039  1.4267 -1.6008
  346MOL0     H47721   3.864   4.045   9.692 -0.4892  1.9816 -0.3474
  346MOL0     H47722   3.891   3.938   9.405 -3.1971 -1.3791  1.2459
  346MOL0     H47723   3.971   3.867   9.545  2.6693  1.5003  2.7110
  346MOL0     H47724   3.994   4.171   9.535  2.8958  0.4841  2.1034
  346MOL0     H47725   4.083   4.088   9.418 -1.5323 -2.0210 -1.1706
  346MOL0     H47726   4.187   3.956   9.595  0.9230  0.8214 -0.2350
  346MOL0     H47727   4.094   4.031   9.724  0.1860  1.8211 -0.1097
  346MOL0     H47728   3.166   4.019   9.771 -0.2609  1.2875 -0.2005
  346MOL0     H47729   2.960   4.087   9.877 -0.1528  0.4875  1.3185
  346MOL0     H47730   2.696   4.239  10.158 -0.5727 -2.8196 -1.2710
  346MOL0     H47731   2.526   4.354  10.253 -0.6072  1.1863  1.7641
  346MOL0     H47732   0.756   4.730  10.805 -0.4454  0.7280 -2.3917
  346MOL0     H47733   0.638   4.915  10.816  1.0830 -5.5388 -0.6865
  346MOL0     H47734   0.689   5.408  10.815  0.8547 -1.1359 -0.1823
  346MOL0     H47735   0.569   5.590  10.891  2.3577 -2.7077  1.3615
  346MOL0     H47736   0.260   5.441  11.082  0.3049 -0.1849  0.5733
  346MOL0     H47737   0.267   5.604  11.149 -0.1706  0.0082  0.2372
  346MOL0     H47738   0.020   5.509  11.002 -0.1368  1.5912 -1.6349
  346MOL0     H47739   0.057   5.659  11.039 -3.4399 -1.3655 -2.3392
  346MOL0     H47740   0.043   5.436  11.263  0.8961 -0.1625  2.4158
  346MOL0     H47741   0.075   5.615  11.291 -2.2907  4.3400 -3.0862
  346MOL0     H47742  -0.145   5.672  11.204  1.8453  1.1093 -1.2010
  346MOL0     H47743  -0.138   5.578  11.359  2.4878 -1.7264  0.5054
  346MOL0     H47744  -0.322   5.301  11.088 -0.9618  0.7365  0.8432
  346MOL0     H47745   0.188   5.392  10.819 -0.4111  3.0674  1.8107
  346MOL0     H47746   0.194   5.154  10.735 -0.2975 -1.7167 -1.1538
  346MOL0     H47747   0.291   5.172  10.595 -1.6562  0.7454  0.3781
  346MOL0     H47748   0.350   5.077  10.743 -2.5245 -1.4564  0.9539
  347MOL0     O47749   8.540   3.552   9.788  0.0420 -0.3764 -1.3991
  347MOL0     C47750   8.478   3.496   9.883 -1.0931  0.2087  0.4932
  347MOL0     O47751   8.540   3.464  10.001 -0.2210  0.1950 -0.8892
  347MOL0     C47752   8.667   3.500  10.031 -0.2313  0.0367  0.8867
  347MOL0     C47753   8.747   3.598   9.966 -0.2383  1.2109  0.2037
  347MOL0     C47754   8.883   3.630  10.006  0.9519  0.3458  0.7272
  347MOL0     C47755   8.939   3.555  10.112  0.1849  0.2584  0.0560
  347MOL0     O47756   9.064   3.574  10.160 -0.0018 -0.3407  0.3328
  347MOL0     C47757   9.153   3.683  10.118  0.3086 -0.2840  0.7971
  347MOL0     C47758   9.264   3.696  10.223 -0.6821 -0.3131  0.1620
  347MOL0     C47759   9.373   3.586  10.192  0.1124 -0.5079  0.9244
  347MOL0     C47760   9.434   3.529  10.322 -0.2879  0.1077  0.1735
  347MOL0     C47761   9.541   3.425  10.287 -0.7588  1.0085 -0.2124
  347MOL0     C47762   9.671   3.502  10.290 -0.0469  0.1800 -0.0612
  347MOL0     C47763   9.783   3.394  10.245  0.0904  0.5792 -0.5479
  347MOL0     C47764   9.833   3.319  10.367 -1.1754 -0.5632  0.6675
  347MOL0     N47765   9.916   3.408  10.449 -0.5055 -0.0677  0.0283
  347MOL0     C47766  10.044   3.451  10.428 -0.6219 -0.1041 -0.1656
  347MOL0     C47767  10.068   3.529  10.544  0.1946  1.3474  0.5020
  347MOL0     C47768  10.197   3.597  10.571 -0.5277  0.2828  0.4989
  347MOL0     C47769  10.264   3.652  10.442  0.0914 -0.7510  0.3027
  347MOL0     C47770  10.394   3.721  10.476  0.6006 -0.7124  0.1393
  347MOL0     C47771  10.471   3.782  10.360  0.0169  0.0164  0.9620
  347MOL0     O47772  10.575   3.867  10.420  0.3889 -0.0176  0.5139
  347MOL0     C47773  10.708   3.850  10.380 -0.4349  0.5814  0.8314
  347MOL0     C47774  10.809   3.874  10.464  0.7277 -0.2393 -0.4204
  347MOL0     C47775  10.948   3.852  10.447  0.2688  0.2984  1.0876
  347MOL0     C47776  11.039   3.873  10.572 -0.1954  0.3628  0.9125
  347MOL0     C47777  10.993   3.805  10.317 -0.0789 -0.1943 -0.5160
  347MOL0     C47778  11.126   3.765  10.284 -0.5901  0.3766  0.7003
  347MOL0     O47779  11.146   3.674  10.180 -0.2791  0.4802 -0.8159
  347MOL0     C47780  11.268   3.625  10.149 -1.2964  0.1045 -0.2862
  347MOL0     C47781  11.300   3.495  10.177 -0.7374 -0.3344 -1.4801
  347MOL0     C47782  11.430   3.441  10.142  0.3886 -0.3019  0.3351
  347MOL0     C47783  11.519   3.522  10.077 -0.3348 -0.1307 -0.4111
  347MOL0     O47784  11.645   3.483  10.027  0.6383 -0.2682 -0.3167
  347MOL0     C47785  11.683   3.344  10.037 -0.3682  0.3433  0.2693
  347MOL0     C47786  11.809   3.330   9.959 -0.0762 -0.2218 -0.7054
  347MOL0     C47787  11.893   3.200   9.980 -0.4910 -0.6891  0.1768
  347MOL0     C47788  11.989   3.182   9.867  0.0597 -0.5216 -0.0383
  347MOL0     C47789  12.091   3.067   9.893 -0.3291 -0.4564 -0.1222
  347MOL0     C47790  12.185   3.031   9.778  0.7309 -0.9500 -0.3351
  347MOL0     C47791  12.115   2.950   9.659  0.4792  0.3358 -0.9877
  347MOL0     C47792  12.212   2.875   9.582  0.2096  0.1441  0.0687
  347MOL0    Cl47793  12.344   2.988   9.522 -0.1778 -0.2457 -0.2483
  347MOL0     C47794  11.489   3.653  10.061  0.7264 -0.5104  0.0456
  347MOL0     C47795  11.370   3.702  10.098  0.1370  0.6992  0.1767
  347MOL0     O47796  11.216   3.838  10.333 -1.1287  0.7293  0.0196
  347MOL0     C47797  10.882   3.790  10.219  0.2952 -0.9231  0.6712
  347MOL0     C47798  10.751   3.804  10.253 -0.4599  0.1969 -0.2815
  347MOL0     N47799   9.964   3.531  10.627  0.1247 -0.1951  0.3835
  347MOL0     N47800   9.877   3.459  10.571  0.1634  0.6279 -0.6101
  347MOL0     C47801   8.869   3.445  10.166 -0.2184  0.1719  0.3721
  347MOL0     C47802   8.734   3.422  10.124  0.8055  0.0122  0.1669
  347MOL0     C47803   8.334   3.466   9.869 -1.3085  0.2047 -0.7369
  347MOL0     C47804   8.269   3.437   9.986 -1.2436  0.2343  0.2663
  347MOL0     C47805   8.128   3.404   9.993 -1.0459 -0.6467 -0.2645
  347MOL0     C47806   8.061   3.402   9.868  0.3755  0.1055  0.1199
  347MOL0     O47807   7.930   3.358   9.852 -0.2403  0.5140  1.0335
  347MOL0     C47808   7.846   3.358   9.969 -0.2166  0.5502 -0.0389
  347MOL0     C47809   7.810   3.506   9.995  0.3047 -0.0548 -0.6165
  347MOL0     C47810   7.696   3.547   9.894 -0.0960  0.3596  0.6380
  347MOL0     C47811   7.642   3.692   9.902  0.4541  0.4790 -0.8046
  347MOL0     C47812   7.527   3.721   9.818  0.3295  0.0398  0.6570
  347MOL0     C47813   7.423   3.753   9.758  1.0609 -0.9425  0.2308
  347MOL0     C47814   8.136   3.433   9.751 -0.2180  0.4728  0.2507
  347MOL0     C47815   8.269   3.465   9.745  0.4242  0.1005 -0.8617
  347MOL0     C47816   8.337   3.481   9.610  0.9051  0.2909 -0.6549
  347MOL0     H47817   8.707   3.663   9.888  0.9683  0.0710 -1.4331
  347MOL0     H47818   8.944   3.698   9.948 -1.3174  1.2770 -0.7013
  347MOL0     H47819   9.103   3.780  10.111  0.8369 -0.0389  0.3671
  347MOL0     H47820   9.193   3.661  10.019 -0.1685 -0.9726  0.7507
  347MOL0     H47821   9.316   3.792  10.217  2.6150 -1.9574  0.3523
  347MOL0     H47822   9.237   3.676  10.327  1.5850 -0.2000  0.8162
  347MOL0     H47823   9.335   3.499  10.137 -0.2487 -1.6179  2.8342
  347MOL0     H47824   9.456   3.634  10.138  0.5433 -0.4911  1.5981
  347MOL0     H47825   9.466   3.611  10.387 -0.2840 -0.5947  1.0722
  347MOL0     H47826   9.360   3.474  10.380 -1.0459  0.3576 -0.5301
  347MOL0     H47827   9.510   3.384  10.190 -2.7085 -2.2329  1.5904
  347MOL0     H47828   9.548   3.345  10.362 -0.6192  1.6780  0.4975
  347MOL0     H47829   9.664   3.580  10.214  1.3908 -0.4307 -0.8511
  347MOL0     H47830   9.705   3.551  10.382 -0.6941 -2.3842  1.6413
  347MOL0     H47831   9.869   3.446  10.201  2.0607  1.8742  4.1771
  347MOL0     H47832   9.749   3.316  10.177 -0.9947 -1.7138  2.4235
  347MOL0     H47833   9.768   3.249  10.420 -1.5462 -3.4990 -3.2198
  347MOL0     H47834   9.909   3.254  10.323 -2.2674 -2.0714  0.9267
  347MOL0     H47835  10.116   3.416  10.356  1.2992  0.5393  1.3528
  347MOL0     H47836  10.261   3.522  10.619 -0.1073 -0.1653 -0.7305
  347MOL0     H47837  10.183   3.684  10.636  3.8444  3.0815 -1.8281
  347MOL0     H47838  10.283   3.571  10.370  1.5684  0.0981 -0.2998
  347MOL0     H47839  10.193   3.720  10.395 -0.7623 -0.1349  2.3814
  347MOL0     H47840  10.363   3.806  10.538  0.4355  0.1416 -1.0951
  347MOL0     H47841  10.460   3.661  10.539  0.4818  2.2018  3.3706
  347MOL0     H47842  10.516   3.708  10.294  0.3935  2.1492 -1.3370
  347MOL0     H47843  10.409   3.851  10.301  2.3247  2.5275  1.2927
  347MOL0     H47844  10.782   3.906  10.564 -1.6055  0.5349 -1.2264
  347MOL0     H47845  11.109   3.790  10.585 -1.7025 -1.1560 -0.2242
  347MOL0     H47846  10.980   3.889  10.662 -2.1211  1.8090 -0.5227
  347MOL0     H47847  11.099   3.964  10.558 -0.4927  0.7045  1.7777
  347MOL0     H47848  11.222   3.432  10.220 -1.0403  1.0912  0.1817
  347MOL0     H47849  11.434   3.333  10.146  0.2714 -0.3475 -0.5912
  347MOL0     H47850  11.709   3.330  10.142  0.1451  1.3929  0.2979
  347MOL0     H47851  11.609   3.269  10.008  0.8053 -0.7519  0.0060
  347MOL0     H47852  11.785   3.337   9.852 -0.2720  1.2855 -0.5760
  347MOL0     H47853  11.880   3.402  10.000 -0.6256 -1.6509  3.2100
  347MOL0     H47854  11.830   3.113  10.002 -1.4694  0.0604  0.3910
  347MOL0     H47855  11.950   3.216  10.071  1.0374 -0.4096 -0.7987
  347MOL0     H47856  12.048   3.273   9.870 -2.5738  1.2590  1.0198
  347MOL0     H47857  11.944   3.178   9.767  0.3443  0.7564 -0.2242
  347MOL0     H47858  12.149   3.091   9.983  0.7632 -1.3048 -0.5631
  347MOL0     H47859  12.039   2.980   9.934  3.0668 -1.4533  2.6449
  347MOL0     H47860  12.275   2.976   9.808  0.2736  0.1850  3.6971
  347MOL0     H47861  12.218   3.123   9.729 -1.8504 -0.4492 -1.2588
  347MOL0     H47862  12.060   3.018   9.594  0.0493 -1.8539 -3.0621
  347MOL0     H47863  12.037   2.886   9.701  1.0759  0.4537  0.3458
  347MOL0     H47864  12.165   2.846   9.488 -0.6155  2.7894 -0.4332
  347MOL0     H47865  12.244   2.790   9.642  1.0410  0.6704  0.3870
  347MOL0     H47866  11.571   3.720  10.035  0.0342  1.0082  1.5328
  347MOL0     H47867  11.344   3.807  10.087  0.0376  0.9577  2.3848
  347MOL0     H47868  10.899   3.770  10.114  0.5860  1.9922  0.0746
  347MOL0     H47869  10.681   3.797  10.170 -0.7882  3.6567 -0.4520
  347MOL0     H47870   8.920   3.382  10.238 -1.2399 -0.5579  0.4891
  347MOL0     H47871   8.679   3.333  10.154 -0.2258 -0.2886 -2.4040
  347MOL0     H47872   8.316   3.436  10.084 -1.7780 -1.4998  0.5346
  347MOL0     H47873   8.095   3.391  10.095  0.3557  1.4365  0.5140
  347MOL0     H47874   7.761   3.290   9.956 -0.8396  1.2740  0.1888
  347MOL0     H47875   7.905   3.318  10.051  2.3210  2.5645 -0.7476
  347MOL0     H47876   7.891   3.580   9.999 -1.1831  1.6326 -0.4551
  347MOL0     H47877   7.755   3.517  10.089 -0.9976 -0.3859 -1.3245
  347MOL0     H47878   7.738   3.526   9.795  0.3634 -0.8683  1.0660
  347MOL0     H47879   7.615   3.474   9.902  0.3169 -0.0775  0.8817
  347MOL0     H47880   7.717   3.761   9.861  2.5334 -1.8019 -1.0108
  347MOL0     H47881   7.629   3.739  10.000  0.0439 -0.4086 -0.4246
  347MOL0     H47882   7.333   3.764   9.701  0.8903 -3.3033 -0.0456
  347MOL0     H47883   8.073   3.430   9.662  0.5233  2.6504 -0.4309
  347MOL0     H47884   8.271   3.455   9.527 -0.7178  1.6694  0.1306
  347MOL0     H47885   8.353   3.587   9.587 -4.3655  1.2534 -1.3365
  347MOL0     H47886   8.421   3.412   9.597 -0.0318 -1.5896  2.1755
  348MOL0     O47887   2.611   2.052   5.239 -0.3124  0.3363  0.4837
  348MOL0     C47888   2.551   2.005   5.340  0.1180 -0.4490  0.4142
  348MOL0     O47889   2.595   2.021   5.469 -0.9142  0.1362  0.7522
  348MOL0     C47890   2.719   2.073   5.481  0.2688  0.1992 -0.0460
  348MOL0     C47891   2.737   2.179   5.559 -0.7041  0.5588 -0.3824
  348MOL0     C47892   2.860   2.256   5.560  0.4442  0.3056 -0.5555
  348MOL0     C47893   2.963   2.212   5.482 -0.2081 -0.5474  0.3221
  348MOL0     O47894   3.076   2.281   5.492 -0.0431  0.1498 -0.0831
  348MOL0     C47895   3.184   2.246   5.422 -0.9647  0.7005 -0.8671
  348MOL0     C47896   3.185   2.329   5.296  1.0068 -0.5802  0.1322
  348MOL0     C47897   3.329   2.329   5.225  0.0841  0.7678 -0.5983
  348MOL0     C47898   3.433   2.422   5.280 -0.1779  0.0843 -0.0111
  348MOL0     C47899   3.552   2.426   5.183 -0.4797  0.7731  0.1763
  348MOL0     C47900   3.649   2.308   5.199  0.6109  0.3580  0.0849
  348MOL0     C47901   3.762   2.313   5.098 -0.2264  0.2577  0.3497
  348MOL0     C47902   3.854   2.437   5.101  0.2658  0.5962 -0.5492
  348MOL0     N47903   3.910   2.450   5.233 -0.4060 -0.2912  0.6389
  348MOL0     C47904   3.888   2.543   5.323 -0.0816  0.6813  0.1518
  348MOL0     C47905   3.955   2.507   5.440 -0.2008 -0.5392  0.2239
  348MOL0     C47906   3.960   2.590   5.561 -0.4229 -0.1577  0.0327
  348MOL0     C47907   4.110   2.598   5.605 -0.1478  0.6696  0.2465
  348MOL0     C47908   4.213   2.665   5.512  0.6872  0.2634  0.2429
  348MOL0     C47909   4.178   2.796   5.454  0.2846 -0.8733 -0.1915
  348MOL0     O47910   4.158   2.897   5.554  0.0596  0.2136 -0.1201
  348MOL0     C47911   4.257   2.921   5.644 -0.4039 -0.0191  0.3067
  348MOL0     C47912   4.212   2.969   5.768  0.6809  0.1680 -0.0519
  348MOL0     C47913   4.294   2.996   5.873 -0.0375 -0.2301 -0.3768
  348MOL0     C47914   4.225   3.054   5.996 -0.2407 -0.1583 -0.5369
  348MOL0     C47915   4.435   2.979   5.855 -0.3315 -0.2999  0.0445
  348MOL0     C47916   4.550   2.995   5.957 -0.0560 -0.0625  0.7677
  348MOL0     O47917   4.683   2.989   5.917  0.0314  0.1029 -0.0895
  348MOL0     C47918   4.785   3.013   6.000  0.7201 -0.9545 -0.8846
  348MOL0     C47919   4.814   3.144   6.038 -0.0213 -0.2873  0.5094
  348MOL0     C47920   4.921   3.167   6.121 -0.0452 -0.9068  0.9182
  348MOL0     C47921   5.012   3.064   6.151  0.3736  1.1089  0.0404
  348MOL0     O47922   5.131   3.086   6.210 -0.4684  0.6387  0.1178
  348MOL0     C47923   5.137   3.148   6.337 -0.1399  0.1051 -0.3325
  348MOL0     C47924   5.267   3.111   6.410 -0.6767  0.8804 -1.4600
  348MOL0     C47925   5.270   2.959   6.455  0.5933 -0.1530  0.8418
  348MOL0     C47926   5.400   2.912   6.512  0.4223  0.0759  0.2583
  348MOL0     C47927   5.384   2.783   6.594 -0.2450  0.0111 -0.5830
  348MOL0     C47928   5.524   2.748   6.662  0.7893 -1.0167  0.2738
  348MOL0     C47929   5.504   2.683   6.799  0.3523  0.0893  0.2084
  348MOL0     C47930   5.416   2.548   6.783  0.1347 -0.2490 -0.6596
  348MOL0    Cl47931   5.501   2.419   6.698  0.2250  0.1551 -0.6231
  348MOL0     C47932   4.985   2.936   6.105 -0.5475  0.5343 -0.1808
  348MOL0     C47933   4.876   2.904   6.020 -0.2724  0.2383 -0.9199
  348MOL0     O47934   4.519   3.012   6.069 -0.0376  0.0288  0.7778
  348MOL0     C47935   4.484   2.939   5.724  0.1823  0.4340  0.0429
  348MOL0     C47936   4.394   2.908   5.627 -0.0559  0.9755 -0.2808
  348MOL0     N47937   4.018   2.391   5.405  0.3712 -0.2575 -0.4252
  348MOL0     N47938   3.996   2.348   5.286  0.9376 -0.4441  0.2602
  348MOL0     C47939   2.953   2.094   5.410  0.5723  0.7139 -0.6548
  348MOL0     C47940   2.832   2.017   5.411 -0.6004 -0.2076  0.6575
  348MOL0     C47941   2.433   1.910   5.324 -0.3752 -0.0527  0.2183
  348MOL0     C47942   2.408   1.874   5.182 -0.2412 -0.7340 -0.5511
  348MOL0     C47943   2.287   1.809   5.143 -0.0463 -0.0874  1.0512
  348MOL0     C47944   2.198   1.760   5.236 -0.4504 -0.0124  0.3547
  348MOL0     O47945   2.087   1.677   5.207  0.0772  0.6316  0.3980
  348MOL0     C47946   2.078   1.611   5.077  0.5312 -0.0618  0.6348
  348MOL0     C47947   1.956   1.514   5.085 -0.0105 -0.8169 -0.0199
  348MOL0     C47948   1.814   1.587   5.098 -0.5194 -0.0482 -0.6013
  348MOL0     C47949   1.702   1.501   5.151 -0.7847  0.1960 -0.6501
  348MOL0     C47950   1.587   1.580   5.141  1.5309 -0.0367 -0.0612
  348MOL0     C47951   1.482   1.653   5.134 -0.4423  0.0126  0.5661
  348MOL0     C47952   2.226   1.799   5.370 -0.0250 -0.2382 -0.8826
  348MOL0     C47953   2.331   1.881   5.414 -0.1252  0.1391  0.1213
  348MOL0     C47954   2.342   1.921   5.562 -0.4830 -0.2369 -0.1194
  348MOL0     H47955   2.656   2.220   5.619 -1.2361 -0.0890 -0.6442
  348MOL0     H47956   2.882   2.347   5.615  0.1370 -0.3334  0.6451
  348MOL0     H47957   3.205   2.141   5.397  1.4225  1.1810 -1.1689
  348MOL0     H47958   3.278   2.274   5.471 -0.2047 -0.3688 -1.6598
  348MOL0     H47959   3.110   2.291   5.226  0.6233  0.8719 -0.2798
  348MOL0     H47960   3.160   2.434   5.315 -3.1920 -0.7964 -2.9089
  348MOL0     H47961   3.359   2.224   5.226 -2.4426 -0.0471 -1.6198
  348MOL0     H47962   3.314   2.349   5.118  0.3919  1.6368 -0.4831
  348MOL0     H47963   3.381   2.518   5.278 -0.4600 -0.0840 -2.0895
  348MOL0     H47964   3.460   2.402   5.385 -2.7207 -0.0417  0.6896
  348MOL0     H47965   3.605   2.517   5.214  0.3095  0.7912 -1.1696
  348MOL0     H47966   3.522   2.425   5.078  0.8930  0.7298 -0.2368
  348MOL0     H47967   3.683   2.323   5.301  0.7011  0.0468  0.1008
  348MOL0     H47968   3.596   2.212   5.197 -1.4020  0.9578  6.0015
  348MOL0     H47969   3.721   2.304   4.997  2.0776 -0.2339 -0.6112
  348MOL0     H47970   3.817   2.219   5.114 -1.7519 -1.3014 -2.5967
  348MOL0     H47971   3.932   2.436   5.024  0.2371  4.1703 -0.7916
  348MOL0     H47972   3.792   2.522   5.070  0.7142  0.0710 -3.1903
  348MOL0     H47973   3.832   2.634   5.306 -0.9413  0.8221  3.1749
  348MOL0     H47974   3.896   2.551   5.641 -0.3512  0.9129  0.6434
  348MOL0     H47975   3.913   2.688   5.547 -1.4251 -0.5669  0.3934
  348MOL0     H47976   4.118   2.655   5.698 -0.0636 -0.9019  1.2446
  348MOL0     H47977   4.145   2.499   5.635 -0.5867  0.0689 -1.1390
  348MOL0     H47978   4.299   2.683   5.577 -0.3037  1.5608  1.2561
  348MOL0     H47979   4.227   2.600   5.425 -0.7896 -0.1670  0.2843
  348MOL0     H47980   4.257   2.816   5.382 -0.2578 -3.8870 -1.8227
  348MOL0     H47981   4.082   2.789   5.401 -0.0554 -0.1040  0.3080
  348MOL0     H47982   4.105   2.970   5.789  0.6366 -1.2120 -0.1217
  348MOL0     H47983   4.216   2.974   6.071 -0.1722 -0.8068 -1.2108
  348MOL0     H47984   4.128   3.097   5.972  0.4819  1.5008 -0.5800
  348MOL0     H47985   4.286   3.134   6.038  0.8582  0.4432 -3.1232
  348MOL0     H47986   4.739   3.220   6.021  0.2001 -0.3530 -0.8411
  348MOL0     H47987   4.943   3.268   6.156  1.5709 -1.5232  1.8184
  348MOL0     H47988   5.130   3.256   6.318 -0.8127  0.1601  0.1701
  348MOL0     H47989   5.050   3.125   6.399  0.6111  1.6592  1.4168
  348MOL0     H47990   5.358   3.140   6.358  0.3263  0.9403  0.2564
  348MOL0     H47991   5.273   3.161   6.508  1.2545 -0.9269 -0.5737
  348MOL0     H47992   5.258   2.899   6.365 -0.3145  0.2307  0.6945
  348MOL0     H47993   5.181   2.933   6.513 -0.8351  3.0896  0.3491
  348MOL0     H47994   5.444   2.987   6.578  0.1928  1.4514 -1.1109
  348MOL0     H47995   5.466   2.889   6.428  1.5053  0.8486  0.8670
  348MOL0     H47996   5.294   2.792   6.655 -2.3491 -2.8732 -2.9762
  348MOL0     H47997   5.354   2.699   6.531  0.4952 -0.9924  0.3701
  348MOL0     H47998   5.573   2.844   6.677  2.4162 -1.5464 -1.2810
  348MOL0     H47999   5.586   2.690   6.593  1.6121  1.3200 -1.0554
  348MOL0     H48000   5.458   2.751   6.871  0.0430 -1.0803  1.1359
  348MOL0     H48001   5.601   2.666   6.846 -0.0719 -0.9252  0.7344
  348MOL0     H48002   5.325   2.573   6.728  0.3452  1.6763 -0.2011
  348MOL0     H48003   5.391   2.513   6.883  1.0238  0.9790  0.0227
  348MOL0     H48004   5.054   2.858   6.136 -0.5437  0.6264  0.0424
  348MOL0     H48005   4.853   2.804   5.986 -1.0380  0.4156 -0.9430
  348MOL0     H48006   4.592   2.933   5.708  0.2331  1.9929 -0.3117
  348MOL0     H48007   4.435   2.881   5.530  0.5908 -0.9622  0.4831
  348MOL0     H48008   3.024   2.054   5.338 -2.3349 -2.5328 -2.0170
  348MOL0     H48009   2.825   1.919   5.365 -2.1456  0.9438 -1.7449
  348MOL0     H48010   2.477   1.914   5.109  1.9668 -0.9418  1.3289
  348MOL0     H48011   2.273   1.792   5.037 -0.8289 -0.6919  1.2406
  348MOL0     H48012   2.067   1.680   4.992 -1.2990 -2.2695 -1.0522
  348MOL0     H48013   2.157   1.541   5.048  0.5895  0.9800 -2.0699
  348MOL0     H48014   1.968   1.452   5.175  0.1571  0.0352  0.5629
  348MOL0     H48015   1.952   1.432   5.013 -1.9270 -1.9240  1.2504
  348MOL0     H48016   1.827   1.676   5.160  3.3696 -1.2807  0.6132
  348MOL0     H48017   1.802   1.617   4.994  1.4415  1.7319 -0.3752
  348MOL0     H48018   1.720   1.484   5.258 -1.0407 -0.9249 -0.7675
  348MOL0     H48019   1.681   1.402   5.110 -1.4391 -1.5588  3.3871
  348MOL0     H48020   1.403   1.723   5.117  0.1559  0.4321 -0.6460
  348MOL0     H48021   2.149   1.771   5.441 -1.3166  1.3161 -1.6038
  348MOL0     H48022   2.439   1.887   5.602 -0.6705 -0.2822  0.2985
  348MOL0     H48023   2.338   2.029   5.573  1.4472 -0.2204  0.8344
  348MOL0     H48024   2.263   1.864   5.612  1.4784 -2.7921  0.3114
  349MOL0     O48025   6.801   5.108  10.488 -0.0549  0.6854 -0.3517
  349MOL0     C48026   6.756   5.198  10.556  0.5857  0.0981 -0.0712
  349MOL0     O48027   6.635   5.247  10.549  0.1853 -0.8129  0.2509
  349MOL0     C48028   6.538   5.183  10.468  0.0027 -0.0844  0.2554
  349MOL0     C48029   6.517   5.208  10.331 -0.1196 -0.1911 -0.0568
  349MOL0     C48030   6.414   5.149  10.256 -1.2114  0.2952  0.0234
  349MOL0     C48031   6.326   5.061  10.324  1.2836 -0.4990  0.2269
  349MOL0     O48032   6.212   4.995  10.270 -0.5693  0.1466  0.0292
  349MOL0     C48033   6.239   4.883  10.178  0.7758 -0.4437 -0.6959
  349MOL0     C48034   6.213   4.911  10.032  0.3927  0.2759  0.1994
  349MOL0     C48035   6.073   4.976  10.009 -0.0470  0.2574 -0.6215
  349MOL0     C48036   6.086   5.127   9.991 -0.3357  0.6513  0.6824
  349MOL0     C48037   5.953   5.188   9.958 -0.0975  0.4525  0.0636
  349MOL0     C48038   5.883   5.157   9.821  0.2298  0.9155 -0.5293
  349MOL0     C48039   5.972   5.209   9.709  0.9545  0.4034  0.2041
  349MOL0     C48040   5.906   5.268   9.586 -0.7407  0.2847 -0.3887
  349MOL0     N48041   5.898   5.414   9.587 -0.3269 -0.1445 -0.9158
  349MOL0     C48042   5.851   5.485   9.694  0.3139 -0.0193  0.2661
  349MOL0     C48043   5.871   5.609   9.662 -0.4719 -0.1335  0.0237
  349MOL0     C48044   5.866   5.727   9.763  0.6844 -0.1742  0.2463
  349MOL0     C48045   6.008   5.781   9.795 -0.3894  0.0361 -0.2621
  349MOL0     C48046   6.097   5.681   9.873 -0.8873  0.0847  0.1889
  349MOL0     C48047   6.244   5.700   9.834  0.5329  0.7551 -0.0209
  349MOL0     O48048   6.288   5.836   9.845 -0.1338 -0.0540 -0.8777
  349MOL0     C48049   6.422   5.854   9.808 -0.0029 -0.6279 -0.0820
  349MOL0     C48050   6.480   5.978   9.831 -0.5020  0.7730 -0.8271
  349MOL0     C48051   6.619   5.996   9.811  0.2673  0.3340 -0.1847
  349MOL0     C48052   6.687   6.127   9.860 -0.9174  0.0971 -0.7587
  349MOL0     C48053   6.703   5.893   9.763  0.8338  0.9148 -0.5152
  349MOL0     C48054   6.841   5.908   9.719 -0.3469  0.0233  0.2817
  349MOL0     O48055   6.937   5.818   9.747  0.3643 -0.2247  0.7790
  349MOL0     C48056   7.066   5.859   9.744  0.5675  0.1425 -0.2442
  349MOL0     C48057   7.127   5.893   9.629 -0.0894  0.2470 -0.6115
  349MOL0     C48058   7.259   5.924   9.621 -0.4472  0.4634 -0.8573
  349MOL0     C48059   7.337   5.914   9.734 -0.8987  0.4709 -0.3699
  349MOL0     O48060   7.472   5.939   9.747 -0.3282 -0.5444  0.7051
  349MOL0     C48061   7.522   6.044   9.661  0.2150 -0.3017 -0.5953
  349MOL0     C48062   7.667   6.059   9.696  0.0830  0.2507  0.6957
  349MOL0     C48063   7.695   6.138   9.818 -0.3669  0.3993 -0.0544
  349MOL0     C48064   7.649   6.285   9.803  0.6245  0.5823 -0.1494
  349MOL0     C48065   7.681   6.379   9.924 -0.4580  0.4718 -1.2092
  349MOL0     C48066   7.627   6.523   9.900 -0.2339 -0.0405 -0.4287
  349MOL0     C48067   7.677   6.628  10.009  0.5402 -0.0506  1.2849
  349MOL0     C48068   7.631   6.771   9.973 -0.3708  0.3245  0.2043
  349MOL0    Cl48069   7.738   6.834   9.846 -0.2164 -0.0290  0.1070
  349MOL0     C48070   7.279   5.877   9.862  0.9264  0.1510 -0.2663
  349MOL0     C48071   7.138   5.853   9.856 -0.2809 -0.4981 -0.1005
  349MOL0     O48072   6.863   6.007   9.640 -0.0011  0.3813 -0.1460
  349MOL0     C48073   6.647   5.768   9.747 -0.1283  1.0112  0.0396
  349MOL0     C48074   6.509   5.754   9.764 -1.2887  0.3412  1.3999
  349MOL0     N48075   5.935   5.614   9.539 -0.1676 -0.3116 -0.2379
  349MOL0     N48076   5.939   5.495   9.487 -0.0131  0.2022  0.2041
  349MOL0     C48077   6.357   5.036  10.462  0.1774  0.1830 -0.0780
  349MOL0     C48078   6.457   5.100  10.534 -0.6111 -0.5509 -0.0260
  349MOL0     C48079   6.853   5.253  10.656  0.5352 -0.4583 -0.3123
  349MOL0     C48080   6.995   5.239  10.635 -0.3298  0.0008  0.3410
  349MOL0     C48081   7.084   5.294  10.732 -0.0872 -0.1491 -0.2346
  349MOL0     C48082   7.037   5.362  10.843  0.4539  0.2389  0.0548
  349MOL0     O48083   7.111   5.434  10.929 -0.4242  0.2781 -0.2679
  349MOL0     C48084   7.139   5.392  11.057 -0.1927  0.2823  0.1317
  349MOL0     C48085   7.286   5.337  11.077  0.7039 -0.8781 -0.7073
  349MOL0     C48086   7.327   5.205  11.022 -0.3620 -0.6285  0.3797
  349MOL0     C48087   7.472   5.170  11.029 -1.3518 -0.2966  0.1677
  349MOL0     C48088   7.513   5.182  11.170  0.4266 -0.6025  0.1049
  349MOL0     C48089   7.539   5.178  11.290  0.0100 -0.2640 -0.9096
  349MOL0     C48090   6.895   5.369  10.861  0.5854 -0.1189 -0.3242
  349MOL0     C48091   6.802   5.321  10.774  0.5371  0.4636  0.7477
  349MOL0     C48092   6.654   5.344  10.813 -1.0863 -0.7002  0.2630
  349MOL0     H48093   6.598   5.268  10.289 -0.0180 -0.1222  0.2403
  349MOL0     H48094   6.402   5.155  10.148  0.4232  3.4959 -0.0932
  349MOL0     H48095   6.170   4.802  10.202  0.4359  0.4596  1.6391
  349MOL0     H48096   6.341   4.852  10.203  0.2514  0.2561  2.7783
  349MOL0     H48097   6.298   4.967   9.994 -0.9539  2.3691  0.1085
  349MOL0     H48098   6.206   4.813   9.983 -2.9835 -0.4661  1.8669
  349MOL0     H48099   6.024   4.941   9.918  0.4116  0.8349 -1.1007
  349MOL0     H48100   6.005   4.951  10.091  1.2571 -0.5962  0.2385
  349MOL0     H48101   6.126   5.171  10.083 -1.6258  3.6775 -0.0796
  349MOL0     H48102   6.153   5.145   9.906 -0.8960 -1.4911 -0.2635
  349MOL0     H48103   5.971   5.296   9.962  2.8787  0.0007  1.6829
  349MOL0     H48104   5.875   5.166  10.032 -0.7986  1.0558 -0.4752
  349MOL0     H48105   5.870   5.049   9.818 -0.4980  0.8538  1.9484
  349MOL0     H48106   5.780   5.196   9.825  0.6087  1.9844 -0.8190
  349MOL0     H48107   6.005   5.111   9.673 -1.5035 -0.0224 -1.0773
  349MOL0     H48108   6.051   5.280   9.737  0.5415  0.8732  0.1838
  349MOL0     H48109   5.969   5.243   9.501  3.4468  3.4817  1.4008
  349MOL0     H48110   5.807   5.224   9.574  0.4031 -3.2786  1.6302
  349MOL0     H48111   5.796   5.453   9.782 -0.7032  3.2486  0.9834
  349MOL0     H48112   5.810   5.694   9.851 -0.1456 -3.7083 -1.4340
  349MOL0     H48113   5.810   5.816   9.731 -0.0860 -0.3855  0.9477
  349MOL0     H48114   6.063   5.814   9.707 -0.9720  0.6597 -0.4040
  349MOL0     H48115   5.996   5.869   9.859  0.0626  1.2132 -1.7442
  349MOL0     H48116   6.087   5.696   9.981 -1.9053  0.4242  0.0599
  349MOL0     H48117   6.069   5.577   9.852 -0.4821 -0.1942  1.0097
  349MOL0     H48118   6.303   5.639   9.902 -0.1842  0.7106  0.5781
  349MOL0     H48119   6.260   5.668   9.730  2.0126  1.2485  0.0362
  349MOL0     H48120   6.429   6.061   9.880 -0.5022  1.2005 -1.5307
  349MOL0     H48121   6.768   6.084   9.920  1.4960 -0.4749 -4.1260
  349MOL0     H48122   6.614   6.187   9.916 -0.8910  1.0738 -1.7343
  349MOL0     H48123   6.733   6.197   9.790 -1.4337  3.6571  2.1924
  349MOL0     H48124   7.063   5.886   9.542 -0.4772 -2.6206 -0.1662
  349MOL0     H48125   7.301   5.957   9.526  0.6524  1.4139 -0.0564
  349MOL0     H48126   7.516   6.022   9.554 -1.1483  0.0778 -0.6066
  349MOL0     H48127   7.470   6.139   9.674  0.8803 -0.1888  1.6854
  349MOL0     H48128   7.720   5.963   9.699  1.3205  0.9039  0.6018
  349MOL0     H48129   7.709   6.110   9.608  1.3455 -1.5607  0.1860
  349MOL0     H48130   7.804   6.146   9.819 -0.3505  0.9275 -2.0742
  349MOL0     H48131   7.662   6.096   9.914  0.2842 -0.6143 -0.2592
  349MOL0     H48132   7.541   6.283   9.787  0.3352 -1.4450  1.6433
  349MOL0     H48133   7.689   6.320   9.708  0.6450 -1.0971 -0.8045
  349MOL0     H48134   7.654   6.345  10.025  0.1984  1.7440 -0.5771
  349MOL0     H48135   7.790   6.383   9.927 -0.2624 -2.1401 -2.3434
  349MOL0     H48136   7.519   6.510   9.896 -0.1797 -0.3236 -1.0053
  349MOL0     H48137   7.660   6.551   9.800  3.4483 -1.0720  0.3558
  349MOL0     H48138   7.785   6.633  10.026  0.5499  1.0657  0.9620
  349MOL0     H48139   7.632   6.591  10.102  2.2453  1.9678  3.0337
  349MOL0     H48140   7.633   6.825  10.069 -1.2513 -2.4657  1.9059
  349MOL0     H48141   7.534   6.760   9.924  0.6843 -2.5642 -1.4474
  349MOL0     H48142   7.330   5.874   9.958  2.6498  0.0490 -1.1303
  349MOL0     H48143   7.088   5.820   9.947 -0.3387 -1.5932 -0.5205
  349MOL0     H48144   6.710   5.686   9.715  0.4354  1.0700  0.9693
  349MOL0     H48145   6.483   5.649   9.758  2.3675 -0.6773  0.7787
  349MOL0     H48146   6.287   4.969  10.511  0.5628 -1.2360 -1.3931
  349MOL0     H48147   6.473   5.106  10.642 -0.0575  0.4308 -0.1503
  349MOL0     H48148   7.018   5.186  10.544 -0.7165  1.0208 -0.3754
  349MOL0     H48149   7.191   5.300  10.714 -0.0206  1.6315  0.4814
  349MOL0     H48150   7.132   5.473  11.131 -0.7903 -0.7423  1.2393
  349MOL0     H48151   7.065   5.316  11.084  0.4000 -0.7903 -1.1600
  349MOL0     H48152   7.307   5.323  11.183  3.5744 -3.9191 -1.5062
  349MOL0     H48153   7.361   5.410  11.043  3.0655 -1.4227  2.8018
  349MOL0     H48154   7.269   5.129  11.076 -1.7674 -0.1342 -0.3765
  349MOL0     H48155   7.295   5.203  10.918 -0.6707  0.4085  0.4439
  349MOL0     H48156   7.535   5.230  10.963 -0.6657 -0.4449  0.6828
  349MOL0     H48157   7.488   5.066  10.997 -1.3123 -0.0656 -0.5806
  349MOL0     H48158   7.575   5.176  11.391 -0.3583  2.3448 -0.6617
  349MOL0     H48159   6.859   5.419  10.949 -1.3663 -0.5690 -0.8243
  349MOL0     H48160   6.618   5.241  10.826 -1.7464 -0.4172  0.7263
  349MOL0     H48161   6.636   5.404  10.902 -3.4938 -2.5685  1.1307
  349MOL0     H48162   6.611   5.388  10.723  3.1690 -1.5672 -2.5289
  350MOL0     O48163   0.747   1.029  10.957 -0.0826  0.2383 -0.3493
  350MOL0     C48164   0.698   0.921  10.956  0.3467  0.9896  0.2156
  350MOL0     O48165   0.756   0.807  10.916 -0.2031  0.5005  0.4035
  350MOL0     C48166   0.894   0.822  10.876  0.0104  0.2100 -0.0290
  350MOL0     C48167   0.931   0.893  10.763 -0.1165 -0.3464  0.4605
  350MOL0     C48168   1.067   0.899  10.719 -0.3994  0.4911 -0.2122
  350MOL0     C48169   1.173   0.837  10.792  1.0388  0.1260 -0.3220
  350MOL0     O48170   1.298   0.864  10.749 -0.5411  0.4265  0.0297
  350MOL0     C48171   1.411   0.796  10.807  0.4473  0.0543 -0.0066
  350MOL0     C48172   1.539   0.832  10.740 -0.9985 -0.0210  1.2658
  350MOL0     C48173   1.597   0.968  10.782 -0.5259  0.3413 -0.7710
  350MOL0     C48174   1.727   0.993  10.711 -0.0342 -0.6168 -0.8716
  350MOL0     C48175   1.788   1.132  10.745 -0.2544  0.0211 -0.3532
  350MOL0     C48176   1.936   1.144  10.712  0.5031  0.0664  0.1197
  350MOL0     C48177   2.027   1.068  10.808 -0.2405  0.4591  0.1254
  350MOL0     C48178   2.171   1.120  10.786 -0.9277 -0.0222  1.1259
  350MOL0     N48179   2.261   1.062  10.880 -0.6541  0.8222 -0.2992
  350MOL0     C48180   2.300   1.130  10.993 -0.5164  0.2534 -0.5973
  350MOL0     C48181   2.351   1.035  11.073  0.7219  0.8394 -0.3990
  350MOL0     C48182   2.429   1.056  11.201  0.1340  0.4945  0.2994
  350MOL0     C48183   2.566   1.006  11.172 -0.7466 -0.7872 -0.1716
  350MOL0     C48184   2.668   1.032  11.289  0.1872  0.2158  0.5788
  350MOL0     C48185   2.633   0.955  11.416 -0.5710 -0.5958  0.7114
  350MOL0     O48186   2.656   0.815  11.421  0.4967  0.3740  0.5441
  350MOL0     C48187   2.786   0.782  11.455 -0.0653 -0.1294  0.4706
  350MOL0     C48188   2.894   0.798  11.357  0.5979 -0.3730 -0.7271
  350MOL0     C48189   3.027   0.764  11.387 -0.2020 -0.0558  0.4502
  350MOL0     C48190   3.121   0.799  11.270 -0.5803  0.0068 -0.6263
  350MOL0     C48191   3.055   0.711  11.518 -0.4265  0.8871 -0.8781
  350MOL0     C48192   3.191   0.676  11.561  0.3294 -0.3187  0.9331
  350MOL0     O48193   3.218   0.681  11.694  0.8018  0.0359 -0.2570
  350MOL0     C48194   3.335   0.629  11.734 -0.2172 -0.4452  0.5113
  350MOL0     C48195   3.386   0.500  11.713  0.4232 -0.3495  0.6687
  350MOL0     C48196   3.504   0.451  11.777 -1.0446  0.6361 -0.1238
  350MOL0     C48197   3.566   0.532  11.870 -0.0147 -0.9174  0.2906
  350MOL0     O48198   3.680   0.497  11.934 -0.3044 -0.0393  0.3936
  350MOL0     C48199   3.678   0.528  12.077 -0.5956 -0.6555  0.1624
  350MOL0     C48200   3.814   0.502  12.138 -0.3151 -0.1963 -1.2096
  350MOL0     C48201   3.826   0.580  12.274  0.2731  0.0233 -0.6297
  350MOL0     C48202   3.961   0.654  12.294  0.4759 -0.1161 -0.0140
  350MOL0     C48203   3.970   0.734  12.423  1.6188 -0.1545 -0.3064
  350MOL0     C48204   4.120   0.759  12.455 -0.6181 -0.4432  0.4477
  350MOL0     C48205   4.145   0.854  12.574  0.3982  1.2899 -0.0175
  350MOL0     C48206   4.269   0.833  12.659 -0.5044  0.2949  0.2013
  350MOL0    Cl48207   4.416   0.915  12.606 -0.0990  0.3177 -0.4586
  350MOL0     C48208   3.514   0.659  11.882 -0.1545 -0.9131 -0.0810
  350MOL0     C48209   3.401   0.708  11.828  1.3104  0.1878  0.4984
  350MOL0     O48210   3.265   0.633  11.472 -0.1276 -0.2114 -0.0585
  350MOL0     C48211   2.943   0.683  11.606 -0.2684  0.7201  0.4913
  350MOL0     C48212   2.815   0.719  11.572  1.3260  0.2987 -0.1315
  350MOL0     N48213   2.346   0.917  11.009 -0.1259  0.5931  0.3707
  350MOL0     N48214   2.291   0.931  10.897  0.3031 -0.9142  1.3574
  350MOL0     C48215   1.133   0.769  10.907  0.1006 -0.2609 -0.1315
  350MOL0     C48216   1.001   0.759  10.948  0.6689 -0.0789 -0.1724
  350MOL0     C48217   0.555   0.910  10.992  0.0742 -0.5346 -1.1271
  350MOL0     C48218   0.484   0.800  10.958  0.7457  0.6550  0.5148
  350MOL0     C48219   0.343   0.789  10.983 -1.4378  0.2803 -0.3144
  350MOL0     C48220   0.282   0.876  11.076  0.8681 -0.2374  0.6725
  350MOL0     O48221   0.154   0.846  11.120 -0.0342 -0.0607 -1.3775
  350MOL0     C48222   0.089   0.940  11.213 -0.3247 -0.2050  0.0274
  350MOL0     C48223  -0.028   0.878  11.281  0.8544  0.2848  0.0307
  350MOL0     C48224  -0.132   0.833  11.178  0.3195  0.5654  0.6983
  350MOL0     C48225  -0.269   0.803  11.243  0.0492  0.7386 -0.2697
  350MOL0     C48226  -0.319   0.928  11.296  0.1164  1.2996  0.4612
  350MOL0     C48227  -0.358   1.039  11.319 -0.0021  0.3870 -0.0044
  350MOL0     C48228   0.351   0.993  11.109  0.5141 -0.3859 -0.1577
  350MOL0     C48229   0.490   1.005  11.072  0.1904  0.9553 -0.0079
  350MOL0     C48230   0.557   1.130  11.113 -0.8544  0.0010 -0.3828
  350MOL0     H48231   0.861   0.943  10.697  2.0672  2.4563  0.0935
  350MOL0     H48232   1.084   0.951  10.626  1.4266  0.6883  0.1795
  350MOL0     H48233   1.397   0.688  10.798  2.0519 -0.5577  3.3653
  350MOL0     H48234   1.418   0.816  10.914  0.0836  2.5924 -0.3891
  350MOL0     H48235   1.607   0.751  10.767 -1.8679 -0.9654  0.6791
  350MOL0     H48236   1.519   0.845  10.633  0.9106 -2.9329  0.4357
  350MOL0     H48237   1.528   1.051  10.767 -0.2063  1.1258  1.7012
  350MOL0     H48238   1.615   0.964  10.890  1.8560 -0.9404 -1.1431
  350MOL0     H48239   1.799   0.916  10.737  1.5730  1.1997  0.2559
  350MOL0     H48240   1.713   0.991  10.602  0.4926  0.6159 -0.9748
  350MOL0     H48241   1.771   1.146  10.852  4.0491  1.1535  0.3728
  350MOL0     H48242   1.735   1.212  10.692  1.8354  1.6836 -0.0681
  350MOL0     H48243   1.953   1.105  10.612 -0.8646 -0.5192  0.0896
  350MOL0     H48244   1.948   1.253  10.708 -1.2835  0.2826 -3.7772
  350MOL0     H48245   2.018   0.960  10.795  3.3029 -0.0828  1.2036
  350MOL0     H48246   1.996   1.088  10.910 -1.5076  0.5083 -0.2488
  350MOL0     H48247   2.207   1.108  10.683 -1.6159  1.0821  0.7450
  350MOL0     H48248   2.174   1.229  10.798 -1.9804  0.1446  0.0924
  350MOL0     H48249   2.279   1.235  11.014  0.7883  0.3000  0.6043
  350MOL0     H48250   2.398   0.989  11.282  2.5526 -1.1595 -0.0420
  350MOL0     H48251   2.427   1.162  11.229 -1.2635  0.3798  0.7034
  350MOL0     H48252   2.561   0.898  11.154 -0.7566 -1.1443  1.7669
  350MOL0     H48253   2.606   1.065  11.089 -0.9834 -0.1594  0.1512
  350MOL0     H48254   2.771   1.021  11.254  0.6734  0.9746  1.7059
  350MOL0     H48255   2.664   1.138  11.315 -2.0370 -0.3091  2.6860
  350MOL0     H48256   2.688   0.998  11.500 -0.8681  0.5067  0.3542
  350MOL0     H48257   2.528   0.969  11.443 -0.8444 -2.8745  1.0052
  350MOL0     H48258   2.868   0.839  11.260 -0.0180  0.8621 -0.0590
  350MOL0     H48259   3.113   0.901  11.230  4.2176  0.5235 -0.8549
  350MOL0     H48260   3.096   0.737  11.183  0.2956  0.3912 -1.1639
  350MOL0     H48261   3.228   0.785  11.281 -0.3788  1.3033 -0.8049
  350MOL0     H48262   3.348   0.427  11.642  1.0896 -0.2059  0.1533
  350MOL0     H48263   3.550   0.353  11.772 -1.2555  0.5564 -0.4962
  350MOL0     H48264   3.665   0.637  12.085  3.0509 -0.2299  3.9912
  350MOL0     H48265   3.604   0.474  12.137 -1.3303 -1.4495 -1.4155
  350MOL0     H48266   3.819   0.397  12.167 -1.0379  0.5667  2.1797
  350MOL0     H48267   3.902   0.530  12.079  2.2924 -0.7318  2.1235
  350MOL0     H48268   3.811   0.511  12.358  3.3528 -1.4552 -1.1809
  350MOL0     H48269   3.743   0.649  12.292 -0.6269 -1.2446  0.2384
  350MOL0     H48270   3.979   0.729  12.216 -2.1672  3.2195  2.2818
  350MOL0     H48271   4.043   0.583  12.284  1.2830  0.7688  0.1529
  350MOL0     H48272   3.920   0.830  12.405  1.6441  0.0722  0.7312
  350MOL0     H48273   3.928   0.676  12.506  3.2061 -0.4859  0.3232
  350MOL0     H48274   4.165   0.810  12.369 -3.0381 -0.8523 -1.1414
  350MOL0     H48275   4.172   0.663  12.463  0.6800  0.3191  1.5416
  350MOL0     H48276   4.063   0.831  12.644 -0.3776  0.8631 -1.0476
  350MOL0     H48277   4.141   0.962  12.554  1.4691  1.8871  2.5268
  350MOL0     H48278   4.290   0.726  12.666 -1.0835  0.2587  1.7582
  350MOL0     H48279   4.249   0.869  12.760 -1.0836 -3.0082  1.4101
  350MOL0     H48280   3.562   0.735  11.943 -2.8293  0.8764 -0.0463
  350MOL0     H48281   3.368   0.810  11.845 -0.4921 -0.0933 -0.9767
  350MOL0     H48282   2.952   0.632  11.701  1.1665  1.5774  0.8534
  350MOL0     H48283   2.736   0.693  11.642  1.4931 -1.1061 -0.4330
  350MOL0     H48284   1.209   0.708  10.956 -1.9361 -1.9087  1.1554
  350MOL0     H48285   0.982   0.702  11.039  2.0147  0.7643  0.6691
  350MOL0     H48286   0.519   0.718  10.897 -1.6910 -1.2585  1.5219
  350MOL0     H48287   0.287   0.704  10.944  0.2528 -0.7898 -0.5446
  350MOL0     H48288   0.159   0.970  11.291  1.3905 -1.4678 -0.9639
  350MOL0     H48289   0.057   1.030  11.161  2.7741  1.1442  0.2575
  350MOL0     H48290  -0.075   0.943  11.355 -0.8362  1.8371 -2.2893
  350MOL0     H48291   0.004   0.784  11.329 -0.4710 -1.7602 -2.8146
  350MOL0     H48292  -0.150   0.909  11.101 -4.1555 -0.9799 -0.1213
  350MOL0     H48293  -0.097   0.742  11.128  1.3301  1.4052 -0.1710
  350MOL0     H48294  -0.256   0.739  11.331  0.6554  2.7035  1.1438
  350MOL0     H48295  -0.336   0.759  11.170 -1.2602 -2.0826  2.3993
  350MOL0     H48296  -0.380   1.142  11.341  2.3155  1.2225 -1.2463
  350MOL0     H48297   0.294   1.059  11.174 -0.4024 -0.3938 -0.9340
  350MOL0     H48298   0.492   1.197  11.171 -1.5720 -1.8437  1.0450
  350MOL0     H48299   0.651   1.118  11.167  0.2991  2.1156 -1.7414
  350MOL0     H48300   0.584   1.198  11.031  2.0430  0.0844  0.5433
  351MOL0     O48301   7.996   2.507   0.860 -0.4819  0.4062  0.0185
  351MOL0     C48302   7.925   2.407   0.868  0.1505  0.2515 -0.7231
  351MOL0     O48303   7.934   2.314   0.963  0.4246  0.3029 -0.0893
  351MOL0     C48304   8.041   2.297   1.043 -0.8867  0.7034  1.2364
  351MOL0     C48305   8.020   2.218   1.157  0.1058 -0.3233 -0.8843
  351MOL0     C48306   8.123   2.204   1.245 -0.1718  0.8685 -0.6670
  351MOL0     C48307   8.262   2.240   1.213  0.4433 -0.3572  0.1581
  351MOL0     O48308   8.356   2.200   1.298  0.3582 -0.0648 -0.3029
  351MOL0     C48309   8.488   2.200   1.244 -0.2142  0.3719 -0.0975
  351MOL0     C48310   8.601   2.139   1.340 -0.0401  0.6509 -0.8242
  351MOL0     C48311   8.614   2.192   1.484  0.7220  0.3451  0.3481
  351MOL0     C48312   8.721   2.114   1.555  0.1616 -0.5349 -1.3618
  351MOL0     C48313   8.720   2.158   1.703 -0.4052  0.3209 -0.2155
  351MOL0     C48314   8.829   2.094   1.791 -0.0036  0.4832 -0.6446
  351MOL0     C48315   8.905   2.193   1.875 -0.6293  1.0497 -0.3010
  351MOL0     C48316   9.003   2.127   1.976 -0.0457  0.2225  0.3979
  351MOL0     N48317   9.094   2.219   2.032 -0.8659 -0.3866 -0.1488
  351MOL0     C48318   9.069   2.286   2.148 -0.2022 -0.6604 -0.1220
  351MOL0     C48319   9.179   2.357   2.180  0.3340  0.1244 -0.1962
  351MOL0     C48320   9.183   2.476   2.275 -0.5164  0.0140 -0.0144
  351MOL0     C48321   9.338   2.505   2.316  0.3053  0.3196  0.2326
  351MOL0     C48322   9.364   2.448   2.456 -1.0334 -0.1862  0.1263
  351MOL0     C48323   9.519   2.441   2.497  0.3184 -0.3062 -0.1993
  351MOL0     O48324   9.563   2.574   2.473  0.0791 -0.1948  0.8198
  351MOL0     C48325   9.696   2.617   2.473  0.0799  0.0534 -0.3995
  351MOL0     C48326   9.725   2.752   2.474  1.4522  0.7730  0.4237
  351MOL0     C48327   9.846   2.801   2.521  0.7561  0.1249 -1.0364
  351MOL0     C48328   9.845   2.945   2.577  0.3243  0.1638  0.2957
  351MOL0     C48329   9.946   2.704   2.544 -0.2659  0.1002  0.1900
  351MOL0     C48330  10.080   2.744   2.611 -0.0925  0.4724  0.0892
  351MOL0     O48331  10.121   2.869   2.611 -0.9876  0.2999  0.0744
  351MOL0     C48332  10.226   2.907   2.693 -0.0300 -0.7051 -0.1976
  351MOL0     C48333  10.190   2.980   2.806 -0.1121 -0.7418  0.1061
  351MOL0     C48334  10.292   3.030   2.894  0.0629  0.3153  0.1302
  351MOL0     C48335  10.425   2.996   2.882  0.7478 -0.0790 -0.4774
  351MOL0     O48336  10.526   3.047   2.965  0.7207 -0.2605  0.2675
  351MOL0     C48337  10.522   3.022   3.105  0.0272  0.0892  0.0098
  351MOL0     C48338  10.638   3.111   3.162  0.9723 -0.4327  0.2628
  351MOL0     C48339  10.765   3.071   3.087 -0.2712 -0.3292 -0.1856
  351MOL0     C48340  10.888   3.167   3.128 -0.2394  0.3373 -0.3611
  351MOL0     C48341  11.008   3.099   3.059 -0.5045 -0.1424 -0.4649
  351MOL0     C48342  11.141   3.173   3.094  0.1686 -0.6266  0.1982
  351MOL0     C48343  11.173   3.153   3.247 -1.2232  1.1026  1.0737
  351MOL0     C48344  11.300   3.233   3.268  1.0538  1.6299  0.0238
  351MOL0    Cl48345  11.349   3.219   3.437  0.2513 -0.0001 -0.3436
  351MOL0     C48346  10.457   2.905   2.786  0.0382 -0.6936  0.2803
  351MOL0     C48347  10.359   2.856   2.693 -0.3306 -0.2094 -0.1118
  351MOL0     O48348  10.144   2.655   2.671  0.0804 -0.7117  0.0956
  351MOL0     C48349   9.926   2.573   2.517  0.1269  0.2870 -0.3619
  351MOL0     C48350   9.801   2.528   2.483 -0.2752 -1.3256  0.2879
  351MOL0     N48351   9.278   2.310   2.089  0.4020  1.0903  0.8283
  351MOL0     N48352   9.227   2.230   2.000 -0.8433  0.4880  0.1128
  351MOL0     C48353   8.286   2.313   1.093  0.1684 -0.7011  0.7077
  351MOL0     C48354   8.173   2.344   1.016  1.0789 -0.5346  0.3865
  351MOL0     C48355   7.810   2.387   0.773  0.5115  0.5541  0.4635
  351MOL0     C48356   7.824   2.447   0.650 -0.6695 -0.2662  0.4128
  351MOL0     C48357   7.725   2.430   0.553 -0.3294  0.1572  0.3076
  351MOL0     C48358   7.617   2.344   0.576  0.3026 -0.2228 -0.2636
  351MOL0     O48359   7.525   2.312   0.483  0.0235  0.2646  0.5271
  351MOL0     C48360   7.529   2.350   0.348 -0.6139 -0.4318 -0.1416
  351MOL0     C48361   7.434   2.275   0.264 -0.6879 -0.2426 -0.1966
  351MOL0     C48362   7.297   2.248   0.339 -0.2248 -0.1402  0.2448
  351MOL0     C48363   7.214   2.384   0.351 -0.3195 -0.3378 -0.0143
  351MOL0     C48364   7.084   2.377   0.419 -0.1512 -0.3429  0.1932
  351MOL0     C48365   6.979   2.370   0.475  0.3897  0.3360  0.4843
  351MOL0     C48366   7.607   2.283   0.697  0.1627  0.2950 -0.1426
  351MOL0     C48367   7.697   2.308   0.797  0.4499  0.4345  0.2184
  351MOL0     C48368   7.668   2.243   0.928 -0.2630  0.2385  0.5647
  351MOL0     H48369   7.916   2.187   1.166  0.6303 -1.7123  0.7876
  351MOL0     H48370   8.100   2.154   1.339  0.8125 -1.4334 -1.5580
  351MOL0     H48371   8.519   2.305   1.233  1.7565 -0.2183 -0.6421
  351MOL0     H48372   8.507   2.144   1.152  1.1942 -1.2070  1.0875
  351MOL0     H48373   8.586   2.030   1.345  0.6800  0.6050  1.0008
  351MOL0     H48374   8.695   2.169   1.294 -0.8467  3.4569 -0.8194
  351MOL0     H48375   8.631   2.300   1.485  0.5497  0.3781 -0.2328
  351MOL0     H48376   8.517   2.171   1.532  0.4609 -4.2030 -1.7035
  351MOL0     H48377   8.707   2.006   1.548 -3.2456 -0.2891 -0.0345
  351MOL0     H48378   8.815   2.135   1.502  2.5662 -5.6460  0.2833
  351MOL0     H48379   8.621   2.131   1.741 -0.6423 -1.2052 -1.8151
  351MOL0     H48380   8.733   2.266   1.716  1.7542 -0.1183  2.1567
  351MOL0     H48381   8.780   2.021   1.856 -3.1882  3.5727  0.7445
  351MOL0     H48382   8.898   2.048   1.720  0.4027 -0.4888  0.3443
  351MOL0     H48383   8.831   2.249   1.934  2.3421  3.1936  1.6867
  351MOL0     H48384   8.959   2.266   1.815 -0.0816  1.2198  0.3797
  351MOL0     H48385   8.950   2.061   2.045 -1.8780  1.4900  0.2810
  351MOL0     H48386   9.057   2.054   1.915 -0.9039 -2.2930  2.4318
  351MOL0     H48387   8.969   2.293   2.191 -0.6034  1.1673 -1.2223
  351MOL0     H48388   9.125   2.449   2.364 -1.2384  0.5142 -0.3273
  351MOL0     H48389   9.133   2.553   2.216 -0.4578  1.1739  1.3929
  351MOL0     H48390   9.410   2.464   2.245 -1.3908 -0.2690 -1.2160
  351MOL0     H48391   9.358   2.613   2.312  0.7723  0.2612  0.8435
  351MOL0     H48392   9.300   2.507   2.521 -0.7034  0.9555 -0.5636
  351MOL0     H48393   9.337   2.344   2.479  0.4950 -0.7274 -0.3728
  351MOL0     H48394   9.536   2.415   2.602  2.5978  2.9579  0.3715
  351MOL0     H48395   9.572   2.367   2.436 -0.6725 -0.5727 -0.7635
  351MOL0     H48396   9.639   2.818   2.476 -1.1569 -2.2815 -1.4189
  351MOL0     H48397   9.764   3.018   2.563  1.8805  1.6994 -1.0935
  351MOL0     H48398   9.923   2.994   2.518  0.3795 -0.5268 -0.2131
  351MOL0     H48399   9.866   2.936   2.684  3.4012  1.8231 -0.0732
  351MOL0     H48400  10.091   3.018   2.785  0.4041  0.4890 -0.2203
  351MOL0     H48401  10.266   3.102   2.971 -1.4532 -1.6996  1.6068
  351MOL0     H48402  10.429   3.068   3.139 -0.6939  1.6515 -3.6361
  351MOL0     H48403  10.546   2.924   3.147 -0.5173  1.0703  2.7770
  351MOL0     H48404  10.615   3.212   3.126  1.7511 -0.9893 -1.9882
  351MOL0     H48405  10.644   3.104   3.271 -0.5348 -3.0629  0.2438
  351MOL0     H48406  10.757   3.081   2.978  2.4764  1.6171 -0.2983
  351MOL0     H48407  10.791   2.966   3.105 -1.0674 -0.2079  1.8756
  351MOL0     H48408  10.899   3.167   3.237  1.2240  0.1023 -0.4824
  351MOL0     H48409  10.875   3.265   3.081  1.1746 -0.7170 -3.1755
  351MOL0     H48410  11.039   3.001   3.097  1.2701  0.2828 -0.7050
  351MOL0     H48411  10.992   3.094   2.951 -0.4426 -1.3468 -0.4403
  351MOL0     H48412  11.112   3.279   3.083  1.9337  0.0676  1.7913
  351MOL0     H48413  11.229   3.151   3.033  0.0839  0.9192 -0.5447
  351MOL0     H48414  11.184   3.047   3.272 -1.7303  0.2936 -1.7838
  351MOL0     H48415  11.092   3.199   3.304 -3.2635  1.5368 -1.9471
  351MOL0     H48416  11.278   3.336   3.238 -4.1366  0.7645 -0.1476
  351MOL0     H48417  11.376   3.187   3.205  1.5725 -0.2294  1.8883
  351MOL0     H48418  10.554   2.858   2.789  0.2545 -0.2628  0.1035
  351MOL0     H48419  10.377   2.773   2.626  3.3525  2.8899 -3.5222
  351MOL0     H48420  10.009   2.505   2.532 -0.2635 -0.0392  0.3582
  351MOL0     H48421   9.793   2.420   2.478  0.3824 -1.3128 -2.9946
  351MOL0     H48422   8.384   2.351   1.067 -0.7474  1.7571  0.5753
  351MOL0     H48423   8.200   2.406   0.931  1.2247 -0.3057  0.5983
  351MOL0     H48424   7.909   2.503   0.613  0.2679 -2.5921 -1.1667
  351MOL0     H48425   7.739   2.484   0.459  2.2604 -2.5631 -1.0334
  351MOL0     H48426   7.508   2.457   0.344 -0.3395 -0.2160  2.4960
  351MOL0     H48427   7.630   2.338   0.306 -0.2760 -2.2713  1.0715
  351MOL0     H48428   7.470   2.186   0.212 -0.3078  0.2632 -0.8122
  351MOL0     H48429   7.431   2.326   0.167  3.7581  0.1502 -0.3049
  351MOL0     H48430   7.251   2.174   0.273  2.0153 -1.8844  0.4900
  351MOL0     H48431   7.324   2.201   0.434  0.5033 -2.3948 -1.0037
  351MOL0     H48432   7.201   2.424   0.250  1.5126  0.3195 -0.0186
  351MOL0     H48433   7.282   2.451   0.404 -0.4032  1.1962 -1.7434
  351MOL0     H48434   6.894   2.366   0.539 -0.3309  1.6317 -0.3375
  351MOL0     H48435   7.528   2.214   0.724  3.1838 -2.0722  3.7506
  351MOL0     H48436   7.706   2.299   1.013  1.3678  0.0159  0.0080
  351MOL0     H48437   7.564   2.214   0.950 -0.4100 -2.0717 -2.3846
  351MOL0     H48438   7.729   2.152   0.922 -0.2272  0.3400 -2.3361
  352MOL0     O48439  10.942   2.290   2.895 -0.2568 -0.1968 -0.1990
  352MOL0     C48440  11.006   2.194   2.856  0.5843 -0.4033  1.0049
  352MOL0     O48441  11.140   2.183   2.869  0.0109  0.5403  0.3509
  352MOL0     C48442  11.220   2.289   2.886  0.4905  0.2031  0.8984
  352MOL0     C48443  11.203   2.400   2.797  0.9111 -0.0432  0.0114
  352MOL0     C48444  11.263   2.519   2.835 -1.3156 -0.0226 -0.2816
  352MOL0     C48445  11.348   2.528   2.947 -0.4189 -0.0820  0.4782
  352MOL0     O48446  11.413   2.643   2.974  0.1102 -0.3418  0.2484
  352MOL0     C48447  11.346   2.743   3.062 -0.0915 -0.2199  0.6990
  352MOL0     C48448  11.435   2.770   3.177 -0.1894  0.4229 -0.8641
  352MOL0     C48449  11.550   2.866   3.140 -0.8797  0.6514 -0.5514
  352MOL0     C48450  11.625   2.835   3.011 -0.3243 -0.5164  0.0605
  352MOL0     C48451  11.749   2.915   2.990  0.2258 -0.3224  0.3533
  352MOL0     C48452  11.854   2.907   3.102 -0.3277  0.3161  0.0246
  352MOL0     C48453  11.993   2.930   3.051 -0.0870  0.2610  0.5421
  352MOL0     C48454  12.052   3.084   3.044 -0.0407 -0.6176 -0.2459
  352MOL0     N48455  12.067   3.147   3.175  0.2608  0.4336  0.2406
  352MOL0     C48456  12.163   3.114   3.271  0.5356  0.2695  0.7307
  352MOL0     C48457  12.156   3.210   3.363 -0.3978 -0.0497 -0.2851
  352MOL0     C48458  12.231   3.198   3.495  0.2130 -0.4750 -0.0195
  352MOL0     C48459  12.389   3.176   3.461  0.5587 -0.0914  0.0538
  352MOL0     C48460  12.460   3.280   3.373 -0.4500 -0.7460 -1.2632
  352MOL0     C48461  12.612   3.276   3.380  0.0396  0.1932 -0.4025
  352MOL0     O48462  12.641   3.150   3.324 -0.2892  0.6167 -0.2373
  352MOL0     C48463  12.769   3.106   3.324  0.1910 -0.3900 -0.0449
  352MOL0     C48464  12.804   2.982   3.277 -0.2173  0.7536 -0.5369
  352MOL0     C48465  12.940   2.945   3.270 -0.3515  0.8237 -0.2360
  352MOL0     C48466  12.960   2.808   3.222 -0.0526  0.9036 -0.1165
  352MOL0     C48467  13.046   3.033   3.317  0.0619 -0.1766  0.8273
  352MOL0     C48468  13.193   3.004   3.309 -0.0136  0.6245  0.0910
  352MOL0     O48469  13.287   3.104   3.329 -0.0221 -0.5712 -0.1696
  352MOL0     C48470  13.420   3.066   3.344 -0.9076 -0.1661 -0.5076
  352MOL0     C48471  13.488   2.985   3.252  0.6467  0.0119 -0.3497
  352MOL0     C48472  13.625   2.948   3.260 -0.4674  0.9242  0.4785
  352MOL0     C48473  13.704   3.006   3.361 -0.5323 -0.0009 -0.0824
  352MOL0     O48474  13.835   2.968   3.387  0.5231 -0.5655 -1.3101
  352MOL0     C48475  13.937   3.001   3.286  0.8797  0.1236  0.0840
  352MOL0     C48476  13.983   3.148   3.312 -0.3715  1.1464 -0.3798
  352MOL0     C48477  14.071   3.148   3.431 -0.4697  0.8633  0.6871
  352MOL0     C48478  14.121   3.288   3.469 -0.5203 -0.3172  1.1628
  352MOL0     C48479  14.242   3.291   3.554 -0.3045  0.1931 -0.5307
  352MOL0     C48480  14.278   3.437   3.592 -0.0715  1.2182 -0.7052
  352MOL0     C48481  14.383   3.432   3.705 -0.1209 -0.3633  0.5249
  352MOL0     C48482  14.523   3.408   3.650  0.8561 -0.0313 -0.1640
  352MOL0    Cl48483  14.650   3.446   3.777  0.2541  0.4762 -0.1503
  352MOL0     C48484  13.635   3.089   3.451 -0.8720  0.0886 -0.0302
  352MOL0     C48485  13.496   3.118   3.443 -0.7700 -1.1428 -0.1617
  352MOL0     O48486  13.215   2.885   3.306  0.1067  0.6592 -0.0068
  352MOL0     C48487  13.003   3.158   3.366  0.7509 -0.1920  0.8234
  352MOL0     C48488  12.870   3.199   3.360  0.7918  0.5745 -1.1674
  352MOL0     N48489  12.063   3.300   3.322 -0.4354 -0.3299 -0.1463
  352MOL0     N48490  12.008   3.263   3.210  0.0421  0.0720 -0.0500
  352MOL0     C48491  11.362   2.412   3.032 -0.0950 -0.1914  0.2415
  352MOL0     C48492  11.295   2.293   3.005 -0.2418 -0.7621 -0.4111
  352MOL0     C48493  10.933   2.080   2.795 -0.0843 -0.6749 -0.8121
  352MOL0     C48494  11.003   1.996   2.704  0.0445 -0.5129 -1.0928
  352MOL0     C48495  10.936   1.883   2.655  0.1940  0.1447 -0.1020
  352MOL0     C48496  10.806   1.852   2.689 -0.2946 -0.0338 -0.4550
  352MOL0     O48497  10.739   1.745   2.647  0.4086  0.7126  0.9453
  352MOL0     C48498  10.782   1.668   2.528 -0.4525  0.7911  0.7517
  352MOL0     C48499  10.660   1.580   2.490 -0.6287  0.9630  0.5659
  352MOL0     C48500  10.641   1.478   2.592 -0.3835 -0.8589 -0.2054
  352MOL0     C48501  10.575   1.347   2.539 -0.0660 -0.0456 -0.0369
  352MOL0     C48502  10.445   1.376   2.472 -0.0563  0.2240 -0.6657
  352MOL0     C48503  10.354   1.407   2.397 -0.2122  0.0829 -0.4098
  352MOL0     C48504  10.734   1.928   2.782 -0.4539 -1.4950 -0.3424
  352MOL0     C48505  10.800   2.046   2.829 -0.2318  0.0267  0.2728
  352MOL0     C48506  10.716   2.119   2.926 -0.4350  0.4555 -0.8714
  352MOL0     H48507  11.149   2.393   2.703 -2.2877  0.9924  1.6649
  352MOL0     H48508  11.247   2.606   2.772 -1.1773 -0.0195 -0.3134
  352MOL0     H48509  11.255   2.696   3.101  1.0501 -1.4171  2.0811
  352MOL0     H48510  11.320   2.833   3.006 -0.8314 -1.7952 -1.6423
  352MOL0     H48511  11.379   2.818   3.257 -2.3554 -2.1700 -0.6929
  352MOL0     H48512  11.476   2.678   3.220 -0.3730 -0.5020 -2.5570
  352MOL0     H48513  11.514   2.969   3.132  0.5763  1.3920  1.4069
  352MOL0     H48514  11.616   2.880   3.227 -1.7774  0.4398  0.1778
  352MOL0     H48515  11.665   2.733   3.004  1.9394  0.2241  1.2268
  352MOL0     H48516  11.570   2.855   2.918  1.1068 -0.5347 -0.8233
  352MOL0     H48517  11.711   3.018   2.992 -0.8563 -0.6759 -0.6187
  352MOL0     H48518  11.797   2.892   2.895  0.7077  1.9873 -0.0236
  352MOL0     H48519  11.817   2.976   3.179 -1.0728 -1.0051  0.8820
  352MOL0     H48520  11.855   2.803   3.136 -0.6956  0.3133  0.0334
  352MOL0     H48521  12.004   2.893   2.948  0.2922  0.3994  0.5325
  352MOL0     H48522  12.061   2.875   3.117 -1.1752  1.3589  2.6634
  352MOL0     H48523  12.147   3.084   2.990 -0.2325  1.1726 -0.6281
  352MOL0     H48524  11.981   3.135   2.979  2.4987  0.9074 -1.9962
  352MOL0     H48525  12.241   3.039   3.273  1.3559  0.7339 -3.6862
  352MOL0     H48526  12.195   3.114   3.555  0.0927  0.8214  1.8039
  352MOL0     H48527  12.230   3.292   3.551 -1.6203 -0.2233 -0.4345
  352MOL0     H48528  12.443   3.172   3.556  0.3656 -0.0114  0.1680
  352MOL0     H48529  12.403   3.075   3.420 -0.9318 -0.6450  0.8593
  352MOL0     H48530  12.426   3.274   3.269 -0.5560 -0.1931 -1.2676
  352MOL0     H48531  12.427   3.378   3.409  1.1146 -0.8024  0.4608
  352MOL0     H48532  12.654   3.357   3.320 -4.4128  3.9740  0.9886
  352MOL0     H48533  12.645   3.297   3.482  2.0323  1.1594 -1.1931
  352MOL0     H48534  12.718   2.920   3.253  0.9747 -0.2719 -2.3146
  352MOL0     H48535  13.047   2.806   3.155  0.6856 -0.4830  0.8409
  352MOL0     H48536  12.871   2.764   3.175 -0.0449  0.2379  0.4830
  352MOL0     H48537  12.986   2.740   3.303 -2.4043 -1.3163 -1.0786
  352MOL0     H48538  13.432   2.933   3.174  0.6423 -0.8865  0.2412
  352MOL0     H48539  13.673   2.870   3.202  0.2256  0.9398  1.0182
  352MOL0     H48540  14.017   2.926   3.292 -0.7368 -1.6564  0.2156
  352MOL0     H48541  13.899   2.994   3.184 -0.2100 -1.7971  0.5689
  352MOL0     H48542  14.037   3.190   3.227  0.1537  0.9574 -0.1401
  352MOL0     H48543  13.903   3.221   3.333 -0.0753  1.3606  0.0118
  352MOL0     H48544  14.158   3.084   3.415  0.6883  2.6305 -0.4173
  352MOL0     H48545  14.004   3.118   3.512 -2.7150  1.0740 -0.9920
  352MOL0     H48546  14.041   3.352   3.505 -1.6828  0.5345 -2.5163
  352MOL0     H48547  14.148   3.327   3.370 -1.7560 -0.2214  0.8533
  352MOL0     H48548  14.226   3.234   3.646 -0.3549 -0.4253 -0.9189
  352MOL0     H48549  14.327   3.244   3.503  0.1006 -1.3738  1.4546
  352MOL0     H48550  14.182   3.475   3.628 -0.1880 -1.5916  2.4125
  352MOL0     H48551  14.315   3.493   3.505 -0.3600  1.4945 -0.6514
  352MOL0     H48552  14.359   3.352   3.775  2.2320  0.4168  2.3493
  352MOL0     H48553  14.379   3.515   3.776 -1.6182 -0.7307  0.8988
  352MOL0     H48554  14.545   3.467   3.561 -0.2646 -0.2293 -0.5972
  352MOL0     H48555  14.541   3.303   3.626 -0.2213 -0.4306  0.6891
  352MOL0     H48556  13.681   3.123   3.543  0.7955 -0.3294 -0.6770
  352MOL0     H48557  13.451   3.192   3.507 -1.5437 -0.4727 -1.4420
  352MOL0     H48558  13.071   3.236   3.399 -0.4665  0.8599  0.9169
  352MOL0     H48559  12.866   3.303   3.390  1.0558  0.1536  0.3749
  352MOL0     H48560  11.418   2.420   3.125  0.7677  3.2468 -0.4264
  352MOL0     H48561  11.308   2.213   3.078  0.1658 -0.5609 -0.2604
  352MOL0     H48562  11.109   2.012   2.688 -0.1834  1.4765 -0.8064
  352MOL0     H48563  11.001   1.818   2.596 -0.0703 -1.1173  0.9575
  352MOL0     H48564  10.804   1.727   2.438 -1.8561 -0.9285 -0.8074
  352MOL0     H48565  10.877   1.617   2.547 -0.8625 -2.2275 -3.8085
  352MOL0     H48566  10.678   1.533   2.393 -1.1034 -1.6972  1.6811
  352MOL0     H48567  10.572   1.644   2.501 -0.4498  1.3009  0.0671
  352MOL0     H48568  10.742   1.456   2.627  0.8658 -0.4344 -3.2742
  352MOL0     H48569  10.577   1.519   2.671  0.1479 -0.3841 -0.0189
  352MOL0     H48570  10.567   1.267   2.613  2.6936 -1.5792 -1.2579
  352MOL0     H48571  10.652   1.310   2.471 -2.0972 -3.3265 -0.8300
  352MOL0     H48572  10.280   1.452   2.335  2.5270  0.9053 -3.3412
  352MOL0     H48573  10.633   1.914   2.819 -0.8560  0.9807 -0.3567
  352MOL0     H48574  10.629   2.061   2.958 -0.2730 -0.7240 -2.4504
  352MOL0     H48575  10.770   2.144   3.018 -0.6269 -0.0823 -0.6057
  352MOL0     H48576  10.673   2.206   2.875 -1.0716 -1.2781 -3.5121
  353MOL0     O48577   7.149   1.584   1.610  0.2838 -0.2510 -0.1319
  353MOL0     C48578   7.253   1.518   1.590  0.1997  0.5443 -0.6617
  353MOL0     O48579   7.250   1.389   1.544 -1.0061 -0.3261 -0.0193
  353MOL0     C48580   7.141   1.313   1.560  0.0401  0.3014 -0.7701
  353MOL0     C48581   7.148   1.204   1.645 -0.1445  0.7074  0.1701
  353MOL0     C48582   7.040   1.118   1.657  0.4956 -0.1438  0.1131
  353MOL0     C48583   6.917   1.162   1.608  0.4332  0.8444 -0.0049
  353MOL0     O48584   6.799   1.113   1.635 -0.1539 -0.0478  0.3460
  353MOL0     C48585   6.788   0.973   1.655  0.1363 -0.0358  0.5819
  353MOL0     C48586   6.809   0.946   1.809 -0.6781 -0.1373 -1.0164
  353MOL0     C48587   6.700   1.013   1.886  0.4698 -0.6008  0.3418
  353MOL0     C48588   6.711   1.026   2.038  0.2075 -0.4853 -0.1034
  353MOL0     C48589   6.578   1.099   2.082  0.3396  0.2784 -0.6626
  353MOL0     C48590   6.464   0.992   2.108 -0.5741 -0.4024  0.6275
  353MOL0     C48591   6.334   1.050   2.170  0.2335 -0.0691  0.5763
  353MOL0     C48592   6.352   1.095   2.315  1.0675 -0.4473  0.0085
  353MOL0     N48593   6.229   1.106   2.389  0.5160  0.7903  0.4280
  353MOL0     C48594   6.105   1.165   2.360 -0.5044 -0.3871  0.9811
  353MOL0     C48595   6.021   1.099   2.438  0.0680  0.1633  0.7957
  353MOL0     C48596   5.866   1.098   2.447  0.4418  0.5865  0.4071
  353MOL0     C48597   5.796   1.074   2.304  0.1831 -0.4430  0.1602
  353MOL0     C48598   5.858   0.945   2.247 -0.6933  0.7355 -0.3364
  353MOL0     C48599   5.818   0.935   2.099  0.3632  0.0730 -0.1451
  353MOL0     O48600   5.890   1.028   2.010 -0.3311  0.6625 -0.5357
  353MOL0     C48601   6.003   0.990   1.943  0.7000  0.6051  0.2865
  353MOL0     C48602   6.095   1.088   1.923 -0.5265 -0.5167  0.1005
  353MOL0     C48603   6.205   1.069   1.839 -0.0791 -0.8959  0.2689
  353MOL0     C48604   6.302   1.186   1.824  0.5147 -0.4318  0.5544
  353MOL0     C48605   6.228   0.945   1.787 -0.5450  0.6436  0.5072
  353MOL0     C48606   6.353   0.910   1.697 -0.0586 -0.0427 -0.6819
  353MOL0     O48607   6.362   0.778   1.665  0.0386 -0.0317  0.5213
  353MOL0     C48608   6.450   0.731   1.571 -0.2615 -0.5399  0.0967
  353MOL0     C48609   6.567   0.681   1.613 -0.0862  1.5341 -0.0007
  353MOL0     C48610   6.657   0.608   1.527  0.6085 -0.0231 -0.0224
  353MOL0     C48611   6.612   0.600   1.393 -0.5075 -0.7811  0.2118
  353MOL0     O48612   6.687   0.516   1.322 -0.2356 -0.1324  0.3853
  353MOL0     C48613   6.624   0.408   1.249  0.3518  0.0161 -0.6651
  353MOL0     C48614   6.705   0.286   1.242  0.2015 -0.3887  0.0456
  353MOL0     C48615   6.768   0.257   1.379  1.2692 -0.3790 -0.9257
  353MOL0     C48616   6.806   0.108   1.384 -0.1507 -0.6531 -0.9078
  353MOL0     C48617   6.831   0.056   1.528  0.6816 -0.1403  1.1402
  353MOL0     C48618   6.854  -0.096   1.529 -0.3218  0.3009 -0.7215
  353MOL0     C48619   6.723  -0.175   1.485  0.0478  0.0193  0.2722
  353MOL0     C48620   6.694  -0.292   1.567  0.4672  0.5468 -0.2640
  353MOL0    Cl48621   6.827  -0.420   1.581  0.3885  0.3670 -0.0793
  353MOL0     C48622   6.492   0.660   1.347 -0.0745 -0.1264 -0.0158
  353MOL0     C48623   6.411   0.728   1.435  0.1045  0.4459  0.6454
  353MOL0     O48624   6.426   0.994   1.655 -1.2604  0.1947  0.3569
  353MOL0     C48625   6.136   0.838   1.816 -0.6917 -0.8265 -0.1077
  353MOL0     C48626   6.028   0.858   1.895 -0.0646 -0.4738  0.7289
  353MOL0     N48627   6.090   1.024   2.527  0.5333 -0.5091 -0.0412
  353MOL0     N48628   6.215   1.023   2.500 -0.0364 -0.7633  0.9732
  353MOL0     C48629   6.908   1.267   1.516  0.0748  0.4525  0.3273
  353MOL0     C48630   7.028   1.341   1.482 -0.4848  0.8359 -0.4328
  353MOL0     C48631   7.381   1.584   1.615 -0.4842  0.3626  0.2149
  353MOL0     C48632   7.386   1.704   1.692 -0.0708  0.0207  0.2711
  353MOL0     C48633   7.501   1.762   1.736 -0.2110  0.3008  0.6986
  353MOL0     C48634   7.626   1.699   1.724 -1.0256  0.4662  0.3025
  353MOL0     O48635   7.745   1.735   1.786 -0.1722 -0.5009  0.0327
  353MOL0     C48636   7.736   1.826   1.888 -0.1288  0.2729 -1.3096
  353MOL0     C48637   7.874   1.858   1.937  0.3070 -0.0816 -0.6384
  353MOL0     C48638   7.866   1.964   2.043 -0.8686 -0.0165 -0.3654
  353MOL0     C48639   8.013   2.008   2.079 -0.0618  0.1594  1.1092
  353MOL0     C48640   8.050   1.924   2.191 -0.1913  1.1920 -0.2003
  353MOL0     C48641   8.077   1.845   2.275  0.1264  0.5204 -0.3083
  353MOL0     C48642   7.633   1.581   1.645  1.5337 -0.1451 -0.1310
  353MOL0     C48643   7.508   1.522   1.584  0.8971  0.0406 -0.1745
  353MOL0     C48644   7.536   1.395   1.501 -0.0609  0.3395 -0.8324
  353MOL0     H48645   7.243   1.194   1.697  0.2954  1.9898 -0.3547
  353MOL0     H48646   7.047   1.034   1.725 -1.4708 -0.4004  0.0607
  353MOL0     H48647   6.866   0.919   1.599 -2.6186 -1.9182 -1.7062
  353MOL0     H48648   6.688   0.938   1.628  0.9036 -0.1705 -2.4961
  353MOL0     H48649   6.802   0.840   1.835 -2.4111 -0.0449 -1.0163
  353MOL0     H48650   6.906   0.976   1.851 -0.8052  0.6237 -1.2532
  353MOL0     H48651   6.680   1.107   1.836  0.4810 -0.7118  0.1259
  353MOL0     H48652   6.611   0.955   1.860  1.6143 -1.0916 -2.9956
  353MOL0     H48653   6.725   0.930   2.089  1.7516  0.0228  0.4836
  353MOL0     H48654   6.788   1.100   2.061 -0.7385  0.2806  0.7144
  353MOL0     H48655   6.550   1.170   2.003  0.8550  0.8965 -0.3068
  353MOL0     H48656   6.592   1.160   2.172 -1.3011  1.2165 -1.0123
  353MOL0     H48657   6.449   0.936   2.015  1.1414  0.1056  0.0059
  353MOL0     H48658   6.500   0.915   2.177  2.5266  0.7239  0.4312
  353MOL0     H48659   6.253   0.977   2.160 -1.1589  1.5397 -0.3730
  353MOL0     H48660   6.293   1.135   2.115 -0.8862  0.3898  2.0409
  353MOL0     H48661   6.415   1.019   2.363 -1.6127 -0.3143  4.2813
  353MOL0     H48662   6.405   1.190   2.326 -0.1287  0.1752  0.5365
  353MOL0     H48663   6.081   1.222   2.270 -0.2103 -0.1730  1.0396
  353MOL0     H48664   5.826   1.194   2.480  0.2854  0.4108  0.7351
  353MOL0     H48665   5.833   1.017   2.513  0.7216 -1.0619 -1.4007
  353MOL0     H48666   5.690   1.057   2.324  0.0996 -0.6968 -0.4690
  353MOL0     H48667   5.814   1.161   2.240 -1.6629 -0.2678 -0.1655
  353MOL0     H48668   5.967   0.936   2.242 -0.5356  2.8796 -2.8641
  353MOL0     H48669   5.823   0.857   2.302  1.9283 -2.4721 -3.3066
  353MOL0     H48670   5.839   0.831   2.073  5.7739  1.3612 -2.2306
  353MOL0     H48671   5.712   0.959   2.088 -0.2367 -2.3031 -0.1071
  353MOL0     H48672   6.091   1.188   1.964  1.9889 -0.8834  1.4186
  353MOL0     H48673   6.406   1.154   1.837  0.4727 -0.1906  1.6144
  353MOL0     H48674   6.269   1.263   1.894 -2.3695 -1.6523  0.7067
  353MOL0     H48675   6.283   1.223   1.723 -0.0305 -0.3446  0.6839
  353MOL0     H48676   6.590   0.691   1.718 -0.4398  2.2655  0.0136
  353MOL0     H48677   6.747   0.559   1.564  0.0636  0.8643  2.7242
  353MOL0     H48678   6.533   0.390   1.307  2.7052 -1.0535  3.0243
  353MOL0     H48679   6.597   0.429   1.145 -1.3691 -0.6779 -0.3977
  353MOL0     H48680   6.641   0.203   1.209  0.4975 -0.1663 -1.1154
  353MOL0     H48681   6.791   0.302   1.176  0.1502  3.0906  0.6345
  353MOL0     H48682   6.699   0.279   1.461  0.2218 -0.4128 -1.7846
  353MOL0     H48683   6.858   0.320   1.377  1.1430 -0.2080 -1.2699
  353MOL0     H48684   6.891   0.097   1.316  2.5310 -1.4496  2.3234
  353MOL0     H48685   6.728   0.048   1.335  0.3406 -0.2733 -2.1805
  353MOL0     H48686   6.924   0.106   1.555  1.7348 -1.7543  0.5927
  353MOL0     H48687   6.754   0.085   1.600  1.3068 -1.5627  2.4293
  353MOL0     H48688   6.876  -0.126   1.632 -2.5356  2.1603  0.3837
  353MOL0     H48689   6.931  -0.132   1.460  1.9138  1.5912  0.9831
  353MOL0     H48690   6.731  -0.198   1.379  1.3869  2.5551 -0.2542
  353MOL0     H48691   6.643  -0.100   1.483  0.6546  0.6643 -1.2250
  353MOL0     H48692   6.602  -0.333   1.524  1.5481 -0.2005 -1.9850
  353MOL0     H48693   6.668  -0.254   1.666 -0.7283  1.2904 -0.8488
  353MOL0     H48694   6.459   0.639   1.246 -1.2131 -0.5458  0.4190
  353MOL0     H48695   6.317   0.773   1.404 -0.5056 -1.4715 -0.4117
  353MOL0     H48696   6.149   0.739   1.772 -0.9334  0.2168 -2.7099
  353MOL0     H48697   5.943   0.791   1.906  1.4491 -2.7412 -0.4523
  353MOL0     H48698   6.811   1.302   1.481 -1.7966 -2.8133  1.7869
  353MOL0     H48699   7.036   1.427   1.416  1.1781 -0.6884 -2.3651
  353MOL0     H48700   7.292   1.756   1.699  0.3367  0.7635  0.2612
  353MOL0     H48701   7.488   1.847   1.802  1.1614 -0.1697  1.6334
  353MOL0     H48702   7.686   1.921   1.866 -0.7459  0.3345  0.2823
  353MOL0     H48703   7.677   1.778   1.966  2.2531 -0.2627  0.2809
  353MOL0     H48704   7.931   1.889   1.849 -2.5278  1.4761 -2.1069
  353MOL0     H48705   7.917   1.767   1.979  0.8503  1.6910  2.9813
  353MOL0     H48706   7.820   2.050   1.993 -1.3044  0.1683  0.3497
  353MOL0     H48707   7.801   1.950   2.130 -0.2616  1.8095  0.4174
  353MOL0     H48708   8.005   2.111   2.115 -1.1190 -0.0695  1.5862
  353MOL0     H48709   8.081   1.997   1.995  1.4907 -2.1966  2.5714
  353MOL0     H48710   8.103   1.777   2.353 -2.2545  0.0444  0.1529
  353MOL0     H48711   7.732   1.535   1.646  0.3175 -3.0034 -0.3924
  353MOL0     H48712   7.456   1.321   1.508 -0.4265  0.5751 -2.1524
  353MOL0     H48713   7.558   1.428   1.399  4.3160  0.7939  0.0856
  353MOL0     H48714   7.625   1.343   1.538 -1.1943 -1.3500 -0.3441
  354MOL0     O48715   4.679   4.562   9.657  0.3609  0.5242  0.5691
  354MOL0     C48716   4.722   4.458   9.609 -1.2363 -0.3509 -0.3062
  354MOL0     O48717   4.838   4.392   9.651 -0.0179  0.2377  0.3964
  354MOL0     C48718   4.921   4.461   9.729  0.3237  0.4107 -0.8419
  354MOL0     C48719   5.019   4.539   9.683 -0.9100  0.9520  0.9639
  354MOL0     C48720   5.100   4.613   9.768 -0.5060 -0.1001 -0.2116
  354MOL0     C48721   5.095   4.573   9.907 -0.3154 -0.0859 -0.0327
  354MOL0     O48722   5.183   4.627   9.996  0.1583 -0.2414  0.7557
  354MOL0     C48723   5.134   4.746  10.059 -0.0818 -0.2031  0.3809
  354MOL0     C48724   5.177   4.872   9.998 -0.5318 -0.6144 -0.1575
  354MOL0     C48725   5.155   4.994  10.090  0.0967  0.9304 -0.3237
  354MOL0     C48726   5.290   5.022  10.165  0.0655 -0.0239 -0.0188
  354MOL0     C48727   5.247   5.141  10.258  0.2562 -0.7261  0.0186
  354MOL0     C48728   5.375   5.215  10.299  0.0650  0.4290 -0.6268
  354MOL0     C48729   5.343   5.325  10.394  0.5062 -0.9775  1.1868
  354MOL0     C48730   5.254   5.447  10.329 -0.0417 -0.4432  0.2069
  354MOL0     N48731   5.284   5.570  10.406  0.1709 -0.5554 -0.6311
  354MOL0     C48732   5.293   5.582  10.549 -0.3511  0.3904  1.3807
  354MOL0     C48733   5.338   5.702  10.566 -0.9300 -0.4344 -0.2899
  354MOL0     C48734   5.365   5.778  10.690  0.6628 -0.2741  1.1147
  354MOL0     C48735   5.326   5.715  10.821  0.3748  0.7506 -0.7965
  354MOL0     C48736   5.174   5.719  10.838  0.0210 -0.5198 -0.1200
  354MOL0     C48737   5.131   5.659  10.982  0.9110 -0.0026  0.7072
  354MOL0     O48738   5.167   5.525  10.989  0.8583 -0.6011 -0.5253
  354MOL0     C48739   5.095   5.446  10.898 -0.3485 -0.5922 -0.0775
  354MOL0     C48740   4.954   5.445  10.896  0.1580  0.0081 -0.9663
  354MOL0     C48741   4.890   5.373  10.787  0.3356 -0.6823 -1.2686
  354MOL0     C48742   4.745   5.398  10.772 -0.0444 -0.6578  0.3356
  354MOL0     C48743   4.969   5.291  10.709  0.4183  0.1093  0.2681
  354MOL0     C48744   4.906   5.213  10.590  0.1551 -1.0142 -0.2143
  354MOL0     O48745   4.994   5.164  10.500 -0.3870  0.3078 -0.5981
  354MOL0     C48746   4.921   5.109  10.396 -0.3201 -0.8136 -0.5259
  354MOL0     C48747   4.891   4.974  10.404  0.0637  0.7671 -0.6701
  354MOL0     C48748   4.823   4.918  10.298  0.2011  0.0827  1.1201
  354MOL0     C48749   4.806   4.991  10.173 -0.0559  0.1782 -0.8440
  354MOL0     O48750   4.738   4.945  10.066 -0.1307  0.5524 -0.8299
  354MOL0     C48751   4.672   4.813  10.078 -0.1902  0.1079  0.7331
  354MOL0     C48752   4.612   4.770   9.944  0.8604  0.1312  0.2022
  354MOL0     C48753   4.471   4.816   9.934  2.0026 -0.0498  0.3559
  354MOL0     C48754   4.380   4.760   9.823 -0.4571  0.3314 -0.1798
  354MOL0     C48755   4.447   4.791   9.682 -0.5108 -0.3521 -0.3897
  354MOL0     C48756   4.362   4.757   9.564  0.1925 -0.9463  0.5642
  354MOL0     C48757   4.374   4.607   9.531  0.1565  0.1579  0.2871
  354MOL0     C48758   4.257   4.535   9.466 -0.5667 -0.0637  1.0227
  354MOL0    Cl48759   4.245   4.597   9.294 -0.3638  0.2497 -0.5845
  354MOL0     C48760   4.846   5.127  10.176 -0.5197 -0.2621  0.2461
  354MOL0     C48761   4.891   5.185  10.290  1.1130  0.4582 -0.3446
  354MOL0     O48762   4.780   5.215  10.577 -0.2839  0.0888 -0.6119
  354MOL0     C48763   5.111   5.278  10.728 -0.0774 -0.0860  0.2954
  354MOL0     C48764   5.168   5.364  10.818 -0.2094  0.3956 -0.3521
  354MOL0     N48765   5.354   5.766  10.444  0.3817  0.3238  0.0116
  354MOL0     N48766   5.326   5.683  10.350  0.5553  0.0547 -0.0105
  354MOL0     C48767   4.987   4.508   9.953 -0.0670  0.0595 -0.3005
  354MOL0     C48768   4.904   4.441   9.866  0.5559 -0.4187  0.0571
  354MOL0     C48769   4.665   4.405   9.487 -0.1728 -0.2091  0.6144
  354MOL0     C48770   4.581   4.293   9.498 -0.1829 -0.2026 -0.3436
  354MOL0     C48771   4.522   4.231   9.384  0.1808 -0.6315  0.0883
  354MOL0     C48772   4.552   4.279   9.259 -0.3970 -0.2260 -0.7009
  354MOL0     O48773   4.509   4.222   9.142  0.2652 -0.2521 -0.3151
  354MOL0     C48774   4.427   4.103   9.159 -0.1662 -0.3526  0.0833
  354MOL0     C48775   4.379   4.075   9.021 -0.7888  0.0494  0.1966
  354MOL0     C48776   4.287   4.181   8.962  0.0337 -0.1495  0.5240
  354MOL0     C48777   4.144   4.124   8.968  0.4096 -0.4293 -0.3216
  354MOL0     C48778   4.116   4.010   8.881  0.0485 -0.9293  0.0810
  354MOL0     C48779   4.087   3.919   8.812  0.1188  0.3555 -0.5500
  354MOL0     C48780   4.648   4.382   9.244  0.1262 -0.4649  0.1087
  354MOL0     C48781   4.696   4.452   9.358 -0.1032  1.2538  0.9661
  354MOL0     C48782   4.802   4.553   9.324 -0.0789 -0.5745  0.2982
  354MOL0     H48783   5.020   4.552   9.575 -4.3337  1.6550  0.8961
  354MOL0     H48784   5.180   4.678   9.736  0.5320 -0.6431  1.1878
  354MOL0     H48785   5.173   4.737  10.161  0.8318 -0.0366  0.0566
  354MOL0     H48786   5.024   4.745  10.057 -0.0834  0.6515 -1.1372
  354MOL0     H48787   5.284   4.861   9.975 -0.7781 -0.7878 -1.2655
  354MOL0     H48788   5.124   4.881   9.903  0.7390 -0.5637 -0.8825
  354MOL0     H48789   5.139   5.087  10.035 -0.7492  0.5054 -0.8170
  354MOL0     H48790   5.075   4.981  10.164 -0.3458  0.8514 -0.8147
  354MOL0     H48791   5.332   4.939  10.222  0.4714  1.5268  2.0728
  354MOL0     H48792   5.365   5.042  10.088 -0.5464 -0.0175 -0.6278
  354MOL0     H48793   5.187   5.123  10.348  0.1505  0.5198  0.2198
  354MOL0     H48794   5.195   5.218  10.200 -1.2977  0.3953  2.6928
  354MOL0     H48795   5.435   5.140  10.350 -0.6806  0.7053  0.7050
  354MOL0     H48796   5.416   5.257  10.206 -2.9510  1.1758 -1.7418
  354MOL0     H48797   5.442   5.365  10.414 -0.0354  2.2635 -1.6772
  354MOL0     H48798   5.302   5.286  10.487  0.7186 -0.8870  1.3185
  354MOL0     H48799   5.270   5.476  10.225 -2.6001  2.0122  0.3937
  354MOL0     H48800   5.151   5.411  10.322  0.0656 -0.5873 -0.7339
  354MOL0     H48801   5.287   5.511  10.630  2.8733  1.2516  2.5474
  354MOL0     H48802   5.320   5.876  10.672  1.2758 -0.3018 -0.8263
  354MOL0     H48803   5.473   5.790  10.705  1.2976 -0.4488 -2.5002
  354MOL0     H48804   5.358   5.611  10.822 -0.4500  0.4851  0.2665
  354MOL0     H48805   5.378   5.771  10.900  0.8501  0.0658 -0.6170
  354MOL0     H48806   5.141   5.821  10.818  0.6309 -0.3121 -0.0951
  354MOL0     H48807   5.132   5.651  10.763 -0.6468 -3.5866  2.7924
  354MOL0     H48808   5.184   5.714  11.060  0.7236 -1.7810  2.1445
  354MOL0     H48809   5.026   5.679  11.006  1.2746 -0.4596  2.8388
  354MOL0     H48810   4.895   5.504  10.966  2.1075  0.2982  0.5048
  354MOL0     H48811   4.681   5.311  10.792 -0.2237  0.0491  3.2085
  354MOL0     H48812   4.715   5.430  10.672 -0.3511  1.9133  1.1976
  354MOL0     H48813   4.718   5.477  10.841 -0.6519 -1.0519  0.5587
  354MOL0     H48814   4.922   4.924  10.495 -1.7051 -2.5958 -1.7264
  354MOL0     H48815   4.790   4.815  10.301  3.0280 -1.0119 -0.5837
  354MOL0     H48816   4.751   4.739  10.100  0.8138  1.5285  2.1140
  354MOL0     H48817   4.593   4.813  10.153  0.0961 -2.0171  1.1112
  354MOL0     H48818   4.662   4.811   9.856  1.5964 -0.9207  0.1123
  354MOL0     H48819   4.603   4.661   9.949  1.5555  0.1310  2.6928
  354MOL0     H48820   4.474   4.924   9.919  1.2721 -0.3471 -2.4531
  354MOL0     H48821   4.420   4.785  10.026  1.7809 -2.3957 -0.5050
  354MOL0     H48822   4.285   4.814   9.829  0.0517  1.1460  1.0889
  354MOL0     H48823   4.372   4.652   9.838  3.4231  0.0803  1.3202
  354MOL0     H48824   4.461   4.899   9.693 -2.6588 -0.1810  1.5129
  354MOL0     H48825   4.550   4.756   9.674  0.1596  1.4361  0.0322
  354MOL0     H48826   4.396   4.818   9.480  3.3550  1.6467  3.4204
  354MOL0     H48827   4.257   4.778   9.584 -0.3852 -2.4257 -0.7055
  354MOL0     H48828   4.400   4.559   9.626  0.2495 -0.2613  0.0516
  354MOL0     H48829   4.456   4.593   9.460 -1.4205 -0.9574 -1.4011
  354MOL0     H48830   4.168   4.549   9.529 -0.7256  0.5507  0.6648
  354MOL0     H48831   4.285   4.429   9.465  1.2485  0.3438 -1.6366
  354MOL0     H48832   4.825   5.187  10.088  2.7474  1.9065  0.7811
  354MOL0     H48833   4.918   5.289  10.274  2.5374 -0.1864 -2.4902
  354MOL0     H48834   5.176   5.212  10.672  1.8990  2.8270 -1.0837
  354MOL0     H48835   5.274   5.360  10.845 -1.0747 -2.0190  3.5552
  354MOL0     H48836   4.958   4.485  10.055 -1.2625 -0.5774 -0.7785
  354MOL0     H48837   4.824   4.384   9.912 -0.4205 -0.3931 -1.5420
  354MOL0     H48838   4.560   4.253   9.597 -2.2644 -0.7655 -0.9636
  354MOL0     H48839   4.441   4.161   9.403 -3.0395  2.9089  0.4856
  354MOL0     H48840   4.486   4.016   9.188  2.3183  0.8236 -1.1737
  354MOL0     H48841   4.337   4.122   9.218 -0.6929 -0.2143 -0.7539
  354MOL0     H48842   4.337   3.974   9.012  0.7611 -0.5408 -0.9255
  354MOL0     H48843   4.471   4.081   8.962 -0.6676  0.4378  0.4249
  354MOL0     H48844   4.310   4.272   9.019  0.1456  1.7778 -2.4028
  354MOL0     H48845   4.299   4.208   8.857 -1.1247 -2.8835 -0.3917
  354MOL0     H48846   4.067   4.201   8.955  0.5263 -0.5072 -1.6575
  354MOL0     H48847   4.119   4.083   9.066  0.1101 -0.6781 -0.5012
  354MOL0     H48848   4.070   3.830   8.754 -0.9964  0.4195 -0.3423
  354MOL0     H48849   4.686   4.416   9.148  0.6696 -0.4787  0.3130
  354MOL0     H48850   4.745   4.637   9.284 -0.9542 -1.1765  0.2729
  354MOL0     H48851   4.866   4.586   9.407 -3.3376  0.9656  2.4021
  354MOL0     H48852   4.854   4.521   9.234  2.4494  1.8184  0.7631
  355MOL0     O48853   1.167  11.116   0.410  0.4533  0.3902 -0.3075
  355MOL0     C48854   1.205  11.125   0.294  0.6925 -0.6820  0.5858
  355MOL0     O48855   1.331  11.087   0.244 -0.0552 -0.2458  0.1697
  355MOL0     C48856   1.431  11.047   0.324  0.1128  0.6426  0.4700
  355MOL0     C48857   1.535  10.994   0.244 -0.1346  0.9117 -0.9779
  355MOL0     C48858   1.657  10.978   0.311 -0.2865  0.2497  0.2280
  355MOL0     C48859   1.673  10.994   0.451  0.8954 -0.4075  0.9170
  355MOL0     O48860   1.797  10.963   0.498  0.4440  0.2157 -0.6561
  355MOL0     C48861   1.802  10.888   0.620  0.0084  0.1956  0.9550
  355MOL0     C48862   1.948  10.860   0.657  0.1751 -0.6440  0.3502
  355MOL0     C48863   2.027  10.782   0.549 -0.6100 -0.4145 -0.1502
  355MOL0     C48864   2.160  10.741   0.609 -0.1165 -1.0663 -0.4567
  355MOL0     C48865   2.252  10.650   0.527 -0.1934  0.4937  0.6261
  355MOL0     C48866   2.268  10.690   0.379  0.1350  0.5646  0.0168
  355MOL0     C48867   2.347  10.576   0.313  0.0593 -0.3221 -0.2024
  355MOL0     C48868   2.371  10.600   0.160  0.0343 -0.2982  0.4232
  355MOL0     N48869   2.421  10.487   0.093  0.0701  0.0272 -0.2682
  355MOL0     C48870   2.539  10.429   0.123 -0.1996 -0.4081 -0.4359
  355MOL0     C48871   2.541  10.313   0.053  0.0570 -0.4732  0.2483
  355MOL0     C48872   2.656  10.222   0.059  0.3704  0.2434 -0.2922
  355MOL0     C48873   2.808  10.284   0.058  0.8186 -0.1148 -0.7444
  355MOL0     C48874   2.831  10.348  -0.082  0.0078  0.2941 -0.5691
  355MOL0     C48875   2.971  10.424  -0.085 -0.2315  0.4493 -0.0649
  355MOL0     O48876   3.017  10.437  -0.216  0.4844  0.1994 -0.1892
  355MOL0     C48877   3.148  10.466  -0.217 -0.7251  0.1481  0.2000
  355MOL0     C48878   3.227  10.538  -0.122 -0.0868  0.8106  0.2421
  355MOL0     C48879   3.367  10.562  -0.153  0.1705 -0.0459 -0.7636
  355MOL0     C48880   3.455  10.654  -0.057  0.0749 -0.5388  0.0627
  355MOL0     C48881   3.420  10.510  -0.275  0.0612  0.6653  0.4735
  355MOL0     C48882   3.559  10.527  -0.337 -0.6034 -0.0810 -0.1376
  355MOL0     O48883   3.582  10.497  -0.468 -0.0853 -0.3993 -0.2752
  355MOL0     C48884   3.704  10.536  -0.514 -0.6347  0.3066  0.0393
  355MOL0     C48885   3.711  10.635  -0.617  0.1845 -1.3714  0.0871
  355MOL0     C48886   3.833  10.676  -0.679  0.5890 -0.5277 -0.0608
  355MOL0     C48887   3.949  10.620  -0.642  0.2130  0.2087 -0.8043
  355MOL0     O48888   4.074  10.639  -0.698  0.1188 -0.5497  0.9882
  355MOL0     C48889   4.103  10.751  -0.784  0.5653  0.3612 -0.1009
  355MOL0     C48890   4.242  10.743  -0.837  0.3019  0.2887  0.7937
  355MOL0     C48891   4.344  10.713  -0.722 -1.0691 -0.1627  0.7289
  355MOL0     C48892   4.365  10.839  -0.628  0.3045  0.0892 -0.3711
  355MOL0     C48893   4.465  10.814  -0.515  0.5529  0.7784 -0.3034
  355MOL0     C48894   4.417  10.718  -0.404  0.2596 -0.2724  0.1887
  355MOL0     C48895   4.526  10.668  -0.311 -0.6661 -0.3561 -0.3842
  355MOL0     C48896   4.604  10.539  -0.350  0.7564  0.1155 -0.1372
  355MOL0    Cl48897   4.703  10.575  -0.503  0.2118 -0.0534 -0.3548
  355MOL0     C48898   3.943  10.514  -0.546 -0.4014 -0.2926  0.3566
  355MOL0     C48899   3.824  10.474  -0.487  0.1793 -0.3438 -1.2963
  355MOL0     O48900   3.639  10.585  -0.265 -0.2752  0.2549  0.0611
  355MOL0     C48901   3.330  10.455  -0.369 -0.5907  0.4514  0.5571
  355MOL0     C48902   3.205  10.418  -0.336 -0.3808 -0.9164  0.9910
  355MOL0     N48903   2.430  10.324  -0.031 -0.4279  0.0255  0.2600
  355MOL0     N48904   2.349  10.424  -0.004 -0.3161 -0.7812  0.8085
  355MOL0     C48905   1.561  11.047   0.519  0.3272 -0.0600 -0.6230
  355MOL0     C48906   1.449  11.068   0.453  0.2680 -0.4181 -0.0129
  355MOL0     C48907   1.104  11.168   0.194 -0.2988  0.0716 -0.3109
  355MOL0     C48908   1.142  11.216   0.069 -0.3902  0.2577 -0.3506
  355MOL0     C48909   1.060  11.240  -0.040  1.3485  0.2626  0.3822
  355MOL0     C48910   0.920  11.232  -0.022  0.1810 -0.2161  0.2488
  355MOL0     O48911   0.839  11.271  -0.127 -0.1744  0.1212  0.0133
  355MOL0     C48912   0.708  11.204  -0.142 -0.1005 -0.4065  0.9005
  355MOL0     C48913   0.649  11.261  -0.272 -0.1588  0.6849  0.1712
  355MOL0     C48914   0.651  11.418  -0.287 -0.0743 -0.2079  0.4430
  355MOL0     C48915   0.571  11.461  -0.419 -0.2978  0.5295  0.3953
  355MOL0     C48916   0.430  11.441  -0.391 -0.3387  0.4524  0.0978
  355MOL0     C48917   0.311  11.406  -0.383 -0.6307  0.4039 -0.4423
  355MOL0     C48918   0.867  11.194   0.101 -0.4009  0.1136  0.4448
  355MOL0     C48919   0.958  11.161   0.209  0.1238  0.3133 -0.2248
  355MOL0     C48920   0.893  11.113   0.340  0.1442  0.0088  0.1358
  355MOL0     H48921   1.512  10.980   0.139 -2.1294 -1.0859 -0.3580
  355MOL0     H48922   1.745  10.954   0.252 -1.8634 -0.2259 -2.1264
  355MOL0     H48923   1.741  10.799   0.603  1.2747 -0.6281  0.6463
  355MOL0     H48924   1.755  10.947   0.700 -0.1686 -0.7832  1.5939
  355MOL0     H48925   2.004  10.953   0.665  0.5276 -0.8590  0.4317
  355MOL0     H48926   1.946  10.796   0.746 -2.5062  0.5928  1.2952
  355MOL0     H48927   1.973  10.692   0.518 -2.9929  0.9463 -0.1816
  355MOL0     H48928   2.043  10.845   0.461 -1.1040 -2.5414 -1.8417
  355MOL0     H48929   2.215  10.832   0.633 -2.6615  0.1435  1.2870
  355MOL0     H48930   2.147  10.695   0.707  2.5519  0.2213  0.5918
  355MOL0     H48931   2.206  10.550   0.525  2.2206 -0.6797  0.0018
  355MOL0     H48932   2.349  10.651   0.578  0.1522 -0.5289  0.0137
  355MOL0     H48933   2.174  10.697   0.324  0.8402 -0.1286 -1.3452
  355MOL0     H48934   2.328  10.782   0.375 -0.2163  0.7598 -1.1227
  355MOL0     H48935   2.278  10.492   0.319 -1.9831  0.8875 -3.5682
  355MOL0     H48936   2.445  10.554   0.356 -0.3860 -5.4571 -1.1136
  355MOL0     H48937   2.285  10.651   0.116 -0.0034  2.2499  3.1381
  355MOL0     H48938   2.456  10.667   0.174  1.8285 -2.4945  0.6186
  355MOL0     H48939   2.603  10.463   0.204  1.0521 -3.2050 -0.1509
  355MOL0     H48940   2.644  10.143  -0.016  2.0667 -1.7455  1.4289
  355MOL0     H48941   2.644  10.177   0.158 -0.7817  3.1447  0.9951
  355MOL0     H48942   2.817  10.367   0.130 -1.2731 -0.6525  0.2080
  355MOL0     H48943   2.882  10.208   0.083 -0.9151 -1.2057  1.4328
  355MOL0     H48944   2.827  10.270  -0.159 -0.2740 -0.2425 -0.0210
  355MOL0     H48945   2.750  10.420  -0.086  0.7121  1.0520 -2.0659
  355MOL0     H48946   2.961  10.523  -0.039  1.2601  1.4770 -1.8481
  355MOL0     H48947   3.040  10.362  -0.027 -0.9094 -2.8002 -2.4764
  355MOL0     H48948   3.178  10.579  -0.035 -0.5351  0.9037 -0.0490
  355MOL0     H48949   3.557  10.623  -0.034  0.1361 -0.4868 -0.1401
  355MOL0     H48950   3.398  10.641   0.036 -0.5905 -3.6056 -0.6628
  355MOL0     H48951   3.464  10.757  -0.090  0.1829 -0.7257 -0.4993
  355MOL0     H48952   3.618  10.685  -0.641  0.4039  0.2770  2.3557
  355MOL0     H48953   3.825  10.761  -0.746  1.2684 -1.1755 -0.9926
  355MOL0     H48954   4.039  10.744  -0.873  0.3922 -3.4085  0.1489
  355MOL0     H48955   4.090  10.846  -0.732  0.7091  0.2849  0.0747
  355MOL0     H48956   4.256  10.667  -0.914  0.6223  1.7904 -0.6945
  355MOL0     H48957   4.258  10.841  -0.884 -2.1702  1.6602  2.5972
  355MOL0     H48958   4.441  10.696  -0.770 -0.8299 -0.9066  1.4424
  355MOL0     H48959   4.322  10.616  -0.675  0.2607 -1.6664 -1.5511
  355MOL0     H48960   4.268  10.870  -0.586  1.5011 -1.1118  3.7686
  355MOL0     H48961   4.404  10.921  -0.688  1.4446 -0.6080 -0.6003
  355MOL0     H48962   4.565  10.783  -0.549  1.1169  1.2855  0.8363
  355MOL0     H48963   4.492  10.907  -0.464 -0.0954 -0.0114  1.5747
  355MOL0     H48964   4.369  10.632  -0.453  0.2685 -0.6525  0.8329
  355MOL0     H48965   4.334  10.764  -0.350  1.4735 -0.4316  2.3189
  355MOL0     H48966   4.479  10.644  -0.215 -1.0741  1.2091 -0.1615
  355MOL0     H48967   4.598  10.749  -0.294 -0.0040 -0.9499 -0.3079
  355MOL0     H48968   4.530  10.462  -0.375 -1.4771  2.0253  0.1597
  355MOL0     H48969   4.653  10.504  -0.259  0.1134  0.4791  0.3617
  355MOL0     H48970   4.035  10.462  -0.519 -1.5387 -2.7288 -0.1738
  355MOL0     H48971   3.824  10.397  -0.411  1.0056  2.5038  1.8442
  355MOL0     H48972   3.362  10.435  -0.471 -1.4950 -4.4342  1.0112
  355MOL0     H48973   3.141  10.369  -0.408 -0.6338 -1.0432  1.3003
  355MOL0     H48974   1.567  11.059   0.627 -0.3527 -0.0976 -0.5720
  355MOL0     H48975   1.370  11.106   0.517 -0.4935  0.1956 -1.2910
  355MOL0     H48976   1.246  11.230   0.039  1.0242 -1.4083  3.2072
  355MOL0     H48977   1.108  11.268  -0.133 -0.0146 -0.0788 -0.4511
  355MOL0     H48978   0.724  11.096  -0.147 -0.8754 -0.5224  0.8486
  355MOL0     H48979   0.633  11.215  -0.063 -0.2008  1.8341  0.5578
  355MOL0     H48980   0.548  11.223  -0.290  0.5790 -1.4642  0.2354
  355MOL0     H48981   0.709  11.219  -0.353  1.5144  0.3361  1.5103
  355MOL0     H48982   0.620  11.479  -0.202  1.1402  1.5879 -0.3457
  355MOL0     H48983   0.756  11.449  -0.296 -0.7550  1.5278 -3.4921
  355MOL0     H48984   0.594  11.383  -0.493 -0.3608 -1.5562  2.4413
  355MOL0     H48985   0.608  11.553  -0.466 -0.7367 -0.0201 -1.0768
  355MOL0     H48986   0.206  11.390  -0.399 -1.1086  1.6334  1.1900
  355MOL0     H48987   0.760  11.193   0.120 -0.8560 -0.0186 -1.8562
  355MOL0     H48988   0.933  11.014   0.366  1.7926  0.3067 -1.0521
  355MOL0     H48989   0.916  11.169   0.431 -0.7631 -0.0406  0.4020
  355MOL0     H48990   0.784  11.108   0.337  0.0520  0.9079  1.3961
  356MOL0     O48991   1.046   8.633   6.093  0.0855 -0.1423 -0.0679
  356MOL0     C48992   1.033   8.602   6.210 -0.6978  0.2334 -0.7106
  356MOL0     O48993   1.066   8.676   6.319  0.0159 -0.8294  0.3107
  356MOL0     C48994   1.131   8.796   6.295 -0.0269  0.1275  0.5793
  356MOL0     C48995   1.064   8.918   6.309 -0.5687  0.5853  0.3380
  356MOL0     C48996   1.136   9.035   6.280  0.0809  0.3519  0.0517
  356MOL0     C48997   1.268   9.040   6.230 -0.2752  1.1962 -0.4518
  356MOL0     O48998   1.340   9.151   6.198 -0.5508  0.5100  0.0999
  356MOL0     C48999   1.368   9.245   6.308 -0.5651  0.8034  1.4517
  356MOL0     C49000   1.436   9.367   6.236  0.1108  0.2799  0.4512
  356MOL0     C49001   1.561   9.314   6.166  0.3825  0.3904  0.5956
  356MOL0     C49002   1.649   9.429   6.103 -0.0331 -0.3363 -0.2535
  356MOL0     C49003   1.754   9.356   6.020  0.0397 -0.2118 -0.1382
  356MOL0     C49004   1.827   9.454   5.929 -0.6505 -1.0432 -0.1589
  356MOL0     C49005   1.948   9.397   5.867 -0.3660  0.5977 -0.0149
  356MOL0     C49006   2.028   9.497   5.785  0.3683 -0.4577  0.0884
  356MOL0     N49007   2.133   9.444   5.703 -0.0121 -0.0571  0.5428
  356MOL0     C49008   2.235   9.361   5.743 -0.3185  1.0584  0.3808
  356MOL0     C49009   2.325   9.363   5.639  0.7540  0.5181 -0.0056
  356MOL0     C49010   2.441   9.277   5.646  0.1273  0.4491 -0.0958
  356MOL0     C49011   2.539   9.313   5.539 -0.1502 -0.0166 -0.0274
  356MOL0     C49012   2.673   9.235   5.548  0.0016  0.8374  0.0542
  356MOL0     C49013   2.770   9.277   5.430  0.3131 -0.3457 -0.2800
  356MOL0     O49014   2.824   9.409   5.448 -0.3823  0.2721 -0.7019
  356MOL0     C49015   2.952   9.433   5.391  0.6577  0.0524 -0.5766
  356MOL0     C49016   2.986   9.386   5.263  0.4417 -0.5906  0.9567
  356MOL0     C49017   3.119   9.386   5.218 -0.0103  0.1582  0.7780
  356MOL0     C49018   3.147   9.320   5.081  0.3369  0.7083 -1.1396
  356MOL0     C49019   3.214   9.456   5.297  0.5325 -0.3099  0.4529
  356MOL0     C49020   3.358   9.459   5.267  0.1360 -0.1669 -0.3132
  356MOL0     O49021   3.439   9.523   5.369  0.0245  0.5503  0.1861
  356MOL0     C49022   3.579   9.531   5.358  0.4240  0.3431 -0.3927
  356MOL0     C49023   3.651   9.557   5.242  0.2707 -0.0859  0.9749
  356MOL0     C49024   3.789   9.572   5.241  0.7370 -0.5432 -0.2375
  356MOL0     C49025   3.853   9.567   5.357  0.2777  0.9028  0.4640
  356MOL0     O49026   3.987   9.572   5.363  0.4757  0.4661 -0.5272
  356MOL0     C49027   4.063   9.482   5.448  0.2337  0.1829  0.3126
  356MOL0     C49028   4.202   9.470   5.397 -0.2005  0.5544 -0.2659
  356MOL0     C49029   4.234   9.393   5.278 -0.8818  0.1871  0.7255
  356MOL0     C49030   4.242   9.474   5.145  1.3305  0.3510  0.5766
  356MOL0     C49031   4.206   9.389   5.020  0.1318 -0.3973  0.4030
  356MOL0     C49032   4.316   9.284   4.982 -0.1698  0.0926  0.1633
  356MOL0     C49033   4.252   9.193   4.869 -0.4608 -0.0087 -0.0858
  356MOL0     C49034   4.356   9.100   4.804  0.0517  0.1905 -0.4209
  356MOL0    Cl49035   4.445   9.014   4.940 -0.1232 -0.4555 -0.7004
  356MOL0     C49036   3.785   9.561   5.484  0.2691  0.5012  0.1651
  356MOL0     C49037   3.653   9.527   5.475 -0.1617 -0.4139 -0.4700
  356MOL0     O49038   3.400   9.409   5.162  0.0284 -0.1313 -0.0662
  356MOL0     C49039   3.166   9.519   5.421 -1.3589  0.1728 -0.5987
  356MOL0     C49040   3.038   9.507   5.468 -0.3267 -0.2047  0.4384
  356MOL0     N49041   2.270   9.436   5.539 -0.3856  0.9075  0.4388
  356MOL0     N49042   2.166   9.501   5.580 -0.7275  0.0699 -0.1565
  356MOL0     C49043   1.328   8.916   6.208 -0.0212 -1.2568  0.6048
  356MOL0     C49044   1.261   8.793   6.237  0.0726  0.4513 -0.0682
  356MOL0     C49045   0.976   8.468   6.239  0.5462  0.3834  0.0740
  356MOL0     C49046   1.008   8.357   6.163  0.5699  0.9343  0.1227
  356MOL0     C49047   0.945   8.230   6.187  0.0531 -0.0475 -0.0555
  356MOL0     C49048   0.856   8.214   6.291 -1.5803  0.2942  1.0702
  356MOL0     O49049   0.823   8.094   6.345 -0.2113  0.2044  0.3256
  356MOL0     C49050   0.859   7.965   6.290  0.1499  0.5125  0.5581
  356MOL0     C49051   0.781   7.858   6.355 -1.6803  0.2355 -0.5034
  356MOL0     C49052   0.844   7.828   6.489 -1.1039 -0.1072 -0.2472
  356MOL0     C49053   0.767   7.738   6.586 -0.7239 -0.7287 -0.7678
  356MOL0     C49054   0.704   7.622   6.524  0.1542  0.6583 -0.3125
  356MOL0     C49055   0.667   7.521   6.474  0.1846 -0.5268 -0.6268
  356MOL0     C49056   0.824   8.326   6.368 -0.1737  0.3265  0.3090
  356MOL0     C49057   0.884   8.446   6.344  0.0281 -0.6763 -0.0784
  356MOL0     C49058   0.821   8.561   6.416 -0.5398  0.5346  0.7021
  356MOL0     H49059   0.960   8.915   6.339 -1.0133  2.2172 -0.9067
  356MOL0     H49060   1.094   9.134   6.294  0.6506  0.3625  1.9563
  356MOL0     H49061   1.429   9.193   6.383  1.2513 -0.6969 -0.8793
  356MOL0     H49062   1.272   9.274   6.351 -0.2296  3.4843  0.5864
  356MOL0     H49063   1.365   9.405   6.162 -1.2223 -4.0044 -0.7382
  356MOL0     H49064   1.461   9.439   6.315  0.7754 -0.7500  1.2175
  356MOL0     H49065   1.625   9.261   6.237 -1.0247 -1.8004  0.3329
  356MOL0     H49066   1.518   9.248   6.090  1.0916  1.1473 -0.4927
  356MOL0     H49067   1.592   9.501   6.044  0.2976  0.0306 -0.1285
  356MOL0     H49068   1.702   9.481   6.183 -0.3060  0.5039 -0.6090
  356MOL0     H49069   1.710   9.277   5.958 -3.3467  1.7659 -0.5314
  356MOL0     H49070   1.817   9.300   6.090 -0.2488 -2.7998 -1.8107
  356MOL0     H49071   1.761   9.496   5.853 -0.9151  1.0335  1.1507
  356MOL0     H49072   1.864   9.533   5.996  0.8293 -0.2840 -1.7926
  356MOL0     H49073   1.913   9.315   5.804 -1.2640  0.3429  0.7814
  356MOL0     H49074   2.016   9.363   5.945  1.0041 -0.0145 -1.4282
  356MOL0     H49075   1.957   9.549   5.719  0.2869 -2.3140 -1.3732
  356MOL0     H49076   2.075   9.570   5.852 -0.7906  0.7417 -0.3367
  356MOL0     H49077   2.232   9.311   5.839 -1.0696  0.2580 -0.0531
  356MOL0     H49078   2.414   9.173   5.623 -1.9697  1.0441 -0.5873
  356MOL0     H49079   2.496   9.286   5.740 -1.8961  0.4229  1.1634
  356MOL0     H49080   2.498   9.285   5.441  0.8683 -0.4113 -0.3563
  356MOL0     H49081   2.557   9.420   5.539  2.1118 -0.3324 -1.9149
  356MOL0     H49082   2.712   9.256   5.648 -0.7800 -0.1311  0.5756
  356MOL0     H49083   2.651   9.129   5.562  0.3523  0.8277  0.5421
  356MOL0     H49084   2.853   9.206   5.424 -0.0260 -0.8559  0.7140
  356MOL0     H49085   2.717   9.264   5.335  1.1468 -2.0470 -0.5499
  356MOL0     H49086   2.913   9.340   5.197  0.8417  4.2365 -3.4763
  356MOL0     H49087   3.062   9.272   5.031  0.6323 -0.0279 -0.9589
  356MOL0     H49088   3.232   9.253   5.097 -0.3346 -0.0999 -0.8644
  356MOL0     H49089   3.186   9.395   5.012 -3.0263  0.8951 -3.0350
  356MOL0     H49090   3.606   9.568   5.144  2.7348  0.7836 -0.1369
  356MOL0     H49091   3.841   9.577   5.146  2.3084 -1.6335  0.5157
  356MOL0     H49092   4.074   9.528   5.547  0.8259 -1.4158  1.0236
  356MOL0     H49093   4.017   9.383   5.452  2.4183 -0.8769  4.0212
  356MOL0     H49094   4.239   9.573   5.397 -2.4088  1.4179 -0.3869
  356MOL0     H49095   4.259   9.429   5.481 -0.3212 -0.8908 -0.8712
  356MOL0     H49096   4.160   9.312   5.276  1.2856 -1.9405  1.4054
  356MOL0     H49097   4.330   9.346   5.303 -0.9539  0.1876  1.0125
  356MOL0     H49098   4.339   9.519   5.126  0.8530  1.0703 -0.2419
  356MOL0     H49099   4.169   9.555   5.151  0.5845 -0.3329  1.0083
  356MOL0     H49100   4.112   9.334   5.027  0.8674 -2.3925 -3.0951
  356MOL0     H49101   4.190   9.444   4.926 -1.6418 -2.1988 -0.4317
  356MOL0     H49102   4.351   9.239   5.076  1.8915  0.3072 -0.4478
  356MOL0     H49103   4.404   9.327   4.933  0.7517 -2.6797 -0.8239
  356MOL0     H49104   4.204   9.251   4.789  2.4085 -0.1413 -2.0582
  356MOL0     H49105   4.179   9.122   4.909 -0.1344 -0.5468 -0.4426
  356MOL0     H49106   4.421   9.168   4.748  1.2504 -1.3030 -0.9197
  356MOL0     H49107   4.318   9.023   4.736  0.4584  0.9176 -1.5145
  356MOL0     H49108   3.833   9.558   5.582  1.7761  0.7782 -0.5381
  356MOL0     H49109   3.603   9.498   5.567  1.4757  1.2414  1.0325
  356MOL0     H49110   3.237   9.578   5.479 -0.6157 -0.6562 -0.6491
  356MOL0     H49111   3.004   9.545   5.563  2.9527 -0.4756  1.8558
  356MOL0     H49112   1.423   8.931   6.158  0.1861 -1.0261  1.0601
  356MOL0     H49113   1.310   8.698   6.217 -0.6366  0.3934 -1.6963
  356MOL0     H49114   1.091   8.363   6.094  0.4418 -1.6547 -0.3518
  356MOL0     H49115   0.978   8.142   6.132  1.4635  0.8910 -0.8017
  356MOL0     H49116   0.836   7.971   6.183  2.0122 -1.9472 -0.0617
  356MOL0     H49117   0.966   7.945   6.284 -0.0392 -0.2471 -0.4570
  356MOL0     H49118   0.761   7.768   6.297  0.2897 -1.4247  1.2117
  356MOL0     H49119   0.685   7.897   6.390 -1.9176  2.4688 -3.2802
  356MOL0     H49120   0.942   7.782   6.472 -1.4307 -0.8323 -0.2035
  356MOL0     H49121   0.854   7.922   6.542 -1.3950 -2.6341  4.8963
  356MOL0     H49122   0.695   7.796   6.644 -0.2487  0.3822 -1.2666
  356MOL0     H49123   0.841   7.691   6.652  0.7128  0.2949 -1.5928
  356MOL0     H49124   0.608   7.440   6.436 -0.2566 -0.4645 -0.0970
  356MOL0     H49125   0.760   8.311   6.455  1.5495 -0.7265  1.4636
  356MOL0     H49126   0.721   8.541   6.457 -1.9241  1.7237 -1.8573
  356MOL0     H49127   0.878   8.572   6.509  1.5210  0.1893 -0.4601
  356MOL0     H49128   0.819   8.650   6.352  0.7367 -0.6386 -1.0656
  357MOL0     O49129   7.039   3.254   2.488 -0.0218 -0.3398  0.1048
  357MOL0     C49130   6.964   3.274   2.583 -0.0605  0.3166  0.5784
  357MOL0     O49131   6.985   3.350   2.687  0.3754  0.4539 -0.1855
  357MOL0     C49132   7.115   3.385   2.731  0.7905  0.4012  0.2217
  357MOL0     C49133   7.124   3.507   2.796 -0.5982 -0.0764  0.2125
  357MOL0     C49134   7.241   3.539   2.867  0.0349 -0.8489  0.0449
  357MOL0     C49135   7.346   3.453   2.860  0.3283 -0.8199 -0.6535
  357MOL0     O49136   7.462   3.504   2.916  0.1083  0.2914 -0.4013
  357MOL0     C49137   7.594   3.470   2.852  0.3548 -0.4095 -0.3288
  357MOL0     C49138   7.714   3.538   2.929  1.3068 -0.0409 -0.5599
  357MOL0     C49139   7.743   3.681   2.881 -0.3557 -0.4413 -0.4818
  357MOL0     C49140   7.888   3.731   2.915  0.4112 -0.1856  0.1726
  357MOL0     C49141   7.910   3.852   2.826  0.8653  0.7536  0.5770
  357MOL0     C49142   7.966   3.807   2.688  0.4245  0.7069 -0.4978
  357MOL0     C49143   7.991   3.922   2.597 -0.1848  0.1196  0.6751
  357MOL0     C49144   8.107   4.014   2.646 -0.8269  0.9863  0.2732
  357MOL0     N49145   8.224   3.947   2.696 -0.0907 -0.1050  0.5601
  357MOL0     C49146   8.323   3.904   2.610  0.5416 -0.1165  0.6389
  357MOL0     C49147   8.414   3.838   2.682  0.7724 -0.3087 -0.6705
  357MOL0     C49148   8.531   3.763   2.626  0.4787  0.7992  0.0518
  357MOL0     C49149   8.652   3.852   2.636 -0.0889 -0.7786 -1.1327
  357MOL0     C49150   8.711   3.832   2.783  0.0979 -0.4262 -0.5167
  357MOL0     C49151   8.855   3.862   2.797  0.3567  0.3788 -0.3648
  357MOL0     O49152   8.895   3.977   2.714  0.2335  0.8966  0.1535
  357MOL0     C49153   9.022   3.942   2.674 -0.3310 -0.1233  0.3584
  357MOL0     C49154   9.041   3.875   2.556 -0.2323  0.0452 -0.3448
  357MOL0     C49155   9.167   3.821   2.527 -0.1614 -0.5497 -0.1591
  357MOL0     C49156   9.171   3.723   2.416 -0.1928  0.6064 -0.2070
  357MOL0     C49157   9.281   3.840   2.618  0.1628 -0.3866  0.5571
  357MOL0     C49158   9.414   3.769   2.615 -0.6105  0.2810  0.2876
  357MOL0     O49159   9.477   3.759   2.738 -0.3345  0.2577  0.6959
  357MOL0     C49160   9.606   3.708   2.760 -0.1643  0.0645  0.9473
  357MOL0     C49161   9.656   3.604   2.687  0.2076  0.2861 -1.1512
  357MOL0     C49162   9.784   3.556   2.721  0.0343 -0.7278  0.0872
  357MOL0     C49163   9.848   3.605   2.837 -1.1229 -0.0596 -0.1149
  357MOL0     O49164   9.973   3.560   2.885  0.3540  0.2683 -0.2454
  357MOL0     C49165  10.071   3.509   2.787 -0.0154  0.6454  0.1014
  357MOL0     C49166  10.207   3.482   2.852 -0.5734 -0.0962  0.2579
  357MOL0     C49167  10.248   3.586   2.959 -0.6048 -0.1114 -0.2828
  357MOL0     C49168  10.350   3.530   3.052  0.5902 -0.0074 -0.4397
  357MOL0     C49169  10.400   3.641   3.147  0.5423  0.0893  0.1907
  357MOL0     C49170  10.513   3.592   3.236  0.1800 -0.4493  0.8562
  357MOL0     C49171  10.656   3.597   3.182 -0.2010 -0.3394  0.2043
  357MOL0     C49172  10.742   3.521   3.289  0.4808 -0.4132 -0.1214
  357MOL0    Cl49173  10.746   3.605   3.449  0.5564 -0.0500  0.0485
  357MOL0     C49174   9.787   3.702   2.916 -0.6961  1.0125 -0.6327
  357MOL0     C49175   9.670   3.757   2.878 -1.1822 -0.1648  0.1131
  357MOL0     O49176   9.459   3.737   2.501 -0.5980  0.3004 -0.2507
  357MOL0     C49177   9.254   3.924   2.728 -0.1789 -0.4624  0.9897
  357MOL0     C49178   9.127   3.970   2.759  0.3452 -0.1786 -0.7774
  357MOL0     N49179   8.363   3.836   2.810 -0.8218  0.0708 -0.4815
  357MOL0     N49180   8.252   3.906   2.817  0.7420 -0.2314 -1.1800
  357MOL0     C49181   7.340   3.336   2.789 -0.1022  1.4185  1.0224
  357MOL0     C49182   7.226   3.297   2.730  0.9641  0.0053  0.1915
  357MOL0     C49183   6.822   3.224   2.560 -0.2151 -1.1843  0.1707
  357MOL0     C49184   6.712   3.314   2.592  0.3351 -0.4155  0.7812
  357MOL0     C49185   6.580   3.272   2.602  0.2629  0.3301 -0.3863
  357MOL0     C49186   6.550   3.146   2.565 -0.6811 -0.3412 -0.2038
  357MOL0     O49187   6.424   3.094   2.586 -0.3124  0.0136  0.5324
  357MOL0     C49188   6.309   3.178   2.617 -0.1458  0.1414 -0.0774
  357MOL0     C49189   6.190   3.076   2.593  0.2410 -0.2445 -0.2643
  357MOL0     C49190   6.073   3.131   2.675 -0.3564  0.6987  0.3616
  357MOL0     C49191   5.970   3.027   2.683  0.0047  0.1688 -0.4986
  357MOL0     C49192   5.926   2.988   2.554  0.3939  0.8441  0.2592
  357MOL0     C49193   5.881   2.923   2.457 -0.0984 -0.1247  0.1096
  357MOL0     C49194   6.657   3.063   2.514  0.2237  0.5703 -0.1841
  357MOL0     C49195   6.795   3.100   2.507 -0.2380 -0.9425 -0.0094
  357MOL0     C49196   6.907   3.001   2.471  0.5437 -0.2515  0.4248
  357MOL0     H49197   7.033   3.563   2.816 -0.5860  0.1801 -0.4044
  357MOL0     H49198   7.257   3.629   2.926 -0.5961 -2.2432  2.4820
  357MOL0     H49199   7.594   3.513   2.752  0.4828  1.4211  0.4141
  357MOL0     H49200   7.604   3.361   2.850 -1.2999 -0.6016  0.0874
  357MOL0     H49201   7.687   3.547   3.034  3.0314  1.8177 -0.2179
  357MOL0     H49202   7.807   3.481   2.920  2.5022  1.8180 -0.5123
  357MOL0     H49203   7.725   3.697   2.774 -3.5548  0.5362  0.1231
  357MOL0     H49204   7.693   3.751   2.948 -0.5565 -2.1626  1.2455
  357MOL0     H49205   7.897   3.764   3.019  1.5478 -1.3453  0.4741
  357MOL0     H49206   7.972   3.661   2.904 -0.0298 -0.8180  0.7500
  357MOL0     H49207   7.974   3.922   2.880  0.2653  0.0041  2.3114
  357MOL0     H49208   7.817   3.906   2.807  1.4217  1.3247 -0.6616
  357MOL0     H49209   8.060   3.752   2.698  0.0741  0.4810  2.5643
  357MOL0     H49210   7.887   3.742   2.648  0.3880  0.2864  0.2349
  357MOL0     H49211   7.901   3.981   2.580 -1.6991 -1.6007  2.3528
  357MOL0     H49212   8.013   3.882   2.497 -2.8685  0.0323  0.0467
  357MOL0     H49213   8.145   4.079   2.568  1.6449 -1.2066 -0.4724
  357MOL0     H49214   8.058   4.079   2.719 -0.9539  0.0756  1.0268
  357MOL0     H49215   8.321   3.937   2.507  0.6462  1.2723  1.0628
  357MOL0     H49216   8.507   3.740   2.522 -0.8971  0.6569  0.3739
  357MOL0     H49217   8.546   3.660   2.658  0.3354 -0.0173 -2.2934
  357MOL0     H49218   8.733   3.828   2.566  2.4787  0.4744  1.1981
  357MOL0     H49219   8.622   3.955   2.616  1.5687 -0.2000 -0.8393
  357MOL0     H49220   8.663   3.903   2.851  0.1609 -1.2416  0.4007
  357MOL0     H49221   8.686   3.731   2.816  0.5904 -0.2186  0.5446
  357MOL0     H49222   8.867   3.873   2.905  2.1909 -0.0620 -0.4917
  357MOL0     H49223   8.913   3.771   2.776 -0.6175 -1.2059  3.0237
  357MOL0     H49224   8.955   3.851   2.495 -0.5532  0.1889  0.0462
  357MOL0     H49225   9.081   3.719   2.354 -0.6387  0.1386  0.4615
  357MOL0     H49226   9.193   3.621   2.449 -2.3124  0.2097  0.0953
  357MOL0     H49227   9.264   3.751   2.364  1.3406 -3.3168  0.1209
  357MOL0     H49228   9.606   3.565   2.599 -0.0719 -2.9350  0.2846
  357MOL0     H49229   9.829   3.484   2.654  0.6245 -0.3412  0.0589
  357MOL0     H49230  10.042   3.407   2.760  0.4219  0.2111  1.1977
  357MOL0     H49231  10.080   3.577   2.702  1.1811  0.7431  0.2855
  357MOL0     H49232  10.216   3.386   2.904 -0.9788 -0.4865 -0.3689
  357MOL0     H49233  10.278   3.483   2.768  1.0617  1.1497  1.5991
  357MOL0     H49234  10.163   3.611   3.023  0.8712 -1.1908  2.2357
  357MOL0     H49235  10.292   3.679   2.923 -1.6344  0.1583 -0.8788
  357MOL0     H49236  10.427   3.494   2.984 -2.2206 -0.8814 -3.4540
  357MOL0     H49237  10.308   3.458   3.124  0.5920  3.9752  4.0475
  357MOL0     H49238  10.432   3.727   3.088  0.4192 -1.9080 -3.0330
  357MOL0     H49239  10.321   3.665   3.218  2.4450  0.3972  2.3094
  357MOL0     H49240  10.490   3.489   3.264  0.8469 -1.5811 -2.2871
  357MOL0     H49241  10.512   3.643   3.333 -1.0885 -1.9467  1.6798
  357MOL0     H49242  10.692   3.701   3.180  1.9038 -0.9489 -3.8052
  357MOL0     H49243  10.643   3.550   3.085 -4.1228  2.1035 -0.6751
  357MOL0     H49244  10.844   3.529   3.251  0.5413  0.8150  0.2574
  357MOL0     H49245  10.717   3.415   3.298 -2.6086  0.2187 -0.0737
  357MOL0     H49246   9.837   3.727   3.009  0.5604 -1.1609 -0.6604
  357MOL0     H49247   9.611   3.822   2.942 -0.9809 -0.9914  1.1675
  357MOL0     H49248   9.338   3.937   2.795 -0.1268 -1.4985  1.1455
  357MOL0     H49249   9.111   4.037   2.843 -0.1573  1.1495 -1.8831
  357MOL0     H49250   7.434   3.281   2.784 -2.0512 -2.3294  1.6896
  357MOL0     H49251   7.209   3.209   2.669 -1.4744  2.2662 -2.7486
  357MOL0     H49252   6.731   3.418   2.618 -2.5136 -0.0409  1.7250
  357MOL0     H49253   6.507   3.343   2.640 -1.5053 -1.8434  0.4839
  357MOL0     H49254   6.316   3.210   2.721 -3.4346 -1.7293  0.8783
  357MOL0     H49255   6.308   3.256   2.540  0.0164 -0.9326 -1.2029
  357MOL0     H49256   6.206   2.982   2.647 -0.0200  1.1479  2.3928
  357MOL0     H49257   6.180   3.062   2.485  0.4324  0.9743 -0.4490
  357MOL0     H49258   6.103   3.167   2.774  0.7861 -0.5646  0.4888
  357MOL0     H49259   6.032   3.212   2.613  0.2932 -0.2432 -1.3528
  357MOL0     H49260   5.895   3.050   2.759  0.7317 -1.6935  0.8628
  357MOL0     H49261   6.013   2.937   2.727 -0.3302 -0.2972 -1.1230
  357MOL0     H49262   5.826   2.857   2.394  1.7433 -3.1628  1.4873
  357MOL0     H49263   6.619   2.970   2.472  0.3729  0.3439  0.1783
  357MOL0     H49264   6.942   3.022   2.370 -0.0488 -1.5061 -0.0558
  357MOL0     H49265   6.992   3.021   2.537  0.0338 -0.4873  1.1725
  357MOL0     H49266   6.878   2.896   2.473  0.6079 -0.2737  0.1935
  358MOL0     O49267   2.833   5.642   7.781  0.2945 -0.4581 -0.8151
  358MOL0     C49268   2.877   5.582   7.685 -0.0978  0.5201  0.1505
  358MOL0     O49269   3.013   5.551   7.655 -0.4449 -0.6281 -1.3484
  358MOL0     C49270   3.113   5.592   7.743 -0.1507  0.6640 -0.2271
  358MOL0     C49271   3.214   5.505   7.796 -0.3717  0.3486  0.6877
  358MOL0     C49272   3.317   5.554   7.880 -0.0618 -0.0032 -0.7744
  358MOL0     C49273   3.311   5.689   7.926  0.5122 -0.1536 -0.3432
  358MOL0     O49274   3.393   5.721   8.029 -0.1994  0.1789 -0.6278
  358MOL0     C49275   3.369   5.844   8.098 -0.3931  0.1419 -0.1205
  358MOL0     C49276   3.458   5.847   8.220 -0.2898  0.4437 -0.4740
  358MOL0     C49277   3.439   5.733   8.322  0.1256  0.4906  0.0263
  358MOL0     C49278   3.296   5.738   8.383 -0.4143 -0.5494  0.2372
  358MOL0     C49279   3.287   5.641   8.498 -0.6444  0.3647  0.5530
  358MOL0     C49280   3.291   5.507   8.455  1.0745 -0.0329 -0.1126
  358MOL0     C49281   3.255   5.419   8.581 -0.0442  0.0973  0.0608
  358MOL0     C49282   3.289   5.273   8.567 -0.2184 -0.1285  0.7506
  358MOL0     N49283   3.425   5.235   8.584  0.8266  0.1140 -0.0224
  358MOL0     C49284   3.511   5.207   8.482  0.5306 -0.0197 -0.6627
  358MOL0     C49285   3.618   5.159   8.540  0.2548 -0.5368 -0.0238
  358MOL0     C49286   3.741   5.123   8.461 -0.9002 -0.1275  0.4173
  358MOL0     C49287   3.863   5.103   8.554 -0.2071 -0.1328 -0.7126
  358MOL0     C49288   3.886   5.237   8.624 -0.8330 -0.1766  0.2152
  358MOL0     C49289   4.027   5.254   8.677 -0.5164  0.2411  0.1542
  358MOL0     O49290   4.077   5.141   8.747 -0.1243 -0.3018  0.3418
  358MOL0     C49291   4.170   5.169   8.853  0.3799  0.5345 -0.0673
  358MOL0     C49292   4.181   5.066   8.941 -0.7864  0.4357 -0.4123
  358MOL0     C49293   4.268   5.077   9.048  0.8254  0.1546  0.1581
  358MOL0     C49294   4.281   4.957   9.133 -0.7315 -0.2987 -0.0701
  358MOL0     C49295   4.334   5.200   9.069  0.8880 -0.1366  0.3920
  358MOL0     C49296   4.413   5.230   9.195  0.1549 -0.4408 -0.5165
  358MOL0     O49297   4.358   5.193   9.315 -0.6324 -0.1216 -0.6163
  358MOL0     C49298   4.417   5.212   9.441  0.1231 -0.2385 -0.3849
  358MOL0     C49299   4.344   5.165   9.548 -0.3001 -0.1039 -0.1459
  358MOL0     C49300   4.394   5.168   9.675  0.1677 -0.0669 -0.5554
  358MOL0     C49301   4.520   5.222   9.705 -0.7799  0.0792 -0.1325
  358MOL0     O49302   4.570   5.246   9.833  0.3599  0.7788  0.1878
  358MOL0     C49303   4.472   5.296   9.929 -0.8246 -0.0182  0.0783
  358MOL0     C49304   4.556   5.342  10.044  0.1187 -0.0354 -0.0528
  358MOL0     C49305   4.627   5.475  10.021  0.0001  0.2878  0.7743
  358MOL0     C49306   4.722   5.500  10.135  0.0896 -0.1527  0.7585
  358MOL0     C49307   4.792   5.635  10.131  0.2814  0.3642 -1.2626
  358MOL0     C49308   4.895   5.644  10.251 -0.8508  0.1308 -0.3425
  358MOL0     C49309   4.845   5.647  10.397  0.0718 -0.4049  0.3851
  358MOL0     C49310   4.943   5.667  10.504 -0.3736 -0.6917 -0.1141
  358MOL0    Cl49311   4.873   5.699  10.665  0.0671 -0.0833 -0.6567
  358MOL0     C49312   4.594   5.272   9.599  0.2865  0.4507 -0.8760
  358MOL0     C49313   4.546   5.256   9.467 -0.6533 -0.5387  0.0210
  358MOL0     O49314   4.512   5.302   9.178 -1.0290 -0.2078  0.1390
  358MOL0     C49315   4.330   5.298   8.968  0.0405  0.5165 -0.0607
  358MOL0     C49316   4.246   5.276   8.859  0.3973 -1.0188 -0.6789
  358MOL0     N49317   3.612   5.151   8.677 -0.4146 -0.2550  0.6684
  358MOL0     N49318   3.489   5.192   8.699  0.4945 -0.0442 -0.4908
  358MOL0     C49319   3.215   5.779   7.870 -0.2097  0.3164 -0.1492
  358MOL0     C49320   3.124   5.729   7.787  0.7612  1.2689  0.0480
  358MOL0     C49321   2.790   5.531   7.574 -0.1009  0.2750 -0.1800
  358MOL0     C49322   2.834   5.430   7.494 -0.0020  0.4795  0.0224
  358MOL0     C49323   2.747   5.370   7.400  0.2489  0.0068  1.0655
  358MOL0     C49324   2.611   5.396   7.410 -0.7270 -0.4387 -0.0862
  358MOL0     O49325   2.509   5.319   7.355 -0.2736 -0.2242  0.0617
  358MOL0     C49326   2.548   5.189   7.313 -0.2496  0.5856 -0.0996
  358MOL0     C49327   2.425   5.125   7.252 -0.5217 -0.8879  0.0547
  358MOL0     C49328   2.459   5.022   7.148 -0.3338  0.1961  0.1691
  358MOL0     C49329   2.335   4.937   7.105 -0.1414  0.1451  0.6033
  358MOL0     C49330   2.343   4.882   6.966  0.4632  0.7915 -0.2401
  358MOL0     C49331   2.325   4.821   6.862 -0.2943 -0.1376  0.0855
  358MOL0     C49332   2.570   5.509   7.476 -0.3430  0.0983 -0.2739
  358MOL0     C49333   2.663   5.585   7.550 -0.6763 -0.7808  0.9260
  358MOL0     C49334   2.614   5.716   7.605  0.1760  0.5636 -0.3087
  358MOL0     H49335   3.218   5.401   7.765 -2.8457 -0.3522  2.4139
  358MOL0     H49336   3.391   5.482   7.914 -2.1418 -1.1983  1.4667
  358MOL0     H49337   3.264   5.861   8.125  0.2227  2.7581  0.9358
  358MOL0     H49338   3.386   5.926   8.028 -0.9391  0.5804  0.2508
  358MOL0     H49339   3.558   5.832   8.177 -1.3614 -2.5325 -2.2405
  358MOL0     H49340   3.456   5.937   8.281  3.6409  0.2319  0.2022
  358MOL0     H49341   3.446   5.634   8.275 -2.7374  0.0146  0.4231
  358MOL0     H49342   3.520   5.735   8.395  1.0260 -0.6088 -0.8956
  358MOL0     H49343   3.279   5.839   8.420 -2.1088 -0.7389  0.0191
  358MOL0     H49344   3.224   5.722   8.303 -0.1552  3.2387 -0.9794
  358MOL0     H49345   3.199   5.667   8.556 -0.2364 -0.0475  1.3909
  358MOL0     H49346   3.369   5.643   8.571 -2.0183 -2.1631  2.3338
  358MOL0     H49347   3.208   5.497   8.384 -3.9654  1.7414  4.7861
  358MOL0     H49348   3.388   5.482   8.411  0.4445 -0.6137 -1.2160
  358MOL0     H49349   3.149   5.431   8.604  0.2188  1.1727  0.7749
  358MOL0     H49350   3.318   5.439   8.669  0.8673 -3.4179  0.3813
  358MOL0     H49351   3.240   5.221   8.650  2.9678 -1.3692  2.0438
  358MOL0     H49352   3.256   5.232   8.471  1.5940  1.4553 -0.6346
  358MOL0     H49353   3.484   5.215   8.377 -1.3279  0.2962 -0.2040
  358MOL0     H49354   3.765   5.210   8.399  3.1170 -1.7850 -0.6785
  358MOL0     H49355   3.730   5.039   8.391  1.4757  0.8677 -1.2616
  358MOL0     H49356   3.856   5.022   8.626  2.9017  0.8941  0.9250
  358MOL0     H49357   3.955   5.092   8.496  0.5876 -0.6493  0.5960
  358MOL0     H49358   3.870   5.319   8.554 -2.7477  0.5495  1.4309
  358MOL0     H49359   3.810   5.257   8.700 -1.3914  2.3669 -0.9127
  358MOL0     H49360   4.097   5.292   8.603 -0.9738 -0.6942 -0.7896
  358MOL0     H49361   4.013   5.337   8.748  0.8718  1.1852 -0.6334
  358MOL0     H49362   4.120   4.977   8.936 -0.4189  0.2698 -2.7064
  358MOL0     H49363   4.233   4.989   9.227 -2.2472  1.1825 -1.2837
  358MOL0     H49364   4.386   4.931   9.149 -1.1847 -2.3712 -0.2065
  358MOL0     H49365   4.230   4.866   9.100  1.9289 -2.2857  0.9259
  358MOL0     H49366   4.243   5.126   9.535 -0.1818 -1.5214  2.4428
  358MOL0     H49367   4.339   5.120   9.755  0.8170 -0.2601 -0.2141
  358MOL0     H49368   4.419   5.382   9.885  2.9533  1.6475 -1.6828
  358MOL0     H49369   4.419   5.205   9.958 -0.0152  0.5459  3.8098
  358MOL0     H49370   4.492   5.359  10.132 -1.5631  1.9493 -1.5409
  358MOL0     H49371   4.624   5.259  10.062 -0.8706 -0.6282  1.1817
  358MOL0     H49372   4.564   5.563  10.007  1.2288  1.2542  1.1969
  358MOL0     H49373   4.688   5.467   9.931  0.9204  1.8092  1.2392
  358MOL0     H49374   4.805   5.428  10.135  1.7505  1.5634  3.6504
  358MOL0     H49375   4.673   5.494  10.232  1.3334  1.0571  1.5025
  358MOL0     H49376   4.850   5.643  10.039  1.6412 -2.7802 -0.8388
  358MOL0     H49377   4.722   5.719  10.139 -1.5242 -1.2184  0.9853
  358MOL0     H49378   4.947   5.739  10.235  1.1163 -1.0526 -1.3084
  358MOL0     H49379   4.972   5.568  10.234 -0.7020  0.3775 -0.7944
  358MOL0     H49380   4.790   5.554  10.413 -2.0184  0.6403 -0.4092
  358MOL0     H49381   4.762   5.718  10.399 -0.9478 -1.2992 -3.1614
  358MOL0     H49382   5.005   5.749  10.466 -2.8009 -0.0727 -3.0880
  358MOL0     H49383   4.996   5.572  10.519 -2.5875 -1.8260  1.1950
  358MOL0     H49384   4.685   5.329   9.613  1.0251 -0.5381 -1.5791
  358MOL0     H49385   4.604   5.300   9.387 -4.4123  1.9488 -1.6336
  358MOL0     H49386   4.379   5.394   8.963  0.4116  0.2944 -0.8357
  358MOL0     H49387   4.226   5.347   8.780  0.8870 -0.7899 -0.5997
  358MOL0     H49388   3.204   5.885   7.891 -1.0597  0.1750  0.1742
  358MOL0     H49389   3.049   5.798   7.751 -0.6206  0.1029  0.6107
  358MOL0     H49390   2.936   5.391   7.497  0.2536  1.1455  0.0316
  358MOL0     H49391   2.792   5.292   7.340 -2.5115 -0.5963 -0.3977
  358MOL0     H49392   2.621   5.195   7.232  1.6190 -0.9700  1.3955
  358MOL0     H49393   2.584   5.119   7.388  3.3446  1.2263 -1.0634
  358MOL0     H49394   2.373   5.202   7.194  2.0685  0.9646 -0.0178
  358MOL0     H49395   2.355   5.088   7.327 -0.8587 -1.3499 -0.4773
  358MOL0     H49396   2.493   5.077   7.059  0.2822  4.1438  2.5848
  358MOL0     H49397   2.543   4.959   7.178 -1.6129 -1.8928 -0.4204
  358MOL0     H49398   2.243   4.997   7.107 -3.5690 -4.5169  1.3545
  358MOL0     H49399   2.309   4.859   7.177  2.2224 -0.0678  1.2856
  358MOL0     H49400   2.323   4.765   6.771  2.5410 -0.3688  0.0522
  358MOL0     H49401   2.468   5.547   7.474 -0.5730 -0.5054 -0.2915
  358MOL0     H49402   2.545   5.774   7.544  0.7365  1.5121 -0.0604
  358MOL0     H49403   2.569   5.693   7.701  2.9413  1.7879  1.4055
  358MOL0     H49404   2.695   5.784   7.632 -1.5980  2.3571  0.7338
  359MOL0     O49405   6.817   5.392   9.595  0.6152  0.3907  0.4696
  359MOL0     C49406   6.936   5.400   9.571 -0.1709  0.2374  0.2286
  359MOL0     O49407   7.041   5.355   9.665 -0.0654  0.0895 -0.8248
  359MOL0     C49408   6.991   5.269   9.756  0.2218  0.1773  1.0415
  359MOL0     C49409   7.003   5.307   9.886 -0.8827  1.0579 -0.2632
  359MOL0     C49410   6.946   5.221   9.988 -0.4870  0.9181  0.2256
  359MOL0     C49411   6.879   5.099   9.957 -0.1306 -0.6741 -0.1589
  359MOL0     O49412   6.817   5.013  10.043  0.5172  0.0012 -0.5270
  359MOL0     C49413   6.884   4.996  10.171  0.9537  0.2235  0.5806
  359MOL0     C49414   7.017   4.918  10.153  0.4597 -0.5995  0.6305
  359MOL0     C49415   7.085   4.864  10.274 -0.4288  1.1468 -0.5146
  359MOL0     C49416   7.165   4.961  10.360  0.0225  0.4069 -0.4989
  359MOL0     C49417   7.210   4.896  10.496 -0.4434 -0.0300  0.2669
  359MOL0     C49418   7.311   4.982  10.576  0.9502  0.4067  0.3206
  359MOL0     C49419   7.352   4.915  10.717 -0.4431  0.4767  0.0481
  359MOL0     C49420   7.399   4.776  10.691 -0.2360  1.3224  0.0520
  359MOL0     N49421   7.495   4.742  10.797 -0.1791  0.7591  0.2302
  359MOL0     C49422   7.628   4.788  10.805 -0.7089  0.2125 -0.4154
  359MOL0     C49423   7.678   4.756  10.930 -0.1184 -0.8168 -0.1270
  359MOL0     C49424   7.803   4.816  10.988  0.0003 -0.5289 -0.6138
  359MOL0     C49425   7.912   4.717  10.974 -0.1182  0.2325  0.2360
  359MOL0     C49426   8.039   4.778  11.024 -0.1700  0.9123  0.0683
  359MOL0     C49427   8.152   4.668  11.059  0.0639  0.3232 -0.0800
  359MOL0     O49428   8.151   4.569  10.960 -0.4686  0.6727 -0.3775
  359MOL0     C49429   8.242   4.468  10.952  0.4042 -0.3017 -0.0571
  359MOL0     C49430   8.339   4.450  11.048 -0.1502  0.0745 -0.2246
  359MOL0     C49431   8.428   4.340  11.040 -0.0512  0.4135 -0.3253
  359MOL0     C49432   8.521   4.313  11.152 -0.2704 -0.2053  0.3366
  359MOL0     C49433   8.420   4.260  10.920 -0.7829 -0.2037 -0.2920
  359MOL0     C49434   8.518   4.142  10.897  0.1661  1.0635  0.5415
  359MOL0     O49435   8.510   4.082  10.774  0.2242 -0.1279  0.5963
  359MOL0     C49436   8.549   3.945  10.763  0.1717  1.7016 -0.4392
  359MOL0     C49437   8.458   3.832  10.778 -0.2376 -0.0786 -0.2263
  359MOL0     C49438   8.499   3.700  10.788  0.0877  0.8287  0.1651
  359MOL0     C49439   8.637   3.677  10.782  0.3438  1.0352 -0.2068
  359MOL0     O49440   8.672   3.539  10.789  0.5052 -0.0983 -0.7891
  359MOL0     C49441   8.807   3.506  10.792 -0.6317 -0.3703 -0.1588
  359MOL0     C49442   8.832   3.357  10.760  0.0473  0.2144  0.3039
  359MOL0     C49443   8.961   3.308  10.824 -0.1372 -0.0770  0.4320
  359MOL0     C49444   9.074   3.367  10.737 -0.3309 -0.1128  0.4678
  359MOL0     C49445   9.218   3.331  10.782  0.7572  0.3899 -0.0382
  359MOL0     C49446   9.307   3.420  10.690  0.0139  0.0027  0.3449
  359MOL0     C49447   9.456   3.430  10.746  0.2152 -0.6154  1.1461
  359MOL0     C49448   9.519   3.296  10.765  0.4601  0.0192 -0.2385
  359MOL0    Cl49449   9.559   3.234  10.605 -0.0118  0.4072 -0.3404
  359MOL0     C49450   8.726   3.780  10.786 -0.7149 -0.2836  0.0159
  359MOL0     C49451   8.685   3.915  10.778 -0.4634 -0.3932  0.1635
  359MOL0     O49452   8.557   4.087  10.999 -0.5613 -0.8033  0.1163
  359MOL0     C49453   8.325   4.283  10.826  0.5797  0.0551  0.4992
  359MOL0     C49454   8.241   4.388  10.842  0.7213  0.8739 -0.6220
  359MOL0     N49455   7.569   4.696  10.998 -0.6489 -0.2818  0.4318
  359MOL0     N49456   7.464   4.689  10.923 -0.2809  0.4131  0.3113
  359MOL0     C49457   6.870   5.072   9.826  0.0070  1.0112  0.4629
  359MOL0     C49458   6.923   5.151   9.722  0.1116 -0.1181  0.4232
  359MOL0     C49459   6.981   5.490   9.464 -1.4595  0.2950 -0.8017
  359MOL0     C49460   7.120   5.529   9.458  0.0739  0.3289  0.4891
  359MOL0     C49461   7.172   5.617   9.371 -0.1632 -0.0790 -0.0275
  359MOL0     C49462   7.086   5.676   9.276 -1.0955 -0.1182 -0.5439
  359MOL0     O49463   7.154   5.752   9.182 -0.6064 -0.4747 -0.3212
  359MOL0     C49464   7.087   5.813   9.070 -0.2949 -0.2441 -0.2626
  359MOL0     C49465   7.197   5.850   8.967  0.3297 -1.1074  1.2798
  359MOL0     C49466   7.250   5.990   8.995 -0.7249  0.5099 -0.9684
  359MOL0     C49467   7.380   6.014   8.904 -0.2658 -0.1730 -0.5203
  359MOL0     C49468   7.440   6.143   8.940 -1.0351 -0.7384 -0.3215
  359MOL0     C49469   7.475   6.252   8.976  0.3862  0.4273 -0.3013
  359MOL0     C49470   6.957   5.634   9.264  0.4593 -0.5933  0.0601
  359MOL0     C49471   6.898   5.553   9.366 -0.0078  0.0778 -0.2975
  359MOL0     C49472   6.756   5.538   9.367  0.4694  0.5077  0.4063
  359MOL0     H49473   7.053   5.401   9.910 -1.0652  1.4265 -1.2595
  359MOL0     H49474   6.966   5.251  10.090  1.3044 -1.3621  0.6449
  359MOL0     H49475   6.814   4.942  10.237 -2.8063  0.8151 -2.5615
  359MOL0     H49476   6.909   5.094  10.214  1.3109  0.9026 -1.1117
  359MOL0     H49477   6.991   4.829  10.094 -0.5620  0.3005 -0.3177
  359MOL0     H49478   7.086   4.984  10.100 -1.0361  1.6725  1.4080
  359MOL0     H49479   7.013   4.811  10.338  3.5585 -2.5184  1.4505
  359MOL0     H49480   7.142   4.777  10.240  0.3770  1.3157  0.3699
  359MOL0     H49481   7.251   5.002  10.305  0.9816 -1.9159 -0.8600
  359MOL0     H49482   7.101   5.048  10.375 -0.8806 -0.6153  1.9757
  359MOL0     H49483   7.240   4.791  10.482 -0.3140  0.2052 -1.5051
  359MOL0     H49484   7.127   4.895  10.567  0.4569 -1.3735  1.3506
  359MOL0     H49485   7.395   5.002  10.509  0.0805  4.4619  0.1865
  359MOL0     H49486   7.261   5.076  10.598 -0.9812 -0.1227 -1.5843
  359MOL0     H49487   7.267   4.919  10.785 -1.5059  0.8707 -1.2653
  359MOL0     H49488   7.430   4.968  10.773 -1.3838 -0.4427  2.3671
  359MOL0     H49489   7.319   4.702  10.700  1.6890 -0.9904 -0.8400
  359MOL0     H49490   7.459   4.767  10.599  1.7515  0.0158  1.3954
  359MOL0     H49491   7.678   4.844  10.726 -0.0271  2.5602  1.5551
  359MOL0     H49492   7.796   4.843  11.094  0.8041 -0.2081 -0.6315
  359MOL0     H49493   7.817   4.909  10.931 -2.5398  0.8962  0.9230
  359MOL0     H49494   7.875   4.641  11.043  2.3343 -1.3230 -0.0515
  359MOL0     H49495   7.930   4.684  10.872 -0.1062  0.8920  0.0214
  359MOL0     H49496   8.075   4.846  10.946 -0.6829 -1.2036 -2.1235
  359MOL0     H49497   8.025   4.835  11.117  2.9429 -0.3605  1.4839
  359MOL0     H49498   8.247   4.723  11.058  0.5117 -0.4418 -1.1544
  359MOL0     H49499   8.142   4.627  11.160 -3.1016 -0.0037 -0.4278
  359MOL0     H49500   8.342   4.503  11.142  1.5914 -2.4084  1.2513
  359MOL0     H49501   8.503   4.218  11.203  0.5467 -0.7084 -0.2954
  359MOL0     H49502   8.504   4.390  11.228 -2.0809 -1.0751  0.8756
  359MOL0     H49503   8.626   4.324  11.122 -0.8714  1.6185 -1.3239
  359MOL0     H49504   8.352   3.840  10.800 -0.3103 -2.2855  0.4490
  359MOL0     H49505   8.416   3.630  10.797 -1.4918  2.2177 -2.4854
  359MOL0     H49506   8.861   3.568  10.720 -2.0870  2.2606  0.8520
  359MOL0     H49507   8.856   3.534  10.886  2.4600 -1.1485 -1.4108
  359MOL0     H49508   8.755   3.291  10.802  2.7125 -2.1009  1.9483
  359MOL0     H49509   8.834   3.341  10.651 -1.3366 -1.6798  0.4959
  359MOL0     H49510   8.965   3.199  10.829 -0.8343 -0.2088 -1.3464
  359MOL0     H49511   8.974   3.347  10.926  1.8471  1.1290 -0.2106
  359MOL0     H49512   9.060   3.474  10.721 -0.7679 -0.2541 -0.1730
  359MOL0     H49513   9.072   3.315  10.641  3.6570  0.2491  0.0302
  359MOL0     H49514   9.224   3.361  10.888 -2.4318  0.9153  0.0881
  359MOL0     H49515   9.231   3.222  10.780 -1.8119 -0.0393  1.7745
  359MOL0     H49516   9.267   3.521  10.703  1.0584  0.2339  2.1800
  359MOL0     H49517   9.307   3.383  10.587 -0.1373 -1.2485  0.7818
  359MOL0     H49518   9.455   3.476  10.845  0.3931  1.2057  0.3463
  359MOL0     H49519   9.508   3.489  10.670 -2.2081 -3.5032 -3.1809
  359MOL0     H49520   9.455   3.228  10.823  0.0653  1.8077  1.5234
  359MOL0     H49521   9.610   3.315  10.823 -0.8850  0.4615  1.8235
  359MOL0     H49522   8.834   3.777  10.788 -0.7338 -1.5196  0.4049
  359MOL0     H49523   8.756   3.997  10.783  0.0681 -0.9207  2.0362
  359MOL0     H49524   8.323   4.218  10.739 -0.3774 -0.6692  1.0432
  359MOL0     H49525   8.181   4.407  10.753  2.0733  2.4589 -1.2644
  359MOL0     H49526   6.823   4.978   9.797  1.0850  0.0547  1.6691
  359MOL0     H49527   6.908   5.106   9.624 -0.5778 -0.9538  0.8960
  359MOL0     H49528   7.196   5.499   9.531  3.0542  1.7900 -1.7924
  359MOL0     H49529   7.279   5.629   9.361 -0.2545  1.7574  0.7371
  359MOL0     H49530   7.031   5.733   9.021  1.9098 -0.6165 -2.3927
  359MOL0     H49531   7.021   5.897   9.092  0.5747 -0.1483  2.3100
  359MOL0     H49532   7.156   5.845   8.866  0.6161  0.7218  1.0346
  359MOL0     H49533   7.286   5.786   8.963  1.0273 -0.1155 -1.4595
  359MOL0     H49534   7.187   6.076   8.970 -0.2331  0.6218 -1.8718
  359MOL0     H49535   7.282   5.993   9.100  0.7601 -0.5600 -1.3554
  359MOL0     H49536   7.349   6.010   8.799  0.1939  5.2391 -1.1562
  359MOL0     H49537   7.463   5.945   8.922  1.0916  1.6283  0.4427
  359MOL0     H49538   7.513   6.347   9.008  1.6257  0.3285 -1.4027
  359MOL0     H49539   6.891   5.675   9.188  0.0585  1.0732  1.2257
  359MOL0     H49540   6.729   5.433   9.354  1.5522 -0.0833  2.5279
  359MOL0     H49541   6.713   5.586   9.456 -0.8035 -1.0562  0.6920
  359MOL0     H49542   6.713   5.602   9.289 -0.9052  0.8037  1.3632
  360MOL0     O49543   1.122   9.863   0.849  0.0529 -0.5923 -0.2981
  360MOL0     C49544   1.129   9.918   0.961 -0.2196  0.3043  0.3885
  360MOL0     O49545   1.041   9.902   1.067 -0.3140  0.4821  0.2097
  360MOL0     C49546   0.959   9.792   1.060 -0.1524  0.4783  0.1321
  360MOL0     C49547   1.003   9.664   1.016 -0.2250  0.1992 -0.4593
  360MOL0     C49548   0.916   9.555   1.033 -0.0495  1.3656  0.1368
  360MOL0     C49549   0.781   9.571   1.072 -0.3991  0.1315  0.1885
  360MOL0     O49550   0.699   9.467   1.105 -0.1668  1.2322 -0.5173
  360MOL0     C49551   0.690   9.359   1.015 -0.4645 -0.3911  0.1179
  360MOL0     C49552   0.547   9.299   1.024 -0.3622 -0.5890 -0.2011
  360MOL0     C49553   0.446   9.397   0.947  1.1145  0.6511 -0.6321
  360MOL0     C49554   0.311   9.323   0.924  0.7709  0.3165 -0.4673
  360MOL0     C49555   0.242   9.295   1.055 -0.3183 -0.1906  0.3717
  360MOL0     C49556   0.100   9.245   1.048  0.2942  0.4648 -0.0091
  360MOL0     C49557   0.051   9.208   1.188  0.5859  1.0303 -0.6148
  360MOL0     C49558  -0.078   9.131   1.182 -0.4841 -0.1515  1.0935
  360MOL0     N49559  -0.200   9.202   1.134 -0.5771  0.7221  0.6104
  360MOL0     C49560  -0.326   9.139   1.153  0.0367 -0.4453  0.3761
  360MOL0     C49561  -0.413   9.234   1.132  0.2671  0.1448 -0.0695
  360MOL0     C49562  -0.554   9.217   1.149  0.2199  0.4088 -0.0850
  360MOL0     C49563  -0.652   9.305   1.065 -0.1648 -0.1365  0.2470
  360MOL0     C49564  -0.802   9.274   1.065  0.3174  0.2853 -0.9935
  360MOL0     C49565  -0.868   9.307   1.192 -0.2336 -0.0721 -1.0353
  360MOL0     O49566  -0.858   9.449   1.231 -0.2716 -0.3717  0.0344
  360MOL0     C49567  -0.931   9.493   1.343  0.1813  0.0400 -0.6911
  360MOL0     C49568  -0.972   9.631   1.357  0.1231 -0.2309 -0.9503
  360MOL0     C49569  -1.056   9.675   1.472 -0.8686 -0.7268  0.6215
  360MOL0     C49570  -1.108   9.816   1.472 -0.2772  0.0522 -0.7236
  360MOL0     C49571  -1.099   9.578   1.564 -0.2244 -0.1226 -0.7084
  360MOL0     C49572  -1.205   9.613   1.668 -0.3171  0.2266  0.1643
  360MOL0     O49573  -1.287   9.511   1.710  0.7490 -0.0487  0.7400
  360MOL0     C49574  -1.399   9.533   1.794 -0.3624 -0.1590  0.7796
  360MOL0     C49575  -1.441   9.643   1.869  0.1302  0.7472  0.0944
  360MOL0     C49576  -1.548   9.640   1.953  0.1128  0.5475 -0.1248
  360MOL0     C49577  -1.642   9.532   1.969 -0.3629  0.1670 -0.7434
  360MOL0     O49578  -1.744   9.530   2.060  0.6017  0.0324  0.5643
  360MOL0     C49579  -1.785   9.397   2.106 -0.5203  0.3386  0.4408
  360MOL0     C49580  -1.890   9.425   2.218  0.2801 -0.7987 -0.1328
  360MOL0     C49581  -1.926   9.290   2.269 -0.7830  0.4935 -0.1302
  360MOL0     C49582  -2.030   9.329   2.385  0.4155  1.2925 -0.2546
  360MOL0     C49583  -2.068   9.202   2.465  0.4312 -0.6562 -0.1510
  360MOL0     C49584  -2.177   9.129   2.398  0.3776 -0.7531  0.0358
  360MOL0     C49585  -2.207   9.010   2.480 -0.0340 -0.1930  0.0328
  360MOL0     C49586  -2.341   8.957   2.436 -0.1381  0.3860 -0.9029
  360MOL0    Cl49587  -2.481   9.039   2.502 -0.4288 -0.0163 -0.2505
  360MOL0     C49588  -1.612   9.419   1.891 -0.8308 -0.6864 -0.8287
  360MOL0     C49589  -1.488   9.415   1.816  0.9729  0.7843 -0.1933
  360MOL0     O49590  -1.191   9.717   1.729  0.1401  0.3911  1.6022
  360MOL0     C49591  -1.064   9.443   1.547  0.1569 -0.4499  0.3122
  360MOL0     C49592  -0.969   9.407   1.450 -0.5237  0.7377  0.1965
  360MOL0     N49593  -0.339   9.352   1.116 -0.0304  0.7452 -0.0438
  360MOL0     N49594  -0.220   9.337   1.125  0.5295  0.7505 -0.1925
  360MOL0     C49595   0.746   9.706   1.108  0.6510  0.5520 -0.2478
  360MOL0     C49596   0.827   9.817   1.106 -0.1304 -0.7721 -0.1307
  360MOL0     C49597   1.232  10.014   0.995 -0.0481  0.3305 -0.7109
  360MOL0     C49598   1.228  10.084   1.119 -0.1498  0.0697  0.4819
  360MOL0     C49599   1.337  10.162   1.173  0.4491 -0.7867  0.3338
  360MOL0     C49600   1.449  10.177   1.089  0.1178  0.0470  0.3496
  360MOL0     O49601   1.561  10.245   1.116 -1.2357  0.2756 -0.3096
  360MOL0     C49602   1.596  10.271   1.254  0.0257 -0.1692  0.3726
  360MOL0     C49603   1.749  10.290   1.275 -0.9648 -0.9112 -0.3594
  360MOL0     C49604   1.825  10.390   1.195  0.3412 -0.3018  0.2778
  360MOL0     C49605   1.970  10.398   1.230  0.3200  1.1018  0.4660
  360MOL0     C49606   2.050  10.474   1.129  0.1349  0.0708 -0.0431
  360MOL0     C49607   2.127  10.536   1.061  0.1120 -0.1219  0.5029
  360MOL0     C49608   1.449  10.123   0.961 -0.4090 -0.6055 -1.0336
  360MOL0     C49609   1.335  10.056   0.906  0.1404  0.1503  0.5077
  360MOL0     C49610   1.337  10.024   0.755 -0.2473 -0.0030 -0.9267
  360MOL0     H49611   1.105   9.650   0.984 -0.3003 -1.7269  0.0164
  360MOL0     H49612   0.936   9.449   1.040  0.9817  1.6506  2.2773
  360MOL0     H49613   0.763   9.281   1.037  1.3717  0.5824 -2.0875
  360MOL0     H49614   0.709   9.394   0.913 -0.4291 -0.2871  0.1598
  360MOL0     H49615   0.553   9.200   0.977  2.2976 -1.3768  1.5223
  360MOL0     H49616   0.516   9.292   1.129  2.3637  2.0491  0.9360
  360MOL0     H49617   0.430   9.487   1.008 -1.0596 -0.0927 -0.0032
  360MOL0     H49618   0.482   9.432   0.849  1.1518  1.5819 -0.2961
  360MOL0     H49619   0.244   9.380   0.859 -1.4043  0.9335  2.1486
  360MOL0     H49620   0.340   9.226   0.882  0.3137  0.2502 -0.6290
  360MOL0     H49621   0.259   9.380   1.121 -0.0813  1.2647 -1.4836
  360MOL0     H49622   0.304   9.216   1.100  2.0212  1.4953  0.2904
  360MOL0     H49623   0.024   9.316   1.013 -0.2787  1.1241  2.3718
  360MOL0     H49624   0.105   9.158   0.983 -2.5358  0.9732 -1.0267
  360MOL0     H49625   0.049   9.295   1.253 -0.0471  0.2771  0.3967
  360MOL0     H49626   0.123   9.134   1.224 -1.5759 -0.9011  0.0117
  360MOL0     H49627  -0.064   9.039   1.125 -0.9972  1.2263 -1.3931
  360MOL0     H49628  -0.109   9.092   1.280  0.2317 -0.8798  1.0470
  360MOL0     H49629  -0.344   9.034   1.176  0.0451  0.2514  4.0784
  360MOL0     H49630  -0.582   9.220   1.255 -1.1242  0.5824 -0.4254
  360MOL0     H49631  -0.589   9.119   1.115  1.1795  0.3778 -1.0065
  360MOL0     H49632  -0.639   9.405   1.108 -1.2904 -0.0657  0.4304
  360MOL0     H49633  -0.616   9.306   0.962 -0.1363 -1.0520  0.2338
  360MOL0     H49634  -0.846   9.346   0.995  0.3985  0.3416 -0.9864
  360MOL0     H49635  -0.826   9.173   1.028 -1.8922 -0.3106  1.6872
  360MOL0     H49636  -0.972   9.277   1.175  0.2363 -4.0206  1.8275
  360MOL0     H49637  -0.836   9.249   1.279  0.1120 -0.2387 -1.2735
  360MOL0     H49638  -0.940   9.703   1.282 -0.9933  0.1798 -1.0561
  360MOL0     H49639  -1.051   9.870   1.397  5.3197 -0.5507  2.5184
  360MOL0     H49640  -1.083   9.868   1.565  0.5650 -1.0603 -0.3014
  360MOL0     H49641  -1.217   9.818   1.472 -0.5386 -1.4862  3.6988
  360MOL0     H49642  -1.382   9.735   1.865  1.8224 -0.3429 -3.0559
  360MOL0     H49643  -1.558   9.730   2.012  1.0091  0.5493  0.0427
  360MOL0     H49644  -1.829   9.336   2.026  3.6249 -0.4032 -1.5148
  360MOL0     H49645  -1.703   9.345   2.156 -1.7394 -1.2795  0.8794
  360MOL0     H49646  -1.848   9.494   2.291 -1.3224  2.1484 -1.7977
  360MOL0     H49647  -1.982   9.468   2.178  0.4647 -1.8744 -1.8209
  360MOL0     H49648  -1.844   9.229   2.308 -0.8814 -0.9524 -2.0490
  360MOL0     H49649  -1.976   9.226   2.195  3.3221 -3.9462  0.4133
  360MOL0     H49650  -2.123   9.370   2.343  0.5507  2.0971  0.2133
  360MOL0     H49651  -1.991   9.398   2.460 -0.5377 -0.3460  1.8627
  360MOL0     H49652  -1.979   9.138   2.463  0.0481 -1.2496  0.8165
  360MOL0     H49653  -2.087   9.221   2.571 -0.0550 -1.4491 -0.0924
  360MOL0     H49654  -2.144   9.101   2.298  0.1064  0.3455 -0.3666
  360MOL0     H49655  -2.265   9.194   2.393 -0.7517 -1.9913  2.0511
  360MOL0     H49656  -2.219   9.037   2.585 -3.3784 -0.3971 -0.1878
  360MOL0     H49657  -2.121   8.943   2.469  1.7184  1.9598 -0.1212
  360MOL0     H49658  -2.335   8.857   2.481  0.9283  0.6482 -0.4493
  360MOL0     H49659  -2.353   8.944   2.328 -2.5942  0.0278 -0.6631
  360MOL0     H49660  -1.673   9.330   1.887 -0.4376 -1.1504  1.7877
  360MOL0     H49661  -1.472   9.327   1.754  1.4692  1.7486 -1.4799
  360MOL0     H49662  -1.100   9.372   1.621  0.7564 -2.0058 -0.8420
  360MOL0     H49663  -0.938   9.303   1.441  1.1765  1.3731 -1.8501
  360MOL0     H49664   0.646   9.714   1.150  1.5172  1.0289  1.8624
  360MOL0     H49665   0.797   9.916   1.139 -0.6839 -1.0385  0.1773
  360MOL0     H49666   1.147  10.073   1.191  0.9023 -2.1813  1.4051
  360MOL0     H49667   1.339  10.207   1.271  1.8063  2.7745 -1.1639
  360MOL0     H49668   1.543  10.360   1.288 -1.0542 -1.5972  2.6356
  360MOL0     H49669   1.573  10.197   1.332  0.3378  0.0208  0.6465
  360MOL0     H49670   1.791  10.189   1.266 -0.1092 -0.4965 -1.2815
  360MOL0     H49671   1.758  10.316   1.381 -2.4964  1.8220 -0.8215
  360MOL0     H49672   1.811  10.363   1.090  1.5674  0.8020 -0.1925
  360MOL0     H49673   1.773  10.485   1.209  1.9668  0.8115 -0.9766
  360MOL0     H49674   2.003  10.294   1.226 -0.6545  0.8174 -1.4399
  360MOL0     H49675   1.989  10.429   1.333 -1.4728 -2.0102  1.8759
  360MOL0     H49676   2.204  10.593   1.013 -1.5038  1.8153  0.0765
  360MOL0     H49677   1.543  10.128   0.907  1.3760 -2.1090  1.6937
  360MOL0     H49678   1.424  10.063   0.701 -0.3206 -1.9398 -2.5812
  360MOL0     H49679   1.342   9.918   0.730  1.3711 -0.3421  0.5902
  360MOL0     H49680   1.242  10.051   0.709  0.6450  0.8645 -2.3271
  361MOL0     O49681  11.002   3.579   8.213  0.0517  0.6483 -0.0500
  361MOL0     C49682  10.961   3.463   8.233 -0.0201 -0.7625 -0.2582
  361MOL0     O49683  11.032   3.359   8.287 -0.2715  0.0233 -0.0323
  361MOL0     C49684  11.172   3.347   8.299  1.1438 -0.1620  0.3543
  361MOL0     C49685  11.222   3.243   8.388  0.7361 -0.8156  0.0631
  361MOL0     C49686  11.356   3.212   8.384 -0.0388  0.1686 -0.3808
  361MOL0     C49687  11.450   3.280   8.306 -0.3802 -0.0293  0.0392
  361MOL0     O49688  11.585   3.261   8.304  0.2802  0.2712 -0.1927
  361MOL0     C49689  11.640   3.190   8.419 -0.6252  0.2901  0.5131
  361MOL0     C49690  11.792   3.199   8.427  0.2186  0.4952 -0.2841
  361MOL0     C49691  11.830   3.344   8.412  0.4268 -0.4304  0.9202
  361MOL0     C49692  11.746   3.453   8.487  0.2478 -0.2905  0.2133
  361MOL0     C49693  11.753   3.446   8.642  0.9974 -1.0221  0.5928
  361MOL0     C49694  11.893   3.459   8.704 -0.2298  0.5267  0.0491
  361MOL0     C49695  11.910   3.457   8.850  0.5913  0.7508  0.0918
  361MOL0     C49696  11.813   3.367   8.933 -0.2512 -0.0291 -0.0301
  361MOL0     N49697  11.847   3.225   8.916  0.3144 -0.3213  0.3425
  361MOL0     C49698  11.915   3.150   9.013  0.2294  0.6551 -0.8050
  361MOL0     C49699  11.900   3.019   8.973  0.0200  0.7811 -0.2445
  361MOL0     C49700  11.936   2.894   9.044 -0.0358  0.2196  0.4758
  361MOL0     C49701  12.087   2.870   9.024  1.2478 -0.0029  0.7687
  361MOL0     C49702  12.178   2.941   9.125  0.0431 -1.0988 -0.0416
  361MOL0     C49703  12.296   3.015   9.056  0.2414 -0.2584  0.5595
  361MOL0     O49704  12.388   2.924   8.989  0.5397  0.5247 -0.0447
  361MOL0     C49705  12.472   2.984   8.901 -0.0797 -0.8387  0.2336
  361MOL0     C49706  12.522   3.120   8.899 -0.1603  0.3269 -0.7415
  361MOL0     C49707  12.590   3.179   8.796 -0.1709  0.4096  1.0605
  361MOL0     C49708  12.639   3.317   8.822 -0.6567 -0.3962 -0.9835
  361MOL0     C49709  12.615   3.102   8.686 -0.5720  0.8834 -0.2332
  361MOL0     C49710  12.690   3.147   8.571 -0.1856 -0.1519  0.9751
  361MOL0     O49711  12.774   3.050   8.518 -0.4140 -0.6533  0.6795
  361MOL0     C49712  12.884   3.078   8.430  0.0258  1.0191 -0.6614
  361MOL0     C49713  12.945   3.209   8.425  0.6668  0.1305  0.1067
  361MOL0     C49714  13.041   3.233   8.335 -0.4720  0.2845 -0.1607
  361MOL0     C49715  13.105   3.126   8.262  0.0410  0.4347  0.3565
  361MOL0     O49716  13.211   3.173   8.184 -0.1547  0.5758  0.4817
  361MOL0     C49717  13.293   3.070   8.135 -0.4106 -0.3529 -0.2666
  361MOL0     C49718  13.432   3.120   8.110 -0.5714  0.4571 -0.0994
  361MOL0     C49719  13.506   3.151   8.247 -0.2731  0.0724 -0.3803
  361MOL0     C49720  13.443   3.277   8.323  0.0961  0.3287  0.2610
  361MOL0     C49721  13.520   3.318   8.438 -0.3349 -0.2668  0.3916
  361MOL0     C49722  13.471   3.436   8.518  0.4967  0.0990 -1.0117
  361MOL0     C49723  13.585   3.501   8.595 -0.2409 -0.5280  0.7799
  361MOL0     C49724  13.524   3.594   8.700 -0.5525  0.8946  0.5601
  361MOL0    Cl49725  13.393   3.709   8.651 -0.0656 -0.1976  0.7425
  361MOL0     C49726  13.049   3.001   8.268 -0.6512  0.2012 -0.3929
  361MOL0     C49727  12.945   2.974   8.353  0.6413 -0.7612 -0.5444
  361MOL0     O49728  12.670   3.261   8.526 -0.2935 -0.5724  0.9582
  361MOL0     C49729  12.575   2.969   8.690 -0.9593 -0.1221  0.2174
  361MOL0     C49730  12.499   2.913   8.794  0.2333  0.5997 -0.5036
  361MOL0     N49731  11.826   3.018   8.854  0.1685 -1.0405  0.1948
  361MOL0     N49732  11.792   3.138   8.828 -0.0526  0.3854 -0.3262
  361MOL0     C49733  11.405   3.389   8.230 -0.3969  0.1278  0.6667
  361MOL0     C49734  11.268   3.415   8.225 -0.2916  0.2940  0.0165
  361MOL0     C49735  10.842   3.418   8.160 -0.2638 -0.3506  0.1863
  361MOL0     C49736  10.858   3.289   8.093  0.5455  0.0576  0.3469
  361MOL0     C49737  10.750   3.247   8.018 -1.4246 -0.6174 -0.6373
  361MOL0     C49738  10.628   3.323   8.004  1.0747  0.3073 -0.0161
  361MOL0     O49739  10.527   3.267   7.927 -0.2795 -0.4239 -0.3934
  361MOL0     C49740  10.462   3.342   7.828 -0.3088 -0.0662  0.5015
  361MOL0     C49741  10.345   3.254   7.785  0.0183 -0.8098  0.1119
  361MOL0     C49742  10.407   3.129   7.716  0.6563 -0.5395  0.5884
  361MOL0     C49743  10.300   3.023   7.702  0.4613  0.6525  0.1492
  361MOL0     C49744  10.204   3.047   7.596 -0.5752  0.1306  0.4661
  361MOL0     C49745  10.103   3.050   7.528  0.0674  0.4636  0.6834
  361MOL0     C49746  10.616   3.445   8.077  0.0295 -0.1948  0.0704
  361MOL0     C49747  10.722   3.491   8.156 -0.1738 -0.2942 -0.3209
  361MOL0     C49748  10.709   3.638   8.212  0.9512  0.0329  0.4338
  361MOL0     H49749  11.156   3.187   8.453  0.7885 -1.7669 -0.6938
  361MOL0     H49750  11.396   3.141   8.456 -2.0489  0.3005  0.9088
  361MOL0     H49751  11.615   3.084   8.403 -0.9321  0.6173 -1.5082
  361MOL0     H49752  11.604   3.219   8.518 -0.1094  0.1980  0.7308
  361MOL0     H49753  11.820   3.146   8.519  1.4880 -1.5755 -1.7922
  361MOL0     H49754  11.828   3.135   8.346 -0.5504 -3.4412  2.1934
  361MOL0     H49755  11.935   3.355   8.439  0.5272 -1.9910  1.2527
  361MOL0     H49756  11.811   3.354   8.305 -1.6157 -0.2387  1.2505
  361MOL0     H49757  11.794   3.547   8.460 -0.7555  0.1761  0.0210
  361MOL0     H49758  11.640   3.455   8.458  0.6114  4.3801 -1.6414
  361MOL0     H49759  11.705   3.357   8.682 -1.0127 -0.7361 -1.0014
  361MOL0     H49760  11.697   3.531   8.682 -1.1808 -2.6477  1.1867
  361MOL0     H49761  11.958   3.386   8.655 -1.0492 -1.6809  2.0273
  361MOL0     H49762  11.937   3.551   8.664 -0.9732 -0.0724 -2.2996
  361MOL0     H49763  11.901   3.559   8.888 -2.2001 -0.2723  2.5673
  361MOL0     H49764  12.011   3.414   8.858 -0.2461 -1.4965 -0.4633
  361MOL0     H49765  11.817   3.395   9.039 -1.4284  0.0345  0.0067
  361MOL0     H49766  11.714   3.384   8.892 -0.9097  3.0733  2.4726
  361MOL0     H49767  11.963   3.184   9.104 -0.2244  0.9866 -0.6886
  361MOL0     H49768  11.885   2.805   9.007  0.2632 -0.1547  0.9580
  361MOL0     H49769  11.925   2.918   9.150 -0.5169  1.8413  0.0841
  361MOL0     H49770  12.105   2.762   9.028  0.5020 -0.2299 -1.2340
  361MOL0     H49771  12.111   2.903   8.923  0.7148 -1.3186  0.1877
  361MOL0     H49772  12.126   3.014   9.188 -0.0493 -0.4014 -0.9066
  361MOL0     H49773  12.220   2.865   9.191 -1.3676 -1.9148 -0.0682
  361MOL0     H49774  12.240   3.074   8.982 -1.8217 -0.8671  1.5566
  361MOL0     H49775  12.350   3.074   9.130 -0.6294 -1.2383  2.0240
  361MOL0     H49776  12.501   3.179   8.987  1.9835 -0.8282  0.6298
  361MOL0     H49777  12.563   3.373   8.767 -1.3307 -0.8358 -0.5118
  361MOL0     H49778  12.737   3.344   8.780  0.9636  0.0855  2.7322
  361MOL0     H49779  12.643   3.343   8.928  1.6112 -1.1434 -0.8202
  361MOL0     H49780  12.900   3.288   8.483 -2.6792 -0.9538 -0.7551
  361MOL0     H49781  13.089   3.330   8.342 -3.4398  1.7799  1.4522
  361MOL0     H49782  13.295   2.987   8.206 -5.2727 -0.5619 -0.0386
  361MOL0     H49783  13.247   3.024   8.047  2.2221 -3.2463 -0.3168
  361MOL0     H49784  13.494   3.047   8.057 -3.8905 -3.0512  0.4154
  361MOL0     H49785  13.429   3.210   8.048 -2.8696  1.2563  1.0739
  361MOL0     H49786  13.611   3.175   8.228 -0.0083  1.2685  2.2024
  361MOL0     H49787  13.505   3.069   8.319  1.6675 -0.1905 -0.5947
  361MOL0     H49788  13.347   3.242   8.364  0.9143 -1.9602  0.3552
  361MOL0     H49789  13.429   3.362   8.255  1.8630  0.9014  0.5610
  361MOL0     H49790  13.530   3.225   8.494 -1.1496 -0.5370  0.1094
  361MOL0     H49791  13.619   3.341   8.396 -0.4780  0.8602  0.6355
  361MOL0     H49792  13.400   3.398   8.591  3.4077  0.6522  2.3625
  361MOL0     H49793  13.414   3.502   8.452 -1.0183  0.5020  0.6246
  361MOL0     H49794  13.648   3.562   8.530 -1.0851  1.2429  1.5616
  361MOL0     H49795  13.658   3.436   8.645  2.3985  2.3597  0.9923
  361MOL0     H49796  13.611   3.644   8.744  0.7005 -0.7655  0.0687
  361MOL0     H49797  13.493   3.543   8.792  2.5378  0.3906  1.4406
  361MOL0     H49798  13.084   2.918   8.207 -0.0594 -0.0249  0.2388
  361MOL0     H49799  12.927   2.868   8.367 -1.6651 -0.2625  0.8637
  361MOL0     H49800  12.595   2.905   8.605 -1.3710  2.0329 -1.5907
  361MOL0     H49801  12.475   2.808   8.787  1.6457  0.0321  1.9542
  361MOL0     H49802  11.485   3.435   8.173 -1.3346 -0.4825 -1.2284
  361MOL0     H49803  11.230   3.494   8.160  0.5210 -0.3198 -1.2530
  361MOL0     H49804  10.950   3.232   8.101  1.4056  0.6834 -3.3633
  361MOL0     H49805  10.751   3.148   7.973 -0.0535  0.5721 -3.5147
  361MOL0     H49806  10.431   3.444   7.854  1.7739  0.6064  0.5235
  361MOL0     H49807  10.530   3.353   7.743 -0.5189  1.9466  0.5506
  361MOL0     H49808  10.291   3.319   7.715 -0.9361  0.7982  2.2369
  361MOL0     H49809  10.288   3.233   7.875  0.4004 -0.4313  0.4489
  361MOL0     H49810  10.453   3.160   7.622  0.0137 -2.1755 -0.3076
  361MOL0     H49811  10.485   3.091   7.783 -0.5050 -0.5953  1.9521
  361MOL0     H49812  10.244   3.004   7.794  1.1985  1.5447  0.8117
  361MOL0     H49813  10.351   2.931   7.673  0.4467  1.6206 -3.4451
  361MOL0     H49814  10.004   3.062   7.488  1.2879  2.9698 -1.9021
  361MOL0     H49815  10.520   3.496   8.070  1.5010  2.9348  0.9924
  361MOL0     H49816  10.608   3.656   8.250 -0.1799 -1.6064 -1.5846
  361MOL0     H49817  10.785   3.664   8.286  0.5882  0.3888  0.6838
  361MOL0     H49818  10.727   3.698   8.122  4.0315 -0.7991  0.3843
  362MOL0     O49819   4.847   5.033   1.691 -0.1489  0.2596  0.6903
  362MOL0     C49820   4.904   5.058   1.796 -0.2660  0.0624 -0.0378
  362MOL0     O49821   5.026   5.008   1.830 -0.4656  0.8875 -0.3548
  362MOL0     C49822   5.126   4.978   1.736 -0.7128  1.0172 -0.5028
  362MOL0     C49823   5.243   4.918   1.790  0.7531 -0.7083 -0.3226
  362MOL0     C49824   5.338   4.866   1.711  0.0214 -0.1778 -0.2762
  362MOL0     C49825   5.333   4.867   1.572  0.3852  0.0974  0.7681
  362MOL0     O49826   5.437   4.816   1.501 -0.1459  0.1782 -0.4846
  362MOL0     C49827   5.433   4.808   1.356 -0.7477  0.1071 -0.1265
  362MOL0     C49828   5.493   4.930   1.296  0.2585  0.7690 -1.3004
  362MOL0     C49829   5.523   4.922   1.142  0.1346  0.2845  0.2886
  362MOL0     C49830   5.626   5.031   1.104 -0.1151 -0.4507  0.4275
  362MOL0     C49831   5.640   5.040   0.961 -0.6817 -0.3075  0.0252
  362MOL0     C49832   5.745   5.146   0.928 -0.6645  1.2004 -0.0916
  362MOL0     C49833   5.885   5.135   1.008 -0.0689 -0.4900 -0.2373
  362MOL0     C49834   5.981   5.246   0.959  0.0616  0.3719 -0.0210
  362MOL0     N49835   5.949   5.383   0.969  1.0328  0.0895 -1.0410
  362MOL0     C49836   5.891   5.438   1.081 -0.4970  0.1217  0.4154
  362MOL0     C49837   5.903   5.576   1.075  0.5145  0.6678  0.5211
  362MOL0     C49838   5.873   5.674   1.180  0.4217  0.4598  0.3972
  362MOL0     C49839   5.980   5.655   1.300  0.4618  0.2097  0.1105
  362MOL0     C49840   5.978   5.757   1.414  0.1406  0.0775 -1.0858
  362MOL0     C49841   5.982   5.907   1.372  0.4993  0.2353  0.9582
  362MOL0     O49842   6.117   5.927   1.328  0.3166  0.3272  0.3621
  362MOL0     C49843   6.214   5.952   1.418  0.4628 -0.7078  0.6520
  362MOL0     C49844   6.209   5.957   1.562  0.8537  0.3817 -0.0112
  362MOL0     C49845   6.318   5.996   1.641 -1.0282  0.1839  0.0813
  362MOL0     C49846   6.292   6.009   1.793  0.3423 -0.3025  0.0567
  362MOL0     C49847   6.446   6.004   1.575 -1.0260 -0.9233  0.8577
  362MOL0     C49848   6.573   6.033   1.647  1.7464  0.1470 -0.1795
  362MOL0     O49849   6.592   5.965   1.768 -0.5708  0.3896  0.2983
  362MOL0     C49850   6.700   5.977   1.853  0.0973  0.2005  0.2226
  362MOL0     C49851   6.819   6.052   1.839 -0.2586  0.2312 -0.3865
  362MOL0     C49852   6.913   6.040   1.940  0.3424 -1.0092 -0.0077
  362MOL0     C49853   6.890   5.969   2.054 -0.4774  0.1431  0.1046
  362MOL0     O49854   6.993   5.929   2.131  0.3682 -1.1384  0.3065
  362MOL0     C49855   7.064   6.035   2.187 -0.0411 -1.2508  0.1307
  362MOL0     C49856   7.211   5.988   2.146 -0.0647 -0.4352 -0.2749
  362MOL0     C49857   7.317   6.086   2.195 -0.0072  0.3428  0.2495
  362MOL0     C49858   7.459   6.026   2.190 -0.5891  0.2821  0.6532
  362MOL0     C49859   7.533   6.065   2.065  0.1019  0.2391 -0.2948
  362MOL0     C49860   7.685   6.083   2.083 -0.9065 -0.6220  0.5585
  362MOL0     C49861   7.752   6.135   1.953 -0.5970  0.3361  0.0624
  362MOL0     C49862   7.909   6.172   1.947  1.1303 -0.2302  0.0291
  362MOL0    Cl49863   7.996   6.028   1.989 -0.2983 -0.2112 -0.4833
  362MOL0     C49864   6.771   5.902   2.070  0.2284  0.1660  0.1264
  362MOL0     C49865   6.680   5.900   1.971  0.3909 -0.4420  0.1690
  362MOL0     O49866   6.663   6.100   1.595  0.2639 -0.6642 -0.2390
  362MOL0     C49867   6.458   5.984   1.435  0.1863 -0.6187 -0.6797
  362MOL0     C49868   6.343   5.963   1.363  0.2842  0.4604  0.0790
  362MOL0     N49869   5.961   5.605   0.954  0.4073  0.0904 -0.0242
  362MOL0     N49870   6.001   5.492   0.902  1.2481  0.3842 -0.6528
  362MOL0     C49871   5.214   4.930   1.509 -0.3393  0.5323  0.6202
  362MOL0     C49872   5.117   4.987   1.591  0.0586  0.4472 -0.3691
  362MOL0     C49873   4.832   5.132   1.908 -0.7950  0.2039 -0.3854
  362MOL0     C49874   4.899   5.142   2.032  0.0970 -0.0774 -0.9192
  362MOL0     C49875   4.843   5.204   2.142 -0.8911  0.3756 -0.0307
  362MOL0     C49876   4.719   5.273   2.129 -0.3064  0.3669 -0.3624
  362MOL0     O49877   4.667   5.339   2.239 -0.4289 -0.1576 -0.5891
  362MOL0     C49878   4.541   5.402   2.230  0.3735  0.3075 -0.3352
  362MOL0     C49879   4.514   5.466   2.370  0.0538  0.6997  0.2689
  362MOL0     C49880   4.566   5.381   2.488 -0.1430 -0.4446  0.4430
  362MOL0     C49881   4.526   5.439   2.628 -0.1741 -0.6123  1.3393
  362MOL0     C49882   4.611   5.387   2.725  0.0789 -0.2550  0.1154
  362MOL0     C49883   4.681   5.345   2.814 -0.0752 -0.0688 -0.4391
  362MOL0     C49884   4.654   5.261   2.009  0.0651  1.0487 -0.6679
  362MOL0     C49885   4.714   5.203   1.893  0.1660  0.6141  0.3193
  362MOL0     C49886   4.634   5.218   1.762  0.1600 -0.0159  0.1596
  362MOL0     H49887   5.249   4.902   1.897  0.8871 -2.3931 -0.5453
  362MOL0     H49888   5.426   4.824   1.759 -0.9911 -0.8349  1.0804
  362MOL0     H49889   5.333   4.790   1.318  0.0735 -2.2192 -1.3744
  362MOL0     H49890   5.495   4.723   1.324  0.9608  1.1219  0.3528
  362MOL0     H49891   5.440   5.024   1.309 -2.4417 -0.7106 -0.9230
  362MOL0     H49892   5.593   4.931   1.340 -0.3662 -0.5743  0.2493
  362MOL0     H49893   5.565   4.825   1.113  2.0706  0.5609  1.9723
  362MOL0     H49894   5.445   4.951   1.071  2.4637  1.1186 -2.0917
  362MOL0     H49895   5.594   5.126   1.149 -0.1223 -0.5748  0.6876
  362MOL0     H49896   5.718   5.008   1.160  0.2201 -1.5506 -0.5388
  362MOL0     H49897   5.546   5.078   0.920 -1.2646  0.0992  1.6874
  362MOL0     H49898   5.670   4.943   0.920  1.1910 -0.2950  1.2589
  362MOL0     H49899   5.771   5.135   0.822  1.3081 -3.5161  0.6156
  362MOL0     H49900   5.698   5.244   0.941 -0.2102  1.5214 -0.8265
  362MOL0     H49901   5.933   5.037   1.002  0.3008 -0.4234  1.2051
  362MOL0     H49902   5.870   5.152   1.115 -1.7301  2.6567 -0.8395
  362MOL0     H49903   6.076   5.236   1.014 -0.4890 -1.9092  0.6479
  362MOL0     H49904   5.993   5.221   0.853  2.2176  4.7658 -1.0226
  362MOL0     H49905   5.854   5.390   1.171 -1.7191  0.5246  0.1464
  362MOL0     H49906   5.771   5.676   1.221  0.8174  3.8456  1.4529
  362MOL0     H49907   5.870   5.772   1.133  0.5128 -0.1453 -0.9003
  362MOL0     H49908   5.974   5.554   1.341 -0.7572 -0.0036 -0.5544
  362MOL0     H49909   6.081   5.663   1.258  1.1349  3.3486  1.9616
  362MOL0     H49910   5.903   5.747   1.494  0.4918 -1.3274 -0.8956
  362MOL0     H49911   6.073   5.737   1.464  0.0341  1.8159 -0.1353
  362MOL0     H49912   5.905   5.914   1.295 -0.3964  3.1670  1.9869
  362MOL0     H49913   5.953   5.973   1.455  1.0640  1.9844 -0.1620
  362MOL0     H49914   6.106   5.958   1.596 -0.0426  2.5352 -2.4638
  362MOL0     H49915   6.188   6.031   1.817  0.1444 -1.2515  0.0991
  362MOL0     H49916   6.350   6.090   1.840 -1.3736  0.8370  0.2820
  362MOL0     H49917   6.312   5.913   1.842 -0.1281 -1.8654 -2.6272
  362MOL0     H49918   6.834   6.087   1.737 -2.4653  1.7978 -0.2285
  362MOL0     H49919   7.016   6.069   1.920 -0.2074 -0.5151 -2.5640
  362MOL0     H49920   7.042   6.133   2.142 -0.8329 -1.8432 -0.8113
  362MOL0     H49921   7.056   6.042   2.295  0.7652 -0.2911  0.1526
  362MOL0     H49922   7.231   5.888   2.185  0.4206 -0.0671  0.4582
  362MOL0     H49923   7.213   5.981   2.037 -0.7546 -0.9082 -0.2617
  362MOL0     H49924   7.295   6.133   2.291 -2.7393  0.9560 -0.5920
  362MOL0     H49925   7.322   6.169   2.124  0.2210 -1.3794 -1.8557
  362MOL0     H49926   7.450   5.918   2.206 -1.9915  0.3582  0.5318
  362MOL0     H49927   7.515   6.065   2.275  2.5301 -0.2599 -0.9847
  362MOL0     H49928   7.518   5.985   1.992  1.4978 -2.5336  2.2674
  362MOL0     H49929   7.490   6.160   2.031  0.3084  0.8132  0.9942
  362MOL0     H49930   7.720   5.983   2.110  0.0374 -0.9718 -1.7057
  362MOL0     H49931   7.714   6.148   2.166 -0.2521  0.3563 -0.4059
  362MOL0     H49932   7.693   6.220   1.918 -2.2013 -0.3707  0.9330
  362MOL0     H49933   7.718   6.053   1.889 -2.1784  0.1094  1.1297
  362MOL0     H49934   7.922   6.251   2.021  1.7295 -1.5924  1.4338
  362MOL0     H49935   7.947   6.201   1.849 -0.9133 -0.5322 -0.9146
  362MOL0     H49936   6.761   5.830   2.152 -0.4997 -1.3375 -1.2194
  362MOL0     H49937   6.585   5.849   1.983  0.3018 -1.0399 -2.3681
  362MOL0     H49938   6.558   5.992   1.395  0.0299  1.9881 -0.6999
  362MOL0     H49939   6.352   5.937   1.258 -2.6692 -3.4213  0.5530
  362MOL0     H49940   5.222   4.952   1.403  0.4779  4.7202  1.3774
  362MOL0     H49941   5.035   5.032   1.535  0.8954  0.1275 -1.9006
  362MOL0     H49942   4.999   5.099   2.036  1.4886  2.9577  0.7911
  362MOL0     H49943   4.900   5.212   2.234  0.5907  1.4306 -0.9871
  362MOL0     H49944   4.535   5.479   2.153  2.9473  1.3352  0.3802
  362MOL0     H49945   4.474   5.317   2.213  1.9274 -0.9541 -0.5008
  362MOL0     H49946   4.405   5.474   2.377  0.2778  5.9981  2.0311
  362MOL0     H49947   4.552   5.569   2.369 -0.7687  1.0771  2.3592
  362MOL0     H49948   4.533   5.277   2.480  0.1121 -0.7176  2.3965
  362MOL0     H49949   4.675   5.391   2.480 -0.2134  0.0551  0.0822
  362MOL0     H49950   4.430   5.404   2.665 -1.1214  0.7888  0.3055
  362MOL0     H49951   4.525   5.548   2.628 -3.2444 -0.5763  1.3686
  362MOL0     H49952   4.739   5.314   2.899 -0.2916  1.4821  0.3217
  362MOL0     H49953   4.553   5.298   1.997 -1.5775 -2.1434  1.7870
  362MOL0     H49954   4.616   5.116   1.728  1.0518 -1.2199  2.9735
  362MOL0     H49955   4.538   5.270   1.773  1.5142  3.3975 -2.2826
  362MOL0     H49956   4.685   5.289   1.696 -0.5889 -0.7874 -1.2994
  363MOL0     O49957   2.005   0.390   6.872  0.0786  0.6897  0.1333
  363MOL0     C49958   2.050   0.282   6.845 -0.1118  0.0017 -0.0830
  363MOL0     O49959   1.986   0.165   6.807  0.7798  0.3032 -0.1009
  363MOL0     C49960   1.850   0.153   6.788 -0.3189  0.1382 -0.5465
  363MOL0     C49961   1.755   0.259   6.774 -0.6851 -0.1820  0.2997
  363MOL0     C49962   1.631   0.236   6.727  0.0006 -0.1871  0.2261
  363MOL0     C49963   1.592   0.109   6.692  0.0320 -0.8464 -0.5044
  363MOL0     O49964   1.466   0.102   6.655  0.4131  0.4039 -0.2132
  363MOL0     C49965   1.432  -0.028   6.598 -0.3390 -0.2585  0.6198
  363MOL0     C49966   1.290  -0.027   6.554 -0.7829 -0.0349 -0.2745
  363MOL0     C49967   1.258   0.079   6.451  0.1387  0.0431  0.0011
  363MOL0     C49968   1.347   0.073   6.317 -0.3101  0.2818  0.2338
  363MOL0     C49969   1.284   0.145   6.199  0.3708  0.0078  0.2096
  363MOL0     C49970   1.195   0.044   6.120  0.6910  0.0895  0.4805
  363MOL0     C49971   1.104   0.112   6.014  0.8543  0.3014  0.4216
  363MOL0     C49972   1.185   0.138   5.891  1.0769 -0.1735  0.1343
  363MOL0     N49973   1.101   0.196   5.790  0.0598 -0.1191 -0.0820
  363MOL0     C49974   1.107   0.332   5.759  0.5380 -0.4202  1.3509
  363MOL0     C49975   1.050   0.325   5.632  0.1159 -0.1087 -0.3215
  363MOL0     C49976   1.014   0.454   5.554 -0.8571  0.2733  0.3231
  363MOL0     C49977   1.007   0.440   5.406 -0.8186  0.0628  0.5366
  363MOL0     C49978   1.144   0.421   5.348  0.4308  0.0807 -0.0529
  363MOL0     C49979   1.138   0.397   5.202 -1.3653  0.0429 -0.3700
  363MOL0     O49980   1.267   0.442   5.149 -0.2544  0.2598  0.2888
  363MOL0     C49981   1.374   0.365   5.178 -0.4737  0.3916 -0.1377
  363MOL0     C49982   1.365   0.226   5.178  0.2145 -0.1767 -0.0881
  363MOL0     C49983   1.487   0.148   5.170  0.7618  0.2091  0.2169
  363MOL0     C49984   1.482  -0.002   5.145 -0.0822  0.2492  0.2362
  363MOL0     C49985   1.606   0.214   5.174 -0.2443  0.0993  0.4183
  363MOL0     C49986   1.738   0.145   5.154 -0.3947  0.5050 -0.7396
  363MOL0     O49987   1.852   0.184   5.223  0.2422  0.0151 -0.1274
  363MOL0     C49988   1.979   0.144   5.188 -0.0873  0.5843  0.4177
  363MOL0     C49989   2.083   0.244   5.209 -0.1503 -0.7874 -0.3801
  363MOL0     C49990   2.215   0.222   5.190 -0.0032  0.3111 -0.4719
  363MOL0     C49991   2.252   0.094   5.156 -0.7020 -1.2678 -0.1002
  363MOL0     O49992   2.379   0.050   5.140  0.1038 -0.3408  0.0658
  363MOL0     C49993   2.499   0.130   5.167  0.3873 -0.6523 -0.2840
  363MOL0     C49994   2.626   0.046   5.168  0.3414 -0.0748  0.5499
  363MOL0     C49995   2.651  -0.025   5.038  0.3467 -0.4258  0.1944
  363MOL0     C49996   2.801  -0.035   5.023  0.1167  0.0713  0.0296
  363MOL0     C49997   2.872  -0.131   5.118 -0.3820  0.2547 -0.1851
  363MOL0     C49998   2.993  -0.208   5.055 -0.1825 -0.3824 -0.5162
  363MOL0     C49999   3.105  -0.107   5.013 -0.1419 -0.2403 -1.0782
  363MOL0     C50000   3.169  -0.028   5.125  0.9327  0.2719  0.5642
  363MOL0    Cl50001   3.238  -0.127   5.254  0.0621 -0.0903 -0.4239
  363MOL0     C50002   2.153   0.002   5.125  0.0903 -0.1594 -0.7668
  363MOL0     C50003   2.025   0.018   5.161 -0.1295  0.0018 -0.5209
  363MOL0     O50004   1.743   0.073   5.055  0.1037 -0.1186 -0.2769
  363MOL0     C50005   1.615   0.348   5.190  0.5212 -0.8667 -1.0199
  363MOL0     C50006   1.498   0.420   5.190 -0.0700  0.0765 -0.4984
  363MOL0     N50007   0.992   0.202   5.610 -0.4370  0.0927  0.6909
  363MOL0     N50008   1.023   0.124   5.705  0.2222 -0.3729  0.2450
  363MOL0     C50009   1.687   0.002   6.704 -0.1794 -0.2460 -0.2332
  363MOL0     C50010   1.812   0.025   6.752 -0.2876 -0.1034 -0.2957
  363MOL0     C50011   2.201   0.273   6.846  0.0675  0.3254  0.4302
  363MOL0     C50012   2.264   0.151   6.819  0.2664  1.1077  0.8657
  363MOL0     C50013   2.398   0.133   6.829 -0.6389 -0.2596 -0.3348
  363MOL0     C50014   2.483   0.238   6.867 -0.8459  0.8475 -0.0582
  363MOL0     O50015   2.621   0.209   6.895  0.5242  0.2645  0.9005
  363MOL0     C50016   2.672   0.091   6.820  1.3071  0.2911  0.0112
  363MOL0     C50017   2.825   0.086   6.817  0.8843 -0.3017 -0.3620
  363MOL0     C50018   2.858  -0.055   6.771 -0.2317 -0.3798  0.3094
  363MOL0     C50019   3.008  -0.092   6.769 -0.6691  1.1334 -0.0500
  363MOL0     C50020   3.096   0.009   6.701 -0.0954  0.0059  0.1654
  363MOL0     C50021   3.163   0.095   6.645 -0.0640  0.2058 -0.1293
  363MOL0     C50022   2.427   0.352   6.909  0.3169 -0.4466  0.1423
  363MOL0     C50023   2.288   0.373   6.901 -0.0141  0.2010 -0.3980
  363MOL0     C50024   2.248   0.500   6.971 -0.2806  0.1975 -0.9262
  363MOL0     H50025   1.785   0.363   6.780  0.4528 -0.3423 -1.5776
  363MOL0     H50026   1.569   0.321   6.704  0.3710  0.1616  0.5006
  363MOL0     H50027   1.437  -0.117   6.661 -0.9984  1.1453  2.7501
  363MOL0     H50028   1.502  -0.048   6.515 -0.6713  0.9065  0.0443
  363MOL0     H50029   1.267  -0.127   6.517 -2.2998  0.3974 -0.5859
  363MOL0     H50030   1.222  -0.014   6.640 -0.9711 -0.9795 -0.2700
  363MOL0     H50031   1.153   0.067   6.422 -0.1798 -2.5314  1.9191
  363MOL0     H50032   1.268   0.180   6.493 -0.8908  0.8034 -1.4960
  363MOL0     H50033   1.440   0.123   6.345  0.2292 -0.3661 -0.3943
  363MOL0     H50034   1.370  -0.032   6.303  3.5395  0.4888  3.2989
  363MOL0     H50035   1.356   0.179   6.124 -1.6037  2.3945 -0.7541
  363MOL0     H50036   1.228   0.233   6.232 -1.6324 -1.1813  0.1767
  363MOL0     H50037   1.260  -0.026   6.068  3.4914  1.3063  2.1084
  363MOL0     H50038   1.130  -0.009   6.190  2.8924  0.7536  3.1806
  363MOL0     H50039   1.055   0.203   6.049 -0.7242 -0.1457 -0.5436
  363MOL0     H50040   1.029   0.037   5.987  0.8475 -0.1545  1.6202
  363MOL0     H50041   1.264   0.210   5.909  1.7330 -0.5114 -1.2733
  363MOL0     H50042   1.230   0.044   5.858 -1.7519 -2.2838  1.7175
  363MOL0     H50043   1.142   0.430   5.789 -3.3788  1.6358 -0.1859
  363MOL0     H50044   1.071   0.542   5.584 -0.5782 -0.4563  2.0534
  363MOL0     H50045   0.908   0.470   5.579 -0.9462  1.5377 -0.7658
  363MOL0     H50046   0.945   0.354   5.380 -1.5252  0.5747  0.5027
  363MOL0     H50047   0.959   0.531   5.370 -2.1734 -0.2772  1.4104
  363MOL0     H50048   1.198   0.516   5.360  2.1462 -1.0126  1.3243
  363MOL0     H50049   1.198   0.342   5.400 -0.0420  0.8362  1.6849
  363MOL0     H50050   1.117   0.295   5.168  0.0655 -0.6271  0.6473
  363MOL0     H50051   1.057   0.454   5.157 -0.0896  1.0309 -1.4973
  363MOL0     H50052   1.277   0.167   5.155  1.0724 -0.1375 -4.3701
  363MOL0     H50053   1.533  -0.039   5.235  0.4157  2.7758  1.0608
  363MOL0     H50054   1.534  -0.031   5.054  1.9198 -3.3182  2.3141
  363MOL0     H50055   1.379  -0.035   5.127 -0.1870  0.7328 -0.0507
  363MOL0     H50056   2.063   0.347   5.238  3.4931  0.4282 -1.6939
  363MOL0     H50057   2.278   0.310   5.195 -1.8156  1.6145  0.3563
  363MOL0     H50058   2.501   0.209   5.092  0.9560  0.6927  1.1153
  363MOL0     H50059   2.503   0.176   5.266  2.0132 -1.9871  0.3401
  363MOL0     H50060   2.706   0.114   5.197  2.6775 -2.2933 -0.2091
  363MOL0     H50061   2.622  -0.020   5.255 -0.0073 -0.2433  0.4105
  363MOL0     H50062   2.620   0.041   4.956  2.2232 -0.5546 -0.6804
  363MOL0     H50063   2.603  -0.123   5.041 -0.9522  0.2082  0.9065
  363MOL0     H50064   2.849   0.064   5.028  1.6745 -0.6259 -0.3364
  363MOL0     H50065   2.821  -0.073   4.922 -1.1308 -2.5069  0.6875
  363MOL0     H50066   2.899  -0.067   5.203  2.5804  0.5345 -1.1999
  363MOL0     H50067   2.804  -0.211   5.145  1.8795 -1.2090  1.5853
  363MOL0     H50068   2.962  -0.260   4.964  1.1262  1.0145 -1.8086
  363MOL0     H50069   3.029  -0.283   5.127 -0.0903  0.7682  0.6703
  363MOL0     H50070   3.064  -0.032   4.945 -1.7312 -1.9604 -2.1364
  363MOL0     H50071   3.173  -0.171   4.955 -0.8536  0.4963 -2.7940
  363MOL0     H50072   3.096   0.042   5.166  1.4977  1.6989 -0.7715
  363MOL0     H50073   3.250   0.038   5.091 -0.2933  0.0229 -3.2867
  363MOL0     H50074   2.187  -0.099   5.105  0.4655 -0.5198  1.4719
  363MOL0     H50075   1.950  -0.060   5.154 -0.5699  0.5574 -2.8352
  363MOL0     H50076   1.700   0.412   5.210 -1.7787  1.8930  0.7772
  363MOL0     H50077   1.515   0.527   5.202  3.0018 -0.3101 -0.4857
  363MOL0     H50078   1.659  -0.100   6.680  0.8383 -0.4485 -0.5961
  363MOL0     H50079   1.877  -0.063   6.753 -1.5773 -1.0845 -0.4393
  363MOL0     H50080   2.217   0.061   6.782  2.1532  1.4744 -2.9099
  363MOL0     H50081   2.432   0.032   6.810  3.3750  0.3315  2.3399
  363MOL0     H50082   2.629   0.002   6.868 -0.3931  1.8645  1.5892
  363MOL0     H50083   2.641   0.098   6.715  2.6402 -1.7152 -0.5691
  363MOL0     H50084   2.863   0.102   6.918 -2.3182  0.2909  0.8594
  363MOL0     H50085   2.861   0.167   6.753  0.9324 -0.7809 -0.9538
  363MOL0     H50086   2.804  -0.119   6.840 -2.3572  2.0963  1.1081
  363MOL0     H50087   2.811  -0.056   6.672 -0.1332 -0.3631  0.2626
  363MOL0     H50088   3.016  -0.186   6.714  2.0886  1.0492  0.3429
  363MOL0     H50089   3.057  -0.110   6.865  1.6908  0.3532 -1.3026
  363MOL0     H50090   3.225   0.167   6.596  2.9833 -1.9513  0.2362
  363MOL0     H50091   2.495   0.431   6.940 -0.5433 -0.7172  3.0512
  363MOL0     H50092   2.230   0.578   6.896 -0.8052  0.3615 -0.6286
  363MOL0     H50093   2.159   0.488   7.032 -0.3887 -2.4789 -1.5013
  363MOL0     H50094   2.329   0.529   7.038  0.0949 -1.9921 -0.3681
  364MOL0     O50095   5.890   2.490   7.492 -0.8303  0.4547  0.1351
  364MOL0     C50096   5.881   2.467   7.613  0.4428 -0.6551  0.5913
  364MOL0     O50097   5.939   2.362   7.674 -0.0133  0.8366  0.0398
  364MOL0     C50098   5.946   2.242   7.609 -0.4659 -0.4342  0.5836
  364MOL0     C50099   5.834   2.195   7.545  0.2407  0.0677 -1.0893
  364MOL0     C50100   5.818   2.061   7.499  0.0727  0.2771  0.7502
  364MOL0     C50101   5.929   1.973   7.514 -0.0823  0.0504  0.9222
  364MOL0     O50102   5.929   1.838   7.483  0.4134 -0.0285  0.3083
  364MOL0     C50103   5.894   1.804   7.346 -0.0006 -0.1538  0.2722
  364MOL0     C50104   6.014   1.754   7.278  0.5190 -0.6768  0.0862
  364MOL0     C50105   6.133   1.853   7.275  0.4806  0.1797 -0.1194
  364MOL0     C50106   6.238   1.815   7.172 -0.1278  0.3979  0.2955
  364MOL0     C50107   6.356   1.914   7.157  0.6083 -0.2374 -1.3073
  364MOL0     C50108   6.483   1.851   7.097  0.5214  0.3641 -0.1762
  364MOL0     C50109   6.601   1.947   7.075  0.5248 -0.6606 -0.1307
  364MOL0     C50110   6.727   1.865   7.047  0.1517  0.3739 -0.2042
  364MOL0     N50111   6.847   1.942   7.057 -0.0002 -0.4024  0.2251
  364MOL0     C50112   6.891   2.024   7.156  0.2563  0.3075  0.6268
  364MOL0     C50113   7.008   2.077   7.113  0.4729 -0.2507  0.7078
  364MOL0     C50114   7.102   2.153   7.195 -0.7953  0.3361  0.1677
  364MOL0     C50115   7.092   2.302   7.170 -0.1595 -0.9072  0.8153
  364MOL0     C50116   7.183   2.398   7.247 -1.2146 -0.1856 -0.1163
  364MOL0     C50117   7.339   2.358   7.243 -0.3221  0.1282  0.5319
  364MOL0     O50118   7.401   2.374   7.377 -0.2926 -0.1033  0.0134
  364MOL0     C50119   7.536   2.407   7.367 -0.1639 -0.0698  0.7043
  364MOL0     C50120   7.619   2.364   7.253 -0.0442  0.2822 -0.5444
  364MOL0     C50121   7.758   2.381   7.259 -0.2913 -0.5553  0.2011
  364MOL0     C50122   7.846   2.334   7.142  0.3912  0.4361  0.8682
  364MOL0     C50123   7.817   2.450   7.371  0.0257  0.2773  0.0854
  364MOL0     C50124   7.964   2.472   7.391  0.6805  0.0758 -0.1621
  364MOL0     O50125   8.001   2.481   7.523  0.6287 -0.7153 -0.9610
  364MOL0     C50126   8.115   2.551   7.549 -0.4805  0.9531  0.0522
  364MOL0     C50127   8.117   2.658   7.643  0.2028  0.0253  0.3799
  364MOL0     C50128   8.239   2.729   7.665  0.0881 -0.5966  0.6108
  364MOL0     C50129   8.354   2.700   7.595 -0.4194  1.1293 -0.5184
  364MOL0     O50130   8.466   2.784   7.610  0.7182  0.3976 -0.2597
  364MOL0     C50131   8.558   2.784   7.500 -0.3296 -0.5286 -0.0473
  364MOL0     C50132   8.642   2.910   7.527  0.2335  0.4802  0.4109
  364MOL0     C50133   8.564   3.038   7.539 -0.0935 -0.6666 -0.0239
  364MOL0     C50134   8.501   3.096   7.411  0.4699 -0.1808 -0.7279
  364MOL0     C50135   8.471   3.246   7.443  0.1157 -0.1602  0.0260
  364MOL0     C50136   8.596   3.331   7.408  0.0787  0.3118 -0.4511
  364MOL0     C50137   8.572   3.473   7.463  0.3559 -0.5515 -0.7337
  364MOL0     C50138   8.704   3.549   7.445 -0.2793 -0.4642  0.4094
  364MOL0    Cl50139   8.678   3.720   7.470  0.0687 -0.2365 -0.6906
  364MOL0     C50140   8.354   2.588   7.506  0.0166 -0.4255  0.2803
  364MOL0     C50141   8.236   2.516   7.481 -0.0182  0.0141 -0.7236
  364MOL0     O50142   8.034   2.496   7.291  0.8742 -0.2445 -0.2414
  364MOL0     C50143   7.735   2.508   7.472 -0.1497 -0.0629  0.0489
  364MOL0     C50144   7.600   2.482   7.467  0.6898 -0.6911 -0.2312
  364MOL0     N50145   7.037   2.020   6.991 -0.4931 -0.1828  0.2048
  364MOL0     N50146   6.939   1.940   6.951  0.5398  0.0672 -0.5910
  364MOL0     C50147   6.048   2.020   7.576  1.4937  0.3363 -0.6583
  364MOL0     C50148   6.056   2.153   7.612  0.4224 -1.1531  0.4129
  364MOL0     C50149   5.820   2.581   7.692 -0.0986  0.2030 -0.5942
  364MOL0     C50150   5.894   2.628   7.796  0.2092 -0.2842  0.5759
  364MOL0     C50151   5.860   2.730   7.864  0.2326 -1.6539  0.3582
  364MOL0     C50152   5.734   2.797   7.850  0.5391  0.4409  0.0269
  364MOL0     O50153   5.710   2.910   7.936 -0.0708  0.8116  0.2437
  364MOL0     C50154   5.569   2.924   7.979 -0.0530  0.6359 -0.0119
  364MOL0     C50155   5.524   3.040   7.886  0.5128  0.0189  0.1824
  364MOL0     C50156   5.380   3.064   7.915 -0.5894  0.3195 -0.4440
  364MOL0     C50157   5.301   3.181   7.842 -0.3768  0.4485  0.6286
  364MOL0     C50158   5.264   3.128   7.704  0.0974 -0.0937  0.4149
  364MOL0     C50159   5.227   3.103   7.593 -0.0566  0.4531  1.2800
  364MOL0     C50160   5.653   2.751   7.744 -0.0724 -0.5232  0.0282
  364MOL0     C50161   5.700   2.653   7.657 -0.6503 -0.4857 -0.4843
  364MOL0     C50162   5.608   2.621   7.542  0.4238  0.4975  0.7898
  364MOL0     H50163   5.747   2.260   7.542 -0.6603 -0.7529  2.3107
  364MOL0     H50164   5.723   2.028   7.457  1.2088  0.5142 -2.2614
  364MOL0     H50165   5.841   1.882   7.290  0.1890 -0.8109 -0.8521
  364MOL0     H50166   5.824   1.720   7.356 -0.4335  0.1929  0.1768
  364MOL0     H50167   6.050   1.663   7.327 -0.1492 -0.8420  0.2837
  364MOL0     H50168   5.979   1.738   7.176  1.5606  1.6179 -0.6699
  364MOL0     H50169   6.091   1.948   7.240  0.3491 -0.0118 -0.4848
  364MOL0     H50170   6.180   1.872   7.372 -0.9021  0.5282  0.5081
  364MOL0     H50171   6.284   1.717   7.188 -0.6643 -0.4219 -2.7111
  364MOL0     H50172   6.187   1.801   7.077  0.1010  0.7342  0.1209
  364MOL0     H50173   6.383   1.942   7.259  1.2103 -1.5407 -1.0828
  364MOL0     H50174   6.332   2.013   7.117 -1.6714  1.0458  2.6180
  364MOL0     H50175   6.515   1.768   7.160  1.4969  1.9218  1.5071
  364MOL0     H50176   6.459   1.814   6.997 -2.4518  2.3336 -0.3090
  364MOL0     H50177   6.616   2.000   7.169 -2.8947 -1.6547  1.1152
  364MOL0     H50178   6.576   2.017   6.994 -0.9910 -1.8609 -0.7600
  364MOL0     H50179   6.732   1.781   7.116  0.2195 -2.5820 -3.5310
  364MOL0     H50180   6.725   1.819   6.948  0.8615 -0.1772  0.0283
  364MOL0     H50181   6.836   2.036   7.249 -0.0046 -1.2589  0.6997
  364MOL0     H50182   7.205   2.122   7.176  0.7812  4.7462  0.2730
  364MOL0     H50183   7.093   2.136   7.303 -1.8613  1.4307  0.2711
  364MOL0     H50184   7.110   2.308   7.062 -0.8544 -0.5722  0.7133
  364MOL0     H50185   6.987   2.330   7.186 -0.0296  0.8893 -1.0336
  364MOL0     H50186   7.178   2.504   7.220 -2.5904 -0.1359  0.2739
  364MOL0     H50187   7.164   2.391   7.355 -0.3375  0.0171  0.0568
  364MOL0     H50188   7.356   2.255   7.209  2.7410  0.5485  0.5453
  364MOL0     H50189   7.384   2.418   7.164  2.1213 -1.0922  0.8965
  364MOL0     H50190   7.572   2.304   7.176 -1.1016 -1.6299  1.4916
  364MOL0     H50191   7.794   2.314   7.047  6.3467 -2.3765 -2.3769
  364MOL0     H50192   7.894   2.242   7.177  2.3117  1.2981  0.6466
  364MOL0     H50193   7.909   2.417   7.109 -0.6124  2.0226  2.7548
  364MOL0     H50194   8.025   2.685   7.693 -0.4202 -0.0816 -0.7017
  364MOL0     H50195   8.232   2.804   7.744  1.5701 -0.5601  0.7503
  364MOL0     H50196   8.626   2.698   7.497  1.2808  0.7221 -1.5939
  364MOL0     H50197   8.504   2.787   7.405  0.5972 -1.3715 -0.6257
  364MOL0     H50198   8.728   2.901   7.594  1.4556  0.5710 -1.0865
  364MOL0     H50199   8.688   2.915   7.427 -1.2446 -2.0126 -0.4816
  364MOL0     H50200   8.641   3.104   7.579 -1.8648  0.6161  1.4681
  364MOL0     H50201   8.483   3.037   7.613  0.9773  1.1973  1.2520
  364MOL0     H50202   8.410   3.037   7.397  1.3999 -2.2481  1.3123
  364MOL0     H50203   8.575   3.081   7.332  0.3551 -1.1973 -0.6544
  364MOL0     H50204   8.393   3.291   7.380 -0.5594 -4.4851 -2.6106
  364MOL0     H50205   8.434   3.268   7.543 -1.7699  3.3738 -1.2520
  364MOL0     H50206   8.613   3.322   7.300  1.9526 -2.8235 -0.0308
  364MOL0     H50207   8.683   3.296   7.464 -1.2524 -1.9793  0.3094
  364MOL0     H50208   8.533   3.482   7.565  0.0487 -0.6001 -0.8488
  364MOL0     H50209   8.501   3.524   7.398 -0.6889  1.9619  2.1092
  364MOL0     H50210   8.763   3.544   7.353 -0.8723  1.2882 -0.0982
  364MOL0     H50211   8.766   3.507   7.525  0.7941 -2.1340 -1.2006
  364MOL0     H50212   8.445   2.556   7.457 -0.3847 -0.6519 -0.3342
  364MOL0     H50213   8.229   2.441   7.403 -2.7153 -3.1654  2.2330
  364MOL0     H50214   7.787   2.562   7.551 -0.9169  0.9851 -0.1441
  364MOL0     H50215   7.532   2.515   7.545  0.2628  0.4736 -1.0753
  364MOL0     H50216   6.134   1.956   7.593  0.8997 -0.1538  0.6290
  364MOL0     H50217   6.140   2.194   7.668 -0.7764  0.8414  0.8587
  364MOL0     H50218   5.996   2.594   7.807  0.8969  1.7832  1.1059
  364MOL0     H50219   5.923   2.762   7.947  0.8187  1.8418 -1.2125
  364MOL0     H50220   5.501   2.839   7.965  0.0768  0.6317 -0.6350
  364MOL0     H50221   5.578   2.942   8.087  1.1437 -0.6114  0.1226
  364MOL0     H50222   5.536   3.018   7.779 -3.1517 -2.1282  0.0735
  364MOL0     H50223   5.583   3.131   7.899 -0.0973  0.8102 -2.0130
  364MOL0     H50224   5.320   2.974   7.904 -0.4378  0.0414  0.8644
  364MOL0     H50225   5.387   3.082   8.022 -0.3574 -3.5085  0.3091
  364MOL0     H50226   5.367   3.268   7.834 -0.8042  0.7987  0.8542
  364MOL0     H50227   5.209   3.194   7.899 -0.2426 -2.4104  1.6685
  364MOL0     H50228   5.204   3.070   7.493 -0.7910  2.0875  0.8752
  364MOL0     H50229   5.562   2.802   7.715  0.7704  1.6434  0.9931
  364MOL0     H50230   5.523   2.687   7.521 -0.9641 -1.1072  1.1780
  364MOL0     H50231   5.663   2.621   7.447  0.5057  0.7573  0.8365
  364MOL0     H50232   5.566   2.522   7.561  1.8808  0.0324  1.7789
  365MOL0     O50233  11.371   4.065   0.284  0.5023 -0.4838  0.3119
  365MOL0     C50234  11.267   4.112   0.239 -1.0260  0.7407 -0.3093
  365MOL0     O50235  11.230   4.102   0.115  0.2068  0.2162  0.0804
  365MOL0     C50236  11.306   4.025   0.025 -0.1958 -0.2813 -0.6923
  365MOL0     C50237  11.344   3.894   0.062 -0.6620 -1.1238  0.7214
  365MOL0     C50238  11.436   3.822  -0.027 -0.9804  0.1577 -0.8067
  365MOL0     C50239  11.483   3.888  -0.144  0.1134 -0.1100  0.6088
  365MOL0     O50240  11.548   3.819  -0.240 -0.4475 -0.0054  0.1262
  365MOL0     C50241  11.475   3.776  -0.351  0.6973  0.7427  0.5097
  365MOL0     C50242  11.552   3.664  -0.423 -0.1839  0.0045 -0.1376
  365MOL0     C50243  11.540   3.524  -0.353 -0.5124  0.3859  0.2917
  365MOL0     C50244  11.634   3.498  -0.235  0.1813  0.0042 -0.8610
  365MOL0     C50245  11.624   3.346  -0.195 -0.7997  0.8663 -0.2709
  365MOL0     C50246  11.512   3.305  -0.101 -0.1881 -0.0175 -0.9926
  365MOL0     C50247  11.501   3.156  -0.072  0.3903 -0.0241  0.3750
  365MOL0     C50248  11.449   3.061  -0.191  0.0007 -0.3825 -0.6469
  365MOL0     N50249  11.313   3.116  -0.224 -0.3744 -0.5400 -0.3396
  365MOL0     C50250  11.203   3.128  -0.149 -0.1043  0.9623  0.6778
  365MOL0     C50251  11.106   3.177  -0.229 -0.5491 -0.3972 -0.0332
  365MOL0     C50252  10.972   3.192  -0.170  0.0635 -0.2305 -0.2258
  365MOL0     C50253  10.900   3.061  -0.196  0.2217  0.4261  0.4318
  365MOL0     C50254  10.788   3.033  -0.101  0.2708 -0.2454  0.0777
  365MOL0     C50255  10.723   2.891  -0.123 -0.4085  0.3728  0.1841
  365MOL0     O50256  10.616   2.865  -0.034  0.0266 -0.7448 -0.7110
  365MOL0     C50257  10.504   2.794  -0.070 -0.4990  0.9142 -0.3379
  365MOL0     C50258  10.395   2.787   0.009  0.6037 -0.4547  0.4445
  365MOL0     C50259  10.276   2.708  -0.012 -0.5243 -0.5584  0.4323
  365MOL0     C50260  10.165   2.707   0.095  0.0375  0.7571  0.3431
  365MOL0     C50261  10.274   2.650  -0.141  0.3306  0.6283 -0.0307
  365MOL0     C50262  10.159   2.570  -0.194 -0.4131 -0.3239 -0.3518
  365MOL0     O50263  10.068   2.513  -0.107  0.7134 -0.3942 -0.4292
  365MOL0     C50264   9.962   2.442  -0.161 -0.0857 -0.0360  0.4014
  365MOL0     C50265   9.977   2.311  -0.193 -0.4789 -0.3641  0.8326
  365MOL0     C50266   9.876   2.242  -0.257  0.0484  0.2523 -0.5021
  365MOL0     C50267   9.750   2.304  -0.278 -0.3864  0.2484 -0.5914
  365MOL0     O50268   9.642   2.241  -0.335 -0.3567 -0.0651 -0.4594
  365MOL0     C50269   9.609   2.103  -0.282 -0.2186  0.0499 -0.1421
  365MOL0     C50270   9.526   2.034  -0.385  0.1116 -0.6902  0.2526
  365MOL0     C50271   9.383   2.084  -0.374  0.2348  0.5954 -0.7635
  365MOL0     C50272   9.292   2.016  -0.484 -0.7315  0.6500  0.1513
  365MOL0     C50273   9.149   2.074  -0.480 -0.3752  0.0885 -0.3087
  365MOL0     C50274   9.134   2.221  -0.490 -0.3242  0.1180 -0.3889
  365MOL0     C50275   8.982   2.261  -0.500  0.2999  0.7354 -0.4466
  365MOL0     C50276   8.919   2.260  -0.358 -0.1897  0.5838 -0.5374
  365MOL0    Cl50277   8.742   2.274  -0.359  0.8486 -0.5457  0.0263
  365MOL0     C50278   9.740   2.438  -0.257  0.1912 -0.0122  0.0392
  365MOL0     C50279   9.846   2.510  -0.205  0.2426 -0.3552 -0.8388
  365MOL0     O50280  10.140   2.558  -0.313 -0.7098 -0.0946  0.6638
  365MOL0     C50281  10.379   2.654  -0.220  0.0705  0.9299 -0.3035
  365MOL0     C50282  10.490   2.721  -0.187  0.2124 -0.3882  1.0190
  365MOL0     N50283  11.172   3.190  -0.356  0.6395 -0.2997 -0.2854
  365MOL0     N50284  11.291   3.155  -0.351 -0.3175 -0.4648 -0.1760
  365MOL0     C50285  11.443   4.016  -0.176 -0.5490  0.0457 -0.3466
  365MOL0     C50286  11.356   4.083  -0.088  0.7043  0.5350 -0.2772
  365MOL0     C50287  11.197   4.204   0.340 -0.3516  0.5174  0.1633
  365MOL0     C50288  11.148   4.321   0.288  0.4179  1.0478  1.4747
  365MOL0     C50289  11.084   4.412   0.369 -0.2045  0.1694  0.2453
  365MOL0     C50290  11.066   4.387   0.506  1.0826  1.1175  0.3848
  365MOL0     O50291  10.999   4.486   0.574 -0.9445  0.5515  0.8026
  365MOL0     C50292  10.984   4.480   0.717 -0.0455  0.3822 -0.3800
  365MOL0     C50293  11.108   4.507   0.810  0.3205  0.6557  0.2625
  365MOL0     C50294  11.160   4.652   0.795 -0.2828 -0.3012 -0.1209
  365MOL0     C50295  11.273   4.664   0.694  0.7951 -0.3806  0.2332
  365MOL0     C50296  11.318   4.804   0.679 -0.5611 -0.4448  0.4755
  365MOL0     C50297  11.362   4.921   0.670  0.5895  0.1374  0.7292
  365MOL0     C50298  11.104   4.262   0.556 -0.1469 -0.3078  0.7801
  365MOL0     C50299  11.176   4.171   0.478 -0.0070 -0.2194  0.8645
  365MOL0     C50300  11.212   4.037   0.533  0.5026 -0.1946 -0.6560
  365MOL0     H50301  11.296   3.852   0.149  0.2069 -1.6478  0.9640
  365MOL0     H50302  11.465   3.720  -0.004  0.5239  0.6966 -0.1840
  365MOL0     H50303  11.455   3.863  -0.414 -1.2545  1.0379  1.4579
  365MOL0     H50304  11.380   3.737  -0.314 -1.0801 -0.7505 -4.6529
  365MOL0     H50305  11.516   3.645  -0.524  2.7227 -0.6493 -1.1291
  365MOL0     H50306  11.656   3.692  -0.441 -0.7634  1.6660 -1.1484
  365MOL0     H50307  11.436   3.501  -0.325 -1.0621  1.4599 -0.8122
  365MOL0     H50308  11.568   3.447  -0.425 -0.6137  1.3456 -0.7942
  365MOL0     H50309  11.738   3.519  -0.259  1.0490 -2.8178 -0.0596
  365MOL0     H50310  11.616   3.563  -0.149  0.0734 -1.4672  0.2681
  365MOL0     H50311  11.713   3.311  -0.144 -3.1592 -4.5073  0.8796
  365MOL0     H50312  11.633   3.283  -0.285  0.4687 -0.5104  0.7703
  365MOL0     H50313  11.535   3.360  -0.010  2.0581  3.8569 -3.6212
  365MOL0     H50314  11.417   3.335  -0.146 -0.7948 -2.4985 -1.5700
  365MOL0     H50315  11.437   3.144   0.016  1.0731  0.3162  0.9342
  365MOL0     H50316  11.600   3.121  -0.041  1.1715  0.9257 -0.9246
  365MOL0     H50317  11.519   3.059  -0.275  2.9841  0.3482  1.6010
  365MOL0     H50318  11.441   2.962  -0.146 -1.4685 -1.0371 -2.2379
  365MOL0     H50319  11.195   3.105  -0.043  0.5525  1.7132  0.8978
  365MOL0     H50320  10.913   3.278  -0.204 -1.0121  0.1074  2.2228
  365MOL0     H50321  10.976   3.218  -0.063 -2.1563  0.1061 -0.1619
  365MOL0     H50322  10.864   3.065  -0.299 -1.4057  2.0226  1.0086
  365MOL0     H50323  10.973   2.981  -0.182  1.9012  1.1740 -3.0381
  365MOL0     H50324  10.823   3.039   0.003 -0.9698 -2.3190  0.6883
  365MOL0     H50325  10.707   3.107  -0.103 -2.4916 -3.0585 -2.1645
  365MOL0     H50326  10.688   2.884  -0.226  0.1221 -0.5476  0.0499
  365MOL0     H50327  10.795   2.814  -0.094  1.1193  2.8587  3.7192
  365MOL0     H50328  10.391   2.845   0.101 -1.1602  1.0810 -0.5391
  365MOL0     H50329  10.176   2.620   0.159  2.5672  1.5121  1.0491
  365MOL0     H50330  10.068   2.717   0.045  0.3402 -1.9521 -0.9530
  365MOL0     H50331  10.164   2.800   0.154 -2.8161  0.1196  1.4846
  365MOL0     H50332  10.076   2.268  -0.178 -0.8423 -1.5124  0.1298
  365MOL0     H50333   9.898   2.149  -0.308 -2.3047 -1.0626  0.7262
  365MOL0     H50334   9.695   2.038  -0.261 -0.3451  0.5946  2.3102
  365MOL0     H50335   9.557   2.110  -0.186 -0.2687 -0.7809 -0.0969
  365MOL0     H50336   9.570   2.057  -0.482  2.5540  0.2708  1.5202
  365MOL0     H50337   9.527   1.926  -0.373 -1.3804 -0.7823 -0.2055
  365MOL0     H50338   9.396   2.192  -0.386  3.5065  0.4804  0.6197
  365MOL0     H50339   9.335   2.060  -0.278  2.2821 -1.6430 -0.2165
  365MOL0     H50340   9.288   1.906  -0.485 -2.4901  0.6473 -2.7289
  365MOL0     H50341   9.323   2.039  -0.586 -1.0755 -1.6060 -0.5315
  365MOL0     H50342   9.089   2.036  -0.564  0.7880  1.0419 -1.6197
  365MOL0     H50343   9.105   2.040  -0.386  1.2735  0.3551  0.6014
  365MOL0     H50344   9.185   2.263  -0.576  1.5960 -2.3967 -0.5765
  365MOL0     H50345   9.173   2.267  -0.398 -2.1036 -0.0203  0.4791
  365MOL0     H50346   8.927   2.189  -0.560 -2.3469  2.2947 -0.0366
  365MOL0     H50347   8.961   2.364  -0.531 -1.8902  1.1829  2.0978
  365MOL0     H50348   8.946   2.349  -0.300 -1.0711  0.1243  0.6279
  365MOL0     H50349   8.944   2.168  -0.305 -0.9240  0.4573 -0.3990
  365MOL0     H50350   9.640   2.480  -0.268  0.3586  0.5166  0.4854
  365MOL0     H50351   9.827   2.617  -0.201 -1.7061 -0.6935 -0.0232
  365MOL0     H50352  10.376   2.606  -0.318  3.9179 -0.7179  0.1973
  365MOL0     H50353  10.563   2.729  -0.267 -1.9886  2.4515 -0.9482
  365MOL0     H50354  11.470   4.062  -0.270 -1.9936 -2.6518 -2.2329
  365MOL0     H50355  11.315   4.183  -0.095 -0.4525  0.0241 -1.1707
  365MOL0     H50356  11.142   4.353   0.185 -0.2026  0.0548  1.1904
  365MOL0     H50357  11.026   4.496   0.332 -4.5256 -1.5018  2.5627
  365MOL0     H50358  10.904   4.548   0.749  0.7157  0.4077  1.5825
  365MOL0     H50359  10.943   4.385   0.754 -2.2304  2.1588  2.1393
  365MOL0     H50360  11.193   4.441   0.792 -0.9688 -1.2238  0.8606
  365MOL0     H50361  11.078   4.494   0.914  1.5072  2.9707  0.9696
  365MOL0     H50362  11.082   4.720   0.760  0.6648  1.1704  0.5514
  365MOL0     H50363  11.198   4.675   0.895 -0.7934  2.6406 -0.5329
  365MOL0     H50364  11.244   4.629   0.595  1.8146 -2.8613  0.7262
  365MOL0     H50365  11.360   4.600   0.713  0.1026 -1.5347 -0.3371
  365MOL0     H50366  11.408   5.015   0.646  4.0158 -2.2389 -3.4119
  365MOL0     H50367  11.095   4.226   0.658  3.0578 -0.9154  0.9698
  365MOL0     H50368  11.163   4.024   0.631  2.5070  1.2642  0.6254
  365MOL0     H50369  11.170   3.957   0.472 -1.4943 -3.3960  4.2810
  365MOL0     H50370  11.321   4.028   0.541  0.3916 -0.5481  0.9161
  366MOL0     O50371   5.694   9.036  11.171 -0.0974 -0.1576  1.1481
  366MOL0     C50372   5.673   9.004  11.288 -0.1908  0.2662  0.1660
  366MOL0     O50373   5.553   8.982  11.347  1.1534 -0.4827 -0.8977
  366MOL0     C50374   5.438   9.009  11.278 -0.0400 -1.0496 -0.4361
  366MOL0     C50375   5.330   9.055  11.347 -0.5116  0.1036 -0.0716
  366MOL0     C50376   5.209   9.087  11.288 -1.1247 -0.4671 -0.1239
  366MOL0     C50377   5.179   9.055  11.152 -0.1137  0.6645  0.4937
  366MOL0     O50378   5.057   9.081  11.083 -0.1169 -0.4136  0.1760
  366MOL0     C50379   4.949   9.150  11.148 -0.0715  0.4899 -0.0098
  366MOL0     C50380   4.819   9.159  11.064  0.0483  0.3378  0.1172
  366MOL0     C50381   4.717   9.075  11.143 -0.6027  0.6814 -0.4329
  366MOL0     C50382   4.595   9.044  11.060 -0.5108 -0.8082 -0.0807
  366MOL0     C50383   4.491   8.948  11.135  0.6241  0.1128 -0.0785
  366MOL0     C50384   4.354   8.929  11.075  0.0692  0.2603 -0.3095
  366MOL0     C50385   4.342   8.891  10.923  0.4158 -0.1135  0.7654
  366MOL0     C50386   4.414   8.765  10.880  0.2320  0.3224  0.4947
  366MOL0     N50387   4.360   8.717  10.752  0.3016 -0.5990 -0.5600
  366MOL0     C50388   4.355   8.795  10.645  0.3883 -0.0248  0.8249
  366MOL0     C50389   4.280   8.737  10.552 -0.4119  0.5352 -0.3748
  366MOL0     C50390   4.263   8.780  10.416 -0.2302  0.5283 -0.3299
  366MOL0     C50391   4.376   8.748  10.322 -0.1428  0.0728  0.1864
  366MOL0     C50392   4.362   8.786  10.171  0.4314 -0.3623 -0.3603
  366MOL0     C50393   4.445   8.690  10.091  0.2615 -0.4997 -1.0916
  366MOL0     O50394   4.585   8.730  10.119  0.0484  0.0662 -0.9432
  366MOL0     C50395   4.674   8.679  10.029 -0.2059  0.8581 -0.2393
  366MOL0     C50396   4.643   8.582   9.933  0.1598  0.9487  0.4120
  366MOL0     C50397   4.728   8.538   9.828 -1.0769 -1.1180  0.7629
  366MOL0     C50398   4.665   8.447   9.724 -0.3879  1.0132  0.2366
  366MOL0     C50399   4.867   8.580   9.834 -0.4469  0.3308 -0.2549
  366MOL0     C50400   4.970   8.533   9.743  0.4275  0.0281 -0.3109
  366MOL0     O50401   5.097   8.568   9.771 -0.2557  1.2732 -0.6417
  366MOL0     C50402   5.192   8.557   9.676 -0.3771  0.3826 -0.0456
  366MOL0     C50403   5.180   8.542   9.539 -0.3153  0.2374 -0.1942
  366MOL0     C50404   5.298   8.540   9.456  0.2246  0.4653 -0.1905
  366MOL0     C50405   5.425   8.537   9.508  0.2860  0.5832  0.6853
  366MOL0     O50406   5.520   8.526   9.414  0.1838 -0.7078  0.5334
  366MOL0     C50407   5.639   8.461   9.464  0.0416 -0.5812  0.0931
  366MOL0     C50408   5.667   8.357   9.359 -0.4460  0.6789 -0.6705
  366MOL0     C50409   5.804   8.292   9.377 -0.3180  0.0949  0.0052
  366MOL0     C50410   5.812   8.176   9.465 -0.3337  1.0376  0.1228
  366MOL0     C50411   5.761   8.041   9.395  0.2697  0.2010  0.5199
  366MOL0     C50412   5.868   7.988   9.296  0.3259 -0.3232 -0.1041
  366MOL0     C50413   5.836   7.860   9.224 -0.4881 -0.1621  1.1086
  366MOL0     C50414   5.760   7.756   9.311 -0.8313  0.5310  0.2796
  366MOL0    Cl50415   5.863   7.709   9.449  0.0592 -0.0267 -0.1268
  366MOL0     C50416   5.443   8.547   9.648  0.2456 -0.3108 -0.9453
  366MOL0     C50417   5.327   8.546   9.725 -1.1912  0.0928  0.1943
  366MOL0     O50418   4.942   8.454   9.647  0.2114 -0.5328  0.3987
  366MOL0     C50419   4.900   8.669   9.938  0.4856  0.4944 -0.3038
  366MOL0     C50420   4.808   8.729  10.030  0.6265  0.4551  0.0608
  366MOL0     N50421   4.232   8.620  10.610 -0.4036 -0.5377 -0.2210
  366MOL0     N50422   4.291   8.601  10.724 -0.4233 -0.5885  0.8099
  366MOL0     C50423   5.291   9.004  11.079  1.3598 -0.5353  0.0257
  366MOL0     C50424   5.417   8.990  11.140 -0.4313  0.1956 -1.0017
  366MOL0     C50425   5.798   8.979  11.363  0.3884 -0.1884  0.2198
  366MOL0     C50426   5.810   8.858  11.428 -0.4854 -1.2809 -0.5614
  366MOL0     C50427   5.940   8.819  11.474  0.3242  0.1850  0.6232
  366MOL0     C50428   6.044   8.907  11.466  0.0657  0.4480  0.2735
  366MOL0     O50429   6.166   8.865  11.512  0.2085 -0.3592 -1.1233
  366MOL0     C50430   6.257   8.826  11.405 -0.3295  0.8875 -0.4105
  366MOL0     C50431   6.294   8.681  11.426 -0.0642  1.3404  0.2182
  366MOL0     C50432   6.368   8.654  11.558 -0.1949 -0.2000 -0.3377
  366MOL0     C50433   6.440   8.512  11.571 -0.0184 -0.8478  0.3870
  366MOL0     C50434   6.557   8.470  11.492 -0.4357  0.4177 -0.3887
  366MOL0     C50435   6.669   8.444  11.446 -0.2760 -0.2810 -0.5675
  366MOL0     C50436   6.027   9.027  11.416  0.6671 -0.1418 -0.1879
  366MOL0     C50437   5.902   9.070  11.348 -0.5639  0.6298 -1.1519
  366MOL0     C50438   5.879   9.208  11.297 -0.3360  0.2652 -0.1790
  366MOL0     H50439   5.346   9.081  11.451  0.1197  0.0655 -0.1544
  366MOL0     H50440   5.136   9.134  11.354  0.2503  0.0705  1.0797
  366MOL0     H50441   4.983   9.249  11.179 -0.9286  1.4936 -2.0565
  366MOL0     H50442   4.925   9.089  11.235 -0.3355 -0.4198 -0.6983
  366MOL0     H50443   4.785   9.263  11.054 -0.9181  0.0803  0.5486
  366MOL0     H50444   4.832   9.126  10.961 -3.4732  1.3613 -0.8239
  366MOL0     H50445   4.768   8.984  11.173 -2.0282 -0.0866 -0.2293
  366MOL0     H50446   4.681   9.129  11.231 -3.4261 -0.0638 -1.0219
  366MOL0     H50447   4.548   9.140  11.034 -0.5567 -1.2624 -1.8317
  366MOL0     H50448   4.633   8.991  10.972  0.3451 -3.9760  2.0590
  366MOL0     H50449   4.478   8.989  11.235 -0.9074 -0.3859 -0.0539
  366MOL0     H50450   4.530   8.846  11.145 -0.1559 -0.1701  0.1807
  366MOL0     H50451   4.306   8.846  11.129 -0.3099  0.8260  0.2386
  366MOL0     H50452   4.301   9.024  11.080  1.4629  1.1372 -1.5392
  366MOL0     H50453   4.385   8.974  10.867 -0.2308 -0.6742 -0.6134
  366MOL0     H50454   4.236   8.898  10.895  0.4560  1.6713  0.9246
  366MOL0     H50455   4.521   8.784  10.863  0.4758 -0.8717  0.6291
  366MOL0     H50456   4.408   8.679  10.946  2.1880 -0.3616 -0.1379
  366MOL0     H50457   4.413   8.883  10.623 -2.7093  2.0462  0.3856
  366MOL0     H50458   4.250   8.888  10.419  2.5688  0.9225 -0.2026
  366MOL0     H50459   4.168   8.744  10.375 -0.8793  1.0193  0.6832
  366MOL0     H50460   4.470   8.794  10.353  1.0140 -0.0866 -2.8156
  366MOL0     H50461   4.398   8.642  10.342  2.1915  0.5419  0.3615
  366MOL0     H50462   4.261   8.783  10.130 -0.9234 -2.6327  2.7671
  366MOL0     H50463   4.400   8.888  10.155 -1.3892  0.1529 -1.7864
  366MOL0     H50464   4.431   8.587  10.125 -2.0143  0.7717  2.3590
  366MOL0     H50465   4.411   8.703   9.988 -0.0757  5.3083 -0.5746
  366MOL0     H50466   4.544   8.537   9.923  0.8680 -0.6092  0.1900
  366MOL0     H50467   4.713   8.350   9.741 -0.5854  1.0364  0.9590
  366MOL0     H50468   4.692   8.479   9.623  1.4992 -1.0250  0.0179
  366MOL0     H50469   4.558   8.446   9.743 -0.3259  1.7467  0.6825
  366MOL0     H50470   5.087   8.531   9.484 -0.3086 -0.6378 -0.0347
  366MOL0     H50471   5.298   8.519   9.349  1.8281 -1.7468  0.1801
  366MOL0     H50472   5.720   8.534   9.463 -0.5895  0.1439 -0.8118
  366MOL0     H50473   5.623   8.415   9.562  0.8960  1.1428  1.0873
  366MOL0     H50474   5.600   8.271   9.369  0.2353  0.1950 -0.2021
  366MOL0     H50475   5.666   8.399   9.258 -2.7073 -0.6476 -1.2557
  366MOL0     H50476   5.870   8.370   9.418 -0.7775  0.0890  0.7735
  366MOL0     H50477   5.854   8.262   9.285  0.3322 -0.2704  0.4656
  366MOL0     H50478   5.753   8.191   9.556 -0.7122  1.0665 -0.1235
  366MOL0     H50479   5.914   8.159   9.499 -0.5647  0.7500  0.6959
  366MOL0     H50480   5.744   7.966   9.473  1.9734  1.2772  1.9864
  366MOL0     H50481   5.669   8.056   9.336 -1.1023 -2.5571  1.7620
  366MOL0     H50482   5.964   7.985   9.349  1.1966 -1.4655 -1.6953
  366MOL0     H50483   5.887   8.067   9.223 -0.6203  1.4747  1.4932
  366MOL0     H50484   5.928   7.822   9.180  0.8753  3.5364  0.4081
  366MOL0     H50485   5.773   7.882   9.137  2.6519 -1.5774 -1.7398
  366MOL0     H50486   5.745   7.672   9.243  0.2770  2.0309 -1.9333
  366MOL0     H50487   5.662   7.800   9.330  0.2797  3.2369  0.1511
  366MOL0     H50488   5.537   8.561   9.700 -0.6451 -0.0147  0.6265
  366MOL0     H50489   5.348   8.554   9.831 -0.3406  1.2644 -0.0361
  366MOL0     H50490   4.991   8.726   9.949 -0.3517  1.5121  1.7813
  366MOL0     H50491   4.840   8.803  10.102 -1.6954  0.2792  1.3912
  366MOL0     H50492   5.276   8.984  10.973 -0.4764 -1.0961  0.3510
  366MOL0     H50493   5.499   8.939  11.090  2.2269  0.4110  2.6925
  366MOL0     H50494   5.731   8.789  11.453 -0.6217 -0.3836  1.7069
  366MOL0     H50495   5.958   8.726  11.526 -1.7605 -0.6866 -0.0891
  366MOL0     H50496   6.206   8.830  11.308 -0.5672 -0.8195 -0.3834
  366MOL0     H50497   6.349   8.884  11.410  1.7473 -1.9656 -2.4883
  366MOL0     H50498   6.357   8.650  11.343 -1.4764 -1.8373  0.2020
  366MOL0     H50499   6.200   8.625  11.421  0.0380  1.2761 -1.1579
  366MOL0     H50500   6.438   8.733  11.584  0.9514 -0.8612 -1.2906
  366MOL0     H50501   6.296   8.644  11.640  1.2510  1.7452  1.2461
  366MOL0     H50502   6.366   8.434  11.554 -1.0242  0.0627  0.5089
  366MOL0     H50503   6.465   8.508  11.678  0.2055 -1.2396  0.3197
  366MOL0     H50504   6.768   8.416  11.417 -0.8320 -0.8415 -2.0221
  366MOL0     H50505   6.108   9.099  11.420  2.2904 -1.7005 -2.5331
  366MOL0     H50506   5.787   9.251  11.336 -1.0815 -1.1570 -0.3070
  366MOL0     H50507   5.970   9.267  11.315 -0.4414  0.4135 -0.1322
  366MOL0     H50508   5.868   9.197  11.189 -1.6686 -2.3021  0.1485
  367MOL0     O50509   1.330   4.678  10.321  0.1756 -0.2650 -0.8295
  367MOL0     C50510   1.239   4.760  10.304 -0.1842 -0.2836  0.1755
  367MOL0     O50511   1.265   4.893  10.283  0.6254 -0.1145  0.5383
  367MOL0     C50512   1.389   4.928  10.243  0.0637 -0.0248  0.4527
  367MOL0     C50513   1.419   4.936  10.110 -0.7244  0.3801  0.7336
  367MOL0     C50514   1.549   4.976  10.072 -0.8276 -0.8579 -0.1799
  367MOL0     C50515   1.650   5.021  10.174  0.1981  0.5226  0.4181
  367MOL0     O50516   1.767   5.067  10.131 -0.1354  0.2647 -0.4750
  367MOL0     C50517   1.890   5.050  10.207 -0.4380 -0.3450 -1.1741
  367MOL0     C50518   2.007   5.120  10.136  0.1306  0.1412 -0.2664
  367MOL0     C50519   2.139   5.074  10.186  0.1518  0.8807  0.4970
  367MOL0     C50520   2.240   5.102  10.074  0.3643  0.4860 -0.8531
  367MOL0     C50521   2.389   5.095  10.128 -0.4554 -0.8045  0.4204
  367MOL0     C50522   2.473   5.091  10.010 -0.3674 -0.1714  0.4055
  367MOL0     C50523   2.624   5.067  10.046  0.9761  0.0781  0.1746
  367MOL0     C50524   2.699   5.064   9.916  0.3691 -0.2318  0.3682
  367MOL0     N50525   2.843   5.071   9.947  0.8397 -0.4578 -0.8324
  367MOL0     C50526   2.935   5.083   9.845  0.2519  0.2814 -0.2227
  367MOL0     C50527   3.060   5.045   9.886 -0.5592  0.1228 -0.7360
  367MOL0     C50528   3.197   5.063   9.832  0.7591 -0.3664 -0.1298
  367MOL0     C50529   3.264   4.942   9.766 -0.6095 -0.7471  0.2779
  367MOL0     C50530   3.308   4.833   9.863 -0.0490  0.0488 -0.6851
  367MOL0     C50531   3.417   4.878   9.970 -0.4282 -0.2024  0.5503
  367MOL0     O50532   3.479   4.763  10.034  0.3613  0.2418  0.3831
  367MOL0     C50533   3.563   4.777  10.142  0.3570 -0.6929  0.5556
  367MOL0     C50534   3.650   4.667  10.174 -1.0948  0.0607  0.0534
  367MOL0     C50535   3.732   4.665  10.290 -0.4198 -0.4585 -0.1263
  367MOL0     C50536   3.816   4.538  10.313  0.8024 -0.9152 -0.4201
  367MOL0     C50537   3.709   4.776  10.385 -0.6148  0.3827  0.1221
  367MOL0     C50538   3.775   4.793  10.523  0.1656  0.0326 -1.5165
  367MOL0     O50539   3.749   4.908  10.606  0.5749 -0.3536 -0.0916
  367MOL0     C50540   3.775   4.921  10.749  0.0989 -0.4188  0.7185
  367MOL0     C50541   3.779   4.815  10.830 -0.0481 -0.4991 -0.2031
  367MOL0     C50542   3.794   4.835  10.964  0.1237  0.3394 -0.2813
  367MOL0     C50543   3.796   4.962  11.024  0.2274 -0.1350  0.2927
  367MOL0     O50544   3.809   4.999  11.158 -0.2651  0.4300  0.2444
  367MOL0     C50545   3.844   4.896  11.256 -0.0318  0.6440 -0.1547
  367MOL0     C50546   3.980   4.904  11.311 -0.1087  0.1413  0.2090
  367MOL0     C50547   4.084   4.893  11.190 -0.4985 -0.0880  0.5274
  367MOL0     C50548   4.223   4.891  11.262  0.1612 -0.4592  0.0855
  367MOL0     C50549   4.333   4.881  11.165 -0.4821  0.1375  1.2108
  367MOL0     C50550   4.360   4.734  11.119  0.4059 -0.5669 -0.1166
  367MOL0     C50551   4.443   4.659  11.217  0.2829 -0.3305  0.0489
  367MOL0     C50552   4.479   4.533  11.147 -0.3349  0.4787  0.4619
  367MOL0    Cl50553   4.607   4.442  11.240 -0.1659 -0.1715 -0.2026
  367MOL0     C50554   3.795   5.069  10.938 -0.0597 -0.1141  0.6680
  367MOL0     C50555   3.786   5.046  10.803 -0.1515 -0.0313 -0.3578
  367MOL0     O50556   3.847   4.703  10.564 -0.3872 -0.1719 -0.6484
  367MOL0     C50557   3.623   4.881  10.345 -0.5283  0.5726 -0.3686
  367MOL0     C50558   3.548   4.885  10.228 -1.7018  0.5631  0.5007
  367MOL0     N50559   3.034   4.990  10.010  0.5695  0.4697 -0.6833
  367MOL0     N50560   2.909   5.003  10.044  0.3674  0.5583 -0.0940
  367MOL0     C50561   1.616   5.011  10.313 -0.8604 -0.7090  0.0153
  367MOL0     C50562   1.486   4.961  10.339 -0.6053 -0.0143 -0.0220
  367MOL0     C50563   1.102   4.710  10.295 -0.6481  0.2131 -0.6860
  367MOL0     C50564   1.006   4.762  10.392  0.2261 -0.3931  0.0291
  367MOL0     C50565   0.871   4.715  10.391 -0.4923 -0.2594 -0.0447
  367MOL0     C50566   0.832   4.624  10.296  0.1881  0.0923 -0.9987
  367MOL0     O50567   0.709   4.571  10.271  0.4600 -0.3938  0.0738
  367MOL0     C50568   0.587   4.624  10.325 -0.9138  0.1230 -0.5303
  367MOL0     C50569   0.467   4.569  10.250  0.3413 -0.6603  0.1518
  367MOL0     C50570   0.357   4.511  10.343 -0.5130 -0.1997 -0.0121
  367MOL0     C50571   0.231   4.468  10.259 -0.6172 -1.0115  0.4418
  367MOL0     C50572   0.147   4.391  10.344 -0.3934  0.0586 -0.1735
  367MOL0     C50573   0.080   4.328  10.424 -0.2506 -0.5974  0.2691
  367MOL0     C50574   0.927   4.572  10.207  0.6626 -1.1040 -0.8152
  367MOL0     C50575   1.065   4.608  10.209  0.1645  0.3671  1.0917
  367MOL0     C50576   1.141   4.549  10.090  0.3985  0.6975 -0.7930
  367MOL0     H50577   1.351   4.901  10.033  2.4386 -1.4751 -1.4391
  367MOL0     H50578   1.573   4.967   9.966 -2.0237 -2.8070 -0.3294
  367MOL0     H50579   1.895   4.943  10.229 -2.8199  0.1781  2.8364
  367MOL0     H50580   1.880   5.088  10.308 -0.9611  3.6020 -2.5470
  367MOL0     H50581   1.997   5.098  10.029 -3.1923 -2.0767  0.3314
  367MOL0     H50582   1.991   5.226  10.156 -2.2049 -0.5413  1.8916
  367MOL0     H50583   2.161   5.132  10.276  1.1704  0.5852  0.4536
  367MOL0     H50584   2.133   4.967  10.210 -1.6452  0.3034 -2.1156
  367MOL0     H50585   2.222   5.034   9.990 -0.2933 -0.3940 -0.0290
  367MOL0     H50586   2.228   5.205  10.039  1.5675  0.4813 -1.3229
  367MOL0     H50587   2.399   5.002  10.185 -2.1954 -1.7660 -0.7651
  367MOL0     H50588   2.403   5.189  10.183 -1.5845  0.3548 -1.1991
  367MOL0     H50589   2.435   5.015   9.941 -1.9171 -1.4405  2.5253
  367MOL0     H50590   2.466   5.188   9.959 -1.3035  0.7203  2.1458
  367MOL0     H50591   2.630   4.974  10.103 -1.6278 -2.3521 -3.0889
  367MOL0     H50592   2.662   5.149  10.107 -0.5067  1.3721 -0.5726
  367MOL0     H50593   2.681   4.976   9.853  3.2940  1.5852 -3.3901
  367MOL0     H50594   2.681   5.155   9.858  3.0276 -0.3961 -0.8615
  367MOL0     H50595   2.923   5.137   9.752  0.6363  0.7882  0.0151
  367MOL0     H50596   3.261   5.101   9.912  0.6820 -0.4905 -0.0098
  367MOL0     H50597   3.174   5.132   9.750 -2.0681 -0.4548  0.4932
  367MOL0     H50598   3.209   4.905   9.679  0.3256  2.8935 -2.0684
  367MOL0     H50599   3.358   4.981   9.726  0.2340 -0.1838  2.6616
  367MOL0     H50600   3.218   4.800   9.916 -0.8079  1.2931 -1.1639
  367MOL0     H50601   3.344   4.749   9.802  2.2528 -0.1141  0.8162
  367MOL0     H50602   3.502   4.934   9.929 -1.2457  0.6017 -0.1035
  367MOL0     H50603   3.368   4.948  10.038  0.6509  0.1858  0.9563
  367MOL0     H50604   3.663   4.611  10.082 -1.1005  1.0707 -0.5805
  367MOL0     H50605   3.906   4.542  10.251  1.4793 -2.2295  0.4358
  367MOL0     H50606   3.756   4.452  10.282 -0.1212 -0.8228  1.0254
  367MOL0     H50607   3.852   4.528  10.415  0.7186  2.0400 -0.0112
  367MOL0     H50608   3.782   4.712  10.795 -0.0140  0.1425 -2.1613
  367MOL0     H50609   3.801   4.747  11.028 -0.1930  1.5872  1.5535
  367MOL0     H50610   3.778   4.893  11.343 -2.4333  2.3392 -1.8189
  367MOL0     H50611   3.824   4.804  11.201  1.6603 -0.2438  0.6176
  367MOL0     H50612   3.990   4.995  11.372  0.5892  0.7755 -0.8239
  367MOL0     H50613   4.004   4.818  11.374  3.2055  0.4434 -0.4594
  367MOL0     H50614   4.073   4.982  11.127  0.4994 -0.9050 -0.8478
  367MOL0     H50615   4.061   4.800  11.138  0.7590 -1.3914  2.1692
  367MOL0     H50616   4.230   4.801  11.324  1.8963  0.9906  2.1641
  367MOL0     H50617   4.231   4.981  11.325 -2.0836 -0.9377  1.1745
  367MOL0     H50618   4.312   4.939  11.074 -1.9894  1.0729  2.1252
  367MOL0     H50619   4.426   4.912  11.213  0.1854 -2.2200  1.5583
  367MOL0     H50620   4.406   4.733  11.020 -1.1920 -1.8324 -0.8772
  367MOL0     H50621   4.259   4.693  11.115 -1.4550  3.2857  1.8668
  367MOL0     H50622   4.379   4.632  11.301 -1.8071  0.4658 -1.2162
  367MOL0     H50623   4.526   4.722  11.248 -1.0619  1.3811  0.3019
  367MOL0     H50624   4.535   4.559  11.057  3.4065 -2.1926  1.7729
  367MOL0     H50625   4.399   4.464  11.117  1.2223 -2.1901  1.9907
  367MOL0     H50626   3.791   5.168  10.983  0.7381 -0.0841  0.6905
  367MOL0     H50627   3.778   5.146  10.760 -0.3361 -0.3701 -1.1233
  367MOL0     H50628   3.613   4.973  10.402  2.6278  1.1779 -0.5918
  367MOL0     H50629   3.480   4.968  10.213 -1.6456  0.2469 -1.7822
  367MOL0     H50630   1.682   5.038  10.395  2.1069 -2.4831 -1.6356
  367MOL0     H50631   1.442   4.959  10.438 -3.7274 -0.7156 -1.3095
  367MOL0     H50632   1.037   4.836  10.466 -2.6443  0.3725  0.5774
  367MOL0     H50633   0.803   4.750  10.469 -1.3493  1.9297 -1.6648
  367MOL0     H50634   0.590   4.593  10.430  3.5685 -1.6170 -0.9366
  367MOL0     H50635   0.581   4.733  10.321  0.2502  0.3815  2.2996
  367MOL0     H50636   0.487   4.491  10.177 -1.8105  0.0281 -1.2728
  367MOL0     H50637   0.417   4.647  10.191  1.2216  1.5937  2.2274
  367MOL0     H50638   0.388   4.426  10.404 -0.8338  1.6332  2.8996
  367MOL0     H50639   0.326   4.587  10.415 -1.4677 -1.7633  1.2860
  367MOL0     H50640   0.263   4.412  10.171 -1.7575  1.2690 -1.5439
  367MOL0     H50641   0.173   4.555  10.227 -0.0025 -0.1557  1.5751
  367MOL0     H50642   0.013   4.269  10.483 -1.1930 -0.7047 -0.8460
  367MOL0     H50643   0.897   4.505  10.127 -3.1896 -1.1072  0.4141
  367MOL0     H50644   1.120   4.443  10.078 -2.3935  0.7878  1.9374
  367MOL0     H50645   1.105   4.590   9.995 -2.2283  0.9484  0.2179
  367MOL0     H50646   1.247   4.573  10.098  0.4533 -0.1897  2.4165
  368MOL0     O50647   2.682   4.615   0.070 -0.7425 -0.4522 -0.1018
  368MOL0     C50648   2.584   4.550   0.041  0.2216  0.0236 -0.9043
  368MOL0     O50649   2.571   4.467  -0.062 -0.3693  0.1402 -0.7897
  368MOL0     C50650   2.681   4.431  -0.130  0.1648 -0.4593  0.2589
  368MOL0     C50651   2.710   4.493  -0.257 -1.1783  0.5249  0.3792
  368MOL0     C50652   2.818   4.460  -0.330  0.5690  0.4253 -0.0867
  368MOL0     C50653   2.910   4.361  -0.283 -0.4635 -0.4499  0.4598
  368MOL0     O50654   3.018   4.321  -0.353 -0.0981 -0.0406 -0.2195
  368MOL0     C50655   3.089   4.417  -0.427  0.0985 -0.1835  0.4905
  368MOL0     C50656   3.212   4.340  -0.477  0.5291 -0.3637  0.0422
  368MOL0     C50657   3.264   4.242  -0.370  0.5035 -0.6962 -0.6775
  368MOL0     C50658   3.413   4.224  -0.383  0.8730  0.2998  0.3039
  368MOL0     C50659   3.472   4.120  -0.295 -0.2394  0.5435  1.1369
  368MOL0     C50660   3.430   3.977  -0.337 -1.0102 -1.0012  1.0181
  368MOL0     C50661   3.484   3.938  -0.483 -0.5220 -0.0057  0.1330
  368MOL0     C50662   3.637   3.907  -0.499  0.5195  0.0023  1.2546
  368MOL0     N50663   3.659   3.776  -0.563  0.6454 -0.0359 -0.0541
  368MOL0     C50664   3.662   3.659  -0.494 -0.7945 -0.3900 -0.5733
  368MOL0     C50665   3.679   3.566  -0.584 -0.8186 -0.4448 -0.2668
  368MOL0     C50666   3.691   3.421  -0.553  0.0577 -0.7858  0.3433
  368MOL0     C50667   3.570   3.341  -0.603 -0.5397  0.4919 -0.6198
  368MOL0     C50668   3.469   3.369  -0.496  0.4959  1.1140  0.2106
  368MOL0     C50669   3.332   3.327  -0.549 -0.2416  0.4319  0.5371
  368MOL0     O50670   3.247   3.398  -0.468  0.2410  1.0448 -0.4421
  368MOL0     C50671   3.116   3.351  -0.477  0.5887  0.0110  1.1606
  368MOL0     C50672   3.036   3.413  -0.384  0.2543  0.8115 -1.1330
  368MOL0     C50673   2.896   3.406  -0.388 -0.7106  0.2200  0.3096
  368MOL0     C50674   2.813   3.501  -0.297  0.5916  0.8300 -0.1273
  368MOL0     C50675   2.843   3.309  -0.475  0.0509 -0.5903 -0.0745
  368MOL0     C50676   2.693   3.303  -0.495  0.3946 -0.4451 -0.2817
  368MOL0     O50677   2.648   3.185  -0.535  0.0716  0.0828  0.5400
  368MOL0     C50678   2.514   3.166  -0.552 -0.5562 -0.5193  0.0521
  368MOL0     C50679   2.460   3.203  -0.673 -0.0899 -0.8405 -0.5500
  368MOL0     C50680   2.326   3.170  -0.704  0.2152 -0.1587  0.8309
  368MOL0     C50681   2.256   3.090  -0.615  1.1002 -0.7083  0.2187
  368MOL0     O50682   2.141   3.033  -0.656  0.7301 -0.0716 -0.2008
  368MOL0     C50683   2.041   3.117  -0.705 -0.6866  0.4087 -0.1319
  368MOL0     C50684   1.926   3.019  -0.754  0.3708 -0.7133  0.4426
  368MOL0     C50685   1.804   3.105  -0.792 -0.4148  0.0365  0.3169
  368MOL0     C50686   1.696   3.030  -0.872  0.2142 -0.3162 -0.3654
  368MOL0     C50687   1.571   3.124  -0.885  0.1755  0.0233 -0.0623
  368MOL0     C50688   1.469   3.157  -0.772 -0.0941 -0.4247 -0.4459
  368MOL0     C50689   1.387   3.291  -0.784  0.1085  0.0151 -0.0158
  368MOL0     C50690   1.311   3.334  -0.653 -0.5239  0.7449 -1.0085
  368MOL0    Cl50691   1.439   3.378  -0.537  0.2678  0.1816 -0.2451
  368MOL0     C50692   2.309   3.044  -0.501  0.1504 -0.7683  0.1178
  368MOL0     C50693   2.442   3.082  -0.473  0.6848 -0.2618  0.5217
  368MOL0     O50694   2.630   3.408  -0.487 -0.3909  0.3015  0.1692
  368MOL0     C50695   2.928   3.219  -0.548 -0.1003  0.6315  0.3109
  368MOL0     C50696   3.069   3.241  -0.546  1.2648  0.6838 -0.2473
  368MOL0     N50697   3.700   3.625  -0.707  0.4999  0.0341  0.0133
  368MOL0     N50698   3.696   3.758  -0.690 -0.0564  0.3394  0.5353
  368MOL0     C50699   2.884   4.303  -0.162  0.1907  0.7271 -1.3016
  368MOL0     C50700   2.768   4.333  -0.087 -1.1242  0.5806 -0.1676
  368MOL0     C50701   2.471   4.566   0.137 -0.1763  1.0323  0.0708
  368MOL0     C50702   2.475   4.672   0.228 -0.6015  1.3831  0.1170
  368MOL0     C50703   2.383   4.688   0.326 -0.1480 -0.2714 -0.6082
  368MOL0     C50704   2.271   4.605   0.335  0.1678  1.2608 -0.4422
  368MOL0     O50705   2.189   4.621   0.440 -0.5105  0.2445 -0.0857
  368MOL0     C50706   2.055   4.634   0.403 -0.8447 -0.4428 -0.9891
  368MOL0     C50707   2.016   4.767   0.463 -0.0337 -0.0927  0.1240
  368MOL0     C50708   2.046   4.895   0.373 -0.5964 -0.2157 -0.3095
  368MOL0     C50709   2.029   5.024   0.455 -0.1033  0.4509  0.6321
  368MOL0     C50710   2.147   5.053   0.535  0.0493 -0.3954  0.0732
  368MOL0     C50711   2.261   5.059   0.587  0.2252  0.4754  0.0508
  368MOL0     C50712   2.260   4.501   0.240  0.3096 -0.6943 -0.1209
  368MOL0     C50713   2.359   4.481   0.146  0.2424  0.2832 -0.2866
  368MOL0     C50714   2.341   4.356   0.065  0.4360  0.2108 -0.1725
  368MOL0     H50715   2.629   4.548  -0.304 -2.4936 -1.6068  0.0302
  368MOL0     H50716   2.837   4.505  -0.427  0.9710 -3.2416 -1.8799
  368MOL0     H50717   3.126   4.494  -0.359  0.3720 -0.2968  0.4746
  368MOL0     H50718   3.036   4.465  -0.510 -0.1027 -0.3193  0.5427
  368MOL0     H50719   3.191   4.290  -0.571 -1.8477 -1.7263  1.1964
  368MOL0     H50720   3.290   4.412  -0.505 -1.3143  1.1891 -1.3414
  368MOL0     H50721   3.259   4.285  -0.269 -0.8639 -1.9315 -0.1853
  368MOL0     H50722   3.226   4.140  -0.378 -0.3531 -0.3463 -1.2631
  368MOL0     H50723   3.449   4.214  -0.486  3.1751  0.0129  1.0854
  368MOL0     H50724   3.446   4.318  -0.337  2.1989  0.8871 -1.7185
  368MOL0     H50725   3.457   4.138  -0.188  2.7689 -2.4895  2.2606
  368MOL0     H50726   3.581   4.116  -0.306 -0.4811 -2.6684 -1.9360
  368MOL0     H50727   3.473   3.899  -0.274  1.8294 -1.6481 -1.4619
  368MOL0     H50728   3.323   3.970  -0.317 -1.5681  2.9352  0.2228
  368MOL0     H50729   3.471   4.024  -0.550  1.2390  1.5136  1.6198
  368MOL0     H50730   3.428   3.851  -0.517  0.5974 -0.9190  0.5536
  368MOL0     H50731   3.695   3.988  -0.544 -0.8783  1.2540  1.6207
  368MOL0     H50732   3.678   3.894  -0.398 -1.7647 -1.5208  2.0613
  368MOL0     H50733   3.659   3.629  -0.390  2.8154 -1.4788 -0.6292
  368MOL0     H50734   3.703   3.407  -0.445 -4.7267 -0.9706  1.0475
  368MOL0     H50735   3.779   3.378  -0.601  0.5640  1.7984 -1.1951
  368MOL0     H50736   3.540   3.372  -0.704  0.1597 -0.7188 -1.2275
  368MOL0     H50737   3.590   3.233  -0.600  1.1472  0.7948  0.7393
  368MOL0     H50738   3.491   3.317  -0.402 -0.2227  1.3486  0.5258
  368MOL0     H50739   3.472   3.474  -0.463  0.7842  0.9077  0.8701
  368MOL0     H50740   3.315   3.361  -0.652  4.8474  1.5058 -0.1980
  368MOL0     H50741   3.340   3.218  -0.554  0.5820  0.4833  0.5706
  368MOL0     H50742   3.091   3.490  -0.332  0.7113 -0.0162 -0.3677
  368MOL0     H50743   2.752   3.445  -0.225  0.0500  1.0437 -0.4158
  368MOL0     H50744   2.747   3.574  -0.345 -0.6005  1.5671  2.4396
  368MOL0     H50745   2.877   3.557  -0.228  1.1567 -1.6604  1.5274
  368MOL0     H50746   2.521   3.263  -0.739 -0.9974 -0.9765 -1.5312
  368MOL0     H50747   2.287   3.205  -0.799  1.5492 -3.0933 -0.9414
  368MOL0     H50748   1.997   3.190  -0.636 -0.9252  1.3767 -1.2849
  368MOL0     H50749   2.086   3.171  -0.788  2.5622 -1.2012  0.4251
  368MOL0     H50750   1.967   2.957  -0.835 -0.2637 -0.8778  0.2455
  368MOL0     H50751   1.888   2.949  -0.680 -1.0364 -1.3594 -0.8372
  368MOL0     H50752   1.844   3.186  -0.854  1.9200 -1.0874  0.2587
  368MOL0     H50753   1.756   3.148  -0.703  0.2035  1.0236  0.1908
  368MOL0     H50754   1.672   2.933  -0.829 -0.1349 -0.3864 -0.7087
  368MOL0     H50755   1.735   3.008  -0.972  0.3538  1.4576 -0.7482
  368MOL0     H50756   1.603   3.221  -0.924 -0.6680  0.8575  1.2195
  368MOL0     H50757   1.512   3.072  -0.960 -0.2548 -2.2110  1.6976
  368MOL0     H50758   1.533   3.161  -0.683 -0.1676 -0.8614 -0.3710
  368MOL0     H50759   1.401   3.072  -0.762  0.6023 -0.9110  0.2503
  368MOL0     H50760   1.320   3.284  -0.870  2.2454  0.9125 -1.8539
  368MOL0     H50761   1.463   3.366  -0.810  0.6668  1.0587  3.9447
  368MOL0     H50762   1.253   3.249  -0.618 -0.0455  0.8959  0.2038
  368MOL0     H50763   1.245   3.417  -0.680  1.1800  2.4325 -0.2350
  368MOL0     H50764   2.258   2.975  -0.435 -2.2944 -0.3844 -1.2798
  368MOL0     H50765   2.499   3.040  -0.391  0.6444 -0.0119  0.6773
  368MOL0     H50766   2.884   3.139  -0.607 -1.0017 -0.2972  2.1572
  368MOL0     H50767   3.123   3.175  -0.613 -1.0322 -2.0546  0.4222
  368MOL0     H50768   2.949   4.223  -0.131 -0.5969  1.2108  1.9575
  368MOL0     H50769   2.754   4.282   0.008 -0.1873  0.1600 -0.2409
  368MOL0     H50770   2.560   4.738   0.230  1.4189 -1.0742  1.2507
  368MOL0     H50771   2.387   4.774   0.392 -0.5420 -0.7705  0.0860
  368MOL0     H50772   2.045   4.633   0.294  2.6139 -0.4197 -1.4222
  368MOL0     H50773   2.005   4.549   0.449  1.0342 -0.1073  1.9592
  368MOL0     H50774   2.051   4.777   0.566  0.1675  2.8455 -0.1562
  368MOL0     H50775   1.909   4.753   0.481  0.3737 -0.6831  2.3901
  368MOL0     H50776   2.146   4.893   0.330 -0.0532 -2.1650  0.9127
  368MOL0     H50777   1.967   4.892   0.297  0.4208 -0.4245 -1.3813
  368MOL0     H50778   1.943   5.012   0.522 -0.9583 -1.3970 -0.7363
  368MOL0     H50779   2.013   5.099   0.377  3.8979 -0.5460 -1.4124
  368MOL0     H50780   2.359   5.050   0.630  0.0770 -0.1482  0.2690
  368MOL0     H50781   2.184   4.424   0.242 -0.8037  0.1418 -3.3754
  368MOL0     H50782   2.277   4.283   0.114 -0.2767  2.0628  1.8091
  368MOL0     H50783   2.302   4.379  -0.035  2.6452 -1.3209 -1.4766
  368MOL0     H50784   2.440   4.309   0.055 -0.6962 -2.4799  0.4116
  369MOL0     O50785   8.987   7.334   7.703  0.3094 -0.5924  0.2633
  369MOL0     C50786   8.894   7.302   7.779 -0.0227  0.3173 -0.1071
  369MOL0     O50787   8.841   7.381   7.875  0.0661 -0.3937  0.5578
  369MOL0     C50788   8.904   7.500   7.893 -0.2320 -0.4679 -0.1517
  369MOL0     C50789   9.009   7.507   7.983 -0.7873 -0.7668  0.8777
  369MOL0     C50790   9.078   7.628   8.004 -0.2801 -0.5912  0.2093
  369MOL0     C50791   9.043   7.744   7.932  0.3234  0.5503  0.0999
  369MOL0     O50792   9.097   7.871   7.944 -0.6502  1.1347 -0.4259
  369MOL0     C50793   9.018   7.960   8.027 -0.5852  0.0372  0.4976
  369MOL0     C50794   9.064   7.947   8.170 -0.6532 -0.3145 -0.5549
  369MOL0     C50795   9.193   8.022   8.202 -0.3226  0.4981 -0.0241
  369MOL0     C50796   9.256   7.949   8.324  0.0198  0.0086 -0.6456
  369MOL0     C50797   9.385   8.005   8.384  0.3440  0.2167 -0.2978
  369MOL0     C50798   9.496   7.976   8.281  0.2439 -0.7385  0.0544
  369MOL0     C50799   9.627   8.005   8.346  0.7223  0.3780 -0.5320
  369MOL0     C50800   9.750   7.987   8.251 -0.4828  0.1135 -0.2299
  369MOL0     N50801   9.781   8.098   8.155  0.1033 -0.5525 -0.9527
  369MOL0     C50802   9.855   8.210   8.184 -0.2533 -0.1698  0.4851
  369MOL0     C50803   9.848   8.288   8.074 -0.7498  0.1077  0.1098
  369MOL0     C50804   9.910   8.428   8.060  0.2951  0.6860 -0.3584
  369MOL0     C50805  10.035   8.423   7.982  0.3460  0.4208  0.3455
  369MOL0     C50806  10.162   8.371   8.059  0.2442 -0.3930 -0.0879
  369MOL0     C50807  10.273   8.345   7.955  0.0649  0.4056 -0.2351
  369MOL0     O50808  10.237   8.253   7.855  0.4198  0.7673  0.2552
  369MOL0     C50809  10.326   8.239   7.750 -0.7807  0.2471  0.3239
  369MOL0     C50810  10.282   8.216   7.620  0.5541 -0.0637 -0.6824
  369MOL0     C50811  10.363   8.207   7.507 -0.1343  0.2327 -0.3513
  369MOL0     C50812  10.296   8.189   7.379  0.3550 -0.7960 -0.4160
  369MOL0     C50813  10.505   8.217   7.525  0.5865  0.0545 -0.0846
  369MOL0     C50814  10.601   8.183   7.421 -0.3266  0.0282  0.3823
  369MOL0     O50815  10.728   8.144   7.459  0.6220 -0.5567 -1.3835
  369MOL0     C50816  10.812   8.097   7.362  0.5653  0.8541  0.0162
  369MOL0     C50817  10.952   8.122   7.357 -0.0079  0.4561  0.2581
  369MOL0     C50818  11.034   8.067   7.261  0.6985 -0.2737 -0.4724
  369MOL0     C50819  10.974   7.980   7.170 -0.3688 -0.9194 -0.3760
  369MOL0     O50820  11.059   7.917   7.076  0.6568 -0.0159 -0.4121
  369MOL0     C50821  11.019   7.943   6.939 -0.6223 -0.1973  0.2884
  369MOL0     C50822  11.098   8.057   6.869 -0.1005  0.8870 -0.6732
  369MOL0     C50823  11.256   8.037   6.880 -0.2439 -0.2312 -0.0939
  369MOL0     C50824  11.307   8.098   7.006 -0.7121 -0.7218 -0.4069
  369MOL0     C50825  11.442   8.038   7.053 -0.0934  0.4112  0.0087
  369MOL0     C50826  11.487   8.096   7.183  0.2037 -0.6499  0.2149
  369MOL0     C50827  11.585   8.005   7.254 -0.1470  0.3773  0.1383
  369MOL0     C50828  11.714   7.971   7.173 -0.1656  0.4752  0.1082
  369MOL0    Cl50829  11.790   8.128   7.139 -0.3301 -0.2076  0.0003
  369MOL0     C50830  10.838   7.946   7.169  0.3739 -1.3061  0.0171
  369MOL0     C50831  10.764   7.999   7.275 -0.7553 -0.7110  0.3352
  369MOL0     O50832  10.577   8.214   7.308  0.8205 -0.1154  0.3397
  369MOL0     C50833  10.558   8.246   7.652  0.4638  0.3772  0.7903
  369MOL0     C50834  10.466   8.256   7.763  0.6941 -0.1503 -0.0441
  369MOL0     N50835   9.771   8.228   7.975 -0.2223  0.1639  0.2551
  369MOL0     N50836   9.726   8.111   8.033 -0.9874  0.2873 -0.4179
  369MOL0     C50837   8.940   7.740   7.842  0.1283  0.3306 -0.1436
  369MOL0     C50838   8.866   7.619   7.821  0.0760  0.3152  0.1458
  369MOL0     C50839   8.807   7.181   7.744 -0.1972 -0.3842  0.8424
  369MOL0     C50840   8.708   7.142   7.839 -0.8568 -0.4590 -0.3302
  369MOL0     C50841   8.633   7.033   7.811  0.1296 -0.7225 -0.3255
  369MOL0     C50842   8.659   6.957   7.698  0.1018  0.1343  0.6102
  369MOL0     O50843   8.581   6.841   7.688 -0.5853 -0.6754  0.7150
  369MOL0     C50844   8.640   6.742   7.606 -0.3979 -0.1265  0.1479
  369MOL0     C50845   8.565   6.611   7.600  0.8464  0.0830  0.1109
  369MOL0     C50846   8.550   6.547   7.735  0.1026 -0.0368 -0.2188
  369MOL0     C50847   8.465   6.435   7.722  0.7644  0.3712 -0.1147
  369MOL0     C50848   8.456   6.357   7.848 -0.4542 -1.6031 -0.1286
  369MOL0     C50849   8.446   6.302   7.948  0.7767  0.6808  0.2618
  369MOL0     C50850   8.744   7.000   7.602 -0.4436 -0.5649  0.5394
  369MOL0     C50851   8.823   7.111   7.622  0.0810 -0.7398 -0.7174
  369MOL0     C50852   8.914   7.154   7.511 -0.1424  0.8576 -0.2052
  369MOL0     H50853   9.053   7.422   8.034  0.6347  0.0013  0.9900
  369MOL0     H50854   9.165   7.634   8.069  1.5070  1.5610 -2.2147
  369MOL0     H50855   8.910   7.945   8.021 -0.4017 -1.5550  0.8978
  369MOL0     H50856   9.033   8.065   7.998  2.7817 -0.0342  1.5447
  369MOL0     H50857   8.978   7.987   8.226 -2.4391 -1.4303 -2.3474
  369MOL0     H50858   9.073   7.841   8.193  0.2968 -0.8234 -3.0180
  369MOL0     H50859   9.258   8.023   8.114 -0.6722  3.3042 -0.3576
  369MOL0     H50860   9.186   8.129   8.224 -0.0068  0.1076  2.2810
  369MOL0     H50861   9.186   7.959   8.407  1.1815  2.0402  0.1671
  369MOL0     H50862   9.272   7.842   8.305 -0.0322 -0.3953  1.3690
  369MOL0     H50863   9.404   7.956   8.479  1.5708  1.6171  0.2056
  369MOL0     H50864   9.375   8.112   8.406 -5.1085  0.4071 -2.1471
  369MOL0     H50865   9.491   7.872   8.249 -0.0052 -0.0418 -2.3677
  369MOL0     H50866   9.476   8.047   8.200 -1.9306 -0.0296  1.1301
  369MOL0     H50867   9.635   7.918   8.411 -2.7722 -1.6146 -2.4820
  369MOL0     H50868   9.625   8.104   8.393 -0.9889  0.2613 -0.3052
  369MOL0     H50869   9.833   7.968   8.320 -2.4571  2.0047  2.8724
  369MOL0     H50870   9.728   7.899   8.189 -2.5284  1.3861 -1.4314
  369MOL0     H50871   9.904   8.233   8.278  0.0798 -0.6653  0.4361
  369MOL0     H50872   9.940   8.469   8.157 -0.3434 -1.5204  0.8579
  369MOL0     H50873   9.846   8.505   8.018  0.6371  2.1455  1.6316
  369MOL0     H50874  10.017   8.361   7.894 -1.5788  0.0108  0.9735
  369MOL0     H50875  10.070   8.523   7.953  4.8721 -1.0238 -0.0479
  369MOL0     H50876  10.201   8.450   8.124  0.5110 -2.0072  1.7970
  369MOL0     H50877  10.146   8.288   8.129  0.1994 -0.0201  0.3524
  369MOL0     H50878  10.283   8.441   7.904 -3.7346  2.3054  2.1646
  369MOL0     H50879  10.360   8.317   8.016  0.8139 -1.4287 -2.0314
  369MOL0     H50880  10.175   8.206   7.612  0.3897  1.1379 -0.1547
  369MOL0     H50881  10.346   8.119   7.311 -0.8762 -1.3472 -0.7882
  369MOL0     H50882  10.280   8.283   7.325 -1.1432 -0.2777  0.8448
  369MOL0     H50883  10.191   8.158   7.389 -0.2391  1.6010  1.8625
  369MOL0     H50884  10.992   8.195   7.426  0.6838  0.9834 -0.6840
  369MOL0     H50885  11.140   8.083   7.275  1.0794 -0.5880 -2.7111
  369MOL0     H50886  11.042   7.856   6.877  0.1346 -0.0426  0.3466
  369MOL0     H50887  10.918   7.982   6.922 -0.6980 -0.0882  0.9705
  369MOL0     H50888  11.059   8.040   6.768 -1.8687 -1.2571  0.2880
  369MOL0     H50889  11.075   8.159   6.900  1.3879  1.8432 -2.4741
  369MOL0     H50890  11.310   8.079   6.795 -0.0733 -2.5517 -1.2235
  369MOL0     H50891  11.278   7.929   6.882 -1.7659 -0.5510  0.6253
  369MOL0     H50892  11.236   8.097   7.089  1.2401  0.5302  1.3767
  369MOL0     H50893  11.327   8.205   6.994 -1.0757 -0.6060 -0.0126
  369MOL0     H50894  11.428   7.931   7.066 -1.4988  0.1948 -2.5800
  369MOL0     H50895  11.516   8.067   6.978 -1.5006  3.1069 -0.4751
  369MOL0     H50896  11.400   8.114   7.248  0.0172  2.7902 -0.7856
  369MOL0     H50897  11.539   8.190   7.162  0.9687 -1.5112 -2.0190
  369MOL0     H50898  11.546   7.909   7.289  1.7788 -0.5143 -0.0222
  369MOL0     H50899  11.627   8.046   7.346  1.3672  1.8082 -1.1188
  369MOL0     H50900  11.687   7.920   7.080 -0.1597  1.8743 -0.6890
  369MOL0     H50901  11.786   7.915   7.234  1.2734  1.1396 -0.9294
  369MOL0     H50902  10.798   7.884   7.089  0.6376 -2.5371  0.8052
  369MOL0     H50903  10.663   7.962   7.287 -1.4664  0.1627 -2.2515
  369MOL0     H50904  10.666   8.248   7.663  0.3211  1.6474  2.1341
  369MOL0     H50905  10.518   8.255   7.858 -0.6767 -0.4492  0.7258
  369MOL0     H50906   8.912   7.829   7.787  0.6676  0.2795 -0.5093
  369MOL0     H50907   8.777   7.613   7.760 -0.2341  0.0764  0.6148
  369MOL0     H50908   8.695   7.192   7.934 -1.9897  1.4336 -1.4244
  369MOL0     H50909   8.569   7.002   7.893  2.1351 -3.0103  0.4700
  369MOL0     H50910   8.651   6.781   7.505  0.9900 -1.7610 -0.3859
  369MOL0     H50911   8.743   6.725   7.637 -0.8771 -0.4133  1.6812
  369MOL0     H50912   8.619   6.544   7.533  0.0516 -2.1009  1.5111
  369MOL0     H50913   8.464   6.623   7.559  0.3584 -1.6774  0.7064
  369MOL0     H50914   8.648   6.514   7.769  0.6001  0.6862 -0.9338
  369MOL0     H50915   8.508   6.615   7.810 -3.2713 -1.4675 -0.5958
  369MOL0     H50916   8.505   6.363   7.651 -2.1871 -0.8315 -0.7077
  369MOL0     H50917   8.361   6.462   7.699  1.1365  1.2909 -0.7495
  369MOL0     H50918   8.427   6.247   8.038 -1.7370  0.8323 -0.1053
  369MOL0     H50919   8.765   6.946   7.511  1.1548 -0.6849  0.9488
  369MOL0     H50920   8.893   7.093   7.423 -1.8082  1.5021 -0.2889
  369MOL0     H50921   8.911   7.261   7.486  4.7083  1.1930 -0.4023
  369MOL0     H50922   9.017   7.128   7.537 -0.4771  0.7752  1.0993
  370MOL0     O50923   1.378   8.181  11.285 -0.1519  0.8712  0.7626
  370MOL0     C50924   1.470   8.152  11.360 -0.5228 -0.1475  0.5571
  370MOL0     O50925   1.598   8.203  11.355 -0.3925  0.7979  0.5029
  370MOL0     C50926   1.646   8.288  11.258 -0.1931  0.2092 -0.6556
  370MOL0     C50927   1.715   8.396  11.304 -0.0312  0.2183 -0.3622
  370MOL0     C50928   1.785   8.477  11.219  0.0611  0.5652 -0.2488
  370MOL0     C50929   1.781   8.457  11.082 -0.4728  0.3086 -0.8475
  370MOL0     O50930   1.842   8.554  10.997 -0.4213 -0.2683  0.3754
  370MOL0     C50931   1.872   8.520  10.860 -0.2520 -0.1245 -0.2334
  370MOL0     C50932   1.929   8.651  10.777 -0.0986 -0.0996  0.2021
  370MOL0     C50933   2.086   8.676  10.801  0.8378 -0.3828  0.1797
  370MOL0     C50934   2.110   8.796  10.889 -0.2198 -0.2149 -0.0626
  370MOL0     C50935   2.253   8.845  10.872 -0.3315 -0.6650 -0.1901
  370MOL0     C50936   2.281   8.944  10.990 -0.1936  0.0636  0.5168
  370MOL0     C50937   2.413   9.020  10.977  0.1536 -0.6154  0.2750
  370MOL0     C50938   2.535   8.928  10.985  0.5148  0.2442 -0.0067
  370MOL0     N50939   2.657   8.999  10.979 -0.0712  0.1959  0.2729
  370MOL0     C50940   2.743   9.003  10.873 -0.2742  0.7675  0.4937
  370MOL0     C50941   2.839   9.087  10.914  0.5569 -0.0025  0.4927
  370MOL0     C50942   2.960   9.123  10.837 -0.2199  0.0317 -0.5722
  370MOL0     C50943   3.058   9.011  10.858 -0.7208  0.6919  0.3533
  370MOL0     C50944   3.117   9.021  11.001  0.3717  0.3939 -0.3512
  370MOL0     C50945   3.207   8.914  11.042  0.8291  0.2902 -0.5537
  370MOL0     O50946   3.345   8.945  11.001 -0.3687 -0.0636 -0.2419
  370MOL0     C50947   3.436   8.849  11.040  0.5578 -0.0154 -0.1981
  370MOL0     C50948   3.417   8.748  11.134 -0.0679  0.0856  0.3724
  370MOL0     C50949   3.525   8.655  11.167 -0.1347  0.1743  0.5167
  370MOL0     C50950   3.483   8.541  11.262 -0.2019  0.3024 -0.4849
  370MOL0     C50951   3.646   8.666  11.096 -0.0274 -0.1386  0.5879
  370MOL0     C50952   3.751   8.555  11.093  0.7491 -0.8596 -0.4876
  370MOL0     O50953   3.828   8.545  10.980 -0.1465 -0.0888 -0.6441
  370MOL0     C50954   3.943   8.471  10.993  0.0992  0.5465 -0.5903
  370MOL0     C50955   3.940   8.337  10.961  0.1519  0.5171 -1.1891
  370MOL0     C50956   4.056   8.260  10.956  0.1835 -0.2526  0.1212
  370MOL0     C50957   4.180   8.326  10.977 -0.2330 -0.3073 -1.1552
  370MOL0     O50958   4.291   8.246  10.965 -0.0529  0.2537  0.6354
  370MOL0     C50959   4.378   8.264  10.847 -1.0025  0.0850 -0.3882
  370MOL0     C50960   4.484   8.146  10.823  0.6204 -0.2085  0.0730
  370MOL0     C50961   4.412   8.009  10.830 -0.9638 -0.6867 -0.5612
  370MOL0     C50962   4.514   7.898  10.817  0.1961  0.4109 -0.0368
  370MOL0     C50963   4.458   7.763  10.841  0.0821 -0.1602  0.3236
  370MOL0     C50964   4.474   7.732  10.992 -0.8049 -0.0007 -0.1966
  370MOL0     C50965   4.375   7.800  11.087 -0.2146  0.1780 -0.8046
  370MOL0     C50966   4.228   7.771  11.050 -0.3451  0.4004  0.0195
  370MOL0    Cl50967   4.136   7.796  11.195  0.3777 -0.5645  0.1859
  370MOL0     C50968   4.187   8.459  11.004 -0.9925 -0.7331  0.2131
  370MOL0     C50969   4.066   8.528  11.018  0.2006 -0.5403  0.4403
  370MOL0     O50970   3.762   8.491  11.201  1.1557  0.3713 -0.3678
  370MOL0     C50971   3.663   8.771  11.006  0.1554  0.4209  1.1273
  370MOL0     C50972   3.561   8.861  10.977 -0.1444  0.4468 -0.2434
  370MOL0     N50973   2.805   9.151  11.030 -0.5622  0.0397  0.0216
  370MOL0     N50974   2.708   9.085  11.072 -0.4952  0.1130 -0.3866
  370MOL0     C50975   1.711   8.343  11.037 -0.1250 -0.0108  0.2841
  370MOL0     C50976   1.641   8.252  11.120 -0.5710  0.3105 -0.0769
  370MOL0     C50977   1.458   8.037  11.458  0.7116 -0.1310 -0.4228
  370MOL0     C50978   1.568   7.967  11.498  0.4779  0.6692 -0.4278
  370MOL0     C50979   1.554   7.869  11.595 -0.2602 -0.1085 -0.5409
  370MOL0     C50980   1.438   7.826  11.653  0.4017 -0.1960  0.2339
  370MOL0     O50981   1.446   7.730  11.751  0.2082 -0.0905  0.4670
  370MOL0     C50982   1.327   7.676  11.813 -0.6788 -0.5410 -0.0546
  370MOL0     C50983   1.318   7.529  11.771  0.2127  0.4532 -0.2892
  370MOL0     C50984   1.292   7.514  11.622  0.4907  0.9355  0.8202
  370MOL0     C50985   1.144   7.545  11.594 -0.8170  0.7324 -0.0413
  370MOL0     C50986   1.099   7.483  11.463 -0.8516 -0.1485 -0.3601
  370MOL0     C50987   1.053   7.436  11.362  0.6544  0.3102  0.2929
  370MOL0     C50988   1.325   7.891  11.614  0.4674 -0.0691  0.2123
  370MOL0     C50989   1.326   7.995  11.508 -0.7710 -0.3906  0.3173
  370MOL0     C50990   1.200   8.068  11.479  1.1422  0.1064 -0.5113
  370MOL0     H50991   1.717   8.434  11.406 -0.9587  3.8162 -1.5521
  370MOL0     H50992   1.839   8.563  11.256  3.9275  0.5727 -4.9523
  370MOL0     H50993   1.781   8.482  10.812 -0.8092 -0.2569  0.8888
  370MOL0     H50994   1.939   8.434  10.865 -0.9677 -0.6546  0.5269
  370MOL0     H50995   1.919   8.625  10.671  2.1192  2.4540 -0.7434
  370MOL0     H50996   1.878   8.743  10.807  0.7464  0.9423 -1.4417
  370MOL0     H50997   2.143   8.590  10.838 -0.0353 -2.1092 -2.2047
  370MOL0     H50998   2.133   8.696  10.704 -0.0037 -0.6278 -0.2914
  370MOL0     H50999   2.059   8.893  10.883  1.2978  0.6719  0.7884
  370MOL0     H51000   2.094   8.775  10.996 -0.7054 -2.0002 -0.4523
  370MOL0     H51001   2.273   8.892  10.775 -1.9364 -0.8671 -0.6488
  370MOL0     H51002   2.318   8.757  10.874  2.6955  1.4245  0.7198
  370MOL0     H51003   2.201   9.018  10.986  0.6402  1.2337  3.2952
  370MOL0     H51004   2.288   8.891  11.086 -0.2190 -1.6800 -0.3902
  370MOL0     H51005   2.422   9.090  11.061  0.0415 -2.7481  2.1665
  370MOL0     H51006   2.427   9.076  10.884  4.1526  0.7722  1.4694
  370MOL0     H51007   2.519   8.877  11.081 -3.0498  3.3093  1.2767
  370MOL0     H51008   2.535   8.859  10.901 -0.8462 -1.2374  1.1569
  370MOL0     H51009   2.742   8.942  10.784 -0.8507  1.2075  0.1945
  370MOL0     H51010   2.999   9.218  10.875  2.4390 -1.2312  0.1574
  370MOL0     H51011   2.931   9.138  10.733 -0.9383  0.0050 -0.3812
  370MOL0     H51012   3.008   8.915  10.845 -0.4223  0.7855 -1.8142
  370MOL0     H51013   3.126   9.023  10.774 -1.1875 -0.6901 -0.2550
  370MOL0     H51014   3.180   9.111  11.007 -0.7764  1.1614  4.9039
  370MOL0     H51015   3.039   9.029  11.077  0.3794 -1.0285 -0.1707
  370MOL0     H51016   3.187   8.903  11.149  0.0171  2.1032 -0.4913
  370MOL0     H51017   3.166   8.824  10.993  1.1446  0.6541 -1.5136
  370MOL0     H51018   3.330   8.734  11.197  2.0818 -0.7331  3.3917
  370MOL0     H51019   3.532   8.443  11.256 -0.9864 -0.0137 -2.3195
  370MOL0     H51020   3.381   8.525  11.226 -0.2393  2.4447 -1.5006
  370MOL0     H51021   3.500   8.564  11.368 -1.7356 -0.2606 -0.0824
  370MOL0     H51022   3.853   8.280  10.930 -0.9436  0.6623  1.3823
  370MOL0     H51023   4.054   8.160  10.913  2.7952  0.6974 -2.6166
  370MOL0     H51024   4.323   8.290  10.756 -0.6668  2.2118 -0.0313
  370MOL0     H51025   4.435   8.355  10.868 -1.5928  0.9412 -2.2670
  370MOL0     H51026   4.529   8.157  10.724  0.8795 -0.6123  0.1447
  370MOL0     H51027   4.570   8.134  10.889  1.2064  2.1049 -0.1746
  370MOL0     H51028   4.342   7.998  10.747  0.1232 -2.1598 -1.3397
  370MOL0     H51029   4.365   8.015  10.929  1.3364 -1.8313  0.6775
  370MOL0     H51030   4.590   7.909  10.895 -2.4514 -0.3808  2.8464
  370MOL0     H51031   4.557   7.906  10.717 -1.9048  2.2930 -0.8734
  370MOL0     H51032   4.352   7.754  10.813 -1.0076  1.0769  3.5718
  370MOL0     H51033   4.512   7.688  10.782 -1.7098 -1.7204  0.5349
  370MOL0     H51034   4.579   7.749  11.017 -0.4789 -0.1927 -1.3718
  370MOL0     H51035   4.454   7.624  10.992 -3.6682  0.4249  1.0774
  370MOL0     H51036   4.383   7.909  11.092 -1.5658  0.2425  0.6690
  370MOL0     H51037   4.387   7.770  11.191 -0.5825  2.3240 -0.1033
  370MOL0     H51038   4.222   7.666  11.020 -0.1006  1.0102 -2.3580
  370MOL0     H51039   4.200   7.830  10.962  0.8477 -2.1622 -2.2228
  370MOL0     H51040   4.279   8.513  11.026 -0.0623 -1.5334 -1.4864
  370MOL0     H51041   4.066   8.631  11.050  0.4122 -1.0150  2.0531
  370MOL0     H51042   3.750   8.779  10.941 -1.8939 -2.7022 -2.4580
  370MOL0     H51043   3.580   8.933  10.898  1.3691 -0.1879 -0.4895
  370MOL0     H51044   1.712   8.320  10.931  1.2099  0.0197  0.2638
  370MOL0     H51045   1.601   8.158  11.082  0.1734  0.5195 -1.4260
  370MOL0     H51046   1.666   7.966  11.452  0.2744  2.4623 -0.9702
  370MOL0     H51047   1.651   7.829  11.623  0.0874  2.1018  1.7822
  370MOL0     H51048   1.353   7.682  11.919  1.4438 -1.2641 -0.4869
  370MOL0     H51049   1.238   7.733  11.785  2.1117  3.0746 -2.4940
  370MOL0     H51050   1.246   7.483  11.839  1.3581  0.1057  0.7380
  370MOL0     H51051   1.411   7.477  11.798 -1.4736 -2.2830  0.6733
  370MOL0     H51052   1.371   7.567  11.568  0.2729  0.7034  0.2594
  370MOL0     H51053   1.300   7.409  11.591 -2.6235  0.6538  0.6598
  370MOL0     H51054   1.135   7.653  11.584 -1.7139  0.7807  1.1737
  370MOL0     H51055   1.078   7.506  11.671 -0.5064  2.0801  0.9459
  370MOL0     H51056   1.027   7.389  11.270  0.1784 -1.9485  1.4957
  370MOL0     H51057   1.227   7.878  11.660 -0.3673  2.5129 -0.6433
  370MOL0     H51058   1.198   8.149  11.552 -0.0858 -0.6687  0.3820
  370MOL0     H51059   1.173   8.097  11.377 -3.4755  0.8510  0.6767
  370MOL0     H51060   1.125   7.993  11.509  0.6972  1.3428  1.6801
  371MOL0     O51061   6.794   2.784   1.956 -1.1214 -0.5461  0.0267
  371MOL0     C51062   6.717   2.869   1.924  0.5178 -0.2637 -0.5460
  371MOL0     O51063   6.739   3.004   1.911  0.7219 -0.0011 -0.5602
  371MOL0     C51064   6.862   3.054   1.913  0.3617 -0.7139 -0.2764
  371MOL0     C51065   6.935   3.048   2.039  0.7965  0.1159 -0.8133
  371MOL0     C51066   7.056   3.114   2.050 -0.3095  0.6044 -0.5430
  371MOL0     C51067   7.117   3.164   1.939 -0.2905 -0.6218  1.2093
  371MOL0     O51068   7.239   3.221   1.962 -0.4139 -0.3723  0.3257
  371MOL0     C51069   7.316   3.256   1.850 -0.3365 -0.2811  0.2306
  371MOL0     C51070   7.453   3.303   1.882 -0.7644 -1.0204  0.1827
  371MOL0     C51071   7.535   3.203   1.951  0.3843  0.4043 -0.6409
  371MOL0     C51072   7.693   3.235   1.961  0.3008 -1.7651 -0.2344
  371MOL0     C51073   7.761   3.245   1.833  0.3989  0.5306  0.4491
  371MOL0     C51074   7.908   3.270   1.846 -0.4490  0.3861  0.3297
  371MOL0     C51075   7.940   3.403   1.927 -0.2478  0.3413  0.1298
  371MOL0     C51076   8.077   3.461   1.895 -0.0077 -1.0291  0.1893
  371MOL0     N51077   8.116   3.545   2.011 -0.4861 -0.1551  0.4605
  371MOL0     C51078   8.241   3.550   2.073 -0.2440  0.5299 -0.8154
  371MOL0     C51079   8.231   3.652   2.154 -0.0525 -0.1945  0.0735
  371MOL0     C51080   8.335   3.682   2.252 -0.4676 -0.1013 -0.2414
  371MOL0     C51081   8.463   3.731   2.191  0.0915 -0.4462 -0.5797
  371MOL0     C51082   8.570   3.620   2.171 -0.7178  0.2125  0.0095
  371MOL0     C51083   8.638   3.579   2.296 -0.2603  1.0767  0.0598
  371MOL0     O51084   8.740   3.483   2.274 -0.5887 -0.2461  0.6854
  371MOL0     C51085   8.819   3.444   2.383  0.0357 -0.3974 -0.7917
  371MOL0     C51086   8.783   3.459   2.520  0.0050  0.0982  0.1086
  371MOL0     C51087   8.870   3.429   2.628 -0.3805 -0.2834 -0.1382
  371MOL0     C51088   8.831   3.448   2.771 -0.8264  0.1225  0.3813
  371MOL0     C51089   9.002   3.381   2.588 -0.0129 -0.2848  0.4851
  371MOL0     C51090   9.110   3.344   2.692  0.1961  0.0217  0.6970
  371MOL0     O51091   9.117   3.421   2.801 -0.0727 -0.2341  0.0710
  371MOL0     C51092   9.228   3.408   2.881 -0.1979  0.4221  0.4716
  371MOL0     C51093   9.336   3.493   2.869  0.5937  0.9814 -0.7380
  371MOL0     C51094   9.447   3.491   2.951  0.0911 -0.3623 -0.6238
  371MOL0     C51095   9.459   3.392   3.047  0.9033  0.0557  0.8124
  371MOL0     O51096   9.542   3.397   3.149  0.0220 -0.2002  0.3706
  371MOL0     C51097   9.633   3.504   3.161  0.0037 -0.1780 -0.7231
  371MOL0     C51098   9.666   3.523   3.312 -0.1574 -0.4129  0.7265
  371MOL0     C51099   9.770   3.640   3.336 -1.2364 -0.1397  0.8246
  371MOL0     C51100   9.914   3.606   3.282 -0.0997  0.5475 -0.2463
  371MOL0     C51101  10.020   3.723   3.308  0.8863  0.4808  0.2574
  371MOL0     C51102  10.070   3.711   3.451  0.1956  0.0158 -0.1368
  371MOL0     C51103  10.198   3.809   3.477  1.2650 -0.0174  0.0298
  371MOL0     C51104  10.261   3.769   3.611  0.3653 -0.4252 -1.1457
  371MOL0    Cl51105  10.433   3.835   3.630  0.0814  0.1146 -0.7304
  371MOL0     C51106   9.352   3.295   3.055  0.1418 -1.0820 -0.0394
  371MOL0     C51107   9.236   3.310   2.976 -0.0630 -0.2865  0.6511
  371MOL0     O51108   9.188   3.253   2.661  0.5071  0.4230  0.5065
  371MOL0     C51109   9.042   3.370   2.455  0.0745  0.3154 -0.8123
  371MOL0     C51110   8.949   3.400   2.358  0.3832 -0.0077  0.6778
  371MOL0     N51111   8.108   3.712   2.141 -0.1561 -0.4779 -0.9215
  371MOL0     N51112   8.040   3.646   2.054  0.8011 -0.6224  1.1346
  371MOL0     C51113   7.046   3.157   1.814 -0.4828 -0.1151 -0.1369
  371MOL0     C51114   6.917   3.107   1.805 -0.6427 -0.0383  0.7673
  371MOL0     C51115   6.580   2.816   1.906  0.4244 -0.2541 -0.2730
  371MOL0     C51116   6.538   2.809   1.768  0.3116  0.0924  0.2400
  371MOL0     C51117   6.416   2.741   1.745 -0.0828  0.2485  0.4378
  371MOL0     C51118   6.335   2.682   1.846  0.7247 -0.0126 -0.5066
  371MOL0     O51119   6.222   2.618   1.830 -0.1612  0.4397 -0.2905
  371MOL0     C51120   6.166   2.602   1.692 -0.7140 -0.3530 -0.7722
  371MOL0     C51121   6.192   2.456   1.663 -0.4899  0.0820  0.5815
  371MOL0     C51122   6.202   2.446   1.505 -0.7989  0.0639  0.6599
  371MOL0     C51123   6.226   2.298   1.467  0.5098 -1.1543 -0.4028
  371MOL0     C51124   6.361   2.262   1.511  0.9206 -0.3399  0.2725
  371MOL0     C51125   6.477   2.251   1.526 -0.4995  0.3645  0.5189
  371MOL0     C51126   6.373   2.717   1.981 -0.2085 -0.2223  0.3520
  371MOL0     C51127   6.491   2.780   2.010 -1.1036  0.4591  0.0012
  371MOL0     C51128   6.546   2.803   2.153 -0.1636  0.5780 -0.5880
  371MOL0     H51129   6.884   3.007   2.126 -1.4394  1.6626 -1.2935
  371MOL0     H51130   7.115   3.114   2.141  0.2143  0.7739 -0.8731
  371MOL0     H51131   7.274   3.336   1.789 -0.3946 -0.6063 -0.1599
  371MOL0     H51132   7.324   3.164   1.791 -1.2541  0.6428 -1.3769
  371MOL0     H51133   7.502   3.336   1.790 -0.1930  0.6976  1.0603
  371MOL0     H51134   7.443   3.385   1.954  0.7729 -2.6659  2.4005
  371MOL0     H51135   7.497   3.188   2.053  2.3003  0.8579  0.1826
  371MOL0     H51136   7.507   3.108   1.905 -1.3085 -0.2702  1.5474
  371MOL0     H51137   7.695   3.339   1.996  0.4252 -2.4232  1.8460
  371MOL0     H51138   7.750   3.162   2.019 -1.4952 -1.2816  2.2884
  371MOL0     H51139   7.728   3.333   1.777  0.2972 -1.1356 -2.2631
  371MOL0     H51140   7.745   3.158   1.769  1.9885  0.9183 -0.5078
  371MOL0     H51141   7.955   3.185   1.897 -1.8960 -1.2944 -0.9765
  371MOL0     H51142   7.945   3.279   1.743 -4.7768  1.5867 -1.3225
  371MOL0     H51143   7.943   3.377   2.033  0.4020  1.3148  0.3531
  371MOL0     H51144   7.864   3.480   1.911 -2.6109 -1.8036  0.2668
  371MOL0     H51145   8.147   3.377   1.893  1.2224 -0.0633  0.9870
  371MOL0     H51146   8.075   3.524   1.806  0.6336 -0.7536  0.3626
  371MOL0     H51147   8.329   3.496   2.043 -0.8911 -0.3704 -1.1325
  371MOL0     H51148   8.359   3.598   2.317  2.0648  1.9990  1.7715
  371MOL0     H51149   8.297   3.762   2.317 -0.8957  2.4089 -3.3189
  371MOL0     H51150   8.438   3.780   2.096 -1.2442  1.0592  0.4765
  371MOL0     H51151   8.493   3.804   2.267 -1.4352  0.4327 -0.7707
  371MOL0     H51152   8.531   3.538   2.109  0.7517  1.0077 -2.0735
  371MOL0     H51153   8.652   3.663   2.112  0.5570 -0.6460  1.0934
  371MOL0     H51154   8.683   3.668   2.341  0.8508  2.5081 -3.5093
  371MOL0     H51155   8.575   3.534   2.373  1.1466 -0.2697  0.4681
  371MOL0     H51156   8.681   3.481   2.549  0.7429  0.5761  2.6160
  371MOL0     H51157   8.847   3.361   2.836  0.0872  2.5124  3.6277
  371MOL0     H51158   8.730   3.488   2.786 -0.8937 -0.8586  3.1301
  371MOL0     H51159   8.889   3.535   2.805 -1.3457  1.8718 -2.8453
  371MOL0     H51160   9.329   3.556   2.781 -0.5093  0.2864 -1.1658
  371MOL0     H51161   9.530   3.559   2.939 -0.4820  0.2601 -1.1243
  371MOL0     H51162   9.723   3.475   3.105 -0.7873 -2.3731 -0.9657
  371MOL0     H51163   9.595   3.599   3.125  1.8172  1.4795  1.4467
  371MOL0     H51164   9.571   3.542   3.363  0.5742  0.9787  1.6370
  371MOL0     H51165   9.697   3.427   3.354  1.5465 -0.8282 -1.3096
  371MOL0     H51166   9.762   3.674   3.439 -4.8739  3.1733 -0.2930
  371MOL0     H51167   9.737   3.726   3.278  3.2988  2.1006  1.1609
  371MOL0     H51168   9.909   3.601   3.173  1.6771 -1.8747 -0.2823
  371MOL0     H51169   9.952   3.515   3.327 -3.2270 -0.8121 -0.0732
  371MOL0     H51170  10.100   3.707   3.235  0.1386 -0.4596 -0.3767
  371MOL0     H51171   9.973   3.818   3.281  0.1453  0.2108  0.5708
  371MOL0     H51172  10.097   3.608   3.476  0.1986 -0.0087 -0.2429
  371MOL0     H51173   9.987   3.745   3.515  2.7804  1.0190  2.9666
  371MOL0     H51174  10.176   3.916   3.479  1.4089  0.0242 -0.5917
  371MOL0     H51175  10.267   3.793   3.394 -1.9245 -1.7290 -2.5066
  371MOL0     H51176  10.264   3.660   3.603  1.2723 -0.4389 -0.7311
  371MOL0     H51177  10.198   3.793   3.697  1.6532  1.9150 -0.7596
  371MOL0     H51178   9.363   3.209   3.121  1.5394 -1.6684 -0.9837
  371MOL0     H51179   9.160   3.233   2.981 -0.3832 -0.1233 -1.0981
  371MOL0     H51180   9.144   3.346   2.426  0.6651  0.4570  1.0307
  371MOL0     H51181   8.980   3.404   2.254  1.3428  0.7603  0.9762
  371MOL0     H51182   7.085   3.204   1.724 -0.1391 -1.9013 -0.9652
  371MOL0     H51183   6.867   3.104   1.709  0.1208 -1.1959  0.3787
  371MOL0     H51184   6.609   2.846   1.695 -1.3952 -0.4755 -1.8036
  371MOL0     H51185   6.405   2.726   1.638  0.6247 -0.3027  0.4315
  371MOL0     H51186   6.057   2.613   1.687 -0.6716  2.4530  1.4933
  371MOL0     H51187   6.215   2.670   1.621  0.6054 -0.3546  0.1031
  371MOL0     H51188   6.117   2.390   1.708  0.6924 -0.9866  1.0952
  371MOL0     H51189   6.291   2.425   1.701 -0.1772 -1.7463 -1.5020
  371MOL0     H51190   6.117   2.491   1.454  0.2328  0.1300 -1.0960
  371MOL0     H51191   6.290   2.504   1.477 -1.9243  1.7238  0.4704
  371MOL0     H51192   6.217   2.286   1.359  1.2571  0.3786 -0.6677
  371MOL0     H51193   6.158   2.226   1.514  0.2416 -0.5007  0.2357
  371MOL0     H51194   6.584   2.247   1.533 -0.3592  1.7777 -0.4963
  371MOL0     H51195   6.314   2.702   2.070  1.4583 -0.7342  1.4141
  371MOL0     H51196   6.563   2.906   2.183 -2.5893  0.5653  1.1751
  371MOL0     H51197   6.484   2.763   2.234  1.1516 -0.1088  0.1175
  371MOL0     H51198   6.643   2.752   2.159  0.0174  1.0263  0.6284
  372MOL0     O51199  10.258   1.540   1.315  0.4060  0.9005  0.3623
  372MOL0     C51200  10.243   1.422   1.360  1.6486 -1.0270  0.1669
  372MOL0     O51201  10.318   1.372   1.465  0.6027  1.5691  0.1111
  372MOL0     C51202  10.405   1.450   1.523 -0.6946 -0.0439  0.1230
  372MOL0     C51203  10.366   1.529   1.629  0.6995 -0.1453  0.2033
  372MOL0     C51204  10.452   1.627   1.672  0.2832 -0.2385  0.5558
  372MOL0     C51205  10.586   1.623   1.644 -0.7030 -0.0787  0.6160
  372MOL0     O51206  10.669   1.706   1.721 -0.1375 -0.4158  0.2281
  372MOL0     C51207  10.804   1.667   1.740 -0.6663 -0.0109 -0.1419
  372MOL0     C51208  10.863   1.771   1.836 -0.2388 -0.0722 -0.4546
  372MOL0     C51209  10.895   1.902   1.761  0.0069  0.5819 -0.5816
  372MOL0     C51210  10.983   2.003   1.841 -0.6101  0.2760 -0.1726
  372MOL0     C51211  11.117   1.951   1.878  0.0429  0.2842 -0.0235
  372MOL0     C51212  11.185   1.866   1.769 -0.4363  0.3934  0.0090
  372MOL0     C51213  11.341   1.862   1.788  0.5831 -0.1620 -0.3116
  372MOL0     C51214  11.386   1.798   1.926  0.1135  0.4877  0.5156
  372MOL0     N51215  11.325   1.667   1.938 -0.5675  0.7639  0.1786
  372MOL0     C51216  11.357   1.545   1.880  0.7131 -0.2690  0.1589
  372MOL0     C51217  11.297   1.449   1.947  0.3093 -0.6389  0.7155
  372MOL0     C51218  11.284   1.301   1.920 -0.0325  0.4030  0.3744
  372MOL0     C51219  11.212   1.250   1.795 -0.9576 -0.2896  0.4916
  372MOL0     C51220  11.069   1.247   1.823  0.1190  0.2689  0.0477
  372MOL0     C51221  11.002   1.226   1.692 -0.3688 -0.1540 -0.5113
  372MOL0     O51222  10.867   1.267   1.710  0.7442  0.4762 -0.1503
  372MOL0     C51223  10.770   1.193   1.651 -0.8884 -0.3357  0.2479
  372MOL0     C51224  10.643   1.199   1.701  0.2979  0.4810  0.1357
  372MOL0     C51225  10.536   1.119   1.653  0.3871  0.5959  0.1849
  372MOL0     C51226  10.393   1.140   1.712 -0.2815 -0.1933  0.0581
  372MOL0     C51227  10.557   1.030   1.543 -1.0058  0.6964 -0.0399
  372MOL0     C51228  10.461   0.921   1.489  1.2523  0.4693  0.7132
  372MOL0     O51229  10.506   0.841   1.389  0.3996  0.3995 -0.0351
  372MOL0     C51230  10.460   0.707   1.392 -0.6504 -0.4733  0.8003
  372MOL0     C51231  10.448   0.647   1.261  0.7671 -0.6799 -0.7679
  372MOL0     C51232  10.388   0.523   1.248 -0.5809 -0.2613  0.0948
  372MOL0     C51233  10.352   0.443   1.359 -0.3923  0.0397 -0.3731
  372MOL0     O51234  10.317   0.313   1.327  0.8555 -0.0302  0.4478
  372MOL0     C51235  10.242   0.245   1.428  0.6684  0.0491 -0.2063
  372MOL0     C51236  10.168   0.134   1.350  0.2833 -1.2073 -1.0602
  372MOL0     C51237  10.074   0.043   1.442 -0.2279  0.6690  0.7855
  372MOL0     C51238  10.171  -0.050   1.521 -0.1958  1.7092  0.0850
  372MOL0     C51239  10.100  -0.144   1.616 -0.4756  0.0901 -0.6705
  372MOL0     C51240  10.115  -0.286   1.577 -0.1449  0.3585  0.1366
  372MOL0     C51241  10.057  -0.373   1.681  0.6428 -0.0477 -0.0092
  372MOL0     C51242  10.048  -0.506   1.621 -0.1412 -0.2368  0.1931
  372MOL0    Cl51243   9.950  -0.508   1.469  0.1814 -0.4195  0.2627
  372MOL0     C51244  10.366   0.501   1.490 -0.3869 -0.0452 -0.0317
  372MOL0     C51245  10.413   0.631   1.507  0.5994 -0.0860  0.0317
  372MOL0     O51246  10.343   0.912   1.534 -0.8435 -0.1126 -0.0981
  372MOL0     C51247  10.690   1.031   1.486  0.7680 -0.3330 -0.3702
  372MOL0     C51248  10.789   1.102   1.542 -0.7082 -0.1919  0.4185
  372MOL0     N51249  11.249   1.511   2.062  0.1727  0.4178 -0.9334
  372MOL0     N51250  11.259   1.636   2.046  0.8031  0.8604 -0.2974
  372MOL0     C51251  10.641   1.541   1.535  0.3563  0.1416  0.3734
  372MOL0     C51252  10.536   1.465   1.471 -0.6101  0.0508  0.1633
  372MOL0     C51253  10.122   1.347   1.320 -0.5029 -0.3042 -0.4770
  372MOL0     C51254  10.089   1.236   1.405  0.4341  0.0052 -0.0115
  372MOL0     C51255   9.973   1.162   1.375 -1.4107 -0.7432  0.3375
  372MOL0     C51256   9.880   1.194   1.280  0.0339 -0.3385 -0.6713
  372MOL0     O51257   9.761   1.132   1.250 -0.4647  0.2415  0.4012
  372MOL0     C51258   9.757   0.993   1.274  0.2123  0.0594 -0.1369
  372MOL0     C51259   9.682   0.970   1.412  0.2889 -0.5003 -0.5099
  372MOL0     C51260   9.531   1.002   1.423 -0.2421 -0.5215 -0.2410
  372MOL0     C51261   9.451   0.990   1.299 -0.6516 -0.0124  0.1868
  372MOL0     C51262   9.316   1.034   1.326  0.8642  0.6723  0.8368
  372MOL0     C51263   9.198   1.068   1.337  0.0063 -0.4625 -0.0553
  372MOL0     C51264   9.913   1.304   1.202 -0.8150 -0.4926  0.5943
  372MOL0     C51265  10.031   1.385   1.219  0.2713 -0.6634  0.9939
  372MOL0     C51266  10.045   1.499   1.109  0.2481  0.2729 -0.1509
  372MOL0     H51267  10.263   1.518   1.662  0.8915  0.5143  1.0641
  372MOL0     H51268  10.408   1.695   1.745 -1.2696 -2.2057  1.5447
  372MOL0     H51269  10.860   1.672   1.647  0.8135 -0.8231  0.6651
  372MOL0     H51270  10.805   1.567   1.785  2.0891 -0.2357 -0.5335
  372MOL0     H51271  10.806   1.778   1.929 -1.6504 -0.3257 -1.2702
  372MOL0     H51272  10.957   1.730   1.875 -1.7346 -1.9399  1.3809
  372MOL0     H51273  10.946   1.877   1.668 -0.4717 -1.4021 -0.3628
  372MOL0     H51274  10.804   1.956   1.734  0.7283  2.3481  0.3620
  372MOL0     H51275  10.997   2.088   1.773  0.3245  0.9059  0.7802
  372MOL0     H51276  10.932   2.034   1.933 -1.6552  1.6478 -1.1729
  372MOL0     H51277  11.113   1.888   1.966  1.7057 -2.9649 -2.0822
  372MOL0     H51278  11.172   2.039   1.912 -1.2250  1.2711 -0.4167
  372MOL0     H51279  11.145   1.764   1.769  3.6487 -1.3886  0.0750
  372MOL0     H51280  11.161   1.908   1.672 -1.2444  1.0381  0.4793
  372MOL0     H51281  11.376   1.965   1.785 -0.0258  0.1253  1.3984
  372MOL0     H51282  11.382   1.801   1.706 -3.5357 -1.6562 -1.5198
  372MOL0     H51283  11.493   1.780   1.931 -0.1000 -0.4443  2.3174
  372MOL0     H51284  11.363   1.861   2.012  1.1032  0.8678  0.5047
  372MOL0     H51285  11.404   1.534   1.783 -0.9160 -0.0948 -0.6718
  372MOL0     H51286  11.235   1.259   2.009 -0.7307  1.0011  0.2846
  372MOL0     H51287  11.391   1.280   1.916 -0.0611  0.2058  0.6554
  372MOL0     H51288  11.237   1.322   1.717  0.3744 -1.7044 -0.4615
  372MOL0     H51289  11.246   1.152   1.760 -1.7026 -1.1806  2.1516
  372MOL0     H51290  11.044   1.165   1.892  1.8810 -2.1375 -1.9963
  372MOL0     H51291  11.036   1.344   1.861  0.1649 -0.0822  1.0141
  372MOL0     H51292  11.048   1.293   1.618  1.2090 -0.6064  0.0121
  372MOL0     H51293  11.009   1.123   1.658 -3.1028 -0.9876  1.1159
  372MOL0     H51294  10.618   1.280   1.768 -0.3891  1.9737 -1.8030
  372MOL0     H51295  10.324   1.184   1.640 -0.3126 -1.1153 -0.4869
  372MOL0     H51296  10.403   1.198   1.804  0.7831 -2.3128  1.3695
  372MOL0     H51297  10.351   1.050   1.758 -1.4067  0.1821 -0.2167
  372MOL0     H51298  10.480   0.702   1.173  0.5139 -1.6892 -1.5045
  372MOL0     H51299  10.361   0.476   1.154  0.8032 -1.0526  0.0791
  372MOL0     H51300  10.305   0.201   1.505 -2.2123 -0.3000  2.1035
  372MOL0     H51301  10.166   0.315   1.465 -0.3729 -0.8733 -0.5505
  372MOL0     H51302  10.107   0.188   1.277  1.2044  2.1218  0.4286
  372MOL0     H51303  10.246   0.074   1.302  1.4268 -0.7340  0.1432
  372MOL0     H51304  10.004  -0.008   1.375 -0.7495  3.1118 -0.6223
  372MOL0     H51305  10.025   0.113   1.509  0.1438 -0.3189  2.1453
  372MOL0     H51306  10.240   0.009   1.581  1.0915  1.1688 -0.8210
  372MOL0     H51307  10.242  -0.104   1.457  1.3965  1.8869  1.6178
  372MOL0     H51308  10.153  -0.137   1.711  2.0639 -0.1905 -1.9794
  372MOL0     H51309   9.995  -0.116   1.623 -0.4876 -0.1834  0.3287
  372MOL0     H51310  10.221  -0.314   1.571  0.9348  3.0902  3.6641
  372MOL0     H51311  10.060  -0.291   1.482  1.7957  2.8218 -1.2338
  372MOL0     H51312   9.963  -0.343   1.729 -0.3025 -2.8728  0.0861
  372MOL0     H51313  10.119  -0.373   1.771  0.4692 -2.2166  0.1463
  372MOL0     H51314  10.000  -0.577   1.689 -0.0796 -1.4852 -1.0156
  372MOL0     H51315  10.147  -0.536   1.586 -0.1215  0.1590 -0.0880
  372MOL0     H51316  10.334   0.454   1.583 -1.8059  1.7394  0.4418
  372MOL0     H51317  10.422   0.671   1.607  2.6436 -2.2993  0.8358
  372MOL0     H51318  10.712   0.986   1.390 -1.8001 -1.6701 -0.4256
  372MOL0     H51319  10.879   1.092   1.482 -1.0824  2.3549 -0.6768
  372MOL0     H51320  10.742   1.531   1.495 -0.0268 -2.4299 -0.1615
  372MOL0     H51321  10.554   1.423   1.372  0.3711 -0.3172  0.4800
  372MOL0     H51322  10.155   1.210   1.487 -1.2862  1.6937  2.0305
  372MOL0     H51323   9.957   1.067   1.426  0.1225 -2.2888 -1.8612
  372MOL0     H51324   9.701   0.946   1.192  0.9589  0.3832 -0.8456
  372MOL0     H51325   9.849   0.938   1.254 -0.6385 -0.9025 -1.6294
  372MOL0     H51326   9.733   1.037   1.482  0.6238  0.6268 -1.7635
  372MOL0     H51327   9.693   0.867   1.447 -2.2606  0.2354  2.9327
  372MOL0     H51328   9.487   0.936   1.497 -0.0517 -0.3410  0.0350
  372MOL0     H51329   9.523   1.104   1.463 -0.2950 -0.6210 -0.0012
  372MOL0     H51330   9.465   0.892   1.252  0.9857 -0.5367  1.6943
  372MOL0     H51331   9.489   1.057   1.221 -0.1342  1.1055  1.3617
  372MOL0     H51332   9.095   1.096   1.347  0.2056  0.6236 -0.9160
  372MOL0     H51333   9.849   1.345   1.124 -0.2955 -0.6815  0.0632
  372MOL0     H51334   9.962   1.570   1.118 -0.0097 -0.1728  1.2210
  372MOL0     H51335  10.143   1.548   1.104 -0.1393  0.9312 -2.4413
  372MOL0     H51336  10.046   1.459   1.007 -0.6044  1.5039 -0.6771
  373MOL0     O51337   1.298   3.577   1.623  0.0224 -0.7078  0.3017
  373MOL0     C51338   1.343   3.505   1.532  0.7146 -0.8132  0.0604
  373MOL0     O51339   1.275   3.476   1.414  0.5626  0.7005  0.0429
  373MOL0     C51340   1.132   3.496   1.414 -0.5259  0.1006  0.0427
  373MOL0     C51341   1.069   3.624   1.437 -0.3986 -0.2507 -1.1775
  373MOL0     C51342   0.927   3.630   1.444 -0.1979 -0.3759 -0.1804
  373MOL0     C51343   0.850   3.515   1.430  0.1390  0.4469 -0.5986
  373MOL0     O51344   0.715   3.535   1.429  0.2994  0.2321 -0.3764
  373MOL0     C51345   0.622   3.436   1.366 -1.2487 -0.8721 -0.2778
  373MOL0     C51346   0.481   3.483   1.388 -0.5817 -0.3498  0.1204
  373MOL0     C51347   0.448   3.602   1.302 -0.7430  0.0158  0.1551
  373MOL0     C51348   0.326   3.680   1.356 -0.7156 -1.3231 -0.1265
  373MOL0     C51349   0.311   3.793   1.244  0.3186  0.8259 -0.3549
  373MOL0     C51350   0.202   3.884   1.301  0.1457 -0.0171 -0.2684
  373MOL0     C51351   0.178   3.996   1.204 -0.6525 -0.6521  0.3002
  373MOL0     C51352   0.101   4.126   1.251 -0.6647 -0.2015  0.1189
  373MOL0     N51353   0.044   4.194   1.132 -0.5009  0.5409  0.0296
  373MOL0     C51354   0.105   4.201   1.008 -0.8677  0.9193  0.4787
  373MOL0     C51355   0.046   4.289   0.933 -0.4584 -0.4365  0.1597
  373MOL0     C51356   0.087   4.320   0.791 -0.2098 -0.5010 -0.2152
  373MOL0     C51357   0.199   4.230   0.734 -0.1907 -0.4134  0.9108
  373MOL0     C51358   0.159   4.089   0.701  0.1311  0.0947  0.0512
  373MOL0     C51359   0.277   3.998   0.677 -0.6546 -0.4970 -0.6955
  373MOL0     O51360   0.362   4.004   0.787 -0.3766  0.6454 -0.5942
  373MOL0     C51361   0.444   3.887   0.799  1.0283 -0.4122 -0.7935
  373MOL0     C51362   0.477   3.800   0.700 -0.7050  0.1619 -0.0499
  373MOL0     C51363   0.573   3.701   0.709 -0.2139  0.1960 -0.3193
  373MOL0     C51364   0.602   3.616   0.581 -0.4135  0.0679 -0.5465
  373MOL0     C51365   0.626   3.667   0.840  0.1551  0.4064  1.1675
  373MOL0     C51366   0.708   3.547   0.878 -0.3703  0.6294 -0.4764
  373MOL0     O51367   0.743   3.531   1.011 -1.0223 -0.0913  0.6399
  373MOL0     C51368   0.852   3.456   1.035  0.1945 -0.8501  1.4476
  373MOL0     C51369   0.845   3.318   1.023 -0.5533 -0.4394 -0.0363
  373MOL0     C51370   0.952   3.235   1.036 -0.6202 -0.5009 -0.3451
  373MOL0     C51371   1.078   3.293   1.081 -0.3987  0.7280  0.1112
  373MOL0     O51372   1.192   3.222   1.111  0.0937  0.1961 -0.2654
  373MOL0     C51373   1.202   3.082   1.074 -0.1838 -0.6005 -0.6761
  373MOL0     C51374   1.339   3.028   1.101  0.4916  0.2557  0.9264
  373MOL0     C51375   1.440   3.118   1.013  0.6797 -0.1351  0.6400
  373MOL0     C51376   1.581   3.077   1.033 -0.6725 -1.2578  0.0495
  373MOL0     C51377   1.677   3.179   0.969 -0.2627  0.1854  0.0060
  373MOL0     C51378   1.821   3.127   0.962  0.0334 -0.4217  0.4446
  373MOL0     C51379   1.881   3.113   1.104  0.1412 -0.4453  0.2096
  373MOL0     C51380   2.037   3.106   1.099 -0.2498 -0.7748  0.7667
  373MOL0    Cl51381   2.119   3.239   1.006  0.3743  0.0021 -0.1161
  373MOL0     C51382   1.086   3.430   1.090  0.6670 -0.5225  0.8487
  373MOL0     C51383   0.978   3.511   1.068  0.6695 -0.1136  0.4725
  373MOL0     O51384   0.744   3.470   0.790  0.5910  0.7978 -0.2101
  373MOL0     C51385   0.592   3.760   0.944 -0.6328 -1.2661 -0.4441
  373MOL0     C51386   0.508   3.873   0.925  0.2545  0.5746  0.3563
  373MOL0     N51387  -0.049   4.341   1.011 -0.0719 -0.2408 -0.0065
  373MOL0     N51388  -0.053   4.282   1.130  0.7037  0.3805  0.3668
  373MOL0     C51389   0.915   3.388   1.396 -0.1540 -0.0336 -0.1390
  373MOL0     C51390   1.055   3.381   1.395 -0.1571 -0.0404 -0.1708
  373MOL0     C51391   1.483   3.463   1.540  0.0736 -0.2086  1.3058
  373MOL0     C51392   1.506   3.326   1.502 -0.0964  0.5803  0.0850
  373MOL0     C51393   1.634   3.269   1.504  0.6215  0.0368  0.3507
  373MOL0     C51394   1.734   3.345   1.551 -0.0431  0.3123 -0.2474
  373MOL0     O51395   1.855   3.286   1.532 -0.5647 -0.8850 -0.2958
  373MOL0     C51396   1.979   3.371   1.557  0.6534  0.9856 -0.5926
  373MOL0     C51397   2.098   3.275   1.534 -0.0812 -1.7214 -0.6454
  373MOL0     C51398   2.093   3.170   1.642 -0.5818 -0.0259  0.8050
  373MOL0     C51399   2.222   3.088   1.647 -0.4401  0.3763  0.2512
  373MOL0     C51400   2.232   2.985   1.539 -0.3370 -0.6217 -0.0872
  373MOL0     C51401   2.233   2.905   1.451  0.1772 -0.4777  0.2932
  373MOL0     C51402   1.713   3.476   1.606  0.6991 -0.3036  0.0542
  373MOL0     C51403   1.587   3.536   1.603  0.2009 -0.3194  0.5653
  373MOL0     C51404   1.572   3.677   1.644  0.4442  0.3561  0.1466
  373MOL0     H51405   1.116   3.714   1.474 -1.5558 -0.5104  1.1294
  373MOL0     H51406   0.890   3.731   1.458 -2.0671 -1.0187 -0.1701
  373MOL0     H51407   0.633   3.335   1.406 -0.6000 -0.7484 -0.1277
  373MOL0     H51408   0.654   3.416   1.263  3.7764 -1.1387  1.0752
  373MOL0     H51409   0.416   3.399   1.366  0.5528 -0.8397 -1.5665
  373MOL0     H51410   0.467   3.500   1.495  1.8235  2.7985  0.1038
  373MOL0     H51411   0.536   3.666   1.288 -0.6119 -0.5074 -1.5285
  373MOL0     H51412   0.427   3.571   1.200  0.9049  0.5646 -0.3882
  373MOL0     H51413   0.244   3.608   1.360 -1.2998 -0.6117  1.5550
  373MOL0     H51414   0.348   3.723   1.455  4.3049  2.4931 -2.4061
  373MOL0     H51415   0.300   3.766   1.139  2.6146  0.5898 -0.5817
  373MOL0     H51416   0.404   3.851   1.242  0.8672  0.1380 -4.7171
  373MOL0     H51417   0.107   3.832   1.312  1.1998 -1.4913  3.4227
  373MOL0     H51418   0.231   3.933   1.395 -0.4030  0.0938 -0.1557
  373MOL0     H51419   0.128   3.958   1.115  1.4611  0.2706 -1.3786
  373MOL0     H51420   0.280   4.016   1.171  0.0617 -4.4185 -0.1784
  373MOL0     H51421   0.007   4.105   1.302 -2.1662  0.0007 -2.4230
  373MOL0     H51422   0.161   4.182   1.323 -0.4331 -1.6332  1.0818
  373MOL0     H51423   0.186   4.133   0.985 -0.3812  2.0511 -1.3763
  373MOL0     H51424   0.126   4.422   0.796 -2.3077  0.3350  0.2208
  373MOL0     H51425  -0.001   4.311   0.727 -2.3738 -4.2101  2.8182
  373MOL0     H51426   0.225   4.274   0.637 -3.2041  0.2869  0.3433
  373MOL0     H51427   0.282   4.232   0.805 -0.4163 -1.6527  1.2369
  373MOL0     H51428   0.112   4.051   0.793 -0.0256  0.2468  0.0341
  373MOL0     H51429   0.086   4.095   0.620 -1.7186 -0.9842  1.5196
  373MOL0     H51430   0.228   3.901   0.665 -0.7397 -0.8559  2.0332
  373MOL0     H51431   0.322   4.009   0.578 -0.4768 -1.6131 -0.7475
  373MOL0     H51432   0.432   3.814   0.602 -1.7847  1.5587  0.6059
  373MOL0     H51433   0.706   3.581   0.589 -0.3007  0.4803 -0.1436
  373MOL0     H51434   0.588   3.676   0.491 -0.8869  1.1824  0.2468
  373MOL0     H51435   0.535   3.530   0.578 -0.2746 -0.0779  0.2450
  373MOL0     H51436   0.745   3.278   1.014 -1.1026  0.4681  1.5322
  373MOL0     H51437   0.941   3.128   1.026 -1.2653 -0.4318 -0.3999
  373MOL0     H51438   1.129   3.024   1.132 -0.0093 -0.3819 -0.2330
  373MOL0     H51439   1.169   3.064   0.971 -1.8405  0.0850 -0.2959
  373MOL0     H51440   1.359   3.040   1.208 -0.5163  0.7810  1.0629
  373MOL0     H51441   1.351   2.921   1.080 -2.3052  0.2223 -1.1162
  373MOL0     H51442   1.434   3.225   1.035 -0.7895  0.4838 -2.3105
  373MOL0     H51443   1.423   3.106   0.906 -1.9234  3.5189  0.4726
  373MOL0     H51444   1.608   2.978   0.993  3.8292 -1.0508  1.8559
  373MOL0     H51445   1.603   3.071   1.141  0.0665 -3.8525 -0.1656
  373MOL0     H51446   1.639   3.195   0.868  0.5025 -2.3935 -0.7689
  373MOL0     H51447   1.672   3.272   1.026  1.7512 -0.6585  1.7005
  373MOL0     H51448   1.885   3.200   0.911  1.2970 -2.0632 -0.3802
  373MOL0     H51449   1.822   3.034   0.905 -0.3411  0.4043 -0.9751
  373MOL0     H51450   1.852   3.025   1.161  0.3546 -0.1453  0.7922
  373MOL0     H51451   1.842   3.196   1.164  2.3227  0.3627  0.6172
  373MOL0     H51452   2.062   3.008   1.058 -2.0834 -1.6097  1.5798
  373MOL0     H51453   2.076   3.100   1.201  2.0087  2.0687  0.2161
  373MOL0     H51454   1.172   3.479   1.134  0.3496  0.8627 -0.0157
  373MOL0     H51455   0.985   3.619   1.070 -2.6173  0.1966  0.9363
  373MOL0     H51456   0.613   3.753   1.050 -1.9721 -0.6192 -0.1173
  373MOL0     H51457   0.488   3.946   1.003  1.1645  2.0692 -0.7473
  373MOL0     H51458   0.850   3.305   1.371 -1.2846  0.8415 -0.2276
  373MOL0     H51459   1.107   3.291   1.366 -0.6795 -0.5605  0.4737
  373MOL0     H51460   1.424   3.258   1.477 -0.2892  0.3484  1.2949
  373MOL0     H51461   1.648   3.167   1.470 -1.0697 -0.7209  1.7543
  373MOL0     H51462   1.968   3.447   1.478 -2.8729 -0.8454 -2.0594
  373MOL0     H51463   1.971   3.416   1.656 -1.5071  0.6035 -0.5483
  373MOL0     H51464   2.190   3.335   1.527 -1.9185  1.6358  1.3583
  373MOL0     H51465   2.085   3.216   1.443 -2.9298 -2.4015  0.1020
  373MOL0     H51466   2.078   3.212   1.742 -5.5569 -0.4279  0.4532
  373MOL0     H51467   1.999   3.115   1.628 -0.6792  0.3999 -0.2875
  373MOL0     H51468   2.225   3.039   1.745  1.4829  0.1318  0.1104
  373MOL0     H51469   2.313   3.148   1.643  0.2586 -0.5359  1.7757
  373MOL0     H51470   2.217   2.844   1.365 -2.5354 -0.9898  1.0757
  373MOL0     H51471   1.785   3.526   1.670 -0.0651 -1.3722  1.8440
  373MOL0     H51472   1.671   3.714   1.673  1.1495 -2.2935  1.4295
  373MOL0     H51473   1.535   3.741   1.563  1.7935 -0.0605 -0.8269
  373MOL0     H51474   1.509   3.687   1.733  1.8179  4.2841  0.9075
  374MOL0     O51475   3.948   3.810   2.022  0.5051  0.1213 -0.3475
  374MOL0     C51476   3.958   3.928   2.048 -0.1866  0.7019  0.7507
  374MOL0     O51477   4.069   4.004   2.010  0.5835  0.3412 -0.8846
  374MOL0     C51478   4.169   3.934   1.952 -0.1808  0.3786 -0.0571
  374MOL0     C51479   4.293   3.937   2.018 -0.5037  0.4353  0.7862
  374MOL0     C51480   4.393   3.857   1.958 -0.0387 -0.0287  0.6833
  374MOL0     C51481   4.390   3.810   1.833  0.0754 -0.5518  0.7054
  374MOL0     O51482   4.505   3.752   1.784 -0.2891  0.2667  0.3135
  374MOL0     C51483   4.516   3.721   1.643 -0.3764  0.1219 -0.4187
  374MOL0     C51484   4.662   3.688   1.592 -0.3551  0.0525 -0.3524
  374MOL0     C51485   4.724   3.559   1.643 -0.2325  0.4249  0.5025
  374MOL0     C51486   4.876   3.551   1.594 -0.4525  0.3679 -0.5260
  374MOL0     C51487   4.943   3.411   1.631 -0.0008  0.0746  0.0496
  374MOL0     C51488   5.089   3.431   1.593  0.1437 -0.3794  0.3383
  374MOL0     C51489   5.186   3.324   1.646 -0.0354  0.5254 -1.3120
  374MOL0     C51490   5.325   3.381   1.645  0.3887 -0.3497 -0.1486
  374MOL0     N51491   5.419   3.272   1.678 -0.5385  0.7164  0.0433
  374MOL0     C51492   5.551   3.282   1.641 -0.5721  0.3089 -0.6262
  374MOL0     C51493   5.605   3.169   1.698  0.1171 -0.1245  0.4680
  374MOL0     C51494   5.750   3.119   1.709 -1.1525 -0.5313  0.1145
  374MOL0     C51495   5.786   2.973   1.654  0.3630  0.4256  0.0159
  374MOL0     C51496   5.909   2.910   1.722 -0.2072 -0.5342 -0.7592
  374MOL0     C51497   6.034   3.001   1.732  0.7985 -0.5094 -0.3278
  374MOL0     O51498   6.075   3.051   1.601 -0.3618 -0.3860  0.0218
  374MOL0     C51499   6.203   3.088   1.585  0.4397  0.0637 -0.4677
  374MOL0     C51500   6.239   3.113   1.456 -0.0494 -0.1618 -0.7467
  374MOL0     C51501   6.366   3.167   1.426  0.6284 -0.0423  0.9271
  374MOL0     C51502   6.388   3.178   1.273 -0.2646 -0.8111  0.3717
  374MOL0     C51503   6.456   3.197   1.531  0.0117  0.0281  1.5406
  374MOL0     C51504   6.578   3.276   1.524  0.0185 -0.2928 -0.2273
  374MOL0     O51505   6.670   3.266   1.626  0.5944  0.1012  0.3883
  374MOL0     C51506   6.788   3.342   1.606 -0.0289  0.1466 -0.0228
  374MOL0     C51507   6.885   3.314   1.516 -0.4603  0.0135  0.9323
  374MOL0     C51508   7.010   3.378   1.524  0.0256 -0.0826  0.1562
  374MOL0     C51509   7.033   3.478   1.617 -0.2398 -0.6590  0.1298
  374MOL0     O51510   7.162   3.536   1.619 -0.2255  0.5017 -0.1622
  374MOL0     C51511   7.164   3.679   1.622 -0.1561 -0.0434  0.1051
  374MOL0     C51512   7.302   3.728   1.598  0.1258 -0.0465 -0.4242
  374MOL0     C51513   7.398   3.690   1.711  0.6292 -0.2609 -0.3878
  374MOL0     C51514   7.454   3.815   1.788  0.7078  0.1294 -0.0080
  374MOL0     C51515   7.533   3.771   1.907 -0.3589  0.2303  0.2099
  374MOL0     C51516   7.613   3.887   1.956  0.2726 -0.4689 -0.2220
  374MOL0     C51517   7.727   3.851   2.049 -0.3510  0.2521  0.1805
  374MOL0     C51518   7.696   3.764   2.168  0.1695  0.6133 -0.4964
  374MOL0    Cl51519   7.611   3.856   2.309  0.0266  0.1069  0.0206
  374MOL0     C51520   6.924   3.516   1.699 -0.2554 -0.2650 -0.0212
  374MOL0     C51521   6.808   3.446   1.693  1.0205  0.0588 -0.6094
  374MOL0     O51522   6.603   3.334   1.418  0.8319  0.0444  0.8719
  374MOL0     C51523   6.424   3.161   1.664  0.2084 -0.0898 -0.3694
  374MOL0     C51524   6.300   3.094   1.684 -0.3890  0.0230  0.0753
  374MOL0     N51525   5.511   3.113   1.781  0.5286 -0.8040  0.1890
  374MOL0     N51526   5.400   3.173   1.768  1.4306  0.2069  0.0117
  374MOL0     C51527   4.269   3.822   1.762  0.6668  0.6750  0.3830
  374MOL0     C51528   4.159   3.875   1.827 -0.2224  0.7068  0.4266
  374MOL0     C51529   3.848   3.994   2.110 -0.5078  0.1322  0.8724
  374MOL0     C51530   3.835   4.126   2.086 -0.2164 -0.5428 -0.0416
  374MOL0     C51531   3.732   4.206   2.128  0.7834  0.3671 -0.1764
  374MOL0     C51532   3.625   4.140   2.201 -0.1461 -0.3842  0.2521
  374MOL0     O51533   3.521   4.214   2.254 -0.3499  0.3189 -0.5651
  374MOL0     C51534   3.539   4.278   2.377 -0.7020  0.2094 -0.1484
  374MOL0     C51535   3.430   4.245   2.465  0.2440 -0.9826  0.0627
  374MOL0     C51536   3.470   4.292   2.606 -1.1402  0.0341  0.0239
  374MOL0     C51537   3.352   4.284   2.698  0.7708  0.1774 -0.2003
  374MOL0     C51538   3.246   4.371   2.652 -0.6734 -0.2110 -0.4359
  374MOL0     C51539   3.174   4.459   2.606  0.2789 -0.3444 -0.7707
  374MOL0     C51540   3.634   4.005   2.227 -0.1803  0.2803 -0.4284
  374MOL0     C51541   3.745   3.924   2.181  0.8953  0.3034 -0.7235
  374MOL0     C51542   3.742   3.779   2.211 -0.2504  1.0434 -0.6987
  374MOL0     H51543   4.303   3.993   2.111  1.1564  1.0336  0.2913
  374MOL0     H51544   4.487   3.852   2.012  0.6749  1.7146 -0.3262
  374MOL0     H51545   4.472   3.810   1.597  0.4418  1.5905  1.4997
  374MOL0     H51546   4.443   3.642   1.620 -0.6319  1.0135 -3.0191
  374MOL0     H51547   4.670   3.677   1.484  4.7872  0.0131 -0.2243
  374MOL0     H51548   4.733   3.768   1.615 -2.5967  2.3610 -0.9250
  374MOL0     H51549   4.717   3.549   1.752  2.8000  1.8532  0.9419
  374MOL0     H51550   4.665   3.479   1.599  0.9051 -0.3282  0.3027
  374MOL0     H51551   4.890   3.571   1.487 -1.2824 -2.7658 -1.3095
  374MOL0     H51552   4.929   3.629   1.650  1.3278 -1.0475 -0.1316
  374MOL0     H51553   4.893   3.328   1.580  2.1571 -0.1062 -1.8903
  374MOL0     H51554   4.932   3.391   1.738  0.6271  1.2070  0.3365
  374MOL0     H51555   5.097   3.435   1.484  0.1574  1.9329  0.3616
  374MOL0     H51556   5.124   3.528   1.631  1.9984 -0.8953  0.0635
  374MOL0     H51557   5.187   3.237   1.580  0.2002  1.0803 -2.0584
  374MOL0     H51558   5.148   3.291   1.743 -1.7109  1.4162 -1.6140
  374MOL0     H51559   5.334   3.424   1.545 -0.5863  1.8668  0.6565
  374MOL0     H51560   5.342   3.463   1.715 -0.5314 -1.2641  1.2089
  374MOL0     H51561   5.591   3.366   1.585  0.7541  0.0683 -0.0883
  374MOL0     H51562   5.785   3.128   1.812  3.8695  0.3103 -1.4082
  374MOL0     H51563   5.817   3.191   1.662 -1.1101 -0.7980 -0.2417
  374MOL0     H51564   5.696   2.911   1.661 -1.1780  2.6822  1.7631
  374MOL0     H51565   5.814   2.986   1.549 -0.2190  0.5520 -0.1281
  374MOL0     H51566   5.891   2.872   1.823  2.4691  0.1287  0.0687
  374MOL0     H51567   5.938   2.828   1.655  0.4443  0.7709 -2.1347
  374MOL0     H51568   6.010   3.074   1.810  2.4079 -0.7175  0.4091
  374MOL0     H51569   6.112   2.941   1.780  0.1336 -2.2891 -1.3730
  374MOL0     H51570   6.159   3.097   1.385  0.1565 -1.0175 -0.7891
  374MOL0     H51571   6.350   3.271   1.230  2.2147 -0.5260 -1.4239
  374MOL0     H51572   6.350   3.088   1.225  5.9824 -3.1334 -1.1335
  374MOL0     H51573   6.494   3.179   1.245 -0.4894 -1.8692 -0.5862
  374MOL0     H51574   6.858   3.225   1.460 -1.7729 -0.0475  1.6350
  374MOL0     H51575   7.090   3.345   1.459  1.9859  0.2946  2.2220
  374MOL0     H51576   7.104   3.716   1.538 -0.4465 -0.0741  0.2953
  374MOL0     H51577   7.132   3.721   1.718 -1.9677  1.6129 -1.1570
  374MOL0     H51578   7.341   3.712   1.497  3.0179  2.6505  0.0802
  374MOL0     H51579   7.297   3.837   1.595  2.5479  0.2189  1.2460
  374MOL0     H51580   7.490   3.638   1.682  2.8611  1.2709  3.1728
  374MOL0     H51581   7.346   3.628   1.785  1.7344 -0.8634 -0.0879
  374MOL0     H51582   7.367   3.868   1.827  2.4063  2.2041  1.2124
  374MOL0     H51583   7.515   3.865   1.712  1.4634 -1.1169 -0.2523
  374MOL0     H51584   7.473   3.732   1.989 -2.2202 -0.1104 -1.2295
  374MOL0     H51585   7.604   3.702   1.860 -2.1211 -0.0002 -2.3750
  374MOL0     H51586   7.553   3.951   2.021  2.1929  0.3776  0.7874
  374MOL0     H51587   7.643   3.944   1.868  0.3839  1.2897  0.9086
  374MOL0     H51588   7.779   3.943   2.078  0.1905  0.4991 -1.4423
  374MOL0     H51589   7.798   3.792   1.990 -1.0816 -0.6014  0.1224
  374MOL0     H51590   7.792   3.725   2.203 -1.4746 -3.7656 -0.2505
  374MOL0     H51591   7.631   3.680   2.144 -0.0522 -0.0452  2.0554
  374MOL0     H51592   6.937   3.590   1.777 -2.7964 -0.9407  1.1485
  374MOL0     H51593   6.742   3.477   1.774  3.8955 -1.1242  2.4007
  374MOL0     H51594   6.495   3.170   1.746  0.6981  0.4706 -0.8467
  374MOL0     H51595   6.283   3.087   1.791  0.9289 -0.0176  0.2991
  374MOL0     H51596   4.263   3.779   1.663  2.0083  0.7246  0.2589
  374MOL0     H51597   4.062   3.879   1.778 -1.0891  0.5462  2.0636
  374MOL0     H51598   3.913   4.176   2.030  0.2963  0.7116  1.6998
  374MOL0     H51599   3.714   4.311   2.108 -0.9675  0.9714  3.6359
  374MOL0     H51600   3.634   4.265   2.430  0.6886  1.4981 -2.1875
  374MOL0     H51601   3.543   4.386   2.361  0.0028  0.4612  1.5339
  374MOL0     H51602   3.410   4.139   2.484  0.0857 -0.9916 -0.1596
  374MOL0     H51603   3.346   4.304   2.426  1.3679  0.0899 -0.8137
  374MOL0     H51604   3.552   4.229   2.640 -0.2475  0.3121 -1.4980
  374MOL0     H51605   3.512   4.393   2.609  0.3362 -0.5444  4.2837
  374MOL0     H51606   3.386   4.305   2.800 -0.8043  1.4518  0.1028
  374MOL0     H51607   3.311   4.183   2.691  0.3121  0.4197 -1.2496
  374MOL0     H51608   3.119   4.533   2.551 -2.0665 -1.9816 -0.7885
  374MOL0     H51609   3.557   3.957   2.286 -0.3404  0.5717 -0.4028
  374MOL0     H51610   3.722   3.718   2.122  0.7553  1.5691 -1.3070
  374MOL0     H51611   3.832   3.738   2.258 -0.7994 -0.2223 -0.7201
  374MOL0     H51612   3.657   3.760   2.277  1.1997  1.9407  1.5594
  375MOL0     O51613   8.679   6.271   0.000 -0.1952 -0.2837 -0.5222
  375MOL0     C51614   8.684   6.389  -0.041  0.0380 -0.0583 -0.6690
  375MOL0     O51615   8.604   6.495  -0.005  0.3017 -0.3630  0.7535
  375MOL0     C51616   8.505   6.478   0.089  0.0205 -0.6606  0.0396
  375MOL0     C51617   8.392   6.405   0.078  0.4600  0.5405  0.1674
  375MOL0     C51618   8.295   6.403   0.178  1.1381  0.0521 -0.5177
  375MOL0     C51619   8.304   6.474   0.289  0.0975 -0.7678 -0.7605
  375MOL0     O51620   8.193   6.479   0.372 -0.0665  0.2595  0.4353
  375MOL0     C51621   8.216   6.554   0.495 -0.1535  1.0757 -0.1805
  375MOL0     C51622   8.101   6.542   0.588 -0.3472  0.1392  0.6547
  375MOL0     C51623   8.133   6.612   0.728 -0.1554 -0.1563  0.0105
  375MOL0     C51624   8.124   6.760   0.735 -0.4516 -0.6825 -0.1239
  375MOL0     C51625   8.142   6.820   0.878 -0.9586  0.1537  1.2063
  375MOL0     C51626   8.109   6.971   0.876 -0.3556 -0.2917 -0.7031
  375MOL0     C51627   8.135   7.026   1.021 -0.1995  0.7899  0.5985
  375MOL0     C51628   8.063   7.153   1.069  0.9031  0.0047  0.2804
  375MOL0     N51629   8.110   7.271   0.994 -0.6625  1.1969  0.5465
  375MOL0     C51630   8.223   7.341   1.005  0.3635 -0.3509  0.0680
  375MOL0     C51631   8.197   7.435   0.908  0.3704  0.2603 -1.4232
  375MOL0     C51632   8.274   7.562   0.886 -0.2435 -0.4054 -0.5336
  375MOL0     C51633   8.201   7.698   0.906 -0.0136 -0.6234  0.2970
  375MOL0     C51634   8.168   7.723   1.050  0.3236  0.4570 -0.8976
  375MOL0     C51635   8.074   7.838   1.067 -0.2790  0.7682 -0.8061
  375MOL0     O51636   8.136   7.955   1.013 -0.5365  0.4414 -0.6483
  375MOL0     C51637   8.068   8.077   1.020 -0.1328  0.5135 -0.3671
  375MOL0     C51638   8.136   8.188   0.968 -0.6169  0.0050  0.6329
  375MOL0     C51639   8.090   8.314   0.978 -0.1958 -0.6668  0.4079
  375MOL0     C51640   8.177   8.429   0.930  0.3747 -0.7688  0.7785
  375MOL0     C51641   7.968   8.336   1.045  0.2205 -0.0536  0.4977
  375MOL0     C51642   7.886   8.464   1.048 -0.4660  0.1985  0.3784
  375MOL0     O51643   7.779   8.463   1.135  0.5928 -0.0966 -0.0620
  375MOL0     C51644   7.676   8.549   1.125  0.5219 -0.2104 -0.4544
  375MOL0     C51645   7.554   8.483   1.120 -0.2307  0.2028 -1.0173
  375MOL0     C51646   7.436   8.554   1.131  0.5132 -0.7710  0.2372
  375MOL0     C51647   7.441   8.696   1.138 -0.1007  0.7851 -1.3382
  375MOL0     O51648   7.331   8.779   1.135  0.1574 -0.4645  0.2704
  375MOL0     C51649   7.211   8.728   1.199  0.1905  0.2779 -1.0404
  375MOL0     C51650   7.115   8.838   1.222  0.7239  0.1531 -0.4883
  375MOL0     C51651   7.034   8.868   1.093 -0.3913  0.3565  0.0131
  375MOL0     C51652   6.987   9.018   1.093  1.3269  0.9879  0.9089
  375MOL0     C51653   6.923   9.057   0.967 -0.1195 -0.0592  0.4255
  375MOL0     C51654   7.012   9.081   0.847 -0.4466  0.1317  0.0532
  375MOL0     C51655   7.097   9.209   0.866  0.1763 -0.1138  0.1400
  375MOL0     C51656   7.180   9.235   0.739  0.4364 -0.0407 -0.4455
  375MOL0    Cl51657   7.083   9.239   0.589 -0.0376 -0.2161 -0.1661
  375MOL0     C51658   7.564   8.757   1.121  0.4162  0.2124 -0.1931
  375MOL0     C51659   7.683   8.687   1.117 -0.2921 -0.6469  0.0799
  375MOL0     O51660   7.910   8.550   0.968  0.7769 -0.3953  0.7181
  375MOL0     C51661   7.901   8.226   1.100  0.5080  0.7832 -0.0398
  375MOL0     C51662   7.948   8.097   1.093 -0.5720  0.7055  0.4950
  375MOL0     N51663   8.078   7.420   0.843 -0.0557 -0.0621 -0.5467
  375MOL0     N51664   8.024   7.311   0.892  0.5184 -0.2041 -0.5774
  375MOL0     C51665   8.422   6.545   0.303 -0.6342  0.8453 -0.1620
  375MOL0     C51666   8.527   6.547   0.214  0.0431  0.1067 -0.1570
  375MOL0     C51667   8.781   6.405  -0.147 -0.1544 -0.1970  0.9381
  375MOL0     C51668   8.756   6.513  -0.235 -0.2135  1.1191  0.1555
  375MOL0     C51669   8.846   6.535  -0.344  0.8292 -0.3141  0.1899
  375MOL0     C51670   8.958   6.453  -0.360  0.8695 -0.6077 -0.7983
  375MOL0     O51671   9.044   6.467  -0.460  0.5006  0.6496 -0.4269
  375MOL0     C51672   9.043   6.588  -0.540 -0.0544  0.3172  0.1521
  375MOL0     C51673   9.147   6.569  -0.651  0.0622 -0.8776  0.9816
  375MOL0     C51674   9.083   6.494  -0.766 -0.8889 -0.2848  0.1479
  375MOL0     C51675   9.178   6.467  -0.884 -0.2400  0.3215  0.9715
  375MOL0     C51676   9.197   6.596  -0.956 -0.7176 -0.6047 -0.9242
  375MOL0     C51677   9.216   6.701  -1.008 -0.5144 -0.4552 -0.5106
  375MOL0     C51678   8.992   6.360  -0.264 -0.6360 -0.0964 -0.4238
  375MOL0     C51679   8.907   6.342  -0.151  1.4770 -0.7789  0.3094
  375MOL0     C51680   8.952   6.255  -0.038 -0.2814  0.0276 -0.7526
  375MOL0     H51681   8.369   6.345  -0.010 -0.4393  1.0547  0.0415
  375MOL0     H51682   8.206   6.341   0.168  1.1884 -0.2842  0.8852
  375MOL0     H51683   8.206   6.661   0.475 -1.6304  0.6744 -1.9256
  375MOL0     H51684   8.310   6.527   0.544 -0.2502  1.3456  0.1596
  375MOL0     H51685   8.009   6.587   0.549  0.1653  0.5957 -0.0685
  375MOL0     H51686   8.086   6.434   0.592 -1.0551  0.0803 -1.7743
  375MOL0     H51687   8.063   6.561   0.795  0.6677 -0.9597  0.2820
  375MOL0     H51688   8.228   6.570   0.762 -1.1506 -1.6982  1.0165
  375MOL0     H51689   8.186   6.810   0.660 -0.0377 -1.1149 -0.0701
  375MOL0     H51690   8.023   6.792   0.705  0.2197 -0.0734 -1.9040
  375MOL0     H51691   8.248   6.809   0.903 -0.5356  0.7766 -0.2224
  375MOL0     H51692   8.068   6.775   0.945 -2.3591 -0.0355 -0.4148
  375MOL0     H51693   8.167   7.030   0.803  0.7763  0.4324  0.7144
  375MOL0     H51694   8.004   6.985   0.850  0.2105 -0.0686 -3.2076
  375MOL0     H51695   8.240   7.035   1.048 -0.7875 -1.0729  4.1191
  375MOL0     H51696   8.095   6.949   1.089  0.0056  1.4451  1.4731
  375MOL0     H51697   7.956   7.135   1.055  0.8944  0.7532 -0.7294
  375MOL0     H51698   8.072   7.161   1.178  2.4084 -0.4830  0.2075
  375MOL0     H51699   8.306   7.344   1.075  0.3395 -0.0614  0.0841
  375MOL0     H51700   8.310   7.551   0.783  0.6421 -0.2197 -0.2518
  375MOL0     H51701   8.366   7.561   0.946 -1.7681  0.4183  1.9676
  375MOL0     H51702   8.260   7.778   0.860  1.5925 -2.0777 -0.3008
  375MOL0     H51703   8.104   7.696   0.855 -0.0246  0.9390  0.2013
  375MOL0     H51704   8.116   7.631   1.077 -0.7779  1.3851  0.2695
  375MOL0     H51705   8.256   7.731   1.115 -1.2272  1.9927  1.1309
  375MOL0     H51706   7.974   7.818   1.028  0.0969 -1.4417 -0.8111
  375MOL0     H51707   8.066   7.861   1.174  1.4941 -0.9853 -0.2253
  375MOL0     H51708   8.225   8.157   0.914 -0.0734  1.6066  0.5384
  375MOL0     H51709   8.144   8.527   0.966  3.7899 -0.0482  2.3717
  375MOL0     H51710   8.180   8.429   0.821 -0.6088 -3.9537  0.6465
  375MOL0     H51711   8.282   8.422   0.962  0.6968  1.6542  0.4448
  375MOL0     H51712   7.552   8.375   1.117 -0.9373 -0.0900  3.5800
  375MOL0     H51713   7.340   8.504   1.125 -0.0933  0.4355 -0.4772
  375MOL0     H51714   7.174   8.638   1.149 -1.3377  1.6117 -2.4509
  375MOL0     H51715   7.248   8.691   1.295  2.8779  3.1914 -0.8021
  375MOL0     H51716   7.037   8.825   1.298  1.4255 -0.7934  0.0844
  375MOL0     H51717   7.186   8.915   1.254  1.5829 -1.3623  1.4308
  375MOL0     H51718   6.944   8.806   1.097 -0.9470  1.1506 -0.0297
  375MOL0     H51719   7.086   8.836   1.002 -2.1902  0.3809 -1.0624
  375MOL0     H51720   7.075   9.080   1.107 -0.4441  3.9375 -0.1640
  375MOL0     H51721   6.915   9.036   1.173 -0.1784 -2.5938  0.5548
  375MOL0     H51722   6.858   8.975   0.934  1.0330 -1.3742  1.3269
  375MOL0     H51723   6.865   9.149   0.981 -1.0581 -0.3808 -1.0555
  375MOL0     H51724   6.954   9.097   0.755  0.7709 -0.1145 -0.7828
  375MOL0     H51725   7.073   8.992   0.831 -2.6688 -1.3475 -0.7374
  375MOL0     H51726   7.161   9.197   0.954 -1.8910  0.9566  1.8671
  375MOL0     H51727   7.032   9.293   0.888  0.9628  0.6246 -0.3145
  375MOL0     H51728   7.246   9.148   0.732 -2.2979 -2.1327 -1.7181
  375MOL0     H51729   7.235   9.329   0.752  0.3964 -0.0825  0.0490
  375MOL0     H51730   7.570   8.865   1.119 -2.7381  0.4842 -0.4215
  375MOL0     H51731   7.780   8.736   1.112  0.3914 -1.7957  1.1609
  375MOL0     H51732   7.802   8.229   1.144  1.4291  2.3644  2.0837
  375MOL0     H51733   7.906   8.005   1.133  4.8959 -1.6545  1.6862
  375MOL0     H51734   8.432   6.617   0.384  0.6351  0.4094  0.0942
  375MOL0     H51735   8.615   6.609   0.224 -1.0066  2.0463 -2.1423
  375MOL0     H51736   8.667   6.573  -0.216 -0.9898 -0.5441  2.1964
  375MOL0     H51737   8.815   6.615  -0.411 -2.2722 -0.4707  1.2559
  375MOL0     H51738   8.946   6.619  -0.578  0.0805  0.8323  0.2246
  375MOL0     H51739   9.069   6.664  -0.466 -1.9182  0.5825  0.5799
  375MOL0     H51740   9.235   6.516  -0.614 -0.4226 -1.0834  1.8690
  375MOL0     H51741   9.171   6.669  -0.690 -2.9121 -0.8070 -0.9864
  375MOL0     H51742   9.043   6.394  -0.747  0.9050 -1.2592 -0.8533
  375MOL0     H51743   8.997   6.556  -0.792  0.5265  2.6716  1.8773
  375MOL0     H51744   9.135   6.389  -0.946  0.8109  1.3738 -1.1922
  375MOL0     H51745   9.269   6.430  -0.836 -1.5351 -2.7437  1.3166
  375MOL0     H51746   9.235   6.797  -1.052  2.4722 -1.1823 -1.0283
  375MOL0     H51747   9.084   6.304  -0.273  0.3546  0.8144  2.6215
  375MOL0     H51748   8.929   6.309   0.055 -1.5511 -1.1552 -0.3395
  375MOL0     H51749   8.894   6.162  -0.036  0.0327 -0.3506 -4.0840
  375MOL0     H51750   9.060   6.239  -0.042 -0.3082 -0.2266 -0.5718
  376MOL0     O51751  10.135  11.164  10.915 -0.1955  0.0808  0.2559
  376MOL0     C51752  10.007  11.173  10.902 -0.3925 -0.5832 -0.4157
  376MOL0     O51753   9.912  11.095  10.965 -0.0615  0.4433  0.8935
  376MOL0     C51754   9.955  10.986  11.038  0.2999  0.0649  0.2764
  376MOL0     C51755   9.916  10.860  10.999  0.2980 -0.6495  0.8577
  376MOL0     C51756   9.948  10.754  11.080 -0.1756 -1.2615  0.7388
  376MOL0     C51757  10.026  10.767  11.196 -0.5419 -0.4346 -0.4346
  376MOL0     O51758  10.076  10.673  11.283 -0.8671  0.1958  0.0256
  376MOL0     C51759  10.007  10.556  11.308  0.2728 -0.1754  0.1830
  376MOL0     C51760  10.120  10.456  11.326  0.6024  0.9776 -0.1553
  376MOL0     C51761  10.215  10.428  11.215 -0.4330  0.1760 -0.0092
  376MOL0     C51762  10.307  10.306  11.238 -0.1715  0.4206 -0.2409
  376MOL0     C51763  10.362  10.260  11.100  0.0184  0.3810  0.9164
  376MOL0     C51764  10.485  10.163  11.126 -0.2103 -0.5590 -0.4809
  376MOL0     C51765  10.538  10.107  11.002 -0.0119  0.6748  0.0699
  376MOL0     C51766  10.681  10.052  11.006 -0.4888  0.1197 -0.5719
  376MOL0     N51767  10.794  10.141  11.042 -1.0160 -0.7842 -0.2657
  376MOL0     C51768  10.879  10.195  10.941  0.1745 -0.9971  0.4913
  376MOL0     C51769  10.951  10.290  11.002 -0.3157  0.1437 -0.5866
  376MOL0     C51770  11.050  10.372  10.926  0.7637  0.1016  0.7417
  376MOL0     C51771  11.198  10.347  10.967 -0.1874  0.0270  0.0412
  376MOL0     C51772  11.279  10.357  10.837 -0.7018  0.7275 -0.3590
  376MOL0     C51773  11.439  10.345  10.842  0.0116  0.8706  0.4255
  376MOL0     O51774  11.488  10.233  10.921 -0.5603  0.0541  0.0533
  376MOL0     C51775  11.464  10.108  10.866  0.4326  1.0692  0.2060
  376MOL0     C51776  11.425  10.014  10.965 -0.2000 -0.8995 -0.9660
  376MOL0     C51777  11.392   9.889  10.923  0.0606 -0.1218  0.1062
  376MOL0     C51778  11.333   9.802  11.027 -0.3907  0.6613  0.7780
  376MOL0     C51779  11.399   9.853  10.787  0.0595  0.2291  0.3040
  376MOL0     C51780  11.350   9.726  10.731 -0.2139 -0.0108 -0.6055
  376MOL0     O51781  11.320   9.716  10.599  1.0832 -0.1568 -0.5664
  376MOL0     C51782  11.298   9.585  10.563  1.1263 -0.9784  0.1667
  376MOL0     C51783  11.409   9.521  10.518 -0.3900 -0.4368 -0.6822
  376MOL0     C51784  11.412   9.385  10.490  0.1204 -0.0372 -0.1931
  376MOL0     C51785  11.293   9.312  10.501  0.3993  0.4087 -0.1406
  376MOL0     O51786  11.298   9.178  10.480  0.0234 -0.1327  0.0840
  376MOL0     C51787  11.237   9.099  10.585 -0.5712  0.2108  0.0990
  376MOL0     C51788  11.319   8.976  10.614 -0.6244 -0.4750  0.5391
  376MOL0     C51789  11.350   8.888  10.495  0.6132 -0.8927  0.8833
  376MOL0     C51790  11.435   8.762  10.534 -0.3809  0.1388  0.1942
  376MOL0     C51791  11.524   8.709  10.433  0.0652  0.0920 -0.3854
  376MOL0     C51792  11.447   8.676  10.307  0.1722  0.4323 -0.1078
  376MOL0     C51793  11.511   8.588  10.207  0.1968  0.1446 -0.4049
  376MOL0     C51794  11.645   8.627  10.146 -0.7331  0.2343  0.7154
  376MOL0    Cl51795  11.716   8.510  10.033  0.1382 -0.3438  0.0585
  376MOL0     C51796  11.176   9.379  10.541  0.2709  0.0637 -0.4658
  376MOL0     C51797  11.180   9.518  10.571  0.0552  0.3103  0.1716
  376MOL0     O51798  11.380   9.628  10.804 -0.5692  0.4808 -0.6141
  376MOL0     C51799  11.439   9.949  10.692 -0.2659 -0.1581 -1.0638
  376MOL0     C51800  11.472  10.073  10.728 -0.2288  0.3675 -0.7862
  376MOL0     N51801  10.915  10.295  11.135 -0.4628 -0.0887 -0.0096
  376MOL0     N51802  10.821  10.207  11.157 -1.4044 -0.3611  0.2288
  376MOL0     C51803  10.067  10.897  11.224  0.4539 -0.9920 -0.4021
  376MOL0     C51804  10.031  11.009  11.155 -0.1543  0.3204  0.0527
  376MOL0     C51805   9.953  11.271  10.800  0.5320  0.0304 -0.6803
  376MOL0     C51806   9.831  11.238  10.736  0.5895 -0.3426 -0.4335
  376MOL0     C51807   9.773  11.325  10.639  0.6300  0.0292 -0.8012
  376MOL0     C51808   9.829  11.451  10.611  0.0065  0.7842  0.7389
  376MOL0     O51809   9.764  11.539  10.527  0.4493  0.0707  0.5375
  376MOL0     C51810   9.798  11.679  10.514 -0.5519  0.0878 -0.7618
  376MOL0     C51811   9.734  11.764  10.624  0.1106  0.2535 -0.3237
  376MOL0     C51812   9.756  11.907  10.602  0.2647  0.0628  0.1750
  376MOL0     C51813   9.691  11.963  10.474 -0.0437  1.0073  0.2068
  376MOL0     C51814   9.670  12.104  10.502  0.5575  0.3942 -0.5117
  376MOL0     C51815   9.656  12.221  10.527 -0.5760  0.2339 -0.3954
  376MOL0     C51816   9.948  11.482  10.676 -0.6527  0.9363 -0.5710
  376MOL0     C51817  10.004  11.397  10.779 -0.7104  0.4272  0.9148
  376MOL0     C51818  10.125  11.451  10.858 -0.3565  0.0754  0.2400
  376MOL0     H51819   9.861  10.849  10.906  1.5511  0.1606 -0.0020
  376MOL0     H51820   9.922  10.654  11.048 -0.9211 -1.5134  2.0589
  376MOL0     H51821   9.933  10.539  11.230  0.6863 -3.1740  0.3376
  376MOL0     H51822   9.950  10.548  11.401 -1.3077 -2.1727 -0.8633
  376MOL0     H51823  10.174  10.481  11.417 -1.1692 -0.6929  1.4701
  376MOL0     H51824  10.075  10.358  11.345  0.6309  0.8252 -0.8598
  376MOL0     H51825  10.155  10.413  11.125 -1.2819 -3.6538  1.0260
  376MOL0     H51826  10.285  10.512  11.204  3.3487 -1.7549  5.0682
  376MOL0     H51827  10.396  10.330  11.297 -0.4287  0.7812  0.0061
  376MOL0     H51828  10.257  10.229  11.297 -2.6842  3.1922  1.5322
  376MOL0     H51829  10.393  10.355  11.055 -1.0847  1.2053  1.8383
  376MOL0     H51830  10.280  10.207  11.051 -0.0024  0.2727  1.0703
  376MOL0     H51831  10.555  10.227  11.180 -0.6385 -0.8939  0.4928
  376MOL0     H51832  10.453  10.082  11.193  1.2656 -2.0400 -1.4964
  376MOL0     H51833  10.540  10.177  10.917 -0.9000 -0.0601 -0.5805
  376MOL0     H51834  10.466  10.027  10.984 -0.5484  1.3233 -0.7403
  376MOL0     H51835  10.681   9.967  11.075 -0.4550 -0.3820 -1.1750
  376MOL0     H51836  10.704  10.008  10.909 -2.5618  0.9144 -1.4811
  376MOL0     H51837  10.871  10.176  10.834 -0.3002  0.1632  0.3032
  376MOL0     H51838  11.026  10.478  10.925  2.4308  0.5177  1.1466
  376MOL0     H51839  11.033  10.341  10.822 -2.1449 -0.4322  1.2900
  376MOL0     H51840  11.234  10.425  11.034 -0.0559 -0.2686  0.3128
  376MOL0     H51841  11.210  10.253  11.021 -1.7906 -1.0540 -1.3860
  376MOL0     H51842  11.263  10.275  10.767  1.8585 -0.6367  0.5033
  376MOL0     H51843  11.251  10.448  10.783  0.1890  0.3608 -1.4826
  376MOL0     H51844  11.482  10.339  10.742 -0.4775 -0.7479  0.2831
  376MOL0     H51845  11.464  10.440  10.891 -0.5313  2.3382 -2.0001
  376MOL0     H51846  11.412  10.048  11.068 -1.5727 -1.7427 -0.8338
  376MOL0     H51847  11.403   9.719  11.041 -0.0499  0.4073 -1.8403
  376MOL0     H51848  11.232   9.765  11.008  0.3359 -2.3613  2.1801
  376MOL0     H51849  11.337   9.856  11.122 -1.1803 -0.7017  1.6061
  376MOL0     H51850  11.499   9.582  10.514 -0.6611 -0.0303 -0.6436
  376MOL0     H51851  11.504   9.328  10.478 -0.2257 -0.3213 -1.6403
  376MOL0     H51852  11.231   9.147  10.683  3.1003  1.6448 -0.2086
  376MOL0     H51853  11.135   9.074  10.555 -0.8124 -0.0948  1.1312
  376MOL0     H51854  11.416   9.005  10.657 -1.4888  0.2842  2.0761
  376MOL0     H51855  11.263   8.917  10.687 -3.0383  1.8283  0.7022
  376MOL0     H51856  11.408   8.946  10.423  1.5270 -2.7857  0.0427
  376MOL0     H51857  11.262   8.865  10.435  0.7453 -0.1965  0.4048
  376MOL0     H51858  11.365   8.682  10.561 -0.3929 -0.5354 -1.7080
  376MOL0     H51859  11.495   8.783  10.623 -1.9940 -2.4819  2.0345
  376MOL0     H51860  11.606   8.779  10.417 -0.5336  0.5333 -1.6170
  376MOL0     H51861  11.557   8.612  10.472 -0.2761  0.3564  0.6147
  376MOL0     H51862  11.433   8.776  10.266 -0.4936  1.0239  1.4775
  376MOL0     H51863  11.345   8.639  10.321  0.3646 -0.8870 -1.8438
  376MOL0     H51864  11.433   8.581  10.131  0.4497 -0.1979 -0.6341
  376MOL0     H51865  11.515   8.491  10.258 -1.3447  0.9525  1.3990
  376MOL0     H51866  11.725   8.627  10.221 -0.9856  0.9956  0.9900
  376MOL0     H51867  11.654   8.730  10.109 -1.2241 -0.7682 -2.5514
  376MOL0     H51868  11.085   9.320  10.548  1.5128 -1.9091 -0.3488
  376MOL0     H51869  11.086   9.560  10.605 -0.1836 -0.7486  0.8586
  376MOL0     H51870  11.454   9.927  10.587 -2.7635 -0.2109 -1.4576
  376MOL0     H51871  11.507  10.137  10.647 -2.7151  0.3717 -1.9409
  376MOL0     H51872  10.133  10.918  11.307  0.6198  1.1586 -1.0172
  376MOL0     H51873  10.068  11.108  11.179 -2.0044  0.7469  1.4199
  376MOL0     H51874   9.778  11.149  10.768 -0.9567  0.3271 -1.0670
  376MOL0     H51875   9.674  11.303  10.600 -0.8350  0.8117  2.1407
  376MOL0     H51876   9.906  11.693  10.514 -0.5193  0.0771  1.0637
  376MOL0     H51877   9.758  11.699  10.415 -3.6928  0.5413  0.4711
  376MOL0     H51878   9.775  11.734  10.720 -0.7650  1.0410  0.3268
  376MOL0     H51879   9.627  11.740  10.627  0.7877 -3.2092  0.5092
  376MOL0     H51880   9.718  11.967  10.685 -2.3226  0.1790 -0.9900
  376MOL0     H51881   9.865  11.910  10.595  0.3758 -3.2563 -2.4939
  376MOL0     H51882   9.603  11.899  10.458  1.4072 -1.6593  2.0439
  376MOL0     H51883   9.744  11.949  10.380  0.7496 -0.4358  0.8306
  376MOL0     H51884   9.658  12.327  10.545 -0.5229  0.7238 -2.8557
  376MOL0     H51885   9.998  11.576  10.654  0.6421  1.4051  3.5433
  376MOL0     H51886  10.201  11.372  10.866  1.4005  1.1218 -3.8006
  376MOL0     H51887  10.159  11.546  10.818 -2.4516  1.2010  0.9659
  376MOL0     H51888  10.100  11.482  10.960 -0.8783 -1.2440  0.5430
  377MOL0     O51889   6.538   5.539  11.290 -0.4277  0.2909  0.0059
  377MOL0     C51890   6.487   5.651  11.260 -0.8222  0.5458  0.0881
  377MOL0     O51891   6.567   5.773  11.267 -0.4875  1.1045  0.7006
  377MOL0     C51892   6.708   5.754  11.265  1.0134 -0.1862  0.1161
  377MOL0     C51893   6.777   5.745  11.143  0.8849 -1.0936  0.2697
  377MOL0     C51894   6.916   5.749  11.142 -0.3565 -0.2443  0.8567
  377MOL0     C51895   6.989   5.771  11.257  0.5702  0.1355  0.2798
  377MOL0     O51896   7.123   5.763  11.250  1.1267 -0.1737 -0.1106
  377MOL0     C51897   7.190   5.715  11.364  0.0008 -0.5327 -0.3211
  377MOL0     C51898   7.330   5.702  11.300 -0.0847 -0.5848 -0.0012
  377MOL0     C51899   7.413   5.609  11.388  0.1909  0.4539  0.5341
  377MOL0     C51900   7.560   5.614  11.345  0.0532  0.5728  0.5303
  377MOL0     C51901   7.652   5.540  11.455 -0.3106  0.8845  0.8399
  377MOL0     C51902   7.808   5.578  11.448  0.1480 -0.0443 -0.2386
  377MOL0     C51903   7.900   5.508  11.562  0.2081 -0.9869  0.8626
  377MOL0     C51904   7.864   5.540  11.708 -0.0646 -0.3422  0.3066
  377MOL0     N51905   7.875   5.685  11.736 -0.2045 -0.0721  0.1735
  377MOL0     C51906   7.990   5.757  11.757  0.7088 -0.5786 -0.5070
  377MOL0     C51907   7.961   5.894  11.760  0.3831  0.1192 -0.6647
  377MOL0     C51908   8.045   6.019  11.789  0.1417 -0.5470 -0.2738
  377MOL0     C51909   8.198   6.001  11.769  0.0428  0.0783  0.2157
  377MOL0     C51910   8.278   6.122  11.816  0.4219  0.7500  0.4697
  377MOL0     C51911   8.420   6.120  11.761 -0.1950 -0.4250 -0.3041
  377MOL0     O51912   8.491   6.005  11.819 -0.1224 -0.4006 -0.3044
  377MOL0     C51913   8.624   5.980  11.781 -0.3571  0.5451  0.2496
  377MOL0     C51914   8.673   5.867  11.838 -1.1703  0.8353  0.1284
  377MOL0     C51915   8.810   5.828  11.817 -0.3662  0.2042  0.1554
  377MOL0     C51916   8.850   5.702  11.884 -0.2473  0.5574 -0.4119
  377MOL0     C51917   8.897   5.910  11.739 -1.1760 -0.2469  0.1178
  377MOL0     C51918   9.040   5.884  11.714 -0.5549 -0.8426 -0.6409
  377MOL0     O51919   9.103   5.972  11.631 -0.8449 -0.0638  0.0913
  377MOL0     C51920   9.233   5.956  11.575 -0.1732  1.2284  0.9400
  377MOL0     C51921   9.329   6.062  11.565 -0.2476 -0.7619 -0.6349
  377MOL0     C51922   9.457   6.050  11.513  0.0208 -0.2888 -0.7005
  377MOL0     C51923   9.505   5.934  11.460  0.3932  0.3212  0.1816
  377MOL0     O51924   9.636   5.941  11.420 -0.4674  0.4525 -0.5395
  377MOL0     C51925   9.704   5.814  11.382 -0.2256  0.2101 -0.1800
  377MOL0     C51926   9.758   5.725  11.501  0.5284  0.5292 -1.0895
  377MOL0     C51927   9.893   5.771  11.545  0.5787  0.1279 -0.2490
  377MOL0     C51928   9.926   5.705  11.680  0.2206 -0.7846 -0.1058
  377MOL0     C51929  10.070   5.680  11.712  0.3711  1.2525  0.2524
  377MOL0     C51930  10.136   5.813  11.739  0.4226  0.3290  1.0288
  377MOL0     C51931  10.291   5.798  11.738  0.0062 -0.3617  0.3043
  377MOL0     C51932  10.352   5.937  11.734  0.4628  0.3388 -0.0704
  377MOL0    Cl51933  10.522   5.924  11.694 -0.3421  0.0849 -0.8220
  377MOL0     C51934   9.419   5.824  11.482  0.1930  0.8523 -0.2466
  377MOL0     C51935   9.287   5.834  11.530  0.1428 -0.2588  0.0830
  377MOL0     O51936   9.103   5.811  11.792 -0.7343 -0.1733  0.4278
  377MOL0     C51937   8.841   6.023  11.674 -0.1664  0.5628  0.9412
  377MOL0     C51938   8.704   6.048  11.694 -0.2593 -0.7039 -0.0657
  377MOL0     N51939   7.824   5.898  11.746  0.0817  0.4395  0.3559
  377MOL0     N51940   7.776   5.780  11.716 -0.8747 -0.8434  0.3134
  377MOL0     C51941   6.918   5.791  11.375 -0.0645 -0.6059 -0.1036
  377MOL0     C51942   6.778   5.784  11.382 -0.6357 -0.0328  0.5607
  377MOL0     C51943   6.351   5.658  11.222  0.3803  0.6535 -0.5388
  377MOL0     C51944   6.304   5.765  11.147 -0.6363  0.5445 -0.3144
  377MOL0     C51945   6.177   5.773  11.097  0.0084 -0.4237 -0.4500
  377MOL0     C51946   6.079   5.682  11.129  0.0281  0.7419 -0.0284
  377MOL0     O51947   5.956   5.673  11.070  0.5606  0.1284 -1.0078
  377MOL0     C51948   5.885   5.795  11.064  0.2437 -0.0948  0.2427
  377MOL0     C51949   5.736   5.767  11.077  0.7527 -0.4461 -0.0419
  377MOL0     C51950   5.697   5.670  11.185  0.8526  0.5287  0.4504
  377MOL0     C51951   5.549   5.640  11.178 -0.4924  0.0408 -0.3492
  377MOL0     C51952   5.462   5.757  11.205  0.0672 -0.9900 -0.4827
  377MOL0     C51953   5.407   5.861  11.243  0.9708 -0.4524  0.3477
  377MOL0     C51954   6.126   5.579  11.216  0.6129 -0.3611  0.3375
  377MOL0     C51955   6.252   5.573  11.276 -0.3963 -0.1853  1.1940
  377MOL0     C51956   6.282   5.468  11.381  0.5095 -0.5681  0.3423
  377MOL0     H51957   6.719   5.722  11.054 -1.1963 -3.5649  2.1073
  377MOL0     H51958   6.971   5.736  11.050  2.3627  3.2078  1.7298
  377MOL0     H51959   7.156   5.614  11.391 -2.4879 -0.3290 -2.2865
  377MOL0     H51960   7.186   5.784  11.449  1.8621 -1.4294  0.5514
  377MOL0     H51961   7.323   5.663  11.198 -2.2499  2.6279 -1.2123
  377MOL0     H51962   7.376   5.800  11.292  2.7973 -1.7937  0.4069
  377MOL0     H51963   7.402   5.648  11.489 -2.4714  0.3746  0.3464
  377MOL0     H51964   7.353   5.518  11.386 -1.4922  1.5155  1.0268
  377MOL0     H51965   7.569   5.572  11.244 -1.2320 -0.4499  0.8307
  377MOL0     H51966   7.591   5.719  11.339 -0.5321  0.6811 -1.2251
  377MOL0     H51967   7.630   5.433  11.440 -0.1724  1.0559 -0.7535
  377MOL0     H51968   7.617   5.558  11.557  0.6510 -1.6082  1.6872
  377MOL0     H51969   7.839   5.559  11.345  1.7106  1.9291 -0.1908
  377MOL0     H51970   7.814   5.687  11.453  0.8137 -0.0708 -0.3576
  377MOL0     H51971   8.001   5.542  11.541 -0.3293 -0.9066 -1.9987
  377MOL0     H51972   7.904   5.402  11.534 -1.2069 -0.3979 -2.0315
  377MOL0     H51973   7.763   5.504  11.731 -1.0269  2.0491  0.0942
  377MOL0     H51974   7.946   5.487  11.757  2.2668  1.5701 -1.2777
  377MOL0     H51975   8.091   5.726  11.783  0.3023 -2.7553 -1.3337
  377MOL0     H51976   8.025   6.051  11.892  1.0965 -4.3286  1.2746
  377MOL0     H51977   8.008   6.096  11.721  0.9308 -2.1492 -2.6557
  377MOL0     H51978   8.238   5.911  11.817 -0.7718 -0.6410 -0.4216
  377MOL0     H51979   8.216   5.986  11.662 -0.2444 -1.7152  0.3719
  377MOL0     H51980   8.229   6.209  11.773 -2.1205  0.0702  1.7869
  377MOL0     H51981   8.271   6.131  11.925  0.7381 -2.3721  0.8502
  377MOL0     H51982   8.417   6.122  11.652  4.6409 -2.7298 -0.7954
  377MOL0     H51983   8.467   6.213  11.793 -1.2064 -0.3321  1.0139
  377MOL0     H51984   8.619   5.810  11.912 -0.5230  0.1854  0.1184
  377MOL0     H51985   8.948   5.711  11.931 -0.2012  2.8073 -0.8477
  377MOL0     H51986   8.871   5.627  11.807  1.1965 -0.5783  1.0046
  377MOL0     H51987   8.781   5.671  11.963 -0.2761  0.8665 -0.3128
  377MOL0     H51988   9.302   6.166  11.581  0.0256 -0.6615 -0.8123
  377MOL0     H51989   9.512   6.143  11.504  0.9985 -0.0604  4.4487
  377MOL0     H51990   9.630   5.757  11.325  0.5035 -2.4992  1.3960
  377MOL0     H51991   9.785   5.823  11.310  2.5516 -0.1017  2.6990
  377MOL0     H51992   9.684   5.723  11.582  2.5862  2.3259  0.9722
  377MOL0     H51993   9.762   5.622  11.464 -0.1048  0.1763 -0.2079
  377MOL0     H51994   9.884   5.879  11.555  2.3009  0.2794 -0.0161
  377MOL0     H51995   9.975   5.745  11.478  1.6892  1.7528  0.4210
  377MOL0     H51996   9.873   5.609  11.682  2.4735 -2.1329 -1.2999
  377MOL0     H51997   9.891   5.775  11.756 -0.4173 -0.7245 -0.4453
  377MOL0     H51998  10.083   5.617  11.800  3.9064 -1.0076 -1.6264
  377MOL0     H51999  10.115   5.625  11.628 -1.2537  1.0108 -0.4891
  377MOL0     H52000  10.103   5.844  11.839 -2.8222 -0.9090  0.4663
  377MOL0     H52001  10.103   5.902  11.685  3.4253  0.2990 -1.1028
  377MOL0     H52002  10.306   5.731  11.653 -3.0757  1.1807 -1.6130
  377MOL0     H52003  10.318   5.741  11.828  1.1924  0.8790  0.7863
  377MOL0     H52004  10.343   5.975  11.836 -1.5275 -2.3799  0.8757
  377MOL0     H52005  10.296   5.989  11.655 -2.0527  0.5485  1.7392
  377MOL0     H52006   9.454   5.721  11.477  0.7942  1.0367  0.1690
  377MOL0     H52007   9.219   5.755  11.559  0.9156 -1.0730 -0.2571
  377MOL0     H52008   8.893   6.084  11.601 -2.4340  4.0008  2.0004
  377MOL0     H52009   8.660   6.131  11.639 -0.2632 -0.1280  0.7912
  377MOL0     H52010   6.965   5.817  11.470 -0.0626  1.3535 -0.6019
  377MOL0     H52011   6.726   5.803  11.475  0.1879  0.2142  0.9808
  377MOL0     H52012   6.378   5.836  11.112 -0.9453  1.2323  0.3994
  377MOL0     H52013   6.151   5.850  11.025 -2.9573  2.2704  3.0556
  377MOL0     H52014   5.912   5.857  11.149 -0.2548 -0.9348  1.0415
  377MOL0     H52015   5.910   5.836  10.966  0.1343 -1.2148 -0.2795
  377MOL0     H52016   5.712   5.728  10.978 -0.4105 -0.1002  0.0938
  377MOL0     H52017   5.690   5.866  11.078  3.1260  0.8193 -2.4672
  377MOL0     H52018   5.748   5.574  11.173  0.7372  0.5851 -0.5880
  377MOL0     H52019   5.726   5.702  11.285  1.8070  1.5848 -0.1339
  377MOL0     H52020   5.528   5.568  11.257  2.0436 -0.5559 -0.1414
  377MOL0     H52021   5.527   5.594  11.081  3.4456 -0.9383 -0.9392
  377MOL0     H52022   5.368   5.951  11.287 -0.7126 -1.3903  0.8482
  377MOL0     H52023   6.055   5.509  11.259  0.8719  0.7957  2.8157
  377MOL0     H52024   6.187   5.420  11.402  0.5632 -0.2271  1.3884
  377MOL0     H52025   6.350   5.386  11.355 -0.1286 -0.9006 -0.3218
  377MOL0     H52026   6.316   5.518  11.472 -0.7317  0.3932  0.2965
  378MOL0     O52027   5.744   7.296   3.293  0.1384  0.0111 -0.4281
  378MOL0     C52028   5.710   7.184   3.322  0.7851 -0.0946  0.1880
  378MOL0     O52029   5.788   7.078   3.363 -0.5856  0.2531  0.7586
  378MOL0     C52030   5.916   7.092   3.408 -0.8178 -0.3219  0.5127
  378MOL0     C52031   5.960   7.193   3.491  1.0568 -0.1103  0.3805
  378MOL0     C52032   6.096   7.202   3.529  0.2159  0.0724 -0.9558
  378MOL0     C52033   6.192   7.108   3.488 -0.9079  0.4626  0.3681
  378MOL0     O52034   6.328   7.104   3.527 -1.0072 -0.1657 -0.2677
  378MOL0     C52035   6.364   7.167   3.648  0.4765 -0.7992  0.3764
  378MOL0     C52036   6.509   7.159   3.684  0.4867  0.2739 -0.7749
  378MOL0     C52037   6.599   7.186   3.559  0.4037  0.0254 -0.9377
  378MOL0     C52038   6.751   7.171   3.590  0.0666  0.8761  0.1058
  378MOL0     C52039   6.842   7.243   3.488 -0.0496 -0.2914  0.4145
  378MOL0     C52040   6.821   7.185   3.346 -0.2908  0.2604  0.6285
  378MOL0     C52041   6.883   7.292   3.247 -0.0161 -0.3167 -0.5966
  378MOL0     C52042   6.862   7.261   3.093  0.4994  0.4172  0.5328
  378MOL0     N52043   6.953   7.336   3.008  0.3470 -0.0674 -0.3140
  378MOL0     C52044   6.976   7.321   2.876  0.0062 -0.2866 -0.1431
  378MOL0     C52045   7.092   7.390   2.853 -0.8379  0.0449  0.0415
  378MOL0     C52046   7.167   7.407   2.722 -1.1680 -0.0770  0.0180
  378MOL0     C52047   7.312   7.388   2.758 -0.5613 -1.0695  0.0095
  378MOL0     C52048   7.398   7.406   2.636 -0.2932 -0.1331  0.7178
  378MOL0     C52049   7.541   7.358   2.658  1.0086 -0.9010 -0.1095
  378MOL0     O52050   7.634   7.383   2.553 -0.8883  0.3747  0.5888
  378MOL0     C52051   7.740   7.470   2.582 -0.0401  1.0887 -0.3821
  378MOL0     C52052   7.871   7.431   2.547 -0.0079 -0.3629  0.0490
  378MOL0     C52053   7.974   7.523   2.573  0.3644  0.6761  0.0128
  378MOL0     C52054   8.114   7.486   2.524 -0.3016 -0.3857  0.8707
  378MOL0     C52055   7.953   7.651   2.636 -0.2756  0.4868 -0.2513
  378MOL0     C52056   8.059   7.744   2.678 -0.1024 -0.4080  0.4088
  378MOL0     O52057   8.009   7.876   2.702 -0.0441 -0.7494  0.0493
  378MOL0     C52058   8.084   7.986   2.722 -0.2176  0.4350  0.3813
  378MOL0     C52059   8.018   8.109   2.714 -0.0955  0.3330  0.4274
  378MOL0     C52060   8.078   8.232   2.739 -0.1908  0.1746  0.2655
  378MOL0     C52061   8.209   8.241   2.774 -0.5131  0.7784  0.1854
  378MOL0     O52062   8.271   8.358   2.812  0.3665  0.7161  0.1258
  378MOL0     C52063   8.245   8.464   2.724 -0.4825 -0.4787  0.0049
  378MOL0     C52064   8.328   8.590   2.771  0.1813  0.3079 -0.8666
  378MOL0     C52065   8.303   8.709   2.683  0.5545  0.3605  0.2680
  378MOL0     C52066   8.408   8.815   2.732 -0.3548  0.3550  0.5151
  378MOL0     C52067   8.374   8.944   2.665 -0.4359  0.7688 -0.1872
  378MOL0     C52068   8.477   9.047   2.700 -0.0652  1.0386  1.4856
  378MOL0     C52069   8.613   9.030   2.626  0.6800  0.4663  0.3127
  378MOL0     C52070   8.599   9.077   2.480 -0.6002 -0.1759  0.0941
  378MOL0    Cl52071   8.588   9.256   2.453  0.0416 -0.0026  0.2537
  378MOL0     C52072   8.280   8.120   2.782 -0.0857 -1.8127  0.6808
  378MOL0     C52073   8.219   7.990   2.760 -1.2037 -0.5466 -0.3054
  378MOL0     O52074   8.174   7.704   2.685 -0.2932 -0.2289 -0.3442
  378MOL0     C52075   7.824   7.682   2.673  0.2893 -0.3944 -0.0234
  378MOL0     C52076   7.718   7.594   2.643  0.2863  1.1216 -0.4014
  378MOL0     N52077   7.122   7.465   2.968 -0.0238  0.2603 -0.2903
  378MOL0     N52078   7.030   7.439   3.052  0.5756 -0.6429  0.1830
  378MOL0     C52079   6.150   7.004   3.403 -0.4969 -0.0051  0.2058
  378MOL0     C52080   6.011   7.001   3.372  0.0798 -0.1144  0.3241
  378MOL0     C52081   5.564   7.150   3.295 -0.3928 -0.7771  0.1359
  378MOL0     C52082   5.473   7.252   3.264 -0.5024  0.1911 -0.6172
  378MOL0     C52083   5.341   7.231   3.232 -0.2008 -0.9759  0.5612
  378MOL0     C52084   5.296   7.102   3.216  0.1956 -0.2810 -0.0572
  378MOL0     O52085   5.161   7.085   3.195 -1.1656 -0.1058  0.3321
  378MOL0     C52086   5.114   6.977   3.115 -0.8305 -0.0761 -0.9461
  378MOL0     C52087   5.004   7.022   3.017  0.2964 -0.0412  0.3951
  378MOL0     C52088   4.854   7.014   3.060  0.2560 -0.5041 -0.3315
  378MOL0     C52089   4.832   7.089   3.191 -0.5182 -0.8809  0.7652
  378MOL0     C52090   4.702   7.053   3.250  0.1351  0.0063  0.8053
  378MOL0     C52091   4.593   7.021   3.296 -0.1090  0.2232 -0.3802
  378MOL0     C52092   5.373   6.992   3.256 -0.5625 -0.1985  0.8653
  378MOL0     C52093   5.514   7.020   3.302 -0.0099 -0.4573  0.1684
  378MOL0     C52094   5.592   6.899   3.357 -0.7725 -0.2342 -0.0590
  378MOL0     H52095   5.900   7.277   3.525  3.1757  1.4725  0.4340
  378MOL0     H52096   6.138   7.278   3.595 -3.4273  3.1556 -1.8333
  378MOL0     H52097   6.302   7.130   3.730  0.6740  1.4756  1.6220
  378MOL0     H52098   6.344   7.272   3.627  1.3421 -0.4220  1.3221
  378MOL0     H52099   6.529   7.235   3.760 -0.1855 -0.7458  0.4569
  378MOL0     H52100   6.530   7.055   3.711  0.4695 -0.0187 -1.8367
  378MOL0     H52101   6.570   7.111   3.485  0.3651 -1.3165  0.4078
  378MOL0     H52102   6.585   7.286   3.515  2.1518  1.2159  1.0209
  378MOL0     H52103   6.765   7.208   3.692 -2.8742 -1.7359  1.6366
  378MOL0     H52104   6.764   7.063   3.593  3.7746  1.1949 -0.1907
  378MOL0     H52105   6.948   7.244   3.512  1.4887 -0.0714 -5.0174
  378MOL0     H52106   6.818   7.350   3.491  1.0686 -0.0498  1.1839
  378MOL0     H52107   6.868   7.087   3.333 -3.2226 -1.1321 -0.3481
  378MOL0     H52108   6.717   7.156   3.329 -1.2219  1.0919  4.0529
  378MOL0     H52109   6.989   7.301   3.273 -0.3402  0.7303  0.4706
  378MOL0     H52110   6.843   7.393   3.261 -0.1759 -0.1769 -1.8908
  378MOL0     H52111   6.878   7.153   3.085 -3.5885 -0.2778 -1.0949
  378MOL0     H52112   6.761   7.275   3.051  0.9836  0.1037 -0.7614
  378MOL0     H52113   6.920   7.255   2.810 -1.4701 -0.2881  1.0661
  378MOL0     H52114   7.153   7.507   2.679 -1.2149 -0.1885 -0.2323
  378MOL0     H52115   7.156   7.331   2.643 -1.1009  0.1594 -0.2190
  378MOL0     H52116   7.340   7.448   2.845 -0.5004  0.5619 -1.1003
  378MOL0     H52117   7.336   7.283   2.777  1.5076 -0.7066 -0.3310
  378MOL0     H52118   7.352   7.354   2.552  1.0912 -4.2711  2.2790
  378MOL0     H52119   7.412   7.513   2.618  4.2375 -0.4525  1.0884
  378MOL0     H52120   7.581   7.403   2.750  2.3056 -1.5080 -0.3457
  378MOL0     H52121   7.523   7.251   2.674 -2.3917 -0.4319 -0.2080
  378MOL0     H52122   7.895   7.342   2.490  0.3344 -0.9091  1.0089
  378MOL0     H52123   8.117   7.387   2.477 -0.6894 -0.3936  0.8629
  378MOL0     H52124   8.192   7.487   2.601 -0.1653  1.3736  0.7422
  378MOL0     H52125   8.147   7.555   2.446  2.0824 -2.7367 -0.3740
  378MOL0     H52126   7.913   8.117   2.687  0.1522  2.6063 -0.0013
  378MOL0     H52127   8.024   8.326   2.732  0.9644  0.8699  0.5483
  378MOL0     H52128   8.286   8.447   2.624 -2.3964  1.2268 -1.1330
  378MOL0     H52129   8.141   8.497   2.717 -0.0171  1.5790  1.6539
  378MOL0     H52130   8.294   8.619   2.870  2.3829  0.8858 -0.2094
  378MOL0     H52131   8.434   8.561   2.778  0.1080 -0.2036 -1.6918
  378MOL0     H52132   8.199   8.741   2.691 -0.7316 -3.4875  1.1609
  378MOL0     H52133   8.318   8.677   2.579  0.2836 -1.2920  0.7123
  378MOL0     H52134   8.512   8.788   2.713 -0.8690 -1.8480  0.4875
  378MOL0     H52135   8.396   8.837   2.839 -0.6527 -0.2544  0.6165
  378MOL0     H52136   8.373   8.943   2.555 -0.4305  1.6436 -0.1995
  378MOL0     H52137   8.271   8.967   2.694 -1.4331 -2.9997 -0.1651
  378MOL0     H52138   8.485   9.053   2.809  0.9309  1.3921  1.4066
  378MOL0     H52139   8.433   9.144   2.676  0.5959  0.4117 -3.0427
  378MOL0     H52140   8.648   8.927   2.628 -2.8858 -0.8769  1.2529
  378MOL0     H52141   8.689   9.095   2.669  1.8333 -0.2841 -0.5402
  378MOL0     H52142   8.524   9.015   2.430  1.2532 -2.9990  0.5881
  378MOL0     H52143   8.686   9.048   2.420 -0.8071 -0.0030 -0.2925
  378MOL0     H52144   8.383   8.144   2.803 -0.1294 -1.1782  0.1892
  378MOL0     H52145   8.277   7.898   2.763 -0.7930 -0.3809 -1.9597
  378MOL0     H52146   7.806   7.767   2.738  2.2099  1.1681 -1.4318
  378MOL0     H52147   7.619   7.628   2.672  0.1199 -0.3113  0.8314
  378MOL0     H52148   6.221   6.928   3.372  0.5354  2.0956 -3.1750
  378MOL0     H52149   5.972   6.925   3.304  0.0925  1.0670 -1.0476
  378MOL0     H52150   5.505   7.356   3.267  3.1018 -0.7947  0.2565
  378MOL0     H52151   5.279   7.313   3.197 -1.4280 -2.0609  0.0948
  378MOL0     H52152   5.196   6.928   3.062 -0.3713  0.1201 -0.4291
  378MOL0     H52153   5.079   6.899   3.184  4.1420 -1.1961  0.7406
  378MOL0     H52154   5.003   6.953   2.932  1.8519  0.9253 -0.4568
  378MOL0     H52155   5.040   7.117   2.978  0.8259 -0.6718 -0.7133
  378MOL0     H52156   4.789   7.056   2.983  0.0181 -3.0148 -1.6039
  378MOL0     H52157   4.829   6.908   3.071 -1.9077 -0.0450 -0.4109
  378MOL0     H52158   4.827   7.197   3.177  1.7539 -0.5515  2.0372
  378MOL0     H52159   4.911   7.069   3.264 -0.3189  4.8366  2.6441
  378MOL0     H52160   4.497   6.990   3.332 -0.8235  1.9791 -0.7044
  378MOL0     H52161   5.331   6.893   3.267  1.6665 -1.1719  1.1938
  378MOL0     H52162   5.684   6.872   3.305 -1.6612  0.5638 -2.1293
  378MOL0     H52163   5.616   6.925   3.461  2.5307  0.3558 -0.8686
  378MOL0     H52164   5.535   6.807   3.342  0.4663 -1.0231 -0.0813
  379MOL0     O52165   9.156   9.583   1.423  0.5629 -0.9487  0.1527
  379MOL0     C52166   9.195   9.697   1.438 -0.0632 -0.0506 -0.1388
  379MOL0     O52167   9.310   9.753   1.377  0.3647 -0.0855 -0.1255
  379MOL0     C52168   9.384   9.686   1.283 -0.5959 -0.1847 -0.9049
  379MOL0     C52169   9.495   9.755   1.235 -0.8335  0.3572 -1.0237
  379MOL0     C52170   9.583   9.693   1.136  0.7655 -0.2756 -0.1784
  379MOL0     C52171   9.566   9.558   1.088  0.1565 -1.3713  0.4606
  379MOL0     O52172   9.647   9.496   1.000 -0.5864  0.2819 -0.1353
  379MOL0     C52173   9.782   9.533   0.995 -0.5955  0.1241  0.7096
  379MOL0     C52174   9.868   9.439   0.908  0.1476  1.1795 -0.3515
  379MOL0     C52175  10.013   9.487   0.885 -1.3204 -0.3844  0.4600
  379MOL0     C52176  10.120   9.392   0.829  0.4673  0.3176 -0.5742
  379MOL0     C52177  10.152   9.410   0.684  1.0414  0.7944  0.4179
  379MOL0     C52178  10.028   9.356   0.597  0.1245  0.0652  0.2547
  379MOL0     C52179  10.047   9.380   0.446 -0.4946 -0.5369  1.0020
  379MOL0     C52180  10.151   9.300   0.368 -0.6018  0.9947 -0.6970
  379MOL0     N52181  10.150   9.154   0.384  0.5313 -0.4836 -0.4376
  379MOL0     C52182  10.037   9.077   0.383 -0.2212  0.5817 -0.7607
  379MOL0     C52183  10.083   8.957   0.424 -0.7549  1.1129 -0.4174
  379MOL0     C52184  10.005   8.831   0.459 -0.2647 -0.0296  0.2706
  379MOL0     C52185   9.869   8.865   0.501  1.1303  0.5332 -0.3343
  379MOL0     C52186   9.821   8.765   0.610  0.4163  0.3075  0.0542
  379MOL0     C52187   9.667   8.785   0.622  0.4024 -0.1866 -0.0040
  379MOL0     O52188   9.615   8.712   0.733 -0.4430 -1.1158  0.2448
  379MOL0     C52189   9.571   8.778   0.848 -0.4929  0.5019  0.4517
  379MOL0     C52190   9.648   8.862   0.919  0.0492  0.3108 -0.0026
  379MOL0     C52191   9.589   8.941   1.025 -0.0648  0.2934  1.4297
  379MOL0     C52192   9.690   9.032   1.099 -0.6002  0.0088 -1.2435
  379MOL0     C52193   9.454   8.927   1.051  0.5697 -0.1733  0.5137
  379MOL0     C52194   9.385   9.003   1.157  0.6056  0.3865 -0.0666
  379MOL0     O52195   9.245   8.990   1.160  0.5230  0.3956  0.3336
  379MOL0     C52196   9.187   9.067   1.255  0.3028  0.0911  0.0287
  379MOL0     C52197   9.159   9.206   1.236 -0.1492 -0.1798  0.7489
  379MOL0     C52198   9.107   9.280   1.341 -0.6814  0.2433  0.2457
  379MOL0     C52199   9.065   9.209   1.455  0.0004  0.0190  0.6308
  379MOL0     O52200   8.994   9.278   1.553  0.0653 -0.0103  0.8098
  379MOL0     C52201   9.022   9.263   1.691 -0.0265 -0.5190 -0.2478
  379MOL0     C52202   8.984   9.394   1.764 -0.3329  0.1325 -0.3398
  379MOL0     C52203   8.838   9.386   1.801 -0.3646  0.3014 -0.2951
  379MOL0     C52204   8.795   9.508   1.878 -0.3004 -0.5862  0.5267
  379MOL0     C52205   8.650   9.491   1.925 -0.2142 -0.0824  0.0667
  379MOL0     C52206   8.550   9.508   1.811  0.2930  0.1633  0.7626
  379MOL0     C52207   8.410   9.475   1.863  0.1830 -0.3116  1.3006
  379MOL0     C52208   8.309   9.456   1.752 -0.7368 -0.5464  0.2409
  379MOL0    Cl52209   8.305   9.599   1.646 -0.1251  0.1946  0.1334
  379MOL0     C52210   9.081   9.071   1.472  0.3087 -0.4447  0.9502
  379MOL0     C52211   9.143   9.001   1.372  0.0989  0.0364 -1.0029
  379MOL0     O52212   9.455   9.063   1.240 -0.0444  0.3161 -0.3218
  379MOL0     C52213   9.380   8.831   0.971 -0.0563  0.5680  0.1802
  379MOL0     C52214   9.441   8.763   0.871  0.2344 -0.1281  0.5116
  379MOL0     N52215  10.215   8.964   0.456 -0.2107  0.1952  0.5195
  379MOL0     N52216  10.257   9.083   0.429  0.0121  0.5556 -0.1741
  379MOL0     C52217   9.460   9.491   1.142 -0.5659 -0.0820  0.0514
  379MOL0     C52218   9.365   9.562   1.220  0.6900 -0.8065 -0.1601
  379MOL0     C52219   9.116   9.785   1.524  0.3781  0.0767  0.0386
  379MOL0     C52220   8.977   9.754   1.540 -0.1885 -1.1565  0.6201
  379MOL0     C52221   8.902   9.846   1.619  0.9485 -0.0940  1.6461
  379MOL0     C52222   8.955   9.942   1.699 -0.5922 -0.1575 -0.1900
  379MOL0     O52223   8.866  10.020   1.768 -0.4706  0.0286  0.5738
  379MOL0     C52224   8.895  10.157   1.803 -0.4739 -0.6403  0.3956
  379MOL0     C52225   8.766  10.252   1.833  0.5678 -0.7868  0.1928
  379MOL0     C52226   8.668  10.256   1.722 -0.8399 -0.1473  0.3143
  379MOL0     C52227   8.573  10.139   1.722  0.1993  0.3830  0.1716
  379MOL0     C52228   8.439  10.183   1.782  0.1346 -0.4373 -0.8280
  379MOL0     C52229   8.334  10.214   1.832 -0.0997  0.5848  0.3161
  379MOL0     C52230   9.092   9.955   1.688  0.3028  0.3019 -1.0807
  379MOL0     C52231   9.176   9.882   1.603  0.2993 -0.1136  0.3845
  379MOL0     C52232   9.323   9.910   1.609 -0.0624 -0.2230 -0.1223
  379MOL0     H52233   9.522   9.855   1.267  1.5045 -0.2614 -0.8798
  379MOL0     H52234   9.657   9.765   1.099  0.7701 -0.2805 -0.1787
  379MOL0     H52235   9.837   9.534   1.089  0.1554 -1.2773  0.3173
  379MOL0     H52236   9.790   9.631   0.946 -4.9895  0.9957  1.3294
  379MOL0     H52237   9.882   9.343   0.959  0.4904  0.7959 -1.1505
  379MOL0     H52238   9.829   9.410   0.810  2.1812  0.8296 -1.1026
  379MOL0     H52239  10.008   9.578   0.824 -0.4092 -0.3894  0.3588
  379MOL0     H52240  10.057   9.519   0.981 -0.2594 -2.6459  0.7851
  379MOL0     H52241  10.215   9.408   0.881  0.0755  0.0671  0.2371
  379MOL0     H52242  10.094   9.288   0.851  1.3024  0.6246  2.1546
  379MOL0     H52243  10.240   9.352   0.655 -0.8750 -1.2553 -1.8236
  379MOL0     H52244  10.162   9.517   0.665  0.7754  0.8165  0.3972
  379MOL0     H52245  10.009   9.250   0.615 -2.0167  0.7273  2.4236
  379MOL0     H52246   9.938   9.414   0.620 -0.7344 -0.2891 -1.9930
  379MOL0     H52247  10.067   9.485   0.423 -1.2419 -0.4908  0.5466
  379MOL0     H52248   9.950   9.365   0.398  0.4059  1.6901 -1.8237
  379MOL0     H52249  10.151   9.334   0.264  0.0576  1.0944 -0.6674
  379MOL0     H52250  10.249   9.331   0.405  1.2814  0.1412 -4.4505
  379MOL0     H52251   9.933   9.091   0.356 -0.4153  2.5450  0.8043
  379MOL0     H52252  10.062   8.779   0.537 -0.3150  0.4083  0.6072
  379MOL0     H52253  10.012   8.761   0.376 -1.3206  1.4025 -1.0930
  379MOL0     H52254   9.864   8.961   0.552  1.2888 -1.2258  3.3455
  379MOL0     H52255   9.802   8.866   0.414  2.3627  0.9898 -1.3108
  379MOL0     H52256   9.856   8.668   0.573 -1.0999 -0.4904  0.6213
  379MOL0     H52257   9.876   8.793   0.700  0.1727  1.6870 -0.2159
  379MOL0     H52258   9.649   8.891   0.639 -2.3094 -0.6130  0.1429
  379MOL0     H52259   9.612   8.753   0.533 -1.2125  0.6335  0.6761
  379MOL0     H52260   9.754   8.871   0.898 -0.1840 -0.5841 -1.7382
  379MOL0     H52261   9.672   9.140   1.102 -0.0382  0.1048 -1.2245
  379MOL0     H52262   9.787   9.016   1.051 -0.9322 -2.2172 -1.3007
  379MOL0     H52263   9.705   8.989   1.198  1.7114  1.3542 -0.9282
  379MOL0     H52264   9.196   9.249   1.143 -1.3079  0.0237  0.3654
  379MOL0     H52265   9.078   9.384   1.332 -0.5166  0.2625 -0.0588
  379MOL0     H52266   8.962   9.179   1.727 -0.7219 -0.5810 -1.4867
  379MOL0     H52267   9.127   9.247   1.717 -0.6422 -0.7231  2.4097
  379MOL0     H52268   9.041   9.407   1.857 -2.1557 -2.0305  1.1754
  379MOL0     H52269   9.004   9.484   1.705  0.4210  2.2767  2.8879
  379MOL0     H52270   8.817   9.299   1.864 -0.0223  0.8595  0.6129
  379MOL0     H52271   8.780   9.387   1.708  0.8750  0.2401 -1.0962
  379MOL0     H52272   8.800   9.604   1.825  2.3222  0.8130  3.0022
  379MOL0     H52273   8.855   9.522   1.969 -0.9285  2.9202  0.5595
  379MOL0     H52274   8.640   9.392   1.971 -0.1896  0.6495  1.7168
  379MOL0     H52275   8.631   9.568   2.000  2.9985 -0.4256  1.3834
  379MOL0     H52276   8.572   9.432   1.735 -0.6844  0.2762  0.3599
  379MOL0     H52277   8.559   9.605   1.762  2.3963 -0.6261 -0.5814
  379MOL0     H52278   8.385   9.560   1.928  4.5399  0.2250  2.5933
  379MOL0     H52279   8.404   9.381   1.918  1.7147 -1.6220 -0.6564
  379MOL0     H52280   8.211   9.436   1.798 -1.0411  1.2804  0.4660
  379MOL0     H52281   8.326   9.363   1.697 -1.5656 -0.3302 -0.4056
  379MOL0     H52282   9.049   9.015   1.559 -0.5920 -1.9677 -0.3011
  379MOL0     H52283   9.152   8.893   1.379 -4.8725 -0.5219  2.6782
  379MOL0     H52284   9.273   8.825   0.991 -0.1721  0.1910 -0.5208
  379MOL0     H52285   9.383   8.692   0.813 -0.0629  0.3497  0.2176
  379MOL0     H52286   9.445   9.389   1.107  0.7607 -0.0301 -0.7342
  379MOL0     H52287   9.277   9.502   1.240 -1.7867  2.0975 -1.6465
  379MOL0     H52288   8.929   9.685   1.471 -0.3909  0.4868 -0.9668
  379MOL0     H52289   8.794   9.849   1.607  1.1243  3.1336 -0.0438
  379MOL0     H52290   8.962  10.160   1.890  0.5311  1.6047 -0.3912
  379MOL0     H52291   8.947  10.204   1.719  0.5595 -1.5388  0.5178
  379MOL0     H52292   8.792  10.355   1.859 -0.0511 -0.6458  0.2523
  379MOL0     H52293   8.706  10.209   1.914  0.4082 -0.7581  0.0897
  379MOL0     H52294   8.615  10.352   1.724  1.1929  1.0515  0.0280
  379MOL0     H52295   8.727  10.259   1.630  1.1811 -0.2105  1.5207
  379MOL0     H52296   8.614  10.054   1.777  0.9485  1.7796  1.8676
  379MOL0     H52297   8.566  10.104   1.619  1.0706  0.6460  0.0170
  379MOL0     H52298   8.244  10.248   1.879  1.9262  0.7240  4.5562
  379MOL0     H52299   9.130  10.028   1.758  0.9999  0.5350 -1.7027
  379MOL0     H52300   9.357   9.972   1.526 -0.3709  1.3234  0.8686
  379MOL0     H52301   9.343   9.967   1.700 -0.6009  1.7265 -1.1576
  379MOL0     H52302   9.388   9.822   1.612 -2.4163 -2.0633  0.4127
  380MOL0     O52303   5.836   6.571   4.803 -0.1070 -0.8168 -0.2831
  380MOL0     C52304   5.789   6.465   4.829 -0.2928 -0.2380 -0.1707
  380MOL0     O52305   5.861   6.349   4.826  0.1580  0.3503 -0.3010
  380MOL0     C52306   5.993   6.336   4.845 -0.4003  0.0905  0.4058
  380MOL0     C52307   6.068   6.425   4.917 -0.0018 -0.1006 -0.3354
  380MOL0     C52308   6.204   6.417   4.911  0.2903 -0.2055 -0.4143
  380MOL0     C52309   6.265   6.316   4.858 -0.8614  0.0295 -0.1419
  380MOL0     O52310   6.402   6.327   4.872  0.1683 -0.4417 -0.6063
  380MOL0     C52311   6.491   6.219   4.820 -0.0954  0.0630 -0.5918
  380MOL0     C52312   6.622   6.215   4.901  0.4947  0.1505 -0.0682
  380MOL0     C52313   6.601   6.219   5.049 -0.6902 -0.1033  0.8727
  380MOL0     C52314   6.734   6.244   5.119 -0.4161 -0.5099  1.1633
  380MOL0     C52315   6.717   6.231   5.265 -0.4417 -0.0751 -0.6639
  380MOL0     C52316   6.853   6.247   5.342 -0.3972  0.6649 -0.5592
  380MOL0     C52317   6.840   6.217   5.489  0.1480  0.2774 -0.8855
  380MOL0     C52318   6.972   6.197   5.567 -0.3570 -0.0239 -1.0011
  380MOL0     N52319   7.078   6.114   5.492  1.0158 -0.1967  0.2361
  380MOL0     C52320   7.084   5.979   5.503 -0.3253  0.0496  0.4332
  380MOL0     C52321   7.178   5.950   5.413 -0.0407 -0.5331  0.0913
  380MOL0     C52322   7.232   5.811   5.381  0.7730  0.5896 -0.2361
  380MOL0     C52323   7.381   5.789   5.418 -0.1647 -0.0080 -0.5849
  380MOL0     C52324   7.434   5.666   5.345 -0.3829 -0.6340  0.7022
  380MOL0     C52325   7.579   5.644   5.377  0.5840  1.2789 -0.0863
  380MOL0     O52326   7.648   5.585   5.260 -0.6554 -0.0030 -0.1185
  380MOL0     C52327   7.782   5.558   5.279  0.8538  0.6728 -0.7461
  380MOL0     C52328   7.856   5.484   5.186  0.5260 -0.4672 -0.2384
  380MOL0     C52329   7.985   5.462   5.199 -0.3270 -0.2702  1.0272
  380MOL0     C52330   8.041   5.385   5.082  1.2423  0.9559 -0.3432
  380MOL0     C52331   8.061   5.510   5.305 -0.6290  0.0226  0.3461
  380MOL0     C52332   8.204   5.475   5.322  0.0718 -0.2622  1.0524
  380MOL0     O52333   8.256   5.517   5.438 -0.8492 -0.3204  0.5279
  380MOL0     C52334   8.391   5.513   5.455 -0.1447  0.2571 -0.2072
  380MOL0     C52335   8.472   5.553   5.353 -0.2693 -0.1247 -1.1875
  380MOL0     C52336   8.608   5.530   5.368 -0.2862 -0.8096  0.2736
  380MOL0     C52337   8.674   5.477   5.481  0.9569 -1.4124 -0.1014
  380MOL0     O52338   8.807   5.476   5.500  0.0155  0.3960  0.0705
  380MOL0     C52339   8.889   5.579   5.434  1.1302  0.2397 -0.3910
  380MOL0     C52340   9.035   5.556   5.471  0.7580  0.0192 -0.9424
  380MOL0     C52341   9.123   5.624   5.366 -0.3858 -0.2842 -0.2421
  380MOL0     C52342   9.270   5.607   5.404  0.3163 -0.3794 -0.2361
  380MOL0     C52343   9.365   5.698   5.321  1.2020 -0.6522  0.2464
  380MOL0     C52344   9.512   5.684   5.371 -0.3781 -0.5838 -0.7170
  380MOL0     C52345   9.606   5.765   5.289 -1.0597  0.0895 -0.0237
  380MOL0     C52346   9.760   5.744   5.330  0.5395  0.2620  0.8477
  380MOL0    Cl52347   9.780   5.752   5.508  0.3527  0.2751 -0.5638
  380MOL0     C52348   8.590   5.445   5.593  0.4280 -0.6316  1.1978
  380MOL0     C52349   8.444   5.467   5.578 -0.5266  0.4554  1.0324
  380MOL0     O52350   8.267   5.410   5.239  0.2979  0.3284  0.7668
  380MOL0     C52351   7.995   5.590   5.406  0.0447 -0.4353  0.9107
  380MOL0     C52352   7.859   5.598   5.401  0.0678 -0.5129  0.4666
  380MOL0     N52353   7.223   6.062   5.357  0.3300 -0.2272 -0.4963
  380MOL0     N52354   7.170   6.168   5.408 -0.0650  0.4515  0.3042
  380MOL0     C52355   6.200   6.223   4.786 -0.2931  0.7407 -0.3702
  380MOL0     C52356   6.060   6.232   4.773 -0.5253  0.2888 -0.2454
  380MOL0     C52357   5.648   6.453   4.874  0.1722  0.5003 -0.2196
  380MOL0     C52358   5.617   6.338   4.950  0.8096 -0.2781  0.4364
  380MOL0     C52359   5.491   6.322   4.998  0.4922  0.9152 -0.0415
  380MOL0     C52360   5.381   6.409   4.970 -0.5668  0.3734  0.4342
  380MOL0     O52361   5.257   6.408   5.025 -0.3315  0.0230 -0.3614
  380MOL0     C52362   5.229   6.307   5.124 -0.0235 -0.3287 -0.1134
  380MOL0     C52363   5.081   6.269   5.132 -0.3567 -0.1291 -0.2259
  380MOL0     C52364   4.977   6.379   5.174 -0.6930 -0.5398  0.2964
  380MOL0     C52365   4.840   6.343   5.139  0.3643 -0.2866 -0.5425
  380MOL0     C52366   4.810   6.205   5.192  0.6789  0.2431 -0.8984
  380MOL0     C52367   4.779   6.099   5.244  0.0690  0.2424  0.5279
  380MOL0     C52368   5.412   6.512   4.878 -0.3974 -0.0851  0.6011
  380MOL0     C52369   5.545   6.529   4.827  0.0649  0.6316  0.4872
  380MOL0     C52370   5.574   6.652   4.750  0.3736  0.2076 -0.1859
  380MOL0     H52371   6.023   6.513   4.961 -3.9484 -0.7154 -2.6881
  380MOL0     H52372   6.258   6.503   4.948  3.2853 -1.4889 -1.5098
  380MOL0     H52373   6.518   6.246   4.718  1.1296  2.4030  0.2689
  380MOL0     H52374   6.439   6.123   4.830 -0.0344  0.0654 -0.2162
  380MOL0     H52375   6.678   6.124   4.877  3.2077  1.7084  0.0054
  380MOL0     H52376   6.691   6.293   4.867  0.4323  0.5885  0.7760
  380MOL0     H52377   6.532   6.302   5.068 -1.3703 -0.4727  0.0560
  380MOL0     H52378   6.556   6.124   5.078 -1.5322 -1.2566 -3.4458
  380MOL0     H52379   6.814   6.177   5.086  1.9330  0.8360  3.7367
  380MOL0     H52380   6.766   6.348   5.105 -1.1292 -0.5703 -1.5704
  380MOL0     H52381   6.671   6.136   5.291 -1.1458 -0.4658 -3.0691
  380MOL0     H52382   6.653   6.315   5.297  1.5976  0.7105  1.6981
  380MOL0     H52383   6.923   6.174   5.299 -1.3116 -1.8340  1.9092
  380MOL0     H52384   6.896   6.347   5.330  1.1615  0.1236  0.1573
  380MOL0     H52385   6.784   6.123   5.499 -2.8833  2.0295 -0.3025
  380MOL0     H52386   6.780   6.291   5.542  0.4489  0.3861 -0.6971
  380MOL0     H52387   7.013   6.297   5.585  3.2693 -1.7244  1.2417
  380MOL0     H52388   6.953   6.146   5.662  2.5952  1.0080  0.2857
  380MOL0     H52389   7.020   5.914   5.561  0.5488 -2.8257 -1.5970
  380MOL0     H52390   7.231   5.799   5.272  0.6573 -0.0517 -0.1686
  380MOL0     H52391   7.178   5.734   5.436 -0.3389 -0.7332 -2.9593
  380MOL0     H52392   7.444   5.877   5.402 -0.6255  0.1461 -1.6148
  380MOL0     H52393   7.378   5.763   5.524  0.3051 -3.0018 -1.2268
  380MOL0     H52394   7.369   5.579   5.354 -1.1619 -0.3704 -1.6554
  380MOL0     H52395   7.424   5.707   5.244 -0.6696  2.3293  1.8322
  380MOL0     H52396   7.624   5.736   5.414  1.1612  1.3333 -0.8914
  380MOL0     H52397   7.578   5.569   5.456  0.9474  2.7554  1.3707
  380MOL0     H52398   7.804   5.443   5.100  2.1011  1.4713 -2.2467
  380MOL0     H52399   7.969   5.379   5.000  0.3655  0.1462  0.4467
  380MOL0     H52400   8.064   5.280   5.101  2.9355  0.5683 -3.7565
  380MOL0     H52401   8.128   5.432   5.036 -0.1977 -0.2474 -4.8267
  380MOL0     H52402   8.436   5.589   5.257  2.2310 -0.2905 -2.2650
  380MOL0     H52403   8.670   5.534   5.278  0.4087 -0.3690  0.7553
  380MOL0     H52404   8.870   5.588   5.327 -2.3400  4.1290  0.2664
  380MOL0     H52405   8.867   5.679   5.473  0.3489  1.0081 -2.6529
  380MOL0     H52406   9.057   5.586   5.573  0.0663 -0.9182 -0.4950
  380MOL0     H52407   9.057   5.449   5.477 -1.5877 -0.6331 -2.2913
  380MOL0     H52408   9.090   5.728   5.367 -1.0182 -0.4756 -0.7046
  380MOL0     H52409   9.109   5.583   5.265  0.5943 -2.8647  0.5917
  380MOL0     H52410   9.305   5.503   5.393  1.6911  0.2312 -2.1732
  380MOL0     H52411   9.284   5.636   5.508 -0.9379 -2.1390  0.4659
  380MOL0     H52412   9.360   5.670   5.215 -0.4135 -2.5315  0.7513
  380MOL0     H52413   9.332   5.802   5.313 -1.5994 -1.5725 -3.5299
  380MOL0     H52414   9.548   5.581   5.383  2.6040  0.4792  0.2019
  380MOL0     H52415   9.499   5.737   5.466 -0.8966  3.9503 -3.0442
  380MOL0     H52416   9.586   5.870   5.314 -0.8003 -0.2826  1.8595
  380MOL0     H52417   9.597   5.750   5.181  3.3065  2.8898 -1.0562
  380MOL0     H52418   9.808   5.829   5.280 -4.0992  1.8013 -1.6485
  380MOL0     H52419   9.802   5.650   5.293  1.5551 -0.0168  2.6156
  380MOL0     H52420   8.621   5.393   5.684  1.7350 -3.0241 -0.4872
  380MOL0     H52421   8.378   5.434   5.658 -0.1345 -0.6526  0.9103
  380MOL0     H52422   8.040   5.635   5.494  1.2947  1.2313 -0.5000
  380MOL0     H52423   7.809   5.662   5.473 -1.3632 -2.2784  1.1147
  380MOL0     H52424   6.250   6.145   4.730  0.0585 -0.4664  1.5463
  380MOL0     H52425   6.008   6.165   4.706  1.6128  0.0284 -1.7575
  380MOL0     H52426   5.691   6.268   4.986 -1.7391 -2.3682  1.9925
  380MOL0     H52427   5.492   6.243   5.072  1.1396 -0.7167 -1.7145
  380MOL0     H52428   5.277   6.210   5.109  3.4884  0.9012  1.8129
  380MOL0     H52429   5.276   6.335   5.219  0.2807 -1.3965  0.0650
  380MOL0     H52430   5.070   6.181   5.196 -6.1354  0.4990  0.1126
  380MOL0     H52431   5.057   6.233   5.031  0.7491  2.6203 -1.5654
  380MOL0     H52432   4.985   6.380   5.283  0.6103  1.8850  0.2334
  380MOL0     H52433   5.008   6.480   5.145  3.2186 -2.0864 -1.6548
  380MOL0     H52434   4.827   6.342   5.031  0.1902  4.2269 -0.7406
  380MOL0     H52435   4.770   6.419   5.176  0.8157  0.3798 -1.0360
  380MOL0     H52436   4.756   6.005   5.291 -0.3022  0.4260  0.7221
  380MOL0     H52437   5.339   6.590   4.858 -0.5575 -0.0958  1.1401
  380MOL0     H52438   5.491   6.686   4.687 -0.2670 -2.9650 -1.2480
  380MOL0     H52439   5.608   6.731   4.818 -2.7662 -0.6711  2.6494
  380MOL0     H52440   5.645   6.624   4.672 -1.9232 -1.1027 -1.9173
  381MOL0     O52441   4.270   1.824   4.445  0.5994 -0.0484 -0.2798
  381MOL0     C52442   4.299   1.829   4.326 -0.4308 -0.2690 -0.4766
  381MOL0     O52443   4.425   1.795   4.277  0.0356 -0.0713  0.1783
  381MOL0     C52444   4.533   1.741   4.347  0.5980  0.1987 -0.4271
  381MOL0     C52445   4.563   1.783   4.476  0.3511 -0.4777  0.6291
  381MOL0     C52446   4.690   1.749   4.525 -0.5389 -0.3818  0.7299
  381MOL0     C52447   4.776   1.659   4.456  0.8152 -0.1112  0.2430
  381MOL0     O52448   4.882   1.611   4.529 -0.2112 -0.0717  0.2434
  381MOL0     C52449   4.997   1.554   4.450 -0.3313 -0.8399  0.0485
  381MOL0     C52450   5.116   1.562   4.548  0.7223 -0.2255  0.4626
  381MOL0     C52451   5.247   1.509   4.489  0.0939 -0.1106  0.3825
  381MOL0     C52452   5.356   1.517   4.600  0.2149 -0.1235  0.0488
  381MOL0     C52453   5.494   1.468   4.537 -0.0979  0.6678  0.3826
  381MOL0     C52454   5.503   1.324   4.566 -0.0599  0.6923  0.2334
  381MOL0     C52455   5.647   1.261   4.541  0.2871  0.7041 -0.3027
  381MOL0     C52456   5.757   1.313   4.633  0.8639 -0.3754  0.7174
  381MOL0     N52457   5.868   1.215   4.675  0.0773 -0.6123 -0.1550
  381MOL0     C52458   5.931   1.129   4.591 -0.0418 -0.1204 -0.7004
  381MOL0     C52459   6.042   1.100   4.656  0.0379  0.0079 -0.0881
  381MOL0     C52460   6.139   1.014   4.595  0.5923  0.3035 -1.1642
  381MOL0     C52461   6.218   0.924   4.686 -0.4653 -0.0659 -0.1290
  381MOL0     C52462   6.288   0.813   4.603  0.6870 -1.1551 -0.0755
  381MOL0     C52463   6.357   0.696   4.676 -0.9135 -0.2704  0.0885
  381MOL0     O52464   6.475   0.733   4.750 -0.3910 -0.4715 -0.0071
  381MOL0     C52465   6.551   0.627   4.803  0.2362 -0.3291 -0.0689
  381MOL0     C52466   6.511   0.487   4.803 -0.5768  0.0767  1.0840
  381MOL0     C52467   6.592   0.388   4.870  0.5075 -0.9618  0.2993
  381MOL0     C52468   6.558   0.240   4.872  0.0175 -0.5098  0.1467
  381MOL0     C52469   6.703   0.431   4.949  0.5185 -0.4957 -0.0070
  381MOL0     C52470   6.771   0.340   5.042 -0.9231  0.5673 -0.1942
  381MOL0     O52471   6.906   0.331   5.020 -0.5290 -0.0674  0.3763
  381MOL0     C52472   6.983   0.261   5.111  0.1698 -0.3121 -0.0269
  381MOL0     C52473   7.018   0.122   5.111 -0.9450  0.2345 -0.2074
  381MOL0     C52474   7.061   0.048   5.221 -0.1162  0.4779  0.2676
  381MOL0     C52475   7.086   0.114   5.338  0.3938 -0.3431 -0.3607
  381MOL0     O52476   7.117   0.059   5.460 -0.6401 -0.7760  0.2029
  381MOL0     C52477   7.073  -0.063   5.498 -0.3840 -0.3785  0.9902
  381MOL0     C52478   7.135  -0.098   5.645  0.2355  0.1765  0.4122
  381MOL0     C52479   7.079   0.002   5.753 -0.4749  0.2964 -0.7155
  381MOL0     C52480   6.949  -0.038   5.811  0.8941  0.9018 -0.6686
  381MOL0     C52481   6.895   0.058   5.916 -0.4362  0.3278  0.1759
  381MOL0     C52482   6.765   0.017   5.988  0.7440  0.5125  0.5036
  381MOL0     C52483   6.738   0.094   6.120  0.3540  0.4614 -1.0009
  381MOL0     C52484   6.598   0.068   6.179 -0.3208  0.3663  0.0537
  381MOL0    Cl52485   6.475   0.068   6.048 -0.1324  0.0021  0.2283
  381MOL0     C52486   7.058   0.249   5.346 -0.2064 -0.7014  0.4165
  381MOL0     C52487   7.012   0.321   5.234  0.1496 -0.0869  0.2172
  381MOL0     O52488   6.707   0.273   5.116 -0.1742 -0.4644 -0.3709
  381MOL0     C52489   6.734   0.570   4.948 -0.0570 -0.6241 -0.0428
  381MOL0     C52490   6.660   0.668   4.883  0.7755 -0.4413  0.1866
  381MOL0     N52491   6.031   1.160   4.781  0.0860  0.3226 -0.7800
  381MOL0     N52492   5.922   1.217   4.793  0.1166 -0.5747 -0.1145
  381MOL0     C52493   4.740   1.614   4.330  0.6933 -0.3750 -1.1007
  381MOL0     C52494   4.624   1.667   4.273 -0.9657 -0.2456 -0.5187
  381MOL0     C52495   4.212   1.889   4.235  0.2563 -0.0476  0.5555
  381MOL0     C52496   4.265   1.919   4.109 -0.3078 -0.3495  0.2581
  381MOL0     C52497   4.196   1.993   4.011 -0.3420 -0.0866 -0.3330
  381MOL0     C52498   4.059   2.015   4.017  0.4505 -0.1619 -0.3587
  381MOL0     O52499   3.984   2.067   3.921  0.1631  0.2412  0.3728
  381MOL0     C52500   4.027   2.077   3.780  0.1548 -0.0031 -0.2956
  381MOL0     C52501   4.067   1.946   3.714  0.6257  0.2393 -0.0302
  381MOL0     C52502   3.951   1.850   3.708 -0.0709  0.8787 -0.1571
  381MOL0     C52503   3.985   1.732   3.622 -0.5332 -0.7974  0.4123
  381MOL0     C52504   3.856   1.660   3.603  0.6958  0.4618 -0.1133
  381MOL0     C52505   3.758   1.592   3.571 -0.5448  0.2247 -0.4146
  381MOL0     C52506   3.997   1.984   4.144 -0.6104 -0.2829 -1.0014
  381MOL0     C52507   4.068   1.922   4.245 -0.6212  0.7228 -0.0188
  381MOL0     C52508   3.999   1.895   4.383  0.9840  0.3880 -0.1976
  381MOL0     H52509   4.493   1.839   4.536 -0.7564  1.0410 -1.9050
  381MOL0     H52510   4.723   1.791   4.619 -2.9448  1.2460  0.9285
  381MOL0     H52511   5.013   1.619   4.364  0.2812  0.0081  0.7920
  381MOL0     H52512   4.987   1.452   4.410 -1.1636 -0.0249 -1.9325
  381MOL0     H52513   5.132   1.669   4.563  0.0838  0.0593 -0.7393
  381MOL0     H52514   5.082   1.512   4.639  0.4741  0.0658  0.5311
  381MOL0     H52515   5.229   1.405   4.460 -0.4476  0.1683 -0.3180
  381MOL0     H52516   5.278   1.566   4.401 -0.5210 -0.5574 -0.1355
  381MOL0     H52517   5.377   1.616   4.640  2.3108 -0.3200 -0.4515
  381MOL0     H52518   5.322   1.451   4.680 -1.7689  1.2703  0.4369
  381MOL0     H52519   5.578   1.515   4.589  0.0911  0.1131  0.5885
  381MOL0     H52520   5.513   1.479   4.430 -1.0085  0.7488  0.2252
  381MOL0     H52521   5.471   1.291   4.665  0.7169  0.9371  0.5699
  381MOL0     H52522   5.447   1.265   4.493  2.1744  1.4634 -2.2409
  381MOL0     H52523   5.673   1.273   4.435  0.7488 -0.1118 -0.2857
  381MOL0     H52524   5.629   1.154   4.542 -1.0457  0.9039 -1.0465
  381MOL0     H52525   5.793   1.400   4.577 -1.3074  0.8250  1.0479
  381MOL0     H52526   5.721   1.360   4.725 -3.1725  1.5694 -1.5700
  381MOL0     H52527   5.913   1.120   4.485 -1.8479  0.3848 -0.4570
  381MOL0     H52528   6.210   1.072   4.536  0.5619  1.2566 -0.2836
  381MOL0     H52529   6.088   0.955   4.518  0.0769  2.6000 -2.6818
  381MOL0     H52530   6.303   0.982   4.725  0.4391 -0.4859 -1.3943
  381MOL0     H52531   6.162   0.879   4.768  0.2599 -1.0726 -0.1526
  381MOL0     H52532   6.215   0.775   4.532 -0.2990  1.2201 -0.4171
  381MOL0     H52533   6.370   0.858   4.547 -0.1065  1.6020  0.7912
  381MOL0     H52534   6.279   0.658   4.742 -1.8006  0.4060 -0.5531
  381MOL0     H52535   6.384   0.621   4.602 -0.4749  2.2139 -2.4366
  381MOL0     H52536   6.429   0.460   4.737  0.2146  1.3698 -0.5089
  381MOL0     H52537   6.655   0.194   4.853  0.6312  0.5005  0.7767
  381MOL0     H52538   6.486   0.222   4.791  0.7172 -0.2848 -0.5346
  381MOL0     H52539   6.514   0.192   4.960 -0.9037  2.3138  1.3438
  381MOL0     H52540   7.008   0.081   5.011 -1.2687  1.6030 -0.7593
  381MOL0     H52541   7.072  -0.059   5.209 -1.4611  0.3715 -0.1693
  381MOL0     H52542   6.964  -0.072   5.500 -0.3469 -0.7801  2.5810
  381MOL0     H52543   7.115  -0.134   5.427  1.3651  0.3258  1.2541
  381MOL0     H52544   7.091  -0.197   5.659 -0.4670  0.1906 -1.4364
  381MOL0     H52545   7.244  -0.107   5.638  0.0674 -1.1590 -4.6137
  381MOL0     H52546   7.072   0.104   5.713 -2.2401  0.7452  0.6077
  381MOL0     H52547   7.160   0.006   5.827  0.1250 -2.0017 -1.1650
  381MOL0     H52548   6.960  -0.141   5.846  0.2673  1.3215  0.8512
  381MOL0     H52549   6.874  -0.036   5.731  0.8117  1.1914 -0.5860
  381MOL0     H52550   6.971   0.078   5.993  0.5669  1.2137 -0.9912
  381MOL0     H52551   6.877   0.149   5.858 -1.1044  1.1793  1.6614
  381MOL0     H52552   6.771  -0.092   6.001  0.1214  0.1962 -1.4573
  381MOL0     H52553   6.674   0.034   5.929 -0.4411  0.3374  2.2305
  381MOL0     H52554   6.739   0.201   6.098 -1.2471  1.1401  1.7577
  381MOL0     H52555   6.811   0.068   6.197 -2.4668 -0.7001  1.4679
  381MOL0     H52556   6.578   0.134   6.264 -2.0930 -2.4900  2.0038
  381MOL0     H52557   6.587  -0.032   6.221 -2.0492 -0.6576 -2.5782
  381MOL0     H52558   7.078   0.296   5.441 -0.9561 -0.8911  0.6799
  381MOL0     H52559   7.008   0.430   5.232  1.6505 -0.0184 -1.6831
  381MOL0     H52560   6.824   0.602   5.000 -0.4584  1.6430 -0.6235
  381MOL0     H52561   6.683   0.774   4.876  0.7425 -0.4337  0.1932
  381MOL0     H52562   4.809   1.549   4.277 -0.2789 -2.3206 -0.1052
  381MOL0     H52563   4.608   1.636   4.170  2.3244 -1.5066 -0.7559
  381MOL0     H52564   4.372   1.913   4.095 -0.0880 -1.9101  2.1346
  381MOL0     H52565   4.243   2.019   3.916  0.0089  0.4617 -0.0119
  381MOL0     H52566   3.937   2.115   3.729 -0.9670 -1.6033  0.3998
  381MOL0     H52567   4.109   2.149   3.770 -0.4796  1.2326  2.4760
  381MOL0     H52568   4.148   1.904   3.774 -0.0997 -0.2733  0.6059
  381MOL0     H52569   4.117   1.961   3.618  4.3387  1.0608  1.8329
  381MOL0     H52570   3.919   1.816   3.808 -1.8342 -1.4449 -1.4013
  381MOL0     H52571   3.857   1.887   3.665  0.1045 -0.9333 -2.2606
  381MOL0     H52572   4.061   1.674   3.675  2.2789  1.0234 -1.3540
  381MOL0     H52573   4.017   1.767   3.524 -0.5570 -0.1701  0.6288
  381MOL0     H52574   3.673   1.528   3.557 -0.4242  0.3073 -1.6294
  381MOL0     H52575   3.892   2.006   4.159 -0.3096  3.1679 -2.8142
  381MOL0     H52576   3.897   1.930   4.397  0.7995  0.2950 -1.2518
  381MOL0     H52577   4.007   1.787   4.397  2.3556  0.6237  1.1845
  381MOL0     H52578   4.047   1.944   4.468 -1.3691 -0.7995  1.9327
  382MOL0     O52579   0.707   5.717   2.171 -0.2669  0.6232  0.4028
  382MOL0     C52580   0.656   5.722   2.061 -1.0079  1.8391  0.0818
  382MOL0     O52581   0.723   5.725   1.939  0.0330  0.4834 -0.4436
  382MOL0     C52582   0.860   5.758   1.936 -0.2613  0.7632 -0.6076
  382MOL0     C52583   0.922   5.853   2.023 -0.1858 -1.2036  0.5442
  382MOL0     C52584   1.061   5.885   2.013  0.5508 -0.3080 -0.5649
  382MOL0     C52585   1.134   5.823   1.914  0.2934  0.6163  0.0305
  382MOL0     O52586   1.265   5.863   1.875  0.4478 -0.2859 -0.3853
  382MOL0     C52587   1.353   5.880   1.982 -0.8600  0.9300 -1.1495
  382MOL0     C52588   1.487   5.927   1.933 -0.0408  0.4817  0.7713
  382MOL0     C52589   1.548   5.826   1.833  1.0549 -0.5202  0.4935
  382MOL0     C52590   1.701   5.845   1.855 -0.0085 -0.1429 -0.3357
  382MOL0     C52591   1.762   5.767   1.738  0.2132 -0.3157 -0.5686
  382MOL0     C52592   1.916   5.768   1.743 -0.7542 -0.8077 -0.2761
  382MOL0     C52593   1.981   5.673   1.649  0.1291 -0.8040  0.2030
  382MOL0     C52594   2.139   5.670   1.662 -0.2409  0.3201  0.6814
  382MOL0     N52595   2.183   5.576   1.558  0.1822 -0.2303  0.1822
  382MOL0     C52596   2.208   5.594   1.426 -0.3958  0.1279  0.1443
  382MOL0     C52597   2.228   5.466   1.393 -0.3409 -0.6016  0.2967
  382MOL0     C52598   2.272   5.417   1.249 -0.4013 -0.0941 -0.0069
  382MOL0     C52599   2.414   5.440   1.227  0.1092  0.4787 -0.3882
  382MOL0     C52600   2.490   5.343   1.330 -0.3807 -0.3588  1.2448
  382MOL0     C52601   2.634   5.329   1.299 -0.5484  0.0312 -0.3089
  382MOL0     O52602   2.697   5.457   1.272 -0.2439 -0.3798  0.8588
  382MOL0     C52603   2.824   5.463   1.230  0.2450  1.0316 -0.7270
  382MOL0     C52604   2.863   5.581   1.172 -0.7144 -0.2038  0.2221
  382MOL0     C52605   2.999   5.615   1.132 -0.0690  0.3088 -0.1832
  382MOL0     C52606   3.024   5.750   1.072  0.1347  1.0109  0.5035
  382MOL0     C52607   3.096   5.519   1.165 -0.4352  0.5153 -0.0597
  382MOL0     C52608   3.237   5.516   1.117  0.1929 -0.0222  0.7190
  382MOL0     O52609   3.323   5.445   1.195  0.1716 -0.3006  0.6577
  382MOL0     C52610   3.457   5.454   1.164  0.5273  0.0502 -0.4750
  382MOL0     C52611   3.509   5.344   1.098 -0.1642 -0.3441 -0.6334
  382MOL0     C52612   3.645   5.344   1.068 -0.6888  0.0954  0.1732
  382MOL0     C52613   3.726   5.445   1.101  0.9136 -0.2566  0.4374
  382MOL0     O52614   3.864   5.455   1.087  0.1088 -0.2896  0.1855
  382MOL0     C52615   3.936   5.329   1.083 -0.2522 -0.9185  0.3425
  382MOL0     C52616   4.087   5.360   1.101  0.0193 -0.1872 -0.1371
  382MOL0     C52617   4.165   5.259   1.019  0.8085  0.0539  0.0577
  382MOL0     C52618   4.299   5.231   1.081 -0.0293  0.2378  0.1465
  382MOL0     C52619   4.363   5.106   1.020  0.3638  0.1519  0.1181
  382MOL0     C52620   4.428   5.151   0.890 -0.2402 -0.1695 -0.2644
  382MOL0     C52621   4.500   5.041   0.810  0.1085 -0.5192  0.0567
  382MOL0     C52622   4.405   4.930   0.758 -0.5120 -0.2397  0.1689
  382MOL0    Cl52623   4.279   5.003   0.654 -0.1115  0.0034  0.2564
  382MOL0     C52624   3.668   5.553   1.173 -0.7347  0.5170  0.1302
  382MOL0     C52625   3.532   5.555   1.205 -0.6341 -1.2809  0.3472
  382MOL0     O52626   3.261   5.567   1.007 -0.6981  0.5078 -0.1843
  382MOL0     C52627   3.045   5.396   1.229  0.1144 -0.5419  0.8341
  382MOL0     C52628   2.911   5.371   1.266  0.1946 -0.4231  0.0712
  382MOL0     N52629   2.203   5.379   1.498  0.0039  0.8964 -0.5717
  382MOL0     N52630   2.176   5.452   1.605 -0.0963  0.2137 -0.3415
  382MOL0     C52631   1.073   5.743   1.823  0.6291  0.6095 -0.7204
  382MOL0     C52632   0.936   5.701   1.834 -0.5533  0.3177  0.3359
  382MOL0     C52633   0.511   5.692   2.048  0.3926  0.1326 -1.1633
  382MOL0     C52634   0.453   5.696   1.924  0.5361  0.2739 -0.9363
  382MOL0     C52635   0.323   5.658   1.896 -0.1746  1.0234  1.0160
  382MOL0     C52636   0.247   5.595   1.992 -0.2129 -0.1211 -0.3262
  382MOL0     O52637   0.122   5.545   1.973 -0.4866 -0.1162 -0.5238
  382MOL0     C52638   0.063   5.550   1.844  1.1505  0.4144  0.0076
  382MOL0     C52639  -0.059   5.443   1.841 -0.0746 -0.6337  0.6651
  382MOL0     C52640  -0.130   5.462   1.975  0.0469  0.2984  0.0021
  382MOL0     C52641  -0.262   5.404   1.988  0.4669  0.4864  0.2909
  382MOL0     C52642  -0.239   5.257   2.019  0.3311  0.4850  0.5052
  382MOL0     C52643  -0.222   5.139   2.061 -0.5828 -0.2048  0.0470
  382MOL0     C52644   0.289   5.610   2.116  0.5223  0.6025  0.3534
  382MOL0     C52645   0.427   5.648   2.147 -0.2336  0.1539 -0.3649
  382MOL0     C52646   0.474   5.625   2.293 -0.3480 -0.2237  0.1219
  382MOL0     H52647   0.857   5.915   2.084 -0.0140 -0.7497  0.2733
  382MOL0     H52648   1.102   5.972   2.063  1.9293 -0.9405 -0.5594
  382MOL0     H52649   1.356   5.786   2.039 -1.2505  2.2093  1.1147
  382MOL0     H52650   1.328   5.950   2.062  2.4540  1.7457 -0.6877
  382MOL0     H52651   1.473   6.028   1.894 -2.0898 -0.6718 -1.7024
  382MOL0     H52652   1.552   5.916   2.021  0.5061 -3.9738  0.0159
  382MOL0     H52653   1.526   5.721   1.855  2.6761 -0.6590  1.6577
  382MOL0     H52654   1.509   5.855   1.735  1.3543 -3.9188 -0.7660
  382MOL0     H52655   1.735   5.949   1.859 -0.7417  0.0669  1.1479
  382MOL0     H52656   1.734   5.803   1.950 -0.4975  1.3838  0.5490
  382MOL0     H52657   1.727   5.817   1.647 -1.3340 -1.0180 -0.3903
  382MOL0     H52658   1.723   5.665   1.730  0.9012 -0.4712 -2.5757
  382MOL0     H52659   1.968   5.863   1.724  4.1062 -3.2402 -0.8551
  382MOL0     H52660   1.956   5.736   1.839 -0.2548 -2.7023 -1.0598
  382MOL0     H52661   1.958   5.696   1.545 -0.9936  0.6862  0.7567
  382MOL0     H52662   1.944   5.572   1.666 -1.3861 -0.2351  0.3916
  382MOL0     H52663   2.187   5.763   1.631  0.6823 -0.3611 -0.0160
  382MOL0     H52664   2.172   5.642   1.763  0.9270  0.4535  0.3579
  382MOL0     H52665   2.213   5.683   1.363  2.1535 -1.1096 -1.5866
  382MOL0     H52666   2.208   5.461   1.172 -3.6367  0.2385  2.6715
  382MOL0     H52667   2.256   5.309   1.246  0.5912 -0.3494  1.9315
  382MOL0     H52668   2.446   5.410   1.126  3.4839  0.6242  0.5106
  382MOL0     H52669   2.430   5.546   1.245 -0.3545  0.7037 -1.2513
  382MOL0     H52670   2.492   5.393   1.427 -2.9086  2.3805  0.0355
  382MOL0     H52671   2.445   5.246   1.355 -3.0388  0.3826 -0.3154
  382MOL0     H52672   2.671   5.269   1.383 -5.0176 -1.6633  0.7320
  382MOL0     H52673   2.640   5.269   1.208  0.3617 -0.4984  0.0824
  382MOL0     H52674   2.790   5.658   1.149  0.5059  1.1870  0.8702
  382MOL0     H52675   3.020   5.739   0.963  2.1443  0.7511  0.4158
  382MOL0     H52676   3.126   5.781   1.098  0.1844  1.2185  0.0634
  382MOL0     H52677   2.952   5.819   1.116 -1.5679 -1.5501  1.9902
  382MOL0     H52678   3.440   5.261   1.085 -3.9254  2.2646  0.9702
  382MOL0     H52679   3.685   5.258   1.015 -0.6026  1.0605 -1.3870
  382MOL0     H52680   3.902   5.260   1.162 -3.4455 -0.4331 -0.4646
  382MOL0     H52681   3.927   5.277   0.987  3.3803  2.3931 -2.0778
  382MOL0     H52682   4.111   5.464   1.077 -2.3690  0.3710 -0.3239
  382MOL0     H52683   4.111   5.345   1.207  0.8666  2.2810  0.0835
  382MOL0     H52684   4.168   5.305   0.920 -1.4421  4.2088  1.6729
  382MOL0     H52685   4.109   5.167   0.998  0.8524  0.2692 -1.0687
  382MOL0     H52686   4.278   5.224   1.188  1.2360  2.3207  0.5823
  382MOL0     H52687   4.369   5.315   1.078 -0.7224  0.8829  1.4743
  382MOL0     H52688   4.447   5.078   1.084  0.0082 -1.4992 -0.0864
  382MOL0     H52689   4.297   5.018   1.023  1.8890 -1.0260  2.0683
  382MOL0     H52690   4.502   5.225   0.922 -0.7411  0.1954  0.0589
  382MOL0     H52691   4.355   5.200   0.826  3.2096  2.1070 -2.8544
  382MOL0     H52692   4.579   4.998   0.870  1.4779  1.9281  0.1458
  382MOL0     H52693   4.550   5.087   0.724 -1.8502  0.8035 -0.4677
  382MOL0     H52694   4.354   4.872   0.835 -1.6883 -2.0368 -1.8433
  382MOL0     H52695   4.453   4.852   0.698  1.1025 -1.4562  2.8397
  382MOL0     H52696   3.737   5.631   1.204  2.2831 -1.7338 -0.4189
  382MOL0     H52697   3.485   5.635   1.261  0.9875 -0.7328  0.9969
  382MOL0     H52698   3.114   5.315   1.249 -2.4119 -2.6362  1.6371
  382MOL0     H52699   2.892   5.288   1.333 -0.0882 -0.7850 -0.4565
  382MOL0     H52700   1.138   5.701   1.747  0.9830 -0.2679  0.0357
  382MOL0     H52701   0.906   5.637   1.752  3.0771 -2.2032  0.7463
  382MOL0     H52702   0.499   5.736   1.834  2.9217  0.0679  0.1223
  382MOL0     H52703   0.287   5.675   1.795 -1.7807 -1.1705  1.1517
  382MOL0     H52704   0.031   5.652   1.824 -0.9615 -0.7384 -3.3623
  382MOL0     H52705   0.131   5.530   1.761  0.8193  1.3484 -0.5045
  382MOL0     H52706  -0.024   5.340   1.831  0.4181 -0.3697 -0.5610
  382MOL0     H52707  -0.120   5.466   1.753 -0.6946  1.4853  1.5763
  382MOL0     H52708  -0.070   5.440   2.063  2.3493 -2.3875 -2.0770
  382MOL0     H52709  -0.136   5.571   1.985  2.3878  0.4356  0.3406
  382MOL0     H52710  -0.320   5.420   1.896 -1.5213 -0.4286  1.3259
  382MOL0     H52711  -0.313   5.455   2.070  1.0664  1.3036  0.1701
  382MOL0     H52712  -0.208   5.035   2.079 -1.2589 -0.7181 -2.0283
  382MOL0     H52713   0.231   5.567   2.197 -1.2145 -0.3000 -1.2852
  382MOL0     H52714   0.530   5.713   2.326  1.4938 -0.9309 -0.9545
  382MOL0     H52715   0.385   5.604   2.353 -0.9419 -1.2844 -1.0835
  382MOL0     H52716   0.526   5.530   2.299  1.5287  0.8692  3.4682
  383MOL0     O52717   6.186   4.944   7.810  0.0858  1.0905 -0.3035
  383MOL0     C52718   6.129   4.883   7.723 -0.0650 -0.3557 -0.1769
  383MOL0     O52719   6.049   4.779   7.750 -0.2785  0.1939  0.9530
  383MOL0     C52720   5.956   4.783   7.852  0.2416  0.8867 -0.4069
  383MOL0     C52721   5.903   4.901   7.881  0.5547 -0.3980 -0.2020
  383MOL0     C52722   5.808   4.912   7.986 -0.6949 -0.3295  1.1418
  383MOL0     C52723   5.779   4.802   8.069 -0.1827 -0.3902 -0.3331
  383MOL0     O52724   5.677   4.821   8.163  0.0075  0.0178  0.0057
  383MOL0     C52725   5.648   4.718   8.258  0.0285  0.1681 -0.6948
  383MOL0     C52726   5.550   4.761   8.374 -0.0032 -0.7411 -0.0506
  383MOL0     C52727   5.605   4.855   8.479 -0.2447 -0.1967 -0.5022
  383MOL0     C52728   5.502   4.926   8.566 -0.3701  0.3662  0.0743
  383MOL0     C52729   5.580   4.996   8.681 -0.3397 -0.0969  0.6374
  383MOL0     C52730   5.658   5.118   8.616  0.0233  0.1779 -0.2860
  383MOL0     C52731   5.739   5.203   8.724  0.5910  0.0600 -0.2441
  383MOL0     C52732   5.766   5.148   8.863  0.4814 -0.0138 -0.2634
  383MOL0     N52733   5.820   5.250   8.956 -0.5731  0.3622 -0.1743
  383MOL0     C52734   5.761   5.366   8.990 -0.6318 -0.6807 -0.0269
  383MOL0     C52735   5.838   5.419   9.083 -0.4946 -0.0373 -0.8883
  383MOL0     C52736   5.805   5.553   9.137  0.4089  0.2551 -0.0801
  383MOL0     C52737   5.852   5.664   9.036 -0.2873  0.0359  0.6129
  383MOL0     C52738   5.986   5.723   9.066  0.1320 -0.5015 -0.1397
  383MOL0     C52739   6.005   5.844   8.972  0.0621 -0.3261  0.0376
  383MOL0     O52740   6.080   5.825   8.856 -0.2710 -0.1392 -0.5923
  383MOL0     C52741   6.217   5.811   8.862  0.1684  0.2568 -0.2701
  383MOL0     C52742   6.289   5.784   8.740  0.1088  0.0876 -1.1396
  383MOL0     C52743   6.431   5.786   8.740  0.0915 -0.2534  0.2557
  383MOL0     C52744   6.486   5.780   8.594  0.4530  0.6665 -0.3925
  383MOL0     C52745   6.506   5.783   8.854 -0.0857  0.2914 -0.7335
  383MOL0     C52746   6.653   5.777   8.852  0.7100 -0.0821  0.9682
  383MOL0     O52747   6.711   5.699   8.762  0.1913  0.6919 -0.4106
  383MOL0     C52748   6.821   5.630   8.800  0.3809 -0.3077 -0.2209
  383MOL0     C52749   6.818   5.548   8.921 -0.0532  0.1019 -0.5222
  383MOL0     C52750   6.923   5.464   8.965 -0.7309  0.8256  0.1419
  383MOL0     C52751   7.046   5.474   8.897  0.1318  0.7042 -0.3831
  383MOL0     O52752   7.166   5.418   8.929 -0.7541  0.1894  0.9925
  383MOL0     C52753   7.180   5.347   9.055 -0.3822  0.1639 -0.7513
  383MOL0     C52754   7.330   5.308   9.098 -0.0205 -1.0068  0.0296
  383MOL0     C52755   7.336   5.201   9.202  1.6987  1.1854  0.4214
  383MOL0     C52756   7.284   5.240   9.342 -0.4842 -0.0930 -1.3864
  383MOL0     C52757   7.313   5.118   9.436 -0.5144 -0.3870 -0.8526
  383MOL0     C52758   7.272   5.148   9.573 -0.0464 -0.5635  0.6119
  383MOL0     C52759   7.325   5.031   9.661 -0.4199  0.3982  0.1924
  383MOL0     C52760   7.286   5.049   9.805  0.6046 -0.7529  0.1696
  383MOL0    Cl52761   7.347   4.921   9.907  0.1828  0.1954  0.0112
  383MOL0     C52762   7.043   5.549   8.779 -0.1431  0.6295 -0.2029
  383MOL0     C52763   6.935   5.624   8.725 -0.3573 -1.2209 -0.2336
  383MOL0     O52764   6.706   5.822   8.952  0.9915  0.0916  0.1235
  383MOL0     C52765   6.435   5.800   8.971  1.7143  0.2748  0.3531
  383MOL0     C52766   6.293   5.806   8.978  0.3302 -0.1709 -0.1456
  383MOL0     N52767   5.933   5.331   9.117 -0.5429 -0.1098  0.1448
  383MOL0     N52768   5.923   5.226   9.043 -0.2126  0.1299 -0.3742
  383MOL0     C52769   5.832   4.675   8.032 -0.4260 -0.6012  0.5498
  383MOL0     C52770   5.919   4.667   7.921  0.5117  0.1759 -1.0647
  383MOL0     C52771   6.145   4.911   7.583  0.7050 -0.0327 -0.0996
  383MOL0     C52772   6.033   4.903   7.499  0.3797  0.1862 -0.9136
  383MOL0     C52773   6.043   4.921   7.361  0.0216 -0.9129  0.0499
  383MOL0     C52774   6.163   4.953   7.304  0.2561  0.6017  0.5223
  383MOL0     O52775   6.168   5.002   7.175  0.4357  0.1868 -0.6184
  383MOL0     C52776   6.141   4.905   7.079 -0.2169 -0.2121  0.6517
  383MOL0     C52777   6.115   4.975   6.944 -0.5572 -0.0207  0.0190
  383MOL0     C52778   6.229   5.061   6.885 -0.7729  0.0522 -0.0545
  383MOL0     C52779   6.362   4.986   6.844  0.1272 -0.3668  0.1857
  383MOL0     C52780   6.480   5.011   6.928  0.6408  0.1664  0.2457
  383MOL0     C52781   6.566   5.030   7.015 -0.1914  0.4953  0.5161
  383MOL0     C52782   6.274   4.958   7.387  0.2219 -0.1733 -0.6032
  383MOL0     C52783   6.269   4.942   7.528 -0.0666 -0.6215 -0.7367
  383MOL0     C52784   6.403   4.960   7.608 -0.2755  0.8506  0.2153
  383MOL0     H52785   5.932   4.996   7.837  1.1923 -1.0503 -1.2405
  383MOL0     H52786   5.749   5.000   8.007 -3.0544 -0.9066 -2.2774
  383MOL0     H52787   5.736   4.677   8.308 -1.3448 -0.8869  0.9795
  383MOL0     H52788   5.585   4.642   8.211  0.0488  0.2746 -0.8930
  383MOL0     H52789   5.461   4.809   8.334  1.7907  1.7689 -1.3546
  383MOL0     H52790   5.528   4.674   8.436 -2.8534  0.8684  1.3787
  383MOL0     H52791   5.675   4.803   8.546  0.3459 -0.1787 -1.0937
  383MOL0     H52792   5.663   4.934   8.429 -2.2005  1.3427 -0.4517
  383MOL0     H52793   5.446   4.996   8.502  0.0699  0.6122 -0.0443
  383MOL0     H52794   5.428   4.858   8.608  1.0495 -0.3950  1.4110
  383MOL0     H52795   5.653   4.929   8.727 -2.2250 -2.7474 -0.0267
  383MOL0     H52796   5.502   5.020   8.754 -3.4632 -3.0057 -1.4924
  383MOL0     H52797   5.732   5.076   8.548  1.7409  0.7236  1.1887
  383MOL0     H52798   5.589   5.175   8.553 -2.1029  2.1235  3.4014
  383MOL0     H52799   5.674   5.292   8.725 -1.8953 -1.3771 -4.7914
  383MOL0     H52800   5.839   5.223   8.685 -0.1355 -0.1192 -2.3613
  383MOL0     H52801   5.666   5.120   8.899  0.7168  0.6015  0.9147
  383MOL0     H52802   5.830   5.060   8.859  0.1314 -0.3856  1.4760
  383MOL0     H52803   5.670   5.407   8.947  0.2578 -0.6382 -1.9621
  383MOL0     H52804   5.863   5.556   9.229  2.0977  0.0686 -1.0897
  383MOL0     H52805   5.697   5.566   9.151  0.0885 -1.7933 -0.2879
  383MOL0     H52806   5.855   5.612   8.940  0.5973 -0.2959  0.8157
  383MOL0     H52807   5.767   5.732   9.022  0.9596  1.5174 -0.0163
  383MOL0     H52808   5.990   5.757   9.169 -1.5650 -1.0569  0.1395
  383MOL0     H52809   6.064   5.648   9.053  0.8696  0.3300 -0.6715
  383MOL0     H52810   5.905   5.879   8.943  1.1247  3.9889  0.9449
  383MOL0     H52811   6.047   5.923   9.035  0.5199 -0.0948 -0.5598
  383MOL0     H52812   6.240   5.780   8.643 -1.2075 -0.7380 -0.4739
  383MOL0     H52813   6.551   5.868   8.587 -0.9518  1.8933  1.0616
  383MOL0     H52814   6.407   5.774   8.519 -0.1968 -0.0247  0.3358
  383MOL0     H52815   6.554   5.699   8.566 -0.3708  1.1551 -4.3282
  383MOL0     H52816   6.728   5.547   8.981  0.4618 -0.2842  0.2590
  383MOL0     H52817   6.921   5.411   9.060 -0.0428 -1.0300 -0.8416
  383MOL0     H52818   7.140   5.418   9.128 -2.2152  0.1476 -1.6831
  383MOL0     H52819   7.109   5.264   9.050 -1.2761  0.8919 -0.5429
  383MOL0     H52820   7.380   5.272   9.008 -0.1307 -0.2539 -0.3407
  383MOL0     H52821   7.388   5.399   9.117 -0.5637  0.4307 -4.1329
  383MOL0     H52822   7.440   5.166   9.206  1.7224  1.2227  0.1611
  383MOL0     H52823   7.278   5.110   9.181 -1.1799  1.8555  4.3365
  383MOL0     H52824   7.179   5.269   9.334  0.2467  3.2220 -0.2037
  383MOL0     H52825   7.337   5.322   9.390  0.1576 -0.9898 -0.5316
  383MOL0     H52826   7.273   5.022   9.401  1.1897 -1.1580 -0.7901
  383MOL0     H52827   7.422   5.109   9.442 -0.3866  1.5438  3.0540
  383MOL0     H52828   7.164   5.131   9.578  0.0758 -1.1926  1.1045
  383MOL0     H52829   7.312   5.241   9.615  1.0250  0.3183 -2.1064
  383MOL0     H52830   7.432   5.013   9.650 -0.5479  0.5148 -1.4421
  383MOL0     H52831   7.293   4.932   9.628  0.0315 -0.2158  1.5306
  383MOL0     H52832   7.176   5.049   9.807  0.6027 -1.0125  0.1178
  383MOL0     H52833   7.325   5.144   9.841 -0.2045  0.0743 -1.0531
  383MOL0     H52834   7.139   5.566   8.732 -1.7492  2.9087 -3.0629
  383MOL0     H52835   6.949   5.684   8.635 -2.8955 -1.0278 -0.5784
  383MOL0     H52836   6.486   5.807   9.067  2.9047 -0.6772 -0.1856
  383MOL0     H52837   6.241   5.807   9.073  0.8915 -0.9617  0.1789
  383MOL0     H52838   5.785   4.589   8.079 -1.4804  1.3416  3.2875
  383MOL0     H52839   5.966   4.572   7.898  1.4463  0.1649  0.7371
  383MOL0     H52840   5.936   4.886   7.543  0.3736  1.5360 -0.3425
  383MOL0     H52841   5.951   4.919   7.302 -2.5316  1.6815  3.5037
  383MOL0     H52842   6.234   4.850   7.063 -0.1546 -0.0105  0.2971
  383MOL0     H52843   6.060   4.842   7.115  1.0735 -1.3323  1.6867
  383MOL0     H52844   6.018   5.025   6.955 -0.3661  0.4280 -0.2747
  383MOL0     H52845   6.090   4.895   6.874 -1.2410  1.0802 -1.0394
  383MOL0     H52846   6.192   5.115   6.797  0.9088  1.0787 -0.1807
  383MOL0     H52847   6.252   5.141   6.956 -0.1897  0.0850 -0.2796
  383MOL0     H52848   6.398   5.022   6.747  0.9005 -2.0536 -0.1804
  383MOL0     H52849   6.331   4.885   6.817 -1.0823  0.2744 -0.9696
  383MOL0     H52850   6.653   5.047   7.075 -0.3239 -0.5890  1.0470
  383MOL0     H52851   6.356   5.003   7.331  0.0219  1.1795  0.1445
  383MOL0     H52852   6.418   4.879   7.680 -0.4978  0.0591 -0.6063
  383MOL0     H52853   6.476   4.952   7.527 -1.8923  0.5248 -1.2736
  383MOL0     H52854   6.407   5.060   7.652  0.6292  0.6534  0.6087
  384MOL0     O52855   5.789   1.062   4.004 -0.5821 -0.1141  0.9049
  384MOL0     C52856   5.829   1.071   3.893  0.7850  0.0716  0.2420
  384MOL0     O52857   5.753   1.100   3.781 -0.4267  0.3880 -0.4093
  384MOL0     C52858   5.621   1.105   3.787  0.3154  0.1755  0.0218
  384MOL0     C52859   5.555   1.205   3.709  0.4483  0.7559 -0.5878
  384MOL0     C52860   5.413   1.196   3.691 -0.0104  0.0817 -1.0016
  384MOL0     C52861   5.343   1.097   3.756  0.7221  0.0699  0.3360
  384MOL0     O52862   5.205   1.083   3.752  0.5530 -0.1819 -0.1728
  384MOL0     C52863   5.137   1.135   3.634  0.3554  0.7288  0.1474
  384MOL0     C52864   5.074   1.272   3.660  0.2351  0.8143  0.1822
  384MOL0     C52865   4.976   1.255   3.782  0.6450  0.4760 -0.8885
  384MOL0     C52866   4.880   1.379   3.801 -0.6539 -0.5090 -0.3288
  384MOL0     C52867   4.775   1.391   3.696  0.4863 -1.1445 -0.5719
  384MOL0     C52868   4.678   1.503   3.742  0.1896  0.0169  0.2361
  384MOL0     C52869   4.606   1.493   3.875  0.2776  1.7999  0.0162
  384MOL0     C52870   4.482   1.585   3.883  0.4140  0.0213 -0.8248
  384MOL0     N52871   4.506   1.731   3.857 -0.3339 -0.1072  0.5241
  384MOL0     C52872   4.622   1.804   3.867 -1.0481 -0.6226 -0.1536
  384MOL0     C52873   4.604   1.912   3.800  0.5823  0.2352 -1.0968
  384MOL0     C52874   4.711   2.012   3.791 -0.3290 -0.6868  0.0770
  384MOL0     C52875   4.694   2.117   3.687  0.3493 -0.4237 -0.2204
  384MOL0     C52876   4.760   2.251   3.711 -0.3853  0.1532  0.6778
  384MOL0     C52877   4.886   2.247   3.808  0.3945 -0.3625 -0.2126
  384MOL0     O52878   4.980   2.153   3.760  0.2791 -0.1408  0.0021
  384MOL0     C52879   5.108   2.155   3.809 -0.1990  0.2510 -0.1907
  384MOL0     C52880   5.200   2.058   3.749  0.0098  0.2676 -0.4573
  384MOL0     C52881   5.330   2.050   3.789 -0.5759  0.5265  0.9525
  384MOL0     C52882   5.415   1.956   3.716  0.1670  0.0508  0.0805
  384MOL0     C52883   5.381   2.131   3.895 -0.0327  0.1374 -0.4708
  384MOL0     C52884   5.515   2.123   3.961 -0.6659  0.1477 -0.2123
  384MOL0     O52885   5.551   2.219   4.048  0.2889 -0.4307  0.1823
  384MOL0     C52886   5.661   2.200   4.121  0.4767 -0.0289  0.2432
  384MOL0     C52887   5.691   2.085   4.201  0.3085 -0.8104 -0.0302
  384MOL0     C52888   5.803   2.088   4.295 -0.1915 -0.9882  0.4602
  384MOL0     C52889   5.881   2.203   4.297 -0.1288 -0.8974  0.3546
  384MOL0     O52890   5.995   2.229   4.377 -0.4641  0.0745  0.8848
  384MOL0     C52891   6.045   2.116   4.440  0.0685 -0.1233 -0.4194
  384MOL0     C52892   6.169   2.135   4.515 -1.3687  0.2677  0.5471
  384MOL0     C52893   6.288   2.173   4.420 -1.0601 -0.6101 -0.5035
  384MOL0     C52894   6.425   2.190   4.495 -0.5435 -0.0527 -0.7694
  384MOL0     C52895   6.473   2.069   4.562 -0.2482  0.3706  0.0847
  384MOL0     C52896   6.616   2.059   4.609 -0.8676 -1.0124 -0.5736
  384MOL0     C52897   6.660   2.184   4.687 -0.3207  0.2593  0.6101
  384MOL0     C52898   6.763   2.153   4.802 -0.7286  0.7324 -0.1668
  384MOL0    Cl52899   6.751   2.293   4.922  0.4379 -0.0572 -0.0052
  384MOL0     C52900   5.850   2.302   4.208 -0.3356 -0.0493 -0.0373
  384MOL0     C52901   5.746   2.303   4.120  0.9446 -0.0404  0.2974
  384MOL0     O52902   5.588   2.027   3.923 -0.0097 -0.0756 -0.2534
  384MOL0     C52903   5.300   2.230   3.945 -0.6377  0.3765 -0.2050
  384MOL0     C52904   5.161   2.234   3.912 -0.9872  0.2261  0.0482
  384MOL0     N52905   4.467   1.920   3.772 -0.1835 -0.3536 -0.5646
  384MOL0     N52906   4.413   1.809   3.806  0.2218 -0.6331 -0.4282
  384MOL0     C52907   5.411   1.005   3.838 -0.6344 -0.1674 -0.2093
  384MOL0     C52908   5.553   1.013   3.858  0.6618  0.5626 -0.2117
  384MOL0     C52909   5.969   1.062   3.873 -0.1193  0.1727 -0.2017
  384MOL0     C52910   6.040   0.951   3.922 -0.3297  0.1385 -0.8319
  384MOL0     C52911   6.176   0.945   3.905 -0.0952  0.8201 -0.0908
  384MOL0     C52912   6.251   1.049   3.845  1.4764  0.1448  0.4839
  384MOL0     O52913   6.387   1.043   3.816 -0.3993  0.1709 -0.0710
  384MOL0     C52914   6.452   0.921   3.857  0.7687 -0.8500 -0.4374
  384MOL0     C52915   6.599   0.934   3.811  0.2232 -0.6338 -0.5933
  384MOL0     C52916   6.674   0.813   3.850  0.0571  0.1920 -0.1706
  384MOL0     C52917   6.816   0.811   3.786 -0.0145  0.5221 -0.5497
  384MOL0     C52918   6.902   0.694   3.811 -0.2776 -0.1180  0.2605
  384MOL0     C52919   6.964   0.597   3.841  0.6801 -0.2093  0.2742
  384MOL0     C52920   6.179   1.162   3.797  0.2871  0.0539 -0.7049
  384MOL0     C52921   6.038   1.166   3.811 -0.5225 -0.8049  1.0834
  384MOL0     C52922   5.968   1.288   3.749  0.3298  0.7371 -0.2849
  384MOL0     H52923   5.619   1.277   3.660  1.6366  0.7074  0.8323
  384MOL0     H52924   5.365   1.280   3.640 -0.1106  1.6228  1.4540
  384MOL0     H52925   5.061   1.063   3.604 -2.7683  2.9193  2.1262
  384MOL0     H52926   5.211   1.137   3.554 -1.5207 -2.7306 -1.9164
  384MOL0     H52927   5.148   1.346   3.692 -1.0620  1.2916  2.3438
  384MOL0     H52928   5.032   1.306   3.565 -1.8655  1.8540  1.3954
  384MOL0     H52929   4.907   1.171   3.766  2.0895 -0.3911 -2.9099
  384MOL0     H52930   5.035   1.240   3.873  0.4950 -1.6082 -1.0964
  384MOL0     H52931   4.831   1.356   3.896 -4.2932  0.2643 -1.8406
  384MOL0     H52932   4.939   1.471   3.807  1.3949 -1.7650 -0.1775
  384MOL0     H52933   4.719   1.298   3.681 -0.3735 -0.9118  1.0178
  384MOL0     H52934   4.816   1.413   3.597  2.0540 -0.4964  0.2027
  384MOL0     H52935   4.738   1.593   3.757 -0.6890  0.7654 -0.6135
  384MOL0     H52936   4.607   1.523   3.661  2.6296 -0.5383 -2.1898
  384MOL0     H52937   4.678   1.516   3.954  2.1335  0.8720 -1.3450
  384MOL0     H52938   4.575   1.390   3.895  1.8544  1.0798 -1.0194
  384MOL0     H52939   4.404   1.552   3.814  0.0869 -2.1025  0.4591
  384MOL0     H52940   4.439   1.573   3.983 -1.2718 -2.4571 -1.7405
  384MOL0     H52941   4.709   1.764   3.918 -2.2250 -2.2826  0.6558
  384MOL0     H52942   4.808   1.968   3.763  0.0786  0.0600  0.2986
  384MOL0     H52943   4.712   2.054   3.892 -1.4558  0.5367 -0.4042
  384MOL0     H52944   4.717   2.079   3.587 -0.7373 -0.1500 -0.5862
  384MOL0     H52945   4.588   2.144   3.688  0.6875  1.0041  1.3211
  384MOL0     H52946   4.788   2.298   3.617 -0.0981 -2.3698 -0.5921
  384MOL0     H52947   4.693   2.322   3.760 -1.3856  1.1490 -1.9744
  384MOL0     H52948   4.938   2.343   3.802  0.6050 -0.4714 -0.0954
  384MOL0     H52949   4.848   2.226   3.909 -3.5212  2.9260 -0.7243
  384MOL0     H52950   5.166   1.981   3.681  0.8081 -0.6112  0.0998
  384MOL0     H52951   5.423   1.866   3.778  0.0421  0.2885  0.4421
  384MOL0     H52952   5.511   2.004   3.695  0.1146  1.3764  2.5379
  384MOL0     H52953   5.375   1.933   3.616 -1.0856 -0.7828  0.7414
  384MOL0     H52954   5.627   1.998   4.197 -0.9213  0.1252 -1.4513
  384MOL0     H52955   5.833   2.002   4.354  1.9587 -1.6870 -1.5230
  384MOL0     H52956   5.968   2.101   4.515 -2.7908  0.8447 -2.9485
  384MOL0     H52957   6.049   2.027   4.376  0.7124  1.7050 -3.1471
  384MOL0     H52958   6.163   2.205   4.599  0.9045 -0.8379  1.7061
  384MOL0     H52959   6.203   2.041   4.559  1.3132  0.4306 -0.9597
  384MOL0     H52960   6.267   2.270   4.373  2.4082  0.8326  0.6020
  384MOL0     H52961   6.293   2.097   4.341 -0.1567 -0.8890 -0.1810
  384MOL0     H52962   6.415   2.264   4.575 -0.2191  1.5845 -2.1852
  384MOL0     H52963   6.503   2.221   4.425  1.3656 -2.0257  0.3601
  384MOL0     H52964   6.411   2.059   4.651  2.7455  2.4517  2.6337
  384MOL0     H52965   6.468   1.991   4.486  1.4645 -0.9700  1.2909
  384MOL0     H52966   6.687   2.042   4.527  0.1337  2.9886 -0.7297
  384MOL0     H52967   6.624   1.985   4.689  0.3016  2.6284  2.9679
  384MOL0     H52968   6.581   2.226   4.750 -0.4858 -1.2735  1.4628
  384MOL0     H52969   6.695   2.263   4.619 -2.0016 -1.8978 -3.1081
  384MOL0     H52970   6.859   2.139   4.751 -0.7199  1.5800 -0.4082
  384MOL0     H52971   6.743   2.061   4.858 -0.2636 -2.0196 -4.0893
  384MOL0     H52972   5.903   2.397   4.209 -1.9328  0.9576 -2.0504
  384MOL0     H52973   5.731   2.387   4.053  1.4957  0.5476  0.8930
  384MOL0     H52974   5.336   2.299   4.021 -2.8075  0.6714  0.6294
  384MOL0     H52975   5.111   2.317   3.961 -3.0122  0.3430 -2.0268
  384MOL0     H52976   5.362   0.923   3.890  2.2846 -2.8303 -1.2968
  384MOL0     H52977   5.597   0.950   3.935 -2.6156  0.5064  1.8482
  384MOL0     H52978   5.997   0.874   3.984  1.1219 -1.8020 -2.0857
  384MOL0     H52979   6.238   0.866   3.944  1.8056  2.1768 -0.1973
  384MOL0     H52980   6.449   0.895   3.963 -0.4109 -1.7857 -0.6874
  384MOL0     H52981   6.396   0.841   3.808 -4.7889  0.8461  2.2489
  384MOL0     H52982   6.653   1.017   3.856 -3.2739  2.5918 -1.7640
  384MOL0     H52983   6.602   0.949   3.702  0.2937 -0.2098 -0.5302
  384MOL0     H52984   6.680   0.811   3.959  0.4757 -0.3344 -0.1983
  384MOL0     H52985   6.621   0.724   3.815 -2.7727  2.3766 -1.8515
  384MOL0     H52986   6.867   0.895   3.834 -1.4607 -0.7871  3.8054
  384MOL0     H52987   6.795   0.806   3.679 -3.3591  0.3425  0.0207
  384MOL0     H52988   7.021   0.510   3.867  0.3256 -0.6136 -0.2573
  384MOL0     H52989   6.226   1.241   3.740 -1.7193  0.4486 -1.9256
  384MOL0     H52990   5.910   1.254   3.663 -3.3311  2.4672  1.2907
  384MOL0     H52991   5.909   1.349   3.817 -2.4416  0.1200 -1.9912
  384MOL0     H52992   6.037   1.358   3.702  0.2842  1.0083  0.0455
  385MOL0     O52993   5.233   0.304  10.375 -0.6381  0.0216  0.5308
  385MOL0     C52994   5.267   0.275  10.262 -0.1893 -0.2392  0.3311
  385MOL0     O52995   5.399   0.256  10.213 -0.2884  0.7008 -0.3075
  385MOL0     C52996   5.504   0.238  10.300  0.1085 -0.6419 -1.1358
  385MOL0     C52997   5.491   0.193  10.439  0.0650  0.0245 -0.0294
  385MOL0     C52998   5.610   0.167  10.517  0.3610  0.4335 -0.0193
  385MOL0     C52999   5.742   0.183  10.463  0.1823  0.4117 -0.3727
  385MOL0     O53000   5.860   0.143  10.513  0.2057  0.0412 -0.3027
  385MOL0     C53001   5.887   0.170  10.653  0.7225  0.0276 -0.2425
  385MOL0     C53002   6.026   0.113  10.685 -0.0630 -0.6214  0.2386
  385MOL0     C53003   6.144   0.199  10.634 -0.8214 -0.8168 -0.0130
  385MOL0     C53004   6.279   0.129  10.667 -0.1104  0.4519  0.2763
  385MOL0     C53005   6.405   0.204  10.614 -0.3447 -0.0396 -0.3298
  385MOL0     C53006   6.544   0.150  10.658  0.9143  0.8938  0.1168
  385MOL0     C53007   6.666   0.239  10.622 -0.8543 -0.7346  0.2353
  385MOL0     C53008   6.697   0.258  10.474 -0.0500 -0.5664 -0.4058
  385MOL0     N53009   6.816   0.347  10.463 -0.2957  0.2382  0.0370
  385MOL0     C53010   6.947   0.299  10.458 -0.4581 -0.2346  0.2292
  385MOL0     C53011   7.026   0.413  10.447  0.0585  0.5264  0.2121
  385MOL0     C53012   7.175   0.420  10.472 -0.3298  0.2606 -0.6114
  385MOL0     C53013   7.214   0.363  10.615 -0.1648 -0.2340  0.9517
  385MOL0     C53014   7.366   0.375  10.646  0.5110 -0.1635 -0.5883
  385MOL0     C53015   7.476   0.367  10.539  0.5697  0.4289 -0.1576
  385MOL0     O53016   7.500   0.234  10.496 -0.2111  0.2676 -0.4127
  385MOL0     C53017   7.565   0.155  10.583  0.4177 -0.8272 -0.6231
  385MOL0     C53018   7.702   0.173  10.598  1.4461  0.6476 -0.2749
  385MOL0     C53019   7.774   0.081  10.675 -0.0624 -0.9562  0.2442
  385MOL0     C53020   7.927   0.092  10.663 -0.0403  0.9577  0.3856
  385MOL0     C53021   7.715  -0.031  10.747 -1.0994 -0.1635  0.3564
  385MOL0     C53022   7.782  -0.135  10.827 -0.3176  0.6874  0.1217
  385MOL0     O53023   7.908  -0.163  10.789  0.4769  0.2800  0.2081
  385MOL0     C53024   7.976  -0.275  10.829 -0.6615  0.7086 -0.8293
  385MOL0     C53025   8.113  -0.262  10.859  0.5117 -0.2304 -0.2318
  385MOL0     C53026   8.176  -0.374  10.914  0.4986 -0.2665  0.9729
  385MOL0     C53027   8.113  -0.492  10.937  0.2447  0.7583  0.1880
  385MOL0     O53028   8.175  -0.601  10.995  0.2918  0.2762  0.2443
  385MOL0     C53029   8.300  -0.589  11.063  0.1265 -0.5298  0.4829
  385MOL0     C53030   8.339  -0.708  11.147 -1.0464 -0.0212 -0.6126
  385MOL0     C53031   8.304  -0.850  11.094 -0.6138  0.3390  0.0724
  385MOL0     C53032   8.364  -0.976  11.167  0.0258 -0.6626  0.0597
  385MOL0     C53033   8.324  -0.981  11.317 -0.5481  0.9593 -0.2545
  385MOL0     C53034   8.165  -0.990  11.333 -0.5417  0.4097 -0.2437
  385MOL0     C53035   8.104  -1.059  11.463 -0.8135 -0.1353 -0.0903
  385MOL0     C53036   7.963  -1.003  11.490 -0.5533 -0.3616  0.1558
  385MOL0    Cl53037   7.982  -0.840  11.554  0.5259 -0.1426 -0.1165
  385MOL0     C53038   7.979  -0.505  10.894  0.2786  0.6712  0.0699
  385MOL0     C53039   7.914  -0.400  10.839  0.6539 -1.1367  1.3385
  385MOL0     O53040   7.713  -0.199  10.908 -0.8577 -0.7333 -0.3475
  385MOL0     C53041   7.571  -0.033  10.737 -0.6538  0.1032  0.0961
  385MOL0     C53042   7.503   0.052  10.653 -0.3552  0.6869 -0.2600
  385MOL0     N53043   6.938   0.521  10.448  0.5584  0.0176  0.3878
  385MOL0     N53044   6.810   0.484  10.454  0.6489  0.7793  0.5239
  385MOL0     C53045   5.752   0.235  10.334  0.5090 -0.8802 -0.5465
  385MOL0     C53046   5.638   0.264  10.258  0.0965  0.8921  0.1190
  385MOL0     C53047   5.169   0.290  10.164 -0.1854 -1.3869 -0.1101
  385MOL0     C53048   5.208   0.332  10.035 -0.2654  0.0167  0.1197
  385MOL0     C53049   5.112   0.364   9.933 -0.9280  0.0223 -0.0268
  385MOL0     C53050   4.977   0.356   9.959 -0.1201 -0.4707  0.0249
  385MOL0     O53051   4.897   0.396   9.854  0.5484 -0.2292 -0.4234
  385MOL0     C53052   4.757   0.363   9.873 -0.0791 -0.5308  0.1343
  385MOL0     C53053   4.670   0.404   9.763 -0.9453 -0.5110 -0.1214
  385MOL0     C53054   4.528   0.350   9.767  0.0100  0.3063 -0.5373
  385MOL0     C53055   4.522   0.211   9.710 -0.8718  0.5463 -0.0365
  385MOL0     C53056   4.390   0.168   9.678  0.1884  0.2285  0.0040
  385MOL0     C53057   4.277   0.116   9.656  0.5779 -0.5894  0.8130
  385MOL0     C53058   4.939   0.317  10.089 -0.2151 -0.6148  0.5977
  385MOL0     C53059   5.031   0.280  10.193 -1.2996  0.8115 -0.5210
  385MOL0     C53060   4.978   0.232  10.327  0.0357  0.3105  0.7821
  385MOL0     H53061   5.397   0.176  10.490  2.3029  0.1246  4.7045
  385MOL0     H53062   5.604   0.128  10.618 -0.9846 -1.4559 -0.7720
  385MOL0     H53063   5.816   0.123  10.721  1.0100  1.3601  1.0166
  385MOL0     H53064   5.885   0.276  10.680 -1.4314 -0.0161 -0.0447
  385MOL0     H53065   6.035   0.100  10.793 -2.2705  1.6382  0.7848
  385MOL0     H53066   6.029   0.017  10.633  2.9295 -0.0020 -0.9715
  385MOL0     H53067   6.128   0.204  10.526 -2.6801  0.5326  0.2886
  385MOL0     H53068   6.139   0.299  10.676 -1.0875 -1.6679  2.1017
  385MOL0     H53069   6.286   0.122  10.776 -3.0610  2.0262  0.6773
  385MOL0     H53070   6.274   0.030  10.622  0.9858  0.2187  0.6524
  385MOL0     H53071   6.404   0.310  10.643 -0.6610  0.0663 -0.7169
  385MOL0     H53072   6.393   0.190  10.506  1.6716 -2.2703 -0.3282
  385MOL0     H53073   6.549   0.121  10.763  1.4510 -1.5110 -0.5049
  385MOL0     H53074   6.556   0.055  10.604  1.7750 -0.0762  1.9391
  385MOL0     H53075   6.752   0.192  10.671  1.3992  3.2547  0.5035
  385MOL0     H53076   6.659   0.337  10.668  1.8634 -1.3728  2.2217
  385MOL0     H53077   6.713   0.161  10.425  0.4628 -0.4696 -0.4301
  385MOL0     H53078   6.618   0.310  10.420  1.3670  1.0970 -0.9502
  385MOL0     H53079   6.984   0.197  10.460 -0.0636 -0.2391 -2.9694
  385MOL0     H53080   7.199   0.527  10.470  1.3158 -0.0394  0.3547
  385MOL0     H53081   7.223   0.370  10.388  2.1517  2.3233 -0.5557
  385MOL0     H53082   7.163   0.417  10.695 -0.5948  2.4808 -1.0092
  385MOL0     H53083   7.190   0.257  10.629  3.3782 -1.5248 -1.2032
  385MOL0     H53084   7.375   0.480  10.674  2.7944 -1.3695  4.0441
  385MOL0     H53085   7.390   0.314  10.733  0.1300  0.9758  0.3394
  385MOL0     H53086   7.451   0.417  10.445  1.9208  2.6353  0.5545
  385MOL0     H53087   7.563   0.414  10.587 -0.9618  2.0809  1.1446
  385MOL0     H53088   7.754   0.252  10.544 -0.0973  0.5145 -2.0256
  385MOL0     H53089   7.976   0.035  10.584  0.1210  3.7115 -1.6559
  385MOL0     H53090   7.972   0.072  10.761 -3.8068  0.6955  2.2119
  385MOL0     H53091   7.943   0.197  10.637  1.1212  0.7679  0.2604
  385MOL0     H53092   8.159  -0.164  10.856 -1.3945  0.7291  0.0308
  385MOL0     H53093   8.278  -0.372  10.949  0.7905 -0.9119  0.1834
  385MOL0     H53094   8.373  -0.574  10.983 -2.9364 -2.7922 -3.0618
  385MOL0     H53095   8.302  -0.493  11.116 -2.8929  1.3417 -2.3695
  385MOL0     H53096   8.444  -0.707  11.175 -1.6001 -0.9779  1.8386
  385MOL0     H53097   8.292  -0.694  11.245  2.4853 -1.6112  1.4975
  385MOL0     H53098   8.327  -0.866  10.988  0.4516 -2.3641  0.6306
  385MOL0     H53099   8.195  -0.860  11.105 -0.2373 -1.3005  4.1316
  385MOL0     H53100   8.474  -0.972  11.164  0.0017  3.1682 -0.1815
  385MOL0     H53101   8.327  -1.065  11.115  1.6298 -1.7093  0.6424
  385MOL0     H53102   8.355  -1.073  11.369  1.1981  1.3422 -0.5493
  385MOL0     H53103   8.363  -0.891  11.365  2.3161 -0.7791  0.9161
  385MOL0     H53104   8.125  -1.047  11.249  1.3674 -1.4870  0.0374
  385MOL0     H53105   8.126  -0.888  11.333 -3.8818 -0.7510 -0.4345
  385MOL0     H53106   8.166  -1.039  11.552 -0.3293  2.6405 -0.9713
  385MOL0     H53107   8.100  -1.166  11.441  1.7711 -0.4253  0.4593
  385MOL0     H53108   7.926  -1.069  11.569  2.5925 -0.0717  2.0142
  385MOL0     H53109   7.896  -1.001  11.403  0.5298  2.2060 -0.7050
  385MOL0     H53110   7.928  -0.599  10.909  0.3790  0.2971 -1.7287
  385MOL0     H53111   7.808  -0.401  10.817  0.7882 -1.2916  0.6706
  385MOL0     H53112   7.517  -0.109  10.793 -3.1294  1.6748 -0.0378
  385MOL0     H53113   7.395   0.046  10.657 -0.3162  0.3205  3.1523
  385MOL0     H53114   5.852   0.253  10.296 -0.0120 -0.4763 -1.7717
  385MOL0     H53115   5.647   0.286  10.152 -2.9628 -1.2495 -0.7189
  385MOL0     H53116   5.312   0.341  10.004 -0.7253  0.1435 -1.4508
  385MOL0     H53117   5.149   0.402   9.838  4.2061 -0.0773  1.6267
  385MOL0     H53118   4.741   0.256   9.888 -2.7518  0.0040  1.7833
  385MOL0     H53119   4.713   0.406   9.964 -1.4213  0.0199 -0.7394
  385MOL0     H53120   4.715   0.396   9.664 -3.6046  1.7805 -1.6674
  385MOL0     H53121   4.674   0.513   9.780 -0.8386 -0.4337 -0.6353
  385MOL0     H53122   4.482   0.349   9.866  0.4543  0.5385 -0.3301
  385MOL0     H53123   4.475   0.420   9.701  2.2786  1.0939 -1.6322
  385MOL0     H53124   4.573   0.140   9.777 -0.5985  1.7513  1.0763
  385MOL0     H53125   4.585   0.204   9.621  1.5200 -1.5029  1.6433
  385MOL0     H53126   4.188   0.056   9.654  0.7980 -0.9017 -1.0066
  385MOL0     H53127   4.837   0.309  10.126 -0.3022 -0.8087  0.3200
  385MOL0     H53128   5.039   0.152  10.369 -1.3743  0.0187  2.4241
  385MOL0     H53129   4.970   0.319  10.394 -2.0653  1.3671 -0.7088
  385MOL0     H53130   4.873   0.202  10.323  0.2880 -0.4960 -0.6228
  386MOL0     O53131   6.608   6.299   7.226 -0.2569  0.5931  0.6620
  386MOL0     C53132   6.562   6.214   7.305 -0.2845 -0.2879 -0.5135
  386MOL0     O53133   6.641   6.142   7.390 -0.0133  0.2349 -0.0726
  386MOL0     C53134   6.775   6.158   7.414  0.7607  0.3302 -0.1064
  386MOL0     C53135   6.849   6.275   7.386  0.1881  0.2624 -0.1669
  386MOL0     C53136   6.991   6.278   7.413  0.0552  0.5102  0.4303
  386MOL0     C53137   7.064   6.158   7.452  0.4006 -0.5755  0.7451
  386MOL0     O53138   7.201   6.146   7.452 -0.3493 -0.1469 -0.2465
  386MOL0     C53139   7.279   6.264   7.436 -0.0697 -0.3050 -0.2586
  386MOL0     C53140   7.439   6.243   7.434 -1.2464  0.4532 -0.4255
  386MOL0     C53141   7.476   6.135   7.333  0.6868  0.1943  0.0300
  386MOL0     C53142   7.626   6.093   7.333  0.0933  0.4758 -0.1847
  386MOL0     C53143   7.714   6.180   7.243 -0.0392 -0.8861  0.2875
  386MOL0     C53144   7.770   6.303   7.316 -0.8550  0.1647  0.4587
  386MOL0     C53145   7.869   6.380   7.226  0.2588 -0.8315 -0.6099
  386MOL0     C53146   7.793   6.473   7.136  0.3553 -0.7008  0.3157
  386MOL0     N53147   7.889   6.562   7.067 -0.0158 -0.0326  0.0492
  386MOL0     C53148   7.995   6.526   6.983  0.4316  0.3339 -0.2904
  386MOL0     C53149   8.038   6.651   6.941 -0.4446  0.3721  0.8419
  386MOL0     C53150   8.150   6.675   6.856 -0.2197 -0.5835 -0.2016
  386MOL0     C53151   8.294   6.628   6.892 -0.7220  0.8026  0.1855
  386MOL0     C53152   8.393   6.670   6.791 -0.0883  0.3243 -0.3975
  386MOL0     C53153   8.510   6.580   6.774  0.6032 -0.7494  0.4673
  386MOL0     O53154   8.579   6.579   6.903 -0.0053  0.8336 -0.5016
  386MOL0     C53155   8.705   6.529   6.906  0.5302  0.5481  0.2530
  386MOL0     C53156   8.768   6.457   6.808  0.5260  0.7325  0.0096
  386MOL0     C53157   8.901   6.404   6.815  0.4480 -0.9397 -0.6581
  386MOL0     C53158   8.928   6.295   6.719  0.6330 -0.3456 -0.0824
  386MOL0     C53159   8.983   6.444   6.929  0.6690  0.8550 -0.3001
  386MOL0     C53160   9.120   6.398   6.948 -0.4200  0.1852  0.2121
  386MOL0     O53161   9.181   6.440   7.060  0.0137 -0.3172 -0.1890
  386MOL0     C53162   9.313   6.417   7.074 -0.5730 -0.0153 -0.5738
  386MOL0     C53163   9.412   6.453   6.991  0.6179 -0.6727 -0.2392
  386MOL0     C53164   9.545   6.430   7.021  0.6675 -0.2890  0.9821
  386MOL0     C53165   9.578   6.380   7.143  0.3010  0.1607  0.4092
  386MOL0     O53166   9.708   6.366   7.168 -0.1557  0.4129  0.3128
  386MOL0     C53167   9.757   6.384   7.303 -0.0720  0.5219 -0.1143
  386MOL0     C53168   9.880   6.470   7.288  0.0965 -0.3455 -0.1255
  386MOL0     C53169   9.955   6.501   7.415 -0.6859 -0.2691  1.3388
  386MOL0     C53170  10.066   6.594   7.372  0.5179 -0.4583  0.8496
  386MOL0     C53171  10.195   6.522   7.349 -0.0469 -0.3794  0.0890
  386MOL0     C53172  10.312   6.621   7.313 -0.4813 -0.6042 -0.2082
  386MOL0     C53173  10.448   6.590   7.370  0.3802  0.7559  0.2916
  386MOL0     C53174  10.557   6.696   7.331  0.2284  0.3699  0.3284
  386MOL0    Cl53175  10.700   6.660   7.438 -0.0579  0.1032 -0.1953
  386MOL0     C53176   9.472   6.341   7.233  0.2985 -0.0770  0.2111
  386MOL0     C53177   9.342   6.354   7.196  0.1889  0.4927 -0.3802
  386MOL0     O53178   9.169   6.325   6.865  0.4627  0.0545  0.4967
  386MOL0     C53179   8.927   6.531   7.019  1.1197  0.1186  0.2455
  386MOL0     C53180   8.790   6.572   7.008  0.5654  0.0271 -0.6210
  386MOL0     N53181   7.968   6.748   7.008 -0.5357  0.4254  0.1149
  386MOL0     N53182   7.869   6.699   7.069  0.4812  1.0104 -0.0829
  386MOL0     C53183   6.988   6.048   7.467 -0.4428 -0.9838 -0.7360
  386MOL0     C53184   6.853   6.045   7.445  0.9211 -0.1685 -0.0315
  386MOL0     C53185   6.413   6.189   7.309  0.0267  0.5870  0.0211
  386MOL0     C53186   6.335   6.279   7.239 -0.2062  0.5756  0.1916
  386MOL0     C53187   6.194   6.269   7.243  0.7099 -0.2210  0.3569
  386MOL0     C53188   6.132   6.161   7.307 -0.8685  0.6602  0.3537
  386MOL0     O53189   5.994   6.136   7.313 -0.3664 -0.5961  0.4133
  386MOL0     C53190   5.904   6.251   7.312 -0.6702 -0.0376  0.1384
  386MOL0     C53191   5.870   6.298   7.453 -0.4810  0.5676 -0.1618
  386MOL0     C53192   5.779   6.201   7.526  0.6764 -0.8652  0.4710
  386MOL0     C53193   5.820   6.191   7.677 -0.5962 -0.6102  0.5008
  386MOL0     C53194   5.805   6.325   7.744  0.5245 -0.6685  0.5346
  386MOL0     C53195   5.773   6.428   7.789 -0.1317 -1.0313  0.2481
  386MOL0     C53196   6.213   6.062   7.363  0.2310  0.2533  0.6019
  386MOL0     C53197   6.353   6.077   7.368 -0.2376 -0.3861  1.3428
  386MOL0     C53198   6.424   5.948   7.411  0.5870 -0.6900 -0.2439
  386MOL0     H53199   6.802   6.367   7.354  0.3996  0.0061 -1.2419
  386MOL0     H53200   7.042   6.367   7.380 -0.1669  0.6834  0.5550
  386MOL0     H53201   7.261   6.338   7.514 -0.8552 -1.4080  0.6303
  386MOL0     H53202   7.264   6.310   7.338  2.0747 -0.8822 -0.9122
  386MOL0     H53203   7.482   6.338   7.403 -3.1812  1.7895  0.7678
  386MOL0     H53204   7.480   6.205   7.528  2.0918 -2.2060 -2.7132
  386MOL0     H53205   7.422   6.045   7.364 -0.9346  2.1774  3.6135
  386MOL0     H53206   7.437   6.167   7.236 -0.2112  2.5326  1.0709
  386MOL0     H53207   7.665   6.098   7.435 -1.9676  0.6075  0.6432
  386MOL0     H53208   7.632   5.987   7.309  4.4019  0.3199  0.7476
  386MOL0     H53209   7.654   6.216   7.159  0.4621  0.2467  0.3925
  386MOL0     H53210   7.797   6.117   7.210  0.7069  0.7800 -1.2238
  386MOL0     H53211   7.686   6.369   7.341 -2.0155 -1.2240  0.3928
  386MOL0     H53212   7.817   6.270   7.409  1.0557 -0.7036 -0.7589
  386MOL0     H53213   7.920   6.314   7.156  0.4731 -0.6119 -0.6616
  386MOL0     H53214   7.920   6.447   7.295 -2.8169 -1.1065  2.1650
  386MOL0     H53215   7.726   6.429   7.062  0.6425 -1.2338  0.3695
  386MOL0     H53216   7.732   6.548   7.187 -0.4236  2.0825 -4.1735
  386MOL0     H53217   8.028   6.428   6.953 -0.0705  0.2984 -0.7429
  386MOL0     H53218   8.160   6.783   6.838  0.0236 -0.8718 -1.9087
  386MOL0     H53219   8.124   6.638   6.757 -2.6070 -2.0248  0.8744
  386MOL0     H53220   8.324   6.673   6.987  1.6823  2.2387 -1.1771
  386MOL0     H53221   8.304   6.519   6.899  0.6748  0.8442 -0.7745
  386MOL0     H53222   8.343   6.663   6.694  1.8188 -2.4094 -1.3062
  386MOL0     H53223   8.415   6.774   6.817 -0.2159  0.7318 -1.7865
  386MOL0     H53224   8.478   6.479   6.750  1.5739 -0.7399 -1.0233
  386MOL0     H53225   8.573   6.598   6.686  1.0626 -2.4314  0.4196
  386MOL0     H53226   8.701   6.423   6.730 -1.3786 -0.0330  1.8586
  386MOL0     H53227   8.835   6.264   6.670  1.4521  0.8015 -2.5359
  386MOL0     H53228   8.971   6.209   6.770 -2.9021 -2.5352 -0.4515
  386MOL0     H53229   8.999   6.317   6.639 -1.5516  0.0415 -2.0461
  386MOL0     H53230   9.377   6.478   6.892 -0.5363 -3.7371 -0.7260
  386MOL0     H53231   9.613   6.454   6.940  0.1614 -1.3913  0.2156
  386MOL0     H53232   9.683   6.439   7.362  0.1739 -0.7758  1.4731
  386MOL0     H53233   9.787   6.294   7.357  0.4531  0.8470  0.1340
  386MOL0     H53234   9.945   6.416   7.218  0.5705 -1.0868  0.8465
  386MOL0     H53235   9.833   6.557   7.243 -1.1202 -1.4029 -0.9775
  386MOL0     H53236  10.005   6.416   7.461  0.5201  0.8421  2.1520
  386MOL0     H53237   9.880   6.549   7.478 -1.4837  0.0944  0.1406
  386MOL0     H53238  10.077   6.653   7.464  2.9487 -2.4265  1.9309
  386MOL0     H53239  10.037   6.643   7.278 -0.6729 -2.0226  0.3561
  386MOL0     H53240  10.224   6.476   7.444  0.6861 -1.3764 -0.5970
  386MOL0     H53241  10.188   6.441   7.275 -2.4123  1.3659 -1.7712
  386MOL0     H53242  10.273   6.717   7.349 -1.1755 -0.8456 -0.2995
  386MOL0     H53243  10.311   6.625   7.203 -1.1597  0.2627 -0.1869
  386MOL0     H53244  10.480   6.494   7.329 -1.7368  0.6471 -1.2595
  386MOL0     H53245  10.434   6.587   7.479  1.5725  1.7307  0.5007
  386MOL0     H53246  10.528   6.802   7.327 -1.7741 -0.1119  0.8071
  386MOL0     H53247  10.586   6.677   7.228  1.3756  0.4406  0.6284
  386MOL0     H53248   9.517   6.294   7.320  0.6303 -0.7897 -0.3423
  386MOL0     H53249   9.274   6.307   7.267  0.0761 -0.6513 -1.2101
  386MOL0     H53250   8.978   6.558   7.111  1.8058 -0.0579 -0.0838
  386MOL0     H53251   8.753   6.640   7.083 -1.9385 -0.9799 -0.8416
  386MOL0     H53252   7.035   5.953   7.490 -0.7995 -1.0775 -0.3944
  386MOL0     H53253   6.804   5.948   7.449 -2.1496  1.2352 -0.2048
  386MOL0     H53254   6.371   6.369   7.191 -2.8411 -0.2044 -3.7422
  386MOL0     H53255   6.139   6.347   7.191 -2.0282 -1.8367  0.6381
  386MOL0     H53256   5.955   6.330   7.256  0.8838 -1.0778  0.0220
  386MOL0     H53257   5.813   6.233   7.253 -0.2610  0.9997 -0.8614
  386MOL0     H53258   5.817   6.391   7.429  0.4304  1.6671  1.9118
  386MOL0     H53259   5.965   6.317   7.504 -0.2535 -0.0833 -0.3308
  386MOL0     H53260   5.674   6.224   7.504  0.5311 -2.1465 -0.3152
  386MOL0     H53261   5.792   6.103   7.478 -1.3180 -1.5499  1.2142
  386MOL0     H53262   5.927   6.167   7.667  0.2254  2.9160 -0.7069
  386MOL0     H53263   5.760   6.114   7.727 -2.7689  2.2932  2.7253
  386MOL0     H53264   5.773   6.528   7.828  0.1857 -1.5641  1.6921
  386MOL0     H53265   6.171   5.970   7.401  1.8324 -0.4702  0.6796
  386MOL0     H53266   6.505   5.930   7.340 -0.3099 -1.0540 -1.2086
  386MOL0     H53267   6.465   5.960   7.512 -0.5909  1.1307  0.0786
  386MOL0     H53268   6.354   5.864   7.405  0.2044 -0.3579 -0.4587
  387MOL0     O53269   0.140   9.785   5.648  0.0050  0.1192 -0.4390
  387MOL0     C53270   0.161   9.855   5.552  0.2295  0.1442 -0.0405
  387MOL0     O53271   0.278   9.854   5.482  0.0611 -0.4640 -0.4109
  387MOL0     C53272   0.397   9.830   5.544  0.2731  0.4278 -0.6352
  387MOL0     C53273   0.504   9.786   5.468  0.2509 -0.7759  0.9005
  387MOL0     C53274   0.632   9.786   5.529 -0.2807  0.2008 -0.1907
  387MOL0     C53275   0.655   9.828   5.663 -0.9931 -0.4053  0.6279
  387MOL0     O53276   0.783   9.811   5.713  0.2902  0.2744 -0.2484
  387MOL0     C53277   0.832   9.907   5.818 -0.1058  0.4000  1.5187
  387MOL0     C53278   0.982   9.898   5.832 -0.2513 -0.3997  0.2611
  387MOL0     C53279   1.067   9.935   5.713 -0.3462 -0.5016 -0.2450
  387MOL0     C53280   1.220   9.940   5.744 -0.4999  0.1357  0.2560
  387MOL0     C53281   1.302  10.012   5.637  0.3310 -0.1750 -0.2163
  387MOL0     C53282   1.311   9.938   5.504  0.2880  0.0901  0.4158
  387MOL0     C53283   1.357  10.029   5.386 -0.8981  0.3967 -0.1843
  387MOL0     C53284   1.511  10.054   5.396 -0.3716 -0.1232 -0.6212
  387MOL0     N53285   1.539  10.197   5.360  0.0353 -0.8246  0.5611
  387MOL0     C53286   1.617  10.241   5.258 -0.0606 -0.2871 -0.1383
  387MOL0     C53287   1.618  10.379   5.270  0.6313  0.1311 -0.4893
  387MOL0     C53288   1.695  10.478   5.187  0.3828  0.3812  0.7947
  387MOL0     C53289   1.765  10.578   5.279  0.7311 -0.4435  0.1279
  387MOL0     C53290   1.836  10.695   5.204 -0.8402  0.3921  0.4027
  387MOL0     C53291   1.978  10.650   5.169 -0.6089 -0.1825  0.4554
  387MOL0     O53292   2.056  10.629   5.288  0.6680 -0.0652 -0.0570
  387MOL0     C53293   2.178  10.571   5.270 -0.3186 -0.4304  0.0281
  387MOL0     C53294   2.214  10.496   5.379  0.7524  0.0508  0.6136
  387MOL0     C53295   2.327  10.418   5.372 -0.5127  0.2700  0.2158
  387MOL0     C53296   2.338  10.330   5.493  0.0904 -0.3160 -0.8346
  387MOL0     C53297   2.424  10.427   5.270  0.2239 -1.0389  0.0326
  387MOL0     C53298   2.553  10.347   5.259 -0.3187  0.3594 -0.0894
  387MOL0     O53299   2.629  10.326   5.366  0.1686  0.3299 -0.8384
  387MOL0     C53300   2.756  10.274   5.341  0.6762  0.8887  0.1590
  387MOL0     C53301   2.781  10.149   5.273  0.6512 -0.6029 -1.0138
  387MOL0     C53302   2.918  10.124   5.242  0.6242  0.0178 -0.8525
  387MOL0     C53303   3.025  10.206   5.284  0.7089  0.4225 -0.0255
  387MOL0     O53304   3.153  10.161   5.269  0.1928 -0.9017 -0.2142
  387MOL0     C53305   3.243  10.271   5.247 -0.3282 -0.1503 -0.2062
  387MOL0     C53306   3.372  10.214   5.195 -0.1878 -0.3233  0.2725
  387MOL0     C53307   3.473  10.325   5.198 -0.2537 -0.6173  0.2520
  387MOL0     C53308   3.541  10.345   5.336 -0.5563  0.4541  0.1915
  387MOL0     C53309   3.675  10.418   5.317  0.2034 -0.0539  0.5912
  387MOL0     C53310   3.779  10.356   5.218 -0.8287 -0.1936 -1.2423
  387MOL0     C53311   3.911  10.419   5.232 -0.7764 -0.4927  0.4982
  387MOL0     C53312   4.019  10.339   5.160 -0.6242 -0.0555 -0.1576
  387MOL0    Cl53313   4.155  10.429   5.231 -0.4110  0.3355 -0.4193
  387MOL0     C53314   2.985  10.310   5.364 -1.0899 -0.1686 -0.5093
  387MOL0     C53315   2.860  10.347   5.392 -0.7709  0.2862 -0.5693
  387MOL0     O53316   2.572  10.310   5.145 -0.4242  0.4254 -0.5696
  387MOL0     C53317   2.391  10.517   5.171  0.5723  0.6527 -0.1735
  387MOL0     C53318   2.272  10.582   5.164  0.1341  0.2881  0.7054
  387MOL0     N53319   1.537  10.411   5.373  0.6509 -0.1509 -0.5571
  387MOL0     N53320   1.489  10.300   5.427 -0.7425  0.3720  0.0919
  387MOL0     C53321   0.552   9.862   5.737  1.2435 -0.9097 -0.1278
  387MOL0     C53322   0.420   9.869   5.683  0.1856  0.4129  1.0691
  387MOL0     C53323   0.047   9.937   5.509 -0.8409 -0.4815  0.4593
  387MOL0     C53324  -0.072   9.932   5.582 -0.8271  0.5821  0.4764
  387MOL0     C53325  -0.189  10.001   5.545  0.0568  0.1852  0.3603
  387MOL0     C53326  -0.195  10.080   5.433  0.0692  0.0100  0.8392
  387MOL0     O53327  -0.305  10.162   5.385 -0.2966 -0.1904  0.1467
  387MOL0     C53328  -0.436  10.141   5.435 -0.6175 -0.6242  0.6032
  387MOL0     C53329  -0.517  10.281   5.448  0.2241 -0.3669 -0.3189
  387MOL0     C53330  -0.657  10.253   5.500 -0.3946 -0.5530  0.0478
  387MOL0     C53331  -0.739  10.384   5.516  0.3648 -0.4275 -0.2936
  387MOL0     C53332  -0.876  10.347   5.539  0.2488  0.8194  0.0980
  387MOL0     C53333  -0.987  10.303   5.547  0.1526  0.0050 -0.4714
  387MOL0     C53334  -0.076  10.091   5.368 -1.0783 -0.1849  0.6935
  387MOL0     C53335   0.051  10.032   5.404  0.0020 -1.0459  0.5282
  387MOL0     C53336   0.161  10.029   5.305 -0.8145  0.2860  0.2565
  387MOL0     H53337   0.495   9.761   5.363 -1.3050 -2.6542  1.4247
  387MOL0     H53338   0.713   9.746   5.469 -2.1823 -0.9896 -2.1018
  387MOL0     H53339   0.784   9.886   5.914  0.1144 -1.6685  1.2141
  387MOL0     H53340   0.808  10.008   5.783 -0.2260 -0.9493 -2.9327
  387MOL0     H53341   0.999   9.964   5.918 -0.8284 -0.4035  0.3764
  387MOL0     H53342   1.012   9.795   5.853  1.1095 -0.6120 -2.3187
  387MOL0     H53343   1.045   9.859   5.636  3.2323 -3.4973  1.3658
  387MOL0     H53344   1.031  10.026   5.665 -1.5240 -1.4487 -1.2520
  387MOL0     H53345   1.231   9.983   5.844  2.5425  0.4772 -0.1475
  387MOL0     H53346   1.264   9.840   5.752  1.8462  1.2217  1.9047
  387MOL0     H53347   1.401  10.035   5.677  1.4373 -2.5304 -1.4024
  387MOL0     H53348   1.248  10.105   5.615 -1.0218 -0.5418  1.3563
  387MOL0     H53349   1.377   9.851   5.510  1.1699  0.7355  0.3483
  387MOL0     H53350   1.210   9.910   5.473  0.6259 -2.5368  1.4148
  387MOL0     H53351   1.293  10.117   5.381 -0.5662  0.7797  1.6429
  387MOL0     H53352   1.344   9.975   5.291  2.8904 -0.1764 -0.5481
  387MOL0     H53353   1.545  10.049   5.500 -1.9055 -1.9811 -0.1514
  387MOL0     H53354   1.570   9.982   5.339  0.4873 -0.6653  0.9138
  387MOL0     H53355   1.653  10.192   5.168 -2.8092  1.0454 -2.0814
  387MOL0     H53356   1.627  10.526   5.116  2.4622 -0.8494 -2.2498
  387MOL0     H53357   1.776  10.433   5.128 -1.6618  0.8748 -2.7306
  387MOL0     H53358   1.690  10.619   5.347  1.4951  2.5325 -0.6934
  387MOL0     H53359   1.841  10.529   5.341  1.6995  1.8019  0.8435
  387MOL0     H53360   1.772  10.720   5.118  2.7772  0.2969 -2.5320
  387MOL0     H53361   1.842  10.787   5.262 -0.0095  0.7438 -0.2247
  387MOL0     H53362   1.974  10.551   5.123  0.3738 -1.4652  2.9245
  387MOL0     H53363   2.013  10.721   5.094 -1.7080 -0.5929 -0.4847
  387MOL0     H53364   2.146  10.474   5.460  3.2202  0.7943  3.0262
  387MOL0     H53365   2.289  10.357   5.587  0.0326  1.0191 -1.2268
  387MOL0     H53366   2.443  10.335   5.525 -0.2008  2.5611 -0.0130
  387MOL0     H53367   2.302  10.228   5.478 -1.1134 -0.7900  3.7072
  387MOL0     H53368   2.707  10.080   5.236 -1.4237  0.4114  1.0269
  387MOL0     H53369   2.935  10.031   5.190  1.6444  0.3232 -1.0841
  387MOL0     H53370   3.205  10.352   5.183 -1.5631  0.3530  1.1263
  387MOL0     H53371   3.271  10.329   5.335 -0.7596  0.4953 -0.4824
  387MOL0     H53372   3.387  10.131   5.266  0.0943 -0.6825 -0.2008
  387MOL0     H53373   3.364  10.174   5.094 -0.9797  0.8210 -0.1330
  387MOL0     H53374   3.435  10.419   5.157 -0.6647 -0.0753  1.7833
  387MOL0     H53375   3.553  10.288   5.133  1.4277 -1.3814  2.6007
  387MOL0     H53376   3.563  10.246   5.375 -0.2777  0.6510  0.5330
  387MOL0     H53377   3.475  10.402   5.402 -1.6826 -0.6041  0.0130
  387MOL0     H53378   3.657  10.514   5.267 -2.2253 -0.6279  0.2116
  387MOL0     H53379   3.725  10.428   5.413  2.2438 -5.0571  0.3682
  387MOL0     H53380   3.752  10.387   5.116 -0.4908  3.6601 -0.2921
  387MOL0     H53381   3.788  10.249   5.241 -2.8024 -0.0773  0.3515
  387MOL0     H53382   3.936  10.431   5.338  0.6909  0.5687  0.0700
  387MOL0     H53383   3.912  10.520   5.189  0.0489 -0.1987  1.1657
  387MOL0     H53384   4.008  10.349   5.052 -1.8189  0.2379 -0.0235
  387MOL0     H53385   4.011  10.236   5.197 -0.4529 -0.0531 -0.1129
  387MOL0     H53386   3.063  10.376   5.401 -2.0137 -0.0686  1.3533
  387MOL0     H53387   2.866  10.433   5.458  0.6399  0.1294 -0.4546
  387MOL0     H53388   2.459  10.519   5.087  2.1472 -2.9247  0.8652
  387MOL0     H53389   2.246  10.630   5.070 -0.3055 -2.4740 -0.7056
  387MOL0     H53390   0.565   9.875   5.844 -1.2291  0.8564  0.0372
  387MOL0     H53391   0.340   9.906   5.747  0.0294 -0.6830  1.5246
  387MOL0     H53392  -0.077   9.874   5.674  3.7092  0.3511  0.7854
  387MOL0     H53393  -0.276   9.990   5.610 -2.7454  3.3896 -2.4264
  387MOL0     H53394  -0.498  10.066   5.386  0.4354 -1.2755  0.2295
  387MOL0     H53395  -0.434  10.104   5.538  2.0584 -2.1137  0.1042
  387MOL0     H53396  -0.526  10.313   5.344 -0.2718 -2.6233 -1.0311
  387MOL0     H53397  -0.459  10.354   5.505  1.5171  0.0066 -2.0454
  387MOL0     H53398  -0.709  10.185   5.432 -2.0663 -0.2411  0.9753
  387MOL0     H53399  -0.655  10.214   5.602  1.1286 -1.9505 -0.4678
  387MOL0     H53400  -0.732  10.447   5.427  2.0601 -4.4165 -3.2936
  387MOL0     H53401  -0.700  10.440   5.602 -1.7717  2.6800 -1.1565
  387MOL0     H53402  -1.086  10.261   5.550 -0.2799  0.9418 -1.1486
  387MOL0     H53403  -0.081  10.150   5.277  0.6267 -1.3506 -0.2133
  387MOL0     H53404   0.132  10.094   5.222 -0.4977  0.0959 -0.0036
  387MOL0     H53405   0.253  10.059   5.357 -0.3570 -1.6677  0.6291
  387MOL0     H53406   0.178   9.932   5.258  0.7557 -0.0300  1.4004
  388MOL0     O53407   2.214   7.607   3.045  0.3318 -1.1155 -0.2740
  388MOL0     C53408   2.135   7.518   3.014 -0.0721 -0.6356  0.3585
  388MOL0     O53409   2.156   7.404   2.951  0.3227 -1.0847  0.5755
  388MOL0     C53410   2.285   7.372   2.912 -0.3151 -0.6047  0.0224
  388MOL0     C53411   2.361   7.447   2.818 -0.2559  0.7135 -0.2324
  388MOL0     C53412   2.485   7.406   2.768 -0.6128 -0.6516 -1.7045
  388MOL0     C53413   2.548   7.296   2.816  0.1633  0.0741 -0.3649
  388MOL0     O53414   2.669   7.258   2.766  0.3874  0.5345 -0.1098
  388MOL0     C53415   2.738   7.156   2.847  0.7377  0.3678  0.8058
  388MOL0     C53416   2.875   7.144   2.783  0.1714  0.2089 -0.7193
  388MOL0     C53417   2.941   7.003   2.807 -0.1638 -0.1593 -0.8269
  388MOL0     C53418   3.001   6.993   2.954  0.5128  0.0042  0.1463
  388MOL0     C53419   3.051   6.854   2.992  0.0478 -0.4663 -0.5141
  388MOL0     C53420   3.188   6.831   2.943 -0.1909 -0.2958  0.2770
  388MOL0     C53421   3.216   6.685   2.966  0.2500 -0.5091  0.5422
  388MOL0     C53422   3.336   6.628   2.883  0.7204  1.7879 -0.1048
  388MOL0     N53423   3.458   6.693   2.932 -0.4083  0.6732 -0.1956
  388MOL0     C53424   3.521   6.662   3.049  0.0152  0.5563  0.0312
  388MOL0     C53425   3.636   6.736   3.051 -0.3780  0.4736 -0.0407
  388MOL0     C53426   3.761   6.721   3.133 -0.0587 -0.1075  0.7730
  388MOL0     C53427   3.744   6.708   3.280 -0.1953  0.2048 -0.5480
  388MOL0     C53428   3.693   6.569   3.330  0.5758 -1.0760  1.0101
  388MOL0     C53429   3.755   6.534   3.462  0.4330  0.1059 -0.1522
  388MOL0     O53430   3.885   6.479   3.443 -0.8345  0.1676 -0.0197
  388MOL0     C53431   3.943   6.426   3.554  0.3462  0.4337 -0.8200
  388MOL0     C53432   3.879   6.395   3.677 -0.6716 -0.5997  0.5185
  388MOL0     C53433   3.943   6.337   3.786  0.0383  0.1412  0.0801
  388MOL0     C53434   3.855   6.328   3.907  0.0933 -0.0007 -0.0126
  388MOL0     C53435   4.073   6.287   3.776 -0.8782 -0.7093 -1.0224
  388MOL0     C53436   4.140   6.210   3.878 -0.0408  0.5177  0.3255
  388MOL0     O53437   4.059   6.127   3.960 -0.4084 -0.5365  0.4373
  388MOL0     C53438   4.110   6.047   4.060 -0.5475 -0.0479 -0.4528
  388MOL0     C53439   4.016   5.937   4.098 -0.1238  0.5886  0.6976
  388MOL0     C53440   4.056   5.848   4.197 -0.1315 -0.0159  0.9440
  388MOL0     C53441   4.173   5.872   4.268 -0.2580  0.4912  0.3180
  388MOL0     O53442   4.212   5.785   4.366 -0.1003 -0.6337  0.2963
  388MOL0     C53443   4.327   5.700   4.336  0.1096 -0.3184  0.0447
  388MOL0     C53444   4.301   5.571   4.415  0.2957  0.3762 -0.2931
  388MOL0     C53445   4.413   5.476   4.398  0.7014 -0.2282  0.1168
  388MOL0     C53446   4.554   5.532   4.416 -0.4489 -0.2393 -0.2260
  388MOL0     C53447   4.672   5.439   4.418  0.9996  0.3275 -0.3007
  388MOL0     C53448   4.692   5.359   4.279 -0.2386  0.1975  0.2179
  388MOL0     C53449   4.599   5.244   4.244 -0.1183 -0.3270  0.4259
  388MOL0     C53450   4.673   5.130   4.170  0.0615 -0.0812  0.5421
  388MOL0    Cl53451   4.701   5.200   4.003 -0.1864 -0.0087 -0.0568
  388MOL0     C53452   4.259   5.976   4.232  0.0480  0.5125 -0.1486
  388MOL0     C53453   4.223   6.068   4.133  0.7056  0.6589 -0.9115
  388MOL0     O53454   4.259   6.231   3.887 -0.6750  0.1955  0.4452
  388MOL0     C53455   4.133   6.307   3.642 -0.9006  0.2172  0.9204
  388MOL0     C53456   4.073   6.378   3.537 -0.7962 -0.1440 -0.3070
  388MOL0     N53457   3.629   6.813   2.937  0.4281 -0.4024 -0.3651
  388MOL0     N53458   3.527   6.786   2.868  0.9065 -0.1179  0.1612
  388MOL0     C53459   2.481   7.227   2.913  0.1965  0.0773 -0.0827
  388MOL0     C53460   2.345   7.254   2.954  0.4791 -0.0243  0.5076
  388MOL0     C53461   1.996   7.542   3.070  0.2891  0.0392  0.0032
  388MOL0     C53462   1.905   7.432   3.081 -0.7801 -0.1928 -0.5554
  388MOL0     C53463   1.773   7.444   3.123 -0.7236  0.6840  0.2539
  388MOL0     C53464   1.726   7.573   3.156  0.4665  1.3541 -1.1444
  388MOL0     O53465   1.600   7.597   3.197  0.7330 -0.3456  0.1178
  388MOL0     C53466   1.540   7.490   3.279 -0.2723  0.4999 -0.5773
  388MOL0     C53467   1.432   7.560   3.350  0.0029 -0.3394 -0.7535
  388MOL0     C53468   1.302   7.577   3.280  1.0670 -0.2298 -0.2488
  388MOL0     C53469   1.286   7.721   3.214 -0.1144 -0.1764  0.2822
  388MOL0     C53470   1.148   7.741   3.178  0.5371 -0.8060 -0.2425
  388MOL0     C53471   1.028   7.770   3.169  0.1385  0.3121  0.1274
  388MOL0     C53472   1.809   7.679   3.149  1.1160 -0.6002  0.0547
  388MOL0     C53473   1.944   7.671   3.104 -0.4576 -0.2460 -0.0735
  388MOL0     C53474   2.024   7.803   3.081  0.8254  0.6329 -0.1353
  388MOL0     H53475   2.311   7.538   2.785 -0.7623  0.6121  0.2361
  388MOL0     H53476   2.539   7.470   2.699 -1.3462  1.8576 -0.0978
  388MOL0     H53477   2.682   7.063   2.836  3.0369 -0.8930 -1.0631
  388MOL0     H53478   2.740   7.194   2.950 -2.8816  4.6097 -0.3367
  388MOL0     H53479   2.862   7.156   2.675 -1.4071  0.1744 -0.5611
  388MOL0     H53480   2.928   7.228   2.830 -2.2942  1.9316 -0.7703
  388MOL0     H53481   2.869   6.923   2.790 -1.8355 -0.0090  4.0489
  388MOL0     H53482   3.030   6.982   2.747  0.7077 -0.6246  0.5703
  388MOL0     H53483   3.084   7.062   2.971  1.4748 -0.3886 -2.4702
  388MOL0     H53484   2.921   7.019   3.024  0.1859 -1.1238  0.2277
  388MOL0     H53485   2.978   6.781   2.956 -0.2107 -0.1202 -0.6967
  388MOL0     H53486   3.049   6.842   3.101 -1.2628 -1.5927 -0.6400
  388MOL0     H53487   3.189   6.860   2.838 -3.4170  1.7772  0.6944
  388MOL0     H53488   3.265   6.896   2.987  2.1065 -0.1691 -3.4945
  388MOL0     H53489   3.134   6.623   2.928  1.1926 -0.6473 -1.3789
  388MOL0     H53490   3.226   6.668   3.073 -0.3928 -1.2467  0.4980
  388MOL0     H53491   3.344   6.521   2.901 -2.0270  1.3444 -1.0631
  388MOL0     H53492   3.312   6.640   2.777 -0.6604 -3.5292 -0.6746
  388MOL0     H53493   3.505   6.577   3.115 -2.4481  1.4913  0.7597
  388MOL0     H53494   3.822   6.811   3.122  2.2342 -1.7317 -0.5311
  388MOL0     H53495   3.818   6.640   3.089  3.2375  2.5005 -0.1920
  388MOL0     H53496   3.837   6.731   3.334 -1.3847  2.8734  0.5095
  388MOL0     H53497   3.672   6.785   3.307 -2.0433 -1.0617 -1.7036
  388MOL0     H53498   3.584   6.571   3.328  0.5499 -1.2813  1.8483
  388MOL0     H53499   3.722   6.499   3.251 -1.0043  2.5497 -3.1708
  388MOL0     H53500   3.742   6.616   3.533  1.8222 -0.1619  0.4354
  388MOL0     H53501   3.694   6.453   3.503 -0.8800  1.7653  1.3294
  388MOL0     H53502   3.778   6.427   3.697 -0.9415 -0.6664 -0.6986
  388MOL0     H53503   3.782   6.247   3.905  0.5825 -0.7791  4.2016
  388MOL0     H53504   3.806   6.424   3.925 -1.0110 -0.5831  0.1601
  388MOL0     H53505   3.918   6.316   3.996 -1.6351 -1.0384  1.1301
  388MOL0     H53506   3.927   5.924   4.038 -0.7543 -0.9108  1.8736
  388MOL0     H53507   4.000   5.758   4.223 -1.4507  0.4195 -0.2585
  388MOL0     H53508   4.328   5.674   4.230 -0.6693  0.9051 -0.2892
  388MOL0     H53509   4.418   5.752   4.368 -0.9497 -0.0019  2.8538
  388MOL0     H53510   4.279   5.585   4.521 -4.0024 -0.9749 -0.8447
  388MOL0     H53511   4.208   5.524   4.382  0.5672 -2.3823  2.3460
  388MOL0     H53512   4.401   5.441   4.295 -1.1051  3.6214 -1.1651
  388MOL0     H53513   4.380   5.413   4.481 -0.8005  2.3806  1.6361
  388MOL0     H53514   4.558   5.570   4.518  1.4855 -0.6988 -0.0897
  388MOL0     H53515   4.579   5.620   4.357 -0.2809  0.0567  0.2826
  388MOL0     H53516   4.764   5.496   4.438  1.4755  0.0964 -1.7511
  388MOL0     H53517   4.655   5.369   4.501 -1.4341  0.0554 -0.9717
  388MOL0     H53518   4.792   5.315   4.282 -0.1328  0.4634  2.2793
  388MOL0     H53519   4.675   5.432   4.199 -1.1382 -0.0230  0.2052
  388MOL0     H53520   4.512   5.274   4.186 -0.2179  1.3077  1.3518
  388MOL0     H53521   4.563   5.207   4.341  2.8388 -1.4179  1.2247
  388MOL0     H53522   4.618   5.037   4.160 -0.1013 -0.1405  1.8186
  388MOL0     H53523   4.770   5.111   4.218  0.5293 -3.4363 -1.4839
  388MOL0     H53524   4.350   5.978   4.291 -1.5192 -1.3091  2.5514
  388MOL0     H53525   4.288   6.155   4.128 -0.3565  1.4156 -2.7420
  388MOL0     H53526   4.229   6.261   3.620 -1.8628 -1.1114 -0.7651
  388MOL0     H53527   4.123   6.387   3.441  1.0583  0.9597  0.7225
  388MOL0     H53528   2.520   7.135   2.955 -1.0083 -0.7780 -0.7944
  388MOL0     H53529   2.292   7.195   3.028 -0.0054 -1.2828 -0.8156
  388MOL0     H53530   1.934   7.335   3.043 -1.7632  0.1586 -2.2764
  388MOL0     H53531   1.720   7.350   3.138  0.1640 -0.1527 -1.5094
  388MOL0     H53532   1.504   7.400   3.228  0.7977  0.4697 -1.3022
  388MOL0     H53533   1.609   7.458   3.358 -1.0698  1.6717  0.6486
  388MOL0     H53534   1.463   7.660   3.384 -3.3095  1.2791 -2.0617
  388MOL0     H53535   1.414   7.496   3.437  1.4030  0.8415  0.4708
  388MOL0     H53536   1.297   7.502   3.201 -1.5785  0.9154 -1.2684
  388MOL0     H53537   1.221   7.550   3.348 -1.2322 -1.9029 -3.3761
  388MOL0     H53538   1.352   7.737   3.129  0.7514 -2.2672  0.4894
  388MOL0     H53539   1.305   7.790   3.297 -2.9080  0.5787  0.4007
  388MOL0     H53540   0.924   7.796   3.173 -0.5357 -1.8317 -1.3091
  388MOL0     H53541   1.777   7.778   3.181 -0.7116 -1.6957  1.7770
  388MOL0     H53542   2.104   7.810   3.155  0.8737  1.9901 -0.2987
  388MOL0     H53543   2.071   7.802   2.982  0.7472 -0.2294 -0.1717
  388MOL0     H53544   1.958   7.890   3.075 -1.3921 -0.9270  0.6039
  389MOL0     O53545   6.752   1.581   2.839  0.6807 -0.4139 -0.0956
  389MOL0     C53546   6.830   1.682   2.851  0.2306 -0.2440 -0.5321
  389MOL0     O53547   6.963   1.682   2.839  0.2954 -0.4446 -0.3707
  389MOL0     C53548   7.024   1.576   2.770  0.0240  0.0785  0.1687
  389MOL0     C53549   6.976   1.455   2.706 -0.0615 -0.4459  0.3273
  389MOL0     C53550   7.069   1.375   2.625  0.0669 -0.3299 -0.6099
  389MOL0     C53551   7.204   1.406   2.613  0.1209  0.0583  0.2294
  389MOL0     O53552   7.274   1.321   2.541  0.0498  0.7508  0.8318
  389MOL0     C53553   7.388   1.379   2.472  0.4501  0.7920 -0.6290
  389MOL0     C53554   7.523   1.354   2.556 -0.4404 -0.3636  0.4067
  389MOL0     C53555   7.657   1.321   2.475  0.4467  0.3823 -0.0383
  389MOL0     C53556   7.753   1.442   2.482  0.2907 -0.5035  0.8420
  389MOL0     C53557   7.875   1.444   2.385  0.0439 -0.1933 -0.0115
  389MOL0     C53558   7.989   1.353   2.435  0.4061  0.1084  0.6605
  389MOL0     C53559   8.091   1.329   2.314  0.5074  0.4010  0.4841
  389MOL0     C53560   8.154   1.448   2.251  0.0687 -1.1129 -0.0213
  389MOL0     N53561   8.281   1.482   2.312 -0.1308 -0.3475  0.5201
  389MOL0     C53562   8.302   1.501   2.446 -0.3577 -0.1832 -0.4889
  389MOL0     C53563   8.432   1.528   2.457  0.3111 -0.4650  0.5945
  389MOL0     C53564   8.486   1.582   2.584  0.1013 -0.9788 -1.0998
  389MOL0     C53565   8.506   1.475   2.694  0.7657 -0.4019 -0.1358
  389MOL0     C53566   8.573   1.515   2.827  0.1781 -0.4046 -0.6696
  389MOL0     C53567   8.548   1.408   2.937 -0.5192  0.1636 -0.0728
  389MOL0     O53568   8.617   1.287   2.899 -0.2927  0.3391  0.7300
  389MOL0     C53569   8.750   1.276   2.939 -0.2890  0.7293 -0.6104
  389MOL0     C53570   8.833   1.387   2.984  0.4970  0.1054  0.9940
  389MOL0     C53571   8.970   1.370   2.995 -0.3841  0.3690 -0.5466
  389MOL0     C53572   9.044   1.492   3.048  0.1385  0.1246 -0.4595
  389MOL0     C53573   9.035   1.248   2.985  0.3415  0.5758  0.6229
  389MOL0     C53574   9.174   1.224   3.020 -0.8906 -0.4825 -0.1793
  389MOL0     O53575   9.268   1.313   2.967  0.0072  0.2329  0.2123
  389MOL0     C53576   9.400   1.314   3.001  0.1040  1.2206  0.2207
  389MOL0     C53577   9.469   1.433   3.012  0.1305 -0.1888 -0.0046
  389MOL0     C53578   9.615   1.442   3.032  0.3229  0.0528  0.4535
  389MOL0     C53579   9.686   1.326   3.082 -0.7155  0.5763  1.2507
  389MOL0     O53580   9.816   1.330   3.126  0.1878 -0.3963  0.3941
  389MOL0     C53581   9.837   1.430   3.233  0.7316  0.5344 -0.4474
  389MOL0     C53582   9.982   1.423   3.262  0.7271  0.5365 -0.5075
  389MOL0     C53583  10.022   1.522   3.372 -0.4254 -0.4923 -0.5138
  389MOL0     C53584  10.171   1.520   3.386  0.3501 -0.5781  0.0755
  389MOL0     C53585  10.211   1.634   3.488  0.3851  0.2340  0.4509
  389MOL0     C53586  10.359   1.628   3.498 -0.6093  0.3159 -0.1881
  389MOL0     C53587  10.407   1.741   3.592 -0.2262  0.3296 -0.1167
  389MOL0     C53588  10.559   1.755   3.607 -0.4468 -0.2622 -0.0217
  389MOL0    Cl53589  10.632   1.758   3.441  0.0165  0.2288 -0.1974
  389MOL0     C53590   9.614   1.203   3.082  1.4691 -0.1736 -0.1809
  389MOL0     C53591   9.481   1.205   3.043  0.7046 -0.5252  0.7437
  389MOL0     O53592   9.202   1.126   3.088 -0.2622 -0.1409 -0.9549
  389MOL0     C53593   8.954   1.142   2.947 -0.1370 -0.4056  0.6574
  389MOL0     C53594   8.815   1.152   2.923 -0.6011 -0.8322 -0.3514
  389MOL0     N53595   8.492   1.524   2.328  0.2380  0.6220 -0.0290
  389MOL0     N53596   8.397   1.503   2.243 -0.5449  0.5495  0.0560
  389MOL0     C53597   7.249   1.520   2.671 -0.3509 -0.5428  0.3693
  389MOL0     C53598   7.163   1.608   2.748  0.4090 -0.3068  0.8410
  389MOL0     C53599   6.773   1.811   2.907  0.2146 -0.0796  0.0069
  389MOL0     C53600   6.858   1.897   2.980 -0.7190 -0.3387  0.7414
  389MOL0     C53601   6.816   2.024   3.009  0.9802 -0.1291 -0.0735
  389MOL0     C53602   6.684   2.073   2.993 -0.5090 -0.0843 -0.0392
  389MOL0     O53603   6.665   2.204   3.041 -0.5083  0.0146  0.1566
  389MOL0     C53604   6.529   2.239   3.056  0.2584  0.2004 -0.4468
  389MOL0     C53605   6.521   2.365   3.147  0.1088 -1.1121 -0.5939
  389MOL0     C53606   6.572   2.485   3.070  0.6729  0.4144 -0.9228
  389MOL0     C53607   6.559   2.624   3.136  0.1485 -0.4165  0.2805
  389MOL0     C53608   6.659   2.676   3.232  0.1736 -0.8516  0.9392
  389MOL0     C53609   6.735   2.704   3.316 -0.4021  0.7064 -0.1755
  389MOL0     C53610   6.592   1.972   2.950 -0.3695 -1.3049 -0.1977
  389MOL0     C53611   6.637   1.855   2.885  0.0418 -0.1121  0.4719
  389MOL0     C53612   6.532   1.768   2.823  0.2095 -0.1181 -0.0108
  389MOL0     H53613   6.875   1.421   2.725  0.3673 -2.4023 -0.6024
  389MOL0     H53614   7.036   1.286   2.571  1.5534 -1.6988  0.6583
  389MOL0     H53615   7.370   1.485   2.451  0.8206  0.5569 -2.3130
  389MOL0     H53616   7.388   1.323   2.377  2.1600  0.6748 -0.5857
  389MOL0     H53617   7.538   1.437   2.626 -0.8903  0.2481 -0.2073
  389MOL0     H53618   7.507   1.271   2.625 -1.4037 -1.0232 -0.5815
  389MOL0     H53619   7.712   1.250   2.538  3.1816  3.6386  1.5792
  389MOL0     H53620   7.636   1.283   2.375 -0.8190 -1.4109  0.8481
  389MOL0     H53621   7.694   1.528   2.450  1.2622 -0.4818 -1.0857
  389MOL0     H53622   7.790   1.455   2.584 -0.6548 -1.5676  1.3466
  389MOL0     H53623   7.902   1.550   2.381 -3.4204  0.9442  2.3246
  389MOL0     H53624   7.836   1.407   2.290 -1.3298  2.8284 -0.7504
  389MOL0     H53625   8.039   1.407   2.515  1.0737 -1.4858  1.3661
  389MOL0     H53626   7.953   1.252   2.457 -0.1334 -0.9641 -3.9335
  389MOL0     H53627   8.030   1.282   2.237 -1.2612  3.3230 -0.0434
  389MOL0     H53628   8.156   1.248   2.348 -2.9896 -2.8049  0.0696
  389MOL0     H53629   8.162   1.425   2.144  1.3403 -2.9525  0.4190
  389MOL0     H53630   8.085   1.529   2.273 -1.1141 -1.7017 -1.4410
  389MOL0     H53631   8.227   1.496   2.525  1.8065  1.8122  1.8603
  389MOL0     H53632   8.431   1.668   2.622 -0.4420 -0.8576 -2.1221
  389MOL0     H53633   8.583   1.628   2.561 -0.2282 -0.3273 -1.2035
  389MOL0     H53634   8.410   1.436   2.729 -0.4422  1.1513 -1.5444
  389MOL0     H53635   8.574   1.399   2.654 -0.3217 -2.2938  1.4030
  389MOL0     H53636   8.676   1.525   2.794  0.5602  0.1936  0.6316
  389MOL0     H53637   8.548   1.612   2.871  1.6315  0.0751 -0.8590
  389MOL0     H53638   8.584   1.444   3.034  2.7509  1.3478 -1.5688
  389MOL0     H53639   8.440   1.397   2.952 -0.3718 -1.3544 -0.0621
  389MOL0     H53640   8.798   1.487   3.005  1.5543  0.9147 -0.8696
  389MOL0     H53641   8.975   1.566   3.090  1.3863 -0.3635  2.7402
  389MOL0     H53642   9.105   1.536   2.969  0.6701 -1.3784 -0.9154
  389MOL0     H53643   9.112   1.463   3.129  2.3438  2.0449 -1.5111
  389MOL0     H53644   9.410   1.522   2.990  0.0503  0.1071  1.3585
  389MOL0     H53645   9.664   1.538   3.024  1.2324 -0.4873 -0.8042
  389MOL0     H53646   9.802   1.531   3.210 -0.0557  0.5055  0.5565
  389MOL0     H53647   9.793   1.394   3.326 -0.2867 -0.8666 -1.4215
  389MOL0     H53648   9.994   1.321   3.300  0.1539  1.0193  1.0146
  389MOL0     H53649  10.043   1.416   3.172  1.8385 -2.2171  0.3603
  389MOL0     H53650   9.971   1.501   3.466 -0.1957  2.7203  0.4722
  389MOL0     H53651   9.991   1.623   3.343  3.1284  1.1253  0.6967
  389MOL0     H53652  10.214   1.538   3.287  1.5300 -0.5599  0.5718
  389MOL0     H53653  10.200   1.421   3.422  1.0518 -2.0009 -3.9684
  389MOL0     H53654  10.174   1.731   3.451 -1.5766 -0.9820 -0.9748
  389MOL0     H53655  10.164   1.616   3.585  0.1878 -2.9203 -0.1224
  389MOL0     H53656  10.397   1.633   3.396  2.3949 -0.5521  0.7807
  389MOL0     H53657  10.389   1.528   3.530 -0.7321  0.1330 -0.6398
  389MOL0     H53658  10.361   1.729   3.690 -0.9080 -1.2673 -0.6096
  389MOL0     H53659  10.359   1.836   3.565 -1.9534 -0.5813 -0.3251
  389MOL0     H53660  10.610   1.676   3.662  0.9998 -0.3157 -1.3628
  389MOL0     H53661  10.580   1.850   3.657  0.8973 -0.2968 -0.4909
  389MOL0     H53662   9.663   1.110   3.109  0.7839 -0.3947  0.3382
  389MOL0     H53663   9.434   1.110   3.018  2.5419 -1.0656 -0.9470
  389MOL0     H53664   8.991   1.040   2.945 -2.3416 -1.2377  0.4197
  389MOL0     H53665   8.762   1.066   2.884 -0.1067  0.2747 -3.8083
  389MOL0     H53666   7.352   1.551   2.660 -0.9244  2.3700  2.1153
  389MOL0     H53667   7.213   1.688   2.803 -0.1903 -0.4786  1.6508
  389MOL0     H53668   6.963   1.882   3.001  0.1503  0.2149 -2.5424
  389MOL0     H53669   6.879   2.100   3.055 -0.7595  0.7062  1.0442
  389MOL0     H53670   6.469   2.264   2.968 -1.2727 -1.7378 -0.0043
  389MOL0     H53671   6.486   2.151   3.104 -1.2771  0.8892 -0.4931
  389MOL0     H53672   6.572   2.358   3.244 -3.3504  0.5310  1.5082
  389MOL0     H53673   6.414   2.372   3.170  0.6446  3.1177  1.4750
  389MOL0     H53674   6.674   2.468   3.035  0.7694  0.0747 -0.4785
  389MOL0     H53675   6.519   2.497   2.975  1.3083 -0.2472 -1.3681
  389MOL0     H53676   6.462   2.633   3.185 -0.3418  1.0980 -0.8713
  389MOL0     H53677   6.553   2.707   3.065  0.3830  2.1598  3.0518
  389MOL0     H53678   6.791   2.739   3.401  0.9867 -0.9961 -0.3162
  389MOL0     H53679   6.487   1.990   2.972 -0.4514 -2.9101  0.8808
  389MOL0     H53680   6.444   1.830   2.801 -1.0524 -2.3766 -1.7505
  389MOL0     H53681   6.565   1.725   2.728  0.2384  2.5760 -1.3427
  389MOL0     H53682   6.506   1.686   2.890 -1.8550  0.1201 -0.4512
  390MOL0     O53683   7.754   4.585   6.969  0.2762  0.0299  0.0032
  390MOL0     C53684   7.648   4.535   6.926 -0.7335 -0.2805 -0.0891
  390MOL0     O53685   7.637   4.465   6.816  0.1407  0.5015 -0.0972
  390MOL0     C53686   7.745   4.431   6.743 -0.6510  0.3307 -0.2462
  390MOL0     C53687   7.769   4.301   6.718 -0.1672 -0.1733  0.8779
  390MOL0     C53688   7.875   4.276   6.623 -0.4607  0.1481 -0.4943
  390MOL0     C53689   7.960   4.369   6.576  0.2195  0.0930 -0.8354
  390MOL0     O53690   8.055   4.325   6.497  0.4388  0.3478  0.3412
  390MOL0     C53691   8.135   4.412   6.421  0.4584 -0.2844  0.8824
  390MOL0     C53692   8.258   4.328   6.383  0.0963 -0.0489 -0.3050
  390MOL0     C53693   8.322   4.395   6.263 -0.8460  0.2340  0.0276
  390MOL0     C53694   8.445   4.316   6.224 -0.7509  1.0946  0.6812
  390MOL0     C53695   8.488   4.346   6.079  0.0817 -0.5592 -0.9602
  390MOL0     C53696   8.565   4.235   6.009 -0.0587 -0.6063  0.5138
  390MOL0     C53697   8.705   4.206   6.077  0.0002 -0.6841  0.0117
  390MOL0     C53698   8.794   4.327   6.089  0.7330  0.0163  0.4029
  390MOL0     N53699   8.935   4.299   6.126  0.7715 -0.1343  0.7339
  390MOL0     C53700   8.985   4.204   6.205  0.3758 -0.1946 -0.8169
  390MOL0     C53701   9.115   4.216   6.194 -1.2630 -0.1295  0.9895
  390MOL0     C53702   9.219   4.135   6.261 -0.4940 -0.3644  0.4201
  390MOL0     C53703   9.276   4.211   6.387  0.7240  0.6434 -0.1947
  390MOL0     C53704   9.383   4.117   6.446 -0.2344 -0.1333  0.1461
  390MOL0     C53705   9.461   4.169   6.561  0.1240 -0.8026 -0.2483
  390MOL0     O53706   9.579   4.242   6.511  0.5627  0.4390 -0.7108
  390MOL0     C53707   9.662   4.273   6.618  0.1829  0.3632 -0.2284
  390MOL0     C53708   9.632   4.265   6.758 -0.0559 -0.4562  0.2824
  390MOL0     C53709   9.727   4.298   6.854 -0.4264 -0.0788  0.1348
  390MOL0     C53710   9.679   4.294   6.990 -0.1605  0.1432 -0.0208
  390MOL0     C53711   9.858   4.341   6.822  0.2480 -0.3043  0.3482
  390MOL0     C53712   9.967   4.369   6.919  0.6162  0.1286  0.0076
  390MOL0     O53713  10.053   4.468   6.886 -0.3080  0.3257  0.0844
  390MOL0     C53714  10.151   4.499   6.976 -1.0358  0.2639 -0.2641
  390MOL0     C53715  10.279   4.512   6.936  0.1520 -0.5774 -0.3077
  390MOL0     C53716  10.383   4.537   7.034  0.0911  0.5576 -0.3578
  390MOL0     C53717  10.358   4.544   7.171 -0.3463  0.2078  0.3130
  390MOL0     O53718  10.464   4.589   7.252  0.4240 -0.4319 -0.6276
  390MOL0     C53719  10.455   4.580   7.397 -0.2320  0.1895  0.5319
  390MOL0     C53720  10.596   4.620   7.459 -0.3333 -0.4348 -0.9681
  390MOL0     C53721  10.714   4.534   7.403  0.1370 -0.3830 -0.2247
  390MOL0     C53722  10.838   4.568   7.491  0.3825 -0.6374 -0.3454
  390MOL0     C53723  10.959   4.504   7.440  0.3958  0.1863 -0.5121
  390MOL0     C53724  11.095   4.535   7.515  0.0622 -0.3619 -0.3231
  390MOL0     C53725  11.103   4.441   7.628 -0.5742  0.0190 -0.3281
  390MOL0     C53726  11.241   4.438   7.681 -0.9154 -0.2480  0.5622
  390MOL0    Cl53727  11.251   4.350   7.845 -0.3414  0.2175 -0.2974
  390MOL0     C53728  10.230   4.546   7.209 -0.0574 -0.2582 -0.0234
  390MOL0     C53729  10.125   4.520   7.115  0.0988  0.5102  0.2071
  390MOL0     O53730   9.971   4.298   7.018  0.7258  0.1717  0.2196
  390MOL0     C53731   9.883   4.362   6.691 -0.3443  0.5758  0.1792
  390MOL0     C53732   9.792   4.325   6.588  0.3424  0.2270 -0.2270
  390MOL0     N53733   9.145   4.315   6.102 -0.2632 -0.0747 -0.4713
  390MOL0     N53734   9.039   4.380   6.073  0.2885 -0.4061  0.7660
  390MOL0     C53735   7.928   4.508   6.601 -0.0925  0.1017 -0.2668
  390MOL0     C53736   7.824   4.534   6.687 -0.1896  0.5976  0.4845
  390MOL0     C53737   7.525   4.555   7.010  0.4817 -0.5609  0.1731
  390MOL0     C53738   7.532   4.604   7.142  0.3153  1.0349  0.8426
  390MOL0     C53739   7.420   4.622   7.225  0.6721  0.1087 -0.7984
  390MOL0     C53740   7.300   4.594   7.171 -0.4898  0.2653 -0.1897
  390MOL0     O53741   7.197   4.621   7.257  0.4197  0.4081 -0.4351
  390MOL0     C53742   7.069   4.636   7.197  0.2356 -1.0671 -0.4676
  390MOL0     C53743   6.986   4.720   7.290  0.0813  0.8888 -0.8995
  390MOL0     C53744   6.847   4.757   7.247 -0.2468  0.1175  0.5410
  390MOL0     C53745   6.753   4.635   7.241 -0.2844 -1.0935 -1.2416
  390MOL0     C53746   6.608   4.667   7.241 -0.7570  0.4028 -0.4683
  390MOL0     C53747   6.493   4.700   7.247  0.3137 -0.0479  0.4409
  390MOL0     C53748   7.287   4.544   7.044  0.3889 -0.4626  0.2359
  390MOL0     C53749   7.392   4.525   6.950  0.0569 -0.9552 -0.3366
  390MOL0     C53750   7.364   4.475   6.810 -0.1906 -0.6635 -0.2085
  390MOL0     H53751   7.716   4.218   6.764 -0.9388  0.4965  1.2337
  390MOL0     H53752   7.910   4.173   6.618 -0.9935 -0.0290 -0.6491
  390MOL0     H53753   8.171   4.497   6.479  1.1544 -1.6684  2.5546
  390MOL0     H53754   8.094   4.459   6.331  1.2190  3.0261  2.1270
  390MOL0     H53755   8.325   4.320   6.469 -0.3286 -0.9597 -0.0488
  390MOL0     H53756   8.224   4.229   6.353 -1.8970  0.1720  1.0572
  390MOL0     H53757   8.253   4.406   6.178  1.6875  2.3808 -1.9170
  390MOL0     H53758   8.352   4.497   6.289 -2.0810  0.1595  2.0364
  390MOL0     H53759   8.531   4.324   6.291 -0.6287 -1.7266  0.9589
  390MOL0     H53760   8.411   4.212   6.226  1.5530  0.3060  1.1058
  390MOL0     H53761   8.541   4.442   6.077 -2.2401  0.9969  2.3716
  390MOL0     H53762   8.394   4.354   6.025 -0.4523 -1.2716 -0.1541
  390MOL0     H53763   8.497   4.149   6.016 -2.4751  1.1634  0.1602
  390MOL0     H53764   8.573   4.258   5.902  0.6101  1.1507  0.9053
  390MOL0     H53765   8.762   4.134   6.018  2.4117  0.5912  0.6511
  390MOL0     H53766   8.676   4.173   6.177 -2.4706 -2.6053 -1.2273
  390MOL0     H53767   8.790   4.381   5.993 -2.1775 -0.9618 -0.1409
  390MOL0     H53768   8.746   4.401   6.154 -0.5627  2.1653 -2.7158
  390MOL0     H53769   8.936   4.141   6.278  0.1576  1.7392  0.7906
  390MOL0     H53770   9.305   4.118   6.197  0.3405  1.2776  1.0566
  390MOL0     H53771   9.167   4.042   6.287 -3.5764  1.5719  1.8116
  390MOL0     H53772   9.316   4.309   6.359 -0.6445  1.6803  1.2957
  390MOL0     H53773   9.193   4.234   6.455 -2.1652  1.8730 -3.7704
  390MOL0     H53774   9.326   4.031   6.484  0.8032  0.1562  2.5244
  390MOL0     H53775   9.454   4.090   6.367 -1.5897  1.6185 -1.7869
  390MOL0     H53776   9.397   4.239   6.616  0.2240 -1.1112  0.2654
  390MOL0     H53777   9.493   4.090   6.629  2.1750 -1.9273 -2.3670
  390MOL0     H53778   9.530   4.237   6.782 -0.1329 -1.5753 -1.1762
  390MOL0     H53779   9.721   4.372   7.053  0.7644  1.2248 -1.8977
  390MOL0     H53780   9.704   4.193   7.024  0.6071  0.5125  0.5287
  390MOL0     H53781   9.571   4.313   6.998 -0.6299 -1.9859 -0.5708
  390MOL0     H53782  10.298   4.499   6.830 -2.9852 -0.0383 -1.0451
  390MOL0     H53783  10.487   4.549   7.007  0.5770 -4.0833 -1.3923
  390MOL0     H53784  10.386   4.658   7.432 -1.0691  1.4629 -3.4183
  390MOL0     H53785  10.417   4.480   7.419 -0.7397  0.1125 -0.6060
  390MOL0     H53786  10.615   4.727   7.443 -0.2146  0.0110  1.7671
  390MOL0     H53787  10.590   4.616   7.568  4.3132  4.5597 -0.0839
  390MOL0     H53788  10.740   4.581   7.308  1.3613  2.2707  1.2932
  390MOL0     H53789  10.689   4.428   7.400 -1.6830  0.0281 -1.3429
  390MOL0     H53790  10.819   4.541   7.596 -1.7099  0.8966 -0.2652
  390MOL0     H53791  10.849   4.676   7.477  1.0839 -0.8220 -1.2923
  390MOL0     H53792  10.935   4.398   7.429  1.6163 -0.2659  0.9019
  390MOL0     H53793  10.962   4.540   7.336 -0.6950 -5.0263 -2.6580
  390MOL0     H53794  11.100   4.640   7.546  2.2148 -0.0598 -1.4905
  390MOL0     H53795  11.178   4.524   7.445 -0.1519  0.2127 -0.6685
  390MOL0     H53796  11.077   4.339   7.599  0.2776 -0.1628 -0.4937
  390MOL0     H53797  11.038   4.471   7.711  1.3112  2.5994  0.3603
  390MOL0     H53798  11.292   4.535   7.688  0.7936 -1.2401  4.1629
  390MOL0     H53799  11.313   4.393   7.611 -2.5629  0.2150 -1.5279
  390MOL0     H53800  10.213   4.567   7.314  2.5940  0.5065  0.3306
  390MOL0     H53801  10.023   4.527   7.151 -0.7769 -0.7765 -1.8144
  390MOL0     H53802   9.984   4.388   6.659 -0.4975  0.2350 -0.6215
  390MOL0     H53803   9.830   4.339   6.488  0.1385  1.7951 -0.1030
  390MOL0     H53804   7.983   4.595   6.567 -0.1750  0.6409  0.9295
  390MOL0     H53805   7.813   4.637   6.720 -0.7551  0.6704  0.0760
  390MOL0     H53806   7.628   4.630   7.184  1.1438 -1.2111  0.4506
  390MOL0     H53807   7.412   4.646   7.330 -2.5473  0.2230 -0.9880
  390MOL0     H53808   7.081   4.685   7.099 -1.1206  1.8879  0.7160
  390MOL0     H53809   7.021   4.541   7.172  0.4455 -1.2356 -0.2357
  390MOL0     H53810   7.037   4.816   7.290  3.3940 -0.7251 -2.3475
  390MOL0     H53811   6.980   4.667   7.385  0.0149 -2.7015 -2.7241
  390MOL0     H53812   6.822   4.837   7.317  0.9268  0.8373  0.1740
  390MOL0     H53813   6.852   4.807   7.150  1.2799 -0.9430  0.0208
  390MOL0     H53814   6.775   4.582   7.334 -0.6093  1.1345  0.1698
  390MOL0     H53815   6.784   4.560   7.168 -1.0397 -1.0867 -1.5808
  390MOL0     H53816   6.392   4.733   7.256 -0.3440 -2.0891  0.9728
  390MOL0     H53817   7.193   4.492   7.025 -2.0662  2.1986  3.7508
  390MOL0     H53818   7.256   4.478   6.793 -0.1550  1.5641 -0.2926
  390MOL0     H53819   7.410   4.541   6.735 -1.7298 -1.2213 -1.7095
  390MOL0     H53820   7.402   4.373   6.800  0.4280 -0.2827 -2.1685
  391MOL0     O53821   4.786   2.897   1.127  0.1449  0.0616 -0.1798
  391MOL0     C53822   4.687   2.858   1.063 -0.2466 -0.5747  0.1939
  391MOL0     O53823   4.695   2.820   0.926  0.1415 -0.1651 -0.8377
  391MOL0     C53824   4.810   2.825   0.862 -0.8824 -0.3000  0.5682
  391MOL0     C53825   4.885   2.938   0.823 -0.5676  0.1180 -0.1499
  391MOL0     C53826   5.009   2.923   0.759 -0.3957 -0.6047  0.3155
  391MOL0     C53827   5.068   2.794   0.747  0.1918  0.6003 -0.7290
  391MOL0     O53828   5.205   2.770   0.711 -0.4173 -0.2702  0.0960
  391MOL0     C53829   5.261   2.851   0.604 -0.7312 -0.2616 -0.2578
  391MOL0     C53830   5.410   2.861   0.636 -0.8706  0.6010  0.1441
  391MOL0     C53831   5.487   2.920   0.515  0.3227  0.0492  0.0995
  391MOL0     C53832   5.640   2.918   0.543 -0.3730  0.1245 -0.2832
  391MOL0     C53833   5.721   2.982   0.432 -0.7079  0.1538  0.3733
  391MOL0     C53834   5.687   2.937   0.292  0.5819  0.3321 -0.1871
  391MOL0     C53835   5.797   2.975   0.191  0.3590  0.9080 -0.1058
  391MOL0     C53836   5.762   2.908   0.062 -0.3009  0.0408  0.1094
  391MOL0     N53837   5.867   2.942  -0.033 -0.2004 -0.5199  0.1785
  391MOL0     C53838   5.978   2.868  -0.053 -0.2959 -0.4460 -0.4413
  391MOL0     C53839   6.055   2.952  -0.117  0.2921 -0.3985  0.0963
  391MOL0     C53840   6.182   2.895  -0.182  0.9048 -0.3935 -0.4777
  391MOL0     C53841   6.202   2.944  -0.321 -0.4974 -0.5167 -0.2376
  391MOL0     C53842   6.350   2.907  -0.369  0.2375 -0.2259  0.4603
  391MOL0     C53843   6.388   2.754  -0.369  0.2890  0.3988 -0.0185
  391MOL0     O53844   6.518   2.750  -0.422  0.4905  0.1203  0.3336
  391MOL0     C53845   6.590   2.637  -0.400 -0.7775  0.1553  1.2821
  391MOL0     C53846   6.541   2.525  -0.336  0.2940 -0.0549 -0.2363
  391MOL0     C53847   6.624   2.413  -0.313 -0.2032  0.8256 -0.2249
  391MOL0     C53848   6.571   2.297  -0.232 -0.7217  1.0745 -0.4820
  391MOL0     C53849   6.762   2.414  -0.365 -0.4018  0.3160  0.0659
  391MOL0     C53850   6.846   2.291  -0.359  0.6148 -0.2381  0.0878
  391MOL0     O53851   6.910   2.262  -0.471  0.0177 -0.4797  0.0612
  391MOL0     C53852   7.007   2.171  -0.462 -0.6244  0.0930 -0.1903
  391MOL0     C53853   7.131   2.197  -0.398  0.2966 -0.1974  0.7166
  391MOL0     C53854   7.237   2.102  -0.389 -0.3802 -0.1741  0.3130
  391MOL0     C53855   7.220   1.973  -0.449  0.1049 -0.2997 -0.3125
  391MOL0     O53856   7.321   1.876  -0.451  0.0406  0.0612  0.8972
  391MOL0     C53857   7.438   1.890  -0.369 -0.4216 -0.5726  0.2797
  391MOL0     C53858   7.536   1.781  -0.398  0.3523 -0.7287 -0.8426
  391MOL0     C53859   7.647   1.787  -0.288 -0.3108 -0.4920  0.2355
  391MOL0     C53860   7.783   1.754  -0.340  0.1126  0.4280 -0.2697
  391MOL0     C53861   7.898   1.749  -0.228  0.2408 -0.3399  0.1254
  391MOL0     C53862   7.871   1.636  -0.133  1.1567  0.0828  0.0848
  391MOL0     C53863   7.987   1.636  -0.034  0.2309 -0.2630  0.1780
  391MOL0     C53864   7.995   1.504   0.028  0.1495 -0.4134 -0.2039
  391MOL0    Cl53865   8.091   1.543   0.192  0.1823  0.0716  0.3782
  391MOL0     C53866   7.102   1.951  -0.519 -0.3569  1.0816  0.1219
  391MOL0     C53867   6.996   2.042  -0.516  0.2769  0.1547 -0.0183
  391MOL0     O53868   6.847   2.221  -0.258  0.6757  1.0191 -0.5031
  391MOL0     C53869   6.810   2.532  -0.417  0.0910 -1.2495  0.8574
  391MOL0     C53870   6.728   2.642  -0.445  0.4834 -0.3527  0.2457
  391MOL0     N53871   5.991   3.074  -0.137 -0.3893  0.1524 -0.8493
  391MOL0     N53872   5.874   3.068  -0.083 -0.0038 -0.1859 -0.4812
  391MOL0     C53873   4.987   2.685   0.776  0.0683  0.3702  0.1310
  391MOL0     C53874   4.863   2.697   0.831 -0.5864 -0.0752  0.5103
  391MOL0     C53875   4.554   2.864   1.123  0.0389 -0.2811 -0.0815
  391MOL0     C53876   4.436   2.864   1.046  0.3823  0.2123 -0.0157
  391MOL0     C53877   4.308   2.858   1.106 -0.4587  0.4011 -0.0302
  391MOL0     C53878   4.287   2.859   1.248  0.4523  0.9489  0.5175
  391MOL0     O53879   4.167   2.831   1.309 -0.4421 -0.4667 -0.4341
  391MOL0     C53880   4.055   2.821   1.226  0.0848 -0.4396  0.5782
  391MOL0     C53881   3.927   2.796   1.303 -1.1256  0.4667  0.2263
  391MOL0     C53882   3.807   2.785   1.211 -0.8195 -0.5446 -0.2887
  391MOL0     C53883   3.674   2.778   1.291  0.0441 -0.1294 -0.3726
  391MOL0     C53884   3.556   2.772   1.198 -0.1215  0.4299 -1.3657
  391MOL0     C53885   3.466   2.776   1.123  0.5977  0.6073 -0.4957
  391MOL0     C53886   4.398   2.852   1.320 -0.3098 -0.5431  0.7510
  391MOL0     C53887   4.532   2.852   1.267  0.5194 -0.5091 -0.1251
  391MOL0     C53888   4.647   2.846   1.372 -0.1883  0.0221 -0.0835
  391MOL0     H53889   4.856   3.041   0.839 -0.9635  0.1536 -1.0444
  391MOL0     H53890   5.067   3.012   0.738  0.0967 -0.4709  2.0901
  391MOL0     H53891   5.214   2.950   0.603  1.2416  0.8777  2.6391
  391MOL0     H53892   5.249   2.796   0.511 -0.0066  0.0721 -0.5583
  391MOL0     H53893   5.425   2.920   0.727 -2.0781 -0.2323  0.9063
  391MOL0     H53894   5.448   2.761   0.657 -0.1579  0.6087 -0.9833
  391MOL0     H53895   5.478   2.851   0.430  0.1389 -0.6229  0.6559
  391MOL0     H53896   5.456   3.017   0.476 -1.2566 -0.3102  0.3828
  391MOL0     H53897   5.663   2.969   0.637  0.7983 -0.0434 -0.4663
  391MOL0     H53898   5.679   2.816   0.551  4.8910  1.8035 -0.5498
  391MOL0     H53899   5.824   2.944   0.437 -0.4479  0.5394 -1.5738
  391MOL0     H53900   5.717   3.091   0.442  2.1637  0.2455  1.7895
  391MOL0     H53901   5.675   2.829   0.295  2.4216  0.1060 -0.0330
  391MOL0     H53902   5.589   2.977   0.261  0.0256 -0.4152  0.5781
  391MOL0     H53903   5.898   2.945   0.219  0.9014 -2.8275 -4.8187
  391MOL0     H53904   5.798   3.083   0.176  2.4827  1.2074  1.7133
  391MOL0     H53905   5.757   2.799   0.064 -1.9986  0.0504 -1.0190
  391MOL0     H53906   5.666   2.950   0.030 -1.5511 -3.7338 -1.6751
  391MOL0     H53907   5.988   2.767  -0.016 -2.4168 -1.4370 -2.2823
  391MOL0     H53908   6.171   2.787  -0.188  3.6838 -0.9014  1.6365
  391MOL0     H53909   6.270   2.931  -0.127  1.8369  0.6468 -2.5550
  391MOL0     H53910   6.125   2.913  -0.392  0.9149 -2.6768 -0.9027
  391MOL0     H53911   6.193   3.053  -0.329  0.8814 -0.4256 -0.9753
  391MOL0     H53912   6.355   2.939  -0.473  1.3052 -0.7591  0.3254
  391MOL0     H53913   6.434   2.957  -0.320  0.2626  0.6997 -0.5206
  391MOL0     H53914   6.386   2.721  -0.265  0.5730 -2.6265 -0.8742
  391MOL0     H53915   6.314   2.704  -0.433  0.4775 -2.8453  2.1130
  391MOL0     H53916   6.438   2.524  -0.301  0.6662  2.6009  1.2612
  391MOL0     H53917   6.579   2.204  -0.289 -1.7927  2.8180 -3.7143
  391MOL0     H53918   6.466   2.309  -0.205 -0.6440 -0.9228  0.9300
  391MOL0     H53919   6.625   2.296  -0.137 -2.5411 -0.7247  0.6171
  391MOL0     H53920   7.145   2.297  -0.359 -0.4180  0.2126 -0.0382
  391MOL0     H53921   7.326   2.135  -0.337  0.8289 -1.4688 -0.8774
  391MOL0     H53922   7.491   1.985  -0.384 -0.4552 -0.4304  1.0114
  391MOL0     H53923   7.406   1.871  -0.266 -0.9312 -2.0284 -0.1261
  391MOL0     H53924   7.486   1.683  -0.395  1.2297 -1.2411 -1.9979
  391MOL0     H53925   7.595   1.799  -0.488  4.5659 -1.8844  1.3629
  391MOL0     H53926   7.619   1.701  -0.226 -0.2516  0.3471  1.4732
  391MOL0     H53927   7.638   1.882  -0.236 -0.2016 -0.4109  0.1060
  391MOL0     H53928   7.808   1.825  -0.419 -1.7405 -0.4180 -1.6924
  391MOL0     H53929   7.789   1.659  -0.395  0.5648  1.1208 -1.4621
  391MOL0     H53930   7.993   1.749  -0.282 -0.8883  0.3531 -1.9856
  391MOL0     H53931   7.891   1.841  -0.169 -0.8592  0.2846 -0.9357
  391MOL0     H53932   7.861   1.538  -0.180  1.5288  0.3325 -0.5396
  391MOL0     H53933   7.782   1.658  -0.074  0.8483  0.8460 -0.6486
  391MOL0     H53934   7.965   1.708   0.045 -0.5559 -1.0835  0.7182
  391MOL0     H53935   8.085   1.648  -0.083 -0.4570  1.3696 -0.8741
  391MOL0     H53936   8.053   1.432  -0.030 -1.2572 -1.8189  0.0610
  391MOL0     H53937   7.899   1.456   0.051  0.7890 -2.3265 -1.3477
  391MOL0     H53938   7.088   1.857  -0.571 -0.6864  1.9093 -1.3319
  391MOL0     H53939   6.908   2.007  -0.570  0.5620 -1.1491  0.3266
  391MOL0     H53940   6.916   2.553  -0.431 -0.2549  0.9588  1.1957
  391MOL0     H53941   6.764   2.729  -0.499  0.0185  0.1708  0.7685
  391MOL0     H53942   5.026   2.587   0.752  1.5994  0.7907  0.7433
  391MOL0     H53943   4.804   2.608   0.848  1.2116 -1.8896 -1.9229
  391MOL0     H53944   4.440   2.874   0.938  1.3637 -0.0660 -0.0183
  391MOL0     H53945   4.226   2.841   1.036  0.6759 -1.1571 -1.0475
  391MOL0     H53946   4.047   2.914   1.170  0.6927 -1.8581 -2.0044
  391MOL0     H53947   4.072   2.743   1.152 -1.6334  0.5689 -0.9676
  391MOL0     H53948   3.915   2.880   1.372 -0.6529  3.0250 -2.6092
  391MOL0     H53949   3.935   2.698   1.351  0.5517 -0.6476 -2.1486
  391MOL0     H53950   3.812   2.869   1.142  0.5326 -0.0822  0.3412
  391MOL0     H53951   3.810   2.692   1.154  1.7519 -0.7683  0.0721
  391MOL0     H53952   3.661   2.873   1.343  1.8884  0.5626 -1.0934
  391MOL0     H53953   3.663   2.691   1.357  0.9397  0.9688  1.2907
  391MOL0     H53954   3.378   2.783   1.061 -0.7932 -1.2021  1.1492
  391MOL0     H53955   4.393   2.858   1.429 -1.4472 -1.5606  0.7706
  391MOL0     H53956   4.615   2.831   1.475  3.2501 -1.5603  0.9044
  391MOL0     H53957   4.706   2.761   1.335  1.0212  1.9173 -2.9223
  391MOL0     H53958   4.701   2.941   1.364  0.9889 -0.6769 -0.6505
  392MOL0     O53959   5.281   9.675  10.412  0.0912  0.0395  0.4632
  392MOL0     C53960   5.249   9.552  10.394  0.6352 -0.0426 -0.2564
  392MOL0     O53961   5.335   9.449  10.375  0.1955 -0.6474  0.3695
  392MOL0     C53962   5.459   9.466  10.431 -0.3246  0.3451  0.7653
  392MOL0     C53963   5.479   9.506  10.569  0.6524 -0.4401  0.7461
  392MOL0     C53964   5.605   9.517  10.614  0.0402  0.5815 -0.6938
  392MOL0     C53965   5.720   9.492  10.542  0.8399  0.9753 -0.7707
  392MOL0     O53966   5.840   9.520  10.605 -0.0603 -0.1042  0.3065
  392MOL0     C53967   5.957   9.489  10.549 -1.1606 -0.2708 -0.3933
  392MOL0     C53968   6.075   9.569  10.626  0.2335 -0.1618 -0.5412
  392MOL0     C53969   6.221   9.546  10.574 -0.7643 -0.3960 -0.6748
  392MOL0     C53970   6.281   9.416  10.649  0.6418 -0.1195 -0.3121
  392MOL0     C53971   6.419   9.354  10.602  0.2033 -0.7130 -0.4533
  392MOL0     C53972   6.534   9.462  10.608  0.2045 -0.1530 -0.2793
  392MOL0     C53973   6.664   9.408  10.532  0.1691  0.5011  0.1104
  392MOL0     C53974   6.782   9.497  10.534  0.6426 -0.6366 -0.6581
  392MOL0     N53975   6.904   9.427  10.494 -0.6700 -0.0203 -0.0512
  392MOL0     C53976   7.021   9.401  10.565  0.5275 -0.9077 -0.5190
  392MOL0     C53977   7.099   9.336  10.475  0.0477  0.6473 -0.4229
  392MOL0     C53978   7.221   9.265  10.512 -0.2866  0.1004 -0.1409
  392MOL0     C53979   7.337   9.331  10.439 -0.2311 -0.7440  0.6065
  392MOL0     C53980   7.466   9.256  10.473  0.2163  1.0229  0.6646
  392MOL0     C53981   7.580   9.323  10.415  0.4281  0.0105 -0.3222
  392MOL0     O53982   7.686   9.261  10.478 -0.2315  0.3419 -0.0513
  392MOL0     C53983   7.796   9.228  10.399  0.3448  0.6061 -0.1497
  392MOL0     C53984   7.850   9.323  10.310 -0.4376 -0.0232 -0.3349
  392MOL0     C53985   7.939   9.269  10.221 -0.4263 -0.3030  0.0623
  392MOL0     C53986   8.006   9.356  10.124  0.8744 -0.0609  0.7724
  392MOL0     C53987   7.996   9.139  10.235 -0.4719  0.8117 -0.0835
  392MOL0     C53988   8.100   9.086  10.150  0.4166 -0.3800 -0.7670
  392MOL0     O53989   8.227   9.133  10.171  0.5322 -0.0873 -0.2765
  392MOL0     C53990   8.344   9.082  10.115 -0.8591  0.2917  0.0218
  392MOL0     C53991   8.348   8.988  10.002  0.4242 -0.9363  0.4776
  392MOL0     C53992   8.474   8.948   9.950  0.3355  0.8311  0.7333
  392MOL0     C53993   8.594   9.013   9.998 -0.1371  0.7745  0.2013
  392MOL0     O53994   8.717   8.991   9.949 -0.2083  0.5819  0.1405
  392MOL0     C53995   8.736   8.942   9.819 -0.8890 -0.4229  0.5282
  392MOL0     C53996   8.886   8.912   9.798 -0.2773 -0.3473  0.9704
  392MOL0     C53997   8.979   9.023   9.846 -0.3009  0.3359  0.9180
  392MOL0     C53998   9.111   8.942   9.860  0.2305  0.4464 -0.1905
  392MOL0     C53999   9.232   9.026   9.885 -0.2897  0.6605  0.3656
  392MOL0     C54000   9.353   8.932   9.895 -0.6456 -0.4038  0.7329
  392MOL0     C54001   9.485   9.006   9.935 -0.2390  0.1284 -0.2128
  392MOL0     C54002   9.602   8.919   9.917  0.1514  0.0810 -0.9119
  392MOL0    Cl54003   9.583   8.780  10.035  0.9621  0.2244  0.2494
  392MOL0     C54004   8.589   9.096  10.113  0.0642 -0.1423  0.8773
  392MOL0     C54005   8.465   9.130  10.163  0.7391  0.9578 -0.1191
  392MOL0     O54006   8.065   8.991  10.079 -0.2779 -0.2630  0.2040
  392MOL0     C54007   7.946   9.050  10.331 -1.0591  0.8808 -0.6256
  392MOL0     C54008   7.846   9.097  10.414 -0.8317 -0.7155  0.4736
  392MOL0     N54009   7.034   9.332  10.357  0.1920  0.5577  0.5123
  392MOL0     N54010   6.923   9.388  10.367  0.1531 -0.2515  0.9005
  392MOL0     C54011   5.698   9.439  10.412  0.5434 -0.7758 -0.0925
  392MOL0     C54012   5.572   9.438  10.355 -0.9645 -0.7697  0.3181
  392MOL0     C54013   5.107   9.517  10.374  0.1201 -0.3505 -0.5291
  392MOL0     C54014   5.071   9.434  10.266 -0.8027 -0.1396  0.2947
  392MOL0     C54015   4.946   9.430  10.209  0.0103 -0.9833  0.4046
  392MOL0     C54016   4.841   9.503  10.276  0.4646  1.0274  0.1612
  392MOL0     O54017   4.715   9.479  10.239  0.1687  0.3927  0.1813
  392MOL0     C54018   4.689   9.493  10.099 -0.6666  0.6548  0.3223
  392MOL0     C54019   4.561   9.567  10.078 -0.5630 -0.0433 -0.6429
  392MOL0     C54020   4.567   9.714  10.132  0.2980  0.0703  0.2820
  392MOL0     C54021   4.426   9.774  10.088  0.8699 -0.1508 -1.1484
  392MOL0     C54022   4.420   9.922  10.095 -0.1740  0.6754  0.3537
  392MOL0     C54023   4.453  10.036  10.082 -0.9356 -0.0424 -0.8489
  392MOL0     C54024   4.868   9.563  10.395 -0.6503 -1.8174 -0.2499
  392MOL0     C54025   4.997   9.582  10.436 -0.9084 -0.0133  0.5105
  392MOL0     C54026   5.015   9.682  10.546 -0.7006  1.0739  0.0091
  392MOL0     H54027   5.391   9.530  10.629 -1.7877 -1.6041 -2.1109
  392MOL0     H54028   5.602   9.553  10.716 -0.0964 -1.8635  0.2323
  392MOL0     H54029   5.957   9.521  10.445 -1.0748  2.5244  0.3951
  392MOL0     H54030   5.983   9.383  10.565 -1.6488 -0.0209  2.7189
  392MOL0     H54031   6.046   9.675  10.623 -2.0199 -0.7049  0.3822
  392MOL0     H54032   6.067   9.538  10.730  2.2043  0.3022 -0.1968
  392MOL0     H54033   6.214   9.526  10.466 -0.3397 -0.8184 -0.6318
  392MOL0     H54034   6.278   9.639  10.575  1.5628 -1.6863 -2.1619
  392MOL0     H54035   6.282   9.445  10.755 -2.3716 -1.3373  0.1459
  392MOL0     H54036   6.213   9.330  10.647  2.3033 -1.5031 -2.4943
  392MOL0     H54037   6.403   9.307  10.504 -0.2963 -3.2484  0.7734
  392MOL0     H54038   6.453   9.268  10.661  2.4568 -1.3040 -2.4272
  392MOL0     H54039   6.501   9.559  10.570  0.5055  0.5694  1.2379
  392MOL0     H54040   6.554   9.491  10.711 -1.1676 -0.3095  0.0536
  392MOL0     H54041   6.631   9.385  10.431  1.2040 -3.9449  0.5968
  392MOL0     H54042   6.704   9.317  10.578  3.8818  1.7266 -0.3714
  392MOL0     H54043   6.750   9.581  10.471 -3.1324  0.6116  2.4712
  392MOL0     H54044   6.795   9.547  10.630 -1.3401  3.4771 -2.2762
  392MOL0     H54045   7.031   9.415  10.672  0.1483 -1.0941 -0.4576
  392MOL0     H54046   7.203   9.158  10.502  0.6926 -0.1258  0.4192
  392MOL0     H54047   7.232   9.277  10.620  0.9064  2.9326 -0.4859
  392MOL0     H54048   7.315   9.316  10.333  0.0726  1.0650  0.2664
  392MOL0     H54049   7.348   9.438  10.454  3.3141 -0.8275 -0.4281
  392MOL0     H54050   7.473   9.245  10.582 -0.4944 -0.3036  0.5942
  392MOL0     H54051   7.457   9.158  10.426 -2.6162  2.1097 -1.3257
  392MOL0     H54052   7.572   9.311  10.306 -1.3049 -0.5201 -0.1760
  392MOL0     H54053   7.581   9.429  10.443  3.0820 -0.0578  0.0811
  392MOL0     H54054   7.808   9.423  10.321 -1.3613 -0.6539  4.2762
  392MOL0     H54055   8.109   9.374  10.155 -0.0754  1.1460  3.6326
  392MOL0     H54056   7.961   9.455  10.114 -0.9701 -0.6170  2.7637
  392MOL0     H54057   8.009   9.314  10.024  1.3039  0.5404  0.5250
  392MOL0     H54058   8.261   8.941   9.959  0.0484  0.1865 -0.0214
  392MOL0     H54059   8.475   8.885   9.862  0.4991  1.9094 -0.0609
  392MOL0     H54060   8.693   8.845   9.792  3.4287 -2.0412 -1.4378
  392MOL0     H54061   8.708   9.020   9.748 -1.1660  0.0703  1.1693
  392MOL0     H54062   8.909   8.823   9.857  1.3636 -0.9668 -0.4989
  392MOL0     H54063   8.899   8.889   9.691  2.8153 -1.8103  1.5657
  392MOL0     H54064   8.942   9.067   9.939  1.8298  2.7952  0.7217
  392MOL0     H54065   8.993   9.106   9.775 -0.2717  0.1739  0.7342
  392MOL0     H54066   9.126   8.888   9.767 -1.6497 -1.0842  0.3314
  392MOL0     H54067   9.104   8.867   9.939  1.8075  1.3200  0.8294
  392MOL0     H54068   9.248   9.097   9.804 -2.0825  1.5398  0.7123
  392MOL0     H54069   9.220   9.082   9.979  1.9938 -0.5014  1.4239
  392MOL0     H54070   9.375   8.878   9.803 -1.2301  0.7885 -0.1275
  392MOL0     H54071   9.323   8.860   9.971 -3.1479  2.2683  2.5049
  392MOL0     H54072   9.485   9.042  10.038  2.1487  1.3054 -0.5342
  392MOL0     H54073   9.499   9.089   9.864 -2.4349  1.5247  0.8695
  392MOL0     H54074   9.681   8.986   9.952 -3.1821  2.3724  3.2767
  392MOL0     H54075   9.612   8.883   9.815 -0.1337 -0.9636 -0.5833
  392MOL0     H54076   8.685   9.140  10.139 -0.2935  1.1183  0.1205
  392MOL0     H54077   8.465   9.190  10.253 -0.0778 -3.3022  3.0557
  392MOL0     H54078   7.991   8.952  10.331  0.4124  1.5318 -0.7903
  392MOL0     H54079   7.794   9.029  10.481 -1.1204 -0.1959  0.7855
  392MOL0     H54080   5.783   9.408  10.351  1.5097 -2.1228  1.8156
  392MOL0     H54081   5.568   9.404  10.251 -2.2357 -0.6874  0.3231
  392MOL0     H54082   5.151   9.379  10.216 -1.0278 -1.0167  0.8805
  392MOL0     H54083   4.932   9.377  10.115  0.4871  0.7926 -0.7113
  392MOL0     H54084   4.768   9.559  10.062  1.1883 -0.1831  2.5182
  392MOL0     H54085   4.696   9.396  10.048  3.0272  0.6028  0.6333
  392MOL0     H54086   4.479   9.518  10.131 -0.3483 -0.0146 -0.2789
  392MOL0     H54087   4.538   9.571   9.971 -1.0984 -2.9129 -0.7204
  392MOL0     H54088   4.582   9.723  10.239 -1.0361  3.4324  0.3034
  392MOL0     H54089   4.648   9.765  10.080  2.7639 -1.5097  2.3611
  392MOL0     H54090   4.362   9.726  10.162  0.3853 -1.0993 -2.1423
  392MOL0     H54091   4.387   9.734   9.994  1.8257 -2.5219 -0.6269
  392MOL0     H54092   4.488  10.136  10.066  0.0766 -0.2751 -0.2280
  392MOL0     H54093   4.786   9.603  10.454  0.0812  1.1346 -1.0398
  392MOL0     H54094   5.113   9.664  10.591  1.0769 -0.0207 -3.8624
  392MOL0     H54095   5.020   9.787  10.513  0.1547  0.8302 -0.6803
  392MOL0     H54096   4.943   9.670  10.627  2.0244 -1.0118  2.3116
  393MOL0     O54097  10.315   5.423   3.402  0.3120  0.5380 -0.0755
  393MOL0     C54098  10.221   5.501   3.363 -0.3224 -0.0088  0.0767
  393MOL0     O54099  10.238   5.612   3.283  0.0254  0.3872  0.1718
  393MOL0     C54100  10.373   5.648   3.258 -0.0061  0.3123  0.5611
  393MOL0     C54101  10.434   5.734   3.351  0.0056 -0.9549  0.4185
  393MOL0     C54102  10.560   5.792   3.318 -0.0344  0.6364 -0.5311
  393MOL0     C54103  10.630   5.752   3.205  0.0558  0.4956  0.0247
  393MOL0     O54104  10.754   5.791   3.176  0.4533  0.0319  0.1656
  393MOL0     C54105  10.850   5.785   3.287 -0.7885  0.3283 -0.0949
  393MOL0     C54106  10.950   5.672   3.248 -0.3322 -0.2463 -1.3167
  393MOL0     C54107  11.033   5.719   3.132 -1.0501  0.0950 -0.3166
  393MOL0     C54108  11.160   5.634   3.111  0.5672  0.1918 -0.3101
  393MOL0     C54109  11.228   5.675   2.981 -0.1157  0.1754 -0.2251
  393MOL0     C54110  11.355   5.589   2.967  0.0449 -0.3576  0.9087
  393MOL0     C54111  11.451   5.656   2.856  0.9785 -0.0478  0.3128
  393MOL0     C54112  11.582   5.576   2.833 -0.1660 -0.2773 -0.1226
  393MOL0     N54113  11.683   5.670   2.764 -0.3787  0.7553 -0.7161
  393MOL0     C54114  11.752   5.766   2.838 -0.5998 -0.6734 -0.0026
  393MOL0     C54115  11.837   5.810   2.745 -0.3241 -0.1422 -0.8715
  393MOL0     C54116  11.928   5.916   2.771  0.0755 -0.7644  0.2530
  393MOL0     C54117  12.061   5.891   2.706 -0.4026  0.0619  0.3075
  393MOL0     C54118  12.140   6.028   2.705  0.4425 -0.5287  0.1730
  393MOL0     C54119  12.267   6.027   2.628  0.6541 -0.9069  0.0099
  393MOL0     O54120  12.348   5.938   2.703 -0.3768 -0.3085  0.0160
  393MOL0     C54121  12.463   5.891   2.647  0.5768 -0.0007 -0.0286
  393MOL0     C54122  12.519   5.951   2.532 -0.3549  0.2699  0.3654
  393MOL0     C54123  12.645   5.895   2.481 -0.0592  0.6246 -0.4792
  393MOL0     C54124  12.704   5.968   2.365  0.7141 -0.4474 -0.0413
  393MOL0     C54125  12.717   5.789   2.554  0.2268  0.1623 -0.3288
  393MOL0     C54126  12.857   5.746   2.520  0.2681 -0.3923  0.3490
  393MOL0     O54127  12.928   5.689   2.621 -0.5937 -0.1575 -0.0899
  393MOL0     C54128  13.063   5.651   2.620  0.0365 -0.4389  0.5501
  393MOL0     C54129  13.102   5.532   2.566 -0.7836  0.4338  0.2302
  393MOL0     C54130  13.232   5.487   2.594  0.4832 -0.8525 -0.1929
  393MOL0     C54131  13.322   5.570   2.668  1.0188 -0.2711 -0.4334
  393MOL0     O54132  13.443   5.508   2.674  0.5370  0.1638 -0.3403
  393MOL0     C54133  13.551   5.566   2.757  0.9930  0.8976 -0.6396
  393MOL0     C54134  13.522   5.526   2.910 -0.2224  1.0126  0.8694
  393MOL0     C54135  13.607   5.606   3.007 -0.6933  0.0381  0.4353
  393MOL0     C54136  13.759   5.600   2.979 -0.3535  0.1696  0.4023
  393MOL0     C54137  13.843   5.651   3.092  1.0799 -0.3364  0.7479
  393MOL0     C54138  13.931   5.546   3.164 -0.7461  0.1392  1.1406
  393MOL0     C54139  13.856   5.452   3.246  0.3637 -0.1838  0.2150
  393MOL0     C54140  13.957   5.370   3.329  0.2282  0.1001  0.4445
  393MOL0    Cl54141  13.865   5.241   3.417  0.3868 -0.1516 -0.0890
  393MOL0     C54142  13.275   5.691   2.722  0.2117 -0.2866  0.2918
  393MOL0     C54143  13.144   5.732   2.694  0.5136 -0.0490  0.9035
  393MOL0     O54144  12.894   5.780   2.410 -0.2854  0.9363  0.7871
  393MOL0     C54145  12.662   5.752   2.681  0.0273  0.0359  0.4782
  393MOL0     C54146  12.537   5.800   2.724 -0.0531 -0.2888 -0.4528
  393MOL0     N54147  11.821   5.738   2.620 -0.5745 -0.0981  0.9667
  393MOL0     N54148  11.737   5.649   2.641 -0.2439  0.7936 -0.5513
  393MOL0     C54149  10.569   5.665   3.123  0.8007 -0.2503 -0.3977
  393MOL0     C54150  10.446   5.614   3.144  0.4578  0.3545 -0.0301
  393MOL0     C54151  10.080   5.461   3.391 -0.4923  0.6521 -0.8464
  393MOL0     C54152   9.982   5.520   3.316  0.2681  0.0432 -0.0899
  393MOL0     C54153   9.847   5.490   3.337 -0.3069  0.0894 -0.4553
  393MOL0     C54154   9.801   5.410   3.438 -0.6858  0.3636 -0.1455
  393MOL0     O54155   9.672   5.359   3.448  0.2826  0.1732  0.0940
  393MOL0     C54156   9.648   5.236   3.519  0.2185 -0.0476  0.4876
  393MOL0     C54157   9.523   5.173   3.454 -0.8325  0.4197 -0.3418
  393MOL0     C54158   9.397   5.247   3.496 -0.0993  0.1642 -1.0628
  393MOL0     C54159   9.278   5.168   3.443 -0.0448  0.3715  0.8914
  393MOL0     C54160   9.169   5.266   3.450 -0.7586  0.0274  0.1844
  393MOL0     C54161   9.071   5.339   3.459  0.1912  0.3821 -0.2323
  393MOL0     C54162   9.904   5.361   3.530 -0.0831  0.8307  1.0628
  393MOL0     C54163  10.040   5.377   3.506  0.2043 -1.4059  0.1028
  393MOL0     C54164  10.140   5.329   3.611  0.3169 -0.9833 -0.6403
  393MOL0     H54165  10.380   5.765   3.439  1.7132  1.5333  0.6971
  393MOL0     H54166  10.598   5.865   3.389 -1.7602  0.3408  0.7592
  393MOL0     H54167  10.800   5.753   3.380  2.0308 -2.2100  0.7145
  393MOL0     H54168  10.891   5.886   3.293  0.2019 -0.0088 -1.0402
  393MOL0     H54169  11.022   5.652   3.328 -0.9158 -1.4470 -1.0710
  393MOL0     H54170  10.905   5.576   3.222 -1.7766  0.1947 -0.5634
  393MOL0     H54171  10.978   5.718   3.037  0.5360 -3.3934 -1.3478
  393MOL0     H54172  11.075   5.816   3.160 -1.0869  0.3029 -0.9605
  393MOL0     H54173  11.226   5.640   3.198 -1.2949 -2.8046  1.5044
  393MOL0     H54174  11.131   5.529   3.106  0.3666  0.1712  0.9211
  393MOL0     H54175  11.253   5.781   2.983  0.1345  0.1158 -0.1947
  393MOL0     H54176  11.159   5.651   2.899  0.3748  0.8626 -0.8507
  393MOL0     H54177  11.424   5.570   3.050 -0.7597 -2.0802  1.2153
  393MOL0     H54178  11.326   5.491   2.929  2.3127 -1.3618  1.5403
  393MOL0     H54179  11.475   5.757   2.892 -1.1292  0.7141 -0.2535
  393MOL0     H54180  11.390   5.659   2.766  0.4056  1.3086  0.7158
  393MOL0     H54181  11.621   5.547   2.931 -0.1511  2.1607  0.6566
  393MOL0     H54182  11.564   5.500   2.757 -0.5467 -0.0812 -0.2305
  393MOL0     H54183  11.743   5.799   2.941  1.7688  0.4825 -0.0854
  393MOL0     H54184  11.930   5.929   2.880 -1.9030  4.6438 -0.0681
  393MOL0     H54185  11.883   6.010   2.738  1.1648  0.0490  1.0008
  393MOL0     H54186  12.118   5.824   2.770  1.2477 -1.3009 -2.4095
  393MOL0     H54187  12.042   5.857   2.604 -1.7543  1.7454 -0.0654
  393MOL0     H54188  12.070   6.104   2.670 -0.9188 -1.7090  0.2202
  393MOL0     H54189  12.165   6.055   2.808  0.3117 -1.5492  0.4843
  393MOL0     H54190  12.251   5.993   2.525  2.1898  0.0718 -0.5834
  393MOL0     H54191  12.321   6.122   2.635 -1.8142  0.4803  4.5128
  393MOL0     H54192  12.465   6.031   2.483 -0.2011 -0.1142 -0.4491
  393MOL0     H54193  12.798   6.017   2.394  1.5227 -1.8159 -0.2705
  393MOL0     H54194  12.633   6.044   2.331 -0.6762 -1.7877 -0.2568
  393MOL0     H54195  12.718   5.898   2.283  1.8369 -0.3789  0.0701
  393MOL0     H54196  13.042   5.470   2.500 -0.4052 -0.1440  0.4162
  393MOL0     H54197  13.263   5.395   2.544  0.7152 -0.5006 -0.7083
  393MOL0     H54198  13.649   5.528   2.724  0.7911 -1.1539  0.9181
  393MOL0     H54199  13.567   5.674   2.748  3.4599  0.6655  0.2067
  393MOL0     H54200  13.417   5.555   2.924  0.3161  2.2939  2.7713
  393MOL0     H54201  13.545   5.420   2.919 -0.6931  0.6025 -2.0193
  393MOL0     H54202  13.580   5.566   3.105 -1.0766  1.0648  0.7563
  393MOL0     H54203  13.569   5.708   3.005 -1.5285 -0.2347 -2.4124
  393MOL0     H54204  13.772   5.662   2.890  0.6490 -1.1679 -0.4259
  393MOL0     H54205  13.796   5.497   2.968 -2.2631 -0.8303  2.4083
  393MOL0     H54206  13.906   5.736   3.062  0.6919 -0.2768  0.0663
  393MOL0     H54207  13.776   5.691   3.168 -0.4616  0.8343 -1.1283
  393MOL0     H54208  13.999   5.592   3.237  1.7383 -1.4834 -0.0273
  393MOL0     H54209  13.992   5.497   3.088 -1.6215  1.9368 -0.8205
  393MOL0     H54210  13.797   5.385   3.183 -0.1134  0.9622 -0.5882
  393MOL0     H54211  13.790   5.505   3.315  1.4019  2.0032 -0.3965
  393MOL0     H54212  14.007   5.434   3.402  1.8865 -1.0696  0.3951
  393MOL0     H54213  14.040   5.338   3.265  1.5346  2.7085  0.6803
  393MOL0     H54214  13.339   5.747   2.789  1.5561 -2.2611  0.7464
  393MOL0     H54215  13.095   5.826   2.715  2.8783  1.0455  1.8209
  393MOL0     H54216  12.730   5.698   2.746 -1.2148 -1.8278  0.2782
  393MOL0     H54217  12.498   5.772   2.821 -3.7270  3.6844 -0.4934
  393MOL0     H54218  10.627   5.636   3.035 -0.3636 -0.7578 -1.0291
  393MOL0     H54219  10.403   5.555   3.064  0.6718  1.6176 -1.1193
  393MOL0     H54220  10.007   5.589   3.236 -1.1327  1.3677  0.5384
  393MOL0     H54221   9.783   5.528   3.258 -1.6420  1.4510  1.1997
  393MOL0     H54222   9.729   5.167   3.494 -0.0542  0.6787 -2.9270
  393MOL0     H54223   9.649   5.250   3.627 -1.8710 -1.3232  0.7374
  393MOL0     H54224   9.507   5.067   3.479 -0.5425  0.2038 -1.0553
  393MOL0     H54225   9.527   5.171   3.345  0.0856 -5.2281 -0.5301
  393MOL0     H54226   9.387   5.258   3.604 -4.0256  0.7791 -1.3367
  393MOL0     H54227   9.408   5.349   3.456  2.8212 -0.5557 -2.3312
  393MOL0     H54228   9.251   5.085   3.509  0.4974  0.1771  0.8684
  393MOL0     H54229   9.280   5.122   3.344 -4.0713 -0.3573  0.9910
  393MOL0     H54230   8.992   5.411   3.464 -0.2330 -0.1235  0.6996
  393MOL0     H54231   9.874   5.299   3.614 -0.2687  1.3281  1.3741
  393MOL0     H54232  10.198   5.242   3.579 -1.5036 -3.4439  2.2154
  393MOL0     H54233  10.189   5.415   3.658  1.4295 -0.4530 -2.6489
  393MOL0     H54234  10.082   5.302   3.699  0.9955  2.3451  0.9906
  394MOL0     O54235  10.741   0.081   7.068 -0.0253  0.3948  0.4464
  394MOL0     C54236  10.751  -0.035   7.025 -0.9674  1.0006  0.3960
  394MOL0     O54237  10.670  -0.139   7.062  0.4792  0.2163 -0.0028
  394MOL0     C54238  10.598  -0.139   7.180 -0.2625  0.3282 -0.5460
  394MOL0     C54239  10.668  -0.106   7.299  0.5283  0.0827  0.3415
  394MOL0     C54240  10.591  -0.122   7.420  0.0822  0.1426 -0.4667
  394MOL0     C54241  10.448  -0.151   7.417 -0.2283 -0.3372  0.2490
  394MOL0     O54242  10.371  -0.149   7.524  0.2216  0.1093 -0.5184
  394MOL0     C54243  10.425  -0.119   7.651  0.1333  0.5336  0.8007
  394MOL0     C54244  10.315  -0.136   7.756  0.2310 -0.5492  1.0120
  394MOL0     C54245  10.375  -0.131   7.899 -0.1961  0.3484  0.4864
  394MOL0     C54246  10.276  -0.135   8.012 -0.7849 -1.0382  0.3660
  394MOL0     C54247  10.317  -0.237   8.121 -0.2932  0.1792  0.3171
  394MOL0     C54248  10.446  -0.208   8.194  0.2276 -0.2350  0.0992
  394MOL0     C54249  10.476  -0.303   8.316 -0.4560  0.8818 -0.6096
  394MOL0     C54250  10.605  -0.251   8.387  0.0762 -0.0171  0.0320
  394MOL0     N54251  10.725  -0.305   8.332 -0.0794  0.1004 -0.3153
  394MOL0     C54252  10.749  -0.439   8.327 -1.2689 -0.0499  0.3432
  394MOL0     C54253  10.831  -0.459   8.213  0.2553 -0.0011 -0.1226
  394MOL0     C54254  10.854  -0.582   8.139  0.0665  0.4999  0.3370
  394MOL0     C54255  10.733  -0.622   8.042  0.0078  0.6258  0.3720
  394MOL0     C54256  10.721  -0.771   8.009  0.8212  0.0917 -0.6761
  394MOL0     C54257  10.836  -0.830   7.934  0.2005 -0.1537 -0.7986
  394MOL0     O54258  10.921  -0.865   8.043 -0.7456  0.0507 -0.2884
  394MOL0     C54259  11.031  -0.954   8.020 -0.9012 -0.6322  0.0555
  394MOL0     C54260  11.045  -1.041   7.912 -0.5702  0.3377 -0.0531
  394MOL0     C54261  11.148  -1.135   7.907 -0.1840 -0.1121 -0.0200
  394MOL0     C54262  11.169  -1.227   7.791  0.0083  0.4840  0.1717
  394MOL0     C54263  11.239  -1.143   8.018 -0.3186  0.0901  0.6489
  394MOL0     C54264  11.348  -1.257   8.040  0.3525  0.5236 -0.4846
  394MOL0     O54265  11.388  -1.258   8.181 -0.2700 -0.3104 -0.1988
  394MOL0     C54266  11.517  -1.306   8.205 -0.0361 -1.0388 -0.4283
  394MOL0     C54267  11.530  -1.399   8.306  0.3613  0.3774 -0.4313
  394MOL0     C54268  11.661  -1.409   8.357  0.8572  0.4846  0.1268
  394MOL0     C54269  11.772  -1.346   8.308 -0.6111 -0.4136 -0.0958
  394MOL0     O54270  11.891  -1.369   8.379  0.6735 -0.0555  0.1337
  394MOL0     C54271  11.999  -1.275   8.395 -0.3091 -0.4314  0.0469
  394MOL0     C54272  11.976  -1.175   8.507  0.0898  0.6438 -0.6341
  394MOL0     C54273  11.942  -1.247   8.639  0.5536  0.4554 -0.1290
  394MOL0     C54274  11.917  -1.141   8.749 -0.0781  0.3764  0.0102
  394MOL0     C54275  11.846  -1.201   8.876 -0.2982  0.0151  0.3465
  394MOL0     C54276  11.817  -1.091   8.983 -0.1978  0.6684  0.0995
  394MOL0     C54277  11.742  -1.137   9.111  0.4425 -0.4875 -0.2366
  394MOL0     C54278  11.842  -1.214   9.195 -0.0747  0.0261  0.5818
  394MOL0    Cl54279  11.764  -1.271   9.340  0.6087 -0.0463 -0.0877
  394MOL0     C54280  11.756  -1.256   8.209  0.1524  0.1256 -0.0596
  394MOL0     C54281  11.626  -1.237   8.153  0.0925  0.3845  0.5219
  394MOL0     O54282  11.399  -1.328   7.949  0.1888  0.0135  0.0303
  394MOL0     C54283  11.219  -1.055   8.127  0.2752  0.6963  0.5224
  394MOL0     C54284  11.111  -0.968   8.127 -0.2202  0.5894  0.3149
  394MOL0     N54285  10.859  -0.332   8.163 -0.0358  0.0095 -0.2108
  394MOL0     N54286  10.797  -0.243   8.237 -0.8322 -0.2578  0.0459
  394MOL0     C54287  10.387  -0.173   7.295 -0.3912 -0.3604  0.5294
  394MOL0     C54288  10.462  -0.174   7.181  0.3775  0.8526 -0.2686
  394MOL0     C54289  10.852  -0.060   6.917  1.0652  0.2814 -0.2972
  394MOL0     C54290  10.862  -0.192   6.870 -0.4546  0.0268 -0.0921
  394MOL0     C54291  10.980  -0.228   6.797  0.1402  0.3084 -0.8339
  394MOL0     C54292  11.070  -0.133   6.757 -0.1167  0.4185 -0.6879
  394MOL0     O54293  11.184  -0.169   6.688 -0.0926  0.0106 -0.2711
  394MOL0     C54294  11.214  -0.312   6.669 -1.0463 -0.1977  0.8016
  394MOL0     C54295  11.347  -0.315   6.587  0.6783 -0.1103  0.1624
  394MOL0     C54296  11.336  -0.235   6.451 -0.3135 -0.4577  0.4654
  394MOL0     C54297  11.230  -0.307   6.364 -0.4170 -0.1410  0.3385
  394MOL0     C54298  11.248  -0.257   6.226 -1.2455  0.6415  0.5729
  394MOL0     C54299  11.272  -0.219   6.111 -0.0936 -0.1133 -0.2996
  394MOL0     C54300  11.062  -0.006   6.803  0.7066 -0.4301 -0.1389
  394MOL0     C54301  10.949   0.030   6.869  0.6771 -1.2172 -0.1340
  394MOL0     C54302  10.958   0.177   6.914  0.2808  0.4451  0.3559
  394MOL0     H54303  10.772  -0.082   7.315 -0.0371  1.3500  2.5280
  394MOL0     H54304  10.637  -0.111   7.518  0.2324  2.6991 -0.7547
  394MOL0     H54305  10.473  -0.021   7.661  2.7702 -0.6224  0.3517
  394MOL0     H54306  10.499  -0.198   7.669 -0.1360 -0.8004 -3.1257
  394MOL0     H54307  10.248  -0.051   7.740  0.6704 -0.0532  1.7815
  394MOL0     H54308  10.249  -0.222   7.740 -0.5029  0.7069 -4.9898
  394MOL0     H54309  10.442  -0.216   7.913 -1.1944 -1.1016 -2.6336
  394MOL0     H54310  10.430  -0.038   7.910 -1.3464  1.0222  0.6429
  394MOL0     H54311  10.267  -0.036   8.059 -0.0104 -1.4759  1.4781
  394MOL0     H54312  10.179  -0.157   7.966 -1.0668 -0.3350  0.6008
  394MOL0     H54313  10.315  -0.340   8.084 -3.6455 -0.4975  1.9638
  394MOL0     H54314  10.238  -0.238   8.198 -0.3991 -1.0481  0.2161
  394MOL0     H54315  10.535  -0.205   8.130 -0.3556  1.5259 -0.6890
  394MOL0     H54316  10.427  -0.107   8.232 -1.5812 -0.9758  1.2531
  394MOL0     H54317  10.489  -0.409   8.292  0.8385  0.6728  0.8206
  394MOL0     H54318  10.391  -0.303   8.385 -0.1269 -0.6955 -0.1611
  394MOL0     H54319  10.621  -0.143   8.387  2.5336 -0.3228 -0.8639
  394MOL0     H54320  10.611  -0.285   8.491 -0.3912 -4.4243 -1.1839
  394MOL0     H54321  10.696  -0.520   8.375 -1.9787 -0.4913 -1.1311
  394MOL0     H54322  10.874  -0.656   8.217 -0.1321  0.9767  0.8487
  394MOL0     H54323  10.945  -0.574   8.078 -0.9899  3.2995 -1.0253
  394MOL0     H54324  10.636  -0.588   8.081 -0.0533 -0.5968  1.3508
  394MOL0     H54325  10.749  -0.570   7.947  0.3638  4.1393  2.2043
  394MOL0     H54326  10.692  -0.823   8.101  2.4055  2.3644  1.2448
  394MOL0     H54327  10.634  -0.779   7.943 -0.0779  1.1590  0.3356
  394MOL0     H54328  10.799  -0.915   7.876  1.4503 -0.5432 -1.0458
  394MOL0     H54329  10.876  -0.752   7.868 -1.4562  0.8892 -0.6440
  394MOL0     H54330  10.979  -1.034   7.826  1.1390  1.4305 -1.3483
  394MOL0     H54331  11.136  -1.327   7.820 -2.5193  1.0848 -0.3064
  394MOL0     H54332  11.273  -1.233   7.760 -0.2667 -1.2202 -0.5695
  394MOL0     H54333  11.104  -1.187   7.713 -1.3820 -4.4774 -1.5932
  394MOL0     H54334  11.442  -1.452   8.342  1.3119  0.0098  1.5018
  394MOL0     H54335  11.676  -1.479   8.439 -1.8297  0.8022  0.9966
  394MOL0     H54336  12.091  -1.332   8.410  0.4029  0.1924 -1.7085
  394MOL0     H54337  12.021  -1.222   8.302  2.1804 -0.4320  0.5745
  394MOL0     H54338  12.070  -1.122   8.526  1.8271 -2.7006  1.0125
  394MOL0     H54339  11.896  -1.104   8.483 -2.2263 -1.6851 -0.3200
  394MOL0     H54340  12.022  -1.312   8.678 -1.1010 -0.7756  1.3725
  394MOL0     H54341  11.855  -1.310   8.625 -1.4660  2.7732  1.1025
  394MOL0     H54342  11.849  -1.071   8.700  1.5461  1.2035 -1.1666
  394MOL0     H54343  12.007  -1.085   8.778  0.3844 -0.5658  0.4418
  394MOL0     H54344  11.751  -1.239   8.840  0.2368  0.5087 -1.7320
  394MOL0     H54345  11.899  -1.288   8.916 -1.0456  0.3285  2.1251
  394MOL0     H54346  11.758  -1.012   8.935 -0.9279  1.8616  2.7620
  394MOL0     H54347  11.905  -1.035   9.015 -1.1533  1.1728  1.9768
  394MOL0     H54348  11.648  -1.188   9.087 -0.8636  1.9885 -0.6962
  394MOL0     H54349  11.708  -1.044   9.158  2.0595  1.5342 -2.8076
  394MOL0     H54350  11.931  -1.154   9.218 -0.8115  0.0709  3.8378
  394MOL0     H54351  11.881  -1.300   9.141  2.4132 -0.0612  2.3613
  394MOL0     H54352  11.830  -1.187   8.169  0.1669 -0.2790 -0.7603
  394MOL0     H54353  11.612  -1.156   8.082  3.9280  1.2929  0.5666
  394MOL0     H54354  11.279  -1.056   8.218  0.4221 -6.2680  0.9453
  394MOL0     H54355  11.089  -0.901   8.210  2.1103 -0.5203  1.9524
  394MOL0     H54356  10.283  -0.201   7.282 -0.0130 -0.8474 -1.7615
  394MOL0     H54357  10.411  -0.194   7.087  1.5328  1.0603 -0.9494
  394MOL0     H54358  10.788  -0.267   6.896  2.3878 -2.4954  1.5403
  394MOL0     H54359  10.984  -0.328   6.755  1.4627  0.9310 -2.2716
  394MOL0     H54360  11.225  -0.364   6.764 -1.1501 -0.7404  0.5157
  394MOL0     H54361  11.133  -0.353   6.608 -0.5256  0.1705 -0.1693
  394MOL0     H54362  11.365  -0.418   6.554  1.0950  0.7185 -2.4153
  394MOL0     H54363  11.427  -0.278   6.651 -2.2050  0.2962  3.8891
  394MOL0     H54364  11.310  -0.131   6.472  0.5867 -0.1958  0.3619
  394MOL0     H54365  11.432  -0.231   6.398 -0.8736 -3.7542 -1.0561
  394MOL0     H54366  11.126  -0.296   6.395 -0.0066 -1.5463  2.4375
  394MOL0     H54367  11.252  -0.414   6.366  0.4590  0.0437  2.1608
  394MOL0     H54368  11.274  -0.186   6.009  3.2047  1.5732  0.1715
  394MOL0     H54369  11.143   0.066   6.802 -0.5967  1.1066 -0.2327
  394MOL0     H54370  11.038   0.237   6.870  3.5920 -2.7149  1.5487
  394MOL0     H54371  10.865   0.225   6.883  0.3932 -0.2623 -1.1929
  394MOL0     H54372  10.958   0.170   7.023  0.3124 -1.9259  0.2729
  395MOL0     O54373   9.957   3.811   9.143 -0.5088 -0.6415  0.9397
  395MOL0     C54374  10.050   3.816   9.064 -0.0865  0.0151 -0.0966
  395MOL0     O54375  10.045   3.790   8.931 -0.5098  0.1884  0.0662
  395MOL0     C54376   9.928   3.745   8.874  0.1734 -0.5339  0.3491
  395MOL0     C54377   9.943   3.653   8.776  0.9372 -0.2598  0.5315
  395MOL0     C54378   9.842   3.626   8.685  0.2105  0.5539  0.3977
  395MOL0     C54379   9.709   3.664   8.708 -0.2584  0.4028  0.1780
  395MOL0     O54380   9.608   3.627   8.630 -0.2040  0.1497  0.6210
  395MOL0     C54381   9.569   3.496   8.661  0.2700  0.0333  0.5145
  395MOL0     C54382   9.426   3.481   8.608  1.0345 -0.3710  0.2802
  395MOL0     C54383   9.324   3.581   8.675 -0.1531  0.6122 -0.1637
  395MOL0     C54384   9.316   3.546   8.825  0.3493  0.4904 -0.1969
  395MOL0     C54385   9.187   3.607   8.883  0.2495 -0.8554 -1.0317
  395MOL0     C54386   9.185   3.582   9.035 -0.8798 -0.7626  0.3054
  395MOL0     C54387   9.049   3.622   9.098  0.7103  0.7078 -0.7370
  395MOL0     C54388   9.026   3.772   9.124 -0.5921  0.0201  0.3393
  395MOL0     N54389   9.126   3.836   9.206 -0.8018  0.4296  0.4215
  395MOL0     C54390   9.248   3.898   9.168  0.4240  0.5856 -0.2449
  395MOL0     C54391   9.338   3.901   9.270  0.0382 -0.7019  0.9018
  395MOL0     C54392   9.476   3.967   9.269  0.4417  0.3241 -0.0957
  395MOL0     C54393   9.590   3.866   9.251  0.1633  0.7445 -0.4849
  395MOL0     C54394   9.574   3.778   9.380 -0.5216 -0.1589  0.5960
  395MOL0     C54395   9.701   3.703   9.407 -0.2278  0.3728 -0.2007
  395MOL0     O54396   9.680   3.620   9.521  0.1010  0.2044  0.2230
  395MOL0     C54397   9.771   3.522   9.556 -0.6726 -0.1287  0.6062
  395MOL0     C54398   9.773   3.488   9.692 -0.3295  0.3788 -0.9257
  395MOL0     C54399   9.868   3.397   9.747  0.8634 -0.4048 -0.2276
  395MOL0     C54400   9.861   3.375   9.895  0.5747 -0.5363 -0.7692
  395MOL0     C54401   9.945   3.323   9.648  0.4271  0.5760  0.1483
  395MOL0     C54402  10.046   3.218   9.688  0.3185 -0.2295  0.1972
  395MOL0     O54403  10.109   3.158   9.583 -0.7878 -0.3096  0.7406
  395MOL0     C54404  10.215   3.074   9.602  0.0133 -0.4539 -0.1523
  395MOL0     C54405  10.247   2.996   9.485 -0.6560 -0.2706 -0.4051
  395MOL0     C54406  10.363   2.913   9.480 -0.4806  0.5915  0.6202
  395MOL0     C54407  10.451   2.915   9.593 -0.5949 -0.2679  0.3618
  395MOL0     O54408  10.567   2.840   9.607  0.9258 -0.1773 -0.0189
  395MOL0     C54409  10.594   2.738   9.509  0.1332 -1.4047  0.4458
  395MOL0     C54410  10.726   2.667   9.530 -0.6997  1.3416  0.0722
  395MOL0     C54411  10.844   2.761   9.540  0.4735  0.5116 -0.9642
  395MOL0     C54412  10.949   2.712   9.643  0.8676 -0.2466  0.6403
  395MOL0     C54413  11.028   2.576   9.606  0.3652  0.1732 -0.6595
  395MOL0     C54414  11.117   2.587   9.488  0.0040  0.3887 -0.5954
  395MOL0     C54415  11.178   2.450   9.459  0.7101  0.2637  0.5177
  395MOL0     C54416  11.324   2.451   9.395  0.1403 -0.0160 -0.0866
  395MOL0    Cl54417  11.455   2.519   9.497  0.2560 -0.0935  0.1928
  395MOL0     C54418  10.421   2.989   9.705 -0.2758  0.3574  0.3000
  395MOL0     C54419  10.301   3.067   9.710 -0.9892 -0.1276 -0.1712
  395MOL0     O54420  10.052   3.181   9.802  0.1616  0.0631 -0.4121
  395MOL0     C54421   9.934   3.357   9.509  0.5781 -0.6296  0.1004
  395MOL0     C54422   9.861   3.461   9.472 -0.2491 -0.5561 -1.3515
  395MOL0     N54423   9.275   3.831   9.364 -0.8657 -0.6349 -0.1384
  395MOL0     N54424   9.156   3.792   9.337  0.1275 -0.5545 -0.1328
  395MOL0     C54425   9.686   3.741   8.823  0.7588 -0.5988 -0.1767
  395MOL0     C54426   9.791   3.786   8.901 -0.4762 -0.6551 -0.7049
  395MOL0     C54427  10.181   3.850   9.117 -0.0703 -0.0738  0.0552
  395MOL0     C54428  10.200   3.944   9.220 -0.6742 -1.1117  0.2482
  395MOL0     C54429  10.323   3.966   9.276 -1.3938  0.6074 -0.4537
  395MOL0     C54430  10.435   3.893   9.234 -0.3666  0.2058 -0.5701
  395MOL0     O54431  10.560   3.896   9.296 -0.3807  0.5096  0.3936
  395MOL0     C54432  10.592   3.965   9.415  0.4607 -0.3200 -0.7483
  395MOL0     C54433  10.632   4.109   9.381  0.3188  0.0472  0.1611
  395MOL0     C54434  10.738   4.136   9.290 -0.7095  0.5662 -0.4497
  395MOL0     C54435  10.885   4.101   9.324 -0.6641  0.4934  0.2441
  395MOL0     C54436  10.953   4.217   9.383  0.1899  0.7043  0.2642
  395MOL0     C54437  11.011   4.309   9.437  0.0479  0.9368  0.5327
  395MOL0     C54438  10.422   3.795   9.135  0.0216 -0.0290  0.0107
  395MOL0     C54439  10.291   3.766   9.083 -0.7276 -0.7789 -0.6138
  395MOL0     C54440  10.268   3.641   8.993 -0.2895 -0.2898  0.4644
  395MOL0     H54441  10.042   3.614   8.757  0.8769 -0.4154  0.5410
  395MOL0     H54442   9.857   3.582   8.586 -0.8099  2.3147 -0.5862
  395MOL0     H54443   9.571   3.465   8.766 -1.7313 -2.3531 -0.0811
  395MOL0     H54444   9.641   3.429   8.613 -0.3554 -0.2948  0.0280
  395MOL0     H54445   9.424   3.502   8.501 -0.3925  2.2215  0.7335
  395MOL0     H54446   9.398   3.378   8.629 -0.7440  0.5921  3.3288
  395MOL0     H54447   9.360   3.684   8.671  1.1227  0.1525 -2.8535
  395MOL0     H54448   9.229   3.575   8.620 -0.1276  0.6909 -0.2174
  395MOL0     H54449   9.319   3.439   8.846 -1.3564 -0.3965 -3.7207
  395MOL0     H54450   9.402   3.586   8.881 -0.5636  1.6796  0.3985
  395MOL0     H54451   9.094   3.568   8.840 -1.8330  1.7799  0.6708
  395MOL0     H54452   9.181   3.714   8.860  0.5187 -0.3871  0.9125
  395MOL0     H54453   9.197   3.474   9.044 -1.8259 -1.1408 -2.2011
  395MOL0     H54454   9.267   3.633   9.087 -0.4049 -0.0738 -1.0492
  395MOL0     H54455   9.045   3.568   9.193  3.3121  3.2390  0.9863
  395MOL0     H54456   8.962   3.585   9.044  1.6327 -0.2052 -1.6566
  395MOL0     H54457   9.035   3.823   9.027  4.0268  2.2049  1.6464
  395MOL0     H54458   8.926   3.784   9.166  0.3446  0.1641  2.6688
  395MOL0     H54459   9.256   3.932   9.065  0.7309 -2.5934 -1.3776
  395MOL0     H54460   9.492   4.006   9.370 -1.6679  1.0690  0.0009
  395MOL0     H54461   9.485   4.053   9.202  1.7126 -0.2869 -0.7421
  395MOL0     H54462   9.572   3.801   9.165  0.4613 -2.9020  2.0013
  395MOL0     H54463   9.682   3.924   9.238  0.7928 -0.3221 -0.9129
  395MOL0     H54464   9.552   3.844   9.464  1.5198  1.4947 -0.0821
  395MOL0     H54465   9.493   3.707   9.360 -0.2714  0.4262 -3.1882
  395MOL0     H54466   9.739   3.646   9.322 -0.8059 -2.1010  1.1073
  395MOL0     H54467   9.777   3.777   9.432 -1.5809  2.2626 -1.4300
  395MOL0     H54468   9.705   3.547   9.752  0.6857 -0.6926  1.4244
  395MOL0     H54469   9.832   3.274   9.924 -1.0224  0.2864  0.6878
  395MOL0     H54470   9.787   3.435   9.949  3.3767  0.1644  2.6611
  395MOL0     H54471   9.956   3.398   9.943 -0.2434 -2.2216  1.8209
  395MOL0     H54472  10.192   3.020   9.394 -0.0348  1.9983 -0.2515
  395MOL0     H54473  10.386   2.852   9.393  0.9323 -2.0200  2.6557
  395MOL0     H54474  10.514   2.664   9.520 -0.6824 -0.6559 -0.2186
  395MOL0     H54475  10.599   2.791   9.413 -0.1957  1.7543  2.0295
  395MOL0     H54476  10.710   2.599   9.614 -1.0660 -1.3398 -1.9897
  395MOL0     H54477  10.739   2.600   9.444  0.8999  1.2681  0.3458
  395MOL0     H54478  10.805   2.860   9.568  0.5889  1.3390 -3.4535
  395MOL0     H54479  10.881   2.775   9.438 -0.9183  1.7203 -1.3411
  395MOL0     H54480  10.901   2.702   9.740 -2.6387  0.4701 -0.8511
  395MOL0     H54481  11.028   2.787   9.652  1.1848 -0.3881 -0.7268
  395MOL0     H54482  11.082   2.555   9.699 -1.2324  0.4390  0.3611
  395MOL0     H54483  10.969   2.485   9.590  1.3349 -0.4932 -0.5446
  395MOL0     H54484  11.195   2.662   9.502 -0.1089  0.4097 -0.0517
  395MOL0     H54485  11.053   2.615   9.403 -1.5021  0.1667  0.4249
  395MOL0     H54486  11.108   2.409   9.385 -0.3990  3.4665 -0.3866
  395MOL0     H54487  11.187   2.385   9.547  4.3457 -1.1377 -0.7117
  395MOL0     H54488  11.320   2.509   9.303  0.2308 -2.1946 -1.5403
  395MOL0     H54489  11.338   2.345   9.372 -1.4590 -0.2867  0.0562
  395MOL0     H54490  10.478   2.972   9.795  0.2287 -2.7484 -0.5041
  395MOL0     H54491  10.278   3.122   9.800 -2.3276 -0.9178 -0.0079
  395MOL0     H54492  10.002   3.320   9.433 -0.3424 -1.8187 -0.1817
  395MOL0     H54493   9.869   3.478   9.365 -0.7934 -4.0152 -2.0645
  395MOL0     H54494   9.588   3.787   8.833  0.9055 -0.5495  1.3798
  395MOL0     H54495   9.763   3.844   8.988  2.6719 -1.4734  1.0296
  395MOL0     H54496  10.111   3.994   9.256 -0.4639  0.6185 -1.4646
  395MOL0     H54497  10.335   4.044   9.350 -1.6445  0.6985 -0.5101
  395MOL0     H54498  10.506   3.968   9.483  2.1662  0.4129  1.4922
  395MOL0     H54499  10.674   3.917   9.469  0.9316 -1.1467 -2.1421
  395MOL0     H54500  10.649   4.170   9.471  0.8446  1.1653 -0.6659
  395MOL0     H54501  10.554   4.159   9.322  1.1546 -0.5192 -1.4976
  395MOL0     H54502  10.710   4.074   9.204 -1.6044  0.7546 -0.2932
  395MOL0     H54503  10.731   4.238   9.251 -0.9022  0.3003 -1.1276
  395MOL0     H54504  10.935   4.058   9.237 -1.6416 -1.2310  0.5095
  395MOL0     H54505  10.908   4.018   9.391  0.2679 -0.7402 -1.5203
  395MOL0     H54506  11.061   4.393   9.482 -1.0194  2.8833 -1.6367
  395MOL0     H54507  10.509   3.742   9.097  1.0767  2.3373 -1.1008
  395MOL0     H54508  10.262   3.663   8.886  1.9751 -0.2711  0.2810
  395MOL0     H54509  10.344   3.563   9.003 -1.0395 -1.3225 -1.3712
  395MOL0     H54510  10.175   3.592   9.021 -0.2243 -0.3389  0.5951
  396MOL0     O54511  11.187   8.858   0.946 -0.1799  1.4320  0.0660
  396MOL0     C54512  11.138   8.906   0.849 -0.9577 -0.7049  0.8855
  396MOL0     O54513  11.210   8.955   0.742 -0.1210 -0.0654  0.0996
  396MOL0     C54514  11.347   8.978   0.744 -0.0441 -0.3568 -0.4538
  396MOL0     C54515  11.443   8.898   0.805  0.7175 -1.0570 -0.5059
  396MOL0     C54516  11.584   8.927   0.791  1.1056  0.7478 -0.4606
  396MOL0     C54517  11.624   9.028   0.703  0.6641 -0.1185 -0.4085
  396MOL0     O54518  11.756   9.056   0.682 -0.5984 -0.0888 -0.1932
  396MOL0     C54519  11.867   8.996   0.758 -0.2843 -0.2022  0.1747
  396MOL0     C54520  11.996   9.059   0.712 -0.3552 -0.6593 -0.8792
  396MOL0     C54521  12.117   9.011   0.804  1.6134  0.1577 -0.1693
  396MOL0     C54522  12.133   8.853   0.809  0.3075 -1.0433 -0.1224
  396MOL0     C54523  12.277   8.807   0.848  0.1214  0.7165 -0.0661
  396MOL0     C54524  12.321   8.863   0.979  0.0019 -0.7093 -0.5218
  396MOL0     C54525  12.231   8.801   1.088  0.2365 -0.4060 -0.0103
  396MOL0     C54526  12.272   8.839   1.228 -0.3272 -0.3190 -0.5050
  396MOL0     N54527  12.300   8.976   1.256 -0.0985 -0.0119  0.7375
  396MOL0     C54528  12.208   9.067   1.304  0.0740  0.3461  0.6668
  396MOL0     C54529  12.285   9.176   1.335 -0.4496  0.4590 -0.2659
  396MOL0     C54530  12.235   9.306   1.416  0.2375 -0.4270 -0.1905
  396MOL0     C54531  12.302   9.330   1.557  0.2599  0.2959 -0.2034
  396MOL0     C54532  12.239   9.449   1.638 -0.4121 -0.2881 -0.5019
  396MOL0     C54533  12.251   9.574   1.549  0.1690  0.9677 -0.1426
  396MOL0     O54534  12.256   9.697   1.623 -0.1171  0.1424  0.3478
  396MOL0     C54535  12.365   9.788   1.628  0.6766 -0.5375  0.1425
  396MOL0     C54536  12.412   9.828   1.752  0.4589  1.5310  0.2695
  396MOL0     C54537  12.519   9.923   1.756  1.4097  0.7801 -0.4736
  396MOL0     C54538  12.573   9.952   1.899  0.0726  0.5438 -0.0153
  396MOL0     C54539  12.580   9.974   1.647  0.6342  0.2138  1.0457
  396MOL0     C54540  12.700  10.065   1.638 -0.0224 -1.1025  0.2809
  396MOL0     O54541  12.729  10.148   1.743  0.1173 -0.0472  0.0316
  396MOL0     C54542  12.834  10.230   1.721 -0.0744  0.2048  1.5313
  396MOL0     C54543  12.821  10.343   1.642 -0.2205 -0.6902  0.4441
  396MOL0     C54544  12.915  10.441   1.626 -0.0969 -1.1301  0.4393
  396MOL0     C54545  13.037  10.417   1.686 -0.3145  0.4767  0.1544
  396MOL0     O54546  13.145  10.501   1.661 -0.5066  0.1099 -0.1946
  396MOL0     C54547  13.119  10.632   1.606  0.0269 -0.9593 -0.2983
  396MOL0     C54548  13.249  10.727   1.598 -0.0321 -0.3777 -0.1599
  396MOL0     C54549  13.359  10.664   1.513  0.5208 -0.3039  0.1612
  396MOL0     C54550  13.479  10.753   1.487 -0.5835 -0.2430 -0.0358
  396MOL0     C54551  13.571  10.787   1.609 -0.4391  0.1054  0.5728
  396MOL0     C54552  13.662  10.909   1.584 -0.5984 -0.3633  0.9421
  396MOL0     C54553  13.763  10.890   1.466  0.4465 -0.0539 -0.6581
  396MOL0     C54554  13.852  11.017   1.433 -1.1066  0.5858 -0.3990
  396MOL0    Cl54555  13.957  11.065   1.570  0.0696  0.1541 -0.2392
  396MOL0     C54556  13.056  10.297   1.761 -0.1208  0.0252  0.5278
  396MOL0     C54557  12.950  10.209   1.775  0.2060 -0.1433 -0.0239
  396MOL0     O54558  12.748  10.082   1.522 -0.0508 -0.0651 -0.2498
  396MOL0     C54559  12.520   9.944   1.526 -0.5204 -0.0688  0.6738
  396MOL0     C54560  12.414   9.852   1.516  0.9002  0.2210 -0.3451
  396MOL0     N54561  12.407   9.154   1.307  0.2313 -0.4230  0.0055
  396MOL0     N54562  12.426   9.030   1.262  1.2264 -0.1549 -0.4379
  396MOL0     C54563  11.524   9.109   0.637 -0.5574 -0.2940 -0.6989
  396MOL0     C54564  11.391   9.081   0.655 -0.1417 -0.1436  0.1110
  396MOL0     C54565  10.994   8.917   0.857  0.3265 -0.6307 -0.4195
  396MOL0     C54566  10.930   8.824   0.946 -0.7754  0.3604 -0.2288
  396MOL0     C54567  10.790   8.810   0.961  0.4809 -0.6336  0.2454
  396MOL0     C54568  10.716   8.894   0.891 -0.7867 -0.5137 -0.0222
  396MOL0     O54569  10.585   8.865   0.894  0.0340 -0.3648 -0.8138
  396MOL0     C54570  10.483   8.928   0.811  0.3260 -0.7583  0.1577
  396MOL0     C54571  10.344   8.893   0.872  0.5648 -0.5724 -0.2663
  396MOL0     C54572  10.245   9.003   0.832 -0.4380 -0.4585 -0.6372
  396MOL0     C54573  10.113   8.933   0.838 -0.7465 -0.0093 -0.3744
  396MOL0     C54574   9.995   9.014   0.805  0.1948  0.3598  0.6798
  396MOL0     C54575   9.908   9.088   0.784  0.5697 -0.4567  0.4061
  396MOL0     C54576  10.766   9.002   0.818 -1.4647  0.4101 -0.1648
  396MOL0     C54577  10.905   9.018   0.802  0.7609  0.4531  0.4058
  396MOL0     C54578  10.962   9.143   0.737  0.6754  0.3867  0.4368
  396MOL0     H54579  11.403   8.808   0.852 -2.5467 -0.6146 -2.1081
  396MOL0     H54580  11.652   8.866   0.849  0.6237  1.1522  0.5595
  396MOL0     H54581  11.873   8.888   0.740 -1.2349  0.1769 -3.1340
  396MOL0     H54582  11.846   9.018   0.863 -0.4151 -0.4761  0.2047
  396MOL0     H54583  12.015   9.046   0.605 -2.3085 -0.0758 -1.3336
  396MOL0     H54584  11.990   9.167   0.725 -2.9282 -0.8251 -0.2164
  396MOL0     H54585  12.211   9.054   0.768  1.1284  0.7916 -0.6978
  396MOL0     H54586  12.109   9.060   0.901  1.7103 -0.6511  0.2526
  396MOL0     H54587  12.060   8.809   0.877  0.7864 -0.8028  0.5657
  396MOL0     H54588  12.112   8.818   0.707 -0.3245 -0.3115 -0.2533
  396MOL0     H54589  12.346   8.841   0.771 -0.8877  2.0240 -0.4448
  396MOL0     H54590  12.271   8.698   0.853  1.1781  0.5440 -1.7455
  396MOL0     H54591  12.427   8.852   1.000  0.2284  2.0500  0.2581
  396MOL0     H54592  12.307   8.972   0.987  2.3370 -0.3583 -0.4909
  396MOL0     H54593  12.229   8.692   1.079 -2.8643 -0.6942  2.2614
  396MOL0     H54594  12.131   8.845   1.081  0.7727  1.6885  3.4695
  396MOL0     H54595  12.188   8.811   1.292 -2.8653  0.8113 -3.1571
  396MOL0     H54596  12.363   8.780   1.244 -0.4970 -0.2144  1.0038
  396MOL0     H54597  12.103   9.051   1.322  0.4864 -0.6913  2.3650
  396MOL0     H54598  12.127   9.290   1.431  0.3981 -0.5586  0.8987
  396MOL0     H54599  12.250   9.391   1.350 -0.6426  0.4341  0.6829
  396MOL0     H54600  12.295   9.236   1.612 -1.7977  0.6258  0.1845
  396MOL0     H54601  12.408   9.349   1.540  0.6174 -0.3036  1.2280
  396MOL0     H54602  12.135   9.420   1.650 -0.2090 -1.5766 -1.6172
  396MOL0     H54603  12.296   9.459   1.731 -0.2910 -0.6072 -0.5407
  396MOL0     H54604  12.334   9.561   1.479  1.9556 -0.0169  2.0242
  396MOL0     H54605  12.163   9.565   1.485  0.1328 -0.8538  0.1299
  396MOL0     H54606  12.367   9.785   1.841  0.0477  1.5412  0.0702
  396MOL0     H54607  12.531   9.880   1.970 -1.0635 -0.0107 -1.2038
  396MOL0     H54608  12.537  10.047   1.936  0.6026  0.5116  0.5954
  396MOL0     H54609  12.682   9.949   1.891  0.1488  1.7534  0.5156
  396MOL0     H54610  12.724  10.354   1.594 -0.2492 -2.9351 -0.1496
  396MOL0     H54611  12.896  10.527   1.563 -0.3963 -1.5165 -0.0068
  396MOL0     H54612  13.080  10.638   1.504  2.6552  2.0581 -1.3019
  396MOL0     H54613  13.045  10.678   1.672  0.1816  1.3215 -1.5867
  396MOL0     H54614  13.224  10.828   1.563  2.5067  0.8713  1.3068
  396MOL0     H54615  13.292  10.731   1.699  2.1511 -1.8694 -0.9449
  396MOL0     H54616  13.316  10.633   1.417 -0.7816  0.3301  0.5264
  396MOL0     H54617  13.400  10.573   1.559  1.4570  1.0980  2.2228
  396MOL0     H54618  13.456  10.841   1.426 -0.6826  0.7666  1.4122
  396MOL0     H54619  13.537  10.700   1.411 -0.2996  0.0347 -0.0161
  396MOL0     H54620  13.508  10.821   1.691 -1.8066  1.6850 -1.0538
  396MOL0     H54621  13.617  10.697   1.651  1.7431  0.0328 -1.7381
  396MOL0     H54622  13.720  10.941   1.671  1.3339 -0.8689 -0.1013
  396MOL0     H54623  13.596  10.993   1.560 -1.2827 -0.5825  1.9673
  396MOL0     H54624  13.703  10.871   1.377 -1.6198  2.7647 -0.0178
  396MOL0     H54625  13.833  10.810   1.488 -0.6191 -1.0219 -0.7190
  396MOL0     H54626  13.791  11.105   1.408 -0.4275  1.3405  0.5192
  396MOL0     H54627  13.906  10.979   1.346 -0.8115 -0.7973  0.3656
  396MOL0     H54628  13.150  10.275   1.811  1.2754  1.3648 -1.3689
  396MOL0     H54629  12.954  10.124   1.842  0.3437  0.4693  0.7637
  396MOL0     H54630  12.551   9.984   1.430  0.3100  0.9697  1.3515
  396MOL0     H54631  12.368   9.825   1.421  0.3965 -5.1273  1.1001
  396MOL0     H54632  11.563   9.179   0.564  0.5582 -1.3376 -1.1414
  396MOL0     H54633  11.311   9.132   0.601 -3.0114 -0.6994  3.4854
  396MOL0     H54634  10.983   8.748   1.003  1.0705  1.3834 -0.5006
  396MOL0     H54635  10.734   8.732   1.011 -0.2913 -0.1539  0.1583
  396MOL0     H54636  10.509   9.034   0.799  0.3121 -0.7986 -0.2448
  396MOL0     H54637  10.486   8.890   0.709 -0.5046  2.9767 -1.4496
  396MOL0     H54638  10.360   8.893   0.980  2.8184  1.4292 -0.5149
  396MOL0     H54639  10.321   8.790   0.845 -0.3163 -0.1440 -1.2330
  396MOL0     H54640  10.252   9.091   0.897 -1.8220  0.8253 -2.1547
  396MOL0     H54641  10.262   9.042   0.732 -3.4609 -2.2366 -1.9787
  396MOL0     H54642  10.086   8.898   0.938 -1.4071  3.6514  0.9005
  396MOL0     H54643  10.112   8.847   0.770  1.1392 -0.0926 -0.3363
  396MOL0     H54644   9.829   9.156   0.760  0.3383 -1.4747 -1.9454
  396MOL0     H54645  10.699   9.079   0.780 -2.4908  1.3510  3.1687
  396MOL0     H54646  11.062   9.128   0.696 -0.1380  0.6433 -1.8209
  396MOL0     H54647  10.896   9.167   0.653 -0.2472 -2.2210  0.3070
  396MOL0     H54648  10.970   9.234   0.796 -1.7717  2.0265 -1.5537
  397MOL0     O54649   8.611   5.991   6.273  0.0070  0.1669 -0.0193
  397MOL0     C54650   8.661   6.080   6.201 -0.1120  0.4803 -1.4915
  397MOL0     O54651   8.766   6.156   6.236  0.2140 -0.4009  0.4072
  397MOL0     C54652   8.865   6.123   6.323  0.6668 -0.4065  0.4478
  397MOL0     C54653   8.969   6.217   6.331 -0.3655  0.3088 -0.1129
  397MOL0     C54654   9.090   6.183   6.399  0.8780 -0.7369 -0.0285
  397MOL0     C54655   9.108   6.066   6.473  0.6144 -0.4369  0.1777
  397MOL0     O54656   9.233   6.030   6.531 -0.5363  0.2366  0.1103
  397MOL0     C54657   9.322   6.132   6.587  0.5027  0.3146  0.2825
  397MOL0     C54658   9.393   6.078   6.709  0.5376  0.2026 -1.0800
  397MOL0     C54659   9.508   6.168   6.757  0.0353  1.0540  0.7270
  397MOL0     C54660   9.587   6.131   6.885  0.1560  0.5079 -0.7144
  397MOL0     C54661   9.680   6.012   6.876 -0.5731 -0.1925  0.6940
  397MOL0     C54662   9.750   5.979   7.004  0.2500 -0.3412 -0.2301
  397MOL0     C54663   9.875   5.890   6.995  0.8177 -0.1219  0.0650
  397MOL0     C54664   9.968   5.894   7.115  0.2781 -0.4151 -0.6680
  397MOL0     N54665  10.050   6.025   7.130 -0.0981 -0.0167 -0.2803
  397MOL0     C54666  10.140   6.070   7.037  0.2942  0.1662 -0.2324
  397MOL0     C54667  10.181   6.189   7.072  0.1051 -0.9368  0.6163
  397MOL0     C54668  10.281   6.271   6.996 -0.4035  0.5494 -0.1399
  397MOL0     C54669  10.419   6.278   7.069  0.5600  0.6333 -0.3631
  397MOL0     C54670  10.473   6.136   7.078  1.2301 -0.1781 -0.2523
  397MOL0     C54671  10.600   6.144   7.150  0.5522  0.1075 -0.2987
  397MOL0     O54672  10.712   6.208   7.077  0.7340  0.4756  0.3956
  397MOL0     C54673  10.836   6.219   7.127 -0.6580 -0.5338 -0.0260
  397MOL0     C54674  10.947   6.230   7.038  0.1582 -0.4427  0.2505
  397MOL0     C54675  11.081   6.252   7.081 -0.1607  0.0207 -0.7625
  397MOL0     C54676  11.180   6.277   6.972 -0.0213  0.2466 -0.9065
  397MOL0     C54677  11.112   6.262   7.222  0.1178 -1.0411  0.6076
  397MOL0     C54678  11.238   6.298   7.284 -0.0843  0.5436  0.3781
  397MOL0     O54679  11.237   6.332   7.411 -0.3015 -0.3275  0.1936
  397MOL0     C54680  11.352   6.348   7.479  0.2210 -0.3403 -0.6729
  397MOL0     C54681  11.419   6.471   7.480 -0.8556  0.2682  0.3423
  397MOL0     C54682  11.557   6.474   7.528 -0.1532  0.1142 -0.3311
  397MOL0     C54683  11.629   6.362   7.572  0.9924 -0.0851  0.7239
  397MOL0     O54684  11.761   6.362   7.620  0.2004 -0.0813 -0.8756
  397MOL0     C54685  11.832   6.482   7.586 -0.4114  0.1470  0.2873
  397MOL0     C54686  11.937   6.486   7.710 -0.9483  0.3042  0.7577
  397MOL0     C54687  12.032   6.595   7.686  0.1335 -0.6430 -0.0361
  397MOL0     C54688  12.127   6.560   7.571 -0.9192  0.2620 -0.5190
  397MOL0     C54689  12.249   6.647   7.559 -0.7071 -0.1859 -0.1144
  397MOL0     C54690  12.353   6.629   7.675 -0.5136  0.0675  0.0637
  397MOL0     C54691  12.461   6.728   7.652  0.6844  0.6160  0.2092
  397MOL0     C54692  12.578   6.720   7.752  0.5714  0.0278 -0.3121
  397MOL0    Cl54693  12.532   6.815   7.906  0.1006  0.0523 -0.0536
  397MOL0     C54694  11.564   6.236   7.563  0.3865 -0.3058 -0.5898
  397MOL0     C54695  11.425   6.233   7.525  0.3069 -1.1397  0.6514
  397MOL0     O54696  11.342   6.294   7.213 -1.0260 -0.0422  0.1053
  397MOL0     C54697  11.000   6.247   7.310 -0.0697 -0.4139  0.3613
  397MOL0     C54698  10.871   6.227   7.268  0.5627  0.4052 -0.4226
  397MOL0     N54699  10.112   6.225   7.186 -0.0103 -0.1944  1.0201
  397MOL0     N54700  10.041   6.122   7.228 -0.5179  0.4859 -0.4250
  397MOL0     C54701   9.000   5.977   6.461 -0.3080  0.7905 -0.4983
  397MOL0     C54702   8.881   6.011   6.399  0.7586 -0.3953 -0.0129
  397MOL0     C54703   8.592   6.131   6.080  0.9961 -0.4379 -0.7652
  397MOL0     C54704   8.642   6.247   6.021  0.4091  0.4256 -0.9808
  397MOL0     C54705   8.590   6.295   5.912  0.9482 -0.4764 -0.6175
  397MOL0     C54706   8.481   6.233   5.853 -0.4765  0.1056 -0.0986
  397MOL0     O54707   8.437   6.279   5.736 -0.2045 -0.2626  0.4475
  397MOL0     C54708   8.370   6.413   5.746  0.0283 -0.5034  0.4298
  397MOL0     C54709   8.249   6.421   5.658  0.6777 -0.5303 -0.0899
  397MOL0     C54710   8.122   6.349   5.707  0.4087  0.1176 -0.5167
  397MOL0     C54711   7.999   6.363   5.605  0.1614 -0.3848  0.5622
  397MOL0     C54712   7.873   6.316   5.656  0.4140 -1.2354 -0.3107
  397MOL0     C54713   7.767   6.288   5.708 -0.0941 -0.0955 -0.8587
  397MOL0     C54714   8.434   6.115   5.905  0.2529  1.5416 -0.1874
  397MOL0     C54715   8.482   6.059   6.028 -0.3286 -0.0235 -0.5136
  397MOL0     C54716   8.420   5.931   6.086  0.0239  0.1344 -0.5571
  397MOL0     H54717   8.965   6.306   6.269 -0.3515  0.4527  0.0907
  397MOL0     H54718   9.172   6.253   6.386 -0.8086  0.9613 -2.2610
  397MOL0     H54719   9.257   6.217   6.612 -0.0604  0.2584 -0.9407
  397MOL0     H54720   9.398   6.170   6.518 -0.3205  2.7052  0.5848
  397MOL0     H54721   9.333   6.054   6.798  1.8031 -0.7669 -0.4544
  397MOL0     H54722   9.439   5.981   6.691 -0.1863 -0.2532 -0.5562
  397MOL0     H54723   9.576   6.165   6.672 -0.7761  0.8528  0.0686
  397MOL0     H54724   9.461   6.266   6.769 -0.1470  1.0779 -0.1441
  397MOL0     H54725   9.650   6.216   6.913  0.2078 -0.3170  1.9687
  397MOL0     H54726   9.522   6.123   6.973  2.4007  0.2393  1.0151
  397MOL0     H54727   9.747   6.019   6.789 -2.4440  0.9928 -0.7386
  397MOL0     H54728   9.627   5.918   6.859  1.3195 -0.9240 -1.9889
  397MOL0     H54729   9.772   6.067   7.065  0.5958 -1.1067  0.7937
  397MOL0     H54730   9.670   5.930   7.061 -2.2233  1.1738 -2.2024
  397MOL0     H54731   9.925   5.930   6.907 -1.4947  0.7583 -0.9211
  397MOL0     H54732   9.846   5.786   6.977 -0.3580  0.1877  0.0711
  397MOL0     H54733   9.911   5.883   7.208 -0.3026 -0.6578 -1.0433
  397MOL0     H54734  10.035   5.807   7.119  1.0076  0.1398 -0.6683
  397MOL0     H54735  10.175   6.030   6.942  1.3554  0.9899 -0.2044
  397MOL0     H54736  10.242   6.373   6.994  2.4124  1.7534  0.9718
  397MOL0     H54737  10.300   6.226   6.898  1.3476 -1.2854  0.9500
  397MOL0     H54738  10.490   6.342   7.016 -0.1516  3.1652  1.5325
  397MOL0     H54739  10.408   6.301   7.176  2.6374 -3.4072  0.9600
  397MOL0     H54740  10.409   6.069   7.137  1.0040  0.8928  0.7631
  397MOL0     H54741  10.487   6.091   6.980 -3.3273 -0.7162 -0.8719
  397MOL0     H54742  10.588   6.203   7.242 -0.2078 -0.3275 -0.1100
  397MOL0     H54743  10.625   6.042   7.181 -0.1795 -0.9492 -2.9017
  397MOL0     H54744  10.928   6.217   6.932 -0.0924 -0.0291  0.2429
  397MOL0     H54745  11.273   6.222   6.988  0.2867  1.1602  0.6485
  397MOL0     H54746  11.200   6.384   6.974 -1.8645  0.6272 -0.7491
  397MOL0     H54747  11.136   6.245   6.877 -3.7528 -0.7999  0.9638
  397MOL0     H54748  11.380   6.564   7.438  0.3066  0.4688 -0.3518
  397MOL0     H54749  11.596   6.575   7.521 -0.8649  0.5969  1.8479
  397MOL0     H54750  11.886   6.467   7.492 -1.6567 -0.1125 -0.4183
  397MOL0     H54751  11.777   6.576   7.584 -0.2049  0.3188  1.9777
  397MOL0     H54752  11.885   6.499   7.805 -1.1519  0.4145  0.6345
  397MOL0     H54753  11.991   6.392   7.718  2.7564  2.2292  0.3288
  397MOL0     H54754  12.089   6.605   7.779 -3.0701  0.7592  1.9541
  397MOL0     H54755  11.980   6.690   7.669  0.4967 -0.5956 -0.9201
  397MOL0     H54756  12.072   6.554   7.477  0.8355 -0.0967 -1.5831
  397MOL0     H54757  12.160   6.457   7.586 -1.1783  0.1494 -0.7121
  397MOL0     H54758  12.299   6.618   7.466 -1.9795  0.4660 -1.0220
  397MOL0     H54759  12.201   6.745   7.556 -3.4336 -1.3300  1.9449
  397MOL0     H54760  12.396   6.529   7.666  3.0363  1.6549 -3.7475
  397MOL0     H54761  12.313   6.656   7.774  5.3826  3.0003  2.1645
  397MOL0     H54762  12.425   6.831   7.656 -2.9013 -0.4928  0.0477
  397MOL0     H54763  12.501   6.713   7.551 -0.5710 -1.1878 -0.0657
  397MOL0     H54764  12.661   6.767   7.699 -1.5100  2.3066 -1.7475
  397MOL0     H54765  12.597   6.615   7.776 -0.6685 -0.4480 -1.2922
  397MOL0     H54766  11.621   6.148   7.591  2.3213  1.5035  1.5927
  397MOL0     H54767  11.367   6.141   7.518 -1.6966  0.1520 -1.1662
  397MOL0     H54768  11.008   6.238   7.418  2.0663 -0.7815  0.2014
  397MOL0     H54769  10.785   6.231   7.335  2.6533  0.1728  2.4538
  397MOL0     H54770   9.004   5.887   6.521 -0.9733 -0.2908 -2.0007
  397MOL0     H54771   8.794   5.947   6.407 -2.2492  3.2053 -1.0099
  397MOL0     H54772   8.727   6.297   6.066  0.4190  1.2096 -1.8309
  397MOL0     H54773   8.633   6.376   5.854 -1.7693  0.0534 -2.1029
  397MOL0     H54774   8.336   6.437   5.847 -0.6599 -1.3717  0.4195
  397MOL0     H54775   8.439   6.489   5.709  1.0764 -1.2830  0.7268
  397MOL0     H54776   8.273   6.387   5.557  1.3777  0.8630 -0.4120
  397MOL0     H54777   8.227   6.527   5.640 -0.4585 -0.8812 -0.8743
  397MOL0     H54778   8.139   6.245   5.736  2.0728  0.4979 -0.0149
  397MOL0     H54779   8.087   6.393   5.801  0.8820 -1.5215  0.4591
  397MOL0     H54780   8.006   6.324   5.504  0.1504 -1.7800  1.0824
  397MOL0     H54781   7.986   6.470   5.587 -0.0879 -0.6604 -1.0745
  397MOL0     H54782   7.682   6.267   5.770 -0.1260 -0.6657 -1.0893
  397MOL0     H54783   8.346   6.068   5.862  0.7261 -0.5954  1.0019
  397MOL0     H54784   8.345   5.887   6.020 -0.6848 -0.6224  0.7261
  397MOL0     H54785   8.491   5.848   6.094 -0.6180 -1.1348 -5.3387
  397MOL0     H54786   8.365   5.952   6.178 -0.5519  0.4756 -0.9751
  398MOL0     O54787  10.346   2.917   1.274  0.3616  0.0377 -0.5413
  398MOL0     C54788  10.359   2.850   1.174  0.3555  0.3693  1.1148
  398MOL0     O54789  10.479   2.817   1.109  0.2949  0.2763 -0.4407
  398MOL0     C54790  10.599   2.872   1.152 -0.0968  0.2715  0.7580
  398MOL0     C54791  10.645   2.982   1.079  0.5905 -0.9752 -0.2212
  398MOL0     C54792  10.761   3.042   1.122  0.4175 -0.3880  0.3353
  398MOL0     C54793  10.833   2.998   1.230 -0.5960 -0.5756 -0.4004
  398MOL0     O54794  10.936   3.085   1.269  1.2200 -0.2544 -0.0140
  398MOL0     C54795  11.019   3.025   1.362  0.0357 -0.9320 -0.2856
  398MOL0     C54796  11.137   3.122   1.362 -0.5164 -0.3131  0.6681
  398MOL0     C54797  11.182   3.166   1.222 -0.2294  0.6042  0.3477
  398MOL0     C54798  11.201   3.040   1.135  0.0738  0.8519  1.0872
  398MOL0     C54799  11.300   3.058   1.019 -0.5780 -0.7702  0.6910
  398MOL0     C54800  11.254   3.170   0.925 -0.1135 -0.4621  0.7955
  398MOL0     C54801  11.340   3.166   0.795 -0.0841  0.5894  0.4523
  398MOL0     C54802  11.303   3.282   0.703  0.8103 -0.8041 -0.5674
  398MOL0     N54803  11.382   3.271   0.578  1.1739  0.2540  0.6772
  398MOL0     C54804  11.512   3.297   0.540  0.2136  0.3611  0.6085
  398MOL0     C54805  11.523   3.251   0.414 -0.1349 -0.8317  0.8372
  398MOL0     C54806  11.648   3.278   0.330 -0.1094 -0.5306  0.0381
  398MOL0     C54807  11.736   3.159   0.322 -0.1489 -0.1329 -0.2981
  398MOL0     C54808  11.881   3.184   0.280 -0.7319 -0.3861  0.2217
  398MOL0     C54809  11.979   3.070   0.251 -0.3519  0.0010 -0.1540
  398MOL0     O54810  12.114   3.120   0.242 -0.3288 -0.3257 -0.5005
  398MOL0     C54811  12.229   3.039   0.231  0.4582 -0.1037 -0.2828
  398MOL0     C54812  12.229   2.906   0.252  0.8211  0.5381  0.4724
  398MOL0     C54813  12.340   2.823   0.242 -0.1665 -0.3130 -0.5901
  398MOL0     C54814  12.318   2.675   0.266  0.6723  0.8259 -0.0302
  398MOL0     C54815  12.464   2.879   0.205 -0.5595  0.6797  0.3582
  398MOL0     C54816  12.592   2.792   0.209  0.7256  1.0633 -0.0682
  398MOL0     O54817  12.703   2.839   0.148  0.1519  0.4027  0.1419
  398MOL0     C54818  12.830   2.789   0.189 -0.0945 -1.1242 -0.7891
  398MOL0     C54819  12.867   2.764   0.327 -0.3016 -0.4240  0.0906
  398MOL0     C54820  12.992   2.723   0.358  0.2046  0.6243  0.0506
  398MOL0     C54821  13.092   2.717   0.260 -0.3823 -0.3826  0.6099
  398MOL0     O54822  13.222   2.684   0.279  0.2358 -0.4763 -0.2734
  398MOL0     C54823  13.268   2.674   0.411 -0.5248 -1.1771  0.7168
  398MOL0     C54824  13.412   2.625   0.415  0.3756 -0.0915 -0.0626
  398MOL0     C54825  13.436   2.476   0.390 -0.0995  0.0162  0.2819
  398MOL0     C54826  13.574   2.425   0.429 -0.1812 -0.7959 -0.1853
  398MOL0     C54827  13.599   2.278   0.391  0.0050  0.7859 -0.4386
  398MOL0     C54828  13.741   2.226   0.443 -0.3537 -0.5926  0.3820
  398MOL0     C54829  13.801   2.127   0.338 -0.6153  0.1346  0.6419
  398MOL0     C54830  13.952   2.103   0.363 -1.2016  1.2228  0.1093
  398MOL0    Cl54831  14.040   1.976   0.255  0.2223 -0.5050  0.8200
  398MOL0     C54832  13.060   2.725   0.130  0.1231 -0.2281  0.2150
  398MOL0     C54833  12.930   2.763   0.095  0.4313  0.3234  0.5832
  398MOL0     O54834  12.585   2.687   0.275 -0.0688  1.1595  0.0647
  398MOL0     C54835  12.469   3.018   0.193  0.1757  0.7590 -0.2210
  398MOL0     C54836  12.355   3.097   0.210 -0.2987  0.7918 -0.3150
  398MOL0     N54837  11.405   3.188   0.372 -0.2649 -0.3839  0.6011
  398MOL0     N54838  11.326   3.191   0.479  1.2491 -0.0716  0.0559
  398MOL0     C54839  10.787   2.891   1.308 -0.5145 -0.0394 -0.1213
  398MOL0     C54840  10.671   2.819   1.263  0.0852  1.1446  0.1522
  398MOL0     C54841  10.241   2.806   1.105 -0.9379 -0.5169  0.0792
  398MOL0     C54842  10.206   2.673   1.120  0.6381 -0.5439  1.0986
  398MOL0     C54843  10.078   2.632   1.071 -0.5373  0.2412 -0.3427
  398MOL0     C54844   9.996   2.723   1.007  0.2822 -0.3839  0.1836
  398MOL0     O54845   9.867   2.683   0.983 -0.0490  0.1269  0.0364
  398MOL0     C54846   9.752   2.774   0.991 -0.2191  0.0110  0.2114
  398MOL0     C54847   9.623   2.690   0.949 -0.2048 -0.8457 -0.6606
  398MOL0     C54848   9.635   2.645   0.794 -0.0376 -0.4264 -0.7792
  398MOL0     C54849   9.500   2.587   0.745  0.0845 -0.0655  0.0547
  398MOL0     C54850   9.492   2.437   0.760 -0.5749 -0.4274 -0.1484
  398MOL0     C54851   9.481   2.318   0.780  0.2690 -0.6071 -0.1962
  398MOL0     C54852  10.039   2.865   0.996 -0.1829 -0.1426 -0.1057
  398MOL0     C54853  10.160   2.904   1.045  0.3119  0.1781  0.2591
  398MOL0     C54854  10.199   3.044   1.049 -0.2079  0.4961 -0.2685
  398MOL0     H54855  10.590   3.029   0.997  1.7245 -1.2600 -1.1721
  398MOL0     H54856  10.798   3.132   1.074 -0.7242 -0.1032 -0.0428
  398MOL0     H54857  11.043   2.923   1.331 -0.4432 -0.9696 -0.5298
  398MOL0     H54858  10.983   3.025   1.465 -0.3309 -0.4247 -0.4144
  398MOL0     H54859  11.117   3.216   1.412  0.8839  0.8587 -0.8631
  398MOL0     H54860  11.217   3.065   1.411 -1.1929 -3.7460 -1.7694
  398MOL0     H54861  11.119   3.244   1.178  1.2217  1.1489 -0.8678
  398MOL0     H54862  11.279   3.216   1.228 -0.6529  1.3950  0.7291
  398MOL0     H54863  11.232   2.960   1.202 -0.0622  0.1937  0.3773
  398MOL0     H54864  11.105   3.013   1.091  0.2071  0.8201  0.8145
  398MOL0     H54865  11.309   2.968   0.957  0.1858  1.5985 -2.9346
  398MOL0     H54866  11.398   3.087   1.057 -0.4360 -0.0015 -0.2277
  398MOL0     H54867  11.147   3.162   0.906 -0.4747  0.6697  2.2041
  398MOL0     H54868  11.266   3.264   0.980  0.0521 -1.8577  3.2859
  398MOL0     H54869  11.305   3.078   0.740 -2.5427  1.9933 -0.3820
  398MOL0     H54870  11.446   3.162   0.824  0.3835  3.5618 -0.5055
  398MOL0     H54871  11.198   3.274   0.675  0.3246  3.4758 -0.5859
  398MOL0     H54872  11.320   3.376   0.757 -1.4740 -1.7337  2.0165
  398MOL0     H54873  11.574   3.371   0.589 -1.9607  1.1603  2.2966
  398MOL0     H54874  11.705   3.356   0.383 -0.7862 -0.9378  1.4177
  398MOL0     H54875  11.623   3.321   0.233  1.0462  2.6220  0.9833
  398MOL0     H54876  11.738   3.117   0.423 -1.5263 -2.9719 -1.3673
  398MOL0     H54877  11.702   3.086   0.248  1.4730  1.3695 -2.6666
  398MOL0     H54878  11.873   3.257   0.199  0.0918  0.7316  1.1227
  398MOL0     H54879  11.925   3.237   0.365 -1.2878 -0.6875  0.7053
  398MOL0     H54880  11.973   2.989   0.325 -1.6844  0.4739  0.2694
  398MOL0     H54881  11.963   3.032   0.150  3.6176  0.0794 -0.9920
  398MOL0     H54882  12.138   2.855   0.283  0.0006 -0.0172 -2.5425
  398MOL0     H54883  12.352   2.613   0.182 -4.3328 -0.2276 -1.5859
  398MOL0     H54884  12.213   2.648   0.279  2.0876 -5.2650  1.9168
  398MOL0     H54885  12.359   2.646   0.363  1.7144  0.0266 -0.6810
  398MOL0     H54886  12.788   2.771   0.401 -1.4353  0.4953 -1.1494
  398MOL0     H54887  13.015   2.694   0.460 -2.0669 -0.8320  0.2304
  398MOL0     H54888  13.266   2.772   0.459  0.3921 -0.0910 -1.3256
  398MOL0     H54889  13.208   2.603   0.468  0.2173 -1.1216  1.5797
  398MOL0     H54890  13.464   2.682   0.337  0.3966  0.9504  0.6878
  398MOL0     H54891  13.445   2.651   0.516 -1.8790  1.9495  0.2558
  398MOL0     H54892  13.403   2.454   0.288 -1.3056 -3.7237  1.3066
  398MOL0     H54893  13.363   2.418   0.447 -0.0483 -1.9944 -1.5434
  398MOL0     H54894  13.579   2.444   0.537 -0.3926 -1.0105 -0.1370
  398MOL0     H54895  13.650   2.493   0.391 -0.2699 -2.3168 -3.4732
  398MOL0     H54896  13.515   2.217   0.425  0.4311  0.2247 -0.3788
  398MOL0     H54897  13.597   2.273   0.281 -1.3273 -0.1328 -0.4015
  398MOL0     H54898  13.744   2.180   0.543  4.8143 -1.2085  0.2103
  398MOL0     H54899  13.812   2.309   0.452 -1.0053  0.1909 -1.3742
  398MOL0     H54900  13.772   2.147   0.235 -0.7653 -1.4259  0.3647
  398MOL0     H54901  13.745   2.034   0.356 -1.6365  0.4615 -0.6813
  398MOL0     H54902  13.967   2.076   0.468 -0.1144 -2.8638 -0.8957
  398MOL0     H54903  13.999   2.199   0.338  0.3431  0.4767  0.0629
  398MOL0     H54904  13.129   2.700   0.050 -0.7606  0.7447 -0.8791
  398MOL0     H54905  12.913   2.777  -0.011  1.9239 -0.7095  0.1704
  398MOL0     H54906  12.570   3.058   0.185  0.9236 -0.1151  3.0554
  398MOL0     H54907  12.371   3.204   0.204 -0.5319  0.7565 -1.9282
  398MOL0     H54908  10.843   2.846   1.389  3.3937  2.7202 -1.0101
  398MOL0     H54909  10.649   2.737   1.331  2.3755  1.3377  1.2245
  398MOL0     H54910  10.272   2.605   1.172 -0.4744 -3.0420 -0.5334
  398MOL0     H54911  10.035   2.536   1.097 -2.0744  0.3389 -2.3154
  398MOL0     H54912   9.748   2.810   1.094 -1.6460 -0.5853  0.3910
  398MOL0     H54913   9.769   2.857   0.921  2.1695  1.2370  2.1050
  398MOL0     H54914   9.539   2.758   0.962  0.7396  0.4441 -1.1032
  398MOL0     H54915   9.614   2.606   1.018  0.5944 -0.7294 -0.4028
  398MOL0     H54916   9.653   2.729   0.726  1.4067  0.7125  0.9309
  398MOL0     H54917   9.723   2.582   0.783  0.3333 -0.1181  0.2689
  398MOL0     H54918   9.489   2.609   0.638 -1.3805 -2.1133 -0.2638
  398MOL0     H54919   9.418   2.637   0.797  1.6694  0.7918  1.8609
  398MOL0     H54920   9.489   2.213   0.803 -1.9689 -0.7514  0.1528
  398MOL0     H54921   9.976   2.936   0.944  0.1896  0.1488 -0.1586
  398MOL0     H54922  10.297   3.056   1.003  0.5871  0.5988  1.3602
  398MOL0     H54923  10.131   3.112   0.996  1.7340  2.4790 -0.3549
  398MOL0     H54924  10.218   3.081   1.150 -1.9267  0.2275  0.1798
  399MOL0     O54925  11.187   4.385   8.495 -0.2270 -0.0937 -0.2488
  399MOL0     C54926  11.107   4.480   8.496  0.1378 -0.5146  1.2229
  399MOL0     O54927  11.123   4.604   8.551  0.3456 -0.7555 -0.1403
  399MOL0     C54928  11.232   4.624   8.626 -0.1503  0.0640  0.1937
  399MOL0     C54929  11.248   4.566   8.754  0.1023  0.2496 -0.3414
  399MOL0     C54930  11.367   4.597   8.833 -0.0781  0.0955  0.9917
  399MOL0     C54931  11.460   4.687   8.789  0.3112 -0.2592  0.7972
  399MOL0     O54932  11.574   4.711   8.851 -0.3890  0.2727 -0.4646
  399MOL0     C54933  11.592   4.712   8.997 -0.1369  0.1411 -0.0673
  399MOL0     C54934  11.539   4.843   9.058  0.6524  0.2244  0.6664
  399MOL0     C54935  11.640   4.954   9.019  0.4235  0.4821  0.4616
  399MOL0     C54936  11.605   5.094   9.066 -0.2560 -0.1283  0.2615
  399MOL0     C54937  11.714   5.206   9.027 -0.1541 -0.7567  0.3499
  399MOL0     C54938  11.847   5.192   9.112  0.3363 -0.8377  0.8366
  399MOL0     C54939  11.973   5.277   9.064  1.7450 -0.0198  0.5543
  399MOL0     C54940  11.955   5.420   9.104 -1.0141 -1.3986  0.3401
  399MOL0     N54941  12.080   5.492   9.074 -0.2435 -0.2146 -0.5941
  399MOL0     C54942  12.177   5.459   8.988 -0.8121 -0.3155  0.3419
  399MOL0     C54943  12.261   5.570   8.991  0.7943  1.2308  0.3930
  399MOL0     C54944  12.397   5.579   8.931  0.6917 -0.3101 -0.0524
  399MOL0     C54945  12.406   5.526   8.781  0.0904 -0.9116 -0.5380
  399MOL0     C54946  12.455   5.378   8.771 -0.1937  0.2671 -0.9102
  399MOL0     C54947  12.579   5.332   8.847  0.8598 -0.2353 -0.1746
  399MOL0     O54948  12.673   5.439   8.852 -0.1512  0.4706  0.4314
  399MOL0     C54949  12.806   5.409   8.837  0.6084 -0.7539  0.7526
  399MOL0     C54950  12.876   5.317   8.902  0.3626  0.2015  0.5184
  399MOL0     C54951  13.018   5.302   8.898  0.0202  0.3067 -0.0938
  399MOL0     C54952  13.083   5.202   8.975 -0.0601  0.7774 -0.6212
  399MOL0     C54953  13.095   5.399   8.828  0.0789  0.3747  0.3188
  399MOL0     C54954  13.239   5.393   8.825 -0.8096  0.2732 -0.0888
  399MOL0     O54955  13.310   5.503   8.867 -0.3045  0.8772  1.0082
  399MOL0     C54956  13.441   5.502   8.824  0.2209  0.5300  0.2931
  399MOL0     C54957  13.466   5.616   8.749 -0.6918  0.0550  0.1031
  399MOL0     C54958  13.586   5.636   8.677  1.2054 -0.6265  0.5719
  399MOL0     C54959  13.692   5.547   8.694  0.0925 -0.3435 -0.0100
  399MOL0     O54960  13.805   5.566   8.638 -0.1412  0.3772  0.4491
  399MOL0     C54961  13.880   5.685   8.668 -0.0494  0.9246 -0.3436
  399MOL0     C54962  14.021   5.700   8.600  0.2199  0.2194  0.1725
  399MOL0     C54963  14.008   5.748   8.457  0.2425  0.3151  0.2396
  399MOL0     C54964  14.148   5.739   8.394 -0.0675  0.0818  0.2431
  399MOL0     C54965  14.185   5.594   8.344  0.1019  0.5258 -0.2497
  399MOL0     C54966  14.292   5.596   8.237  0.2377 -0.3661  0.1399
  399MOL0     C54967  14.326   5.455   8.188 -0.4989 -0.2328  0.0226
  399MOL0     C54968  14.423   5.467   8.070  0.0184  0.4473  0.6085
  399MOL0    Cl54969  14.526   5.320   8.074 -0.2585 -0.0417  0.1582
  399MOL0     C54970  13.668   5.429   8.772  0.1969  0.6712  0.5857
  399MOL0     C54971  13.541   5.408   8.838  0.0818  0.3647  0.2253
  399MOL0     O54972  13.274   5.298   8.766  0.1384  0.4046 -0.0959
  399MOL0     C54973  13.021   5.501   8.764 -0.0794  0.6904 -0.8921
  399MOL0     C54974  12.882   5.510   8.775  0.2909  0.0901 -0.6833
  399MOL0     N54975  12.205   5.665   9.076 -0.1608 -0.2678  0.0589
  399MOL0     N54976  12.094   5.622   9.120 -0.5527  0.5288 -0.8575
  399MOL0     C54977  11.434   4.747   8.665 -0.0336  0.9935 -0.2379
  399MOL0     C54978  11.332   4.706   8.578  0.6261  0.4035  0.2338
  399MOL0     C54979  10.987   4.469   8.417  0.7394 -0.3995 -0.2822
  399MOL0     C54980  10.861   4.504   8.463  0.6707  0.3788 -0.4680
  399MOL0     C54981  10.742   4.488   8.384 -0.0915  0.0803 -0.5938
  399MOL0     C54982  10.751   4.449   8.252 -0.6911  0.2685 -0.0878
  399MOL0     O54983  10.652   4.435   8.155 -0.7786  0.4868 -0.1434
  399MOL0     C54984  10.511   4.454   8.190  0.1437  0.6019  0.2572
  399MOL0     C54985  10.413   4.415   8.080  0.4169  0.5749 -0.3257
  399MOL0     C54986  10.440   4.489   7.949 -0.2852  0.3598  0.3581
  399MOL0     C54987  10.378   4.628   7.939 -1.1183  0.2364 -1.1335
  399MOL0     C54988  10.407   4.707   7.817  1.0335 -0.1427  0.7093
  399MOL0     C54989  10.420   4.794   7.741  0.8424  0.0383  0.9722
  399MOL0     C54990  10.874   4.428   8.198  0.1406 -0.2974 -0.4331
  399MOL0     C54991  10.988   4.425   8.279 -0.1972  0.2093  0.3813
  399MOL0     C54992  11.116   4.371   8.213 -0.0055 -0.0843 -0.2161
  399MOL0     H54993  11.169   4.501   8.791  0.2117 -0.4677 -1.3340
  399MOL0     H54994  11.368   4.556   8.934 -0.6748  3.4692  2.5187
  399MOL0     H54995  11.698   4.717   9.022 -0.0085 -0.5291 -0.4600
  399MOL0     H54996  11.537   4.633   9.049 -1.2296 -0.0171 -1.4082
  399MOL0     H54997  11.444   4.876   9.015 -0.1824 -1.2161  1.3182
  399MOL0     H54998  11.515   4.830   9.164 -0.6193  2.1739  0.6699
  399MOL0     H54999  11.742   4.944   9.057  1.4774  4.7545 -0.6819
  399MOL0     H55000  11.654   4.958   8.911  1.3758  3.4023  0.5847
  399MOL0     H55001  11.504   5.115   9.030 -0.7633 -0.8094  1.2348
  399MOL0     H55002  11.596   5.088   9.175 -0.6696  3.2079  0.5104
  399MOL0     H55003  11.667   5.302   9.052  1.9149  0.0039  1.5005
  399MOL0     H55004  11.728   5.206   8.918 -0.5403 -0.9405  0.2968
  399MOL0     H55005  11.817   5.220   9.214 -1.4318 -1.2162  0.4552
  399MOL0     H55006  11.881   5.091   9.093  0.3274 -0.4966 -1.1643
  399MOL0     H55007  11.988   5.262   8.957 -2.6835  1.1024 -0.4491
  399MOL0     H55008  12.058   5.240   9.121  0.8317  0.2488  2.1575
  399MOL0     H55009  11.868   5.453   9.046  0.7977  1.9408 -0.7253
  399MOL0     H55010  11.938   5.423   9.212  0.8585 -0.5522  0.6413
  399MOL0     H55011  12.195   5.361   8.946  3.4750  0.2524  0.3715
  399MOL0     H55012  12.460   5.519   8.997  1.1998  0.7837  0.4843
  399MOL0     H55013  12.426   5.684   8.930 -1.8271  0.4656  0.2801
  399MOL0     H55014  12.312   5.543   8.728  0.6592  2.2328 -0.7286
  399MOL0     H55015  12.476   5.590   8.726  1.7726 -0.9201  1.4646
  399MOL0     H55016  12.372   5.315   8.803  0.9510 -1.2257 -0.7514
  399MOL0     H55017  12.471   5.348   8.667  2.6040  1.5044 -0.9296
  399MOL0     H55018  12.548   5.298   8.946  2.8440  1.7883  1.2220
  399MOL0     H55019  12.621   5.246   8.794  0.5888  0.3717 -1.4012
  399MOL0     H55020  12.818   5.241   8.955 -0.5455 -1.6595 -2.8226
  399MOL0     H55021  13.006   5.162   9.040 -0.2074 -1.4200 -2.0247
  399MOL0     H55022  13.158   5.249   9.040 -0.9237 -0.2573  1.1947
  399MOL0     H55023  13.123   5.125   8.908  1.1602  0.2542  0.6649
  399MOL0     H55024  13.382   5.682   8.728 -1.0105  0.3538  2.1433
  399MOL0     H55025  13.608   5.722   8.615  2.1184  0.3405  2.1784
  399MOL0     H55026  13.815   5.772   8.648  0.1028  1.0998 -0.0897
  399MOL0     H55027  13.891   5.695   8.777 -0.2139 -0.6214 -0.1749
  399MOL0     H55028  14.076   5.776   8.656 -0.9163 -0.2064  1.9530
  399MOL0     H55029  14.075   5.605   8.605 -1.1627 -0.5177  2.3382
  399MOL0     H55030  13.992   5.855   8.475 -0.4492 -0.2292  3.7670
  399MOL0     H55031  13.932   5.695   8.399  1.3117 -1.9334  0.7518
  399MOL0     H55032  14.227   5.771   8.463  2.2916 -1.2354 -1.6609
  399MOL0     H55033  14.149   5.805   8.307 -2.5007 -0.1777 -0.0577
  399MOL0     H55034  14.223   5.525   8.420  2.3979  2.3623  0.3831
  399MOL0     H55035  14.099   5.547   8.294  0.4189 -1.2538  0.7976
  399MOL0     H55036  14.378   5.655   8.269 -1.0437  1.2013  0.8145
  399MOL0     H55037  14.251   5.650   8.151 -0.6915 -3.1096 -1.2706
  399MOL0     H55038  14.242   5.401   8.143 -1.0386  1.1395 -0.6667
  399MOL0     H55039  14.361   5.404   8.279 -1.0893  1.7562  1.4288
  399MOL0     H55040  14.483   5.558   8.072  0.3329  0.4137 -2.5152
  399MOL0     H55041  14.370   5.465   7.974  4.6370  1.4229 -2.2782
  399MOL0     H55042  13.743   5.353   8.790 -0.0787 -0.5726 -2.8312
  399MOL0     H55043  13.522   5.319   8.898 -1.2367  1.3538  1.3525
  399MOL0     H55044  13.082   5.576   8.714  2.1265 -0.8837 -0.6938
  399MOL0     H55045  12.832   5.603   8.751  4.1133  2.3646 -0.5883
  399MOL0     H55046  11.504   4.822   8.629 -0.9872  1.8379 -0.3623
  399MOL0     H55047  11.331   4.746   8.477  1.4743 -0.3331 -0.0813
  399MOL0     H55048  10.834   4.535   8.563 -1.6786 -0.2424 -0.8350
  399MOL0     H55049  10.646   4.519   8.423 -0.5535  0.4693 -1.9666
  399MOL0     H55050  10.482   4.399   8.280 -0.5697  2.9030  1.5211
  399MOL0     H55051  10.493   4.559   8.213 -0.7445  0.2775  1.0868
  399MOL0     H55052  10.320   4.438   8.133  0.5247  1.5431 -0.5440
  399MOL0     H55053  10.415   4.306   8.063 -3.5421 -0.3675  3.5246
  399MOL0     H55054  10.547   4.495   7.926 -0.0988 -1.1120  0.7134
  399MOL0     H55055  10.406   4.436   7.859 -0.1723  2.5409 -1.0581
  399MOL0     H55056  10.429   4.685   8.017  1.4858 -1.0982 -1.7541
  399MOL0     H55057  10.270   4.622   7.955 -0.6921  0.5942  3.3004
  399MOL0     H55058  10.410   4.872   7.668 -0.3648 -0.7997  0.1983
  399MOL0     H55059  10.881   4.397   8.095 -1.5740 -2.1942 -0.0532
  399MOL0     H55060  11.134   4.278   8.267 -0.8022  0.3430  0.8327
  399MOL0     H55061  11.102   4.359   8.105 -2.8486 -1.6731  0.2309
  399MOL0     H55062  11.194   4.447   8.226 -1.4998  1.2083  1.8358
  400MOL0     O55063   7.709   7.950   7.693 -0.0278  0.2774 -0.5713
  400MOL0     C55064   7.769   7.943   7.804  0.2626  0.0156  1.1221
  400MOL0     O55065   7.718   7.886   7.912  0.6328  0.6779 -0.1523
  400MOL0     C55066   7.585   7.844   7.907 -0.5374 -0.2643 -0.4346
  400MOL0     C55067   7.472   7.921   7.885 -0.3761  0.2547 -0.1321
  400MOL0     C55068   7.337   7.880   7.881 -0.2118 -0.8892  0.8125
  400MOL0     C55069   7.309   7.745   7.913 -0.1421  0.2493  0.4231
  400MOL0     O55070   7.188   7.688   7.915  0.3309 -0.3866 -0.3177
  400MOL0     C55071   7.071   7.766   7.890  0.4449  0.4683  0.0544
  400MOL0     C55072   6.955   7.681   7.936  0.8179  0.6110 -0.8037
  400MOL0     C55073   6.811   7.758   7.934 -0.2597 -0.1815 -0.4723
  400MOL0     C55074   6.686   7.674   7.942  0.4532 -0.0717 -0.2989
  400MOL0     C55075   6.570   7.728   8.028  0.7469 -0.3371  0.2357
  400MOL0     C55076   6.440   7.654   8.021  0.2477  1.0216 -0.0724
  400MOL0     C55077   6.382   7.665   7.876  0.4025  0.3272  0.8991
  400MOL0     C55078   6.246   7.594   7.858 -0.3813 -0.2902 -0.7231
  400MOL0     N55079   6.261   7.443   7.841  0.5971  0.1149  0.5080
  400MOL0     C55080   6.275   7.381   7.721 -0.6258 -0.3599 -0.3515
  400MOL0     C55081   6.283   7.251   7.747  0.0432  0.1862 -0.0407
  400MOL0     C55082   6.307   7.145   7.635  0.3664  0.0131 -0.0552
  400MOL0     C55083   6.415   7.036   7.681 -0.7230 -0.9051  0.3591
  400MOL0     C55084   6.560   7.087   7.674 -1.2229  0.5535  0.5751
  400MOL0     C55085   6.647   6.978   7.729  0.6982 -0.8768  0.0454
  400MOL0     O55086   6.781   7.024   7.757  0.6318 -0.1647 -0.2515
  400MOL0     C55087   6.882   7.022   7.668  1.1592 -0.6344  0.1486
  400MOL0     C55088   6.867   7.043   7.534 -0.3237  0.7801  0.0924
  400MOL0     C55089   6.981   7.035   7.444  0.3300 -0.0713 -0.1095
  400MOL0     C55090   6.936   7.035   7.294  0.2392  0.1991 -0.1845
  400MOL0     C55091   7.117   7.018   7.503  0.7273  0.6011 -0.5364
  400MOL0     C55092   7.241   7.018   7.415  0.2062  0.0509  0.9202
  400MOL0     O55093   7.357   7.053   7.474  0.5410 -0.1188  0.5952
  400MOL0     C55094   7.466   7.084   7.405  0.0041  0.3072 -0.1962
  400MOL0     C55095   7.591   7.041   7.458  0.4739 -0.7075 -0.4003
  400MOL0     C55096   7.706   7.052   7.386 -0.4170  0.1130 -0.5137
  400MOL0     C55097   7.709   7.138   7.273 -0.4568  0.7329  0.1324
  400MOL0     O55098   7.831   7.161   7.206 -0.1000 -0.7078 -0.0226
  400MOL0     C55099   7.859   7.092   7.085  0.3510  0.4210  0.3950
  400MOL0     C55100   7.838   7.187   6.971  0.3369  0.0906 -0.4216
  400MOL0     C55101   7.877   7.107   6.844  0.3601 -0.4161 -0.0668
  400MOL0     C55102   7.782   7.148   6.725 -0.3118 -1.2694  0.0835
  400MOL0     C55103   7.785   7.041   6.614 -0.5221 -0.4509  0.0052
  400MOL0     C55104   7.921   6.984   6.575 -0.3948 -0.4435  0.1635
  400MOL0     C55105   7.913   6.896   6.450  0.3198 -0.4626  0.0336
  400MOL0     C55106   8.040   6.813   6.434 -0.4629 -0.3691 -0.7770
  400MOL0    Cl55107   8.180   6.921   6.404 -0.5681  0.1193  0.2944
  400MOL0     C55108   7.592   7.194   7.226  0.4465  0.3509  0.1327
  400MOL0     C55109   7.463   7.170   7.287 -0.3534  0.4218  0.2708
  400MOL0     O55110   7.234   6.996   7.299  0.1061 -0.3982  0.6860
  400MOL0     C55111   7.129   7.011   7.639 -0.3170 -0.3966 -0.5633
  400MOL0     C55112   7.011   7.018   7.719  0.2145 -0.2266 -0.8302
  400MOL0     N55113   6.280   7.230   7.883  0.5285  0.1996  0.1605
  400MOL0     N55114   6.257   7.351   7.939  0.4026  0.9542  0.9188
  400MOL0     C55115   7.419   7.656   7.941 -1.0460  0.6176  0.2101
  400MOL0     C55116   7.551   7.709   7.941  0.4302  0.5989 -0.3709
  400MOL0     C55117   7.909   7.996   7.808 -0.8914  0.0570  0.8499
  400MOL0     C55118   7.981   7.949   7.919  0.9349  0.6757  0.6364
  400MOL0     C55119   8.099   8.005   7.952 -0.8129  0.0547  0.5672
  400MOL0     C55120   8.163   8.098   7.871 -0.3786 -0.3404 -0.7470
  400MOL0     O55121   8.279   8.171   7.912  0.0844  0.2853  0.1491
  400MOL0     C55122   8.367   8.116   8.006  0.2053  0.1603  0.1824
  400MOL0     C55123   8.504   8.193   8.016 -0.0987 -0.4430  0.5177
  400MOL0     C55124   8.495   8.345   8.043 -0.9182 -0.2826  0.5223
  400MOL0     C55125   8.451   8.369   8.187 -0.2509  0.2559 -0.4002
  400MOL0     C55126   8.543   8.310   8.290 -0.8014 -0.7173  0.1081
  400MOL0     C55127   8.619   8.250   8.367 -0.2883 -0.4070  0.3304
  400MOL0     C55128   8.085   8.149   7.766 -0.4879 -0.3330 -0.0320
  400MOL0     C55129   7.958   8.103   7.727  0.0890  0.2522  0.3893
  400MOL0     C55130   7.876   8.162   7.609 -0.1645  0.2021  0.8137
  400MOL0     H55131   7.494   8.026   7.870  1.0975 -0.0298 -0.1453
  400MOL0     H55132   7.264   7.954   7.850  0.5940  0.3110  1.6879
  400MOL0     H55133   7.062   7.796   7.785 -0.9629 -1.8503 -0.5653
  400MOL0     H55134   7.071   7.858   7.950  3.9838  0.1557  0.7588
  400MOL0     H55135   6.943   7.594   7.870  0.3853  0.4022 -0.4508
  400MOL0     H55136   6.989   7.658   8.037  5.5234  1.2053 -2.0130
  400MOL0     H55137   6.810   7.813   8.029 -1.4458  1.0741 -1.1728
  400MOL0     H55138   6.804   7.824   7.847 -1.9418 -1.4402 -1.3524
  400MOL0     H55139   6.655   7.658   7.838  2.8412  1.9859 -1.4256
  400MOL0     H55140   6.718   7.579   7.985  1.8907 -0.2230 -1.6200
  400MOL0     H55141   6.553   7.835   8.013 -1.9460 -0.9812 -2.4411
  400MOL0     H55142   6.607   7.720   8.131 -0.5805  1.8304  0.9494
  400MOL0     H55143   6.460   7.547   8.031 -1.5986  0.6633  0.0650
  400MOL0     H55144   6.372   7.686   8.100 -1.4701 -1.0384 -0.6236
  400MOL0     H55145   6.447   7.632   7.794  2.4940  0.5783  2.3651
  400MOL0     H55146   6.355   7.765   7.841 -1.1328 -1.0695 -2.2475
  400MOL0     H55147   6.182   7.622   7.942 -3.2600  1.4941 -3.3158
  400MOL0     H55148   6.200   7.639   7.770  3.3957  1.9266 -1.8141
  400MOL0     H55149   6.278   7.419   7.619 -0.0496  0.4138 -0.0491
  400MOL0     H55150   6.335   7.199   7.544 -0.5983 -1.0428 -1.0121
  400MOL0     H55151   6.217   7.088   7.608  0.8299 -1.4885  1.3853
  400MOL0     H55152   6.384   6.990   7.774 -1.7317 -0.0355  0.4758
  400MOL0     H55153   6.413   6.960   7.602 -1.8893  0.5540 -1.1083
  400MOL0     H55154   6.581   7.095   7.567 -1.2495 -2.6976  0.2207
  400MOL0     H55155   6.560   7.180   7.731 -2.6139 -1.3006  3.8639
  400MOL0     H55156   6.594   6.938   7.815 -2.8773 -1.4818 -2.2437
  400MOL0     H55157   6.654   6.889   7.666 -1.9785 -1.0507 -0.1174
  400MOL0     H55158   6.769   7.051   7.487  0.2802  0.9199 -1.1931
  400MOL0     H55159   6.922   7.134   7.251  1.4055 -0.6114 -2.6251
  400MOL0     H55160   6.837   6.990   7.280  1.1004 -0.8098 -4.9912
  400MOL0     H55161   7.006   6.987   7.224  0.0931 -0.7639  0.3203
  400MOL0     H55162   7.603   7.006   7.560  2.5768 -0.7280 -0.6028
  400MOL0     H55163   7.797   7.003   7.419  1.0065  1.7500 -1.7530
  400MOL0     H55164   7.962   7.056   7.079  0.2109  0.3003 -1.9409
  400MOL0     H55165   7.794   7.004   7.078 -0.6854  1.2493 -0.6738
  400MOL0     H55166   7.732   7.212   6.963 -0.1880 -1.9603 -0.4685
  400MOL0     H55167   7.893   7.282   6.972 -0.0134  0.3149 -1.2137
  400MOL0     H55168   7.860   7.001   6.860  3.4264 -0.8618  0.8404
  400MOL0     H55169   7.983   7.117   6.819 -0.1978 -1.4602 -3.3770
  400MOL0     H55170   7.818   7.246   6.695 -1.1049 -1.8055 -2.9989
  400MOL0     H55171   7.678   7.153   6.757  0.3918  0.0258  2.3277
  400MOL0     H55172   7.733   6.958   6.663 -1.7684  1.1230  1.4839
  400MOL0     H55173   7.731   7.080   6.527  1.7833  0.9429 -0.8867
  400MOL0     H55174   7.969   6.933   6.659 -0.6262 -0.3931  0.3265
  400MOL0     H55175   7.999   7.060   6.561  2.2566 -2.9454  0.3090
  400MOL0     H55176   7.905   6.968   6.368  3.9049  0.1543  0.0516
  400MOL0     H55177   7.827   6.828   6.447 -1.4789  1.7457 -1.1423
  400MOL0     H55178   8.031   6.731   6.361  0.7528 -1.8995  0.7065
  400MOL0     H55179   8.038   6.759   6.529  1.1746  4.2454  2.2181
  400MOL0     H55180   7.602   7.258   7.139  0.6168 -0.8970 -0.7898
  400MOL0     H55181   7.372   7.221   7.256 -0.8861 -0.6511  0.0063
  400MOL0     H55182   7.225   6.983   7.680 -1.2921 -4.1514 -0.4169
  400MOL0     H55183   7.025   7.001   7.826  1.1799 -0.2775 -0.9574
  400MOL0     H55184   7.416   7.550   7.962  3.9662 -0.0052 -1.0502
  400MOL0     H55185   7.630   7.644   7.975  0.2614  1.6938  2.3349
  400MOL0     H55186   7.936   7.869   7.976  1.0155  1.5534  1.9807
  400MOL0     H55187   8.161   7.973   8.035  1.4112  0.2558 -0.9489
  400MOL0     H55188   8.325   8.122   8.107  0.5665 -2.3291  0.5507
  400MOL0     H55189   8.382   8.010   7.983 -0.9395 -1.1351  4.4210
  400MOL0     H55190   8.538   8.187   7.913  1.7473 -2.4262  1.1583
  400MOL0     H55191   8.577   8.138   8.076 -1.0720  0.4670  2.6763
  400MOL0     H55192   8.591   8.394   8.024 -0.5335 -1.4182 -0.7066
  400MOL0     H55193   8.423   8.376   7.967 -0.7469 -0.0657  0.4476
  400MOL0     H55194   8.354   8.318   8.192 -0.7777  0.9026 -2.7086
  400MOL0     H55195   8.441   8.474   8.214  1.0820  0.2612  0.1836
  400MOL0     H55196   8.679   8.182   8.424 -0.3741 -1.8242 -1.2052
  400MOL0     H55197   8.123   8.238   7.717  0.0351 -0.5076  0.0505
  400MOL0     H55198   7.878   8.095   7.524 -1.7477  0.0630  0.8442
  400MOL0     H55199   7.772   8.182   7.637 -1.2402  1.5398 -3.3829
  400MOL0     H55200   7.924   8.258   7.586 -1.1260  0.5990  0.3758
  401MOL0     O55201   3.236   0.310   1.071 -0.2174  0.4493  0.1266
  401MOL0     C55202   3.269   0.234   0.981 -0.3365  0.5021 -0.1293
  401MOL0     O55203   3.179   0.161   0.902  0.0010  0.2532  0.2150
  401MOL0     C55204   3.047   0.189   0.912  0.9201  0.1689  0.3121
  401MOL0     C55205   2.982   0.225   0.795 -0.0184  0.5337 -0.0327
  401MOL0     C55206   2.855   0.271   0.802  0.4857 -0.3710 -0.0988
  401MOL0     C55207   2.776   0.272   0.925  0.6498  0.2424  0.4102
  401MOL0     O55208   2.641   0.305   0.917  0.2861  0.0116  0.6170
  401MOL0     C55209   2.561   0.244   1.020 -0.2359 -0.5216 -0.4425
  401MOL0     C55210   2.411   0.234   0.990 -0.3385  0.0591 -0.2109
  401MOL0     C55211   2.349   0.376   0.992 -0.2109 -0.0919 -0.7086
  401MOL0     C55212   2.337   0.428   1.131 -0.2099  0.2425  0.0063
  401MOL0     C55213   2.324   0.583   1.126  0.0323  0.3899 -0.6575
  401MOL0     C55214   2.266   0.633   1.256 -0.0313 -0.0336  0.0250
  401MOL0     C55215   2.250   0.791   1.263 -1.0198  0.5823 -0.7185
  401MOL0     C55216   2.160   0.849   1.158  0.4129  0.4345 -0.0482
  401MOL0     N55217   2.139   0.992   1.187  0.0431 -1.9252 -0.1461
  401MOL0     C55218   2.246   1.077   1.213  0.1065 -0.5357 -0.3495
  401MOL0     C55219   2.189   1.197   1.233 -0.4298  0.4345  0.1365
  401MOL0     C55220   2.262   1.322   1.264 -0.3640 -0.4885 -0.3577
  401MOL0     C55221   2.167   1.449   1.272  0.7917  0.3161 -0.3664
  401MOL0     C55222   2.079   1.450   1.395 -0.7154 -0.1550 -0.5568
  401MOL0     C55223   1.987   1.568   1.393  0.0300  0.3741 -0.0684
  401MOL0     O55224   1.930   1.578   1.524  0.6624 -0.3342 -0.6997
  401MOL0     C55225   1.834   1.673   1.545  0.9697  0.4027  0.5703
  401MOL0     C55226   1.745   1.644   1.644 -0.1047  0.0686 -1.0064
  401MOL0     C55227   1.641   1.737   1.677  0.2303  0.0389  0.5862
  401MOL0     C55228   1.536   1.699   1.781 -0.4956  1.1303  0.3324
  401MOL0     C55229   1.629   1.856   1.606  0.5110 -0.0146 -0.3750
  401MOL0     C55230   1.542   1.973   1.629  0.2210 -0.3729 -0.0531
  401MOL0     O55231   1.546   2.081   1.545 -0.4950 -0.0950  0.0129
  401MOL0     C55232   1.482   2.193   1.579  0.2620 -0.1444  1.2122
  401MOL0     C55233   1.427   2.270   1.477  0.7534 -0.2907 -0.5486
  401MOL0     C55234   1.346   2.385   1.508  0.2957  0.0261 -0.3051
  401MOL0     C55235   1.330   2.422   1.643  0.9169  0.1077  0.3087
  401MOL0     O55236   1.236   2.518   1.679 -0.4031 -0.6536  0.2152
  401MOL0     C55237   1.286   2.648   1.710 -0.2585  0.8863  0.5075
  401MOL0     C55238   1.288   2.739   1.588  0.1867  0.0653  1.1669
  401MOL0     C55239   1.422   2.807   1.546 -0.1297  0.3684  0.8704
  401MOL0     C55240   1.489   2.748   1.423 -0.3189 -1.1323 -0.6521
  401MOL0     C55241   1.584   2.840   1.347  0.1668 -0.4454  0.1228
  401MOL0     C55242   1.659   2.783   1.227  0.1864 -0.6116  0.2755
  401MOL0     C55243   1.769   2.687   1.251 -0.3879 -0.0383  0.2272
  401MOL0     C55244   1.905   2.732   1.197  0.5656  0.5561 -0.0325
  401MOL0    Cl55245   2.017   2.588   1.224 -0.3546  0.0380  0.2260
  401MOL0     C55246   1.400   2.361   1.740  0.7898  0.2158 -0.2828
  401MOL0     C55247   1.468   2.237   1.712  0.2732 -0.6455  0.8301
  401MOL0     O55248   1.466   1.968   1.726  0.1970 -0.1308 -0.2242
  401MOL0     C55249   1.717   1.882   1.502 -0.4561  0.1226 -0.0382
  401MOL0     C55250   1.822   1.793   1.471 -0.3973  0.6509  0.5639
  401MOL0     N55251   2.048   1.181   1.220  0.4576  0.6233 -0.8051
  401MOL0     N55252   2.023   1.061   1.193  0.9049 -0.1464  0.5534
  401MOL0     C55253   2.840   0.224   1.037 -1.4878 -0.1771  0.1639
  401MOL0     C55254   2.976   0.193   1.031 -0.5383 -0.1652  0.1241
  401MOL0     C55255   3.412   0.199   0.970 -0.2526 -0.6935 -0.4350
  401MOL0     C55256   3.491   0.188   1.095  0.5031  0.1925 -0.5061
  401MOL0     C55257   3.631   0.176   1.088  0.1925  0.1526  1.6276
  401MOL0     C55258   3.699   0.177   0.961 -0.4260 -0.3763 -0.1608
  401MOL0     O55259   3.831   0.171   0.942 -0.4241 -0.0676 -0.1730
  401MOL0     C55260   3.916   0.196   1.053  0.6082  0.1932 -0.5131
  401MOL0     C55261   4.057   0.245   1.021 -0.3738  0.0244  0.5350
  401MOL0     C55262   4.162   0.139   0.973 -0.9274 -0.0071 -0.0024
  401MOL0     C55263   4.305   0.173   1.015  0.0391 -0.2183  0.0647
  401MOL0     C55264   4.393   0.090   0.937 -0.3329  0.2822 -0.1871
  401MOL0     C55265   4.457   0.012   0.865 -0.3642  0.2340  0.2629
  401MOL0     C55266   3.619   0.191   0.847  0.5864 -0.2790 -0.7707
  401MOL0     C55267   3.479   0.200   0.845  0.9815 -0.5303 -0.4799
  401MOL0     C55268   3.412   0.226   0.713 -0.3790  0.1834  0.0349
  401MOL0     H55269   3.040   0.231   0.704 -2.2107 -1.2248 -1.6791
  401MOL0     H55270   2.805   0.309   0.713 -1.0933  2.3240  1.8033
  401MOL0     H55271   2.587   0.295   1.113  1.5121  1.2157 -1.7952
  401MOL0     H55272   2.601   0.142   1.030  3.2909  0.8302  0.9341
  401MOL0     H55273   2.390   0.187   0.894  0.4548 -0.2045 -0.2687
  401MOL0     H55274   2.359   0.166   1.058  2.8997 -2.8944 -0.4043
  401MOL0     H55275   2.404   0.438   0.921  0.1247 -2.5317 -2.7531
  401MOL0     H55276   2.245   0.373   0.958 -0.6839 -1.1685  0.7119
  401MOL0     H55277   2.241   0.390   1.169 -0.1004  1.5708  1.7484
  401MOL0     H55278   2.419   0.404   1.198  0.8490  0.0529 -1.3174
  401MOL0     H55279   2.254   0.606   1.045  0.2383  3.1957 -0.1241
  401MOL0     H55280   2.422   0.623   1.101  1.5977 -1.2732  2.2991
  401MOL0     H55281   2.164   0.594   1.259 -1.3269  3.1601  1.8865
  401MOL0     H55282   2.328   0.596   1.338 -1.8748 -1.9618  0.6653
  401MOL0     H55283   2.351   0.834   1.263 -0.5592 -0.2270 -4.0905
  401MOL0     H55284   2.209   0.811   1.362 -1.0329  0.0062 -0.6036
  401MOL0     H55285   2.211   0.846   1.061  0.8591  1.5733  0.1337
  401MOL0     H55286   2.069   0.792   1.138  0.1973  1.1071 -1.0110
  401MOL0     H55287   2.351   1.063   1.192  0.7800  3.7099 -0.6239
  401MOL0     H55288   2.327   1.341   1.179  0.2410 -0.1247  0.1773
  401MOL0     H55289   2.308   1.306   1.362 -4.3005 -0.1110  1.7507
  401MOL0     H55290   2.221   1.543   1.255 -1.0386  0.9590 -3.5351
  401MOL0     H55291   2.113   1.451   1.177  2.0716  0.9585 -1.1058
  401MOL0     H55292   2.013   1.364   1.406  0.2391 -1.1366 -2.0680
  401MOL0     H55293   2.148   1.459   1.480 -0.4947  0.6845 -0.8083
  401MOL0     H55294   2.049   1.650   1.356  1.6767 -1.8621 -2.6049
  401MOL0     H55295   1.907   1.545   1.322 -2.3433 -0.2754  2.5864
  401MOL0     H55296   1.762   1.563   1.714  0.7312  2.4297  1.7192
  401MOL0     H55297   1.433   1.730   1.763 -0.8906 -0.4284 -0.2578
  401MOL0     H55298   1.565   1.745   1.876  0.5166  0.2485  0.4638
  401MOL0     H55299   1.530   1.591   1.798 -0.0376  0.7682 -1.6146
  401MOL0     H55300   1.435   2.242   1.372 -0.0408  1.1039 -1.0099
  401MOL0     H55301   1.296   2.445   1.433 -1.2966 -1.2435 -0.3149
  401MOL0     H55302   1.212   2.680   1.784 -0.9370 -3.1496  1.7787
  401MOL0     H55303   1.389   2.652   1.746  1.2036  3.1071 -3.2569
  401MOL0     H55304   1.255   2.691   1.496 -0.9771  3.4705 -0.3773
  401MOL0     H55305   1.221   2.822   1.612 -0.1285 -0.5775  2.6229
  401MOL0     H55306   1.500   2.802   1.622  1.4276  1.8815 -0.5257
  401MOL0     H55307   1.402   2.914   1.534 -3.6618 -0.2482  0.1823
  401MOL0     H55308   1.412   2.725   1.349  0.3382  0.3482 -1.8598
  401MOL0     H55309   1.540   2.658   1.458 -0.4902 -0.6515  0.9368
  401MOL0     H55310   1.530   2.928   1.312 -1.1525 -1.4011 -0.3136
  401MOL0     H55311   1.656   2.874   1.423  1.2138 -5.0202  1.4801
  401MOL0     H55312   1.706   2.872   1.184 -0.5292 -0.1212  0.4975
  401MOL0     H55313   1.589   2.752   1.150 -1.4713  0.9529  1.0773
  401MOL0     H55314   1.735   2.592   1.210  0.8303 -0.0606 -0.8179
  401MOL0     H55315   1.780   2.676   1.359 -0.2793 -2.4487  0.0290
  401MOL0     H55316   1.930   2.825   1.249 -1.0954 -0.2829  2.4749
  401MOL0     H55317   1.909   2.773   1.095  3.3343  0.1031 -0.1855
  401MOL0     H55318   1.390   2.410   1.836  0.5029 -1.4642  0.5831
  401MOL0     H55319   1.531   2.193   1.789  0.1214 -1.4946  0.4857
  401MOL0     H55320   1.710   1.959   1.426  1.1377 -2.0150 -2.5416
  401MOL0     H55321   1.896   1.820   1.397 -1.5997  1.0326 -0.5324
  401MOL0     H55322   2.787   0.234   1.132  1.0094  0.2566  1.5823
  401MOL0     H55323   3.025   0.177   1.126  0.8173 -0.8875 -0.6794
  401MOL0     H55324   3.450   0.200   1.195 -3.0968 -1.4071 -1.6113
  401MOL0     H55325   3.680   0.170   1.185 -0.0220  3.1828  2.0289
  401MOL0     H55326   3.869   0.274   1.114  0.0120 -2.1735  2.2665
  401MOL0     H55327   3.919   0.114   1.125  1.0544  1.5406  1.0612
  401MOL0     H55328   4.089   0.302   1.108  0.8376 -0.5587  0.4846
  401MOL0     H55329   4.039   0.307   0.932  1.0618 -1.3380 -0.7719
  401MOL0     H55330   4.146   0.035   1.005  0.6862 -1.1306 -2.5341
  401MOL0     H55331   4.152   0.127   0.864  0.8481 -0.7618 -0.1030
  401MOL0     H55332   4.316   0.161   1.123  0.4292 -0.5693 -0.0091
  401MOL0     H55333   4.314   0.281   1.001  0.1334  0.0192  1.7576
  401MOL0     H55334   4.516  -0.066   0.822  3.9183  2.8502  0.7681
  401MOL0     H55335   3.671   0.200   0.752  2.5140 -1.9877  0.0433
  401MOL0     H55336   3.452   0.311   0.658  0.4495 -1.0562 -1.3562
  401MOL0     H55337   3.441   0.140   0.652  2.3426  0.1008  1.3081
  401MOL0     H55338   3.303   0.238   0.712 -0.2122  2.1352  0.7884
  402MOL0     O55339  10.443   6.177   0.959 -0.1950 -1.0613 -0.0700
  402MOL0     C55340  10.449   6.174   0.841  0.7308 -0.2920 -0.3604
  402MOL0     O55341  10.341   6.146   0.758 -0.0851 -0.2346 -0.2322
  402MOL0     C55342  10.225   6.097   0.816  0.0942  0.2614  0.6354
  402MOL0     C55343  10.146   6.177   0.894  0.5251  0.3887  0.3773
  402MOL0     C55344  10.034   6.116   0.956 -0.1432 -0.2570  0.6698
  402MOL0     C55345  10.008   5.979   0.940 -0.0635  0.4441  0.0101
  402MOL0     O55346   9.887   5.930   0.983  0.4782  0.1848  0.5955
  402MOL0     C55347   9.860   5.790   0.987  0.4719  0.3005 -0.0183
  402MOL0     C55348   9.741   5.774   1.074  0.3910  0.1214 -0.0902
  402MOL0     C55349   9.688   5.638   1.076 -0.0448  0.5971  0.9403
  402MOL0     C55350   9.613   5.617   1.197 -0.2698  0.3996  0.1642
  402MOL0     C55351   9.569   5.470   1.219 -0.1868  0.3745  0.6991
  402MOL0     C55352   9.508   5.404   1.089  1.0581  0.0224  0.3963
  402MOL0     C55353   9.445   5.266   1.122 -0.0458 -0.1109  0.7784
  402MOL0     C55354   9.337   5.227   1.018  0.6538 -0.3308  0.5107
  402MOL0     N55355   9.289   5.095   1.083 -0.1722 -0.0555  0.5683
  402MOL0     C55356   9.170   5.078   1.151  0.9021  0.1533  0.3930
  402MOL0     C55357   9.183   4.951   1.198  1.0737  0.5403 -0.6410
  402MOL0     C55358   9.061   4.897   1.274  0.5449  1.2470 -0.3594
  402MOL0     C55359   8.997   4.773   1.215 -0.4054 -0.0214  0.4703
  402MOL0     C55360   8.947   4.784   1.072  0.9143  0.4857  0.3736
  402MOL0     C55361   9.043   4.771   0.958 -0.0327  0.3926 -0.3250
  402MOL0     O55362   9.144   4.660   0.990  0.2743  0.3579 -0.0660
  402MOL0     C55363   9.118   4.544   0.921  0.0056 -0.4511 -0.0303
  402MOL0     C55364   9.064   4.438   0.990  0.0621  0.4896  0.5134
  402MOL0     C55365   9.024   4.323   0.920  0.0588 -0.1026 -0.3931
  402MOL0     C55366   8.988   4.191   0.990  0.0469  0.3684  0.0057
  402MOL0     C55367   9.012   4.329   0.783  0.0019 -0.2900  0.4998
  402MOL0     C55368   8.928   4.230   0.712 -0.6623 -0.0695 -0.0403
  402MOL0     O55369   8.971   4.191   0.597  0.6223 -0.2212 -0.1771
  402MOL0     C55370   8.915   4.081   0.540 -0.3949 -0.3450 -0.2915
  402MOL0     C55371   8.815   4.101   0.451 -0.7958 -0.8574 -0.3383
  402MOL0     C55372   8.746   3.993   0.399 -0.2767  0.2830  0.0823
  402MOL0     C55373   8.778   3.855   0.440  0.3599  0.5661  0.9321
  402MOL0     O55374   8.708   3.743   0.393 -0.8155  0.2110 -0.5131
  402MOL0     C55375   8.754   3.605   0.415  0.4410  0.0808  0.3071
  402MOL0     C55376   8.658   3.538   0.318 -0.2102 -0.5988  0.3265
  402MOL0     C55377   8.675   3.388   0.317  0.0874 -0.5081  0.0630
  402MOL0     C55378   8.797   3.349   0.240 -0.8114  0.6531 -0.2309
  402MOL0     C55379   8.780   3.196   0.212 -0.0926 -0.9339 -0.5549
  402MOL0     C55380   8.918   3.135   0.187  0.7297  0.8321 -0.3435
  402MOL0     C55381   8.900   2.983   0.170  0.2460  0.5780 -0.0733
  402MOL0     C55382   8.811   2.942   0.047  0.2091 -0.4264  0.3356
  402MOL0    Cl55383   8.873   3.017  -0.101  0.5221 -0.2496 -0.6571
  402MOL0     C55384   8.886   3.839   0.529 -0.3541 -0.7489  0.0181
  402MOL0     C55385   8.945   3.953   0.587 -0.8397  0.5435  0.1226
  402MOL0     O55386   8.823   4.205   0.756  0.1231  0.2174  0.1176
  402MOL0     C55387   9.078   4.431   0.710  0.2827 -0.2212  1.1582
  402MOL0     C55388   9.128   4.541   0.779 -0.4322  0.0338  0.1577
  402MOL0     N55389   9.308   4.904   1.173 -0.5551  0.3661  0.6149
  402MOL0     N55390   9.368   4.983   1.091 -0.3053  0.1151 -0.6142
  402MOL0     C55391  10.079   5.900   0.838 -0.3050 -0.1571  0.9217
  402MOL0     C55392  10.194   5.959   0.787  0.4876 -0.1090 -0.2831
  402MOL0     C55393  10.577   6.192   0.768 -0.3062  0.0136  0.0960
  402MOL0     C55394  10.577   6.247   0.638  0.0262 -0.5616  0.0237
  402MOL0     C55395  10.689   6.235   0.559 -0.0306  0.3319  0.2932
  402MOL0     C55396  10.813   6.186   0.603  1.4931  0.4677 -0.4768
  402MOL0     O55397  10.922   6.184   0.513 -0.1425  0.3841  0.1686
  402MOL0     C55398  11.037   6.111   0.553  0.2385 -0.2584 -0.1934
  402MOL0     C55399  11.147   6.102   0.449 -0.4036  0.4523  0.4388
  402MOL0     C55400  11.274   6.016   0.478 -0.1261 -0.8342 -0.4838
  402MOL0     C55401  11.345   6.018   0.615 -0.4470 -1.1957  0.1475
  402MOL0     C55402  11.267   5.974   0.727  0.3587  0.7872  0.7275
  402MOL0     C55403  11.193   5.948   0.820  0.0376  0.0107 -0.5492
  402MOL0     C55404  10.812   6.134   0.731 -0.1390 -0.3631 -0.1174
  402MOL0     C55405  10.703   6.137   0.819 -0.4334 -0.4789 -0.8677
  402MOL0     C55406  10.716   6.086   0.962  0.2805  0.0577  0.4277
  402MOL0     H55407  10.167   6.284   0.898  1.1431  0.3099 -0.6381
  402MOL0     H55408   9.962   6.172   1.015 -0.4531 -0.9260  0.9434
  402MOL0     H55409   9.948   5.728   1.011  0.8763  1.6486  2.2945
  402MOL0     H55410   9.834   5.752   0.888  1.6304  0.0734 -0.2569
  402MOL0     H55411   9.771   5.811   1.172 -0.1678  0.5731 -0.0796
  402MOL0     H55412   9.662   5.844   1.044  0.3493 -0.2708 -0.9324
  402MOL0     H55413   9.632   5.618   0.984 -0.1556  0.3473  1.0618
  402MOL0     H55414   9.767   5.562   1.075 -0.8277 -0.2473 -0.2252
  402MOL0     H55415   9.658   5.662   1.286 -1.7045  0.2627  0.9977
  402MOL0     H55416   9.518   5.669   1.179 -0.6639 -0.5711 -0.6600
  402MOL0     H55417   9.494   5.472   1.298 -1.6836  3.7373 -0.6064
  402MOL0     H55418   9.655   5.412   1.253 -0.7664 -0.2222  1.1644
  402MOL0     H55419   9.429   5.471   1.053  0.2700 -1.0787  0.0501
  402MOL0     H55420   9.580   5.394   1.007  0.1623 -2.1329 -0.1930
  402MOL0     H55421   9.399   5.275   1.221 -0.2827 -2.5071  0.9447
  402MOL0     H55422   9.527   5.194   1.114  0.5643  0.7356 -1.1423
  402MOL0     H55423   9.255   5.299   1.023  1.0058  0.0737  0.5012
  402MOL0     H55424   9.378   5.217   0.917  1.5576  0.1691  0.8183
  402MOL0     H55425   9.079   5.136   1.145  0.1365 -1.1435 -1.1568
  402MOL0     H55426   8.986   4.977   1.276 -2.3038 -1.2425 -1.1372
  402MOL0     H55427   9.091   4.870   1.375 -1.2615 -1.4765 -0.4664
  402MOL0     H55428   9.047   4.677   1.229 -2.3190 -1.4983 -2.0202
  402MOL0     H55429   8.906   4.753   1.273 -0.6344  0.5564  0.3125
  402MOL0     H55430   8.880   4.699   1.053 -1.7407  2.4908  0.2363
  402MOL0     H55431   8.880   4.868   1.054  1.1590  0.6090  0.0242
  402MOL0     H55432   8.991   4.753   0.863  0.6850 -0.0048 -0.6507
  402MOL0     H55433   9.097   4.862   0.934 -1.4618  1.6503  0.9911
  402MOL0     H55434   9.059   4.432   1.099  1.4618 -1.8646  0.5193
  402MOL0     H55435   8.993   4.200   1.099 -2.1447  0.9630  0.1086
  402MOL0     H55436   9.056   4.116   0.950 -2.8144 -0.7422 -3.2455
  402MOL0     H55437   8.884   4.160   0.979 -0.9460  3.4385 -0.2618
  402MOL0     H55438   8.783   4.204   0.448 -1.5591 -1.1028 -1.1203
  402MOL0     H55439   8.673   4.018   0.323 -0.0526  2.0480  0.4165
  402MOL0     H55440   8.861   3.586   0.399  0.5726 -0.8031  1.9938
  402MOL0     H55441   8.729   3.576   0.518  2.8105  1.8820  1.4831
  402MOL0     H55442   8.557   3.560   0.353  0.1628  5.0428 -1.1579
  402MOL0     H55443   8.676   3.569   0.215  2.6281  0.3079  1.0091
  402MOL0     H55444   8.594   3.338   0.261  0.2427  0.8224 -1.4032
  402MOL0     H55445   8.669   3.355   0.421  0.1486 -0.1999  0.1636
  402MOL0     H55446   8.884   3.361   0.306 -1.4235  1.5620  0.4339
  402MOL0     H55447   8.802   3.415   0.152 -1.9715  0.0651 -0.7687
  402MOL0     H55448   8.726   3.157   0.299 -0.9880  0.0470 -0.6469
  402MOL0     H55449   8.719   3.175   0.123  0.0508 -0.2648 -0.8158
  402MOL0     H55450   8.982   3.158   0.274 -1.9343  0.9502  1.7158
  402MOL0     H55451   8.955   3.186   0.098 -0.3863  4.0465  0.8864
  402MOL0     H55452   8.863   2.943   0.265  2.3064  0.2543  0.6451
  402MOL0     H55453   9.000   2.938   0.164 -0.3813 -1.3458  2.3309
  402MOL0     H55454   8.705   2.970   0.054 -0.1918  0.1237 -4.4392
  402MOL0     H55455   8.814   2.833   0.047 -1.0711 -0.4848  1.3062
  402MOL0     H55456   8.923   3.740   0.554 -1.2780 -1.1690 -0.2367
  402MOL0     H55457   9.034   3.942   0.648  0.4262 -2.4945 -2.0436
  402MOL0     H55458   9.075   4.427   0.601 -2.1456 -3.5391  1.2031
  402MOL0     H55459   9.174   4.617   0.716  0.5242 -0.4133  0.3116
  402MOL0     H55460  10.053   5.799   0.806  1.8807 -1.1447  2.0353
  402MOL0     H55461  10.263   5.895   0.733 -1.2250 -3.5747  1.2983
  402MOL0     H55462  10.487   6.279   0.587 -0.2555  1.9947  1.9249
  402MOL0     H55463  10.666   6.248   0.454 -0.5037 -0.2034  0.3266
  402MOL0     H55464  11.085   6.151   0.642  0.7486 -0.8609 -0.1956
  402MOL0     H55465  11.007   6.011   0.587  0.7969  0.0790  1.3288
  402MOL0     H55466  11.180   6.198   0.408 -1.3300  0.4701 -0.2916
  402MOL0     H55467  11.106   6.062   0.355 -0.6412  0.5316  0.5094
  402MOL0     H55468  11.242   5.915   0.450  1.0012 -1.8728  1.7238
  402MOL0     H55469  11.351   6.062   0.416  1.3551 -2.3521  0.1436
  402MOL0     H55470  11.384   6.119   0.630 -2.0285  0.0071 -2.8691
  402MOL0     H55471  11.430   5.951   0.600  0.9200  0.6108 -0.4965
  402MOL0     H55472  11.117   5.926   0.892 -0.7868  2.8659 -0.3872
  402MOL0     H55473  10.902   6.088   0.771  1.5299  2.4178 -0.4220
  402MOL0     H55474  10.816   6.050   0.986  1.1233  0.1759 -2.5735
  402MOL0     H55475  10.701   6.170   1.031  2.1414  0.2735  0.6099
  402MOL0     H55476  10.651   5.998   0.971  0.2251  0.0854  0.3075
  403MOL0     O55477   8.097   3.984   8.744  0.8227 -0.1000 -0.1462
  403MOL0     C55478   8.137   4.098   8.756 -0.8366 -0.2875  0.9425
  403MOL0     O55479   8.077   4.199   8.827 -0.3330  0.2454  0.3450
  403MOL0     C55480   7.949   4.178   8.871  1.0150 -1.1408  0.2354
  403MOL0     C55481   7.922   4.135   9.003 -0.7125 -1.1488  0.6519
  403MOL0     C55482   7.790   4.107   9.043 -0.0539  0.2131 -0.6187
  403MOL0     C55483   7.684   4.125   8.956  0.8202  1.1263  0.3280
  403MOL0     O55484   7.552   4.111   8.985  0.2245 -0.0709  0.5549
  403MOL0     C55485   7.521   3.980   9.040 -0.0849 -0.2655 -0.3458
  403MOL0     C55486   7.370   3.962   9.040 -0.0146 -0.6951  0.5583
  403MOL0     C55487   7.299   4.034   9.159  0.2086 -0.0242 -1.2770
  403MOL0     C55488   7.235   4.164   9.117 -0.2607 -0.3085  0.0919
  403MOL0     C55489   7.194   4.246   9.230 -0.1881  0.1419  0.0748
  403MOL0     C55490   7.154   4.390   9.190 -0.1929 -0.0179 -0.6083
  403MOL0     C55491   7.102   4.469   9.321 -0.2983 -0.2300 -0.6445
  403MOL0     C55492   7.100   4.626   9.309  0.1924  1.3522  0.4943
  403MOL0     N55493   7.036   4.667   9.438  0.3002 -0.2338  0.5092
  403MOL0     C55494   7.093   4.644   9.561 -0.0207 -0.5401  0.0076
  403MOL0     C55495   7.024   4.727   9.654 -0.1554 -1.2171  0.0775
  403MOL0     C55496   7.063   4.740   9.797 -0.0432 -0.1707  0.0476
  403MOL0     C55497   7.011   4.615   9.877 -0.1925  0.8861  0.0699
  403MOL0     C55498   6.852   4.615   9.897 -0.1309 -0.8203  0.3165
  403MOL0     C55499   6.774   4.553   9.792 -0.1280  0.7556  0.0524
  403MOL0     O55500   6.827   4.430   9.745 -0.3824  0.5996  0.1384
  403MOL0     C55501   6.747   4.383   9.638  0.9511  0.1544  0.2749
  403MOL0     C55502   6.752   4.442   9.512 -0.0992 -0.3062 -0.3251
  403MOL0     C55503   6.664   4.407   9.411  0.2630 -0.4298  0.2734
  403MOL0     C55504   6.694   4.486   9.282 -0.1303 -0.0643 -0.6318
  403MOL0     C55505   6.575   4.295   9.431  0.1360 -0.1069  0.4442
  403MOL0     C55506   6.499   4.239   9.321  0.0667 -0.2956  0.5880
  403MOL0     O55507   6.432   4.124   9.362 -0.9852  0.0706  0.4646
  403MOL0     C55508   6.341   4.070   9.279 -1.5738 -0.5621  0.5197
  403MOL0     C55509   6.237   4.002   9.335  0.5481 -0.3087 -0.2706
  403MOL0     C55510   6.146   3.926   9.265  1.1376  0.6634 -0.2931
  403MOL0     C55511   6.149   3.935   9.128  0.2452  0.1044  0.1622
  403MOL0     O55512   6.059   3.867   9.050  0.3283 -0.0642 -0.0006
  403MOL0     C55513   5.944   3.805   9.115 -0.3801 -0.3065 -0.3580
  403MOL0     C55514   5.859   3.737   9.013  0.6538 -0.5134  0.5800
  403MOL0     C55515   5.731   3.674   9.075  0.4217 -0.5112  0.7958
  403MOL0     C55516   5.638   3.640   8.959 -0.0602  0.2994  0.2179
  403MOL0     C55517   5.495   3.590   8.993 -0.3156  0.4310  0.6098
  403MOL0     C55518   5.504   3.443   9.051 -0.1582  0.1040 -0.1060
  403MOL0     C55519   5.378   3.376   9.080 -0.1302  0.1504 -0.0449
  403MOL0     C55520   5.295   3.330   8.962 -0.0360 -0.2756 -0.2557
  403MOL0    Cl55521   5.393   3.199   8.896  0.5718 -0.0119 -0.4989
  403MOL0     C55522   6.243   4.007   9.062 -0.0612  0.4941 -0.0643
  403MOL0     C55523   6.349   4.074   9.135 -0.1109 -0.3810 -0.3418
  403MOL0     O55524   6.484   4.303   9.213 -0.2647 -0.1353 -0.0681
  403MOL0     C55525   6.566   4.240   9.560  0.6398  0.0702 -0.3406
  403MOL0     C55526   6.645   4.289   9.663 -0.0286 -0.6546 -0.0311
  403MOL0     N55527   6.924   4.799   9.581  0.0447 -0.1886 -0.4777
  403MOL0     N55528   6.930   4.765   9.455 -1.0082  0.8665 -0.5385
  403MOL0     C55529   7.710   4.166   8.822  0.9794  0.1113 -0.3318
  403MOL0     C55530   7.836   4.201   8.784 -0.8537 -0.2689  1.0506
  403MOL0     C55531   8.274   4.131   8.690 -0.0089  0.9785  0.0577
  403MOL0     C55532   8.333   4.248   8.735  0.1479  0.2172 -1.0909
  403MOL0     C55533   8.452   4.285   8.695  0.1586 -0.0858  0.0709
  403MOL0     C55534   8.527   4.213   8.606 -0.1429  0.1270 -0.4361
  403MOL0     O55535   8.657   4.255   8.584 -0.5796 -0.0835  0.4135
  403MOL0     C55536   8.731   4.164   8.498 -0.2845 -0.7369  0.2835
  403MOL0     C55537   8.884   4.184   8.498  0.9000 -0.9173  0.5540
  403MOL0     C55538   8.952   4.095   8.399  0.2870 -0.3442 -0.0071
  403MOL0     C55539   9.053   4.172   8.318  0.6309 -0.0395  0.4264
  403MOL0     C55540   9.156   4.244   8.393 -0.6812  0.5769  0.3129
  403MOL0     C55541   9.237   4.302   8.466  0.0839  0.5097  0.2876
  403MOL0     C55542   8.478   4.096   8.557 -0.2509  0.4441 -0.2211
  403MOL0     C55543   8.352   4.052   8.596  0.1288  0.5730  1.1003
  403MOL0     C55544   8.294   3.929   8.520  0.9896 -0.3859  0.0639
  403MOL0     H55545   8.009   4.136   9.068 -1.7801  0.7085  2.1757
  403MOL0     H55546   7.780   4.077   9.147 -0.7511  0.9268 -0.4713
  403MOL0     H55547   7.556   3.969   9.143 -0.3995 -1.6140 -0.3593
  403MOL0     H55548   7.568   3.903   8.978  0.3813 -1.5782  1.5568
  403MOL0     H55549   7.335   3.993   8.942  1.4457 -0.3749  0.1158
  403MOL0     H55550   7.343   3.856   9.040  0.1618 -0.7893 -1.7314
  403MOL0     H55551   7.220   3.973   9.204 -0.2588  0.0084 -2.0333
  403MOL0     H55552   7.376   4.051   9.234 -1.0159 -0.4438  0.1178
  403MOL0     H55553   7.318   4.217   9.069  0.7552 -0.1166  1.9694
  403MOL0     H55554   7.157   4.142   9.043  0.8857 -0.9785 -0.9699
  403MOL0     H55555   7.285   4.254   9.290  1.8977  2.1223 -3.0655
  403MOL0     H55556   7.122   4.194   9.294  0.3364 -0.0966  0.4716
  403MOL0     H55557   7.240   4.431   9.137  2.5294 -0.2246  3.3064
  403MOL0     H55558   7.075   4.379   9.114  2.4155 -2.4688 -3.2264
  403MOL0     H55559   7.156   4.436   9.410  0.8596  1.5801 -0.6409
  403MOL0     H55560   7.000   4.432   9.337 -0.4589  0.9011  1.2661
  403MOL0     H55561   7.203   4.660   9.302  0.4341  0.7707  1.1195
  403MOL0     H55562   7.037   4.653   9.224 -1.2062 -0.8254  0.7620
  403MOL0     H55563   7.175   4.574   9.576  1.7267  0.7256 -2.7926
  403MOL0     H55564   7.019   4.831   9.840 -1.6057 -0.5886 -0.5912
  403MOL0     H55565   7.170   4.759   9.805 -0.3962  1.2733  3.2513
  403MOL0     H55566   7.050   4.521   9.837  1.5130  0.5387  2.3857
  403MOL0     H55567   7.049   4.610   9.979  0.3924 -1.0115 -0.1954
  403MOL0     H55568   6.837   4.556   9.988  0.5443  0.7008  1.4699
  403MOL0     H55569   6.813   4.716   9.913 -0.0255 -0.8504  0.7870
  403MOL0     H55570   6.678   4.535   9.840 -0.1828  1.4963  0.2225
  403MOL0     H55571   6.751   4.628   9.716 -0.3352 -0.0023 -0.6573
  403MOL0     H55572   6.825   4.520   9.490  0.9221 -0.8935  0.8512
  403MOL0     H55573   6.596   4.532   9.263  0.0889  0.5137 -0.4076
  403MOL0     H55574   6.723   4.426   9.196  3.1144  0.4273 -0.0251
  403MOL0     H55575   6.763   4.569   9.299  1.4824 -1.5454  0.3305
  403MOL0     H55576   6.233   3.992   9.443 -1.0527 -1.0592 -0.3653
  403MOL0     H55577   6.080   3.858   9.317  0.7965  1.4986  0.3940
  403MOL0     H55578   5.971   3.725   9.185 -0.0974  1.3693  1.5494
  403MOL0     H55579   5.889   3.887   9.163 -0.3166  1.8554 -3.6717
  403MOL0     H55580   5.833   3.812   8.939 -0.8471 -2.3067 -0.8147
  403MOL0     H55581   5.920   3.664   8.958  1.9818  0.3526  0.8636
  403MOL0     H55582   5.674   3.727   9.152  0.3929 -1.5501  1.5050
  403MOL0     H55583   5.758   3.582   9.127  0.6312 -0.1854  1.2738
  403MOL0     H55584   5.694   3.560   8.908  1.2234  0.5701  1.1554
  403MOL0     H55585   5.627   3.730   8.898  1.3048 -0.3522 -1.0752
  403MOL0     H55586   5.446   3.660   9.061 -0.4219  0.7262  0.2302
  403MOL0     H55587   5.436   3.590   8.901 -1.6595 -0.3938  1.4236
  403MOL0     H55588   5.568   3.455   9.139 -1.0869  2.7319  0.2841
  403MOL0     H55589   5.560   3.382   8.979  0.8419 -2.1583  2.4537
  403MOL0     H55590   5.318   3.453   9.129  2.5974  2.2194  0.2699
  403MOL0     H55591   5.390   3.293   9.150  1.8208  1.5654  1.4262
  403MOL0     H55592   5.282   3.410   8.888 -1.8407  0.9133  1.2560
  403MOL0     H55593   5.197   3.291   8.990  0.2441 -1.4617 -0.8661
  403MOL0     H55594   6.238   4.004   8.954 -0.2065 -1.2653 -0.0291
  403MOL0     H55595   6.428   4.117   9.074 -1.3612  0.2087 -1.6225
  403MOL0     H55596   6.484   4.175   9.589 -0.6198  1.2088 -1.2324
  403MOL0     H55597   6.628   4.251   9.764  1.9169 -2.9505 -0.4956
  403MOL0     H55598   7.630   4.182   8.750  2.1782  3.4249 -1.0957
  403MOL0     H55599   7.855   4.244   8.686  4.4623  1.4279  2.5314
  403MOL0     H55600   8.277   4.313   8.801 -1.3277 -0.9916 -1.1031
  403MOL0     H55601   8.499   4.371   8.742  1.8825 -0.6993 -0.4541
  403MOL0     H55602   8.719   4.062   8.533 -1.8483 -1.7433 -2.8033
  403MOL0     H55603   8.685   4.159   8.399 -2.7212  0.3996  1.2547
  403MOL0     H55604   8.932   4.179   8.596  0.6232  2.2156  0.9311
  403MOL0     H55605   8.883   4.286   8.459 -0.4551 -1.4101 -0.8437
  403MOL0     H55606   9.003   4.019   8.459 -0.3586 -0.2009  0.7241
  403MOL0     H55607   8.872   4.060   8.333 -1.4184  3.2715 -0.0904
  403MOL0     H55608   9.003   4.249   8.258  1.8588 -0.0099 -0.6083
  403MOL0     H55609   9.108   4.100   8.257  1.2204 -0.4842  1.4605
  403MOL0     H55610   9.322   4.346   8.514 -0.9266  1.4121  1.3270
  403MOL0     H55611   8.534   4.028   8.493 -3.0322 -1.4707 -0.7720
  403MOL0     H55612   8.201   3.956   8.468  0.7869 -0.0492  0.5946
  403MOL0     H55613   8.363   3.886   8.447  0.1760  0.7749 -1.4441
  403MOL0     H55614   8.270   3.857   8.599 -1.1419 -0.6280 -0.7215
  404MOL0     O55615   5.226   1.396   2.669  0.1581 -0.6717 -0.0652
  404MOL0     C55616   5.161   1.292   2.683 -0.2806 -0.1069 -0.5897
  404MOL0     O55617   5.212   1.174   2.738  0.3442  0.0003  0.0462
  404MOL0     C55618   5.340   1.172   2.774  0.1380  0.3292 -0.5717
  404MOL0     C55619   5.361   1.159   2.909  0.5327 -0.2973  0.2072
  404MOL0     C55620   5.488   1.151   2.960 -0.1701  0.1862  0.4410
  404MOL0     C55621   5.595   1.130   2.874 -0.3670 -0.2090 -0.6887
  404MOL0     O55622   5.710   1.108   2.941 -0.5049  0.4558 -0.1470
  404MOL0     C55623   5.819   1.053   2.862  0.0373 -0.7762  0.1744
  404MOL0     C55624   5.936   1.043   2.947  1.3328  0.3978  0.7554
  404MOL0     C55625   6.053   0.978   2.879  0.0998 -0.0249 -0.1775
  404MOL0     C55626   6.162   0.971   2.984 -0.8009  0.0190  0.0814
  404MOL0     C55627   6.240   1.101   3.006 -0.5832  0.0038  0.1321
  404MOL0     C55628   6.369   1.112   2.915 -0.3922 -0.5967 -0.2256
  404MOL0     C55629   6.430   1.257   2.917  0.4337  0.3725  0.5331
  404MOL0     C55630   6.542   1.273   2.812  0.1121  0.6083 -0.9239
  404MOL0     N55631   6.672   1.208   2.826 -0.1383 -0.0311 -0.2824
  404MOL0     C55632   6.748   1.201   2.937  0.8896  0.2202 -0.5373
  404MOL0     C55633   6.859   1.131   2.898 -0.3544 -0.6756 -0.6479
  404MOL0     C55634   6.979   1.097   2.974  0.0459 -0.7748  1.1373
  404MOL0     C55635   7.101   1.167   2.899  0.0464 -0.9166 -0.2935
  404MOL0     C55636   7.226   1.128   2.971  0.3411 -0.9047  0.9045
  404MOL0     C55637   7.339   1.210   2.910  0.0741  0.0561  0.3044
  404MOL0     O55638   7.453   1.198   2.987 -0.2854 -0.7660  0.5244
  404MOL0     C55639   7.509   1.072   2.991  0.2308 -0.7078 -0.1783
  404MOL0     C55640   7.493   0.988   3.100 -0.6811 -0.2976 -0.4445
  404MOL0     C55641   7.557   0.860   3.112 -0.1879  0.1143 -1.1655
  404MOL0     C55642   7.536   0.778   3.240  0.3129 -0.2610 -0.2814
  404MOL0     C55643   7.650   0.824   3.018 -0.6561  0.1727  0.6460
  404MOL0     C55644   7.726   0.693   3.025 -0.1203 -0.7392 -0.0003
  404MOL0     O55645   7.840   0.694   2.953  0.9488 -0.2451  0.4256
  404MOL0     C55646   7.895   0.569   2.924  0.2504  0.1613 -0.0550
  404MOL0     C55647   8.004   0.520   2.992 -0.0375  0.3883  0.3175
  404MOL0     C55648   8.062   0.399   2.951  0.5641 -0.4956 -0.8545
  404MOL0     C55649   8.010   0.323   2.848  0.0505 -0.9280 -0.5314
  404MOL0     O55650   8.045   0.201   2.807  0.1698 -0.3004  0.0652
  404MOL0     C55651   8.186   0.170   2.825  0.0280 -0.4729 -0.3557
  404MOL0     C55652   8.236   0.039   2.760 -0.6125  0.0468  0.2976
  404MOL0     C55653   8.193  -0.094   2.832  0.2848  0.5808 -0.0003
  404MOL0     C55654   8.291  -0.212   2.781 -0.1555  0.1577 -1.2668
  404MOL0     C55655   8.283  -0.335   2.873 -0.5455 -0.5757 -0.0328
  404MOL0     C55656   8.267  -0.463   2.789 -0.9272 -0.2445 -0.0032
  404MOL0     C55657   8.319  -0.589   2.872  0.3128  0.4336  0.4044
  404MOL0     C55658   8.213  -0.616   2.984 -0.1874  0.5397 -0.2162
  404MOL0    Cl55659   8.257  -0.763   3.073 -0.2123  0.2600 -0.4155
  404MOL0     C55660   7.901   0.387   2.777 -0.9194 -0.1059  0.5705
  404MOL0     C55661   7.845   0.506   2.811  0.1850 -0.7042  0.8904
  404MOL0     O55662   7.689   0.601   3.097  0.0001  0.5013  0.5692
  404MOL0     C55663   7.666   0.912   2.896  0.0215  0.3441 -0.5478
  404MOL0     C55664   7.592   1.030   2.888 -0.3107 -0.5653 -0.1148
  404MOL0     N55665   6.840   1.097   2.761  0.5689 -0.4799  0.7647
  404MOL0     N55666   6.723   1.133   2.722  0.3647  0.5074  0.3345
  404MOL0     C55667   5.580   1.158   2.734 -0.8012 -0.2155 -0.4165
  404MOL0     C55668   5.448   1.183   2.686 -0.1551  0.4119  0.1799
  404MOL0     C55669   5.010   1.300   2.675  0.0447  0.2188 -0.0739
  404MOL0     C55670   4.937   1.226   2.764 -0.9958 -0.9522 -0.5612
  404MOL0     C55671   4.800   1.224   2.770  0.8861 -0.4647 -0.0652
  404MOL0     C55672   4.732   1.296   2.681 -0.0638 -0.2270 -0.5491
  404MOL0     O55673   4.593   1.312   2.686 -0.4493 -0.1297 -0.5724
  404MOL0     C55674   4.518   1.201   2.737 -0.1335 -0.2708 -0.9302
  404MOL0     C55675   4.424   1.149   2.630  0.3064  0.5730  0.1429
  404MOL0     C55676   4.367   1.012   2.679 -0.1147 -0.6062  0.3541
  404MOL0     C55677   4.216   0.980   2.675 -0.9639 -0.0220  0.0051
  404MOL0     C55678   4.146   1.087   2.745  0.1124 -0.3840 -0.6036
  404MOL0     C55679   4.083   1.168   2.805 -0.0419  0.9156 -0.1181
  404MOL0     C55680   4.801   1.383   2.592  0.2047  0.3392 -0.1614
  404MOL0     C55681   4.942   1.375   2.581 -0.7405 -0.9978 -0.4064
  404MOL0     C55682   5.011   1.470   2.479  0.3225  0.1011  0.6813
  404MOL0     H55683   5.272   1.139   2.969 -0.8288 -2.2308 -2.2673
  404MOL0     H55684   5.499   1.136   3.067  0.9119 -1.6707  0.1155
  404MOL0     H55685   5.844   1.124   2.781  1.7665  0.7683  1.9381
  404MOL0     H55686   5.790   0.956   2.821 -0.9460 -0.0103 -1.0067
  404MOL0     H55687   5.961   1.145   2.979  3.7198 -0.7590  2.9317
  404MOL0     H55688   5.905   0.987   3.036 -0.5650  1.9607  1.1339
  404MOL0     H55689   6.018   0.882   2.839 -3.9392  0.3201  2.0256
  404MOL0     H55690   6.091   1.040   2.797  1.0836  0.3299  0.5319
  404MOL0     H55691   6.124   0.925   3.075 -3.2548 -2.5481 -2.0659
  404MOL0     H55692   6.241   0.905   2.948 -0.6547  0.1134  0.2259
  404MOL0     H55693   6.276   1.098   3.109 -3.9532  0.9192  1.4788
  404MOL0     H55694   6.182   1.190   2.981 -0.0466  0.0938 -0.8656
  404MOL0     H55695   6.445   1.039   2.942 -0.0731  0.1215  0.8981
  404MOL0     H55696   6.341   1.079   2.815  1.7586  0.0530 -1.1097
  404MOL0     H55697   6.469   1.275   3.017  0.4303 -2.6937  1.1903
  404MOL0     H55698   6.350   1.331   2.911 -0.0465 -0.0898  1.1644
  404MOL0     H55699   6.506   1.235   2.716  1.3305 -2.2224 -0.3663
  404MOL0     H55700   6.560   1.380   2.803  0.1993  0.5463 -1.5760
  404MOL0     H55701   6.738   1.249   3.034  0.2506  3.5125 -2.0809
  404MOL0     H55702   6.989   0.989   2.959 -1.5735 -1.3488  3.6493
  404MOL0     H55703   6.978   1.111   3.082  1.4385 -1.3413  1.2371
  404MOL0     H55704   7.105   1.139   2.793 -2.6434 -1.5500 -0.3020
  404MOL0     H55705   7.079   1.274   2.901  1.1685 -0.6471 -1.1787
  404MOL0     H55706   7.213   1.166   3.073  0.3616 -0.1476  0.6292
  404MOL0     H55707   7.231   1.019   2.963 -2.7542 -1.0073 -2.3989
  404MOL0     H55708   7.345   1.196   2.802 -2.6167  2.2606 -0.2638
  404MOL0     H55709   7.313   1.315   2.928 -0.0834 -0.0706  0.8142
  404MOL0     H55710   7.434   1.031   3.180 -3.9089 -2.1446 -1.6829
  404MOL0     H55711   7.474   0.691   3.216 -1.9441  1.0140  0.6585
  404MOL0     H55712   7.480   0.833   3.316  0.1298  0.5557 -0.9995
  404MOL0     H55713   7.623   0.736   3.291  0.3901 -0.2783 -0.4266
  404MOL0     H55714   8.040   0.558   3.087  1.1605 -0.2678  0.1452
  404MOL0     H55715   8.145   0.364   3.011 -0.0479 -0.9683 -0.2707
  404MOL0     H55716   8.248   0.249   2.783 -1.1444  0.3460 -0.5801
  404MOL0     H55717   8.202   0.156   2.932  1.3512 -1.3764 -0.6460
  404MOL0     H55718   8.199   0.050   2.658 -1.4807  0.7110  0.6680
  404MOL0     H55719   8.345   0.045   2.753 -0.6991  1.2278 -0.2672
  404MOL0     H55720   8.092  -0.123   2.801  0.4073  2.0512 -2.0054
  404MOL0     H55721   8.196  -0.088   2.941  1.1673  0.3132 -0.0006
  404MOL0     H55722   8.396  -0.181   2.781 -0.1033 -0.0111 -1.5802
  404MOL0     H55723   8.283  -0.228   2.673 -0.0533  0.3237 -1.2996
  404MOL0     H55724   8.365  -0.331   2.945 -0.9325  1.0696  0.3466
  404MOL0     H55725   8.193  -0.327   2.934  0.5842  2.0649  1.4159
  404MOL0     H55726   8.327  -0.444   2.700  0.0950 -0.2865  0.6666
  404MOL0     H55727   8.163  -0.466   2.755 -0.6368 -0.0914 -0.9107
  404MOL0     H55728   8.416  -0.576   2.919  1.0621 -1.7291 -0.3948
  404MOL0     H55729   8.336  -0.677   2.809  0.7128  2.8234 -3.1359
  404MOL0     H55730   8.111  -0.642   2.954 -1.0728  2.6412  0.7568
  404MOL0     H55731   8.202  -0.537   3.058 -4.0844 -1.6513  1.9028
  404MOL0     H55732   7.864   0.325   2.696 -0.7610  0.2268  0.2385
  404MOL0     H55733   7.757   0.548   2.764 -0.6501 -2.6596  0.5938
  404MOL0     H55734   7.731   0.879   2.816 -1.0015  0.1390 -1.3056
  404MOL0     H55735   7.591   1.093   2.799 -0.7196  0.4832  0.6081
  404MOL0     H55736   5.666   1.158   2.668  1.7751  3.2086  2.5901
  404MOL0     H55737   5.426   1.197   2.581  2.0364  0.2139 -0.3554
  404MOL0     H55738   4.991   1.180   2.846  2.4468  1.0906 -1.4744
  404MOL0     H55739   4.759   1.162   2.850  0.8998  0.2111  0.4788
  404MOL0     H55740   4.593   1.121   2.735  1.8609  1.4902 -0.3245
  404MOL0     H55741   4.468   1.222   2.832 -0.3389 -0.3169 -1.0280
  404MOL0     H55742   4.480   1.134   2.538  2.2436  2.1092  0.9834
  404MOL0     H55743   4.338   1.211   2.604 -0.3722 -0.2678  0.3685
  404MOL0     H55744   4.419   0.938   2.619  0.6977  0.3236 -0.1220
  404MOL0     H55745   4.400   0.998   2.782  0.6941 -0.6859  0.0894
  404MOL0     H55746   4.202   0.883   2.723  2.1225 -0.8678 -0.5535
  404MOL0     H55747   4.175   0.971   2.574 -0.1745  0.9511 -0.4300
  404MOL0     H55748   4.021   1.248   2.839 -1.7608 -0.8451  1.0950
  404MOL0     H55749   4.735   1.448   2.536 -1.5279  0.5739  2.0183
  404MOL0     H55750   4.925   1.516   2.430 -0.6443 -0.5322  1.7442
  404MOL0     H55751   5.067   1.545   2.535 -1.7740  2.1415  0.1780
  404MOL0     H55752   5.075   1.420   2.405  2.9044  3.5654  0.3242
  405MOL0     O55753   2.850   7.202  11.071 -0.3560 -0.1003 -0.1207
  405MOL0     C55754   2.933   7.123  11.107 -1.5254  0.4253  0.0190
  405MOL0     O55755   2.925   6.992  11.091  0.3336 -0.4462 -0.0736
  405MOL0     C55756   2.805   6.941  11.040  0.1311 -0.4035 -0.1285
  405MOL0     C55757   2.787   6.914  10.905  0.0834  0.2950 -0.2971
  405MOL0     C55758   2.673   6.845  10.858  0.2227  0.3937  0.6537
  405MOL0     C55759   2.571   6.826  10.947 -0.2888  0.3238 -0.8876
  405MOL0     O55760   2.461   6.777  10.893 -0.2785  0.4318 -0.6081
  405MOL0     C55761   2.345   6.857  10.898  0.1512  0.2396  0.2676
  405MOL0     C55762   2.362   6.990  10.815  0.1105  0.0420  0.2578
  405MOL0     C55763   2.230   7.071  10.807 -0.0718 -0.0782 -0.5250
  405MOL0     C55764   2.110   7.007  10.747  0.4297 -0.3860  0.1063
  405MOL0     C55765   2.009   6.936  10.836  0.5347 -0.3244 -0.3132
  405MOL0     C55766   1.887   6.913  10.752  0.3356  0.2194 -0.0073
  405MOL0     C55767   1.777   6.843  10.819 -0.7574 -0.4590 -1.1512
  405MOL0     C55768   1.645   6.829  10.729 -0.1880  0.1926 -0.0067
  405MOL0     N55769   1.547   6.749  10.803  0.2010 -0.5961  0.2182
  405MOL0     C55770   1.552   6.613  10.837 -0.3145 -0.9241  0.3606
  405MOL0     C55771   1.455   6.596  10.929  0.4648 -0.2061 -0.2627
  405MOL0     C55772   1.430   6.476  11.008  0.7400  0.0849  0.4523
  405MOL0     C55773   1.550   6.381  11.028  0.3278 -0.8260 -0.4414
  405MOL0     C55774   1.506   6.264  11.119  0.4126  0.1842  0.1493
  405MOL0     C55775   1.615   6.160  11.105  0.4457 -0.9127  0.2864
  405MOL0     O55776   1.739   6.227  11.134 -0.2356 -0.8290 -0.1588
  405MOL0     C55777   1.857   6.157  11.130 -0.3751  0.0771 -0.1183
  405MOL0     C55778   1.862   6.018  11.106  0.0478 -0.4184  0.9868
  405MOL0     C55779   1.981   5.953  11.106  0.2473 -0.3135 -0.2905
  405MOL0     C55780   1.972   5.802  11.099 -0.5361 -0.8778 -0.1449
  405MOL0     C55781   2.104   6.029  11.135 -0.1317  0.8320 -0.3422
  405MOL0     C55782   2.239   5.970  11.126 -0.4544  0.1289  0.7445
  405MOL0     O55783   2.337   6.004  11.218 -0.3135  0.6892 -0.5154
  405MOL0     C55784   2.469   5.976  11.206  0.1802 -0.0449  0.0263
  405MOL0     C55785   2.508   5.846  11.226 -0.1003 -1.6388 -0.2475
  405MOL0     C55786   2.644   5.816  11.217 -0.4272 -0.5534 -0.9157
  405MOL0     C55787   2.744   5.912  11.192 -0.5732  0.1618 -0.3771
  405MOL0     O55788   2.878   5.898  11.174 -0.0674  0.0583 -0.0574
  405MOL0     C55789   2.925   5.767  11.188 -0.6709  0.6901 -0.8975
  405MOL0     C55790   3.076   5.775  11.185 -0.9199  0.0711  0.2816
  405MOL0     C55791   3.139   5.722  11.316  0.0740 -0.0024  0.1600
  405MOL0     C55792   3.289   5.732  11.308 -0.1332  0.1961 -0.0331
  405MOL0     C55793   3.374   5.648  11.412 -0.2517  0.0635  0.5489
  405MOL0     C55794   3.359   5.685  11.560 -0.4735 -0.3623 -0.6076
  405MOL0     C55795   3.398   5.836  11.581  0.5677  0.3340 -0.8007
  405MOL0     C55796   3.460   5.848  11.722  0.8177 -0.5148 -0.7197
  405MOL0    Cl55797   3.321   5.833  11.850 -0.0394  0.4383  0.1068
  405MOL0     C55798   2.706   6.044  11.190  0.5362  0.0755 -0.3112
  405MOL0     C55799   2.564   6.073  11.181  0.4414 -0.2296 -0.5105
  405MOL0     O55800   2.250   5.898  11.030 -0.5928  0.5430 -0.8537
  405MOL0     C55801   2.101   6.167  11.159  0.5504 -0.5087 -0.5476
  405MOL0     C55802   1.973   6.231  11.152 -0.4791  0.1699  0.1498
  405MOL0     N55803   1.386   6.720  10.945 -0.2638 -0.2732  0.0084
  405MOL0     N55804   1.446   6.807  10.872  0.3748  0.7339 -0.4328
  405MOL0     C55805   2.585   6.858  11.082 -0.1848  0.1428 -0.1143
  405MOL0     C55806   2.707   6.911  11.130  0.6523 -0.2398 -0.7979
  405MOL0     C55807   3.051   7.180  11.183 -0.0475 -1.3734  1.3291
  405MOL0     C55808   3.109   7.112  11.292  0.0482 -0.0742 -0.2016
  405MOL0     C55809   3.236   7.138  11.346  0.7866  0.8166 -0.3437
  405MOL0     C55810   3.314   7.242  11.291  0.0109 -0.7963 -0.0891
  405MOL0     O55811   3.453   7.268  11.313  1.0867 -0.4604 -1.1217
  405MOL0     C55812   3.519   7.196  11.419 -0.6604 -0.7746 -0.3121
  405MOL0     C55813   3.606   7.294  11.509 -0.0730 -0.2015  0.0361
  405MOL0     C55814   3.730   7.333  11.438  0.7239  0.3177  0.0396
  405MOL0     C55815   3.819   7.433  11.507 -0.1883 -0.8677 -1.0126
  405MOL0     C55816   3.943   7.453  11.438  0.2916 -0.0162  0.5417
  405MOL0     C55817   4.044   7.471  11.380  0.0995 -0.1027  0.3870
  405MOL0     C55818   3.257   7.327  11.191  0.8980  0.2435 -0.1679
  405MOL0     C55819   3.131   7.297  11.136  0.9594 -0.2530  0.4707
  405MOL0     C55820   3.076   7.393  11.023  1.0015 -0.1545  0.6199
  405MOL0     H55821   2.871   6.938  10.840  2.1626 -1.0012  1.7458
  405MOL0     H55822   2.668   6.802  10.758  2.5589 -2.4678  1.6424
  405MOL0     H55823   2.323   6.880  11.002  0.3990  1.3862  0.0838
  405MOL0     H55824   2.263   6.799  10.854  1.1077  0.2582 -1.6552
  405MOL0     H55825   2.441   7.053  10.859  1.3337 -0.9793 -0.4153
  405MOL0     H55826   2.398   6.961  10.716 -0.1448  0.1171  0.1420
  405MOL0     H55827   2.207   7.089  10.913  1.2387  0.1776 -0.2610
  405MOL0     H55828   2.244   7.165  10.753  1.0958 -0.6373 -1.2345
  405MOL0     H55829   2.059   7.088  10.693 -0.6998 -0.3010  1.2379
  405MOL0     H55830   2.151   6.940  10.672  1.0997  0.2513 -0.1081
  405MOL0     H55831   1.978   6.996  10.922 -2.1267 -2.6045  0.4611
  405MOL0     H55832   2.043   6.844  10.883 -0.2720 -0.3488  0.2397
  405MOL0     H55833   1.849   7.007  10.710 -2.3228  0.7117  3.0952
  405MOL0     H55834   1.907   6.850  10.665  1.5753  3.6849 -2.4707
  405MOL0     H55835   1.749   6.884  10.916 -0.2546 -2.3821 -0.1502
  405MOL0     H55836   1.815   6.743  10.842 -0.2186 -0.1266 -0.5578
  405MOL0     H55837   1.605   6.926  10.697 -0.7130 -0.3247 -0.9512
  405MOL0     H55838   1.669   6.774  10.638  0.4735 -2.9269  1.8872
  405MOL0     H55839   1.613   6.533  10.796  2.3173  0.3919  1.4836
  405MOL0     H55840   1.353   6.426  10.949  0.8519  0.5607 -0.1021
  405MOL0     H55841   1.390   6.517  11.101 -2.2607  0.4870 -0.8974
  405MOL0     H55842   1.596   6.353  10.933  1.5478  2.6325 -1.0381
  405MOL0     H55843   1.621   6.443  11.084 -0.1033 -1.9954  1.4717
  405MOL0     H55844   1.503   6.308  11.219  0.9718  0.6217 -0.0236
  405MOL0     H55845   1.411   6.221  11.087 -0.3842 -1.0952  3.7818
  405MOL0     H55846   1.582   6.093  11.185 -1.6586  1.7440  1.8113
  405MOL0     H55847   1.621   6.116  11.004 -1.6698 -2.8929  0.9183
  405MOL0     H55848   1.774   5.965  11.071 -0.0638  0.7290 -0.5829
  405MOL0     H55849   2.062   5.753  11.136  2.1117  2.4174 -1.6329
  405MOL0     H55850   1.958   5.767  10.996 -4.5233  3.0775 -1.2967
  405MOL0     H55851   1.881   5.781  11.155 -2.6814  3.8045 -1.3431
  405MOL0     H55852   2.437   5.771  11.257 -1.4345 -0.9755 -1.5894
  405MOL0     H55853   2.680   5.714  11.226  1.9922  0.2829 -0.3477
  405MOL0     H55854   2.887   5.717  11.278 -0.1883  2.7826  0.5561
  405MOL0     H55855   2.887   5.703  11.108 -4.1181  0.8987  0.4007
  405MOL0     H55856   3.108   5.710  11.103  2.6064 -0.1171  1.6500
  405MOL0     H55857   3.105   5.877  11.159 -1.2379 -0.2477 -1.4701
  405MOL0     H55858   3.105   5.618  11.314 -5.1321  1.3787  1.4735
  405MOL0     H55859   3.087   5.773  11.398 -2.6329 -4.5286  1.6373
  405MOL0     H55860   3.309   5.839  11.318  2.1134 -0.3241  1.6696
  405MOL0     H55861   3.319   5.719  11.203  0.4089  3.2432 -0.3529
  405MOL0     H55862   3.348   5.542  11.400 -0.8483  0.3689 -1.1389
  405MOL0     H55863   3.478   5.652  11.379 -1.0916 -0.2096 -2.5378
  405MOL0     H55864   3.424   5.612  11.611 -1.4302 -0.6787  0.1942
  405MOL0     H55865   3.258   5.667  11.598  0.2832 -0.5327  1.4905
  405MOL0     H55866   3.308   5.898  11.576  0.0040 -0.2643  1.0293
  405MOL0     H55867   3.472   5.872  11.509  0.7664  3.3212  0.7228
  405MOL0     H55868   3.505   5.947  11.734  1.6332 -0.8132 -1.1867
  405MOL0     H55869   3.542   5.776  11.717  0.3014 -1.1101 -0.6271
  405MOL0     H55870   2.784   6.116  11.169  0.0784  0.3375 -1.1625
  405MOL0     H55871   2.536   6.174  11.151 -0.1948 -0.9416 -2.4947
  405MOL0     H55872   2.192   6.219  11.186 -1.6706  5.2564 -2.6686
  405MOL0     H55873   1.967   6.335  11.185  3.1655  1.3434 -2.2142
  405MOL0     H55874   2.509   6.861  11.160  2.3857  3.4962  2.6362
  405MOL0     H55875   2.708   6.930  11.237 -1.8140 -0.0810 -0.7570
  405MOL0     H55876   3.050   7.028  11.327 -0.2563  0.8962  1.8045
  405MOL0     H55877   3.274   7.073  11.424 -0.5182  1.2470  0.6911
  405MOL0     H55878   3.442   7.158  11.487 -0.8557  1.0224  0.5204
  405MOL0     H55879   3.580   7.122  11.366  1.4114  2.0607 -2.1799
  405MOL0     H55880   3.626   7.246  11.605 -0.6109  0.1443  0.3277
  405MOL0     H55881   3.551   7.382  11.543  2.2015  1.9752 -1.5882
  405MOL0     H55882   3.784   7.243  11.405  1.8182  2.0159 -3.2986
  405MOL0     H55883   3.706   7.377  11.340 -2.8444  0.5899  0.9030
  405MOL0     H55884   3.839   7.384  11.603 -2.5445 -0.9299 -0.5045
  405MOL0     H55885   3.762   7.526  11.504  2.2281  0.7165 -0.4887
  405MOL0     H55886   4.142   7.493  11.344 -0.3230 -0.0480 -0.7741
  405MOL0     H55887   3.326   7.396  11.145  2.1302  1.5547  3.2855
  405MOL0     H55888   2.977   7.418  11.063  2.1791 -0.0246  3.7959
  405MOL0     H55889   3.141   7.481  11.018  1.5729 -0.6287 -0.4754
  405MOL0     H55890   3.075   7.344  10.926 -0.1875  2.5703 -0.8580
  406MOL0     O55891  10.011   9.899   2.203 -0.4346 -0.5097 -0.3218
  406MOL0     C55892   9.982  10.012   2.164  0.0292 -0.0255 -0.0811
  406MOL0     O55893  10.061  10.096   2.085  0.8001  0.1668  0.3679
  406MOL0     C55894  10.180  10.050   2.039  0.7579  0.0279 -0.0661
  406MOL0     C55895  10.194  10.008   1.913 -0.6934  0.7638  0.6649
  406MOL0     C55896  10.325   9.970   1.862 -0.5276  0.3668  0.2611
  406MOL0     C55897  10.435   9.957   1.944 -0.1387  0.2326  1.0025
  406MOL0     O55898  10.548   9.897   1.896 -0.0175 -0.1233  0.0066
  406MOL0     C55899  10.569   9.878   1.757 -0.2407 -0.5927  0.1143
  406MOL0     C55900  10.711   9.852   1.710  0.0974 -0.2725  0.6984
  406MOL0     C55901  10.719   9.825   1.555 -0.6551 -0.1959 -0.1057
  406MOL0     C55902  10.741   9.676   1.515  1.2527 -0.3105  0.2593
  406MOL0     C55903  10.785   9.665   1.376 -0.3513 -0.6289  0.0213
  406MOL0     C55904  10.935   9.698   1.360 -0.1264  0.0109 -0.2457
  406MOL0     C55905  10.989   9.678   1.217  0.4876 -0.0421  0.3108
  406MOL0     C55906  10.919   9.764   1.106  1.0387 -0.5649  0.8172
  406MOL0     N55907  11.014   9.780   0.992  0.4349  0.9745 -0.1464
  406MOL0     C55908  11.079   9.668   0.932  0.0105 -0.9022 -0.1581
  406MOL0     C55909  11.145   9.731   0.831  0.4750  0.5444  0.0315
  406MOL0     C55910  11.253   9.654   0.750  0.3417  0.4039 -0.8122
  406MOL0     C55911  11.395   9.714   0.763  0.8896  0.3779  0.7338
  406MOL0     C55912  11.442   9.771   0.896 -0.3431  0.9393  0.4949
  406MOL0     C55913  11.450   9.666   1.007  0.9245  0.0908  0.0282
  406MOL0     O55914  11.509   9.732   1.121  0.3047 -0.2517 -0.6225
  406MOL0     C55915  11.434   9.741   1.237 -0.6927 -0.1336  0.4352
  406MOL0     C55916  11.385   9.618   1.300 -0.1041 -0.1949  0.4308
  406MOL0     C55917  11.304   9.624   1.411 -0.3640 -0.5201  0.2686
  406MOL0     C55918  11.240   9.500   1.457 -1.0558  0.5205  0.2069
  406MOL0     C55919  11.278   9.756   1.465  0.8529  0.0860 -1.1020
  406MOL0     C55920  11.193   9.770   1.581  0.3731 -0.0015 -0.3550
  406MOL0     O55921  11.212   9.680   1.682 -0.3166  1.0203  0.4345
  406MOL0     C55922  11.145   9.703   1.796 -0.0623  0.1913 -0.5091
  406MOL0     C55923  11.202   9.794   1.891  0.1530  0.6366 -0.9193
  406MOL0     C55924  11.130   9.814   2.008 -0.7921  0.1411  0.2780
  406MOL0     C55925  11.009   9.758   2.032  1.1052 -0.2109 -0.0854
  406MOL0     O55926  10.943   9.773   2.154 -0.5186 -0.2081  0.0749
  406MOL0     C55927  10.885   9.901   2.176 -0.0141  0.3413  1.3242
  406MOL0     C55928  10.975  10.009   2.243 -1.0892  0.2934 -0.3024
  406MOL0     C55929  11.030   9.966   2.383  0.7997  0.4687 -0.3540
  406MOL0     C55930  11.146   9.865   2.369  1.2091 -0.0019 -1.0551
  406MOL0     C55931  11.195   9.839   2.507 -0.0957  0.5762 -0.3327
  406MOL0     C55932  11.324   9.752   2.500  0.5836  0.7375  0.2486
  406MOL0     C55933  11.432   9.815   2.407  0.3663  0.2519 -0.6080
  406MOL0     C55934  11.577   9.775   2.452  0.8804 -0.1362  1.5205
  406MOL0    Cl55935  11.692   9.837   2.332 -0.6301 -0.1736 -0.2789
  406MOL0     C55936  10.955   9.672   1.942 -0.7181  0.6842  0.6993
  406MOL0     C55937  11.024   9.639   1.821  0.0575  0.3313 -0.7578
  406MOL0     O55938  11.121   9.870   1.592 -0.2207  0.1267 -0.2069
  406MOL0     C55939  11.325   9.876   1.401 -0.4879 -0.1156 -0.5452
  406MOL0     C55940  11.406   9.867   1.284 -0.0075  0.4337  0.2226
  406MOL0     N55941  11.110   9.864   0.813  0.1853 -0.0877 -0.5382
  406MOL0     N55942  11.025   9.890   0.907  0.0802 -0.5594  0.3521
  406MOL0     C55943  10.424  10.000   2.072  0.0769 -0.1126 -0.0427
  406MOL0     C55944  10.294  10.043   2.121 -0.3693 -0.1361 -1.1303
  406MOL0     C55945   9.848  10.073   2.205  0.6766 -0.1948  0.3145
  406MOL0     C55946   9.828  10.213   2.174  0.5649  0.0498 -0.3196
  406MOL0     C55947   9.705  10.284   2.198  0.3795 -0.1132  0.7379
  406MOL0     C55948   9.606  10.224   2.274 -0.3442 -0.5173 -0.2854
  406MOL0     O55949   9.488  10.284   2.312 -0.6038  1.3712  0.0078
  406MOL0     C55950   9.472  10.425   2.285 -0.4620  0.4006  0.2301
  406MOL0     C55951   9.373  10.463   2.382  1.4813  0.3130 -0.6072
  406MOL0     C55952   9.240  10.376   2.377  1.1934 -0.2909 -0.3559
  406MOL0     C55953   9.115  10.438   2.434 -0.5974  0.0319 -0.9914
  406MOL0     C55954   9.131  10.523   2.555 -0.4606  0.1345  0.4723
  406MOL0     C55955   9.151  10.594   2.649 -0.1375 -0.9059 -0.4723
  406MOL0     C55956   9.624  10.089   2.302 -1.3938 -0.4469  0.1271
  406MOL0     C55957   9.734  10.007   2.264  0.0603 -0.4432 -0.5301
  406MOL0     C55958   9.733   9.864   2.301  1.0386 -0.0787  0.4842
  406MOL0     H55959  10.108  10.003   1.847 -0.7026 -0.2355  0.7405
  406MOL0     H55960  10.324   9.923   1.764 -0.6403 -1.6278  1.1662
  406MOL0     H55961  10.527   9.965   1.707  0.9564 -0.3358 -0.4764
  406MOL0     H55962  10.518   9.790   1.717 -1.8841  0.7057 -0.7667
  406MOL0     H55963  10.758   9.945   1.745  0.0738  0.4796 -1.1465
  406MOL0     H55964  10.749   9.765   1.763  0.7837 -0.2708  0.2254
  406MOL0     H55965  10.630   9.871   1.511 -1.1044 -0.2431  0.7250
  406MOL0     H55966  10.806   9.882   1.522 -1.5045  1.9935  1.1982
  406MOL0     H55967  10.821   9.634   1.578  1.2560 -0.9641 -0.1789
  406MOL0     H55968  10.652   9.617   1.535  0.0572  1.4348  0.2840
  406MOL0     H55969  10.726   9.722   1.304 -0.1948  1.0842  1.1980
  406MOL0     H55970  10.772   9.561   1.344  0.2377 -0.3231 -1.2766
  406MOL0     H55971  10.959   9.793   1.410  0.3888  0.8610 -2.0116
  406MOL0     H55972  10.993   9.627   1.419  1.2729  0.2897 -1.2226
  406MOL0     H55973  10.972   9.572   1.196 -2.3315  0.5874 -1.0260
  406MOL0     H55974  11.097   9.690   1.223  0.5704 -0.0678 -0.9141
  406MOL0     H55975  10.825   9.716   1.077  1.1956 -0.8357  0.7566
  406MOL0     H55976  10.892   9.865   1.138 -1.2257 -0.1069 -2.0798
  406MOL0     H55977  11.094   9.567   0.969  0.8925 -0.4379  0.7651
  406MOL0     H55978  11.233   9.655   0.642 -0.9671 -1.7406 -0.6484
  406MOL0     H55979  11.257   9.550   0.784  2.0890  0.6042 -0.3338
  406MOL0     H55980  11.464   9.636   0.731 -0.5813 -0.6309 -0.0959
  406MOL0     H55981  11.399   9.790   0.684  0.5102 -2.0991 -1.8405
  406MOL0     H55982  11.542   9.811   0.881  0.4819 -0.8984  0.8426
  406MOL0     H55983  11.380   9.852   0.936  0.7136  1.7516  0.5227
  406MOL0     H55984  11.347   9.634   1.025 -0.7140  2.2677 -4.0027
  406MOL0     H55985  11.502   9.573   0.984 -2.3156 -2.5704  2.4761
  406MOL0     H55986  11.411   9.527   1.248  1.6286  0.1974  0.5425
  406MOL0     H55987  11.134   9.512   1.481 -1.0808 -0.4709  0.6271
  406MOL0     H55988  11.297   9.470   1.545  0.1371  0.9140 -0.4175
  406MOL0     H55989  11.246   9.425   1.377  1.4759 -0.3039  1.0690
  406MOL0     H55990  11.302   9.834   1.875  1.4919 -1.6157  1.1090
  406MOL0     H55991  11.159   9.879   2.091 -2.0623  0.1842  0.7081
  406MOL0     H55992  10.848   9.941   2.081  0.0153  1.7679  1.8871
  406MOL0     H55993  10.800   9.883   2.243  0.8666 -2.4725  1.8131
  406MOL0     H55994  11.063  10.032   2.181 -0.2045 -1.5189  0.1968
  406MOL0     H55995  10.908  10.094   2.252 -2.1430 -0.5774  0.3222
  406MOL0     H55996  10.952   9.915   2.441 -1.1436  3.1515 -0.4326
  406MOL0     H55997  11.060  10.044   2.453  1.5835 -1.3260  1.3977
  406MOL0     H55998  11.222   9.897   2.297  1.5560 -0.6146 -0.9700
  406MOL0     H55999  11.099   9.771   2.338  0.6343 -0.4168  0.9493
  406MOL0     H56000  11.216   9.930   2.563 -0.3850 -0.1319  0.9554
  406MOL0     H56001  11.116   9.784   2.560  1.3524 -1.5984 -0.3147
  406MOL0     H56002  11.293   9.671   2.435  0.6827  3.6919 -3.8543
  406MOL0     H56003  11.361   9.729   2.601 -0.7854  2.8122  1.2980
  406MOL0     H56004  11.429   9.922   2.384 -0.5552  0.5472  0.7591
  406MOL0     H56005  11.427   9.768   2.309  1.3671  1.4255 -1.2464
  406MOL0     H56006  11.581   9.666   2.453  2.3320 -0.1032  1.3069
  406MOL0     H56007  11.593   9.811   2.554  2.0294  1.0424  0.9556
  406MOL0     H56008  10.859   9.629   1.969 -2.2106  4.7075  2.5842
  406MOL0     H56009  10.977   9.560   1.763 -0.2867 -0.7012  0.8527
  406MOL0     H56010  11.305   9.981   1.421 -0.3123  0.1428 -1.6568
  406MOL0     H56011  11.442   9.951   1.226 -1.9361  2.4092  1.7386
  406MOL0     H56012  10.503   9.987   2.145  2.3201 -3.1269 -2.7153
  406MOL0     H56013  10.279  10.066   2.226  2.1459 -1.0145 -0.5069
  406MOL0     H56014   9.908  10.260   2.118  0.7930 -1.5849 -1.4177
  406MOL0     H56015   9.689  10.383   2.156  1.0044 -0.5718 -0.6677
  406MOL0     H56016   9.565  10.480   2.307 -0.4673  1.4422 -2.0498
  406MOL0     H56017   9.444  10.453   2.183  0.1800  0.0549 -0.0503
  406MOL0     H56018   9.341  10.566   2.363 -0.7536 -0.2410 -0.1704
  406MOL0     H56019   9.414  10.467   2.484 -0.1615  0.1159  0.0932
  406MOL0     H56020   9.225  10.357   2.270 -0.1656  1.8079 -0.5911
  406MOL0     H56021   9.257  10.273   2.410 -1.0072 -1.2626 -1.9859
  406MOL0     H56022   9.049  10.356   2.466  0.0428 -0.2662 -0.4385
  406MOL0     H56023   9.067  10.504   2.360  0.1433  0.0323 -1.4764
  406MOL0     H56024   9.181  10.659   2.729 -0.9874 -0.4936 -0.4722
  406MOL0     H56025   9.539  10.040   2.350 -2.0081 -0.9112 -1.3835
  406MOL0     H56026   9.628   9.833   2.310  0.2861  2.1125 -0.1848
  406MOL0     H56027   9.783   9.808   2.221 -0.6857 -0.9581 -0.0364
  406MOL0     H56028   9.777   9.872   2.400  2.2580 -0.2714 -0.0312
  407MOL0     O56029   6.548   8.629   1.258 -0.2459  0.4457 -0.3148
  407MOL0     C56030   6.596   8.672   1.363  0.0062  0.3591 -0.0055
  407MOL0     O56031   6.569   8.796   1.406 -0.5838 -0.0368  0.2686
  407MOL0     C56032   6.530   8.892   1.317  0.3204 -0.7996  0.3117
  407MOL0     C56033   6.626   8.994   1.279  0.9301  0.3832 -0.7881
  407MOL0     C56034   6.589   9.095   1.201 -0.2757 -0.5091 -0.0049
  407MOL0     C56035   6.459   9.098   1.149 -0.0893  0.9572  0.0796
  407MOL0     O56036   6.425   9.210   1.078 -0.0745  0.1115 -0.6052
  407MOL0     C56037   6.316   9.207   0.987  0.3263 -0.1656 -0.5908
  407MOL0     C56038   6.336   9.328   0.906  0.3627 -0.2232 -0.0291
  407MOL0     C56039   6.227   9.359   0.809 -0.4199  0.2511 -0.3748
  407MOL0     C56040   6.274   9.467   0.711 -0.0868 -0.1596  0.0743
  407MOL0     C56041   6.163   9.510   0.603  1.1308 -0.3419  0.1739
  407MOL0     C56042   6.028   9.554   0.658 -0.5213 -0.6300  0.0154
  407MOL0     C56043   6.025   9.680   0.747 -0.1533  0.8843 -0.6769
  407MOL0     C56044   5.912   9.769   0.718 -0.4415 -0.8858 -0.1203
  407MOL0     N56045   5.776   9.709   0.708 -0.4805 -0.0521  0.1483
  407MOL0     C56046   5.719   9.615   0.792 -0.7399 -0.6599 -0.0178
  407MOL0     C56047   5.600   9.585   0.739  0.2018  0.4743  0.1929
  407MOL0     C56048   5.494   9.503   0.801 -0.6198  0.0125  0.2391
  407MOL0     C56049   5.365   9.581   0.814 -0.0287 -0.6441  0.3032
  407MOL0     C56050   5.365   9.683   0.924  0.4644 -0.4678 -0.6861
  407MOL0     C56051   5.225   9.762   0.910 -0.0967  0.2942 -0.0036
  407MOL0     O56052   5.113   9.676   0.936  0.5243 -0.5581  0.3577
  407MOL0     C56053   5.080   9.649   1.068 -0.5517 -0.2302 -0.1499
  407MOL0     C56054   4.953   9.593   1.080 -0.4368  0.8353 -0.3388
  407MOL0     C56055   4.892   9.583   1.210  0.1481  0.0800 -0.2444
  407MOL0     C56056   4.756   9.536   1.223 -0.6999 -0.4603  0.2425
  407MOL0     C56057   4.972   9.624   1.329  0.1205  0.3016  0.5148
  407MOL0     C56058   4.922   9.610   1.473 -1.3523 -0.3820  0.7613
  407MOL0     O56059   5.003   9.683   1.558  0.4769 -0.3645 -0.1184
  407MOL0     C56060   4.957   9.711   1.691  0.3746  0.8375 -0.9024
  407MOL0     C56061   4.938   9.610   1.783  0.3860 -0.2958 -0.3335
  407MOL0     C56062   4.913   9.643   1.916 -0.7233 -0.1291 -0.3144
  407MOL0     C56063   4.882   9.774   1.955 -0.3869  0.5678  0.6520
  407MOL0     O56064   4.865   9.801   2.086 -0.1933  0.0686 -0.4232
  407MOL0     C56065   4.976   9.886   2.130 -0.1302 -0.1540  0.4745
  407MOL0     C56066   4.974   9.881   2.288  1.0615  0.5935  1.7206
  407MOL0     C56067   4.855   9.957   2.340  0.5587  0.0969 -0.1148
  407MOL0     C56068   4.710   9.912   2.319  0.3841 -0.7930  0.0906
  407MOL0     C56069   4.610   9.992   2.406  0.0149 -0.6987  0.4850
  407MOL0     C56070   4.457   9.948   2.376 -0.2044  0.2928 -0.4547
  407MOL0     C56071   4.355  10.037   2.436  0.1583  0.6611 -0.3545
  407MOL0     C56072   4.212   9.986   2.445 -0.2278 -0.3533  1.1054
  407MOL0    Cl56073   4.081  10.117   2.470 -0.1336  0.0887  0.2063
  407MOL0     C56074   4.882   9.865   1.853  0.8541 -0.2449 -0.0638
  407MOL0     C56075   4.921   9.842   1.725 -0.5585 -0.6165 -0.2302
  407MOL0     O56076   4.826   9.546   1.510 -0.3005 -0.4635  0.1016
  407MOL0     C56077   5.108   9.656   1.304  0.4607  1.3264  0.3217
  407MOL0     C56078   5.161   9.681   1.183  0.0711  0.1435  0.0254
  407MOL0     N56079   5.582   9.660   0.625 -0.2246  0.5319 -0.3006
  407MOL0     N56080   5.688   9.730   0.605 -0.2554 -0.4081  0.1907
  407MOL0     C56081   6.371   8.985   1.176 -0.4432 -0.4268 -0.1577
  407MOL0     C56082   6.397   8.880   1.263 -0.6199 -0.7622  0.8379
  407MOL0     C56083   6.672   8.585   1.449 -0.9844  0.0556  1.0802
  407MOL0     C56084   6.796   8.644   1.492  0.5590  0.2209  0.0126
  407MOL0     C56085   6.890   8.562   1.561  0.2522 -0.8794 -0.1857
  407MOL0     C56086   6.855   8.434   1.602 -0.3114  0.1808  1.0452
  407MOL0     O56087   6.957   8.369   1.677  0.3377 -0.4060 -0.3536
  407MOL0     C56088   6.933   8.234   1.725  0.5145 -0.4201 -0.3298
  407MOL0     C56089   7.071   8.175   1.775 -0.1309  0.3479  0.5146
  407MOL0     C56090   7.060   8.031   1.819  0.3756 -0.4631  0.3095
  407MOL0     C56091   7.192   7.959   1.846 -0.4908 -0.4557  0.5926
  407MOL0     C56092   7.207   7.824   1.893  0.2659  0.9674  0.1695
  407MOL0     C56093   7.238   7.711   1.935  0.6295 -0.1128 -0.0103
  407MOL0     C56094   6.728   8.383   1.582  0.2770 -0.5521 -0.4659
  407MOL0     C56095   6.636   8.451   1.495 -1.1685  0.4924  0.8585
  407MOL0     C56096   6.512   8.378   1.440 -0.1100  0.1636 -0.9198
  407MOL0     H56097   6.725   8.997   1.324 -0.0029 -1.1639  1.6218
  407MOL0     H56098   6.655   9.180   1.185  0.6069 -1.6214 -2.9784
  407MOL0     H56099   6.228   9.211   1.052 -0.0393  1.3673 -1.1328
  407MOL0     H56100   6.303   9.120   0.922  2.1065 -1.4072  0.6448
  407MOL0     H56101   6.352   9.423   0.958 -0.3816  0.5556 -1.1820
  407MOL0     H56102   6.429   9.305   0.853  0.1787 -1.2914  0.0969
  407MOL0     H56103   6.193   9.275   0.747  1.5512 -0.6145 -0.3780
  407MOL0     H56104   6.145   9.402   0.867 -0.7193 -1.1200  0.2603
  407MOL0     H56105   6.317   9.551   0.765 -1.3437 -1.0671  2.6566
  407MOL0     H56106   6.350   9.420   0.647  1.6840  1.7537  0.6711
  407MOL0     H56107   6.141   9.427   0.536 -0.3069  0.9772 -1.0585
  407MOL0     H56108   6.209   9.587   0.540  2.3490 -0.2806  1.0867
  407MOL0     H56109   5.964   9.560   0.569  1.2197  3.5543 -1.1786
  407MOL0     H56110   5.987   9.471   0.715  0.0933 -0.9398  0.0200
  407MOL0     H56111   6.115   9.739   0.726  2.3589 -2.1451  0.7462
  407MOL0     H56112   6.026   9.649   0.852 -1.7800 -3.9507 -1.8388
  407MOL0     H56113   5.904   9.847   0.795 -1.9930 -1.4956  0.3797
  407MOL0     H56114   5.926   9.826   0.626 -2.0804  0.3703  0.3522
  407MOL0     H56115   5.751   9.577   0.889 -3.2224 -1.7199  0.4708
  407MOL0     H56116   5.525   9.458   0.896 -0.2629 -2.3492 -0.9203
  407MOL0     H56117   5.468   9.425   0.729 -1.7582  0.6724 -0.0961
  407MOL0     H56118   5.349   9.627   0.716  0.5125  1.4527  1.1258
  407MOL0     H56119   5.285   9.508   0.830  0.7642 -1.3073  1.3602
  407MOL0     H56120   5.376   9.626   1.016 -1.9934  0.1850  0.0682
  407MOL0     H56121   5.448   9.755   0.912  0.4156 -0.0732  1.1105
  407MOL0     H56122   5.220   9.849   0.975 -1.5785  1.4933 -1.6116
  407MOL0     H56123   5.227   9.804   0.808  4.1623 -0.8875 -0.6274
  407MOL0     H56124   4.910   9.559   0.987 -2.2663 -0.2942  0.8706
  407MOL0     H56125   4.721   9.507   1.124 -2.5836  1.0721  0.3898
  407MOL0     H56126   4.680   9.609   1.254  0.0128 -0.6136  2.5857
  407MOL0     H56127   4.754   9.453   1.294 -1.2263 -0.7718 -0.1325
  407MOL0     H56128   4.968   9.514   1.743 -1.1599 -1.4525  1.1667
  407MOL0     H56129   4.937   9.576   1.998 -1.4135 -1.0134 -0.8128
  407MOL0     H56130   5.075   9.865   2.091 -0.7885 -0.5192 -1.0496
  407MOL0     H56131   4.964   9.988   2.094  1.9691  0.6647  1.9260
  407MOL0     H56132   4.960   9.777   2.321  0.0030  0.0777 -0.1890
  407MOL0     H56133   5.070   9.908   2.333  1.8860 -0.5174  0.6932
  407MOL0     H56134   4.860  10.063   2.311 -0.7707  0.1652 -0.1258
  407MOL0     H56135   4.861   9.962   2.449 -0.8024 -1.8180  0.0926
  407MOL0     H56136   4.701   9.805   2.344  2.8369 -0.9752  0.4457
  407MOL0     H56137   4.689   9.925   2.213  2.3634 -1.4776 -0.4461
  407MOL0     H56138   4.641   9.961   2.506  2.5592 -2.5474 -0.7681
  407MOL0     H56139   4.624  10.101   2.396  0.8415 -0.7843  0.6380
  407MOL0     H56140   4.433   9.847   2.412  2.3018  0.0584  0.8256
  407MOL0     H56141   4.462   9.946   2.267  2.9119 -2.9880 -0.4594
  407MOL0     H56142   4.360  10.128   2.375 -3.9483  1.7701  0.5948
  407MOL0     H56143   4.382  10.050   2.541 -5.2611 -2.1195  1.7985
  407MOL0     H56144   4.220   9.902   2.514 -2.0673 -1.0699  0.4898
  407MOL0     H56145   4.171   9.941   2.355 -1.5568 -2.4611  2.6887
  407MOL0     H56146   4.860   9.968   1.879 -2.4203 -0.4280 -1.6518
  407MOL0     H56147   4.933   9.921   1.651 -3.6747  0.0086 -0.1915
  407MOL0     H56148   5.177   9.672   1.386  1.2651  0.6710 -0.2225
  407MOL0     H56149   5.263   9.719   1.178  0.7366 -1.0174  2.8088
  407MOL0     H56150   6.269   8.984   1.139 -0.2664  3.4743 -1.1699
  407MOL0     H56151   6.317   8.807   1.272 -3.5808  2.3497  1.9512
  407MOL0     H56152   6.827   8.738   1.448 -0.9236 -0.0540 -1.7487
  407MOL0     H56153   6.995   8.580   1.583  0.3226 -0.5985 -0.7298
  407MOL0     H56154   6.861   8.236   1.807  2.3586 -1.9749  1.4487
  407MOL0     H56155   6.897   8.168   1.646  3.6416 -1.8459 -0.7239
  407MOL0     H56156   7.113   8.238   1.854  2.2427  0.1472 -0.5173
  407MOL0     H56157   7.140   8.185   1.691  1.7319  1.3772  2.1015
  407MOL0     H56158   7.006   8.031   1.914 -1.9778  0.3743 -0.9502
  407MOL0     H56159   7.011   7.970   1.743  2.3344 -1.8253  0.0697
  407MOL0     H56160   7.251   8.021   1.915  2.0606 -1.0467 -0.8968
  407MOL0     H56161   7.253   7.972   1.756 -0.8308 -2.1028  0.0925
  407MOL0     H56162   7.283   7.621   1.970 -1.7171 -1.0108  0.9008
  407MOL0     H56163   6.704   8.284   1.620 -3.3165 -0.3618 -1.8462
  407MOL0     H56164   6.424   8.434   1.473  1.5407  2.2875  0.0720
  407MOL0     H56165   6.505   8.375   1.331 -1.7905 -1.4800 -0.8394
  407MOL0     H56166   6.512   8.279   1.487 -0.2198  1.1137  1.2275
  408MOL0     O56167   6.214   6.794   3.005  0.0698 -0.3596 -0.1548
  408MOL0     C56168   6.162   6.724   3.084  0.7244  0.0859 -0.3911
  408MOL0     O56169   6.220   6.684   3.203 -0.1265  0.1574 -0.3128
  408MOL0     C56170   6.357   6.692   3.229 -0.4789 -0.2431  0.0428
  408MOL0     C56171   6.417   6.814   3.226 -0.1563 -0.8689  0.2548
  408MOL0     C56172   6.544   6.824   3.288 -0.3435  0.0742  0.0259
  408MOL0     C56173   6.611   6.724   3.358  0.2389 -0.1297  0.4286
  408MOL0     O56174   6.739   6.755   3.392 -0.4732  0.3713 -0.8659
  408MOL0     C56175   6.783   6.671   3.500  0.3152  0.4114  0.2223
  408MOL0     C56176   6.932   6.717   3.544  0.6906 -0.3750 -0.3048
  408MOL0     C56177   7.022   6.660   3.430 -0.0591  0.6231  0.0654
  408MOL0     C56178   7.153   6.734   3.457 -0.3452 -0.6442  0.7494
  408MOL0     C56179   7.234   6.772   3.328 -0.7110 -0.5597  0.2559
  408MOL0     C56180   7.356   6.865   3.363  0.7868  0.7862  0.0883
  408MOL0     C56181   7.338   6.995   3.441  0.5855 -0.3948 -0.3553
  408MOL0     C56182   7.236   7.081   3.383  0.4322  0.2081 -0.3860
  408MOL0     N56183   7.230   7.221   3.426  0.4827 -0.4168 -0.0680
  408MOL0     C56184   7.232   7.336   3.349 -0.2081 -0.1103 -0.3852
  408MOL0     C56185   7.237   7.438   3.443  0.6879 -0.6310 -0.2409
  408MOL0     C56186   7.272   7.582   3.398 -0.2882 -0.8097  0.4260
  408MOL0     C56187   7.423   7.619   3.432  0.6591 -1.5086  0.2157
  408MOL0     C56188   7.446   7.773   3.419  0.1037 -0.0597  0.0762
  408MOL0     C56189   7.596   7.788   3.401 -0.2063  0.1403  0.3567
  408MOL0     O56190   7.658   7.766   3.523 -0.0460  0.1481 -0.0823
  408MOL0     C56191   7.799   7.770   3.530  0.0214 -0.2679 -0.1933
  408MOL0     C56192   7.862   7.732   3.653  0.8130  0.6313  0.3034
  408MOL0     C56193   8.005   7.735   3.667  0.4326  0.8749  0.6521
  408MOL0     C56194   8.061   7.701   3.805  0.3285 -0.7376 -0.0951
  408MOL0     C56195   8.086   7.770   3.554 -0.3734  0.6223 -0.5301
  408MOL0     C56196   8.232   7.790   3.563  0.3769  0.3357  0.1450
  408MOL0     O56197   8.303   7.707   3.641  0.3399  0.2329 -0.2655
  408MOL0     C56198   8.436   7.735   3.676  0.5289 -0.3675 -0.1636
  408MOL0     C56199   8.523   7.628   3.665 -1.0885 -0.3206  0.5241
  408MOL0     C56200   8.652   7.645   3.710 -0.0797  0.3953  0.5159
  408MOL0     C56201   8.696   7.769   3.768  1.2504  0.3792 -0.3139
  408MOL0     O56202   8.827   7.777   3.802 -0.2219  0.0440 -0.0584
  408MOL0     C56203   8.845   7.838   3.932 -0.0190  0.3510  0.1462
  408MOL0     C56204   8.990   7.811   3.987  0.1159 -0.3139 -0.2295
  408MOL0     C56205   9.046   7.946   4.044 -0.4799 -0.6983 -0.3964
  408MOL0     C56206   9.061   8.037   3.921  0.2989 -0.7668  0.6603
  408MOL0     C56207   9.104   8.177   3.960 -0.1111 -0.2921 -0.2567
  408MOL0     C56208   9.103   8.273   3.836 -0.2695 -0.0839  0.8252
  408MOL0     C56209   9.195   8.234   3.718 -0.4083  0.7178 -0.7544
  408MOL0     C56210   9.341   8.264   3.749  0.5336  0.1064  0.4418
  408MOL0    Cl56211   9.428   8.221   3.598  0.3952 -0.2327  0.3223
  408MOL0     C56212   8.603   7.874   3.782 -0.0308  0.0276  0.1396
  408MOL0     C56213   8.481   7.863   3.727  0.6813  0.2084 -0.4382
  408MOL0     O56214   8.282   7.886   3.499  0.1422  0.0973  0.4625
  408MOL0     C56215   8.018   7.807   3.436  1.1016  0.1824 -0.1181
  408MOL0     C56216   7.874   7.804   3.425 -0.2064  0.0378  0.0424
  408MOL0     N56217   7.234   7.384   3.574  0.3752 -0.5387  0.1277
  408MOL0     N56218   7.227   7.254   3.553 -0.3135  0.2545 -0.4053
  408MOL0     C56219   6.538   6.600   3.362 -0.2837  0.2238  0.5318
  408MOL0     C56220   6.411   6.591   3.300 -0.3028 -0.7108  0.5601
  408MOL0     C56221   6.021   6.681   3.061 -0.7077  0.2412  0.1604
  408MOL0     C56222   5.928   6.658   3.166 -0.3825  0.2746 -0.0407
  408MOL0     C56223   5.803   6.606   3.139 -0.0639  0.0049 -0.2461
  408MOL0     C56224   5.762   6.586   3.007 -0.0035 -0.0020 -0.1633
  408MOL0     O56225   5.628   6.534   2.973 -0.1435  0.2559  0.8420
  408MOL0     C56226   5.532   6.508   3.073  0.1589 -0.2366 -0.2199
  408MOL0     C56227   5.428   6.437   2.989 -0.7462 -0.0275  0.8451
  408MOL0     C56228   5.473   6.303   2.927  0.1042 -0.4239  0.4029
  408MOL0     C56229   5.358   6.217   2.883 -0.3665  0.2944  1.2403
  408MOL0     C56230   5.274   6.168   2.985  0.3148  0.4065 -0.3949
  408MOL0     C56231   5.201   6.117   3.071 -0.1400  0.6919 -0.0995
  408MOL0     C56232   5.848   6.618   2.907  0.1574  0.2709  0.8874
  408MOL0     C56233   5.976   6.656   2.931  0.1083  0.2582 -0.4946
  408MOL0     C56234   6.063   6.663   2.806  0.3005  0.0133 -0.0641
  408MOL0     H56235   6.364   6.902   3.189  0.9909 -0.9995 -1.8461
  408MOL0     H56236   6.586   6.925   3.289 -1.5536  0.6016 -0.5758
  408MOL0     H56237   6.777   6.568   3.464  0.8826  0.8454 -1.1674
  408MOL0     H56238   6.718   6.687   3.587  2.4446 -0.1346  2.0072
  408MOL0     H56239   6.924   6.825   3.556 -2.7903 -0.5663  0.0083
  408MOL0     H56240   6.966   6.679   3.641  1.8098  0.9177 -0.1615
  408MOL0     H56241   7.026   6.552   3.450 -0.0550  1.0172  2.4570
  408MOL0     H56242   6.973   6.680   3.335 -3.5058  0.3869  1.6500
  408MOL0     H56243   7.127   6.833   3.497  0.8250 -0.1331  0.3054
  408MOL0     H56244   7.200   6.672   3.534 -1.1924  0.0030  1.8011
  408MOL0     H56245   7.164   6.825   3.263  0.5108 -0.7145 -1.2447
  408MOL0     H56246   7.267   6.688   3.266 -1.2156 -0.7202  0.2004
  408MOL0     H56247   7.430   6.803   3.415  2.0408  2.4288  0.3409
  408MOL0     H56248   7.412   6.887   3.271  2.2919 -3.9027 -0.4129
  408MOL0     H56249   7.435   7.045   3.444 -0.3869  1.5635  0.8350
  408MOL0     H56250   7.303   6.960   3.539 -0.4940 -0.0923 -0.6120
  408MOL0     H56251   7.239   7.079   3.273 -3.8156 -1.9592 -0.6574
  408MOL0     H56252   7.134   7.043   3.392 -0.6162  3.1583  1.3504
  408MOL0     H56253   7.232   7.351   3.241  1.3507  1.6641 -0.1967
  408MOL0     H56254   7.207   7.652   3.452 -1.4621 -1.0369 -0.6511
  408MOL0     H56255   7.259   7.599   3.291  2.1881  0.2775  0.2238
  408MOL0     H56256   7.447   7.589   3.534  0.2687  0.4449  0.9262
  408MOL0     H56257   7.495   7.572   3.364  0.8672 -2.2146  0.9162
  408MOL0     H56258   7.383   7.811   3.338  0.0239 -1.0692 -0.3441
  408MOL0     H56259   7.415   7.827   3.509  0.4561 -1.4192  1.0549
  408MOL0     H56260   7.635   7.719   3.326 -0.7256 -0.1379  0.3344
  408MOL0     H56261   7.622   7.888   3.366 -0.5480  0.1439  0.1060
  408MOL0     H56262   7.795   7.699   3.731 -0.3699 -2.0272 -1.6743
  408MOL0     H56263   7.979   7.679   3.875 -0.2392 -2.4725 -1.2324
  408MOL0     H56264   8.114   7.791   3.839 -0.9231 -0.3161  0.8476
  408MOL0     H56265   8.132   7.618   3.810  1.5214  0.2504 -0.3361
  408MOL0     H56266   8.490   7.528   3.640 -2.3053 -0.0340  0.9040
  408MOL0     H56267   8.718   7.562   3.685  0.1857  0.4358  1.0704
  408MOL0     H56268   8.808   7.940   3.920 -0.3001  0.2339  0.0054
  408MOL0     H56269   8.778   7.790   4.004  0.4855  0.4266  0.6684
  408MOL0     H56270   8.977   7.733   4.062 -0.7053  1.5985  1.7198
  408MOL0     H56271   9.060   7.766   3.916  0.7723 -1.2736  0.9808
  408MOL0     H56272   9.143   7.920   4.086 -1.1554  1.3372  2.7135
  408MOL0     H56273   8.983   7.979   4.127  0.5790 -3.4346  1.6347
  408MOL0     H56274   8.968   8.033   3.864  0.5072 -0.9768  0.3356
  408MOL0     H56275   9.147   7.993   3.871 -2.3161 -2.2939 -2.8849
  408MOL0     H56276   9.021   8.217   4.020 -1.5865 -1.0489 -1.6966
  408MOL0     H56277   9.199   8.184   4.013  0.3227  1.0039 -1.1507
  408MOL0     H56278   9.118   8.373   3.878 -0.1805  0.3787 -0.2963
  408MOL0     H56279   9.000   8.273   3.801  0.5954  1.5380 -1.9731
  408MOL0     H56280   9.162   8.288   3.628  1.4151  2.1749 -0.6234
  408MOL0     H56281   9.192   8.127   3.698  1.3125  0.0526  1.9658
  408MOL0     H56282   9.380   8.205   3.833  0.5919  2.8057  2.4800
  408MOL0     H56283   9.359   8.371   3.766  2.3092  0.1397 -1.3072
  408MOL0     H56284   8.633   7.970   3.821  0.6596  0.2598 -0.9492
  408MOL0     H56285   8.428   7.958   3.726  1.5515  0.7183  0.2991
  408MOL0     H56286   8.075   7.848   3.354  2.4711  1.8814  1.5888
  408MOL0     H56287   7.832   7.829   3.328 -2.5327  4.9588  1.9649
  408MOL0     H56288   6.592   6.518   3.409 -0.1571  1.0259  1.8542
  408MOL0     H56289   6.349   6.502   3.296  0.4311 -1.1886 -3.0250
  408MOL0     H56290   5.944   6.688   3.269 -1.8918  0.6451  0.1117
  408MOL0     H56291   5.728   6.590   3.216 -4.5100  1.9442 -3.7496
  408MOL0     H56292   5.566   6.447   3.156 -2.6425 -0.1796  1.0851
  408MOL0     H56293   5.497   6.601   3.119  0.7654 -0.3583  0.5048
  408MOL0     H56294   5.395   6.499   2.905 -0.8115 -1.2127 -0.0242
  408MOL0     H56295   5.350   6.420   3.064 -0.6172  0.0523  0.9985
  408MOL0     H56296   5.536   6.316   2.838 -0.5362 -0.2204 -0.0250
  408MOL0     H56297   5.535   6.246   2.997  2.5470  0.2007 -1.1008
  408MOL0     H56298   5.401   6.135   2.825  1.3548  1.9827  0.0011
  408MOL0     H56299   5.296   6.271   2.810 -0.7033 -0.9033  0.6286
  408MOL0     H56300   5.147   6.066   3.148  0.7655  2.1434  1.5856
  408MOL0     H56301   5.814   6.601   2.805  0.3388  2.4107  0.4184
  408MOL0     H56302   6.101   6.762   2.778 -1.1881  1.0913  1.5625
  408MOL0     H56303   6.148   6.597   2.826  0.0002 -0.5010 -0.4562
  408MOL0     H56304   6.010   6.624   2.718 -1.8209  0.0668  1.1351
  409MOL0     O56305   6.205   0.951   7.977 -0.4419 -0.0513 -0.6787
  409MOL0     C56306   6.193   0.892   8.087  0.5674  0.1444 -0.0282
  409MOL0     O56307   6.280   0.792   8.134 -0.5428 -0.2197  0.5122
  409MOL0     C56308   6.384   0.743   8.051  0.2150  0.3952  0.7824
  409MOL0     C56309   6.384   0.729   7.912 -0.3685 -0.2711  0.1250
  409MOL0     C56310   6.488   0.662   7.844 -0.8597 -0.5374  0.9159
  409MOL0     C56311   6.585   0.602   7.924  0.4986 -0.1214  0.2713
  409MOL0     O56312   6.688   0.529   7.873 -0.1110  0.1329  0.3472
  409MOL0     C56313   6.700   0.508   7.732  0.2888 -0.4177  0.2323
  409MOL0     C56314   6.847   0.509   7.692  0.2358  0.1163  0.3203
  409MOL0     C56315   6.902   0.646   7.656  0.0218 -0.5711 -0.2683
  409MOL0     C56316   6.892   0.753   7.765  0.7841  0.0574  0.4181
  409MOL0     C56317   6.976   0.723   7.890  0.1871 -0.0667 -0.5161
  409MOL0     C56318   7.132   0.742   7.857 -0.0090  0.9466 -0.1926
  409MOL0     C56319   7.224   0.754   7.982 -0.2355 -0.0468  0.5428
  409MOL0     C56320   7.366   0.800   7.947 -0.6712  0.0635 -0.1025
  409MOL0     N56321   7.432   0.718   7.844  0.5799 -0.8462 -1.4574
  409MOL0     C56322   7.525   0.608   7.868  0.1007 -0.6462 -1.4678
  409MOL0     C56323   7.574   0.566   7.751 -0.1228 -0.2980  0.2953
  409MOL0     C56324   7.656   0.447   7.707  0.7740 -1.1809  0.1251
  409MOL0     C56325   7.800   0.461   7.725  0.3026 -0.1888  0.2508
  409MOL0     C56326   7.866   0.329   7.677 -0.3220  0.6212 -0.4064
  409MOL0     C56327   8.017   0.319   7.695  0.0702 -0.1228 -0.8699
  409MOL0     O56328   8.058   0.330   7.828  0.7383  0.8688  0.7310
  409MOL0     C56329   8.174   0.371   7.861 -1.0144  0.1204  0.8107
  409MOL0     C56330   8.200   0.354   7.997 -0.1414 -0.2674 -0.4570
  409MOL0     C56331   8.322   0.388   8.060  0.0870 -0.3523 -0.3469
  409MOL0     C56332   8.325   0.364   8.205 -0.1806 -0.0926  0.2128
  409MOL0     C56333   8.430   0.429   7.980 -1.5913 -0.0494 -0.0732
  409MOL0     C56334   8.561   0.490   8.023  0.4490 -0.4891 -0.1811
  409MOL0     O56335   8.649   0.508   7.917 -0.3926  0.0994  0.0452
  409MOL0     C56336   8.776   0.550   7.951 -1.1105  0.2309  0.2639
  409MOL0     C56337   8.836   0.635   7.861  0.7065 -0.2583 -0.1160
  409MOL0     C56338   8.969   0.675   7.884 -0.7620 -0.2181 -0.8670
  409MOL0     C56339   9.045   0.629   7.990  0.0083  0.3341 -0.6653
  409MOL0     O56340   9.172   0.676   7.986  0.0793  0.1175  0.0978
  409MOL0     C56341   9.261   0.610   8.080  0.4937  0.3872 -0.3968
  409MOL0     C56342   9.383   0.690   8.100 -0.1861  0.1618 -0.0078
  409MOL0     C56343   9.484   0.668   7.981  0.7254  0.2259  1.2603
  409MOL0     C56344   9.616   0.736   8.011 -0.5237 -0.4140 -0.6087
  409MOL0     C56345   9.729   0.701   7.914 -0.0004  0.0615 -0.2330
  409MOL0     C56346   9.790   0.562   7.934 -1.2482 -0.8041  0.0761
  409MOL0     C56347   9.835   0.529   8.086  0.2389 -0.0728  0.4390
  409MOL0     C56348   9.925   0.637   8.144 -0.4662 -0.3921 -0.4575
  409MOL0    Cl56349  10.063   0.658   8.042 -0.0841  0.2073 -0.5090
  409MOL0     C56350   8.991   0.536   8.076  0.8244  0.4730  0.4112
  409MOL0     C56351   8.859   0.496   8.059 -0.1070  0.0838 -0.7622
  409MOL0     O56352   8.587   0.523   8.138 -0.6578  0.3343 -0.0140
  409MOL0     C56353   8.408   0.441   7.844 -1.4136 -0.1387  0.1983
  409MOL0     C56354   8.284   0.412   7.781 -0.2776 -0.0150  0.2488
  409MOL0     N56355   7.525   0.649   7.654 -1.1775 -0.3323  0.4323
  409MOL0     N56356   7.440   0.737   7.711  0.5439 -0.2874  0.3619
  409MOL0     C56357   6.589   0.620   8.054 -0.3000  0.1200  0.1341
  409MOL0     C56358   6.488   0.691   8.117  0.4345 -1.0028 -0.0403
  409MOL0     C56359   6.075   0.937   8.168  0.0206  0.0790 -0.2828
  409MOL0     C56360   5.986   1.043   8.113 -0.3047  0.4606 -0.2145
  409MOL0     C56361   5.872   1.085   8.176  0.8354  1.2785  0.1346
  409MOL0     C56362   5.828   1.017   8.288  0.3774  0.3255 -0.4253
  409MOL0     O56363   5.715   1.066   8.337  0.6607  0.0891 -0.1616
  409MOL0     C56364   5.643   0.971   8.419  0.4065 -0.6294 -0.8125
  409MOL0     C56365   5.500   1.027   8.440 -0.7579  0.3629 -0.5766
  409MOL0     C56366   5.426   0.921   8.512 -0.3101  0.5673  0.4833
  409MOL0     C56367   5.336   0.816   8.438  0.9748 -0.2230 -0.5170
  409MOL0     C56368   5.415   0.708   8.375 -0.6261 -0.3112  0.2289
  409MOL0     C56369   5.477   0.614   8.340 -0.3941 -0.5102  0.4155
  409MOL0     C56370   5.906   0.909   8.346 -1.1131 -0.3277  0.1369
  409MOL0     C56371   6.027   0.875   8.292  0.2725  0.7135 -0.0515
  409MOL0     C56372   6.097   0.761   8.364 -0.7168 -0.8883  0.0998
  409MOL0     H56373   6.312   0.768   7.841  0.1882  0.6748  0.0604
  409MOL0     H56374   6.477   0.659   7.737  0.0976 -3.5355  0.8166
  409MOL0     H56375   6.654   0.581   7.664 -0.5578 -1.2679 -0.1381
  409MOL0     H56376   6.657   0.407   7.723  0.8345 -0.4936 -2.6871
  409MOL0     H56377   6.907   0.473   7.776  0.0773  1.3854  1.0184
  409MOL0     H56378   6.857   0.445   7.604 -1.0390  0.8409 -0.3783
  409MOL0     H56379   7.007   0.646   7.625 -0.6840 -3.6362 -3.3044
  409MOL0     H56380   6.844   0.685   7.572  2.0442  1.7730 -0.6916
  409MOL0     H56381   6.915   0.852   7.724 -0.0315 -0.0509 -0.3365
  409MOL0     H56382   6.789   0.773   7.795  0.9603  2.0492 -0.1930
  409MOL0     H56383   6.957   0.624   7.934  2.2407  0.9724  3.1399
  409MOL0     H56384   6.950   0.796   7.966  0.0283  0.4395 -1.0511
  409MOL0     H56385   7.160   0.647   7.811  0.5781  1.9022 -1.8949
  409MOL0     H56386   7.139   0.828   7.790  0.5208 -0.1848 -1.6556
  409MOL0     H56387   7.231   0.654   8.025 -0.1339  0.5347  1.9090
  409MOL0     H56388   7.176   0.825   8.051  0.7040  0.8126  0.3351
  409MOL0     H56389   7.362   0.904   7.914  1.4147  0.4442  0.6980
  409MOL0     H56390   7.422   0.809   8.041  0.6782 -0.0680 -0.8655
  409MOL0     H56391   7.553   0.570   7.965  2.4579 -0.5724 -2.0689
  409MOL0     H56392   7.619   0.411   7.611 -0.8411  1.0506 -0.1854
  409MOL0     H56393   7.629   0.378   7.788 -1.6847  1.9862  2.2785
  409MOL0     H56394   7.844   0.541   7.664  0.6749 -1.1563 -0.7760
  409MOL0     H56395   7.812   0.477   7.833 -1.6794  0.1843  0.4553
  409MOL0     H56396   7.830   0.255   7.750 -2.7645  3.6918  1.7899
  409MOL0     H56397   7.841   0.315   7.572  0.2683  1.5295 -0.6789
  409MOL0     H56398   8.053   0.225   7.655  3.8994  0.6263  0.4592
  409MOL0     H56399   8.057   0.398   7.630  3.0206  0.7968  1.8213
  409MOL0     H56400   8.115   0.331   8.060 -1.2545 -0.6566 -2.0407
  409MOL0     H56401   8.272   0.443   8.258  1.4036  0.4014  1.1330
  409MOL0     H56402   8.428   0.370   8.241  1.2213 -0.3312 -3.3482
  409MOL0     H56403   8.277   0.269   8.232 -3.6952  0.3425 -3.5577
  409MOL0     H56404   8.792   0.669   7.768 -0.1469  0.8802  0.6822
  409MOL0     H56405   9.028   0.738   7.818 -0.7568 -0.2247 -0.8690
  409MOL0     H56406   9.213   0.615   8.179  0.7049 -2.7007 -0.0389
  409MOL0     H56407   9.288   0.507   8.058 -0.0369  0.5516 -1.8810
  409MOL0     H56408   9.352   0.794   8.108 -1.9332 -0.3210 -0.0780
  409MOL0     H56409   9.429   0.667   8.197 -3.1360  2.9668  2.2548
  409MOL0     H56410   9.429   0.703   7.893  0.1336 -1.8300  0.7609
  409MOL0     H56411   9.509   0.567   7.949 -0.7064  0.0851  0.4987
  409MOL0     H56412   9.651   0.718   8.113  0.3293 -1.1823 -1.0279
  409MOL0     H56413   9.604   0.845   8.006  0.6881 -0.0288  2.6754
  409MOL0     H56414   9.700   0.714   7.809  2.0765  1.7730 -0.6729
  409MOL0     H56415   9.801   0.776   7.946 -0.3993 -0.0728  1.0395
  409MOL0     H56416   9.881   0.553   7.873  0.2859  2.1237  1.7444
  409MOL0     H56417   9.724   0.476   7.918 -1.4351 -0.4312 -1.3350
  409MOL0     H56418   9.894   0.437   8.076  0.6964  0.2970 -0.2755
  409MOL0     H56419   9.746   0.516   8.149 -0.5947  1.8624 -0.2798
  409MOL0     H56420   9.954   0.606   8.245 -2.5225  1.1525  0.6695
  409MOL0     H56421   9.874   0.733   8.143  0.6756  0.3488 -4.1336
  409MOL0     H56422   9.042   0.489   8.160 -2.5413 -2.7873  0.8794
  409MOL0     H56423   8.815   0.425   8.128 -1.4194  0.5985 -1.0354
  409MOL0     H56424   8.486   0.468   7.775  1.0443 -0.3063  2.7230
  409MOL0     H56425   8.273   0.423   7.673  3.5119  2.8768 -0.0896
  409MOL0     H56426   6.667   0.566   8.107  1.3731 -0.5181 -2.7817
  409MOL0     H56427   6.493   0.695   8.225  0.6669  0.1570 -0.0837
  409MOL0     H56428   6.018   1.089   8.020  3.9489  0.4274  1.0116
  409MOL0     H56429   5.815   1.171   8.142 -1.2257  0.4048  1.2379
  409MOL0     H56430   5.628   0.877   8.365  0.9599 -1.6056  0.6726
  409MOL0     H56431   5.697   0.941   8.509 -1.2241 -0.4848  0.2683
  409MOL0     H56432   5.457   1.056   8.344  1.0107  2.7033 -0.7764
  409MOL0     H56433   5.510   1.120   8.497 -4.0913  1.3340 -1.3859
  409MOL0     H56434   5.483   0.853   8.576 -1.3631 -1.0599 -0.2346
  409MOL0     H56435   5.355   0.971   8.578 -0.2039 -0.7387  1.6273
  409MOL0     H56436   5.282   0.867   8.358 -3.1870 -0.5222  1.8631
  409MOL0     H56437   5.259   0.784   8.509  0.9849  0.5480 -0.1461
  409MOL0     H56438   5.539   0.530   8.315  1.1728  0.8414 -0.4208
  409MOL0     H56439   5.877   0.861   8.439  0.4609 -2.2529 -0.2863
  409MOL0     H56440   6.059   0.737   8.464  0.3184  1.2088  1.0606
  409MOL0     H56441   6.071   0.675   8.302 -4.3041 -0.5723  0.9145
  409MOL0     H56442   6.202   0.790   8.373 -0.3750 -0.5659 -3.4608
  410MOL0     O56443   1.669   2.033   5.579 -0.2373  0.0885  0.2107
  410MOL0     C56444   1.766   2.107   5.585  0.5587  0.2805  0.0509
  410MOL0     O56445   1.901   2.062   5.606 -0.0496 -0.3070 -0.9558
  410MOL0     C56446   1.914   1.928   5.622 -0.3683  0.1314 -0.7044
  410MOL0     C56447   1.994   1.876   5.727  0.4361 -0.3780  0.1372
  410MOL0     C56448   2.021   1.739   5.736 -0.4841  0.2147  0.2650
  410MOL0     C56449   1.983   1.651   5.639  0.2517 -0.1750 -0.0762
  410MOL0     O56450   2.004   1.517   5.663  0.3436  0.6282 -0.4103
  410MOL0     C56451   1.954   1.426   5.563  0.2152  0.1509  0.2985
  410MOL0     C56452   1.969   1.281   5.601  0.3361  0.1517 -0.0293
  410MOL0     C56453   1.886   1.202   5.499  0.7560 -0.4116  0.3017
  410MOL0     C56454   1.919   1.051   5.495  0.9249  0.2860  0.1368
  410MOL0     C56455   2.052   1.004   5.454 -0.6207 -0.0349  0.9249
  410MOL0     C56456   2.063   0.997   5.299 -0.4423  0.7434  0.3392
  410MOL0     C56457   2.207   0.992   5.255 -0.3278  0.2810 -0.4050
  410MOL0     C56458   2.210   0.995   5.100  0.2048  0.2784 -1.3281
  410MOL0     N56459   2.253   1.127   5.059 -0.0120  0.3111 -0.7787
  410MOL0     C56460   2.383   1.169   5.030  0.6473 -0.0250 -0.7976
  410MOL0     C56461   2.369   1.289   4.964  0.1508 -0.3145 -0.0564
  410MOL0     C56462   2.486   1.371   4.910 -0.2917 -0.0850 -0.0091
  410MOL0     C56463   2.530   1.490   4.997  0.8284 -0.5843  0.4721
  410MOL0     C56464   2.581   1.440   5.126 -0.0063 -0.0976 -0.6460
  410MOL0     C56465   2.628   1.555   5.226  0.1118 -1.3009 -0.4945
  410MOL0     O56466   2.685   1.674   5.160  0.1654  0.3490 -0.1068
  410MOL0     C56467   2.797   1.677   5.075  0.8382 -0.4682 -0.8033
  410MOL0     C56468   2.840   1.801   5.038  0.0446  0.5330 -0.4088
  410MOL0     C56469   2.942   1.819   4.945  0.3003 -0.8261  0.0285
  410MOL0     C56470   2.977   1.962   4.911 -0.4003 -0.3226 -0.6313
  410MOL0     C56471   3.010   1.702   4.908 -0.4969  0.2217  0.0273
  410MOL0     C56472   3.132   1.703   4.821 -0.4671 -0.7353  0.1423
  410MOL0     O56473   3.199   1.580   4.815 -0.1215 -0.3228 -0.0370
  410MOL0     C56474   3.301   1.577   4.729 -0.2514 -0.5791 -0.1045
  410MOL0     C56475   3.292   1.504   4.614  0.9379 -0.3543 -0.5198
  410MOL0     C56476   3.403   1.490   4.532  0.4438 -0.4983 -0.6771
  410MOL0     C56477   3.525   1.546   4.562  0.6204  0.5523 -0.2124
  410MOL0     O56478   3.624   1.519   4.478 -0.2747 -0.0983 -0.0578
  410MOL0     C56479   3.755   1.561   4.519 -1.2977 -0.4402 -0.2766
  410MOL0     C56480   3.861   1.484   4.433  0.3450 -0.1150  0.0378
  410MOL0     C56481   3.994   1.476   4.500 -0.1530 -0.9046 -0.1181
  410MOL0     C56482   4.104   1.417   4.406  0.3084 -0.0240  0.2439
  410MOL0     C56483   4.245   1.422   4.480  0.5552 -0.1811  0.8331
  410MOL0     C56484   4.351   1.353   4.390  0.5172 -0.6401 -0.6156
  410MOL0     C56485   4.491   1.372   4.458 -0.6632 -0.7008  0.3984
  410MOL0     C56486   4.594   1.306   4.380  0.2462  0.5516  0.4540
  410MOL0    Cl56487   4.573   1.353   4.203 -0.1372 -0.1849  0.2853
  410MOL0     C56488   3.535   1.609   4.685  0.1461 -0.0408  0.1100
  410MOL0     C56489   3.426   1.629   4.768 -0.2852  0.9335  0.3540
  410MOL0     O56490   3.162   1.808   4.771  1.2100  0.2721  0.9430
  410MOL0     C56491   2.970   1.576   4.960  0.3073 -0.3721  0.6061
  410MOL0     C56492   2.867   1.566   5.041  0.9205 -0.8798 -0.7472
  410MOL0     N56493   2.231   1.319   4.964 -0.1749 -0.0424 -0.1468
  410MOL0     N56494   2.172   1.233   5.041 -0.7309  0.7803  0.6102
  410MOL0     C56495   1.919   1.699   5.522 -0.5445  0.4679 -0.1040
  410MOL0     C56496   1.890   1.835   5.519  1.0343 -0.2182 -0.4332
  410MOL0     C56497   1.750   2.256   5.586  0.2089 -0.1968 -0.1356
  410MOL0     C56498   1.865   2.338   5.588  0.4830 -0.2843 -0.1173
  410MOL0     C56499   1.848   2.474   5.579  0.0414 -0.0169  0.2878
  410MOL0     C56500   1.727   2.540   5.572  0.2538  0.6362  0.6777
  410MOL0     O56501   1.697   2.670   5.550  0.0275  0.0682 -0.3125
  410MOL0     C56502   1.787   2.756   5.479 -0.2996 -0.1990 -0.1930
  410MOL0     C56503   1.702   2.849   5.382 -0.2449  0.0479  0.5058
  410MOL0     C56504   1.778   2.973   5.335 -0.3352  0.2323  0.4133
  410MOL0     C56505   1.902   2.944   5.249 -0.2214 -0.5612  0.6234
  410MOL0     C56506   1.996   3.054   5.231 -0.2000 -0.8094 -0.2915
  410MOL0     C56507   2.084   3.145   5.228  0.4318  0.5891 -0.4680
  410MOL0     C56508   1.607   2.457   5.587 -0.2529  0.1870 -0.1752
  410MOL0     C56509   1.618   2.322   5.597  0.7698 -0.6707 -0.5556
  410MOL0     C56510   1.497   2.252   5.643 -0.5292  0.2801 -1.0181
  410MOL0     H56511   2.025   1.953   5.798  2.3038 -1.7025  0.8422
  410MOL0     H56512   2.074   1.709   5.827 -1.8669 -1.2427  0.6452
  410MOL0     H56513   2.012   1.438   5.471  2.2838  3.0414  1.8414
  410MOL0     H56514   1.847   1.441   5.544  0.2384 -1.8395 -1.8847
  410MOL0     H56515   2.078   1.271   5.591  0.2888  1.2703 -2.5394
  410MOL0     H56516   1.928   1.266   5.701 -1.7487  0.3829 -0.7913
  410MOL0     H56517   1.786   1.214   5.544  1.2804  1.9226  1.0058
  410MOL0     H56518   1.888   1.244   5.398  0.8014  1.6590  1.0978
  410MOL0     H56519   1.904   1.006   5.594 -1.0048 -0.8106 -0.6042
  410MOL0     H56520   1.842   1.007   5.430 -0.3257  0.7230  1.2555
  410MOL0     H56521   2.074   0.910   5.507  0.4337 -0.8295 -0.8259
  410MOL0     H56522   2.135   1.067   5.487  0.4310  1.1119 -3.3097
  410MOL0     H56523   2.005   0.912   5.262 -0.2545  0.7614 -0.0028
  410MOL0     H56524   2.021   1.087   5.253  2.8273  0.7703 -3.0910
  410MOL0     H56525   2.246   0.896   5.287 -2.2015  0.1255  1.5920
  410MOL0     H56526   2.266   1.071   5.303 -0.4255  1.3211 -1.9075
  410MOL0     H56527   2.285   0.926   5.060  0.4925  0.2570 -0.7585
  410MOL0     H56528   2.110   0.964   5.069 -0.4345  0.4913  0.4210
  410MOL0     H56529   2.470   1.114   5.064 -0.3422  0.2187  2.4799
  410MOL0     H56530   2.456   1.402   4.809 -1.1898 -0.6053  0.0912
  410MOL0     H56531   2.568   1.300   4.897  2.5722  2.5652  2.0645
  410MOL0     H56532   2.604   1.546   4.940  1.0601 -2.8613 -1.6680
  410MOL0     H56533   2.441   1.552   5.010  0.8878 -0.0456 -1.3232
  410MOL0     H56534   2.498   1.390   5.179  0.9866  0.2423  1.3265
  410MOL0     H56535   2.664   1.371   5.110 -0.4087 -0.8552  0.3628
  410MOL0     H56536   2.537   1.577   5.282 -0.3175 -2.3614 -0.7373
  410MOL0     H56537   2.708   1.526   5.295 -1.3382  0.1963  1.9087
  410MOL0     H56538   2.776   1.885   5.065  1.7810  2.1340 -1.0448
  410MOL0     H56539   2.992   1.977   4.804  1.1002 -0.8394 -0.5197
  410MOL0     H56540   3.078   1.981   4.947 -0.5383 -1.0244  0.1650
  410MOL0     H56541   2.904   2.032   4.954 -1.1203 -0.1685 -2.0598
  410MOL0     H56542   3.203   1.451   4.581  1.1321 -1.3845  0.5596
  410MOL0     H56543   3.403   1.439   4.437  3.8278 -1.5533 -0.2627
  410MOL0     H56544   3.768   1.669   4.508  0.8517 -0.5527  0.5156
  410MOL0     H56545   3.768   1.545   4.627 -1.4881  1.8021  0.1218
  410MOL0     H56546   3.823   1.383   4.421  0.3037 -0.0202 -0.7099
  410MOL0     H56547   3.881   1.525   4.333 -0.9387  0.9853  0.2143
  410MOL0     H56548   3.987   1.415   4.590  0.7161  0.8315  1.1750
  410MOL0     H56549   4.027   1.574   4.534  1.0053 -1.5408  0.6502
  410MOL0     H56550   4.111   1.475   4.314  1.6594  0.0851  0.3937
  410MOL0     H56551   4.083   1.316   4.370 -1.3359  1.4192 -3.3604
  410MOL0     H56552   4.283   1.525   4.483 -1.0808  0.5192 -0.7341
  410MOL0     H56553   4.237   1.377   4.579  1.0673 -4.0560 -0.7221
  410MOL0     H56554   4.345   1.403   4.293  3.5936  0.1430 -0.5263
  410MOL0     H56555   4.325   1.247   4.381  4.2636 -1.5402 -2.9459
  410MOL0     H56556   4.490   1.322   4.555 -3.4761 -1.8980 -0.1628
  410MOL0     H56557   4.506   1.479   4.474 -2.2121 -0.6104  1.4400
  410MOL0     H56558   4.584   1.197   4.385 -4.1237  0.8437  2.6481
  410MOL0     H56559   4.693   1.340   4.411  1.9059 -3.0756 -0.3371
  410MOL0     H56560   3.632   1.643   4.722  1.4736 -0.7572 -2.4291
  410MOL0     H56561   3.428   1.686   4.860 -0.8387  1.4618  0.0527
  410MOL0     H56562   3.026   1.492   4.923  0.3403  0.9953 -2.7719
  410MOL0     H56563   2.845   1.468   5.082 -1.1730  0.3293  1.1599
  410MOL0     H56564   1.900   1.637   5.435 -2.7342 -1.2075  1.4227
  410MOL0     H56565   1.853   1.877   5.426  0.3744 -0.1445 -0.1380
  410MOL0     H56566   1.965   2.295   5.587  1.1220  1.1094  0.2806
  410MOL0     H56567   1.933   2.540   5.564 -0.8173  1.2355  0.7163
  410MOL0     H56568   1.833   2.814   5.560  1.3684 -0.8910 -0.5971
  410MOL0     H56569   1.863   2.701   5.422  0.8921  2.1367 -0.9953
  410MOL0     H56570   1.618   2.875   5.446 -1.6268  0.0026 -1.2094
  410MOL0     H56571   1.657   2.794   5.299  1.4448  1.2141 -1.2593
  410MOL0     H56572   1.711   3.029   5.269  2.2281  3.4493  0.3142
  410MOL0     H56573   1.811   3.039   5.416 -0.0347  1.7097 -0.8649
  410MOL0     H56574   1.880   2.902   5.150  0.9559 -0.2338  0.2065
  410MOL0     H56575   1.960   2.861   5.290  2.7818  0.0521 -2.0179
  410MOL0     H56576   2.140   3.236   5.233 -1.0626  1.5284  0.0539
  410MOL0     H56577   1.506   2.496   5.597 -0.1286 -0.1040  3.8423
  410MOL0     H56578   1.456   2.187   5.565 -1.8308 -5.5428  3.7384
  410MOL0     H56579   1.523   2.193   5.731 -0.5565  3.0562  0.9616
  410MOL0     H56580   1.417   2.313   5.684 -2.8992 -2.1802 -1.7172
  411MOL0     O56581  10.025   9.158   2.937  0.0967 -0.2183  0.0275
  411MOL0     C56582   9.979   9.200   2.830 -0.8561  0.5878 -0.4183
  411MOL0     O56583  10.065   9.247   2.735  0.6281 -0.3971  1.2520
  411MOL0     C56584  10.186   9.206   2.713 -0.9839 -0.2133 -0.1174
  411MOL0     C56585  10.241   9.087   2.744  0.5722  0.8588 -0.3858
  411MOL0     C56586  10.370   9.044   2.706 -1.0807  0.1969  0.5817
  411MOL0     C56587  10.453   9.134   2.646  0.6797 -0.1711  0.7850
  411MOL0     O56588  10.584   9.092   2.630  0.6815  0.3351  0.6068
  411MOL0     C56589  10.676   9.180   2.567  0.2958  0.2026  0.0054
  411MOL0     C56590  10.817   9.135   2.598 -0.6268 -0.2825  0.7284
  411MOL0     C56591  10.851   9.140   2.752 -0.5314  0.5678  0.7909
  411MOL0     C56592  10.998   9.078   2.777  0.4908 -0.3087 -0.7624
  411MOL0     C56593  11.068   9.121   2.908 -0.4008  1.0403 -0.2256
  411MOL0     C56594  10.997   9.033   3.025 -0.4631 -0.0166  0.2478
  411MOL0     C56595  11.076   9.046   3.164  0.1139 -0.2139  0.5735
  411MOL0     C56596  11.039   8.935   3.257  0.8276 -0.6380 -0.0559
  411MOL0     N56597  10.903   8.946   3.317 -0.0051 -0.0368 -0.0713
  411MOL0     C56598  10.866   9.005   3.436  0.0710 -0.0894 -0.7277
  411MOL0     C56599  10.745   8.950   3.461 -0.0525 -0.3423  0.1452
  411MOL0     C56600  10.652   8.957   3.583 -0.4355 -0.2270  1.3556
  411MOL0     C56601  10.553   9.078   3.590 -0.3837  1.0136 -0.8531
  411MOL0     C56602  10.410   9.037   3.606 -0.5127  0.6965 -0.0656
  411MOL0     C56603  10.317   9.151   3.638 -0.1668  0.6908 -0.4353
  411MOL0     O56604  10.188   9.107   3.680  0.7593 -0.5323 -1.0684
  411MOL0     C56605  10.079   9.113   3.597 -0.7842 -0.2000  0.2567
  411MOL0     C56606  10.078   9.108   3.456 -0.0993 -0.0225 -0.1589
  411MOL0     C56607   9.969   9.130   3.378  0.0685 -0.5013 -0.0954
  411MOL0     C56608   9.981   9.130   3.232  0.1695 -0.5994  0.1297
  411MOL0     C56609   9.845   9.152   3.447 -0.5863  0.1565  0.5193
  411MOL0     C56610   9.718   9.176   3.374  0.1064  0.2927  0.6290
  411MOL0     O56611   9.609   9.097   3.409 -1.6066 -0.5980 -0.7183
  411MOL0     C56612   9.500   9.116   3.328  0.8120  0.4320 -0.3498
  411MOL0     C56613   9.505   9.097   3.190  0.1148 -0.5756  0.3925
  411MOL0     C56614   9.392   9.105   3.117  0.2950  0.0544  0.8812
  411MOL0     C56615   9.267   9.122   3.177  0.1227 -0.5445 -0.7419
  411MOL0     O56616   9.150   9.119   3.109  0.0292 -0.3285  0.8518
  411MOL0     C56617   9.140   9.057   2.979 -0.6609  0.4422 -0.4551
  411MOL0     C56618   9.009   9.091   2.923 -0.3153 -0.1933 -0.9135
  411MOL0     C56619   8.908   9.030   3.010 -0.1685 -0.0747  0.6724
  411MOL0     C56620   8.774   9.011   2.944  0.0606  0.6753 -0.1213
  411MOL0     C56621   8.684   8.915   3.027 -1.1036 -1.2195  0.7542
  411MOL0     C56622   8.640   8.976   3.161  0.2616 -0.3559  0.0203
  411MOL0     C56623   8.526   8.895   3.223  0.0507  0.5340 -0.4891
  411MOL0     C56624   8.504   8.939   3.371  0.3867  0.3550 -0.2619
  411MOL0    Cl56625   8.447   9.114   3.389  0.4249 -0.3649 -0.1218
  411MOL0     C56626   9.265   9.148   3.312 -0.0326 -0.8911  0.5305
  411MOL0     C56627   9.378   9.138   3.393  0.3528 -0.3678 -0.8377
  411MOL0     O56628   9.715   9.276   3.303 -0.4178  0.6120 -0.3550
  411MOL0     C56629   9.840   9.138   3.591 -0.1121  0.0176  0.8138
  411MOL0     C56630   9.962   9.130   3.665 -0.2709 -0.3607  1.1828
  411MOL0     N56631  10.711   8.875   3.349  0.7786 -0.4490 -0.5142
  411MOL0     N56632  10.813   8.863   3.269 -0.8953 -0.6195  0.3951
  411MOL0     C56633  10.407   9.266   2.629  0.6716 -0.0802 -0.7201
  411MOL0     C56634  10.275   9.304   2.660 -1.3225  1.0530 -0.1859
  411MOL0     C56635   9.841   9.244   2.822 -0.1096  0.5947  0.9351
  411MOL0     C56636   9.767   9.273   2.938  1.1669 -0.0243  0.1375
  411MOL0     C56637   9.635   9.317   2.932  0.1531 -0.0160 -0.5005
  411MOL0     C56638   9.566   9.310   2.811  0.3239 -0.0491  0.7309
  411MOL0     O56639   9.430   9.346   2.798 -0.7039 -0.6533  0.3312
  411MOL0     C56640   9.368   9.419   2.910 -0.7501 -0.4862  0.5185
  411MOL0     C56641   9.248   9.500   2.853 -0.0862 -0.3316 -0.0692
  411MOL0     C56642   9.252   9.565   2.715 -0.5983 -0.5396 -0.1798
  411MOL0     C56643   9.358   9.674   2.695 -0.2447 -0.3448 -0.3605
  411MOL0     C56644   9.395   9.686   2.559 -0.1033 -0.0517  0.5126
  411MOL0     C56645   9.425   9.689   2.444 -0.1758  0.1607  0.2667
  411MOL0     C56646   9.635   9.286   2.696 -0.8285  0.7408 -0.0799
  411MOL0     C56647   9.766   9.250   2.699 -0.0708 -0.7957 -0.7892
  411MOL0     C56648   9.837   9.233   2.565 -0.2781 -0.2409 -0.0726
  411MOL0     H56649  10.180   9.015   2.798 -1.5907  2.5763 -0.3943
  411MOL0     H56650  10.407   8.942   2.717 -1.1951 -0.1322 -1.6431
  411MOL0     H56651  10.665   9.277   2.615 -1.0281 -0.6144  1.4616
  411MOL0     H56652  10.653   9.191   2.461 -0.4791  1.2420  0.2674
  411MOL0     H56653  10.827   9.038   2.548  0.1316  0.4089 -0.5158
  411MOL0     H56654  10.885   9.205   2.547 -1.0548  0.2346  0.8581
  411MOL0     H56655  10.832   9.240   2.791 -2.0031 -0.7437  3.7358
  411MOL0     H56656  10.791   9.076   2.817 -0.3446  0.3694  0.7700
  411MOL0     H56657  10.997   8.972   2.753  0.2858 -0.2216 -1.1404
  411MOL0     H56658  11.053   9.117   2.690  0.3635  0.2834 -0.5829
  411MOL0     H56659  11.055   9.229   2.921  1.6225  1.8035 -3.3970
  411MOL0     H56660  11.176   9.108   2.898 -0.3724  0.9574  0.1610
  411MOL0     H56661  10.893   9.067   3.036 -0.7957 -0.2620 -1.7144
  411MOL0     H56662  10.994   8.933   2.981 -4.6467  1.3845 -3.4013
  411MOL0     H56663  11.043   9.141   3.207  0.0923  0.6784 -1.2758
  411MOL0     H56664  11.181   9.056   3.135 -0.1647 -2.4306 -1.5422
  411MOL0     H56665  11.062   8.838   3.213 -0.7201 -0.1049 -2.1752
  411MOL0     H56666  11.116   8.946   3.335  3.1798 -3.0243 -1.8760
  411MOL0     H56667  10.921   9.076   3.497 -0.8327  0.4444 -0.5185
  411MOL0     H56668  10.711   8.947   3.675 -0.8486 -3.0002  1.4199
  411MOL0     H56669  10.601   8.860   3.584  4.5884 -3.4730 -2.9158
  411MOL0     H56670  10.583   9.132   3.679  2.4122 -2.1643  0.3277
  411MOL0     H56671  10.558   9.128   3.492 -0.9900 -0.2888 -1.5823
  411MOL0     H56672  10.379   9.005   3.506 -1.4327 -0.1118  0.4648
  411MOL0     H56673  10.406   8.959   3.682 -3.3180  2.0210  1.2796
  411MOL0     H56674  10.356   9.221   3.713 -0.4041 -2.1114  2.5002
  411MOL0     H56675  10.312   9.213   3.548 -2.1074 -0.2998 -1.0654
  411MOL0     H56676  10.171   9.093   3.403  0.5008 -1.3417  1.1958
  411MOL0     H56677   9.992   9.236   3.206 -1.1263 -0.1787  1.1414
  411MOL0     H56678   9.889   9.101   3.181 -1.6927  2.5758  1.3682
  411MOL0     H56679  10.065   9.072   3.194  2.2253  1.5510  1.1368
  411MOL0     H56680   9.600   9.077   3.141 -0.1664 -4.9832  1.2588
  411MOL0     H56681   9.397   9.082   3.011 -2.9185 -1.2382  0.9026
  411MOL0     H56682   9.215   9.094   2.909 -0.6997  1.2959 -0.0589
  411MOL0     H56683   9.151   8.948   2.986 -0.9163  0.4244 -0.3381
  411MOL0     H56684   8.999   9.200   2.910 -3.3500 -0.3166 -0.2901
  411MOL0     H56685   8.996   9.042   2.826 -1.9381 -1.2828 -0.1819
  411MOL0     H56686   8.903   9.093   3.099  0.9774  1.6635 -0.4377
  411MOL0     H56687   8.941   8.932   3.045  1.8804  0.4939  0.4328
  411MOL0     H56688   8.788   8.967   2.845 -1.0167 -0.6610  0.2886
  411MOL0     H56689   8.724   9.105   2.920 -0.9667 -0.0519 -0.9229
  411MOL0     H56690   8.601   8.894   2.959  1.4040 -1.4347 -2.5119
  411MOL0     H56691   8.740   8.824   3.051  3.7164  1.2090  0.0188
  411MOL0     H56692   8.601   9.078   3.149  0.1641 -0.3823  0.1175
  411MOL0     H56693   8.722   8.985   3.233 -0.3234 -0.6527  0.7365
  411MOL0     H56694   8.534   8.787   3.214 -6.0761 -0.2254 -0.6672
  411MOL0     H56695   8.433   8.919   3.172 -0.8482 -1.6516  0.0165
  411MOL0     H56696   8.587   8.921   3.440  0.7742  1.3743 -0.4463
  411MOL0     H56697   8.433   8.867   3.413  1.5871 -1.4675 -1.2212
  411MOL0     H56698   9.174   9.191   3.352  1.2370  1.6379  0.9206
  411MOL0     H56699   9.377   9.156   3.501 -0.4048  1.3065 -1.0922
  411MOL0     H56700   9.742   9.163   3.631 -0.7125  0.8116 -1.0181
  411MOL0     H56701   9.960   9.143   3.773 -1.6552  1.4924  0.9681
  411MOL0     H56702  10.466   9.347   2.587  1.4487  1.4446  2.9105
  411MOL0     H56703  10.235   9.404   2.645 -1.5483  1.3933  2.2095
  411MOL0     H56704   9.806   9.267   3.039 -0.4279  2.5847  0.9947
  411MOL0     H56705   9.587   9.351   3.023 -2.1723  1.1883 -2.0618
  411MOL0     H56706   9.329   9.355   2.990 -0.4459  0.6419  1.6128
  411MOL0     H56707   9.438   9.492   2.952 -0.1573  0.0811 -1.3552
  411MOL0     H56708   9.235   9.577   2.929 -0.6871  0.3189 -0.8179
  411MOL0     H56709   9.163   9.431   2.849 -0.4622 -0.0308  1.9139
  411MOL0     H56710   9.257   9.483   2.643 -1.8127 -0.5685 -0.2527
  411MOL0     H56711   9.153   9.606   2.696  0.5392  2.8885  0.4425
  411MOL0     H56712   9.449   9.675   2.756  0.2827  3.0000 -1.0110
  411MOL0     H56713   9.301   9.762   2.726  0.2234 -0.0031 -0.4639
  411MOL0     H56714   9.465   9.686   2.344 -0.0758  0.5449  0.2926
  411MOL0     H56715   9.575   9.278   2.605 -0.9893 -2.4086  0.1758
  411MOL0     H56716   9.916   9.305   2.541 -2.5943  1.9831 -1.5954
  411MOL0     H56717   9.875   9.131   2.563  2.7008  0.7924 -1.4642
  411MOL0     H56718   9.764   9.256   2.486 -0.0298  1.0301  0.0389
  412MOL0     O56719   7.643   3.678   9.166  0.1248  0.1484 -0.2042
  412MOL0     C56720   7.719   3.684   9.266 -1.0234  0.0917 -0.0549
  412MOL0     O56721   7.681   3.643   9.392  0.0649 -0.4589 -0.2714
  412MOL0     C56722   7.559   3.608   9.423 -0.8578 -0.4816 -0.2371
  412MOL0     C56723   7.443   3.663   9.363  0.4978  0.2923 -0.0814
  412MOL0     C56724   7.311   3.613   9.396  0.0852 -0.1317  0.8072
  412MOL0     C56725   7.301   3.515   9.488 -0.1856 -0.0119  0.4312
  412MOL0     O56726   7.177   3.460   9.496 -1.0074  0.1463 -0.6415
  412MOL0     C56727   7.170   3.317   9.512 -0.0558  0.1632 -0.0065
  412MOL0     C56728   7.167   3.265   9.366  0.7325  0.3905 -0.0501
  412MOL0     C56729   7.028   3.262   9.302  0.0472 -0.6865 -0.3990
  412MOL0     C56730   7.020   3.313   9.154 -0.0926 -0.8495 -0.2906
  412MOL0     C56731   6.885   3.275   9.090 -0.1601 -0.1057 -0.4608
  412MOL0     C56732   6.883   3.326   8.941 -0.0199 -0.2027 -0.6431
  412MOL0     C56733   6.988   3.266   8.850  0.1478  1.0951 -0.0925
  412MOL0     C56734   6.947   3.300   8.707 -0.5810 -0.4657  0.0683
  412MOL0     N56735   7.047   3.242   8.607  0.0629  0.2187  0.0136
  412MOL0     C56736   7.145   3.314   8.542  1.3416  0.0603  0.0396
  412MOL0     C56737   7.222   3.225   8.476  0.3862 -0.0368 -0.2319
  412MOL0     C56738   7.349   3.261   8.405  0.4045  0.2935 -0.7240
  412MOL0     C56739   7.461   3.307   8.487  0.1279  0.0672  0.2667
  412MOL0     C56740   7.506   3.196   8.572  0.3135  0.0426 -0.4803
  412MOL0     C56741   7.630   3.246   8.650 -0.0654 -0.6957 -0.1616
  412MOL0     O56742   7.671   3.160   8.754  0.0329 -0.2565 -0.1763
  412MOL0     C56743   7.803   3.156   8.789  0.1473 -0.0993 -0.2497
  412MOL0     C56744   7.833   3.060   8.886 -0.0508  0.1424 -0.1480
  412MOL0     C56745   7.962   3.042   8.930  0.3805  0.5411  0.5579
  412MOL0     C56746   7.978   2.937   9.043 -0.3109 -0.3875  0.3140
  412MOL0     C56747   8.071   3.120   8.882 -0.0030  0.8333 -0.6103
  412MOL0     C56748   8.215   3.108   8.928 -0.6028 -0.2462  0.5862
  412MOL0     O56749   8.304   3.202   8.880 -0.2791  0.6753 -0.3736
  412MOL0     C56750   8.440   3.201   8.877  0.3229 -0.0469 -0.1938
  412MOL0     C56751   8.498   3.317   8.825 -0.1431  0.2266  0.0296
  412MOL0     C56752   8.638   3.329   8.823  1.2570  0.6099 -0.0524
  412MOL0     C56753   8.722   3.224   8.871  0.3759  0.1672 -0.3344
  412MOL0     O56754   8.860   3.246   8.864 -0.3499 -0.5236 -0.0119
  412MOL0     C56755   8.955   3.154   8.923  0.1566 -0.1244 -0.9337
  412MOL0     C56756   9.098   3.196   8.868 -0.3310  0.4024 -0.1597
  412MOL0     C56757   9.199   3.078   8.883 -0.4717  0.8840  0.9868
  412MOL0     C56758   9.343   3.130   8.872 -0.4956  0.0471 -0.0984
  412MOL0     C56759   9.423   2.994   8.876  0.4791  0.2022 -0.7032
  412MOL0     C56760   9.568   3.005   8.840  1.3179 -0.0225  0.4326
  412MOL0     C56761   9.633   2.865   8.861 -0.8643 -0.3877 -0.3483
  412MOL0     C56762   9.779   2.874   8.904  0.0707 -0.5852  0.3235
  412MOL0    Cl56763   9.868   2.933   8.754  0.0985  0.1139  0.0542
  412MOL0     C56764   8.662   3.116   8.929  0.2310  0.1584  0.4802
  412MOL0     C56765   8.521   3.104   8.935  0.3498  0.1263 -0.6514
  412MOL0     O56766   8.249   3.010   8.999  0.9596  0.0041  0.4252
  412MOL0     C56767   8.037   3.209   8.776  0.6268 -0.1712 -0.1145
  412MOL0     C56768   7.902   3.240   8.744 -0.2437  0.6979  0.1636
  412MOL0     N56769   7.184   3.100   8.520  0.3429 -0.5654 -0.4106
  412MOL0     N56770   7.080   3.103   8.600 -0.0116 -0.5883  0.3973
  412MOL0     C56771   7.418   3.470   9.558  0.3711  0.2410 -0.8542
  412MOL0     C56772   7.544   3.519   9.529 -0.0493 -0.1474  0.5144
  412MOL0     C56773   7.858   3.728   9.248 -0.2197  0.2030  0.6066
  412MOL0     C56774   7.901   3.773   9.117 -0.0644 -0.3701 -0.4758
  412MOL0     C56775   8.035   3.815   9.093  0.1066  0.2459 -0.6729
  412MOL0     C56776   8.126   3.802   9.197 -0.1958 -0.2939  0.0006
  412MOL0     O56777   8.264   3.841   9.188  0.2032 -0.0583 -0.1095
  412MOL0     C56778   8.313   3.871   9.054 -0.6037  0.1255 -0.2016
  412MOL0     C56779   8.462   3.845   9.060 -0.7845 -0.1506  1.2288
  412MOL0     C56780   8.527   3.854   8.921 -0.2983 -0.6009  0.0313
  412MOL0     C56781   8.529   3.710   8.852  0.3195 -0.2382 -0.1780
  412MOL0     C56782   8.585   3.744   8.720  0.6842  0.1108  0.5492
  412MOL0     C56783   8.646   3.776   8.626  0.3632 -0.0657  0.1019
  412MOL0     C56784   8.084   3.757   9.324 -0.2844  0.6088  0.4827
  412MOL0     C56785   7.951   3.728   9.354 -0.0744 -0.5102  0.5261
  412MOL0     C56786   7.925   3.706   9.502  0.3307  0.0802 -0.2844
  412MOL0     H56787   7.437   3.730   9.278  0.1257  2.6646  1.7231
  412MOL0     H56788   7.225   3.654   9.345  0.2128 -0.1077  0.6073
  412MOL0     H56789   7.071   3.295   9.554  0.8987  0.6838  2.7543
  412MOL0     H56790   7.235   3.270   9.587 -2.9770 -0.8220  2.1174
  412MOL0     H56791   7.227   3.323   9.296 -1.0953  1.0187 -1.1798
  412MOL0     H56792   7.193   3.159   9.363  0.7118  0.3031  1.6221
  412MOL0     H56793   7.006   3.154   9.303  1.8869 -1.1002  0.7107
  412MOL0     H56794   6.947   3.310   9.358 -1.1066 -3.2794  0.3348
  412MOL0     H56795   7.025   3.422   9.152 -0.1752 -0.8544 -0.8827
  412MOL0     H56796   7.106   3.268   9.104  1.7553  2.2082 -0.1111
  412MOL0     H56797   6.803   3.325   9.142  0.4943  0.9159 -0.3785
  412MOL0     H56798   6.865   3.168   9.098  2.0021 -0.3891  3.0659
  412MOL0     H56799   6.786   3.293   8.905 -0.5180  0.6507 -0.1102
  412MOL0     H56800   6.894   3.435   8.942 -2.5572  0.0999 -1.1395
  412MOL0     H56801   6.988   3.156   8.857 -0.5681  1.1111  0.2543
  412MOL0     H56802   7.088   3.302   8.878  0.8131  0.6967 -1.8441
  412MOL0     H56803   6.849   3.251   8.695 -0.6825 -0.2700  0.1009
  412MOL0     H56804   6.957   3.408   8.696 -0.7739 -0.4003  0.4875
  412MOL0     H56805   7.166   3.421   8.549  2.8635 -0.3166  2.7888
  412MOL0     H56806   7.324   3.335   8.329 -1.5519  0.1987 -0.2309
  412MOL0     H56807   7.387   3.170   8.357 -1.3165  0.1382 -1.8789
  412MOL0     H56808   7.547   3.313   8.419  2.0901 -0.9540  2.5353
  412MOL0     H56809   7.443   3.402   8.538  1.1962  0.1194  0.5557
  412MOL0     H56810   7.434   3.158   8.645 -0.3221  2.0216 -0.0291
  412MOL0     H56811   7.526   3.107   8.512  1.2046  1.5118 -2.4586
  412MOL0     H56812   7.714   3.263   8.581  2.5386 -1.6446  2.5456
  412MOL0     H56813   7.612   3.344   8.695  2.0269 -1.2314  2.0741
  412MOL0     H56814   7.747   2.996   8.906  1.7115 -2.1594  0.4657
  412MOL0     H56815   7.880   2.911   9.085 -1.1890 -1.2387 -2.0654
  412MOL0     H56816   8.048   2.980   9.115  0.7631 -0.5270 -0.6218
  412MOL0     H56817   8.022   2.845   9.003 -1.9714 -0.6014 -1.1511
  412MOL0     H56818   8.432   3.392   8.783 -2.1794 -0.9939  0.9255
  412MOL0     H56819   8.690   3.406   8.768 -0.1450  0.5222 -1.5666
  412MOL0     H56820   8.955   3.159   9.032  1.6790  2.2767 -0.9693
  412MOL0     H56821   8.925   3.058   8.881  3.3674 -1.5272 -0.2820
  412MOL0     H56822   9.090   3.205   8.759  0.2254  0.8323 -0.1711
  412MOL0     H56823   9.129   3.291   8.913 -0.0687  0.4111 -0.3518
  412MOL0     H56824   9.177   3.003   8.807 -0.2385 -0.0180  1.7882
  412MOL0     H56825   9.172   3.025   8.975 -1.6388 -2.4859 -1.1012
  412MOL0     H56826   9.370   3.205   8.948 -0.1293  0.0960 -0.2757
  412MOL0     H56827   9.363   3.184   8.780 -0.9922  0.0543 -0.2040
  412MOL0     H56828   9.418   2.968   8.982  0.5561  1.8536 -0.2694
  412MOL0     H56829   9.389   2.912   8.811 -0.1401 -0.0575 -0.0651
  412MOL0     H56830   9.615   3.087   8.894  2.1356  0.6761 -1.2638
  412MOL0     H56831   9.573   3.016   8.732  1.6070 -2.7682  0.0837
  412MOL0     H56832   9.625   2.789   8.783 -1.6434  0.0522 -0.7053
  412MOL0     H56833   9.588   2.819   8.949 -0.5198  0.9618  0.5592
  412MOL0     H56834   9.810   2.779   8.948 -1.0296 -0.7229  0.8133
  412MOL0     H56835   9.794   2.942   8.988 -3.3045 -1.0601  1.4414
  412MOL0     H56836   8.722   3.039   8.977 -0.5995 -0.7458  0.1093
  412MOL0     H56837   8.481   3.019   8.989 -3.0708  1.3052 -1.1126
  412MOL0     H56838   8.119   3.262   8.727  0.2550  0.6286  0.1180
  412MOL0     H56839   7.891   3.321   8.673  1.1727  1.2865  0.5849
  412MOL0     H56840   7.421   3.393   9.635  1.6025  1.9403  0.8940
  412MOL0     H56841   7.627   3.496   9.594 -0.8019  1.2948  2.0519
  412MOL0     H56842   7.837   3.772   9.029 -0.8341 -0.2777  0.0773
  412MOL0     H56843   8.074   3.859   9.002  1.0729  2.4701  0.7363
  412MOL0     H56844   8.272   3.811   8.972  1.0782 -1.8668  0.3166
  412MOL0     H56845   8.292   3.975   9.026 -0.2925 -0.1590 -1.6002
  412MOL0     H56846   8.470   3.744   9.099 -0.3431 -0.4630  0.3462
  412MOL0     H56847   8.515   3.914   9.126 -1.6760  0.6660  1.1108
  412MOL0     H56848   8.484   3.930   8.855  1.2729  1.1937  0.9785
  412MOL0     H56849   8.632   3.878   8.937 -0.6607  1.5956 -0.5995
  412MOL0     H56850   8.431   3.670   8.828 -0.4167  0.9475  0.7661
  412MOL0     H56851   8.588   3.631   8.901  4.3991  0.9818 -2.5842
  412MOL0     H56852   8.704   3.792   8.537  2.0928  1.1698  1.4033
  412MOL0     H56853   8.164   3.756   9.398  1.2179  3.3297 -0.9286
  412MOL0     H56854   7.921   3.600   9.526  1.1722 -0.1033 -0.9037
  412MOL0     H56855   8.008   3.740   9.565  0.1292  2.7136 -1.2936
  412MOL0     H56856   7.839   3.767   9.531  2.4747  3.8784 -1.1020
  413MOL0     O56857   8.057   7.365   3.805 -0.5178 -0.2974 -0.5060
  413MOL0     C56858   7.970   7.328   3.727 -0.2625 -0.2082 -0.4888
  413MOL0     O56859   7.993   7.300   3.596  1.3871  0.7877  0.2511
  413MOL0     C56860   8.116   7.312   3.537 -0.1981  0.1287 -0.2327
  413MOL0     C56861   8.121   7.412   3.433  1.0214  1.4681 -0.3462
  413MOL0     C56862   8.244   7.439   3.369 -0.2799 -0.2794 -1.0973
  413MOL0     C56863   8.364   7.367   3.408  0.3547  0.6352 -0.1101
  413MOL0     O56864   8.471   7.415   3.335 -0.5557  0.2040  0.3064
  413MOL0     C56865   8.594   7.343   3.335 -0.2920  0.3377  0.6091
  413MOL0     C56866   8.684   7.391   3.210  0.7340 -0.4180 -0.7567
  413MOL0     C56867   8.703   7.554   3.226 -0.3907  0.3452 -0.1077
  413MOL0     C56868   8.807   7.597   3.332 -0.5383  0.5604  0.0234
  413MOL0     C56869   8.844   7.737   3.313 -0.4722  0.3877 -0.7179
  413MOL0     C56870   8.930   7.797   3.439 -0.4062  0.5001  0.7345
  413MOL0     C56871   9.052   7.704   3.475  0.3519  0.1016 -0.3259
  413MOL0     C56872   9.123   7.756   3.598  0.4761 -0.6476 -1.3125
  413MOL0     N56873   9.251   7.698   3.642  0.9624  0.3263  0.5331
  413MOL0     C56874   9.360   7.704   3.558 -0.9474 -0.1418 -0.4553
  413MOL0     C56875   9.447   7.622   3.619 -0.7814 -0.2961  0.2710
  413MOL0     C56876   9.593   7.603   3.570  0.3327 -0.0936  0.9573
  413MOL0     C56877   9.643   7.719   3.480  0.4192 -0.3929 -0.0288
  413MOL0     C56878   9.654   7.858   3.549  0.0673 -0.5948  0.5505
  413MOL0     C56879   9.749   7.857   3.664  0.1771 -0.7703 -0.1103
  413MOL0     O56880   9.729   7.972   3.742 -0.1132  0.2751  0.4687
  413MOL0     C56881   9.647   7.966   3.853  0.8564 -0.4770  0.2663
  413MOL0     C56882   9.581   7.860   3.905  0.4062  0.0539  0.3575
  413MOL0     C56883   9.507   7.871   4.022  0.8079  0.6612 -0.0808
  413MOL0     C56884   9.458   7.741   4.077  0.8221 -0.2101 -0.4267
  413MOL0     C56885   9.491   7.991   4.089  0.2066 -0.3478 -0.4465
  413MOL0     C56886   9.404   8.022   4.209  0.6032 -0.1063  0.7995
  413MOL0     O56887   9.383   8.155   4.237 -0.5649 -0.2058 -0.1627
  413MOL0     C56888   9.289   8.199   4.333  0.0532  0.3932  0.2871
  413MOL0     C56889   9.156   8.184   4.317  0.6932 -0.9188  0.2692
  413MOL0     C56890   9.058   8.238   4.402 -0.4742  0.3487 -0.2103
  413MOL0     C56891   9.099   8.300   4.524 -0.1919  0.6589 -0.3928
  413MOL0     O56892   9.011   8.365   4.615 -0.3777 -0.0316  0.1692
  413MOL0     C56893   8.867   8.376   4.599 -0.6861 -0.1936  0.1028
  413MOL0     C56894   8.812   8.441   4.731  0.1360 -0.3849 -0.5730
  413MOL0     C56895   8.658   8.451   4.735  0.2841  0.2736 -0.2305
  413MOL0     C56896   8.610   8.506   4.871  0.1573 -0.8275  0.2858
  413MOL0     C56897   8.458   8.526   4.886 -0.1071  0.7176 -0.6574
  413MOL0     C56898   8.401   8.634   4.795 -0.2761 -1.3748 -0.3588
  413MOL0     C56899   8.251   8.640   4.808 -0.3507  0.1503  0.8380
  413MOL0     C56900   8.182   8.719   4.704 -0.0688 -0.3820 -0.0176
  413MOL0    Cl56901   8.003   8.699   4.671 -0.0632 -0.2064 -0.0471
  413MOL0     C56902   9.238   8.288   4.551 -0.7626 -1.1256 -0.1379
  413MOL0     C56903   9.327   8.244   4.456 -0.3562  0.7448  0.0277
  413MOL0     O56904   9.366   7.925   4.281 -0.0227 -0.1521 -0.0320
  413MOL0     C56905   9.554   8.105   4.026  0.1538 -0.3036 -0.2849
  413MOL0     C56906   9.627   8.094   3.914  0.1230 -0.3745  0.1108
  413MOL0     N56907   9.396   7.572   3.725  1.0381 -0.2201  0.2989
  413MOL0     N56908   9.275   7.614   3.745 -0.1091  0.7796  0.4377
  413MOL0     C56909   8.359   7.269   3.502 -0.0118  0.1840  0.8714
  413MOL0     C56910   8.240   7.246   3.569 -0.7207  0.6284 -0.4448
  413MOL0     C56911   7.831   7.335   3.778  0.7732 -0.2976  0.6724
  413MOL0     C56912   7.815   7.325   3.913 -0.1730 -0.7827 -0.2327
  413MOL0     C56913   7.697   7.315   3.979 -0.1229  0.4129  0.9102
  413MOL0     C56914   7.581   7.331   3.900 -0.3256  1.0173 -0.8958
  413MOL0     O56915   7.457   7.321   3.965 -1.0167  0.6592 -0.7827
  413MOL0     C56916   7.335   7.370   3.908  1.2373  0.6352 -0.0443
  413MOL0     C56917   7.242   7.357   4.024  0.8052 -0.0295 -0.0893
  413MOL0     C56918   7.097   7.429   3.989 -0.9022  0.0451 -0.1888
  413MOL0     C56919   7.001   7.359   3.884 -1.1506 -0.3617  0.0738
  413MOL0     C56920   6.864   7.415   3.899 -0.2949 -0.5666 -0.0301
  413MOL0     C56921   6.751   7.449   3.908 -0.2355  0.3987 -0.0687
  413MOL0     C56922   7.597   7.351   3.764  0.4176  0.9177  0.5963
  413MOL0     C56923   7.719   7.349   3.700 -0.7684 -0.4123  0.4893
  413MOL0     C56924   7.712   7.345   3.535 -0.4624 -0.0706 -0.7734
  413MOL0     H56925   8.025   7.461   3.420  0.2565 -0.2907 -1.8511
  413MOL0     H56926   8.251   7.515   3.291 -1.3008  0.0509 -0.8777
  413MOL0     H56927   8.587   7.235   3.321 -0.6711  0.5130 -0.6888
  413MOL0     H56928   8.652   7.368   3.425  0.3922 -0.8799  0.5198
  413MOL0     H56929   8.779   7.339   3.204  0.9533  0.1254 -2.5709
  413MOL0     H56930   8.636   7.370   3.114 -1.2476  0.7912 -0.1004
  413MOL0     H56931   8.737   7.596   3.131  0.1189  1.5163  0.5746
  413MOL0     H56932   8.604   7.595   3.248 -2.0413 -2.0218 -2.5082
  413MOL0     H56933   8.768   7.583   3.433 -0.5872  1.7238  0.1833
  413MOL0     H56934   8.895   7.532   3.328 -1.5863 -0.8855 -0.4957
  413MOL0     H56935   8.760   7.807   3.305  0.0461  0.9270 -1.7897
  413MOL0     H56936   8.902   7.750   3.221  0.8774  1.7755  0.2683
  413MOL0     H56937   8.966   7.894   3.402 -0.0241  0.6043  1.3617
  413MOL0     H56938   8.871   7.804   3.530  0.3118 -1.0959  1.3649
  413MOL0     H56939   9.126   7.710   3.395  0.9219  0.7650  0.2332
  413MOL0     H56940   9.001   7.610   3.496 -2.5285  1.0694 -2.3936
  413MOL0     H56941   9.132   7.865   3.593  1.0731 -0.6388 -0.3543
  413MOL0     H56942   9.059   7.741   3.685  2.6662 -0.3410  0.4415
  413MOL0     H56943   9.377   7.765   3.470 -0.2272  1.0068  0.4409
  413MOL0     H56944   9.599   7.511   3.512  0.8469 -0.3234  1.3597
  413MOL0     H56945   9.657   7.580   3.656  0.1118 -1.1712  0.8509
  413MOL0     H56946   9.743   7.688   3.448  0.7542  0.0365  0.5625
  413MOL0     H56947   9.584   7.730   3.389 -0.3379 -0.0540  0.4951
  413MOL0     H56948   9.685   7.919   3.463  0.0431 -4.5013 -2.5577
  413MOL0     H56949   9.556   7.893   3.582 -0.1648 -1.0231  0.3261
  413MOL0     H56950   9.744   7.770   3.730  0.6140 -0.5094  0.2712
  413MOL0     H56951   9.847   7.870   3.617 -0.4029  0.5831 -0.9886
  413MOL0     H56952   9.575   7.764   3.855  1.8761 -0.3169  0.8484
  413MOL0     H56953   9.349   7.753   4.087  0.9069 -1.0406  2.2474
  413MOL0     H56954   9.500   7.719   4.175 -0.1512 -0.7060 -0.1034
  413MOL0     H56955   9.475   7.652   4.016  1.3341 -0.6847  0.4045
  413MOL0     H56956   9.133   8.152   4.216  0.9851  0.2296 -0.1661
  413MOL0     H56957   8.955   8.254   4.373  0.2490  1.8099 -2.2339
  413MOL0     H56958   8.837   8.437   4.513 -0.9162  0.9534  0.9665
  413MOL0     H56959   8.824   8.276   4.586 -1.2578 -0.2545  2.1000
  413MOL0     H56960   8.845   8.366   4.805  0.7478  0.2836 -0.1517
  413MOL0     H56961   8.860   8.533   4.767 -2.0171 -0.5300  3.2994
  413MOL0     H56962   8.616   8.351   4.719 -1.0625  0.9036 -0.7086
  413MOL0     H56963   8.627   8.517   4.654  1.7445 -0.1571 -1.1942
  413MOL0     H56964   8.668   8.596   4.894  1.5459 -1.7484  0.4404
  413MOL0     H56965   8.636   8.430   4.945  2.0198 -1.3187 -0.8036
  413MOL0     H56966   8.413   8.429   4.868 -0.4389  0.8784 -0.6978
  413MOL0     H56967   8.433   8.556   4.989 -0.4831  2.8227 -1.3170
  413MOL0     H56968   8.429   8.621   4.690  2.9998  3.8516 -0.4892
  413MOL0     H56969   8.441   8.734   4.814 -1.9770 -0.3469 -1.8773
  413MOL0     H56970   8.213   8.691   4.897 -1.7898  2.5130 -1.0235
  413MOL0     H56971   8.210   8.539   4.803 -0.2129  0.1125 -4.0019
  413MOL0     H56972   8.221   8.717   4.601  0.2157  0.9430  0.0357
  413MOL0     H56973   8.193   8.826   4.725 -1.6106 -0.0817 -0.5957
  413MOL0     H56974   9.278   8.322   4.646 -1.1714 -0.1844 -0.2915
  413MOL0     H56975   9.433   8.233   4.477  0.2022 -1.2091 -3.1575
  413MOL0     H56976   9.526   8.204   4.061  2.1951 -0.6283  2.5665
  413MOL0     H56977   9.681   8.179   3.872  1.9136 -1.0177  0.9898
  413MOL0     H56978   8.444   7.214   3.542 -0.2917 -0.6713  0.3336
  413MOL0     H56979   8.247   7.171   3.648  0.2164 -0.5311 -1.5765
  413MOL0     H56980   7.895   7.311   3.985  0.0691 -0.0336 -0.3464
  413MOL0     H56981   7.688   7.311   4.087  0.2042  1.9096  1.0162
  413MOL0     H56982   7.336   7.472   3.868  1.1887 -0.5484 -3.4240
  413MOL0     H56983   7.294   7.303   3.832 -0.6696  1.0771  0.5320
  413MOL0     H56984   7.283   7.417   4.106 -0.9669  2.7571 -1.0775
  413MOL0     H56985   7.227   7.252   4.048 -1.4529  0.7789  2.6077
  413MOL0     H56986   7.049   7.437   4.087 -2.9314 -1.2972 -1.0151
  413MOL0     H56987   7.116   7.533   3.958  0.4212 -0.4798 -1.2674
  413MOL0     H56988   6.999   7.251   3.902 -1.5373 -0.2409  0.7959
  413MOL0     H56989   7.043   7.376   3.785 -0.0332 -1.6405  0.2900
  413MOL0     H56990   6.648   7.482   3.908 -0.4272 -0.0792  1.8896
  413MOL0     H56991   7.509   7.377   3.706 -0.1774 -1.3690  0.3611
  413MOL0     H56992   7.734   7.246   3.496 -0.9463 -0.6477  0.3785
  413MOL0     H56993   7.606   7.354   3.507  0.4201  1.6507 -4.0238
  413MOL0     H56994   7.773   7.415   3.477  1.9714 -1.9328 -0.6174
  414MOL0     O56995   2.195  11.165  10.058 -0.5562  0.0895 -0.0886
  414MOL0     C56996   2.087  11.129  10.020 -0.1762 -0.3164  0.0252
  414MOL0     O56997   2.070  11.086   9.894  0.2752  0.4977  0.6569
  414MOL0     C56998   2.181  11.074   9.820  0.3578  0.6763  0.6637
  414MOL0     C56999   2.246  10.948   9.803  0.0650 -0.4791  0.8945
  414MOL0     C57000   2.368  10.935   9.733 -0.5497 -0.0036  0.2756
  414MOL0     C57001   2.431  11.054   9.693 -0.8669 -0.4329 -0.1286
  414MOL0     O57002   2.560  11.059   9.640  0.8056 -0.8421 -0.5204
  414MOL0     C57003   2.616  10.932   9.587  0.3143  0.4584 -0.2525
  414MOL0     C57004   2.734  10.970   9.500 -0.8222  0.1093  0.6080
  414MOL0     C57005   2.856  10.991   9.584  0.4059  0.4832 -0.9231
  414MOL0     C57006   2.986  11.027   9.510  0.4379 -0.4906  0.6618
  414MOL0     C57007   3.106  11.011   9.602 -0.6026  0.4360  0.8384
  414MOL0     C57008   3.233  11.037   9.524  0.1147 -0.3235  0.0562
  414MOL0     C57009   3.369  11.018   9.596 -0.1361 -0.0630  0.9256
  414MOL0     C57010   3.411  10.869   9.604 -0.3927  1.1318 -0.5521
  414MOL0     N57011   3.530  10.851   9.691 -0.0715 -0.0786  0.7599
  414MOL0     C57012   3.656  10.858   9.654  0.0607 -0.3397 -0.0324
  414MOL0     C57013   3.735  10.828   9.759  0.7316 -0.3902 -0.5684
  414MOL0     C57014   3.883  10.833   9.771  0.4655  1.4810  0.4676
  414MOL0     C57015   3.948  10.720   9.697  0.5219 -0.0849 -0.2496
  414MOL0     C57016   4.109  10.731   9.707  0.4892 -0.3259 -0.0306
  414MOL0     C57017   4.163  10.587   9.709  0.1740  0.9960 -0.5705
  414MOL0     O57018   4.298  10.599   9.700 -0.0434 -0.1730 -0.1133
  414MOL0     C57019   4.384  10.499   9.701 -1.0106  0.2649  0.0108
  414MOL0     C57020   4.513  10.528   9.709 -0.3729 -0.5583  0.4783
  414MOL0     C57021   4.605  10.422   9.709 -0.0874  0.3385  0.0691
  414MOL0     C57022   4.749  10.462   9.709  0.0003 -1.2524  0.2068
  414MOL0     C57023   4.564  10.282   9.717 -0.5630 -0.3508  0.2118
  414MOL0     C57024   4.658  10.166   9.740  0.3948  0.5932  0.1366
  414MOL0     O57025   4.611  10.035   9.714  0.6026 -0.8457  0.5920
  414MOL0     C57026   4.692   9.932   9.744 -0.4953  1.2996 -0.2095
  414MOL0     C57027   4.747   9.903   9.870 -0.9133  0.1846 -1.2750
  414MOL0     C57028   4.829   9.796   9.889 -1.1981 -0.5641 -0.1123
  414MOL0     C57029   4.853   9.703   9.780 -0.2580 -0.1482  0.3001
  414MOL0     O57030   4.939   9.604   9.804 -0.6245 -0.1134  0.0885
  414MOL0     C57031   5.076   9.655   9.838 -0.3495  0.8751 -0.3301
  414MOL0     C57032   5.150   9.544   9.920  0.3158 -1.0401 -0.8380
  414MOL0     C57033   5.302   9.555   9.944  0.1113  0.3491  0.1742
  414MOL0     C57034   5.356   9.417   9.987 -0.1315  0.3216 -0.2596
  414MOL0     C57035   5.516   9.390   9.978  0.0214  0.0223  0.5415
  414MOL0     C57036   5.562   9.397   9.829 -1.3633  0.4519 -0.1740
  414MOL0     C57037   5.688   9.305   9.795  0.1027  0.3966 -1.1352
  414MOL0     C57038   5.748   9.309   9.654  0.1814  0.5795  0.6996
  414MOL0    Cl57039   5.879   9.193   9.635 -0.2345 -0.6990  0.1845
  414MOL0     C57040   4.780   9.721   9.664 -0.1449  0.0909  0.0450
  414MOL0     C57041   4.704   9.835   9.648 -0.5321  0.4198  0.0218
  414MOL0     O57042   4.771  10.178   9.789  0.0618  0.4991  0.3910
  414MOL0     C57043   4.423  10.260   9.708  0.5123 -0.1941 -0.3951
  414MOL0     C57044   4.334  10.371   9.699  0.0367  0.3107 -0.5889
  414MOL0     N57045   3.652  10.805   9.865 -0.0112  0.1168 -0.3403
  414MOL0     N57046   3.529  10.826   9.828  0.0296  0.4846  0.1486
  414MOL0     C57047   2.369  11.176   9.704 -0.3793 -0.9200 -0.2503
  414MOL0     C57048   2.241  11.187   9.757  0.7137  0.3013  0.3898
  414MOL0     C57049   1.973  11.157  10.106  0.7937  0.9550  0.3052
  414MOL0     C57050   1.990  11.176  10.243 -0.6501  0.0652 -0.5845
  414MOL0     C57051   1.874  11.184  10.322  0.3488  0.6352  0.1500
  414MOL0     C57052   1.744  11.191  10.273 -0.3004  0.0075 -0.1985
  414MOL0     O57053   1.624  11.192  10.342 -0.3393 -0.0615  0.3846
  414MOL0     C57054   1.619  11.245  10.477  0.8085 -0.7801 -0.3904
  414MOL0     C57055   1.493  11.321  10.506  0.5400 -0.2262  0.5020
  414MOL0     C57056   1.361  11.232  10.511 -0.8904  0.6551 -0.1887
  414MOL0     C57057   1.252  11.315  10.569  0.0572 -0.5325  0.2286
  414MOL0     C57058   1.226  11.448  10.515  0.3914  0.3790  0.4308
  414MOL0     C57059   1.199  11.565  10.491 -0.2487  0.0925  0.1879
  414MOL0     C57060   1.732  11.161  10.145 -0.5261  0.3369 -0.8535
  414MOL0     C57061   1.837  11.153  10.058  0.0056 -0.1851  0.2009
  414MOL0     C57062   1.797  11.157   9.910  0.1096 -0.2139  1.2984
  414MOL0     H57063   2.202  10.864   9.855 -4.5362  0.2649 -1.2910
  414MOL0     H57064   2.420  10.840   9.724 -1.3062 -0.2945 -1.4895
  414MOL0     H57065   2.531  10.893   9.530  0.6094 -2.1093  0.9231
  414MOL0     H57066   2.635  10.860   9.667 -3.5973 -1.7407 -1.0607
  414MOL0     H57067   2.758  10.887   9.433  3.0450 -1.0952  3.1400
  414MOL0     H57068   2.712  11.063   9.447 -1.5827 -0.6964 -0.5475
  414MOL0     H57069   2.827  11.070   9.654 -3.6493 -1.1393 -0.4950
  414MOL0     H57070   2.873  10.900   9.641  1.0174 -0.8367 -3.1187
  414MOL0     H57071   2.995  10.954   9.428 -0.6218 -0.5995  0.6321
  414MOL0     H57072   2.984  11.129   9.472  4.1981 -0.9699 -1.3700
  414MOL0     H57073   3.097  10.909   9.639  0.8476  0.8027  2.3191
  414MOL0     H57074   3.106  11.055   9.702  2.8017 -4.1612  3.2374
  414MOL0     H57075   3.231  10.964   9.442  0.5354  0.5949 -0.7973
  414MOL0     H57076   3.238  11.138   9.482 -0.8776 -0.4434 -0.3624
  414MOL0     H57077   3.350  11.060   9.695 -2.4078  0.5705  0.2916
  414MOL0     H57078   3.448  11.077   9.547 -1.7353  0.6716 -0.9301
  414MOL0     H57079   3.335  10.803   9.646  1.5780 -0.1383  1.2399
  414MOL0     H57080   3.444  10.833   9.506 -1.2490  1.1333 -0.8489
  414MOL0     H57081   3.688  10.890   9.556 -0.3125 -0.0586 -0.0624
  414MOL0     H57082   3.923  10.815   9.871  0.5953 -1.0624  0.0306
  414MOL0     H57083   3.911  10.933   9.738 -0.5867  1.5805 -0.1509
  414MOL0     H57084   3.907  10.625   9.731  2.7111 -1.6514 -1.6439
  414MOL0     H57085   3.911  10.726   9.594 -3.5496 -0.8424  1.0032
  414MOL0     H57086   4.152  10.784   9.622 -0.6192 -0.9560 -1.0274
  414MOL0     H57087   4.145  10.763   9.805  0.0358 -2.2227  0.8161
  414MOL0     H57088   4.136  10.524   9.795 -0.1352 -0.7520 -1.8813
  414MOL0     H57089   4.124  10.531   9.623 -0.9410  2.8227 -1.3058
  414MOL0     H57090   4.539  10.633   9.712  0.7651 -0.8130  3.6621
  414MOL0     H57091   4.809  10.430   9.795 -0.2587 -0.7191  0.5950
  414MOL0     H57092   4.746  10.570   9.695 -2.6879 -1.4428 -1.3012
  414MOL0     H57093   4.798  10.424   9.619  0.4990 -0.6379  0.2121
  414MOL0     H57094   4.719   9.967   9.954 -2.3172 -3.6620  1.4663
  414MOL0     H57095   4.880   9.795   9.984 -0.6449 -0.1159 -0.3995
  414MOL0     H57096   5.133   9.677   9.747 -0.6638  1.6494 -0.3473
  414MOL0     H57097   5.087   9.741   9.905  0.3809  1.1696 -0.8128
  414MOL0     H57098   5.089   9.535  10.011 -0.3765  0.7639 -1.0886
  414MOL0     H57099   5.135   9.453   9.861 -0.2978 -1.6047  0.1591
  414MOL0     H57100   5.323   9.639  10.011  0.7489  1.6494 -1.5645
  414MOL0     H57101   5.355   9.582   9.852  2.6533  1.5441  1.8468
  414MOL0     H57102   5.324   9.346   9.910  0.8163 -0.0494 -0.3245
  414MOL0     H57103   5.323   9.391  10.087  2.5707 -0.4149  0.5225
  414MOL0     H57104   5.570   9.463  10.039  0.9979 -0.2220 -0.0173
  414MOL0     H57105   5.534   9.288  10.013 -1.9600 -1.0114 -1.1486
  414MOL0     H57106   5.600   9.496   9.803  2.2296 -0.6175  0.3595
  414MOL0     H57107   5.484   9.370   9.758 -1.5768  3.8129 -1.3605
  414MOL0     H57108   5.665   9.201   9.818  1.6355  0.0466 -1.0715
  414MOL0     H57109   5.770   9.339   9.859 -0.4113  1.5711 -1.0645
  414MOL0     H57110   5.786   9.408   9.626 -0.4781  0.6913  0.1828
  414MOL0     H57111   5.666   9.291   9.584 -0.2053  4.3425 -0.0090
  414MOL0     H57112   4.771   9.659   9.576  3.0551  0.3603 -0.6003
  414MOL0     H57113   4.645   9.847   9.558 -1.0555 -0.5533  0.2258
  414MOL0     H57114   4.378  10.163   9.725 -1.6579  0.8312  0.0794
  414MOL0     H57115   4.229  10.341   9.705 -0.0183  0.6729  0.7644
  414MOL0     H57116   2.432  11.256   9.667 -0.8483 -0.5150 -0.1782
  414MOL0     H57117   2.180  11.277   9.763 -1.6813 -1.3568  2.8909
  414MOL0     H57118   2.090  11.174  10.284 -0.4281  0.5566 -1.1026
  414MOL0     H57119   1.888  11.194  10.429 -1.4579  0.1902  0.4552
  414MOL0     H57120   1.624  11.159  10.545 -1.4088  0.0075  0.8569
  414MOL0     H57121   1.695  11.319  10.505 -1.4584  0.9788  1.4745
  414MOL0     H57122   1.497  11.405  10.435  1.5556 -0.4434  0.2881
  414MOL0     H57123   1.502  11.361  10.607  2.2236 -1.7579  1.0021
  414MOL0     H57124   1.340  11.197  10.410 -0.1919 -3.3010  0.8771
  414MOL0     H57125   1.377  11.139  10.566  0.4781 -0.5224 -2.4344
  414MOL0     H57126   1.272  11.333  10.675 -0.8224 -1.6722  0.6109
  414MOL0     H57127   1.166  11.248  10.567  0.6654 -1.3590  0.8773
  414MOL0     H57128   1.191  11.670  10.470  1.2686  0.0898 -0.5352
  414MOL0     H57129   1.631  11.157  10.105  0.1534  0.9437 -2.6965
  414MOL0     H57130   1.864  11.227   9.860 -0.2054 -0.3779  0.6476
  414MOL0     H57131   1.807  11.061   9.859 -0.1846  0.8364 -0.8274
  414MOL0     H57132   1.690  11.180   9.900 -0.6358 -3.1449  1.6783
  415MOL0     O57133   3.019   5.417   8.896 -0.2179  0.3021 -0.2837
  415MOL0     C57134   2.997   5.346   8.998 -0.2841 -1.2164  0.5170
  415MOL0     O57135   3.071   5.346   9.109  0.0696 -0.0460  0.9831
  415MOL0     C57136   3.204   5.340   9.087  0.6025  0.5179 -0.4906
  415MOL0     C57137   3.271   5.257   8.998 -0.0775  0.2505 -0.5038
  415MOL0     C57138   3.408   5.230   9.015 -0.0830  0.2563  0.1652
  415MOL0     C57139   3.485   5.301   9.105  0.3157 -0.1787 -0.0060
  415MOL0     O57140   3.617   5.263   9.133  0.5207  0.4989  0.6286
  415MOL0     C57141   3.699   5.259   9.018 -0.3237  0.3472  0.9674
  415MOL0     C57142   3.852   5.276   9.039  0.0832  0.0874  0.5059
  415MOL0     C57143   3.889   5.396   9.122 -0.1221  0.6532  0.6994
  415MOL0     C57144   4.042   5.396   9.159  0.1945 -0.4161 -0.1033
  415MOL0     C57145   4.074   5.484   9.280 -0.0213 -0.3021 -0.3587
  415MOL0     C57146   4.033   5.625   9.244 -0.1745 -0.1748 -0.0501
  415MOL0     C57147   4.076   5.735   9.345  0.5996  0.7702 -0.3958
  415MOL0     C57148   4.219   5.767   9.365 -0.2624 -0.0591  0.1899
  415MOL0     N57149   4.306   5.777   9.238 -0.0227  0.4213 -0.2661
  415MOL0     C57150   4.418   5.702   9.215 -0.5567 -0.3685  0.4896
  415MOL0     C57151   4.458   5.754   9.097 -0.0475 -0.8772 -0.0843
  415MOL0     C57152   4.576   5.721   9.020  0.0758  0.1440  0.0657
  415MOL0     C57153   4.688   5.830   9.015 -0.6453 -0.5071  0.4861
  415MOL0     C57154   4.729   5.879   9.156 -0.3050  0.1169 -0.1058
  415MOL0     C57155   4.862   5.959   9.153  0.0276  0.0270 -0.3208
  415MOL0     O57156   4.967   5.863   9.108 -0.9471 -0.3739 -1.1791
  415MOL0     C57157   5.090   5.880   9.159 -0.2489 -0.0185 -0.4849
  415MOL0     C57158   5.137   5.992   9.230 -0.4046 -0.7702 -0.5098
  415MOL0     C57159   5.272   6.002   9.259 -0.8281  1.0816  0.9760
  415MOL0     C57160   5.307   6.117   9.338  0.7876  0.2584  0.2894
  415MOL0     C57161   5.366   5.912   9.204 -0.0879  0.0939  0.2399
  415MOL0     C57162   5.516   5.928   9.211  0.9342 -0.0839  0.6140
  415MOL0     O57163   5.569   6.022   9.298  0.2593 -0.5526  0.6170
  415MOL0     C57164   5.707   6.038   9.301  0.4883  0.1079 -0.2951
  415MOL0     C57165   5.768   6.155   9.272 -0.6895 -1.0306 -0.0123
  415MOL0     C57166   5.902   6.170   9.295  0.1375 -0.1928 -0.6058
  415MOL0     C57167   5.976   6.073   9.358 -0.0401 -0.0336  0.1860
  415MOL0     O57168   6.111   6.093   9.371  0.2042  0.7776 -0.7859
  415MOL0     C57169   6.138   6.077   9.508 -0.3616  0.3410 -0.2918
  415MOL0     C57170   6.288   6.034   9.521  0.9168 -0.1816  0.3048
  415MOL0     C57171   6.383   6.141   9.470 -0.1452 -0.1575 -0.4839
  415MOL0     C57172   6.528   6.089   9.463  0.3625 -0.0806 -0.2120
  415MOL0     C57173   6.562   6.052   9.322  0.7959  0.9701  0.2114
  415MOL0     C57174   6.690   5.969   9.314  0.1441  0.5694 -0.0906
  415MOL0     C57175   6.813   6.058   9.314 -0.2752  1.5867 -1.5675
  415MOL0     C57176   6.850   6.119   9.179  0.2201 -0.6643 -0.5426
  415MOL0    Cl57177   6.828   6.302   9.188  0.1845  0.4731  0.1837
  415MOL0     C57178   5.921   5.947   9.381  0.1614  0.2312  1.0390
  415MOL0     C57179   5.785   5.927   9.356 -0.1999  0.0874 -0.1532
  415MOL0     O57180   5.582   5.844   9.149 -0.1023 -0.0423  0.4220
  415MOL0     C57181   5.318   5.797   9.143 -0.3995  0.9087  0.1174
  415MOL0     C57182   5.181   5.787   9.115 -0.2041 -0.0705  0.0236
  415MOL0     N57183   4.377   5.860   9.057 -0.3706  0.3467  0.0207
  415MOL0     N57184   4.282   5.871   9.143 -0.1563  0.6378  0.4821
  415MOL0     C57185   3.425   5.385   9.197 -0.2250  0.0139  0.0367
  415MOL0     C57186   3.285   5.400   9.183  0.0712  0.4539 -1.2429
  415MOL0     C57187   2.895   5.241   8.985 -0.3482 -0.7360 -0.4511
  415MOL0     C57188   2.916   5.128   9.058 -0.0430  0.7987  0.3093
  415MOL0     C57189   2.821   5.026   9.042 -0.5056  0.3510  0.0892
  415MOL0     C57190   2.714   5.035   8.956  0.6876  0.5133 -0.7613
  415MOL0     O57191   2.631   4.923   8.958  0.2134  0.8255  0.6456
  415MOL0     C57192   2.500   4.932   8.890 -0.0040  0.4538  0.4288
  415MOL0     C57193   2.389   5.016   8.950 -0.2267 -0.5251 -0.9027
  415MOL0     C57194   2.317   4.942   9.064  1.0123  0.2470 -0.0020
  415MOL0     C57195   2.388   4.912   9.189  0.1602  0.4767 -0.4177
  415MOL0     C57196   2.296   4.900   9.303  0.0914 -0.0658  0.1445
  415MOL0     C57197   2.206   4.909   9.382 -0.4482  0.5326  0.1696
  415MOL0     C57198   2.692   5.150   8.886 -0.0965  0.2483  0.0594
  415MOL0     C57199   2.781   5.258   8.900 -0.3496  0.0146 -0.3669
  415MOL0     C57200   2.746   5.386   8.820  0.8591 -0.0650  1.1102
  415MOL0     H57201   3.212   5.209   8.920 -1.0562 -2.9694  2.0122
  415MOL0     H57202   3.462   5.160   8.953  1.1872  0.8745  0.5306
  415MOL0     H57203   3.660   5.329   8.943 -3.5770 -0.5408  1.6832
  415MOL0     H57204   3.680   5.158   8.982 -0.7665  0.4574  0.8924
  415MOL0     H57205   3.891   5.186   9.088  1.2208  0.4787  0.3480
  415MOL0     H57206   3.900   5.275   8.941 -0.2602 -1.2388  0.3328
  415MOL0     H57207   3.873   5.489   9.067 -0.2681  0.9122  1.1698
  415MOL0     H57208   3.826   5.395   9.212  0.0569  0.6722  0.8279
  415MOL0     H57209   4.081   5.296   9.182  0.2859  0.2024  2.7868
  415MOL0     H57210   4.092   5.431   9.068 -3.1941  1.5651 -1.4004
  415MOL0     H57211   4.181   5.490   9.300 -0.3713  1.8570  1.3117
  415MOL0     H57212   4.028   5.453   9.374 -0.3292  1.9263  0.2926
  415MOL0     H57213   4.078   5.643   9.146  3.1276 -0.6689  1.2636
  415MOL0     H57214   3.923   5.620   9.244 -0.1989 -1.7911  2.9138
  415MOL0     H57215   4.038   5.701   9.441  5.4448 -2.1472  0.8179
  415MOL0     H57216   4.029   5.831   9.320  1.0229  1.5888  1.7335
  415MOL0     H57217   4.224   5.858   9.425 -1.6364 -1.6682  2.9247
  415MOL0     H57218   4.254   5.685   9.428 -2.0319 -0.0295  1.2699
  415MOL0     H57219   4.470   5.630   9.276  1.8845  0.9216  0.0635
  415MOL0     H57220   4.550   5.697   8.916 -1.1451  3.0548 -0.3834
  415MOL0     H57221   4.615   5.625   9.055 -2.9650 -0.8091  1.1543
  415MOL0     H57222   4.778   5.782   8.977 -1.5498 -1.3303 -0.7080
  415MOL0     H57223   4.664   5.907   8.940  0.1378 -1.3721 -0.6823
  415MOL0     H57224   4.646   5.943   9.188 -0.3330  0.9669 -1.7549
  415MOL0     H57225   4.747   5.799   9.228 -1.2729  1.1539  1.3518
  415MOL0     H57226   4.855   6.042   9.083  2.4149  1.9973  1.5548
  415MOL0     H57227   4.883   6.009   9.248 -1.6598  3.1383 -1.4612
  415MOL0     H57228   5.076   6.078   9.256  0.6268 -0.5449  1.3227
  415MOL0     H57229   5.346   6.083   9.435  0.9655  0.8725  0.4339
  415MOL0     H57230   5.220   6.180   9.358  0.2706 -0.2327 -0.3730
  415MOL0     H57231   5.387   6.180   9.297  0.6048  0.4165  0.1793
  415MOL0     H57232   5.715   6.245   9.242 -0.9042 -2.4757 -4.8264
  415MOL0     H57233   5.952   6.263   9.273  1.1019 -0.7536 -0.8491
  415MOL0     H57234   6.121   6.165   9.571  1.8481  1.9599 -1.7700
  415MOL0     H57235   6.078   5.997   9.552  0.9168 -1.7285 -2.0706
  415MOL0     H57236   6.302   6.006   9.626 -2.4339 -1.5900  0.5189
  415MOL0     H57237   6.294   5.942   9.463  0.6603 -0.5339  0.8286
  415MOL0     H57238   6.375   6.234   9.526  3.6962  0.3068 -0.4554
  415MOL0     H57239   6.349   6.178   9.373 -0.4112  3.0579  0.7106
  415MOL0     H57240   6.553   6.008   9.531  2.5118  0.2150 -0.5851
  415MOL0     H57241   6.585   6.177   9.495 -0.6165  0.1041  1.1093
  415MOL0     H57242   6.482   5.989   9.284  1.7686 -1.0627  1.3612
  415MOL0     H57243   6.572   6.144   9.264 -0.8560  1.9431  1.3900
  415MOL0     H57244   6.700   5.915   9.219  2.8448  0.9406 -0.1033
  415MOL0     H57245   6.691   5.899   9.398 -1.6832  1.2809  0.5670
  415MOL0     H57246   6.893   5.994   9.354 -1.2188  2.5209  2.2484
  415MOL0     H57247   6.800   6.135   9.391 -1.5278  1.1421 -1.3183
  415MOL0     H57248   6.783   6.083   9.099  1.0918 -4.9034  0.3850
  415MOL0     H57249   6.955   6.099   9.157  0.7625  2.5296 -1.2915
  415MOL0     H57250   5.973   5.856   9.409 -0.6759 -0.3108  0.8631
  415MOL0     H57251   5.734   5.836   9.387 -2.0626  0.6540 -1.4187
  415MOL0     H57252   5.383   5.711   9.133 -0.4177  0.9772 -0.6377
  415MOL0     H57253   5.135   5.704   9.062 -3.9394  2.2392 -0.7310
  415MOL0     H57254   3.475   5.429   9.283 -1.6623  3.0246 -0.5292
  415MOL0     H57255   3.234   5.461   9.256  0.0660  0.0629 -0.9202
  415MOL0     H57256   3.004   5.110   9.119  0.0586 -2.6443 -0.6357
  415MOL0     H57257   2.815   4.934   9.100 -3.0779  0.0003 -0.6128
  415MOL0     H57258   2.515   4.959   8.785 -3.5684  2.2160  0.2359
  415MOL0     H57259   2.456   4.832   8.892  2.6962 -0.8602 -0.4062
  415MOL0     H57260   2.314   5.040   8.874  2.1088  0.4281 -3.0179
  415MOL0     H57261   2.435   5.113   8.974 -1.0420 -0.0866 -1.0512
  415MOL0     H57262   2.232   5.004   9.095 -0.4816 -2.4165  1.7135
  415MOL0     H57263   2.272   4.856   9.012  1.7502  0.2891 -0.7190
  415MOL0     H57264   2.453   4.997   9.214 -1.5466  1.0772  2.4782
  415MOL0     H57265   2.442   4.817   9.190 -4.3044 -2.4588  2.6278
  415MOL0     H57266   2.123   4.905   9.450  0.0196 -0.5628  0.6897
  415MOL0     H57267   2.606   5.163   8.820  0.3017 -0.5429 -0.6387
  415MOL0     H57268   2.804   5.393   8.727 -4.3243  2.9178 -2.3692
  415MOL0     H57269   2.649   5.375   8.773  1.0628  0.5384  0.5411
  415MOL0     H57270   2.751   5.467   8.893  0.8899 -2.7461  4.3175
  416MOL0     O57271   7.348   8.957   9.248 -0.7825 -0.3480  0.3072
  416MOL0     C57272   7.231   8.978   9.218  0.3497  0.0497  0.4598
  416MOL0     O57273   7.122   8.889   9.248 -0.5115 -0.7892 -0.5025
  416MOL0     C57274   7.134   8.762   9.297 -0.2310 -0.1114 -0.0121
  416MOL0     C57275   7.029   8.692   9.350 -0.0649  0.0540 -0.6775
  416MOL0     C57276   7.032   8.551   9.378 -0.0794 -0.0719 -0.0209
  416MOL0     C57277   7.153   8.478   9.346  0.6362  0.3939 -0.4240
  416MOL0     O57278   7.178   8.343   9.369 -0.7468 -0.0249 -0.1978
  416MOL0     C57279   7.076   8.280   9.446 -0.2812  1.0185  0.3975
  416MOL0     C57280   7.134   8.143   9.474 -0.5886  0.0074  0.7872
  416MOL0     C57281   7.145   8.060   9.351 -0.6636  0.2357  0.1368
  416MOL0     C57282   7.176   7.906   9.366  0.0198 -0.0796 -0.2819
  416MOL0     C57283   7.192   7.833   9.238  0.2008 -0.8264 -0.4906
  416MOL0     C57284   7.329   7.877   9.167 -0.5841 -0.8560  0.8644
  416MOL0     C57285   7.320   7.846   9.016  0.4860 -0.0885  0.4150
  416MOL0     C57286   7.452   7.789   8.965  0.3663  0.0898 -0.2085
  416MOL0     N57287   7.460   7.648   8.996 -0.4062  0.2794  0.8208
  416MOL0     C57288   7.572   7.592   9.057 -0.0635  0.3227 -0.1727
  416MOL0     C57289   7.558   7.456   9.028  0.3761  0.8756 -0.7321
  416MOL0     C57290   7.666   7.347   9.027  0.1583  0.7224 -0.5204
  416MOL0     C57291   7.730   7.328   8.892 -0.5373 -0.6234  0.0575
  416MOL0     C57292   7.804   7.199   8.884  0.4111 -0.5954 -0.6461
  416MOL0     C57293   7.877   7.193   8.754  0.3208 -0.0968  0.9538
  416MOL0     O57294   7.920   7.053   8.741 -0.2268 -0.3145 -0.2478
  416MOL0     C57295   8.028   7.013   8.808  0.4575  0.2532  0.0188
  416MOL0     C57296   8.062   6.873   8.792  0.9460 -0.4634 -0.0033
  416MOL0     C57297   8.177   6.823   8.850  0.1509  0.5499  0.4020
  416MOL0     C57298   8.194   6.673   8.830  0.9793 -0.8252  0.3829
  416MOL0     C57299   8.252   6.910   8.934  0.3540  0.3733 -0.2173
  416MOL0     C57300   8.368   6.875   9.018  0.1064 -0.3310  0.4312
  416MOL0     O57301   8.441   6.974   9.073 -0.7068 -0.1080 -0.0869
  416MOL0     C57302   8.556   6.952   9.148 -0.4958 -0.1598 -0.2004
  416MOL0     C57303   8.657   6.872   9.104  0.8907  0.0351  0.3852
  416MOL0     C57304   8.764   6.842   9.180  0.1361 -0.0319 -0.4679
  416MOL0     C57305   8.782   6.899   9.302 -0.2907  0.1789 -0.5852
  416MOL0     O57306   8.895   6.871   9.378  0.4072 -0.5757  0.5897
  416MOL0     C57307   8.897   6.925   9.509 -0.3710  0.1240  0.7556
  416MOL0     C57308   9.013   6.867   9.590 -0.7881  0.2347  0.2008
  416MOL0     C57309   9.063   6.955   9.706  0.1005  0.2383  0.4315
  416MOL0     C57310   9.163   6.893   9.801  0.1512  0.2117  0.2703
  416MOL0     C57311   9.171   6.974   9.932 -0.8988 -0.7808 -0.3953
  416MOL0     C57312   9.280   6.909  10.016  0.0122 -0.1554 -0.2535
  416MOL0     C57313   9.325   6.996  10.132 -0.2974  0.7492 -0.3836
  416MOL0     C57314   9.455   6.939  10.194  0.0713  0.3922 -0.0318
  416MOL0    Cl57315   9.598   6.986  10.107  0.2490 -0.3839 -0.1688
  416MOL0     C57316   8.681   6.984   9.351  1.0208 -0.0422  0.1749
  416MOL0     C57317   8.564   7.008   9.272  0.0262 -0.3910 -0.1723
  416MOL0     O57318   8.400   6.759   9.023  0.1576  0.2546  0.2516
  416MOL0     C57319   8.224   7.043   8.940  0.4625 -0.3915 -0.5017
  416MOL0     C57320   8.117   7.100   8.875  0.0771 -0.5137 -0.4008
  416MOL0     N57321   7.430   7.435   8.971 -0.6311 -0.2747 -0.3178
  416MOL0     N57322   7.379   7.550   8.948  0.3856 -0.0111 -0.1451
  416MOL0     C57323   7.262   8.551   9.290 -0.5313  0.4657  0.4601
  416MOL0     C57324   7.251   8.680   9.271 -0.0044 -0.1144 -0.1549
  416MOL0     C57325   7.206   9.101   9.137  0.0091  0.0538  0.9333
  416MOL0     C57326   7.079   9.111   9.090  0.1166  0.4650 -0.0538
  416MOL0     C57327   7.035   9.227   9.029 -0.2859 -1.4349  0.2484
  416MOL0     C57328   7.112   9.337   9.001 -0.1833  0.4889 -0.2551
  416MOL0     O57329   7.046   9.449   8.943  0.4812  0.1415 -0.2573
  416MOL0     C57330   7.129   9.559   8.897 -0.5912  0.3812 -0.0954
  416MOL0     C57331   7.052   9.661   8.807 -0.3174 -0.3458 -0.5472
  416MOL0     C57332   7.143   9.775   8.767  0.1258 -0.2951 -0.0790
  416MOL0     C57333   7.062   9.864   8.672 -0.0319  1.2964  0.4933
  416MOL0     C57334   7.140   9.982   8.636  0.4432  1.1058  0.5625
  416MOL0     C57335   7.200  10.078   8.598 -0.2391  0.2530 -0.6169
  416MOL0     C57336   7.240   9.329   9.053 -0.1673  0.2928 -0.0263
  416MOL0     C57337   7.296   9.209   9.118 -0.4259 -0.1056  0.8712
  416MOL0     C57338   7.450   9.209   9.151  0.0849 -0.2061 -0.4081
  416MOL0     H57339   6.936   8.741   9.380  0.7087  2.1561 -1.4877
  416MOL0     H57340   6.941   8.502   9.410 -2.2712  1.9404 -2.7083
  416MOL0     H57341   6.976   8.280   9.402  0.8655 -0.6123 -2.5175
  416MOL0     H57342   7.068   8.333   9.541 -1.6856  1.7811 -0.1140
  416MOL0     H57343   7.227   8.150   9.530 -1.7710  0.1701  2.8395
  416MOL0     H57344   7.064   8.086   9.536  0.0975 -0.7337  0.8890
  416MOL0     H57345   7.053   8.069   9.292 -0.5729  0.3371  0.0110
  416MOL0     H57346   7.223   8.105   9.290 -1.6867  1.4800 -0.3059
  416MOL0     H57347   7.262   7.908   9.434  0.7287  1.8164 -1.1664
  416MOL0     H57348   7.085   7.858   9.405  0.1633 -0.4364 -0.3860
  416MOL0     H57349   7.102   7.844   9.178 -1.1609 -1.2391  1.4006
  416MOL0     H57350   7.195   7.725   9.253 -0.6729 -0.8119 -0.1675
  416MOL0     H57351   7.344   7.985   9.171 -0.6481 -0.4204 -4.2208
  416MOL0     H57352   7.416   7.825   9.209 -0.6072 -2.0029 -0.4056
  416MOL0     H57353   7.294   7.936   8.959 -1.0214 -1.6766 -1.5640
  416MOL0     H57354   7.237   7.778   8.994  0.4836 -0.5286  1.7334
  416MOL0     H57355   7.445   7.797   8.856 -0.6174 -1.6937 -0.3131
  416MOL0     H57356   7.531   7.856   9.002 -0.5006  1.4135 -0.6953
  416MOL0     H57357   7.663   7.643   9.085 -0.2197  0.9521 -0.7894
  416MOL0     H57358   7.628   7.253   9.067  3.8632 -1.0951 -0.8699
  416MOL0     H57359   7.743   7.384   9.095  0.7177  0.0606 -0.7928
  416MOL0     H57360   7.649   7.336   8.820 -1.5081  0.7839  1.2477
  416MOL0     H57361   7.792   7.415   8.868 -2.0309  1.2075  2.3740
  416MOL0     H57362   7.863   7.170   8.972 -0.0839 -3.0533 -1.0515
  416MOL0     H57363   7.719   7.131   8.877 -0.5091  0.0704  2.4266
  416MOL0     H57364   7.804   7.217   8.677  2.0360  0.2418 -0.6258
  416MOL0     H57365   7.964   7.259   8.745 -0.0329  0.6596  2.6539
  416MOL0     H57366   8.010   6.806   8.725 -0.3722 -0.3907  0.9172
  416MOL0     H57367   8.135   6.623   8.908  1.5363 -1.7908  0.2048
  416MOL0     H57368   8.300   6.645   8.823  1.0805 -0.3211 -0.1607
  416MOL0     H57369   8.158   6.641   8.732  0.4278  3.1470 -0.8800
  416MOL0     H57370   8.637   6.823   9.009  0.0296 -2.6951  1.8804
  416MOL0     H57371   8.852   6.783   9.156  2.4960  3.2285 -0.5424
  416MOL0     H57372   8.914   7.033   9.505 -1.2579  0.3284  1.9973
  416MOL0     H57373   8.802   6.907   9.559 -0.7513 -2.0294 -0.5912
  416MOL0     H57374   8.993   6.768   9.632  0.2700  1.0263  2.7863
  416MOL0     H57375   9.099   6.853   9.523 -2.4827  0.5929 -2.1748
  416MOL0     H57376   8.984   6.994   9.772  0.6724  1.2648  0.5459
  416MOL0     H57377   9.110   7.043   9.661 -0.3339 -0.6058 -1.7809
  416MOL0     H57378   9.260   6.888   9.749 -2.0660  2.4489 -4.7445
  416MOL0     H57379   9.124   6.794   9.825 -1.0520  0.9910  1.7027
  416MOL0     H57380   9.214   7.070   9.902  2.7345 -2.5282 -1.3070
  416MOL0     H57381   9.077   6.990   9.987 -0.2578  3.0020 -0.1555
  416MOL0     H57382   9.365   6.913   9.948 -1.3877 -1.6701 -2.2022
  416MOL0     H57383   9.247   6.807  10.037 -3.9117  0.9137 -0.5027
  416MOL0     H57384   9.240   6.998  10.201  0.8858  0.6531  1.1195
  416MOL0     H57385   9.338   7.100  10.102 -0.7734  1.4436  1.7174
  416MOL0     H57386   9.449   6.830  10.189 -1.1132  0.4040  0.6900
  416MOL0     H57387   9.462   6.956  10.302  1.3921  1.0806 -0.2020
  416MOL0     H57388   8.671   7.029   9.449 -0.4637  0.0914 -0.0241
  416MOL0     H57389   8.472   7.056   9.304  0.1755 -1.8005  2.6821
  416MOL0     H57390   8.280   7.126   8.980 -0.1837  0.4293 -1.2719
  416MOL0     H57391   8.091   7.204   8.891  1.4507 -0.2060  0.0055
  416MOL0     H57392   7.361   8.508   9.275 -0.6005  0.3853  0.2244
  416MOL0     H57393   7.341   8.722   9.228  0.6052 -0.9074  0.3357
  416MOL0     H57394   7.003   9.033   9.099  0.6240  0.1199  1.7701
  416MOL0     H57395   6.934   9.240   8.991 -0.0716 -1.6731 -0.4093
  416MOL0     H57396   7.161   9.601   8.993 -0.4247 -0.9293  0.4327
  416MOL0     H57397   7.215   9.535   8.832  0.3062 -1.2145  1.5940
  416MOL0     H57398   6.971   9.686   8.875  0.8038 -0.0889  0.7451
  416MOL0     H57399   7.014   9.606   8.720 -0.9866  0.7263 -0.9471
  416MOL0     H57400   7.171   9.833   8.856 -0.5897  2.3321 -1.4520
  416MOL0     H57401   7.236   9.745   8.717  1.5469  2.9477  0.3405
  416MOL0     H57402   6.971   9.893   8.725 -1.8817 -1.5289 -0.8912
  416MOL0     H57403   7.029   9.811   8.582  1.6797  0.0255  0.5681
  416MOL0     H57404   7.265  10.159   8.573  2.4466 -0.8258  2.2247
  416MOL0     H57405   7.305   9.415   9.044 -0.0273  0.0227 -2.2287
  416MOL0     H57406   7.467   9.204   9.259 -2.9614  1.1514  0.2453
  416MOL0     H57407   7.513   9.139   9.096  2.4814  3.2293 -2.4653
  416MOL0     H57408   7.493   9.302   9.112 -0.6006  0.0049 -0.6750
  417MOL0     O57409   6.602   2.444   0.756 -0.1099  0.0294  0.2017
  417MOL0     C57410   6.568   2.475   0.867  0.1079 -0.7076 -0.6928
  417MOL0     O57411   6.629   2.570   0.949  0.1363 -0.0460 -0.0172
  417MOL0     C57412   6.749   2.628   0.906  0.1248 -0.3196 -0.6492
  417MOL0     C57413   6.771   2.767   0.936 -0.4574 -0.3779 -0.1829
  417MOL0     C57414   6.900   2.813   0.902  0.4767 -0.5122  0.2087
  417MOL0     C57415   7.014   2.735   0.858  0.1170 -0.1867  0.1059
  417MOL0     O57416   7.131   2.800   0.848 -0.1992 -0.0331 -0.3525
  417MOL0     C57417   7.260   2.732   0.857  0.5055 -0.2486 -1.1393
  417MOL0     C57418   7.309   2.682   0.729 -0.4679 -0.2382  0.0246
  417MOL0     C57419   7.350   2.795   0.635  0.3404 -0.3265 -0.3542
  417MOL0     C57420   7.422   2.744   0.510 -0.1457  0.3993  0.4813
  417MOL0     C57421   7.453   2.854   0.405  0.7291  0.5388 -0.0076
  417MOL0     C57422   7.548   2.968   0.458  1.4948 -0.2938  0.5167
  417MOL0     C57423   7.564   3.062   0.343 -0.8174  0.2573  0.2745
  417MOL0     C57424   7.434   3.141   0.294 -0.1048 -0.1897 -0.8889
  417MOL0     N57425   7.471   3.234   0.191  0.5912  0.3310  0.3425
  417MOL0     C57426   7.430   3.367   0.199  0.3721  0.5033  0.0682
  417MOL0     C57427   7.447   3.412   0.073  0.7767  0.4924  0.1585
  417MOL0     C57428   7.412   3.551   0.021 -0.7226  0.3064 -0.0269
  417MOL0     C57429   7.439   3.664   0.118 -0.8782  0.4150  0.6704
  417MOL0     C57430   7.581   3.701   0.114 -0.5513 -0.6561 -0.9539
  417MOL0     C57431   7.680   3.610   0.185 -0.0563  0.2148 -0.2789
  417MOL0     O57432   7.636   3.574   0.322 -0.4016 -0.5961 -0.0277
  417MOL0     C57433   7.695   3.472   0.380  0.6585  0.4435  0.0743
  417MOL0     C57434   7.801   3.394   0.334 -0.3069 -0.7023  0.2945
  417MOL0     C57435   7.873   3.296   0.412  0.1598  0.1031  0.3510
  417MOL0     C57436   8.011   3.242   0.372  0.0071  0.0586 -0.1330
  417MOL0     C57437   7.816   3.260   0.537  0.0624 -0.2688  0.0585
  417MOL0     C57438   7.872   3.161   0.627  0.4636 -1.0729  0.2067
  417MOL0     O57439   8.003   3.168   0.648 -0.1636  1.2951 -0.8609
  417MOL0     C57440   8.080   3.077   0.718 -0.8646 -0.1515 -0.5877
  417MOL0     C57441   8.195   3.128   0.774 -0.7654 -1.1327  0.3116
  417MOL0     C57442   8.281   3.049   0.849  1.6388 -0.3736 -0.1407
  417MOL0     C57443   8.253   2.915   0.868 -0.4167 -0.7798 -0.8321
  417MOL0     O57444   8.341   2.849   0.951  0.3023  0.1910  0.0269
  417MOL0     C57445   8.306   2.717   0.997 -0.4094  0.2439 -0.0826
  417MOL0     C57446   8.369   2.698   1.135 -0.1237 -0.1944 -0.3758
  417MOL0     C57447   8.525   2.691   1.131 -0.1093  0.6803 -0.1518
  417MOL0     C57448   8.575   2.650   1.273  0.5023 -0.1879 -0.0309
  417MOL0     C57449   8.720   2.645   1.271 -0.2796 -0.8830  0.0201
  417MOL0     C57450   8.773   2.543   1.366 -0.3843  0.0323  0.4497
  417MOL0     C57451   8.923   2.566   1.359 -0.5644  0.0313  0.3705
  417MOL0     C57452   8.989   2.455   1.444  0.3774  0.3534 -0.2278
  417MOL0    Cl57453   8.954   2.290   1.363 -0.2963 -0.6877  0.2549
  417MOL0     C57454   8.149   2.859   0.799  0.4185  0.2869 -0.1472
  417MOL0     C57455   8.060   2.939   0.734  0.1181 -0.3317  0.2150
  417MOL0     O57456   7.791   3.085   0.679 -0.3318  0.5394  0.1956
  417MOL0     C57457   7.693   3.320   0.569  0.7102  0.8611  0.7586
  417MOL0     C57458   7.645   3.426   0.502 -0.4960 -0.3270 -0.2008
  417MOL0     N57459   7.507   3.310  -0.005  0.2125  0.0914  0.1117
  417MOL0     N57460   7.518   3.204   0.067 -0.0086 -0.0662 -0.6631
  417MOL0     C57461   6.985   2.597   0.848 -0.1309  0.0241  0.0463
  417MOL0     C57462   6.860   2.545   0.865 -0.6582 -0.8288 -0.3223
  417MOL0     C57463   6.444   2.422   0.917 -0.0237  0.7143 -0.0670
  417MOL0     C57464   6.366   2.502   1.009 -0.6637 -0.3623  0.1802
  417MOL0     C57465   6.249   2.449   1.067  0.7889 -0.0346  0.3814
  417MOL0     C57466   6.210   2.318   1.047 -0.4283 -0.3365 -0.0903
  417MOL0     O57467   6.091   2.272   1.107  0.5627 -0.3430 -0.4669
  417MOL0     C57468   6.016   2.159   1.053  0.1222 -0.1838  0.7005
  417MOL0     C57469   5.989   2.062   1.171 -0.6797  0.6359  0.0590
  417MOL0     C57470   5.910   1.937   1.140 -0.5432 -0.1061  0.1630
  417MOL0     C57471   5.770   1.942   1.086  0.2849 -0.6800 -0.0256
  417MOL0     C57472   5.666   1.977   1.188 -0.1703 -0.1682  0.2922
  417MOL0     C57473   5.576   2.010   1.256 -0.2289 -0.0001  0.6224
  417MOL0     C57474   6.293   2.240   0.967  0.2533  0.0360 -0.1464
  417MOL0     C57475   6.399   2.291   0.891 -0.0461  0.0780 -0.1776
  417MOL0     C57476   6.477   2.190   0.808 -0.1405  0.0731 -0.2267
  417MOL0     H57477   6.694   2.826   0.985 -1.2068 -1.9317  0.5783
  417MOL0     H57478   6.909   2.921   0.906 -1.4304 -0.2665 -0.8082
  417MOL0     H57479   7.251   2.649   0.928 -1.0741  2.5328  2.2431
  417MOL0     H57480   7.337   2.800   0.895  1.7390 -1.9744 -0.3970
  417MOL0     H57481   7.396   2.619   0.749  1.2258  2.1115  0.4579
  417MOL0     H57482   7.232   2.624   0.678  0.2438 -0.7068 -0.5389
  417MOL0     H57483   7.261   2.853   0.609 -0.1023 -0.3112  1.1141
  417MOL0     H57484   7.412   2.861   0.696 -0.1142 -1.5622  1.5301
  417MOL0     H57485   7.521   2.705   0.535 -0.1611 -1.7677 -2.3797
  417MOL0     H57486   7.359   2.666   0.469 -1.2771  2.7152 -2.5765
  417MOL0     H57487   7.358   2.886   0.361  1.5939  0.9236 -1.6479
  417MOL0     H57488   7.499   2.803   0.320 -1.2804  0.7878 -1.3227
  417MOL0     H57489   7.498   3.028   0.535  1.5766 -0.8417  1.0027
  417MOL0     H57490   7.647   2.930   0.485  0.9826 -0.4951  2.2360
  417MOL0     H57491   7.601   2.998   0.262 -1.2385 -1.7896  1.6338
  417MOL0     H57492   7.644   3.131   0.372  2.6057 -2.1415 -2.4779
  417MOL0     H57493   7.358   3.069   0.265  0.1675 -1.1884  0.7429
  417MOL0     H57494   7.385   3.190   0.379 -1.8780 -5.1524  1.3475
  417MOL0     H57495   7.396   3.412   0.292  2.3350  0.3578  0.9137
  417MOL0     H57496   7.307   3.548  -0.010 -0.8167  1.1553  0.1664
  417MOL0     H57497   7.472   3.572  -0.068 -0.6367 -0.1010 -0.0653
  417MOL0     H57498   7.380   3.745   0.074 -0.2841 -0.5247 -2.0384
  417MOL0     H57499   7.399   3.645   0.218 -0.6005  1.0003  0.8966
  417MOL0     H57500   7.611   3.712   0.009 -1.9290  1.1568 -1.2079
  417MOL0     H57501   7.585   3.800   0.159 -4.2488 -0.8847  0.2570
  417MOL0     H57502   7.685   3.523   0.119 -1.1253  1.4874 -2.1211
  417MOL0     H57503   7.780   3.654   0.187  0.7119 -1.4642 -0.0249
  417MOL0     H57504   7.852   3.431   0.246 -0.3823 -0.8589  0.1841
  417MOL0     H57505   8.088   3.282   0.439  0.0199 -2.5173  1.5351
  417MOL0     H57506   8.044   3.260   0.269  4.2915  0.4691  1.0891
  417MOL0     H57507   8.003   3.135   0.390  1.5802  0.0188  0.5449
  417MOL0     H57508   8.211   3.234   0.754  0.2969 -0.8233  2.4552
  417MOL0     H57509   8.370   3.088   0.897  0.5517  0.0569  1.6354
  417MOL0     H57510   8.200   2.694   1.009 -0.5640  1.5509  1.3021
  417MOL0     H57511   8.344   2.634   0.936 -2.4598 -2.0825  1.5916
  417MOL0     H57512   8.351   2.788   1.196  0.2427  0.5937 -1.4103
  417MOL0     H57513   8.321   2.616   1.189 -1.5275  1.8940  1.7652
  417MOL0     H57514   8.564   2.790   1.106  2.9680 -0.0109  1.4753
  417MOL0     H57515   8.564   2.621   1.057 -3.8961 -3.5907  1.4644
  417MOL0     H57516   8.533   2.552   1.299  3.0090 -1.1809  0.5552
  417MOL0     H57517   8.529   2.719   1.344  3.7728  2.2280 -0.0445
  417MOL0     H57518   8.749   2.608   1.172  0.2648 -0.6614  0.0906
  417MOL0     H57519   8.748   2.751   1.278 -4.8214  0.5746 -0.9132
  417MOL0     H57520   8.734   2.444   1.341 -0.3243  0.0232  0.3911
  417MOL0     H57521   8.742   2.564   1.469 -2.4648  0.6682 -0.2596
  417MOL0     H57522   8.944   2.669   1.390  1.9198 -0.1618 -0.4229
  417MOL0     H57523   8.966   2.550   1.260  0.5810 -1.8540  1.1200
  417MOL0     H57524   8.949   2.448   1.546 -0.6515  2.6934 -0.4128
  417MOL0     H57525   9.098   2.465   1.455  0.4689  0.5798 -1.2556
  417MOL0     H57526   8.125   2.753   0.795 -1.2777  0.3709  3.5418
  417MOL0     H57527   7.981   2.902   0.669  1.1762  0.8587 -1.8451
  417MOL0     H57528   7.636   3.274   0.650 -0.9122 -0.9288 -1.2637
  417MOL0     H57529   7.551   3.472   0.530 -0.0543  0.7111 -0.3755
  417MOL0     H57530   7.064   2.523   0.837  1.5699  2.1296 -4.7695
  417MOL0     H57531   6.847   2.438   0.851 -1.0354 -0.9801  1.0573
  417MOL0     H57532   6.398   2.601   1.039 -0.1065 -0.4800 -0.0139
  417MOL0     H57533   6.184   2.507   1.132  1.6570  0.0402  1.1931
  417MOL0     H57534   5.919   2.196   1.018  0.3964  0.4163  0.5537
  417MOL0     H57535   6.057   2.102   0.969  0.5164  0.5254  0.3940
  417MOL0     H57536   5.935   2.110   1.253  0.6838 -1.6570  2.4796
  417MOL0     H57537   6.091   2.039   1.203 -0.4967 -0.1537 -1.0410
  417MOL0     H57538   5.980   1.894   1.068  3.1757 -1.9939  4.4245
  417MOL0     H57539   5.913   1.872   1.228  2.0713  1.4311  1.2971
  417MOL0     H57540   5.752   1.842   1.046  3.0093 -0.6384 -1.5556
  417MOL0     H57541   5.758   2.015   1.006 -0.9940 -3.1244 -2.2290
  417MOL0     H57542   5.498   2.044   1.321 -1.0848  4.5844 -2.3400
  417MOL0     H57543   6.270   2.134   0.962  1.2842 -0.3440  2.0957
  417MOL0     H57544   6.573   2.196   0.859 -0.8400 -0.7578  1.2464
  417MOL0     H57545   6.444   2.086   0.810  0.5002 -0.1866 -1.8289
  417MOL0     H57546   6.488   2.221   0.703 -1.4607  6.5412  1.1115
  418MOL0     O57547   5.038   0.885   5.244 -0.2723 -0.5432  0.3651
  418MOL0     C57548   5.015   0.763   5.231  0.3601  0.4925  0.8119
  418MOL0     O57549   5.071   0.671   5.309 -0.7521  0.4698  0.6309
  418MOL0     C57550   5.167   0.709   5.388 -0.4840 -0.4300 -0.6992
  418MOL0     C57551   5.294   0.755   5.337  0.2178  0.1130  0.3746
  418MOL0     C57552   5.399   0.788   5.420  0.4561  0.0626  0.2495
  418MOL0     C57553   5.378   0.765   5.558  0.4169  0.2221 -0.2144
  418MOL0     O57554   5.468   0.776   5.658 -0.3015 -0.1132  0.3637
  418MOL0     C57555   5.607   0.813   5.621  0.1330  0.3776 -0.4653
  418MOL0     C57556   5.685   0.689   5.575  0.6209  1.1394  0.3466
  418MOL0     C57557   5.828   0.717   5.556 -0.2261 -0.3162 -0.2735
  418MOL0     C57558   5.899   0.760   5.683  0.0354  0.7787 -0.7339
  418MOL0     C57559   6.044   0.784   5.644 -0.5007  0.1239 -0.3215
  418MOL0     C57560   6.128   0.819   5.766 -0.3634 -0.0784  0.1745
  418MOL0     C57561   6.269   0.825   5.723 -0.6823 -0.4215 -0.0028
  418MOL0     C57562   6.364   0.834   5.847  0.4615  0.6015 -0.3671
  418MOL0     N57563   6.507   0.831   5.796  1.0420  0.0884  0.0972
  418MOL0     C57564   6.569   0.942   5.741  0.1930 -0.3512 -0.1247
  418MOL0     C57565   6.702   0.909   5.731 -0.4693 -0.9813 -0.6520
  418MOL0     C57566   6.813   0.999   5.684 -0.3575 -0.1628 -1.0768
  418MOL0     C57567   6.840   1.116   5.774 -0.5772 -0.1580  0.0440
  418MOL0     C57568   6.894   1.064   5.908  0.3613  0.6015 -1.1510
  418MOL0     C57569   6.937   1.182   6.007 -0.4409  0.3421  0.1928
  418MOL0     O57570   7.034   1.269   5.951  0.8296 -1.0675  0.0248
  418MOL0     C57571   7.154   1.287   6.015 -0.7706 -0.1082 -0.3859
  418MOL0     C57572   7.245   1.177   6.027  0.4290  0.5106  0.1590
  418MOL0     C57573   7.370   1.182   6.093  0.4913  0.0658  0.5798
  418MOL0     C57574   7.456   1.057   6.096 -0.3333  1.2742 -1.0255
  418MOL0     C57575   7.415   1.302   6.148 -0.4889  0.7434 -0.4107
  418MOL0     C57576   7.546   1.332   6.212  0.7315 -0.2974 -0.8170
  418MOL0     O57577   7.560   1.444   6.295  0.3229 -0.7007 -0.1168
  418MOL0     C57578   7.690   1.496   6.306 -0.2989  0.7845  0.4373
  418MOL0     C57579   7.741   1.579   6.206  0.6504  0.3250 -0.6337
  418MOL0     C57580   7.871   1.625   6.216 -0.4223  0.2216 -0.0100
  418MOL0     C57581   7.949   1.592   6.321 -0.5437  0.0964 -0.7229
  418MOL0     O57582   8.077   1.636   6.328  0.0205  0.3055 -0.4770
  418MOL0     C57583   8.161   1.594   6.215 -0.2311 -0.2118 -0.2504
  418MOL0     C57584   8.281   1.525   6.279 -0.4308  0.6524  0.8069
  418MOL0     C57585   8.418   1.599   6.289 -0.5164 -0.8664 -0.2544
  418MOL0     C57586   8.526   1.509   6.247  0.6316 -0.8336 -0.1705
  418MOL0     C57587   8.569   1.407   6.352  0.9513  0.3617  0.2736
  418MOL0     C57588   8.712   1.371   6.331 -0.9573  1.2562  0.9110
  418MOL0     C57589   8.760   1.253   6.415 -0.3541  0.2763 -0.0117
  418MOL0     C57590   8.705   1.115   6.375 -0.0693 -1.1395  1.1750
  418MOL0    Cl57591   8.744   1.097   6.198  0.0921  0.0319 -0.1520
  418MOL0     C57592   7.908   1.503   6.414  0.1693 -0.1536  0.6291
  418MOL0     C57593   7.778   1.460   6.413 -0.0766 -0.2196  0.1113
  418MOL0     O57594   7.630   1.263   6.177 -0.4362  0.0199  0.1692
  418MOL0     C57595   7.327   1.412   6.146  0.0168 -1.3993 -0.4025
  418MOL0     C57596   7.203   1.404   6.083 -0.1381  0.3369  0.6552
  418MOL0     N57597   6.709   0.781   5.778  0.2779 -0.3333 -0.1828
  418MOL0     N57598   6.596   0.732   5.821 -0.2422 -0.3950  0.8342
  418MOL0     C57599   5.264   0.710   5.611  0.1754 -0.9760  0.4510
  418MOL0     C57600   5.154   0.684   5.523 -0.3732  0.3497 -0.3401
  418MOL0     C57601   4.916   0.719   5.127  0.1602  0.0544  0.6285
  418MOL0     C57602   4.950   0.597   5.059 -0.3773  0.2220 -0.5452
  418MOL0     C57603   4.863   0.529   4.974  0.1022 -0.7435  0.7635
  418MOL0     C57604   4.732   0.583   4.950  0.1715 -0.2142  0.5113
  418MOL0     O57605   4.625   0.523   4.893  0.0582  0.7425  0.4722
  418MOL0     C57606   4.627   0.382   4.882 -0.4378 -0.0189  0.9690
  418MOL0     C57607   4.492   0.326   4.845 -0.3455  0.6233  0.0442
  418MOL0     C57608   4.419   0.424   4.740  0.1080 -0.0037 -0.5009
  418MOL0     C57609   4.501   0.441   4.614  0.4671  0.1211  0.8779
  418MOL0     C57610   4.537   0.309   4.552 -0.2629 -0.6939 -0.2512
  418MOL0     C57611   4.568   0.210   4.494  0.3572 -0.1517  0.2930
  418MOL0     C57612   4.713   0.716   5.000 -0.8394 -0.0120 -0.8779
  418MOL0     C57613   4.795   0.787   5.091  0.4326  1.5577  0.7577
  418MOL0     C57614   4.749   0.901   5.166 -0.0080  0.3409 -0.1149
  418MOL0     H57615   5.314   0.774   5.232  1.2566 -0.2222  0.4997
  418MOL0     H57616   5.493   0.825   5.380  0.4717  1.6903  1.6843
  418MOL0     H57617   5.650   0.848   5.716  1.1572  1.6141 -1.3437
  418MOL0     H57618   5.605   0.893   5.546  1.6221  3.8614  2.8651
  418MOL0     H57619   5.676   0.613   5.654 -0.5008  0.4110 -0.4515
  418MOL0     H57620   5.626   0.644   5.495 -0.7151  0.3342  1.7217
  418MOL0     H57621   5.885   0.629   5.527  2.5545  1.1447  0.3948
  418MOL0     H57622   5.840   0.784   5.470  0.1743 -1.1507 -0.8743
  418MOL0     H57623   5.863   0.854   5.726 -1.3541  0.2033 -0.6035
  418MOL0     H57624   5.900   0.680   5.758 -0.8213 -0.4104 -1.9502
  418MOL0     H57625   6.057   0.860   5.566  1.5698  0.4806  0.3101
  418MOL0     H57626   6.081   0.693   5.597  1.1858  0.0247  1.0923
  418MOL0     H57627   6.109   0.920   5.804  0.5531  0.5753 -1.0471
  418MOL0     H57628   6.114   0.741   5.842  1.5625 -0.4745  0.1602
  418MOL0     H57629   6.287   0.904   5.648 -2.5664  2.7952  2.6369
  418MOL0     H57630   6.301   0.733   5.673 -2.6406  0.0667 -2.3673
  418MOL0     H57631   6.364   0.930   5.898  2.6455  0.7531 -0.5711
  418MOL0     H57632   6.347   0.749   5.914  1.0291 -0.0647 -1.0405
  418MOL0     H57633   6.519   1.035   5.717  1.0227  0.7978  2.2709
  418MOL0     H57634   6.798   1.032   5.581  1.9253 -0.0785 -1.4218
  418MOL0     H57635   6.901   0.936   5.680  0.3356  0.8327 -2.4315
  418MOL0     H57636   6.920   1.167   5.719  0.6454 -0.4995  1.4350
  418MOL0     H57637   6.759   1.189   5.782  0.1831  0.5102  4.0395
  418MOL0     H57638   6.821   1.004   5.963  2.5882 -1.1331  0.0597
  418MOL0     H57639   6.971   0.987   5.902  0.4001  0.6028 -0.7231
  418MOL0     H57640   6.841   1.233   6.016 -2.1222 -1.9766 -2.6917
  418MOL0     H57641   6.982   1.141   6.098 -0.2076 -2.8707 -1.2338
  418MOL0     H57642   7.211   1.082   5.988  1.0283  0.4465 -0.2247
  418MOL0     H57643   7.529   1.057   6.015 -0.8031  2.0768 -1.4586
  418MOL0     H57644   7.402   0.967   6.065 -0.9336  1.7357 -1.3156
  418MOL0     H57645   7.507   1.046   6.192 -2.1740 -1.5285 -0.2424
  418MOL0     H57646   7.680   1.582   6.117 -0.9741  0.4595  0.4461
  418MOL0     H57647   7.905   1.687   6.133  0.1099 -0.5000 -0.3401
  418MOL0     H57648   8.105   1.530   6.145 -0.0763 -1.9713  1.1510
  418MOL0     H57649   8.195   1.679   6.156  0.6503 -1.4535 -1.5998
  418MOL0     H57650   8.250   1.481   6.374  1.9781 -1.1504  0.8472
  418MOL0     H57651   8.290   1.437   6.214  0.3577  2.0970 -1.1256
  418MOL0     H57652   8.439   1.639   6.389  2.0052  4.1423 -2.4101
  418MOL0     H57653   8.425   1.673   6.209  1.3960  0.5311  1.1036
  418MOL0     H57654   8.619   1.564   6.227 -1.4200  3.7345  1.5135
  418MOL0     H57655   8.510   1.463   6.149 -0.0977 -1.8123  0.3857
  418MOL0     H57656   8.549   1.437   6.455 -2.4046 -0.1985 -0.1064
  418MOL0     H57657   8.507   1.322   6.324  1.4444  0.5261 -1.4545
  418MOL0     H57658   8.771   1.457   6.364  0.4222  0.3333  0.9380
  418MOL0     H57659   8.733   1.346   6.226 -4.0191 -2.3809  0.9709
  418MOL0     H57660   8.731   1.273   6.518 -1.5743  1.5893 -0.5776
  418MOL0     H57661   8.867   1.233   6.413 -0.2070  0.9833  0.4034
  418MOL0     H57662   8.600   1.093   6.398 -0.1715 -2.5562 -0.4284
  418MOL0     H57663   8.755   1.034   6.429 -1.4027 -1.5095  1.9057
  418MOL0     H57664   7.980   1.469   6.487  0.9185  1.7342  0.8292
  418MOL0     H57665   7.754   1.386   6.489 -1.5610  0.6167  0.4883
  418MOL0     H57666   7.351   1.513   6.176  0.2611 -1.2070 -1.2242
  418MOL0     H57667   7.149   1.497   6.069  0.6243  0.7411  0.3516
  418MOL0     H57668   5.260   0.692   5.718 -3.4812 -0.8994  0.4466
  418MOL0     H57669   5.062   0.639   5.559  0.4453 -0.3209  0.9821
  418MOL0     H57670   5.043   0.555   5.096 -0.4901  2.4075  2.6518
  418MOL0     H57671   4.886   0.430   4.937  2.4439  0.1763 -0.4218
  418MOL0     H57672   4.701   0.350   4.809  1.8314  1.7938  2.3571
  418MOL0     H57673   4.668   0.345   4.976  0.8565  1.5448  1.0694
  418MOL0     H57674   4.430   0.302   4.932  0.6735 -2.3536  0.0942
  418MOL0     H57675   4.494   0.227   4.797 -0.6173  0.2363  0.8141
  418MOL0     H57676   4.316   0.390   4.724 -0.1894 -0.6462  2.3835
  418MOL0     H57677   4.412   0.522   4.788 -1.9850  0.0708 -0.8758
  418MOL0     H57678   4.594   0.494   4.636  0.2988  1.9855 -2.3691
  418MOL0     H57679   4.453   0.508   4.543  2.8726  1.8388  0.7584
  418MOL0     H57680   4.573   0.123   4.431  2.0094  0.5373 -0.6002
  418MOL0     H57681   4.614   0.761   4.993 -0.7406  1.1160  2.8094
  418MOL0     H57682   4.815   0.988   5.169  1.6160 -0.7060 -2.4883
  418MOL0     H57683   4.657   0.932   5.115 -1.5348 -0.9333  1.6939
  418MOL0     H57684   4.705   0.893   5.266 -3.3297  2.1702 -1.2538
  419MOL0     O57685   0.165   9.682   6.464  0.3251 -0.4475 -0.1605
  419MOL0     C57686   0.138   9.689   6.581 -0.1289 -0.4052  0.5346
  419MOL0     O57687   0.224   9.701   6.686  0.0314 -0.2176  0.2419
  419MOL0     C57688   0.362   9.723   6.669 -0.4753 -0.7122  0.3784
  419MOL0     C57689   0.457   9.657   6.749  0.0955  0.2947 -0.0868
  419MOL0     C57690   0.592   9.679   6.739 -1.2424  0.5565 -0.5668
  419MOL0     C57691   0.630   9.787   6.657  0.4684  0.1307  0.2264
  419MOL0     O57692   0.753   9.844   6.662  0.1614 -0.4107  0.0574
  419MOL0     C57693   0.835   9.828   6.777  0.1785  0.4144  0.6739
  419MOL0     C57694   0.944   9.931   6.770  0.0717  0.2121 -0.2241
  419MOL0     C57695   1.042   9.924   6.885  0.4347 -0.3171 -0.7705
  419MOL0     C57696   0.992   9.979   7.023 -0.6240  0.0148  0.9883
  419MOL0     C57697   1.077   9.925   7.141 -1.2449 -0.2248 -0.3560
  419MOL0     C57698   1.184  10.035   7.177 -0.5895 -0.6248 -0.6001
  419MOL0     C57699   1.289   9.995   7.281  0.4246  1.4157  0.2759
  419MOL0     C57700   1.398  10.113   7.258  0.8492  1.1920  1.1149
  419MOL0     N57701   1.362  10.239   7.314  0.3903 -0.1328 -0.1278
  419MOL0     C57702   1.371  10.280   7.443 -0.1884 -0.6389 -0.4343
  419MOL0     C57703   1.355  10.414   7.439 -0.7955 -0.0086  0.2489
  419MOL0     C57704   1.359  10.496   7.565  0.0273  0.0470  0.6537
  419MOL0     C57705   1.343  10.642   7.529  0.6041 -0.6888  0.2234
  419MOL0     C57706   1.473  10.703   7.473 -0.3087  0.2967 -0.6298
  419MOL0     C57707   1.431  10.846   7.423 -0.0526 -0.0966 -0.7886
  419MOL0     O57708   1.385  10.934   7.533  0.4434  1.0510  0.1807
  419MOL0     C57709   1.392  11.068   7.527 -0.0380 -0.2191  0.2507
  419MOL0     C57710   1.329  11.134   7.636  0.1650 -0.0922  0.3052
  419MOL0     C57711   1.347  11.274   7.652  0.4123  0.2891 -0.5242
  419MOL0     C57712   1.286  11.333   7.771 -0.0144 -0.5685 -0.7258
  419MOL0     C57713   1.428  11.344   7.555 -0.7038 -0.1424  0.3856
  419MOL0     C57714   1.484  11.481   7.567 -0.1059 -0.1118  0.5170
  419MOL0     O57715   1.547  11.550   7.460  0.3909  0.0515  0.0414
  419MOL0     C57716   1.589  11.681   7.493 -0.6611 -0.6797  0.2507
  419MOL0     C57717   1.716  11.717   7.558  0.5592 -0.0623 -0.6724
  419MOL0     C57718   1.748  11.856   7.577 -0.9069 -0.8376 -0.2004
  419MOL0     C57719   1.665  11.958   7.535  0.8275 -0.3933  0.6770
  419MOL0     O57720   1.691  12.088   7.561 -0.5909 -0.5509  0.1995
  419MOL0     C57721   1.626  12.199   7.492  0.0471  0.5228  1.1181
  419MOL0     C57722   1.699  12.324   7.497 -0.6697  1.2644  0.0988
  419MOL0     C57723   1.610  12.439   7.551 -0.6148  0.6550 -0.4669
  419MOL0     C57724   1.537  12.502   7.430  0.1501  0.5280 -0.3461
  419MOL0     C57725   1.439  12.616   7.477  0.2047  0.0647 -0.3118
  419MOL0     C57726   1.404  12.686   7.339 -0.1850 -0.1370 -0.3087
  419MOL0     C57727   1.278  12.778   7.360  0.4809 -0.7375  0.5997
  419MOL0     C57728   1.245  12.839   7.218 -0.8028 -0.0676  0.3321
  419MOL0    Cl57729   1.081  12.915   7.212  0.0762 -0.0071 -0.1692
  419MOL0     C57730   1.541  11.928   7.473  0.8106  0.9647 -1.2653
  419MOL0     C57731   1.505  11.784   7.455 -0.0208 -0.9336  0.5609
  419MOL0     O57732   1.478  11.524   7.680 -0.2864 -0.0644  0.4372
  419MOL0     C57733   1.473  11.282   7.441 -0.6779 -0.2824  0.1024
  419MOL0     C57734   1.455  11.143   7.421  0.1249  0.2357 -0.3716
  419MOL0     N57735   1.332  10.457   7.313  0.0326  0.4923 -0.0360
  419MOL0     N57736   1.338  10.351   7.243  0.0585  0.0360  0.3472
  419MOL0     C57737   0.541   9.861   6.582 -0.9916  0.5124 -0.0652
  419MOL0     C57738   0.403   9.830   6.581 -0.0168 -0.8764  0.4443
  419MOL0     C57739  -0.016   9.688   6.610 -0.0839 -0.8402  0.0517
  419MOL0     C57740  -0.064   9.690   6.748  0.9401  0.5659  0.2138
  419MOL0     C57741  -0.198   9.694   6.783  0.1980 -0.1635 -0.3229
  419MOL0     C57742  -0.293   9.674   6.686  0.4674  0.1026 -0.7621
  419MOL0     O57743  -0.428   9.684   6.715 -0.4021  0.0164  0.2110
  419MOL0     C57744  -0.466   9.693   6.855  1.0079 -0.6351 -0.8787
  419MOL0     C57745  -0.609   9.665   6.879 -0.7221 -0.0210 -0.7842
  419MOL0     C57746  -0.646   9.510   6.878 -0.7415  0.1453 -0.8930
  419MOL0     C57747  -0.792   9.496   6.889  0.0158  0.1209 -0.0190
  419MOL0     C57748  -0.823   9.353   6.892  0.1743 -0.4416 -0.1523
  419MOL0     C57749  -0.845   9.235   6.882  1.2279 -0.3802  0.3079
  419MOL0     C57750  -0.256   9.663   6.553 -0.1900  0.2459 -0.4081
  419MOL0     C57751  -0.118   9.673   6.510 -0.5538 -0.0200  0.5490
  419MOL0     C57752  -0.110   9.678   6.355 -0.3715 -0.6056 -0.1354
  419MOL0     H57753   0.423   9.585   6.823 -0.3428  0.3038 -0.2737
  419MOL0     H57754   0.660   9.620   6.800  0.2884  1.5440 -1.2536
  419MOL0     H57755   0.869   9.724   6.785  0.5791  0.7022  3.8366
  419MOL0     H57756   0.767   9.843   6.861 -2.8721 -1.5121 -1.2430
  419MOL0     H57757   1.000   9.925   6.677  0.5191 -0.3652  0.0766
  419MOL0     H57758   0.905  10.033   6.771  0.7822  0.4883  0.9078
  419MOL0     H57759   1.076   9.820   6.890 -0.0143 -0.5150 -1.7045
  419MOL0     H57760   1.132   9.981   6.860  0.1310 -0.1254 -1.4387
  419MOL0     H57761   0.984  10.088   7.019 -0.1881  0.0614  1.3616
  419MOL0     H57762   0.892   9.937   7.038 -0.3709 -0.7908  0.4449
  419MOL0     H57763   1.121   9.826   7.124  2.5591  1.1084  0.7794
  419MOL0     H57764   0.996   9.918   7.214 -2.2104  0.1380 -1.3686
  419MOL0     H57765   1.235  10.045   7.081 -1.2552  1.5130 -0.7810
  419MOL0     H57766   1.151  10.133   7.213  0.9494 -1.0656  2.2827
  419MOL0     H57767   1.328   9.893   7.272 -1.5505  0.6021  0.5534
  419MOL0     H57768   1.237  10.000   7.377 -0.6501 -2.9842  0.1320
  419MOL0     H57769   1.492  10.091   7.309 -0.2424  0.0556  2.7236
  419MOL0     H57770   1.435  10.116   7.155  1.0386 -0.6343  1.0971
  419MOL0     H57771   1.375  10.224   7.535  0.7862  0.7446  0.4039
  419MOL0     H57772   1.452  10.478   7.619  0.8253 -2.5806 -1.4019
  419MOL0     H57773   1.277  10.469   7.632 -2.5493  2.9406 -1.0874
  419MOL0     H57774   1.263  10.644   7.454  0.9478  0.4715 -0.1240
  419MOL0     H57775   1.314  10.691   7.622 -0.8705 -1.7821  0.3859
  419MOL0     H57776   1.557  10.699   7.542  0.5924 -0.8461 -1.7429
  419MOL0     H57777   1.498  10.660   7.375 -1.4295  0.7393 -1.1292
  419MOL0     H57778   1.530  10.873   7.383 -0.0200 -0.6826 -1.1022
  419MOL0     H57779   1.364  10.842   7.337  1.4262 -0.3830 -1.9711
  419MOL0     H57780   1.268  11.072   7.701 -1.2868  1.9033  0.9288
  419MOL0     H57781   1.225  11.264   7.829  1.0769 -0.6932  0.3064
  419MOL0     H57782   1.228  11.420   7.740  1.5294 -0.0491 -2.3102
  419MOL0     H57783   1.362  11.364   7.843  1.1908 -3.4713 -0.6408
  419MOL0     H57784   1.786  11.640   7.588 -0.2643 -0.8821 -0.8192
  419MOL0     H57785   1.839  11.880   7.632  0.5158 -1.0760 -2.3385
  419MOL0     H57786   1.605  12.176   7.387 -0.4619 -1.2650  1.5825
  419MOL0     H57787   1.526  12.214   7.535  0.3544  0.2858  1.9322
  419MOL0     H57788   1.787  12.312   7.561  0.1047 -0.1965 -1.1746
  419MOL0     H57789   1.734  12.344   7.395 -1.3639 -0.8536 -0.6177
  419MOL0     H57790   1.668  12.507   7.614  1.8584 -0.6228 -1.2410
  419MOL0     H57791   1.534  12.403   7.621 -1.5997  3.3078 -0.0686
  419MOL0     H57792   1.488  12.429   7.366 -1.1590  1.2622 -0.2189
  419MOL0     H57793   1.603  12.549   7.357 -1.3214  1.3564 -1.1804
  419MOL0     H57794   1.344  12.584   7.520 -0.4155  2.0359 -0.1270
  419MOL0     H57795   1.492  12.673   7.554 -1.5231 -1.2078  1.9578
  419MOL0     H57796   1.378  12.604   7.271 -1.3872  0.5395 -0.7019
  419MOL0     H57797   1.493  12.742   7.311  0.9974 -1.2067  1.1243
  419MOL0     H57798   1.304  12.855   7.433 -1.8907 -0.5856  1.3711
  419MOL0     H57799   1.202  12.718   7.410 -0.1214 -0.7193 -0.2607
  419MOL0     H57800   1.237  12.764   7.138 -3.3035 -0.0421  0.4813
  419MOL0     H57801   1.315  12.918   7.189 -0.3922 -0.9213 -1.1247
  419MOL0     H57802   1.466  12.004   7.454  0.3902  1.0627  0.6099
  419MOL0     H57803   1.416  11.759   7.399 -0.1615 -0.2637  0.4752
  419MOL0     H57804   1.526  11.335   7.363  1.0540 -2.9737 -0.6771
  419MOL0     H57805   1.485  11.100   7.326 -0.7729 -0.1567 -0.4880
  419MOL0     H57806   0.592   9.939   6.526 -0.9414  0.7705  0.3349
  419MOL0     H57807   0.333   9.882   6.516  0.0059  0.8212  1.6938
  419MOL0     H57808   0.006   9.680   6.830  0.6479 -0.1285  0.3852
  419MOL0     H57809  -0.225   9.692   6.888 -0.8368  1.3729 -0.5369
  419MOL0     H57810  -0.410   9.617   6.911  0.2410  0.0614  0.9202
  419MOL0     H57811  -0.428   9.786   6.899  1.5682 -1.3218  0.1179
  419MOL0     H57812  -0.672   9.712   6.803 -0.7559  1.3742  0.0703
  419MOL0     H57813  -0.630   9.713   6.975 -2.1018 -0.6658 -0.7325
  419MOL0     H57814  -0.626   9.465   6.780 -2.0582  0.9662 -1.5741
  419MOL0     H57815  -0.575   9.460   6.944  1.0157  1.9422 -1.3044
  419MOL0     H57816  -0.845   9.545   6.807 -0.9660 -0.1484  0.4384
  419MOL0     H57817  -0.827   9.536   6.984  1.4415  0.0931  0.5359
  419MOL0     H57818  -0.872   9.131   6.877 -0.4477 -0.1049  2.3619
  419MOL0     H57819  -0.342   9.657   6.488 -1.2297  1.6051  0.7728
  419MOL0     H57820  -0.096   9.575   6.322  3.1445 -0.4257  0.4918
  419MOL0     H57821  -0.202   9.724   6.316  0.2750  0.2268 -0.7166
  419MOL0     H57822  -0.029   9.744   6.324 -0.6536  0.5882  1.5547
  420MOL0     O57823   9.875  10.506   0.527 -0.7407  0.3174  0.4206
  420MOL0     C57824   9.780  10.576   0.489  1.1496 -0.5913  0.5655
  420MOL0     O57825   9.793  10.709   0.456  0.7300 -0.1223 -0.8014
  420MOL0     C57826   9.910  10.761   0.401  1.3530  0.3817  0.9549
  420MOL0     C57827   9.975  10.862   0.469 -0.3728 -1.2241 -0.6179
  420MOL0     C57828  10.100  10.910   0.415  0.3349  0.2238 -0.1119
  420MOL0     C57829  10.162  10.856   0.305  0.5435 -0.7160  0.0292
  420MOL0     O57830  10.276  10.915   0.254  0.8813 -0.4632 -0.0733
  420MOL0     C57831  10.385  10.911   0.342  0.4582 -1.4036  0.7885
  420MOL0     C57832  10.419  10.768   0.371  0.0109  0.1862  1.1200
  420MOL0     C57833  10.567  10.754   0.420  0.8433  0.8036 -0.9370
  420MOL0     C57834  10.594  10.616   0.480  0.4313 -0.4788 -0.2096
  420MOL0     C57835  10.718  10.601   0.568 -0.5731  0.5745 -0.3718
  420MOL0     C57836  10.718  10.470   0.650 -0.0679  0.5428 -0.1743
  420MOL0     C57837  10.820  10.489   0.760  1.0986 -0.6363  0.4972
  420MOL0     C57838  10.837  10.364   0.862 -0.7726  0.2368 -0.9158
  420MOL0     N57839  10.959  10.373   0.950  1.0828  0.0142  0.0929
  420MOL0     C57840  11.048  10.269   0.964 -0.0389  0.1912  0.0272
  420MOL0     C57841  11.127  10.312   1.069 -0.0358  0.0049  0.5765
  420MOL0     C57842  11.245  10.241   1.124 -0.0605  0.2036  0.1055
  420MOL0     C57843  11.373  10.309   1.074 -0.3375  0.1582 -0.3746
  420MOL0     C57844  11.398  10.291   0.932  0.4978  0.0448  0.9719
  420MOL0     C57845  11.497  10.392   0.883 -1.0885 -0.0991 -0.3870
  420MOL0     O57846  11.442  10.529   0.858 -0.3289  0.2910  0.7207
  420MOL0     C57847  11.453  10.574   0.732  0.8458  0.4298 -0.0507
  420MOL0     C57848  11.336  10.566   0.647 -0.2213 -0.2509 -0.2988
  420MOL0     C57849  11.351  10.605   0.512  0.5220  0.2648  0.1177
  420MOL0     C57850  11.219  10.620   0.436 -0.0081  0.2418  0.3620
  420MOL0     C57851  11.470  10.677   0.469 -0.5015  1.0983 -0.7351
  420MOL0     C57852  11.482  10.740   0.339  0.7386  0.3084 -0.3273
  420MOL0     O57853  11.537  10.869   0.331  0.3167  0.8301  0.2129
  420MOL0     C57854  11.493  10.937   0.214 -0.0492  0.7655  0.0507
  420MOL0     C57855  11.568  10.932   0.091 -0.0720 -0.3814  0.4261
  420MOL0     C57856  11.509  10.996  -0.020 -0.4329  0.0296  0.4157
  420MOL0     C57857  11.385  11.054  -0.015  0.7895 -0.0925 -0.1995
  420MOL0     O57858  11.341  11.113  -0.129  0.0361 -0.1082  0.0528
  420MOL0     C57859  11.248  11.043  -0.217  0.0005 -0.9051 -0.5703
  420MOL0     C57860  11.329  10.933  -0.292 -0.0621  0.1516  0.6584
  420MOL0     C57861  11.426  11.006  -0.381  0.0561 -0.2825  0.4469
  420MOL0     C57862  11.479  10.903  -0.477 -0.7445  0.1518 -0.7107
  420MOL0     C57863  11.555  10.956  -0.599  0.1051  0.3736 -0.1241
  420MOL0     C57864  11.668  11.047  -0.559  0.0460 -0.3727  0.1281
  420MOL0     C57865  11.737  11.098  -0.687 -0.0970  0.1930 -0.5114
  420MOL0     C57866  11.874  11.148  -0.666  0.6299 -0.8933  0.0199
  420MOL0    Cl57867  11.926  11.259  -0.806 -0.3393 -0.1941 -0.5826
  420MOL0     C57868  11.314  11.064   0.107 -0.9391  0.5214 -0.0727
  420MOL0     C57869  11.368  10.989   0.216  0.4095 -0.9685  0.1298
  420MOL0     O57870  11.432  10.669   0.249  0.5820 -0.3378  0.2292
  420MOL0     C57871  11.571  10.694   0.563 -0.8770  0.6442 -0.6650
  420MOL0     C57872  11.561  10.645   0.693  0.2704  0.9015 -0.6497
  420MOL0     N57873  11.090  10.441   1.102 -0.1749 -0.0003  0.2660
  420MOL0     N57874  10.984  10.468   1.034  0.0401 -0.0550  0.4696
  420MOL0     C57875  10.095  10.757   0.225 -0.1223 -0.4781 -0.3757
  420MOL0     C57876   9.966  10.712   0.280 -0.4156  0.1551 -0.0637
  420MOL0     C57877   9.651  10.517   0.517  0.8326 -0.0624  0.8103
  420MOL0     C57878   9.553  10.609   0.541 -0.6019  0.3259 -0.2679
  420MOL0     C57879   9.427  10.563   0.586  0.2326  0.4556  0.3219
  420MOL0     C57880   9.388  10.437   0.559  0.0250  0.2396 -0.2846
  420MOL0     O57881   9.260  10.387   0.578 -0.5585 -0.5078  0.6362
  420MOL0     C57882   9.149  10.473   0.604  0.6090 -0.3115 -0.4889
  420MOL0     C57883   9.137  10.508   0.751 -0.3739  1.0582  0.2372
  420MOL0     C57884   9.022  10.620   0.774 -0.3424 -0.1868 -0.1750
  420MOL0     C57885   8.987  10.625   0.920  0.2093  0.3666  0.6202
  420MOL0     C57886   8.937  10.762   0.957 -0.8485  0.0940 -0.5698
  420MOL0     C57887   8.902  10.875   0.979  0.2410 -0.1785  0.7232
  420MOL0     C57888   9.486  10.342   0.524  1.4898  0.7346  0.7321
  420MOL0     C57889   9.617  10.377   0.495 -0.0048  0.1296  0.1550
  420MOL0     C57890   9.713  10.280   0.430  0.0645 -0.2186  0.4793
  420MOL0     H57891   9.936  10.930   0.544  0.3085 -1.8482  0.3295
  420MOL0     H57892  10.155  10.997   0.449 -1.0262  0.4466  1.6752
  420MOL0     H57893  10.384  10.980   0.427 -1.4428  2.9844 -2.4212
  420MOL0     H57894  10.472  10.949   0.287  1.2340 -0.2926  2.6863
  420MOL0     H57895  10.353  10.719   0.443  1.0536 -0.6779  1.5220
  420MOL0     H57896  10.402  10.715   0.277 -3.6595  0.1352  1.6659
  420MOL0     H57897  10.636  10.764   0.336 -0.9119  0.4293 -2.4865
  420MOL0     H57898  10.585  10.835   0.491  1.8644 -1.0783  1.0881
  420MOL0     H57899  10.506  10.589   0.539  0.8888  0.2872  0.8657
  420MOL0     H57900  10.607  10.546   0.397  0.7978  2.7565 -3.1583
  420MOL0     H57901  10.732  10.684   0.639  2.6630 -0.4060  0.3082
  420MOL0     H57902  10.808  10.602   0.505 -0.5487  0.8511 -0.3371
  420MOL0     H57903  10.621  10.472   0.700  1.2004  2.0597  2.4465
  420MOL0     H57904  10.727  10.381   0.587 -0.5666  1.1796 -1.1621
  420MOL0     H57905  10.788  10.574   0.821 -1.5176 -1.7631  0.8076
  420MOL0     H57906  10.918  10.515   0.719  0.0631  0.7634 -1.2358
  420MOL0     H57907  10.751  10.368   0.929 -0.0147 -3.6415  0.5211
  420MOL0     H57908  10.852  10.269   0.811  1.6846  0.3092 -0.4584
  420MOL0     H57909  11.056  10.172   0.914 -0.7289  0.3272 -0.3539
  420MOL0     H57910  11.245  10.139   1.086  0.8352  0.9950 -2.1658
  420MOL0     H57911  11.228  10.235   1.232 -5.7302 -1.6063 -0.5523
  420MOL0     H57912  11.366  10.414   1.105  3.1122  0.3805 -0.0176
  420MOL0     H57913  11.459  10.267   1.127  0.9390  0.2128 -2.3134
  420MOL0     H57914  11.434  10.187   0.933 -1.2543 -0.5895  1.6214
  420MOL0     H57915  11.311  10.298   0.867 -0.9521 -0.1607  2.8282
  420MOL0     H57916  11.571  10.390   0.963  0.7980 -0.5211 -2.0747
  420MOL0     H57917  11.551  10.347   0.799  1.2932 -0.6544  1.3424
  420MOL0     H57918  11.247  10.529   0.697  1.2933 -1.1878  1.8802
  420MOL0     H57919  11.212  10.724   0.404  0.9815  0.5892  1.2373
  420MOL0     H57920  11.134  10.578   0.490 -0.0960  0.5959  0.4999
  420MOL0     H57921  11.228  10.549   0.353 -0.3805 -2.2589  2.3371
  420MOL0     H57922  11.673  10.907   0.102  1.5813  5.0736  0.3251
  420MOL0     H57923  11.573  11.002  -0.108 -0.5168 -0.3098  0.3303
  420MOL0     H57924  11.177  10.986  -0.156  1.8754 -2.2697  0.4699
  420MOL0     H57925  11.204  11.119  -0.282  0.9410 -0.8343 -1.1471
  420MOL0     H57926  11.380  10.871  -0.219 -0.1849 -0.0253  0.5955
  420MOL0     H57927  11.254  10.887  -0.357 -0.8994  1.1323  0.9022
  420MOL0     H57928  11.501  11.046  -0.311  0.8762  2.2049 -1.6799
  420MOL0     H57929  11.393  11.090  -0.443  0.1952 -0.4143  0.1944
  420MOL0     H57930  11.399  10.836  -0.508 -2.3398  1.7298 -0.1541
  420MOL0     H57931  11.551  10.845  -0.419  0.3038  2.5778  0.5576
  420MOL0     H57932  11.588  10.873  -0.662 -1.6617 -1.3340  1.0806
  420MOL0     H57933  11.493  11.020  -0.662  2.6926  0.3728 -2.9093
  420MOL0     H57934  11.734  10.981  -0.501  2.2084  1.0908 -0.5393
  420MOL0     H57935  11.635  11.121  -0.485 -0.0709 -1.0592  0.7675
  420MOL0     H57936  11.677  11.187  -0.709  2.3398  1.9516 -0.4441
  420MOL0     H57937  11.736  11.028  -0.772 -0.2655  0.0789 -0.4153
  420MOL0     H57938  11.944  11.065  -0.660  1.7864  0.1265  1.2870
  420MOL0     H57939  11.886  11.214  -0.579 -0.8799  2.2593 -1.9803
  420MOL0     H57940  11.218  11.113   0.096 -1.2186 -0.1443 -0.6209
  420MOL0     H57941  11.308  10.983   0.306 -2.1794  0.2710 -1.4113
  420MOL0     H57942  11.667  10.743   0.554  0.0383 -0.8201  0.5823
  420MOL0     H57943  11.634  10.665   0.771 -0.3818 -0.2025  0.2645
  420MOL0     H57944  10.135  10.739   0.126  0.8975  0.9725 -0.2746
  420MOL0     H57945   9.914  10.635   0.226  0.4627 -0.1256 -0.5267
  420MOL0     H57946   9.562  10.717   0.539  0.7645  0.2214 -0.7513
  420MOL0     H57947   9.369  10.648   0.620  2.1922  1.0564  2.4614
  420MOL0     H57948   9.166  10.568   0.554  1.4161 -0.3195 -0.2485
  420MOL0     H57949   9.056  10.430   0.567 -0.9931  0.7407  2.0917
  420MOL0     H57950   9.232  10.554   0.780  0.2975  0.1842 -0.5166
  420MOL0     H57951   9.125  10.413   0.804  0.3551 -0.4090 -2.0475
  420MOL0     H57952   9.053  10.714   0.728  1.6613 -1.1951 -1.0175
  420MOL0     H57953   8.933  10.579   0.725  1.7042 -2.2652 -2.4360
  420MOL0     H57954   9.073  10.599   0.982  0.2303 -0.3209  0.3075
  420MOL0     H57955   8.911  10.548   0.934 -1.2023  1.4655 -0.6700
  420MOL0     H57956   8.857  10.971   0.991 -0.3259 -0.1825 -1.1504
  420MOL0     H57957   9.449  10.240   0.515  0.3055  1.1753  0.3414
  420MOL0     H57958   9.741  10.317   0.331  2.4127  1.0697  1.5363
  420MOL0     H57959   9.805  10.281   0.489  1.4380 -0.3061 -1.5650
  420MOL0     H57960   9.662  10.184   0.421 -3.2956  1.4262  0.2695
  421MOL0     O57961   7.303   3.721   7.393  0.2513 -1.0779  0.0760
  421MOL0     C57962   7.300   3.596   7.393  0.5876 -0.3464  0.0834
  421MOL0     O57963   7.417   3.516   7.363 -0.2171 -0.8331 -0.7614
  421MOL0     C57964   7.539   3.578   7.378  0.6357 -0.0246  0.2556
  421MOL0     C57965   7.581   3.635   7.499  0.2229 -0.3086 -0.9212
  421MOL0     C57966   7.693   3.714   7.491  0.1584  0.5834  0.4536
  421MOL0     C57967   7.775   3.724   7.376  0.4104 -0.1025  0.0843
  421MOL0     O57968   7.891   3.805   7.393 -0.3925 -0.1045  0.7921
  421MOL0     C57969   7.989   3.838   7.291  0.4772  0.1147  0.0348
  421MOL0     C57970   8.113   3.888   7.360  0.6197  0.9290  0.1207
  421MOL0     C57971   8.238   3.892   7.268 -0.4851  0.1988 -0.1783
  421MOL0     C57972   8.355   3.969   7.324 -0.4812 -1.1886 -1.1935
  421MOL0     C57973   8.433   4.050   7.214 -0.0038 -0.6999 -0.2824
  421MOL0     C57974   8.577   4.090   7.254 -0.1247  0.7696 -0.0313
  421MOL0     C57975   8.650   4.155   7.126  0.0988  0.2341  0.1142
  421MOL0     C57976   8.792   4.176   7.166  0.1785  0.5056  0.4517
  421MOL0     N57977   8.863   4.281   7.088 -0.4459  0.5024  0.2557
  421MOL0     C57978   8.980   4.336   7.131  0.3189 -0.6456  0.0149
  421MOL0     C57979   9.005   4.434   7.033  0.7314  0.0823 -0.7053
  421MOL0     C57980   9.134   4.521   7.031  0.5931 -0.1453 -0.3947
  421MOL0     C57981   9.112   4.653   7.105 -0.0357  0.2643 -0.0724
  421MOL0     C57982   9.134   4.636   7.254 -0.2190 -0.2442 -0.4144
  421MOL0     C57983   9.073   4.759   7.336  0.8321  0.2025  0.1475
  421MOL0     O57984   9.129   4.879   7.289  0.2036 -0.8306 -0.7037
  421MOL0     C57985   9.254   4.911   7.342  0.4333 -0.2625 -0.2046
  421MOL0     C57986   9.316   5.015   7.283  0.1910  0.4479 -0.3132
  421MOL0     C57987   9.434   5.069   7.336  0.3367 -0.0685 -0.6989
  421MOL0     C57988   9.489   5.174   7.245  0.2332  0.1461 -0.0317
  421MOL0     C57989   9.498   5.027   7.457 -0.2854 -0.2426 -0.1154
  421MOL0     C57990   9.608   5.093   7.523  0.1797  0.2436  0.1517
  421MOL0     O57991   9.705   5.019   7.588  0.0677 -0.8158  0.8216
  421MOL0     C57992   9.825   5.085   7.623  1.0369 -0.1239  0.2501
  421MOL0     C57993   9.879   5.196   7.558 -0.2615 -0.5551  0.3086
  421MOL0     C57994  10.004   5.251   7.591  0.1966  0.4295 -0.0598
  421MOL0     C57995  10.077   5.205   7.696  0.4450  0.2345  0.1118
  421MOL0     O57996  10.199   5.259   7.731  0.2725 -0.7973  0.0115
  421MOL0     C57997  10.287   5.169   7.791 -0.1452 -0.0866  0.5469
  421MOL0     C57998  10.420   5.245   7.795 -0.4102  0.1281 -0.2679
  421MOL0     C57999  10.510   5.184   7.911  0.2361  0.3476 -0.4421
  421MOL0     C58000  10.640   5.258   7.924  0.2956 -0.2297  0.2163
  421MOL0     C58001  10.739   5.210   7.813  0.5554  0.0147 -0.0643
  421MOL0     C58002  10.871   5.278   7.822  0.7918  0.3013 -0.4262
  421MOL0     C58003  10.969   5.191   7.899  1.4508  0.0022 -0.3696
  421MOL0     C58004  11.106   5.250   7.934 -0.2730 -0.5100 -0.2729
  421MOL0    Cl58005  11.181   5.301   7.779  0.2893  0.5566 -0.4686
  421MOL0     C58006  10.026   5.095   7.764 -0.5445  0.6988  0.4842
  421MOL0     C58007   9.904   5.033   7.725  0.6723 -0.0813  0.1318
  421MOL0     O58008   9.597   5.219   7.537 -0.1522  0.0140 -0.6114
  421MOL0     C58009   9.443   4.905   7.509 -0.3884  0.3096 -0.4544
  421MOL0     C58010   9.316   4.855   7.456  0.1853 -0.5154  0.4474
  421MOL0     N58011   8.909   4.428   6.931 -0.6342 -1.1479 -0.0379
  421MOL0     N58012   8.825   4.337   6.967  0.0493 -0.2976  0.0830
  421MOL0     C58013   7.734   3.665   7.266 -1.2106 -0.7071  0.4787
  421MOL0     C58014   7.619   3.587   7.263 -0.6028  0.0245  0.0260
  421MOL0     C58015   7.174   3.525   7.379  0.5617  0.3352  0.0712
  421MOL0     C58016   7.175   3.396   7.312  0.7129  0.8019  0.6425
  421MOL0     C58017   7.051   3.335   7.276  0.2731 -1.5382  0.1901
  421MOL0     C58018   6.928   3.387   7.313 -0.3842 -0.3113  0.3037
  421MOL0     O58019   6.809   3.328   7.298  0.1475 -0.0633 -0.1783
  421MOL0     C58020   6.787   3.236   7.187 -0.5925  0.0696  0.9686
  421MOL0     C58021   6.654   3.171   7.204 -0.1113 -1.1505 -0.1047
  421MOL0     C58022   6.547   3.282   7.225 -0.2728 -1.2276 -0.2830
  421MOL0     C58023   6.414   3.206   7.208  0.2493  0.4483 -0.2760
  421MOL0     C58024   6.285   3.274   7.247 -1.0829  0.2686 -0.2284
  421MOL0     C58025   6.182   3.324   7.278  0.1622  1.1841  0.0038
  421MOL0     C58026   6.931   3.510   7.376 -0.7238  0.8688 -0.2386
  421MOL0     C58027   7.043   3.573   7.419 -0.7422 -1.9155  0.5242
  421MOL0     C58028   7.008   3.709   7.490  0.2012 -0.7137 -0.2381
  421MOL0     H58029   7.529   3.622   7.593  0.4794 -0.6183 -0.8204
  421MOL0     H58030   7.717   3.752   7.590 -2.4087  0.1491  1.3211
  421MOL0     H58031   7.944   3.901   7.215  0.6443 -2.8643 -2.7700
  421MOL0     H58032   8.001   3.740   7.243 -2.4327 -0.7701  0.9194
  421MOL0     H58033   8.085   3.984   7.403 -0.1054  0.3183  1.0321
  421MOL0     H58034   8.138   3.819   7.441 -1.4212  0.8636  0.7457
  421MOL0     H58035   8.278   3.793   7.245  0.7609  0.9030 -1.1643
  421MOL0     H58036   8.205   3.938   7.174 -1.1750  2.9634  1.3107
  421MOL0     H58037   8.320   4.046   7.394 -0.1740 -0.8468 -1.4077
  421MOL0     H58038   8.424   3.903   7.377 -0.2195  0.2959  0.4233
  421MOL0     H58039   8.373   4.141   7.201 -0.7426 -1.2850 -1.1771
  421MOL0     H58040   8.439   3.998   7.118 -2.5665  0.5403 -1.2053
  421MOL0     H58041   8.572   4.164   7.334 -0.8863 -0.9248  1.5587
  421MOL0     H58042   8.643   4.016   7.301 -1.5477 -0.0294  0.7797
  421MOL0     H58043   8.605   4.247   7.088  1.0225 -0.0790 -1.8611
  421MOL0     H58044   8.638   4.088   7.041  2.5823  1.2694 -1.1603
  421MOL0     H58045   8.803   4.201   7.272  0.7113  0.7406  0.3505
  421MOL0     H58046   8.848   4.083   7.150 -2.1556 -0.8421 -0.2518
  421MOL0     H58047   9.050   4.310   7.210  0.2900  0.9269  0.5935
  421MOL0     H58048   9.171   4.560   6.937  0.1448  2.7443  0.5418
  421MOL0     H58049   9.218   4.471   7.081 -0.7201 -3.0550 -0.8655
  421MOL0     H58050   9.186   4.722   7.065  1.5923 -0.7402  1.0577
  421MOL0     H58051   9.013   4.691   7.079 -0.2392 -0.1698  0.0623
  421MOL0     H58052   9.080   4.546   7.284 -1.2525  0.0345 -1.3559
  421MOL0     H58053   9.242   4.635   7.269 -0.0266  4.5696  0.1284
  421MOL0     H58054   8.965   4.765   7.326  0.7524  1.4518  1.4256
  421MOL0     H58055   9.091   4.734   7.441 -0.8793 -0.8993  0.2027
  421MOL0     H58056   9.265   5.057   7.197  1.5226  2.5925 -0.1139
  421MOL0     H58057   9.586   5.206   7.284 -0.5628  0.9108  1.4053
  421MOL0     H58058   9.420   5.259   7.244 -2.6949 -2.0232  1.7262
  421MOL0     H58059   9.488   5.144   7.140  0.7987  1.4031 -0.4201
  421MOL0     H58060   9.823   5.246   7.479 -0.0490 -1.0267 -0.1463
  421MOL0     H58061  10.033   5.331   7.524 -0.5568  0.4823 -0.3300
  421MOL0     H58062  10.272   5.152   7.899  0.9641 -0.0201  0.7262
  421MOL0     H58063  10.297   5.073   7.740  2.3820  1.0422 -1.2698
  421MOL0     H58064  10.485   5.253   7.708  2.9198 -1.2341  1.8814
  421MOL0     H58065  10.400   5.349   7.823  0.8827  0.1949  0.5366
  421MOL0     H58066  10.530   5.078   7.892 -1.2517 -0.1720  0.6306
  421MOL0     H58067  10.456   5.177   8.006 -1.5082  1.2561 -1.3248
  421MOL0     H58068  10.694   5.240   8.018  0.0652 -2.1935  0.0015
  421MOL0     H58069  10.620   5.365   7.913  1.4863  0.0412  0.4502
  421MOL0     H58070  10.753   5.102   7.805 -1.7298 -0.2378 -1.4363
  421MOL0     H58071  10.689   5.241   7.720  2.0941  2.4578 -0.1889
  421MOL0     H58072  10.860   5.379   7.862 -0.1108  0.4719 -1.0842
  421MOL0     H58073  10.916   5.297   7.724 -1.5011  1.4118 -1.3307
  421MOL0     H58074  10.985   5.102   7.838 -3.2422 -0.7818 -0.8619
  421MOL0     H58075  10.921   5.152   7.989  2.8162  1.1531  0.8854
  421MOL0     H58076  11.170   5.175   7.981 -0.6258  0.3035  1.5866
  421MOL0     H58077  11.103   5.336   8.001  2.0039 -1.5183  1.2167
  421MOL0     H58078  10.074   5.052   7.851  1.2607 -0.1802 -0.8631
  421MOL0     H58079   9.863   4.949   7.779  0.0515  0.2865  0.2465
  421MOL0     H58080   9.499   4.856   7.588 -1.8851 -3.7218 -1.6894
  421MOL0     H58081   9.280   4.770   7.513 -1.0408  1.9693  3.6889
  421MOL0     H58082   7.798   3.685   7.181 -0.3552  2.7056  1.7927
  421MOL0     H58083   7.590   3.544   7.168  0.0923 -1.1086  0.3056
  421MOL0     H58084   7.264   3.344   7.279 -1.2190 -2.1072 -0.3697
  421MOL0     H58085   7.052   3.248   7.211  1.5535  0.2048 -2.2636
  421MOL0     H58086   6.781   3.290   7.091  2.5855 -1.7505 -0.4127
  421MOL0     H58087   6.864   3.158   7.190 -0.2100  0.4567  1.3962
  421MOL0     H58088   6.656   3.108   7.294 -2.4666  1.0346  1.6077
  421MOL0     H58089   6.638   3.101   7.121 -1.2345  0.3643 -1.2188
  421MOL0     H58090   6.550   3.339   7.318  0.9189 -1.1615 -0.3464
  421MOL0     H58091   6.543   3.351   7.140 -1.5932  1.4336  1.7460
  421MOL0     H58092   6.415   3.116   7.271 -1.5746  0.7579  0.2305
  421MOL0     H58093   6.399   3.171   7.106 -0.6590 -0.0911  0.0348
  421MOL0     H58094   6.084   3.359   7.304 -0.4597 -1.2458  1.1995
  421MOL0     H58095   6.837   3.543   7.418 -1.1362 -0.0841 -0.3956
  421MOL0     H58096   6.996   3.778   7.406 -3.4283  2.8523  2.7852
  421MOL0     H58097   6.912   3.723   7.539 -0.5085  1.7616 -2.0741
  421MOL0     H58098   7.092   3.733   7.555 -0.6751  0.8702  0.3797
  422MOL0     O58099   4.063   2.289   2.924 -1.0630 -0.0570 -0.1615
  422MOL0     C58100   4.111   2.241   3.027  0.6891  1.0016 -0.4853
  422MOL0     O58101   4.243   2.218   3.046  0.0746 -0.0363  0.3165
  422MOL0     C58102   4.312   2.189   2.929  0.1979  0.6785 -0.5972
  422MOL0     C58103   4.271   2.095   2.837 -0.3881  0.7424 -0.0781
  422MOL0     C58104   4.337   2.064   2.721  0.1322 -0.2200 -0.5188
  422MOL0     C58105   4.462   2.128   2.697  0.0422  0.7419  0.0853
  422MOL0     O58106   4.543   2.110   2.587  0.5599  0.3825  0.1487
  422MOL0     C58107   4.541   1.973   2.527 -0.6695  0.0061  0.2726
  422MOL0     C58108   4.674   1.948   2.449  1.3236 -0.2910  0.8183
  422MOL0     C58109   4.682   2.045   2.330 -0.6238 -0.1178 -0.3358
  422MOL0     C58110   4.634   1.977   2.202 -0.0788  0.4528 -0.5264
  422MOL0     C58111   4.624   2.064   2.079 -0.1548  0.7969 -0.1363
  422MOL0     C58112   4.759   2.085   2.008  0.5250 -0.7647 -1.4258
  422MOL0     C58113   4.760   2.205   1.916  0.7569 -0.2958 -0.5520
  422MOL0     C58114   4.652   2.211   1.814 -0.8928  0.2375  0.2865
  422MOL0     N58115   4.679   2.316   1.712  0.4526  0.1301 -1.0425
  422MOL0     C58116   4.792   2.332   1.636  0.1941  0.5712  0.0326
  422MOL0     C58117   4.787   2.435   1.565 -0.2172 -0.1754 -0.5036
  422MOL0     C58118   4.902   2.507   1.495 -1.1100 -1.2189 -0.6662
  422MOL0     C58119   4.919   2.463   1.349  0.1838 -0.1574  0.2854
  422MOL0     C58120   4.996   2.562   1.274  0.3971  0.4622  0.4192
  422MOL0     C58121   5.031   2.504   1.138  0.2168 -0.1870 -0.1773
  422MOL0     O58122   5.154   2.438   1.174  0.1085 -0.4607 -0.2157
  422MOL0     C58123   5.269   2.497   1.140 -0.6869 -0.0484  0.7914
  422MOL0     C58124   5.376   2.409   1.122  0.2037  1.0528 -0.4266
  422MOL0     C58125   5.502   2.452   1.082 -0.2012 -0.2540 -0.0197
  422MOL0     C58126   5.626   2.362   1.088 -0.1927  0.0933  0.2913
  422MOL0     C58127   5.517   2.584   1.050  0.2012 -0.5795 -0.0584
  422MOL0     C58128   5.640   2.628   0.995 -1.2476  0.1519 -0.3865
  422MOL0     O58129   5.698   2.559   0.894 -0.2683  0.2336  0.5560
  422MOL0     C58130   5.821   2.607   0.853 -0.4543  0.1705 -0.6391
  422MOL0     C58131   5.826   2.724   0.773  0.0898  0.4779 -1.1517
  422MOL0     C58132   5.950   2.781   0.731  0.2295  0.5752 -0.1943
  422MOL0     C58133   6.067   2.706   0.743 -0.4938 -0.4873 -0.6939
  422MOL0     O58134   6.183   2.767   0.691  0.4448  0.7384 -0.0771
  422MOL0     C58135   6.308   2.697   0.697 -0.0396  0.0246 -0.3832
  422MOL0     C58136   6.408   2.737   0.593 -0.9607 -0.5685 -0.3724
  422MOL0     C58137   6.430   2.888   0.600 -0.5613 -0.5444  0.9630
  422MOL0     C58138   6.430   2.945   0.739  0.9339 -0.1649 -0.1872
  422MOL0     C58139   6.499   3.080   0.734  0.3451  0.0305  0.0667
  422MOL0     C58140   6.540   3.115   0.884  0.5923  0.1665 -0.9071
  422MOL0     C58141   6.583   3.265   0.907  0.4716  0.2337 -0.7772
  422MOL0     C58142   6.479   3.354   0.852  0.0501 -0.3443 -0.4612
  422MOL0    Cl58143   6.483   3.508   0.927 -0.3146 -0.2748  0.1125
  422MOL0     C58144   6.057   2.588   0.816 -0.2235  0.3406  0.3025
  422MOL0     C58145   5.938   2.540   0.874  0.2473 -0.9833 -0.8492
  422MOL0     O58146   5.682   2.736   1.036 -0.3599 -0.5045 -0.4082
  422MOL0     C58147   5.415   2.676   1.060 -0.3876  0.5361 -0.4825
  422MOL0     C58148   5.287   2.636   1.106 -0.4498 -0.5233 -0.2305
  422MOL0     N58149   4.665   2.489   1.590 -0.0645  0.5886 -1.3567
  422MOL0     N58150   4.597   2.407   1.669 -0.6864  1.1122 -0.2439
  422MOL0     C58151   4.503   2.223   2.783 -0.3936 -0.6821  0.4426
  422MOL0     C58152   4.431   2.259   2.902 -0.1562 -0.2385  0.3617
  422MOL0     C58153   4.028   2.220   3.157 -0.5204  0.0221  0.2062
  422MOL0     C58154   4.092   2.236   3.280 -0.1578  0.2762 -0.1547
  422MOL0     C58155   4.000   2.223   3.392 -0.0975  0.3842 -0.2132
  422MOL0     C58156   3.863   2.172   3.385 -0.2975  0.5130  0.4915
  422MOL0     O58157   3.792   2.139   3.500 -0.0674 -0.8568 -0.0659
  422MOL0     C58158   3.654   2.113   3.492  0.5694 -0.0186  0.0315
  422MOL0     C58159   3.589   2.143   3.633 -0.0790  0.0097 -0.1073
  422MOL0     C58160   3.449   2.092   3.649  0.3292  0.1541 -0.4509
  422MOL0     C58161   3.370   2.182   3.747  0.3133  0.7498  0.5852
  422MOL0     C58162   3.267   2.113   3.829 -0.2881  0.8702  0.6363
  422MOL0     C58163   3.201   2.044   3.905  0.3254  0.1903  1.0481
  422MOL0     C58164   3.820   2.147   3.257  0.9213 -0.0763 -0.1572
  422MOL0     C58165   3.892   2.174   3.138  0.2536  0.1789 -0.0604
  422MOL0     C58166   3.807   2.165   3.014  0.0519 -0.0082 -0.0561
  422MOL0     H58167   4.170   2.056   2.847 -1.5747  3.3817 -0.8216
  422MOL0     H58168   4.293   1.992   2.652  0.0612 -1.7947  1.0988
  422MOL0     H58169   4.456   1.962   2.460 -1.6612  0.3471  1.4288
  422MOL0     H58170   4.533   1.894   2.602  1.2779 -1.8858 -1.3805
  422MOL0     H58171   4.763   1.965   2.511  0.1982  3.0252  1.7497
  422MOL0     H58172   4.672   1.846   2.411 -2.1336  0.0118 -0.1933
  422MOL0     H58173   4.619   2.133   2.340 -0.7228 -0.1804 -0.4098
  422MOL0     H58174   4.787   2.076   2.318 -0.1473 -0.3396  2.6274
  422MOL0     H58175   4.704   1.894   2.189  0.2548  0.6702 -0.1414
  422MOL0     H58176   4.529   1.946   2.216 -0.3052  1.5122  0.1914
  422MOL0     H58177   4.567   2.153   2.108 -1.0276  0.7738 -1.6685
  422MOL0     H58178   4.563   2.018   2.001  1.7000 -2.5329  0.1868
  422MOL0     H58179   4.834   2.097   2.087 -2.1676  1.6480  1.0350
  422MOL0     H58180   4.781   1.997   1.948  0.1632 -1.9969  0.1753
  422MOL0     H58181   4.855   2.214   1.863  1.1384  0.2452  0.2053
  422MOL0     H58182   4.743   2.297   1.972 -0.2435 -0.0815 -1.1942
  422MOL0     H58183   4.647   2.117   1.758 -3.0632  1.7222 -2.2190
  422MOL0     H58184   4.552   2.230   1.855 -2.1092  3.1157 -3.4325
  422MOL0     H58185   4.888   2.280   1.635  0.7235  1.5126  0.5524
  422MOL0     H58186   4.995   2.495   1.551 -0.2489  0.5872 -1.6328
  422MOL0     H58187   4.890   2.615   1.492  0.3395 -0.9725  0.9957
  422MOL0     H58188   4.973   2.368   1.342 -0.2076 -0.3083 -0.8341
  422MOL0     H58189   4.819   2.453   1.308 -0.0918 -0.0964  0.9205
  422MOL0     H58190   4.943   2.656   1.254 -2.8671 -1.5720 -1.4309
  422MOL0     H58191   5.083   2.593   1.332 -0.1677  0.0459  1.4994
  422MOL0     H58192   4.946   2.445   1.104 -0.0717  0.2334 -0.1963
  422MOL0     H58193   5.030   2.580   1.059 -0.6751  0.3081  0.2861
  422MOL0     H58194   5.352   2.305   1.144  0.7311  0.5121 -2.2697
  422MOL0     H58195   5.708   2.423   1.128 -0.0622 -0.7184  1.2916
  422MOL0     H58196   5.650   2.312   0.994  1.0937 -1.0516  1.1834
  422MOL0     H58197   5.609   2.285   1.164  1.0292  1.6149  2.2003
  422MOL0     H58198   5.736   2.784   0.766 -0.3233 -0.0038 -0.2494
  422MOL0     H58199   5.953   2.879   0.684 -1.0587 -0.3916 -2.4389
  422MOL0     H58200   6.354   2.716   0.794  0.0563 -1.3607 -0.1298
  422MOL0     H58201   6.302   2.588   0.696  0.3365 -0.0930  2.2902
  422MOL0     H58202   6.498   2.679   0.615 -1.6837 -1.7709 -0.5163
  422MOL0     H58203   6.372   2.703   0.496 -3.9598  2.1161 -0.3875
  422MOL0     H58204   6.340   2.925   0.551 -1.8534 -2.7627  1.4727
  422MOL0     H58205   6.516   2.926   0.546  1.0824 -1.7302  2.5967
  422MOL0     H58206   6.489   2.881   0.805  1.4637  3.7282  3.5797
  422MOL0     H58207   6.326   2.968   0.767  0.2468 -0.1163 -2.6014
  422MOL0     H58208   6.594   3.077   0.680  0.8902  1.5496  0.8828
  422MOL0     H58209   6.433   3.149   0.682 -0.5527 -0.2712  0.7648
  422MOL0     H58210   6.621   3.048   0.912  1.9883  2.5151  1.0985
  422MOL0     H58211   6.459   3.099   0.956  1.2207  0.0634 -0.2201
  422MOL0     H58212   6.677   3.299   0.863 -0.0084  1.1263 -1.1491
  422MOL0     H58213   6.593   3.282   1.014 -0.4003 -0.9361 -0.4833
  422MOL0     H58214   6.382   3.311   0.879 -0.3113  1.4087  1.2768
  422MOL0     H58215   6.485   3.362   0.743 -1.2369  0.4778 -0.4918
  422MOL0     H58216   6.132   2.510   0.818 -1.3784 -0.8043  0.1759
  422MOL0     H58217   5.932   2.445   0.926 -1.5320  0.8750  2.7992
  422MOL0     H58218   5.433   2.782   1.041 -0.1702  0.3629 -1.3179
  422MOL0     H58219   5.202   2.702   1.117  1.4365  1.8489  1.2066
  422MOL0     H58220   4.584   2.286   2.745 -2.7258  0.1616 -3.7789
  422MOL0     H58221   4.471   2.334   2.970 -0.8262  0.3393  0.1374
  422MOL0     H58222   4.197   2.264   3.286 -0.3906  1.4678 -1.1360
  422MOL0     H58223   4.028   2.246   3.494 -1.5694  0.3645  0.2043
  422MOL0     H58224   3.596   2.164   3.415  1.1428 -0.4766 -0.7244
  422MOL0     H58225   3.635   2.008   3.469  0.2803  0.5724 -2.7575
  422MOL0     H58226   3.591   2.253   3.634  0.2093  0.0163 -0.8309
  422MOL0     H58227   3.643   2.097   3.716  0.8694 -0.7354 -1.0983
  422MOL0     H58228   3.395   2.083   3.554 -1.9931 -2.2971  0.9684
  422MOL0     H58229   3.454   1.995   3.701  2.8217  0.2616 -0.3777
  422MOL0     H58230   3.326   2.261   3.684  1.9239  0.9850 -0.2812
  422MOL0     H58231   3.438   2.229   3.818 -1.3604  0.9917  2.1143
  422MOL0     H58232   3.133   1.993   3.970  0.1252  1.2160  1.6529
  422MOL0     H58233   3.719   2.107   3.264  0.6314  0.8354  5.0583
  422MOL0     H58234   3.708   2.124   3.036  1.8371 -4.3362  0.9229
  422MOL0     H58235   3.793   2.267   2.976  0.4670  1.0675  2.4650
  422MOL0     H58236   3.851   2.101   2.937 -0.9338 -1.7726  0.8058
  423MOL0     O58237   6.129  10.613  10.020  0.4138 -0.7665  0.4868
  423MOL0     C58238   6.111  10.540   9.922  0.6415  0.1625  0.2626
  423MOL0     O58239   6.210  10.472   9.861  0.1371 -0.0650  0.4993
  423MOL0     C58240   6.328  10.458   9.938  0.0544 -0.6027  0.1260
  423MOL0     C58241   6.332  10.400  10.065 -0.0319 -0.2582 -0.1811
  423MOL0     C58242   6.448  10.392  10.143 -0.0051  0.3368  0.1459
  423MOL0     C58243   6.563  10.449  10.081  1.0028  0.0180  0.2300
  423MOL0     O58244   6.684  10.441  10.157  0.3582 -0.2056  0.6377
  423MOL0     C58245   6.805  10.492  10.095  0.2074  0.1875 -0.6931
  423MOL0     C58246   6.916  10.492  10.196  0.6122  0.3201  0.2399
  423MOL0     C58247   6.871  10.569  10.319  0.5236 -0.3329  0.4954
  423MOL0     C58248   6.963  10.579  10.434  1.0091  1.1116 -0.4874
  423MOL0     C58249   7.096  10.655  10.407  0.2914  0.1723  0.2294
  423MOL0     C58250   7.089  10.804  10.366  0.5709 -0.1157 -0.7141
  423MOL0     C58251   7.183  10.880  10.459  1.8138  0.2216  0.9659
  423MOL0     C58252   7.115  10.917  10.596  0.9337  0.0556  0.6476
  423MOL0     N58253   7.220  10.973  10.680 -0.8040  0.0237  0.2965
  423MOL0     C58254   7.286  10.902  10.778 -0.6445 -0.6806  0.9603
  423MOL0     C58255   7.394  10.983  10.814 -0.2629  0.3739  0.4880
  423MOL0     C58256   7.495  10.960  10.922 -0.4363 -0.5910  0.3638
  423MOL0     C58257   7.546  10.813  10.938 -0.3516  0.2992  0.1112
  423MOL0     C58258   7.635  10.760  10.820 -0.3625  0.6207 -0.1471
  423MOL0     C58259   7.570  10.712  10.699 -0.0169  0.3508  0.8385
  423MOL0     O58260   7.489  10.598  10.743  0.5914  0.1010  0.9052
  423MOL0     C58261   7.417  10.537  10.640 -0.3288 -0.6671 -0.3272
  423MOL0     C58262   7.350  10.425  10.666  0.6558 -0.7215 -0.2554
  423MOL0     C58263   7.284  10.347  10.573  0.1816 -0.3409  0.5329
  423MOL0     C58264   7.194  10.236  10.622 -0.3236  0.3722  0.2660
  423MOL0     C58265   7.302  10.378  10.434 -0.6937 -0.7961  0.1179
  423MOL0     C58266   7.257  10.294  10.323 -0.0642 -0.0588 -1.0317
  423MOL0     O58267   7.232  10.162  10.348  0.3701 -0.0549 -0.8073
  423MOL0     C58268   7.162  10.090  10.259 -0.8805  0.3522 -0.4402
  423MOL0     C58269   7.227  10.033  10.151  0.1206  0.0914  0.9000
  423MOL0     C58270   7.141   9.967  10.060 -0.1155  0.6404  0.8503
  423MOL0     C58271   7.009   9.952  10.071 -0.3091  0.1249 -0.2385
  423MOL0     O58272   6.933   9.890   9.974  0.2268 -0.0928 -0.2209
  423MOL0     C58273   6.862   9.980   9.887  0.5297  0.1322 -0.8176
  423MOL0     C58274   6.748  10.072   9.947 -0.4872  1.0168  0.3573
  423MOL0     C58275   6.665  10.146   9.850 -0.0483  0.3561  0.4545
  423MOL0     C58276   6.532  10.062   9.828 -0.7951 -0.0883  0.8614
  423MOL0     C58277   6.461  10.128   9.717  0.0893  0.2219 -0.1224
  423MOL0     C58278   6.334  10.061   9.674 -0.0298 -0.2580 -0.2324
  423MOL0     C58279   6.271  10.123   9.545 -0.1815  0.9048 -0.4365
  423MOL0     C58280   6.118  10.118   9.540 -0.2729  0.5075 -0.4687
  423MOL0    Cl58281   6.064  10.181   9.376 -0.1263 -0.0422 -0.1107
  423MOL0     C58282   6.948   9.995  10.187  0.1921  0.3004 -0.3750
  423MOL0     C58283   7.024  10.078  10.273 -0.6800 -0.2136 -0.0935
  423MOL0     O58284   7.231  10.352  10.223 -0.1918  0.0601  0.4007
  423MOL0     C58285   7.364  10.500  10.407 -0.2781 -0.9151  0.5345
  423MOL0     C58286   7.426  10.576  10.506  0.0513  0.2328 -0.5358
  423MOL0     N58287   7.380  11.101  10.746  0.5751 -0.2697  0.3899
  423MOL0     N58288   7.276  11.094  10.667 -0.3027 -0.3546 -0.5708
  423MOL0     C58289   6.570  10.496   9.955 -0.3070 -0.1932  0.9957
  423MOL0     C58290   6.449  10.498   9.883 -0.1144  0.2091  0.9742
  423MOL0     C58291   5.980  10.530   9.848  0.2271  0.0081  0.2207
  423MOL0     C58292   5.911  10.647   9.810  0.6350  0.3215  0.5990
  423MOL0     C58293   5.781  10.644   9.761  0.0030 -0.3070  0.9827
  423MOL0     C58294   5.713  10.521   9.753 -0.6423  0.4351  0.4718
  423MOL0     O58295   5.574  10.515   9.728  0.0808 -0.3194 -0.6320
  423MOL0     C58296   5.500  10.631   9.678  0.4852 -1.0457 -0.2809
  423MOL0     C58297   5.352  10.598   9.647 -0.0437  0.6884 -0.2050
  423MOL0     C58298   5.255  10.569   9.758 -0.1743  0.3358  0.4164
  423MOL0     C58299   5.112  10.598   9.714 -0.2699  0.4214  0.1478
  423MOL0     C58300   5.075  10.549   9.580  0.4817 -0.2510 -0.7140
  423MOL0     C58301   5.054  10.492   9.476 -0.7570 -0.5990 -0.1635
  423MOL0     C58302   5.776  10.404   9.790 -0.7176  0.1904 -0.6433
  423MOL0     C58303   5.909  10.408   9.835 -0.4712 -0.3732 -0.0898
  423MOL0     C58304   5.976  10.274   9.881  0.0674 -0.8355  0.5073
  423MOL0     H58305   6.239  10.362  10.106  1.7081 -4.2123  0.6061
  423MOL0     H58306   6.445  10.365  10.248 -0.4764  2.6888  0.8035
  423MOL0     H58307   6.793  10.590  10.049 -5.0214 -0.3638 -1.0407
  423MOL0     H58308   6.840  10.419  10.022  0.9076  1.2227 -1.4190
  423MOL0     H58309   6.939  10.395  10.239  1.1081  0.7462  0.9650
  423MOL0     H58310   7.008  10.527  10.150 -0.3219 -0.2594 -2.2360
  423MOL0     H58311   6.861  10.676  10.301  1.3042  0.2473  3.0880
  423MOL0     H58312   6.774  10.535  10.358 -1.5437 -0.8998 -4.4473
  423MOL0     H58313   6.933  10.631  10.525  1.3998 -0.9498  0.8844
  423MOL0     H58314   6.983  10.477  10.468 -0.6037  0.9940  0.2025
  423MOL0     H58315   7.159  10.613  10.328  1.1400  4.2641 -1.5119
  423MOL0     H58316   7.156  10.638  10.497  1.7189 -2.5082 -1.0981
  423MOL0     H58317   7.111  10.817  10.260 -1.2016 -1.9047 -1.3566
  423MOL0     H58318   6.986  10.840  10.372 -0.4317 -2.9255  0.5771
  423MOL0     H58319   7.202  10.969  10.398  3.3261 -1.4273 -1.0874
  423MOL0     H58320   7.282  10.839  10.479  1.3809 -0.4764  1.7333
  423MOL0     H58321   7.020  10.971  10.585 -0.1924 -1.7884  0.8787
  423MOL0     H58322   7.095  10.824  10.650  1.0427  0.6915  1.8092
  423MOL0     H58323   7.267  10.807  10.828 -0.1376 -0.4673  1.5766
  423MOL0     H58324   7.456  10.991  11.019 -1.0659 -0.3029  0.0245
  423MOL0     H58325   7.581  11.017  10.884 -0.4790 -0.3388  0.6444
  423MOL0     H58326   7.604  10.821  11.030 -1.8371  0.8319  1.0399
  423MOL0     H58327   7.461  10.748  10.962 -1.0842  0.2671 -2.2759
  423MOL0     H58328   7.707  10.836  10.787 -1.1076  1.1819 -0.5147
  423MOL0     H58329   7.687  10.674  10.862 -2.1005  1.1273  3.4987
  423MOL0     H58330   7.509  10.794  10.660  0.6998 -0.0640 -1.2610
  423MOL0     H58331   7.650  10.688  10.628 -1.2381 -0.2235 -0.3701
  423MOL0     H58332   7.338  10.389  10.768  0.2126 -1.4593 -0.5629
  423MOL0     H58333   7.195  10.229  10.731  1.3399 -0.4850  0.2379
  423MOL0     H58334   7.238  10.146  10.577 -1.2937  0.8446 -1.7211
  423MOL0     H58335   7.091  10.252  10.590  0.8111  0.9367 -3.6069
  423MOL0     H58336   7.334  10.044  10.141 -0.1140  2.3582  0.2813
  423MOL0     H58337   7.185   9.920   9.972 -1.8780 -1.9158  1.2341
  423MOL0     H58338   6.937  10.037   9.831 -0.7329 -1.0365 -3.9557
  423MOL0     H58339   6.805   9.929   9.809 -0.6446  0.8743 -0.4639
  423MOL0     H58340   6.684  10.004  10.003  0.5501 -1.7096 -1.5063
  423MOL0     H58341   6.798  10.143  10.013  0.5161  0.3523  0.3446
  423MOL0     H58342   6.719  10.156   9.755 -2.5692  0.1749 -1.0638
  423MOL0     H58343   6.638  10.249   9.873 -0.2599  0.9164 -2.0329
  423MOL0     H58344   6.479  10.067   9.924 -0.8858  0.5714  0.7799
  423MOL0     H58345   6.557   9.958   9.805  2.8065 -0.2687  4.5178
  423MOL0     H58346   6.437  10.233   9.737  2.9390  1.4639 -2.4300
  423MOL0     H58347   6.532  10.121   9.633 -0.5464  1.1484 -0.7643
  423MOL0     H58348   6.268  10.076   9.760  0.5323 -1.8679  0.5169
  423MOL0     H58349   6.347   9.954   9.657  1.3694  0.0538 -1.3013
  423MOL0     H58350   6.317  10.057   9.470  1.1008  0.0466  1.0641
  423MOL0     H58351   6.307  10.226   9.540 -1.5891  1.3682 -2.5893
  423MOL0     H58352   6.081  10.180   9.622 -0.2652  0.4501 -0.4220
  423MOL0     H58353   6.080  10.017   9.558  0.5834  0.0063 -1.3509
  423MOL0     H58354   6.844   9.978  10.211  0.3510  2.6773  2.6249
  423MOL0     H58355   6.984  10.113  10.368 -2.4465 -1.7269 -0.2299
  423MOL0     H58356   7.384  10.531  10.305 -1.5174  2.5397  1.2232
  423MOL0     H58357   7.483  10.661  10.470 -1.1866  0.7366 -1.3773
  423MOL0     H58358   6.652  10.554   9.914 -0.9635  0.2751  0.3232
  423MOL0     H58359   6.458  10.540   9.783  2.4740 -0.3975  0.8830
  423MOL0     H58360   5.962  10.742   9.820  1.2822  0.0086  0.3216
  423MOL0     H58361   5.728  10.737   9.744  1.6798  0.2993 -1.4557
  423MOL0     H58362   5.507  10.722   9.738 -0.4506 -2.0007  1.3510
  423MOL0     H58363   5.547  10.639   9.580 -0.2485 -0.1089 -0.5689
  423MOL0     H58364   5.341  10.527   9.564 -1.8884 -1.7093  1.9247
  423MOL0     H58365   5.319  10.695   9.610  0.9131  0.6757 -1.1610
  423MOL0     H58366   5.281  10.463   9.773  4.3389  1.3322  0.9403
  423MOL0     H58367   5.281  10.620   9.851 -1.6785  0.6295  0.7018
  423MOL0     H58368   5.104  10.705   9.732  0.3979  0.5832 -0.4750
  423MOL0     H58369   5.033  10.557   9.778 -1.4883  0.0365 -1.5196
  423MOL0     H58370   5.051  10.440   9.382 -0.5241 -2.6383  0.8870
  423MOL0     H58371   5.718  10.312   9.792  2.3334 -1.9098 -1.5624
  423MOL0     H58372   5.921  10.188   9.843  0.1629 -0.3173 -0.8459
  423MOL0     H58373   6.080  10.264   9.848 -0.2923  0.5923 -1.2295
  423MOL0     H58374   5.973  10.279   9.991 -0.4113 -2.0875  0.5602
  424MOL0     O58375   3.376   6.978   4.800 -0.0143  0.0792 -0.5492
  424MOL0     C58376   3.294   6.962   4.707 -1.0746  0.6691 -0.1823
  424MOL0     O58377   3.329   6.950   4.579  0.0374  0.4230  0.2027
  424MOL0     C58378   3.455   6.955   4.544 -0.9239 -0.2332  0.3885
  424MOL0     C58379   3.522   7.082   4.525 -0.0058  0.9680 -0.0485
  424MOL0     C58380   3.650   7.091   4.471 -0.7840 -0.0836  0.5674
  424MOL0     C58381   3.714   6.980   4.416 -0.8648  0.4225 -0.0305
  424MOL0     O58382   3.837   6.980   4.352 -0.6811  0.4647  0.2789
  424MOL0     C58383   3.915   7.101   4.353  0.6461 -0.0995  0.0453
  424MOL0     C58384   4.040   7.090   4.271  0.5135 -0.9102  0.2821
  424MOL0     C58385   4.160   7.181   4.315  0.7721 -0.4164 -0.3237
  424MOL0     C58386   4.296   7.171   4.239 -0.9369 -0.3934 -0.1228
  424MOL0     C58387   4.423   7.258   4.290  0.1362 -0.1676  0.7231
  424MOL0     C58388   4.430   7.401   4.220 -0.1194 -0.3563  0.3787
  424MOL0     C58389   4.559   7.478   4.265 -0.7849 -0.4668 -0.6196
  424MOL0     C58390   4.683   7.424   4.203 -0.2994 -0.3539  0.1964
  424MOL0     N58391   4.703   7.453   4.058  0.0832 -0.6519  0.8656
  424MOL0     C58392   4.770   7.560   4.001 -0.4309  0.4548  0.3560
  424MOL0     C58393   4.743   7.565   3.870  0.5631  0.2056  0.2485
  424MOL0     C58394   4.782   7.672   3.770 -0.5799 -0.4383  0.1714
  424MOL0     C58395   4.891   7.769   3.811  0.4264 -0.4396  0.1203
  424MOL0     C58396   4.830   7.886   3.888  0.1343 -0.1162  0.2029
  424MOL0     C58397   4.941   7.958   3.966 -0.1870  0.3147 -1.3290
  424MOL0     O58398   5.055   7.981   3.883 -0.3915  0.2809 -0.0037
  424MOL0     C58399   5.179   7.983   3.929 -0.1881 -0.0646  0.2645
  424MOL0     C58400   5.221   7.925   4.055 -0.0322  0.2459  0.0424
  424MOL0     C58401   5.352   7.915   4.093  0.3633 -1.2660  0.4569
  424MOL0     C58402   5.394   7.853   4.221 -0.1037  0.5679 -0.6394
  424MOL0     C58403   5.457   7.977   4.009 -0.0465  0.2525  1.0298
  424MOL0     C58404   5.594   7.984   4.048 -0.4156  0.2912 -0.2966
  424MOL0     O58405   5.683   7.998   3.945 -0.6945 -0.0225 -0.6967
  424MOL0     C58406   5.815   8.019   3.967  0.8269  0.2142 -0.5176
  424MOL0     C58407   5.894   7.955   3.876  0.2031  0.3940 -0.7178
  424MOL0     C58408   6.026   7.968   3.877  0.5976  0.2644  1.0954
  424MOL0     C58409   6.093   8.048   3.964  0.5020  1.4892  0.3460
  424MOL0     O58410   6.234   8.050   3.962  0.1011 -0.4694  0.1315
  424MOL0     C58411   6.285   8.124   4.068 -0.6406  0.6222 -0.0554
  424MOL0     C58412   6.434   8.099   4.071  0.2967 -0.0147  0.0446
  424MOL0     C58413   6.476   7.956   4.112 -0.1449 -0.1477 -0.4188
  424MOL0     C58414   6.628   7.934   4.089  0.0145 -0.1483  0.0736
  424MOL0     C58415   6.671   7.811   4.178 -0.4621  1.1295  0.9445
  424MOL0     C58416   6.822   7.794   4.153  0.4579  0.9179  0.1838
  424MOL0     C58417   6.888   7.702   4.253  0.4897  0.5454 -0.5907
  424MOL0     C58418   7.035   7.706   4.245  0.6823  0.0001 -0.0053
  424MOL0    Cl58419   7.103   7.859   4.304 -0.1859  0.2593 -0.8662
  424MOL0     C58420   6.011   8.122   4.051  0.6478  0.3510 -0.3285
  424MOL0     C58421   5.873   8.102   4.052  0.4178 -0.3912  0.0670
  424MOL0     O58422   5.629   7.977   4.162 -0.2990 -0.7078  0.1128
  424MOL0     C58423   5.412   8.039   3.891 -0.0444  0.1647  0.3271
  424MOL0     C58424   5.287   8.030   3.842  0.6420  0.3331 -0.0588
  424MOL0     N58425   4.672   7.448   3.844  0.4689 -0.0719 -0.3634
  424MOL0     N58426   4.651   7.389   3.960  0.7408 -0.3265  1.2216
  424MOL0     C58427   3.652   6.857   4.449 -0.3451 -0.5170  0.8212
  424MOL0     C58428   3.529   6.839   4.510 -0.3019  0.7307  0.0424
  424MOL0     C58429   3.147   6.949   4.738  0.3309 -0.2438 -0.2347
  424MOL0     C58430   3.056   6.954   4.636  0.4529  0.1272 -0.4255
  424MOL0     C58431   2.914   6.946   4.660  0.8148  0.2023  1.2648
  424MOL0     C58432   2.865   6.939   4.794 -1.1315 -1.2509  0.1878
  424MOL0     O58433   2.730   6.940   4.822  0.2724 -0.6915  0.4607
  424MOL0     C58434   2.681   6.937   4.957  0.3280  0.2755  1.0473
  424MOL0     C58435   2.700   7.072   5.023  0.7781  0.1576 -0.5439
  424MOL0     C58436   2.594   7.101   5.140  0.4553 -0.4316  0.3564
  424MOL0     C58437   2.652   7.071   5.279  0.2476 -0.3451  0.4409
  424MOL0     C58438   2.758   7.172   5.322  0.2464  0.0749  0.5767
  424MOL0     C58439   2.842   7.254   5.356  0.1405 -0.0870  0.4171
  424MOL0     C58440   2.959   6.933   4.897 -0.1811 -0.5045 -0.6156
  424MOL0     C58441   3.097   6.946   4.870 -0.4883 -0.6974 -0.5436
  424MOL0     C58442   3.177   6.944   5.002  0.0350 -0.0986  0.8656
  424MOL0     H58443   3.463   7.165   4.561  0.1030  0.8660  0.3728
  424MOL0     H58444   3.689   7.192   4.461 -1.1431 -0.0470 -0.6039
  424MOL0     H58445   3.946   7.116   4.456  0.9086  0.3309 -0.0902
  424MOL0     H58446   3.858   7.189   4.320  2.1607  1.1260  0.5985
  424MOL0     H58447   4.071   6.987   4.290  1.1621 -0.3974  2.1610
  424MOL0     H58448   4.012   7.108   4.166  0.3118  4.4289  0.9541
  424MOL0     H58449   4.123   7.284   4.308 -0.6932 -0.4818  3.8349
  424MOL0     H58450   4.183   7.160   4.420  1.1257  2.0013  0.1517
  424MOL0     H58451   4.326   7.067   4.252 -1.8265 -0.6946 -0.3759
  424MOL0     H58452   4.284   7.197   4.134 -0.6818 -1.6255 -0.4702
  424MOL0     H58453   4.513   7.205   4.258 -1.0628 -1.7380 -0.1747
  424MOL0     H58454   4.429   7.273   4.398  1.8735 -1.2816  0.8240
  424MOL0     H58455   4.410   7.398   4.113  0.8040 -1.2809  0.2216
  424MOL0     H58456   4.347   7.457   4.265  1.9296  1.3697  2.2992
  424MOL0     H58457   4.567   7.474   4.373  0.0704  2.1236 -0.5255
  424MOL0     H58458   4.545   7.582   4.233  1.2701 -0.4157 -1.5246
  424MOL0     H58459   4.763   7.479   4.254 -0.9255  0.9624 -0.1961
  424MOL0     H58460   4.686   7.315   4.211 -1.5783 -0.3448  1.0557
  424MOL0     H58461   4.838   7.624   4.056  0.7364 -1.7784  1.6502
  424MOL0     H58462   4.691   7.730   3.752 -0.7837 -0.9339 -0.4322
  424MOL0     H58463   4.806   7.611   3.682 -1.9789 -2.6997  1.2648
  424MOL0     H58464   4.951   7.715   3.884 -1.8415 -1.3099  1.4339
  424MOL0     H58465   4.946   7.810   3.725 -1.4861  3.3685  0.4790
  424MOL0     H58466   4.783   7.963   3.827  0.3079 -0.3198 -0.1849
  424MOL0     H58467   4.759   7.844   3.960  2.0010 -1.9416  1.0804
  424MOL0     H58468   4.905   8.057   3.997 -0.1896 -0.5548  1.7910
  424MOL0     H58469   4.972   7.898   4.052  3.3746  1.0992 -1.9194
  424MOL0     H58470   5.163   7.871   4.130 -0.0291 -0.2695 -0.3207
  424MOL0     H58471   5.414   7.936   4.288 -0.7090 -1.0876  1.7027
  424MOL0     H58472   5.476   7.783   4.203 -1.2977 -0.8274 -0.8875
  424MOL0     H58473   5.309   7.803   4.269  1.5064 -0.4421  1.2784
  424MOL0     H58474   5.847   7.885   3.808  0.2651 -1.6128  1.2037
  424MOL0     H58475   6.090   7.902   3.819 -0.3168 -1.0692  1.5442
  424MOL0     H58476   6.271   8.233   4.059  2.0126  1.0373  0.0459
  424MOL0     H58477   6.239   8.102   4.165  0.3695 -0.1910  0.2576
  424MOL0     H58478   6.483   8.117   3.975  2.4002  0.3748  1.1254
  424MOL0     H58479   6.485   8.179   4.127  2.0463 -2.7585  2.6672
  424MOL0     H58480   6.429   7.884   4.044 -1.5295  0.1099  0.2383
  424MOL0     H58481   6.443   7.927   4.212  3.0498  0.1252  0.8107
  424MOL0     H58482   6.687   8.017   4.128  1.6525 -0.8528 -0.8276
  424MOL0     H58483   6.656   7.915   3.985  0.6182  0.7912  0.0570
  424MOL0     H58484   6.658   7.820   4.286  1.1712 -0.5760  1.3427
  424MOL0     H58485   6.610   7.727   4.145 -0.7079  0.0007  3.9271
  424MOL0     H58486   6.875   7.889   4.166 -0.4702  1.3089  1.2481
  424MOL0     H58487   6.831   7.764   4.048  0.0985 -0.3066  0.4841
  424MOL0     H58488   6.850   7.600   4.243  2.6641 -0.4874  0.9791
  424MOL0     H58489   6.864   7.734   4.355  1.2338 -1.5490  0.2982
  424MOL0     H58490   7.064   7.667   4.147 -0.5414  0.6674 -0.6487
  424MOL0     H58491   7.060   7.634   4.325  1.1005  2.0139  1.7668
  424MOL0     H58492   6.051   8.190   4.126  0.1589 -0.7760  1.0080
  424MOL0     H58493   5.815   8.170   4.113 -0.5229 -1.7897  0.8069
  424MOL0     H58494   5.481   8.084   3.820 -0.9697  1.2900  0.1143
  424MOL0     H58495   5.258   8.063   3.743 -0.8842 -0.5495  0.0639
  424MOL0     H58496   3.719   6.773   4.427  1.3722  1.0016 -0.0433
  424MOL0     H58497   3.479   6.744   4.531 -0.4390  1.1946  1.9652
  424MOL0     H58498   3.087   6.963   4.532 -1.5418  0.9416 -0.9957
  424MOL0     H58499   2.851   6.939   4.571  1.3336  0.9884  0.8252
  424MOL0     H58500   2.574   6.916   4.958  0.4813 -0.6952  0.0521
  424MOL0     H58501   2.729   6.851   5.005 -0.8722 -2.5498 -2.3197
  424MOL0     H58502   2.685   7.147   4.944 -0.0084  1.7664  1.0550
  424MOL0     H58503   2.800   7.087   5.065 -0.0186 -0.4892  1.7331
  424MOL0     H58504   2.569   7.208   5.141  1.0223 -0.2868 -0.0883
  424MOL0     H58505   2.498   7.056   5.116  0.8822 -0.1827 -2.0449
  424MOL0     H58506   2.707   6.976   5.276  2.0799  0.6951 -1.0188
  424MOL0     H58507   2.570   7.066   5.352 -0.3059 -1.6877 -0.2373
  424MOL0     H58508   2.918   7.327   5.377 -0.7268  0.2057  2.8568
  424MOL0     H58509   2.928   6.932   5.001  4.4219  2.0710  1.0935
  424MOL0     H58510   3.115   6.962   5.090 -0.5445 -0.0913  0.4639
  424MOL0     H58511   3.220   6.846   5.022  3.5706  0.6509 -2.0147
  424MOL0     H58512   3.265   7.009   4.997 -1.2565  1.6933 -2.3548
  425MOL0     O58513  11.341   9.644  11.359 -0.0564 -0.0895  0.3642
  425MOL0     C58514  11.393   9.673  11.466 -0.8238 -0.0719 -0.7902
  425MOL0     O58515  11.528   9.661  11.501 -0.0425 -0.3541 -0.3357
  425MOL0     C58516  11.631   9.620  11.423 -0.3415  0.5248 -0.5391
  425MOL0     C58517  11.640   9.616  11.286 -0.1183 -0.0811 -0.3784
  425MOL0     C58518  11.754   9.564  11.228 -0.6433 -0.1940 -0.5753
  425MOL0     C58519  11.857   9.504  11.296  0.1838 -0.0892  0.0601
  425MOL0     O58520  11.972   9.458  11.237  0.2957 -0.1104 -0.3477
  425MOL0     C58521  11.960   9.425  11.092  0.4787  0.4959  0.5638
  425MOL0     C58522  12.068   9.321  11.033  0.3145 -0.4517 -0.8130
  425MOL0     C58523  12.208   9.384  11.068  0.1004 -0.0346 -0.6304
  425MOL0     C58524  12.308   9.334  10.969 -0.2682  0.2338 -0.2509
  425MOL0     C58525  12.344   9.188  10.968 -0.2496 -0.1111  0.1032
  425MOL0     C58526  12.492   9.160  10.935 -0.2770 -0.3608 -0.6982
  425MOL0     C58527  12.548   9.242  10.809  0.0197  0.1630  0.5493
  425MOL0     C58528  12.691   9.219  10.781 -0.4417  1.1951 -1.1017
  425MOL0     N58529  12.734   9.270  10.649  0.2234  0.1726  0.7616
  425MOL0     C58530  12.798   9.193  10.562 -0.3014  0.4464  0.1195
  425MOL0     C58531  12.854   9.267  10.471  0.1274 -0.9173 -1.2765
  425MOL0     C58532  12.928   9.217  10.354  0.4219  0.5474 -0.6742
  425MOL0     C58533  13.076   9.249  10.366  0.1593 -0.1952 -0.4784
  425MOL0     C58534  13.158   9.195  10.240 -0.0638  0.2282  0.4448
  425MOL0     C58535  13.127   9.273  10.104  0.3193  0.8576 -0.4393
  425MOL0     O58536  13.133   9.185   9.993 -0.3317 -0.7355  0.0914
  425MOL0     C58537  13.248   9.172   9.917  0.5497 -0.1925 -0.0190
  425MOL0     C58538  13.362   9.237   9.944 -0.5079  0.3650  0.1262
  425MOL0     C58539  13.485   9.197   9.875  0.5146  0.0705 -0.4919
  425MOL0     C58540  13.606   9.254   9.940 -0.1397  0.2779  0.5506
  425MOL0     C58541  13.481   9.094   9.781  0.1703  0.5518  0.3890
  425MOL0     C58542  13.609   9.021   9.718 -0.3613  0.1209 -0.3381
  425MOL0     O58543  13.728   9.090   9.706  0.3206  0.1737  0.2486
  425MOL0     C58544  13.826   9.016   9.638 -0.3194  0.4975  0.1456
  425MOL0     C58545  13.853   9.042   9.500 -1.1203  0.4068 -0.3085
  425MOL0     C58546  13.948   8.955   9.443 -0.0915 -0.3161  1.1411
  425MOL0     C58547  14.019   8.861   9.511 -0.2540 -0.3340 -0.3424
  425MOL0     O58548  14.101   8.766   9.456  0.0198  0.0296 -1.3559
  425MOL0     C58549  14.153   8.802   9.320 -0.3424  0.4953 -0.5738
  425MOL0     C58550  14.244   8.685   9.269 -1.4498 -0.6650  0.6934
  425MOL0     C58551  14.360   8.723   9.174 -0.1978 -0.0085  0.7082
  425MOL0     C58552  14.339   8.685   9.022  0.7257 -0.5878  0.6540
  425MOL0     C58553  14.446   8.754   8.940 -0.3043  0.9159  0.0530
  425MOL0     C58554  14.433   8.718   8.787  0.5654 -0.6325 -0.1607
  425MOL0     C58555  14.411   8.572   8.759 -0.5249  0.1996  0.2307
  425MOL0     C58556  14.529   8.497   8.810  0.0956  0.0195  0.5361
  425MOL0    Cl58557  14.683   8.552   8.732  0.2511 -0.2918  0.0312
  425MOL0     C58558  13.991   8.842   9.643  0.5344 -1.3724 -0.2191
  425MOL0     C58559  13.882   8.909   9.704  0.4821 -0.1001 -0.7666
  425MOL0     O58560  13.581   8.903   9.687  0.4325 -0.5176 -0.9055
  425MOL0     C58561  13.357   9.040   9.745  0.2162  0.9476 -0.4329
  425MOL0     C58562  13.246   9.083   9.812 -0.3044 -0.1335  0.7319
  425MOL0     N58563  12.832   9.397  10.505  0.5154 -0.8850 -0.9370
  425MOL0     N58564  12.772   9.400  10.621 -0.4337 -0.6219  0.2035
  425MOL0     C58565  11.845   9.502  11.434  0.9473 -0.3135  0.1841
  425MOL0     C58566  11.730   9.562  11.499 -0.0675 -0.7632  0.3222
  425MOL0     C58567  11.285   9.711  11.567 -0.3650  0.2999  0.0924
  425MOL0     C58568  11.153   9.662  11.545  1.0138 -0.3733  0.5348
  425MOL0     C58569  11.046   9.690  11.629  0.2822 -0.0866 -0.0315
  425MOL0     C58570  11.066   9.768  11.739  0.4634  0.1642 -0.0125
  425MOL0     O58571  10.970   9.794  11.834 -0.5052  0.2164 -0.0296
  425MOL0     C58572  10.832   9.815  11.819  0.1221 -0.1240 -0.4903
  425MOL0     C58573  10.767   9.858  11.946  0.4388 -0.1302  0.0627
  425MOL0     C58574  10.818   9.985  12.002  0.0722 -0.8266 -0.4802
  425MOL0     C58575  10.702  10.071  12.069  0.7900 -0.7898 -0.2712
  425MOL0     C58576  10.676  10.033  12.212  0.2931  0.3239  0.5698
  425MOL0     C58577  10.668  10.005  12.333 -0.0178 -0.7880 -0.2299
  425MOL0     C58578  11.192   9.810  11.767 -1.2865 -0.1058 -0.3184
  425MOL0     C58579  11.302   9.787  11.692 -0.2190  0.1030  0.5290
  425MOL0     C58580  11.427   9.852  11.731  0.0495  0.1173  0.4078
  425MOL0     H58581  11.567   9.659  11.218 -1.2382 -1.5463 -0.1431
  425MOL0     H58582  11.758   9.586  11.122 -2.7656  2.1535 -0.2622
  425MOL0     H58583  11.964   9.515  11.030  0.8597 -1.8335 -3.0985
  425MOL0     H58584  11.868   9.369  11.073  1.4262 -0.9956  0.2207
  425MOL0     H58585  12.059   9.221  11.075  0.9918 -0.2606 -0.2102
  425MOL0     H58586  12.047   9.330  10.926 -2.5916  0.9938 -0.2266
  425MOL0     H58587  12.205   9.493  11.055 -0.1786  0.5040  2.9750
  425MOL0     H58588  12.232   9.367  11.174  0.5346 -0.4984 -0.7973
  425MOL0     H58589  12.275   9.357  10.867  1.2747 -0.5265 -0.9470
  425MOL0     H58590  12.401   9.391  10.979 -0.5708  0.7845 -0.5434
  425MOL0     H58591  12.277   9.134  10.900  1.1907  0.1237 -1.5532
  425MOL0     H58592  12.332   9.144  11.068  2.5786  0.7390  0.9290
  425MOL0     H58593  12.546   9.195  11.023 -3.6086  1.9264  0.6572
  425MOL0     H58594  12.516   9.054  10.926 -0.5999 -0.5950  0.9671
  425MOL0     H58595  12.540   9.351  10.821 -0.2092  0.1787  0.2633
  425MOL0     H58596  12.496   9.218  10.716 -0.6835 -1.6338  1.3682
  425MOL0     H58597  12.758   9.252  10.860 -2.6182  2.4979  0.2808
  425MOL0     H58598  12.711   9.111  10.779  2.2968  1.5754  0.2755
  425MOL0     H58599  12.783   9.085  10.557  2.0755  0.1053 -0.9100
  425MOL0     H58600  12.872   9.262  10.273 -0.5167 -0.2304 -0.4713
  425MOL0     H58601  12.922   9.109  10.340  0.7300  0.1742  1.5863
  425MOL0     H58602  13.088   9.355  10.389  1.1724 -0.2612 -0.6557
  425MOL0     H58603  13.115   9.200  10.455 -1.5434 -2.0042 -0.6399
  425MOL0     H58604  13.265   9.184  10.254  0.1559 -0.2165 -1.3018
  425MOL0     H58605  13.130   9.092  10.218 -1.3030  0.2634  1.6896
  425MOL0     H58606  13.022   9.306  10.108 -0.0940 -0.4238 -0.1509
  425MOL0     H58607  13.197   9.357  10.109  1.9878 -0.5074  4.3250
  425MOL0     H58608  13.354   9.322  10.011  0.8270  0.1386  0.6013
  425MOL0     H58609  13.622   9.207  10.037  1.3696  0.8351  0.5959
  425MOL0     H58610  13.594   9.362   9.951  1.3420  0.5826 -0.4691
  425MOL0     H58611  13.694   9.243   9.876 -1.8021  1.1284 -2.0427
  425MOL0     H58612  13.807   9.121   9.442  2.0849  2.7084  0.0575
  425MOL0     H58613  13.965   8.964   9.336 -3.3836  1.4462  0.6642
  425MOL0     H58614  14.075   8.816   9.245  1.3989  0.4180 -2.4510
  425MOL0     H58615  14.216   8.891   9.321 -1.7210  1.5979  2.2425
  425MOL0     H58616  14.296   8.639   9.354  0.5372  0.1273 -0.0274
  425MOL0     H58617  14.180   8.617   9.213  1.4318 -1.4478 -1.9479
  425MOL0     H58618  14.449   8.675   9.215  0.1607 -0.5132 -0.6156
  425MOL0     H58619  14.385   8.829   9.181 -2.9280  0.8119 -0.4238
  425MOL0     H58620  14.241   8.724   8.991  0.2196  0.0080  2.8055
  425MOL0     H58621  14.337   8.576   9.025 -2.7772 -0.6261  0.7745
  425MOL0     H58622  14.436   8.862   8.953 -3.3320  0.6470  0.4747
  425MOL0     H58623  14.547   8.728   8.974 -0.9282 -3.7435 -1.0130
  425MOL0     H58624  14.525   8.757   8.742 -0.6924  1.9796 -0.6340
  425MOL0     H58625  14.345   8.764   8.742 -0.4639 -2.2104  0.1389
  425MOL0     H58626  14.403   8.558   8.651 -1.9884 -1.6105  0.5128
  425MOL0     H58627  14.319   8.549   8.815 -1.6828  0.0893 -1.6395
  425MOL0     H58628  14.510   8.395   8.777 -1.4141  0.5392 -0.3036
  425MOL0     H58629  14.523   8.501   8.920 -2.2716 -0.1593  0.4650
  425MOL0     H58630  14.022   8.754   9.698 -2.1793 -1.6910  0.9650
  425MOL0     H58631  13.851   8.898   9.807  0.3369  2.4787 -0.4912
  425MOL0     H58632  13.350   8.960   9.673 -0.4022  2.1222 -1.7351
  425MOL0     H58633  13.152   9.044   9.774  0.8265  0.8342 -3.5722
  425MOL0     H58634  11.918   9.457  11.500  0.3866  0.2692  1.2234
  425MOL0     H58635  11.721   9.569  11.607 -1.5661  0.8864  0.1245
  425MOL0     H58636  11.135   9.591  11.465 -2.1575  0.5210  0.3279
  425MOL0     H58637  10.947   9.650  11.612  0.8513 -1.0344 -1.3225
  425MOL0     H58638  10.821   9.895  11.745 -1.3960  0.0575 -0.0900
  425MOL0     H58639  10.785   9.721  11.791  1.2955 -1.1426  0.8291
  425MOL0     H58640  10.761   9.777  12.020 -0.3929 -1.1002 -1.0276
  425MOL0     H58641  10.665   9.869  11.909 -0.6273 -1.4351  2.3858
  425MOL0     H58642  10.904   9.968  12.068 -0.4402 -0.2827  0.3460
  425MOL0     H58643  10.852  10.043  11.915  2.7334 -0.3579  0.7693
  425MOL0     H58644  10.613  10.055  12.008  1.0845 -0.5025 -0.7872
  425MOL0     H58645  10.734  10.174  12.089  2.4096 -1.2762 -0.2108
  425MOL0     H58646  10.665   9.981  12.437  2.3372  1.3783  0.4310
  425MOL0     H58647  11.196   9.873  11.855 -1.7656  1.0175 -1.0784
  425MOL0     H58648  11.457   9.903  11.639 -3.4361 -0.6426 -1.2981
  425MOL0     H58649  11.414   9.923  11.813 -1.4389  0.8313 -0.3962
  425MOL0     H58650  11.510   9.784  11.748 -0.5428 -0.9870 -0.9312
  426MOL0     O58651   2.353   6.250   5.622 -0.3408 -0.4565 -1.0308
  426MOL0     C58652   2.281   6.327   5.562  0.8999 -0.3959 -0.4863
  426MOL0     O58653   2.330   6.434   5.479  0.6136  0.1607  0.3905
  426MOL0     C58654   2.450   6.499   5.485 -0.3507 -0.4231 -1.2926
  426MOL0     C58655   2.488   6.579   5.384 -0.5801  0.0036 -0.2199
  426MOL0     C58656   2.606   6.652   5.390 -0.1505  0.1417  0.0298
  426MOL0     C58657   2.693   6.648   5.496  0.0329 -0.5616 -0.9941
  426MOL0     O58658   2.809   6.715   5.487  0.1682 -0.2339 -0.3422
  426MOL0     C58659   2.869   6.775   5.607 -0.5052  0.6267 -0.3503
  426MOL0     C58660   2.997   6.859   5.559 -0.1463 -0.1273 -0.8124
  426MOL0     C58661   3.104   6.758   5.499  0.1968 -0.1673  0.6362
  426MOL0     C58662   3.224   6.830   5.431  0.6987  0.4407  0.8581
  426MOL0     C58663   3.327   6.734   5.367  1.1842  0.5068 -0.6649
  426MOL0     C58664   3.423   6.812   5.282 -0.4809  0.1118  1.4894
  426MOL0     C58665   3.513   6.721   5.201  0.3668 -0.9726  0.1019
  426MOL0     C58666   3.606   6.799   5.109 -0.0876  0.1459 -0.5529
  426MOL0     N58667   3.719   6.847   5.191  0.1283 -0.1227  0.7250
  426MOL0     C58668   3.708   6.963   5.255  0.6456 -1.2793  0.6375
  426MOL0     C58669   3.836   6.984   5.299  0.1052  1.0427  0.4557
  426MOL0     C58670   3.885   7.111   5.360  0.1712  0.2209 -0.7889
  426MOL0     C58671   4.035   7.138   5.346 -0.1065  0.1136 -0.1838
  426MOL0     C58672   4.076   7.270   5.396 -0.3723  0.4063  0.4910
  426MOL0     C58673   4.222   7.328   5.385  0.5253  0.8951  0.0071
  426MOL0     O58674   4.262   7.278   5.256  0.6578 -0.1070  0.4257
  426MOL0     C58675   4.392   7.305   5.216  0.7258  0.3592  1.1001
  426MOL0     C58676   4.482   7.396   5.271 -0.8825 -0.5058 -0.0566
  426MOL0     C58677   4.615   7.408   5.216  1.0159 -0.3822  0.2112
  426MOL0     C58678   4.708   7.512   5.276 -0.5163  0.6929 -0.9894
  426MOL0     C58679   4.658   7.327   5.115  0.1871  0.6524  0.0363
  426MOL0     C58680   4.801   7.317   5.066  0.4154  0.2089 -0.1586
  426MOL0     O58681   4.904   7.391   5.106  0.0295  0.1831 -0.2548
  426MOL0     C58682   5.032   7.390   5.061 -0.2372 -0.7577  0.1715
  426MOL0     C58683   5.102   7.269   5.059 -0.6321 -0.0865 -1.2904
  426MOL0     C58684   5.230   7.263   5.012 -0.4991  0.4511  0.5509
  426MOL0     C58685   5.297   7.378   4.975 -0.0805 -0.5319 -0.2734
  426MOL0     O58686   5.421   7.350   4.930  0.4631  0.6927  0.4044
  426MOL0     C58687   5.514   7.451   4.901  0.4103  0.1418  0.0415
  426MOL0     C58688   5.625   7.376   4.812  0.1910  0.3707  0.7080
  426MOL0     C58689   5.758   7.461   4.814 -0.0977  0.7796  0.0824
  426MOL0     C58690   5.877   7.389   4.759  0.0254  1.2060  0.0727
  426MOL0     C58691   5.887   7.388   4.618 -1.0074  0.1036 -0.3387
  426MOL0     C58692   6.017   7.313   4.570 -0.0977  0.1698  0.0007
  426MOL0     C58693   6.037   7.318   4.423 -0.2836  0.6003 -0.5978
  426MOL0     C58694   5.930   7.240   4.343 -0.0313  1.3829 -0.8264
  426MOL0    Cl58695   5.941   7.063   4.379 -0.7360 -0.1885  0.4307
  426MOL0     C58696   5.235   7.499   4.997  0.4058 -0.9579  0.2645
  426MOL0     C58697   5.098   7.506   5.024  0.5985 -0.1800  0.2617
  426MOL0     O58698   4.806   7.238   4.976  0.0789 -0.3060 -0.4392
  426MOL0     C58699   4.570   7.237   5.056  0.4867  0.7134  0.0071
  426MOL0     C58700   4.438   7.221   5.104  0.3797 -0.8019 -1.1282
  426MOL0     N58701   3.909   6.876   5.284  0.2003 -0.0432  0.3596
  426MOL0     N58702   3.846   6.800   5.207  0.0351 -0.2757 -0.5439
  426MOL0     C58703   2.648   6.562   5.607 -0.0191 -0.1280  0.4651
  426MOL0     C58704   2.532   6.489   5.600  0.2585  0.3012  0.6646
  426MOL0     C58705   2.125   6.322   5.566 -0.1814 -0.3481  0.2018
  426MOL0     C58706   2.052   6.439   5.538  1.0076 -0.0940 -0.3222
  426MOL0     C58707   1.910   6.442   5.543  0.2499 -0.9405  0.1369
  426MOL0     C58708   1.844   6.336   5.585 -0.2219 -0.6126  0.1922
  426MOL0     O58709   1.707   6.324   5.596  0.5359 -0.3313 -0.3592
  426MOL0     C58710   1.621   6.397   5.516 -0.1181 -0.7405  0.5819
  426MOL0     C58711   1.575   6.523   5.587 -0.5938 -0.3138 -0.0019
  426MOL0     C58712   1.463   6.594   5.508 -0.0252 -1.0036  0.4189
  426MOL0     C58713   1.511   6.666   5.371  0.0796 -1.1429 -0.1598
  426MOL0     C58714   1.597   6.782   5.393  0.6283 -0.3044 -0.0914
  426MOL0     C58715   1.677   6.863   5.428  0.0492  0.1036 -0.6072
  426MOL0     C58716   1.914   6.217   5.613 -0.3673  0.0854 -0.7500
  426MOL0     C58717   2.052   6.209   5.606  0.2630 -0.3710 -0.7895
  426MOL0     C58718   2.120   6.080   5.639 -0.3311 -0.6251  0.1345
  426MOL0     H58719   2.426   6.597   5.297  0.1466  1.4993 -0.4692
  426MOL0     H58720   2.631   6.715   5.305  2.7757  2.8049  2.5831
  426MOL0     H58721   2.893   6.707   5.690  1.6930  0.7313 -0.8293
  426MOL0     H58722   2.803   6.854   5.642 -0.6422 -0.1750  1.2939
  426MOL0     H58723   2.962   6.941   5.496  0.6148 -0.5188 -1.7906
  426MOL0     H58724   3.041   6.903   5.649 -2.3964 -1.5344  1.0852
  426MOL0     H58725   3.129   6.683   5.575 -1.3923  0.8367  2.2216
  426MOL0     H58726   3.046   6.701   5.425 -3.0980  1.5202  1.7474
  426MOL0     H58727   3.185   6.892   5.350 -0.0134 -2.6609 -1.3243
  426MOL0     H58728   3.281   6.893   5.500  0.2808  1.6806  0.1165
  426MOL0     H58729   3.277   6.653   5.313  3.4177 -1.1536 -0.3636
  426MOL0     H58730   3.389   6.693   5.447  2.0535  1.3388 -0.8955
  426MOL0     H58731   3.370   6.887   5.222 -1.7256 -1.7234  0.1837
  426MOL0     H58732   3.485   6.868   5.353  0.1629  3.2142 -1.2740
  426MOL0     H58733   3.449   6.658   5.139 -0.0704  0.6681 -1.1881
  426MOL0     H58734   3.575   6.662   5.269  1.1929 -0.9636 -0.6197
  426MOL0     H58735   3.643   6.731   5.032 -2.4692 -0.4998 -1.1931
  426MOL0     H58736   3.553   6.879   5.058 -0.2036  0.4704  0.0624
  426MOL0     H58737   3.624   7.031   5.249  0.7036 -1.1600  1.0947
  426MOL0     H58738   3.871   7.113   5.469  0.2406  1.0083 -0.7849
  426MOL0     H58739   3.836   7.202   5.323  1.4193  1.3304  0.1857
  426MOL0     H58740   4.084   7.063   5.408  3.0428  4.1091  2.6656
  426MOL0     H58741   4.070   7.116   5.244  0.6845 -0.2354  0.1587
  426MOL0     H58742   4.018   7.333   5.326  1.5031 -0.2060 -1.7513
  426MOL0     H58743   4.036   7.288   5.496 -1.0176 -1.8900  0.6918
  426MOL0     H58744   4.231   7.436   5.394 -1.3230  0.9833  1.1930
  426MOL0     H58745   4.279   7.282   5.466 -2.8109 -1.4523  1.2461
  426MOL0     H58746   4.455   7.465   5.350  0.6013  0.7778 -0.6218
  426MOL0     H58747   4.654   7.581   5.342 -0.3510  0.7777 -0.9413
  426MOL0     H58748   4.738   7.572   5.190  0.6548  2.7766  0.7810
  426MOL0     H58749   4.798   7.475   5.327 -1.4500  2.5799  2.3582
  426MOL0     H58750   5.067   7.176   5.103  2.5211 -1.0636 -0.5891
  426MOL0     H58751   5.276   7.165   4.996 -2.4062 -0.1539 -1.7946
  426MOL0     H58752   5.475   7.542   4.855  0.3562  0.2095  0.2227
  426MOL0     H58753   5.555   7.479   4.998  1.5208 -2.0934  0.2907
  426MOL0     H58754   5.654   7.276   4.844 -2.5289 -1.4577 -2.0379
  426MOL0     H58755   5.589   7.355   4.711  0.7717  3.1567 -0.1680
  426MOL0     H58756   5.798   7.484   4.913 -0.1019  1.8909 -0.1696
  426MOL0     H58757   5.747   7.557   4.765  0.5739  1.1464  0.6312
  426MOL0     H58758   5.876   7.285   4.793  0.6545  0.1442 -2.8741
  426MOL0     H58759   5.964   7.425   4.813 -0.7196 -0.0258  2.2168
  426MOL0     H58760   5.796   7.347   4.574 -1.9717 -0.0009  1.6308
  426MOL0     H58761   5.907   7.493   4.593  3.6755 -0.8022 -1.2132
  426MOL0     H58762   6.008   7.212   4.610  2.9585 -0.8561 -1.6059
  426MOL0     H58763   6.113   7.348   4.608  1.3964 -1.8525 -1.6641
  426MOL0     H58764   6.134   7.274   4.400 -0.6404 -2.1635  2.4739
  426MOL0     H58765   6.043   7.424   4.395 -0.6747  0.9067  0.3996
  426MOL0     H58766   5.943   7.250   4.234 -0.7257  2.8762 -0.7998
  426MOL0     H58767   5.831   7.278   4.369 -0.8684 -0.8753 -0.4990
  426MOL0     H58768   5.293   7.590   4.984 -1.5294  0.1810 -0.9046
  426MOL0     H58769   5.060   7.608   5.024  0.1802 -0.3181  1.4875
  426MOL0     H58770   4.594   7.163   4.980  0.1561  1.1208 -0.4982
  426MOL0     H58771   4.375   7.141   5.068 -2.7131  0.5228  0.8367
  426MOL0     H58772   2.712   6.524   5.686 -3.2402 -4.3723  1.3842
  426MOL0     H58773   2.519   6.413   5.676  0.6871 -0.2331  0.2089
  426MOL0     H58774   2.103   6.526   5.498  0.6475  0.5109  0.5258
  426MOL0     H58775   1.871   6.537   5.507 -1.6752 -0.9510  2.0355
  426MOL0     H58776   1.675   6.426   5.425  0.6692 -1.1543  0.9154
  426MOL0     H58777   1.526   6.347   5.495 -1.4723  1.0396  2.0645
  426MOL0     H58778   1.661   6.590   5.595 -1.4118  0.6232  1.1194
  426MOL0     H58779   1.553   6.492   5.689  6.9646  1.8251  2.9392
  426MOL0     H58780   1.384   6.528   5.471 -0.4918  1.7179 -4.1952
  426MOL0     H58781   1.422   6.679   5.563  0.9502 -1.1458  1.4075
  426MOL0     H58782   1.419   6.694   5.319 -1.0104 -0.1178  2.1726
  426MOL0     H58783   1.565   6.597   5.305  2.4560 -0.2504  0.7243
  426MOL0     H58784   1.740   6.942   5.463  0.4963 -0.1448 -0.8427
  426MOL0     H58785   1.860   6.128   5.645 -1.2775  0.5527 -0.9463
  426MOL0     H58786   2.184   6.050   5.556 -1.2492 -0.1566 -0.7708
  426MOL0     H58787   2.180   6.088   5.730 -2.8157 -0.8903  1.9067
  426MOL0     H58788   2.042   6.005   5.654  1.2055 -2.1511  0.8101
  427MOL0     O58789   4.939   6.997   8.016 -0.1937  0.4915 -0.1864
  427MOL0     C58790   4.866   7.036   8.110  0.3209  0.5622 -0.4742
  427MOL0     O58791   4.900   7.035   8.239  0.1148  0.2741  0.6866
  427MOL0     C58792   4.998   6.952   8.284 -0.1977 -0.1099  0.3096
  427MOL0     C58793   5.090   7.002   8.369  0.0531  0.2501 -0.8358
  427MOL0     C58794   5.201   6.930   8.418 -0.2213  0.6678  0.5056
  427MOL0     C58795   5.216   6.793   8.374 -1.0634 -0.0633 -0.1916
  427MOL0     O58796   5.322   6.719   8.417 -0.7974 -0.0480  0.5833
  427MOL0     C58797   5.308   6.625   8.530  0.0083  0.2132  0.9360
  427MOL0     C58798   5.445   6.566   8.557  0.3577 -0.4561  0.6104
  427MOL0     C58799   5.548   6.679   8.570 -0.3314 -0.0892  0.5525
  427MOL0     C58800   5.686   6.610   8.601 -0.2577 -0.3372 -0.8189
  427MOL0     C58801   5.808   6.705   8.628 -0.2797 -0.0910  0.4971
  427MOL0     C58802   5.933   6.622   8.658 -0.5136  0.4957 -0.3577
  427MOL0     C58803   6.056   6.708   8.681 -0.1415  0.1870  0.7231
  427MOL0     C58804   6.167   6.619   8.744  0.0058 -0.3496 -0.4251
  427MOL0     N58805   6.240   6.538   8.652 -1.0903  0.0793 -0.9215
  427MOL0     C58806   6.281   6.586   8.530  0.2477  0.0766 -0.0924
  427MOL0     C58807   6.357   6.489   8.475 -0.0716  0.0240  0.2097
  427MOL0     C58808   6.450   6.493   8.345  0.4271 -0.8602 -0.5759
  427MOL0     C58809   6.599   6.466   8.372 -0.4438 -0.4073  0.1553
  427MOL0     C58810   6.688   6.582   8.422 -1.0623  0.5332 -0.6044
  427MOL0     C58811   6.825   6.532   8.486  0.0176 -0.4437 -0.0560
  427MOL0     O58812   6.861   6.416   8.422  0.7803  0.3861 -0.1717
  427MOL0     C58813   6.992   6.401   8.396  0.0511  0.2972 -0.8442
  427MOL0     C58814   7.018   6.316   8.290 -0.8012  1.0126 -0.3972
  427MOL0     C58815   7.154   6.278   8.251  0.6216  0.8149 -0.0819
  427MOL0     C58816   7.167   6.170   8.143 -0.6708 -0.4957  0.1111
  427MOL0     C58817   7.258   6.338   8.327 -0.1912 -0.3393  0.0757
  427MOL0     C58818   7.392   6.336   8.286  0.1806 -0.2827  1.1506
  427MOL0     O58819   7.426   6.437   8.196 -0.5236  1.1908  0.5689
  427MOL0     C58820   7.546   6.416   8.129 -0.9744  0.3227 -0.2452
  427MOL0     C58821   7.555   6.365   7.998 -0.0603  0.5289 -0.6827
  427MOL0     C58822   7.677   6.332   7.936  0.4583  0.2387 -1.1132
  427MOL0     C58823   7.797   6.352   8.010  0.8972  0.8470  0.7406
  427MOL0     O58824   7.920   6.314   7.956  0.4327 -0.1843  0.8215
  427MOL0     C58825   7.944   6.337   7.814  0.6910 -1.4789  0.2914
  427MOL0     C58826   8.069   6.271   7.756 -0.5888 -0.0429  0.8702
  427MOL0     C58827   8.067   6.289   7.606  0.5984 -1.0999  0.3726
  427MOL0     C58828   8.187   6.222   7.533  0.1082 -0.2088 -0.1801
  427MOL0     C58829   8.200   6.264   7.382  0.1278 -0.8253  0.6165
  427MOL0     C58830   8.237   6.417   7.367 -0.2717  0.2908 -0.3876
  427MOL0     C58831   8.280   6.445   7.220 -0.5853  0.5965  0.4015
  427MOL0     C58832   8.425   6.396   7.195  0.3270  0.0015 -0.2271
  427MOL0    Cl58833   8.555   6.489   7.275  0.0671 -0.3003 -0.1864
  427MOL0     C58834   7.794   6.397   8.141  0.1438  0.4455 -0.1625
  427MOL0     C58835   7.667   6.436   8.202 -0.5261 -0.5260 -0.1650
  427MOL0     O58836   7.464   6.258   8.331  0.1327  0.2171  0.0561
  427MOL0     C58837   7.223   6.423   8.424  0.5470 -0.8302 -0.1646
  427MOL0     C58838   7.094   6.460   8.463  1.0596 -0.2006 -0.0728
  427MOL0     N58839   6.349   6.378   8.552 -0.3833 -0.1913  0.3125
  427MOL0     N58840   6.271   6.406   8.650 -0.0791  0.1642 -0.7182
  427MOL0     C58841   5.124   6.741   8.291 -0.2685 -0.3042  0.3510
  427MOL0     C58842   5.013   6.816   8.246  0.4326 -0.5994  0.7630
  427MOL0     C58843   4.731   7.075   8.075  0.0205 -0.2309  0.0522
  427MOL0     C58844   4.617   7.006   8.142  0.4518  0.2145 -0.5155
  427MOL0     C58845   4.478   7.027   8.102 -1.0700 -0.0820  0.4840
  427MOL0     C58846   4.455   7.117   7.996 -1.1256 -0.4058  0.5687
  427MOL0     O58847   4.338   7.149   7.940 -0.5810 -0.7381 -0.1685
  427MOL0     C58848   4.228   7.137   8.023  0.7485 -0.0045  0.1778
  427MOL0     C58849   4.098   7.181   7.940 -0.2705  0.1375 -0.9153
  427MOL0     C58850   4.089   7.103   7.815  0.3391  0.1183 -0.0652
  427MOL0     C58851   4.003   7.166   7.708  0.4981 -0.3516 -0.0779
  427MOL0     C58852   4.019   7.315   7.683  0.0549  0.5945 -0.8639
  427MOL0     C58853   4.028   7.433   7.681  0.4027 -0.4435  0.3065
  427MOL0     C58854   4.564   7.189   7.937  0.0761 -0.5943 -0.2161
  427MOL0     C58855   4.692   7.174   7.980  0.5532 -0.5819  0.0154
  427MOL0     C58856   4.787   7.268   7.918 -0.4763  0.0501  0.7663
  427MOL0     H58857   5.098   7.108   8.391 -0.1895  0.3176 -1.0688
  427MOL0     H58858   5.269   6.977   8.490  1.5093 -2.6429  1.2171
  427MOL0     H58859   5.236   6.549   8.499 -0.9692  1.0430  1.0906
  427MOL0     H58860   5.276   6.677   8.620 -0.0626  0.1962  0.9213
  427MOL0     H58861   5.440   6.505   8.647  1.5034  0.3344  1.2402
  427MOL0     H58862   5.467   6.499   8.473  2.9674  0.3837  0.5414
  427MOL0     H58863   5.569   6.735   8.479  0.4192  0.7363  1.2138
  427MOL0     H58864   5.516   6.750   8.647 -0.1369  2.2443 -1.3779
  427MOL0     H58865   5.673   6.542   8.686 -1.7665 -0.5560 -1.1830
  427MOL0     H58866   5.718   6.542   8.522  1.5398  1.5334 -1.8046
  427MOL0     H58867   5.783   6.775   8.709 -1.1615  2.1824 -1.6226
  427MOL0     H58868   5.829   6.761   8.537 -1.8580  0.6405  0.5345
  427MOL0     H58869   5.914   6.573   8.754  1.5068 -0.3039 -0.3122
  427MOL0     H58870   5.949   6.556   8.572 -2.9928  1.0310 -1.3046
  427MOL0     H58871   6.039   6.793   8.748 -1.9962  0.2850  0.1901
  427MOL0     H58872   6.094   6.747   8.586 -1.6769 -0.3640 -0.1546
  427MOL0     H58873   6.236   6.693   8.786 -0.9260  0.9263 -1.0609
  427MOL0     H58874   6.133   6.559   8.829  2.5459 -0.2048  0.7732
  427MOL0     H58875   6.259   6.685   8.492 -3.0313 -0.5746 -0.1414
  427MOL0     H58876   6.447   6.594   8.304  0.9678 -1.0810 -1.1807
  427MOL0     H58877   6.411   6.420   8.273 -1.4186  0.1643 -0.6477
  427MOL0     H58878   6.613   6.377   8.434  0.4873 -0.4957 -0.1729
  427MOL0     H58879   6.628   6.432   8.273 -0.5696 -2.9750  0.9332
  427MOL0     H58880   6.694   6.662   8.348 -2.8577  3.3384  2.0209
  427MOL0     H58881   6.639   6.624   8.511 -3.4549 -5.0511  1.2234
  427MOL0     H58882   6.900   6.610   8.475  2.5110 -2.6562  0.3195
  427MOL0     H58883   6.838   6.514   8.593  1.7453 -0.4670 -0.2429
  427MOL0     H58884   6.944   6.263   8.231  0.6700  1.6588 -2.9386
  427MOL0     H58885   7.265   6.190   8.099 -1.2844  0.1060 -0.9993
  427MOL0     H58886   7.088   6.162   8.068  2.0864 -0.1953 -3.0358
  427MOL0     H58887   7.173   6.077   8.200 -0.3495  0.6008  1.9570
  427MOL0     H58888   7.464   6.341   7.944  0.0070 -0.7481 -0.2729
  427MOL0     H58889   7.675   6.285   7.839  0.8775 -2.2212 -0.0126
  427MOL0     H58890   7.861   6.298   7.754 -1.1792  1.5719  0.7031
  427MOL0     H58891   7.941   6.444   7.793 -2.5768 -2.1369 -3.9575
  427MOL0     H58892   8.161   6.309   7.800 -0.6669 -0.3379  1.2991
  427MOL0     H58893   8.069   6.163   7.777  2.2554 -0.5822 -1.4163
  427MOL0     H58894   8.063   6.396   7.580  3.0534 -1.0849 -0.1582
  427MOL0     H58895   7.978   6.239   7.567  0.4488 -1.7482  1.5004
  427MOL0     H58896   8.177   6.114   7.550 -1.3438  0.3510  3.3082
  427MOL0     H58897   8.283   6.235   7.584  1.6808 -0.8749 -2.7502
  427MOL0     H58898   8.269   6.194   7.335  0.2894  0.1229 -0.6250
  427MOL0     H58899   8.103   6.254   7.332  0.8260  0.8456 -1.2489
  427MOL0     H58900   8.312   6.450   7.439 -3.2359  2.0952  2.1604
  427MOL0     H58901   8.148   6.471   7.400  0.7867  1.1121  1.2444
  427MOL0     H58902   8.279   6.549   7.188  1.2479  0.5472  0.1086
  427MOL0     H58903   8.203   6.399   7.156 -0.0837 -0.7889  0.7609
  427MOL0     H58904   8.444   6.402   7.087 -4.0817  0.6133 -1.1613
  427MOL0     H58905   8.426   6.292   7.229 -0.8083  0.2465  0.5921
  427MOL0     H58906   7.888   6.411   8.193 -0.0764 -1.8961  1.0252
  427MOL0     H58907   7.668   6.480   8.301 -2.6121  2.3852 -1.3103
  427MOL0     H58908   7.298   6.480   8.479 -1.6846  1.6404  0.4963
  427MOL0     H58909   7.083   6.509   8.559 -1.1585  0.6722 -0.7255
  427MOL0     H58910   5.132   6.635   8.273 -0.7869 -0.6046  1.7446
  427MOL0     H58911   4.944   6.773   8.174  0.8570 -2.0727  1.2077
  427MOL0     H58912   4.636   6.928   8.215  0.2623  0.7203  0.0848
  427MOL0     H58913   4.396   6.983   8.158 -0.7230  2.7064  3.4620
  427MOL0     H58914   4.215   7.034   8.059 -0.1168 -0.4673 -1.4031
  427MOL0     H58915   4.244   7.205   8.108  2.3433  1.6908 -1.3750
  427MOL0     H58916   4.112   7.288   7.922  2.2255 -0.2174 -1.4486
  427MOL0     H58917   4.009   7.167   8.002  0.3853  0.4099  0.1133
  427MOL0     H58918   4.187   7.082   7.771 -0.2767 -0.5412 -1.1709
  427MOL0     H58919   4.041   7.006   7.834 -3.3891  1.4970 -1.5537
  427MOL0     H58920   3.899   7.148   7.737  0.4823 -0.3306 -0.1222
  427MOL0     H58921   4.025   7.129   7.607 -2.2497  1.5811 -1.5228
  427MOL0     H58922   4.021   7.538   7.658  1.9277 -0.4557 -0.3667
  427MOL0     H58923   4.539   7.271   7.871  2.3583  1.6481  1.5076
  427MOL0     H58924   4.742   7.334   7.845 -0.6070  1.0677  1.7363
  427MOL0     H58925   4.846   7.324   7.992  2.5130  0.6514 -1.8331
  427MOL0     H58926   4.859   7.200   7.872 -2.6646 -0.8526 -1.5135
  428MOL0     O58927   9.280   1.716   0.346 -0.0891  0.6449 -0.1427
  428MOL0     C58928   9.310   1.607   0.394  0.3224 -0.3646  0.0029
  428MOL0     O58929   9.423   1.586   0.466 -0.4890  0.2155 -0.1162
  428MOL0     C58930   9.489   1.692   0.510  0.4491  1.0048  0.1951
  428MOL0     C58931   9.427   1.775   0.609 -0.2859 -0.2579 -0.0093
  428MOL0     C58932   9.489   1.886   0.659  0.1270  0.7796  0.3110
  428MOL0     C58933   9.614   1.921   0.608  0.5831  0.1678  0.6313
  428MOL0     O58934   9.663   2.041   0.655 -0.4093  0.2462  0.7404
  428MOL0     C58935   9.807   2.057   0.665 -0.2445 -0.3470 -0.8842
  428MOL0     C58936   9.833   2.195   0.736  0.1563 -0.4015  0.0491
  428MOL0     C58937   9.795   2.185   0.877 -0.2909  1.0712  0.6937
  428MOL0     C58938   9.809   2.321   0.955  0.2798  0.0685  0.3155
  428MOL0     C58939   9.753   2.313   1.102 -0.2657 -0.2291 -0.2768
  428MOL0     C58940   9.837   2.224   1.182 -0.3462 -0.1768  0.7311
  428MOL0     C58941   9.770   2.218   1.318  0.0574  0.4277  0.4904
  428MOL0     C58942   9.847   2.120   1.411 -1.0313 -0.0778 -0.7462
  428MOL0     N58943   9.966   2.188   1.462 -0.2373 -0.2539  0.2922
  428MOL0     C58944  10.099   2.169   1.442 -0.1309  0.8864 -0.6843
  428MOL0     C58945  10.158   2.262   1.513 -0.1369 -0.4439  0.1485
  428MOL0     C58946  10.308   2.291   1.513 -0.4013  0.8228  0.3552
  428MOL0     C58947  10.339   2.433   1.455 -0.1528  0.7235  0.3266
  428MOL0     C58948  10.488   2.479   1.472  0.9408  0.2994  0.2052
  428MOL0     C58949  10.537   2.461   1.611  0.0749 -0.1760  0.5633
  428MOL0     O58950  10.478   2.532   1.714 -0.3478  0.0979 -1.0123
  428MOL0     C58951  10.526   2.667   1.744 -0.2936  0.6351  0.6814
  428MOL0     C58952  10.480   2.728   1.857 -0.6843  0.9177  0.1703
  428MOL0     C58953  10.522   2.859   1.881  0.1386 -0.4172  0.2202
  428MOL0     C58954  10.451   2.919   2.006  0.1901 -0.7650 -0.1736
  428MOL0     C58955  10.623   2.925   1.804 -0.0972 -0.1887  0.2052
  428MOL0     C58956  10.678   3.061   1.829  0.5738 -0.1415 -0.8720
  428MOL0     O58957  10.763   3.106   1.732  0.2160  0.0611  0.2922
  428MOL0     C58958  10.783   3.243   1.708 -0.2491  0.9080 -0.0669
  428MOL0     C58959  10.865   3.319   1.788  0.0140 -0.3857  0.2200
  428MOL0     C58960  10.897   3.451   1.745 -0.3628 -1.0071 -0.0936
  428MOL0     C58961  10.834   3.515   1.639 -0.4564 -0.6289 -0.7515
  428MOL0     O58962  10.867   3.635   1.582  0.0718 -0.1068  0.0020
  428MOL0     C58963  10.999   3.681   1.605 -0.1684  0.3418 -0.4431
  428MOL0     C58964  11.034   3.774   1.487  0.9966  0.4128 -0.1671
  428MOL0     C58965  11.005   3.720   1.345 -0.1762 -0.8598 -0.5748
  428MOL0     C58966  11.072   3.584   1.324 -0.3351  0.8100 -0.6635
  428MOL0     C58967  11.062   3.539   1.185  0.2487  0.6624 -0.2060
  428MOL0     C58968  10.923   3.505   1.137  0.5692 -0.3583 -0.5263
  428MOL0     C58969  10.915   3.444   1.004 -0.3959  0.4235  0.3774
  428MOL0     C58970  10.952   3.540   0.892 -0.0444 -0.3738  0.4938
  428MOL0    Cl58971  10.979   3.460   0.743  0.3747  0.4261  0.4131
  428MOL0     C58972  10.732   3.440   1.570 -0.2746 -0.6717  0.2050
  428MOL0     C58973  10.713   3.303   1.603 -0.0142 -0.0519  0.5590
  428MOL0     O58974  10.649   3.125   1.932  0.5676 -0.6770  0.6322
  428MOL0     C58975  10.661   2.858   1.686  0.1472  0.1889 -0.4832
  428MOL0     C58976  10.629   2.730   1.669 -0.9544  0.0801  0.9615
  428MOL0     N58977  10.063   2.334   1.585  0.4097 -0.9218  0.7923
  428MOL0     N58978   9.952   2.291   1.541 -0.3216 -0.4388  0.3110
  428MOL0     C58979   9.674   1.846   0.508 -1.1426 -0.6577  0.4387
  428MOL0     C58980   9.613   1.727   0.462 -0.4036 -0.4921  0.2883
  428MOL0     C58981   9.217   1.505   0.365 -0.0062 -0.4611 -0.3982
  428MOL0     C58982   9.076   1.532   0.352 -0.3032 -0.6094 -0.9457
  428MOL0     C58983   8.971   1.444   0.348  0.1386 -0.0508 -0.2334
  428MOL0     C58984   8.998   1.309   0.323 -0.2389  0.0909  0.1549
  428MOL0     O58985   8.911   1.212   0.286  0.0264  0.0613 -0.2381
  428MOL0     C58986   8.777   1.249   0.247  0.5225 -0.2166 -0.6327
  428MOL0     C58987   8.715   1.157   0.140  0.5541 -0.3668  0.4300
  428MOL0     C58988   8.701   1.220  -0.008  0.5429  0.8813 -0.3487
  428MOL0     C58989   8.699   1.106  -0.109  0.3803 -0.7888  0.5746
  428MOL0     C58990   8.664   1.171  -0.243  0.9523  0.5258 -0.3177
  428MOL0     C58991   8.622   1.211  -0.348 -0.3677 -0.1805 -0.1966
  428MOL0     C58992   9.132   1.273   0.316 -0.9498 -0.1042  0.4507
  428MOL0     C58993   9.240   1.367   0.337 -0.8932  0.2079 -0.1068
  428MOL0     C58994   9.382   1.319   0.314  0.0654 -0.0995 -0.2735
  428MOL0     H58995   9.334   1.734   0.647 -0.2877  0.6801  1.0378
  428MOL0     H58996   9.442   1.943   0.739  2.2180 -0.1098  2.2867
  428MOL0     H58997   9.846   2.066   0.563  0.8702  3.3202 -0.3095
  428MOL0     H58998   9.850   1.975   0.722 -1.6255  0.4555  1.4583
  428MOL0     H58999   9.938   2.224   0.732  0.8530 -2.8798 -1.2625
  428MOL0     H59000   9.774   2.274   0.687 -0.4086 -0.0556  1.2638
  428MOL0     H59001   9.697   2.137   0.884 -0.7007  1.9897  1.4940
  428MOL0     H59002   9.869   2.112   0.912 -0.7106  0.0610 -0.4529
  428MOL0     H59003   9.913   2.353   0.948  0.4349 -0.8016 -2.1905
  428MOL0     H59004   9.753   2.397   0.899  1.1025  2.1768  2.1918
  428MOL0     H59005   9.650   2.277   1.097  0.1405 -1.3052 -1.3026
  428MOL0     H59006   9.759   2.416   1.139 -2.5400  0.2482 -1.0746
  428MOL0     H59007   9.843   2.121   1.146 -0.4431 -0.0569  0.3692
  428MOL0     H59008   9.935   2.269   1.197 -0.9475  1.5867 -0.3720
  428MOL0     H59009   9.672   2.172   1.300 -0.0650  1.5362 -1.9831
  428MOL0     H59010   9.746   2.316   1.360 -1.9376  1.8169 -3.4453
  428MOL0     H59011   9.789   2.079   1.494  1.8223 -3.5608 -0.1939
  428MOL0     H59012   9.881   2.031   1.357  2.6930  0.3955  0.5285
  428MOL0     H59013  10.147   2.082   1.398 -1.9335  0.9621 -3.0364
  428MOL0     H59014  10.358   2.223   1.445 -0.6553  1.3041 -0.3269
  428MOL0     H59015  10.340   2.270   1.616 -1.4818 -3.5340 -0.0133
  428MOL0     H59016  10.315   2.412   1.350  3.8619 -1.0387 -0.4326
  428MOL0     H59017  10.266   2.504   1.496  0.3336  0.5370  1.5621
  428MOL0     H59018  10.547   2.413   1.408  1.6724 -2.3969  3.3930
  428MOL0     H59019  10.500   2.584   1.442 -3.8759  0.0003 -4.2530
  428MOL0     H59020  10.510   2.358   1.636 -0.9188  0.0730  0.5719
  428MOL0     H59021  10.645   2.473   1.610  0.1315 -0.6902 -0.8690
  428MOL0     H59022  10.413   2.670   1.920  0.8435 -2.3529 -0.9991
  428MOL0     H59023  10.509   2.902   2.097 -1.6123  2.5658  1.7734
  428MOL0     H59024  10.351   2.874   2.010  0.8274 -2.6199 -2.6989
  428MOL0     H59025  10.433   3.026   1.996 -1.1124 -0.8777  0.7230
  428MOL0     H59026  10.916   3.279   1.876  1.9671 -2.1666 -1.6075
  428MOL0     H59027  10.975   3.503   1.799 -1.0070  0.3147 -0.3983
  428MOL0     H59028  11.015   3.720   1.706 -0.2920 -0.3028 -0.1672
  428MOL0     H59029  11.068   3.597   1.593 -2.6002 -1.9254  0.4901
  428MOL0     H59030  10.988   3.873   1.497  0.7426  0.5448 -2.3339
  428MOL0     H59031  11.140   3.802   1.490  1.6663 -1.9603  1.6951
  428MOL0     H59032  11.044   3.791   1.272 -0.5805  0.0098  0.0435
  428MOL0     H59033  10.899   3.699   1.327 -0.1670 -2.9704  1.4055
  428MOL0     H59034  11.024   3.513   1.391  0.6516  2.5094  2.0484
  428MOL0     H59035  11.177   3.587   1.355  0.3526  1.0662 -2.8481
  428MOL0     H59036  11.109   3.619   1.126 -3.1273  1.8340 -1.5517
  428MOL0     H59037  11.111   3.443   1.170  0.0033  0.1064  2.2135
  428MOL0     H59038  10.858   3.593   1.134 -0.8500 -1.4018 -1.8180
  428MOL0     H59039  10.872   3.436   1.205 -4.3933  1.6518 -1.7449
  428MOL0     H59040  10.815   3.409   0.978 -1.0232  1.4507  1.3386
  428MOL0     H59041  10.986   3.360   1.008 -0.5543  0.3302  2.1949
  428MOL0     H59042  11.041   3.599   0.917  0.5112 -0.7598 -0.5193
  428MOL0     H59043  10.873   3.611   0.870 -1.2104 -0.5198  3.7336
  428MOL0     H59044  10.675   3.502   1.502  0.2046  1.3650  1.5671
  428MOL0     H59045  10.637   3.257   1.540 -0.0443  2.2684 -1.2309
  428MOL0     H59046  10.719   2.904   1.606 -1.3117  1.7607 -0.6749
  428MOL0     H59047  10.667   2.682   1.580 -0.0506 -0.8382  1.8065
  428MOL0     H59048   9.769   1.882   0.471 -1.5796  0.6050  0.5128
  428MOL0     H59049   9.665   1.661   0.394  0.5400 -0.0220  0.5315
  428MOL0     H59050   9.042   1.633   0.371 -0.6674 -0.8096 -0.5313
  428MOL0     H59051   8.866   1.471   0.353 -1.1068 -3.7121 -2.6595
  428MOL0     H59052   8.709   1.239   0.332  0.1658  0.7715 -0.7944
  428MOL0     H59053   8.779   1.353   0.213  0.7763 -0.8224 -2.6206
  428MOL0     H59054   8.618   1.115   0.170  0.7780 -0.3339  1.2085
  428MOL0     H59055   8.786   1.074   0.130  3.7979  2.3873 -1.1773
  428MOL0     H59056   8.610   1.280  -0.012 -0.1316 -0.0747  0.2185
  428MOL0     H59057   8.785   1.285  -0.031  1.1884  0.4021  0.5864
  428MOL0     H59058   8.630   1.024  -0.085 -1.9484  0.7058 -0.5435
  428MOL0     H59059   8.799   1.063  -0.114  0.1292 -1.3187 -0.1843
  428MOL0     H59060   8.598   1.242  -0.447  0.3530  0.0545 -0.3018
  428MOL0     H59061   9.161   1.170   0.298  0.2951  0.1171  1.0214
  428MOL0     H59062   9.392   1.224   0.368  3.0629  0.3120  0.0547
  428MOL0     H59063   9.393   1.301   0.206 -1.5701  0.1041 -0.4986
  428MOL0     H59064   9.462   1.388   0.343 -0.9467  1.2719 -0.6629
  429MOL0     O59065   0.314   6.685  10.381  0.4460 -1.4157  0.8306
  429MOL0     C59066   0.398   6.599  10.362  0.4434  0.0746 -0.8154
  429MOL0     O59067   0.531   6.623  10.331 -1.0502 -0.0501  0.1846
  429MOL0     C59068   0.593   6.743  10.331  0.9738 -0.0892 -0.1779
  429MOL0     C59069   0.724   6.745  10.356 -0.3820  0.8240  0.0493
  429MOL0     C59070   0.801   6.862  10.358  0.8222  0.1980  0.2589
  429MOL0     C59071   0.742   6.991  10.342 -0.2908 -0.5863  0.3774
  429MOL0     O59072   0.805   7.114  10.333 -0.0751 -0.5819  0.0366
  429MOL0     C59073   0.897   7.156  10.435  0.0331 -0.7050  0.6715
  429MOL0     C59074   0.914   7.308  10.433  0.8152  0.1977  0.4743
  429MOL0     C59075   1.042   7.343  10.510 -0.8312  0.0023  0.2385
  429MOL0     C59076   1.110   7.468  10.460  0.6026  0.3464  0.2799
  429MOL0     C59077   1.240   7.504  10.530  0.2004 -0.0074 -0.0267
  429MOL0     C59078   1.277   7.654  10.493 -0.6532  0.5330  0.2781
  429MOL0     C59079   1.422   7.683  10.525  0.7508 -1.0145 -0.1505
  429MOL0     C59080   1.441   7.716  10.681 -0.3463 -0.4512  0.2712
  429MOL0     N59081   1.568   7.660  10.730  0.5639 -0.3704  0.4724
  429MOL0     C59082   1.697   7.703  10.708  0.9266 -0.3951 -0.5381
  429MOL0     C59083   1.776   7.620  10.777 -0.2116 -0.0423  0.9826
  429MOL0     C59084   1.921   7.633  10.784 -0.0873 -0.2288 -0.9265
  429MOL0     C59085   1.984   7.495  10.816 -0.4863 -0.2951  0.0818
  429MOL0     C59086   2.132   7.479  10.778 -0.1201 -1.2730  0.1376
  429MOL0     C59087   2.204   7.591  10.862  0.0201  0.8298  0.0949
  429MOL0     O59088   2.349   7.580  10.848 -0.3541  0.2400 -0.6125
  429MOL0     C59089   2.417   7.655  10.752 -0.3553 -0.2653 -0.6466
  429MOL0     C59090   2.526   7.591  10.691  0.0032  0.0175  0.1340
  429MOL0     C59091   2.613   7.646  10.601  0.6104  0.2592  0.2199
  429MOL0     C59092   2.727   7.558  10.531  0.4860 -0.2835 -0.4155
  429MOL0     C59093   2.578   7.779  10.557 -0.4819  0.2444 -0.2522
  429MOL0     C59094   2.656   7.854  10.461 -0.5247  0.0042 -0.1747
  429MOL0     O59095   2.733   7.799  10.368  0.0791 -0.1398  0.1921
  429MOL0     C59096   2.849   7.861  10.313 -0.0187  0.9678  0.0361
  429MOL0     C59097   2.929   7.958  10.376 -0.5742  0.0452 -0.6617
  429MOL0     C59098   3.042   8.005  10.314  0.1662  0.2043 -0.4982
  429MOL0     C59099   3.075   7.953  10.189  0.1916  0.6360  0.0920
  429MOL0     O59100   3.186   8.014  10.135 -0.7154 -0.7467 -0.0987
  429MOL0     C59101   3.223   7.960  10.007 -0.0017 -0.1168 -0.5712
  429MOL0     C59102   3.364   7.999   9.987 -0.0395  0.4327 -0.2229
  429MOL0     C59103   3.453   7.922  10.089 -0.4540 -0.6211 -0.2540
  429MOL0     C59104   3.601   7.931  10.062 -1.6786  0.9726 -0.7366
  429MOL0     C59105   3.670   7.864  10.185  0.2252 -0.4990  0.1161
  429MOL0     C59106   3.828   7.877  10.180  0.4220 -0.0781 -0.7290
  429MOL0     C59107   3.901   7.773  10.268 -0.1059  0.0073  0.0764
  429MOL0     C59108   4.047   7.746  10.220 -0.4480 -0.5205 -0.1166
  429MOL0    Cl59109   4.141   7.907  10.229  0.3839  0.3244  0.1771
  429MOL0     C59110   2.992   7.855  10.121  0.4996 -0.3123 -0.5155
  429MOL0     C59111   2.879   7.810  10.189  0.7675  0.0033  0.1134
  429MOL0     O59112   2.639   7.982  10.464 -0.4486  0.2629 -0.7018
  429MOL0     C59113   2.460   7.844  10.601 -0.2941  0.1069 -0.2657
  429MOL0     C59114   2.385   7.779  10.707 -0.3881 -0.0490  0.8095
  429MOL0     N59115   1.697   7.539  10.847  0.1551  0.4238  0.4703
  429MOL0     N59116   1.567   7.560  10.819  0.1666 -0.6031  0.0159
  429MOL0     C59117   0.602   6.992  10.311  0.2294  0.4769 -1.2673
  429MOL0     C59118   0.528   6.868  10.313 -0.4260 -0.4067 -0.0513
  429MOL0     C59119   0.364   6.456  10.382 -0.0802 -0.2024  0.0676
  429MOL0     C59120   0.433   6.365  10.315 -0.5197 -0.3176  0.3408
  429MOL0     C59121   0.411   6.223  10.340 -0.1976  0.0137 -0.4025
  429MOL0     C59122   0.313   6.184  10.423  0.5640  1.8470  0.2169
  429MOL0     O59123   0.273   6.052  10.462 -0.0284 -0.0215  0.3215
  429MOL0     C59124   0.368   5.951  10.467  0.0780 -0.7720 -0.6825
  429MOL0     C59125   0.453   5.976  10.595  0.5274 -0.3537  0.3442
  429MOL0     C59126   0.415   5.881  10.712 -0.0709  0.0785  0.0414
  429MOL0     C59127   0.492   5.900  10.842  0.0755  0.1879  0.3212
  429MOL0     C59128   0.638   5.908  10.820 -0.3247  0.0530 -0.3834
  429MOL0     C59129   0.765   5.908  10.806  0.2832 -0.8961 -0.0759
  429MOL0     C59130   0.250   6.280  10.492  0.7238  0.3366  0.5097
  429MOL0     C59131   0.270   6.417  10.485 -0.1357 -0.0393  0.5152
  429MOL0     C59132   0.201   6.509  10.586  0.3535 -0.7786  0.0913
  429MOL0     H59133   0.777   6.654  10.383 -0.2887  1.2217  1.2949
  429MOL0     H59134   0.909   6.854  10.363  0.8321 -1.2631 -1.4376
  429MOL0     H59135   0.997   7.112  10.419  2.2979  3.4195  2.0326
  429MOL0     H59136   0.853   7.120  10.528 -0.8540 -1.9801 -0.2043
  429MOL0     H59137   0.922   7.333  10.327  0.8039 -3.8874 -0.6739
  429MOL0     H59138   0.823   7.350  10.477  0.1843 -1.8537  1.2801
  429MOL0     H59139   1.026   7.358  10.617  6.3618 -0.6417  1.9063
  429MOL0     H59140   1.118   7.264  10.512 -1.2629 -0.4097  1.4596
  429MOL0     H59141   1.127   7.475  10.352  0.3837 -1.1045  0.1387
  429MOL0     H59142   1.040   7.545  10.495 -0.3324 -0.0426 -0.6846
  429MOL0     H59143   1.320   7.435  10.500  1.0406  0.4410  1.1005
  429MOL0     H59144   1.229   7.483  10.637 -0.8328  0.6465  0.0013
  429MOL0     H59145   1.246   7.686  10.393 -0.8123 -1.6327 -0.4310
  429MOL0     H59146   1.214   7.717  10.556  0.4765  1.3595  0.6098
  429MOL0     H59147   1.471   7.760  10.465  1.3117 -1.8829 -0.8397
  429MOL0     H59148   1.481   7.593  10.502  0.1763 -1.6794  0.8742
  429MOL0     H59149   1.427   7.823  10.702  1.6522 -0.2761  0.9970
  429MOL0     H59150   1.357   7.670  10.734 -0.2707  0.1766  0.9686
  429MOL0     H59151   1.736   7.779  10.640 -1.6032  0.4890 -1.0872
  429MOL0     H59152   1.954   7.707  10.856  0.2753 -0.7826 -0.5145
  429MOL0     H59153   1.957   7.660  10.684  1.1232  2.6239  0.2054
  429MOL0     H59154   1.976   7.471  10.923  1.1037  0.5648  0.4197
  429MOL0     H59155   1.928   7.414  10.769  1.0625 -0.6194 -1.2946
  429MOL0     H59156   2.161   7.380  10.814 -2.5635 -0.8575  3.7106
  429MOL0     H59157   2.155   7.491  10.672  0.2746 -3.0755 -0.0156
  429MOL0     H59158   2.156   7.686  10.839 -3.1414 -0.5741  0.4462
  429MOL0     H59159   2.183   7.577  10.968 -3.0591 -3.9996 -0.8486
  429MOL0     H59160   2.535   7.487  10.721  1.8460  0.5164  1.5318
  429MOL0     H59161   2.708   7.532  10.427  2.8796  0.6248 -1.1354
  429MOL0     H59162   2.737   7.464  10.587 -1.8087 -0.0145  0.5624
  429MOL0     H59163   2.819   7.616  10.539  1.6528 -1.6389 -2.9382
  429MOL0     H59164   2.913   7.983  10.481 -2.5276  0.1284 -0.9465
  429MOL0     H59165   3.103   8.081  10.360 -0.4354  0.2758  0.1948
  429MOL0     H59166   3.220   7.850  10.002  1.0649 -0.2083  0.4925
  429MOL0     H59167   3.154   7.999   9.931  0.7742  3.2751  0.2967
  429MOL0     H59168   3.389   7.974   9.883  0.4604  0.1990 -0.0472
  429MOL0     H59169   3.378   8.105  10.007 -1.5037  0.5196  0.4315
  429MOL0     H59170   3.420   7.819  10.105  0.1037 -0.6991  0.4105
  429MOL0     H59171   3.429   7.968  10.185 -1.9947  1.5140 -1.5700
  429MOL0     H59172   3.632   8.035  10.051 -1.3666  0.8596 -0.9521
  429MOL0     H59173   3.633   7.873   9.975 -1.5955  1.2440 -0.8862
  429MOL0     H59174   3.634   7.905  10.279 -2.0875  0.1206 -0.9759
  429MOL0     H59175   3.635   7.760  10.187 -1.5186  0.0690  1.7182
  429MOL0     H59176   3.861   7.975  10.215  0.4909 -0.6639  0.9271
  429MOL0     H59177   3.862   7.868  10.076  1.2888 -0.7494 -0.3983
  429MOL0     H59178   3.845   7.679  10.273 -0.1636  0.0835  3.9211
  429MOL0     H59179   3.901   7.801  10.374  0.4066  3.1108 -0.6511
  429MOL0     H59180   4.039   7.718  10.115 -0.4876 -3.8003  0.6699
  429MOL0     H59181   4.099   7.667  10.274 -2.3764 -1.4189  0.5053
  429MOL0     H59182   3.010   7.818  10.021 -2.7261  0.8619 -1.6868
  429MOL0     H59183   2.817   7.732  10.146 -0.6470  0.3806  1.3784
  429MOL0     H59184   2.444   7.942  10.556  1.7784  0.7557  0.2994
  429MOL0     H59185   2.305   7.835  10.754 -1.3886 -0.0396 -0.8006
  429MOL0     H59186   0.556   7.090  10.299 -1.7166 -0.4645 -1.9480
  429MOL0     H59187   0.422   6.875  10.293 -0.1217  0.0864 -1.6069
  429MOL0     H59188   0.521   6.394  10.259  0.3971  0.8608  2.2599
  429MOL0     H59189   0.477   6.149  10.295  0.8233 -0.4520  1.7491
  429MOL0     H59190   0.322   5.852  10.463  0.3538 -0.8828 -1.1094
  429MOL0     H59191   0.428   5.950  10.376  0.8990 -2.0502 -0.1501
  429MOL0     H59192   0.444   6.079  10.631  0.4746  0.0853 -0.8930
  429MOL0     H59193   0.558   5.967  10.565  0.4357  2.1209 -0.9887
  429MOL0     H59194   0.307   5.875  10.727 -0.1856 -2.1636 -1.1913
  429MOL0     H59195   0.450   5.783  10.678 -1.8888 -0.8040  0.5426
  429MOL0     H59196   0.477   5.815  10.910  3.2689  1.7128  3.2779
  429MOL0     H59197   0.452   5.993  10.883  0.0480  0.4848 -0.3765
  429MOL0     H59198   0.871   5.891  10.806  0.1296 -1.9389  0.6936
  429MOL0     H59199   0.175   6.243  10.562 -0.0650 -0.4430 -0.6976
  429MOL0     H59200   0.263   6.560  10.660 -1.0836 -0.2885  1.0084
  429MOL0     H59201   0.130   6.573  10.533 -1.8290 -1.6575  1.7924
  429MOL0     H59202   0.130   6.451  10.646 -1.5425  1.9360  0.6835
  430MOL0     O59203   2.517  10.010   6.082  0.2010  0.4318 -0.0802
  430MOL0     C59204   2.520  10.006   5.960 -0.3969 -0.1372  0.3554
  430MOL0     O59205   2.409   9.973   5.876  0.6473  0.0410  0.2697
  430MOL0     C59206   2.303   9.906   5.932  0.3688 -0.2748 -0.3813
  430MOL0     C59207   2.178   9.965   5.946  0.3761 -0.8490  0.0168
  430MOL0     C59208   2.075   9.907   6.023 -0.2353 -0.5140 -0.0233
  430MOL0     C59209   2.090   9.785   6.080  0.7672  0.0438 -0.6235
  430MOL0     O59210   2.003   9.724   6.166 -0.0505  0.2834 -0.5421
  430MOL0     C59211   1.906   9.806   6.230 -0.2082  0.6321 -0.3292
  430MOL0     C59212   1.835   9.740   6.349 -0.0165  0.5102 -0.3736
  430MOL0     C59213   1.728   9.812   6.425  0.0106 -0.7873 -0.1334
  430MOL0     C59214   1.706   9.753   6.568 -0.8139 -0.0583  0.6325
  430MOL0     C59215   1.579   9.800   6.633 -0.6459 -0.3032  0.5530
  430MOL0     C59216   1.546   9.721   6.759 -0.1078 -0.1398  0.3246
  430MOL0     C59217   1.433   9.767   6.849  1.1246  0.4218 -0.8153
  430MOL0     C59218   1.439   9.730   7.002  0.2354 -0.2570  0.9346
  430MOL0     N59219   1.529   9.811   7.081  0.0216  0.0895 -0.6572
  430MOL0     C59220   1.590   9.781   7.201 -0.4846  0.0864  0.5046
  430MOL0     C59221   1.674   9.885   7.232 -0.2900  0.5395  0.1515
  430MOL0     C59222   1.781   9.887   7.339 -0.8139  0.1592 -0.5562
  430MOL0     C59223   1.920   9.834   7.291  0.7794  0.5295 -0.9054
  430MOL0     C59224   1.921   9.713   7.196 -0.1796  0.3062  0.5663
  430MOL0     C59225   2.057   9.653   7.167 -0.9245 -0.6367 -0.0710
  430MOL0     O59226   2.035   9.534   7.093 -0.4923  0.2525  0.0509
  430MOL0     C59227   2.141   9.500   7.012 -0.2243 -0.1375 -0.4081
  430MOL0     C59228   2.259   9.463   7.073 -0.1822  0.7566  0.6141
  430MOL0     C59229   2.367   9.412   6.996 -0.3265  0.3484  0.5586
  430MOL0     C59230   2.501   9.396   7.065 -0.0934  0.5311 -0.1180
  430MOL0     C59231   2.343   9.384   6.852  0.5266 -0.7071  0.2354
  430MOL0     C59232   2.439   9.331   6.762 -0.6829  0.0743 -0.9743
  430MOL0     O59233   2.568   9.352   6.788 -0.0365  0.0772  0.7987
  430MOL0     C59234   2.659   9.314   6.692 -0.0906  0.3150 -0.3121
  430MOL0     C59235   2.747   9.206   6.727 -0.3151 -0.6062 -0.7774
  430MOL0     C59236   2.850   9.157   6.638  0.2874  0.2849 -0.6947
  430MOL0     C59237   2.855   9.205   6.501  0.1008 -0.0657  0.0272
  430MOL0     O59238   2.952   9.173   6.405 -0.4811 -0.4476  0.6249
  430MOL0     C59239   2.904   9.080   6.299  0.0397  0.7492 -0.4229
  430MOL0     C59240   3.002   9.086   6.185  0.0961  0.1430  0.0016
  430MOL0     C59241   3.105   8.976   6.181  0.4958 -0.0989  0.2829
  430MOL0     C59242   3.188   8.975   6.054 -0.2005 -0.6143  0.4040
  430MOL0     C59243   3.282   9.096   6.048  0.0855  0.9049 -0.7997
  430MOL0     C59244   3.389   9.087   6.156 -0.6089 -0.5966  0.0622
  430MOL0     C59245   3.493   9.197   6.151 -0.1372 -0.2487  0.1111
  430MOL0     C59246   3.623   9.183   6.214 -0.2275 -0.3559  0.2731
  430MOL0    Cl59247   3.607   9.181   6.390  0.2620 -0.2904 -0.5670
  430MOL0     C59248   2.762   9.290   6.465 -0.3077  0.0724 -0.4045
  430MOL0     C59249   2.678   9.359   6.559  0.5950 -0.1386 -0.0668
  430MOL0     O59250   2.398   9.279   6.657  0.0795  0.1296 -0.4562
  430MOL0     C59251   2.219   9.432   6.801 -0.0600  0.1820 -0.1726
  430MOL0     C59252   2.122   9.492   6.884 -0.1101  0.0217 -0.6359
  430MOL0     N59253   1.656   9.977   7.124  0.1335 -0.7362  0.2007
  430MOL0     N59254   1.577   9.926   7.036 -0.6609 -0.2401 -0.4328
  430MOL0     C59255   2.208   9.710   6.052  0.0127 -0.6198 -0.4698
  430MOL0     C59256   2.310   9.775   5.981  0.4237  0.1894  0.0634
  430MOL0     C59257   2.637  10.057   5.887 -0.6455  0.2397  0.6174
  430MOL0     C59258   2.611  10.101   5.751 -0.9878 -0.0724 -0.2359
  430MOL0     C59259   2.711  10.150   5.673  0.0812 -0.1102  0.1400
  430MOL0     C59260   2.844  10.141   5.715 -0.6374  0.0904  0.4911
  430MOL0     O59261   2.940  10.168   5.622  0.1226  0.0140 -0.3376
  430MOL0     C59262   3.074  10.178   5.658 -0.8559 -0.1528 -0.5116
  430MOL0     C59263   3.098  10.309   5.740 -0.3802  0.6066 -0.2188
  430MOL0     C59264   3.247  10.330   5.767 -0.0724  0.2635  0.1430
  430MOL0     C59265   3.327  10.342   5.637 -0.3049 -0.5925 -0.1974
  430MOL0     C59266   3.457  10.404   5.671 -0.2610  0.0527  0.0961
  430MOL0     C59267   3.561  10.459   5.706  0.0256  0.0538  0.7606
  430MOL0     C59268   2.870  10.096   5.852  0.2074  0.3636  0.3083
  430MOL0     C59269   2.768  10.058   5.934  0.1435  0.2239 -0.8539
  430MOL0     C59270   2.813  10.016   6.070  0.7820  0.0263 -0.0754
  430MOL0     H59271   2.166  10.059   5.892  1.7721 -1.5878 -1.6916
  430MOL0     H59272   1.992   9.975   6.042  0.2324  0.4278 -1.2002
  430MOL0     H59273   1.833   9.839   6.155 -1.9427  2.7047  2.0986
  430MOL0     H59274   1.961   9.894   6.268  3.5475 -0.4048 -2.7596
  430MOL0     H59275   1.811   9.636   6.327  1.4215 -0.2431  1.4149
  430MOL0     H59276   1.909   9.730   6.429 -1.7714  1.9908  1.5823
  430MOL0     H59277   1.751   9.919   6.434 -0.2775 -0.6153 -1.2606
  430MOL0     H59278   1.635   9.791   6.371 -0.1448 -0.4257 -0.0101
  430MOL0     H59279   1.706   9.645   6.548  3.5067 -0.1920  0.4165
  430MOL0     H59280   1.796   9.767   6.629 -1.4803 -2.9830  2.4749
  430MOL0     H59281   1.492   9.793   6.567  1.2578  1.9551 -2.4689
  430MOL0     H59282   1.593   9.901   6.671  4.6982 -1.5349  2.8030
  430MOL0     H59283   1.519   9.618   6.732 -0.5718 -0.1684  0.8817
  430MOL0     H59284   1.636   9.710   6.821 -0.6648  0.4811  1.2568
  430MOL0     H59285   1.337   9.730   6.812  2.4321  0.7650 -5.1159
  430MOL0     H59286   1.425   9.873   6.824  2.8365  0.6392 -0.5363
  430MOL0     H59287   1.337   9.743   7.040 -0.8790  0.5040 -2.0926
  430MOL0     H59288   1.464   9.624   7.000  2.0955  0.1583 -0.8669
  430MOL0     H59289   1.573   9.705   7.277  0.8900 -0.3844  0.3562
  430MOL0     H59290   1.755   9.816   7.418  2.1636 -0.2954  0.1500
  430MOL0     H59291   1.796   9.988   7.378  1.9918  0.1020 -1.2483
  430MOL0     H59292   1.984   9.909   7.246  1.6005 -0.2168 -1.0119
  430MOL0     H59293   1.978   9.799   7.377  2.0943  1.1161 -1.5248
  430MOL0     H59294   1.872   9.630   7.248 -0.0747  0.7830  1.4442
  430MOL0     H59295   1.879   9.734   7.097 -0.4055  2.3169  1.0446
  430MOL0     H59296   2.116   9.732   7.120 -0.8948  1.3715  3.0227
  430MOL0     H59297   2.111   9.634   7.260  1.3123  3.5276 -0.2717
  430MOL0     H59298   2.270   9.478   7.180 -0.8435 -0.0493  0.8048
  430MOL0     H59299   2.535   9.294   7.041 -2.7146 -0.3219 -0.4448
  430MOL0     H59300   2.482   9.408   7.172 -2.8431  1.2331 -0.6315
  430MOL0     H59301   2.568   9.476   7.033 -1.9912  1.7802 -1.1335
  430MOL0     H59302   2.735   9.149   6.818  0.5513  1.0943  0.4544
  430MOL0     H59303   2.912   9.076   6.676 -1.2852 -0.3267  0.7174
  430MOL0     H59304   2.896   8.975   6.330  1.7881  0.6079 -0.3158
  430MOL0     H59305   2.802   9.112   6.278 -0.2288  0.6712  0.7074
  430MOL0     H59306   2.942   9.095   6.094  1.3387  3.5287 -0.6483
  430MOL0     H59307   3.052   9.184   6.186  0.2660  0.0963 -1.5765
  430MOL0     H59308   3.051   8.881   6.183  0.0996  0.0757 -0.9243
  430MOL0     H59309   3.167   8.989   6.270  1.1568 -0.1742 -0.1516
  430MOL0     H59310   3.119   8.971   5.969  0.2053  2.1542 -0.1492
  430MOL0     H59311   3.248   8.884   6.056  0.2159 -0.3349  0.6883
  430MOL0     H59312   3.323   9.106   5.947 -0.9455  1.4660 -1.1812
  430MOL0     H59313   3.219   9.185   6.055  0.3907  1.0465  0.2343
  430MOL0     H59314   3.440   8.990   6.147 -0.8373 -0.5032 -3.2099
  430MOL0     H59315   3.334   9.093   6.251 -2.4048 -0.3178 -0.9565
  430MOL0     H59316   3.448   9.290   6.187  3.0862  0.6543  2.2206
  430MOL0     H59317   3.517   9.197   6.044 -0.3978 -0.2530  0.0533
  430MOL0     H59318   3.685   9.268   6.181 -1.6167  0.4411 -0.3621
  430MOL0     H59319   3.666   9.088   6.181 -3.2167 -0.5473 -3.8042
  430MOL0     H59320   2.762   9.332   6.365  1.7056 -0.5470 -0.6998
  430MOL0     H59321   2.618   9.442   6.523  1.1753  0.7663  1.0288
  430MOL0     H59322   2.185   9.416   6.699  0.4654  0.9294 -0.4696
  430MOL0     H59323   2.020   9.507   6.850 -0.4810  0.4708  0.6375
  430MOL0     H59324   2.212   9.607   6.083 -2.2935 -0.3911  0.8889
  430MOL0     H59325   2.404   9.720   5.975 -0.4563 -2.3145  4.7149
  430MOL0     H59326   2.512  10.112   5.709 -1.5430  1.1111  1.2779
  430MOL0     H59327   2.677  10.184   5.576  0.3303 -1.5226 -0.4512
  430MOL0     H59328   3.129  10.099   5.710  1.7616  1.7239 -0.2018
  430MOL0     H59329   3.135  10.178   5.567  4.0523 -0.6759  2.4521
  430MOL0     H59330   3.048  10.308   5.837 -0.5086  0.0119 -0.2873
  430MOL0     H59331   3.056  10.392   5.682  0.2347  0.3246 -1.0841
  430MOL0     H59332   3.245  10.414   5.837  3.1025  0.2972  0.3218
  430MOL0     H59333   3.281  10.243   5.823 -1.2741  0.9330  1.9793
  430MOL0     H59334   3.273  10.403   5.565 -0.6515 -2.0579 -1.2190
  430MOL0     H59335   3.340  10.246   5.586  0.3946  0.3159 -1.8186
  430MOL0     H59336   3.648  10.505   5.748 -0.4785  3.1805 -1.3250
  430MOL0     H59337   2.969  10.078   5.892 -1.5389 -1.0501  4.4248
  430MOL0     H59338   2.904   9.956   6.062 -0.5033 -2.7433  3.3520
  430MOL0     H59339   2.824  10.089   6.151  4.2704 -3.3329  2.8909
  430MOL0     H59340   2.743   9.941   6.108  0.3279  1.1166  1.3171
  431MOL0     O59341   4.739  10.218   1.889 -0.0123 -0.2696  0.0631
  431MOL0     C59342   4.639  10.211   1.963  0.6695  0.9003  0.1562
  431MOL0     O59343   4.615  10.283   2.075  0.4807 -0.1476  0.1459
  431MOL0     C59344   4.704  10.364   2.135  0.7109  0.2689 -0.3263
  431MOL0     C59345   4.699  10.362   2.274 -0.0403  0.0045 -0.6161
  431MOL0     C59346   4.773  10.447   2.350  0.6042 -0.5319 -0.8022
  431MOL0     C59347   4.854  10.547   2.290  0.2031  0.9056 -0.1061
  431MOL0     O59348   4.952  10.613   2.360  0.2535 -0.3229 -0.8550
  431MOL0     C59349   4.942  10.627   2.505 -0.4826  0.6751  0.8521
  431MOL0     C59350   5.042  10.738   2.552  0.3669 -0.7728 -0.0977
  431MOL0     C59351   5.178  10.735   2.469 -0.1417  0.3954  0.1606
  431MOL0     C59352   5.284  10.822   2.535 -0.0984 -0.4214 -0.3543
  431MOL0     C59353   5.428  10.801   2.480 -0.5926  0.7236  0.5314
  431MOL0     C59354   5.540  10.874   2.540 -0.0665 -0.3292 -0.3835
  431MOL0     C59355   5.670  10.839   2.475  0.0221  0.0550  0.0611
  431MOL0     C59356   5.791  10.911   2.539  0.2933  0.0107 -0.0296
  431MOL0     N59357   5.926  10.874   2.504 -0.2919  0.1149 -0.5103
  431MOL0     C59358   5.970  10.872   2.364 -0.1632  0.0678  0.1399
  431MOL0     C59359   6.092  10.811   2.365  0.2869 -0.5056  0.2349
  431MOL0     C59360   6.184  10.774   2.250  0.0927 -0.1649  0.0802
  431MOL0     C59361   6.335  10.813   2.289  0.7333  0.0087 -0.4183
  431MOL0     C59362   6.435  10.767   2.177  0.5174 -0.6803  0.1367
  431MOL0     C59363   6.570  10.827   2.209  0.2515 -0.2703  0.6583
  431MOL0     O59364   6.655  10.828   2.096  0.4546 -0.3902  0.6070
  431MOL0     C59365   6.782  10.881   2.121 -0.6593 -0.0715  0.0374
  431MOL0     C59366   6.868  10.889   2.015 -0.1444  0.5108  0.0491
  431MOL0     C59367   6.998  10.926   2.026  0.2580 -0.8819 -0.2321
  431MOL0     C59368   7.091  10.912   1.912  0.5931  0.5542 -0.0420
  431MOL0     C59369   7.045  10.975   2.152 -0.5730 -0.2834  0.5519
  431MOL0     C59370   7.179  11.031   2.171  0.2766  0.2681  0.0145
  431MOL0     O59371   7.236  11.091   2.060  0.0314 -0.5060  0.1540
  431MOL0     C59372   7.362  11.149   2.069  0.4524  0.5842  0.4598
  431MOL0     C59373   7.386  11.257   2.158  0.0303  1.0202  0.3965
  431MOL0     C59374   7.513  11.305   2.164  0.3897  0.8641 -0.8758
  431MOL0     C59375   7.618  11.269   2.084 -0.9997  0.6440  0.4897
  431MOL0     O59376   7.741  11.339   2.087  0.8818 -0.1819  0.1132
  431MOL0     C59377   7.859  11.256   2.101  0.3917  0.4571  0.1041
  431MOL0     C59378   7.975  11.346   2.145 -0.2700 -0.1623 -0.4512
  431MOL0     C59379   8.115  11.278   2.123  0.9991  0.3007 -1.1572
  431MOL0     C59380   8.217  11.332   2.230  0.8209  0.1214 -0.4515
  431MOL0     C59381   8.345  11.250   2.230  0.1912 -0.4622 -0.2258
  431MOL0     C59382   8.447  11.316   2.314 -0.5440 -0.2072  0.7980
  431MOL0     C59383   8.507  11.446   2.245 -0.1247  1.1949 -1.3711
  431MOL0     C59384   8.654  11.438   2.221 -0.4558  0.7279  0.6821
  431MOL0    Cl59385   8.732  11.454   2.371 -0.1109  0.1944 -0.4338
  431MOL0     C59386   7.595  11.167   1.989  0.3809  0.5945 -0.2902
  431MOL0     C59387   7.472  11.098   1.994 -0.0044 -0.0058  0.9707
  431MOL0     O59388   7.224  11.026   2.284 -0.0968 -0.2102  0.2236
  431MOL0     C59389   6.961  10.974   2.256 -0.6820 -0.2319  0.2450
  431MOL0     C59390   6.828  10.927   2.247 -0.2487 -0.3155 -0.3559
  431MOL0     N59391   6.100  10.753   2.493  1.0395  0.1374  0.1069
  431MOL0     N59392   6.013  10.795   2.574  0.0439  0.5543  0.0182
  431MOL0     C59393   4.866  10.543   2.151  0.2858 -0.2430 -0.3693
  431MOL0     C59394   4.785  10.457   2.071 -0.6043  0.7347 -0.1031
  431MOL0     C59395   4.529  10.128   1.910  0.2210  1.4201 -0.4814
  431MOL0     C59396   4.531   9.992   1.948  0.0741 -0.6681 -0.4850
  431MOL0     C59397   4.428   9.904   1.921 -0.8735  0.1882 -0.9066
  431MOL0     C59398   4.318   9.949   1.847  0.3324  0.4137 -0.1695
  431MOL0     O59399   4.223   9.857   1.815  0.4162 -0.2575 -0.8482
  431MOL0     C59400   4.119   9.885   1.720  0.9272 -0.6520  0.0309
  431MOL0     C59401   4.021   9.758   1.721 -0.3123 -0.7079 -0.0795
  431MOL0     C59402   3.949   9.760   1.584 -0.2819 -0.8049 -0.5105
  431MOL0     C59403   3.813   9.696   1.615  0.4880  0.0232 -0.1349
  431MOL0     C59404   3.710   9.789   1.665  0.4027  0.2043 -0.3868
  431MOL0     C59405   3.625   9.855   1.724  0.4754 -1.0439  0.0070
  431MOL0     C59406   4.322  10.084   1.797 -0.9728 -0.5400  0.0542
  431MOL0     C59407   4.427  10.174   1.836  0.4807 -0.9721  0.5848
  431MOL0     C59408   4.422  10.323   1.789  0.7251  0.4425 -0.2930
  431MOL0     H59409   4.624  10.296   2.316 -1.7465  1.8371 -0.6208
  431MOL0     H59410   4.762  10.452   2.457 -1.1358  1.1911 -1.0072
  431MOL0     H59411   4.991  10.536   2.540 -1.2001  0.6573  1.8446
  431MOL0     H59412   4.841  10.650   2.541 -1.0886  1.0052 -0.9332
  431MOL0     H59413   4.984  10.831   2.552  2.6096  0.7140 -0.0781
  431MOL0     H59414   5.071  10.731   2.658 -0.2973 -1.6917  0.0302
  431MOL0     H59415   5.231  10.639   2.466  1.2777  1.1564 -0.1855
  431MOL0     H59416   5.158  10.769   2.367 -0.0734 -0.8252 -0.2815
  431MOL0     H59417   5.260  10.923   2.501  3.8927  0.6495 -0.3804
  431MOL0     H59418   5.274  10.828   2.644 -0.0122  0.3518 -0.3879
  431MOL0     H59419   5.428  10.841   2.379 -0.4334  0.7326  0.5363
  431MOL0     H59420   5.454  10.695   2.477 -1.8929  0.4071 -2.0126
  431MOL0     H59421   5.528  10.982   2.534  0.7921  0.0231  2.5747
  431MOL0     H59422   5.545  10.851   2.647  2.0692  0.2754 -0.3197
  431MOL0     H59423   5.670  10.857   2.367  1.9928  0.4057  0.0697
  431MOL0     H59424   5.678  10.731   2.491 -0.4496 -0.4531 -2.6104
  431MOL0     H59425   5.779  11.016   2.513 -1.1700  0.0749  0.8324
  431MOL0     H59426   5.778  10.904   2.648 -0.7648  1.4769 -0.0371
  431MOL0     H59427   5.918  10.915   2.279  1.0441  2.4074  0.4970
  431MOL0     H59428   6.144  10.822   2.160 -0.6630  0.0450  0.5152
  431MOL0     H59429   6.168  10.667   2.232 -4.2976  0.4096 -0.5754
  431MOL0     H59430   6.340  10.921   2.306 -0.2673 -0.0803  0.5045
  431MOL0     H59431   6.374  10.750   2.369  0.4931 -2.8156 -2.3879
  431MOL0     H59432   6.442  10.658   2.185  1.4817 -0.6353 -0.0348
  431MOL0     H59433   6.412  10.790   2.072 -1.1879 -2.0611  0.1689
  431MOL0     H59434   6.557  10.928   2.249  0.7257  0.1288 -0.1914
  431MOL0     H59435   6.616  10.780   2.296  1.2541 -0.9648 -0.2314
  431MOL0     H59436   6.830  10.858   1.918  2.7305  3.4673 -2.2578
  431MOL0     H59437   7.185  10.866   1.943 -0.7817 -0.2752  3.4221
  431MOL0     H59438   7.095  11.007   1.858 -0.1903  0.7605  0.2427
  431MOL0     H59439   7.062  10.844   1.832 -0.1508  1.5443 -0.6424
  431MOL0     H59440   7.314  11.278   2.236  0.4344  3.0974  0.2636
  431MOL0     H59441   7.547  11.383   2.231  1.8970 -0.5265  0.0577
  431MOL0     H59442   7.841  11.166   2.161 -0.1384  1.2422  1.1631
  431MOL0     H59443   7.880  11.217   2.001  0.2927 -0.2477  0.3487
  431MOL0     H59444   7.981  11.437   2.085 -0.2895  0.7264  0.8333
  431MOL0     H59445   7.964  11.373   2.251  1.2841 -2.7703  0.4920
  431MOL0     H59446   8.148  11.301   2.021  0.9102  1.0177 -1.0266
  431MOL0     H59447   8.097  11.172   2.142  1.1087  0.6923  1.5252
  431MOL0     H59448   8.177  11.331   2.331  1.1698  0.7853 -0.3039
  431MOL0     H59449   8.232  11.438   2.209 -3.1643  0.9565  0.0542
  431MOL0     H59450   8.322  11.150   2.270 -1.6468  0.9843  2.6771
  431MOL0     H59451   8.381  11.229   2.129 -1.6222 -2.1291 -0.5894
  431MOL0     H59452   8.532  11.248   2.326  1.4038  2.2806  1.9039
  431MOL0     H59453   8.420  11.328   2.419  3.0255 -0.1061  1.8219
  431MOL0     H59454   8.482  11.535   2.303 -1.3791 -0.9359  1.5711
  431MOL0     H59455   8.464  11.462   2.145 -1.3882  1.6473 -0.7813
  431MOL0     H59456   8.686  11.520   2.156 -2.3614  0.6024 -0.5132
  431MOL0     H59457   8.690  11.349   2.168  2.4157  1.0140  1.9705
  431MOL0     H59458   7.680  11.135   1.930  1.4847  1.3585  0.8468
  431MOL0     H59459   7.453  11.018   1.923 -2.9309 -0.9895  2.6885
  431MOL0     H59460   7.010  10.985   2.352  1.2141  2.7626 -0.9089
  431MOL0     H59461   6.769  10.923   2.338  2.6431 -2.4538  1.6158
  431MOL0     H59462   4.937  10.617   2.117  2.1636 -1.0047  1.6756
  431MOL0     H59463   4.784  10.457   1.962 -3.3241  1.2632 -0.1469
  431MOL0     H59464   4.617   9.953   2.000 -1.2336 -1.3106  1.2737
  431MOL0     H59465   4.424   9.801   1.955  0.6279  0.6975  1.0336
  431MOL0     H59466   4.074   9.979   1.753 -0.8271 -2.0584  1.8644
  431MOL0     H59467   4.161   9.902   1.621  0.8784 -2.0952 -0.2511
  431MOL0     H59468   3.958   9.755   1.811 -2.3778  1.7356 -1.3243
  431MOL0     H59469   4.087   9.671   1.729 -0.6528 -1.2230 -2.2942
  431MOL0     H59470   3.926   9.859   1.544  1.6404  0.3870  1.1485
  431MOL0     H59471   4.014   9.701   1.519  1.7033 -0.6371  1.2043
  431MOL0     H59472   3.824   9.614   1.687  0.3203  1.5943  1.7556
  431MOL0     H59473   3.782   9.649   1.520 -0.3068 -0.9721  0.5944
  431MOL0     H59474   3.542   9.896   1.777 -0.4083 -1.3083 -1.1357
  431MOL0     H59475   4.243  10.120   1.733  0.5684  2.6150 -0.2509
  431MOL0     H59476   4.351  10.379   1.851  0.6510 -0.1722  0.1896
  431MOL0     H59477   4.520  10.366   1.809  0.8897 -0.8737  2.1130
  431MOL0     H59478   4.411  10.328   1.680 -2.4223  0.6846 -0.0667
  432MOL0     O59479   6.155   9.881   1.647 -0.8233 -0.4381  0.2013
  432MOL0     C59480   6.103   9.790   1.578 -0.1783 -0.8705 -0.8186
  432MOL0     O59481   6.174   9.679   1.538 -0.1438 -0.5526  0.3418
  432MOL0     C59482   6.296   9.653   1.585  0.3343 -0.4667  0.3585
  432MOL0     C59483   6.410   9.650   1.497 -0.0999  0.1624  0.2777
  432MOL0     C59484   6.534   9.635   1.555  0.1703 -0.6250  1.0545
  432MOL0     C59485   6.554   9.624   1.688 -0.6976 -0.2845 -0.7796
  432MOL0     O59486   6.682   9.637   1.742 -1.1565  0.0415 -0.4295
  432MOL0     C59487   6.701   9.616   1.889 -0.2227 -1.1182  0.7975
  432MOL0     C59488   6.851   9.652   1.915  0.4121  0.4745  0.0943
  432MOL0     C59489   6.952   9.559   1.838  0.0025  0.6545 -0.1609
  432MOL0     C59490   7.071   9.646   1.782 -0.5294  0.1864 -0.7900
  432MOL0     C59491   7.195   9.565   1.724  0.1504  0.4099  0.5240
  432MOL0     C59492   7.246   9.462   1.832 -1.2333 -0.6046  0.1152
  432MOL0     C59493   7.391   9.430   1.792  0.3595  0.5568 -0.4027
  432MOL0     C59494   7.447   9.299   1.851 -0.7710  0.2152  0.3560
  432MOL0     N59495   7.446   9.289   1.994 -0.7745 -0.2953 -0.0647
  432MOL0     C59496   7.561   9.322   2.071  0.4404  0.6339  0.3009
  432MOL0     C59497   7.530   9.272   2.192 -0.0280  0.5304  0.1004
  432MOL0     C59498   7.614   9.268   2.320  0.2924  0.5079  0.1316
  432MOL0     C59499   7.635   9.395   2.405 -0.5092 -0.4886 -0.3998
  432MOL0     C59500   7.710   9.362   2.539 -0.6161  0.7465  0.2396
  432MOL0     C59501   7.747   9.481   2.630 -0.7809  0.1585 -0.5947
  432MOL0     O59502   7.843   9.565   2.575 -0.0534  0.0904 -0.6802
  432MOL0     C59503   7.877   9.682   2.638 -0.0601 -0.5319  0.0004
  432MOL0     C59504   7.958   9.775   2.568  0.9057  0.1576  0.6941
  432MOL0     C59505   7.985   9.903   2.619  0.1581 -0.0896 -0.9058
  432MOL0     C59506   8.079  10.000   2.555 -0.1647 -0.1035  0.4288
  432MOL0     C59507   7.930   9.942   2.747  0.0002  0.0068  0.7425
  432MOL0     C59508   7.930  10.084   2.804 -0.1506  0.0007  0.4371
  432MOL0     O59509   7.903  10.187   2.718  0.2575 -0.2961  0.6949
  432MOL0     C59510   7.895  10.316   2.766 -0.7772 -0.1607 -0.2101
  432MOL0     C59511   7.792  10.400   2.717 -0.5465 -0.2752  0.1384
  432MOL0     C59512   7.786  10.533   2.769  0.2016 -0.7632  0.7753
  432MOL0     C59513   7.883  10.588   2.850  1.1529  0.1081 -0.3591
  432MOL0     O59514   7.867  10.711   2.908 -0.3716 -0.1248 -0.0880
  432MOL0     C59515   7.828  10.829   2.837 -0.4282  0.5269 -0.1354
  432MOL0     C59516   7.808  10.928   2.947  0.8059 -0.2945 -0.6610
  432MOL0     C59517   7.780  11.061   2.867  0.2523 -0.4192 -0.3979
  432MOL0     C59518   7.798  11.187   2.958  1.0994  0.3406 -0.0231
  432MOL0     C59519   7.724  11.310   2.890 -0.6782  0.2766  0.7438
  432MOL0     C59520   7.737  11.432   2.986  0.7680 -0.0779 -1.0345
  432MOL0     C59521   7.636  11.535   2.924  0.0179 -0.3410  0.8757
  432MOL0     C59522   7.656  11.668   3.002  0.6419 -1.3739 -0.2531
  432MOL0    Cl59523   7.527  11.777   2.925 -0.1376  0.3145 -0.2703
  432MOL0     C59524   7.992  10.511   2.887 -0.5231  0.1872  0.3283
  432MOL0     C59525   8.000  10.377   2.841 -0.3722  0.0389 -0.7622
  432MOL0     O59526   7.955  10.099   2.925 -0.1988 -0.0725  0.0633
  432MOL0     C59527   7.846   9.855   2.815 -0.3097 -0.4811  0.0694
  432MOL0     C59528   7.826   9.733   2.762  0.3146 -0.2362  0.4762
  432MOL0     N59529   7.415   9.196   2.179 -0.3783 -0.6664  0.5380
  432MOL0     N59530   7.368   9.206   2.057  0.6438  0.5135 -0.3781
  432MOL0     C59531   6.434   9.622   1.769 -0.4556  0.3494 -0.6608
  432MOL0     C59532   6.303   9.636   1.720  0.0898  1.4009 -0.7065
  432MOL0     C59533   5.954   9.794   1.562 -0.2153  0.3348 -0.0587
  432MOL0     C59534   5.897   9.669   1.528 -0.3957 -0.3542 -0.0535
  432MOL0     C59535   5.760   9.650   1.516 -0.1192 -0.3169 -1.0893
  432MOL0     C59536   5.680   9.772   1.534  0.3835 -0.2887 -0.0863
  432MOL0     O59537   5.545   9.774   1.537  0.3893 -0.6121  0.8594
  432MOL0     C59538   5.477   9.650   1.562  0.3652  0.9063 -0.3046
  432MOL0     C59539   5.339   9.684   1.631  0.7032  0.7498 -0.0865
  432MOL0     C59540   5.356   9.772   1.756  0.4471  0.1871 -0.3030
  432MOL0     C59541   5.424   9.703   1.873  0.2847  0.2481 -0.5449
  432MOL0     C59542   5.321   9.609   1.917  0.1875  0.2332  0.1754
  432MOL0     C59543   5.234   9.534   1.958 -0.4667  0.2406 -0.1254
  432MOL0     C59544   5.731   9.896   1.558  0.2692 -0.7200  0.2388
  432MOL0     C59545   5.865   9.910   1.561 -0.0174  1.2618  0.5702
  432MOL0     C59546   5.919  10.044   1.577 -0.6451  0.1538  0.3121
  432MOL0     H59547   6.392   9.653   1.390  1.7008  1.1245 -0.0359
  432MOL0     H59548   6.620   9.633   1.489  0.6631 -0.9102  1.6969
  432MOL0     H59549   6.695   9.515   1.928  0.6762 -0.7151  2.0197
  432MOL0     H59550   6.641   9.685   1.949  3.6774  3.2359  0.2362
  432MOL0     H59551   6.867   9.754   1.878 -1.7697  1.0338  0.5393
  432MOL0     H59552   6.872   9.649   2.022 -0.0842  1.1852  0.2190
  432MOL0     H59553   6.982   9.482   1.910 -2.3566  0.6073  0.8835
  432MOL0     H59554   6.896   9.514   1.755 -2.2098 -1.2973  2.2227
  432MOL0     H59555   7.039   9.722   1.710  0.7612  2.0010  0.4636
  432MOL0     H59556   7.104   9.715   1.860  0.4139 -1.9599  0.8199
  432MOL0     H59557   7.273   9.641   1.712 -0.7518  1.1313 -1.2766
  432MOL0     H59558   7.172   9.520   1.627  0.2687  3.0800 -0.8603
  432MOL0     H59559   7.256   9.505   1.932  1.9768 -2.4259  0.6847
  432MOL0     H59560   7.181   9.374   1.829 -1.5831 -0.3561  0.2729
  432MOL0     H59561   7.452   9.511   1.834  1.1590 -0.7057  0.9845
  432MOL0     H59562   7.391   9.428   1.683  0.4525  0.6343 -0.4050
  432MOL0     H59563   7.393   9.217   1.801 -0.0361  1.7237 -3.2179
  432MOL0     H59564   7.548   9.282   1.812 -0.7999 -0.2252  0.4597
  432MOL0     H59565   7.654   9.360   2.030 -0.1332 -0.1975 -1.9109
  432MOL0     H59566   7.717   9.236   2.298  0.7689  1.6864  0.5581
  432MOL0     H59567   7.573   9.188   2.381 -1.1332  1.2238  0.1477
  432MOL0     H59568   7.694   9.466   2.346 -1.0783  0.7980  0.5119
  432MOL0     H59569   7.538   9.437   2.434 -0.0533  1.0209 -0.9347
  432MOL0     H59570   7.651   9.301   2.608 -0.7023  0.3166 -0.2120
  432MOL0     H59571   7.801   9.308   2.510 -0.1633  1.4413  0.3266
  432MOL0     H59572   7.651   9.533   2.639  0.4764  2.3652  0.9364
  432MOL0     H59573   7.774   9.456   2.733 -0.8937  0.4862 -0.4841
  432MOL0     H59574   8.012   9.732   2.484 -0.4980 -1.6976  0.6719
  432MOL0     H59575   8.046  10.103   2.568  0.7814  0.4275 -1.0929
  432MOL0     H59576   8.091   9.982   2.447 -0.2993 -1.1163  0.5719
  432MOL0     H59577   8.181   9.975   2.587 -0.5161  0.2107  1.8167
  432MOL0     H59578   7.704  10.365   2.663 -1.7094  1.9508  0.4878
  432MOL0     H59579   7.705  10.594   2.731 -0.1357 -2.2884 -1.0734
  432MOL0     H59580   7.911  10.851   2.770  0.4170  0.6785  0.9273
  432MOL0     H59581   7.730  10.815   2.790 -0.5270  1.1575 -0.1331
  432MOL0     H59582   7.728  10.904   3.017  0.9018 -0.8653 -0.7452
  432MOL0     H59583   7.901  10.938   3.004  1.5570 -3.7963 -1.0619
  432MOL0     H59584   7.675  11.053   2.839  0.2350 -1.3313 -0.0966
  432MOL0     H59585   7.842  11.072   2.778  0.5959  1.7942  0.0523
  432MOL0     H59586   7.905  11.208   2.964  1.7703 -2.9356  2.1433
  432MOL0     H59587   7.765  11.162   3.060  0.6666 -0.2417 -0.3013
  432MOL0     H59588   7.764  11.332   2.791 -3.4045  1.0298 -0.2909
  432MOL0     H59589   7.617  11.288   2.880 -1.4219  2.4502  2.8600
  432MOL0     H59590   7.842  11.462   2.990  1.5481 -2.6843 -0.0433
  432MOL0     H59591   7.703  11.407   3.087  0.2367 -1.9286 -1.6244
  432MOL0     H59592   7.532  11.502   2.929 -0.1283 -0.4891 -1.6288
  432MOL0     H59593   7.673  11.561   2.824  2.5979 -1.9468  1.3156
  432MOL0     H59594   7.761  11.696   2.990  0.6648 -0.9384  0.7976
  432MOL0     H59595   7.627  11.645   3.106  3.0154  0.4201  0.8941
  432MOL0     H59596   8.077  10.547   2.945  0.8665  0.0579 -1.5521
  432MOL0     H59597   8.078  10.311   2.878 -2.2048 -1.0180  1.4567
  432MOL0     H59598   7.795   9.881   2.907 -2.3602 -2.9107 -0.2861
  432MOL0     H59599   7.767   9.664   2.821  1.9693 -1.8112  0.3910
  432MOL0     H59600   6.451   9.636   1.875  2.0064  3.6452 -1.3372
  432MOL0     H59601   6.215   9.646   1.783  0.6403  2.1048 -0.0337
  432MOL0     H59602   5.963   9.586   1.509  1.9798  1.6602 -1.2194
  432MOL0     H59603   5.724   9.552   1.486  0.5458 -0.2262 -2.2551
  432MOL0     H59604   5.460   9.594   1.470 -0.3172 -0.4598  0.6160
  432MOL0     H59605   5.531   9.590   1.637 -0.0908  2.8320  1.6773
  432MOL0     H59606   5.286   9.590   1.649  2.2048 -0.4382 -1.5911
  432MOL0     H59607   5.272   9.736   1.561  0.8852 -1.5433 -2.0997
  432MOL0     H59608   5.419   9.858   1.731 -0.4706  1.6461  2.1178
  432MOL0     H59609   5.257   9.803   1.790 -0.5718 -3.5680  0.6822
  432MOL0     H59610   5.457   9.774   1.949  3.4046 -3.5492  2.0907
  432MOL0     H59611   5.516   9.646   1.856  1.2921  1.3488  0.9719
  432MOL0     H59612   5.178   9.451   1.995  1.7729 -0.8590  1.0041
  432MOL0     H59613   5.663   9.976   1.584 -0.0364 -0.6202 -0.8011
  432MOL0     H59614   5.992  10.072   1.500  1.0718 -1.7053  1.1658
  432MOL0     H59615   5.841  10.120   1.575 -1.5902 -0.7877 -1.8902
  432MOL0     H59616   5.979  10.048   1.668 -0.0923 -1.2238  0.0307
  433MOL0     O59617   6.778   3.440   9.866 -0.9180  0.0715  0.0610
  433MOL0     C59618   6.838   3.350   9.927  0.7119  0.1780  0.2462
  433MOL0     O59619   6.783   3.240   9.990 -0.3764 -0.2110 -0.4138
  433MOL0     C59620   6.646   3.227   9.961 -0.2515  0.0005 -0.5021
  433MOL0     C59621   6.594   3.116   9.892 -0.0831  0.5434 -0.3925
  433MOL0     C59622   6.456   3.104   9.871  0.0251  0.0241 -0.1822
  433MOL0     C59623   6.363   3.200   9.917  0.0836 -0.3443 -0.2191
  433MOL0     O59624   6.233   3.181   9.879  1.1071  0.4018  0.0407
  433MOL0     C59625   6.128   3.262   9.927 -0.4920 -0.7235  0.1657
  433MOL0     C59626   5.987   3.206   9.887  0.3160  0.2779 -0.1766
  433MOL0     C59627   5.966   3.203   9.739 -1.1548 -0.4989  0.3258
  433MOL0     C59628   5.826   3.143   9.713  1.0594 -0.1670  0.4216
  433MOL0     C59629   5.827   3.077   9.571  0.4595  0.2887  0.3644
  433MOL0     C59630   5.852   2.928   9.597 -0.4893 -0.1124 -0.6612
  433MOL0     C59631   5.860   2.846   9.464  0.0187 -0.2221  0.1439
  433MOL0     C59632   5.952   2.732   9.467 -0.2226 -0.3037 -0.3064
  433MOL0     N59633   6.101   2.777   9.480 -1.0328  0.9722 -0.1931
  433MOL0     C59634   6.182   2.841   9.386  1.0094 -0.4045 -0.9851
  433MOL0     C59635   6.296   2.875   9.463 -1.6739  1.0321  0.0377
  433MOL0     C59636   6.426   2.930   9.400 -0.0790 -0.5726 -0.5633
  433MOL0     C59637   6.522   2.956   9.507 -0.7062  0.3649  0.5870
  433MOL0     C59638   6.593   2.830   9.575  1.0715 -1.4303  0.8249
  433MOL0     C59639   6.738   2.827   9.546 -0.4089  0.3771  0.2249
  433MOL0     O59640   6.798   2.945   9.604  0.0838  0.1151  0.5193
  433MOL0     C59641   6.931   2.931   9.643 -0.4228  0.3917  1.0826
  433MOL0     C59642   7.022   2.820   9.633 -0.8202 -1.1594 -0.0649
  433MOL0     C59643   7.152   2.820   9.682 -0.4978  0.1906  0.3171
  433MOL0     C59644   7.230   2.700   9.663 -0.6026 -0.1105  0.1248
  433MOL0     C59645   7.202   2.947   9.737 -0.1726  0.7300  0.1757
  433MOL0     C59646   7.345   2.968   9.754 -0.3608  0.4619 -0.2547
  433MOL0     O59647   7.436   2.895   9.687  0.3922 -0.3269 -0.2115
  433MOL0     C59648   7.570   2.916   9.713 -0.3777  0.7023  0.3705
  433MOL0     C59649   7.635   2.808   9.779  0.0584 -1.4503  0.1661
  433MOL0     C59650   7.774   2.813   9.795 -0.3757 -0.1872  0.1312
  433MOL0     C59651   7.845   2.931   9.757  0.8257  0.3355 -0.8059
  433MOL0     O59652   7.983   2.933   9.754  0.6367  0.5147 -0.5513
  433MOL0     C59653   8.041   2.966   9.876  0.2981 -0.0344 -0.0127
  433MOL0     C59654   8.187   2.981   9.842  0.5530 -0.4072  0.2248
  433MOL0     C59655   8.271   3.030   9.958 -0.1200  0.3337  0.1392
  433MOL0     C59656   8.419   2.992   9.948 -0.2458 -0.0598  0.9364
  433MOL0     C59657   8.499   3.076  10.046 -0.2465  0.1792  0.6486
  433MOL0     C59658   8.651   3.054  10.020  0.3219 -0.2272 -1.1826
  433MOL0     C59659   8.681   3.086   9.873  0.7083  0.3769  0.4264
  433MOL0     C59660   8.832   3.100   9.873 -0.8407  0.0351 -0.3600
  433MOL0    Cl59661   8.874   3.124   9.697 -0.0457 -0.3771  0.3686
  433MOL0     C59662   7.775   3.039   9.702  0.3149  0.6251 -0.3612
  433MOL0     C59663   7.636   3.032   9.682 -0.5775  0.5331  0.1339
  433MOL0     O59664   7.376   3.061   9.835  0.1577  0.2903  0.4047
  433MOL0     C59665   7.116   3.049   9.748  0.2579 -0.7340 -0.2518
  433MOL0     C59666   6.986   3.046   9.700  0.9235  0.6494  0.1154
  433MOL0     N59667   6.275   2.835   9.599 -0.2163 -1.0602  1.0332
  433MOL0     N59668   6.161   2.787   9.603  0.6788 -0.5430 -0.0161
  433MOL0     C59669   6.412   3.300  10.005 -0.4357  0.2967  0.0359
  433MOL0     C59670   6.549   3.309  10.020 -0.6619 -1.1235  0.1241
  433MOL0     C59671   6.982   3.377   9.960  0.8700  0.3068 -0.8026
  433MOL0     C59672   7.044   3.278  10.042  0.3738 -1.0263 -0.1340
  433MOL0     C59673   7.181   3.293  10.077  0.9723 -1.0364  1.2318
  433MOL0     C59674   7.266   3.387  10.020  0.2627  0.9328  0.0217
  433MOL0     O59675   7.398   3.397  10.056  0.0925 -0.0420  1.0699
  433MOL0     C59676   7.445   3.315  10.166 -0.6452 -0.3313  0.1369
  433MOL0     C59677   7.413   3.363  10.304  0.6159  1.2219 -1.1052
  433MOL0     C59678   7.435   3.515  10.336 -0.3040  0.2755 -0.1231
  433MOL0     C59679   7.579   3.553  10.364 -0.8157  0.3005 -0.5705
  433MOL0     C59680   7.625   3.480  10.488  0.3811 -0.9849 -0.2150
  433MOL0     C59681   7.678   3.414  10.581  0.4975  0.1892  0.1729
  433MOL0     C59682   7.209   3.473   9.918  0.2212 -0.5153 -0.0046
  433MOL0     C59683   7.069   3.470   9.889 -0.0120 -0.3487  0.0823
  433MOL0     C59684   7.025   3.584   9.795 -0.6383 -0.3789  0.4671
  433MOL0     H59685   6.663   3.034   9.875  0.2209  0.4842  1.0470
  433MOL0     H59686   6.413   3.028   9.807  1.9898 -1.6508  0.3823
  433MOL0     H59687   6.141   3.358   9.876 -1.9407  0.2394  1.5116
  433MOL0     H59688   6.124   3.284  10.034 -3.5722 -0.3974  0.0689
  433MOL0     H59689   5.969   3.112   9.939  0.8274  0.9603  1.2685
  433MOL0     H59690   5.907   3.270   9.927 -1.2390 -0.8862 -1.2577
  433MOL0     H59691   5.961   3.305   9.698 -1.8760 -0.4368  0.5503
  433MOL0     H59692   6.051   3.143   9.706  0.0787  1.2666  0.1645
  433MOL0     H59693   5.790   3.081   9.796 -1.2432  0.8336  0.2517
  433MOL0     H59694   5.755   3.226   9.711  1.1689 -0.0312  1.5809
  433MOL0     H59695   5.899   3.129   9.508 -0.5205  0.0542 -0.9906
  433MOL0     H59696   5.726   3.087   9.530 -0.2431  2.1047  2.3382
  433MOL0     H59697   5.945   2.929   9.656  0.7940 -2.9702 -2.3923
  433MOL0     H59698   5.776   2.882   9.660 -0.3223 -1.2614 -1.2683
  433MOL0     H59699   5.884   2.917   9.384  0.9847 -1.8711 -1.0834
  433MOL0     H59700   5.761   2.804   9.447  0.1649  0.2942 -2.4271
  433MOL0     H59701   5.926   2.659   9.544 -1.5806  3.5503  3.2675
  433MOL0     H59702   5.954   2.688   9.366  2.1544 -2.0959  0.4251
  433MOL0     H59703   6.159   2.862   9.282 -0.5876  0.4010 -0.4881
  433MOL0     H59704   6.416   3.031   9.358  3.8183  0.9537  1.6107
  433MOL0     H59705   6.469   2.870   9.319  0.5959 -1.6392  0.5582
  433MOL0     H59706   6.596   3.031   9.479  0.2127 -0.0138  1.8778
  433MOL0     H59707   6.465   3.014   9.581 -0.4859  0.7928  0.4252
  433MOL0     H59708   6.577   2.848   9.682 -0.7998  0.7504  0.2678
  433MOL0     H59709   6.544   2.746   9.526 -1.2236  0.7513 -0.9224
  433MOL0     H59710   6.774   2.737   9.598 -0.1613  0.3378 -0.0155
  433MOL0     H59711   6.766   2.802   9.443 -0.9399 -2.1289  0.6304
  433MOL0     H59712   6.991   2.729   9.582  2.4969  0.2810 -5.5226
  433MOL0     H59713   7.313   2.689   9.733 -0.4746 -0.0822 -0.0223
  433MOL0     H59714   7.274   2.686   9.564  0.0659  1.3649  0.1809
  433MOL0     H59715   7.167   2.615   9.692 -2.4286  0.2878 -2.3817
  433MOL0     H59716   7.577   2.720   9.806  1.3886 -1.7168  2.4278
  433MOL0     H59717   7.836   2.731   9.831 -0.4045  0.2837  1.2847
  433MOL0     H59718   8.003   3.063   9.910 -0.3531  0.2232 -1.3894
  433MOL0     H59719   8.031   2.889   9.954 -0.6896 -1.7733 -1.7493
  433MOL0     H59720   8.227   2.884   9.812  0.0755 -0.2040 -1.1309
  433MOL0     H59721   8.190   3.051   9.757 -0.4753 -1.3274 -0.5917
  433MOL0     H59722   8.242   2.972  10.046  2.0211  0.5713  1.0790
  433MOL0     H59723   8.278   3.135   9.989  3.0682  0.4485 -0.5563
  433MOL0     H59724   8.449   2.997   9.843 -1.2126 -0.2264  0.6371
  433MOL0     H59725   8.425   2.887   9.980 -1.9558 -0.2778  0.6553
  433MOL0     H59726   8.479   3.184  10.056 -0.9163  0.0280  0.9927
  433MOL0     H59727   8.488   3.030  10.144  1.0415 -0.8056  0.3470
  433MOL0     H59728   8.681   2.950  10.035 -1.1581 -0.5698 -0.3456
  433MOL0     H59729   8.702   3.123  10.088 -0.8000 -0.9683  0.4753
  433MOL0     H59730   8.627   3.173   9.837 -0.3823 -0.6464 -0.5133
  433MOL0     H59731   8.653   3.009   9.800 -0.8367  1.8454 -0.5928
  433MOL0     H59732   8.878   3.008   9.911  0.8479  0.4231 -1.3557
  433MOL0     H59733   8.862   3.185   9.935 -1.4769  0.8314 -1.1267
  433MOL0     H59734   7.818   3.136   9.678  1.3117  0.5143  0.8689
  433MOL0     H59735   7.582   3.118   9.643  0.0438  1.5174  1.3950
  433MOL0     H59736   7.148   3.147   9.783 -3.9091  1.0201 -0.7875
  433MOL0     H59737   6.908   3.122   9.702  3.4459  3.6159 -2.3859
  433MOL0     H59738   6.349   3.371  10.056  0.1158  0.1201  0.9935
  433MOL0     H59739   6.591   3.393  10.073  0.8649 -1.3062 -0.7324
  433MOL0     H59740   6.978   3.214  10.101 -0.0366 -0.2270  0.2869
  433MOL0     H59741   7.203   3.231  10.163  2.1071 -0.8098  1.1260
  433MOL0     H59742   7.416   3.210  10.159 -1.0778 -0.6210  3.8622
  433MOL0     H59743   7.553   3.309  10.151 -0.6821  1.5260 -1.2145
  433MOL0     H59744   7.470   3.300  10.372 -2.7262 -0.9807 -0.0500
  433MOL0     H59745   7.306   3.351  10.323  0.3360  3.7123 -0.7555
  433MOL0     H59746   7.406   3.576  10.250  0.3976  0.4686 -0.2295
  433MOL0     H59747   7.369   3.541  10.419  1.3316  0.0848  1.3113
  433MOL0     H59748   7.595   3.661  10.373  3.3857 -0.0834 -1.3453
  433MOL0     H59749   7.639   3.516  10.280  0.7176  0.0157  0.6069
  433MOL0     H59750   7.735   3.364  10.657 -1.1931  0.1802  1.4807
  433MOL0     H59751   7.260   3.556   9.870  0.0684 -0.6788 -0.4529
  433MOL0     H59752   7.100   3.649   9.749 -1.4071  0.5215  0.4495
  433MOL0     H59753   6.966   3.557   9.707  0.6242  0.7238 -0.7639
  433MOL0     H59754   6.966   3.645   9.864 -0.8939 -1.4673  1.2395
  434MOL0     O59755   6.574   5.773  10.876  0.1819  0.0917  0.3228
  434MOL0     C59756   6.585   5.716  10.764 -0.7321 -0.0885  0.3265
  434MOL0     O59757   6.690   5.730  10.675 -0.6792  0.4893 -0.1542
  434MOL0     C59758   6.815   5.765  10.726  1.3570  0.8228  0.3405
  434MOL0     C59759   6.844   5.886  10.788  0.7907  0.4054  0.2072
  434MOL0     C59760   6.973   5.920  10.823  0.2560 -0.2094  0.8088
  434MOL0     C59761   7.071   5.820  10.814 -0.0881  0.6776 -0.9377
  434MOL0     O59762   7.198   5.841  10.855 -0.3991 -0.1170  0.2344
  434MOL0     C59763   7.237   5.963  10.933 -0.4547  0.1127  0.2177
  434MOL0     C59764   7.376   5.948  10.990 -0.1497  0.4246 -0.5774
  434MOL0     C59765   7.413   6.059  11.094 -0.8869 -0.4047  0.1789
  434MOL0     C59766   7.554   6.024  11.138 -0.4434 -0.0344 -0.3554
  434MOL0     C59767   7.586   6.100  11.273 -1.4490 -0.7594 -0.1553
  434MOL0     C59768   7.717   6.057  11.350 -0.4491 -0.3543 -0.7686
  434MOL0     C59769   7.745   6.153  11.462 -0.3776  0.9682 -0.0468
  434MOL0     C59770   7.796   6.291  11.417  0.1250  0.8492 -0.0029
  434MOL0     N59771   7.910   6.293  11.323  0.7794  0.2889  0.0627
  434MOL0     C59772   7.910   6.288  11.186 -0.6856  0.2364  1.2819
  434MOL0     C59773   8.038   6.289  11.144 -0.9779 -0.4824  0.3602
  434MOL0     C59774   8.085   6.286  11.001 -0.4410 -0.2883 -0.4201
  434MOL0     C59775   8.105   6.141  10.964 -0.5834 -0.1229  0.0081
  434MOL0     C59776   8.236   6.122  10.898  0.4342  1.2101 -0.1959
  434MOL0     C59777   8.272   5.978  10.873  0.4740 -0.5286  0.1414
  434MOL0     O59778   8.403   5.964  10.812 -0.2047 -0.9780  0.0265
  434MOL0     C59779   8.471   5.845  10.810 -0.0703 -0.7070 -0.4562
  434MOL0     C59780   8.417   5.726  10.848 -0.0633 -0.1914  0.5684
  434MOL0     C59781   8.503   5.608  10.853 -0.1772  0.0771  0.5643
  434MOL0     C59782   8.439   5.489  10.930  0.6623  0.5601 -0.1420
  434MOL0     C59783   8.630   5.605  10.804 -0.3514  0.3645 -0.7477
  434MOL0     C59784   8.718   5.480  10.778 -0.0701  1.4430  0.1256
  434MOL0     O59785   8.656   5.357  10.778  0.1668  0.3319  0.0552
  434MOL0     C59786   8.730   5.242  10.766  0.3017 -0.1230  0.0487
  434MOL0     C59787   8.695   5.141  10.673 -0.7329 -0.2544 -0.8344
  434MOL0     C59788   8.768   5.022  10.654  0.3691 -0.6036 -1.2557
  434MOL0     C59789   8.874   4.997  10.745 -0.3382  0.4160  1.4914
  434MOL0     O59790   8.967   4.894  10.740  0.5516 -0.9952  0.4277
  434MOL0     C59791   8.947   4.794  10.635  0.5083 -0.1553  0.2240
  434MOL0     C59792   9.053   4.679  10.642  0.8444 -0.0686  0.5925
  434MOL0     C59793   9.193   4.712  10.624 -0.2633  0.6337  0.4636
  434MOL0     C59794   9.255   4.761  10.750 -0.7735 -0.4151 -0.2633
  434MOL0     C59795   9.399   4.782  10.719 -0.8396  0.1153 -1.1936
  434MOL0     C59796   9.472   4.830  10.851 -0.3818 -0.5512 -0.7059
  434MOL0     C59797   9.617   4.842  10.817  1.0780 -0.6703  0.7728
  434MOL0     C59798   9.701   4.910  10.929 -0.1204  0.2176  0.5740
  434MOL0    Cl59799   9.715   4.813  11.079 -0.0673 -0.1504  0.1930
  434MOL0     C59800   8.905   5.094  10.837  0.6127 -0.9305  0.3533
  434MOL0     C59801   8.832   5.211  10.854  0.4075  0.5670  1.0061
  434MOL0     O59802   8.842   5.492  10.756 -0.3459  0.2473 -0.1880
  434MOL0     C59803   8.675   5.726  10.753 -0.4641  0.4759  0.1494
  434MOL0     C59804   8.595   5.842  10.756 -1.5017  0.0385 -0.3199
  434MOL0     N59805   8.117   6.283  11.259 -0.5759  0.6298  0.3227
  434MOL0     N59806   8.037   6.276  11.360 -0.2553  0.3240 -0.7091
  434MOL0     C59807   7.045   5.704  10.748 -0.8393 -0.3125 -0.2707
  434MOL0     C59808   6.916   5.675  10.699 -0.0843 -0.0110 -0.1977
  434MOL0     C59809   6.470   5.645  10.716 -0.0049  0.0212  0.3747
  434MOL0     C59810   6.363   5.617  10.806  0.1536 -0.1486  0.3583
  434MOL0     C59811   6.257   5.534  10.765 -0.6950 -0.3597 -0.4773
  434MOL0     C59812   6.249   5.469  10.642 -0.7362 -0.7028 -0.2612
  434MOL0     O59813   6.152   5.382  10.625 -0.0716  0.0632 -0.2440
  434MOL0     C59814   6.129   5.347  10.484 -0.2338  0.1354 -0.2856
  434MOL0     C59815   6.000   5.269  10.460  0.7468  0.1891 -0.2261
  434MOL0     C59816   5.886   5.363  10.478  0.1990  0.0421  0.0968
  434MOL0     C59817   5.754   5.304  10.498 -0.3954  0.6548  0.3045
  434MOL0     C59818   5.713   5.244  10.373  0.3681  0.1825 -0.7766
  434MOL0     C59819   5.689   5.196  10.262  0.2855  0.2463  0.7249
  434MOL0     C59820   6.345   5.507  10.555  0.7030 -0.6561 -0.5952
  434MOL0     C59821   6.454   5.591  10.586  0.1884 -0.1010  0.2687
  434MOL0     C59822   6.548   5.615  10.466 -0.3077  0.0841  0.8585
  434MOL0     H59823   6.762   5.956  10.785  1.2140  0.8846 -0.9820
  434MOL0     H59824   6.985   6.019  10.866 -3.6434  0.2986  1.1016
  434MOL0     H59825   7.176   5.970  11.023  0.2139  1.2236  0.6065
  434MOL0     H59826   7.237   6.056  10.875  2.9366 -0.2952 -0.6924
  434MOL0     H59827   7.386   5.853  11.043  2.8346  1.3287  0.6774
  434MOL0     H59828   7.461   5.953  10.921  1.5025 -0.9062  1.2356
  434MOL0     H59829   7.408   6.158  11.048  2.1372 -0.1182  0.2938
  434MOL0     H59830   7.342   6.052  11.177 -1.2869  0.6504 -0.0601
  434MOL0     H59831   7.562   5.916  11.153  3.4435  0.3174  1.2052
  434MOL0     H59832   7.635   6.042  11.067 -0.5238 -0.6842 -0.6119
  434MOL0     H59833   7.498   6.085  11.336  0.4939 -0.0646  2.9539
  434MOL0     H59834   7.593   6.204  11.243  1.3879 -0.7915  0.1260
  434MOL0     H59835   7.697   5.957  11.389  1.0705 -0.7486 -0.9040
  434MOL0     H59836   7.804   6.048  11.283  0.4326 -3.6299  0.6246
  434MOL0     H59837   7.818   6.108  11.529 -0.8574  1.2034  0.6393
  434MOL0     H59838   7.657   6.171  11.524  1.1547  0.2855  2.4441
  434MOL0     H59839   7.705   6.336  11.376 -0.3156 -3.2757 -4.3849
  434MOL0     H59840   7.819   6.344  11.510  0.7341  1.0250 -0.2531
  434MOL0     H59841   7.819   6.288  11.127  0.0006 -1.8915  0.1189
  434MOL0     H59842   8.171   6.355  11.005 -1.7284  1.4400 -1.2390
  434MOL0     H59843   8.022   6.339  10.930 -1.8089 -1.5656 -0.1994
  434MOL0     H59844   8.111   6.092  11.062 -2.3381 -1.2322 -0.3975
  434MOL0     H59845   8.020   6.099  10.910 -1.0608 -1.9302  2.0068
  434MOL0     H59846   8.239   6.171  10.800  0.8209 -3.9111 -3.0942
  434MOL0     H59847   8.310   6.164  10.967 -0.0727  4.8252 -1.6215
  434MOL0     H59848   8.277   5.926  10.969  1.0191  1.6542  1.3447
  434MOL0     H59849   8.197   5.939  10.803  0.9762 -0.0061 -0.6949
  434MOL0     H59850   8.318   5.733  10.891  0.8425 -0.3715  2.8147
  434MOL0     H59851   8.529   5.456  10.984 -0.9610 -2.5350  0.8963
  434MOL0     H59852   8.404   5.409  10.864 -0.9554  0.4517  0.8177
  434MOL0     H59853   8.362   5.523  10.999  0.9605  2.4877 -0.7031
  434MOL0     H59854   8.610   5.158  10.607 -1.4902  1.0207  0.4361
  434MOL0     H59855   8.739   4.960  10.570  0.8113  0.1856 -2.0064
  434MOL0     H59856   8.849   4.745  10.631  0.2357  0.4429 -1.2006
  434MOL0     H59857   8.951   4.838  10.534 -0.5770 -1.3581 -0.3681
  434MOL0     H59858   9.041   4.617  10.732 -1.3251  1.6176  1.5571
  434MOL0     H59859   9.029   4.608  10.562 -1.0503  2.8028 -1.5812
  434MOL0     H59860   9.199   4.797  10.556 -0.1519 -0.1301 -0.5142
  434MOL0     H59861   9.244   4.626  10.579 -1.2896  0.8248 -1.1252
  434MOL0     H59862   9.243   4.688  10.831 -0.0537  1.0981  1.2772
  434MOL0     H59863   9.212   4.856  10.780 -1.7211 -1.0237  0.3329
  434MOL0     H59864   9.463   4.703  10.680  3.9165  1.5522  2.5985
  434MOL0     H59865   9.403   4.859  10.642  0.0382 -0.0641 -1.3307
  434MOL0     H59866   9.465   4.751  10.926 -1.6747 -1.1372 -1.4223
  434MOL0     H59867   9.428   4.922  10.891 -1.8208 -1.6333  0.3192
  434MOL0     H59868   9.621   4.905  10.727 -3.7365 -2.1012 -0.7811
  434MOL0     H59869   9.650   4.742  10.787  0.0951 -0.8225  0.1544
  434MOL0     H59870   9.656   5.003  10.965  1.3385  1.5407 -0.8858
  434MOL0     H59871   9.796   4.943  10.887 -0.4811 -2.5551 -2.8824
  434MOL0     H59872   8.973   5.068  10.917  1.1465 -0.0889  0.1908
  434MOL0     H59873   8.843   5.279  10.938 -0.4180  2.0589 -0.0392
  434MOL0     H59874   8.762   5.740  10.690 -0.4438 -1.2016 -0.2264
  434MOL0     H59875   8.641   5.927  10.706 -3.5443 -0.4510 -3.2706
  434MOL0     H59876   7.132   5.639  10.744  2.5760  3.6950  1.0015
  434MOL0     H59877   6.874   5.588  10.650 -0.4000  1.1228 -2.0290
  434MOL0     H59878   6.377   5.642  10.910 -2.3043 -0.4152  0.8083
  434MOL0     H59879   6.170   5.524  10.830 -1.7935  0.5059 -1.7600
  434MOL0     H59880   6.132   5.434  10.418  0.5386  0.4573  0.1641
  434MOL0     H59881   6.218   5.288  10.461  0.1779 -0.1385  1.7900
  434MOL0     H59882   5.986   5.177  10.518 -0.3402  1.0051  0.8532
  434MOL0     H59883   6.002   5.228  10.358  4.2145 -1.9007  0.5315
  434MOL0     H59884   5.910   5.419  10.569 -1.3624  3.0986 -1.2084
  434MOL0     H59885   5.887   5.433  10.394 -0.2559 -1.6701 -1.4119
  434MOL0     H59886   5.690   5.389  10.524  1.7194  2.5676 -0.4641
  434MOL0     H59887   5.749   5.227  10.575  1.0554 -2.8916 -2.8406
  434MOL0     H59888   5.670   5.153  10.166  1.2516  1.1799  0.0892
  434MOL0     H59889   6.344   5.462  10.456 -0.8963  1.7650 -1.7905
  434MOL0     H59890   6.579   5.720  10.461 -1.5441  0.4456  0.6003
  434MOL0     H59891   6.633   5.548  10.480 -0.1197  0.3776  1.1648
  434MOL0     H59892   6.499   5.590  10.372  1.5822 -2.6981  0.5034
  435MOL0     O59893   3.732   9.670   9.403  0.5234 -0.6003  0.6166
  435MOL0     C59894   3.610   9.644   9.387  0.0119 -0.0544  0.3123
  435MOL0     O59895   3.570   9.552   9.301 -0.1831  0.3793 -0.5603
  435MOL0     C59896   3.654   9.498   9.202  0.2178  0.1776 -0.6292
  435MOL0     C59897   3.653   9.355   9.185 -0.2415 -0.4714  0.1160
  435MOL0     C59898   3.721   9.293   9.090 -0.5042 -0.0271  0.0409
  435MOL0     C59899   3.822   9.363   9.021  1.3258 -0.8662  1.4472
  435MOL0     O59900   3.902   9.300   8.936 -0.2035  0.0288 -0.2628
  435MOL0     C59901   3.842   9.239   8.822  0.9262 -0.3860  0.6582
  435MOL0     C59902   3.959   9.172   8.740 -0.0856  0.7418 -0.2271
  435MOL0     C59903   4.024   9.062   8.830  0.0624  1.0525  0.2252
  435MOL0     C59904   4.175   9.066   8.801  0.2528  0.5878 -0.6370
  435MOL0     C59905   4.237   8.953   8.879 -0.3934  0.5374  0.2449
  435MOL0     C59906   4.387   8.971   8.882 -0.1692 -0.0175 -0.7614
  435MOL0     C59907   4.462   8.969   8.758 -0.1577 -0.1463  0.1345
  435MOL0     C59908   4.432   8.834   8.677  0.7364 -0.1625 -0.8274
  435MOL0     N59909   4.506   8.836   8.559 -0.2537  0.9476  0.3081
  435MOL0     C59910   4.517   8.720   8.482 -0.2572 -0.4806 -0.3383
  435MOL0     C59911   4.606   8.752   8.384 -0.6087 -0.3142  0.0473
  435MOL0     C59912   4.650   8.655   8.286 -0.9358 -0.1309 -0.3705
  435MOL0     C59913   4.787   8.696   8.244 -0.5978  0.1219  0.9184
  435MOL0     C59914   4.832   8.606   8.126 -0.5273  0.0211  0.0053
  435MOL0     C59915   4.953   8.670   8.062  0.5873  0.1501 -0.5516
  435MOL0     O59916   5.046   8.653   8.170 -0.3227 -0.0952  0.1512
  435MOL0     C59917   5.180   8.683   8.157 -0.4108  0.2950 -0.3617
  435MOL0     C59918   5.252   8.721   8.047  0.3170  0.1386  0.2796
  435MOL0     C59919   5.382   8.764   8.046  0.1526 -0.0961  0.4698
  435MOL0     C59920   5.449   8.803   7.917 -0.0394  0.2563  0.2379
  435MOL0     C59921   5.450   8.777   8.174  1.1008  0.1263  0.0332
  435MOL0     C59922   5.597   8.820   8.188 -0.1593 -0.8322 -0.1802
  435MOL0     O59923   5.686   8.739   8.253  0.2228  0.2012  0.2383
  435MOL0     C59924   5.824   8.765   8.244  0.6040 -0.3121 -0.0142
  435MOL0     C59925   5.906   8.710   8.349  0.6332 -0.1976  0.3984
  435MOL0     C59926   6.048   8.716   8.344 -0.3178  0.2740  0.2675
  435MOL0     C59927   6.108   8.769   8.231  0.0124 -0.0279 -0.3748
  435MOL0     O59928   6.242   8.775   8.233  0.1123  0.4513 -0.7063
  435MOL0     C59929   6.303   8.886   8.307  0.3064 -0.3863  0.8156
  435MOL0     C59930   6.440   8.831   8.335  0.7389 -0.4160  0.3985
  435MOL0     C59931   6.521   8.811   8.211 -0.0107 -0.0741  0.3903
  435MOL0     C59932   6.676   8.782   8.248 -0.8685 -0.6985  0.3306
  435MOL0     C59933   6.737   8.662   8.332 -0.3844  0.2313 -0.4931
  435MOL0     C59934   6.885   8.676   8.324 -0.2250 -1.1566 -0.2068
  435MOL0     C59935   6.954   8.590   8.426 -0.6039 -0.6234 -0.4666
  435MOL0     C59936   7.105   8.570   8.394  0.4358 -0.0071  0.5503
  435MOL0    Cl59937   7.182   8.446   8.495  0.5921 -0.3132  0.0121
  435MOL0     C59938   6.029   8.816   8.125 -0.5276 -0.0429  0.1176
  435MOL0     C59939   5.887   8.822   8.133  0.3687  0.7284  0.6315
  435MOL0     O59940   5.617   8.934   8.143 -0.0534 -0.0302 -0.0318
  435MOL0     C59941   5.377   8.737   8.285 -0.0904 -0.7976 -0.2423
  435MOL0     C59942   5.245   8.688   8.274  0.1451  0.1733 -0.5475
  435MOL0     N59943   4.652   8.883   8.405  0.7080 -0.3671  0.0727
  435MOL0     N59944   4.580   8.933   8.505  0.1421  0.3030 -0.0373
  435MOL0     C59945   3.817   9.502   9.037  0.0990  0.7628  0.0222
  435MOL0     C59946   3.731   9.570   9.121 -0.5362  0.2762  0.6888
  435MOL0     C59947   3.495   9.706   9.450  0.9822  0.0237  0.2006
  435MOL0     C59948   3.360   9.676   9.413  0.0639 -0.8979  0.2421
  435MOL0     C59949   3.251   9.741   9.462 -0.1556  0.1574 -0.1749
  435MOL0     C59950   3.260   9.842   9.555  0.4139 -0.1014  0.3137
  435MOL0     O59951   3.143   9.899   9.607 -0.2053  1.4104  0.2202
  435MOL0     C59952   3.152  10.008   9.700  0.8109 -0.0107 -0.4419
  435MOL0     C59953   3.012  10.045   9.754  0.3254 -0.8147 -0.1391
  435MOL0     C59954   2.917  10.109   9.657  0.1397  1.0207 -0.5542
  435MOL0     C59955   2.801  10.189   9.717 -0.9164 -0.2078  0.5870
  435MOL0     C59956   2.740  10.156   9.845  0.3418  0.0138  0.1435
  435MOL0     C59957   2.672  10.129   9.947 -0.0498 -0.5853  0.1529
  435MOL0     C59958   3.392   9.873   9.610  0.3554  0.6990 -0.0636
  435MOL0     C59959   3.503   9.811   9.545 -0.3815 -0.6096  0.2806
  435MOL0     C59960   3.633   9.871   9.587 -0.2022  0.0480 -0.0230
  435MOL0     H59961   3.586   9.304   9.253  0.7117 -2.2894 -0.2223
  435MOL0     H59962   3.715   9.185   9.088  1.3893 -0.1969  0.7718
  435MOL0     H59963   3.792   9.317   8.764 -2.2520 -2.4836  0.3228
  435MOL0     H59964   3.770   9.161   8.849  1.9416 -1.6686 -0.2429
  435MOL0     H59965   3.932   9.118   8.649  4.9689 -1.2266 -0.9288
  435MOL0     H59966   4.030   9.248   8.708  1.3577 -0.7273 -0.6999
  435MOL0     H59967   4.014   9.091   8.935  4.5150 -0.0823  1.1521
  435MOL0     H59968   3.973   8.966   8.819  1.4481  0.3792 -0.5176
  435MOL0     H59969   4.206   9.072   8.697 -1.2921  0.2742 -1.1395
  435MOL0     H59970   4.201   9.160   8.851 -3.4939  1.6620 -0.3803
  435MOL0     H59971   4.207   8.855   8.841  2.4450 -0.9894  1.6773
  435MOL0     H59972   4.208   8.963   8.985  2.9329  2.5204  1.1029
  435MOL0     H59973   4.396   9.062   8.942  0.0074 -1.7440  2.0201
  435MOL0     H59974   4.437   8.895   8.942  0.7015  0.0527 -1.3816
  435MOL0     H59975   4.569   8.989   8.764 -0.3255  0.7901  0.2530
  435MOL0     H59976   4.425   9.055   8.701  2.5652  0.1885 -1.2815
  435MOL0     H59977   4.465   8.748   8.736  2.1123  2.8751  3.2847
  435MOL0     H59978   4.328   8.829   8.645  0.7329  2.6535 -1.5201
  435MOL0     H59979   4.474   8.621   8.495  2.3799 -1.8225 -1.1361
  435MOL0     H59980   4.576   8.654   8.205  0.5065  0.5967 -1.7402
  435MOL0     H59981   4.665   8.557   8.333 -0.6507  1.1094  2.3162
  435MOL0     H59982   4.786   8.795   8.198 -0.8651 -0.9351 -1.5590
  435MOL0     H59983   4.853   8.697   8.331  0.7099  0.4356 -0.0344
  435MOL0     H59984   4.849   8.501   8.152  0.8472  0.3512  0.5679
  435MOL0     H59985   4.755   8.623   8.051 -1.1936  2.1526  1.0769
  435MOL0     H59986   4.980   8.618   7.969  0.5042 -1.9917  0.5778
  435MOL0     H59987   4.928   8.774   8.037  0.2313 -0.3524 -2.5048
  435MOL0     H59988   5.212   8.725   7.946  1.8487  1.4876 -0.3190
  435MOL0     H59989   5.480   8.908   7.916  1.7857 -0.2484  0.1523
  435MOL0     H59990   5.371   8.790   7.842 -1.3831  1.6828  1.3154
  435MOL0     H59991   5.543   8.749   7.901 -1.4869 -2.9422  1.8361
  435MOL0     H59992   5.856   8.655   8.428  1.3849  0.7860  1.5844
  435MOL0     H59993   6.102   8.665   8.423  2.2800  0.3855 -1.3364
  435MOL0     H59994   6.305   8.977   8.246  1.2982 -1.0082 -0.1073
  435MOL0     H59995   6.262   8.896   8.408 -0.1370  1.2520  0.5095
  435MOL0     H59996   6.502   8.887   8.405  0.6827 -0.9106  0.8510
  435MOL0     H59997   6.426   8.737   8.390 -2.3303  1.2474  2.7476
  435MOL0     H59998   6.511   8.905   8.156  1.9860  0.0695  0.2019
  435MOL0     H59999   6.485   8.727   8.151  0.5062  0.7277 -1.0744
  435MOL0     H60000   6.701   8.873   8.304 -1.3606 -0.4793  0.1948
  435MOL0     H60001   6.724   8.765   8.151 -0.0953 -0.1878  0.6105
  435MOL0     H60002   6.710   8.672   8.437  1.8900  3.5805 -0.0749
  435MOL0     H60003   6.703   8.571   8.282 -2.6267  1.0617 -0.6132
  435MOL0     H60004   6.912   8.782   8.330 -0.9729 -1.0156  1.3745
  435MOL0     H60005   6.930   8.645   8.230  0.2109  1.6130 -1.0154
  435MOL0     H60006   6.913   8.490   8.444 -1.8274  0.2793  2.2104
  435MOL0     H60007   6.953   8.637   8.524  3.1734 -1.2592  0.0311
  435MOL0     H60008   7.173   8.656   8.395  1.9384 -1.0770 -1.7418
  435MOL0     H60009   7.115   8.529   8.293  2.0761 -1.9059  1.4227
  435MOL0     H60010   6.085   8.836   8.035  1.2754 -0.6157  1.0640
  435MOL0     H60011   5.832   8.854   8.044 -1.0244 -0.0069  1.1934
  435MOL0     H60012   5.413   8.738   8.388 -0.5560 -2.2855 -0.0441
  435MOL0     H60013   5.189   8.666   8.364 -0.1185 -0.3699 -0.8409
  435MOL0     H60014   3.892   9.544   8.971  0.5590  1.2697  0.8534
  435MOL0     H60015   3.734   9.677   9.141  1.0948  0.0344  1.9914
  435MOL0     H60016   3.345   9.595   9.342  2.9460 -1.5590  0.2544
  435MOL0     H60017   3.155   9.716   9.418  0.6515 -1.1568 -1.2718
  435MOL0     H60018   3.214   9.976   9.785 -2.6950 -2.0686  1.5543
  435MOL0     H60019   3.198  10.098   9.658  2.9846  1.6526  4.6212
  435MOL0     H60020   3.022  10.119   9.834 -0.5390 -1.0955  0.2531
  435MOL0     H60021   2.960   9.954   9.786 -2.8839  0.7440 -0.5570
  435MOL0     H60022   2.963  10.169   9.578  0.9905  2.2304  0.8066
  435MOL0     H60023   2.877  10.022   9.606  0.9661  0.4005 -0.1632
  435MOL0     H60024   2.717  10.191   9.647 -0.0636 -1.8744 -0.5463
  435MOL0     H60025   2.844  10.289   9.728 -1.5858  0.1003  0.4654
  435MOL0     H60026   2.621  10.106  10.038  2.1151  1.0296  1.8752
  435MOL0     H60027   3.411   9.953   9.681 -1.9022 -0.0077  1.4516
  435MOL0     H60028   3.711   9.795   9.598 -1.1253 -0.7910  0.9059
  435MOL0     H60029   3.680   9.950   9.527  0.2491 -0.0260  0.2249
  435MOL0     H60030   3.622   9.917   9.686  1.1811 -1.2888  0.7968
  436MOL0     O60031   4.942   0.781   8.404  0.3085 -0.5424 -0.1352
  436MOL0     C60032   4.919   0.803   8.523  0.4956  0.7185 -0.2888
  436MOL0     O60033   4.827   0.736   8.603 -0.0411 -0.0483 -0.0536
  436MOL0     C60034   4.706   0.678   8.547 -0.3368  0.0117  0.1979
  436MOL0     C60035   4.678   0.548   8.576  0.8005  0.3596 -0.8327
  436MOL0     C60036   4.564   0.485   8.528 -0.1041 -0.3953 -0.1823
  436MOL0     C60037   4.472   0.562   8.454  0.2362 -0.5189  0.1135
  436MOL0     O60038   4.349   0.516   8.423  1.2034  0.4777 -0.4085
  436MOL0     C60039   4.286   0.427   8.521 -0.3141 -1.0797 -0.5380
  436MOL0     C60040   4.143   0.410   8.488  1.4039  0.7794  0.6668
  436MOL0     C60041   4.052   0.518   8.556 -0.2574 -0.2776 -0.2527
  436MOL0     C60042   4.065   0.658   8.477 -0.2515 -0.2279 -0.1197
  436MOL0     C60043   3.985   0.767   8.539  0.8158 -0.6303  0.6251
  436MOL0     C60044   4.058   0.857   8.637 -0.5007 -0.4862  0.8481
  436MOL0     C60045   4.205   0.902   8.616 -0.5623 -1.1388 -0.1684
  436MOL0     C60046   4.259   1.003   8.723 -0.6876  0.1086  0.1581
  436MOL0     N60047   4.335   0.927   8.836 -1.0031 -0.3387 -0.2496
  436MOL0     C60048   4.449   0.854   8.818  0.1327  0.6619  0.2056
  436MOL0     C60049   4.490   0.797   8.945  0.5624  0.3049 -0.3752
  436MOL0     C60050   4.603   0.707   8.994 -0.1729 -0.3666  0.0101
  436MOL0     C60051   4.700   0.783   9.090 -0.7020  0.3890 -0.0523
  436MOL0     C60052   4.774   0.906   9.020  0.7139 -0.0597  0.1386
  436MOL0     C60053   4.885   0.965   9.106  0.6932  0.7102 -0.7149
  436MOL0     O60054   4.841   1.022   9.231 -0.6392 -0.0720  0.3571
  436MOL0     C60055   4.926   1.088   9.310 -0.5758  0.1478 -0.7235
  436MOL0     C60056   4.871   1.161   9.419 -0.6777  0.1485 -0.0029
  436MOL0     C60057   4.959   1.215   9.513  1.7971  0.1390  0.7052
  436MOL0     C60058   4.885   1.266   9.640 -0.5472  0.3969  0.5505
  436MOL0     C60059   5.100   1.209   9.497  0.6644 -0.1473  0.4485
  436MOL0     C60060   5.194   1.251   9.604  0.0301 -0.3666 -0.8436
  436MOL0     O60061   5.159   1.227   9.740  0.1396 -0.1199 -0.9947
  436MOL0     C60062   5.251   1.244   9.843  0.1051  0.1223 -0.0828
  436MOL0     C60063   5.206   1.241   9.977 -0.7594  0.2677 -0.3552
  436MOL0     C60064   5.298   1.238  10.090 -0.4615  0.2554  0.9193
  436MOL0     C60065   5.431   1.239  10.065  0.5269 -0.4773 -0.0971
  436MOL0     O60066   5.527   1.267  10.165 -0.2760  0.0132  0.3329
  436MOL0     C60067   5.494   1.252  10.305 -0.8620  0.0663 -0.3212
  436MOL0     C60068   5.595   1.323  10.398  0.2918  0.3076 -0.1938
  436MOL0     C60069   5.737   1.277  10.388  0.6074  0.3563 -0.8338
  436MOL0     C60070   5.826   1.347  10.495 -0.5627  0.1117  0.2590
  436MOL0     C60071   5.975   1.334  10.463  0.6921 -0.2689  0.2934
  436MOL0     C60072   6.060   1.395  10.563  0.2627  0.5280  0.0686
  436MOL0     C60073   6.201   1.333  10.549  0.0844  0.5052  0.3193
  436MOL0     C60074   6.285   1.372  10.662  0.1597  0.3555  0.2203
  436MOL0    Cl60075   6.453   1.318  10.618  0.3199 -0.1567 -0.1438
  436MOL0     C60076   5.478   1.244   9.937  0.1726 -0.4547  0.1586
  436MOL0     C60077   5.388   1.234   9.823 -0.3279 -0.4075 -0.4941
  436MOL0     O60078   5.292   1.317   9.564  0.6163 -0.0260 -0.6206
  436MOL0     C60079   5.148   1.157   9.376 -0.6175  0.0946  0.0202
  436MOL0     C60080   5.066   1.092   9.291  0.2793  0.7179 -0.1555
  436MOL0     N60081   4.386   0.848   9.028  0.0314 -0.5296 -0.0729
  436MOL0     N60082   4.301   0.928   8.964  0.2888  1.1716  0.5625
  436MOL0     C60083   4.499   0.692   8.422 -0.7008  0.1459  1.7587
  436MOL0     C60084   4.620   0.757   8.468  0.9388  0.1576 -0.5026
  436MOL0     C60085   5.006   0.887   8.593  0.0775  0.1168 -0.6101
  436MOL0     C60086   5.048   0.835   8.715 -0.4173 -0.7066  0.1330
  436MOL0     C60087   5.125   0.913   8.795 -0.4936  0.1622 -0.6020
  436MOL0     C60088   5.176   1.040   8.753  0.0420 -1.2340 -0.3387
  436MOL0     O60089   5.270   1.095   8.842 -0.1234  0.7189 -0.7395
  436MOL0     C60090   5.354   1.201   8.786  0.2727  0.2116 -0.4770
  436MOL0     C60091   5.492   1.201   8.860  1.0212  0.3205  0.0523
  436MOL0     C60092   5.573   1.078   8.823 -0.3983  0.0438 -0.4082
  436MOL0     C60093   5.723   1.073   8.861  0.1207  0.5527  0.4545
  436MOL0     C60094   5.797   0.960   8.793  0.2053  0.0838 -0.2815
  436MOL0     C60095   5.845   0.853   8.754  0.7907 -0.0529  0.3984
  436MOL0     C60096   5.119   1.096   8.638 -0.1717 -0.2621  0.7881
  436MOL0     C60097   5.041   1.018   8.552  0.4813 -0.6315  0.1106
  436MOL0     C60098   4.980   1.085   8.432  0.3190  0.5602 -0.4510
  436MOL0     H60099   4.754   0.488   8.625 -1.0420  0.3197  2.2474
  436MOL0     H60100   4.557   0.383   8.564 -0.0921 -0.1618  0.5005
  436MOL0     H60101   4.298   0.472   8.620  0.0227 -0.2721 -0.9349
  436MOL0     H60102   4.339   0.331   8.519  1.1177 -0.3598 -3.6979
  436MOL0     H60103   4.127   0.416   8.380  1.5253 -0.1763  0.5845
  436MOL0     H60104   4.124   0.307   8.519  1.4958  1.0416  1.6101
  436MOL0     H60105   3.949   0.481   8.545  0.2197 -1.6104 -0.4901
  436MOL0     H60106   4.069   0.529   8.664  1.3358 -1.8183 -0.2916
  436MOL0     H60107   4.172   0.682   8.470  1.1217 -5.0344  0.6109
  436MOL0     H60108   4.041   0.638   8.372 -0.1264 -2.6187  0.2640
  436MOL0     H60109   3.901   0.719   8.590  0.8397 -1.5462 -0.1774
  436MOL0     H60110   3.940   0.834   8.465 -0.9850  0.6899  2.8007
  436MOL0     H60111   4.000   0.947   8.658  1.3352  1.1742 -0.7681
  436MOL0     H60112   4.077   0.789   8.721  0.9160  1.7139  2.4100
  436MOL0     H60113   4.224   0.939   8.515 -0.4423 -0.8905 -0.0540
  436MOL0     H60114   4.261   0.810   8.633  0.3042 -0.5574  0.1630
  436MOL0     H60115   4.317   1.078   8.668 -0.5396  0.0313  0.2060
  436MOL0     H60116   4.177   1.051   8.777  0.6796  1.2336  1.3144
  436MOL0     H60117   4.498   0.833   8.723 -0.6844  2.7217 -0.7561
  436MOL0     H60118   4.651   0.673   8.902 -0.1624  2.1711 -1.0026
  436MOL0     H60119   4.550   0.627   9.047 -0.8693 -0.8128 -1.3210
  436MOL0     H60120   4.654   0.814   9.184 -1.2973  1.7449 -0.7626
  436MOL0     H60121   4.779   0.711   9.112  0.7645  1.2969 -2.0139
  436MOL0     H60122   4.822   0.885   8.924  2.3632  2.4159  0.3205
  436MOL0     H60123   4.705   0.989   9.003  1.6474  0.4573 -1.3541
  436MOL0     H60124   4.961   0.889   9.127  1.4018  1.0614 -1.9296
  436MOL0     H60125   4.941   1.042   9.052  1.9913  1.2242  1.2230
  436MOL0     H60126   4.763   1.167   9.428 -0.7626 -0.2108 -0.7030
  436MOL0     H60127   4.923   1.363   9.673 -2.3935  1.6120 -0.7562
  436MOL0     H60128   4.896   1.191   9.719  0.8175  1.4691  1.4284
  436MOL0     H60129   4.778   1.281   9.623 -0.6581 -1.0451 -0.1860
  436MOL0     H60130   5.101   1.233  10.003 -0.3692  1.2763  1.7776
  436MOL0     H60131   5.256   1.221  10.189 -0.7026 -3.4729  0.3520
  436MOL0     H60132   5.397   1.295  10.332 -0.0749  1.0423  1.0290
  436MOL0     H60133   5.487   1.147  10.337  2.2001 -0.0127  0.3135
  436MOL0     H60134   5.579   1.431  10.395 -0.9253  0.2430  2.0095
  436MOL0     H60135   5.563   1.299  10.500  0.9745 -1.4834 -0.3758
  436MOL0     H60136   5.780   1.301  10.291  1.6582  0.1808 -0.4229
  436MOL0     H60137   5.749   1.170  10.405 -0.3062  0.3883  0.1214
  436MOL0     H60138   5.806   1.311  10.596 -0.1666 -1.4339 -0.1960
  436MOL0     H60139   5.806   1.455  10.493 -2.0575 -0.1335  0.9091
  436MOL0     H60140   5.996   1.226  10.460 -2.4224 -0.9542 -0.4602
  436MOL0     H60141   5.984   1.393  10.371  1.2436 -0.5428  0.1643
  436MOL0     H60142   6.024   1.391  10.666 -3.1206 -1.3244 -1.0468
  436MOL0     H60143   6.078   1.500  10.535  2.9689 -0.3389 -1.8827
  436MOL0     H60144   6.228   1.360  10.447 -0.2062 -1.2642 -0.2551
  436MOL0     H60145   6.201   1.223  10.548 -0.9743  0.4347  2.2069
  436MOL0     H60146   6.250   1.321  10.752 -0.1146 -0.2608 -0.2313
  436MOL0     H60147   6.287   1.481  10.673  4.0796  0.3928  0.5264
  436MOL0     H60148   5.585   1.245   9.916 -0.1210 -1.3287 -1.5627
  436MOL0     H60149   5.428   1.230   9.722  0.0258  0.1342 -0.3815
  436MOL0     H60150   5.254   1.153   9.350 -0.1789 -2.5526  1.8483
  436MOL0     H60151   5.108   1.040   9.205 -2.3384 -2.8221  0.4605
  436MOL0     H60152   4.429   0.745   8.359  1.7239  1.8557  0.3473
  436MOL0     H60153   4.645   0.861   8.450 -1.7534  0.9355 -0.2001
  436MOL0     H60154   5.003   0.747   8.759 -1.7566  0.4457  1.1574
  436MOL0     H60155   5.144   0.890   8.899 -0.1682 -0.0388 -0.7044
  436MOL0     H60156   5.372   1.186   8.679  1.4516 -2.1334 -0.0186
  436MOL0     H60157   5.306   1.298   8.799  3.7120  1.8483  1.2371
  436MOL0     H60158   5.471   1.197   8.967  0.2763 -2.7055 -0.1069
  436MOL0     H60159   5.559   1.285   8.842  1.1990  0.4759  1.3352
  436MOL0     H60160   5.531   0.996   8.882 -2.2415  0.8729 -0.5187
  436MOL0     H60161   5.553   1.046   8.720  1.0735 -1.1753 -0.3507
  436MOL0     H60162   5.725   1.047   8.967 -0.0386 -2.7439 -0.2716
  436MOL0     H60163   5.776   1.169   8.860  1.2041 -0.0207 -0.9931
  436MOL0     H60164   5.887   0.766   8.708  1.5286  0.8851 -0.7587
  436MOL0     H60165   5.123   1.195   8.593  1.3371 -0.4218  0.4928
  436MOL0     H60166   5.006   1.190   8.419  0.2628  0.7208  0.6209
  436MOL0     H60167   4.995   1.030   8.339  3.7900  0.1336  0.2251
  436MOL0     H60168   4.876   1.084   8.466  1.1184 -1.6057  2.2354
  437MOL0     O60169   9.017  10.658   1.537  0.0818  1.2018  0.5858
  437MOL0     C60170   8.915  10.629   1.603  0.3989 -0.4891 -0.2852
  437MOL0     O60171   8.917  10.557   1.719 -0.7944  0.6516 -0.0517
  437MOL0     C60172   9.022  10.472   1.757  0.1656  1.5704 -0.0641
  437MOL0     C60173   9.106  10.401   1.664 -0.0348 -0.0552 -0.4470
  437MOL0     C60174   9.204  10.312   1.704  0.4948 -0.3591  0.3648
  437MOL0     C60175   9.240  10.296   1.833 -0.5123  0.9458  0.0226
  437MOL0     O60176   9.353  10.223   1.849  0.2980 -0.5529 -0.1620
  437MOL0     C60177   9.365  10.152   1.973 -0.1722 -0.8429  0.3074
  437MOL0     C60178   9.472  10.053   1.963  0.1940 -0.4449  0.8166
  437MOL0     C60179   9.610  10.096   1.895 -0.3313  0.3889 -0.4442
  437MOL0     C60180   9.631   9.992   1.782  0.1928 -0.8102  0.0431
  437MOL0     C60181   9.752  10.010   1.699  0.7475 -0.4190 -1.3067
  437MOL0     C60182   9.788   9.882   1.625  0.5527  0.2370  0.0462
  437MOL0     C60183   9.911   9.892   1.531  0.1169 -0.7115 -0.0632
  437MOL0     C60184   9.868   9.965   1.404 -0.1386 -0.4300  0.2453
  437MOL0     N60185   9.930   9.917   1.278 -1.2420 -0.2063  0.0173
  437MOL0     C60186  10.061   9.936   1.250 -1.0216  0.8117 -1.0839
  437MOL0     C60187  10.091   9.850   1.147 -0.6383  0.1933  0.5779
  437MOL0     C60188  10.226   9.848   1.063 -0.5672  0.3632 -0.5173
  437MOL0     C60189  10.268   9.709   1.023  0.7478 -1.6193 -0.6202
  437MOL0     C60190  10.413   9.715   0.977  0.6466  0.2596  0.0959
  437MOL0     C60191  10.445   9.601   0.893  0.3004 -0.8063 -0.6258
  437MOL0     O60192  10.582   9.616   0.850  0.1805 -0.1064 -0.5286
  437MOL0     C60193  10.624   9.523   0.764  0.8576  1.1950  0.2347
  437MOL0     C60194  10.750   9.536   0.716  0.2187  0.0999  0.2312
  437MOL0     C60195  10.806   9.448   0.619 -0.4141 -0.6529 -0.0413
  437MOL0     C60196  10.953   9.461   0.581 -0.0940  0.2909 -1.0342
  437MOL0     C60197  10.728   9.354   0.558  0.3063 -0.2354 -0.6806
  437MOL0     C60198  10.771   9.266   0.444 -0.4767 -0.2274 -0.9933
  437MOL0     O60199  10.718   9.135   0.445  0.0670  0.3410 -0.1820
  437MOL0     C60200  10.733   9.053   0.334  0.2884  0.1040 -0.6383
  437MOL0     C60201  10.640   8.950   0.319  0.7038 -0.1570 -0.0758
  437MOL0     C60202  10.651   8.853   0.229 -0.8857  0.5607  0.4033
  437MOL0     C60203  10.768   8.849   0.149 -0.3844  0.4113 -0.0564
  437MOL0     O60204  10.769   8.754   0.049  0.1783  1.4702 -0.1304
  437MOL0     C60205  10.863   8.773  -0.058  0.3716  0.1586 -0.9611
  437MOL0     C60206  10.812   8.724  -0.188 -0.8836 -0.0424  0.3757
  437MOL0     C60207  10.923   8.693  -0.286  0.1170  0.5974 -0.2843
  437MOL0     C60208  10.866   8.684  -0.429  0.0724 -0.5764  0.2436
  437MOL0     C60209  10.976   8.677  -0.536  0.4630  0.4574  0.2825
  437MOL0     C60210  10.933   8.691  -0.687 -0.3878  0.7475  0.2101
  437MOL0     C60211  11.029   8.651  -0.806  0.4987  0.4645  0.2555
  437MOL0     C60212  10.980   8.706  -0.943 -0.1737  0.5354 -1.4405
  437MOL0    Cl60213  11.078   8.620  -1.067 -0.3378  0.3312 -0.0604
  437MOL0     C60214  10.863   8.947   0.164  0.9907 -0.0474  0.6772
  437MOL0     C60215  10.846   9.048   0.252 -0.1009 -0.5780 -0.0684
  437MOL0     O60216  10.840   9.318   0.356  0.0601  0.9993 -0.6219
  437MOL0     C60217  10.597   9.337   0.605  0.1961 -0.6431  0.0910
  437MOL0     C60218  10.550   9.410   0.710  0.1368 -0.1293  0.4319
  437MOL0     N60219   9.972   9.790   1.117 -0.0832 -0.1049  0.1440
  437MOL0     N60220   9.878   9.821   1.201 -0.2933 -0.4763 -0.4657
  437MOL0     C60221   9.164  10.359   1.932  0.0600 -0.2530 -0.7383
  437MOL0     C60222   9.051  10.444   1.892  0.0432  0.4470  0.0119
  437MOL0     C60223   8.781  10.687   1.564  0.1882  0.1549  0.1861
  437MOL0     C60224   8.670  10.649   1.648  0.1242  0.7344 -0.5084
  437MOL0     C60225   8.543  10.687   1.624 -0.9519  0.0925 -0.4234
  437MOL0     C60226   8.521  10.783   1.529 -0.1891 -0.5559 -0.1147
  437MOL0     O60227   8.389  10.819   1.512 -0.3522  0.2632  0.3177
  437MOL0     C60228   8.319  10.734   1.417  0.2090  0.3181 -0.5691
  437MOL0     C60229   8.274  10.819   1.297 -0.4154 -0.7853 -1.0521
  437MOL0     C60230   8.197  10.745   1.194  0.9034 -0.0790 -0.0085
  437MOL0     C60231   8.175  10.829   1.066  0.4185  0.1512 -0.4695
  437MOL0     C60232   8.075  10.937   1.077 -0.6065  0.7674  0.3776
  437MOL0     C60233   7.979  11.009   1.091 -0.0117 -0.2560  0.0632
  437MOL0     C60234   8.622  10.832   1.452 -0.7689 -0.9770  0.9057
  437MOL0     C60235   8.757  10.786   1.463 -0.5586  0.1902 -0.5091
  437MOL0     C60236   8.860  10.858   1.384  0.0233 -1.1296 -0.3182
  437MOL0     H60237   9.097  10.418   1.557  1.7426  0.8890 -0.4905
  437MOL0     H60238   9.269  10.276   1.626 -0.2101  0.0193 -0.4163
  437MOL0     H60239   9.271  10.109   2.007 -2.0177  1.6542 -1.3192
  437MOL0     H60240   9.407  10.223   2.045  0.0113 -2.8211  2.2575
  437MOL0     H60241   9.504  10.030   2.066  1.7801 -2.7575 -0.0983
  437MOL0     H60242   9.432   9.959   1.923  1.9587 -0.4942 -0.9931
  437MOL0     H60243   9.614  10.201   1.867  0.9645  1.2164  2.4266
  437MOL0     H60244   9.695  10.088   1.964 -1.1837 -0.0959  0.5893
  437MOL0     H60245   9.632   9.895   1.832 -3.4393 -0.2298  1.5581
  437MOL0     H60246   9.549   9.998   1.709  1.6873 -2.3974 -1.8751
  437MOL0     H60247   9.830  10.029   1.773 -0.1804  1.3544 -0.7327
  437MOL0     H60248   9.735  10.091   1.627 -1.0968 -1.2509 -1.8625
  437MOL0     H60249   9.811   9.801   1.694  3.7284 -0.3828 -1.5592
  437MOL0     H60250   9.710   9.853   1.553  1.7889 -1.2106 -0.7689
  437MOL0     H60251   9.947   9.795   1.494  2.1832 -0.1076  0.2659
  437MOL0     H60252   9.992   9.947   1.580  0.4121 -1.4841  0.3451
  437MOL0     H60253   9.759   9.972   1.401 -0.0981  0.7430  1.0036
  437MOL0     H60254   9.905  10.066   1.426  1.0816 -0.7104 -0.4418
  437MOL0     H60255  10.130  10.007   1.295  0.6288 -0.6599 -1.1859
  437MOL0     H60256  10.304   9.888   1.129  0.3014 -0.6672 -0.9047
  437MOL0     H60257  10.218   9.917   0.978  2.1890 -1.9476 -2.8640
  437MOL0     H60258  10.258   9.631   1.099 -0.9964 -1.5932 -0.7687
  437MOL0     H60259  10.202   9.676   0.941 -0.3493 -5.6853  1.5817
  437MOL0     H60260  10.424   9.812   0.927 -3.4251  1.9815  2.0108
  437MOL0     H60261  10.481   9.724   1.062 -0.0260 -1.8470  0.9127
  437MOL0     H60262  10.439   9.518   0.965 -0.4135 -0.7384 -0.6031
  437MOL0     H60263  10.375   9.589   0.810 -0.7857 -2.2658  0.4467
  437MOL0     H60264  10.809   9.614   0.763  0.0981  0.4316 -0.1658
  437MOL0     H60265  10.966   9.513   0.485  0.2310  3.1103  0.4395
  437MOL0     H60266  11.003   9.364   0.583 -1.6310 -0.7015  4.2581
  437MOL0     H60267  10.993   9.528   0.657 -0.9090  0.3153 -0.6139
  437MOL0     H60268  10.555   8.954   0.386  1.2271  0.3776  0.5757
  437MOL0     H60269  10.579   8.772   0.228  0.0498 -0.2910  0.2262
  437MOL0     H60270  10.900   8.874  -0.078  0.3147  0.7508  1.6179
  437MOL0     H60271  10.945   8.706  -0.030 -0.5264 -0.4621  0.2727
  437MOL0     H60272  10.763   8.629  -0.165 -1.3611  0.2443  0.5677
  437MOL0     H60273  10.733   8.788  -0.229 -1.5588 -1.7178 -1.0914
  437MOL0     H60274  10.965   8.603  -0.241 -0.4089  0.4627 -0.0631
  437MOL0     H60275  11.000   8.770  -0.290 -1.5093  2.2819 -0.6853
  437MOL0     H60276  10.792   8.764  -0.445 -0.9405 -1.5661 -0.1522
  437MOL0     H60277  10.803   8.595  -0.435 -0.5744 -0.0256 -2.9982
  437MOL0     H60278  11.045   8.760  -0.519  3.4268 -0.7188 -4.2369
  437MOL0     H60279  11.033   8.585  -0.523  0.3806  0.5645  1.5452
  437MOL0     H60280  10.907   8.796  -0.706  3.9471  1.9170 -0.4280
  437MOL0     H60281  10.846   8.629  -0.709  1.7500 -1.9172 -1.3524
  437MOL0     H60282  11.036   8.542  -0.817 -0.4165  0.1457  2.1924
  437MOL0     H60283  11.130   8.689  -0.792 -0.7977  3.9933  1.0856
  437MOL0     H60284  10.990   8.814  -0.956 -1.3545  0.6013 -1.9650
  437MOL0     H60285  10.874   8.687  -0.962 -0.3051  1.1722 -1.3638
  437MOL0     H60286  10.958   8.942   0.113 -0.3969 -0.7626 -2.0301
  437MOL0     H60287  10.939   9.101   0.269  0.9079 -2.2851  0.0234
  437MOL0     H60288  10.530   9.259   0.571  0.5611  0.7033 -4.3650
  437MOL0     H60289  10.451   9.375   0.738  0.5914 -3.0599 -1.2219
  437MOL0     H60290   9.185  10.352   2.039 -1.3538  2.3094 -0.2159
  437MOL0     H60291   8.988  10.494   1.965 -1.9707 -0.8475 -0.7446
  437MOL0     H60292   8.673  10.564   1.715  0.7544 -0.7634 -2.3450
  437MOL0     H60293   8.469  10.631   1.679  0.3503 -1.0724  0.2106
  437MOL0     H60294   8.375  10.644   1.390 -0.8014 -0.3164 -0.6083
  437MOL0     H60295   8.226  10.709   1.468  0.5976 -1.0776 -0.4847
  437MOL0     H60296   8.360  10.869   1.253  1.1852 -1.1641  1.4601
  437MOL0     H60297   8.215  10.904   1.334 -0.3224 -1.5401  0.9743
  437MOL0     H60298   8.239  10.647   1.168 -0.8256 -0.8137 -0.1635
  437MOL0     H60299   8.098  10.718   1.232  0.8631 -0.2105 -0.2009
  437MOL0     H60300   8.144  10.761   0.986 -1.8181 -0.0140  0.4838
  437MOL0     H60301   8.269  10.870   1.027  1.1491  1.2092  2.1681
  437MOL0     H60302   7.891  11.068   1.105  0.5761  1.1839 -1.8804
  437MOL0     H60303   8.591  10.908   1.381 -1.3881 -1.9510  0.1082
  437MOL0     H60304   8.903  10.933   1.451 -1.8958 -2.2474  2.3328
  437MOL0     H60305   8.925  10.787   1.333  0.5609  0.8021 -2.5422
  437MOL0     H60306   8.801  10.911   1.309  1.0370  0.7109  0.1188
  438MOL0     O60307   5.105   0.660   1.559  0.3976 -0.0461 -0.0166
  438MOL0     C60308   5.027   0.746   1.524 -0.0420  0.4340  0.0949
  438MOL0     O60309   5.062   0.861   1.462  0.6664  0.1376  0.3906
  438MOL0     C60310   5.198   0.899   1.473  0.0104  0.0174  0.2076
  438MOL0     C60311   5.291   0.884   1.370 -0.4061  0.6124 -0.5139
  438MOL0     C60312   5.430   0.895   1.386 -0.0247  0.3959 -0.7968
  438MOL0     C60313   5.483   0.940   1.509 -0.1140 -0.6722  0.3999
  438MOL0     O60314   5.619   0.948   1.511 -1.0936 -0.1569 -0.7953
  438MOL0     C60315   5.676   1.030   1.616 -0.5140  0.7556  0.0722
  438MOL0     C60316   5.828   1.027   1.622  0.0413 -0.0197  0.7933
  438MOL0     C60317   5.887   1.050   1.477  0.1475  0.6414  0.5992
  438MOL0     C60318   6.036   1.027   1.479  0.9330 -0.5241  0.6315
  438MOL0     C60319   6.095   1.038   1.340  0.3628 -0.0035 -0.7179
  438MOL0     C60320   6.239   1.074   1.364 -0.2653  0.5032 -0.1030
  438MOL0     C60321   6.323   1.114   1.238 -0.2192  0.8042 -0.1807
  438MOL0     C60322   6.460   1.181   1.273 -0.5216  0.5185  0.1936
  438MOL0     N60323   6.456   1.314   1.339  0.4522  0.8228 -0.0594
  438MOL0     C60324   6.446   1.336   1.470  0.6977 -0.4863  0.3806
  438MOL0     C60325   6.465   1.467   1.484  0.3327  0.5627  0.5938
  438MOL0     C60326   6.477   1.540   1.617  0.3356 -0.2295  0.7138
  438MOL0     C60327   6.609   1.523   1.680 -0.1156 -0.5026 -0.1236
  438MOL0     C60328   6.650   1.409   1.773 -0.3803  0.9213  0.7478
  438MOL0     C60329   6.800   1.418   1.806  0.0908  0.5737  1.0793
  438MOL0     O60330   6.810   1.514   1.903 -0.4933  0.3693  0.9730
  438MOL0     C60331   6.934   1.525   1.967 -0.4310 -0.0673  0.0024
  438MOL0     C60332   7.052   1.456   1.929 -0.2719 -0.4070  0.0988
  438MOL0     C60333   7.176   1.480   1.990  0.0581 -0.4693 -0.0055
  438MOL0     C60334   7.309   1.418   1.937  0.6961  0.0674 -0.0686
  438MOL0     C60335   7.182   1.583   2.093 -0.8731  0.3645 -0.0011
  438MOL0     C60336   7.313   1.626   2.158 -0.9822  0.6365 -0.1542
  438MOL0     O60337   7.314   1.748   2.225  0.0978 -0.0068  0.5287
  438MOL0     C60338   7.417   1.783   2.313 -0.1074 -0.9575 -0.4552
  438MOL0     C60339   7.395   1.802   2.447 -0.5949 -0.5409 -0.2141
  438MOL0     C60340   7.497   1.845   2.542 -1.2723 -0.1459  0.7408
  438MOL0     C60341   7.627   1.852   2.490  0.8672  0.7113  0.5044
  438MOL0     O60342   7.736   1.861   2.560  0.0223  0.0870  0.3443
  438MOL0     C60343   7.738   1.789   2.688  0.3066 -0.3142  0.3224
  438MOL0     C60344   7.875   1.804   2.757 -0.2121  1.0355 -1.3310
  438MOL0     C60345   7.988   1.706   2.710 -0.5277 -1.0218 -0.0248
  438MOL0     C60346   8.124   1.761   2.757  0.1799 -0.1716 -0.2824
  438MOL0     C60347   8.133   1.778   2.908  0.1950 -0.1100  0.5850
  438MOL0     C60348   8.281   1.784   2.958  0.8574  0.5532 -0.5908
  438MOL0     C60349   8.358   1.904   2.910  1.0857 -0.1306  0.7667
  438MOL0     C60350   8.304   2.038   2.956  0.2814  0.1145  0.0508
  438MOL0    Cl60351   8.334   2.049   3.127 -0.6456 -0.0919  0.5522
  438MOL0     C60352   7.649   1.838   2.359 -0.9048  0.0502  0.2373
  438MOL0     C60353   7.547   1.810   2.272  0.2898 -0.2755 -0.4586
  438MOL0     O60354   7.409   1.547   2.166  0.2864  0.4227  0.2803
  438MOL0     C60355   7.060   1.641   2.137  0.5022  1.0293 -0.6108
  438MOL0     C60356   6.943   1.607   2.070  0.6021  0.3675  0.2415
  438MOL0     N60357   6.478   1.524   1.356 -0.0267 -1.1117 -0.5699
  438MOL0     N60358   6.456   1.426   1.276 -0.0015 -0.0523 -0.0692
  438MOL0     C60359   5.390   0.970   1.614  0.7511  0.0462 -0.7532
  438MOL0     C60360   5.256   0.952   1.588 -0.0419 -0.4849 -0.0269
  438MOL0     C60361   4.882   0.708   1.529  0.1503  0.1529  0.7325
  438MOL0     C60362   4.797   0.761   1.429  0.7917 -0.0694 -0.0347
  438MOL0     C60363   4.657   0.750   1.429  0.7606 -0.6514 -0.4233
  438MOL0     C60364   4.604   0.653   1.509 -0.1443  0.2109  0.5459
  438MOL0     O60365   4.476   0.619   1.501  0.3643 -0.0625  0.3022
  438MOL0     C60366   4.450   0.477   1.475 -0.5812 -0.7158  0.7579
  438MOL0     C60367   4.336   0.453   1.376  0.2965 -0.5068 -0.3647
  438MOL0     C60368   4.206   0.501   1.441  0.5180  0.3232  0.3528
  438MOL0     C60369   4.086   0.447   1.360 -0.2131  0.2300  0.6673
  438MOL0     C60370   3.966   0.511   1.398  0.2290 -0.1617  0.1604
  438MOL0     C60371   3.874   0.574   1.429  0.2826 -0.9909 -0.4125
  438MOL0     C60372   4.688   0.594   1.605  0.2743 -0.1265 -0.1945
  438MOL0     C60373   4.820   0.618   1.614 -0.5290  0.2652 -0.7260
  438MOL0     C60374   4.893   0.550   1.732  1.2984 -0.0388 -0.0706
  438MOL0     H60375   5.273   0.858   1.266  2.6435  4.2602 -2.2029
  438MOL0     H60376   5.493   0.885   1.299  0.2197  2.4781 -0.9073
  438MOL0     H60377   5.632   1.012   1.715 -1.9701 -1.2060 -0.8668
  438MOL0     H60378   5.651   1.136   1.600 -0.1863  0.5306 -2.2197
  438MOL0     H60379   5.871   1.106   1.685 -0.8993  0.3692  0.9710
  438MOL0     H60380   5.861   0.936   1.673  1.6129  1.1656  2.0010
  438MOL0     H60381   5.848   0.973   1.410  2.0034  0.1470  0.0235
  438MOL0     H60382   5.868   1.150   1.437 -0.7982 -0.3335 -1.5374
  438MOL0     H60383   6.083   1.095   1.552  2.6161 -0.7280 -0.2232
  438MOL0     H60384   6.048   0.928   1.523  2.2715  0.1617  1.9503
  438MOL0     H60385   6.044   1.109   1.274 -0.1232  0.8198  0.4893
  438MOL0     H60386   6.073   0.942   1.293 -0.0480 -0.2853  0.0371
  438MOL0     H60387   6.236   1.156   1.436 -1.8073 -0.7638  1.3692
  438MOL0     H60388   6.295   0.994   1.412  3.5356  1.9938 -1.7075
  438MOL0     H60389   6.264   1.172   1.165  1.9556  0.6750 -2.1571
  438MOL0     H60390   6.340   1.023   1.180  0.1270  1.1829 -0.6842
  438MOL0     H60391   6.513   1.120   1.347 -0.2126 -0.6480 -0.9737
  438MOL0     H60392   6.517   1.187   1.180  1.1329  0.6965  1.1700
  438MOL0     H60393   6.429   1.265   1.550 -0.9688  1.8947  2.2993
  438MOL0     H60394   6.397   1.503   1.682  0.9717  1.9174  2.8677
  438MOL0     H60395   6.457   1.646   1.598  2.4097  0.1636  0.4724
  438MOL0     H60396   6.675   1.531   1.593 -2.0235 -0.0400 -1.6011
  438MOL0     H60397   6.633   1.610   1.742  0.2112  0.9763 -2.1901
  438MOL0     H60398   6.590   1.416   1.865  2.1324  3.9591  2.3740
  438MOL0     H60399   6.618   1.315   1.729  0.2502  0.5825  1.0048
  438MOL0     H60400   6.837   1.321   1.842 -2.3257 -0.4639  0.9560
  438MOL0     H60401   6.855   1.445   1.715  1.2902 -0.9313  1.3196
  438MOL0     H60402   7.045   1.375   1.857  1.7855 -0.9005  0.3762
  438MOL0     H60403   7.365   1.366   2.016 -2.5236 -2.2443  0.9311
  438MOL0     H60404   7.370   1.498   1.895 -0.9084  1.5574  0.3282
  438MOL0     H60405   7.281   1.347   1.859 -1.6293 -1.4560  1.9855
  438MOL0     H60406   7.292   1.786   2.479 -1.6194  3.4954 -0.9696
  438MOL0     H60407   7.474   1.841   2.648  0.8961  1.6472  1.3479
  438MOL0     H60408   7.669   1.830   2.763  0.9852 -1.9090  1.8806
  438MOL0     H60409   7.715   1.683   2.675  0.6206 -0.4722  1.0421
  438MOL0     H60410   7.913   1.906   2.756  1.5117  0.4621  0.3399
  438MOL0     H60411   7.866   1.780   2.863  0.3362  0.7565 -1.3443
  438MOL0     H60412   7.992   1.705   2.601  2.1559 -6.6431 -0.1838
  438MOL0     H60413   7.975   1.603   2.744  0.3744 -0.5146  2.0176
  438MOL0     H60414   8.137   1.863   2.719 -0.9957  0.5888  1.2704
  438MOL0     H60415   8.203   1.695   2.719 -1.2224 -0.5630 -2.7172
  438MOL0     H60416   8.076   1.867   2.935  0.9187  0.9717 -1.2757
  438MOL0     H60417   8.087   1.687   2.948  1.0725 -1.9135 -2.2414
  438MOL0     H60418   8.340   1.696   2.930 -0.1401 -0.0188 -0.9580
  438MOL0     H60419   8.286   1.796   3.067  2.6488  1.1017 -0.7059
  438MOL0     H60420   8.340   1.906   2.802 -1.6721 -0.1110  1.1531
  438MOL0     H60421   8.465   1.903   2.934  1.2019  0.4878  0.2988
  438MOL0     H60422   8.198   2.044   2.931  0.3560  1.8391  0.0453
  438MOL0     H60423   8.349   2.122   2.902 -2.6900  0.9157 -1.3816
  438MOL0     H60424   7.751   1.857   2.328 -1.6697  1.9567 -1.2957
  438MOL0     H60425   7.577   1.775   2.173 -0.5981  0.2276 -0.9068
  438MOL0     H60426   7.045   1.712   2.218 -1.2477  0.4425 -0.3822
  438MOL0     H60427   6.845   1.641   2.103 -1.1791 -2.7409 -1.4136
  438MOL0     H60428   5.414   0.986   1.718  1.3171 -0.1440 -0.8510
  438MOL0     H60429   5.182   0.960   1.667 -1.4900  0.4660 -1.4090
  438MOL0     H60430   4.848   0.825   1.358  4.0124  1.6923  3.4908
  438MOL0     H60431   4.586   0.800   1.364  0.4701  0.2234  0.5447
  438MOL0     H60432   4.541   0.435   1.431  0.8012 -0.6967  3.3930
  438MOL0     H60433   4.430   0.418   1.565  0.7664 -1.7705  0.3973
  438MOL0     H60434   4.325   0.346   1.357  0.1481 -0.4496 -0.5998
  438MOL0     H60435   4.360   0.489   1.276 -1.6685 -1.8188 -1.3916
  438MOL0     H60436   4.203   0.465   1.545 -2.8328 -3.6781 -0.8795
  438MOL0     H60437   4.201   0.611   1.443 -0.8593  0.3011  2.8711
  438MOL0     H60438   4.072   0.340   1.374 -0.7116  0.1537 -0.3276
  438MOL0     H60439   4.108   0.465   1.255 -1.5770  1.0881  0.4952
  438MOL0     H60440   3.779   0.609   1.465 -0.9585 -3.0722 -1.4543
  438MOL0     H60441   4.660   0.523   1.682 -0.0737 -1.8877 -1.8726
  438MOL0     H60442   4.935   0.450   1.716  0.2189 -0.5687  0.3416
  438MOL0     H60443   4.977   0.616   1.757  1.9338 -1.2389  1.0885
  438MOL0     H60444   4.834   0.548   1.824 -1.8295 -1.6282 -1.9419
  439MOL0     O60445  10.417   7.276   0.493  0.4672  0.4326  0.1872
  439MOL0     C60446  10.524   7.225   0.486 -0.9380 -0.8598 -0.9878
  439MOL0     O60447  10.547   7.094   0.457 -0.3515 -0.0102 -0.0351
  439MOL0     C60448  10.435   7.015   0.435 -0.4383  1.1790 -0.4943
  439MOL0     C60449  10.350   6.974   0.541 -0.6718 -0.2456 -0.1886
  439MOL0     C60450  10.238   6.880   0.518 -0.4345  0.2319  0.0675
  439MOL0     C60451  10.210   6.842   0.389  0.4510  0.6127 -0.6657
  439MOL0     O60452  10.096   6.765   0.367  0.1626 -0.5514 -0.1569
  439MOL0     C60453  10.064   6.659   0.460  0.0038 -0.7407  0.1324
  439MOL0     C60454   9.929   6.592   0.423  1.2531 -0.7427  0.4624
  439MOL0     C60455   9.862   6.545   0.548 -1.1371  0.0620 -0.3466
  439MOL0     C60456   9.725   6.485   0.518 -0.1632 -0.5578 -0.4348
  439MOL0     C60457   9.673   6.426   0.649  0.5540  0.2155  0.9933
  439MOL0     C60458   9.528   6.385   0.636 -0.2148  0.2561  0.1446
  439MOL0     C60459   9.496   6.324   0.768  0.7101  0.0894 -0.4820
  439MOL0     C60460   9.413   6.419   0.846  1.2821 -0.5366  0.2190
  439MOL0     N60461   9.367   6.367   0.975 -0.6603  0.2281  0.2193
  439MOL0     C60462   9.412   6.251   1.032 -0.3613 -0.0107  0.2837
  439MOL0     C60463   9.328   6.234   1.146 -0.4138 -0.4730 -0.4628
  439MOL0     C60464   9.352   6.119   1.254  0.3560  0.1006  0.3443
  439MOL0     C60465   9.487   6.134   1.325  0.5155 -0.9827  0.1130
  439MOL0     C60466   9.501   6.259   1.414  0.4791  0.2143  0.0161
  439MOL0     C60467   9.636   6.327   1.403  0.5948  0.2105  0.2282
  439MOL0     O60468   9.649   6.392   1.278  0.3375  0.4730 -0.3312
  439MOL0     C60469   9.763   6.448   1.239  0.7819  0.9788 -0.1510
  439MOL0     C60470   9.767   6.522   1.116 -0.0528  0.5187  0.1314
  439MOL0     C60471   9.889   6.576   1.070  0.5156 -0.3851  0.2332
  439MOL0     C60472   9.879   6.650   0.935  0.4529  0.6667  0.0396
  439MOL0     C60473  10.006   6.562   1.137  0.7213 -0.9307  0.0425
  439MOL0     C60474  10.146   6.599   1.077  0.6960  0.0184  0.2363
  439MOL0     O60475  10.150   6.646   0.948 -0.1963 -0.2568 -0.1348
  439MOL0     C60476  10.278   6.670   0.914 -1.1064  0.0874  0.0685
  439MOL0     C60477  10.335   6.795   0.939  0.1751  0.9600  0.4287
  439MOL0     C60478  10.449   6.831   0.896  0.5047 -0.3739  0.6189
  439MOL0     C60479  10.545   6.743   0.840 -1.0575  0.1538  0.4085
  439MOL0     O60480  10.663   6.780   0.789  0.3404 -0.4133 -0.7958
  439MOL0     C60481  10.690   6.925   0.761 -0.1487 -0.0312 -0.3796
  439MOL0     C60482  10.812   6.928   0.675  0.6755 -0.5489 -0.3316
  439MOL0     C60483  10.806   6.844   0.537  0.5941 -0.0954  0.4523
  439MOL0     C60484  10.941   6.844   0.458 -0.1968 -0.0707  0.3010
  439MOL0     C60485  10.986   6.989   0.421 -0.2527  0.7560  0.2264
  439MOL0     C60486  11.097   6.969   0.311  0.0473 -0.6743  0.1637
  439MOL0     C60487  11.158   7.106   0.282  0.0453  0.4430  0.4896
  439MOL0     C60488  11.289   7.080   0.207 -0.0022  0.2971 -0.3249
  439MOL0    Cl60489  11.416   6.978   0.298  0.3437 -0.0303  0.1664
  439MOL0     C60490  10.509   6.609   0.835 -0.1925  0.1165  0.8108
  439MOL0     C60491  10.369   6.573   0.870  0.5921 -0.3524 -0.1456
  439MOL0     O60492  10.237   6.599   1.159 -0.1176 -0.5039  0.2471
  439MOL0     C60493   9.996   6.504   1.260 -0.1679  0.4469  0.4655
  439MOL0     C60494   9.879   6.450   1.308 -0.6763  0.3634 -0.5982
  439MOL0     N60495   9.229   6.339   1.156  0.1475  0.2194  0.8329
  439MOL0     N60496   9.266   6.411   1.054 -0.0826  0.9397  1.3304
  439MOL0     C60497  10.300   6.870   0.287  0.1471  0.3908 -0.1780
  439MOL0     C60498  10.410   6.954   0.313 -1.0096 -0.2880 -0.2444
  439MOL0     C60499  10.643   7.328   0.487 -0.2025  1.0055 -0.6480
  439MOL0     C60500  10.648   7.426   0.588  0.1052 -0.1183 -0.4202
  439MOL0     C60501  10.753   7.515   0.598 -0.6847 -0.4538 -0.2410
  439MOL0     C60502  10.859   7.523   0.502  0.3610  0.1478  0.4793
  439MOL0     O60503  10.955   7.625   0.516  0.9914  0.1031  0.2511
  439MOL0     C60504  11.062   7.625   0.425  0.5357 -0.2330  0.2109
  439MOL0     C60505  11.169   7.518   0.446  0.4961  0.2733 -0.3475
  439MOL0     C60506  11.275   7.537   0.325  0.2621  0.5788 -0.5811
  439MOL0     C60507  11.394   7.434   0.316  0.4840 -0.0404 -0.6413
  439MOL0     C60508  11.454   7.424   0.185 -0.7697  0.8808  0.1227
  439MOL0     C60509  11.499   7.391   0.074  0.1030  0.7812  0.0200
  439MOL0     C60510  10.844   7.427   0.399 -1.3832 -0.2526  0.2026
  439MOL0     C60511  10.748   7.322   0.392  0.2696 -0.2884 -0.4386
  439MOL0     C60512  10.745   7.232   0.274  0.7946 -0.0828 -0.2040
  439MOL0     H60513  10.383   7.004   0.640 -1.5803  0.0076  0.0420
  439MOL0     H60514  10.178   6.852   0.604 -0.0058 -1.3990 -0.1457
  439MOL0     H60515  10.057   6.692   0.564 -0.0791 -1.1479  0.2571
  439MOL0     H60516  10.147   6.589   0.466 -1.5172 -2.5991  0.5779
  439MOL0     H60517   9.860   6.659   0.372  0.3476 -2.0901 -0.1433
  439MOL0     H60518   9.956   6.518   0.347  0.1960 -1.0615  0.3808
  439MOL0     H60519   9.928   6.474   0.600 -0.9001  1.6378  1.6045
  439MOL0     H60520   9.845   6.633   0.610 -1.6701 -1.9063  2.5005
  439MOL0     H60521   9.661   6.559   0.470 -2.9098 -2.4208  0.1579
  439MOL0     H60522   9.728   6.409   0.439 -2.2025 -0.0654 -1.0279
  439MOL0     H60523   9.678   6.498   0.731 -0.2821  2.4661 -0.8315
  439MOL0     H60524   9.739   6.345   0.680  1.6831  1.0941  0.9484
  439MOL0     H60525   9.484   6.483   0.617 -0.8067  0.1904  1.0779
  439MOL0     H60526   9.505   6.315   0.555 -0.9087 -1.7326  1.9466
  439MOL0     H60527   9.581   6.291   0.828  0.9213  1.1310 -0.1905
  439MOL0     H60528   9.439   6.233   0.749 -0.8194  0.8739  0.2039
  439MOL0     H60529   9.467   6.512   0.866  1.1640 -0.3180 -0.4469
  439MOL0     H60530   9.323   6.448   0.790 -1.4177 -2.2510  3.3299
  439MOL0     H60531   9.489   6.185   0.994 -1.8970 -0.8533 -1.5147
  439MOL0     H60532   9.351   6.022   1.204 -1.0731  1.1646 -1.8789
  439MOL0     H60533   9.260   6.122   1.313 -1.1456  0.3015 -1.9135
  439MOL0     H60534   9.505   6.049   1.392 -0.0453 -0.6637  0.6808
  439MOL0     H60535   9.555   6.131   1.240 -1.6642  2.1034 -1.9672
  439MOL0     H60536   9.432   6.340   1.389  1.0116  0.1738 -1.7439
  439MOL0     H60537   9.474   6.227   1.514 -0.5880  4.1802  1.1872
  439MOL0     H60538   9.652   6.394   1.488  0.5415 -1.5885  1.6941
  439MOL0     H60539   9.714   6.253   1.423  1.3047  0.7868 -0.3212
  439MOL0     H60540   9.672   6.538   1.066  0.2499 -0.9111 -0.9712
  439MOL0     H60541   9.781   6.661   0.887  1.2504 -1.5713 -2.2852
  439MOL0     H60542   9.932   6.607   0.851  0.8534 -1.2913  1.2410
  439MOL0     H60543   9.913   6.751   0.960 -2.7173  2.1081 -0.9157
  439MOL0     H60544  10.262   6.870   0.969  0.8795  3.4898 -3.4513
  439MOL0     H60545  10.458   6.939   0.905  0.9461 -0.3604  0.0830
  439MOL0     H60546  10.605   6.963   0.703 -0.4960  0.6282  0.5350
  439MOL0     H60547  10.695   6.984   0.853  0.6067 -0.0706 -0.3892
  439MOL0     H60548  10.834   7.033   0.652 -1.4952 -0.3296 -1.7062
  439MOL0     H60549  10.897   6.893   0.734 -1.2833 -1.2855  2.2213
  439MOL0     H60550  10.715   6.873   0.484 -0.3596 -3.2235  0.2019
  439MOL0     H60551  10.787   6.740   0.566 -1.2542  0.1905  0.3679
  439MOL0     H60552  10.926   6.783   0.369  0.9515  1.8164 -1.2530
  439MOL0     H60553  11.019   6.795   0.517 -1.9751 -1.1885  1.8389
  439MOL0     H60554  10.891   7.033   0.388 -0.7189 -0.7964 -0.6310
  439MOL0     H60555  11.022   7.048   0.505  0.2685  2.8131 -1.3849
  439MOL0     H60556  11.049   6.932   0.220 -0.9573 -2.4858  1.3616
  439MOL0     H60557  11.164   6.891   0.347 -2.2174 -1.9118  2.0066
  439MOL0     H60558  11.180   7.179   0.360  0.0801  1.3218 -0.3249
  439MOL0     H60559  11.083   7.151   0.216  1.0448 -0.3315 -1.2571
  439MOL0     H60560  11.338   7.174   0.181  0.9186  0.2010  0.9525
  439MOL0     H60561  11.252   7.022   0.122  1.8482 -0.6630 -0.5302
  439MOL0     H60562  10.581   6.535   0.801  1.1689  0.9059  1.8986
  439MOL0     H60563  10.331   6.471   0.872 -0.7096  0.1282 -0.1410
  439MOL0     H60564  10.081   6.490   1.326 -1.2430 -0.1256  1.7922
  439MOL0     H60565   9.878   6.402   1.405  1.3019  1.9685  0.3090
  439MOL0     H60566  10.284   6.816   0.195 -1.8068 -0.4124  0.5823
  439MOL0     H60567  10.476   6.975   0.230 -2.4280  0.4039 -1.2348
  439MOL0     H60568  10.572   7.425   0.665  0.4235  0.0897 -0.0953
  439MOL0     H60569  10.754   7.591   0.675 -2.1643 -0.8014  0.1514
  439MOL0     H60570  11.004   7.623   0.333 -0.3471  1.8389  0.6687
  439MOL0     H60571  11.116   7.720   0.431 -1.0405  0.6145  1.9931
  439MOL0     H60572  11.126   7.418   0.457  3.7393 -1.2258 -0.0060
  439MOL0     H60573  11.207   7.535   0.547 -2.2405  4.9178  0.1926
  439MOL0     H60574  11.211   7.534   0.237 -2.7096 -1.6378  1.4601
  439MOL0     H60575  11.328   7.632   0.339  0.4001  0.0678  3.6083
  439MOL0     H60576  11.377   7.333   0.354 -0.7782  0.6213  0.6867
  439MOL0     H60577  11.478   7.459   0.382 -0.8149  1.1445  0.6403
  439MOL0     H60578  11.526   7.347  -0.020  0.6839 -2.9617  1.7119
  439MOL0     H60579  10.913   7.426   0.316  0.7821 -1.9564  1.9007
  439MOL0     H60580  10.721   7.128   0.299  3.3599 -0.7260 -0.1459
  439MOL0     H60581  10.687   7.274   0.192  3.8064 -0.0318 -2.4584
  439MOL0     H60582  10.843   7.233   0.225 -0.2398 -2.6750 -2.5613
  440MOL0     O60583   5.373  11.091   3.270 -0.0464  0.3100  0.5859
  440MOL0     C60584   5.311  11.128   3.174  0.7542 -0.6037 -0.9309
  440MOL0     O60585   5.347  11.117   3.049  0.1339 -0.3568 -0.1836
  440MOL0     C60586   5.475  11.077   3.016 -0.8026  0.8261  0.1854
  440MOL0     C60587   5.597  11.135   3.050  0.7580 -0.4663 -0.0091
  440MOL0     C60588   5.719  11.071   3.020  0.1020  0.4039 -0.0318
  440MOL0     C60589   5.717  10.946   2.956  0.2163 -0.0593  0.1446
  440MOL0     O60590   5.827  10.864   2.924 -0.4537 -0.6307  0.7844
  440MOL0     C60591   5.959  10.902   2.972  0.7152  0.1425  0.7595
  440MOL0     C60592   6.068  10.852   2.884  0.6301  0.0886  1.1563
  440MOL0     C60593   6.200  10.842   2.963  0.1759 -0.0317 -0.3457
  440MOL0     C60594   6.301  10.769   2.881 -0.4639 -1.0317  0.3611
  440MOL0     C60595   6.451  10.767   2.930  0.4264  0.3055  0.1322
  440MOL0     C60596   6.542  10.707   2.821 -0.1126  0.1368  0.3979
  440MOL0     C60597   6.580  10.808   2.720  0.0293  0.1661 -0.2195
  440MOL0     C60598   6.676  10.761   2.607 -0.4279  0.1070 -0.6461
  440MOL0     N60599   6.816  10.794   2.644 -0.2338 -0.2419  0.7544
  440MOL0     C60600   6.913  10.709   2.700  0.1202  0.2411 -0.2021
  440MOL0     C60601   7.026  10.783   2.710 -0.0401  0.1610  0.4710
  440MOL0     C60602   7.155  10.731   2.755 -0.3561  0.5248 -0.4592
  440MOL0     C60603   7.238  10.668   2.646  0.1039  0.6845 -0.5764
  440MOL0     C60604   7.359  10.591   2.702 -0.6472  0.2996  1.0287
  440MOL0     C60605   7.418  10.486   2.606  0.1816 -0.0905  0.0968
  440MOL0     O60606   7.316  10.382   2.588  0.0701 -0.2438  0.1671
  440MOL0     C60607   7.349  10.281   2.501  0.3466  0.2728 -0.0443
  440MOL0     C60608   7.450  10.191   2.534 -0.0700 -0.3913  0.7863
  440MOL0     C60609   7.481  10.090   2.436 -1.0018  0.3751 -0.9150
  440MOL0     C60610   7.578   9.981   2.489  0.1511 -0.0890 -0.1641
  440MOL0     C60611   7.415  10.087   2.315 -0.4268 -0.0614 -0.4027
  440MOL0     C60612   7.461   9.985   2.215  0.2822 -1.1626 -0.1379
  440MOL0     O60613   7.593   9.987   2.173 -0.2034 -0.4080 -0.2830
  440MOL0     C60614   7.617   9.888   2.082  0.2264 -0.1133  0.5359
  440MOL0     C60615   7.591   9.890   1.945  0.0727  0.0084 -1.2272
  440MOL0     C60616   7.626   9.773   1.866 -0.0280  0.2861 -0.2448
  440MOL0     C60617   7.684   9.662   1.922 -0.2008 -0.4601  0.1949
  440MOL0     O60618   7.723   9.555   1.845  0.0319 -0.2185  0.6943
  440MOL0     C60619   7.790   9.586   1.725 -0.5627 -0.2831 -0.1494
  440MOL0     C60620   7.874   9.461   1.692 -0.2943  0.5355 -0.1997
  440MOL0     C60621   7.800   9.330   1.663 -0.7791 -1.2689 -0.5241
  440MOL0     C60622   7.911   9.236   1.617  0.9233 -0.3373 -0.1772
  440MOL0     C60623   8.005   9.175   1.724  0.7679  0.5794 -0.1567
  440MOL0     C60624   8.125   9.099   1.667  0.3060  0.0573  1.0071
  440MOL0     C60625   8.134   8.957   1.715 -0.1550  0.3532 -0.2510
  440MOL0     C60626   8.022   8.852   1.664  0.3209 -1.2016  0.1095
  440MOL0    Cl60627   8.057   8.690   1.737  0.0245  0.1727 -0.0106
  440MOL0     C60628   7.711   9.667   2.063  0.0359 -0.3327 -1.0418
  440MOL0     C60629   7.672   9.774   2.141 -0.4416  0.4262 -0.4459
  440MOL0     O60630   7.366   9.915   2.172 -0.5234  0.9207  0.4591
  440MOL0     C60631   7.317  10.179   2.290  0.4520 -0.1714  0.0820
  440MOL0     C60632   7.281  10.278   2.380  0.1029 -0.2309  0.4623
  440MOL0     N60633   6.995  10.913   2.662 -0.2178 -0.5402  0.5069
  440MOL0     N60634   6.875  10.917   2.622 -0.2566  0.2292 -0.1591
  440MOL0     C60635   5.595  10.896   2.927  0.2725  1.0389  1.0705
  440MOL0     C60636   5.474  10.958   2.948 -1.0058 -0.4525  0.1770
  440MOL0     C60637   5.172  11.182   3.184 -0.0412 -0.0893 -0.0446
  440MOL0     C60638   5.128  11.271   3.083 -0.0637 -1.0574 -0.0711
  440MOL0     C60639   5.007  11.337   3.102 -0.1177  0.4411 -0.1211
  440MOL0     C60640   4.930  11.327   3.209 -0.4123 -0.5432 -0.0524
  440MOL0     O60641   4.805  11.400   3.213  0.1184  0.0294 -0.1091
  440MOL0     C60642   4.744  11.408   3.340  0.7108 -0.3706 -0.4088
  440MOL0     C60643   4.620  11.503   3.334 -0.2263  0.6214  0.6984
  440MOL0     C60644   4.650  11.645   3.354 -1.0504 -0.9568  0.4220
  440MOL0     C60645   4.566  11.732   3.266 -0.3774 -0.1881 -0.0907
  440MOL0     C60646   4.624  11.868   3.276  0.3576 -1.0505  0.1808
  440MOL0     C60647   4.677  11.975   3.308 -0.1093 -0.7098 -0.0099
  440MOL0     C60648   4.965  11.230   3.301  0.6732  0.1684  0.4973
  440MOL0     C60649   5.087  11.165   3.295  0.1343  0.5163  0.0521
  440MOL0     C60650   5.112  11.057   3.408 -0.5170  1.0303  0.5260
  440MOL0     H60651   5.591  11.231   3.100  0.1203  1.0364 -2.7947
  440MOL0     H60652   5.814  11.116   3.045  2.1380 -4.2176  1.5521
  440MOL0     H60653   5.964  10.860   3.073 -1.1952 -1.8607  0.1021
  440MOL0     H60654   5.985  11.009   2.976  2.0933  0.1999 -3.9783
  440MOL0     H60655   6.034  10.752   2.856 -0.0846  0.7045 -0.2937
  440MOL0     H60656   6.071  10.915   2.795 -0.9827 -0.4045  0.7238
  440MOL0     H60657   6.227  10.945   2.990 -0.1558 -0.3374  1.2511
  440MOL0     H60658   6.170  10.787   3.053  0.9162  0.1777  0.0401
  440MOL0     H60659   6.271  10.664   2.876  0.3419 -1.2559  0.1377
  440MOL0     H60660   6.311  10.814   2.781 -1.3140 -1.6308 -0.0069
  440MOL0     H60661   6.468  10.702   3.017  3.7909  2.7957  1.5791
  440MOL0     H60662   6.494  10.861   2.965  0.9092  0.5471 -1.0682
  440MOL0     H60663   6.633  10.677   2.875  1.0994  1.6384 -0.7108
  440MOL0     H60664   6.512  10.609   2.785 -0.9428  0.6088 -0.2259
  440MOL0     H60665   6.629  10.892   2.772 -1.7954  0.4868  1.0813
  440MOL0     H60666   6.492  10.851   2.671  0.4978 -0.3567 -1.5606
  440MOL0     H60667   6.657  10.655   2.591  0.3103 -0.2534  0.7163
  440MOL0     H60668   6.643  10.814   2.517 -2.1569  1.1533  0.5479
  440MOL0     H60669   6.913  10.605   2.732  4.0802 -0.7291 -2.6350
  440MOL0     H60670   7.127  10.646   2.818 -0.1057 -0.3067 -1.4360
  440MOL0     H60671   7.212  10.801   2.817 -1.9215 -0.3748  2.1795
  440MOL0     H60672   7.178  10.600   2.585  3.1451 -0.6188 -2.3853
  440MOL0     H60673   7.269  10.747   2.577 -0.0119  1.8508  0.6732
  440MOL0     H60674   7.446  10.658   2.704  1.7044 -2.5415  3.5480
  440MOL0     H60675   7.339  10.557   2.804 -3.6672  2.2770  1.2341
  440MOL0     H60676   7.448  10.539   2.515  2.3705  2.4976  2.1542
  440MOL0     H60677   7.517  10.454   2.641  0.9469  1.7298 -0.2973
  440MOL0     H60678   7.495  10.188   2.633  3.3587 -1.8231 -0.6204
  440MOL0     H60679   7.561   9.947   2.591  2.4650 -1.0940 -0.0673
  440MOL0     H60680   7.680  10.020   2.483  0.7053 -1.1654  1.6747
  440MOL0     H60681   7.563   9.889   2.431 -0.4144  0.3576 -0.7537
  440MOL0     H60682   7.554   9.981   1.899 -2.6036  0.8667  2.2165
  440MOL0     H60683   7.604   9.773   1.759  1.1592 -1.2132 -0.5158
  440MOL0     H60684   7.725   9.610   1.640 -1.3814 -2.2749 -0.1446
  440MOL0     H60685   7.865   9.666   1.729  2.0005 -2.4355 -1.9778
  440MOL0     H60686   7.940   9.477   1.606  1.7679  1.0611  1.3840
  440MOL0     H60687   7.939   9.450   1.779  0.2911 -1.2958 -0.8194
  440MOL0     H60688   7.736   9.340   1.574  0.0111 -2.5665 -1.2718
  440MOL0     H60689   7.745   9.289   1.748  0.9402 -3.7240 -0.4887
  440MOL0     H60690   7.979   9.277   1.542  1.7305 -0.5888  0.4015
  440MOL0     H60691   7.870   9.144   1.576  3.0636 -1.2833 -0.3345
  440MOL0     H60692   8.054   9.263   1.766  1.8712  0.7479 -1.7197
  440MOL0     H60693   7.943   9.123   1.797 -0.8277  1.0128 -1.1522
  440MOL0     H60694   8.226   9.139   1.668  1.0183 -1.0562 -3.4853
  440MOL0     H60695   8.100   9.086   1.561 -2.8223  0.6123  1.5858
  440MOL0     H60696   8.124   8.964   1.824  3.9348  3.6241  0.1578
  440MOL0     H60697   8.230   8.920   1.676  1.6803  1.6554  2.6560
  440MOL0     H60698   8.026   8.839   1.555 -1.5808 -0.3102 -0.1115
  440MOL0     H60699   7.923   8.884   1.697 -0.1774 -1.8628 -0.7006
  440MOL0     H60700   7.760   9.584   2.113 -0.7421 -0.3760 -0.3204
  440MOL0     H60701   7.683   9.772   2.249  0.9274  0.7247 -0.5672
  440MOL0     H60702   7.271  10.188   2.192  0.1304 -0.4428  0.2105
  440MOL0     H60703   7.204  10.350   2.354 -0.1026 -1.0894 -1.4828
  440MOL0     H60704   5.591  10.806   2.866  0.4590  1.2676  0.7106
  440MOL0     H60705   5.377  10.922   2.916 -1.9645  1.8679  0.2474
  440MOL0     H60706   5.188  11.287   2.994 -0.4239 -2.1137 -0.5268
  440MOL0     H60707   4.979  11.403   3.021 -0.2041  0.4195 -0.1087
  440MOL0     H60708   4.701  11.313   3.372 -2.4778  1.7084  2.2572
  440MOL0     H60709   4.819  11.434   3.415  0.6085 -3.8254  1.0779
  440MOL0     H60710   4.550  11.473   3.413  1.5891 -1.3915  1.6398
  440MOL0     H60711   4.569  11.479   3.240  1.1627 -0.3179  0.1435
  440MOL0     H60712   4.648  11.687   3.455 -0.2850 -2.5328  1.1413
  440MOL0     H60713   4.750  11.663   3.314 -1.4055  2.0708  0.7045
  440MOL0     H60714   4.462  11.736   3.300 -1.1757 -0.9543 -2.2597
  440MOL0     H60715   4.571  11.704   3.160  1.3949 -0.2212 -0.0262
  440MOL0     H60716   4.730  12.066   3.328  1.7238 -2.0397  1.5850
  440MOL0     H60717   4.899  11.208   3.384  0.5189  0.6133  0.4953
  440MOL0     H60718   5.164  10.973   3.360 -1.4519 -0.5389  2.1695
  440MOL0     H60719   5.173  11.088   3.493 -0.5048 -1.0628  1.3435
  440MOL0     H60720   5.021  11.023   3.458 -0.7996 -0.9782 -1.2043
  441MOL0     O60721   3.156   1.493   3.946  0.3260  0.0390 -0.8523
  441MOL0     C60722   3.100   1.429   4.039 -0.2317  0.3907 -0.4285
  441MOL0     O60723   3.162   1.323   4.103 -0.5369 -0.2039 -0.2679
  441MOL0     C60724   3.281   1.285   4.041 -0.8388  0.1510 -0.2858
  441MOL0     C60725   3.395   1.335   4.116  0.0974  0.2645  0.1781
  441MOL0     C60726   3.522   1.322   4.049 -0.1239  0.4151 -0.4740
  441MOL0     C60727   3.531   1.258   3.931 -0.2183  0.9195  0.3008
  441MOL0     O60728   3.662   1.260   3.878 -0.1480 -0.6720  0.1800
  441MOL0     C60729   3.692   1.154   3.788  0.3856 -0.0395  0.6220
  441MOL0     C60730   3.703   1.205   3.645  0.0454 -0.6661 -0.7620
  441MOL0     C60731   3.760   1.100   3.549 -0.1099 -0.0157  0.0250
  441MOL0     C60732   3.678   0.972   3.541 -0.2999 -0.1806  0.2848
  441MOL0     C60733   3.543   0.979   3.462 -0.6773 -0.3715 -0.7652
  441MOL0     C60734   3.482   0.840   3.447  0.3647 -0.6027  0.9342
  441MOL0     C60735   3.357   0.845   3.355  0.9925 -0.5825  0.2606
  441MOL0     C60736   3.299   0.703   3.333  0.7233  0.1837  0.2909
  441MOL0     N60737   3.387   0.644   3.238 -0.5727  0.5160  0.1565
  441MOL0     C60738   3.361   0.637   3.102  0.4116 -0.1304 -0.1008
  441MOL0     C60739   3.445   0.541   3.058  0.1151 -0.7401 -0.8762
  441MOL0     C60740   3.455   0.493   2.919  0.6203 -0.1320 -0.3877
  441MOL0     C60741   3.321   0.460   2.857  0.4013 -0.2511  0.4523
  441MOL0     C60742   3.340   0.374   2.729 -0.4390  0.0687 -0.5103
  441MOL0     C60743   3.210   0.334   2.658  0.0747 -0.2538 -0.5708
  441MOL0     O60744   3.122   0.278   2.760  0.5863  0.2592  0.9524
  441MOL0     C60745   2.990   0.249   2.729 -0.0187  0.4713 -0.1547
  441MOL0     C60746   2.929   0.251   2.607  0.6738 -0.1211 -0.7469
  441MOL0     C60747   2.795   0.236   2.580  0.3052 -0.2188  0.0308
  441MOL0     C60748   2.748   0.249   2.430 -0.1643 -0.6168  0.1055
  441MOL0     C60749   2.708   0.216   2.684  0.3768  0.4113 -0.9646
  441MOL0     C60750   2.568   0.171   2.660  0.2324  0.5351  0.3897
  441MOL0     O60751   2.483   0.211   2.770 -0.0837 -0.1553  0.1030
  441MOL0     C60752   2.349   0.176   2.762 -0.1140  0.5562  0.7801
  441MOL0     C60753   2.273   0.260   2.684  0.1335  0.6055 -0.8615
  441MOL0     C60754   2.143   0.223   2.664  1.0179 -0.5007 -0.3409
  441MOL0     C60755   2.091   0.102   2.708  1.5144  0.7908  0.4022
  441MOL0     O60756   1.959   0.065   2.693  0.4767 -0.2928  0.6763
  441MOL0     C60757   1.885   0.112   2.581  0.2868 -0.8582 -0.1107
  441MOL0     C60758   1.920   0.052   2.451  0.5076  1.4927 -0.0356
  441MOL0     C60759   1.892  -0.098   2.462  0.3317 -0.4499  0.8592
  441MOL0     C60760   1.902  -0.156   2.318 -0.2746 -0.3876  0.0681
  441MOL0     C60761   1.857  -0.300   2.290  0.8416 -0.0449  0.6645
  441MOL0     C60762   1.705  -0.300   2.309  0.1410  1.0030 -0.0483
  441MOL0     C60763   1.630  -0.444   2.327  0.0146  0.0767  0.2744
  441MOL0     C60764   1.472  -0.432   2.314 -0.3302  0.0681  0.9838
  441MOL0    Cl60765   1.387  -0.587   2.375  0.4377 -0.4918  0.0161
  441MOL0     C60766   2.173   0.024   2.790 -0.0437 -0.2946 -0.1891
  441MOL0     C60767   2.303   0.055   2.816 -0.6596 -0.1437  0.2125
  441MOL0     O60768   2.537   0.109   2.554 -0.4632  0.0446  0.2125
  441MOL0     C60769   2.766   0.215   2.817  0.6784 -0.0566 -0.0343
  441MOL0     C60770   2.902   0.233   2.837 -0.3174 -0.0803  0.1422
  441MOL0     N60771   3.518   0.491   3.172  0.6681 -0.2327 -1.3006
  441MOL0     N60772   3.480   0.549   3.284  0.0802  0.3371  0.4914
  441MOL0     C60773   3.418   1.212   3.867 -0.5606  0.0822  0.4337
  441MOL0     C60774   3.289   1.221   3.913 -0.3324 -0.1894 -0.3028
  441MOL0     C60775   2.969   1.469   4.091 -0.5380 -0.5390  0.0283
  441MOL0     C60776   2.890   1.543   4.001  0.5561  0.4268 -0.7277
  441MOL0     C60777   2.761   1.595   4.030  0.2610  0.8925  0.0137
  441MOL0     C60778   2.714   1.574   4.157 -1.3520  0.6000 -0.3441
  441MOL0     O60779   2.593   1.615   4.194 -0.5002 -0.1429  0.5917
  441MOL0     C60780   2.486   1.533   4.143 -0.0258 -0.4423 -0.6474
  441MOL0     C60781   2.443   1.419   4.248 -0.2207  0.4101 -0.1771
  441MOL0     C60782   2.331   1.465   4.340  0.8778 -0.1209 -0.3651
  441MOL0     C60783   2.274   1.365   4.433  0.1704  0.7700  0.0886
  441MOL0     C60784   2.208   1.435   4.532  0.9273  0.2932 -0.5830
  441MOL0     C60785   2.157   1.501   4.618  0.0608  0.4089 -1.1064
  441MOL0     C60786   2.788   1.503   4.249  0.2201  0.5517  0.1515
  441MOL0     C60787   2.912   1.445   4.215  0.3567 -0.8499 -1.6082
  441MOL0     C60788   2.978   1.364   4.331  0.0730  0.4096 -0.6113
  441MOL0     H60789   3.379   1.365   4.218 -1.0504  3.7076 -0.8919
  441MOL0     H60790   3.607   1.355   4.108 -2.2788  1.0636  2.4739
  441MOL0     H60791   3.619   1.072   3.783 -1.0424  1.2606 -1.9913
  441MOL0     H60792   3.779   1.096   3.819 -0.1183 -0.7903  0.6483
  441MOL0     H60793   3.608   1.234   3.599 -1.7067  0.1518  3.0021
  441MOL0     H60794   3.769   1.292   3.653  0.7643 -1.3487  1.2825
  441MOL0     H60795   3.774   1.145   3.450 -0.0355  0.5206  0.2795
  441MOL0     H60796   3.860   1.076   3.588  0.4244  3.5666  1.1796
  441MOL0     H60797   3.741   0.892   3.502 -3.8373 -2.3748 -1.3540
  441MOL0     H60798   3.652   0.947   3.645 -1.5737  0.1532  0.0545
  441MOL0     H60799   3.570   1.019   3.364  0.4697 -1.3260 -0.8634
  441MOL0     H60800   3.472   1.051   3.504 -0.5199 -0.1418 -0.8920
  441MOL0     H60801   3.556   0.768   3.409 -0.6065  0.2470 -3.0667
  441MOL0     H60802   3.443   0.814   3.545 -1.2713 -3.9933 -0.4553
  441MOL0     H60803   3.377   0.885   3.255  0.0586  0.2948  0.4031
  441MOL0     H60804   3.275   0.904   3.397  0.0301 -2.7891  1.6448
  441MOL0     H60805   3.290   0.648   3.427 -0.6154 -2.7770 -1.4162
  441MOL0     H60806   3.200   0.713   3.287  1.1574  2.1650 -0.3470
  441MOL0     H60807   3.291   0.692   3.041  0.1459  0.0458  0.3609
  441MOL0     H60808   3.520   0.406   2.929  0.2608 -0.2811  0.7040
  441MOL0     H60809   3.511   0.563   2.856  3.0413 -2.8218 -1.4361
  441MOL0     H60810   3.262   0.409   2.934  1.1500  1.2810  2.0887
  441MOL0     H60811   3.266   0.550   2.827  2.0013  0.5185 -0.2574
  441MOL0     H60812   3.400   0.425   2.653  0.8846 -2.5552 -1.3598
  441MOL0     H60813   3.390   0.280   2.755 -1.4153 -1.6587 -4.0972
  441MOL0     H60814   3.172   0.420   2.602 -0.2861  0.5202  0.8130
  441MOL0     H60815   3.226   0.258   2.581  2.5449 -0.5355  0.1343
  441MOL0     H60816   3.001   0.259   2.526  2.5743  0.5978  0.9088
  441MOL0     H60817   2.807   0.317   2.369 -2.4134 -0.2289 -1.7799
  441MOL0     H60818   2.653   0.302   2.418  0.8838  1.5918  1.0654
  441MOL0     H60819   2.749   0.153   2.378 -4.2537 -1.2588  0.8222
  441MOL0     H60820   2.323   0.352   2.655  1.9085  0.0997  0.4062
  441MOL0     H60821   2.072   0.281   2.606  0.6296 -0.1781  0.4439
  441MOL0     H60822   1.779   0.108   2.609 -0.4743  1.7789 -2.1533
  441MOL0     H60823   1.879   0.221   2.580 -0.5542 -0.8877 -1.7798
  441MOL0     H60824   1.861   0.094   2.369  0.0100 -2.2647 -1.8287
  441MOL0     H60825   2.024   0.067   2.421  0.7379  0.4623  0.2053
  441MOL0     H60826   1.793  -0.113   2.506  0.2608  0.2748  0.9618
  441MOL0     H60827   1.957  -0.154   2.530  0.4100 -0.0130  1.1526
  441MOL0     H60828   2.005  -0.159   2.281 -0.3483  1.9033 -0.4986
  441MOL0     H60829   1.867  -0.081   2.246  1.1108 -0.3527 -0.5902
  441MOL0     H60830   1.878  -0.327   2.186 -0.7644  2.0826 -0.2727
  441MOL0     H60831   1.896  -0.375   2.360  0.4139 -0.4694  0.4584
  441MOL0     H60832   1.657  -0.244   2.228 -2.9004 -0.2289  0.7602
  441MOL0     H60833   1.679  -0.253   2.405 -1.8936  0.5713 -0.3439
  441MOL0     H60834   1.657  -0.496   2.419 -2.3977 -2.2750 -0.2193
  441MOL0     H60835   1.652  -0.511   2.243  0.6409 -0.0081  0.5046
  441MOL0     H60836   1.452  -0.425   2.207  1.1244 -1.8493  0.5385
  441MOL0     H60837   1.436  -0.345   2.370 -0.1208  0.6808  0.1874
  441MOL0     H60838   2.141  -0.065   2.843 -1.4550 -0.4816 -1.3054
  441MOL0     H60839   2.376  -0.000   2.874 -0.0081  1.7453  1.2752
  441MOL0     H60840   2.704   0.210   2.906 -0.9538  1.3496 -1.0344
  441MOL0     H60841   2.944   0.250   2.935  4.7781  0.2295 -1.8249
  441MOL0     H60842   3.427   1.173   3.766 -1.7253  1.7720 -0.3712
  441MOL0     H60843   3.209   1.192   3.847  2.5819 -3.7383 -2.6569
  441MOL0     H60844   2.923   1.550   3.898 -4.1842 -1.0281 -2.6037
  441MOL0     H60845   2.697   1.636   3.952  1.2673  1.6913 -0.4278
  441MOL0     H60846   2.403   1.602   4.127  0.2196  0.1393  0.4330
  441MOL0     H60847   2.509   1.491   4.045 -0.4074  1.0189 -1.3882
  441MOL0     H60848   2.524   1.391   4.316 -0.8642  1.7856  1.2209
  441MOL0     H60849   2.425   1.335   4.181  0.3396  2.5697 -3.2360
  441MOL0     H60850   2.365   1.559   4.386 -0.4111  0.4267 -0.4900
  441MOL0     H60851   2.247   1.478   4.271  0.3142 -0.2544  0.2958
  441MOL0     H60852   2.360   1.313   4.475 -1.1310  1.5232  4.0372
  441MOL0     H60853   2.207   1.295   4.382 -1.5181  3.6466 -2.0053
  441MOL0     H60854   2.128   1.558   4.704  1.3301 -2.2064  1.2247
  441MOL0     H60855   2.737   1.482   4.343 -0.9219  1.3924 -0.2485
  441MOL0     H60856   3.086   1.357   4.318  0.2195  0.3781  0.5757
  441MOL0     H60857   2.946   1.400   4.429 -2.8576 -3.5296  0.1169
  441MOL0     H60858   2.932   1.266   4.316 -0.0610  0.5458 -1.1273
  442MOL0     O60859  11.360   6.079   4.371 -0.0435 -0.5823 -0.3124
  442MOL0     C60860  11.273   6.122   4.446 -0.2022 -0.3405 -0.0619
  442MOL0     O60861  11.231   6.250   4.450  0.4014 -0.2136 -0.3200
  442MOL0     C60862  11.280   6.338   4.361 -0.6026  0.0516  0.5321
  442MOL0     C60863  11.413   6.353   4.336 -0.3517 -0.3733  0.4203
  442MOL0     C60864  11.461   6.469   4.266  0.2764 -0.1489  0.3185
  442MOL0     C60865  11.377   6.564   4.199  0.6160  0.4392 -0.9470
  442MOL0     O60866  11.411   6.678   4.135  0.5649 -0.3500 -0.1370
  442MOL0     C60867  11.544   6.677   4.088  0.4488 -0.1977 -0.0826
  442MOL0     C60868  11.555   6.805   4.005  0.0131 -0.7130  0.3034
  442MOL0     C60869  11.685   6.807   3.926 -0.5686  0.7321 -0.6754
  442MOL0     C60870  11.792   6.869   4.023  0.1352  0.4888 -0.6181
  442MOL0     C60871  11.915   6.917   3.943 -0.2161 -0.6074  0.9344
  442MOL0     C60872  11.882   7.017   3.831 -0.4029  0.0632 -1.5377
  442MOL0     C60873  11.997   7.122   3.807 -0.3544 -0.1821  0.4239
  442MOL0     C60874  12.114   7.064   3.743 -0.4613 -0.5493  0.3458
  442MOL0     N60875  12.226   7.157   3.721  0.0015  0.9240  0.4140
  442MOL0     C60876  12.210   7.266   3.635 -0.4395  0.6756 -0.7277
  442MOL0     C60877  12.330   7.318   3.634  0.3252  0.8040 -0.0685
  442MOL0     C60878  12.375   7.434   3.549  0.0798  0.1069 -0.2550
  442MOL0     C60879  12.334   7.432   3.402 -0.6261 -0.5012  0.6070
  442MOL0     C60880  12.405   7.320   3.326 -0.8883 -0.5514 -0.5827
  442MOL0     C60881  12.346   7.291   3.184 -0.4094 -0.2011 -0.8178
  442MOL0     O60882  12.393   7.384   3.088  0.0052  0.3013  0.2547
  442MOL0     C60883  12.518   7.364   3.032 -0.3640  0.4789 -0.3663
  442MOL0     C60884  12.598   7.251   3.046 -0.6268  0.2135 -0.5083
  442MOL0     C60885  12.736   7.249   2.992  0.3676  0.6331  0.1936
  442MOL0     C60886  12.813   7.120   3.004 -0.6457  0.4370  0.7123
  442MOL0     C60887  12.785   7.349   2.917 -0.2222  0.1407 -0.1577
  442MOL0     C60888  12.918   7.359   2.862 -0.6463 -1.0456 -0.2424
  442MOL0     O60889  12.930   7.444   2.758 -0.0905  0.2255  0.4656
  442MOL0     C60890  13.057   7.475   2.704 -0.6577 -0.0520  1.2768
  442MOL0     C60891  13.153   7.552   2.771  0.0042 -0.0953 -0.6134
  442MOL0     C60892  13.273   7.587   2.707  0.2162  0.3820 -0.0779
  442MOL0     C60893  13.310   7.536   2.586  0.0151  0.0072  0.2745
  442MOL0     O60894  13.435   7.576   2.541 -0.1649 -0.6288 -0.5563
  442MOL0     C60895  13.463   7.569   2.397 -0.2402  0.0002 -0.0041
  442MOL0     C60896  13.545   7.453   2.364 -0.1251  0.5574  0.3933
  442MOL0     C60897  13.687   7.460   2.430 -0.0599 -0.5024 -0.1179
  442MOL0     C60898  13.788   7.345   2.401  0.3092  0.3203 -0.0278
  442MOL0     C60899  13.798   7.307   2.261  0.0568 -0.3168  0.5342
  442MOL0     C60900  13.859   7.161   2.226  0.1961 -0.0228 -0.0907
  442MOL0     C60901  13.782   7.099   2.111 -0.3749 -0.1079 -0.5571
  442MOL0     C60902  13.790   6.945   2.112  0.2184 -0.3110  0.8058
  442MOL0    Cl60903  13.959   6.900   2.083 -0.4198 -0.1135  0.7275
  442MOL0     C60904  13.224   7.442   2.527 -0.6916 -0.6687  0.1191
  442MOL0     C60905  13.099   7.418   2.581 -0.4379  0.6334 -0.5505
  442MOL0     O60906  13.014   7.296   2.908  0.1327 -0.2626  0.1240
  442MOL0     C60907  12.698   7.454   2.897  0.5654 -0.1381 -0.4322
  442MOL0     C60908  12.571   7.467   2.958 -0.2616  0.4844 -0.7035
  442MOL0     N60909  12.419   7.244   3.697  0.0061  0.5127  0.2136
  442MOL0     N60910  12.357   7.136   3.752  0.8255 -0.1309  0.9989
  442MOL0     C60911  11.238   6.551   4.229 -0.3203  0.3923 -0.3790
  442MOL0     C60912  11.194   6.437   4.307  0.3525  0.1509 -0.0696
  442MOL0     C60913  11.227   6.027   4.554  0.3707 -0.3848  0.8465
  442MOL0     C60914  11.209   5.902   4.508 -0.0825  0.7657  0.7152
  442MOL0     C60915  11.155   5.800   4.586 -0.1970  0.9133 -0.6772
  442MOL0     C60916  11.120   5.815   4.719 -0.6503 -1.2999 -1.0220
  442MOL0     O60917  11.095   5.715   4.816  0.7040  0.2052  0.2109
  442MOL0     C60918  11.116   5.577   4.779  0.4718 -0.6752 -0.2923
  442MOL0     C60919  11.092   5.486   4.894  0.0899 -0.1013  0.4698
  442MOL0     C60920  11.137   5.338   4.865  0.6426 -0.2727 -0.0447
  442MOL0     C60921  11.279   5.315   4.910  0.5816 -0.8496 -0.4529
  442MOL0     C60922  11.324   5.181   4.871 -0.2808 -0.6477 -0.4020
  442MOL0     C60923  11.356   5.074   4.827  0.1919 -0.0567 -0.1296
  442MOL0     C60924  11.142   5.944   4.766 -0.4111  0.0922 -0.2132
  442MOL0     C60925  11.192   6.055   4.688 -0.4771  0.1616 -0.2114
  442MOL0     C60926  11.228   6.187   4.756 -0.3185 -0.3785  0.4454
  442MOL0     H60927  11.496   6.297   4.378  1.3946  0.1391 -2.1112
  442MOL0     H60928  11.570   6.474   4.269  0.2194  1.0109  0.6699
  442MOL0     H60929  11.564   6.595   4.019  2.8093  0.1446  0.1069
  442MOL0     H60930  11.617   6.682   4.169 -0.0177  0.4963  0.3076
  442MOL0     H60931  11.466   6.820   3.943 -0.8071  0.8930  1.7849
  442MOL0     H60932  11.551   6.888   4.075 -1.4837 -2.1284  2.0089
  442MOL0     H60933  11.705   6.711   3.877 -1.7384  0.4380 -0.6051
  442MOL0     H60934  11.671   6.882   3.847 -0.5578  0.5020 -0.8969
  442MOL0     H60935  11.741   6.953   4.070 -0.9076 -0.7084  0.4420
  442MOL0     H60936  11.832   6.799   4.097  0.1230  1.6755  0.5428
  442MOL0     H60937  11.968   6.830   3.905  1.3761  2.4343 -4.9629
  442MOL0     H60938  11.981   6.965   4.016  2.0094 -1.4214 -0.4498
  442MOL0     H60939  11.850   6.963   3.742 -2.0101  1.3761 -1.8182
  442MOL0     H60940  11.794   7.072   3.865  1.9985  2.9197  0.6173
  442MOL0     H60941  12.023   7.155   3.907 -0.8971 -4.1162  2.0597
  442MOL0     H60942  11.961   7.209   3.751 -1.7035  0.1883  1.7875
  442MOL0     H60943  12.152   6.982   3.805  0.7819 -0.5525 -0.3838
  442MOL0     H60944  12.089   7.019   3.647 -1.0876  0.2875  0.1026
  442MOL0     H60945  12.113   7.293   3.595 -0.3223  1.4095 -0.5228
  442MOL0     H60946  12.484   7.433   3.543  0.0601 -3.1192 -2.8534
  442MOL0     H60947  12.338   7.524   3.600 -2.1483 -2.2036  2.5899
  442MOL0     H60948  12.225   7.425   3.397 -0.5524 -1.8329  0.5918
  442MOL0     H60949  12.357   7.523   3.345 -1.8749 -2.1595 -2.8263
  442MOL0     H60950  12.509   7.353   3.321 -0.2590 -2.2431  0.5976
  442MOL0     H60951  12.408   7.225   3.379  1.4088  0.2762  0.9247
  442MOL0     H60952  12.363   7.185   3.161 -0.7238 -0.5754  0.5736
  442MOL0     H60953  12.239   7.308   3.171 -0.2606 -1.2605 -4.4772
  442MOL0     H60954  12.568   7.167   3.107 -1.3453 -0.0241 -1.1786
  442MOL0     H60955  12.870   7.102   3.096  1.8849  0.0632 -0.8183
  442MOL0     H60956  12.878   7.097   2.918 -2.0368  0.1327 -0.2899
  442MOL0     H60957  12.741   7.038   2.997 -1.0775  0.9292 -1.2288
  442MOL0     H60958  13.130   7.588   2.871  0.7187 -1.7016  0.1641
  442MOL0     H60959  13.341   7.654   2.759 -1.0086  1.2725  0.4382
  442MOL0     H60960  13.372   7.572   2.337 -1.0889 -0.8309  1.2138
  442MOL0     H60961  13.522   7.654   2.360 -2.1524  1.0316 -0.8601
  442MOL0     H60962  13.492   7.358   2.365 -0.1455  0.4260 -2.8112
  442MOL0     H60963  13.558   7.468   2.256  2.1253 -2.6172  0.0874
  442MOL0     H60964  13.683   7.481   2.538  1.0814  2.6254 -0.5576
  442MOL0     H60965  13.740   7.549   2.394  0.2289 -0.8220 -0.4822
  442MOL0     H60966  13.737   7.259   2.446  1.1646  0.0598  0.4649
  442MOL0     H60967  13.883   7.358   2.453  0.8129 -2.4219 -0.1266
  442MOL0     H60968  13.702   7.312   2.209 -0.0927  1.1586  0.9006
  442MOL0     H60969  13.874   7.373   2.218  1.1294 -2.2086 -0.6271
  442MOL0     H60970  13.846   7.102   2.317  2.1002  1.1297  0.9971
  442MOL0     H60971  13.965   7.161   2.199  0.0883 -1.7499 -0.6747
  442MOL0     H60972  13.826   7.142   2.021 -1.2090  0.9603 -0.4647
  442MOL0     H60973  13.676   7.118   2.129  0.1268 -0.2038  3.3736
  442MOL0     H60974  13.740   6.907   2.022  2.1189 -3.5232  0.9356
  442MOL0     H60975  13.767   6.895   2.206  5.5433 -1.3281  1.8900
  442MOL0     H60976  13.253   7.390   2.436 -0.4864 -2.5032  1.1843
  442MOL0     H60977  13.023   7.350   2.542 -0.8955 -1.2013  3.1179
  442MOL0     H60978  12.729   7.540   2.839 -0.7870  0.4264 -0.3670
  442MOL0     H60979  12.506   7.552   2.942  0.2472  0.5774 -2.4614
  442MOL0     H60980  11.167   6.619   4.183  0.7080  1.1826 -0.8558
  442MOL0     H60981  11.086   6.433   4.321  0.1174  3.5181 -0.0505
  442MOL0     H60982  11.244   5.877   4.409  1.1714  1.1531  1.0404
  442MOL0     H60983  11.151   5.702   4.540 -1.0148  0.9532 -0.7068
  442MOL0     H60984  11.050   5.551   4.695 -1.3598  0.2480  0.8034
  442MOL0     H60985  11.219   5.565   4.744  1.1418 -1.7202  1.8893
  442MOL0     H60986  10.985   5.491   4.912  0.2570  0.7409  1.2778
  442MOL0     H60987  11.142   5.534   4.979  2.7550  1.4239 -1.7803
  442MOL0     H60988  11.065   5.267   4.906  1.1025 -0.8922 -0.2881
  442MOL0     H60989  11.141   5.315   4.758  3.2046 -0.9811  0.1418
  442MOL0     H60990  11.300   5.344   5.013 -0.1654 -0.2926 -0.4483
  442MOL0     H60991  11.346   5.385   4.859  0.1982 -2.0787 -2.7783
  442MOL0     H60992  11.367   4.971   4.801 -1.7393 -0.7939  1.6943
  442MOL0     H60993  11.132   5.963   4.873  2.7978 -2.1690  0.6432
  442MOL0     H60994  11.296   6.250   4.698 -0.4358 -1.4501 -0.8863
  442MOL0     H60995  11.136   6.242   4.780 -0.7198 -0.0202 -1.7127
  442MOL0     H60996  11.285   6.164   4.847  1.9000 -0.4469 -0.8970
  443MOL0     O60997   6.442  11.108   0.085  0.2794  0.7150 -0.3430
  443MOL0     C60998   6.419  11.005   0.023  0.1847 -0.1299 -0.1756
  443MOL0     O60999   6.510  10.920  -0.021  0.2562 -0.0768  0.5670
  443MOL0     C61000   6.642  10.946  -0.004  0.0531  0.1402  0.0569
  443MOL0     C61001   6.717  10.837   0.010 -0.3795  1.3567 -0.2827
  443MOL0     C61002   6.860  10.835   0.009  0.1925 -0.6653 -0.0742
  443MOL0     C61003   6.917  10.960   0.017  0.5575 -0.2017  0.3637
  443MOL0     O61004   7.048  10.988   0.025  0.3127  0.3736  0.2598
  443MOL0     C61005   7.147  10.892   0.001  0.1932 -0.2598 -0.4164
  443MOL0     C61006   7.284  10.944   0.054 -0.8633 -0.0241  0.0520
  443MOL0     C61007   7.328  10.862   0.179  1.1952 -0.3152  0.4450
  443MOL0     C61008   7.450  10.908   0.247 -0.4681 -0.2370  0.0870
  443MOL0     C61009   7.493  10.820   0.365  0.2415  0.4779  0.1189
  443MOL0     C61010   7.627  10.870   0.424  0.0522 -0.0409  0.6806
  443MOL0     C61011   7.658  10.768   0.534  0.4422 -0.4885 -0.3068
  443MOL0     C61012   7.759  10.838   0.624 -0.0459  0.0989  0.9438
  443MOL0     N61013   7.830  10.743   0.712  0.1871  1.0602 -0.3209
  443MOL0     C61014   7.929  10.660   0.669  0.6357  0.1047 -0.0411
  443MOL0     C61015   7.976  10.600   0.778  0.4798  0.3398 -0.0407
  443MOL0     C61016   8.060  10.476   0.772  0.6021  0.2343  0.1343
  443MOL0     C61017   8.203  10.500   0.709  0.0287 -0.0015 -0.1001
  443MOL0     C61018   8.287  10.382   0.681 -0.2168  0.8481  0.1423
  443MOL0     C61019   8.394  10.425   0.580 -0.5573  0.4266  0.4465
  443MOL0     O61020   8.345  10.471   0.452 -0.8086 -0.2606  0.8719
  443MOL0     C61021   8.432  10.526   0.357  1.0408 -0.7760  0.5287
  443MOL0     C61022   8.565  10.505   0.340 -0.4164 -0.0188 -0.0798
  443MOL0     C61023   8.645  10.558   0.237 -0.5670  0.6395  0.2637
  443MOL0     C61024   8.781  10.509   0.245 -0.7140 -0.5750 -0.4455
  443MOL0     C61025   8.587  10.649   0.157  1.0499 -0.8326  0.6174
  443MOL0     C61026   8.662  10.733   0.052 -0.5471  0.1108 -0.3718
  443MOL0     O61027   8.800  10.742   0.076 -0.4105 -0.5466  0.4179
  443MOL0     C61028   8.881  10.812  -0.012  0.6054 -0.2970 -0.3827
  443MOL0     C61029   8.857  10.951  -0.037  0.0430 -0.1009 -0.8745
  443MOL0     C61030   8.940  11.011  -0.131  0.3113 -0.2783  0.3895
  443MOL0     C61031   9.048  10.941  -0.198  0.1888  0.3376  0.3408
  443MOL0     O61032   9.122  11.001  -0.301  0.2215  1.1132 -0.1072
  443MOL0     C61033   9.106  11.139  -0.331 -0.0646 -0.7337 -0.8090
  443MOL0     C61034   9.014  11.164  -0.454  0.0032  0.2477  0.1250
  443MOL0     C61035   8.947  11.307  -0.443 -1.0811 -0.7309 -0.1929
  443MOL0     C61036   9.027  11.412  -0.507  0.6072 -0.8295  0.5370
  443MOL0     C61037   8.951  11.553  -0.476 -1.0105  0.8240 -0.0058
  443MOL0     C61038   8.851  11.592  -0.588 -0.1210 -1.2851  0.1907
  443MOL0     C61039   8.765  11.712  -0.548 -0.9319 -0.4970  0.9486
  443MOL0     C61040   8.689  11.768  -0.661  0.1249 -0.4592 -0.1718
  443MOL0    Cl61041   8.578  11.643  -0.729 -0.1692 -0.1057 -0.1429
  443MOL0     C61042   9.065  10.811  -0.168 -0.0085  0.2451 -0.0092
  443MOL0     C61043   8.985  10.741  -0.069  0.1044 -0.7841 -0.1702
  443MOL0     O61044   8.599  10.779  -0.043 -0.3703 -0.7961  0.1653
  443MOL0     C61045   8.448  10.666   0.169  0.6257  0.2252  0.0479
  443MOL0     C61046   8.370  10.593   0.259 -0.3834 -0.8168 -0.2349
  443MOL0     N61047   7.912  10.651   0.888  0.0641 -0.6928  0.3742
  443MOL0     N61048   7.846  10.752   0.846  1.0775 -0.2889 -0.6039
  443MOL0     C61049   6.838  11.079   0.022  0.2805 -0.1047  0.4979
  443MOL0     C61050   6.707  11.067  -0.004  0.4254 -0.3797  1.0394
  443MOL0     C61051   6.275  10.963  -0.009 -0.2866 -0.8917  0.4240
  443MOL0     C61052   6.246  10.827  -0.050 -0.7289  0.9121 -0.0938
  443MOL0     C61053   6.118  10.777  -0.069  0.2201  0.1963 -1.3481
  443MOL0     C61054   6.008  10.863  -0.060  1.2195  0.3549 -0.7694
  443MOL0     O61055   5.886  10.810  -0.095  0.0444  0.2629 -0.0051
  443MOL0     C61056   5.823  10.889  -0.193  0.5550  0.8074  0.1543
  443MOL0     C61057   5.678  10.841  -0.229 -0.0260  0.4604 -0.6859
  443MOL0     C61058   5.592  10.925  -0.315  0.2973 -0.4000 -0.8114
  443MOL0     C61059   5.452  10.864  -0.345  0.4437 -0.0749  0.1850
  443MOL0     C61060   5.371  10.967  -0.416  0.6068  0.9179 -0.1670
  443MOL0     C61061   5.302  11.045  -0.468  0.1777 -0.2138 -0.2482
  443MOL0     C61062   6.031  10.996  -0.023 -0.0570 -0.3021  1.1445
  443MOL0     C61063   6.165  11.050  -0.007  0.4796  0.3528  0.4600
  443MOL0     C61064   6.166  11.199   0.001  0.3657 -0.6598 -0.5691
  443MOL0     H61065   6.679  10.736   0.005  1.4883  0.6747 -2.0131
  443MOL0     H61066   6.913  10.740   0.012 -2.9450 -2.5405  0.6878
  443MOL0     H61067   7.157  10.867  -0.105 -1.7327  1.1133 -0.9679
  443MOL0     H61068   7.132  10.799   0.058  1.5178  0.0125  0.4382
  443MOL0     H61069   7.357  10.953  -0.027 -0.5507  1.0179  0.4266
  443MOL0     H61070   7.281  11.046   0.093  0.9202  1.6498 -3.6593
  443MOL0     H61071   7.247  10.864   0.253 -0.1539 -1.2601 -0.9484
  443MOL0     H61072   7.337  10.757   0.151  2.8004  0.2157 -1.2387
  443MOL0     H61073   7.528  10.915   0.170  0.5475  4.5736  1.2701
  443MOL0     H61074   7.440  11.010   0.283  1.0022  0.7933 -2.1768
  443MOL0     H61075   7.523  10.718   0.339  0.3471  0.1735  1.3525
  443MOL0     H61076   7.411  10.828   0.438  0.6243  0.6728  0.5350
  443MOL0     H61077   7.703  10.861   0.345 -1.6107 -0.6128 -0.9183
  443MOL0     H61078   7.614  10.969   0.468 -0.9062 -0.2380  0.8615
  443MOL0     H61079   7.709  10.683   0.487 -2.2348 -0.1804 -4.3111
  443MOL0     H61080   7.569  10.741   0.592  1.5801  1.3111  2.4840
  443MOL0     H61081   7.832  10.885   0.557 -1.1165  0.6389  0.1156
  443MOL0     H61082   7.717  10.919   0.685 -0.2217 -1.2843  2.6998
  443MOL0     H61083   7.965  10.644   0.568  1.2795  0.2478  0.1588
  443MOL0     H61084   7.998  10.402   0.722  1.4298 -0.4129  0.0539
  443MOL0     H61085   8.082  10.426   0.867  0.9404  0.3721  0.1290
  443MOL0     H61086   8.185  10.554   0.616 -0.8745 -1.5344 -0.8456
  443MOL0     H61087   8.266  10.568   0.768 -0.0752 -0.5539  0.6733
  443MOL0     H61088   8.349  10.354   0.766 -0.9116  1.0882  0.7374
  443MOL0     H61089   8.225  10.295   0.655 -2.1269  2.6208 -1.5613
  443MOL0     H61090   8.463  10.497   0.623  2.0632 -2.5338  1.5769
  443MOL0     H61091   8.463  10.340   0.576  1.0798  1.5520  2.6919
  443MOL0     H61092   8.607  10.442   0.417  0.7258 -0.4223 -1.0093
  443MOL0     H61093   8.811  10.438   0.323 -0.7705 -0.6645 -0.5054
  443MOL0     H61094   8.846  10.596   0.256 -2.8803  1.1336 -0.6614
  443MOL0     H61095   8.803  10.458   0.150 -0.6519 -1.2764 -0.0645
  443MOL0     H61096   8.781  11.006   0.017  3.3056 -0.1917  4.5159
  443MOL0     H61097   8.904  11.109  -0.159 -1.6074 -1.0293  0.1102
  443MOL0     H61098   9.074  11.201  -0.246  1.7829  2.3745 -2.2193
  443MOL0     H61099   9.207  11.176  -0.349  0.9639 -0.4157  4.1279
  443MOL0     H61100   9.088  11.143  -0.532  0.3756  0.2911  0.4589
  443MOL0     H61101   8.932  11.093  -0.445 -1.6282  2.2202  1.9592
  443MOL0     H61102   8.919  11.332  -0.341  0.6989 -1.3211  0.4952
  443MOL0     H61103   8.852  11.301  -0.497 -1.8101 -0.8118  1.0747
  443MOL0     H61104   9.034  11.395  -0.614 -2.1042  1.5629 -0.1397
  443MOL0     H61105   9.121  11.421  -0.452  1.1850  1.1043 -0.7081
  443MOL0     H61106   8.918  11.564  -0.373 -0.5955 -3.2922  0.7473
  443MOL0     H61107   9.037  11.619  -0.488  1.0876 -0.9177  3.7158
  443MOL0     H61108   8.781  11.509  -0.601 -0.8615 -0.8852  1.4388
  443MOL0     H61109   8.900  11.615  -0.683  2.2883  1.3675  1.8884
  443MOL0     H61110   8.835  11.789  -0.516 -1.2770 -0.1549  0.8905
  443MOL0     H61111   8.694  11.676  -0.472  0.0535  0.3545  2.3130
  443MOL0     H61112   8.743  11.818  -0.742  1.2928  0.8680  1.3587
  443MOL0     H61113   8.616  11.842  -0.626  0.3961 -0.8268  1.2211
  443MOL0     H61114   9.163  10.779  -0.201 -0.2148  1.3433 -1.8175
  443MOL0     H61115   9.001  10.635  -0.055  2.3630 -0.4193  0.4105
  443MOL0     H61116   8.408  10.749   0.111  1.7487  0.7694  0.0305
  443MOL0     H61117   8.264  10.610   0.245  0.1230  1.6665 -1.5954
  443MOL0     H61118   6.892  11.172   0.037 -1.0170  0.2999  3.3148
  443MOL0     H61119   6.642  11.151  -0.026 -0.7892 -1.2273  1.2916
  443MOL0     H61120   6.321  10.750  -0.039 -0.2237  1.4396  0.1454
  443MOL0     H61121   6.116  10.669  -0.076 -0.7902  0.1868 -1.0104
  443MOL0     H61122   5.812  10.990  -0.151  1.8873  0.6064  1.0586
  443MOL0     H61123   5.857  10.901  -0.297 -2.1482 -1.4097 -1.1034
  443MOL0     H61124   5.628  10.819  -0.134  3.5329 -2.2245  0.8068
  443MOL0     H61125   5.681  10.746  -0.284  0.7017  0.3508 -0.4695
  443MOL0     H61126   5.588  11.020  -0.261 -0.0159 -1.2438  0.7079
  443MOL0     H61127   5.654  10.940  -0.403  1.5517 -2.0652 -0.2581
  443MOL0     H61128   5.392  10.841  -0.257 -1.8272  3.0213 -0.3984
  443MOL0     H61129   5.471  10.775  -0.407  0.7278  0.2599 -0.2148
  443MOL0     H61130   5.242  11.125  -0.507  0.5430 -1.4126 -3.6585
  443MOL0     H61131   5.941  11.058  -0.021  1.0011  1.2903  1.2753
  443MOL0     H61132   6.204  11.229   0.099  0.5009  0.0645 -0.8305
  443MOL0     H61133   6.227  11.239  -0.081 -0.6800 -1.2692 -1.6624
  443MOL0     H61134   6.072  11.254  -0.009  0.8436  0.9955  2.7771
  444MOL0     O61135   5.492   8.890   6.734  0.1439 -0.0516  0.4138
  444MOL0     C61136   5.450   9.001   6.705 -0.1177  0.0115 -0.2070
  444MOL0     O61137   5.526   9.115   6.709 -0.2755  0.6753  0.4837
  444MOL0     C61138   5.663   9.107   6.746 -0.3022 -0.5438  0.3352
  444MOL0     C61139   5.701   9.158   6.871  0.0690  0.3128 -0.5606
  444MOL0     C61140   5.831   9.142   6.916 -0.0240 -1.0480 -0.2509
  444MOL0     C61141   5.933   9.091   6.832  0.3814 -0.1277 -0.9585
  444MOL0     O61142   6.062   9.066   6.872 -0.2064  0.2252  0.0292
  444MOL0     C61143   6.073   9.035   7.010 -0.7152  0.0689 -0.4507
  444MOL0     C61144   6.194   8.955   7.023 -0.7034  0.4997 -0.4016
  444MOL0     C61145   6.328   9.015   6.983 -0.5863 -0.3133 -0.5648
  444MOL0     C61146   6.436   8.914   6.998  0.4976 -0.6296  0.0204
  444MOL0     C61147   6.567   8.982   6.948 -0.0270  0.0634 -0.0936
  444MOL0     C61148   6.683   8.890   6.980  0.4297  0.4761 -0.0964
  444MOL0     C61149   6.820   8.935   6.910  0.5803  0.5615 -0.4373
  444MOL0     C61150   6.853   9.080   6.944 -0.0243  0.1403  0.0463
  444MOL0     N61151   6.997   9.108   6.906  0.7174  0.2463  0.6651
  444MOL0     C61152   7.030   9.171   6.784 -0.2587  0.0152 -1.0776
  444MOL0     C61153   7.160   9.153   6.774 -0.4001 -0.1810 -0.3916
  444MOL0     C61154   7.243   9.207   6.657  0.3060 -0.1923 -0.2910
  444MOL0     C61155   7.393   9.219   6.681 -0.3033  0.6769  0.4492
  444MOL0     C61156   7.436   9.361   6.712  0.8149  0.0870 -0.8131
  444MOL0     C61157   7.577   9.373   6.759  0.2607  0.0570  0.7340
  444MOL0     O61158   7.627   9.491   6.693 -0.6297  0.6186  0.9341
  444MOL0     C61159   7.745   9.541   6.735  0.6969 -0.2373  0.7873
  444MOL0     C61160   7.754   9.675   6.751 -0.4026  0.0933 -1.0825
  444MOL0     C61161   7.866   9.741   6.807 -0.4263 -0.5103 -0.1394
  444MOL0     C61162   7.858   9.884   6.848  0.2410  0.4921  0.6764
  444MOL0     C61163   7.984   9.659   6.835 -0.1855  0.3648 -0.0482
  444MOL0     C61164   8.118   9.703   6.906 -0.6561  0.3086  0.1354
  444MOL0     O61165   8.170   9.828   6.878 -0.9501  0.7824 -0.0861
  444MOL0     C61166   8.290   9.866   6.936  0.2656 -0.6430 -0.2617
  444MOL0     C61167   8.293   9.937   7.060  0.1310  0.5299  0.8603
  444MOL0     C61168   8.412   9.975   7.112 -0.8041 -0.9179 -0.2083
  444MOL0     C61169   8.530   9.960   7.047 -0.4092 -0.4507 -0.7556
  444MOL0     O61170   8.637  10.033   7.101  0.3814 -0.0238 -0.0025
  444MOL0     C61171   8.765   9.958   7.095 -0.6673  0.0471  0.2663
  444MOL0     C61172   8.883  10.042   7.145  0.3743  0.1888  0.4202
  444MOL0     C61173   9.018  10.002   7.084  0.2593  0.4202 -0.3962
  444MOL0     C61174   9.055   9.865   7.125  0.5745 -0.3603 -0.0209
  444MOL0     C61175   9.201   9.833   7.093 -0.4101 -0.7903 -0.2595
  444MOL0     C61176   9.216   9.730   6.972  0.0692  0.4194 -1.0865
  444MOL0     C61177   9.365   9.670   6.967  0.2059  0.4219  1.2834
  444MOL0     C61178   9.374   9.564   6.856 -0.1205 -0.1320 -0.0890
  444MOL0    Cl61179   9.354   9.619   6.692 -0.0539  0.6315  0.2147
  444MOL0     C61180   8.525   9.902   6.914  0.3742 -0.8099  0.5558
  444MOL0     C61181   8.410   9.840   6.868 -0.0763  0.2780 -0.7080
  444MOL0     O61182   8.176   9.623   6.976  0.1125  0.1676  0.2953
  444MOL0     C61183   7.981   9.523   6.799  0.4653 -0.3640  0.5338
  444MOL0     C61184   7.856   9.468   6.753 -0.5204  0.1696 -0.2482
  444MOL0     N61185   7.207   9.082   6.886 -0.3905  0.2168  0.4595
  444MOL0     N61186   7.112   9.060   6.965  0.7295 -0.1445 -0.5271
  444MOL0     C61187   5.902   9.056   6.703  0.4138 -0.6522  0.7452
  444MOL0     C61188   5.767   9.057   6.660 -1.0359  0.6264  0.7037
  444MOL0     C61189   5.310   9.017   6.655 -0.0527  0.7674  0.2037
  444MOL0     C61190   5.256   9.145   6.672  0.3761 -0.8704 -0.4971
  444MOL0     C61191   5.117   9.161   6.647 -0.2267 -0.1858 -1.0323
  444MOL0     C61192   5.043   9.056   6.584 -0.3628  0.0755  0.1300
  444MOL0     O61193   4.913   9.060   6.538 -0.7805 -0.0663 -0.5120
  444MOL0     C61194   4.829   9.171   6.548  0.4124 -0.3199  0.4945
  444MOL0     C61195   4.716   9.163   6.443  0.2000  0.3700  0.1479
  444MOL0     C61196   4.614   9.050   6.465  0.0291  0.7131  0.1105
  444MOL0     C61197   4.528   9.054   6.334  0.2093 -0.3911  0.0120
  444MOL0     C61198   4.442   8.939   6.320  0.6439 -0.0564 -0.0532
  444MOL0     C61199   4.352   8.850   6.314 -0.3474 -0.0215 -0.2097
  444MOL0     C61200   5.110   8.938   6.547 -0.4541 -0.5725  0.4966
  444MOL0     C61201   5.244   8.922   6.581  0.0491  0.5568 -0.4739
  444MOL0     C61202   5.323   8.799   6.531  0.9366 -0.3360 -0.4889
  444MOL0     H61203   5.618   9.196   6.930  2.3948  1.8270  1.9568
  444MOL0     H61204   5.844   9.167   7.021 -1.8628 -2.4724  0.3773
  444MOL0     H61205   5.989   8.985   7.059 -0.0422 -2.4719 -1.7180
  444MOL0     H61206   6.090   9.134   7.054 -4.3596  0.2743  0.8527
  444MOL0     H61207   6.204   8.936   7.131  1.7497 -2.1113 -0.9665
  444MOL0     H61208   6.185   8.865   6.962  0.2332  1.8867 -2.7206
  444MOL0     H61209   6.320   9.053   6.881 -0.0286  2.2131  0.2511
  444MOL0     H61210   6.362   9.100   7.044  0.8555 -0.9530 -0.4354
  444MOL0     H61211   6.447   8.893   7.105 -0.5366  0.8942  0.4551
  444MOL0     H61212   6.406   8.825   6.942  0.5206  0.0318 -1.0578
  444MOL0     H61213   6.582   9.084   6.985 -2.2938  0.7409 -0.8228
  444MOL0     H61214   6.565   8.993   6.839 -0.1016 -1.1768 -0.2312
  444MOL0     H61215   6.703   8.878   7.087  3.2047  1.3012 -0.4523
  444MOL0     H61216   6.658   8.791   6.940  2.2055  0.0379 -0.2059
  444MOL0     H61217   6.813   8.927   6.801  0.2884  2.4478 -0.5903
  444MOL0     H61218   6.893   8.866   6.953  2.4510  1.8071 -1.4780
  444MOL0     H61219   6.782   9.155   6.909 -1.9355 -1.1034  1.0870
  444MOL0     H61220   6.852   9.095   7.053 -1.4507 -0.6552  0.1688
  444MOL0     H61221   6.957   9.223   6.723  0.3400  3.4330  0.8464
  444MOL0     H61222   7.200   9.305   6.632  1.0452 -0.2488 -1.9455
  444MOL0     H61223   7.229   9.141   6.571  0.3736 -1.3784  0.5972
  444MOL0     H61224   7.404   9.153   6.768 -1.8619  0.1757  0.2886
  444MOL0     H61225   7.452   9.181   6.596 -1.3777  0.8716 -0.4000
  444MOL0     H61226   7.425   9.422   6.622  0.4338  0.2733 -0.6414
  444MOL0     H61227   7.374   9.397   6.794  0.4030 -1.5759 -0.3428
  444MOL0     H61228   7.573   9.397   6.866  0.9447  0.8772  0.5808
  444MOL0     H61229   7.640   9.285   6.738 -0.8662 -0.7676  0.7066
  444MOL0     H61230   7.673   9.746   6.735  0.1574  1.6214  1.9968
  444MOL0     H61231   7.758   9.913   6.880  0.0269  0.6699 -0.1238
  444MOL0     H61232   7.895   9.950   6.768 -2.2663  2.2536  0.8650
  444MOL0     H61233   7.916   9.909   6.938 -1.4956  2.3141  1.3577
  444MOL0     H61234   8.207   9.947   7.126  0.1710 -1.6175  1.2891
  444MOL0     H61235   8.422  10.023   7.209  1.4660  1.4587 -1.4700
  444MOL0     H61236   8.751   9.870   7.160 -0.1586  0.1562  0.5300
  444MOL0     H61237   8.775   9.924   6.992  0.7297  1.8547 -0.2328
  444MOL0     H61238   8.856  10.145   7.120 -0.2743 -0.4461 -1.7484
  444MOL0     H61239   8.884  10.023   7.252  1.4076  1.2643  0.6289
  444MOL0     H61240   9.091  10.077   7.116 -0.7695  2.1960 -1.9992
  444MOL0     H61241   8.993  10.007   6.978 -3.3523  2.1603  0.3847
  444MOL0     H61242   8.988   9.791   7.081  1.0215 -1.2976  0.8344
  444MOL0     H61243   9.036   9.847   7.231 -0.8000 -0.0265 -0.1984
  444MOL0     H61244   9.247   9.927   7.064  0.1625 -0.6162  1.1243
  444MOL0     H61245   9.261   9.803   7.180 -0.0120 -2.1742 -0.9816
  444MOL0     H61246   9.170   9.769   6.881 -3.4781  1.7963  1.0934
  444MOL0     H61247   9.148   9.652   7.009  2.2401 -0.1510  2.1338
  444MOL0     H61248   9.384   9.635   7.069 -3.1756  0.1932  1.9635
  444MOL0     H61249   9.439   9.748   6.951 -0.8054  1.7377  2.7299
  444MOL0     H61250   9.297   9.492   6.885 -1.4525  1.0198 -0.6316
  444MOL0     H61251   9.473   9.519   6.861 -0.4506 -0.8070  0.5842
  444MOL0     H61252   8.616   9.903   6.854  1.6652 -0.2963  2.4288
  444MOL0     H61253   8.399   9.792   6.771 -1.4842 -0.5920 -0.1464
  444MOL0     H61254   8.070   9.462   6.815  0.2604 -0.0204  3.3753
  444MOL0     H61255   7.862   9.364   6.721 -1.0301  0.2842 -0.7409
  444MOL0     H61256   5.983   9.023   6.640  1.4785  0.7273  1.3358
  444MOL0     H61257   5.735   9.024   6.562 -2.1276  1.3835  0.7917
  444MOL0     H61258   5.308   9.229   6.718 -1.2223  0.2851 -0.6997
  444MOL0     H61259   5.066   9.253   6.674 -0.0682 -0.7968  1.6834
  444MOL0     H61260   4.780   9.172   6.646 -0.2941 -0.8493  0.1615
  444MOL0     H61261   4.882   9.266   6.537 -1.1840  0.8302  2.1180
  444MOL0     H61262   4.760   9.148   6.344  1.1612 -1.1490  0.7678
  444MOL0     H61263   4.666   9.260   6.444 -0.3856  0.0895  2.0646
  444MOL0     H61264   4.657   8.951   6.481 -2.6768 -1.3558 -3.8449
  444MOL0     H61265   4.550   9.064   6.552  1.4175  1.4845  1.0406
  444MOL0     H61266   4.602   9.046   6.254  1.6543  1.0998  1.1293
  444MOL0     H61267   4.473   9.147   6.318 -1.5239 -1.1531  1.2087
  444MOL0     H61268   4.276   8.775   6.308  0.4479 -1.0195  1.4677
  444MOL0     H61269   5.062   8.865   6.482  1.6358 -0.8207 -0.8675
  444MOL0     H61270   5.370   8.736   6.607  0.8313  0.1567 -0.0188
  444MOL0     H61271   5.260   8.743   6.461  2.1161 -1.4102 -0.7426
  444MOL0     H61272   5.412   8.822   6.471  3.2566 -1.3018  2.3378
  445MOL0     O61273   7.911   6.821   3.376  0.1701 -0.0012 -0.0328
  445MOL0     C61274   7.915   6.853   3.492 -0.1919 -0.0524 -0.3612
  445MOL0     O61275   8.026   6.894   3.551 -0.3526  0.5181  0.0426
  445MOL0     C61276   8.139   6.929   3.484 -0.7818  0.0695 -0.6157
  445MOL0     C61277   8.143   6.991   3.360  0.9401 -0.7823  0.3359
  445MOL0     C61278   8.262   7.009   3.292 -0.1541 -0.6597 -0.5771
  445MOL0     C61279   8.384   6.968   3.361 -0.4606 -0.0782  0.8268
  445MOL0     O61280   8.500   6.989   3.284  0.2921  0.1790 -0.4191
  445MOL0     C61281   8.619   6.935   3.340 -0.0967  0.7672  0.0187
  445MOL0     C61282   8.620   6.774   3.314  0.5477  0.0890  0.2219
  445MOL0     C61283   8.683   6.684   3.419 -0.4299 -0.6614  0.0782
  445MOL0     C61284   8.637   6.535   3.406  0.9460 -0.7049  0.2044
  445MOL0     C61285   8.718   6.451   3.490  0.7963 -1.0865  0.4168
  445MOL0     C61286   8.857   6.423   3.433  0.1862 -0.3826  0.5148
  445MOL0     C61287   8.919   6.304   3.510 -0.1786  0.5697  0.6231
  445MOL0     C61288   9.042   6.251   3.444 -0.1102  0.3350  1.0648
  445MOL0     N61289   9.145   6.353   3.426  0.1700 -0.3239  0.4002
  445MOL0     C61290   9.158   6.424   3.311 -0.7206 -0.6020  1.3359
  445MOL0     C61291   9.283   6.468   3.309 -0.3731  0.5867  0.0138
  445MOL0     C61292   9.331   6.568   3.205  0.4750 -0.5489 -0.6637
  445MOL0     C61293   9.440   6.525   3.106 -0.9748 -0.4711 -0.0201
  445MOL0     C61294   9.570   6.483   3.182 -0.2312  0.0398  0.7334
  445MOL0     C61295   9.685   6.471   3.085  0.0737 -0.5443 -0.2175
  445MOL0     O61296   9.784   6.389   3.160  0.3570 -0.3404 -0.1825
  445MOL0     C61297   9.909   6.374   3.109  0.4941  0.8537  1.0182
  445MOL0     C61298   9.952   6.461   3.004 -0.6007  1.4505  0.0377
  445MOL0     C61299  10.089   6.449   2.973  0.0688  0.3788 -1.0879
  445MOL0     C61300  10.134   6.547   2.866  0.1676 -0.0716 -0.0978
  445MOL0     C61301  10.182   6.365   3.051 -0.1436 -0.1096 -0.6306
  445MOL0     C61302  10.330   6.376   3.030  0.3754  0.9580 -0.5564
  445MOL0     O61303  10.410   6.304   3.116  0.9000  0.1824 -0.0096
  445MOL0     C61304  10.546   6.331   3.125  0.8279  0.1492 -0.0254
  445MOL0     C61305  10.606   6.455   3.101 -0.1442  0.4787 -0.1282
  445MOL0     C61306  10.746   6.467   3.114  0.4544 -0.6889  0.7442
  445MOL0     C61307  10.828   6.350   3.134 -0.0777  0.5093 -0.0722
  445MOL0     O61308  10.969   6.359   3.126 -0.4864  0.2775  0.0989
  445MOL0     C61309  11.035   6.281   3.018 -0.3044  0.5767 -0.1067
  445MOL0     C61310  11.162   6.357   2.980 -0.6382  0.4025  0.0204
  445MOL0     C61311  11.249   6.290   2.866 -0.0769 -0.4386 -0.2794
  445MOL0     C61312  11.331   6.171   2.904  0.4002  0.0235  0.4699
  445MOL0     C61313  11.416   6.138   2.781 -0.1992  0.6451  0.3133
  445MOL0     C61314  11.551   6.212   2.772 -0.4019  0.7771  0.2106
  445MOL0     C61315  11.657   6.143   2.855  0.1292 -0.8850  0.2322
  445MOL0     C61316  11.785   6.233   2.855 -1.2004  0.3594 -0.0672
  445MOL0    Cl61317  11.831   6.286   2.693  0.2091  0.2755  0.3130
  445MOL0     C61318  10.769   6.229   3.152  0.0870  0.1276  0.3180
  445MOL0     C61319  10.628   6.222   3.163 -0.3700  0.1700 -0.1493
  445MOL0     O61320  10.362   6.416   2.923 -0.3703 -0.3912 -0.4128
  445MOL0     C61321  10.130   6.272   3.144  0.3923 -0.5790 -0.4243
  445MOL0     C61322   9.995   6.286   3.182 -0.1388 -0.1024  1.6048
  445MOL0     N61323   9.346   6.423   3.414 -0.8051  0.6579  0.2743
  445MOL0     N61324   9.268   6.353   3.485 -1.1248 -0.2528 -0.0947
  445MOL0     C61325   8.371   6.921   3.486  0.4416 -0.7125 -0.1132
  445MOL0     C61326   8.256   6.896   3.547  0.2435  0.2824 -0.6762
  445MOL0     C61327   7.795   6.857   3.582  0.7911  0.3231 -0.2315
  445MOL0     C61328   7.777   6.968   3.669  0.0223 -0.6700  0.5257
  445MOL0     C61329   7.661   6.981   3.747 -0.0544  0.9666 -0.3354
  445MOL0     C61330   7.568   6.870   3.743  0.2002  0.4703 -0.1861
  445MOL0     O61331   7.464   6.876   3.836  0.4325  0.4987  0.5917
  445MOL0     C61332   7.392   6.994   3.883  0.0658 -0.5041 -0.5360
  445MOL0     C61333   7.247   6.992   3.856  0.4429 -0.3624  0.2414
  445MOL0     C61334   7.175   6.884   3.936  0.1767  0.1739  0.5494
  445MOL0     C61335   7.041   6.846   3.878 -0.0324 -0.3632 -0.0180
  445MOL0     C61336   6.940   6.956   3.871 -0.6593 -0.0498 -0.2118
  445MOL0     C61337   6.851   7.042   3.884  0.3241  0.3124  1.1503
  445MOL0     C61338   7.581   6.767   3.660 -0.3389  0.4930  0.5178
  445MOL0     C61339   7.696   6.758   3.572  0.8221 -0.6133  0.1644
  445MOL0     C61340   7.695   6.643   3.468 -0.1061 -0.6975  0.6059
  445MOL0     H61341   8.052   7.025   3.313  1.5595  4.2518  2.1452
  445MOL0     H61342   8.255   7.053   3.193 -0.7626  1.2499  0.2777
  445MOL0     H61343   8.625   6.963   3.446  1.0856 -0.8862  0.4375
  445MOL0     H61344   8.710   6.969   3.290  2.8103 -3.5725  1.7720
  445MOL0     H61345   8.518   6.735   3.315  0.2612  0.7731  2.4762
  445MOL0     H61346   8.650   6.739   3.215 -3.2728 -2.7337 -0.1715
  445MOL0     H61347   8.789   6.697   3.393 -0.6172  1.8851  0.3090
  445MOL0     H61348   8.671   6.719   3.522 -3.3030 -0.2452 -0.3334
  445MOL0     H61349   8.531   6.527   3.434 -0.0196  1.9107 -2.2550
  445MOL0     H61350   8.649   6.509   3.301 -0.8781  3.0569 -1.1098
  445MOL0     H61351   8.659   6.359   3.491 -1.3532  0.2015 -0.9127
  445MOL0     H61352   8.724   6.495   3.590  5.8279  2.7969 -1.1750
  445MOL0     H61353   8.840   6.379   3.334 -0.3521 -1.3848  1.0362
  445MOL0     H61354   8.922   6.511   3.443  2.0859 -1.8243  1.2320
  445MOL0     H61355   8.842   6.226   3.508  1.4958 -1.1410  0.1763
  445MOL0     H61356   8.940   6.329   3.614  1.3073  1.7881  0.0528
  445MOL0     H61357   9.076   6.165   3.503 -0.8922 -0.6347  0.1369
  445MOL0     H61358   9.008   6.211   3.348  2.9241 -1.5375  0.6322
  445MOL0     H61359   9.093   6.430   3.225  0.9834 -2.9611 -0.2423
  445MOL0     H61360   9.362   6.659   3.257  2.9516 -0.9727 -1.2656
  445MOL0     H61361   9.236   6.600   3.162  0.0836 -1.5171 -0.5472
  445MOL0     H61362   9.397   6.443   3.047 -2.4879  1.6990 -2.1047
  445MOL0     H61363   9.446   6.609   3.036  0.3834 -0.8936 -0.4245
  445MOL0     H61364   9.592   6.562   3.255 -1.3709  1.1740 -0.1051
  445MOL0     H61365   9.557   6.390   3.237 -0.0653  0.4630  1.5067
  445MOL0     H61366   9.640   6.421   2.998 -1.7066 -2.2942  1.5817
  445MOL0     H61367   9.717   6.571   3.055  1.8236 -1.3430 -1.1565
  445MOL0     H61368   9.878   6.521   2.953  0.9517  0.0761 -4.2242
  445MOL0     H61369  10.206   6.620   2.904  1.6755 -0.8114 -1.4201
  445MOL0     H61370  10.057   6.615   2.829  1.0213  2.4213  2.3708
  445MOL0     H61371  10.176   6.490   2.783 -2.0661 -1.9621 -0.0287
  445MOL0     H61372  10.549   6.544   3.073  1.4272  1.1054 -1.5081
  445MOL0     H61373  10.788   6.565   3.095 -0.7003 -0.1149  1.0806
  445MOL0     H61374  11.064   6.189   3.071  1.6212  0.9365 -0.4413
  445MOL0     H61375  10.958   6.266   2.941 -0.5219 -0.0006  0.2161
  445MOL0     H61376  11.136   6.457   2.943 -1.1451 -0.9841 -3.7261
  445MOL0     H61377  11.230   6.376   3.064 -1.5899  5.5634 -0.0118
  445MOL0     H61378  11.316   6.363   2.819  0.5624  0.5926  2.1062
  445MOL0     H61379  11.175   6.264   2.790  0.3548  1.4248 -1.3931
  445MOL0     H61380  11.271   6.087   2.940 -0.0516  0.0534 -0.2135
  445MOL0     H61381  11.392   6.205   2.989 -0.3103  0.7647  0.7028
  445MOL0     H61382  11.434   6.031   2.768  2.0965  1.0283 -0.1353
  445MOL0     H61383  11.349   6.156   2.696 -0.0817 -2.1273 -0.4675
  445MOL0     H61384  11.537   6.319   2.790 -1.0778  0.7815 -0.2805
  445MOL0     H61385  11.571   6.208   2.664 -0.7137  1.7106  0.1123
  445MOL0     H61386  11.674   6.038   2.832 -0.3942 -1.0400  0.5512
  445MOL0     H61387  11.632   6.145   2.961  1.0553 -2.4577  0.4980
  445MOL0     H61388  11.864   6.182   2.911 -2.3557  0.6919  1.9943
  445MOL0     H61389  11.759   6.327   2.905 -1.4925  0.7829 -0.9990
  445MOL0     H61390  10.820   6.133   3.150  0.2084  0.1694  1.3244
  445MOL0     H61391  10.581   6.130   3.195 -0.4286 -0.1035 -1.0015
  445MOL0     H61392  10.192   6.215   3.212  0.6323 -0.3637 -0.4581
  445MOL0     H61393   9.947   6.227   3.259  0.0234 -1.4800  0.6935
  445MOL0     H61394   8.452   6.889   3.551 -1.0409  0.4007  2.4747
  445MOL0     H61395   8.249   6.865   3.651 -0.8671 -1.1506 -1.1476
  445MOL0     H61396   7.856   7.041   3.688 -0.3305 -0.4803  1.3150
  445MOL0     H61397   7.628   7.067   3.805  0.7348  1.0996 -0.0660
  445MOL0     H61398   7.405   7.000   3.991  0.4505  1.4514 -0.6501
  445MOL0     H61399   7.433   7.081   3.831 -1.1104  1.5355  1.7665
  445MOL0     H61400   7.230   6.984   3.749 -1.5509  0.9189  0.4046
  445MOL0     H61401   7.198   7.081   3.896  0.0120  0.1428 -1.3592
  445MOL0     H61402   7.232   6.793   3.955 -1.8434 -0.9150  1.6829
  445MOL0     H61403   7.145   6.930   4.031 -2.5019 -0.3804  0.0561
  445MOL0     H61404   6.996   6.771   3.945  0.0011  0.9118  1.4949
  445MOL0     H61405   7.046   6.819   3.773 -0.9983  0.4000 -0.2791
  445MOL0     H61406   6.761   7.096   3.906  0.3539  0.7418  0.2752
  445MOL0     H61407   7.516   6.680   3.667  0.4522 -0.1799 -0.3091
  445MOL0     H61408   7.771   6.568   3.492 -2.1978 -3.9519 -2.0835
  445MOL0     H61409   7.604   6.585   3.484  2.0903 -4.3948  0.9058
  445MOL0     H61410   7.697   6.670   3.362 -0.5686 -0.5753  0.6255
  446MOL0     O61411  10.974   8.485   8.536 -0.3992  0.5087 -0.2279
  446MOL0     C61412  10.924   8.475   8.422  0.1262 -0.4923 -1.2564
  446MOL0     O61413  10.831   8.562   8.369 -0.2714 -0.2535  0.5753
  446MOL0     C61414  10.791   8.673   8.449 -0.4563  0.2997 -1.2226
  446MOL0     C61415  10.702   8.650   8.556 -0.2545  0.3956 -0.1802
  446MOL0     C61416  10.666   8.739   8.659  0.2097 -0.2038 -0.0066
  446MOL0     C61417  10.718   8.872   8.655 -0.7452  0.5494 -0.5809
  446MOL0     O61418  10.690   8.955   8.758  0.6566  0.3628  0.8013
  446MOL0     C61419  10.702   9.096   8.744 -0.0096 -0.2260  0.4960
  446MOL0     C61420  10.790   9.151   8.861  0.0036  0.7559  0.5854
  446MOL0     C61421  10.937   9.089   8.863  0.1591  0.3749 -0.3054
  446MOL0     C61422  11.036   9.167   8.938 -0.1237 -0.0359  0.4413
  446MOL0     C61423  11.180   9.111   8.902  0.7997 -1.3051  0.1238
  446MOL0     C61424  11.298   9.188   8.971  0.3391 -0.2436  0.8042
  446MOL0     C61425  11.440   9.121   8.951  0.6387 -1.2070 -0.0751
  446MOL0     C61426  11.484   9.121   8.801  0.1138  1.1013 -0.1117
  446MOL0     N61427  11.616   9.056   8.798 -1.1649  0.1340  0.0730
  446MOL0     C61428  11.644   8.935   8.732  0.4222  0.0310 -0.0849
  446MOL0     C61429  11.777   8.919   8.736  0.2294 -0.3366 -0.1432
  446MOL0     C61430  11.868   8.816   8.673  0.4755 -0.1374 -0.8123
  446MOL0     C61431  11.979   8.774   8.773  0.9000 -0.4449 -0.0972
  446MOL0     C61432  12.068   8.659   8.739 -1.1853  0.0553 -0.4323
  446MOL0     C61433  12.185   8.649   8.847 -0.2490  0.7749 -0.8626
  446MOL0     O61434  12.235   8.505   8.852  0.3982  0.0991  0.7370
  446MOL0     C61435  12.306   8.457   8.739  0.4035 -0.4020  0.4035
  446MOL0     C61436  12.300   8.321   8.709  0.4131 -0.7018  0.7749
  446MOL0     C61437  12.380   8.268   8.599 -0.8135  0.0983 -0.4008
  446MOL0     C61438  12.380   8.120   8.593  0.9835  0.1193  0.6481
  446MOL0     C61439  12.445   8.354   8.513 -0.3183  0.4110 -0.0982
  446MOL0     C61440  12.525   8.306   8.389  0.5084 -0.3751 -0.8225
  446MOL0     O61441  12.502   8.187   8.332  0.3642 -0.7846 -0.9557
  446MOL0     C61442  12.591   8.134   8.249 -0.0880 -0.5805  0.5672
  446MOL0     C61443  12.573   8.152   8.107  0.5302  0.5985 -0.0303
  446MOL0     C61444  12.672   8.113   8.019 -0.0054  0.8123  0.2184
  446MOL0     C61445  12.784   8.046   8.064  0.2395  0.1183 -0.0646
  446MOL0     O61446  12.870   8.005   7.963  0.1531  0.9317 -0.0996
  446MOL0     C61447  12.973   7.909   8.004 -1.0537  0.6329  0.2828
  446MOL0     C61448  13.043   7.864   7.874  0.5407 -0.0024 -0.3382
  446MOL0     C61449  13.154   7.970   7.824 -0.5325 -0.6712 -1.0011
  446MOL0     C61450  13.185   7.943   7.680 -1.0607  0.3584  0.0177
  446MOL0     C61451  13.307   8.015   7.623  1.2538 -0.2950 -0.3088
  446MOL0     C61452  13.294   8.037   7.465  0.1775  0.1700 -0.3629
  446MOL0     C61453  13.432   8.086   7.419 -0.4738 -0.2495 -0.7583
  446MOL0     C61454  13.455   8.089   7.272 -0.1260 -0.2765 -0.4283
  446MOL0    Cl61455  13.344   8.211   7.183  0.6707 -0.0465  0.0517
  446MOL0     C61456  12.801   8.022   8.200 -0.0454 -0.4404 -0.1311
  446MOL0     C61457  12.708   8.077   8.294 -0.1123 -0.3589 -1.2154
  446MOL0     O61458  12.625   8.374   8.370  0.3291 -0.3752  0.1978
  446MOL0     C61459  12.448   8.487   8.546 -0.1062 -0.3069 -0.1457
  446MOL0     C61460  12.382   8.539   8.658  0.3858 -0.1236  0.4677
  446MOL0     N61461  11.825   9.028   8.809 -0.1200  0.1451 -0.1172
  446MOL0     N61462  11.731   9.109   8.849 -0.3936 -0.5960 -0.8100
  446MOL0     C61463  10.798   8.904   8.539  1.6273  0.3177 -0.2395
  446MOL0     C61464  10.834   8.803   8.442  0.4723  0.9427  0.1360
  446MOL0     C61465  10.956   8.360   8.341 -0.2434  0.7197  0.6685
  446MOL0     C61466  11.012   8.378   8.210  0.5084 -0.4130 -0.0371
  446MOL0     C61467  11.065   8.277   8.139 -0.5584  0.2600  0.5392
  446MOL0     C61468  11.056   8.148   8.186 -0.3371 -0.2106 -0.4904
  446MOL0     O61469  11.111   8.048   8.109 -0.0160  0.1903 -0.4287
  446MOL0     C61470  11.138   7.927   8.171 -0.3170 -0.2884 -0.0602
  446MOL0     C61471  11.239   7.844   8.081  0.8689  0.0732  0.2060
  446MOL0     C61472  11.174   7.742   7.992  0.4690 -0.3732 -0.3575
  446MOL0     C61473  11.112   7.616   8.066  0.1329 -1.1794  0.7014
  446MOL0     C61474  11.197   7.544   8.169 -0.0675 -0.0340 -0.4228
  446MOL0     C61475  11.267   7.482   8.250  0.1452 -0.0464 -0.4144
  446MOL0     C61476  10.999   8.121   8.317  0.2457 -0.3226 -0.0744
  446MOL0     C61477  10.945   8.227   8.390 -0.2273 -0.5741  0.4039
  446MOL0     C61478  10.880   8.207   8.525 -0.2279  0.6910 -0.5481
  446MOL0     H61479  10.658   8.551   8.551 -0.9168  0.6387  0.5605
  446MOL0     H61480  10.598   8.700   8.734  0.1679  1.2955  0.7687
  446MOL0     H61481  10.603   9.142   8.751  0.1216 -0.0567  1.3579
  446MOL0     H61482  10.755   9.136   8.657  0.2797  1.4157  1.3877
  446MOL0     H61483  10.804   9.258   8.840 -1.5635  0.7799 -0.5046
  446MOL0     H61484  10.749   9.141   8.962 -1.9928 -0.0595 -0.2601
  446MOL0     H61485  10.940   8.987   8.903  1.5390 -0.3284 -2.0187
  446MOL0     H61486  10.969   9.081   8.758  1.8339 -1.6288  0.2958
  446MOL0     H61487  11.040   9.268   8.898  0.2712 -0.3986 -0.4704
  446MOL0     H61488  11.016   9.160   9.046  1.9806 -0.0330  0.8781
  446MOL0     H61489  11.191   9.100   8.794  1.8823 -0.2783  0.1169
  446MOL0     H61490  11.186   9.012   8.948  0.2331 -2.2841 -1.8158
  446MOL0     H61491  11.298   9.288   8.927 -0.6886 -0.7966 -0.5314
  446MOL0     H61492  11.282   9.205   9.078 -2.1807 -0.9367  0.6036
  446MOL0     H61493  11.435   9.016   8.981 -1.5297 -1.0434  0.3200
  446MOL0     H61494  11.509   9.181   9.011 -0.2062 -1.9620  1.7417
  446MOL0     H61495  11.414   9.064   8.739 -0.4135  2.0563 -0.4134
  446MOL0     H61496  11.488   9.221   8.757  2.0421  1.6289  1.1413
  446MOL0     H61497  11.577   8.881   8.667  1.9279 -1.4128 -0.4921
  446MOL0     H61498  11.907   8.863   8.581  2.3663 -2.0262 -1.0425
  446MOL0     H61499  11.812   8.730   8.636  2.3470 -1.5656 -0.4441
  446MOL0     H61500  12.037   8.863   8.799  1.0791 -1.2105  2.3924
  446MOL0     H61501  11.932   8.753   8.869  1.6254  0.1273  0.3931
  446MOL0     H61502  12.012   8.565   8.742 -2.3385  0.6927 -1.1688
  446MOL0     H61503  12.105   8.665   8.636  0.7009  1.9621  0.2687
  446MOL0     H61504  12.254   8.729   8.817 -0.0994  1.3584  0.8672
  446MOL0     H61505  12.155   8.664   8.952 -1.4172  0.5832 -1.1589
  446MOL0     H61506  12.253   8.252   8.778 -0.3186 -2.4301 -1.3124
  446MOL0     H61507  12.481   8.079   8.600  0.3755 -1.5365  0.2850
  446MOL0     H61508  12.336   8.082   8.500  1.9244 -0.4763  0.4328
  446MOL0     H61509  12.320   8.060   8.663 -0.2102 -1.5198 -1.6268
  446MOL0     H61510  12.492   8.210   8.063 -0.5645 -2.0754 -1.8797
  446MOL0     H61511  12.657   8.125   7.912  1.3856 -0.1853 -0.1069
  446MOL0     H61512  13.046   7.954   8.073  0.3937  1.4006 -1.6462
  446MOL0     H61513  12.925   7.818   8.040  2.8491 -0.8415  2.3472
  446MOL0     H61514  13.084   7.766   7.901 -0.7473 -0.0949  1.5394
  446MOL0     H61515  12.978   7.854   7.787  1.1852  0.8842 -0.9377
  446MOL0     H61516  13.243   7.967   7.887 -0.8153  0.7555 -0.4774
  446MOL0     H61517  13.111   8.070   7.839  1.7195  0.1331  0.8280
  446MOL0     H61518  13.092   7.962   7.626 -1.5389 -1.4419  0.1318
  446MOL0     H61519  13.205   7.837   7.660  0.3599  0.0956  2.3555
  446MOL0     H61520  13.318   8.110   7.677 -1.0834  0.3809 -0.8749
  446MOL0     H61521  13.402   7.966   7.644  1.6345 -0.7216 -2.7799
  446MOL0     H61522  13.208   8.102   7.449 -1.1737 -1.5798 -0.4761
  446MOL0     H61523  13.265   7.941   7.422  0.6007 -0.2959  0.3587
  446MOL0     H61524  13.520   8.032   7.455  0.7705  2.5860  0.8621
  446MOL0     H61525  13.441   8.190   7.451  2.4867  0.0371 -2.1683
  446MOL0     H61526  13.425   7.987   7.243  1.3803 -0.9142  0.1618
  446MOL0     H61527  13.555   8.112   7.235 -0.1019 -1.7913 -1.4280
  446MOL0     H61528  12.879   7.961   8.246 -0.2646  0.7908  2.0032
  446MOL0     H61529  12.727   8.051   8.397 -3.3835  1.0528 -0.1175
  446MOL0     H61530  12.489   8.565   8.483 -2.7715  0.6086 -0.8701
  446MOL0     H61531  12.371   8.646   8.664 -2.3170 -0.3002  0.2184
  446MOL0     H61532  10.847   9.001   8.533 -2.3307  2.4066 -2.0049
  446MOL0     H61533  10.911   8.835   8.373  1.7397  1.2117  1.6190
  446MOL0     H61534  11.002   8.475   8.161 -2.6786 -1.6543 -2.1577
  446MOL0     H61535  11.115   8.289   8.044  2.5652 -1.7728  1.7643
  446MOL0     H61536  11.197   7.948   8.260 -0.9764  0.2392  0.2534
  446MOL0     H61537  11.046   7.873   8.193 -0.5139  0.3317  0.6548
  446MOL0     H61538  11.307   7.795   8.151  0.9167  1.9799  1.5525
  446MOL0     H61539  11.296   7.916   8.022  2.4750 -0.1783  1.3895
  446MOL0     H61540  11.090   7.794   7.944 -1.0898 -2.2911  0.1418
  446MOL0     H61541  11.235   7.700   7.911  0.1981 -1.0648 -0.2070
  446MOL0     H61542  11.087   7.550   7.982  2.4456 -2.1390  0.7058
  446MOL0     H61543  11.022   7.646   8.121 -0.1721 -0.6142 -0.0931
  446MOL0     H61544  11.324   7.425   8.321 -2.5903 -1.2374  0.9814
  446MOL0     H61545  10.998   8.021   8.359  1.9104 -1.6459 -2.8745
  446MOL0     H61546  10.799   8.278   8.544  0.9063  1.3289  2.5036
  446MOL0     H61547  10.830   8.112   8.548 -0.0299  0.8424  0.5521
  446MOL0     H61548  10.956   8.227   8.601 -0.2718 -0.0375 -0.2976
  447MOL0     O61549   3.350   2.642   6.506  0.2069 -0.1574  0.3070
  447MOL0     C61550   3.310   2.537   6.559  0.1209 -0.2695 -0.7004
  447MOL0     O61551   3.395   2.464   6.642 -0.1179 -1.1139 -0.3174
  447MOL0     C61552   3.520   2.526   6.676  0.5674 -0.6435  0.8020
  447MOL0     C61553   3.641   2.459   6.649  0.2996 -0.3690 -0.0311
  447MOL0     C61554   3.765   2.504   6.700 -0.5444 -0.4055  0.0060
  447MOL0     C61555   3.766   2.620   6.779  0.1049  0.3717  0.7400
  447MOL0     O61556   3.890   2.660   6.834  0.4648  0.5510  0.5888
  447MOL0     C61557   3.892   2.757   6.938 -0.3412 -0.5101  1.1277
  447MOL0     C61558   4.039   2.792   6.992  0.4358 -0.7460  0.2753
  447MOL0     C61559   4.125   2.862   6.885  0.5088  0.8240 -0.1157
  447MOL0     C61560   4.178   2.998   6.929 -0.9960  0.0502 -0.7679
  447MOL0     C61561   4.273   3.069   6.821  0.7938  1.1116 -0.2325
  447MOL0     C61562   4.336   3.184   6.897  0.4636 -0.0458  0.4304
  447MOL0     C61563   4.445   3.250   6.818 -0.2007 -0.1145  0.1179
  447MOL0     C61564   4.492   3.373   6.897 -0.7356 -0.5343  0.4499
  447MOL0     N61565   4.591   3.334   7.000 -0.1407 -0.3820  0.0048
  447MOL0     C61566   4.717   3.300   6.973 -0.2967  0.3479 -1.3182
  447MOL0     C61567   4.772   3.287   7.098 -0.2879 -0.0619  0.0022
  447MOL0     C61568   4.913   3.252   7.120 -0.4456 -0.2158  0.9369
  447MOL0     C61569   4.922   3.099   7.153 -0.4319 -0.6786  0.6226
  447MOL0     C61570   4.865   3.063   7.293  0.3716 -0.3076  0.0230
  447MOL0     C61571   4.881   2.914   7.338 -0.5459  0.0995  0.7803
  447MOL0     O61572   5.020   2.876   7.365 -0.0681 -0.1103  0.2356
  447MOL0     C61573   5.039   2.763   7.438  0.8901  0.2558  0.9930
  447MOL0     C61574   4.950   2.655   7.434 -0.2628 -0.0150 -0.0439
  447MOL0     C61575   4.977   2.543   7.519  0.2235  0.0917  0.4153
  447MOL0     C61576   4.874   2.435   7.524 -0.0829  0.0375  0.2056
  447MOL0     C61577   5.094   2.538   7.599  0.1879  0.2320  0.5563
  447MOL0     C61578   5.135   2.414   7.679 -0.3420  0.1922  0.2353
  447MOL0     O61579   5.053   2.396   7.798  1.2158  0.1005  0.1510
  447MOL0     C61580   5.075   2.294   7.885 -0.1808 -0.6593 -0.0873
  447MOL0     C61581   5.065   2.323   8.019  0.7942  0.7171  0.1090
  447MOL0     C61582   5.071   2.214   8.114  0.0157  0.8558  0.3173
  447MOL0     C61583   5.117   2.092   8.071 -0.1694 -0.8497 -0.4890
  447MOL0     O61584   5.131   1.987   8.159  0.1068 -0.2068 -0.2783
  447MOL0     C61585   5.266   1.954   8.192  0.4643  0.5826  1.0773
  447MOL0     C61586   5.308   2.016   8.327  0.6453  1.4491 -0.9504
  447MOL0     C61587   5.409   2.133   8.332 -0.1689 -0.3767 -1.0012
  447MOL0     C61588   5.480   2.132   8.475 -0.0299  0.1219  0.0934
  447MOL0     C61589   5.573   2.249   8.492 -0.0256 -0.1491  0.1357
  447MOL0     C61590   5.616   2.285   8.634  0.3779 -0.4488  0.3032
  447MOL0     C61591   5.719   2.193   8.699 -0.1631  0.4574  0.2793
  447MOL0     C61592   5.813   2.127   8.599  0.5094 -0.2320 -0.7861
  447MOL0    Cl61593   5.930   2.239   8.521 -0.3851 -0.0854  0.8839
  447MOL0     C61594   5.130   2.063   7.935  0.3355 -0.2083  0.3455
  447MOL0     C61595   5.103   2.166   7.844 -0.6645  0.3759  0.5305
  447MOL0     O61596   5.237   2.344   7.652  0.6215 -1.1307 -0.3254
  447MOL0     C61597   5.182   2.646   7.593  0.3705 -0.6079 -0.6195
  447MOL0     C61598   5.158   2.753   7.513  0.3474 -0.1565 -0.4656
  447MOL0     N61599   4.671   3.304   7.196  0.2265  0.6250  0.4881
  447MOL0     N61600   4.561   3.337   7.135 -0.2424 -0.1803  0.4669
  447MOL0     C61601   3.647   2.696   6.792  0.9692  0.1111  0.0408
  447MOL0     C61602   3.526   2.648   6.743  0.4359  0.0342 -1.2200
  447MOL0     C61603   3.175   2.474   6.530 -0.3899  0.5749 -0.3618
  447MOL0     C61604   3.159   2.333   6.529  0.7359 -0.4671  0.1390
  447MOL0     C61605   3.031   2.280   6.505  0.2536 -0.7417 -0.5779
  447MOL0     C61606   2.919   2.351   6.478 -0.2478  0.5301 -1.2565
  447MOL0     O61607   2.807   2.288   6.449  0.1051 -0.6814  0.1994
  447MOL0     C61608   2.697   2.325   6.538  0.4251 -1.3463 -0.5390
  447MOL0     C61609   2.576   2.241   6.517  0.2961 -0.1284 -0.5401
  447MOL0     C61610   2.586   2.098   6.560 -0.2030  0.5286 -0.0542
  447MOL0     C61611   2.451   2.035   6.606 -0.3304 -0.0365  0.5555
  447MOL0     C61612   2.350   2.040   6.504  0.5978 -0.0321  0.8904
  447MOL0     C61613   2.267   2.035   6.415 -0.4799 -0.9078  0.1775
  447MOL0     C61614   2.931   2.490   6.483  0.4048 -0.0416 -0.4116
  447MOL0     C61615   3.052   2.551   6.503 -0.3276 -0.3148  0.1502
  447MOL0     C61616   3.056   2.706   6.489  0.2227  0.7567  0.6365
  447MOL0     H61617   3.636   2.368   6.592 -3.3811  0.1258 -0.7564
  447MOL0     H61618   3.856   2.448   6.683  0.4027  1.1642 -0.2708
  447MOL0     H61619   3.821   2.729   7.016 -0.5311  1.1480  1.5874
  447MOL0     H61620   3.848   2.847   6.893 -0.6699 -0.5819  1.3035
  447MOL0     H61621   4.026   2.852   7.082  0.3613 -0.9316  0.3868
  447MOL0     H61622   4.076   2.690   7.007 -2.1120 -2.1657 -2.1462
  447MOL0     H61623   4.209   2.794   6.873  0.0067  0.6736 -4.6318
  447MOL0     H61624   4.062   2.868   6.796 -0.9990 -0.6629  0.7906
  447MOL0     H61625   4.095   3.065   6.953 -0.2065  0.3286  1.4916
  447MOL0     H61626   4.226   2.996   7.028 -2.7415  1.9747  0.2128
  447MOL0     H61627   4.210   3.096   6.735 -0.1479  0.2518  0.1737
  447MOL0     H61628   4.353   3.004   6.785 -0.7095  0.0306 -1.8158
  447MOL0     H61629   4.260   3.257   6.926 -1.7605 -1.5463 -1.3103
  447MOL0     H61630   4.381   3.143   6.988 -1.4915  0.0817  1.5159
  447MOL0     H61631   4.403   3.302   6.731 -0.9261 -3.2845 -1.5746
  447MOL0     H61632   4.521   3.180   6.782  0.2988  0.2048  0.5412
  447MOL0     H61633   4.554   3.428   6.825  0.7026 -2.9434 -0.2594
  447MOL0     H61634   4.404   3.429   6.929 -0.4986 -1.5938  3.2308
  447MOL0     H61635   4.768   3.296   6.877 -0.0961  0.8370 -1.2372
  447MOL0     H61636   4.950   3.310   7.206 -1.2466 -1.1496  1.9426
  447MOL0     H61637   4.978   3.270   7.034  0.4976 -0.5931  1.5574
  447MOL0     H61638   4.863   3.048   7.076  0.9018  0.5548 -1.3098
  447MOL0     H61639   5.026   3.069   7.143 -1.1018 -2.4452 -1.8151
  447MOL0     H61640   4.905   3.127   7.371 -2.8660  0.0641  1.5350
  447MOL0     H61641   4.758   3.086   7.291  0.6227  1.0558  1.3146
  447MOL0     H61642   4.828   2.897   7.433 -2.2427 -1.9303 -0.4433
  447MOL0     H61643   4.846   2.844   7.262  0.6336  1.6112 -1.2327
  447MOL0     H61644   4.854   2.654   7.384 -0.1735 -5.0314 -0.6168
  447MOL0     H61645   4.797   2.464   7.597 -2.5855 -2.8294 -1.0696
  447MOL0     H61646   4.908   2.332   7.541  0.9746 -0.2549 -3.0772
  447MOL0     H61647   4.822   2.434   7.428 -0.9480  2.1641  0.5981
  447MOL0     H61648   5.024   2.418   8.051 -0.2506  1.0514 -2.0680
  447MOL0     H61649   5.062   2.232   8.220 -1.6068  1.0398  0.1801
  447MOL0     H61650   5.289   1.847   8.192  3.1982  1.0215 -1.7584
  447MOL0     H61651   5.322   2.008   8.116 -0.0970 -1.0671 -0.5751
  447MOL0     H61652   5.220   2.053   8.380  0.5058 -2.2469  1.8287
  447MOL0     H61653   5.354   1.936   8.386  2.6666  0.6485 -3.4134
  447MOL0     H61654   5.357   2.229   8.319 -2.1158 -0.8549  2.1472
  447MOL0     H61655   5.483   2.107   8.256 -0.9079 -1.3149 -1.4149
  447MOL0     H61656   5.527   2.036   8.495 -1.5515 -1.1382 -1.9423
  447MOL0     H61657   5.393   2.136   8.541 -1.4422 -1.4437 -1.5505
  447MOL0     H61658   5.658   2.232   8.425  0.0016  0.1432  0.0926
  447MOL0     H61659   5.525   2.343   8.462 -0.3304  0.1636  1.5356
  447MOL0     H61660   5.526   2.292   8.694  0.8293  3.4932  0.7337
  447MOL0     H61661   5.663   2.383   8.628 -1.3871  0.4417  0.6576
  447MOL0     H61662   5.677   2.107   8.751  1.1941 -1.2010 -1.2225
  447MOL0     H61663   5.775   2.244   8.778 -0.3194  1.8506 -0.4754
  447MOL0     H61664   5.750   2.074   8.527 -1.3175 -0.7467  1.1166
  447MOL0     H61665   5.870   2.047   8.647 -1.0936 -0.1055  1.4746
  447MOL0     H61666   5.152   1.961   7.903  3.2394 -0.3107  2.3201
  447MOL0     H61667   5.108   2.142   7.738  0.6034 -0.4921  0.7684
  447MOL0     H61668   5.260   2.659   7.667  1.9475  1.7111 -2.5358
  447MOL0     H61669   5.225   2.838   7.514  0.7709 -0.4286  1.9977
  447MOL0     H61670   3.648   2.786   6.852  0.4214  0.5944 -0.6581
  447MOL0     H61671   3.433   2.703   6.746 -0.8152 -1.9418 -1.8517
  447MOL0     H61672   3.240   2.263   6.548 -0.7615 -2.1724  0.5296
  447MOL0     H61673   3.013   2.174   6.520 -2.6615 -0.5637 -2.0607
  447MOL0     H61674   2.721   2.333   6.644 -1.2371 -1.2148 -0.1570
  447MOL0     H61675   2.662   2.425   6.510  0.9867  0.7579  5.0781
  447MOL0     H61676   2.547   2.239   6.411 -1.6378  0.8359 -0.0754
  447MOL0     H61677   2.492   2.295   6.560  1.9763  2.0105  0.2775
  447MOL0     H61678   2.613   2.043   6.469 -1.1548 -0.2087  0.0936
  447MOL0     H61679   2.674   2.085   6.624 -1.8234  1.1848  2.4138
  447MOL0     H61680   2.430   2.075   6.706  1.6245  3.7356 -0.3428
  447MOL0     H61681   2.475   1.929   6.615  0.8243  0.1990  0.4720
  447MOL0     H61682   2.205   2.019   6.330  0.0055  1.3443 -0.6781
  447MOL0     H61683   2.841   2.550   6.468  0.5251  0.1576 -0.3341
  447MOL0     H61684   2.956   2.750   6.486 -0.2916 -0.3241 -3.2259
  447MOL0     H61685   3.116   2.741   6.573  0.2060 -0.0142  0.9826
  447MOL0     H61686   3.107   2.735   6.397 -0.8864 -2.0218 -1.0027
  448MOL0     O61687   1.600   8.108   2.667 -0.2505 -0.7819  0.3556
  448MOL0     C61688   1.612   8.063   2.782 -0.0955  0.0988 -0.1335
  448MOL0     O61689   1.705   7.978   2.821  0.7025  0.2293 -0.5520
  448MOL0     C61690   1.827   7.997   2.770  1.3179  0.7040 -0.7092
  448MOL0     C61691   1.870   7.916   2.667  0.1926 -0.0615  0.7241
  448MOL0     C61692   2.002   7.916   2.625 -0.2146 -0.2110  0.0884
  448MOL0     C61693   2.097   7.997   2.695  0.3266  0.5075  0.4913
  448MOL0     O61694   2.235   7.994   2.672  0.3744  0.1636 -0.1956
  448MOL0     C61695   2.287   7.879   2.605 -0.4431 -0.5472  1.1780
  448MOL0     C61696   2.433   7.914   2.557  1.1133  0.1660 -0.0010
  448MOL0     C61697   2.530   7.910   2.684 -0.5045  0.3745 -0.0867
  448MOL0     C61698   2.559   7.775   2.753  0.0839  0.4694 -0.2597
  448MOL0     C61699   2.700   7.770   2.803 -0.2160  1.6167  0.7775
  448MOL0     C61700   2.747   7.625   2.848  0.9643 -0.4040  0.4368
  448MOL0     C61701   2.851   7.629   2.948 -0.6974 -0.3510  0.1392
  448MOL0     C61702   2.986   7.695   2.895  0.3456  0.7645  0.2141
  448MOL0     N61703   3.066   7.602   2.809  0.8189  0.1998 -0.3039
  448MOL0     C61704   3.113   7.488   2.870 -0.1259 -0.4959 -0.4265
  448MOL0     C61705   3.185   7.442   2.769  0.0265  0.5599 -1.2795
  448MOL0     C61706   3.244   7.296   2.779  0.4072  0.2415  0.0563
  448MOL0     C61707   3.394   7.295   2.747  0.4815  0.7013  0.5206
  448MOL0     C61708   3.460   7.153   2.751  0.3401 -0.5352  0.2009
  448MOL0     C61709   3.615   7.165   2.767 -0.3672 -0.8108 -0.9623
  448MOL0     O61710   3.673   7.212   2.641  0.0188 -0.0555 -0.0344
  448MOL0     C61711   3.812   7.233   2.655  1.0663 -0.3496 -0.1079
  448MOL0     C61712   3.898   7.153   2.731 -0.7527  0.2961  0.2561
  448MOL0     C61713   4.043   7.164   2.711  0.8645 -0.7224 -0.1820
  448MOL0     C61714   4.126   7.057   2.767 -0.5195  0.0056 -0.4872
  448MOL0     C61715   4.095   7.274   2.635 -0.6159 -0.1998  0.3062
  448MOL0     C61716   4.241   7.273   2.603 -0.0246 -0.2853  0.4458
  448MOL0     O61717   4.294   7.403   2.594 -0.6737  0.7304  0.1187
  448MOL0     C61718   4.399   7.432   2.503 -0.5574 -0.3202 -0.1037
  448MOL0     C61719   4.466   7.355   2.403 -0.5589 -0.3348  0.1360
  448MOL0     C61720   4.564   7.420   2.323  0.7980 -0.3447  0.3002
  448MOL0     C61721   4.596   7.557   2.338 -0.5531  0.1205 -0.1232
  448MOL0     O61722   4.685   7.616   2.251 -0.1831  0.1093  0.3035
  448MOL0     C61723   4.757   7.725   2.305 -0.4532  0.3418  0.3797
  448MOL0     C61724   4.892   7.746   2.243 -1.0214  0.3850  0.2505
  448MOL0     C61725   4.909   7.768   2.092  0.1564 -0.3639 -0.2603
  448MOL0     C61726   4.797   7.853   2.037 -0.1101  0.0409  1.0942
  448MOL0     C61727   4.802   7.895   1.892  0.4647  0.9707  0.3907
  448MOL0     C61728   4.878   8.012   1.857  0.3485  0.9680 -0.4935
  448MOL0     C61729   4.813   8.091   1.740 -0.4315 -1.0065 -0.4217
  448MOL0     C61730   4.907   8.196   1.700 -0.5832  0.1102  0.5181
  448MOL0    Cl61731   4.955   8.288   1.851  0.0567 -0.3290  0.2756
  448MOL0     C61732   4.539   7.621   2.451  0.0358 -0.1967 -0.5452
  448MOL0     C61733   4.437   7.560   2.525 -0.4056  0.3622  0.9286
  448MOL0     O61734   4.288   7.172   2.554 -0.1512 -0.5340  0.6100
  448MOL0     C61735   4.004   7.365   2.586  0.1493 -0.9217 -0.9654
  448MOL0     C61736   3.870   7.345   2.591 -0.5999  0.1198 -0.4667
  448MOL0     N61737   3.172   7.517   2.652 -0.2358  0.0193 -0.2976
  448MOL0     N61738   3.099   7.615   2.676  0.2202  0.5674 -0.1157
  448MOL0     C61739   2.054   8.065   2.805  0.2423 -0.3179  0.3350
  448MOL0     C61740   1.920   8.071   2.841 -0.1617 -0.7430  0.4641
  448MOL0     C61741   1.509   8.100   2.881 -0.7143 -0.0115  0.7916
  448MOL0     C61742   1.496   8.030   3.000 -0.2662  0.3689 -0.1803
  448MOL0     C61743   1.399   8.058   3.094 -0.4877 -0.5208 -0.8587
  448MOL0     C61744   1.310   8.162   3.074 -0.5637 -0.5940  0.4007
  448MOL0     O61745   1.217   8.179   3.169  1.0460 -0.1650 -0.1124
  448MOL0     C61746   1.098   8.262   3.155 -0.1984 -0.0138 -0.0409
  448MOL0     C61747   1.006   8.234   3.034 -0.5346 -0.5231 -0.1976
  448MOL0     C61748   0.968   8.088   3.028  0.5132 -0.0844 -0.8997
  448MOL0     C61749   0.864   8.056   2.919  1.0183  0.0904  0.7333
  448MOL0     C61750   0.736   8.121   2.944 -0.5076  1.1298 -0.1667
  448MOL0     C61751   0.627   8.170   2.951  0.6146  0.3478  0.2481
  448MOL0     C61752   1.328   8.243   2.958  0.9255 -0.4267  0.8700
  448MOL0     C61753   1.423   8.219   2.861 -0.3322 -0.0926  0.2012
  448MOL0     C61754   1.414   8.308   2.739 -0.1322  0.1665 -0.2998
  448MOL0     H61755   1.804   7.846   2.618 -1.3644  0.8589  1.4005
  448MOL0     H61756   2.039   7.880   2.530  0.2085 -2.1363  0.9389
  448MOL0     H61757   2.241   7.852   2.510  0.1656  1.0697  0.3776
  448MOL0     H61758   2.272   7.792   2.668 -2.1428 -1.1568 -0.0164
  448MOL0     H61759   2.460   7.842   2.479  0.1770  1.2087 -1.3292
  448MOL0     H61760   2.433   8.003   2.492 -1.4751 -1.6033 -2.6522
  448MOL0     H61761   2.622   7.940   2.633 -0.9275 -3.3271 -3.5871
  448MOL0     H61762   2.508   7.985   2.759  3.7376  1.3097  0.4776
  448MOL0     H61763   2.474   7.748   2.816  0.2416  0.9059  0.1388
  448MOL0     H61764   2.558   7.707   2.667 -3.0451 -0.0600  0.0855
  448MOL0     H61765   2.714   7.847   2.880 -1.6383  0.8208  1.8741
  448MOL0     H61766   2.758   7.805   2.717 -1.5129  4.4873  0.9486
  448MOL0     H61767   2.660   7.579   2.896  2.2029 -1.0965  2.1199
  448MOL0     H61768   2.779   7.562   2.765  3.1511  0.5898  0.4747
  448MOL0     H61769   2.868   7.523   2.969 -1.5539 -1.0478 -2.3753
  448MOL0     H61770   2.825   7.677   3.043 -1.3279 -1.0285  0.3146
  448MOL0     H61771   2.968   7.792   2.849 -0.2706  2.2015  3.2034
  448MOL0     H61772   3.049   7.715   2.983  0.9809  1.9807 -0.4930
  448MOL0     H61773   3.092   7.443   2.966 -1.3251  0.1685 -0.3558
  448MOL0     H61774   3.202   7.234   2.699 -1.6709  2.3050 -0.5250
  448MOL0     H61775   3.226   7.242   2.873  1.9113  1.2794  0.9907
  448MOL0     H61776   3.422   7.336   2.649 -1.7915  0.1085 -0.4300
  448MOL0     H61777   3.432   7.361   2.826  3.0457 -0.7394  0.5874
  448MOL0     H61778   3.421   7.084   2.827 -1.0761 -0.2394 -0.2268
  448MOL0     H61779   3.428   7.105   2.658  3.5537  0.9450 -1.8468
  448MOL0     H61780   3.631   7.246   2.839 -0.5455 -2.0644  0.5430
  448MOL0     H61781   3.644   7.068   2.807  0.1991  0.7288  2.8344
  448MOL0     H61782   3.870   7.067   2.791 -2.5553 -0.7345 -1.9014
  448MOL0     H61783   4.158   6.984   2.692  0.0930 -0.0058 -0.2189
  448MOL0     H61784   4.075   6.996   2.843 -1.3291  1.6609  0.3447
  448MOL0     H61785   4.211   7.106   2.816 -1.5222  0.2669  1.0899
  448MOL0     H61786   4.435   7.254   2.380 -2.4456  0.7405 -2.4095
  448MOL0     H61787   4.611   7.363   2.243 -2.0915 -2.9870  0.2704
  448MOL0     H61788   4.704   7.820   2.291  0.0870  0.8311  1.5365
  448MOL0     H61789   4.767   7.721   2.414 -1.3904 -0.6687  0.4467
  448MOL0     H61790   4.950   7.826   2.291  2.8869 -2.8235  1.4865
  448MOL0     H61791   4.960   7.666   2.275 -2.7835 -1.1313  0.3395
  448MOL0     H61792   4.913   7.669   2.045 -0.1455  0.9163 -3.2173
  448MOL0     H61793   5.010   7.806   2.078  0.6284 -1.5807 -0.2373
  448MOL0     H61794   4.776   7.941   2.098  0.0665  0.7126  0.2149
  448MOL0     H61795   4.703   7.798   2.046  0.6303 -1.3143  0.7980
  448MOL0     H61796   4.824   7.800   1.844 -2.2886 -0.9165  2.5413
  448MOL0     H61797   4.700   7.921   1.861  0.9388  0.0400 -2.1533
  448MOL0     H61798   4.979   7.980   1.832  0.0291 -0.3823 -0.1775
  448MOL0     H61799   4.881   8.074   1.947  1.8818  0.0614  0.1061
  448MOL0     H61800   4.729   8.144   1.787  0.2001 -0.3459 -0.0139
  448MOL0     H61801   4.793   8.031   1.651 -0.4380 -1.8820  0.1633
  448MOL0     H61802   4.854   8.258   1.627  0.8121 -2.3756 -2.8755
  448MOL0     H61803   4.988   8.158   1.637 -1.9850  1.4842 -2.3267
  448MOL0     H61804   4.554   7.723   2.487 -1.5949 -0.2976  0.5582
  448MOL0     H61805   4.393   7.628   2.597 -0.2136  1.4825  0.0259
  448MOL0     H61806   4.034   7.454   2.530 -2.6352  1.5543  1.1506
  448MOL0     H61807   3.812   7.419   2.537 -0.8803 -0.0876 -0.4536
  448MOL0     H61808   2.129   8.122   2.859  1.2147 -1.3514  0.1351
  448MOL0     H61809   1.893   8.117   2.935  0.9457  0.0822  0.4058
  448MOL0     H61810   1.554   7.941   3.027 -0.3243  0.1488 -0.7621
  448MOL0     H61811   1.385   8.002   3.186  2.4185 -2.3523 -1.3811
  448MOL0     H61812   1.035   8.245   3.243 -0.6553  0.4493 -0.2753
  448MOL0     H61813   1.130   8.366   3.164 -0.4520  0.0051  0.6804
  448MOL0     H61814   1.062   8.269   2.947 -0.2055  1.1544  0.6386
  448MOL0     H61815   0.918   8.300   3.038 -0.5184 -0.3361 -1.9334
  448MOL0     H61816   1.058   8.028   3.011  0.9583 -0.3226  1.8347
  448MOL0     H61817   0.924   8.052   3.122  1.8337  1.7912  0.5070
  448MOL0     H61818   0.829   7.953   2.917 -1.4606  0.8657  0.5759
  448MOL0     H61819   0.897   8.086   2.819 -0.3410  0.9435  0.5208
  448MOL0     H61820   0.527   8.208   2.955  0.6082  1.2450 -3.9019
  448MOL0     H61821   1.261   8.329   2.955  0.7087 -0.6106 -1.5876
  448MOL0     H61822   1.515   8.347   2.724  0.1588 -1.1047 -1.8598
  448MOL0     H61823   1.397   8.249   2.648  1.5033  1.9538 -1.8554
  448MOL0     H61824   1.335   8.384   2.742  1.0336  1.3971  2.1641
  449MOL0     O61825   6.677   2.069   3.687  0.0236 -0.0798  0.8269
  449MOL0     C61826   6.570   2.015   3.660  0.2229  0.6241 -0.3036
  449MOL0     O61827   6.542   1.877   3.655  0.3374  0.2667 -0.4120
  449MOL0     C61828   6.641   1.792   3.692 -0.4901  0.9025  0.4006
  449MOL0     C61829   6.710   1.713   3.599  0.3731 -0.6393 -0.2175
  449MOL0     C61830   6.805   1.622   3.638  0.1765 -1.4275  0.2044
  449MOL0     C61831   6.838   1.594   3.771  0.0303 -0.4142  0.2800
  449MOL0     O61832   6.947   1.520   3.800  0.5335  0.5265 -0.5217
  449MOL0     C61833   7.055   1.589   3.850 -0.1161  0.5111 -0.0250
  449MOL0     C61834   7.120   1.693   3.752  0.2449 -0.3548 -0.4409
  449MOL0     C61835   7.167   1.630   3.622  0.7926  0.7692  0.1316
  449MOL0     C61836   7.311   1.604   3.624 -0.9926 -0.5089 -0.1792
  449MOL0     C61837   7.378   1.522   3.511  1.6402 -0.1066  1.2007
  449MOL0     C61838   7.516   1.469   3.551 -0.5916 -0.1667  0.8430
  449MOL0     C61839   7.617   1.576   3.540  0.2986 -0.4269 -0.0763
  449MOL0     C61840   7.756   1.537   3.611  0.0223 -0.3712  0.1773
  449MOL0     N61841   7.818   1.426   3.541 -0.2796  0.1586 -0.7730
  449MOL0     C61842   7.919   1.345   3.585  0.4216  0.8528  0.4215
  449MOL0     C61843   7.932   1.254   3.484  0.4254  0.8839  0.3633
  449MOL0     C61844   8.026   1.137   3.462 -0.1036 -0.1238  0.0988
  449MOL0     C61845   8.019   1.064   3.320  0.1979 -0.3410  0.7096
  449MOL0     C61846   8.145   0.978   3.289  0.2065  0.5873  0.2233
  449MOL0     C61847   8.134   0.860   3.184  0.2232  0.3961  0.5182
  449MOL0     O61848   8.260   0.793   3.193 -0.1461  0.0619  0.5347
  449MOL0     C61849   8.334   0.793   3.078  0.0433 -0.0678  1.2385
  449MOL0     C61850   8.333   0.683   2.984  0.0236  0.3431 -0.0928
  449MOL0     C61851   8.399   0.680   2.863  0.3176 -0.0967  0.0970
  449MOL0     C61852   8.381   0.547   2.795 -0.1460  0.7628  0.3716
  449MOL0     C61853   8.478   0.797   2.831  0.9185 -0.9737  0.0547
  449MOL0     C61854   8.558   0.816   2.708  0.5031 -0.0070  0.1080
  449MOL0     O61855   8.667   0.898   2.715 -0.2208  0.1921 -0.5449
  449MOL0     C61856   8.760   0.896   2.610 -0.8771 -0.4971 -0.0885
  449MOL0     C61857   8.893   0.887   2.655 -0.3148  0.0837  0.4528
  449MOL0     C61858   8.999   0.900   2.569 -0.2563  0.2457 -0.1595
  449MOL0     C61859   8.981   0.933   2.433 -0.1722 -0.4143  0.0037
  449MOL0     O61860   9.088   0.946   2.349 -0.0123  0.2154 -0.6111
  449MOL0     C61861   9.056   1.011   2.225  0.4619  0.6257 -0.1728
  449MOL0     C61862   9.179   1.045   2.141 -0.7507 -0.7135 -0.7110
  449MOL0     C61863   9.298   1.100   2.228  0.1873  0.1767  0.3168
  449MOL0     C61864   9.431   1.112   2.139  0.0338  0.3086  0.4437
  449MOL0     C61865   9.548   1.153   2.231 -1.7140  0.1656  0.0610
  449MOL0     C61866   9.664   1.205   2.146 -0.2777  0.0509 -0.4761
  449MOL0     C61867   9.769   1.247   2.246  0.5586  0.1709 -0.4547
  449MOL0     C61868   9.886   1.323   2.179  0.1051  0.9017 -0.1873
  449MOL0    Cl61869  10.001   1.364   2.307 -0.0247 -0.4397 -0.1860
  449MOL0     C61870   8.844   0.938   2.382 -1.1590  0.8216  0.4098
  449MOL0     C61871   8.736   0.929   2.473  0.1548 -0.4724 -0.4009
  449MOL0     O61872   8.525   0.743   2.613  0.3431 -0.6662  0.6822
  449MOL0     C61873   8.483   0.899   2.926 -0.1844 -0.5181 -0.2509
  449MOL0     C61874   8.413   0.896   3.043  0.3958 -0.5825 -0.1025
  449MOL0     N61875   7.849   1.285   3.374 -0.0846  0.1770  0.1656
  449MOL0     N61876   7.789   1.385   3.414 -0.6428  0.0627  0.3589
  449MOL0     C61877   6.764   1.674   3.869 -0.2481  0.4276  0.3272
  449MOL0     C61878   6.677   1.783   3.828 -0.2826 -0.2903  0.1576
  449MOL0     C61879   6.469   2.104   3.606  0.2193 -0.4257 -0.8105
  449MOL0     C61880   6.512   2.237   3.563 -0.3022 -0.1426 -0.3427
  449MOL0     C61881   6.419   2.323   3.510  0.0211  0.2272  0.1966
  449MOL0     C61882   6.280   2.289   3.504 -0.2799 -1.0121 -0.3798
  449MOL0     O61883   6.180   2.364   3.447  0.7586  0.6125 -0.5342
  449MOL0     C61884   6.212   2.495   3.387  0.0269  0.1318 -0.1458
  449MOL0     C61885   6.082   2.546   3.334  0.5354  0.5129 -1.1001
  449MOL0     C61886   6.076   2.693   3.276  0.2328 -0.1052  0.4957
  449MOL0     C61887   6.122   2.797   3.378 -0.8089 -0.6495 -0.0937
  449MOL0     C61888   6.268   2.816   3.386 -0.8118  0.0790 -0.1862
  449MOL0     C61889   6.395   2.825   3.387  0.3788 -0.1851  0.8515
  449MOL0     C61890   6.239   2.164   3.540 -0.2374 -0.1538  0.0013
  449MOL0     C61891   6.328   2.075   3.610  0.8479 -0.0819  0.9975
  449MOL0     C61892   6.267   1.960   3.684  1.0346  0.0089  0.4059
  449MOL0     H61893   6.680   1.723   3.495 -0.6185  0.9492  0.1911
  449MOL0     H61894   6.863   1.580   3.556  0.9192  0.2134 -0.1496
  449MOL0     H61895   7.130   1.517   3.885 -2.1794 -1.5161  0.4849
  449MOL0     H61896   7.021   1.645   3.938 -4.3803 -0.7566 -0.6001
  449MOL0     H61897   7.046   1.768   3.724  2.3194  1.3179 -1.7976
  449MOL0     H61898   7.206   1.744   3.797 -0.8772  2.5352 -1.3539
  449MOL0     H61899   7.118   1.533   3.620 -1.8249  2.0122 -1.7918
  449MOL0     H61900   7.134   1.680   3.530 -2.5279 -1.4050 -0.0112
  449MOL0     H61901   7.359   1.699   3.651 -0.2574 -1.1615  0.8769
  449MOL0     H61902   7.322   1.540   3.712 -0.6594 -1.9462 -1.2206
  449MOL0     H61903   7.395   1.573   3.416 -1.4150 -0.5195  0.3330
  449MOL0     H61904   7.311   1.438   3.491 -0.8825  1.7797  1.2650
  449MOL0     H61905   7.521   1.416   3.646  0.2509 -3.3695 -0.8547
  449MOL0     H61906   7.542   1.392   3.478  0.0984  1.3567 -0.5996
  449MOL0     H61907   7.583   1.673   3.575 -0.6955  0.5328 -3.2974
  449MOL0     H61908   7.638   1.591   3.433 -1.0407 -1.6325 -0.5452
  449MOL0     H61909   7.820   1.626   3.616 -2.1096  1.1755  3.5149
  449MOL0     H61910   7.734   1.504   3.713  2.7773 -0.1021  0.9431
  449MOL0     H61911   7.972   1.355   3.679  1.2564  0.8955 -0.0418
  449MOL0     H61912   7.996   1.065   3.538 -0.5797 -0.0019  0.0298
  449MOL0     H61913   8.128   1.171   3.478  0.2139 -2.1902  3.1229
  449MOL0     H61914   7.932   0.997   3.318 -2.7115  3.1150 -2.0531
  449MOL0     H61915   7.989   1.123   3.233  3.8832 -0.2389 -0.6625
  449MOL0     H61916   8.216   1.056   3.262 -1.2912  2.2536  0.8620
  449MOL0     H61917   8.178   0.927   3.379 -0.0544 -0.7311 -0.3931
  449MOL0     H61918   8.044   0.799   3.193  0.3170  0.0253 -0.8219
  449MOL0     H61919   8.119   0.898   3.082  2.1067 -0.3065 -0.0543
  449MOL0     H61920   8.274   0.598   3.019  1.0488  0.2475  1.5148
  449MOL0     H61921   8.277   0.537   2.763 -0.1035 -0.5620  0.5834
  449MOL0     H61922   8.406   0.471   2.870  1.9236 -0.7589 -1.7021
  449MOL0     H61923   8.447   0.516   2.714 -0.0559  0.0639  0.7050
  449MOL0     H61924   8.913   0.853   2.756 -4.5720 -3.8435  0.2863
  449MOL0     H61925   9.097   0.897   2.614  0.8486  4.6849 -1.7773
  449MOL0     H61926   8.995   0.954   2.155  3.6469 -1.8473 -1.1548
  449MOL0     H61927   8.994   1.099   2.246 -0.8357 -0.3870  0.4621
  449MOL0     H61928   9.218   0.956   2.091  1.4921 -0.1203 -0.1282
  449MOL0     H61929   9.162   1.109   2.054 -1.7095  0.4592  0.3013
  449MOL0     H61930   9.326   1.026   2.304  0.4913  0.8900  0.9123
  449MOL0     H61931   9.274   1.195   2.276 -1.4538  0.9582 -1.8721
  449MOL0     H61932   9.409   1.182   2.058  1.5280  1.5212  1.0417
  449MOL0     H61933   9.465   1.016   2.097  3.9575  1.2640  1.0365
  449MOL0     H61934   9.519   1.227   2.305  0.7020  2.0665 -0.7435
  449MOL0     H61935   9.580   1.064   2.287 -4.4373 -0.0898  1.3363
  449MOL0     H61936   9.624   1.296   2.100 -0.5032  0.1874 -0.0144
  449MOL0     H61937   9.706   1.138   2.070  1.1697  1.8023 -1.2830
  449MOL0     H61938   9.813   1.162   2.299 -2.6765 -2.2743 -1.3620
  449MOL0     H61939   9.716   1.311   2.317 -1.7396 -0.7402 -1.2741
  449MOL0     H61940   9.852   1.405   2.116  0.1662 -0.2876 -1.8298
  449MOL0     H61941   9.943   1.262   2.109 -0.4937  0.7366 -0.5347
  449MOL0     H61942   8.812   0.959   2.281  0.5572  1.4732 -0.0258
  449MOL0     H61943   8.636   0.921   2.432 -0.0404  2.1194 -0.6241
  449MOL0     H61944   8.544   0.983   2.896  1.0211 -0.7764  1.3395
  449MOL0     H61945   8.417   0.980   3.111  1.4677 -1.0566  0.4415
  449MOL0     H61946   6.778   1.663   3.976  0.4801 -0.0262  0.1894
  449MOL0     H61947   6.623   1.841   3.903 -0.5993 -0.9900  0.4774
  449MOL0     H61948   6.617   2.257   3.549  1.0685 -3.5594  3.0724
  449MOL0     H61949   6.453   2.408   3.453 -0.7286 -0.2421 -1.0047
  449MOL0     H61950   6.260   2.568   3.452  1.4299 -0.0697 -0.9229
  449MOL0     H61951   6.278   2.482   3.300 -0.1473  0.1334 -0.2799
  449MOL0     H61952   5.997   2.542   3.403 -0.5472  1.7372 -2.2985
  449MOL0     H61953   6.045   2.479   3.256 -1.9195 -2.2393  2.1071
  449MOL0     H61954   6.118   2.700   3.175  0.0260  3.2695  0.5318
  449MOL0     H61955   5.971   2.716   3.256  0.0067  0.6121  2.2888
  449MOL0     H61956   6.079   2.771   3.475 -1.1967  1.0220  0.2189
  449MOL0     H61957   6.085   2.895   3.348 -1.2746 -0.8509 -0.1754
  449MOL0     H61958   6.500   2.847   3.382  0.4023  0.2014  2.6487
  449MOL0     H61959   6.132   2.150   3.550 -0.2758  0.9262  1.4504
  449MOL0     H61960   6.163   1.974   3.713  1.2391  0.9831  0.7089
  449MOL0     H61961   6.278   1.870   3.622  0.2513  0.2367 -0.0750
  449MOL0     H61962   6.308   1.946   3.784 -3.0373  1.6368  2.5317
  450MOL0     O61963  11.307   5.305  10.553  0.2040  0.0362  0.9770
  450MOL0     C61964  11.264   5.265  10.661 -0.1800 -0.0795 -0.2180
  450MOL0     O61965  11.246   5.346  10.775 -0.3396  0.1614  0.5229
  450MOL0     C61966  11.268   5.482  10.774 -0.3463 -0.1127  0.2205
  450MOL0     C61967  11.380   5.545  10.722 -0.9698  0.0979  0.0694
  450MOL0     C61968  11.397   5.689  10.732  0.3282 -0.0437 -0.3934
  450MOL0     C61969  11.320   5.763  10.818  0.3917  0.5539  0.1924
  450MOL0     O61970  11.348   5.894  10.850  0.3503  0.4520  0.2787
  450MOL0     C61971  11.383   5.970  10.737  0.3359  0.0668  0.1695
  450MOL0     C61972  11.363   6.117  10.773 -0.3162  0.3209  0.2018
  450MOL0     C61973  11.433   6.170  10.900  0.3703  0.1376 -0.2908
  450MOL0     C61974  11.585   6.185  10.867  0.7371  0.0035  0.6655
  450MOL0     C61975  11.652   6.213  11.002 -0.3470  0.1218 -1.0283
  450MOL0     C61976  11.780   6.293  10.991  0.0138  0.2063  0.3411
  450MOL0     C61977  11.859   6.321  11.122 -0.1087  0.1220 -0.6612
  450MOL0     C61978  11.890   6.196  11.210  0.2638 -0.1181 -0.3310
  450MOL0     N61979  12.033   6.189  11.251  0.2128  0.3727  0.0567
  450MOL0     C61980  12.119   6.120  11.173 -0.0864  0.3020 -0.2033
  450MOL0     C61981  12.229   6.109  11.244  0.5636  0.0720  0.0732
  450MOL0     C61982  12.341   6.018  11.211  0.3325 -0.0715  0.4962
  450MOL0     C61983  12.460   6.095  11.146  0.0560 -0.1965 -0.3503
  450MOL0     C61984  12.433   6.145  10.999  0.1172 -0.6368  0.3076
  450MOL0     C61985  12.570   6.195  10.940 -0.3137  0.1265 -0.2381
  450MOL0     O61986  12.576   6.163  10.802 -0.0569 -0.3710 -0.3458
  450MOL0     C61987  12.693   6.213  10.747  0.0283  0.3472 -0.0412
  450MOL0     C61988  12.814   6.145  10.744 -0.1461  0.1380 -0.4841
  450MOL0     C61989  12.929   6.195  10.682  0.2876  1.0219  0.3308
  450MOL0     C61990  13.047   6.108  10.702  0.8028 -0.1463  0.2090
  450MOL0     C61991  12.928   6.322  10.626 -0.6521 -0.0211  0.4232
  450MOL0     C61992  13.041   6.380  10.550 -0.6457  0.5811  0.3695
  450MOL0     O61993  13.031   6.514  10.506 -0.9021 -0.3076 -0.4095
  450MOL0     C61994  13.134   6.552  10.436  0.0808 -0.1040  0.3045
  450MOL0     C61995  13.267   6.529  10.462  0.2414 -0.2494 -0.5352
  450MOL0     C61996  13.375   6.581  10.381  0.3903 -0.3409 -0.3710
  450MOL0     C61997  13.342   6.668  10.274  0.1353  0.2898  0.2142
  450MOL0     O61998  13.436   6.717  10.186 -1.0004 -0.4217 -0.3468
  450MOL0     C61999  13.537   6.621  10.163 -0.6485  0.7957  0.3740
  450MOL0     C62000  13.612   6.686  10.043 -0.0843 -0.2368  0.1138
  450MOL0     C62001  13.740   6.607  10.005  0.1517  1.1499 -0.6842
  450MOL0     C62002  13.834   6.701   9.936 -0.0823 -0.1570  0.4487
  450MOL0     C62003  13.908   6.632   9.828  0.8736  0.6921  0.4066
  450MOL0     C62004  13.982   6.510   9.884  1.0163  0.3678  0.3194
  450MOL0     C62005  14.050   6.423   9.773 -0.4261 -1.3550 -0.6695
  450MOL0     C62006  14.106   6.296   9.830  0.3694 -0.1375  0.2653
  450MOL0    Cl62007  13.986   6.198   9.907 -0.2054 -0.3226  0.2583
  450MOL0     C62008  13.206   6.696  10.255  0.5125 -0.5719 -0.6223
  450MOL0     C62009  13.108   6.638  10.332 -0.0635  0.4718  0.5748
  450MOL0     O62010  13.123   6.301  10.507  0.7427 -0.5202 -0.2654
  450MOL0     C62011  12.814   6.401  10.651 -0.4322 -0.0050  0.1775
  450MOL0     C62012  12.697   6.340  10.700  0.4666 -0.9239  0.3186
  450MOL0     N62013  12.214   6.185  11.355  0.1834  0.1814 -0.3169
  450MOL0     N62014  12.096   6.232  11.366  0.7508 -0.2697  1.1350
  450MOL0     C62015  11.217   5.698  10.888  0.4603  0.3385 -0.2756
  450MOL0     C62016  11.185   5.559  10.859 -0.3526  0.0497  0.2441
  450MOL0     C62017  11.204   5.128  10.663 -0.2935 -0.4478 -0.0685
  450MOL0     C62018  11.257   5.031  10.575 -0.1582 -0.0654  0.5950
  450MOL0     C62019  11.218   4.899  10.593 -0.8790  0.3170 -0.3363
  450MOL0     C62020  11.116   4.859  10.678 -0.1577 -0.1510  1.1685
  450MOL0     O62021  11.086   4.724  10.673 -0.2512 -0.1784  0.2870
  450MOL0     C62022  11.023   4.677  10.793 -0.0073 -0.1499 -0.5185
  450MOL0     C62023  11.029   4.525  10.798 -0.2325 -0.3830  0.6047
  450MOL0     C62024  10.952   4.461  10.668 -0.9124 -0.0090 -0.5206
  450MOL0     C62025  11.002   4.319  10.632  0.2273  0.5752 -0.0118
  450MOL0     C62026  10.922   4.260  10.526 -0.2144 -0.0261 -0.2739
  450MOL0     C62027  10.880   4.192  10.436 -0.1611  0.7190 -0.8169
  450MOL0     C62028  11.064   4.963  10.753 -0.2130 -0.0382 -0.1182
  450MOL0     C62029  11.095   5.099  10.747 -0.3393 -0.3436 -0.6634
  450MOL0     C62030  10.997   5.204  10.807 -0.7729  1.0476  0.3550
  450MOL0     H62031  11.453   5.486  10.668  1.5405  1.9378  1.2308
  450MOL0     H62032  11.483   5.736  10.686  0.8952 -1.0446 -0.3928
  450MOL0     H62033  11.319   5.947  10.652 -1.0666  0.2101  1.1460
  450MOL0     H62034  11.487   5.957  10.706  0.5054  1.4281  0.1031
  450MOL0     H62035  11.387   6.183  10.689 -0.8997 -0.4253 -0.5725
  450MOL0     H62036  11.256   6.129  10.788 -0.3698 -0.1241  0.2084
  450MOL0     H62037  11.382   6.264  10.923 -2.1188 -1.0947 -0.5260
  450MOL0     H62038  11.426   6.099  10.983  2.3257 -1.7270 -1.5923
  450MOL0     H62039  11.629   6.101  10.813 -0.1599  1.0192 -1.7820
  450MOL0     H62040  11.594   6.271  10.799 -0.1275  0.1373  0.7038
  450MOL0     H62041  11.681   6.122  11.056 -2.2278  2.0347  3.7433
  450MOL0     H62042  11.595   6.283  11.064  3.1981  1.8917  0.5185
  450MOL0     H62043  11.842   6.239  10.919  0.0355  0.2822  0.3026
  450MOL0     H62044  11.762   6.385  10.935 -0.1955  0.3602  0.6541
  450MOL0     H62045  11.794   6.388  11.177  0.7615  0.0607  0.4749
  450MOL0     H62046  11.955   6.370  11.104  0.5137 -1.3960 -1.7654
  450MOL0     H62047  11.833   6.192  11.303 -3.6680 -2.3163 -2.5622
  450MOL0     H62048  11.861   6.110  11.149 -0.5801  0.6186 -1.0062
  450MOL0     H62049  12.102   6.081  11.073 -1.2928  0.3156 -0.0287
  450MOL0     H62050  12.306   5.935  11.149 -0.6206  0.9961 -0.4477
  450MOL0     H62051  12.387   5.981  11.303 -0.6550 -0.2132  0.9454
  450MOL0     H62052  12.493   6.185  11.199  0.0846  0.1137 -0.8827
  450MOL0     H62053  12.549   6.031  11.143  1.9147  2.2692 -2.1056
  450MOL0     H62054  12.392   6.058  10.946 -0.4061 -0.7245  0.8496
  450MOL0     H62055  12.366   6.230  10.990  0.5025 -0.1894  1.5510
  450MOL0     H62056  12.583   6.301  10.960 -0.6489 -0.1331  1.4985
  450MOL0     H62057  12.643   6.133  10.993 -1.3768 -1.5374 -0.6133
  450MOL0     H62058  12.818   6.045  10.785 -2.4575 -0.2444 -1.0388
  450MOL0     H62059  13.036   6.046  10.792  2.7203  1.4595  1.6325
  450MOL0     H62060  13.135   6.171  10.714  0.3333  0.1336  2.8231
  450MOL0     H62061  13.054   6.032  10.623 -1.5794 -5.8047  4.6500
  450MOL0     H62062  13.297   6.465  10.545 -2.6115 -0.4254  0.4624
  450MOL0     H62063  13.475   6.550  10.409  0.3449 -0.2724 -0.1326
  450MOL0     H62064  13.608   6.613  10.246 -0.2638 -1.1901 -0.0816
  450MOL0     H62065  13.497   6.523  10.137 -1.4283  2.1880 -4.8556
  450MOL0     H62066  13.541   6.694   9.960 -0.9166  1.4427  0.9471
  450MOL0     H62067  13.645   6.787  10.070  0.6428 -0.1647 -0.9652
  450MOL0     H62068  13.706   6.526   9.938 -2.1834  1.9061 -0.5058
  450MOL0     H62069  13.788   6.564  10.093 -0.9098 -0.3317 -0.7802
  450MOL0     H62070  13.890   6.752  10.015 -0.9229  1.0573  0.2821
  450MOL0     H62071  13.780   6.782   9.887  1.8067  1.2720  0.6433
  450MOL0     H62072  13.830   6.611   9.754 -1.4367 -0.3287  2.9816
  450MOL0     H62073  13.969   6.709   9.779  1.1541  0.9819  1.1968
  450MOL0     H62074  13.915   6.440   9.935  0.6009  0.9146  0.5359
  450MOL0     H62075  14.044   6.537   9.970 -1.3503 -0.7183  2.5028
  450MOL0     H62076  14.133   6.483   9.734 -1.8365  1.6949  0.6678
  450MOL0     H62077  13.981   6.410   9.690 -2.5544 -0.6982  0.9028
  450MOL0     H62078  14.177   6.324   9.908 -0.1806 -1.5991  1.3484
  450MOL0     H62079  14.155   6.240   9.750 -0.3749 -0.0319 -0.2771
  450MOL0     H62080  13.167   6.757  10.174  0.2051  0.9478  0.6031
  450MOL0     H62081  13.007   6.661  10.299 -0.2273 -1.2170 -0.1883
  450MOL0     H62082  12.816   6.508  10.632  1.0480 -0.3943 -2.4366
  450MOL0     H62083  12.607   6.401  10.705 -1.1993 -2.8736 -2.5984
  450MOL0     H62084  11.155   5.744  10.963 -0.6304 -3.0461  1.1021
  450MOL0     H62085  11.106   5.512  10.916 -0.2469  0.3322  0.6266
  450MOL0     H62086  11.342   5.065  10.517  0.1138 -0.3585  0.8217
  450MOL0     H62087  11.274   4.830  10.530  2.9075  1.9333  1.0110
  450MOL0     H62088  11.050   4.713  10.893 -0.9721  2.2370 -1.0413
  450MOL0     H62089  10.915   4.697  10.791 -0.2530 -1.4326 -2.0302
  450MOL0     H62090  10.978   4.490  10.888 -2.0327  0.8032  0.0986
  450MOL0     H62091  11.133   4.491  10.799 -0.2356 -0.5119 -0.9034
  450MOL0     H62092  10.843   4.467  10.671 -0.8930  0.7933 -1.1187
  450MOL0     H62093  10.967   4.534  10.588 -1.4177  0.3091 -0.3321
  450MOL0     H62094  10.987   4.254  10.719 -2.4086  1.0128 -0.0427
  450MOL0     H62095  11.108   4.321  10.608  0.3442  2.0526  0.4888
  450MOL0     H62096  10.840   4.135  10.355 -0.2247  1.7248 -1.5034
  450MOL0     H62097  10.977   4.946  10.817  1.5355 -4.3879  1.5089
  450MOL0     H62098  10.995   5.292  10.742 -0.2846 -0.0680 -1.2362
  450MOL0     H62099  10.900   5.153  10.810 -0.1854 -0.0713  0.5724
  450MOL0     H62100  11.019   5.222  10.912 -0.6144 -1.8126  0.8939
  451MOL0     O62101   6.548   0.804   0.944  0.4363 -0.9223 -0.9112
  451MOL0     C62102   6.435   0.750   0.934 -0.1627  0.7629 -0.1359
  451MOL0     O62103   6.420   0.613   0.916 -0.2066 -0.1675 -1.5847
  451MOL0     C62104   6.520   0.520   0.900 -0.0389  0.5175  0.2765
  451MOL0     C62105   6.657   0.544   0.910 -0.2722  0.3597  0.1563
  451MOL0     C62106   6.749   0.436   0.892  0.2341  0.8714  0.3417
  451MOL0     C62107   6.708   0.304   0.862 -0.4174 -0.1711  0.8162
  451MOL0     O62108   6.800   0.196   0.858 -0.0264 -0.1242 -0.7243
  451MOL0     C62109   6.761   0.058   0.860  0.6434 -0.7056  0.0460
  451MOL0     C62110   6.862  -0.015   0.937 -0.2362  0.7783  0.2914
  451MOL0     C62111   7.006   0.007   0.890 -0.2113 -1.3058  0.1275
  451MOL0     C62112   7.087  -0.096   0.965 -0.4253  0.7336 -0.6577
  451MOL0     C62113   7.241  -0.085   0.936  0.1237 -0.0272  0.4908
  451MOL0     C62114   7.320  -0.175   1.025 -0.6887  0.0241  0.3668
  451MOL0     C62115   7.465  -0.115   1.001  0.3822  0.9288 -0.7931
  451MOL0     C62116   7.566  -0.158   1.112  0.5710 -0.3143  0.1538
  451MOL0     N62117   7.549  -0.292   1.159 -0.4871  0.0939  0.3194
  451MOL0     C62118   7.625  -0.398   1.106  0.4363 -0.1723 -0.1776
  451MOL0     C62119   7.613  -0.494   1.191  0.1046  0.7549 -0.3644
  451MOL0     C62120   7.677  -0.633   1.200  0.3728 -0.1920 -0.3780
  451MOL0     C62121   7.584  -0.754   1.211  0.5960 -0.3158  0.3859
  451MOL0     C62122   7.558  -0.792   1.362  0.6943 -0.0153 -1.2693
  451MOL0     C62123   7.682  -0.847   1.431 -0.1382  0.2699  0.5690
  451MOL0     O62124   7.734  -0.944   1.340 -0.2846  0.4076  0.7573
  451MOL0     C62125   7.868  -0.966   1.324 -0.1569 -0.6821 -0.5161
  451MOL0     C62126   7.943  -1.012   1.427 -0.5696 -0.6162  0.1456
  451MOL0     C62127   8.073  -1.064   1.416 -0.7686  0.6260 -0.5045
  451MOL0     C62128   8.122  -1.136   1.527  0.2962  0.3515 -0.1448
  451MOL0     C62129   8.145  -1.063   1.293  0.2382 -0.1678 -0.7069
  451MOL0     C62130   8.285  -1.109   1.284 -0.4236  0.4224 -0.2627
  451MOL0     O62131   8.360  -1.118   1.395 -0.0779  0.2798 -0.1552
  451MOL0     C62132   8.494  -1.134   1.373 -0.5999  0.3184 -0.0573
  451MOL0     C62133   8.545  -1.242   1.298  0.3490 -0.1546 -0.2344
  451MOL0     C62134   8.677  -1.241   1.255  0.0110  0.4326  0.3554
  451MOL0     C62135   8.768  -1.145   1.285  0.7201 -0.0045  0.1889
  451MOL0     O62136   8.896  -1.166   1.246  0.2898 -0.8250  0.2273
  451MOL0     C62137   8.988  -1.136   1.354 -0.0556 -0.4232  0.1825
  451MOL0     C62138   9.123  -1.208   1.330  0.0978  0.9635  0.5137
  451MOL0     C62139   9.109  -1.352   1.271  0.4572  0.2788 -0.0693
  451MOL0     C62140   9.235  -1.416   1.211 -0.0694  0.0519  0.4861
  451MOL0     C62141   9.290  -1.343   1.087 -0.2346  0.0179 -0.7909
  451MOL0     C62142   9.414  -1.417   1.025  1.1804 -0.4414 -0.7110
  451MOL0     C62143   9.465  -1.348   0.894  0.5132 -0.5949 -0.0058
  451MOL0     C62144   9.600  -1.413   0.854  0.9160 -0.2654  0.2651
  451MOL0    Cl62145   9.677  -1.328   0.717 -0.2338  0.1015 -0.3763
  451MOL0     C62146   8.718  -1.032   1.355  0.0965  0.1650 -0.1752
  451MOL0     C62147   8.581  -1.021   1.391  0.4045  0.4106 -0.0491
  451MOL0     O62148   8.325  -1.114   1.169  0.2698 -0.4158  0.7712
  451MOL0     C62149   8.071  -1.006   1.184 -0.0235 -0.0023  0.0170
  451MOL0     C62150   7.938  -0.963   1.201 -0.3093  0.4805 -0.9056
  451MOL0     N62151   7.538  -0.453   1.300 -0.7875 -0.2438  0.4723
  451MOL0     N62152   7.503  -0.332   1.281  0.9028  0.3919  0.7583
  451MOL0     C62153   6.570   0.286   0.850  0.1174  0.3489 -0.4502
  451MOL0     C62154   6.481   0.390   0.866  0.2196 -0.6911  1.1066
  451MOL0     C62155   6.310   0.836   0.931 -0.1110  0.1622  0.4405
  451MOL0     C62156   6.187   0.772   0.957 -0.3226  0.5685  0.1209
  451MOL0     C62157   6.071   0.846   0.954  0.4143 -0.0348 -0.3551
  451MOL0     C62158   6.069   0.986   0.950  0.1128  0.0428 -0.3740
  451MOL0     O62159   5.962   1.074   0.946  0.3048 -0.2363 -0.3087
  451MOL0     C62160   5.840   1.029   0.891  0.1913  0.0242 -0.2969
  451MOL0     C62161   5.719   1.110   0.931 -0.3218 -0.8395  0.4108
  451MOL0     C62162   5.692   1.074   1.082  0.5307 -0.1460 -1.2632
  451MOL0     C62163   5.557   1.128   1.146 -0.2914  0.5027  0.1282
  451MOL0     C62164   5.438   1.072   1.077 -1.3100 -0.3052 -0.8229
  451MOL0     C62165   5.323   1.058   1.063  0.0876  0.3794  1.2672
  451MOL0     C62166   6.198   1.044   0.938  0.1555 -0.4349 -0.7527
  451MOL0     C62167   6.318   0.972   0.924 -0.0860 -0.2766  0.3180
  451MOL0     C62168   6.438   1.059   0.889 -0.1860 -0.5867  0.0035
  451MOL0     H62169   6.686   0.642   0.948  0.5560  0.5194 -0.8331
  451MOL0     H62170   6.853   0.464   0.902 -0.0656  1.7224  1.2164
  451MOL0     H62171   6.759   0.031   0.754  2.4219 -1.1076  0.0960
  451MOL0     H62172   6.659   0.038   0.896 -1.5687  3.2698 -3.1465
  451MOL0     H62173   6.854   0.013   1.043  2.4039  0.1375  0.7273
  451MOL0     H62174   6.838  -0.122   0.934 -1.0049  0.9624 -0.7408
  451MOL0     H62175   7.023   0.006   0.783  0.0179 -0.7611  0.1614
  451MOL0     H62176   7.027   0.110   0.920  0.5776 -1.3497 -0.2580
  451MOL0     H62177   7.075  -0.092   1.074  0.3152 -0.0324 -0.5397
  451MOL0     H62178   7.052  -0.198   0.949  3.2978 -0.6256 -1.2572
  451MOL0     H62179   7.280   0.016   0.953  2.0536  0.2142 -3.9204
  451MOL0     H62180   7.264  -0.101   0.830 -1.9963  3.9097 -0.7886
  451MOL0     H62181   7.291  -0.161   1.130  0.7938  5.6514  0.3377
  451MOL0     H62182   7.318  -0.279   0.990 -2.7334 -0.3219  1.3291
  451MOL0     H62183   7.469  -0.006   1.006  1.1582  0.9612 -1.7599
  451MOL0     H62184   7.498  -0.158   0.906  3.0401 -2.3219  1.3652
  451MOL0     H62185   7.667  -0.137   1.075  0.0294  1.2281 -0.5220
  451MOL0     H62186   7.544  -0.090   1.194  1.6848 -0.8932  0.9575
  451MOL0     H62187   7.686  -0.405   1.017  1.0509 -0.4060  0.2597
  451MOL0     H62188   7.756  -0.633   1.276 -0.0714  2.3193  0.1880
  451MOL0     H62189   7.731  -0.645   1.106  0.6659  2.8040 -0.7094
  451MOL0     H62190   7.495  -0.723   1.155  1.7632 -0.2281 -1.4832
  451MOL0     H62191   7.622  -0.837   1.151 -1.5499 -1.0287 -0.0719
  451MOL0     H62192   7.504  -0.713   1.415  2.3547  0.0435  0.4492
  451MOL0     H62193   7.476  -0.864   1.357 -1.9154  2.4981  1.5859
  451MOL0     H62194   7.754  -0.769   1.461 -1.1130  1.4704 -0.1152
  451MOL0     H62195   7.667  -0.899   1.526  1.8112 -0.4065  0.5432
  451MOL0     H62196   7.891  -1.030   1.521  0.8996 -3.0710  0.5718
  451MOL0     H62197   8.042  -1.186   1.583  2.0004 -3.0093 -0.4233
  451MOL0     H62198   8.163  -1.064   1.597 -1.3381  1.2303 -0.0503
  451MOL0     H62199   8.195  -1.217   1.511 -0.7031 -0.9007  1.3300
  451MOL0     H62200   8.479  -1.325   1.275 -0.2542  0.8835 -2.5089
  451MOL0     H62201   8.707  -1.327   1.195 -0.3416 -0.4456  1.4134
  451MOL0     H62202   9.007  -1.028   1.359 -0.4241 -0.2758 -1.2471
  451MOL0     H62203   8.951  -1.170   1.451 -1.0599  0.4465  0.1274
  451MOL0     H62204   9.186  -1.148   1.264 -0.4886 -1.1019 -2.0795
  451MOL0     H62205   9.172  -1.220   1.427 -1.7104 -2.5405  1.1425
  451MOL0     H62206   9.023  -1.374   1.206  0.4389  0.2965 -0.0513
  451MOL0     H62207   9.084  -1.411   1.360 -1.4320 -0.7586 -1.2045
  451MOL0     H62208   9.219  -1.516   1.171  0.3789  0.2483 -0.2070
  451MOL0     H62209   9.318  -1.412   1.283 -1.4413 -0.4532  2.1719
  451MOL0     H62210   9.208  -1.352   1.015  0.3060 -2.8238 -1.2014
  451MOL0     H62211   9.315  -1.239   1.110 -0.9347  0.0974 -0.3814
  451MOL0     H62212   9.381  -1.519   1.004 -0.3798 -0.0971 -0.0554
  451MOL0     H62213   9.491  -1.420   1.103  1.4237 -0.4064 -0.9496
  451MOL0     H62214   9.492  -1.242   0.898  0.9398 -0.7178  0.4796
  451MOL0     H62215   9.394  -1.361   0.811 -1.5874 -0.7523  1.7180
  451MOL0     H62216   9.582  -1.519   0.840 -1.4058 -0.1824  2.0245
  451MOL0     H62217   9.666  -1.394   0.939  1.6540 -1.1275 -0.0986
  451MOL0     H62218   8.780  -0.952   1.394  0.7781 -0.3516 -0.1860
  451MOL0     H62219   8.540  -0.930   1.435 -1.9340 -0.0573 -1.1398
  451MOL0     H62220   8.105  -1.000   1.081 -2.7707  1.7270 -0.9149
  451MOL0     H62221   7.868  -0.939   1.121 -2.2004  0.1867  0.5737
  451MOL0     H62222   6.535   0.186   0.824 -0.2744 -0.3316  2.3111
  451MOL0     H62223   6.374   0.378   0.854 -0.2770  2.9267  0.5524
  451MOL0     H62224   6.192   0.665   0.977 -1.9224  0.1729 -1.3706
  451MOL0     H62225   5.975   0.797   0.965 -0.9771  2.7775  1.1129
  451MOL0     H62226   5.863   1.029   0.784  2.5682 -1.3457  0.1257
  451MOL0     H62227   5.815   0.928   0.924 -0.3591  0.6541  1.2851
  451MOL0     H62228   5.638   1.092   0.859 -2.3076  0.5209  2.1839
  451MOL0     H62229   5.727   1.218   0.920  0.0284 -0.9992 -1.1705
  451MOL0     H62230   5.711   0.971   1.114 -0.8025  0.0351  0.2179
  451MOL0     H62231   5.775   1.125   1.131  0.2093 -0.9477  0.1548
  451MOL0     H62232   5.558   1.237   1.151  0.1603  0.5924 -1.4618
  451MOL0     H62233   5.560   1.091   1.249  2.7043 -1.2102 -0.4761
  451MOL0     H62234   5.217   1.046   1.057 -0.7826  4.2896  4.4152
  451MOL0     H62235   6.206   1.152   0.945 -0.1072 -0.4882  0.6341
  451MOL0     H62236   6.534   1.025   0.929 -1.1760 -2.6256  0.8038
  451MOL0     H62237   6.448   1.058   0.780 -2.2206  1.2715 -0.2724
  451MOL0     H62238   6.422   1.164   0.916 -0.2494 -0.6735  0.3128
  452MOL0     O62239   4.900   2.167  10.809 -0.7032  0.4806 -0.1044
  452MOL0     C62240   4.936   2.148  10.923 -1.0037  0.7294 -0.2554
  452MOL0     O62241   5.061   2.162  10.976  0.0725  0.2284  0.2179
  452MOL0     C62242   5.173   2.202  10.904 -0.5178  0.6857  0.1956
  452MOL0     C62243   5.178   2.265  10.780 -1.0206 -0.2614  0.0455
  452MOL0     C62244   5.308   2.311  10.725  0.0979  0.8907 -0.8665
  452MOL0     C62245   5.430   2.283  10.790  0.6900  0.8259  0.4803
  452MOL0     O62246   5.560   2.325  10.763 -0.0067  0.0166  0.2819
  452MOL0     C62247   5.591   2.419  10.655  0.4159 -0.0454 -1.0598
  452MOL0     C62248   5.743   2.424  10.619  0.2505  0.3059 -0.2403
  452MOL0     C62249   5.814   2.290  10.614  0.0267  0.0631 -0.6091
  452MOL0     C62250   5.956   2.312  10.554  0.9137 -0.9057  0.0132
  452MOL0     C62251   6.046   2.407  10.631  0.4289 -0.0675  0.6880
  452MOL0     C62252   6.086   2.356  10.775 -0.0256  0.3325 -0.1702
  452MOL0     C62253   6.188   2.450  10.843  0.5052  0.3059 -0.7247
  452MOL0     C62254   6.322   2.479  10.766  0.4558 -0.6466  0.3716
  452MOL0     N62255   6.407   2.361  10.753 -0.2248  0.0305 -0.3360
  452MOL0     C62256   6.506   2.340  10.654 -0.3587  0.4953  0.6212
  452MOL0     C62257   6.561   2.221  10.691  0.9306 -0.2693 -1.3885
  452MOL0     C62258   6.680   2.158  10.626 -0.1484 -0.2844 -0.8195
  452MOL0     C62259   6.789   2.263  10.587  0.7665  0.0889  0.2145
  452MOL0     C62260   6.909   2.182  10.549  1.0675  0.0481 -0.2337
  452MOL0     C62261   7.036   2.260  10.543  0.1674 -0.8622  0.2598
  452MOL0     O62262   7.140   2.171  10.508 -0.0963 -0.2948  0.3771
  452MOL0     C62263   7.261   2.187  10.563 -1.4112  0.5501  0.1580
  452MOL0     C62264   7.344   2.298  10.526  0.2445  0.2358 -0.7572
  452MOL0     C62265   7.475   2.312  10.573 -0.0242 -0.5377 -0.2787
  452MOL0     C62266   7.553   2.431  10.507  0.3487  0.6838  0.0609
  452MOL0     C62267   7.525   2.217  10.668 -0.1008 -0.1069 -0.7248
  452MOL0     C62268   7.651   2.219  10.753 -0.6904 -0.8923  0.2904
  452MOL0     O62269   7.699   2.100  10.806 -0.2490  0.1474 -0.6198
  452MOL0     C62270   7.806   2.109  10.884 -0.0188  0.1824  0.1363
  452MOL0     C62271   7.809   2.179  11.007  0.1473  0.3698 -0.8990
  452MOL0     C62272   7.931   2.189  11.082  0.4816  0.6763  0.8338
  452MOL0     C62273   8.048   2.135  11.026 -0.5562  0.1983  0.7850
  452MOL0     O62274   8.160   2.149  11.097 -0.3235 -0.4282 -0.2567
  452MOL0     C62275   8.287   2.125  11.030 -0.2181  0.6215 -1.4145
  452MOL0     C62276   8.395   2.160  11.125 -0.6348 -0.0462  0.2711
  452MOL0     C62277   8.431   2.042  11.230 -0.7005  0.3160 -0.8479
  452MOL0     C62278   8.528   2.086  11.352  0.2343 -0.3114 -0.2299
  452MOL0     C62279   8.596   1.961  11.407 -0.7862  0.4256 -0.0758
  452MOL0     C62280   8.503   1.852  11.452  0.3705  0.5310 -0.4394
  452MOL0     C62281   8.567   1.742  11.547  0.1070  0.0262 -0.3468
  452MOL0     C62282   8.466   1.634  11.579 -0.0462  0.4324  0.0584
  452MOL0    Cl62283   8.536   1.516  11.682 -0.3391  0.2274  0.3283
  452MOL0     C62284   8.043   2.068  10.903  0.2196 -0.1672 -0.5999
  452MOL0     C62285   7.924   2.061  10.836  0.0401  1.2924  0.2488
  452MOL0     O62286   7.714   2.325  10.751  0.7821  0.3304  0.5368
  452MOL0     C62287   7.436   2.106  10.702  0.4436  0.8932  0.1586
  452MOL0     C62288   7.307   2.084  10.642  0.4879 -0.6143  0.5040
  452MOL0     N62289   6.500   2.166  10.798  0.9123  0.0246  0.4038
  452MOL0     N62290   6.407   2.250  10.837  0.0895 -1.0314  0.3686
  452MOL0     C62291   5.417   2.206  10.902 -0.3187  0.4472 -0.7178
  452MOL0     C62292   5.297   2.167  10.962  0.7537  0.1332 -0.3416
  452MOL0     C62293   4.823   2.115  11.014  0.4687 -0.3249 -0.7106
  452MOL0     C62294   4.869   2.070  11.142  0.5584 -0.2311  0.4346
  452MOL0     C62295   4.777   2.035  11.241 -0.0648 -1.1015  0.1956
  452MOL0     C62296   4.637   2.041  11.218  0.3668  0.8879  0.0806
  452MOL0     O62297   4.534   2.036  11.307 -0.4622 -0.2857  0.3251
  452MOL0     C62298   4.574   1.995  11.442 -0.4783 -0.5335  0.6864
  452MOL0     C62299   4.450   1.959  11.515 -0.5750 -0.2175  0.5509
  452MOL0     C62300   4.471   1.917  11.665  0.5034  0.0358 -0.0310
  452MOL0     C62301   4.352   1.956  11.747  0.1650 -0.5539 -0.5695
  452MOL0     C62302   4.228   1.895  11.702 -0.1813 -0.1440  0.1951
  452MOL0     C62303   4.127   1.846  11.654  0.4050 -0.6380  0.2723
  452MOL0     C62304   4.597   2.087  11.094 -0.5314  0.1392 -0.2846
  452MOL0     C62305   4.679   2.111  10.987 -0.3728  0.2400 -0.8388
  452MOL0     C62306   4.616   2.138  10.849 -0.6432  0.1677 -0.4961
  452MOL0     H62307   5.083   2.280  10.730 -0.3762 -1.1330 -1.5009
  452MOL0     H62308   5.301   2.350  10.624 -0.0971  0.3101 -1.0805
  452MOL0     H62309   5.565   2.521  10.685 -0.9870 -0.8812  0.7483
  452MOL0     H62310   5.543   2.388  10.562 -1.1642 -1.5449  0.1934
  452MOL0     H62311   5.746   2.482  10.527  0.6956  3.8472  1.8184
  452MOL0     H62312   5.795   2.492  10.687 -0.7328  1.0526 -0.2134
  452MOL0     H62313   5.810   2.255  10.717 -0.4353 -2.2544 -1.3515
  452MOL0     H62314   5.771   2.212  10.550 -1.4904  0.0560  0.3781
  452MOL0     H62315   5.995   2.210  10.543  1.0407 -0.7250 -1.3913
  452MOL0     H62316   5.951   2.345  10.450  0.0891 -0.8380  0.0673
  452MOL0     H62317   6.003   2.507  10.647 -2.8340 -0.9308 -1.5777
  452MOL0     H62318   6.139   2.402  10.574 -0.0483 -2.2089 -0.0014
  452MOL0     H62319   6.004   2.334  10.844  0.8574 -1.0333  0.4988
  452MOL0     H62320   6.130   2.259  10.752 -1.3605 -0.4720  0.5067
  452MOL0     H62321   6.200   2.411  10.944  0.1866  0.4054 -0.6460
  452MOL0     H62322   6.139   2.547  10.858  2.8595  1.6459 -1.2295
  452MOL0     H62323   6.309   2.504  10.660 -1.1999 -4.0296 -0.3448
  452MOL0     H62324   6.380   2.558  10.815 -0.8305  2.9493 -3.2846
  452MOL0     H62325   6.539   2.399  10.569 -1.2852  0.2652  0.0799
  452MOL0     H62326   6.652   2.097  10.540  0.9015 -0.7271 -0.8616
  452MOL0     H62327   6.724   2.087  10.697  1.0854 -0.0203 -1.3006
  452MOL0     H62328   6.759   2.332  10.507  0.7777  1.6518  1.4905
  452MOL0     H62329   6.825   2.322  10.672  0.1072  1.1844 -0.2438
  452MOL0     H62330   6.918   2.095  10.614 -0.0306  0.3405  0.3217
  452MOL0     H62331   6.892   2.142  10.449  2.9149  1.9274 -1.3991
  452MOL0     H62332   7.034   2.335  10.464 -0.4323  1.1600  2.1160
  452MOL0     H62333   7.045   2.315  10.637 -0.5960 -0.4135  0.0747
  452MOL0     H62334   7.298   2.371  10.461  0.0982  2.0223  1.2373
  452MOL0     H62335   7.480   2.499  10.462  2.0253  1.3363 -1.8197
  452MOL0     H62336   7.609   2.394  10.421 -0.6397 -2.6952  0.7309
  452MOL0     H62337   7.609   2.494  10.577 -2.6501  5.1082 -1.0407
  452MOL0     H62338   7.720   2.215  11.058  0.6813  1.0317 -0.4092
  452MOL0     H62339   7.932   2.243  11.176 -1.7417 -1.1428  2.0286
  452MOL0     H62340   8.297   2.018  11.012  0.4607  0.6662 -1.3202
  452MOL0     H62341   8.288   2.182  10.937 -2.9119  2.6397 -0.3454
  452MOL0     H62342   8.481   2.185  11.063 -0.7716 -2.1817 -0.8902
  452MOL0     H62343   8.370   2.250  11.181 -0.2296  0.4486 -0.3302
  452MOL0     H62344   8.485   1.966  11.172  1.0342 -0.3786  1.5374
  452MOL0     H62345   8.336   2.004  11.270 -0.4510  1.2450  0.6701
  452MOL0     H62346   8.471   2.137  11.430  0.6184 -1.0511  0.5513
  452MOL0     H62347   8.605   2.157  11.321  0.7118  0.6441  2.7959
  452MOL0     H62348   8.651   1.925  11.319 -0.8060 -0.7093  0.3611
  452MOL0     H62349   8.672   1.980  11.483  2.3801 -3.4752 -1.8604
  452MOL0     H62350   8.444   1.810  11.369 -2.0562 -0.1283  1.4826
  452MOL0     H62351   8.424   1.891  11.516  0.2058  1.2513 -1.0716
  452MOL0     H62352   8.606   1.786  11.639 -0.2739 -1.9314  0.8117
  452MOL0     H62353   8.656   1.694  11.504 -0.2942 -0.9227 -0.1442
  452MOL0     H62354   8.428   1.578  11.494 -0.4850  0.7062  0.0713
  452MOL0     H62355   8.383   1.679  11.635  1.3214  1.2162  1.5450
  452MOL0     H62356   8.135   2.027  10.861  0.4062  0.4186 -0.7795
  452MOL0     H62357   7.934   2.010  10.740 -1.1336 -0.1416  0.8417
  452MOL0     H62358   7.469   2.025  10.765  0.2093 -0.7830 -1.7879
  452MOL0     H62359   7.249   1.998  10.674 -0.1104  0.3519  2.1238
  452MOL0     H62360   5.506   2.195  10.963 -1.0359  0.8611  0.4245
  452MOL0     H62361   5.302   2.113  11.055  1.8687  0.3564 -0.2595
  452MOL0     H62362   4.971   2.081  11.178  1.4945 -0.7997 -1.8410
  452MOL0     H62363   4.829   2.007  11.332 -0.2419  0.3385  0.7673
  452MOL0     H62364   4.637   1.906  11.444 -0.0102 -0.1958  2.3095
  452MOL0     H62365   4.630   2.073  11.493 -1.0025 -1.1847  2.3263
  452MOL0     H62366   4.382   1.888  11.468 -1.8320 -0.7708  3.0370
  452MOL0     H62367   4.397   2.055  11.516 -1.1723 -0.5473  0.4872
  452MOL0     H62368   4.486   1.809  11.667  0.3481 -0.0001  2.1954
  452MOL0     H62369   4.564   1.953  11.710 -0.2935  1.5078  0.4998
  452MOL0     H62370   4.347   2.065  11.736  2.3668 -0.1818  1.1505
  452MOL0     H62371   4.368   1.937  11.854  0.3901  0.5227 -0.3948
  452MOL0     H62372   4.037   1.800  11.621  1.4866 -2.2321 -0.5798
  452MOL0     H62373   4.490   2.104  11.093 -0.6569 -0.5075  1.0187
  452MOL0     H62374   4.629   2.048  10.790 -1.0153  1.6349 -2.9405
  452MOL0     H62375   4.508   2.160  10.851 -0.7981 -0.5969 -0.1589
  452MOL0     H62376   4.668   2.224  10.806 -0.2894  1.3421  2.0746
  453MOL0     O62377   6.534   8.723   8.768 -0.2607 -0.4339 -0.4442
  453MOL0     C62378   6.444   8.802   8.758  0.5457 -0.6494  0.5663
  453MOL0     O62379   6.470   8.938   8.737  0.1564 -0.4077  0.4399
  453MOL0     C62380   6.601   8.983   8.715  0.1968  0.1490 -0.0753
  453MOL0     C62381   6.643   9.107   8.769 -0.6121  0.0793  0.5104
  453MOL0     C62382   6.770   9.152   8.746  0.1463  0.4569  0.1772
  453MOL0     C62383   6.854   9.079   8.662  0.1068 -0.5450  0.4945
  453MOL0     O62384   6.987   9.101   8.636  0.9051 -0.3469  0.2080
  453MOL0     C62385   7.031   9.238   8.617  0.2096 -0.3646 -0.3328
  453MOL0     C62386   7.177   9.247   8.604  0.4673  0.4059 -0.3753
  453MOL0     C62387   7.206   9.387   8.548 -0.5223 -0.1145 -0.0535
  453MOL0     C62388   7.355   9.401   8.529  0.4183 -0.1636  0.5934
  453MOL0     C62389   7.429   9.425   8.661  0.8488  0.7997  0.6403
  453MOL0     C62390   7.577   9.414   8.642 -0.6898 -0.9761  0.2163
  453MOL0     C62391   7.651   9.430   8.774  0.1037  0.2245 -0.0442
  453MOL0     C62392   7.802   9.461   8.769  0.6509 -0.1558  0.0620
  453MOL0     N62393   7.879   9.365   8.688  1.1133 -0.6303  0.9810
  453MOL0     C62394   7.962   9.280   8.737 -0.5003  0.4912  0.5910
  453MOL0     C62395   8.032   9.233   8.631  0.0775  1.1612  0.0328
  453MOL0     C62396   8.119   9.106   8.632  0.3506 -1.2184 -0.9744
  453MOL0     C62397   8.234   9.123   8.724 -0.1279  0.0993 -0.3564
  453MOL0     C62398   8.335   9.007   8.688 -0.8973 -0.4409 -0.0022
  453MOL0     C62399   8.466   9.002   8.772  0.1975  0.5987 -0.1081
  453MOL0     O62400   8.563   9.076   8.702  0.8721  0.4814 -0.3376
  453MOL0     C62401   8.690   9.035   8.715 -0.0005 -1.3012 -0.6821
  453MOL0     C62402   8.777   9.004   8.614 -0.2289  0.7430  0.1360
  453MOL0     C62403   8.903   8.949   8.626 -0.5182  0.3310 -0.0722
  453MOL0     C62404   8.989   8.935   8.494  0.8736 -0.4093 -0.2352
  453MOL0     C62405   8.965   8.922   8.757 -0.0667  0.2383  0.2827
  453MOL0     C62406   9.100   8.864   8.781 -0.0675  0.1460 -0.1192
  453MOL0     O62407   9.206   8.902   8.698  0.3663  0.6163  0.1372
  453MOL0     C62408   9.334   8.870   8.731 -0.8463 -0.4123  0.5311
  453MOL0     C62409   9.434   8.973   8.742 -0.1426 -0.5256  0.0294
  453MOL0     C62410   9.567   8.947   8.791 -0.7453  0.0802 -0.2047
  453MOL0     C62411   9.593   8.807   8.815  0.1682  0.6342  0.5098
  453MOL0     O62412   9.716   8.757   8.854 -0.4097  0.6364 -0.0137
  453MOL0     C62413   9.819   8.838   8.920 -0.5559  0.3139  0.2043
  453MOL0     C62414   9.918   8.757   9.021  0.5364 -0.2155 -0.0396
  453MOL0     C62415  10.048   8.830   9.029 -0.2861  0.2980  0.1506
  453MOL0     C62416  10.163   8.734   9.084 -1.2757 -0.1779 -0.1591
  453MOL0     C62417  10.300   8.803   9.112  0.7597  0.3205  0.1468
  453MOL0     C62418  10.298   8.926   9.205  0.5098  0.0277 -0.5442
  453MOL0     C62419  10.437   8.970   9.257  0.2083 -0.0247  0.5429
  453MOL0     C62420  10.553   8.997   9.150  0.0672 -0.5496  0.2793
  453MOL0    Cl62421  10.526   9.166   9.102  0.1428 -0.1954  0.4325
  453MOL0     C62422   9.492   8.708   8.792 -0.7074  0.6401 -0.0083
  453MOL0     C62423   9.367   8.740   8.752 -0.2747  0.6574 -0.9447
  453MOL0     O62424   9.107   8.789   8.878 -0.3885 -0.5742 -0.7399
  453MOL0     C62425   8.881   8.962   8.864 -0.7105 -0.9310 -0.2055
  453MOL0     C62426   8.752   9.011   8.844  1.1860 -0.2553 -0.3339
  453MOL0     N62427   8.004   9.308   8.522 -0.3276 -0.1464 -0.4017
  453MOL0     N62428   7.909   9.385   8.558 -0.3007 -0.3664 -0.5451
  453MOL0     C62429   6.815   8.966   8.593  0.7926  0.2273 -0.6116
  453MOL0     C62430   6.691   8.917   8.627 -0.6518 -0.4750  0.0328
  453MOL0     C62431   6.304   8.757   8.750  0.1951 -0.2855 -0.7280
  453MOL0     C62432   6.214   8.853   8.703  0.5575 -0.1777  0.2566
  453MOL0     C62433   6.081   8.819   8.675  0.5843  0.0757 -0.3114
  453MOL0     C62434   6.030   8.691   8.708 -0.2420 -0.0502  1.8308
  453MOL0     O62435   5.907   8.640   8.684  0.9619  0.2494 -0.1479
  453MOL0     C62436   5.793   8.741   8.701  0.1917  1.1065 -0.5188
  453MOL0     C62437   5.665   8.660   8.723 -0.2692  0.0114 -1.0749
  453MOL0     C62438   5.609   8.625   8.593  0.3662 -0.5162  1.0222
  453MOL0     C62439   5.476   8.554   8.598 -0.3595  0.1905  0.7105
  453MOL0     C62440   5.500   8.412   8.643 -0.4629  0.0113  0.4699
  453MOL0     C62441   5.524   8.300   8.672 -0.6118 -0.0181  0.0172
  453MOL0     C62442   6.114   8.599   8.765 -0.9834 -0.2781 -0.0007
  453MOL0     C62443   6.254   8.633   8.786  0.1856 -0.1337 -0.8034
  453MOL0     C62444   6.336   8.519   8.838  0.2144  0.0321 -0.5571
  453MOL0     H62445   6.580   9.167   8.835  0.4822  0.2448  1.4277
  453MOL0     H62446   6.795   9.253   8.779 -2.8178  1.8390 -1.4364
  453MOL0     H62447   6.987   9.291   8.702 -0.1472 -0.6124 -0.3631
  453MOL0     H62448   6.999   9.285   8.523  1.8012  0.4628 -0.4948
  453MOL0     H62449   7.217   9.253   8.706 -1.9036  3.8229  0.5330
  453MOL0     H62450   7.216   9.163   8.546  0.5726 -0.2019  0.5578
  453MOL0     H62451   7.166   9.395   8.447 -0.1573  0.5114 -0.1565
  453MOL0     H62452   7.166   9.463   8.615 -1.8617 -0.0207 -0.9318
  453MOL0     H62453   7.393   9.316   8.472  1.3686  2.5264 -3.1063
  453MOL0     H62454   7.357   9.493   8.470 -0.5614  0.1800  1.0812
  453MOL0     H62455   7.398   9.338   8.721 -3.0070 -0.9004 -3.3375
  453MOL0     H62456   7.393   9.513   8.715 -4.3857 -2.0141  2.5257
  453MOL0     H62457   7.613   9.326   8.586  1.5297 -1.8203  2.7756
  453MOL0     H62458   7.589   9.500   8.576  2.3873 -1.3419  0.1351
  453MOL0     H62459   7.635   9.343   8.837  1.9063 -0.6629 -0.7500
  453MOL0     H62460   7.606   9.516   8.825 -0.3552  0.1333 -0.2834
  453MOL0     H62461   7.811   9.560   8.723  1.5566  0.2176  1.0201
  453MOL0     H62462   7.838   9.486   8.869  1.6184 -0.4929 -0.1914
  453MOL0     H62463   7.968   9.230   8.833  2.8977  1.6948  1.1446
  453MOL0     H62464   8.146   9.084   8.528  0.3369 -2.5159 -0.7263
  453MOL0     H62465   8.056   9.029   8.678 -0.6844 -0.8222 -1.7072
  453MOL0     H62466   8.282   9.221   8.713  2.4878 -0.7941  1.8840
  453MOL0     H62467   8.194   9.109   8.825 -0.0307  0.1891 -0.3048
  453MOL0     H62468   8.283   8.911   8.699  0.8048 -1.2808  1.1518
  453MOL0     H62469   8.353   9.011   8.580 -2.6638 -1.2586 -0.3674
  453MOL0     H62470   8.449   9.037   8.874  2.3501  0.9936  0.1575
  453MOL0     H62471   8.498   8.898   8.786 -0.5473  0.4879  0.9016
  453MOL0     H62472   8.733   9.016   8.515  0.2442 -0.7727 -0.2771
  453MOL0     H62473   9.076   8.999   8.478  0.3913 -0.2173 -2.5171
  453MOL0     H62474   8.914   8.950   8.415 -0.9583 -2.8061  0.9060
  453MOL0     H62475   9.032   8.835   8.481 -0.6734 -0.9577 -1.5463
  453MOL0     H62476   9.397   9.074   8.729 -3.8381 -1.7685 -0.3941
  453MOL0     H62477   9.639   9.028   8.791 -0.9389  0.2556  0.2725
  453MOL0     H62478   9.885   8.887   8.848  0.1038  0.9168  1.1982
  453MOL0     H62479   9.763   8.907   8.985  0.9948  1.3524  0.4916
  453MOL0     H62480   9.880   8.764   9.124  0.1370 -0.9650 -0.1319
  453MOL0     H62481   9.940   8.657   8.985 -2.5563 -1.0626  0.1341
  453MOL0     H62482  10.036   8.914   9.098 -0.1442  1.1548 -0.8547
  453MOL0     H62483  10.080   8.879   8.937 -0.2657  0.4577  0.2418
  453MOL0     H62484  10.175   8.642   9.026 -0.4184 -1.5409  2.0216
  453MOL0     H62485  10.137   8.695   9.183  3.2040 -3.9345 -0.0952
  453MOL0     H62486  10.363   8.725   9.154  1.4892  0.9256  0.1814
  453MOL0     H62487  10.350   8.833   9.019 -1.0716 -2.0409 -1.7558
  453MOL0     H62488  10.235   8.893   9.288 -0.3671  0.9675 -0.8184
  453MOL0     H62489  10.247   9.013   9.165  1.1444  0.1460 -1.1317
  453MOL0     H62490  10.474   8.900   9.332  0.5137  1.5257  1.8909
  453MOL0     H62491  10.412   9.056   9.319 -1.0967 -1.8857  2.7727
  453MOL0     H62492  10.548   8.925   9.067  0.8973 -0.4668  0.1537
  453MOL0     H62493  10.650   8.997   9.200 -0.8537 -2.5661  2.2362
  453MOL0     H62494   9.514   8.604   8.811  0.1071  0.2460 -2.6574
  453MOL0     H62495   9.290   8.664   8.744  1.2257 -1.1809  1.1372
  453MOL0     H62496   8.928   8.952   8.961 -1.2914  0.6565  0.2539
  453MOL0     H62497   8.689   9.026   8.931 -0.5062 -0.1369 -1.5248
  453MOL0     H62498   6.879   8.915   8.522  2.8648  0.9908  0.6070
  453MOL0     H62499   6.650   8.830   8.577 -0.6184  0.5649 -1.9306
  453MOL0     H62500   6.224   8.961   8.700  3.0810 -0.3021  1.3856
  453MOL0     H62501   6.009   8.889   8.634 -0.5275 -0.5684  0.4608
  453MOL0     H62502   5.815   8.798   8.792  0.8160 -2.3562  1.6931
  453MOL0     H62503   5.798   8.809   8.616 -2.6372  0.3742 -1.3618
  453MOL0     H62504   5.595   8.720   8.782 -0.5200 -2.3849  1.2652
  453MOL0     H62505   5.679   8.572   8.787  0.7364  2.3236  2.1625
  453MOL0     H62506   5.591   8.714   8.532 -1.5658 -0.5050  1.5696
  453MOL0     H62507   5.687   8.563   8.548  0.9185 -2.2769  4.1233
  453MOL0     H62508   5.432   8.551   8.498 -1.7771  1.4526  1.2512
  453MOL0     H62509   5.400   8.609   8.656  0.8028  1.5126  1.0334
  453MOL0     H62510   5.577   8.218   8.715 -0.3912  0.7508  1.2731
  453MOL0     H62511   6.080   8.499   8.792  0.7834 -1.2931 -1.3962
  453MOL0     H62512   6.355   8.463   8.745  1.3955 -0.6611  0.0725
  453MOL0     H62513   6.425   8.550   8.893 -0.8083  1.3849  0.4014
  453MOL0     H62514   6.284   8.460   8.914 -0.1390 -0.2515 -1.0055
  454MOL0     O62515   4.062   8.879   0.472 -0.8341  0.5770  0.1531
  454MOL0     C62516   4.042   9.005   0.469  0.2371 -0.2742 -0.3356
  454MOL0     O62517   3.919   9.071   0.483  0.2355  0.4473 -0.2918
  454MOL0     C62518   3.813   8.988   0.500  0.6042  0.7027  0.1958
  454MOL0     C62519   3.786   8.881   0.411 -1.0602 -0.0924  0.2048
  454MOL0     C62520   3.667   8.812   0.416 -0.2451 -1.0413  0.2321
  454MOL0     C62521   3.573   8.837   0.510 -0.6699  0.3010  0.3623
  454MOL0     O62522   3.459   8.763   0.498 -1.0517  0.5176  0.4637
  454MOL0     C62523   3.405   8.708   0.619 -0.2274 -0.8130 -0.1731
  454MOL0     C62524   3.270   8.772   0.647  0.4104 -0.3368 -0.4068
  454MOL0     C62525   3.161   8.728   0.554  0.2356 -0.7463  0.8260
  454MOL0     C62526   3.150   8.571   0.553  0.0360 -0.1794  0.4858
  454MOL0     C62527   3.020   8.521   0.499 -0.3088  0.2815 -0.8525
  454MOL0     C62528   2.998   8.567   0.364  0.0255  0.2208  0.7844
  454MOL0     C62529   2.866   8.492   0.321 -0.1928 -0.0023 -2.0380
  454MOL0     C62530   2.827   8.530   0.188 -0.5752 -0.1099  0.2526
  454MOL0     N62531   2.752   8.429   0.118  0.4515 -0.0394 -0.5344
  454MOL0     C62532   2.795   8.332   0.036 -0.0788 -0.5386 -0.4540
  454MOL0     C62533   2.686   8.266  -0.014  0.8143  0.0260 -0.3206
  454MOL0     C62534   2.680   8.145  -0.102 -0.4514  0.6279  0.2811
  454MOL0     C62535   2.767   8.165  -0.222 -0.6988  0.0039 -0.3919
  454MOL0     C62536   2.733   8.063  -0.328 -0.2255  0.6178 -0.4399
  454MOL0     C62537   2.809   8.069  -0.453 -0.2592 -1.1303  0.1187
  454MOL0     O62538   2.820   8.206  -0.498 -0.4763  0.1824 -0.9479
  454MOL0     C62539   2.899   8.216  -0.608  0.2190 -0.1083  0.6378
  454MOL0     C62540   2.837   8.245  -0.733  0.2532  0.0262 -0.3119
  454MOL0     C62541   2.908   8.269  -0.850  0.5238 -0.8031 -0.1597
  454MOL0     C62542   2.832   8.281  -0.977 -0.7252 -0.7659 -0.2253
  454MOL0     C62543   3.049   8.276  -0.842 -0.3375 -0.9199 -0.8172
  454MOL0     C62544   3.134   8.331  -0.949  0.2882  0.4402  0.6188
  454MOL0     O62545   3.270   8.307  -0.951  0.3477 -0.4365 -0.5342
  454MOL0     C62546   3.347   8.340  -1.057 -0.7892 -0.7437  1.1420
  454MOL0     C62547   3.436   8.240  -1.096 -0.1131  0.3660  0.0079
  454MOL0     C62548   3.535   8.274  -1.192 -0.1758  0.5896  0.7185
  454MOL0     C62549   3.534   8.390  -1.265  0.2853 -0.3908 -0.6907
  454MOL0     O62550   3.616   8.420  -1.377  0.1565  0.1369 -0.3499
  454MOL0     C62551   3.686   8.319  -1.434 -0.3745  0.2371  0.2769
  454MOL0     C62552   3.765   8.379  -1.555  0.1049 -0.1204 -0.5844
  454MOL0     C62553   3.896   8.304  -1.597 -0.0257  0.6563 -0.4465
  454MOL0     C62554   3.878   8.151  -1.606  0.2307 -0.1208 -0.5342
  454MOL0     C62555   4.017   8.075  -1.632  0.4572  0.1335 -0.4497
  454MOL0     C62556   4.086   8.126  -1.755 -0.1136  0.6001  0.9183
  454MOL0     C62557   4.220   8.048  -1.760  0.2979  0.6087  0.5196
  454MOL0     C62558   4.288   8.075  -1.898 -0.3270 -0.3417  0.3592
  454MOL0    Cl62559   4.395   8.212  -1.880 -0.0025  0.1185  0.0046
  454MOL0     C62560   3.450   8.490  -1.221 -0.3072 -0.5391 -1.2243
  454MOL0     C62561   3.352   8.459  -1.125 -0.1655 -1.0573  0.1052
  454MOL0     O62562   3.074   8.410  -1.025  0.7412  0.0373 -0.0519
  454MOL0     C62563   3.113   8.257  -0.712  0.3461 -0.1485 -0.8706
  454MOL0     C62564   3.043   8.213  -0.601 -0.1817 -0.0460  0.3718
  454MOL0     N62565   2.570   8.323   0.044 -0.5843 -0.1505  0.5927
  454MOL0     N62566   2.614   8.426   0.113  0.3557 -0.0839  0.5859
  454MOL0     C62567   3.582   8.937   0.590 -0.2394 -0.5774  0.3098
  454MOL0     C62568   3.702   9.017   0.590 -0.2341  0.5050  0.4726
  454MOL0     C62569   4.156   9.092   0.462 -0.4794  1.1245  0.0093
  454MOL0     C62570   4.158   9.230   0.492  0.0868  1.0929 -0.4705
  454MOL0     C62571   4.262   9.319   0.488  0.0697  1.7209 -0.5642
  454MOL0     C62572   4.385   9.275   0.445 -0.7486 -0.0742 -0.3128
  454MOL0     O62573   4.483   9.374   0.444  1.0090 -0.2661  0.1454
  454MOL0     C62574   4.621   9.340   0.471  0.1951  0.9564  1.8436
  454MOL0     C62575   4.691   9.450   0.544 -0.1519 -0.0291 -0.0818
  454MOL0     C62576   4.617   9.489   0.682 -0.5232  0.3272 -0.5913
  454MOL0     C62577   4.634   9.397   0.802  0.4631 -0.5138  0.2391
  454MOL0     C62578   4.605   9.253   0.776 -0.6091 -0.6914 -0.2293
  454MOL0     C62579   4.575   9.144   0.746 -0.1775  0.3543  0.3119
  454MOL0     C62580   4.397   9.147   0.412  0.6269 -0.2842 -1.0855
  454MOL0     C62581   4.289   9.052   0.420  0.1951 -0.3057 -0.7385
  454MOL0     C62582   4.322   8.910   0.369 -0.4726 -0.0150  0.3147
  454MOL0     H62583   3.848   8.852   0.326 -1.1753 -1.6573  0.6209
  454MOL0     H62584   3.651   8.725   0.353  0.6508 -1.4485  0.5513
  454MOL0     H62585   3.463   8.736   0.707  1.2477 -2.4367 -0.5680
  454MOL0     H62586   3.392   8.599   0.620  1.9223 -1.1879 -2.5830
  454MOL0     H62587   3.248   8.772   0.754  2.0044  0.0642 -0.0442
  454MOL0     H62588   3.285   8.879   0.630  0.9590 -0.4192 -0.4752
  454MOL0     H62589   3.072   8.776   0.594  0.9416  0.4984  0.9639
  454MOL0     H62590   3.166   8.778   0.457  0.8712 -1.3672  0.5297
  454MOL0     H62591   3.228   8.519   0.498 -1.7551 -3.2377  0.5612
  454MOL0     H62592   3.162   8.533   0.655  2.2336  0.0620  0.3621
  454MOL0     H62593   2.937   8.561   0.559  0.1418  2.1855 -1.4634
  454MOL0     H62594   3.026   8.412   0.506 -2.3252 -0.0191 -2.7620
  454MOL0     H62595   2.987   8.675   0.360  1.1441  0.3231 -0.0145
  454MOL0     H62596   3.080   8.530   0.301  1.0199 -2.0867  3.2441
  454MOL0     H62597   2.794   8.518   0.399  1.2155 -1.0233 -0.3216
  454MOL0     H62598   2.880   8.384   0.313 -1.4861 -0.2143 -1.5827
  454MOL0     H62599   2.775   8.626   0.181  0.2307  0.2462 -1.6008
  454MOL0     H62600   2.924   8.551   0.142  0.9656 -1.7288  2.5568
  454MOL0     H62601   2.894   8.306   0.001  0.3388  0.6488 -0.2026
  454MOL0     H62602   2.580   8.141  -0.149  0.5247 -1.1359 -1.8588
  454MOL0     H62603   2.697   8.046  -0.060 -1.0538  0.2599 -0.3105
  454MOL0     H62604   2.760   8.269  -0.255  1.7378  0.6173  0.7398
  454MOL0     H62605   2.873   8.150  -0.196  0.3949  1.1735 -3.6834
  454MOL0     H62606   2.760   7.970  -0.277 -1.1084  1.8879  2.5994
  454MOL0     H62607   2.625   8.071  -0.341 -0.3829  2.3105  1.2923
  454MOL0     H62608   2.909   8.027  -0.438 -0.3929 -1.1649  1.0077
  454MOL0     H62609   2.753   8.012  -0.528 -1.6724  0.1480  0.1527
  454MOL0     H62610   2.730   8.257  -0.738 -0.0563 -1.7336  1.1820
  454MOL0     H62611   2.885   8.245  -1.066  0.2063 -1.0067  0.4251
  454MOL0     H62612   2.813   8.389  -0.982  0.0167 -0.5648  1.1391
  454MOL0     H62613   2.734   8.232  -0.977 -2.1313  1.8331 -0.4009
  454MOL0     H62614   3.441   8.151  -1.034 -2.3877 -0.6897 -1.2038
  454MOL0     H62615   3.611   8.199  -1.211 -1.6828 -1.0424  0.9027
  454MOL0     H62616   3.758   8.282  -1.361  1.5887  3.4580  0.2056
  454MOL0     H62617   3.629   8.237  -1.478  0.2999 -0.3353  0.4417
  454MOL0     H62618   3.702   8.368  -1.644 -2.1460 -0.0852  0.9419
  454MOL0     H62619   3.787   8.482  -1.526  0.7976 -1.6112  5.5866
  454MOL0     H62620   3.969   8.331  -1.519 -1.5409  0.5428  1.0850
  454MOL0     H62621   3.932   8.333  -1.696 -0.3903  1.2513 -0.4099
  454MOL0     H62622   3.805   8.131  -1.684  1.9179 -3.2981 -1.4758
  454MOL0     H62623   3.839   8.117  -1.510 -0.4612  0.5566 -0.5614
  454MOL0     H62624   4.083   8.096  -1.548 -2.3972 -0.8324  2.2049
  454MOL0     H62625   4.006   7.966  -1.625  0.9637  0.1347  0.5776
  454MOL0     H62626   4.104   8.234  -1.755  3.7014  0.1925 -1.7093
  454MOL0     H62627   4.029   8.096  -1.844 -1.2526 -2.3097  2.5065
  454MOL0     H62628   4.201   7.941  -1.747  1.0945  0.3853 -0.1220
  454MOL0     H62629   4.281   8.073  -1.673 -1.3599  3.0234  1.0960
  454MOL0     H62630   4.214   8.098  -1.976  0.3977 -3.4900 -1.3874
  454MOL0     H62631   4.350   7.999  -1.945  1.4446  0.9087  0.5910
  454MOL0     H62632   3.463   8.590  -1.261 -3.2248 -0.2368 -1.6211
  454MOL0     H62633   3.276   8.530  -1.095 -1.1138 -2.2455  0.6063
  454MOL0     H62634   3.218   8.268  -0.688 -0.3069 -0.8296  2.9435
  454MOL0     H62635   3.101   8.195  -0.511  1.4964 -1.3370 -0.9008
  454MOL0     H62636   3.497   8.960   0.653  0.1363 -1.7441  1.2731
  454MOL0     H62637   3.706   9.102   0.657  0.5194  0.8024  0.0539
  454MOL0     H62638   4.067   9.270   0.537 -2.7416 -2.9263 -2.0353
  454MOL0     H62639   4.241   9.420   0.521  0.8976  1.5390  0.5583
  454MOL0     H62640   4.624   9.242   0.520 -1.8765  0.3772  0.9052
  454MOL0     H62641   4.672   9.311   0.379 -0.1325  1.3582  1.5363
  454MOL0     H62642   4.686   9.538   0.479  0.6553  0.9386  1.1160
  454MOL0     H62643   4.799   9.430   0.543  0.3077  2.0331 -2.2615
  454MOL0     H62644   4.657   9.586   0.710  1.8599 -0.4532 -1.0645
  454MOL0     H62645   4.512   9.512   0.662 -1.0460 -0.8723  0.6001
  454MOL0     H62646   4.563   9.440   0.873  1.7676  1.9376  0.1689
  454MOL0     H62647   4.733   9.413   0.846 -0.1982  1.1356  1.2148
  454MOL0     H62648   4.558   9.046   0.706 -1.2396  0.6096  0.1289
  454MOL0     H62649   4.491   9.098   0.391  0.2402 -1.2827 -0.5462
  454MOL0     H62650   4.310   8.836   0.448 -0.4119 -1.8080 -1.2858
  454MOL0     H62651   4.261   8.894   0.279  0.9676  1.5911 -1.0286
  454MOL0     H62652   4.427   8.905   0.341 -0.4966  1.7658 -0.2504
  455MOL0     O62653   1.135   1.855   4.981 -0.6518  0.5446 -0.6124
  455MOL0     C62654   1.104   1.963   5.018  1.1906 -0.5004  0.1229
  455MOL0     O62655   1.181   2.054   5.077  0.3034  0.0484 -0.0056
  455MOL0     C62656   1.315   2.023   5.094 -0.1691 -0.5422 -1.4763
  455MOL0     C62657   1.403   2.013   4.987  0.2455 -0.3587  0.1988
  455MOL0     C62658   1.536   1.981   5.008  1.6172 -0.5558  0.6989
  455MOL0     C62659   1.588   1.972   5.138  0.0735 -0.2530  0.4894
  455MOL0     O62660   1.715   1.937   5.164  1.1503  0.1536 -0.5173
  455MOL0     C62661   1.814   1.980   5.070 -0.1203  0.2373  0.3188
  455MOL0     C62662   1.958   1.992   5.126 -0.2954  0.4413 -0.1041
  455MOL0     C62663   1.965   2.124   5.211 -0.1107  0.4077  0.0380
  455MOL0     C62664   2.117   2.127   5.237 -0.1254  0.7589 -0.0095
  455MOL0     C62665   2.143   2.225   5.355 -0.4025  0.5019 -1.0054
  455MOL0     C62666   2.292   2.253   5.367  0.2320 -0.0446 -0.0157
  455MOL0     C62667   2.333   2.325   5.496 -0.6544  0.4738 -0.1885
  455MOL0     C62668   2.287   2.470   5.488  0.8188  0.5702 -0.0712
  455MOL0     N62669   2.275   2.519   5.624 -0.4280 -1.1322  0.1049
  455MOL0     C62670   2.381   2.552   5.709  1.1379 -0.1794 -1.1211
  455MOL0     C62671   2.320   2.621   5.813  0.0402 -0.5342  0.1381
  455MOL0     C62672   2.403   2.700   5.913  0.0170  0.1678 -0.4154
  455MOL0     C62673   2.390   2.853   5.882  0.0081 -0.6036 -0.2747
  455MOL0     C62674   2.504   2.930   5.955  0.5481  0.9488  0.8982
  455MOL0     C62675   2.470   3.073   5.972 -0.2035  0.1112  0.3065
  455MOL0     O62676   2.592   3.136   6.030  0.3233  0.4015 -0.0485
  455MOL0     C62677   2.705   3.140   5.946  1.2448  0.0990 -0.1463
  455MOL0     C62678   2.707   3.128   5.805 -0.2536 -0.4262  0.3810
  455MOL0     C62679   2.823   3.153   5.722 -0.4442  0.1500 -0.5924
  455MOL0     C62680   2.806   3.124   5.577  0.1902  0.1933 -0.2810
  455MOL0     C62681   2.945   3.192   5.787  0.8626  0.6606  0.8080
  455MOL0     C62682   3.074   3.217   5.718  0.5232 -0.0116 -0.6125
  455MOL0     O62683   3.190   3.186   5.787 -1.0031  0.5101  0.2864
  455MOL0     C62684   3.309   3.221   5.743 -0.8069 -0.0662  0.6139
  455MOL0     C62685   3.393   3.125   5.691  0.0638  0.1223  0.0652
  455MOL0     C62686   3.520   3.160   5.635  0.8089  0.4430 -0.5807
  455MOL0     C62687   3.551   3.298   5.620 -0.1666  0.6416 -0.2387
  455MOL0     O62688   3.673   3.324   5.556 -0.5490 -0.3092 -0.4238
  455MOL0     C62689   3.721   3.458   5.583 -0.3235 -0.1357 -0.1121
  455MOL0     C62690   3.869   3.478   5.524 -0.0300  0.8353  0.2182
  455MOL0     C62691   3.960   3.363   5.571 -0.4643  0.0823  0.1558
  455MOL0     C62692   4.095   3.376   5.504 -1.1653 -0.0942  0.0027
  455MOL0     C62693   4.193   3.270   5.553  1.0251  0.4554  0.3968
  455MOL0     C62694   4.343   3.298   5.532  0.6287 -0.1736  0.8976
  455MOL0     C62695   4.411   3.234   5.406  1.5570 -0.2448 -0.6448
  455MOL0     C62696   4.561   3.270   5.400  0.4624  0.1875 -0.2841
  455MOL0    Cl62697   4.651   3.232   5.552  0.1885  0.3836  0.2590
  455MOL0     C62698   3.466   3.390   5.675  0.3316  0.4245  0.2627
  455MOL0     C62699   3.348   3.357   5.734 -0.1906  0.2895  0.3853
  455MOL0     O62700   3.076   3.275   5.611 -0.5576  0.5789 -0.2147
  455MOL0     C62701   2.941   3.207   5.924 -0.8202 -0.1078 -0.6635
  455MOL0     C62702   2.823   3.188   6.003  0.4601 -0.1943 -0.3181
  455MOL0     N62703   2.187   2.630   5.794  0.2351 -0.0841  0.6124
  455MOL0     N62704   2.159   2.576   5.676 -0.2027 -0.0379  0.2084
  455MOL0     C62705   1.497   1.969   5.252 -0.3765 -0.3465  0.5306
  455MOL0     C62706   1.367   2.004   5.226  0.6939  0.3722  0.5767
  455MOL0     C62707   0.965   1.999   4.994 -0.9397  0.8320 -0.1895
  455MOL0     C62708   0.869   1.942   5.078 -0.2685  0.6051  0.9649
  455MOL0     C62709   0.733   1.956   5.043 -1.4716 -1.0711 -0.7847
  455MOL0     C62710   0.701   2.027   4.927 -0.4879  0.3177 -0.3640
  455MOL0     O62711   0.573   2.043   4.878  0.1123  0.0579 -0.3238
  455MOL0     C62712   0.450   1.983   4.924  0.3036 -0.0063 -0.1611
  455MOL0     C62713   0.345   2.068   4.864  0.2717  0.2015 -0.9275
  455MOL0     C62714   0.325   2.042   4.712  0.9024  0.4251 -0.7079
  455MOL0     C62715   0.170   2.030   4.686 -1.3528  0.3700 -0.0489
  455MOL0     C62716   0.091   2.150   4.730 -0.1376  0.2070 -0.2429
  455MOL0     C62717   0.023   2.233   4.780  0.9060 -0.8845 -0.8341
  455MOL0     C62718   0.801   2.098   4.855 -0.5864  0.3547 -0.0589
  455MOL0     C62719   0.933   2.081   4.891 -0.2093  0.9821 -0.2781
  455MOL0     C62720   1.032   2.155   4.801 -0.1004 -0.5010 -0.4070
  455MOL0     H62721   1.373   2.012   4.883  1.3228  3.7711 -0.3314
  455MOL0     H62722   1.599   1.971   4.920  0.3242  1.8666 -0.6007
  455MOL0     H62723   1.787   2.077   5.026  1.1997  0.4798  0.0055
  455MOL0     H62724   1.819   1.909   4.987  2.4927  2.4455 -1.5867
  455MOL0     H62725   1.975   1.911   5.198  0.8989 -0.7151 -1.6175
  455MOL0     H62726   2.036   1.979   5.050 -1.7874 -0.9123 -1.4753
  455MOL0     H62727   1.923   2.201   5.145  1.0355 -0.2662 -1.5462
  455MOL0     H62728   1.909   2.118   5.304 -0.4403 -0.9187 -0.2275
  455MOL0     H62729   2.160   2.035   5.277  1.3730  0.9087 -1.1760
  455MOL0     H62730   2.173   2.145   5.145  1.3049  0.4916  0.7762
  455MOL0     H62731   2.101   2.186   5.449  0.2670  2.4984  0.1917
  455MOL0     H62732   2.100   2.325   5.340  1.3958  1.4257 -0.2893
  455MOL0     H62733   2.352   2.162   5.367  1.1183  0.4557 -2.6092
  455MOL0     H62734   2.332   2.306   5.281  0.6780  1.0265  0.8304
  455MOL0     H62735   2.442   2.320   5.489 -0.6774  0.6597 -0.7543
  455MOL0     H62736   2.289   2.275   5.583  0.2789  0.9385  0.5630
  455MOL0     H62737   2.362   2.527   5.432 -0.1007 -0.7354 -2.7900
  455MOL0     H62738   2.192   2.479   5.435  1.0199  0.2882 -0.4812
  455MOL0     H62739   2.489   2.543   5.705  1.2567 -0.5861  1.2407
  455MOL0     H62740   2.506   2.666   5.903  0.8173  1.5935  2.0947
  455MOL0     H62741   2.360   2.678   6.011 -2.8533  0.4048 -1.5406
  455MOL0     H62742   2.400   2.869   5.774  1.2610 -0.9494 -0.2314
  455MOL0     H62743   2.289   2.887   5.907  0.0905  2.2602 -3.2315
  455MOL0     H62744   2.502   2.889   6.057 -0.9600 -1.3571  0.0315
  455MOL0     H62745   2.602   2.905   5.915 -0.3539  0.5867 -1.2156
  455MOL0     H62746   2.465   3.117   5.872  0.7952 -0.8370 -0.1824
  455MOL0     H62747   2.394   3.110   6.041  0.7302  1.4603  0.6639
  455MOL0     H62748   2.620   3.099   5.747 -0.3206  3.7353 -2.0237
  455MOL0     H62749   2.873   3.043   5.549  1.7682  0.6221  2.0154
  455MOL0     H62750   2.825   3.219   5.526 -0.9116  1.2712  1.2137
  455MOL0     H62751   2.702   3.092   5.566  0.6081 -1.2723 -0.1527
  455MOL0     H62752   3.367   3.020   5.697  2.9422 -0.6089  2.4666
  455MOL0     H62753   3.585   3.080   5.601  0.7800 -0.9704  2.3526
  455MOL0     H62754   3.665   3.541   5.539  0.5642 -0.5298 -2.1000
  455MOL0     H62755   3.711   3.481   5.689  3.2871  3.3281 -0.2807
  455MOL0     H62756   3.861   3.481   5.415 -1.5234 -1.6621  0.1911
  455MOL0     H62757   3.902   3.577   5.558 -2.2104  1.1509  1.6353
  455MOL0     H62758   3.918   3.267   5.540  2.2333 -0.9711 -0.6182
  455MOL0     H62759   3.973   3.355   5.679  1.1483 -1.0555 -0.0684
  455MOL0     H62760   4.126   3.477   5.533  2.0430 -0.7852 -0.6775
  455MOL0     H62761   4.094   3.373   5.394 -1.0028 -2.0101  0.0196
  455MOL0     H62762   4.182   3.253   5.661  1.4670  1.2524  0.5708
  455MOL0     H62763   4.163   3.178   5.501  1.2538 -0.4883  1.8465
  455MOL0     H62764   4.395   3.249   5.615  0.2579  0.9057  1.8006
  455MOL0     H62765   4.352   3.408   5.534  0.4859 -0.0649 -1.6198
  455MOL0     H62766   4.360   3.250   5.310 -1.5973  1.0704  1.1075
  455MOL0     H62767   4.390   3.128   5.421  0.2902 -0.1250 -1.4001
  455MOL0     H62768   4.582   3.374   5.374  0.8384 -0.2187 -1.7157
  455MOL0     H62769   4.613   3.219   5.317 -0.5029  0.4077 -1.0367
  455MOL0     H62770   3.481   3.497   5.687 -1.3789  0.5544  1.7893
  455MOL0     H62771   3.274   3.427   5.770 -1.2575 -0.2881 -0.5834
  455MOL0     H62772   3.030   3.241   5.976 -0.3780  0.1878 -1.5854
  455MOL0     H62773   2.827   3.188   6.112  0.9353 -3.9167 -0.1755
  455MOL0     H62774   1.541   1.955   5.351  1.3562  0.1370 -0.1294
  455MOL0     H62775   1.297   1.993   5.307 -0.7249  1.6893 -0.4264
  455MOL0     H62776   0.884   1.878   5.165 -2.3135 -1.6237 -0.1813
  455MOL0     H62777   0.657   1.898   5.095 -0.9819 -0.7104  0.3574
  455MOL0     H62778   0.460   1.875   4.909  0.9760  0.0774 -0.3929
  455MOL0     H62779   0.429   1.994   5.031 -3.0337 -0.7575 -0.6345
  455MOL0     H62780   0.356   2.174   4.887  0.2821  0.2559 -1.1843
  455MOL0     H62781   0.258   2.024   4.914  1.7358 -1.3901  0.3639
  455MOL0     H62782   0.376   2.126   4.665  0.8233  0.8249 -0.0955
  455MOL0     H62783   0.384   1.953   4.690 -1.1905 -1.8363  2.1191
  455MOL0     H62784   0.126   1.941   4.731  0.4812 -0.7707 -0.4588
  455MOL0     H62785   0.174   2.026   4.577  1.7302 -1.2137  0.0410
  455MOL0     H62786  -0.022   2.318   4.829  1.5633 -1.2378  0.4054
  455MOL0     H62787   0.782   2.161   4.769 -0.9013  0.8707  0.3855
  455MOL0     H62788   1.136   2.142   4.833 -0.1551  1.5582  0.8454
  455MOL0     H62789   1.029   2.121   4.698  2.3196  1.4160 -1.2180
  455MOL0     H62790   1.005   2.261   4.797  0.6913 -0.3376 -2.0981
  456MOL0     O62791  10.303   9.628   2.753 -0.8873 -0.1332 -0.0074
  456MOL0     C62792  10.276   9.736   2.698 -0.5772 -0.6082  0.4821
  456MOL0     O62793  10.363   9.814   2.626 -0.3182  0.0077 -0.8326
  456MOL0     C62794  10.480   9.752   2.590 -0.2616  0.8499 -0.3581
  456MOL0     C62795  10.593   9.777   2.671 -0.1994  0.5309 -1.0064
  456MOL0     C62796  10.715   9.730   2.637 -0.1344 -0.3809 -0.6576
  456MOL0     C62797  10.734   9.669   2.514 -0.8730  0.1662  0.3529
  456MOL0     O62798  10.861   9.631   2.483  0.4338  0.5777  0.0083
  456MOL0     C62799  10.871   9.499   2.542  0.2580  0.3575 -1.0588
  456MOL0     C62800  11.014   9.454   2.538 -0.0900  0.3336  0.7663
  456MOL0     C62801  11.057   9.426   2.390  0.0287 -0.1406 -0.5739
  456MOL0     C62802  11.206   9.384   2.397  0.2696 -0.6732  0.6433
  456MOL0     C62803  11.265   9.361   2.262 -0.2076  0.0042  0.9644
  456MOL0     C62804  11.324   9.491   2.197  0.2111 -0.1256  0.0528
  456MOL0     C62805  11.380   9.467   2.049  0.3883  0.4102 -0.4069
  456MOL0     C62806  11.472   9.583   2.013 -0.8409  0.3005 -0.0867
  456MOL0     N62807  11.567   9.547   1.903  0.1410 -0.0219  0.1873
  456MOL0     C62808  11.557   9.604   1.782 -0.5048  0.4638 -0.8443
  456MOL0     C62809  11.666   9.559   1.715  0.0775  0.1907  0.4535
  456MOL0     C62810  11.706   9.594   1.576  0.6170 -0.1015 -0.4709
  456MOL0     C62811  11.831   9.528   1.533  0.2988 -0.0901 -0.8256
  456MOL0     C62812  11.850   9.536   1.389  0.6517 -0.4724  0.8232
  456MOL0     C62813  11.814   9.661   1.317  0.2122 -0.9951  0.0818
  456MOL0     O62814  11.889   9.764   1.389 -0.4818 -0.4579  0.2293
  456MOL0     C62815  11.901   9.884   1.327 -0.2200 -0.6479  1.0060
  456MOL0     C62816  11.809   9.938   1.234  0.1932 -0.1085  0.4777
  456MOL0     C62817  11.824  10.062   1.177  0.3322 -0.5960  0.7630
  456MOL0     C62818  11.711  10.117   1.083  0.2485  0.0613  0.7761
  456MOL0     C62819  11.940  10.141   1.209  0.0420 -0.7018 -0.9241
  456MOL0     C62820  11.981  10.268   1.141  0.5136 -0.7817 -0.3587
  456MOL0     O62821  11.936  10.289   1.015 -0.6124 -0.4323 -0.4071
  456MOL0     C62822  11.976  10.396   0.941 -0.6044 -0.8826 -0.2683
  456MOL0     C62823  12.063  10.500   0.977 -0.2700  0.6222  0.8355
  456MOL0     C62824  12.083  10.607   0.888 -0.5735  0.3345  0.4007
  456MOL0     C62825  12.027  10.602   0.756  0.5382  0.1703  0.2069
  456MOL0     O62826  12.036  10.701   0.663  0.2792  0.0758 -0.4729
  456MOL0     C62827  12.110  10.809   0.709  0.8175  0.5061  0.3720
  456MOL0     C62828  12.258  10.800   0.664 -0.2265  0.0555  0.6409
  456MOL0     C62829  12.342  10.905   0.729  0.3414 -0.6365  0.2145
  456MOL0     C62830  12.493  10.919   0.670 -0.6774  0.0731 -0.0676
  456MOL0     C62831  12.578  11.012   0.755 -0.1516  0.6283 -0.5751
  456MOL0     C62832  12.519  11.144   0.769 -0.2855 -0.5260  0.1685
  456MOL0     C62833  12.609  11.239   0.851 -0.7734 -0.1386 -0.3156
  456MOL0     C62834  12.566  11.381   0.828 -0.5658  0.4335  0.1779
  456MOL0    Cl62835  12.448  11.433   0.951 -0.0848  0.1843 -0.0410
  456MOL0     C62836  11.942  10.494   0.719 -0.8845 -0.4484  0.0294
  456MOL0     C62837  11.912  10.396   0.819 -0.8101  0.4817 -0.1460
  456MOL0     O62838  12.044  10.347   1.213  0.4759 -0.0933  0.5319
  456MOL0     C62839  12.026  10.091   1.306 -0.4171  0.1843  1.1641
  456MOL0     C62840  12.017   9.960   1.361  0.4013 -0.3051 -0.0475
  456MOL0     N62841  11.737   9.471   1.802 -0.4432 -0.1797  0.9620
  456MOL0     N62842  11.674   9.466   1.914 -0.6425  0.5504  0.7124
  456MOL0     C62843  10.625   9.643   2.435  0.1447 -0.4804  0.1001
  456MOL0     C62844  10.498   9.681   2.472 -0.1360 -0.2271  0.1719
  456MOL0     C62845  10.141   9.802   2.724 -0.2596 -0.0398 -0.4981
  456MOL0     C62846  10.088   9.873   2.612 -0.6323  0.1700 -0.3023
  456MOL0     C62847   9.964   9.927   2.620 -0.1236  0.3086 -0.2443
  456MOL0     C62848   9.893   9.910   2.739  0.5212 -0.1734 -0.1920
  456MOL0     O62849   9.782   9.982   2.753  0.3367  0.0910 -0.6142
  456MOL0     C62850   9.674   9.940   2.851 -0.1650  0.0917  0.0726
  456MOL0     C62851   9.544  10.019   2.831  0.2288 -0.9160 -0.1663
  456MOL0     C62852   9.524  10.066   2.685  0.1874 -0.3909  1.0321
  456MOL0     C62853   9.390  10.118   2.667  0.6101 -0.0436  0.9753
  456MOL0     C62854   9.355  10.246   2.738  0.5601  0.3707 -1.3733
  456MOL0     C62855   9.327  10.348   2.800 -0.8894 -1.9180  0.2368
  456MOL0     C62856   9.935   9.839   2.849 -0.5098 -0.3485 -0.0716
  456MOL0     C62857  10.066   9.790   2.843  0.3207  1.7888 -0.0978
  456MOL0     C62858  10.119   9.724   2.966 -0.4831 -0.0206 -0.2512
  456MOL0     H62859  10.584   9.843   2.757  0.9419  1.2951 -1.4479
  456MOL0     H62860  10.803   9.754   2.696 -0.1025 -0.3258 -0.7275
  456MOL0     H62861  10.807   9.425   2.493  2.0567 -0.8606 -1.6627
  456MOL0     H62862  10.845   9.501   2.648 -0.5015  0.3560 -1.2373
  456MOL0     H62863  11.076   9.535   2.577  2.3254 -0.0496 -1.8836
  456MOL0     H62864  11.034   9.378   2.613 -1.6401 -0.0299  0.8375
  456MOL0     H62865  10.994   9.346   2.348 -0.4747 -1.0870  1.8243
  456MOL0     H62866  11.055   9.522   2.339  0.7750  0.2314  0.0800
  456MOL0     H62867  11.256   9.457   2.460 -3.4469  2.3346  0.4967
  456MOL0     H62868  11.212   9.287   2.446  2.2031 -0.1458  1.5381
  456MOL0     H62869  11.190   9.328   2.189 -0.3132 -2.3270  2.0319
  456MOL0     H62870  11.347   9.288   2.268  1.3141  1.5790  0.2934
  456MOL0     H62871  11.245   9.566   2.189  1.5827  1.3808  0.1399
  456MOL0     H62872  11.406   9.526   2.261 -1.0910  0.6604  1.3636
  456MOL0     H62873  11.294   9.454   1.983 -0.4406  1.3070  0.4611
  456MOL0     H62874  11.430   9.371   2.037 -1.9348 -1.3052  2.4187
  456MOL0     H62875  11.422   9.680   2.009  1.2014  1.5700  2.1224
  456MOL0     H62876  11.537   9.600   2.099  0.2972  1.7751 -1.1718
  456MOL0     H62877  11.483   9.675   1.746 -1.6472 -1.4089 -2.4310
  456MOL0     H62878  11.729   9.701   1.572 -2.3262  0.5782 -1.3498
  456MOL0     H62879  11.632   9.560   1.502  1.2268  1.4401 -1.8480
  456MOL0     H62880  11.920   9.575   1.576 -0.2786 -0.6430  1.1154
  456MOL0     H62881  11.829   9.423   1.566  0.1704 -0.1276 -0.9515
  456MOL0     H62882  11.957   9.519   1.371  0.5131 -2.0132  1.3499
  456MOL0     H62883  11.794   9.453   1.346 -0.9170  0.2225  1.4642
  456MOL0     H62884  11.852   9.664   1.215  1.1609 -1.3445  0.4111
  456MOL0     H62885  11.706   9.679   1.323  0.1281 -0.3769 -2.3477
  456MOL0     H62886  11.720   9.881   1.209  0.5280  0.1888 -1.5199
  456MOL0     H62887  11.613  10.103   1.129  0.1780 -0.5598  0.4563
  456MOL0     H62888  11.708  10.061   0.989  0.1356 -0.6343  1.1849
  456MOL0     H62889  11.726  10.221   1.055 -1.6389 -0.0259 -0.7283
  456MOL0     H62890  12.110  10.515   1.073  1.2091  0.4297  0.1799
  456MOL0     H62891  12.154  10.680   0.926  0.1221 -0.7713  1.2807
  456MOL0     H62892  12.062  10.891   0.654  0.5235  0.0255 -0.0978
  456MOL0     H62893  12.096  10.846   0.811  2.2346  3.3083 -0.3238
  456MOL0     H62894  12.289  10.703   0.703 -2.8476 -1.0999  0.0478
  456MOL0     H62895  12.263  10.805   0.555  0.4359 -1.7957  0.5640
  456MOL0     H62896  12.354  10.876   0.834 -0.1869 -0.9473  0.1915
  456MOL0     H62897  12.295  11.003   0.719 -0.0822 -0.8747 -0.1823
  456MOL0     H62898  12.481  10.947   0.565  0.3475  0.2135 -0.1538
  456MOL0     H62899  12.549  10.825   0.674  0.3506  0.6019 -1.3791
  456MOL0     H62900  12.581  10.964   0.853 -2.6275 -2.1387 -1.7195
  456MOL0     H62901  12.679  11.019   0.715  0.3115  1.7015  0.6862
  456MOL0     H62902  12.420  11.150   0.815 -0.9212  2.9136 -1.3369
  456MOL0     H62903  12.501  11.179   0.667  0.5815 -2.2907 -0.6259
  456MOL0     H62904  12.712  11.235   0.814 -0.0599 -1.7234  1.6349
  456MOL0     H62905  12.611  11.212   0.957  1.5015 -0.0950 -0.2855
  456MOL0     H62906  12.530  11.406   0.728  0.1314 -2.3791 -0.8528
  456MOL0     H62907  12.651  11.449   0.838 -0.2146  0.1744 -0.9010
  456MOL0     H62908  11.904  10.481   0.618  1.0053 -2.4627 -0.4913
  456MOL0     H62909  11.854  10.309   0.788  2.2329 -1.0662 -2.0312
  456MOL0     H62910  12.113  10.151   1.334  0.6724 -1.3243  1.1288
  456MOL0     H62911  12.068   9.914   1.444 -0.1584 -2.0157 -0.6181
  456MOL0     H62912  10.639   9.597   2.338 -1.4210 -2.8176  0.8844
  456MOL0     H62913  10.422   9.663   2.397  1.5448 -2.5310 -1.0731
  456MOL0     H62914  10.132   9.889   2.514 -0.3760 -0.9080 -0.3692
  456MOL0     H62915   9.919   9.985   2.539 -1.4511  0.9519  0.9113
  456MOL0     H62916   9.658   9.832   2.847  3.0233 -0.5581  1.4905
  456MOL0     H62917   9.708   9.966   2.952  0.9416 -1.8958  0.2769
  456MOL0     H62918   9.530  10.097   2.906  1.7013  3.3406 -3.8753
  456MOL0     H62919   9.465   9.944   2.846 -1.5707  1.1171  1.1300
  456MOL0     H62920   9.599  10.142   2.663 -0.7787  0.1772 -0.4659
  456MOL0     H62921   9.534   9.980   2.619 -1.3945  0.3754 -0.2868
  456MOL0     H62922   9.321  10.034   2.682  1.0676 -0.8078 -1.0012
  456MOL0     H62923   9.388  10.132   2.559  0.0071 -3.0783  0.5028
  456MOL0     H62924   9.295  10.434   2.855 -1.0580 -0.7736 -1.5683
  456MOL0     H62925   9.877   9.817   2.937 -2.7704 -1.8119 -1.8071
  456MOL0     H62926  10.224   9.753   2.969  0.0039 -1.4766 -1.8983
  456MOL0     H62927  10.074   9.768   3.056  0.2708 -0.8679  0.5588
  456MOL0     H62928  10.100   9.617   2.970 -2.8602  0.3671  0.4498
  457MOL0     O62929   9.762  11.212   1.717  0.4405 -1.0904 -0.0241
  457MOL0     C62930   9.684  11.265   1.800  1.3632 -0.0973 -0.4695
  457MOL0     O62931   9.705  11.362   1.882  0.0423  0.1885 -0.1894
  457MOL0     C62932   9.829  11.420   1.881 -0.0640  1.3451  0.0821
  457MOL0     C62933   9.855  11.529   1.797 -0.3625  0.1088  0.2101
  457MOL0     C62934   9.974  11.587   1.791 -1.4823  0.0315 -0.6237
  457MOL0     C62935  10.077  11.537   1.875 -0.3918 -0.2691  0.3449
  457MOL0     O62936  10.199  11.591   1.881 -0.3622  0.1162 -0.2210
  457MOL0     C62937  10.252  11.695   1.804 -0.7220 -0.8944  0.7579
  457MOL0     C62938  10.403  11.672   1.802  0.0307  0.0599 -0.4199
  457MOL0     C62939  10.466  11.682   1.944 -0.4669  0.0928 -0.6660
  457MOL0     C62940  10.612  11.642   1.950  0.8430  0.0890 -0.5753
  457MOL0     C62941  10.670  11.651   2.090  0.2381 -0.5361 -0.1137
  457MOL0     C62942  10.636  11.777   2.180  0.1562  0.5123 -0.4653
  457MOL0     C62943  10.730  11.890   2.171 -0.3771  0.1024  0.3521
  457MOL0     C62944  10.867  11.866   2.241  0.7535 -0.5690  0.2870
  457MOL0     N62945  10.964  11.956   2.187 -0.0519  0.4439 -0.6509
  457MOL0     C62946  10.941  12.083   2.144  0.5612  0.6583 -0.0126
  457MOL0     C62947  11.054  12.128   2.091  0.2069 -0.2982 -0.0744
  457MOL0     C62948  11.085  12.266   2.028  0.3567 -0.0560  0.0040
  457MOL0     C62949  11.160  12.355   2.131 -0.6469 -0.7340 -0.0473
  457MOL0     C62950  11.307  12.294   2.160  0.5796  0.1563  0.4881
  457MOL0     C62951  11.381  12.387   2.254  0.2812 -1.0285  0.3826
  457MOL0     O62952  11.422  12.514   2.190  0.1513 -0.3741  0.1113
  457MOL0     C62953  11.532  12.584   2.237  1.1550 -0.0289 -0.3907
  457MOL0     C62954  11.587  12.580   2.370 -1.1497 -0.9874 -0.6009
  457MOL0     C62955  11.688  12.657   2.425 -0.0464  0.1345  0.2409
  457MOL0     C62956  11.729  12.634   2.572 -0.0231 -0.1855  0.7195
  457MOL0     C62957  11.753  12.747   2.333  0.1739 -1.3459 -0.6734
  457MOL0     C62958  11.886  12.816   2.356  0.5704  0.2767  0.6509
  457MOL0     O62959  11.971  12.761   2.457  0.1341 -0.6807 -0.2658
  457MOL0     C62960  12.101  12.804   2.451  0.2199  0.2978 -0.7689
  457MOL0     C62961  12.185  12.771   2.346  0.1224  0.4246 -0.2425
  457MOL0     C62962  12.317  12.814   2.334  0.0879  0.0998  0.5537
  457MOL0     C62963  12.373  12.883   2.436  0.5846 -0.1592 -0.0717
  457MOL0     O62964  12.502  12.912   2.417  0.0325 -0.4777  0.0126
  457MOL0     C62965  12.561  13.011   2.514  0.7049  0.7497 -0.2862
  457MOL0     C62966  12.710  13.023   2.473  0.7854 -0.8918 -0.0146
  457MOL0     C62967  12.779  13.105   2.582  0.3911 -0.0395 -0.5767
  457MOL0     C62968  12.920  13.145   2.534  0.2860  0.1557  0.1381
  457MOL0     C62969  13.002  13.208   2.651 -0.3646 -1.1688 -0.0344
  457MOL0     C62970  13.127  13.291   2.600 -0.9020 -0.1157  0.2433
  457MOL0     C62971  13.081  13.415   2.524  0.2923  0.3276  0.4423
  457MOL0     C62972  13.187  13.495   2.457 -0.3962 -0.2687  0.7474
  457MOL0    Cl62973  13.333  13.535   2.550 -0.2312 -0.1774 -0.1927
  457MOL0     C62974  12.290  12.915   2.551 -0.9405 -1.0463 -0.0602
  457MOL0     C62975  12.154  12.879   2.559  1.0120  0.1239  0.4789
  457MOL0     O62976  11.917  12.905   2.270  1.1574  0.2829  0.4819
  457MOL0     C62977  11.692  12.757   2.203 -0.2853 -0.8318  0.0944
  457MOL0     C62978  11.590  12.675   2.155  0.9424  0.3382  0.4045
  457MOL0     N62979  11.142  12.018   2.092 -0.1171 -0.6058 -0.4778
  457MOL0     N62980  11.088  11.912   2.152 -0.6780  0.7101 -0.0484
  457MOL0     C62981  10.052  11.433   1.966  1.4186 -0.2702  0.6149
  457MOL0     C62982   9.924  11.382   1.969 -0.2468  0.4768 -0.5021
  457MOL0     C62983   9.534  11.231   1.802  0.6897 -0.3653 -0.6313
  457MOL0     C62984   9.449  11.248   1.689 -0.0452 -0.1556 -0.2178
  457MOL0     C62985   9.315  11.214   1.696  0.7463  1.0122 -0.8895
  457MOL0     C62986   9.255  11.181   1.811  0.3872  0.7040 -0.1316
  457MOL0     O62987   9.128  11.135   1.791  0.3167  0.3481  0.2343
  457MOL0     C62988   9.090  10.994   1.800 -0.2353  0.0066  0.1887
  457MOL0     C62989   8.964  10.965   1.882 -0.1006  0.0013  0.2477
  457MOL0     C62990   8.839  11.034   1.837 -0.0836  0.0897  0.6309
  457MOL0     C62991   8.711  10.957   1.858  0.7226  0.2924  0.2505
  457MOL0     C62992   8.656  11.001   1.984  0.8680 -0.0248  0.5489
  457MOL0     C62993   8.600  11.017   2.091  0.3285  0.4424  0.0067
  457MOL0     C62994   9.334  11.155   1.924 -0.5479 -0.5519  0.2004
  457MOL0     C62995   9.475  11.179   1.924 -0.2509  0.5141 -0.1914
  457MOL0     C62996   9.564  11.159   2.038  0.1731 -0.1236  0.1275
  457MOL0     H62997   9.772  11.581   1.751 -3.7938 -1.6334  3.8503
  457MOL0     H62998   9.993  11.679   1.738 -1.9833  1.6274  1.8103
  457MOL0     H62999  10.224  11.786   1.859  0.0584 -0.5507  0.5916
  457MOL0     H63000  10.214  11.695   1.701 -1.7554 -0.5710  1.1251
  457MOL0     H63001  10.420  11.575   1.756  0.9102 -0.0181  0.0525
  457MOL0     H63002  10.454  11.750   1.745 -0.2425 -0.9959 -2.1791
  457MOL0     H63003  10.465  11.788   1.972  0.1097 -0.0022 -0.2729
  457MOL0     H63004  10.412  11.624   2.020  0.1376  0.5940  0.1662
  457MOL0     H63005  10.627  11.544   1.904  2.8147 -0.2183  0.5759
  457MOL0     H63006  10.670  11.712   1.889 -1.3456  4.1101  1.5374
  457MOL0     H63007  10.778  11.637   2.082  0.6928  2.9282 -2.2075
  457MOL0     H63008  10.622  11.562   2.133 -2.9946  1.0324 -0.2025
  457MOL0     H63009  10.538  11.817   2.154 -1.7321 -1.7066  2.5959
  457MOL0     H63010  10.621  11.747   2.284  1.0604  2.7985  0.3938
  457MOL0     H63011  10.681  11.982   2.204  1.8841  1.7089 -0.5191
  457MOL0     H63012  10.752  11.902   2.065 -1.2729 -1.3176 -0.0252
  457MOL0     H63013  10.852  11.896   2.345  0.1231  0.2747 -0.0322
  457MOL0     H63014  10.907  11.765   2.228  2.8906  0.5245 -2.6506
  457MOL0     H63015  10.854  12.141   2.175 -0.4760 -0.1871 -1.1996
  457MOL0     H63016  10.989  12.311   2.001  1.1616  0.5602 -1.9779
  457MOL0     H63017  11.134  12.248   1.932  1.3513  0.9127  0.3213
  457MOL0     H63018  11.170  12.461   2.105 -2.9053 -0.2940  0.6828
  457MOL0     H63019  11.118  12.347   2.232  0.9701  0.1890  0.7526
  457MOL0     H63020  11.312  12.201   2.219  1.5786 -0.0732  0.0510
  457MOL0     H63021  11.361  12.284   2.066  1.2169  2.9948  0.4712
  457MOL0     H63022  11.315  12.407   2.339  0.2437 -0.1670  0.1648
  457MOL0     H63023  11.470  12.331   2.284  0.9172 -1.9011 -2.7458
  457MOL0     H63024  11.538  12.520   2.446  0.6087  1.9625  3.1866
  457MOL0     H63025  11.657  12.575   2.629  1.2653  0.0260  2.6361
  457MOL0     H63026  11.725  12.732   2.621  2.3357  0.7826 -0.8464
  457MOL0     H63027  11.828  12.589   2.579  0.0483 -0.0540  0.5617
  457MOL0     H63028  12.134  12.720   2.265  0.0716  1.7072 -1.0362
  457MOL0     H63029  12.375  12.790   2.246 -0.4543  3.6631 -0.9279
  457MOL0     H63030  12.509  13.107   2.516 -6.2928 -2.4141  1.2659
  457MOL0     H63031  12.554  12.971   2.615  1.8485  2.0464  0.3371
  457MOL0     H63032  12.751  12.924   2.452 -0.6309 -1.0399 -2.4237
  457MOL0     H63033  12.719  13.075   2.377 -1.3711 -0.7181 -0.1836
  457MOL0     H63034  12.785  13.044   2.673 -2.4332 -0.9913 -0.9247
  457MOL0     H63035  12.722  13.194   2.612 -2.2801 -2.1277  0.9518
  457MOL0     H63036  12.901  13.220   2.456  2.1642 -0.3040 -0.8283
  457MOL0     H63037  12.964  13.051   2.499 -3.5469 -2.2285  1.0642
  457MOL0     H63038  12.933  13.279   2.698 -1.2016  0.6590 -3.6878
  457MOL0     H63039  13.025  13.140   2.733 -0.5053  0.5760  1.5038
  457MOL0     H63040  13.195  13.223   2.548 -0.0041 -0.4116  1.7306
  457MOL0     H63041  13.177  13.326   2.691 -0.1501  0.8370 -0.5247
  457MOL0     H63042  13.022  13.477   2.592  0.9934  2.4442 -0.7495
  457MOL0     H63043  13.005  13.398   2.448 -0.0696  1.8027  0.4410
  457MOL0     H63044  13.140  13.579   2.406 -2.7669 -0.6957  2.0751
  457MOL0     H63045  13.233  13.434   2.379  0.7093  0.6964  0.6106
  457MOL0     H63046  12.332  12.976   2.630 -1.4379 -1.7712  0.7916
  457MOL0     H63047  12.091  12.903   2.644 -0.5908 -1.2388 -0.2613
  457MOL0     H63048  11.741  12.818   2.127 -0.6131 -0.8065 -0.1022
  457MOL0     H63049  11.549  12.686   2.055 -0.5967  0.2044  1.0015
  457MOL0     H63050  10.137  11.397   2.025  2.1438  2.1543  1.1778
  457MOL0     H63051   9.908  11.295   2.032  1.1065  1.0100  0.6130
  457MOL0     H63052   9.492  11.264   1.591  1.7398  0.9532  0.6729
  457MOL0     H63053   9.255  11.206   1.605 -0.7507 -1.2746  0.1857
  457MOL0     H63054   9.080  10.970   1.694 -0.8373  0.8960  0.0394
  457MOL0     H63055   9.175  10.941   1.844  0.3072  1.4992  1.0171
  457MOL0     H63056   8.982  10.997   1.985 -0.0327 -1.3712  0.6741
  457MOL0     H63057   8.948  10.857   1.890  1.6183 -0.5289 -2.3873
  457MOL0     H63058   8.837  11.135   1.878  0.0924  0.8193 -1.0612
  457MOL0     H63059   8.855  11.047   1.729 -1.3092  4.5899  0.8160
  457MOL0     H63060   8.711  10.848   1.848 -1.7163  0.3104 -0.4620
  457MOL0     H63061   8.644  10.985   1.776  0.6400 -0.4257  0.0693
  457MOL0     H63062   8.565  11.035   2.190  0.3945 -3.9303  1.0120
  457MOL0     H63063   9.283  11.109   2.008  2.0549 -1.0891  1.6179
  457MOL0     H63064   9.661  11.113   2.013  0.4142  0.1688  0.5235
  457MOL0     H63065   9.580  11.255   2.087  3.1705  1.1287 -2.9457
  457MOL0     H63066   9.521  11.087   2.109  2.4874  1.4246  3.3889
  458MOL0     O63067  10.911   0.855   6.022 -0.1080  0.4752  0.3296
  458MOL0     C63068  10.798   0.814   6.000 -0.0868 -0.4263  0.8505
  458MOL0     O63069  10.768   0.711   5.920  0.9888 -0.8589 -0.4393
  458MOL0     C63070  10.856   0.612   5.929 -0.8466  0.5715  0.1820
  458MOL0     C63071  10.903   0.551   6.042  0.6399  0.3451 -0.1406
  458MOL0     C63072  11.009   0.468   6.038  0.0269  0.8425  0.4297
  458MOL0     C63073  11.060   0.416   5.915  0.4439  0.3858  0.7706
  458MOL0     O63074  11.164   0.327   5.905 -0.2995 -0.1397  1.2354
  458MOL0     C63075  11.217   0.272   6.027 -0.0855 -0.1494 -0.1738
  458MOL0     C63076  11.333   0.177   5.996  0.0768  0.0650  0.4506
  458MOL0     C63077  11.384   0.105   6.125 -0.1505 -0.5790  0.3947
  458MOL0     C63078  11.522   0.036   6.083 -0.5826  0.1747  0.7853
  458MOL0     C63079  11.580  -0.039   6.203 -0.0571  0.4859 -0.5087
  458MOL0     C63080  11.723  -0.092   6.179  0.4154  0.3201 -0.8934
  458MOL0     C63081  11.785  -0.158   6.305  0.9678  0.1353  0.5125
  458MOL0     C63082  11.753  -0.308   6.308 -0.1472 -0.3179  0.6165
  458MOL0     N63083  11.763  -0.363   6.445 -0.0542  0.3937  0.3077
  458MOL0     C63084  11.849  -0.460   6.478  0.1107 -0.6616  0.8703
  458MOL0     C63085  11.799  -0.515   6.586  0.1617 -0.1843 -0.3970
  458MOL0     C63086  11.857  -0.645   6.639  0.5051 -0.3500 -0.1664
  458MOL0     C63087  11.991  -0.632   6.699  0.2590 -0.0011 -0.8525
  458MOL0     C63088  12.068  -0.762   6.677 -0.3732  0.9754  0.7607
  458MOL0     C63089  12.203  -0.766   6.758  0.4548 -0.6534  0.3996
  458MOL0     O63090  12.282  -0.658   6.708 -0.0564 -0.4246 -0.3295
  458MOL0     C63091  12.397  -0.624   6.778  0.1450  0.6143 -0.3614
  458MOL0     C63092  12.462  -0.710   6.865 -0.6085 -0.4272  0.7341
  458MOL0     C63093  12.577  -0.681   6.936  0.1482  0.0421 -0.6903
  458MOL0     C63094  12.642  -0.785   7.029 -0.6398  0.8555  0.3593
  458MOL0     C63095  12.631  -0.556   6.916  0.0840  0.2999  0.1861
  458MOL0     C63096  12.755  -0.504   6.985  0.2459 -0.2474 -0.1744
  458MOL0     O63097  12.812  -0.407   6.921 -0.5236 -0.1573  0.1673
  458MOL0     C63098  12.899  -0.327   6.985  0.2928  0.8029 -0.8035
  458MOL0     C63099  12.889  -0.193   6.965 -0.2802  1.0468 -0.5535
  458MOL0     C63100  12.988  -0.109   7.020 -0.2757  0.4205  0.8836
  458MOL0     C63101  13.085  -0.162   7.112  0.6867 -0.2522 -0.1756
  458MOL0     O63102  13.176  -0.077   7.177 -0.3314  0.3471 -0.0601
  458MOL0     C63103  13.173   0.066   7.166  0.5688  0.4043 -0.1815
  458MOL0     C63104  13.258   0.148   7.265 -0.0902  0.0210  0.7386
  458MOL0     C63105  13.415   0.156   7.230  1.0054  0.7250  0.0555
  458MOL0     C63106  13.494   0.249   7.326 -0.0933  0.2298 -0.0031
  458MOL0     C63107  13.625   0.272   7.269 -0.2147  0.2473  0.5086
  458MOL0     C63108  13.730   0.171   7.337 -0.3987 -0.2881 -0.3889
  458MOL0     C63109  13.868   0.177   7.260  0.9283 -1.2724 -0.0189
  458MOL0     C63110  13.940   0.313   7.272 -0.3125  0.2205 -0.8012
  458MOL0    Cl63111  14.103   0.296   7.197 -0.1332 -0.0016  0.4375
  458MOL0     C63112  13.097  -0.296   7.132 -0.2029 -0.3782 -0.2066
  458MOL0     C63113  13.012  -0.375   7.064  0.0114 -0.7789 -0.0278
  458MOL0     O63114  12.785  -0.553   7.096 -0.6638  0.0461  0.4415
  458MOL0     C63115  12.574  -0.467   6.813 -0.3057  0.0204  0.0206
  458MOL0     C63116  12.454  -0.497   6.755  0.0750 -0.8695 -0.7063
  458MOL0     N63117  11.673  -0.458   6.622 -1.0528 -0.5070  0.3099
  458MOL0     N63118  11.646  -0.380   6.520 -0.6182 -0.4736 -0.1798
  458MOL0     C63119  11.013   0.462   5.795 -0.7954  0.1490 -0.7378
  458MOL0     C63120  10.912   0.555   5.811  0.0250  0.1009 -0.1236
  458MOL0     C63121  10.685   0.876   6.070  0.2454  0.3330 -1.6023
  458MOL0     C63122  10.561   0.803   6.069 -0.5939  0.2869  0.3087
  458MOL0     C63123  10.444   0.859   6.116  0.3810  0.3716 -0.7496
  458MOL0     C63124  10.449   0.977   6.194 -0.3807 -0.2815 -0.1342
  458MOL0     O63125  10.338   1.036   6.247 -0.2542  0.0801  0.1668
  458MOL0     C63126  10.214   0.971   6.209  0.5086 -0.6609 -0.5456
  458MOL0     C63127  10.108   1.053   6.285  0.3521 -0.6209  0.1939
  458MOL0     C63128  10.076   0.988   6.424 -0.0177  0.0436 -0.8602
  458MOL0     C63129   9.999   1.075   6.517 -0.0418  0.7709  0.6216
  458MOL0     C63130   9.857   1.094   6.472  0.1219 -0.5094  0.5070
  458MOL0     C63131   9.740   1.112   6.446  0.5216 -0.5984  0.2159
  458MOL0     C63132  10.568   1.046   6.202 -0.3748 -0.5903 -0.1519
  458MOL0     C63133  10.685   1.002   6.141  0.0535  0.6661 -0.8774
  458MOL0     C63134  10.796   1.100   6.130 -0.1447  0.4682  0.4621
  458MOL0     H63135  10.863   0.574   6.140 -2.8821  0.4710 -1.4554
  458MOL0     H63136  11.050   0.437   6.133  0.9033  0.2476 -0.1359
  458MOL0     H63137  11.141   0.226   6.090 -0.9801  1.1988 -0.2220
  458MOL0     H63138  11.255   0.348   6.096 -1.3161  0.7155 -0.4112
  458MOL0     H63139  11.292   0.097   5.934  2.9610 -0.9884 -0.2148
  458MOL0     H63140  11.418   0.223   5.946  0.0362  1.4579  1.5834
  458MOL0     H63141  11.402   0.176   6.207 -1.0675 -3.1684  2.9996
  458MOL0     H63142  11.306   0.038   6.161  0.5370 -1.1468  0.8581
  458MOL0     H63143  11.499  -0.022   5.994 -1.2784  1.2358  0.2550
  458MOL0     H63144  11.595   0.112   6.054  0.9493 -1.5041  0.0371
  458MOL0     H63145  11.508  -0.120   6.217 -0.1225  0.9060  2.0961
  458MOL0     H63146  11.570   0.026   6.291 -1.1388  2.8233 -2.2513
  458MOL0     H63147  11.733  -0.161   6.094 -0.3054  0.6839 -1.2809
  458MOL0     H63148  11.783  -0.011   6.138 -0.6559  2.6484  1.8322
  458MOL0     H63149  11.772  -0.101   6.397  1.7517 -0.1113  0.7838
  458MOL0     H63150  11.893  -0.154   6.292  0.8152 -0.6183 -1.2505
  458MOL0     H63151  11.651  -0.332   6.276 -0.7102 -1.0130  2.7869
  458MOL0     H63152  11.829  -0.360   6.248  1.0573  1.4186  0.5499
  458MOL0     H63153  11.948  -0.466   6.434  0.2612 -1.4977  1.3094
  458MOL0     H63154  11.853  -0.706   6.548 -1.4968  2.2993 -2.0104
  458MOL0     H63155  11.793  -0.701   6.707  0.8830 -2.2929 -1.3034
  458MOL0     H63156  12.045  -0.550   6.651 -0.8824  2.4713  1.8386
  458MOL0     H63157  11.992  -0.625   6.808  1.3846  3.0381 -0.9779
  458MOL0     H63158  12.015  -0.855   6.702 -2.5110  2.3460  1.6414
  458MOL0     H63159  12.083  -0.769   6.569 -0.3042 -2.5142  0.8859
  458MOL0     H63160  12.190  -0.761   6.867  2.0876 -1.8083  0.6853
  458MOL0     H63161  12.255  -0.862   6.747  1.4797  0.0971 -1.9054
  458MOL0     H63162  12.431  -0.813   6.881  0.0931 -0.8118 -0.2366
  458MOL0     H63163  12.748  -0.800   7.007 -0.5228 -0.2406  1.5348
  458MOL0     H63164  12.593  -0.882   7.018 -1.2043  1.3139 -1.6123
  458MOL0     H63165  12.633  -0.754   7.133  1.6654 -0.3603  0.9866
  458MOL0     H63166  12.803  -0.154   6.910 -0.7401  2.2922  0.9993
  458MOL0     H63167  12.975  -0.002   7.002 -1.2060 -0.1121 -2.1355
  458MOL0     H63168  13.213   0.088   7.066  1.2835  0.1620  0.0412
  458MOL0     H63169  13.073   0.104   7.186  0.1463 -0.0405 -1.3581
  458MOL0     H63170  13.223   0.251   7.255  2.3318  0.7878 -0.6274
  458MOL0     H63171  13.248   0.121   7.370  1.0782 -0.5903  0.7133
  458MOL0     H63172  13.405   0.196   7.129 -0.9264  1.2054  0.3814
  458MOL0     H63173  13.468   0.062   7.212 -2.9186 -1.6109 -0.7744
  458MOL0     H63174  13.511   0.217   7.429  2.1453  0.4934 -0.2313
  458MOL0     H63175  13.432   0.339   7.331 -1.3499 -0.7022  2.1598
  458MOL0     H63176  13.615   0.259   7.160 -0.1363 -1.5859  0.6840
  458MOL0     H63177  13.652   0.376   7.289  1.6960  0.0102 -0.6010
  458MOL0     H63178  13.690   0.070   7.327  0.2958 -1.2313  4.2726
  458MOL0     H63179  13.744   0.181   7.445 -0.0113  0.2640 -0.4825
  458MOL0     H63180  13.868   0.143   7.156  0.2784 -0.5717 -0.2548
  458MOL0     H63181  13.938   0.107   7.305  4.6727  0.0603 -3.1874
  458MOL0     H63182  13.932   0.333   7.379  0.1735 -1.5699 -0.4080
  458MOL0     H63183  13.889   0.393   7.218  1.7354  1.2280 -1.3141
  458MOL0     H63184  13.174  -0.341   7.194 -0.7896 -2.2539 -0.7681
  458MOL0     H63185  13.020  -0.482   7.077  0.6758 -0.5376  1.8463
  458MOL0     H63186  12.625  -0.375   6.788  1.5902 -0.8525  0.4840
  458MOL0     H63187  12.392  -0.430   6.697 -4.1025 -1.8553  2.1819
  458MOL0     H63188  11.059   0.425   5.704 -0.0309  1.5765 -0.9638
  458MOL0     H63189  10.867   0.586   5.717  2.3748  0.4701 -1.1760
  458MOL0     H63190  10.549   0.706   6.021 -1.8079 -0.0710  1.2726
  458MOL0     H63191  10.361   0.792   6.099 -0.2434  1.0967 -0.5790
  458MOL0     H63192  10.204   0.985   6.101 -0.8015 -1.5277 -0.5486
  458MOL0     H63193  10.217   0.864   6.229 -1.0751 -0.6257  0.0167
  458MOL0     H63194  10.019   1.064   6.223 -1.4761 -0.7116  2.6405
  458MOL0     H63195  10.136   1.158   6.299  0.2318  0.0064 -3.3527
  458MOL0     H63196  10.009   0.902   6.424  0.5946 -0.4635  0.4483
  458MOL0     H63197  10.169   0.953   6.470  1.3051  4.6318  0.4807
  458MOL0     H63198  10.045   1.174   6.510 -0.2738  0.7463 -3.1873
  458MOL0     H63199   9.993   1.027   6.615 -2.0605 -2.3208 -0.8727
  458MOL0     H63200   9.637   1.131   6.424  0.7024 -1.4690 -1.4708
  458MOL0     H63201  10.556   1.139   6.257 -2.1926 -1.5296  1.1106
  458MOL0     H63202  10.806   1.138   6.028 -3.6436  1.4132  0.3379
  458MOL0     H63203  10.781   1.178   6.206  0.4352  0.8285  0.2237
  458MOL0     H63204  10.889   1.051   6.162 -0.1114  0.8315  0.9410
  459MOL0     O63205  10.417   8.712   4.122  0.1045 -0.1122 -0.2543
  459MOL0     C63206  10.359   8.791   4.060  1.2365 -0.5750  0.1688
  459MOL0     O63207  10.416   8.860   3.951  0.2171  0.0792  0.7998
  459MOL0     C63208  10.545   8.824   3.914  0.1450 -0.0150 -0.4275
  459MOL0     C63209  10.657   8.882   3.974 -0.0129  0.1337  0.2352
  459MOL0     C63210  10.783   8.843   3.943 -0.1607 -0.1626  0.7922
  459MOL0     C63211  10.806   8.734   3.850 -0.1129 -0.2123 -0.6594
  459MOL0     O63212  10.934   8.715   3.818  0.0437  0.9352 -0.5473
  459MOL0     C63213  10.972   8.777   3.702  0.2196 -0.1560 -0.4332
  459MOL0     C63214  11.112   8.826   3.706 -0.3641  0.4034 -1.0142
  459MOL0     C63215  11.128   8.946   3.803 -0.3153 -0.1255  0.5321
  459MOL0     C63216  11.282   8.953   3.836  0.1930  0.2355  0.6337
  459MOL0     C63217  11.322   9.091   3.894 -0.1324 -0.4580 -0.5445
  459MOL0     C63218  11.474   9.115   3.905 -0.5477  0.2765  0.4949
  459MOL0     C63219  11.488   9.255   3.976  0.0277 -0.5894 -0.1432
  459MOL0     C63220  11.632   9.285   4.013 -0.5177 -0.6145 -0.6468
  459MOL0     N63221  11.719   9.266   3.900  1.4477 -0.4665  0.2715
  459MOL0     C63222  11.732   9.349   3.804 -0.1408  0.2194  0.9320
  459MOL0     C63223  11.810   9.291   3.712  0.4673  0.2122 -0.0469
  459MOL0     C63224  11.851   9.353   3.585 -0.6176  0.1233 -1.4330
  459MOL0     C63225  11.973   9.434   3.604  0.3291 -0.1573 -0.6293
  459MOL0     C63226  11.946   9.579   3.660 -0.2903 -0.1255 -0.0862
  459MOL0     C63227  12.083   9.653   3.664 -0.1475 -0.4554 -0.3893
  459MOL0     O63228  12.179   9.609   3.765 -0.1010 -0.3917  1.4583
  459MOL0     C63229  12.310   9.580   3.727 -0.1743 -0.2449 -0.0991
  459MOL0     C63230  12.351   9.493   3.624 -0.7916  0.1364  0.7481
  459MOL0     C63231  12.492   9.478   3.596 -0.7595 -0.5773 -0.7975
  459MOL0     C63232  12.533   9.416   3.474 -0.0347 -0.0706  0.1438
  459MOL0     C63233  12.592   9.532   3.691 -0.8004  0.5788 -0.5070
  459MOL0     C63234  12.740   9.498   3.675 -0.4874  0.1132 -0.1897
  459MOL0     O63235  12.773   9.390   3.597 -0.1003  0.5971  0.1325
  459MOL0     C63236  12.903   9.374   3.553 -0.1135  0.4675 -1.0638
  459MOL0     C63237  12.927   9.348   3.419  0.2002 -0.5838 -0.9040
  459MOL0     C63238  13.058   9.326   3.368  1.0171 -0.2649  0.7839
  459MOL0     C63239  13.176   9.344   3.448 -0.3005 -0.4665  0.7703
  459MOL0     O63240  13.301   9.314   3.409  0.6165 -0.0660  0.0743
  459MOL0     C63241  13.316   9.217   3.300  0.3758  0.2159 -0.0932
  459MOL0     C63242  13.463   9.240   3.260  0.9258 -0.6914 -0.2418
  459MOL0     C63243  13.566   9.193   3.360  0.3665  0.1497  0.9550
  459MOL0     C63244  13.695   9.144   3.288 -0.3346  0.3441  0.1121
  459MOL0     C63245  13.795   9.086   3.382  0.1333 -0.9139 -0.7435
  459MOL0     C63246  13.882   9.199   3.450  0.6801  0.3608  0.4165
  459MOL0     C63247  14.010   9.139   3.504 -0.2876  0.1161 -0.8577
  459MOL0     C63248  14.086   9.245   3.585  1.5366 -0.0340  0.6717
  459MOL0    Cl63249  14.237   9.174   3.651  0.6933  0.0984 -0.5943
  459MOL0     C63250  13.142   9.370   3.582  0.1232  0.3886 -0.2996
  459MOL0     C63251  13.014   9.380   3.633 -0.4947  0.2097  0.8736
  459MOL0     O63252  12.816   9.565   3.742  0.0950  0.0342  0.2144
  459MOL0     C63253  12.543   9.600   3.808  0.9166  0.0665  0.0967
  459MOL0     C63254  12.400   9.620   3.824 -0.5812  0.4156  0.2615
  459MOL0     N63255  11.844   9.166   3.758 -0.0276 -0.5479  0.1749
  459MOL0     N63256  11.792   9.150   3.877 -0.4162 -0.1774 -0.5281
  459MOL0     C63257  10.695   8.662   3.796  0.6884 -0.0076 -0.0593
  459MOL0     C63258  10.568   8.707   3.827  0.4477 -0.8782  0.4591
  459MOL0     C63259  10.213   8.809   4.089  0.3598  0.1488 -1.1991
  459MOL0     C63260  10.131   8.837   3.988 -1.1517 -0.0905  0.7345
  459MOL0     C63261   9.991   8.863   4.009  0.7018 -0.2917  0.6969
  459MOL0     C63262   9.940   8.857   4.136  0.7537 -0.3677 -0.4754
  459MOL0     O63263   9.802   8.882   4.142  0.0898 -0.1029 -0.9605
  459MOL0     C63264   9.720   8.815   4.237  0.3347 -0.4243 -0.3592
  459MOL0     C63265   9.691   8.665   4.196 -0.2809  0.3760 -0.9222
  459MOL0     C63266   9.638   8.572   4.305 -0.1893 -0.4109 -0.0949
  459MOL0     C63267   9.608   8.431   4.254 -0.2307 -0.0533 -0.0167
  459MOL0     C63268   9.737   8.359   4.227 -0.0077 -0.6083  0.5658
  459MOL0     C63269   9.849   8.322   4.213 -0.2655 -1.0143 -0.5011
  459MOL0     C63270  10.024   8.825   4.243  0.4364  0.6432  0.0758
  459MOL0     C63271  10.159   8.796   4.224  0.1607 -0.6850  0.3524
  459MOL0     C63272  10.254   8.785   4.337 -0.3879  0.6509  0.9993
  459MOL0     H63273  10.634   8.965   4.040  2.9826  0.0371  1.5950
  459MOL0     H63274  10.868   8.890   3.993 -0.4094  1.1526  0.0314
  459MOL0     H63275  10.915   8.867   3.675 -0.7956 -0.8025 -0.5088
  459MOL0     H63276  10.958   8.708   3.619 -2.4021  0.6516 -0.7589
  459MOL0     H63277  11.184   8.751   3.738 -2.1657 -0.3601  1.6692
  459MOL0     H63278  11.152   8.852   3.608  1.1624 -1.9611 -1.0950
  459MOL0     H63279  11.089   9.033   3.750 -1.0627  0.2039  1.6017
  459MOL0     H63280  11.067   8.930   3.892  0.2783 -0.7595  0.8325
  459MOL0     H63281  11.304   8.885   3.918  3.4559  0.0383 -0.2900
  459MOL0     H63282  11.342   8.926   3.749 -0.0599 -2.0962  1.1266
  459MOL0     H63283  11.286   9.102   3.997  3.3694  0.4497  0.7472
  459MOL0     H63284  11.284   9.173   3.833  2.2983  1.2515  0.0484
  459MOL0     H63285  11.519   9.040   3.970  0.0449 -1.0474 -1.3656
  459MOL0     H63286  11.531   9.110   3.812  2.7696 -2.1512  2.4569
  459MOL0     H63287  11.428   9.264   4.067 -0.8265  0.2262 -0.7744
  459MOL0     H63288  11.444   9.331   3.910 -0.2320 -0.7259 -0.1284
  459MOL0     H63289  11.640   9.387   4.052 -0.1072 -1.1413  0.7000
  459MOL0     H63290  11.673   9.224   4.094  0.9968  2.7744  1.3608
  459MOL0     H63291  11.686   9.445   3.784  2.0166  1.0245 -0.4486
  459MOL0     H63292  11.764   9.408   3.548 -1.0149 -0.4088 -1.3031
  459MOL0     H63293  11.885   9.272   3.519  0.8328  0.1073 -0.6954
  459MOL0     H63294  12.038   9.378   3.672 -1.8560  2.6521  4.3333
  459MOL0     H63295  12.006   9.453   3.501 -0.6318  0.7840 -0.7775
  459MOL0     H63296  11.864   9.636   3.616  0.0191 -0.2565 -0.8479
  459MOL0     H63297  11.925   9.563   3.766  3.0279 -2.1625  0.4278
  459MOL0     H63298  12.134   9.655   3.567 -2.1654 -2.0152 -1.5566
  459MOL0     H63299  12.065   9.757   3.692  0.5305  0.2978 -2.5252
  459MOL0     H63300  12.272   9.450   3.563 -0.3897  0.1300  0.2201
  459MOL0     H63301  12.628   9.454   3.434  0.5506 -1.1618  0.4637
  459MOL0     H63302  12.456   9.426   3.397 -1.0948  1.6767  1.3575
  459MOL0     H63303  12.548   9.309   3.489 -2.8624 -0.1659  3.3096
  459MOL0     H63304  12.843   9.330   3.353 -0.0010  1.2271 -1.1982
  459MOL0     H63305  13.065   9.284   3.268 -4.2044 -0.4533  0.2329
  459MOL0     H63306  13.297   9.115   3.337  1.1164 -0.7318 -2.1613
  459MOL0     H63307  13.263   9.235   3.206 -1.2480 -0.8142  0.5766
  459MOL0     H63308  13.481   9.196   3.162  0.4989  0.4842 -0.8740
  459MOL0     H63309  13.472   9.349   3.258 -2.2746 -0.2966  0.6398
  459MOL0     H63310  13.532   9.106   3.417  1.2239  0.4848  2.0241
  459MOL0     H63311  13.594   9.277   3.424  1.9605  1.3851 -1.2314
  459MOL0     H63312  13.746   9.218   3.226  1.8371 -1.7230 -0.7522
  459MOL0     H63313  13.651   9.060   3.233  1.5269 -0.9403  0.4997
  459MOL0     H63314  13.746   9.027   3.459  0.2628  2.5367  2.2255
  459MOL0     H63315  13.865   9.021   3.329  1.5964 -1.6653  1.9368
  459MOL0     H63316  13.830   9.228   3.542 -0.9940  3.3866 -1.3258
  459MOL0     H63317  13.910   9.284   3.388 -1.3365  1.0565  0.3767
  459MOL0     H63318  14.057   9.099   3.413 -3.8622 -1.1545 -2.3198
  459MOL0     H63319  13.980   9.060   3.574 -0.5539 -0.2644 -1.3924
  459MOL0     H63320  14.032   9.279   3.674  2.9135 -0.0198  1.5426
  459MOL0     H63321  14.095   9.341   3.533 -2.9436  1.6261  2.4398
  459MOL0     H63322  13.222   9.373   3.655  1.3467 -1.2192 -1.5142
  459MOL0     H63323  13.005   9.384   3.741  0.2858 -0.6759  0.9793
  459MOL0     H63324  12.617   9.648   3.872  0.0188  0.2714  0.9955
  459MOL0     H63325  12.375   9.685   3.908 -2.6422  1.4839 -1.1140
  459MOL0     H63326  10.721   8.575   3.736 -2.3747 -3.1344  2.7767
  459MOL0     H63327  10.496   8.646   3.774  1.0136 -0.1064 -1.2755
  459MOL0     H63328  10.182   8.842   3.892  0.0589 -2.1891  1.2054
  459MOL0     H63329   9.932   8.888   3.921  2.0870 -0.3529 -0.2740
  459MOL0     H63330   9.766   8.805   4.336  0.0391 -1.7318 -0.3458
  459MOL0     H63331   9.626   8.870   4.246 -0.4536 -1.9281  0.9495
  459MOL0     H63332   9.773   8.612   4.147 -2.9459 -1.7576 -3.5502
  459MOL0     H63333   9.624   8.661   4.109  0.8339 -2.8312 -1.7932
  459MOL0     H63334   9.710   8.564   4.387 -1.5221 -0.6200  1.1101
  459MOL0     H63335   9.544   8.610   4.345  0.8355  2.0398  0.1522
  459MOL0     H63336   9.543   8.439   4.166 -1.1395  0.1400  0.6643
  459MOL0     H63337   9.545   8.377   4.325  0.4011 -1.5084 -0.5017
  459MOL0     H63338   9.950   8.287   4.211 -0.3797 -1.3820 -0.0077
  459MOL0     H63339   9.990   8.838   4.346  3.7398  1.1313  1.2184
  459MOL0     H63340  10.198   8.774   4.431 -1.5039  0.4217  0.3246
  459MOL0     H63341  10.317   8.695   4.336 -1.2150  0.0644  1.0471
  459MOL0     H63342  10.328   8.866   4.331 -0.4215  0.5604 -2.6506
  460MOL0     O63343   5.484  10.090   5.147 -0.8559 -0.3649 -0.0469
  460MOL0     C63344   5.572  10.125   5.070 -0.5114  0.3240  0.4784
  460MOL0     O63345   5.701  10.118   5.092 -0.0952 -0.2847  0.0749
  460MOL0     C63346   5.754  10.086   5.215  0.3371  0.4544  0.4004
  460MOL0     C63347   5.686  10.095   5.339  0.0010 -0.0250  0.1794
  460MOL0     C63348   5.756  10.067   5.458  0.2711 -1.2839 -0.4370
  460MOL0     C63349   5.896  10.034   5.460  0.0300 -0.5474  0.1171
  460MOL0     O63350   5.969  10.005   5.568  0.4765  0.1442 -0.5721
  460MOL0     C63351   5.954  10.101   5.678 -0.2207  0.1680 -0.2446
  460MOL0     C63352   6.038  10.235   5.654 -0.7627 -0.6480 -0.7652
  460MOL0     C63353   6.181  10.227   5.713 -0.2246 -0.4201  0.2948
  460MOL0     C63354   6.269  10.134   5.629 -0.2280  0.6537 -0.1037
  460MOL0     C63355   6.404  10.116   5.700  0.4325 -0.0128  0.2142
  460MOL0     C63356   6.505  10.032   5.627  0.0061  0.5997  0.1056
  460MOL0     C63357   6.638  10.029   5.696  0.1494 -0.4932  0.2479
  460MOL0     C63358   6.720  10.164   5.676  0.3874  0.0072  0.6460
  460MOL0     N63359   6.844  10.153   5.745 -0.1356 -0.1860 -0.4663
  460MOL0     C63360   6.967  10.172   5.685 -0.3083  0.8708  0.1497
  460MOL0     C63361   7.056  10.170   5.786 -0.1844  0.3253  0.6533
  460MOL0     C63362   7.200  10.164   5.763  0.3533 -0.3709 -0.7647
  460MOL0     C63363   7.280  10.266   5.850 -1.1320 -0.3869 -0.1710
  460MOL0     C63364   7.306  10.209   5.985 -0.0462  0.1668  0.2218
  460MOL0     C63365   7.423  10.277   6.065 -0.1240 -0.3550  0.3108
  460MOL0     O63366   7.446  10.205   6.187 -0.0338 -0.2323  0.3388
  460MOL0     C63367   7.551  10.240   6.262 -0.1441 -0.0615 -0.4009
  460MOL0     C63368   7.591  10.141   6.356  0.1503 -0.1287  0.3045
  460MOL0     C63369   7.704  10.155   6.425  0.5200 -0.2531 -0.2068
  460MOL0     C63370   7.731  10.048   6.527 -0.4680 -0.1185  0.8638
  460MOL0     C63371   7.772  10.277   6.427 -0.0935  0.0386 -0.5609
  460MOL0     C63372   7.911  10.301   6.499 -0.1604  0.5931  0.4691
  460MOL0     O63373   7.982  10.186   6.531 -0.7785  0.0015 -0.2994
  460MOL0     C63374   8.106  10.207   6.569 -0.1663 -0.3523 -0.5460
  460MOL0     C63375   8.141  10.159   6.694 -0.3934 -0.1658  0.0778
  460MOL0     C63376   8.267  10.189   6.740 -0.6476  0.6045  0.0034
  460MOL0     C63377   8.361  10.262   6.661 -0.0321 -0.8286  1.3078
  460MOL0     O63378   8.497  10.284   6.697  0.3818 -0.7486  0.3015
  460MOL0     C63379   8.565  10.203   6.791  0.2862 -0.3032  0.4509
  460MOL0     C63380   8.703  10.257   6.833 -0.5217  0.1196 -0.1482
  460MOL0     C63381   8.808  10.238   6.722  0.4984  0.6910 -0.3479
  460MOL0     C63382   8.955  10.245   6.761 -0.5765 -0.4938 -0.1166
  460MOL0     C63383   9.034  10.202   6.629  0.6737  0.2885  0.8711
  460MOL0     C63384   9.183  10.222   6.645  0.1619  0.7998 -0.3868
  460MOL0     C63385   9.253  10.141   6.760  1.1952  0.5897  0.1533
  460MOL0     C63386   9.253   9.995   6.733  0.3525 -0.1619  0.0436
  460MOL0    Cl63387   9.354   9.949   6.587  0.4006  0.0542 -0.8345
  460MOL0     C63388   8.316  10.304   6.532 -0.4671  0.2717 -0.7761
  460MOL0     C63389   8.190  10.283   6.483  0.6713 -0.1163  0.4399
  460MOL0     O63390   7.945  10.417   6.529  1.0971 -0.5100 -0.6074
  460MOL0     C63391   7.732  10.385   6.342 -0.3002 -0.6313  0.3282
  460MOL0     C63392   7.627  10.358   6.256  0.0847  0.7426 -0.2024
  460MOL0     N63393   6.989  10.148   5.906 -0.2570 -0.8867  0.8441
  460MOL0     N63394   6.866  10.137   5.877  0.7484 -0.0777  0.1547
  460MOL0     C63395   5.957  10.020   5.334 -0.4189 -0.4519  0.0720
  460MOL0     C63396   5.890  10.052   5.215 -0.7295  1.0830  0.2598
  460MOL0     C63397   5.521  10.193   4.953 -0.4349  0.2003 -0.2254
  460MOL0     C63398   5.575  10.319   4.909  0.1216 -0.5399  0.1717
  460MOL0     C63399   5.515  10.395   4.802 -0.1672  0.8632  0.2638
  460MOL0     C63400   5.403  10.338   4.736 -0.9162  0.1138  0.3655
  460MOL0     O63401   5.350  10.419   4.642  0.4414  0.0094 -0.0142
  460MOL0     C63402   5.217  10.400   4.587  0.2942  0.4122  0.2682
  460MOL0     C63403   5.216  10.471   4.458 -0.3512 -0.5753  0.6164
  460MOL0     C63404   5.230  10.622   4.470  0.4463  0.1034 -0.0768
  460MOL0     C63405   5.238  10.688   4.336  0.2557  0.2951 -0.2658
  460MOL0     C63406   5.133  10.640   4.244 -0.4772 -0.1722  0.3601
  460MOL0     C63407   5.063  10.610   4.154  0.8817 -0.0298 -0.2334
  460MOL0     C63408   5.356  10.217   4.776  0.0721 -0.2689  0.5580
  460MOL0     C63409   5.411  10.142   4.880  0.2156  0.3571  0.4308
  460MOL0     C63410   5.358  10.006   4.904 -0.2536 -0.1107  0.3814
  460MOL0     H63411   5.581  10.122   5.341  0.1243  0.9404 -2.3670
  460MOL0     H63412   5.698  10.070   5.550  2.4945  0.2574  1.0333
  460MOL0     H63413   5.983  10.047   5.769 -2.8033 -0.2414  0.4106
  460MOL0     H63414   5.850  10.131   5.692 -0.1399  1.1600 -1.5916
  460MOL0     H63415   6.035  10.254   5.546  0.6585  1.8982 -0.4279
  460MOL0     H63416   5.991  10.318   5.708  0.4315  0.8231 -1.8990
  460MOL0     H63417   6.217  10.330   5.711 -1.3433  0.0744  2.1624
  460MOL0     H63418   6.186  10.195   5.818 -2.2061 -1.6753  0.0581
  460MOL0     H63419   6.217  10.040   5.609  3.4485 -2.0070  1.5986
  460MOL0     H63420   6.292  10.177   5.531  1.2923 -0.4391 -0.2656
  460MOL0     H63421   6.385  10.072   5.798 -1.3477  0.8352  0.2887
  460MOL0     H63422   6.446  10.216   5.717  0.4496 -0.1600  1.1096
  460MOL0     H63423   6.467   9.933   5.603  0.4006  0.5102 -0.1529
  460MOL0     H63424   6.517  10.077   5.528  3.2698 -0.4367 -0.0900
  460MOL0     H63425   6.697   9.948   5.652 -1.2821 -0.2587 -2.3015
  460MOL0     H63426   6.613  10.013   5.801 -2.8615 -1.1933 -0.4836
  460MOL0     H63427   6.742  10.182   5.571  0.6799 -1.3823  0.4522
  460MOL0     H63428   6.669  10.258   5.703  0.2198  0.4385 -1.0661
  460MOL0     H63429   6.985  10.186   5.578 -0.4064  1.2039  0.1760
  460MOL0     H63430   7.227  10.198   5.662  0.7468  1.1147 -0.1885
  460MOL0     H63431   7.233  10.061   5.772 -0.4949 -0.5791  0.1848
  460MOL0     H63432   7.378  10.285   5.805  0.2853 -1.4774  2.2135
  460MOL0     H63433   7.219  10.357   5.854  0.1118  0.5380 -1.2961
  460MOL0     H63434   7.212  10.209   6.042  0.7890 -2.5776  1.8108
  460MOL0     H63435   7.332  10.103   5.971 -3.2863 -0.5233 -1.4148
  460MOL0     H63436   7.511  10.295   6.003 -1.6506  1.0756 -1.5786
  460MOL0     H63437   7.386  10.370   6.108  0.9547  0.6760 -0.9244
  460MOL0     H63438   7.539  10.046   6.357 -2.6357  1.2862 -0.6366
  460MOL0     H63439   7.825   9.996   6.512  0.6598  2.1152 -0.3175
  460MOL0     H63440   7.651   9.973   6.534  1.1146 -2.0141 -0.4448
  460MOL0     H63441   7.733  10.106   6.621 -1.4212  0.7547  0.3723
  460MOL0     H63442   8.073  10.110   6.763 -1.1678 -1.5297 -1.5739
  460MOL0     H63443   8.286  10.171   6.845  1.9209  1.5373 -0.2340
  460MOL0     H63444   8.514  10.205   6.888  0.1446 -0.5494  0.3804
  460MOL0     H63445   8.560  10.097   6.767 -0.5005 -0.3592  0.8345
  460MOL0     H63446   8.694  10.364   6.852 -0.2642  0.3098 -1.0301
  460MOL0     H63447   8.743  10.208   6.922  0.0167 -1.2156 -1.0807
  460MOL0     H63448   8.783  10.305   6.639 -2.4146 -0.6372 -0.6594
  460MOL0     H63449   8.790  10.135   6.688 -0.2099 -0.0314  2.0396
  460MOL0     H63450   8.975  10.196   6.857  1.0483  0.8874  0.2828
  460MOL0     H63451   8.976  10.351   6.777 -1.0716 -0.1522 -1.6414
  460MOL0     H63452   9.012  10.097   6.609 -1.4087  0.5973  1.3126
  460MOL0     H63453   9.014  10.263   6.540 -0.2171 -0.9400  0.1950
  460MOL0     H63454   9.189  10.326   6.677  0.8666  0.6910 -0.1427
  460MOL0     H63455   9.236  10.212   6.550 -0.6589 -0.7471 -0.7246
  460MOL0     H63456   9.206  10.154   6.858 -2.9358  0.6143 -1.6284
  460MOL0     H63457   9.352  10.187   6.769 -0.1063  3.4306  1.3581
  460MOL0     H63458   9.148   9.966   6.737 -0.2189  1.8861  2.6548
  460MOL0     H63459   9.299   9.944   6.818 -0.9501  1.5303  1.8518
  460MOL0     H63460   8.376  10.352   6.455  0.8095 -0.8550 -0.5226
  460MOL0     H63461   8.165  10.331   6.389  1.3135  2.1233  1.3488
  460MOL0     H63462   7.779  10.483   6.339 -1.1305 -0.2252  0.3053
  460MOL0     H63463   7.597  10.439   6.191 -2.1207  1.5072  1.6194
  460MOL0     H63464   6.054   9.973   5.348 -0.4612 -0.1003  1.7714
  460MOL0     H63465   5.940  10.037   5.120  1.7197  0.6319  1.5437
  460MOL0     H63466   5.668  10.353   4.955  0.8524  2.2981 -2.9670
  460MOL0     H63467   5.559  10.492   4.779  0.9078 -0.0762 -2.0499
  460MOL0     H63468   5.220  10.297   4.552  4.7764  1.6445 -4.2422
  460MOL0     H63469   5.135  10.425   4.654  0.2757  0.6255  0.1706
  460MOL0     H63470   5.129  10.444   4.397 -0.3981  3.0901 -1.2154
  460MOL0     H63471   5.303  10.442   4.398  2.2630  3.8905  1.7508
  460MOL0     H63472   5.141  10.660   4.521  1.0983 -1.7102  2.6097
  460MOL0     H63473   5.321  10.649   4.524  0.9124 -0.9109 -0.3390
  460MOL0     H63474   5.335  10.659   4.295 -0.5513 -0.3810 -1.7635
  460MOL0     H63475   5.237  10.796   4.354  1.6281 -0.0073  2.0016
  460MOL0     H63476   5.005  10.585   4.068 -0.6609  0.1278  0.7311
  460MOL0     H63477   5.264  10.188   4.726  2.2025 -3.0252 -2.1143
  460MOL0     H63478   5.440   9.933   4.901  0.2178  0.4140  0.4849
  460MOL0     H63479   5.302  10.006   4.997  0.7287  0.6147  0.9880
  460MOL0     H63480   5.282   9.975   4.831 -3.1744  0.0700  3.1239
  461MOL0     O63481   4.267   0.494   4.116  0.4622 -0.9718 -0.8810
  461MOL0     C63482   4.323   0.576   4.052  0.2936 -0.7037  0.4950
  461MOL0     O63483   4.258   0.677   3.977 -0.0712  0.2656  0.0349
  461MOL0     C63484   4.124   0.680   3.975 -0.2946 -0.3308  0.7789
  461MOL0     C63485   4.043   0.738   4.077 -0.2645  0.4900  0.8130
  461MOL0     C63486   3.902   0.731   4.075 -0.1061  0.5949 -0.2203
  461MOL0     C63487   3.837   0.673   3.975  0.5211  0.0014 -0.6290
  461MOL0     O63488   3.698   0.664   3.978 -0.7227 -0.1756  0.5334
  461MOL0     C63489   3.640   0.756   3.886  1.1801 -0.0095  0.2514
  461MOL0     C63490   3.489   0.742   3.907  1.0251 -0.1722  0.2571
  461MOL0     C63491   3.432   0.603   3.864 -0.0415 -0.1901  0.2713
  461MOL0     C63492   3.285   0.610   3.903  0.3133 -0.5402 -0.2116
  461MOL0     C63493   3.200   0.483   3.882 -0.2443  0.1088  0.5442
  461MOL0     C63494   3.052   0.502   3.886  0.3204 -0.2137 -0.0067
  461MOL0     C63495   2.970   0.374   3.859 -0.8625 -0.4604 -0.0426
  461MOL0     C63496   2.990   0.326   3.713  0.2421  0.8968 -0.0866
  461MOL0     N63497   2.871   0.250   3.672  0.6359  0.1762 -0.1864
  461MOL0     C63498   2.758   0.297   3.607  0.4953 -0.1077 -0.3531
  461MOL0     C63499   2.671   0.193   3.582  0.0668 -0.3565 -0.2420
  461MOL0     C63500   2.534   0.195   3.534  0.9216  0.7096  0.2181
  461MOL0     C63501   2.447   0.201   3.653 -0.2078  0.2773 -0.0895
  461MOL0     C63502   2.300   0.216   3.626  0.7275 -0.1731  0.7010
  461MOL0     C63503   2.264   0.347   3.555  0.9396 -0.4133  0.0364
  461MOL0     O63504   2.296   0.458   3.634  0.1089  0.0631 -1.2526
  461MOL0     C63505   2.419   0.527   3.627 -0.0570  0.5810  0.3683
  461MOL0     C63506   2.488   0.570   3.742 -0.1192  0.3523  0.7499
  461MOL0     C63507   2.612   0.640   3.740  0.0904 -0.4995 -0.7845
  461MOL0     C63508   2.685   0.668   3.866  0.3445 -0.0317 -0.4044
  461MOL0     C63509   2.675   0.665   3.612 -0.2650  0.9855  0.1377
  461MOL0     C63510   2.807   0.737   3.582 -0.5783 -0.3598 -0.1608
  461MOL0     O63511   2.834   0.844   3.666  0.4173  0.5396 -0.0123
  461MOL0     C63512   2.933   0.929   3.621 -0.1542 -0.6630  0.4440
  461MOL0     C63513   3.065   0.915   3.673 -0.1252 -0.1327  0.0294
  461MOL0     C63514   3.171   1.006   3.652  0.0776  0.1841 -0.0408
  461MOL0     C63515   3.146   1.123   3.580  0.4184  0.5139  0.4064
  461MOL0     O63516   3.253   1.209   3.557  0.9399 -0.5520 -0.8848
  461MOL0     C63517   3.241   1.313   3.459  0.2795 -0.8769  1.8410
  461MOL0     C63518   3.374   1.391   3.438 -0.0250  0.6472 -0.2455
  461MOL0     C63519   3.475   1.314   3.348  0.7434  0.6609 -1.4670
  461MOL0     C63520   3.604   1.386   3.321  0.0709 -0.1550 -0.7419
  461MOL0     C63521   3.677   1.318   3.202  0.2357  0.2929 -0.4562
  461MOL0     C63522   3.810   1.393   3.199  0.0128 -0.1255  0.5947
  461MOL0     C63523   3.908   1.325   3.102 -0.3868  0.2603 -0.3377
  461MOL0     C63524   4.057   1.342   3.151  0.2191 -0.5233  0.5372
  461MOL0    Cl63525   4.135   1.203   3.233  0.4460 -0.2300 -0.0563
  461MOL0     C63526   3.015   1.148   3.533  0.2635 -0.2591  0.2720
  461MOL0     C63527   2.909   1.058   3.559 -0.8630  0.4605 -0.4287
  461MOL0     O63528   2.879   0.704   3.489 -1.0903 -0.4902 -0.2543
  461MOL0     C63529   2.601   0.624   3.497  0.6071  1.0268  0.1375
  461MOL0     C63530   2.481   0.561   3.504  0.6887  0.1890  0.0988
  461MOL0     N63531   2.739   0.083   3.629  0.8082 -0.7678 -0.1609
  461MOL0     N63532   2.853   0.116   3.683  0.0853  1.2878 -0.0953
  461MOL0     C63533   3.909   0.627   3.868  0.1590  0.9894 -0.2317
  461MOL0     C63534   4.057   0.622   3.869  0.3150 -0.0292 -0.2360
  461MOL0     C63535   4.472   0.572   4.055 -0.0231 -0.2879 -0.5942
  461MOL0     C63536   4.545   0.683   3.998  0.9281 -0.0963 -0.2105
  461MOL0     C63537   4.688   0.694   3.980  0.8727  0.7908 -0.6283
  461MOL0     C63538   4.762   0.582   4.036  0.5013 -0.6293  0.8616
  461MOL0     O63539   4.902   0.569   4.025 -0.3144  0.1274  0.7453
  461MOL0     C63540   4.980   0.688   4.041  0.2616 -0.4923 -1.0546
  461MOL0     C63541   5.121   0.652   4.097  0.2812  0.1398 -0.1985
  461MOL0     C63542   5.130   0.595   4.233 -0.6839  0.2270 -0.0467
  461MOL0     C63543   5.267   0.572   4.292 -0.1436  0.1817 -0.5075
  461MOL0     C63544   5.361   0.522   4.192  0.3774 -0.5238 -0.0813
  461MOL0     C63545   5.437   0.479   4.106  0.0988 -0.1485 -0.3419
  461MOL0     C63546   4.693   0.464   4.064 -1.2787 -0.0181 -0.6508
  461MOL0     C63547   4.551   0.454   4.081  0.0531 -0.4119 -0.5628
  461MOL0     C63548   4.490   0.314   4.120 -0.8707 -0.0342 -0.2336
  461MOL0     H63549   4.095   0.781   4.162  2.1631 -1.1235  0.2345
  461MOL0     H63550   3.842   0.762   4.160 -0.1730 -0.6195  0.1986
  461MOL0     H63551   3.684   0.731   3.790  1.1967 -1.2154  0.5579
  461MOL0     H63552   3.678   0.856   3.909 -0.9354  0.1845  3.6197
  461MOL0     H63553   3.474   0.752   4.015 -0.9637 -1.5543  0.1562
  461MOL0     H63554   3.447   0.837   3.871 -0.1274  0.7525  3.6545
  461MOL0     H63555   3.429   0.578   3.757  2.0063  2.2260 -0.4448
  461MOL0     H63556   3.491   0.521   3.905  0.3518  0.0225  0.1371
  461MOL0     H63557   3.275   0.647   4.006  2.3110  1.4470 -0.6583
  461MOL0     H63558   3.230   0.684   3.846 -0.8753 -0.9552  0.3520
  461MOL0     H63559   3.234   0.409   3.955  3.4608  2.2972  1.3184
  461MOL0     H63560   3.236   0.438   3.788  3.1880 -1.1748  2.3029
  461MOL0     H63561   3.013   0.541   3.981 -2.9702 -1.4897 -0.7172
  461MOL0     H63562   3.027   0.576   3.809  3.1420  0.7715 -0.1072
  461MOL0     H63563   2.869   0.408   3.881 -0.5129  1.9162 -1.6719
  461MOL0     H63564   3.010   0.299   3.927  1.3342  0.2733 -0.4446
  461MOL0     H63565   3.010   0.412   3.648  0.2855  1.6763  0.9391
  461MOL0     H63566   3.076   0.260   3.693 -0.9044 -0.3813 -0.9473
  461MOL0     H63567   2.747   0.401   3.578 -1.3039 -0.6527 -1.7777
  461MOL0     H63568   2.502   0.105   3.481 -3.0675  2.6298 -1.0913
  461MOL0     H63569   2.519   0.278   3.464  0.2146 -0.0920 -0.6095
  461MOL0     H63570   2.460   0.108   3.708 -1.3588  1.2768  2.0087
  461MOL0     H63571   2.482   0.272   3.729  0.6002 -0.6350  0.4092
  461MOL0     H63572   2.249   0.146   3.560 -3.0367  1.7734  1.2277
  461MOL0     H63573   2.240   0.224   3.718 -0.6971  0.0647 -0.2128
  461MOL0     H63574   2.297   0.357   3.451  0.6446 -0.8901 -0.1100
  461MOL0     H63575   2.155   0.336   3.558  1.1276 -3.8381 -0.9024
  461MOL0     H63576   2.440   0.549   3.837 -3.6505 -0.3111 -1.0105
  461MOL0     H63577   2.792   0.646   3.863  0.3184 -0.1371 -0.5695
  461MOL0     H63578   2.639   0.616   3.950 -1.0537  0.4053 -0.8684
  461MOL0     H63579   2.676   0.776   3.879  0.0097  0.1272 -1.7944
  461MOL0     H63580   3.081   0.826   3.734 -2.5886 -0.9115 -0.3736
  461MOL0     H63581   3.266   0.976   3.694 -0.2979  1.3649  1.7326
  461MOL0     H63582   3.215   1.278   3.359  0.7389  0.9727  1.0246
  461MOL0     H63583   3.171   1.391   3.490  1.1758  0.3197  0.9497
  461MOL0     H63584   3.350   1.482   3.383 -2.6995 -0.5022 -1.1194
  461MOL0     H63585   3.426   1.403   3.533  1.3075  0.8041 -0.9617
  461MOL0     H63586   3.439   1.270   3.254 -0.7071 -0.4546 -0.4373
  461MOL0     H63587   3.500   1.224   3.406  1.9718  1.6084 -0.4693
  461MOL0     H63588   3.671   1.366   3.405  0.8521 -0.6061 -1.4537
  461MOL0     H63589   3.590   1.493   3.300 -2.2735 -0.1860  0.4228
  461MOL0     H63590   3.700   1.217   3.236  1.3096  1.5756  3.2607
  461MOL0     H63591   3.626   1.316   3.106  1.3340  1.9591 -1.1256
  461MOL0     H63592   3.850   1.401   3.301 -0.9333 -0.9049  1.0430
  461MOL0     H63593   3.798   1.498   3.170  0.9649 -0.8023 -2.5917
  461MOL0     H63594   3.898   1.367   3.002  1.6285  1.1815 -0.1958
  461MOL0     H63595   3.881   1.219   3.093 -0.1741  0.2711 -1.1744
  461MOL0     H63596   4.059   1.428   3.220  1.4821  0.5899 -0.8169
  461MOL0     H63597   4.111   1.379   3.064 -2.5908  1.8376 -0.3938
  461MOL0     H63598   2.988   1.236   3.475 -0.7673 -2.3502 -2.6521
  461MOL0     H63599   2.810   1.098   3.536 -0.8683  0.7922  0.1597
  461MOL0     H63600   2.650   0.635   3.401 -1.0979 -0.5254 -0.9881
  461MOL0     H63601   2.436   0.533   3.410  0.5863  0.0607  0.1857
  461MOL0     H63602   3.856   0.588   3.781  0.2626  2.4878 -0.9889
  461MOL0     H63603   4.118   0.603   3.781  1.7246 -0.4232  0.8023
  461MOL0     H63604   4.489   0.764   3.952  0.8171 -0.4969 -0.8003
  461MOL0     H63605   4.725   0.784   3.931 -0.3645  2.0503  0.6430
  461MOL0     H63606   4.984   0.753   3.953 -0.5158 -0.9322 -1.4234
  461MOL0     H63607   4.927   0.749   4.116  0.1231 -1.7786 -0.0658
  461MOL0     H63608   5.182   0.742   4.114  1.3810 -0.8326  1.2270
  461MOL0     H63609   5.180   0.599   4.022  2.5540  1.7259  0.3511
  461MOL0     H63610   5.077   0.662   4.301  0.4913  1.4693 -0.3190
  461MOL0     H63611   5.076   0.501   4.217  1.7122 -0.9935 -1.5758
  461MOL0     H63612   5.257   0.504   4.377 -0.5000 -1.0648 -1.5218
  461MOL0     H63613   5.306   0.666   4.332 -1.8556  1.2916 -1.2952
  461MOL0     H63614   5.500   0.449   4.025  1.7228  2.0178  0.0200
  461MOL0     H63615   4.754   0.374   4.074  1.7776  1.3385 -4.4003
  461MOL0     H63616   4.424   0.324   4.206  0.3219 -0.7065  0.7933
  461MOL0     H63617   4.432   0.285   4.032  1.3689 -1.0799 -1.4595
  461MOL0     H63618   4.568   0.242   4.145  0.9271  1.9238  0.1458
  462MOL0     O63619   4.804   4.602   4.802  0.4172  0.3785  0.2139
  462MOL0     C63620   4.784   4.699   4.871 -0.4353 -0.0069 -0.5126
  462MOL0     O63621   4.882   4.776   4.912  0.7735  0.3729  0.0043
  462MOL0     C63622   5.012   4.727   4.909 -0.1974 -0.0007  0.5675
  462MOL0     C63623   5.062   4.606   4.963  0.1336 -0.6434  0.4387
  462MOL0     C63624   5.197   4.572   4.965 -0.6054 -0.6436 -0.7207
  462MOL0     C63625   5.290   4.650   4.919 -0.0341  0.4691 -0.2246
  462MOL0     O63626   5.412   4.596   4.904 -0.0322 -0.0279  0.5432
  462MOL0     C63627   5.505   4.665   4.984  0.7157  0.4036  0.7430
  462MOL0     C63628   5.479   4.648   5.145 -0.4175 -0.4584 -0.3275
  462MOL0     C63629   5.592   4.707   5.231  0.5413  0.5859  1.0735
  462MOL0     C63630   5.651   4.595   5.325 -0.0296  0.6400 -0.1820
  462MOL0     C63631   5.731   4.654   5.433  1.2412  0.5923  0.3152
  462MOL0     C63632   5.817   4.553   5.506  0.1767  0.3397  0.5757
  462MOL0     C63633   5.944   4.490   5.422  0.1242 -0.1323  0.1089
  462MOL0     C63634   6.027   4.378   5.500 -0.1040 -0.3258 -0.2340
  462MOL0     N63635   6.086   4.430   5.621 -0.2179 -0.2703  0.3855
  462MOL0     C63636   6.188   4.523   5.617  0.7169 -0.5426 -0.4173
  462MOL0     C63637   6.197   4.559   5.747 -0.7837 -0.0830  0.1363
  462MOL0     C63638   6.299   4.659   5.800  0.6728  0.1387 -0.0126
  462MOL0     C63639   6.429   4.593   5.841 -0.8318  0.0496  0.5904
  462MOL0     C63640   6.522   4.577   5.720  0.0601  0.6683 -0.2741
  462MOL0     C63641   6.654   4.507   5.776 -0.8059  0.2567  0.6084
  462MOL0     O63642   6.754   4.501   5.673  0.0072  0.2162  0.6776
  462MOL0     C63643   6.873   4.443   5.686 -0.6820  0.4808  0.0980
  462MOL0     C63644   6.933   4.407   5.810 -0.0711  0.3146  0.3462
  462MOL0     C63645   7.049   4.330   5.827 -0.1716  0.3321  0.1211
  462MOL0     C63646   7.094   4.302   5.969  0.3920  1.4594 -0.1372
  462MOL0     C63647   7.124   4.307   5.703  0.6338  0.7713  0.4364
  462MOL0     C63648   7.268   4.260   5.692 -0.3989 -0.4878  0.2168
  462MOL0     O63649   7.327   4.255   5.567  0.6147  0.4730 -0.0123
  462MOL0     C63650   7.459   4.221   5.552 -0.1606  0.4362  0.1111
  462MOL0     C63651   7.507   4.091   5.573  0.8513  0.6633 -0.6275
  462MOL0     C63652   7.637   4.055   5.561 -0.6007 -0.7718  0.1440
  462MOL0     C63653   7.733   4.151   5.541 -0.3030 -0.2366 -0.5316
  462MOL0     O63654   7.870   4.116   5.529 -0.4674 -0.9447  1.0326
  462MOL0     C63655   7.919   4.170   5.405 -0.3487 -0.0815 -0.4563
  462MOL0     C63656   8.047   4.101   5.372  0.2213 -0.3308  0.5633
  462MOL0     C63657   8.014   3.960   5.310  0.3881 -0.2522 -0.1225
  462MOL0     C63658   7.956   3.942   5.175  0.2499  0.0148 -0.7556
  462MOL0     C63659   7.923   3.792   5.142  0.0247  0.4481  0.2954
  462MOL0     C63660   7.869   3.757   4.999  0.0091 -0.8009 -0.0733
  462MOL0     C63661   7.987   3.749   4.902 -0.0196  0.7557  0.0846
  462MOL0     C63662   7.939   3.690   4.765 -1.1918 -0.3643 -0.4690
  462MOL0    Cl63663   7.978   3.802   4.639 -0.1901 -0.0996  0.3142
  462MOL0     C63664   7.690   4.290   5.539  0.8977 -0.3176  0.4313
  462MOL0     C63665   7.553   4.322   5.533 -0.9212  0.0487  0.1516
  462MOL0     O63666   7.317   4.220   5.793 -0.1538 -0.6286 -0.1820
  462MOL0     C63667   7.061   4.338   5.582 -0.1902 -0.5158  0.4925
  462MOL0     C63668   6.938   4.397   5.573  0.6160  0.3088  0.8146
  462MOL0     N63669   6.099   4.511   5.817 -0.2364  0.1656 -0.2458
  462MOL0     N63670   6.035   4.430   5.744  0.2075 -0.0923  0.0207
  462MOL0     C63671   5.249   4.772   4.864  0.6846  0.2179  0.0587
  462MOL0     C63672   5.112   4.811   4.857  0.4266  0.8361 -0.0391
  462MOL0     C63673   4.648   4.754   4.889  0.1582 -0.3897 -0.8345
  462MOL0     C63674   4.554   4.716   4.791 -0.3201 -0.4744 -0.5444
  462MOL0     C63675   4.422   4.762   4.793  0.6367 -0.4508 -0.0123
  462MOL0     C63676   4.383   4.855   4.887  0.2026 -0.3280  0.0164
  462MOL0     O63677   4.262   4.904   4.853 -0.2504  0.2823 -0.8073
  462MOL0     C63678   4.227   5.047   4.874  0.6268  0.0576 -0.4826
  462MOL0     C63679   4.095   5.060   4.943  0.4655 -1.0818  0.1665
  462MOL0     C63680   4.044   5.202   4.957 -0.2580  0.3394  0.9649
  462MOL0     C63681   3.894   5.219   4.933 -0.0362 -0.3167 -0.0386
  462MOL0     C63682   3.868   5.365   4.941 -0.5106 -0.7576  0.4379
  462MOL0     C63683   3.828   5.486   4.959 -0.9354  0.6727  0.9059
  462MOL0     C63684   4.466   4.902   4.983 -0.4773 -0.0663  0.1683
  462MOL0     C63685   4.601   4.849   4.982 -0.2729 -0.5437  0.6420
  462MOL0     C63686   4.702   4.921   5.073 -0.9393  0.7428 -1.2678
  462MOL0     H63687   4.984   4.549   5.012 -0.7439 -0.9577 -1.2540
  462MOL0     H63688   5.217   4.467   4.986  2.1846 -0.1611 -0.6229
  462MOL0     H63689   5.496   4.772   4.962 -1.0004  0.0984 -0.2649
  462MOL0     H63690   5.595   4.617   4.945 -1.1962 -2.2934 -0.6828
  462MOL0     H63691   5.385   4.689   5.181  0.9638  2.1736  0.5522
  462MOL0     H63692   5.487   4.541   5.169  1.9009 -0.2967 -0.1372
  462MOL0     H63693   5.669   4.750   5.166 -1.6497 -0.6863 -2.6573
  462MOL0     H63694   5.535   4.776   5.295 -0.7642 -1.3671  2.1080
  462MOL0     H63695   5.567   4.544   5.373  0.1727 -0.5641 -1.0735
  462MOL0     H63696   5.699   4.518   5.264  0.1169  1.0017 -0.5329
  462MOL0     H63697   5.655   4.692   5.502 -2.0080 -2.7253 -1.0590
  462MOL0     H63698   5.795   4.728   5.384  0.4098 -0.6015 -2.8274
  462MOL0     H63699   5.860   4.612   5.588  1.7612  0.7399 -0.4948
  462MOL0     H63700   5.758   4.467   5.538 -0.9249 -0.1945 -2.5033
  462MOL0     H63701   6.001   4.574   5.381 -1.6453  1.8093  1.4398
  462MOL0     H63702   5.912   4.434   5.333  0.3550 -1.4439  0.8321
  462MOL0     H63703   5.959   4.297   5.528 -1.9983  1.9662  2.3634
  462MOL0     H63704   6.106   4.340   5.435  2.6278  3.1233  0.7219
  462MOL0     H63705   6.248   4.565   5.536  1.7724 -0.3302  0.4446
  462MOL0     H63706   6.252   4.706   5.887 -2.2833  3.4922 -3.0799
  462MOL0     H63707   6.321   4.742   5.733 -0.8295  0.1804 -0.4966
  462MOL0     H63708   6.481   4.652   5.917  0.4882 -0.6997  0.3039
  462MOL0     H63709   6.413   4.493   5.880  1.7277 -0.3497  0.7759
  462MOL0     H63710   6.475   4.516   5.642  0.2058 -0.8187  0.7654
  462MOL0     H63711   6.546   4.676   5.681  0.3425  1.4865  1.8534
  462MOL0     H63712   6.687   4.556   5.868 -2.2583  0.9051  0.8213
  462MOL0     H63713   6.637   4.402   5.803 -1.0419  0.8968  3.2048
  462MOL0     H63714   6.882   4.450   5.896 -1.0292 -0.1713  0.0411
  462MOL0     H63715   7.193   4.347   5.980  1.2506 -0.3628 -0.0535
  462MOL0     H63716   7.109   4.194   5.966 -0.1499  1.3519 -3.8690
  462MOL0     H63717   7.027   4.332   6.051 -1.4985  1.7300 -1.7037
  462MOL0     H63718   7.443   4.011   5.606 -0.7014  2.3787  0.7208
  462MOL0     H63719   7.674   3.954   5.575  2.0741  0.5555  6.3860
  462MOL0     H63720   7.841   4.155   5.330 -1.6990  0.3212  0.8374
  462MOL0     H63721   7.942   4.276   5.411  0.8623 -0.3602  0.1288
  462MOL0     H63722   8.094   4.163   5.295 -2.4159 -0.8611 -1.6166
  462MOL0     H63723   8.111   4.097   5.461  2.9643  2.3984 -1.0907
  462MOL0     H63724   7.949   3.910   5.382 -0.1086  2.0459  1.1007
  462MOL0     H63725   8.110   3.906   5.314  0.8865  0.6716  1.0730
  462MOL0     H63726   8.011   3.989   5.093  0.8103 -1.4357 -1.2533
  462MOL0     H63727   7.864   4.000   5.181  0.3879  0.1390  0.3636
  462MOL0     H63728   8.006   3.724   5.162 -1.4520 -1.5160  0.0650
  462MOL0     H63729   7.847   3.762   5.215 -0.7415  2.7770  0.5335
  462MOL0     H63730   7.788   3.815   4.954 -1.3008 -1.8213  0.8781
  462MOL0     H63731   7.820   3.660   5.008  0.8269 -1.1582  0.6681
  462MOL0     H63732   8.063   3.682   4.941  0.5545  0.7533 -1.0042
  462MOL0     H63733   8.008   3.855   4.881  0.2451  0.5794 -0.5281
  462MOL0     H63734   7.835   3.659   4.774 -1.7691  2.0594  3.1132
  462MOL0     H63735   7.999   3.599   4.751 -0.5515  0.2458 -1.9756
  462MOL0     H63736   7.761   4.370   5.524 -0.0244  0.5726  0.6738
  462MOL0     H63737   7.521   4.426   5.529 -1.9247 -0.2675 -0.3098
  462MOL0     H63738   7.105   4.326   5.484  0.5636  0.8096  0.6507
  462MOL0     H63739   6.882   4.423   5.484 -1.4653 -2.0982  1.3337
  462MOL0     H63740   5.313   4.841   4.810  0.9235  0.4176  0.5901
  462MOL0     H63741   5.084   4.900   4.800  1.9398  0.4321 -1.4826
  462MOL0     H63742   4.584   4.658   4.705  0.5052 -0.8238 -0.0321
  462MOL0     H63743   4.355   4.720   4.718  2.3241 -0.4475 -1.6074
  462MOL0     H63744   4.303   5.102   4.931 -0.7970  0.7611  0.7822
  462MOL0     H63745   4.214   5.095   4.777 -2.2652 -3.9503 -2.3887
  462MOL0     H63746   4.096   5.022   5.046 -0.1948 -0.6275  0.3413
  462MOL0     H63747   4.028   4.992   4.891 -0.7485 -0.4062  0.8076
  462MOL0     H63748   4.046   5.225   5.064 -2.0035 -0.3913  1.1893
  462MOL0     H63749   4.094   5.276   4.895 -1.8890 -0.5872 -1.6374
  462MOL0     H63750   3.838   5.165   5.010 -0.7772 -0.9690 -1.0127
  462MOL0     H63751   3.869   5.174   4.837 -1.0579 -0.5562  0.3296
  462MOL0     H63752   3.811   5.591   4.951 -1.0355  0.4846 -2.8514
  462MOL0     H63753   4.443   4.988   5.045  1.9704 -0.8313  2.3046
  462MOL0     H63754   4.753   5.003   5.022  2.3414 -1.4335 -1.7904
  462MOL0     H63755   4.662   4.972   5.161  0.2516  3.1108 -2.0302
  462MOL0     H63756   4.771   4.841   5.103 -0.3360  0.3065 -3.6295
  463MOL0     O63757   0.768   5.102   9.802 -0.3106  0.2772  0.0721
  463MOL0     C63758   0.784   4.988   9.841  0.4309 -0.2073  0.0606
  463MOL0     O63759   0.903   4.942   9.900  0.0464 -0.1490  0.3815
  463MOL0     C63760   1.013   5.028   9.895 -0.0451  0.7699 -0.4544
  463MOL0     C63761   1.097   5.048  10.011  0.8984  0.9140  0.9176
  463MOL0     C63762   1.196   5.140  10.008 -0.3769 -1.2339  0.1501
  463MOL0     C63763   1.221   5.222   9.894  0.2101  0.9976  0.0128
  463MOL0     O63764   1.321   5.315   9.887  0.0154 -0.4198  0.6237
  463MOL0     C63765   1.279   5.442   9.835 -0.9534 -0.3442  0.9110
  463MOL0     C63766   1.207   5.526   9.940 -1.4322  0.0839 -0.1143
  463MOL0     C63767   1.067   5.561   9.911  0.6653 -0.2589 -0.2885
  463MOL0     C63768   0.975   5.535  10.028 -0.5022 -0.2608 -0.6056
  463MOL0     C63769   0.841   5.594  10.003  1.2011  1.3711  0.2043
  463MOL0     C63770   0.745   5.517   9.906 -0.5197 -0.2478 -0.2495
  463MOL0     C63771   0.711   5.373   9.949 -0.8800  0.5117 -0.2681
  463MOL0     C63772   0.680   5.359  10.099  0.7328 -0.2916  1.4719
  463MOL0     N63773   0.642   5.212  10.114 -0.4781 -0.4376 -0.0036
  463MOL0     C63774   0.519   5.157  10.078  0.0307 -0.4808 -0.2030
  463MOL0     C63775   0.514   5.034  10.145 -0.3476 -1.2510  0.4302
  463MOL0     C63776   0.403   4.937  10.151 -0.6344 -0.8021  0.4522
  463MOL0     C63777   0.358   4.943  10.297 -0.0883  0.4317 -0.3300
  463MOL0     C63778   0.224   4.866  10.313  0.9870  0.2453 -0.1747
  463MOL0     C63779   0.115   4.908  10.422 -0.6434 -0.1062  0.3182
  463MOL0     O63780   0.176   4.929  10.553 -0.5565 -0.7439  0.4204
  463MOL0     C63781   0.234   4.817  10.606  0.1041 -0.8357 -0.6767
  463MOL0     C63782   0.167   4.698  10.639  0.5689 -0.3318 -0.0574
  463MOL0     C63783   0.237   4.583  10.693 -0.5085 -0.2582 -0.1475
  463MOL0     C63784   0.156   4.479  10.753  0.7206  1.2525  0.2616
  463MOL0     C63785   0.380   4.581  10.698 -0.1169 -0.1279  0.3036
  463MOL0     C63786   0.472   4.466  10.734  0.1719  0.2631  0.4517
  463MOL0     O63787   0.601   4.498  10.772  0.1501  0.4608  0.3214
  463MOL0     C63788   0.666   4.390  10.833  0.2021  0.1213 -0.1787
  463MOL0     C63789   0.701   4.380  10.968  0.3884 -0.8708 -0.0121
  463MOL0     C63790   0.780   4.278  11.030 -0.1525 -0.1028  0.2190
  463MOL0     C63791   0.829   4.171  10.939 -0.6192 -1.1647  0.4914
  463MOL0     O63792   0.921   4.075  10.980  0.3331 -0.4134  0.0474
  463MOL0     C63793   0.938   4.058  11.122 -0.6418 -0.3493  0.1301
  463MOL0     C63794   1.021   3.936  11.140  0.5555 -0.4298  0.3288
  463MOL0     C63795   0.986   3.802  11.074  0.9200  0.0602  0.5044
  463MOL0     C63796   1.073   3.679  11.099  0.0669 -1.2180 -0.4422
  463MOL0     C63797   1.023   3.556  11.028 -0.9158  0.3680 -0.0390
  463MOL0     C63798   0.893   3.500  11.091  0.4429  0.1866  0.5887
  463MOL0     C63799   0.910   3.373  11.170 -0.1218  0.0844 -1.0399
  463MOL0     C63800   0.769   3.305  11.192  0.0314  0.1913  0.7448
  463MOL0    Cl63801   0.636   3.408  11.264  0.2237 -0.5809  0.2190
  463MOL0     C63802   0.789   4.176  10.809 -0.6517  0.7946 -0.4930
  463MOL0     C63803   0.712   4.281  10.756 -0.0178  0.9697 -0.1977
  463MOL0     O63804   0.428   4.350  10.712  0.5544 -0.2582 -0.6349
  463MOL0     C63805   0.445   4.696  10.667 -0.5709  0.4054  0.4992
  463MOL0     C63806   0.371   4.817  10.629 -0.4191  0.1630 -0.2696
  463MOL0     N63807   0.635   5.025  10.200  0.2854 -0.1525 -0.7619
  463MOL0     N63808   0.717   5.124  10.182  0.6969  0.2454 -0.7859
  463MOL0     C63809   1.151   5.180   9.776  0.0555  0.3022 -0.7117
  463MOL0     C63810   1.044   5.096   9.778 -0.8270  0.5224  0.4616
  463MOL0     C63811   0.673   4.883   9.823  0.4064 -0.6658 -0.4295
  463MOL0     C63812   0.552   4.929   9.762  0.6876  0.2379  0.7897
  463MOL0     C63813   0.448   4.834   9.745  0.2810  0.3074 -0.9937
  463MOL0     C63814   0.471   4.697   9.763  0.4717  0.6958  0.0773
  463MOL0     O63815   0.395   4.589   9.725  0.4107 -0.1463 -0.0528
  463MOL0     C63816   0.262   4.609   9.673  0.3191 -0.0013 -0.0126
  463MOL0     C63817   0.156   4.655   9.775 -0.0419 -0.0377 -0.0026
  463MOL0     C63818   0.151   4.557   9.894  0.8421  0.0118  0.0834
  463MOL0     C63819   0.020   4.562   9.976 -0.4887  0.1265  0.7235
  463MOL0     C63820  -0.026   4.688  10.034 -0.4595  0.5701 -1.1170
  463MOL0     C63821  -0.048   4.800  10.074  0.0702  0.3720 -0.0029
  463MOL0     C63822   0.589   4.656   9.819  0.7928 -0.7514  0.2906
  463MOL0     C63823   0.690   4.746   9.858  1.0591  0.1444  0.9923
  463MOL0     C63824   0.807   4.685   9.930  0.0368  0.4879  0.3392
  463MOL0     H63825   1.073   5.002  10.106  0.4217  1.8092  1.2444
  463MOL0     H63826   1.253   5.169  10.097  1.9744 -0.5240 -1.4925
  463MOL0     H63827   1.215   5.441   9.746 -0.2901  2.8392  0.2726
  463MOL0     H63828   1.374   5.487   9.805  0.2495 -3.5218 -0.5060
  463MOL0     H63829   1.222   5.470  10.033  2.9232  1.2712  0.1076
  463MOL0     H63830   1.261   5.620   9.956  1.2300 -0.7606 -3.1304
  463MOL0     H63831   1.062   5.662   9.869  4.0735 -0.9945 -2.9078
  463MOL0     H63832   1.031   5.495   9.831 -0.2269 -1.6134  1.1663
  463MOL0     H63833   0.968   5.425  10.029 -1.7632 -0.2026  0.6785
  463MOL0     H63834   1.021   5.568  10.122 -0.3300 -1.6798 -0.1643
  463MOL0     H63835   0.855   5.693   9.959 -1.1935  1.7351  0.1415
  463MOL0     H63836   0.789   5.607  10.098  1.6604  0.0442  0.6582
  463MOL0     H63837   0.661   5.586   9.892  1.2650  1.6846 -2.2443
  463MOL0     H63838   0.779   5.510   9.802  1.3078 -0.0066  0.2923
  463MOL0     H63839   0.800   5.312   9.937 -2.0815 -1.6477  1.2692
  463MOL0     H63840   0.626   5.332   9.893 -4.1361  3.2715  2.1820
  463MOL0     H63841   0.770   5.375  10.160  1.9196  0.4889 -0.3910
  463MOL0     H63842   0.601   5.424  10.136  1.4690  1.6237 -0.1291
  463MOL0     H63843   0.442   5.215  10.027  1.8898  3.3065  0.9214
  463MOL0     H63844   0.424   4.833  10.124 -1.0797 -0.8046  0.1012
  463MOL0     H63845   0.321   4.960  10.081  1.5442  0.8687 -1.7647
  463MOL0     H63846   0.441   4.906  10.357  1.7824  2.4177 -1.5362
  463MOL0     H63847   0.347   5.044  10.336  1.5873  0.0679  1.1940
  463MOL0     H63848   0.167   4.874  10.219 -2.4921 -1.3107  1.6141
  463MOL0     H63849   0.238   4.758  10.323  0.1277 -0.0723 -1.8618
  463MOL0     H63850   0.066   5.002  10.394  1.9756  1.7094  1.4347
  463MOL0     H63851   0.035   4.833  10.417  0.2591 -1.0843 -5.1470
  463MOL0     H63852   0.060   4.693  10.626  0.4057 -1.9961  1.5335
  463MOL0     H63853   0.048   4.491  10.740  0.3926 -2.5449 -2.2939
  463MOL0     H63854   0.181   4.456  10.857 -0.9515  0.3520  0.4973
  463MOL0     H63855   0.161   4.389  10.690 -1.4219  1.6248 -0.5396
  463MOL0     H63856   0.660   4.461  11.027  1.0555  0.1486 -0.9223
  463MOL0     H63857   0.819   4.285  11.131 -0.6645 -1.5202  0.5527
  463MOL0     H63858   0.980   4.142  11.177  1.2934 -1.6971  0.8280
  463MOL0     H63859   0.841   4.034  11.167 -1.3119  1.3643 -0.3084
  463MOL0     H63860   1.125   3.958  11.115  1.2016 -2.3435  1.0820
  463MOL0     H63861   1.018   3.918  11.248 -1.6917 -1.2243  0.1875
  463MOL0     H63862   0.983   3.814  10.965 -2.7325  1.4753  0.6147
  463MOL0     H63863   0.886   3.772  11.106  0.2161  0.7626 -0.9481
  463MOL0     H63864   1.084   3.663  11.206 -1.3996 -0.8161 -0.2094
  463MOL0     H63865   1.171   3.706  11.059 -1.1346  1.2319 -2.0224
  463MOL0     H63866   1.013   3.584  10.922 -0.7925  1.0693  0.1314
  463MOL0     H63867   1.105   3.482  11.025 -1.9479 -0.7925 -2.2624
  463MOL0     H63868   0.830   3.483  11.004 -0.4587  1.4848  0.9669
  463MOL0     H63869   0.839   3.574  11.151 -2.3948 -2.4463  1.5620
  463MOL0     H63870   0.960   3.384  11.267 -0.2385  1.7065 -1.1403
  463MOL0     H63871   0.963   3.306  11.102 -0.4918 -0.5653 -0.6899
  463MOL0     H63872   0.782   3.214  11.251  1.7943 -2.1854 -2.9131
  463MOL0     H63873   0.736   3.268  11.094 -0.2284  1.4245  0.3566
  463MOL0     H63874   0.836   4.101  10.746 -1.0981  0.0586  0.0397
  463MOL0     H63875   0.707   4.267  10.649  1.2155 -1.9458  0.0069
  463MOL0     H63876   0.551   4.715  10.659 -0.6550  0.3412 -0.9282
  463MOL0     H63877   0.435   4.903  10.612 -0.0119 -0.1783 -0.4784
  463MOL0     H63878   1.161   5.234   9.682 -0.6839 -1.6230 -1.9593
  463MOL0     H63879   0.980   5.068   9.695 -2.7837  0.3415  1.9400
  463MOL0     H63880   0.547   5.034   9.737  0.5276  0.2171  0.7338
  463MOL0     H63881   0.356   4.869   9.699  0.4057  3.7572  1.0156
  463MOL0     H63882   0.270   4.690   9.599 -0.5135  1.2250  1.1876
  463MOL0     H63883   0.237   4.516   9.623  1.7591 -1.5267  1.9457
  463MOL0     H63884   0.055   4.666   9.734 -1.7042  4.0823  4.2729
  463MOL0     H63885   0.192   4.749   9.817 -3.4854  1.0624  0.8001
  463MOL0     H63886   0.159   4.451   9.866  0.8421 -0.2254  0.9410
  463MOL0     H63887   0.231   4.583   9.963  0.3202  0.3904  0.5536
  463MOL0     H63888   0.022   4.496  10.063 -1.0402  0.9108  1.3478
  463MOL0     H63889  -0.049   4.525   9.900  1.6049 -2.1446 -0.2330
  463MOL0     H63890  -0.069   4.900  10.106  2.5460  1.6976 -2.0902
  463MOL0     H63891   0.598   4.550   9.839  0.7978 -0.6743  0.7158
  463MOL0     H63892   0.802   4.577   9.947  0.3506  0.0781 -1.8573
  463MOL0     H63893   0.894   4.687   9.864  0.8387  0.9748  1.3876
  463MOL0     H63894   0.823   4.737  10.025 -1.1534  2.1227 -0.3109
  464MOL0     O63895  10.918  10.802   0.202 -0.5975 -0.6129 -0.0729
  464MOL0     C63896  10.928  10.905   0.134 -0.1407  0.1723 -0.3795
  464MOL0     O63897  10.920  11.035   0.183  0.7512 -0.2600  1.3188
  464MOL0     C63898  10.892  11.051   0.314  0.1563 -0.3429  0.7834
  464MOL0     C63899  10.991  11.105   0.396 -0.3842 -0.2983  0.8215
  464MOL0     C63900  10.965  11.131   0.536  0.2876 -0.5343  0.0325
  464MOL0     C63901  10.841  11.116   0.585 -0.0424 -0.1760 -0.7854
  464MOL0     O63902  10.803  11.183   0.700  0.7306  0.2080 -0.0549
  464MOL0     C63903  10.831  11.116   0.822 -1.4217  0.2895  0.2756
  464MOL0     C63904  10.864  11.219   0.927 -0.1728 -0.1789  0.2863
  464MOL0     C63905  10.991  11.298   0.899  0.2389  0.1528 -0.3326
  464MOL0     C63906  11.050  11.364   1.025  0.2666  0.3111  0.9012
  464MOL0     C63907  11.151  11.469   0.971 -0.1657  0.6603  0.2228
  464MOL0     C63908  11.229  11.539   1.085  0.5298 -0.2184 -0.5765
  464MOL0     C63909  11.316  11.652   1.035  1.0094  0.1275  0.5382
  464MOL0     C63910  11.247  11.786   1.032  0.4903  0.4086 -0.1146
  464MOL0     N63911  11.300  11.900   0.952  0.4638 -0.3288 -0.2379
  464MOL0     C63912  11.341  11.899   0.824 -0.3331 -0.7025  0.1398
  464MOL0     C63913  11.361  12.027   0.789 -0.0914 -0.3831  0.9884
  464MOL0     C63914  11.376  12.078   0.646  0.3356 -0.0944 -0.1769
  464MOL0     C63915  11.508  12.039   0.571 -0.0199 -0.3644  0.1895
  464MOL0     C63916  11.633  12.054   0.653 -0.8359  0.4247 -0.0290
  464MOL0     C63917  11.756  12.032   0.582 -0.1654  0.2099  0.1083
  464MOL0     O63918  11.752  12.120   0.468  0.5523 -0.4035  0.6085
  464MOL0     C63919  11.881  12.156   0.431 -0.0422 -0.4848  0.1487
  464MOL0     C63920  11.987  12.063   0.428 -0.1785 -0.5551 -0.0114
  464MOL0     C63921  12.118  12.108   0.383  0.3068  0.2439  0.8285
  464MOL0     C63922  12.214  11.994   0.360  0.1903  0.2700 -0.7907
  464MOL0     C63923  12.142  12.245   0.361 -0.2750  0.3735  0.8168
  464MOL0     C63924  12.278  12.305   0.340 -0.4062  0.1657 -0.1583
  464MOL0     O63925  12.269  12.432   0.283 -0.5299  0.0995 -0.3413
  464MOL0     C63926  12.379  12.485   0.241 -0.5725  0.2470  0.7586
  464MOL0     C63927  12.466  12.431   0.148  0.2179  0.4279 -0.2836
  464MOL0     C63928  12.592  12.489   0.116 -0.7070 -0.3271 -0.6520
  464MOL0     C63929  12.626  12.612   0.175  1.0227  0.1360 -1.0803
  464MOL0     O63930  12.749  12.658   0.175 -0.9549  0.5160 -0.8409
  464MOL0     C63931  12.771  12.758   0.076  0.7349  0.7805  0.5303
  464MOL0     C63932  12.900  12.816   0.109  0.1130  0.1344  0.0758
  464MOL0     C63933  13.022  12.725   0.120  0.3987 -0.2545  0.2703
  464MOL0     C63934  13.157  12.800   0.140  0.1802 -0.1625  0.5354
  464MOL0     C63935  13.263  12.694   0.170 -0.2827  0.4918  0.3449
  464MOL0     C63936  13.403  12.762   0.192 -0.3121 -0.3620  0.7204
  464MOL0     C63937  13.510  12.671   0.240 -0.2806 -0.7769  0.2920
  464MOL0     C63938  13.573  12.606   0.119  0.6493 -0.6109  0.9340
  464MOL0    Cl63939  13.674  12.455   0.153  0.1007 -0.0662  0.3518
  464MOL0     C63940  12.542  12.662   0.274 -0.7725 -0.8323 -0.3236
  464MOL0     C63941  12.417  12.604   0.302  0.6336  0.1955  0.0943
  464MOL0     O63942  12.383  12.237   0.355 -0.4521  0.5819  0.7270
  464MOL0     C63943  12.031  12.332   0.359 -0.8232 -0.6028  0.3698
  464MOL0     C63944  11.903  12.295   0.394 -0.6746  0.3923  0.0740
  464MOL0     N63945  11.325  12.102   0.899 -0.1495 -0.1890  0.6283
  464MOL0     N63946  11.280  12.031   0.996  0.1979  0.5823  0.4906
  464MOL0     C63947  10.738  11.071   0.497 -0.6535 -0.0646 -0.6022
  464MOL0     C63948  10.757  11.040   0.362 -0.7347  0.0098  0.2963
  464MOL0     C63949  10.957  10.890  -0.005  0.2476 -0.0707  0.5338
  464MOL0     C63950  10.919  10.993  -0.092  0.8123  1.0134 -1.0339
  464MOL0     C63951  10.904  10.955  -0.225  0.1912 -0.0670 -0.5226
  464MOL0     C63952  10.970  10.841  -0.279  0.0997 -0.6160 -0.5158
  464MOL0     O63953  10.977  10.806  -0.412 -0.1166  0.5976 -0.3010
  464MOL0     C63954  10.890  10.867  -0.511 -0.4249  0.3340  0.4034
  464MOL0     C63955  10.745  10.824  -0.496 -0.1622 -0.1997  0.2555
  464MOL0     C63956  10.714  10.672  -0.525 -0.2133 -0.6991 -0.8992
  464MOL0     C63957  10.578  10.642  -0.573 -0.1443  0.5182  0.8147
  464MOL0     C63958  10.472  10.682  -0.482  0.3248  0.2514 -0.3199
  464MOL0     C63959  10.372  10.717  -0.417  0.3961  0.6261  0.4175
  464MOL0     C63960  11.045  10.762  -0.190  0.2410 -0.0820 -0.2688
  464MOL0     C63961  11.036  10.781  -0.052 -0.0396 -0.1862 -0.5251
  464MOL0     C63962  11.115  10.689   0.037 -0.6905 -0.9032  0.8365
  464MOL0     H63963  11.088  11.132   0.355 -2.1739 -0.6627 -4.4225
  464MOL0     H63964  11.042  11.169   0.602  1.7548 -1.5625 -1.0016
  464MOL0     H63965  10.913  11.044   0.812 -1.8712 -0.9177  3.8140
  464MOL0     H63966  10.751  11.044   0.841  0.1996 -1.3852  1.1927
  464MOL0     H63967  10.775  11.281   0.940  0.8736  1.2743  0.7911
  464MOL0     H63968  10.879  11.162   1.019 -1.6060 -0.9127  0.0917
  464MOL0     H63969  11.062  11.227   0.854 -1.3596 -1.1121 -0.9603
  464MOL0     H63970  10.968  11.374   0.824  2.8080  1.6133  0.2375
  464MOL0     H63971  10.965  11.414   1.072 -0.0245  0.5701  0.1205
  464MOL0     H63972  11.094  11.293   1.096  2.4421 -0.0384 -0.7087
  464MOL0     H63973  11.099  11.537   0.903  1.0556 -0.1232 -1.6013
  464MOL0     H63974  11.222  11.413   0.909  0.1115  0.6173  0.5747
  464MOL0     H63975  11.159  11.584   1.156  0.9789  0.3892 -0.5232
  464MOL0     H63976  11.292  11.457   1.120 -1.7014 -1.4115  0.9490
  464MOL0     H63977  11.358  11.622   0.939  0.0442 -3.8463  1.1906
  464MOL0     H63978  11.406  11.673   1.093  0.0098  3.6799  1.0521
  464MOL0     H63979  11.156  11.767   0.975  1.5819  1.0680 -2.1733
  464MOL0     H63980  11.221  11.819   1.133 -0.6535  1.5810 -0.7650
  464MOL0     H63981  11.346  11.810   0.763 -3.9489  0.3397 -2.0363
  464MOL0     H63982  11.354  12.185   0.652  1.7313  0.2639 -0.9964
  464MOL0     H63983  11.296  12.035   0.585 -0.4198 -3.2038  2.7180
  464MOL0     H63984  11.505  11.932   0.546  3.8984 -0.2596 -1.3946
  464MOL0     H63985  11.508  12.094   0.477 -1.9805  1.1244  1.0020
  464MOL0     H63986  11.623  12.151   0.704 -0.6255 -0.0370  0.8988
  464MOL0     H63987  11.642  11.976   0.729 -1.6118  0.0133 -0.3496
  464MOL0     H63988  11.842  12.060   0.644 -0.0058 -1.7844  0.8662
  464MOL0     H63989  11.762  11.929   0.546 -0.9975 -0.5654  2.0337
  464MOL0     H63990  11.961  11.960   0.448  2.1186 -1.3509 -0.8116
  464MOL0     H63991  12.163  11.909   0.313  2.1986 -1.4264 -0.0462
  464MOL0     H63992  12.249  11.959   0.458  0.4872  0.9947 -0.6355
  464MOL0     H63993  12.301  12.020   0.299 -0.7169 -0.4058 -2.4379
  464MOL0     H63994  12.443  12.339   0.094 -0.2447  0.9829 -1.0558
  464MOL0     H63995  12.664  12.435   0.056 -0.0319  1.2957 -1.3521
  464MOL0     H63996  12.758  12.724  -0.027 -0.3901 -2.6304  1.6843
  464MOL0     H63997  12.694  12.836   0.084 -1.0578 -0.6862 -1.2909
  464MOL0     H63998  12.920  12.882   0.024  1.1513 -2.0532 -1.4500
  464MOL0     H63999  12.879  12.885   0.192 -1.4392 -0.3518  0.1160
  464MOL0     H64000  13.033  12.663   0.031 -0.7024 -0.1912  0.0729
  464MOL0     H64001  13.009  12.662   0.208  0.2522  0.6184  0.8854
  464MOL0     H64002  13.152  12.877   0.218  1.0762 -0.5311  0.9756
  464MOL0     H64003  13.195  12.847   0.049 -2.1263 -0.2477 -0.5440
  464MOL0     H64004  13.240  12.647   0.266  1.0420 -2.3585 -0.5934
  464MOL0     H64005  13.258  12.616   0.093 -1.4722 -1.0036  1.8591
  464MOL0     H64006  13.392  12.851   0.255 -1.9796  0.8680 -1.1610
  464MOL0     H64007  13.432  12.811   0.098 -2.4731  2.5129  1.4304
  464MOL0     H64008  13.472  12.588   0.299  2.1607 -2.1144  0.1211
  464MOL0     H64009  13.600  12.705   0.293  0.1892 -0.9994 -0.3436
  464MOL0     H64010  13.636  12.674   0.060 -0.6562 -0.1643  0.0154
  464MOL0     H64011  13.500  12.583   0.041  1.0061 -0.0069  0.4079
  464MOL0     H64012  12.564  12.746   0.338  1.2367 -1.6702  0.1486
  464MOL0     H64013  12.365  12.633   0.393 -0.3861  0.6215 -0.6023
  464MOL0     H64014  12.046  12.436   0.334  1.1765 -1.3159 -1.6490
  464MOL0     H64015  11.824  12.368   0.383  1.6340  2.7396 -2.7969
  464MOL0     H64016  10.640  11.056   0.542 -0.2053  1.3891  0.9533
  464MOL0     H64017  10.684  10.995   0.296 -0.5564 -1.4297  1.0309
  464MOL0     H64018  10.879  11.086  -0.053  1.0642  0.7583 -0.1426
  464MOL0     H64019  10.849  11.019  -0.294  0.0042 -1.7654 -2.0275
  464MOL0     H64020  10.902  10.976  -0.514 -0.4416  0.3245 -0.3698
  464MOL0     H64021  10.917  10.819  -0.606  1.0700 -3.1748  2.4102
  464MOL0     H64022  10.684  10.885  -0.563 -1.2119  1.3526  2.4919
  464MOL0     H64023  10.706  10.844  -0.396  2.2388  3.7840  0.5914
  464MOL0     H64024  10.790  10.635  -0.595  1.6644 -1.5848  1.4468
  464MOL0     H64025  10.731  10.615  -0.433 -0.3098  3.7919  2.1868
  464MOL0     H64026  10.582  10.535  -0.595  2.8353  1.0036 -1.7691
  464MOL0     H64027  10.552  10.692  -0.666 -1.7010 -1.4376  0.1228
  464MOL0     H64028  10.285  10.725  -0.355  1.3350 -0.5291  1.9544
  464MOL0     H64029  11.096  10.679  -0.238  0.1251  0.5973 -1.6143
  464MOL0     H64030  11.204  10.652  -0.014 -0.9655 -3.0813  1.8216
  464MOL0     H64031  11.143  10.736   0.132  0.0178 -3.4160  1.9594
  464MOL0     H64032  11.046  10.607   0.055 -0.2332 -1.5375 -0.2213
  465MOL0     O64033   9.462  11.200   7.747 -0.5300  0.5589 -0.4832
  465MOL0     C64034   9.492  11.297   7.680  0.4974  0.2121 -0.4637
  465MOL0     O64035   9.419  11.337   7.573 -0.0305  0.7237 -0.6334
  465MOL0     C64036   9.283  11.300   7.549 -0.4931  0.0835 -0.1720
  465MOL0     C64037   9.239  11.319   7.416 -0.6535  0.4876 -0.3083
  465MOL0     C64038   9.113  11.289   7.376  0.1503 -0.9341 -0.6105
  465MOL0     C64039   9.018  11.250   7.470 -0.2244  0.5591 -0.6109
  465MOL0     O64040   8.889  11.219   7.448  0.2614  0.0990  0.3030
  465MOL0     C64041   8.816  11.298   7.351 -0.7615  0.3192 -0.3813
  465MOL0     C64042   8.656  11.282   7.365 -0.7685 -0.2430  1.0414
  465MOL0     C64043   8.580  11.306   7.224 -0.4894 -0.1732 -0.2084
  465MOL0     C64044   8.443  11.236   7.241  0.9170  0.6346  1.0267
  465MOL0     C64045   8.346  11.289   7.130  0.8963  0.2241  0.7257
  465MOL0     C64046   8.369  11.214   6.995 -0.1230  0.9702 -0.4579
  465MOL0     C64047   8.241  11.224   6.915  0.4221 -0.5059  0.2947
  465MOL0     C64048   8.247  11.155   6.777  1.0051 -0.0971 -0.1816
  465MOL0     N64049   8.127  11.167   6.702  0.5293  0.1553  0.2514
  465MOL0     C64050   8.032  11.071   6.706  0.2647 -0.1985 -0.2898
  465MOL0     C64051   7.918  11.141   6.662  0.2720  0.0315  0.1780
  465MOL0     C64052   7.778  11.073   6.661  0.0864  0.6979 -0.3342
  465MOL0     C64053   7.740  11.033   6.805  0.2885  0.6733 -0.1036
  465MOL0     C64054   7.717  11.139   6.914  0.4805  0.6574  0.6073
  465MOL0     C64055   7.634  11.255   6.866  0.2322  1.1143 -0.3887
  465MOL0     O64056   7.605  11.338   6.978  0.3237 -0.5763  0.5401
  465MOL0     C64057   7.706  11.409   7.039 -0.7307  0.0384 -0.2326
  465MOL0     C64058   7.680  11.472   7.159  0.6708 -0.7685 -0.6414
  465MOL0     C64059   7.768  11.556   7.227  0.7350 -0.3637 -0.3904
  465MOL0     C64060   7.700  11.637   7.333 -0.4134  0.0436 -0.0074
  465MOL0     C64061   7.906  11.557   7.180  0.2738 -0.5707  0.6175
  465MOL0     C64062   8.017  11.624   7.257 -1.0678  0.0251  1.1292
  465MOL0     O64063   8.140  11.651   7.186  0.3760 -0.2493 -0.1946
  465MOL0     C64064   8.242  11.691   7.264  0.8505 -0.0298  0.4220
  465MOL0     C64065   8.330  11.789   7.217 -1.0404 -0.3997  0.4041
  465MOL0     C64066   8.452  11.814   7.286  0.1790 -0.0015 -0.1686
  465MOL0     C64067   8.476  11.763   7.410 -0.5174  0.1201 -0.2068
  465MOL0     O64068   8.587  11.791   7.478 -0.8070  0.8376  0.7503
  465MOL0     C64069   8.652  11.916   7.459 -1.0647 -0.4083  0.2647
  465MOL0     C64070   8.795  11.900   7.531 -0.1508 -0.2084  0.1009
  465MOL0     C64071   8.888  11.801   7.456  0.9964  0.4833 -0.4104
  465MOL0     C64072   9.024  11.855   7.457 -0.4137  1.1848 -0.3429
  465MOL0     C64073   9.114  11.764   7.369 -0.2793  0.5547 -0.0737
  465MOL0     C64074   9.255  11.813   7.350 -0.7946 -0.2266  0.0570
  465MOL0     C64075   9.344  11.698   7.295 -0.1948 -0.2064 -0.5167
  465MOL0     C64076   9.311  11.665   7.146  0.1241 -0.9481  0.3101
  465MOL0    Cl64077   9.177  11.549   7.152  0.2445 -0.0392 -0.1049
  465MOL0     C64078   8.387  11.660   7.461 -0.1899 -0.0700  0.4787
  465MOL0     C64079   8.283  11.623   7.382 -0.4848 -0.2767 -0.8315
  465MOL0     O64080   7.987  11.668   7.364  0.4692  0.7567 -0.5291
  465MOL0     C64081   7.933  11.500   7.055 -0.2514  1.0800  0.0538
  465MOL0     C64082   7.838  11.423   6.987 -0.6157  0.7328 -0.0169
  465MOL0     N64083   7.946  11.281   6.644  0.4944 -0.4050  0.0287
  465MOL0     N64084   8.076  11.285   6.663 -0.4771  0.0096  0.1634
  465MOL0     C64085   9.052  11.229   7.606 -0.2265 -0.4576  0.4469
  465MOL0     C64086   9.189  11.257   7.645 -0.2410  0.1143 -0.2996
  465MOL0     C64087   9.626  11.365   7.704  0.3136 -0.3329 -0.0140
  465MOL0     C64088   9.664  11.478   7.625  0.6082 -0.1666 -0.2223
  465MOL0     C64089   9.796  11.538   7.635 -0.0646 -0.9167  0.1082
  465MOL0     C64090   9.886  11.487   7.732  0.4321 -0.4250 -0.2341
  465MOL0     O64091  10.016  11.533   7.751 -0.3180 -0.0858  0.7323
  465MOL0     C64092  10.041  11.676   7.757 -0.9955 -0.6960 -0.2251
  465MOL0     C64093  10.197  11.698   7.740 -0.3049 -1.1202  0.8133
  465MOL0     C64094  10.270  11.680   7.871  1.2392  0.0973 -0.1779
  465MOL0     C64095  10.412  11.660   7.839 -0.1938 -0.4155  0.0612
  465MOL0     C64096  10.490  11.666   7.962 -0.6084  0.2148  0.0943
  465MOL0     C64097  10.562  11.674   8.065  0.4927  0.2530  0.5643
  465MOL0     C64098   9.840  11.384   7.820 -1.5952 -0.0149 -0.0260
  465MOL0     C64099   9.716  11.318   7.802 -0.1807 -0.5213 -0.6220
  465MOL0     C64100   9.688  11.209   7.908  0.9140 -0.3644 -0.1051
  465MOL0     H64101   9.319  11.342   7.347 -0.4966 -0.9988 -0.6709
  465MOL0     H64102   9.078  11.309   7.276 -7.3957  1.1758  1.8034
  465MOL0     H64103   8.850  11.253   7.258  0.1850 -1.6784  0.8689
  465MOL0     H64104   8.835  11.406   7.346 -1.0070  0.3035 -2.6175
  465MOL0     H64105   8.635  11.181   7.399  3.1525 -2.2060 -1.6162
  465MOL0     H64106   8.617  11.353   7.439  0.1499 -1.6110  2.8966
  465MOL0     H64107   8.575  11.413   7.198 -0.8081  0.2255  1.3871
  465MOL0     H64108   8.632  11.263   7.138 -1.1267 -0.8727 -0.2564
  465MOL0     H64109   8.461  11.130   7.220 -0.4126  0.7005 -0.6737
  465MOL0     H64110   8.406  11.240   7.344  0.3796  0.6594  0.8340
  465MOL0     H64111   8.351  11.397   7.118  2.1178  0.1390  0.3312
  465MOL0     H64112   8.249  11.265   7.174  1.7601 -0.4711  2.3338
  465MOL0     H64113   8.457  11.257   6.947  0.2934 -0.9996 -1.5787
  465MOL0     H64114   8.377  11.108   7.023 -7.0059  0.3906  1.2193
  465MOL0     H64115   8.233  11.332   6.895  1.4157 -0.3848  0.4982
  465MOL0     H64116   8.153  11.191   6.970 -1.4888  1.4174 -1.3692
  465MOL0     H64117   8.330  11.203   6.724 -0.7202  2.5774 -0.6902
  465MOL0     H64118   8.271  11.050   6.792  0.5982 -0.3286 -1.1063
  465MOL0     H64119   8.053  10.966   6.725 -3.1294 -0.7549  1.1877
  465MOL0     H64120   7.796  10.978   6.610 -1.6668 -0.1646  0.5550
  465MOL0     H64121   7.695  11.133   6.624 -0.4533  0.1183 -0.0959
  465MOL0     H64122   7.645  10.979   6.794  0.7889 -0.2018 -0.1628
  465MOL0     H64123   7.809  10.956   6.839 -1.0797 -1.4003 -1.7303
  465MOL0     H64124   7.681  11.099   7.009  1.8569  2.8593  2.1730
  465MOL0     H64125   7.816  11.176   6.942 -0.4136  2.2297  1.8567
  465MOL0     H64126   7.689  11.308   6.789  0.2426 -1.3614 -2.2059
  465MOL0     H64127   7.547  11.216   6.813 -0.0188 -0.1205  0.8697
  465MOL0     H64128   7.579  11.469   7.197  1.0088  1.4993  0.6182
  465MOL0     H64129   7.596  11.652   7.303 -0.3222 -0.4423 -0.5877
  465MOL0     H64130   7.744  11.737   7.344  1.6029 -0.7184 -0.7042
  465MOL0     H64131   7.691  11.586   7.429  1.7541  1.9074  1.2905
  465MOL0     H64132   8.318  11.818   7.113  1.5802 -0.9740 -0.1163
  465MOL0     H64133   8.517  11.886   7.237 -1.1592  1.9914  0.8518
  465MOL0     H64134   8.683  11.931   7.355  0.7465 -0.7810  0.7068
  465MOL0     H64135   8.603  12.005   7.498  0.3420 -0.6778  2.8690
  465MOL0     H64136   8.845  11.997   7.536  0.8503 -0.7750  1.7353
  465MOL0     H64137   8.780  11.871   7.635  0.2597  2.8424  1.1138
  465MOL0     H64138   8.860  11.776   7.353 -1.4404 -3.2063  0.9252
  465MOL0     H64139   8.883  11.701   7.500 -2.1316  0.7191 -0.0232
  465MOL0     H64140   9.067  11.867   7.557  0.6255  0.3792 -0.6692
  465MOL0     H64141   9.029  11.956   7.416  0.1215  0.7368 -1.4169
  465MOL0     H64142   9.112  11.663   7.412  0.4304  1.5279  2.4140
  465MOL0     H64143   9.062  11.746   7.274  0.4671 -1.1187 -0.2147
  465MOL0     H64144   9.300  11.834   7.447  1.6412  0.3569 -1.1418
  465MOL0     H64145   9.257  11.905   7.291 -1.0384 -1.0265 -1.2285
  465MOL0     H64146   9.327  11.605   7.351 -0.0307  1.0261  1.7268
  465MOL0     H64147   9.447  11.732   7.310 -0.3805  0.3560 -0.4958
  465MOL0     H64148   9.395  11.609   7.105 -0.0115 -0.8704 -0.0744
  465MOL0     H64149   9.287  11.759   7.095  1.1528 -0.6790  0.3043
  465MOL0     H64150   8.417  11.614   7.555  1.1618  0.1205  0.1643
  465MOL0     H64151   8.238  11.534   7.425  1.6202 -1.6860 -1.3955
  465MOL0     H64152   8.034  11.494   7.014 -0.5308 -0.4440 -0.5009
  465MOL0     H64153   7.861  11.370   6.895 -2.8319 -1.2274  0.4470
  465MOL0     H64154   8.978  11.188   7.673 -2.0676 -1.1150 -1.8437
  465MOL0     H64155   9.219  11.248   7.748  1.8436 -4.3087 -1.0678
  465MOL0     H64156   9.589  11.513   7.556  1.2433  1.2854 -0.1915
  465MOL0     H64157   9.822  11.625   7.576 -0.6226 -1.7430 -1.4054
  465MOL0     H64158  10.000  11.719   7.666  1.1233 -0.3359 -1.0780
  465MOL0     H64159  10.002  11.729   7.844 -0.4962 -0.8600  0.1056
  465MOL0     H64160  10.205  11.803   7.712  0.8534 -1.3019  0.4170
  465MOL0     H64161  10.232  11.624   7.667 -2.8282  0.8971 -2.7178
  465MOL0     H64162  10.243  11.762   7.939 -0.7957 -1.0054  0.4212
  465MOL0     H64163  10.232  11.590   7.920  0.2689  0.5490 -0.0683
  465MOL0     H64164  10.448  11.735   7.769  2.5427 -0.5766  1.1910
  465MOL0     H64165  10.425  11.562   7.791 -2.6172 -0.2696 -1.0637
  465MOL0     H64166  10.629  11.675   8.149  0.9649  2.3711  0.2151
  465MOL0     H64167   9.910  11.347   7.895  0.7241  1.1123 -1.5373
  465MOL0     H64168   9.721  11.111   7.872  1.8677 -1.0921  2.4904
  465MOL0     H64169   9.742  11.230   8.002 -2.3430  0.4271  1.7513
  465MOL0     H64170   9.588  11.191   7.949  0.7904  1.4380  0.4789
  466MOL0     O64171   5.772  11.268   0.017 -0.0821 -0.5799  0.2478
  466MOL0     C64172   5.699  11.341   0.082  0.0536 -0.2527 -0.2602
  466MOL0     O64173   5.732  11.420   0.195  0.0416  0.2237 -0.4897
  466MOL0     C64174   5.863  11.406   0.246  0.2750  0.5935 -1.0617
  466MOL0     C64175   5.930  11.293   0.273  0.3873 -0.6490  0.3898
  466MOL0     C64176   6.060  11.291   0.324 -0.5440 -0.5249  0.8293
  466MOL0     C64177   6.124  11.416   0.349 -0.8744  1.1703 -0.8139
  466MOL0     O64178   6.235  11.409   0.419  0.5439 -0.8258 -0.2126
  466MOL0     C64179   6.341  11.475   0.362  0.6607 -0.5889  0.0071
  466MOL0     C64180   6.475  11.410   0.418  0.5680 -0.9025 -0.1348
  466MOL0     C64181   6.502  11.278   0.345 -1.1444 -0.2653 -0.3263
  466MOL0     C64182   6.633  11.220   0.402  0.4496  0.2616  0.1412
  466MOL0     C64183   6.759  11.303   0.381 -0.5266 -0.1305  0.3941
  466MOL0     C64184   6.863  11.260   0.496 -0.1007  0.8378  0.3647
  466MOL0     C64185   6.918  11.123   0.503  0.1048 -0.3671  0.7184
  466MOL0     C64186   7.009  11.088   0.382 -0.6628 -0.0587 -0.7999
  466MOL0     N64187   7.129  11.183   0.379  0.9478  0.7802 -0.8201
  466MOL0     C64188   7.134  11.285   0.282 -0.2421  0.7829  0.8332
  466MOL0     C64189   7.261  11.330   0.306  0.2609  0.9494  0.2535
  466MOL0     C64190   7.305  11.449   0.227  0.0013  0.1430 -0.3114
  466MOL0     C64191   7.464  11.458   0.231  0.9563  0.1733 -0.6959
  466MOL0     C64192   7.507  11.566   0.136 -0.6870  0.3658 -0.4106
  466MOL0     C64193   7.662  11.580   0.145 -0.1910 -0.0848 -0.2862
  466MOL0     O64194   7.713  11.554   0.014 -0.5056  0.0754 -0.1144
  466MOL0     C64195   7.844  11.507   0.003 -0.2391 -0.1900  0.6311
  466MOL0     C64196   7.880  11.457  -0.119 -0.1118  0.0271 -0.0490
  466MOL0     C64197   8.014  11.426  -0.153 -0.7352  0.0403  0.0307
  466MOL0     C64198   8.039  11.383  -0.293 -0.5319  0.4390  0.2988
  466MOL0     C64199   8.117  11.445  -0.049  0.4369  0.3408  0.6802
  466MOL0     C64200   8.260  11.424  -0.078 -0.4334 -0.3025 -0.2847
  466MOL0     O64201   8.303  11.410  -0.205 -0.0012  0.0093  0.2566
  466MOL0     C64202   8.400  11.323  -0.240 -0.0969 -0.3858 -0.2251
  466MOL0     C64203   8.440  11.221  -0.153  0.4046 -0.3504  0.0087
  466MOL0     C64204   8.545  11.132  -0.197  0.2363 -0.1726  0.6683
  466MOL0     C64205   8.616  11.148  -0.317  0.5601 -0.7352  0.3841
  466MOL0     O64206   8.711  11.061  -0.359 -0.0002 -0.2877  0.4427
  466MOL0     C64207   8.679  10.917  -0.341 -0.3754 -0.1071 -0.2090
  466MOL0     C64208   8.780  10.840  -0.415  0.7595  0.5402 -0.1513
  466MOL0     C64209   8.745  10.696  -0.376  0.0032  0.4392 -0.0847
  466MOL0     C64210   8.845  10.603  -0.444 -0.5120  0.4001 -0.7949
  466MOL0     C64211   8.811  10.458  -0.406 -0.1235  0.5111 -0.0222
  466MOL0     C64212   8.892  10.369  -0.493  0.2789  0.8159  0.3038
  466MOL0     C64213   8.874  10.218  -0.485  0.1386  0.7553 -0.3846
  466MOL0     C64214   8.951  10.138  -0.588 -0.2178  0.8336  0.2070
  466MOL0    Cl64215   8.925   9.969  -0.543 -0.0712  0.1227 -0.3782
  466MOL0     C64216   8.575  11.248  -0.396  0.8647 -0.6448  0.5743
  466MOL0     C64217   8.462  11.333  -0.360 -0.6715 -0.0196 -0.6659
  466MOL0     O64218   8.333  11.416   0.023  0.4883  0.0089  0.1842
  466MOL0     C64219   8.077  11.494   0.077  0.7261  0.4203 -0.7729
  466MOL0     C64220   7.948  11.526   0.111 -0.3451  0.8850 -0.5486
  466MOL0     N64221   7.330  11.262   0.407  0.1162 -0.9229  0.3843
  466MOL0     N64222   7.245  11.173   0.450 -0.1159  0.6028  0.1035
  466MOL0     C64223   6.056  11.538   0.337  0.1067 -0.7797 -0.0686
  466MOL0     C64224   5.929  11.532   0.283  0.0156 -0.2792 -0.4379
  466MOL0     C64225   5.567  11.372   0.021  0.6929  0.0479  0.3606
  466MOL0     C64226   5.496  11.267  -0.042 -0.7127 -0.4389  0.0414
  466MOL0     C64227   5.370  11.293  -0.101  0.3792 -0.2012  0.1715
  466MOL0     C64228   5.317  11.419  -0.093 -0.2979 -0.1371 -0.2633
  466MOL0     O64229   5.194  11.451  -0.147  0.5680  0.0446 -0.0164
  466MOL0     C64230   5.119  11.360  -0.231  0.3275  0.4119  0.6051
  466MOL0     C64231   5.042  11.440  -0.339  0.0750 -0.0925  1.0173
  466MOL0     C64232   5.141  11.530  -0.409  0.3599  0.1932  0.2463
  466MOL0     C64233   5.282  11.474  -0.448 -0.5848 -0.6598  0.2155
  466MOL0     C64234   5.349  11.567  -0.535  0.1841 -0.0266 -0.4180
  466MOL0     C64235   5.398  11.655  -0.614  0.4154 -0.1421  0.0113
  466MOL0     C64236   5.386  11.526  -0.024  0.2548  0.4634 -0.5139
  466MOL0     C64237   5.508  11.507   0.026 -0.3536 -0.2394 -0.0782
  466MOL0     C64238   5.578  11.630   0.093 -1.1689 -0.1640  0.1000
  466MOL0     H64239   5.870  11.206   0.249 -3.3410  1.1805  2.2295
  466MOL0     H64240   6.112  11.197   0.343  0.0156 -0.9609 -2.2646
  466MOL0     H64241   6.337  11.582   0.380 -1.6795 -0.5891 -0.1498
  466MOL0     H64242   6.328  11.467   0.254  0.8056 -2.7346  0.1036
  466MOL0     H64243   6.561  11.478   0.416  1.2833 -1.7001  1.6392
  466MOL0     H64244   6.460  11.386   0.524 -2.2529  0.7771 -0.0558
  466MOL0     H64245   6.408  11.222   0.355 -0.7205 -1.0693 -0.7483
  466MOL0     H64246   6.528  11.297   0.241  3.7916  1.1775  0.9365
  466MOL0     H64247   6.610  11.214   0.509  1.1485  0.4583  0.3099
  466MOL0     H64248   6.640  11.120   0.360  0.0541  0.7328 -1.0917
  466MOL0     H64249   6.733  11.409   0.382  0.1514  0.0989 -1.5809
  466MOL0     H64250   6.791  11.285   0.278 -2.4064 -2.0369  0.0861
  466MOL0     H64251   6.941  11.337   0.500  1.4143 -0.5614 -0.9506
  466MOL0     H64252   6.809  11.268   0.591 -0.4888  1.0383  0.1275
  466MOL0     H64253   6.837  11.050   0.512 -1.0805  0.8625  0.3718
  466MOL0     H64254   6.984  11.115   0.590  0.1634 -0.6682  0.6474
  466MOL0     H64255   7.054  10.990   0.400  4.1727  2.4922  4.2569
  466MOL0     H64256   6.953  11.112   0.291  1.2817  1.2115 -1.7191
  466MOL0     H64257   7.067  11.313   0.202 -0.7695 -1.9328  0.2054
  466MOL0     H64258   7.263  11.543   0.263  1.2665  0.9735 -0.9411
  466MOL0     H64259   7.274  11.438   0.122 -1.0211 -0.4727  0.0407
  466MOL0     H64260   7.502  11.490   0.329  1.7008  2.3930 -1.6418
  466MOL0     H64261   7.502  11.363   0.193 -1.5107 -0.5986 -1.3782
  466MOL0     H64262   7.475  11.534   0.036  3.4566 -0.5330 -1.6272
  466MOL0     H64263   7.461  11.662   0.159  0.8624  1.1107 -0.2878
  466MOL0     H64264   7.693  11.679   0.181  3.6457 -1.6290  1.1135
  466MOL0     H64265   7.706  11.511   0.217 -0.0426 -1.0184 -1.2518
  466MOL0     H64266   7.800  11.454  -0.192 -0.6207 -1.1048  0.5154
  466MOL0     H64267   7.941  11.350  -0.329  0.0248 -0.8416 -0.1038
  466MOL0     H64268   8.098  11.291  -0.297 -0.0104  0.8378 -2.4709
  466MOL0     H64269   8.091  11.454  -0.357  1.5395 -1.2214  0.0297
  466MOL0     H64270   8.400  11.203  -0.053 -0.0699 -2.5184 -0.5189
  466MOL0     H64271   8.572  11.048  -0.134 -4.2631 -3.0935 -0.8582
  466MOL0     H64272   8.686  10.885  -0.237  0.4202 -0.1732 -0.2802
  466MOL0     H64273   8.581  10.890  -0.382 -0.3910 -2.6723  1.2722
  466MOL0     H64274   8.762  10.861  -0.521 -1.6558 -2.2322 -0.4117
  466MOL0     H64275   8.883  10.861  -0.385  1.6653 -2.0932 -1.1270
  466MOL0     H64276   8.647  10.676  -0.421 -0.3657  0.6387  0.6132
  466MOL0     H64277   8.742  10.681  -0.268 -1.9895 -1.1017 -0.2879
  466MOL0     H64278   8.939  10.621  -0.392 -0.7070 -1.5653  0.3231
  466MOL0     H64279   8.849  10.617  -0.553 -3.6127  1.2652 -0.9048
  466MOL0     H64280   8.829  10.438  -0.300 -2.2033  3.0398  0.9369
  466MOL0     H64281   8.706  10.435  -0.429 -0.4844  1.8336  0.2253
  466MOL0     H64282   8.995  10.386  -0.458  0.1467  1.2186  0.4957
  466MOL0     H64283   8.879  10.398  -0.597 -3.5054  2.7541  1.1758
  466MOL0     H64284   8.771  10.184  -0.498  0.2335  0.5572 -0.6400
  466MOL0     H64285   8.905  10.184  -0.386  0.5252 -1.9044 -1.3286
  466MOL0     H64286   9.056  10.166  -0.578 -0.6167  1.6794  2.8688
  466MOL0     H64287   8.909  10.153  -0.688 -0.4592  3.0090  0.5778
  466MOL0     H64288   8.620  11.259  -0.494 -0.7546  2.7415  0.0555
  466MOL0     H64289   8.443  11.411  -0.432  1.4089  0.2756 -0.9481
  466MOL0     H64290   8.151  11.521   0.151  0.0247 -0.0954  0.1458
  466MOL0     H64291   7.936  11.575   0.207  3.3689  0.5268  0.2255
  466MOL0     H64292   6.109  11.631   0.354 -0.3190 -0.4878 -0.3079
  466MOL0     H64293   5.873  11.625   0.275 -1.2549 -0.7813  1.6954
  466MOL0     H64294   5.539  11.168  -0.029  0.5526  0.1093  0.2397
  466MOL0     H64295   5.311  11.214  -0.148 -2.8366  3.0454 -1.7897
  466MOL0     H64296   5.166  11.278  -0.286 -0.3559 -0.8388  1.8327
  466MOL0     H64297   5.054  11.303  -0.165 -1.1342  2.6641  1.2369
  466MOL0     H64298   4.972  11.507  -0.288 -1.9169 -1.6716  0.4687
  466MOL0     H64299   4.989  11.371  -0.404  2.9617  0.7479 -2.5704
  466MOL0     H64300   5.090  11.581  -0.491 -3.9362 -0.8910  1.9808
  466MOL0     H64301   5.151  11.605  -0.331  1.2344 -1.5944  1.9375
  466MOL0     H64302   5.262  11.375  -0.491 -4.5841 -0.6066  1.5489
  466MOL0     H64303   5.347  11.473  -0.360 -3.2946  0.7802  2.3830
  466MOL0     H64304   5.437  11.725  -0.685 -2.1680 -0.6016 -2.0287
  466MOL0     H64305   5.337  11.622  -0.010  1.2340  1.5312 -3.5600
  466MOL0     H64306   5.569  11.632   0.202 -0.0547 -1.1148  0.2180
  466MOL0     H64307   5.684  11.637   0.068 -1.2254  2.6945  0.3006
  466MOL0     H64308   5.532  11.716   0.043 -1.8452  2.1146  4.1890
  467MOL0     O64309   7.958  11.010   5.687 -0.7017 -0.8529 -0.1770
  467MOL0     C64310   8.044  10.991   5.778 -1.0194 -0.1303  0.1016
  467MOL0     O64311   8.021  10.944   5.905  0.0519 -0.0033  0.2320
  467MOL0     C64312   7.903  10.883   5.921  0.1033 -0.2535 -0.7316
  467MOL0     C64313   7.903  10.747   5.931  0.8211 -0.0973 -0.1810
  467MOL0     C64314   7.781  10.674   5.922 -0.1923  0.3575  0.7777
  467MOL0     C64315   7.660  10.739   5.917 -0.3600 -0.1287  0.3624
  467MOL0     O64316   7.545  10.659   5.924  0.8827 -0.5764 -0.3498
  467MOL0     C64317   7.431  10.729   5.972  0.5910 -0.0866 -0.2449
  467MOL0     C64318   7.348  10.769   5.853 -0.0309  0.3673 -0.1332
  467MOL0     C64319   7.275  10.644   5.817  0.3379  0.3504  0.2588
  467MOL0     C64320   7.181  10.658   5.693  0.2391 -0.8745  0.6908
  467MOL0     C64321   7.112  10.522   5.646 -0.0677 -0.8338  0.0681
  467MOL0     C64322   7.007  10.529   5.533  0.7599 -0.3302  0.0845
  467MOL0     C64323   7.081  10.544   5.399 -0.3193 -0.1878  1.5211
  467MOL0     C64324   6.969  10.506   5.290 -0.2946  0.1167 -0.5192
  467MOL0     N64325   6.946  10.370   5.279  0.4658  0.3606  0.0562
  467MOL0     C64326   7.025  10.279   5.217  0.2605 -0.3671  1.2609
  467MOL0     C64327   6.973  10.156   5.244  0.4396 -0.8205 -0.5952
  467MOL0     C64328   7.020  10.029   5.176  1.2844 -0.0947 -0.2352
  467MOL0     C64329   7.072   9.912   5.261  0.4387 -0.3271  0.6114
  467MOL0     C64330   7.209   9.955   5.315  0.2747  0.0755 -0.8072
  467MOL0     C64331   7.254   9.873   5.437 -0.8412  0.6436 -0.5389
  467MOL0     O64332   7.353   9.928   5.515 -0.0587 -0.5289 -0.7458
  467MOL0     C64333   7.484   9.938   5.467 -0.0139 -0.1088  0.0539
  467MOL0     C64334   7.533   9.918   5.337 -0.5070  0.7522  0.4541
  467MOL0     C64335   7.675   9.943   5.309 -0.0098  0.2704 -0.7605
  467MOL0     C64336   7.724   9.916   5.169  0.6218  1.0759  0.2070
  467MOL0     C64337   7.768   9.986   5.408 -0.7634  1.4034  0.8963
  467MOL0     C64338   7.916  10.013   5.384 -0.2122  0.3831 -0.0776
  467MOL0     O64339   7.998  10.022   5.502 -0.6619  0.5836 -0.1497
  467MOL0     C64340   8.109  10.093   5.500  0.5524 -0.0922  0.3053
  467MOL0     C64341   8.211  10.049   5.590  0.5985 -0.3247 -0.5813
  467MOL0     C64342   8.341  10.110   5.590  1.0942  0.9566  0.1515
  467MOL0     C64343   8.356  10.231   5.522 -1.0611  0.2872  0.2611
  467MOL0     O64344   8.469  10.308   5.533  0.6149  0.5502 -0.1775
  467MOL0     C64345   8.539  10.341   5.416  0.5770  0.4342  0.0024
  467MOL0     C64346   8.677  10.398   5.453  0.0155 -0.0293 -0.3683
  467MOL0     C64347   8.774  10.416   5.340 -0.2561 -0.1491  0.4708
  467MOL0     C64348   8.919  10.440   5.389 -0.9232 -0.0903 -0.1236
  467MOL0     C64349   8.991  10.305   5.396 -0.7165  0.0606 -0.6138
  467MOL0     C64350   9.138  10.306   5.448  0.5922  0.5325  0.2273
  467MOL0     C64351   9.178  10.157   5.472 -0.8967 -0.3075 -0.1832
  467MOL0     C64352   9.329  10.153   5.508  0.2414  0.3169  0.2309
  467MOL0    Cl64353   9.418  10.200   5.361  0.1034  0.1831 -0.3156
  467MOL0     C64354   8.248  10.282   5.443 -0.1646 -0.1953  0.1571
  467MOL0     C64355   8.127  10.219   5.435  0.6507  0.1503  0.0518
  467MOL0     O64356   7.953  10.048   5.272 -0.4847  0.3499  0.0288
  467MOL0     C64357   7.714   9.993   5.532  0.4577  0.4126 -0.2049
  467MOL0     C64358   7.579   9.972   5.562  0.0857 -0.8128 -0.2340
  467MOL0     N64359   6.856  10.170   5.321 -0.7141  0.3755 -0.1651
  467MOL0     N64360   6.846  10.298   5.343  0.8916 -0.0569  0.2839
  467MOL0     C64361   7.663  10.883   5.912  0.1097 -0.8162 -0.5955
  467MOL0     C64362   7.785  10.954   5.914 -0.2718 -0.2116 -0.0031
  467MOL0     C64363   8.194  11.016   5.749  0.8723 -0.2117  0.3510
  467MOL0     C64364   8.290  10.943   5.812 -0.7506  0.2670 -0.3994
  467MOL0     C64365   8.426  10.975   5.812 -0.1041 -0.2214 -0.4255
  467MOL0     C64366   8.468  11.075   5.725 -1.2243 -0.4021 -0.2451
  467MOL0     O64367   8.602  11.111   5.712 -0.2540 -0.2849 -0.2012
  467MOL0     C64368   8.696  11.030   5.773 -0.1726 -0.5340  0.5125
  467MOL0     C64369   8.821  11.071   5.698  0.2449  0.3090 -0.4016
  467MOL0     C64370   8.940  10.996   5.751  0.6104  0.2440 -0.3221
  467MOL0     C64371   9.074  11.035   5.689  0.4049 -0.9848 -0.2962
  467MOL0     C64372   9.181  10.995   5.778 -0.7184 -1.1450 -0.2736
  467MOL0     C64373   9.262  10.945   5.854 -0.1830 -0.0831 -0.4143
  467MOL0     C64374   8.369  11.142   5.655 -0.0208 -0.3531  0.3428
  467MOL0     C64375   8.232  11.119   5.660 -0.3439  0.0847 -0.5106
  467MOL0     C64376   8.135  11.211   5.585 -0.1655 -0.2734  0.1402
  467MOL0     H64377   7.994  10.690   5.944  1.1791  0.4454 -0.3094
  467MOL0     H64378   7.776  10.567   5.905  0.8850  0.8383 -3.8728
  467MOL0     H64379   7.445  10.819   6.033 -2.0898  1.0443 -1.1141
  467MOL0     H64380   7.380  10.661   6.040  1.2093 -1.9657 -1.5926
  467MOL0     H64381   7.290  10.856   5.886  1.2826  1.1717  0.1195
  467MOL0     H64382   7.409  10.818   5.777  0.1247  0.4938  0.0725
  467MOL0     H64383   7.347  10.563   5.805  0.9592  0.8649  0.4553
  467MOL0     H64384   7.212  10.609   5.899  0.8283 -2.1981 -0.3549
  467MOL0     H64385   7.101  10.730   5.714 -0.2083 -0.5625 -1.7437
  467MOL0     H64386   7.236  10.704   5.611 -3.1111  2.1740 -0.0787
  467MOL0     H64387   7.065  10.475   5.734 -0.3776  0.7706  0.7901
  467MOL0     H64388   7.201  10.459   5.636  1.1270  0.1701  3.2203
  467MOL0     H64389   6.946  10.438   5.536 -0.3173  0.3968  2.5303
  467MOL0     H64390   6.940  10.614   5.550  2.0445  1.1366 -1.7895
  467MOL0     H64391   7.168  10.479   5.389  2.4405  3.3842  0.2087
  467MOL0     H64392   7.129  10.641   5.382  0.4298 -0.5832  1.3490
  467MOL0     H64393   6.877  10.550   5.329  0.5700  0.5543  1.1334
  467MOL0     H64394   7.002  10.553   5.196 -0.1199  0.3943 -0.3207
  467MOL0     H64395   7.111  10.288   5.152 -1.1058 -2.9588 -1.1386
  467MOL0     H64396   7.093  10.058   5.099  2.2155  1.7816  1.2644
  467MOL0     H64397   6.932   9.988   5.127 -0.6756  1.4386  1.8017
  467MOL0     H64398   6.992   9.895   5.333  1.6906 -1.0325  1.8732
  467MOL0     H64399   7.080   9.821   5.200 -1.8003  0.8890 -1.7087
  467MOL0     H64400   7.276   9.960   5.229 -0.1585  3.3852 -1.0690
  467MOL0     H64401   7.204  10.059   5.347 -0.7908  0.1400 -1.1179
  467MOL0     H64402   7.170   9.858   5.506 -0.1192  1.3783  0.5280
  467MOL0     H64403   7.298   9.781   5.397  1.8087  1.0285  1.1942
  467MOL0     H64404   7.466   9.891   5.255 -2.1169  1.0910  1.6050
  467MOL0     H64405   7.794   9.832   5.178  0.4389  0.8174 -0.7048
  467MOL0     H64406   7.772  10.003   5.124  3.5842 -1.2353 -1.4354
  467MOL0     H64407   7.643   9.888   5.100  1.0031  0.3179  0.0628
  467MOL0     H64408   8.205   9.956   5.645 -0.1715  0.0614  0.0059
  467MOL0     H64409   8.420  10.067   5.651  2.3575  3.0081  0.0481
  467MOL0     H64410   8.545  10.256   5.347 -0.6422 -0.0547  0.4846
  467MOL0     H64411   8.478  10.412   5.359  1.4461 -0.4461 -2.1493
  467MOL0     H64412   8.661  10.492   5.506 -0.2169  2.0972 -3.9102
  467MOL0     H64413   8.717  10.318   5.517  0.1333 -1.1335 -1.7825
  467MOL0     H64414   8.735  10.490   5.270 -3.1445 -2.9346 -1.1461
  467MOL0     H64415   8.785  10.332   5.271  0.1936  0.8384 -0.6858
  467MOL0     H64416   8.924  10.479   5.491  1.9196 -2.2785  0.7209
  467MOL0     H64417   8.977  10.512   5.332 -0.0468 -0.3892  0.3726
  467MOL0     H64418   8.933  10.240   5.462 -1.0382 -2.2690 -3.0403
  467MOL0     H64419   8.994  10.257   5.298  1.0297  0.9324 -1.0461
  467MOL0     H64420   9.129  10.366   5.539 -5.1384  1.4088 -0.5783
  467MOL0     H64421   9.206  10.359   5.380 -1.4684  1.3539 -1.2952
  467MOL0     H64422   9.175  10.109   5.374  0.1877 -0.1347 -0.3114
  467MOL0     H64423   9.110  10.115   5.547 -1.8499  2.6959  0.7971
  467MOL0     H64424   9.351  10.049   5.534 -1.1601  0.1263  0.7916
  467MOL0     H64425   9.357  10.216   5.593 -1.9537  0.2015  1.1303
  467MOL0     H64426   8.254  10.381   5.399 -0.4514  0.9613  2.5343
  467MOL0     H64427   8.042  10.250   5.376  0.9006 -1.2636 -1.1120
  467MOL0     H64428   7.776  10.005   5.621  0.5103  0.2195 -0.2139
  467MOL0     H64429   7.555   9.990   5.666  2.2619  0.3150  0.1283
  467MOL0     H64430   7.569  10.936   5.895 -1.1465 -1.5350  3.0354
  467MOL0     H64431   7.806  11.058   5.892  0.0893 -0.3954 -0.5614
  467MOL0     H64432   8.271  10.859   5.878 -0.0280  0.7794  0.4840
  467MOL0     H64433   8.485  10.912   5.878  2.0855 -0.6365 -2.6666
  467MOL0     H64434   8.708  11.055   5.879 -1.9527  0.3751  0.5326
  467MOL0     H64435   8.680  10.923   5.757  1.8552 -1.0730  1.7077
  467MOL0     H64436   8.836  11.178   5.717  0.5808 -0.3771  4.3476
  467MOL0     H64437   8.810  11.059   5.590  0.7915  0.8605 -0.5256
  467MOL0     H64438   8.940  11.016   5.858  0.0966  1.8301 -0.5933
  467MOL0     H64439   8.934  10.887   5.742  3.4517 -0.4417  3.4226
  467MOL0     H64440   9.082  11.143   5.671  0.1247 -0.6936  1.2270
  467MOL0     H64441   9.079  10.987   5.591  0.0364  0.2920 -0.9737
  467MOL0     H64442   9.336  10.911   5.923 -0.2899 -0.5939 -0.5447
  467MOL0     H64443   8.404  11.218   5.587  0.4254 -1.1247 -0.3133
  467MOL0     H64444   8.058  11.254   5.651 -0.3338  1.8218 -1.3072
  467MOL0     H64445   8.188  11.298   5.544  1.6625 -0.1800  2.4607
  467MOL0     H64446   8.082  11.162   5.503 -0.8372  1.5094 -0.5562
  468MOL0     O64447   7.885   5.352   8.013  0.1633  0.9675 -0.3525
  468MOL0     C64448   7.810   5.445   7.982 -0.8132  0.6113 -0.1076
  468MOL0     O64449   7.853   5.568   7.956 -0.6900  0.3807 -0.0313
  468MOL0     C64450   7.989   5.586   7.947  0.0642 -0.1908  0.7779
  468MOL0     C64451   8.050   5.572   7.818 -0.3293 -0.8931 -0.0918
  468MOL0     C64452   8.189   5.577   7.809 -0.4740  0.3647  0.1906
  468MOL0     C64453   8.264   5.597   7.920  0.0279 -0.7015 -0.4058
  468MOL0     O64454   8.409   5.595   7.913 -0.1481 -0.0051  0.4602
  468MOL0     C64455   8.472   5.705   7.981  0.1998  0.1185  0.4992
  468MOL0     C64456   8.615   5.728   7.933  0.7264  0.2797 -0.2842
  468MOL0     C64457   8.682   5.817   8.040 -0.4167 -0.5024 -0.0771
  468MOL0     C64458   8.817   5.862   7.994  0.1669 -0.1240  0.2124
  468MOL0     C64459   8.911   5.916   8.097 -0.7376  0.4411  0.0310
  468MOL0     C64460   9.017   6.018   8.051  0.5564 -0.6457  0.3669
  468MOL0     C64461   8.967   6.118   7.947  0.2234 -0.1938  0.1462
  468MOL0     C64462   9.092   6.202   7.904 -0.4094  0.3846 -0.0280
  468MOL0     N64463   9.169   6.262   8.010  0.8923 -0.6972 -0.1190
  468MOL0     C64464   9.150   6.388   8.062 -0.0190  0.2942  1.3982
  468MOL0     C64465   9.256   6.402   8.147  0.6273 -0.5335 -0.3637
  468MOL0     C64466   9.286   6.523   8.211 -0.4006 -0.0152  0.6802
  468MOL0     C64467   9.330   6.622   8.111 -0.3409  0.2397  0.6376
  468MOL0     C64468   9.371   6.750   8.169  0.2553 -0.4607  0.8731
  468MOL0     C64469   9.508   6.751   8.224 -0.4596  0.0418  0.4090
  468MOL0     O64470   9.594   6.803   8.122 -0.6295  0.1125  0.2771
  468MOL0     C64471   9.731   6.801   8.135  0.7314 -0.9965 -0.5539
  468MOL0     C64472   9.805   6.722   8.232 -0.3172  0.5175 -0.1593
  468MOL0     C64473   9.941   6.736   8.248 -0.3863 -0.6166  0.1182
  468MOL0     C64474  10.007   6.661   8.356  0.1345 -0.0110 -0.3841
  468MOL0     C64475  10.013   6.828   8.165 -0.7790 -0.4692 -0.2869
  468MOL0     C64476  10.162   6.854   8.168 -0.7358  0.6281 -0.1495
  468MOL0     O64477  10.253   6.802   8.262  0.0816 -0.4379 -0.6823
  468MOL0     C64478  10.385   6.843   8.270 -0.1401  0.6720 -0.2106
  468MOL0     C64479  10.427   6.968   8.218 -0.7042 -0.0333  0.4675
  468MOL0     C64480  10.559   7.007   8.223 -0.9809 -0.7782  0.1660
  468MOL0     C64481  10.649   6.925   8.298 -0.1993  0.1152 -0.3164
  468MOL0     O64482  10.771   6.971   8.324 -0.4969  0.7999 -0.0676
  468MOL0     C64483  10.835   7.082   8.254 -0.4360  0.0302  0.5744
  468MOL0     C64484  10.995   7.069   8.275  0.5125  0.2616  0.5079
  468MOL0     C64485  11.036   7.143   8.399 -0.6628 -0.0135  0.4967
  468MOL0     C64486  10.960   7.101   8.531 -0.0787 -0.4928 -0.4216
  468MOL0     C64487  11.046   7.143   8.655  0.3147  0.4279 -0.3541
  468MOL0     C64488  10.962   7.169   8.782 -0.1771  1.5466 -0.8659
  468MOL0     C64489  10.917   7.041   8.849  0.4855  0.9555  0.0320
  468MOL0     C64490  10.845   7.050   8.982 -0.6155  0.3053  0.2299
  468MOL0    Cl64491  10.787   6.879   9.001 -0.2331  0.0807 -0.5707
  468MOL0     C64492  10.608   6.806   8.355  0.0196  0.1446 -0.0130
  468MOL0     C64493  10.476   6.763   8.334 -0.1594 -1.0208 -0.2923
  468MOL0     O64494  10.197   6.909   8.060 -0.4791  0.2688 -0.8225
  468MOL0     C64495   9.935   6.901   8.076 -0.9591  0.6113  0.6473
  468MOL0     C64496   9.795   6.890   8.057 -0.6216 -0.0394  0.2922
  468MOL0     N64497   9.335   6.290   8.142 -0.0301  0.1345  0.5813
  468MOL0     N64498   9.269   6.205   8.068  0.1602  0.5961 -0.0975
  468MOL0     C64499   8.206   5.620   8.045  0.7088  0.2157 -0.4229
  468MOL0     C64500   8.069   5.614   8.065 -0.7838 -0.4191 -0.1660
  468MOL0     C64501   7.668   5.414   7.989 -0.6067 -0.0650  0.6293
  468MOL0     C64502   7.623   5.302   8.064  0.7010  0.1175 -0.5589
  468MOL0     C64503   7.483   5.262   8.067  0.0725  0.4005 -1.0045
  468MOL0     C64504   7.391   5.339   8.001 -0.2913  0.6376  0.5498
  468MOL0     O64505   7.255   5.310   7.995 -0.8935 -0.3762 -0.4311
  468MOL0     C64506   7.197   5.211   8.081 -0.2544  0.4112  1.1409
  468MOL0     C64507   7.108   5.116   7.987  0.4567  0.5318 -0.4141
  468MOL0     C64508   7.187   5.013   7.915  0.1043  0.6670 -0.1765
  468MOL0     C64509   7.103   4.957   7.794  0.7991 -0.0873 -0.3628
  468MOL0     C64510   7.181   4.867   7.710 -0.5210  0.0463 -0.0724
  468MOL0     C64511   7.235   4.795   7.636 -0.7893  1.0163  0.1233
  468MOL0     C64512   7.434   5.443   7.921  0.7071 -0.3192  0.4941
  468MOL0     C64513   7.565   5.482   7.913 -0.0814 -0.6930  1.1934
  468MOL0     C64514   7.604   5.597   7.823  0.2785 -0.0560 -0.2467
  468MOL0     H64515   7.990   5.543   7.732 -0.6010 -3.5046  0.8729
  468MOL0     H64516   8.249   5.549   7.722 -0.1955 -0.3814  0.6110
  468MOL0     H64517   8.478   5.694   8.090 -3.7692 -0.8823  0.7841
  468MOL0     H64518   8.408   5.791   7.959  0.0005  0.2051  1.3657
  468MOL0     H64519   8.660   5.628   7.928 -0.4721 -0.2075 -2.1854
  468MOL0     H64520   8.613   5.773   7.834 -0.3465 -1.1949 -0.9530
  468MOL0     H64521   8.612   5.900   8.054 -1.3108 -0.8280 -2.2646
  468MOL0     H64522   8.691   5.769   8.138  1.9923  2.6214  1.4600
  468MOL0     H64523   8.882   5.787   7.949 -0.4056  0.1943 -1.2078
  468MOL0     H64524   8.802   5.937   7.916 -1.0146  2.2451  2.5465
  468MOL0     H64525   8.964   5.826   8.131  0.4838  0.8135 -0.7969
  468MOL0     H64526   8.853   5.955   8.181 -0.3080 -2.8812  2.0439
  468MOL0     H64527   9.059   6.076   8.134  3.9805 -2.6888  0.2554
  468MOL0     H64528   9.102   5.962   8.012 -0.2336 -2.6749  1.3883
  468MOL0     H64529   8.880   6.173   7.985 -0.7035 -1.3904 -0.1790
  468MOL0     H64530   8.934   6.061   7.860  0.0596  0.6922 -0.3943
  468MOL0     H64531   9.156   6.135   7.846 -2.2577  0.2083 -1.9679
  468MOL0     H64532   9.067   6.275   7.827 -0.9258 -0.3670 -0.5859
  468MOL0     H64533   9.077   6.460   8.028 -3.6680 -4.3354 -1.8883
  468MOL0     H64534   9.365   6.515   8.286  1.3692  0.8031 -1.0285
  468MOL0     H64535   9.198   6.556   8.268 -0.7476  1.2667 -0.5361
  468MOL0     H64536   9.408   6.585   8.044 -0.3165 -1.0766  1.3660
  468MOL0     H64537   9.241   6.651   8.055  1.8605  3.7884 -1.4162
  468MOL0     H64538   9.360   6.833   8.098 -0.9575 -0.7552  0.6947
  468MOL0     H64539   9.310   6.775   8.257  3.2661  1.2004  2.6378
  468MOL0     H64540   9.523   6.813   8.313  3.4473  0.1462 -0.1517
  468MOL0     H64541   9.535   6.649   8.250  0.2773  0.0328 -0.3493
  468MOL0     H64542   9.750   6.653   8.296 -0.2788 -1.6397 -2.3139
  468MOL0     H64543  10.100   6.616   8.320 -1.5268 -2.5444 -1.8556
  468MOL0     H64544   9.934   6.586   8.387  1.7869 -0.3555  3.0980
  468MOL0     H64545  10.023   6.729   8.440 -3.0745 -1.5223  1.6179
  468MOL0     H64546  10.353   7.034   8.173  1.8649  1.8044 -1.3597
  468MOL0     H64547  10.596   7.100   8.182 -2.8208  0.0950  0.3800
  468MOL0     H64548  10.800   7.074   8.150  0.8374 -0.4466  0.1524
  468MOL0     H64549  10.804   7.181   8.287  0.8437  1.2798 -1.6895
  468MOL0     H64550  11.010   6.962   8.291 -0.8488 -0.1050 -0.4524
  468MOL0     H64551  11.055   7.088   8.185  0.1344 -2.1903 -0.3409
  468MOL0     H64552  11.014   7.250   8.395 -1.4308 -0.1191  1.4982
  468MOL0     H64553  11.145   7.133   8.409 -0.1079  1.5840 -2.7683
  468MOL0     H64554  10.939   6.994   8.520  1.1621 -0.5093 -3.7855
  468MOL0     H64555  10.872   7.165   8.526  1.1814  1.3215 -0.1850
  468MOL0     H64556  11.125   7.073   8.684  0.1383  1.5318  3.2902
  468MOL0     H64557  11.102   7.234   8.632  2.1208 -0.5185  0.1027
  468MOL0     H64558  10.870   7.224   8.762 -2.8439 -1.7669  1.2791
  468MOL0     H64559  11.027   7.222   8.852  2.5460 -2.6228  0.1331
  468MOL0     H64560  11.000   6.970   8.861  0.7572  1.1893 -0.4608
  468MOL0     H64561  10.847   6.985   8.786  1.0750  0.9400 -0.6262
  468MOL0     H64562  10.765   7.125   8.976 -0.1373  0.8426  0.4468
  468MOL0     H64563  10.905   7.086   9.066 -1.0627 -0.3960  0.8633
  468MOL0     H64564  10.680   6.748   8.411  1.3392 -0.5050 -2.2512
  468MOL0     H64565  10.443   6.664   8.362 -3.1202  0.3006  1.3277
  468MOL0     H64566   9.983   6.971   8.007  0.3593 -1.1480 -0.3001
  468MOL0     H64567   9.734   6.932   7.978  0.2280 -1.4165 -1.1520
  468MOL0     H64568   8.267   5.639   8.132  2.3552 -1.8548 -1.0512
  468MOL0     H64569   8.019   5.617   8.161 -0.7741 -2.7631 -0.0339
  468MOL0     H64570   7.697   5.245   8.119  2.1642  3.3457  1.1449
  468MOL0     H64571   7.465   5.173   8.126  1.3271  1.1453  0.6037
  468MOL0     H64572   7.263   5.157   8.150  0.3175  2.3589  2.1925
  468MOL0     H64573   7.137   5.265   8.155  0.4834 -0.7290  2.6303
  468MOL0     H64574   7.075   5.183   7.908 -1.3502 -1.5141 -1.5201
  468MOL0     H64575   7.018   5.076   8.036 -0.7028  1.7561 -1.4581
  468MOL0     H64576   7.288   5.046   7.889  2.6351 -3.9485  2.3821
  468MOL0     H64577   7.213   4.937   7.990 -0.4089  1.8844  1.2882
  468MOL0     H64578   7.056   5.036   7.734  0.3250  1.9398  2.4485
  468MOL0     H64579   7.036   4.884   7.840  0.7929  0.3231  0.2977
  468MOL0     H64580   7.271   4.718   7.572  1.7765  1.5454  0.8187
  468MOL0     H64581   7.360   5.492   7.858  2.4622  1.4192 -0.3282
  468MOL0     H64582   7.633   5.683   7.885  0.9354  1.2580 -2.2860
  468MOL0     H64583   7.694   5.569   7.768  0.7847  1.3395 -0.1591
  468MOL0     H64584   7.531   5.621   7.746  0.7825 -0.0058 -0.7108
  469MOL0     O64585   4.480  10.903   8.849 -0.2958 -0.0242  0.6097
  469MOL0     C64586   4.403  10.997   8.823 -0.1525 -0.1422 -0.5092
  469MOL0     O64587   4.436  11.130   8.852  0.9209  0.1661  0.0678
  469MOL0     C64588   4.550  11.176   8.922 -0.0392  0.4521  1.2325
  469MOL0     C64589   4.654  11.095   8.965  0.4107 -0.8818  0.1964
  469MOL0     C64590   4.758  11.156   9.031 -0.0836 -0.3890  0.5676
  469MOL0     C64591   4.779  11.297   9.033  0.3999  0.0407  0.2646
  469MOL0     O64592   4.885  11.366   9.090 -0.3108 -0.6079 -0.6060
  469MOL0     C64593   4.982  11.287   9.159  0.0089  0.4601  0.0382
  469MOL0     C64594   5.092  11.379   9.211 -0.4032 -0.4138 -0.4375
  469MOL0     C64595   5.189  11.315   9.316 -0.6819  0.6352  0.6201
  469MOL0     C64596   5.303  11.407   9.346 -0.1054  0.2030  0.5570
  469MOL0     C64597   5.423  11.333   9.418  0.1449 -0.0793 -1.5230
  469MOL0     C64598   5.523  11.430   9.473 -0.9640  0.0742  0.3355
  469MOL0     C64599   5.634  11.461   9.374  0.5555 -0.1770  0.9918
  469MOL0     C64600   5.752  11.528   9.443 -0.5259 -0.1974 -0.0040
  469MOL0     N64601   5.874  11.557   9.367 -0.4373 -0.0402  0.5189
  469MOL0     C64602   5.883  11.634   9.255 -0.6110  0.2420 -0.7966
  469MOL0     C64603   6.016  11.608   9.214  0.9411  0.1722 -0.6022
  469MOL0     C64604   6.069  11.661   9.087 -0.6785 -0.1728  0.3288
  469MOL0     C64605   6.016  11.592   8.959  0.5265 -0.9077  0.3596
  469MOL0     C64606   6.044  11.439   8.941 -0.2137 -0.4080  0.0337
  469MOL0     C64607   6.189  11.388   8.958  1.3828 -0.0782  0.3982
  469MOL0     O64608   6.281  11.459   8.871  0.2325 -0.1240 -0.4061
  469MOL0     C64609   6.420  11.453   8.888  0.5444  0.0658  0.5644
  469MOL0     C64610   6.494  11.488   8.784  0.4539 -0.1899  0.7604
  469MOL0     C64611   6.637  11.477   8.788  0.0025 -0.1108  0.2023
  469MOL0     C64612   6.708  11.522   8.652 -0.6267 -0.5159 -0.2687
  469MOL0     C64613   6.702  11.423   8.897 -0.1068  0.7992 -0.6578
  469MOL0     C64614   6.842  11.384   8.910 -1.3719 -0.7215  0.1832
  469MOL0     O64615   6.865  11.276   8.991 -0.9652  0.5981  0.3830
  469MOL0     C64616   6.985  11.217   8.992 -0.8252  0.0687 -0.0072
  469MOL0     C64617   7.023  11.118   8.905  0.8282 -0.5997 -0.0361
  469MOL0     C64618   7.163  11.098   8.888  0.5851  0.5921 -0.1979
  469MOL0     C64619   7.265  11.151   8.974 -0.2464  0.0073  0.4831
  469MOL0     O64620   7.394  11.128   8.962 -0.5998 -0.2179 -0.2902
  469MOL0     C64621   7.451  11.009   8.903  0.2892  0.7575 -0.4066
  469MOL0     C64622   7.452  10.890   8.997 -0.3620  0.2268  0.2070
  469MOL0     C64623   7.504  10.919   9.141 -0.2154  0.0254  0.7287
  469MOL0     C64624   7.532  10.793   9.229  0.2592 -0.7804  0.0247
  469MOL0     C64625   7.610  10.831   9.342 -0.1162 -0.4637 -0.7723
  469MOL0     C64626   7.643  10.716   9.444  0.2152  0.0089  0.3593
  469MOL0     C64627   7.518  10.670   9.529 -0.2079 -1.8160 -1.0744
  469MOL0     C64628   7.541  10.569   9.640  0.8480 -0.2288  0.3940
  469MOL0    Cl64629   7.658  10.631   9.756  0.3710 -0.2298 -0.2032
  469MOL0     C64630   7.215  11.260   9.056  0.1012 -0.1810 -0.8479
  469MOL0     C64631   7.080  11.290   9.063  0.4001  0.0274  0.3078
  469MOL0     O64632   6.927  11.436   8.835 -0.0321  0.0794 -0.1885
  469MOL0     C64633   6.622  11.384   9.004  0.8725 -0.0481  0.1933
  469MOL0     C64634   6.487  11.402   8.997  1.2101  1.1123 -0.1969
  469MOL0     N64635   6.088  11.545   9.314  0.3574 -0.1558 -0.8013
  469MOL0     N64636   6.001  11.507   9.397 -0.1093 -0.3457  0.3344
  469MOL0     C64637   4.676  11.374   8.986  0.0385  0.2152 -0.8484
  469MOL0     C64638   4.567  11.312   8.933  0.6201 -0.0074  0.2275
  469MOL0     C64639   4.274  10.963   8.755  0.4057  1.3894  0.6378
  469MOL0     C64640   4.175  11.073   8.751 -0.2278  0.4143 -0.0796
  469MOL0     C64641   4.052  11.055   8.696 -0.0039 -0.3949 -0.0988
  469MOL0     C64642   4.015  10.930   8.663 -0.1513  0.3426  0.6636
  469MOL0     O64643   3.891  10.896   8.619 -0.3931  0.4343 -0.2666
  469MOL0     C64644   3.793  10.994   8.577 -0.0684  0.7556 -0.2771
  469MOL0     C64645   3.830  11.067   8.446 -0.0905  0.1464  0.0987
  469MOL0     C64646   3.863  10.971   8.330  0.6510 -0.3263  0.6834
  469MOL0     C64647   4.011  10.927   8.308  0.0553 -0.0065 -0.4163
  469MOL0     C64648   4.030  10.872   8.180 -0.5346  0.8390 -0.5181
  469MOL0     C64649   4.052  10.849   8.061  0.2282 -0.0701  0.3671
  469MOL0     C64650   4.104  10.823   8.664  0.2833 -0.5463 -0.2064
  469MOL0     C64651   4.236  10.836   8.709  0.2385  0.8348  0.2889
  469MOL0     C64652   4.327  10.712   8.713  1.0925  0.8654  0.3431
  469MOL0     H64653   4.658  10.987   8.955  0.5048 -0.9604  0.9904
  469MOL0     H64654   4.828  11.103   9.094  1.5744  2.1784  1.0248
  469MOL0     H64655   5.029  11.220   9.087 -1.0478 -0.9491  0.6131
  469MOL0     H64656   4.943  11.224   9.239 -1.8805  0.6187 -0.7226
  469MOL0     H64657   5.149  11.400   9.120  0.9260  1.5088  0.7484
  469MOL0     H64658   5.047  11.473   9.245  2.6671  0.8502  0.5548
  469MOL0     H64659   5.130  11.282   9.403 -1.8458  1.3806  0.1401
  469MOL0     H64660   5.231  11.225   9.271  0.4894  1.0488  0.8371
  469MOL0     H64661   5.337  11.455   9.253 -0.6443  2.3285  1.3856
  469MOL0     H64662   5.259  11.482   9.413  1.0145  1.8667 -0.4815
  469MOL0     H64663   5.472  11.249   9.367  2.6591  1.0921 -1.2072
  469MOL0     H64664   5.383  11.286   9.509  0.2860  0.5580 -1.1192
  469MOL0     H64665   5.475  11.521   9.511 -0.2297  0.8318 -0.5149
  469MOL0     H64666   5.569  11.391   9.565 -2.9458  0.0552  1.3783
  469MOL0     H64667   5.587  11.535   9.309  0.3690 -0.2367  1.0575
  469MOL0     H64668   5.667  11.369   9.324  1.5013 -0.0002  1.2584
  469MOL0     H64669   5.719  11.623   9.486  2.8813  0.7915  0.7094
  469MOL0     H64670   5.776  11.468   9.531  2.2305  0.7687  0.0099
  469MOL0     H64671   5.803  11.696   9.216 -1.2359 -0.2291 -0.2772
  469MOL0     H64672   6.176  11.641   9.098 -0.3502  0.9066 -0.6813
  469MOL0     H64673   6.053  11.769   9.078  1.4388  0.1591  0.1934
  469MOL0     H64674   5.909  11.612   8.954 -0.2915 -3.2246  4.0601
  469MOL0     H64675   6.056  11.646   8.873 -0.2298  0.7062  0.9779
  469MOL0     H64676   5.972  11.371   8.987  1.6031 -3.8825 -1.8981
  469MOL0     H64677   6.031  11.421   8.834  2.1156 -0.2686 -0.3267
  469MOL0     H64678   6.217  11.405   9.062  0.1402  2.3619  0.4170
  469MOL0     H64679   6.185  11.280   8.944 -0.6006  0.1170 -0.8468
  469MOL0     H64680   6.448  11.515   8.689  1.0466  1.5506  0.9451
  469MOL0     H64681   6.654  11.488   8.563  0.0981  1.7457 -1.6700
  469MOL0     H64682   6.809  11.487   8.625 -1.6327 -1.7564 -2.8120
  469MOL0     H64683   6.697  11.631   8.655 -2.5641 -0.6177 -1.6984
  469MOL0     H64684   6.947  11.072   8.842 -0.2635  0.2684  0.6286
  469MOL0     H64685   7.196  11.044   8.800 -0.7301  1.1936 -1.0914
  469MOL0     H64686   7.390  10.975   8.818  0.6775  1.2423 -0.8829
  469MOL0     H64687   7.553  11.024   8.867 -0.0254  0.0510 -1.6796
  469MOL0     H64688   7.352  10.851   9.017 -0.3714 -1.0733 -2.0234
  469MOL0     H64689   7.513  10.806   8.961 -0.2264  0.2334  0.4197
  469MOL0     H64690   7.427  10.986   9.180  0.5804  1.5225 -0.1982
  469MOL0     H64691   7.595  10.978   9.126 -0.2482  0.5918  2.4996
  469MOL0     H64692   7.581  10.714   9.171  2.3215  2.6733 -3.4102
  469MOL0     H64693   7.436  10.760   9.270  1.2772 -0.1662  3.1667
  469MOL0     H64694   7.704  10.864   9.296 -0.6310 -0.5130 -1.8799
  469MOL0     H64695   7.559  10.913   9.392  2.4338  1.8855 -1.7848
  469MOL0     H64696   7.725  10.755   9.505  0.1237  0.4783  0.1835
  469MOL0     H64697   7.679  10.626   9.393 -1.6738 -1.5757  1.6741
  469MOL0     H64698   7.441  10.640   9.458  0.6589 -1.8988 -1.9999
  469MOL0     H64699   7.480  10.762   9.575 -0.9928 -2.0464 -1.2537
  469MOL0     H64700   7.573  10.477   9.590 -3.1391 -1.7668  0.2816
  469MOL0     H64701   7.445  10.543   9.686 -0.5408 -0.2364 -2.3036
  469MOL0     H64702   7.288  11.326   9.101 -0.8081  1.7298 -2.0405
  469MOL0     H64703   7.059  11.389   9.103 -0.4900  1.2422 -2.8421
  469MOL0     H64704   6.654  11.338   9.097  0.9136  2.8296  1.7078
  469MOL0     H64705   6.419  11.386   9.080  1.5803  1.2475  0.1355
  469MOL0     H64706   4.678  11.483   8.986 -1.8580  0.3246  1.3938
  469MOL0     H64707   4.495  11.387   8.902  1.0301  0.6923  0.9265
  469MOL0     H64708   4.196  11.167   8.801  0.1418  0.6757 -0.7197
  469MOL0     H64709   3.979  11.135   8.700 -1.6216 -1.8386  0.5154
  469MOL0     H64710   3.702  10.935   8.564  1.1568 -1.1697 -0.5376
  469MOL0     H64711   3.792  11.062   8.664  3.0587  0.7100 -0.0602
  469MOL0     H64712   3.915  11.133   8.466  0.6696 -1.7699  4.1988
  469MOL0     H64713   3.744  11.126   8.413  1.0141  2.2442  0.7571
  469MOL0     H64714   3.810  10.877   8.348  1.6883 -0.5592  2.8507
  469MOL0     H64715   3.838  11.025   8.239  0.2221  2.4430  2.3228
  469MOL0     H64716   4.045  10.853   8.381  2.0338  0.5487 -0.7100
  469MOL0     H64717   4.069  11.019   8.320 -1.0904  0.5523  1.0726
  469MOL0     H64718   4.054  10.833   7.955  0.8129  1.7750  0.0456
  469MOL0     H64719   4.061  10.730   8.628 -2.4957  1.4136 -2.3794
  469MOL0     H64720   4.423  10.733   8.666  0.7191  1.0759 -0.3422
  469MOL0     H64721   4.350  10.688   8.817  0.4159  1.1427  0.5678
  469MOL0     H64722   4.283  10.625   8.663 -1.9207  2.3548  0.1608
  470MOL0     O64723   4.084  10.059   3.863 -0.1777 -0.1854 -0.2938
  470MOL0     C64724   4.183  10.119   3.894  0.5504 -0.5344  0.3780
  470MOL0     O64725   4.246  10.203   3.809  0.8967 -0.7952  0.0782
  470MOL0     C64726   4.228  10.181   3.672  0.2411  0.9813 -0.7292
  470MOL0     C64727   4.107  10.215   3.605  0.7518  0.8478 -0.1032
  470MOL0     C64728   4.077  10.186   3.468  0.1742  0.2594 -0.1633
  470MOL0     C64729   4.179  10.129   3.391  0.3547 -0.2542  0.0072
  470MOL0     O64730   4.144  10.113   3.260 -0.4252  0.1597 -0.3607
  470MOL0     C64731   4.230  10.040   3.170  0.7070  0.4795 -0.2637
  470MOL0     C64732   4.335  10.135   3.107 -0.7373  1.0054 -0.3351
  470MOL0     C64733   4.416  10.071   2.992 -0.3096  0.2911 -0.3731
  470MOL0     C64734   4.504  10.169   2.922 -0.5578  0.4790  0.4065
  470MOL0     C64735   4.574  10.092   2.811 -0.1154 -1.0896  0.4145
  470MOL0     C64736   4.657  10.196   2.728  0.4112 -0.6699  0.2442
  470MOL0     C64737   4.807  10.159   2.720  0.9390  0.4196  0.4656
  470MOL0     C64738   4.886  10.195   2.848 -0.4576  0.1523 -0.1964
  470MOL0     N64739   4.890  10.343   2.855 -0.0631  0.1927  0.4930
  470MOL0     C64740   4.891  10.410   2.978  0.0455 -1.0994  0.3704
  470MOL0     C64741   4.892  10.541   2.932 -0.4813 -0.2762 -0.7200
  470MOL0     C64742   4.878  10.650   3.036 -0.4738  0.5671 -0.0713
  470MOL0     C64743   4.993  10.741   3.056  0.5506  0.4529  0.5250
  470MOL0     C64744   4.964  10.868   3.136  0.8405 -0.1639 -0.0752
  470MOL0     C64745   4.841  10.944   3.090 -0.1768  0.0042  0.3281
  470MOL0     O64746   4.710  10.896   3.136 -0.0328 -0.6983  1.0057
  470MOL0     C64747   4.597  10.982   3.129 -0.5879  0.3023 -0.1441
  470MOL0     C64748   4.477  10.918   3.118  0.2248  0.0799  0.0809
  470MOL0     C64749   4.356  10.993   3.099 -0.3643  0.2645 -0.7027
  470MOL0     C64750   4.227  10.915   3.101 -0.6495 -0.5914  0.3310
  470MOL0     C64751   4.363  11.131   3.115 -0.3034 -0.2456 -0.1911
  470MOL0     C64752   4.251  11.230   3.105 -0.2025 -0.6841  0.7364
  470MOL0     O64753   4.281  11.357   3.164  0.4593  0.1093  0.2384
  470MOL0     C64754   4.205  11.464   3.116  0.3312  0.3958 -0.0349
  470MOL0     C64755   4.064  11.467   3.121 -0.2483  0.3229 -0.1602
  470MOL0     C64756   3.998  11.584   3.087 -0.0964  0.2519 -0.2983
  470MOL0     C64757   4.070  11.695   3.039 -0.3488 -0.8056  0.6800
  470MOL0     O64758   4.003  11.805   2.994 -0.2115  0.2372  0.2616
  470MOL0     C64759   3.861  11.817   2.977 -0.0092 -0.1701 -0.7031
  470MOL0     C64760   3.826  11.971   2.972  0.3171  0.4115 -0.9437
  470MOL0     C64761   3.927  12.056   3.053 -0.1116 -0.0315 -0.1552
  470MOL0     C64762   3.894  12.197   3.103 -0.1202  0.3673 -0.1393
  470MOL0     C64763   3.818  12.296   3.008 -0.2941  0.1595 -0.6179
  470MOL0     C64764   3.670  12.266   2.993  0.1333 -0.3430 -0.7599
  470MOL0     C64765   3.588  12.373   2.922  1.4232 -0.7366 -0.0172
  470MOL0     C64766   3.485  12.313   2.828  0.5448 -0.1714 -0.6161
  470MOL0    Cl64767   3.393  12.446   2.758 -0.5401 -0.1372  0.3166
  470MOL0     C64768   4.211  11.690   3.018 -0.8298  0.7870 -0.3090
  470MOL0     C64769   4.278  11.570   3.057 -0.2512  0.6035  0.4652
  470MOL0     O64770   4.142  11.195   3.067  0.5568  0.4334  0.1540
  470MOL0     C64771   4.485  11.195   3.129 -0.9477  0.2462  0.2376
  470MOL0     C64772   4.601  11.117   3.131  0.7632 -0.5582  1.0488
  470MOL0     N64773   4.917  10.545   2.791 -0.1336  1.0022 -0.4213
  470MOL0     N64774   4.904  10.427   2.753  0.8872  0.4019  0.1688
  470MOL0     C64775   4.306  10.100   3.458 -0.8305  0.1447 -0.9266
  470MOL0     C64776   4.330  10.122   3.598  0.2630  0.7936  0.2804
  470MOL0     C64777   4.214  10.096   4.035 -1.1980 -0.1727  0.6901
  470MOL0     C64778   4.110  10.095   4.135 -0.2418 -0.0789 -0.2046
  470MOL0     C64779   4.147  10.062   4.266 -0.5504 -0.5170 -0.0612
  470MOL0     C64780   4.280  10.042   4.309 -0.6547 -0.4156 -0.1339
  470MOL0     O64781   4.323  10.008   4.436 -0.8913  0.0838 -0.0646
  470MOL0     C64782   4.235  10.019   4.544 -0.0914  0.0482 -0.6282
  470MOL0     C64783   4.296   9.957   4.673 -1.2358  0.0811 -0.3218
  470MOL0     C64784   4.305   9.804   4.674 -0.2727  0.3530 -1.0229
  470MOL0     C64785   4.325   9.746   4.817  0.3317  0.9415 -0.7587
  470MOL0     C64786   4.464   9.751   4.865  0.6760 -0.4541 -0.3018
  470MOL0     C64787   4.578   9.757   4.906 -0.1994  0.0929 -0.0852
  470MOL0     C64788   4.380  10.054   4.213 -0.2534 -0.1395 -0.1149
  470MOL0     C64789   4.355  10.083   4.079  0.8329 -0.1777 -0.9373
  470MOL0     C64790   4.473  10.084   3.986 -1.0030  0.6773 -0.2034
  470MOL0     H64791   4.034  10.265   3.669  0.9144  1.7255 -0.6004
  470MOL0     H64792   3.984  10.212   3.419  1.7631  0.2421 -3.5008
  470MOL0     H64793   4.162  10.000   3.094 -0.9706  5.1092 -1.5549
  470MOL0     H64794   4.275   9.948   3.210 -1.3773 -0.8566 -0.8574
  470MOL0     H64795   4.270  10.218   3.079 -1.6691  0.3216 -0.2577
  470MOL0     H64796   4.401  10.163   3.190 -2.9981  1.9875  1.2228
  470MOL0     H64797   4.470  10.001   3.056 -0.1277  0.9553  0.2204
  470MOL0     H64798   4.355  10.016   2.920  0.8547 -0.7084 -0.6227
  470MOL0     H64799   4.443  10.248   2.878 -0.2055  0.7237  0.3585
  470MOL0     H64800   4.575  10.201   2.998  0.9107 -3.0259  0.7236
  470MOL0     H64801   4.509  10.030   2.749  1.6493 -0.6820 -2.0009
  470MOL0     H64802   4.636  10.011   2.851 -1.5719 -0.5980  4.0247
  470MOL0     H64803   4.620  10.198   2.625  0.1374 -0.5337  0.3451
  470MOL0     H64804   4.641  10.302   2.751  0.5427 -0.5077 -0.3820
  470MOL0     H64805   4.854  10.207   2.633  3.5672  0.7561  1.9420
  470MOL0     H64806   4.805  10.052   2.701 -0.1109  0.3993  0.6295
  470MOL0     H64807   4.837  10.144   2.932  0.6937  1.7462  1.5121
  470MOL0     H64808   4.987  10.157   2.827 -0.9823 -1.4134 -0.0667
  470MOL0     H64809   4.891  10.353   3.070 -1.1473 -3.3129 -0.9231
  470MOL0     H64810   4.846  10.602   3.129 -1.1593  1.5445  0.2182
  470MOL0     H64811   4.788  10.703   3.003 -1.9262 -1.2307  0.7824
  470MOL0     H64812   5.074  10.677   3.092 -0.6797 -2.4385 -1.5074
  470MOL0     H64813   5.028  10.773   2.958  2.0778  1.2461  1.2827
  470MOL0     H64814   4.963  10.836   3.240  2.1380 -1.0532 -0.3132
  470MOL0     H64815   5.047  10.940   3.127 -0.8439  1.9972  0.8158
  470MOL0     H64816   4.860  11.044   3.129  2.8993 -0.6169  0.6802
  470MOL0     H64817   4.830  10.943   2.981 -4.1043  0.5850  0.5542
  470MOL0     H64818   4.468  10.810   3.116 -2.0880  0.1882  0.7684
  470MOL0     H64819   4.152  10.960   3.035 -1.0269 -1.5276  0.0959
  470MOL0     H64820   4.188  10.916   3.203  3.3585 -0.7772  2.0475
  470MOL0     H64821   4.245  10.816   3.058 -1.6999 -1.4187  1.7020
  470MOL0     H64822   4.006  11.379   3.149 -1.4595 -0.3002 -3.9507
  470MOL0     H64823   3.892  11.597   3.107  0.2039  1.9221  0.4372
  470MOL0     H64824   3.843  11.751   2.891  1.0980 -2.9208  1.0232
  470MOL0     H64825   3.805  11.776   3.061  2.0299 -0.9620  0.3615
  470MOL0     H64826   3.832  12.010   2.869  4.7287  1.2197 -0.5843
  470MOL0     H64827   3.726  11.977   3.015  1.1071  0.4539  0.9520
  470MOL0     H64828   4.017  12.065   2.990 -1.3365  0.1133 -1.9724
  470MOL0     H64829   3.959  12.000   3.141 -0.8444 -0.2105 -0.0045
  470MOL0     H64830   3.985  12.244   3.143  1.2729 -1.0153 -1.5015
  470MOL0     H64831   3.820  12.185   3.182  0.1663 -0.7878 -0.0205
  470MOL0     H64832   3.816  12.392   3.060 -0.0023  0.9417 -2.0258
  470MOL0     H64833   3.875  12.297   2.915 -2.7679 -1.6361 -2.2553
  470MOL0     H64834   3.622  12.231   3.086  0.8071 -1.3147 -0.7607
  470MOL0     H64835   3.677  12.176   2.931  2.2111 -0.1170 -0.9156
  470MOL0     H64836   3.657  12.440   2.870  2.1315 -1.5471 -0.1415
  470MOL0     H64837   3.534  12.430   2.998  2.3437  0.9623 -0.5865
  470MOL0     H64838   3.416  12.256   2.890 -0.0634  0.7610 -0.4299
  470MOL0     H64839   3.521  12.250   2.745  1.3083 -0.2949 -0.1987
  470MOL0     H64840   4.263  11.775   2.976  2.1957  0.2901  2.0661
  470MOL0     H64841   4.386  11.563   3.048 -0.4159 -2.0515 -0.2852
  470MOL0     H64842   4.487  11.303   3.127 -2.8823  0.3175  0.3610
  470MOL0     H64843   4.693  11.171   3.153 -1.3002  2.3238  3.3681
  470MOL0     H64844   4.387  10.062   3.397 -0.6985  1.7047 -1.7728
  470MOL0     H64845   4.427  10.108   3.644  0.3923  0.4093 -0.0973
  470MOL0     H64846   4.007  10.117   4.107 -1.4597 -2.0248  2.2746
  470MOL0     H64847   4.065  10.055   4.336 -1.0456  1.7172 -0.3397
  470MOL0     H64848   4.223  10.126   4.560  0.3411  0.1154 -0.7341
  470MOL0     H64849   4.132   9.988   4.524 -0.5678  1.2638 -0.1204
  470MOL0     H64850   4.237   9.987   4.760  1.6498  0.8641  1.5262
  470MOL0     H64851   4.397   9.993   4.693 -0.9755  0.2431 -1.8237
  470MOL0     H64852   4.212   9.757   4.641 -0.1408 -0.7536  0.1001
  470MOL0     H64853   4.386   9.766   4.610  0.0539 -0.4959 -0.1402
  470MOL0     H64854   4.287   9.644   4.816  0.5885  0.8469 -1.6355
  470MOL0     H64855   4.270   9.808   4.888  0.4541 -3.1682  3.3995
  470MOL0     H64856   4.678   9.731   4.935  0.0787 -0.9628 -1.8608
  470MOL0     H64857   4.484  10.039   4.237  0.0674  0.8013 -0.8708
  470MOL0     H64858   4.558  10.031   4.029 -0.6799 -0.6646 -2.3509
  470MOL0     H64859   4.453  10.021   3.899  1.8239  0.4938 -0.8192
  470MOL0     H64860   4.496  10.185   3.950  0.1001  1.6212  2.8426
  471MOL0     O64861   8.602   7.401  10.254 -0.0007 -0.6552 -0.2595
  471MOL0     C64862   8.518   7.451  10.325  0.2390  0.1188  0.4992
  471MOL0     O64863   8.531   7.569  10.394 -0.6944  0.2935 -0.1184
  471MOL0     C64864   8.644   7.638  10.376 -0.6479  0.6290  0.0678
  471MOL0     C64865   8.763   7.596  10.448  0.4072  0.0273  0.2250
  471MOL0     C64866   8.885   7.656  10.433 -1.0931  0.4335  1.6820
  471MOL0     C64867   8.908   7.748  10.338  0.3269 -0.2150 -0.5793
  471MOL0     O64868   9.022   7.812  10.300  1.1559 -0.3460  0.3443
  471MOL0     C64869   9.105   7.856  10.406 -0.1011 -0.8914  0.2982
  471MOL0     C64870   9.152   7.996  10.369 -0.6755  0.0846 -0.1849
  471MOL0     C64871   9.037   8.088  10.386  0.4163 -0.2680 -0.2479
  471MOL0     C64872   9.067   8.238  10.373 -0.5837 -0.2202 -0.7002
  471MOL0     C64873   8.940   8.323  10.379 -0.2026 -0.0977 -0.5577
  471MOL0     C64874   8.850   8.320  10.498 -0.2779 -0.3886 -1.0479
  471MOL0     C64875   8.734   8.434  10.523 -0.3975  0.1028  0.5333
  471MOL0     C64876   8.668   8.400  10.657  0.0995 -0.2337  0.5651
  471MOL0     N64877   8.565   8.489  10.701 -0.1331  0.7032 -0.0644
  471MOL0     C64878   8.442   8.487  10.651 -0.6708 -0.2325  1.0056
  471MOL0     C64879   8.399   8.612  10.701  0.0055 -0.4168  0.3757
  471MOL0     C64880   8.257   8.661  10.694 -0.1403  1.0304 -1.1822
  471MOL0     C64881   8.237   8.724  10.555  0.0495 -0.7357 -0.5304
  471MOL0     C64882   8.334   8.845  10.523 -0.6471  0.1116  0.5254
  471MOL0     C64883   8.330   8.893  10.383 -0.7422  0.0336  0.0669
  471MOL0     O64884   8.374   8.798  10.291 -0.3310  0.2172  0.9028
  471MOL0     C64885   8.513   8.781  10.272  0.0025 -0.0366 -0.4375
  471MOL0     C64886   8.617   8.843  10.343  0.1124 -0.1359  0.3921
  471MOL0     C64887   8.756   8.809  10.333  0.2488 -0.5158 -0.7955
  471MOL0     C64888   8.845   8.888  10.425  0.8835  0.1876  0.4051
  471MOL0     C64889   8.790   8.714  10.243 -0.4022  0.0644 -0.2192
  471MOL0     C64890   8.927   8.658  10.229 -0.9145  0.4706  0.3939
  471MOL0     O64891   8.948   8.567  10.125 -0.6549  0.8897  0.8226
  471MOL0     C64892   9.069   8.506  10.091  0.1387 -1.0759 -0.3525
  471MOL0     C64893   9.196   8.575  10.089 -0.1517 -0.6818  0.2622
  471MOL0     C64894   9.308   8.504  10.040  0.0017 -0.1683 -0.4926
  471MOL0     C64895   9.304   8.372   9.990  0.1183  0.0334 -0.1799
  471MOL0     O64896   9.421   8.309   9.959 -0.4665  0.0923 -0.0194
  471MOL0     C64897   9.427   8.161   9.954 -1.1007  0.4732  0.7557
  471MOL0     C64898   9.572   8.115   9.917 -0.3531 -0.3178  0.3585
  471MOL0     C64899   9.589   8.134   9.766  0.0957 -0.3923 -0.2549
  471MOL0     C64900   9.737   8.097   9.737 -0.2779  1.0534 -0.1370
  471MOL0     C64901   9.751   7.939   9.720  0.0450 -0.4455 -0.6568
  471MOL0     C64902   9.884   7.891   9.664  0.6515 -0.8266 -0.1418
  471MOL0     C64903  10.000   7.932   9.753 -0.0889  0.4769  0.5416
  471MOL0     C64904  10.136   7.880   9.693  0.2409  0.6231 -0.1234
  471MOL0    Cl64905  10.134   7.707   9.657 -0.1843  0.3319 -0.0078
  471MOL0     C64906   9.183   8.308   9.996  0.1430 -0.5673 -1.1929
  471MOL0     C64907   9.069   8.377  10.040  0.0036  0.5072  0.7278
  471MOL0     O64908   9.004   8.672  10.329 -1.0412  0.5808 -0.1135
  471MOL0     C64909   8.692   8.658  10.161  0.0858  0.1368  0.0249
  471MOL0     C64910   8.554   8.689  10.187 -0.4247  0.4509  0.3896
  471MOL0     N64911   8.499   8.676  10.769  0.6969 -0.0116  0.6495
  471MOL0     N64912   8.603   8.606  10.771 -0.0685  0.3805  0.4262
  471MOL0     C64913   8.792   7.789  10.256 -0.5523 -0.1325  0.3562
  471MOL0     C64914   8.672   7.724  10.271  0.1567 -0.0183  0.5609
  471MOL0     C64915   8.381   7.387  10.331  0.3955 -0.4758 -0.0648
  471MOL0     C64916   8.364   7.261  10.258  0.0094  0.1643  0.1162
  471MOL0     C64917   8.239   7.190  10.257 -0.2910 -0.2531 -0.6648
  471MOL0     C64918   8.131   7.241  10.328  0.6660 -0.0441 -0.2017
  471MOL0     O64919   8.024   7.159  10.336  0.0328 -0.0749  0.7839
  471MOL0     C64920   7.905   7.209  10.389 -0.4576  0.0004  0.2846
  471MOL0     C64921   7.814   7.088  10.392 -0.3914 -0.2942 -0.5246
  471MOL0     C64922   7.748   7.040  10.256 -0.1368 -0.0540  0.6180
  471MOL0     C64923   7.637   7.136  10.201 -0.7355  0.0224 -0.3792
  471MOL0     C64924   7.615   7.114  10.060  0.5022  0.1643  0.4096
  471MOL0     C64925   7.604   7.102   9.938  0.1503  1.3638 -0.1732
  471MOL0     C64926   8.140   7.369  10.389  0.1278 -0.0944 -0.9766
  471MOL0     C64927   8.260   7.443  10.390  0.4785 -0.0839  0.3905
  471MOL0     C64928   8.242   7.590  10.437  0.8673  1.3184 -0.1204
  471MOL0     H64929   8.756   7.512  10.516  0.6073  0.1486  0.3945
  471MOL0     H64930   8.969   7.604  10.477  1.7118  0.7612 -2.7723
  471MOL0     H64931   9.189   7.786  10.416 -0.0758 -0.5377  3.8085
  471MOL0     H64932   9.053   7.849  10.502  0.9250 -3.3827  0.7582
  471MOL0     H64933   9.236   8.016  10.436  1.3258  0.8509 -2.7483
  471MOL0     H64934   9.197   8.004  10.270  0.6122  1.5420  0.4812
  471MOL0     H64935   8.969   8.065  10.304 -3.3668 -2.8552  3.1962
  471MOL0     H64936   8.983   8.083  10.482 -0.4455  1.2226 -0.6356
  471MOL0     H64937   9.127   8.268  10.459 -2.1836  0.3324  0.2696
  471MOL0     H64938   9.134   8.263  10.290 -0.2062 -0.9606 -0.6209
  471MOL0     H64939   8.883   8.287  10.292 -1.0696 -1.4655  0.5283
  471MOL0     H64940   8.967   8.428  10.364  0.2361 -0.4506 -2.5483
  471MOL0     H64941   8.795   8.226  10.493  0.0970 -0.8279  1.7035
  471MOL0     H64942   8.911   8.315  10.589 -3.5536  1.1224  1.4555
  471MOL0     H64943   8.668   8.434  10.436 -0.0228 -1.9649  0.1856
  471MOL0     H64944   8.777   8.534  10.520 -0.4080  0.1237  0.9627
  471MOL0     H64945   8.611   8.306  10.658 -1.3804  0.5284 -1.8472
  471MOL0     H64946   8.745   8.389  10.734  0.7946 -1.1125 -0.2185
  471MOL0     H64947   8.376   8.416  10.604  0.4666 -1.8465  1.7596
  471MOL0     H64948   8.232   8.728  10.776 -0.1313 -1.8224  1.3385
  471MOL0     H64949   8.191   8.574  10.701  0.7444  0.4318  0.2985
  471MOL0     H64950   8.251   8.645  10.481 -2.6693 -1.4181 -0.4430
  471MOL0     H64951   8.135   8.762  10.543  0.3511  0.1387 -0.4482
  471MOL0     H64952   8.322   8.928  10.592  1.0436  0.9611 -0.1332
  471MOL0     H64953   8.438   8.813  10.537  0.2527  3.1838  1.5344
  471MOL0     H64954   8.231   8.932  10.358 -0.7796  1.1804  1.8301
  471MOL0     H64955   8.392   8.983  10.387 -2.1904  1.0730 -0.1580
  471MOL0     H64956   8.592   8.929  10.404 -0.3389  0.2140 -0.2764
  471MOL0     H64957   8.941   8.897  10.374  0.0810 -2.3704 -1.8122
  471MOL0     H64958   8.858   8.844  10.524  0.8861  0.4351  0.5152
  471MOL0     H64959   8.807   8.990  10.433 -1.1368 -0.5219  0.4817
  471MOL0     H64960   9.205   8.679  10.120 -0.6255  0.0160 -1.8060
  471MOL0     H64961   9.404   8.554  10.030 -0.0061  1.2780  4.3808
  471MOL0     H64962   9.397   8.126  10.053 -0.5254 -1.7358  0.1938
  471MOL0     H64963   9.358   8.107   9.888  0.6110  1.6739 -2.2327
  471MOL0     H64964   9.642   8.183   9.968 -2.1371  0.5009  1.8437
  471MOL0     H64965   9.581   8.010   9.944 -1.4675 -0.5426 -0.1068
  471MOL0     H64966   9.583   8.239   9.738 -1.7705  0.9060  4.1925
  471MOL0     H64967   9.508   8.079   9.717 -1.4074  1.7954 -0.3873
  471MOL0     H64968   9.801   8.136   9.817  2.8160  1.0693 -2.4694
  471MOL0     H64969   9.774   8.142   9.645 -0.2841  1.9454  0.2934
  471MOL0     H64970   9.740   7.896   9.820  1.0581 -2.0317 -1.1871
  471MOL0     H64971   9.666   7.903   9.661 -1.9914  0.2078  1.7141
  471MOL0     H64972   9.887   7.931   9.562 -5.9009  4.6187  1.1058
  471MOL0     H64973   9.882   7.782   9.660  1.2485 -0.8917  0.9893
  471MOL0     H64974   9.984   7.890   9.853 -0.4610  1.3419  0.8585
  471MOL0     H64975  10.006   8.041   9.765 -0.4322  0.5042  0.4921
  471MOL0     H64976  10.227   7.912   9.743  1.0485  0.6986 -1.5890
  471MOL0     H64977  10.141   7.928   9.595 -3.8456 -1.0079 -1.3488
  471MOL0     H64978   9.162   8.214   9.946 -2.8308 -0.5071 -0.2682
  471MOL0     H64979   8.969   8.335  10.034 -0.0540  0.7201  0.0802
  471MOL0     H64980   8.705   8.580  10.086 -1.7781  1.1728 -1.4632
  471MOL0     H64981   8.475   8.630  10.140 -1.8725  3.6710 -1.5365
  471MOL0     H64982   8.809   7.864  10.179  0.3416 -0.1431  0.5339
  471MOL0     H64983   8.589   7.752  10.208 -3.2746 -3.1374  3.2381
  471MOL0     H64984   8.447   7.215  10.205 -0.5712 -1.8398  0.8807
  471MOL0     H64985   8.220   7.098  10.202  0.4066 -0.2667 -0.8872
  471MOL0     H64986   7.920   7.247  10.491 -1.9996 -2.1041  1.3779
  471MOL0     H64987   7.849   7.281  10.329  3.0588  2.1773 -0.6495
  471MOL0     H64988   7.736   7.114  10.464 -1.0306 -2.3046 -0.4041
  471MOL0     H64989   7.871   7.008  10.441  0.4956  1.3031  1.1847
  471MOL0     H64990   7.825   7.030  10.180 -0.0518  2.0785  0.3470
  471MOL0     H64991   7.699   6.948  10.289  1.5329 -0.8484  1.0084
  471MOL0     H64992   7.664   7.241  10.207 -3.2854  0.8447 -1.7004
  471MOL0     H64993   7.540   7.138  10.253  0.4532 -0.1976  1.9660
  471MOL0     H64994   7.617   7.072   9.836 -3.0580 -0.0594 -0.2676
  471MOL0     H64995   8.050   7.405  10.438  1.1506  1.0709  0.1233
  471MOL0     H64996   8.273   7.614  10.539 -1.1768  0.1355  0.8358
  471MOL0     H64997   8.312   7.655  10.383  1.2880  0.2950 -0.8489
  471MOL0     H64998   8.138   7.622  10.424  0.9366  1.5563 -0.0948
  472MOL0     O64999   6.547  11.361   7.069  0.0507  0.0191  0.6975
  472MOL0     C65000   6.464  11.273   7.079 -0.4209  0.2623 -0.0807
  472MOL0     O65001   6.497  11.144   7.100 -0.4138  1.2398  0.0046
  472MOL0     C65002   6.621  11.105   7.099  0.1713  1.1142 -1.2909
  472MOL0     C65003   6.691  11.097   6.982 -0.1945  0.3717  0.3251
  472MOL0     C65004   6.821  11.039   6.977  0.4945 -0.3281 -0.4230
  472MOL0     C65005   6.883  11.000   7.101  0.2677  0.4547 -0.0547
  472MOL0     O65006   7.018  10.959   7.086 -0.1551 -0.9343 -0.0269
  472MOL0     C65007   7.067  10.890   7.193 -0.3215 -0.2087 -0.0284
  472MOL0     C65008   7.195  10.819   7.147 -0.4424  0.0033  0.0264
  472MOL0     C65009   7.278  10.752   7.257 -0.1241  0.6702  0.4650
  472MOL0     C65010   7.403  10.675   7.214  0.4723 -0.0562  0.5919
  472MOL0     C65011   7.521  10.747   7.152  0.1157 -0.4298 -0.3155
  472MOL0     C65012   7.637  10.652   7.141 -0.4794  0.0178 -0.1797
  472MOL0     C65013   7.752  10.718   7.058 -0.1358 -0.0984  0.1244
  472MOL0     C65014   7.870  10.622   7.037  1.2522 -0.2534 -0.3412
  472MOL0     N65015   7.973  10.689   6.954 -0.1966  0.0807  0.2804
  472MOL0     C65016   8.032  10.632   6.844  0.4985  0.3739  0.0547
  472MOL0     C65017   8.113  10.721   6.805 -0.5012 -0.2385 -0.3103
  472MOL0     C65018   8.205  10.694   6.693 -0.5020  0.9196 -0.5393
  472MOL0     C65019   8.301  10.587   6.722  0.4192 -0.0684 -0.1267
  472MOL0     C65020   8.371  10.598   6.857  0.5596  0.1037 -0.2349
  472MOL0     C65021   8.429  10.738   6.890 -0.4232  1.0400 -0.4049
  472MOL0     O65022   8.505  10.718   7.013  0.5564 -0.0895  0.4228
  472MOL0     C65023   8.619  10.781   7.032  0.0182  0.0750  0.4837
  472MOL0     C65024   8.655  10.907   6.976 -0.3424  0.2753  0.1969
  472MOL0     C65025   8.782  10.964   7.001  0.1368 -0.0696  0.6476
  472MOL0     C65026   8.832  11.095   6.949  0.1050 -0.3548 -0.7954
  472MOL0     C65027   8.866  10.889   7.088  0.4844 -0.7904  0.4490
  472MOL0     C65028   8.990  10.942   7.150  0.7020 -0.0002  0.0149
  472MOL0     O65029   9.085  10.848   7.183  0.0285  0.5816  0.3821
  472MOL0     C65030   9.205  10.881   7.229  0.2405  0.2280 -0.6399
  472MOL0     C65031   9.228  10.938   7.362 -0.0380  1.0929  0.2192
  472MOL0     C65032   9.361  10.959   7.403 -0.7537 -0.1762 -0.3444
  472MOL0     C65033   9.473  10.952   7.314  0.0964 -0.0366 -0.1517
  472MOL0     O65034   9.600  10.973   7.353 -0.7532 -0.8991 -0.7015
  472MOL0     C65035   9.637  10.988   7.487  0.1498 -0.6856 -0.0350
  472MOL0     C65036   9.779  11.043   7.496 -0.3040 -0.8091 -0.7788
  472MOL0     C65037   9.879  10.944   7.431  0.1253  0.2056 -0.2171
  472MOL0     C65038  10.018  11.020   7.421 -0.0608 -0.8995  0.0269
  472MOL0     C65039  10.125  10.933   7.372 -0.3801 -0.2233  0.4635
  472MOL0     C65040  10.121  10.867   7.234 -0.1525  0.8889 -0.0292
  472MOL0     C65041  10.148  10.960   7.118 -1.2602 -0.3215  0.6646
  472MOL0     C65042  10.030  11.043   7.071 -0.8675  0.2751  0.1494
  472MOL0    Cl65043   9.908  10.943   6.993 -0.3284 -0.2896  0.6319
  472MOL0     C65044   9.448  10.909   7.187 -0.2436 -0.1945  0.5008
  472MOL0     C65045   9.315  10.876   7.142  0.0320  0.0446 -0.6303
  472MOL0     O65046   9.000  11.061   7.177  0.2326  0.4832  0.3940
  472MOL0     C65047   8.837  10.763   7.137 -0.0327 -0.3558  0.8052
  472MOL0     C65048   8.709  10.710   7.113 -0.5589 -0.3072  0.7855
  472MOL0     N65049   8.123  10.821   6.897 -0.2607  0.0365 -1.0042
  472MOL0     N65050   8.029  10.803   6.984 -0.4400  0.4332 -0.8848
  472MOL0     C65051   6.812  11.020   7.220 -0.5314 -1.1346 -0.1901
  472MOL0     C65052   6.683  11.070   7.223  0.9778  0.6396  0.6774
  472MOL0     C65053   6.321  11.316   7.098  0.0773  0.9326  0.2950
  472MOL0     C65054   6.230  11.204   7.110  1.8207  0.4682 -0.0501
  472MOL0     C65055   6.097  11.215   7.147 -0.2133 -0.1226 -0.2149
  472MOL0     C65056   6.042  11.342   7.170  0.3761  0.2925 -0.2308
  472MOL0     O65057   5.905  11.365   7.199 -0.6519 -0.0565  0.8459
  472MOL0     C65058   5.805  11.315   7.100 -0.5760  0.5374  0.6996
  472MOL0     C65059   5.677  11.386   7.116 -0.0966  0.5203 -0.2622
  472MOL0     C65060   5.579  11.303   7.040  0.2808 -0.3904 -0.2089
  472MOL0     C65061   5.439  11.362   7.071  0.4506 -0.1477  0.0942
  472MOL0     C65062   5.342  11.328   6.962 -0.1739  0.4894 -0.1984
  472MOL0     C65063   5.275  11.292   6.868  0.2092 -0.6338  0.6287
  472MOL0     C65064   6.125  11.453   7.157 -0.3457 -0.9181 -0.7966
  472MOL0     C65065   6.266  11.441   7.126  0.1274 -0.0164  0.8603
  472MOL0     C65066   6.335  11.580   7.105  0.5699 -0.3077 -0.5105
  472MOL0     H65067   6.642  11.141   6.896  2.1909 -2.9132 -3.0432
  472MOL0     H65068   6.870  11.007   6.886  0.4946 -2.5147  0.2955
  472MOL0     H65069   7.002  10.815   7.241  2.2414 -1.1853  2.1995
  472MOL0     H65070   7.088  10.961   7.274 -2.1847 -0.0926  0.4122
  472MOL0     H65071   7.163  10.744   7.074 -1.6677  0.5277  0.0088
  472MOL0     H65072   7.259  10.891   7.096 -0.4257 -1.1038 -1.5803
  472MOL0     H65073   7.301  10.833   7.327 -2.4665 -0.5993  2.8812
  472MOL0     H65074   7.206  10.677   7.290 -0.3700 -1.5926 -4.2687
  472MOL0     H65075   7.446  10.621   7.300  2.6824  1.0269  0.2229
  472MOL0     H65076   7.366  10.596   7.148  3.1010 -1.9787  1.2207
  472MOL0     H65077   7.545  10.828   7.221  0.6173 -1.5053  0.8038
  472MOL0     H65078   7.500  10.784   7.051 -0.6576 -0.8859 -0.3322
  472MOL0     H65079   7.677  10.626   7.239 -0.2266  0.3866 -0.1834
  472MOL0     H65080   7.602  10.563   7.087 -0.3795  0.0307 -0.2668
  472MOL0     H65081   7.782  10.810   7.109  1.3392  0.3094 -1.3853
  472MOL0     H65082   7.715  10.745   6.959 -1.3342  1.3321  0.9181
  472MOL0     H65083   7.907  10.583   7.133  0.6737  0.2071  0.0763
  472MOL0     H65084   7.835  10.535   6.980  1.0251 -1.1439  1.1011
  472MOL0     H65085   8.015  10.532   6.805 -0.1767  1.5948 -2.9964
  472MOL0     H65086   8.272  10.780   6.684  0.7908 -0.2261 -2.6476
  472MOL0     H65087   8.151  10.678   6.600  0.2550 -0.5485 -0.7570
  472MOL0     H65088   8.250  10.492   6.733  0.8743 -0.4688 -1.3356
  472MOL0     H65089   8.384  10.594   6.651  2.2954  3.1575  2.1011
  472MOL0     H65090   8.300  10.571   6.936 -2.3655  0.6830 -2.4857
  472MOL0     H65091   8.435  10.510   6.867 -3.2142 -3.1259 -1.8437
  472MOL0     H65092   8.495  10.760   6.806 -0.8879  1.6825 -0.6109
  472MOL0     H65093   8.357  10.819   6.904 -0.8939  0.2194  2.8981
  472MOL0     H65094   8.579  10.942   6.907 -2.1973  0.2611  2.1259
  472MOL0     H65095   8.940  11.109   6.934 -0.1166  1.1559 -1.1577
  472MOL0     H65096   8.810  11.163   7.033 -0.3646 -1.0225 -0.3694
  472MOL0     H65097   8.780  11.129   6.859  0.2796 -0.6780 -1.0190
  472MOL0     H65098   9.140  10.944   7.426  0.5706 -1.4420  1.3993
  472MOL0     H65099   9.375  10.982   7.508 -3.9685 -0.1705  0.2068
  472MOL0     H65100   9.571  11.056   7.542  0.3567  0.2661 -0.9402
  472MOL0     H65101   9.633  10.887   7.529  0.9013 -0.8496 -0.3437
  472MOL0     H65102   9.790  11.137   7.441  1.6195 -0.7278 -0.3133
  472MOL0     H65103   9.804  11.068   7.599 -1.5559  3.8701 -1.3624
  472MOL0     H65104   9.845  10.904   7.335 -0.5248 -2.5339  1.0317
  472MOL0     H65105   9.879  10.856   7.496 -0.9771 -1.3982 -2.2519
  472MOL0     H65106  10.052  11.064   7.516  1.2437  1.0425 -1.2648
  472MOL0     H65107  10.002  11.105   7.354  1.2513 -0.5821  0.0838
  472MOL0     H65108  10.215  10.993   7.387 -0.4734 -0.1324  0.6472
  472MOL0     H65109  10.132  10.851   7.444  0.2677 -0.0946  0.5557
  472MOL0     H65110  10.020  10.826   7.224  0.4354 -0.2927 -1.4395
  472MOL0     H65111  10.194  10.786   7.241  0.0459  1.1022  0.4033
  472MOL0     H65112  10.175  10.901   7.030 -2.0165  4.0640 -2.8549
  472MOL0     H65113  10.229  11.031   7.136 -0.7950 -0.2762 -1.4250
  472MOL0     H65114  10.068  11.110   6.994 -0.1197  0.5143  0.7081
  472MOL0     H65115   9.984  11.104   7.149  0.1483  1.3492 -0.0556
  472MOL0     H65116   9.526  10.906   7.111 -0.8763  3.5689 -0.5260
  472MOL0     H65117   9.296  10.855   7.038  1.0779  0.9438 -1.0224
  472MOL0     H65118   8.894  10.721   7.219 -0.4149  0.6391  1.6142
  472MOL0     H65119   8.674  10.612   7.143  0.9722 -1.0857  0.1119
  472MOL0     H65120   6.843  10.996   7.322  0.7230 -0.5003 -0.3960
  472MOL0     H65121   6.620  11.077   7.311 -3.9498 -0.0874 -2.4000
  472MOL0     H65122   6.262  11.101   7.107  1.2163  0.2930 -0.8999
  472MOL0     H65123   6.033  11.131   7.171  0.3616 -0.9157 -1.3453
  472MOL0     H65124   5.830  11.322   6.994 -0.5846 -1.2087  0.5582
  472MOL0     H65125   5.799  11.207   7.116  0.6024  0.4451  0.6218
  472MOL0     H65126   5.680  11.490   7.084  1.7619  0.8268  0.7619
  472MOL0     H65127   5.646  11.388   7.220 -2.0573  1.0178 -0.8202
  472MOL0     H65128   5.604  11.321   6.935 -0.8955  1.1249 -0.2616
  472MOL0     H65129   5.583  11.196   7.061 -0.5813 -0.4601 -0.3520
  472MOL0     H65130   5.432  11.470   7.058  2.5609 -0.1684 -1.7716
  472MOL0     H65131   5.401  11.328   7.168 -0.4781  0.6278  0.0235
  472MOL0     H65132   5.207  11.264   6.790 -2.4136  1.0849  2.1429
  472MOL0     H65133   6.078  11.549   7.176  0.3935 -0.9340  1.4957
  472MOL0     H65134   6.400  11.593   7.018  0.5613 -1.2924 -0.6647
  472MOL0     H65135   6.267  11.665   7.111 -0.6400 -1.2544 -0.6204
  472MOL0     H65136   6.400  11.595   7.192  0.6034 -0.8370 -0.4422
  473MOL0     O65137  11.116   1.958  10.702  0.1155  0.6698 -0.3961
  473MOL0     C65138  11.087   1.845  10.750 -0.3258 -0.4991 -1.3087
  473MOL0     O65139  11.168   1.737  10.749  0.3482  0.4462  1.2300
  473MOL0     C65140  11.284   1.736  10.679 -0.9696 -0.5904  0.4485
  473MOL0     C65141  11.307   1.622  10.618 -1.4966  0.5218 -0.2281
  473MOL0     C65142  11.432   1.597  10.551  0.5711 -0.0417  0.2084
  473MOL0     C65143  11.528   1.696  10.541  0.0141  0.2607 -0.7990
  473MOL0     O65144  11.639   1.651  10.468  0.0458  0.5508 -0.4942
  473MOL0     C65145  11.754   1.736  10.461 -0.7566 -0.2185  0.0223
  473MOL0     C65146  11.864   1.680  10.378 -0.1530 -0.4122  0.0287
  473MOL0     C65147  12.008   1.726  10.404  0.2858  0.3077  0.0386
  473MOL0     C65148  12.110   1.643  10.314  0.0299 -0.2625  0.6023
  473MOL0     C65149  12.255   1.693  10.315 -0.3109  0.2301 -0.0639
  473MOL0     C65150  12.352   1.604  10.223 -0.4451 -0.7808 -0.5357
  473MOL0     C65151  12.493   1.650  10.255  0.5376 -0.3155 -0.4117
  473MOL0     C65152  12.586   1.589  10.149  0.3052 -0.3222 -0.9427
  473MOL0     N65153  12.725   1.571  10.211  0.6214  0.1820  0.0426
  473MOL0     C65154  12.805   1.462  10.174  0.2344  0.3258 -0.3031
  473MOL0     C65155  12.928   1.495  10.215 -0.9456 -0.0169 -0.4172
  473MOL0     C65156  13.047   1.411  10.208 -0.4488 -0.1604 -0.3317
  473MOL0     C65157  13.176   1.470  10.266  0.0290  0.0526 -0.4882
  473MOL0     C65158  13.202   1.402  10.396  0.2667  0.3396  0.4276
  473MOL0     C65159  13.321   1.469  10.457 -0.3666 -0.2858 -0.2250
  473MOL0     O65160  13.446   1.404  10.411  0.2545 -0.1632  0.0036
  473MOL0     C65161  13.560   1.406  10.490  0.1058 -0.0621  0.4339
  473MOL0     C65162  13.592   1.515  10.571  0.5836  0.1200  0.3599
  473MOL0     C65163  13.710   1.509  10.646  0.0929  0.3620 -0.4514
  473MOL0     C65164  13.734   1.625  10.736 -0.0973  0.6341  0.4973
  473MOL0     C65165  13.807   1.400  10.636  1.3444  0.4681 -0.3924
  473MOL0     C65166  13.929   1.392  10.716  0.2806 -0.2857  0.6100
  473MOL0     O65167  13.985   1.505  10.769 -0.2833 -0.0158  0.1748
  473MOL0     C65168  14.085   1.503  10.856 -0.0505  0.4773  0.3266
  473MOL0     C65169  14.171   1.616  10.845  0.6888  0.2443 -0.4100
  473MOL0     C65170  14.263   1.640  10.956 -0.2171 -0.2769 -0.2310
  473MOL0     C65171  14.272   1.548  11.064 -0.0798  0.2655 -0.2226
  473MOL0     O65172  14.355   1.568  11.172 -0.0917 -0.0373 -0.8875
  473MOL0     C65173  14.419   1.448  11.215 -0.2047 -0.0454  0.0805
  473MOL0     C65174  14.412   1.422  11.364 -0.0665 -0.2184  0.0000
  473MOL0     C65175  14.492   1.300  11.403 -0.3140 -0.3691 -0.4080
  473MOL0     C65176  14.488   1.276  11.557 -0.1795 -0.5423  0.5713
  473MOL0     C65177  14.503   1.141  11.600  0.2853  0.2952  0.6612
  473MOL0     C65178  14.519   1.125  11.749  0.2160 -0.7684 -0.6478
  473MOL0     C65179  14.390   1.160  11.826 -0.4771 -0.9618 -0.1249
  473MOL0     C65180  14.393   1.139  11.974 -0.2904  0.5373 -0.5030
  473MOL0    Cl65181  14.523   1.221  12.051 -0.1163  0.3325  0.5724
  473MOL0     C65182  14.182   1.441  11.063  0.4711  0.7540 -0.1674
  473MOL0     C65183  14.087   1.420  10.970 -0.4127  0.2429  0.7157
  473MOL0     O65184  13.956   1.279  10.750 -0.4571 -0.3866  0.4837
  473MOL0     C65185  13.778   1.300  10.546 -0.6133  0.5672  0.1656
  473MOL0     C65186  13.658   1.306  10.475 -0.4205 -0.1437  0.8744
  473MOL0     N65187  12.928   1.616  10.279  1.1180  0.8401 -0.3163
  473MOL0     N65188  12.800   1.657  10.274 -0.2536  0.2961 -0.3262
  473MOL0     C65189  11.506   1.821  10.605  0.6459  0.2099  0.4979
  473MOL0     C65190  11.382   1.839  10.662 -0.5937  0.4592  0.0617
  473MOL0     C65191  10.948   1.821  10.798 -0.0141 -1.1886 -0.1895
  473MOL0     C65192  10.925   1.694  10.857  0.0799 -0.2345  0.4085
  473MOL0     C65193  10.796   1.667  10.897  0.4623 -0.0938  0.6404
  473MOL0     C65194  10.687   1.756  10.887  0.1490 -0.2058  0.8295
  473MOL0     O65195  10.560   1.734  10.942  0.2093 -0.5830  0.0326
  473MOL0     C65196  10.492   1.634  10.868 -0.6304 -0.8770  0.8915
  473MOL0     C65197  10.384   1.566  10.953  0.2575 -0.0881  0.1568
  473MOL0     C65198  10.440   1.456  11.040  0.8630  0.6519 -0.2107
  473MOL0     C65199  10.331   1.385  11.117 -0.1928 -0.1587 -0.3522
  473MOL0     C65200  10.380   1.273  11.189 -0.0424  0.7512 -0.5971
  473MOL0     C65201  10.411   1.171  11.246  0.1447  0.5776  0.8885
  473MOL0     C65202  10.708   1.877  10.832  0.3310  0.3114 -0.0640
  473MOL0     C65203  10.837   1.917  10.787  0.0970 -0.2864  0.4311
  473MOL0     C65204  10.856   2.059  10.722  0.2587  0.7182 -0.7253
  473MOL0     H65205  11.236   1.543  10.637 -0.6409 -0.2339 -0.0894
  473MOL0     H65206  11.450   1.497  10.514 -0.7514  0.6692 -2.6299
  473MOL0     H65207  11.800   1.752  10.559  3.6909 -1.4821 -1.5909
  473MOL0     H65208  11.728   1.828  10.408  1.1507 -0.7180 -1.8885
  473MOL0     H65209  11.871   1.571  10.389  0.0304 -0.6868 -2.2911
  473MOL0     H65210  11.839   1.698  10.273 -1.2525 -0.1234  0.3292
  473MOL0     H65211  12.001   1.830  10.370 -3.3090 -0.6219 -2.6894
  473MOL0     H65212  12.039   1.713  10.508  3.4329  2.2551 -0.5052
  473MOL0     H65213  12.112   1.543  10.356  0.8895 -0.1373  0.8785
  473MOL0     H65214  12.080   1.636  10.209  0.6638 -1.1568  0.4740
  473MOL0     H65215  12.290   1.695  10.419 -2.5307 -0.1804  0.7415
  473MOL0     H65216  12.262   1.795  10.276  0.6395  0.4202  0.5566
  473MOL0     H65217  12.344   1.497  10.241 -1.3264 -0.8732 -1.4228
  473MOL0     H65218  12.316   1.607  10.120  0.0213 -1.6859 -0.7280
  473MOL0     H65219  12.518   1.624  10.358 -2.4446 -1.4113  0.1488
  473MOL0     H65220  12.492   1.759  10.257 -1.5770 -0.1876  3.6021
  473MOL0     H65221  12.556   1.485  10.137  1.7670 -1.1102  1.4277
  473MOL0     H65222  12.571   1.648  10.058 -3.1270 -1.8945 -1.5491
  473MOL0     H65223  12.791   1.374  10.112  0.0488 -0.3854  0.7218
  473MOL0     H65224  13.067   1.379  10.105  0.0001  0.6778 -0.5081
  473MOL0     H65225  13.023   1.321  10.266 -1.8238  0.4266  0.0499
  473MOL0     H65226  13.254   1.453  10.191  0.7529 -0.3058  0.3247
  473MOL0     H65227  13.171   1.578  10.280 -0.1892 -0.2400  1.9901
  473MOL0     H65228  13.114   1.412  10.460  0.8740  1.1654  1.1507
  473MOL0     H65229  13.225   1.296  10.381  3.1195  1.1234 -1.7203
  473MOL0     H65230  13.335   1.574  10.430  0.9568 -0.1555  0.8728
  473MOL0     H65231  13.295   1.456  10.562 -1.1058 -1.4326 -0.5345
  473MOL0     H65232  13.532   1.605  10.559 -0.2221 -0.6741 -2.2201
  473MOL0     H65233  13.815   1.682  10.691  0.6495 -0.0961  0.8805
  473MOL0     H65234  13.771   1.585  10.831 -2.2080  0.5411  1.3393
  473MOL0     H65235  13.646   1.685  10.762  0.5431  2.4549 -1.2736
  473MOL0     H65236  14.150   1.695  10.774  0.2195  0.0284 -0.5201
  473MOL0     H65237  14.314   1.735  10.968  1.0411 -1.1287  1.5518
  473MOL0     H65238  14.378   1.357  11.171  2.4249 -0.1141 -2.5051
  473MOL0     H65239  14.526   1.450  11.192 -0.2428 -0.9284 -0.1903
  473MOL0     H65240  14.458   1.503  11.422 -1.5955 -1.9079  3.9604
  473MOL0     H65241  14.308   1.406  11.397 -0.5247 -2.6417 -2.3242
  473MOL0     H65242  14.596   1.316  11.372  0.4985  1.4568  2.8215
  473MOL0     H65243  14.444   1.213  11.357 -1.8420 -0.1563  0.6956
  473MOL0     H65244  14.388   1.295  11.597 -1.1139 -1.4640 -1.2238
  473MOL0     H65245  14.559   1.346  11.602 -2.8527  2.6288  0.2507
  473MOL0     H65246  14.420   1.077  11.570  0.6370 -0.9084  2.1072
  473MOL0     H65247  14.587   1.092  11.549 -0.9758 -0.1753 -1.0494
  473MOL0     H65248  14.592   1.193  11.794 -1.2102  0.8389 -0.6248
  473MOL0     H65249  14.556   1.025  11.773  2.0317 -0.6505 -2.6799
  473MOL0     H65250  14.304   1.113  11.777 -0.1456  0.9735 -2.8005
  473MOL0     H65251  14.376   1.268  11.817  0.5900 -0.7322  0.7380
  473MOL0     H65252  14.406   1.033  11.998 -0.0105  0.7496  0.3314
  473MOL0     H65253  14.297   1.166  12.018 -0.6973  1.2754 -1.7876
  473MOL0     H65254  14.163   1.395  11.160  0.0066  1.4319  0.0649
  473MOL0     H65255  14.003   1.353  10.986 -1.0182  1.1172  1.3371
  473MOL0     H65256  13.842   1.213  10.542 -2.3733 -0.9463  2.0548
  473MOL0     H65257  13.638   1.229  10.401 -0.7041  0.6770  0.0712
  473MOL0     H65258  11.580   1.900  10.591 -1.0334  1.7646 -0.0231
  473MOL0     H65259  11.360   1.931  10.715 -0.5354 -0.2991  1.4448
  473MOL0     H65260  10.993   1.613  10.879  1.5477  1.2656  1.5983
  473MOL0     H65261  10.782   1.575  10.953 -1.4623 -0.1086  0.2166
  473MOL0     H65262  10.445   1.676  10.779  3.8788 -0.6898 -1.7408
  473MOL0     H65263  10.566   1.560  10.838  2.0582  0.7064  3.0494
  473MOL0     H65264  10.306   1.527  10.886  0.0730 -1.2380  1.0268
  473MOL0     H65265  10.339   1.649  11.008  1.7380  0.9282 -0.0853
  473MOL0     H65266  10.473   1.379  10.970 -0.0370 -0.5170  0.5948
  473MOL0     H65267  10.528   1.484  11.098  2.5663 -0.7417 -2.0057
  473MOL0     H65268  10.248   1.360  11.050  0.3036  1.6792 -1.7495
  473MOL0     H65269  10.281   1.443  11.194 -1.2772 -2.5696  0.8337
  473MOL0     H65270  10.425   1.084  11.306 -0.0907  0.7569  1.2063
  473MOL0     H65271  10.626   1.944  10.812 -0.0486 -0.0215  0.3577
  473MOL0     H65272  10.891   2.051  10.618  1.5107  0.0515 -0.2593
  473MOL0     H65273  10.764   2.120  10.723 -0.8958 -0.9626 -0.2705
  473MOL0     H65274  10.936   2.113  10.773  0.3089 -0.3099  0.3230
  474MOL0     O65275   0.387   6.317   2.276 -0.7497 -0.0220 -0.0666
  474MOL0     C65276   0.393   6.205   2.331  0.3900 -0.2788 -0.3324
  474MOL0     O65277   0.501   6.138   2.370  0.2086  0.2676  0.4822
  474MOL0     C65278   0.629   6.185   2.362  0.0085  0.2019  0.5383
  474MOL0     C65279   0.727   6.095   2.318 -0.0184  0.5254  0.5967
  474MOL0     C65280   0.856   6.127   2.284  0.3686 -0.6624  0.3211
  474MOL0     C65281   0.897   6.257   2.310  0.6086 -0.4621  0.0288
  474MOL0     O65282   1.035   6.292   2.293 -0.3581 -0.1615 -0.4741
  474MOL0     C65283   1.081   6.417   2.333 -0.4526 -1.1188  0.2065
  474MOL0     C65284   1.229   6.423   2.306 -0.2648 -0.1024 -0.5249
  474MOL0     C65285   1.284   6.369   2.163 -0.7054 -0.6429  0.1415
  474MOL0     C65286   1.435   6.349   2.175 -0.1049 -0.2638  0.8619
  474MOL0     C65287   1.483   6.293   2.036 -0.1208  0.1637 -0.4126
  474MOL0     C65288   1.629   6.270   2.044 -0.7863  0.3403 -0.0433
  474MOL0     C65289   1.695   6.250   1.910  0.4139  0.1795  0.8492
  474MOL0     C65290   1.847   6.240   1.920  1.0245  0.4755 -0.3541
  474MOL0     N65291   1.907   6.248   1.781 -0.4913 -0.0894 -0.2963
  474MOL0     C65292   1.973   6.354   1.741  0.5278  0.6115  0.8402
  474MOL0     C65293   2.026   6.327   1.621  0.0345  0.9056 -0.3785
  474MOL0     C65294   2.109   6.408   1.535  0.1236  0.2853 -0.0162
  474MOL0     C65295   2.258   6.360   1.546  0.0107 -0.7395  0.1423
  474MOL0     C65296   2.348   6.446   1.460  0.1538  0.6506  0.7733
  474MOL0     C65297   2.497   6.429   1.491  0.4322  0.0195 -0.3959
  474MOL0     O65298   2.527   6.493   1.613  1.5387  0.1760 -0.0314
  474MOL0     C65299   2.652   6.514   1.647 -0.0615 -1.1447 -0.2646
  474MOL0     C65300   2.670   6.583   1.773  0.0212  0.4182  0.3604
  474MOL0     C65301   2.797   6.613   1.826  0.2557 -0.5200  0.7570
  474MOL0     C65302   2.789   6.675   1.959 -0.0332 -0.2845  0.3098
  474MOL0     C65303   2.909   6.585   1.745 -0.7356 -0.4608  0.3876
  474MOL0     C65304   3.056   6.617   1.773 -1.5017 -0.0042  0.6494
  474MOL0     O65305   3.143   6.616   1.660  0.7763 -0.3879  0.4089
  474MOL0     C65306   3.276   6.646   1.683 -0.6355 -0.2165  0.1005
  474MOL0     C65307   3.370   6.542   1.680  0.0578  0.2532 -0.1490
  474MOL0     C65308   3.508   6.562   1.692 -0.5539  0.8552  0.3206
  474MOL0     C65309   3.568   6.690   1.700 -0.4042  0.0053 -0.4909
  474MOL0     O65310   3.705   6.699   1.714 -0.4371  0.2737  0.2148
  474MOL0     C65311   3.773   6.825   1.686  0.2228  1.0151 -0.5362
  474MOL0     C65312   3.919   6.812   1.725  0.4096 -0.8274  0.2542
  474MOL0     C65313   3.995   6.934   1.664 -0.2294  0.5479  0.2082
  474MOL0     C65314   4.151   6.909   1.669 -0.2944  1.3564  0.0866
  474MOL0     C65315   4.237   6.990   1.570 -0.2686 -0.1378  0.0860
  474MOL0     C65316   4.386   6.974   1.602  0.3665 -0.1828 -0.2625
  474MOL0     C65317   4.465   7.077   1.521  0.0796 -0.9203  0.1041
  474MOL0     C65318   4.600   7.108   1.582 -0.3275 -0.0968 -0.4208
  474MOL0    Cl65319   4.713   6.978   1.560  0.0826 -0.1518 -0.1048
  474MOL0     C65320   3.475   6.800   1.703 -0.8319  0.1409  0.2610
  474MOL0     C65321   3.331   6.774   1.691 -0.0135  0.1351  0.2775
  474MOL0     O65322   3.093   6.642   1.889 -0.3832  0.0051  0.1548
  474MOL0     C65323   2.885   6.521   1.620 -0.4698  0.2453  0.3503
  474MOL0     C65324   2.760   6.481   1.580  0.3809 -1.0105  0.5388
  474MOL0     N65325   1.982   6.193   1.590 -0.2581  0.1050  0.3101
  474MOL0     N65326   1.909   6.148   1.691 -0.2658 -0.7996 -0.0788
  474MOL0     C65327   0.794   6.350   2.349  0.3276 -0.8507 -0.0182
  474MOL0     C65328   0.672   6.316   2.374 -0.3835  0.0025  0.3527
  474MOL0     C65329   0.270   6.124   2.357  0.7635 -0.8328  0.6722
  474MOL0     C65330   0.274   6.025   2.463  0.3632 -0.7485 -0.5967
  474MOL0     C65331   0.153   5.964   2.500 -0.5651  0.4699  0.8446
  474MOL0     C65332   0.034   5.987   2.428  0.7347 -0.1070 -1.0942
  474MOL0     O65333  -0.087   5.925   2.453  0.3139 -0.6068  0.1464
  474MOL0     C65334  -0.117   5.841   2.564 -0.3854  0.5107  1.0710
  474MOL0     C65335  -0.252   5.852   2.628  0.1562 -0.1084 -0.0787
  474MOL0     C65336  -0.291   5.998   2.660 -0.0822 -0.8477  0.4323
  474MOL0     C65337  -0.440   6.010   2.667 -0.2968  0.2165 -0.1242
  474MOL0     C65338  -0.495   5.970   2.802 -0.4122  0.6099  0.5068
  474MOL0     C65339  -0.544   5.923   2.903  0.0060  0.4920  0.4921
  474MOL0     C65340   0.030   6.074   2.326 -0.3658 -0.6396  0.4038
  474MOL0     C65341   0.146   6.145   2.280 -0.0030 -1.0142 -0.4560
  474MOL0     C65342   0.139   6.245   2.166 -0.7930 -0.9472 -0.7353
  474MOL0     H65343   0.703   5.990   2.309 -0.6049  0.4196  2.6959
  474MOL0     H65344   0.927   6.051   2.252  1.2105  0.0561  0.4591
  474MOL0     H65345   1.048   6.448   2.433 -3.0158 -1.2691 -0.5116
  474MOL0     H65346   1.041   6.490   2.262 -3.1188 -2.6797 -0.0446
  474MOL0     H65347   1.272   6.520   2.334  0.4588 -0.3289 -0.8325
  474MOL0     H65348   1.263   6.361   2.389  2.2344  4.5507  2.3489
  474MOL0     H65349   1.232   6.280   2.128 -2.2191  0.7730 -1.4225
  474MOL0     H65350   1.252   6.442   2.088 -3.1006 -2.4274 -0.7010
  474MOL0     H65351   1.478   6.447   2.199 -0.9602  0.2017  0.5422
  474MOL0     H65352   1.448   6.287   2.263 -0.0272  2.4162  2.8726
  474MOL0     H65353   1.464   6.361   1.952 -0.8799 -1.5340 -1.6677
  474MOL0     H65354   1.432   6.200   2.009  0.5019  0.3957 -2.5514
  474MOL0     H65355   1.674   6.361   2.087  2.9184 -1.6729  0.7528
  474MOL0     H65356   1.638   6.190   2.117 -1.3943  0.7500  0.4893
  474MOL0     H65357   1.665   6.321   1.832  1.2533 -1.1272 -0.7320
  474MOL0     H65358   1.669   6.152   1.869 -0.7777  1.8856 -2.9722
  474MOL0     H65359   1.879   6.322   1.984 -2.1654  1.1714  0.5301
  474MOL0     H65360   1.874   6.146   1.969  2.3500  0.5628 -0.8783
  474MOL0     H65361   1.982   6.453   1.785 -0.1466  2.3564 -2.6079
  474MOL0     H65362   2.097   6.509   1.574 -0.5064  0.3867 -0.4670
  474MOL0     H65363   2.086   6.401   1.429 -1.1086 -2.2348  0.3379
  474MOL0     H65364   2.286   6.377   1.650 -0.3445  5.1872 -0.3655
  474MOL0     H65365   2.270   6.257   1.512 -3.2325 -0.9951 -0.5650
  474MOL0     H65366   2.327   6.434   1.353 -1.9386  1.1614  1.0841
  474MOL0     H65367   2.318   6.549   1.482 -1.0504  1.1718 -2.6233
  474MOL0     H65368   2.525   6.323   1.496  0.8860  0.1075 -0.9501
  474MOL0     H65369   2.552   6.477   1.410  1.9286 -1.0857 -0.1027
  474MOL0     H65370   2.582   6.627   1.819 -0.0309 -1.2032  1.9122
  474MOL0     H65371   2.683   6.676   1.985  0.1075 -1.4457  1.0011
  474MOL0     H65372   2.815   6.781   1.951 -3.8278  0.8356  0.8798
  474MOL0     H65373   2.846   6.623   2.037  1.4766 -1.2225 -1.3669
  474MOL0     H65374   3.338   6.441   1.660 -1.7722  0.6710  0.4516
  474MOL0     H65375   3.583   6.484   1.687 -0.2639  1.0519  1.3406
  474MOL0     H65376   3.759   6.841   1.579  1.4340  2.7724 -0.4762
  474MOL0     H65377   3.733   6.906   1.748 -0.0463 -0.6419  1.5956
  474MOL0     H65378   3.914   6.807   1.834  0.3233 -1.5863  0.2191
  474MOL0     H65379   3.963   6.720   1.687 -0.8525 -1.1436 -0.5351
  474MOL0     H65380   3.969   7.019   1.727 -1.4906 -0.8895  1.7145
  474MOL0     H65381   3.966   6.945   1.559 -2.9142 -1.6263  0.6287
  474MOL0     H65382   4.174   6.807   1.638  0.7151  1.1666  1.4133
  474MOL0     H65383   4.183   6.910   1.773  0.8509 -1.0884 -0.1800
  474MOL0     H65384   4.208   6.949   1.472  3.0035  1.0823 -1.5320
  474MOL0     H65385   4.199   7.092   1.577 -2.5677 -0.9818  0.8749
  474MOL0     H65386   4.414   6.869   1.592  0.3644 -0.5865  2.8226
  474MOL0     H65387   4.393   7.007   1.707  0.9091  2.8225 -1.1376
  474MOL0     H65388   4.403   7.167   1.510  0.5639 -0.6563 -0.4863
  474MOL0     H65389   4.467   7.040   1.419 -0.8811 -0.5601 -0.0568
  474MOL0     H65390   4.572   7.125   1.687  0.4081 -0.8580 -0.0894
  474MOL0     H65391   4.651   7.198   1.548 -1.2183  0.2769 -0.7801
  474MOL0     H65392   3.521   6.898   1.689  0.9017 -0.7170 -0.3942
  474MOL0     H65393   3.263   6.858   1.687  0.4139  0.7074  2.8521
  474MOL0     H65394   2.968   6.515   1.550  0.3810  1.6544  1.1832
  474MOL0     H65395   2.764   6.435   1.482  1.5146  0.8404 -0.3379
  474MOL0     H65396   0.817   6.456   2.355 -1.6975 -0.3398 -0.3975
  474MOL0     H65397   0.598   6.387   2.410  0.4648  0.5456  1.0838
  474MOL0     H65398   0.359   6.024   2.531  2.5994  1.7853 -3.0902
  474MOL0     H65399   0.158   5.876   2.563  0.2274 -1.0569 -1.2531
  474MOL0     H65400  -0.092   5.742   2.525 -0.9154  1.3719 -1.6525
  474MOL0     H65401  -0.045   5.862   2.644 -0.0635  1.2303  0.5976
  474MOL0     H65402  -0.245   5.793   2.719  0.4573 -0.0567 -0.0653
  474MOL0     H65403  -0.332   5.803   2.572  0.9720 -0.7949 -0.6665
  474MOL0     H65404  -0.240   6.032   2.751 -0.6976  1.5171 -0.0442
  474MOL0     H65405  -0.265   6.051   2.568  0.2609 -5.1125 -2.2359
  474MOL0     H65406  -0.476   5.941   2.591 -0.9680 -3.3242  3.1198
  474MOL0     H65407  -0.467   6.113   2.642  1.5853  1.0601  1.1160
  474MOL0     H65408  -0.571   5.878   2.996  3.6364 -1.4937  0.7758
  474MOL0     H65409  -0.067   6.080   2.279 -0.3474 -0.7104  0.3572
  474MOL0     H65410   0.130   6.344   2.212  0.2749 -0.7574 -0.9008
  474MOL0     H65411   0.237   6.252   2.117  0.4867  1.3081  1.8679
  474MOL0     H65412   0.061   6.229   2.092 -0.5622 -1.0897 -0.9495
  475MOL0     O65413   8.227   1.777   7.569  0.2987 -0.0810  0.2721
  475MOL0     C65414   8.302   1.716   7.495 -0.2995  0.7576 -0.9700
  475MOL0     O65415   8.390   1.774   7.398 -0.6289  0.0780  0.2995
  475MOL0     C65416   8.409   1.913   7.399 -0.3978  0.9878  0.1627
  475MOL0     C65417   8.482   1.978   7.497  0.8407  0.9377 -0.3088
  475MOL0     C65418   8.509   2.116   7.478 -0.2746 -0.1145 -0.1761
  475MOL0     C65419   8.479   2.184   7.361 -0.8727  0.0324 -0.9093
  475MOL0     O65420   8.515   2.321   7.354 -0.3552  0.5103 -0.5655
  475MOL0     C65421   8.547   2.376   7.230 -0.0151 -0.5583 -0.0141
  475MOL0     C65422   8.642   2.505   7.227 -0.0429 -0.4925 -0.4388
  475MOL0     C65423   8.788   2.485   7.283  0.8859 -0.3182 -0.2951
  475MOL0     C65424   8.889   2.431   7.187 -0.5561 -0.1994  0.0328
  475MOL0     C65425   9.031   2.417   7.256  0.3703  0.3531  0.4241
  475MOL0     C65426   9.125   2.373   7.143 -0.1517  0.1701  0.1894
  475MOL0     C65427   9.276   2.391   7.177  0.7474 -0.0173  0.1550
  475MOL0     C65428   9.380   2.377   7.064 -0.0080  0.3520  1.0524
  475MOL0     N65429   9.515   2.381   7.113 -0.8375 -0.1801  0.0204
  475MOL0     C65430   9.582   2.497   7.158  0.4184  0.0566 -0.0935
  475MOL0     C65431   9.713   2.461   7.172 -0.1198 -0.7568  0.4986
  475MOL0     C65432   9.835   2.536   7.213 -0.2777  0.7482  0.0149
  475MOL0     C65433   9.931   2.541   7.105 -0.1669  0.0473 -0.2478
  475MOL0     C65434  10.064   2.578   7.154  0.5111 -0.1488 -0.5405
  475MOL0     C65435  10.136   2.460   7.218  0.1870 -0.5473 -0.7178
  475MOL0     O65436  10.272   2.493   7.202 -0.0635  0.5222 -0.7088
  475MOL0     C65437  10.357   2.394   7.234 -0.0794  1.0352 -0.6868
  475MOL0     C65438  10.349   2.293   7.331 -0.2709 -0.2235 -0.0666
  475MOL0     C65439  10.439   2.180   7.340 -0.1539 -0.0059 -0.7257
  475MOL0     C65440  10.409   2.081   7.447  0.4295  0.7702  0.0517
  475MOL0     C65441  10.554   2.177   7.251  0.0134 -0.7081 -1.4354
  475MOL0     C65442  10.662   2.080   7.267  0.2201  0.4018  0.3196
  475MOL0     O65443  10.755   2.103   7.182 -0.1928 -0.2889  0.6882
  475MOL0     C65444  10.875   2.039   7.181 -0.1647  0.5952 -0.0520
  475MOL0     C65445  10.939   2.002   7.056  0.1087  0.6705 -0.5517
  475MOL0     C65446  11.065   1.951   7.052 -0.4419  0.5234  0.1955
  475MOL0     C65447  11.133   1.937   7.172  0.8113 -1.1073  0.1526
  475MOL0     O65448  11.259   1.886   7.160 -0.1774 -0.1549  0.1727
  475MOL0     C65449  11.354   1.922   7.264 -0.3767 -0.0498 -1.0837
  475MOL0     C65450  11.499   1.893   7.226 -0.3212  0.4847  0.3318
  475MOL0     C65451  11.521   1.733   7.236 -0.6578 -0.8565  1.0554
  475MOL0     C65452  11.664   1.706   7.205 -1.2789 -0.2145  0.0831
  475MOL0     C65453  11.690   1.579   7.125  0.3882 -0.5424  0.3086
  475MOL0     C65454  11.843   1.566   7.104  0.4026  0.9332  0.3752
  475MOL0     C65455  11.903   1.653   6.995  0.3943  0.0024 -0.3108
  475MOL0     C65456  12.033   1.577   6.968  0.0811 -0.2113  0.0954
  475MOL0    Cl65457  12.141   1.587   7.107  0.3995  0.2950 -0.0933
  475MOL0     C65458  11.075   1.976   7.290 -0.2130 -0.3021  1.0285
  475MOL0     C65459  10.951   2.037   7.296 -0.1267 -0.7528  0.0030
  475MOL0     O65460  10.650   1.982   7.340  0.3869 -0.5542 -0.1732
  475MOL0     C65461  10.559   2.287   7.155 -1.0351  0.2005 -1.3472
  475MOL0     C65462  10.464   2.387   7.151 -0.2612  0.3368  0.8910
  475MOL0     N65463   9.720   2.331   7.130  0.2291 -0.0445  0.2925
  475MOL0     N65464   9.602   2.283   7.097 -0.0956  0.5261 -0.4056
  475MOL0     C65465   8.412   2.116   7.263  0.6069 -0.6141 -0.4627
  475MOL0     C65466   8.373   1.985   7.282  0.0134  0.2070 -0.3238
  475MOL0     C65467   8.304   1.572   7.517 -1.0087 -0.5200 -0.1311
  475MOL0     C65468   8.415   1.496   7.463  0.6700  0.2624  0.0129
  475MOL0     C65469   8.414   1.357   7.475 -1.4269  0.5099 -0.3606
  475MOL0     C65470   8.316   1.286   7.543  0.0698  0.4031  0.6587
  475MOL0     O65471   8.339   1.153   7.568 -0.0961  0.2464  0.6648
  475MOL0     C65472   8.377   1.068   7.465 -0.6468  0.0454  0.2473
  475MOL0     C65473   8.318   0.932   7.512 -0.4446 -0.6150  0.0092
  475MOL0     C65474   8.346   0.830   7.407 -0.7445 -0.6232 -0.0373
  475MOL0     C65475   8.347   0.692   7.451  0.7809  0.7882 -0.3083
  475MOL0     C65476   8.210   0.643   7.491  0.4336  0.0775 -0.0412
  475MOL0     C65477   8.093   0.617   7.499  0.3432 -0.3052 -0.4676
  475MOL0     C65478   8.206   1.359   7.593  0.7642 -0.0695 -0.5010
  475MOL0     C65479   8.191   1.499   7.580 -0.1413  0.6899  0.1012
  475MOL0     C65480   8.059   1.563   7.623  0.4071 -0.8005 -0.4588
  475MOL0     H65481   8.528   1.925   7.579 -0.0074 -0.8820 -0.9667
  475MOL0     H65482   8.574   2.161   7.553 -0.2038 -0.2887 -0.1328
  475MOL0     H65483   8.456   2.414   7.182  0.4772  1.0080  0.2409
  475MOL0     H65484   8.598   2.299   7.172 -0.4942 -1.4846  0.7706
  475MOL0     H65485   8.641   2.536   7.122  0.5431  0.7562 -0.0917
  475MOL0     H65486   8.587   2.584   7.279  1.1736  1.9087 -2.5622
  475MOL0     H65487   8.818   2.581   7.327 -0.5962 -0.9964  2.3741
  475MOL0     H65488   8.775   2.412   7.363 -1.2508  0.8842  0.5469
  475MOL0     H65489   8.863   2.333   7.146 -0.5606  0.2971 -1.1671
  475MOL0     H65490   8.886   2.508   7.110 -0.1775  0.2205  0.4284
  475MOL0     H65491   9.036   2.352   7.344  0.4222  0.7980  0.7511
  475MOL0     H65492   9.067   2.514   7.293 -0.3643  0.2392  1.4929
  475MOL0     H65493   9.111   2.272   7.102  0.7188  0.4573 -0.8777
  475MOL0     H65494   9.110   2.437   7.056  1.1137 -0.6781 -0.6982
  475MOL0     H65495   9.314   2.326   7.256  1.5522 -1.0281 -1.0284
  475MOL0     H65496   9.284   2.491   7.221  0.7805  0.1263 -0.1783
  475MOL0     H65497   9.358   2.280   7.019 -0.2306  2.1416 -3.1742
  475MOL0     H65498   9.369   2.456   6.988 -0.9813  2.1618  2.9757
  475MOL0     H65499   9.522   2.587   7.172  1.0747  0.3909  0.6537
  475MOL0     H65500   9.879   2.483   7.298  2.4213 -0.4424 -1.9824
  475MOL0     H65501   9.796   2.637   7.229  2.4201  1.9756 -0.5673
  475MOL0     H65502   9.929   2.453   7.040  3.0519  0.4081 -0.9642
  475MOL0     H65503   9.896   2.625   7.044 -1.8631 -1.4433 -1.4407
  475MOL0     H65504  10.117   2.604   7.062  1.1075  0.3367 -0.0729
  475MOL0     H65505  10.047   2.660   7.225  1.1117  0.7582 -1.4264
  475MOL0     H65506  10.104   2.442   7.321 -0.1113 -1.4549 -0.9601
  475MOL0     H65507  10.121   2.364   7.168  0.5498 -0.5913 -0.7463
  475MOL0     H65508  10.253   2.295   7.380 -1.0252  1.0281 -1.5175
  475MOL0     H65509  10.401   1.980   7.405 -0.5266  0.3864  1.1112
  475MOL0     H65510  10.311   2.109   7.485  0.0749 -1.1117  0.6423
  475MOL0     H65511  10.482   2.083   7.529 -0.5457 -1.2424  1.0388
  475MOL0     H65512  10.888   2.012   6.960 -3.0822  1.3328  1.0806
  475MOL0     H65513  11.097   1.932   6.949  3.3379 -1.6336  1.5635
  475MOL0     H65514  11.343   2.028   7.292 -1.3171 -0.6665  1.0939
  475MOL0     H65515  11.325   1.868   7.355  0.4151  0.9125 -0.2228
  475MOL0     H65516  11.507   1.927   7.123  0.2528  3.0101  1.1217
  475MOL0     H65517  11.568   1.956   7.284 -0.1469  1.5366 -0.9658
  475MOL0     H65518  11.451   1.686   7.167 -0.8000 -1.1505  1.3979
  475MOL0     H65519  11.500   1.701   7.338 -1.3791  0.6148  1.3944
  475MOL0     H65520  11.721   1.701   7.298 -1.2778  0.1174  0.1025
  475MOL0     H65521  11.701   1.787   7.142 -0.2022 -2.1960 -1.9372
  475MOL0     H65522  11.665   1.490   7.183  1.1897 -1.0601 -0.1097
  475MOL0     H65523  11.626   1.569   7.037  0.3898  1.2802  0.0542
  475MOL0     H65524  11.851   1.462   7.071 -1.1285  1.0680 -0.5229
  475MOL0     H65525  11.898   1.588   7.196 -0.7335  2.1882  0.7853
  475MOL0     H65526  11.925   1.755   7.028 -0.4039  1.2364 -3.2555
  475MOL0     H65527  11.836   1.661   6.909 -0.5481  1.6716  0.5128
  475MOL0     H65528  12.096   1.630   6.896 -0.4583 -0.6590 -0.7246
  475MOL0     H65529  12.020   1.479   6.921 -2.5630  0.6685 -1.2100
  475MOL0     H65530  11.125   1.947   7.382 -0.5776  0.3984  1.4555
  475MOL0     H65531  10.910   2.070   7.390  0.3447  0.5513 -0.2248
  475MOL0     H65532  10.644   2.300   7.088  0.4170 -2.8342 -0.2835
  475MOL0     H65533  10.478   2.458   7.070  1.9602 -2.2777 -1.2066
  475MOL0     H65534   8.388   2.165   7.169  0.5787 -3.3964 -2.0164
  475MOL0     H65535   8.321   1.925   7.208  1.8563 -3.1216  0.8943
  475MOL0     H65536   8.502   1.542   7.418  0.8282 -1.4599 -1.5260
  475MOL0     H65537   8.485   1.308   7.409 -0.9896  1.5860 -0.7232
  475MOL0     H65538   8.323   1.100   7.376  0.2120  3.1366  0.7215
  475MOL0     H65539   8.485   1.059   7.449 -1.0329 -3.8993 -1.3621
  475MOL0     H65540   8.211   0.944   7.534  0.0616 -0.8612  2.9868
  475MOL0     H65541   8.365   0.901   7.605 -1.1180 -1.7826 -0.0136
  475MOL0     H65542   8.286   0.854   7.319 -2.8478  2.2188  1.9793
  475MOL0     H65543   8.444   0.847   7.361 -1.8887  1.0893 -2.0357
  475MOL0     H65544   8.417   0.684   7.534  0.3450  0.1273  0.0003
  475MOL0     H65545   8.379   0.631   7.366  0.4786  2.5145 -1.7338
  475MOL0     H65546   7.986   0.607   7.509  0.6264 -0.9607  4.4300
  475MOL0     H65547   8.128   1.292   7.628 -1.3915  2.1207 -0.8689
  475MOL0     H65548   8.025   1.617   7.534 -0.0050 -1.3518 -0.6391
  475MOL0     H65549   7.975   1.495   7.641  0.5240 -0.7884  0.1552
  475MOL0     H65550   8.076   1.636   7.703  0.1602 -0.4110 -0.7556
  476MOL0     O65551   9.776   4.574   9.743  0.7802  0.3444 -0.8641
  476MOL0     C65552   9.730   4.488   9.822 -0.3240 -0.1742 -0.2662
  476MOL0     O65553   9.806   4.427   9.926  0.5743 -0.4427  0.4580
  476MOL0     C65554   9.923   4.477   9.941 -0.1410 -0.5060  0.7207
  476MOL0     C65555   9.939   4.587  10.028  0.2818 -0.5207 -0.9004
  476MOL0     C65556  10.068   4.646  10.030 -0.6863 -0.3078 -0.0518
  476MOL0     C65557  10.183   4.584   9.965  0.8067  0.0027  0.5179
  476MOL0     O65558  10.309   4.638   9.971 -0.3993  0.0001  0.0580
  476MOL0     C65559  10.381   4.617  10.098  1.2002 -0.7512 -0.3475
  476MOL0     C65560  10.460   4.489  10.086 -0.9968  0.0173  0.3059
  476MOL0     C65561  10.583   4.489   9.994  0.2077  0.3525 -0.5475
  476MOL0     C65562  10.684   4.595  10.026  0.4704  0.2202  0.0964
  476MOL0     C65563  10.808   4.575   9.944 -0.3975 -0.8802  0.0756
  476MOL0     C65564  10.794   4.522   9.803 -0.0105 -0.5395 -0.3709
  476MOL0     C65565  10.913   4.549   9.716 -0.5694  0.0259 -0.2594
  476MOL0     C65566  11.047   4.523   9.782  0.3112 -0.9535  0.2993
  476MOL0     N65567  11.164   4.505   9.695 -0.1035  0.2232 -0.2892
  476MOL0     C65568  11.204   4.602   9.607  0.1870  0.1343 -0.3893
  476MOL0     C65569  11.305   4.555   9.535 -0.1231  0.8965 -0.4314
  476MOL0     C65570  11.378   4.620   9.420  0.9343  0.4556 -0.7819
  476MOL0     C65571  11.284   4.628   9.297  0.1973  0.6100  0.9911
  476MOL0     C65572  11.238   4.494   9.241  0.2888  0.3438  0.4650
  476MOL0     C65573  11.100   4.498   9.168 -0.2538 -0.4078 -0.0391
  476MOL0     O65574  11.095   4.588   9.067 -0.8423 -0.4845  0.8456
  476MOL0     C65575  10.968   4.607   9.016  0.2218 -0.3337 -1.0743
  476MOL0     C65576  10.968   4.689   8.906 -0.1059 -0.2711 -0.4828
  476MOL0     C65577  10.857   4.717   8.828 -0.1007  0.1865 -0.1849
  476MOL0     C65578  10.883   4.809   8.707  1.0255  0.2736  0.0671
  476MOL0     C65579  10.742   4.638   8.853  0.6471 -0.9470  0.3062
  476MOL0     C65580  10.617   4.659   8.782 -0.0194  0.4612 -0.5209
  476MOL0     O65581  10.532   4.555   8.782 -0.4921  0.4249  0.3862
  476MOL0     C65582  10.403   4.576   8.738  0.4674 -0.3905 -0.7573
  476MOL0     C65583  10.352   4.477   8.658  0.7031  0.0203 -0.4774
  476MOL0     C65584  10.218   4.495   8.607  0.1015  0.0257 -0.5633
  476MOL0     C65585  10.137   4.604   8.638  0.5447 -0.4069  0.2154
  476MOL0     O65586  10.020   4.613   8.570  0.1082 -0.6793  0.4422
  476MOL0     C65587   9.978   4.745   8.534 -0.3899 -0.4672 -0.0630
  476MOL0     C65588   9.829   4.766   8.521  0.3103 -0.0990  1.7793
  476MOL0     C65589   9.778   4.642   8.440  0.3269  0.4583 -0.5836
  476MOL0     C65590   9.628   4.662   8.402  0.5309 -0.1138 -0.2041
  476MOL0     C65591   9.562   4.538   8.338  1.0529 -0.2191 -1.0783
  476MOL0     C65592   9.591   4.520   8.193  0.0327 -0.3865 -0.0599
  476MOL0     C65593   9.523   4.402   8.127  0.0889 -0.2711 -0.4000
  476MOL0     C65594   9.371   4.416   8.116 -0.7155  0.0832 -0.9648
  476MOL0    Cl65595   9.314   4.247   8.098  0.3454 -0.4882 -0.1815
  476MOL0     C65596  10.187   4.700   8.727 -0.0001 -0.7406 -0.0568
  476MOL0     C65597  10.323   4.683   8.773 -0.0898  0.1040  0.1642
  476MOL0     O65598  10.606   4.752   8.703 -0.5485 -0.6996 -0.2984
  476MOL0     C65599  10.737   4.561   8.966 -0.3476  0.2912 -0.2121
  476MOL0     C65600  10.849   4.536   9.049  0.0456 -0.2258  0.2583
  476MOL0     N65601  11.328   4.431   9.590  0.4895  0.1008 -0.2472
  476MOL0     N65602  11.248   4.399   9.685 -0.1629 -0.0268 -0.3519
  476MOL0     C65603  10.168   4.458   9.909  0.2813 -0.1859  0.3943
  476MOL0     C65604  10.036   4.407   9.890 -0.1580 -0.6209  0.3429
  476MOL0     C65605   9.583   4.468   9.824 -0.4842 -0.6528 -0.4182
  476MOL0     C65606   9.540   4.371   9.916 -0.2426 -0.1839 -0.2162
  476MOL0     C65607   9.396   4.360   9.935 -0.1844  0.2691  0.0624
  476MOL0     C65608   9.310   4.414   9.844  0.0659 -0.4942  0.3221
  476MOL0     O65609   9.175   4.393   9.840  0.1888 -0.0089  0.0472
  476MOL0     C65610   9.084   4.404   9.951  0.2742  0.0294 -0.5135
  476MOL0     C65611   9.069   4.554   9.968 -0.0394  0.4852  0.0142
  476MOL0     C65612   8.985   4.587  10.096 -0.6233 -0.6173 -0.2304
  476MOL0     C65613   8.857   4.499  10.122  0.1967  0.2226 -0.4002
  476MOL0     C65614   8.768   4.561  10.221 -0.1421 -0.3227  0.9203
  476MOL0     C65615   8.696   4.621  10.294 -0.3483  1.0294  0.0032
  476MOL0     C65616   9.352   4.512   9.753 -0.7085  0.0809 -0.8659
  476MOL0     C65617   9.490   4.536   9.741 -0.3818 -0.5170  0.7165
  476MOL0     C65618   9.524   4.637   9.638 -0.9976 -0.5119  0.3996
  476MOL0     H65619   9.856   4.628  10.085  0.4433 -1.8419  0.3254
  476MOL0     H65620  10.093   4.722  10.102 -3.3459 -0.1130  0.7597
  476MOL0     H65621  10.307   4.609  10.178  1.8535 -0.1465  0.3216
  476MOL0     H65622  10.434   4.708  10.125  1.8298 -1.0176 -0.6515
  476MOL0     H65623  10.503   4.455  10.180  0.1469  3.9729  1.4221
  476MOL0     H65624  10.386   4.414  10.056 -0.4821 -0.3392 -0.0892
  476MOL0     H65625  10.621   4.387  10.007  3.1530  1.4890  0.6253
  476MOL0     H65626  10.543   4.491   9.892 -1.1269  1.4570 -0.0224
  476MOL0     H65627  10.628   4.687  10.011  0.1848  0.1984  0.9809
  476MOL0     H65628  10.714   4.602  10.131 -2.0483  3.1508  0.7710
  476MOL0     H65629  10.873   4.507  10.000  0.4212  0.9710  1.4830
  476MOL0     H65630  10.859   4.672   9.940 -2.3740  0.2111  0.2759
  476MOL0     H65631  10.783   4.415   9.817 -1.2826 -0.1780  1.8425
  476MOL0     H65632  10.704   4.554   9.751  0.5370  1.2149 -0.3309
  476MOL0     H65633  10.912   4.653   9.680 -4.2217  0.6554  1.1321
  476MOL0     H65634  10.894   4.481   9.633 -2.3668  0.7923 -0.5349
  476MOL0     H65635  11.063   4.608   9.848  4.1364 -1.3939  0.2058
  476MOL0     H65636  11.037   4.430   9.839  2.9599 -0.9271  0.9493
  476MOL0     H65637  11.166   4.702   9.587  0.1659  0.4861  1.3090
  476MOL0     H65638  11.470   4.566   9.397  0.0594 -1.3134 -0.3364
  476MOL0     H65639  11.402   4.722   9.452  0.8201 -0.2310  1.6992
  476MOL0     H65640  11.197   4.691   9.317 -1.2853  0.5992 -3.9658
  476MOL0     H65641  11.343   4.673   9.217 -2.6550  1.2251 -0.9201
  476MOL0     H65642  11.313   4.463   9.169 -1.2460 -0.7850 -0.7175
  476MOL0     H65643  11.241   4.415   9.317  1.0399 -0.3724 -0.2946
  476MOL0     H65644  11.069   4.399   9.134 -0.1819  0.2331 -2.1330
  476MOL0     H65645  11.030   4.519   9.250 -0.4533 -2.1937  0.2861
  476MOL0     H65646  11.056   4.744   8.874 -1.7419  2.0294 -1.3736
  476MOL0     H65647  10.814   4.894   8.706  0.5475 -0.0571 -2.9651
  476MOL0     H65648  10.862   4.752   8.616  0.2574 -0.3180  0.5982
  476MOL0     H65649  10.985   4.848   8.707  0.4816  1.7838 -0.5544
  476MOL0     H65650  10.413   4.395   8.619 -0.3008 -0.9253 -0.1052
  476MOL0     H65651  10.186   4.429   8.527 -1.0734 -0.2919  0.1439
  476MOL0     H65652  10.016   4.822   8.602  0.1056 -0.8754  0.1365
  476MOL0     H65653  10.022   4.764   8.436 -0.6961  0.1108 -0.0922
  476MOL0     H65654   9.783   4.763   8.621  0.2635 -2.2133  1.7442
  476MOL0     H65655   9.804   4.855   8.462 -1.2030 -0.8340  1.2515
  476MOL0     H65656   9.779   4.546   8.493 -1.7720  0.6598 -0.0957
  476MOL0     H65657   9.839   4.638   8.349 -0.6023  2.4875 -1.3572
  476MOL0     H65658   9.612   4.747   8.336 -1.2498 -0.8273 -0.7573
  476MOL0     H65659   9.568   4.692   8.488  0.1123 -0.2012 -0.4590
  476MOL0     H65660   9.579   4.447   8.396  2.6024  2.4514  3.1095
  476MOL0     H65661   9.454   4.545   8.355  1.0289 -2.5876  0.2095
  476MOL0     H65662   9.698   4.504   8.176  0.8894  2.9163  1.3635
  476MOL0     H65663   9.566   4.613   8.142  0.5290 -0.4452 -0.4192
  476MOL0     H65664   9.556   4.315   8.185  0.5086 -1.6943 -2.6203
  476MOL0     H65665   9.566   4.384   8.028  0.9966  1.3295 -0.3322
  476MOL0     H65666   9.334   4.482   8.037  0.8617  2.6919  0.3343
  476MOL0     H65667   9.313   4.455   8.200 -1.3441 -3.3178  0.3620
  476MOL0     H65668  10.123   4.784   8.750 -2.0868 -0.8647 -4.4592
  476MOL0     H65669  10.358   4.756   8.845 -3.0873  0.1856  1.7038
  476MOL0     H65670  10.639   4.526   8.999 -0.7086  1.9034  0.5064
  476MOL0     H65671  10.834   4.459   9.124  0.3445  0.4787  1.0417
  476MOL0     H65672  10.252   4.407   9.863 -0.1310 -0.7063  0.2003
  476MOL0     H65673  10.017   4.316   9.834 -1.8490 -0.0632 -0.0441
  476MOL0     H65674   9.605   4.316   9.984 -0.0463 -0.3708 -0.5528
  476MOL0     H65675   9.364   4.282  10.003  1.9250 -0.1771  0.6016
  476MOL0     H65676   8.985   4.359   9.936  0.2934 -0.0303 -0.4621
  476MOL0     H65677   9.130   4.374  10.045  0.7503  2.8725  0.2721
  476MOL0     H65678   9.020   4.601   9.882 -2.3416 -0.8875  0.4747
  476MOL0     H65679   9.168   4.594   9.988 -1.2301  3.3280  0.6226
  476MOL0     H65680   9.048   4.584  10.185 -0.8960 -0.5263 -0.0301
  476MOL0     H65681   8.962   4.694  10.094  2.3219  0.1225 -3.0761
  476MOL0     H65682   8.868   4.392  10.145 -0.9505 -0.2021 -1.6765
  476MOL0     H65683   8.803   4.501  10.026  0.3089  0.2516 -0.4631
  476MOL0     H65684   8.640   4.675  10.368 -0.2800 -1.2576  1.8433
  476MOL0     H65685   9.292   4.579   9.692  0.3238  3.0585  1.1993
  476MOL0     H65686   9.584   4.598   9.555  0.1305 -0.1048  1.0035
  476MOL0     H65687   9.433   4.677   9.590  0.5586  2.6727 -0.1820
  476MOL0     H65688   9.574   4.722   9.685 -1.1685 -0.6184  0.7753
  477MOL0     O65689   9.478   9.868   3.348  0.0693  0.1705 -0.7377
  477MOL0     C65690   9.463   9.773   3.269 -0.1820  0.0828 -0.2847
  477MOL0     O65691   9.563   9.698   3.203 -0.0385  0.2498  0.3052
  477MOL0     C65692   9.693   9.724   3.223 -0.1959  0.3197 -0.4052
  477MOL0     C65693   9.766   9.624   3.290  0.1287  0.4966  0.0963
  477MOL0     C65694   9.898   9.639   3.314  0.1965 -0.3465 -0.3593
  477MOL0     C65695   9.965   9.752   3.288 -0.4783 -0.6430  0.0150
  477MOL0     O65696  10.092   9.764   3.335 -0.6594  0.1912  0.6237
  477MOL0     C65697  10.186   9.653   3.352 -1.0309 -0.0792  0.2901
  477MOL0     C65698  10.325   9.707   3.346  0.1864  2.0041 -0.2049
  477MOL0     C65699  10.416   9.582   3.338 -0.2610 -0.1092  0.3761
  477MOL0     C65700  10.556   9.607   3.385 -0.4393  0.1212  0.1568
  477MOL0     C65701  10.635   9.483   3.409  0.2125 -0.1489  0.1386
  477MOL0     C65702  10.770   9.513   3.475 -0.2858 -0.7416 -0.2501
  477MOL0     C65703  10.869   9.393   3.492 -0.5306 -0.1530 -1.0615
  477MOL0     C65704  10.997   9.439   3.566 -0.1550 -0.0555  0.1339
  477MOL0     N65705  11.102   9.349   3.530  0.7304 -0.7323  1.1599
  477MOL0     C65706  11.209   9.374   3.442 -0.3852  0.3120  0.1999
  477MOL0     C65707  11.256   9.248   3.434 -0.5712 -0.4511  0.7677
  477MOL0     C65708  11.377   9.200   3.350  0.4372 -0.4986  0.4409
  477MOL0     C65709  11.512   9.224   3.426 -0.2690  0.1519  0.5176
  477MOL0     C65710  11.612   9.113   3.425 -0.3889  0.5595 -0.2604
  477MOL0     C65711  11.668   9.088   3.288 -0.3662  0.7773 -0.4500
  477MOL0     O65712  11.756   8.971   3.289  0.2960 -0.0731 -1.1254
  477MOL0     C65713  11.882   9.006   3.334 -0.1669 -0.7104  0.3346
  477MOL0     C65714  11.969   9.070   3.253 -0.4257 -0.4523  0.9588
  477MOL0     C65715  12.090   9.124   3.300  0.0385  0.0382 -1.0692
  477MOL0     C65716  12.168   9.202   3.198 -0.5126  0.5906 -0.3795
  477MOL0     C65717  12.131   9.104   3.430 -0.3344  0.6593 -0.7559
  477MOL0     C65718  12.270   9.142   3.486  0.2340  0.7760 -0.1788
  477MOL0     O65719  12.289   9.128   3.623 -0.0748 -0.2403 -0.1108
  477MOL0     C65720  12.415   9.132   3.676  0.1452  0.7123  0.1944
  477MOL0     C65721  12.523   9.052   3.625 -0.5986  0.3313  0.9197
  477MOL0     C65722  12.649   9.062   3.681 -0.5648  0.3843 -0.3310
  477MOL0     C65723  12.670   9.149   3.794 -0.1175  0.6006 -0.0908
  477MOL0     O65724  12.806   9.162   3.831 -0.0090 -0.2516 -0.7909
  477MOL0     C65725  12.841   9.226   3.960  0.0630  0.6107  0.0874
  477MOL0     C65726  12.969   9.171   4.033 -0.0277  0.7122 -0.8810
  477MOL0     C65727  12.980   9.209   4.185 -0.1372  0.3339  0.4888
  477MOL0     C65728  13.108   9.148   4.242 -0.1772  0.1590 -1.0968
  477MOL0     C65729  13.113   9.192   4.385 -0.7438 -0.0246  0.3975
  477MOL0     C65730  13.243   9.146   4.455  1.0694 -0.0308 -0.0908
  477MOL0     C65731  13.262   9.200   4.598  0.0231 -0.4565  0.5570
  477MOL0     C65732  13.264   9.355   4.608 -0.8417 -0.3319 -0.4271
  477MOL0    Cl65733  13.389   9.451   4.503  0.4324 -0.5031 -0.4845
  477MOL0     C65734  12.558   9.225   3.838  0.1711 -0.2398 -1.1155
  477MOL0     C65735  12.430   9.213   3.785 -0.2545  0.5668  0.0713
  477MOL0     O65736  12.360   9.147   3.405  0.4445  0.4144 -0.3993
  477MOL0     C65737  12.045   9.032   3.517 -0.9745 -0.5379 -0.9517
  477MOL0     C65738  11.928   8.982   3.470  0.7813 -0.0110 -0.5188
  477MOL0     N65739  11.189   9.157   3.512  0.4714  0.0076  1.3138
  477MOL0     N65740  11.092   9.221   3.566  0.9789  0.5274  0.3278
  477MOL0     C65741   9.893   9.859   3.238 -1.2036  1.0355  0.4259
  477MOL0     C65742   9.763   9.846   3.194 -0.3847 -0.2471 -0.1318
  477MOL0     C65743   9.331   9.714   3.234 -1.1298 -0.0160 -0.2249
  477MOL0     C65744   9.301   9.576   3.262 -0.2909 -1.0130 -0.0480
  477MOL0     C65745   9.182   9.516   3.219 -1.2781 -0.9836 -0.1771
  477MOL0     C65746   9.072   9.604   3.194  0.2879  0.2621  0.5528
  477MOL0     O65747   8.943   9.565   3.186  0.3227  0.2393 -0.2417
  477MOL0     C65748   8.914   9.433   3.250  0.3251  0.0468 -0.1880
  477MOL0     C65749   8.777   9.378   3.223 -0.4176 -0.2094 -0.2173
  477MOL0     C65750   8.666   9.480   3.231  0.0816  0.4419 -0.1092
  477MOL0     C65751   8.528   9.413   3.224  0.8373 -0.2466 -0.2833
  477MOL0     C65752   8.496   9.335   3.104  0.6678  0.0995 -0.6837
  477MOL0     C65753   8.444   9.284   3.006 -0.6291 -1.2288  0.2659
  477MOL0     C65754   9.097   9.735   3.176 -0.9609  0.0950  1.5064
  477MOL0     C65755   9.224   9.795   3.186 -0.0918 -0.2608  0.2884
  477MOL0     C65756   9.246   9.937   3.131  0.7289 -0.0474  1.2424
  477MOL0     H65757   9.730   9.531   3.332  1.7597  0.5876  1.8674
  477MOL0     H65758   9.945   9.554   3.363  0.3690  0.1009  0.2641
  477MOL0     H65759  10.177   9.589   3.264  3.9701  3.1223 -3.0336
  477MOL0     H65760  10.169   9.596   3.444 -0.4131  0.6448  0.8644
  477MOL0     H65761  10.354   9.768   3.260  2.2029  1.5135  0.0630
  477MOL0     H65762  10.344   9.748   3.446 -1.4356 -2.8361  2.3994
  477MOL0     H65763  10.373   9.506   3.404 -0.1489 -1.8325 -1.4285
  477MOL0     H65764  10.420   9.531   3.241  3.9287 -1.3794  1.0296
  477MOL0     H65765  10.613   9.661   3.309 -1.0301  0.4395 -0.0566
  477MOL0     H65766  10.560   9.655   3.483  1.2787 -2.2093  1.3446
  477MOL0     H65767  10.643   9.431   3.312 -0.2129  1.2953 -0.6982
  477MOL0     H65768  10.569   9.423   3.472 -1.3646  1.5852  0.1942
  477MOL0     H65769  10.820   9.594   3.420 -3.2163  0.8766 -0.7104
  477MOL0     H65770  10.752   9.564   3.570  4.0820  4.3007 -1.6406
  477MOL0     H65771  10.898   9.348   3.396  2.1958 -2.4316  0.6585
  477MOL0     H65772  10.817   9.313   3.546  0.5633 -0.3304 -0.2357
  477MOL0     H65773  11.033   9.534   3.524 -1.7530  0.8801  0.7848
  477MOL0     H65774  10.977   9.454   3.673 -0.6581 -2.4378  0.4284
  477MOL0     H65775  11.251   9.463   3.396 -2.0386  0.3176 -1.4631
  477MOL0     H65776  11.370   9.249   3.253 -1.2282  0.1456  0.8614
  477MOL0     H65777  11.373   9.091   3.336  0.1200 -0.7541  2.2717
  477MOL0     H65778  11.555   9.320   3.397  2.8798 -1.2585  0.1229
  477MOL0     H65779  11.485   9.236   3.532  0.3909 -0.9002  0.8205
  477MOL0     H65780  11.690   9.152   3.492  0.1491 -1.1892  0.1806
  477MOL0     H65781  11.561   9.021   3.456 -1.9699  0.4722 -2.8726
  477MOL0     H65782  11.578   9.059   3.233 -0.4263  1.5832 -0.7943
  477MOL0     H65783  11.722   9.170   3.241 -0.6281  1.0689 -0.2513
  477MOL0     H65784  11.936   9.084   3.151  0.5959 -0.1029  0.6656
  477MOL0     H65785  12.119   9.202   3.100 -0.3839  1.0323 -0.4468
  477MOL0     H65786  12.269   9.159   3.193 -0.6241  0.4180 -1.5201
  477MOL0     H65787  12.177   9.306   3.228  0.0567  0.9250 -1.6090
  477MOL0     H65788  12.508   9.001   3.531  0.9666 -3.0151  2.3508
  477MOL0     H65789  12.741   9.020   3.642 -0.5522 -1.1648  1.2553
  477MOL0     H65790  12.838   9.333   3.941  0.1050  1.0616  2.3856
  477MOL0     H65791  12.762   9.197   4.029  0.3909  1.4998  0.8511
  477MOL0     H65792  12.970   9.062   4.021  1.6966  0.7929 -1.9071
  477MOL0     H65793  13.052   9.215   3.975  2.2481 -1.5780  0.4430
  477MOL0     H65794  12.894   9.170   4.239 -1.0226  0.8972 -0.4681
  477MOL0     H65795  12.990   9.317   4.200  0.3130  0.4022 -0.2326
  477MOL0     H65796  13.192   9.189   4.185 -0.6636  0.5880 -1.5203
  477MOL0     H65797  13.115   9.040   4.230  0.6926  0.3051 -2.0858
  477MOL0     H65798  13.101   9.299   4.401  2.1275  0.5970 -0.9270
  477MOL0     H65799  13.041   9.144   4.451 -0.2382  1.3333  2.0161
  477MOL0     H65800  13.320   9.185   4.388 -1.3809  0.3139 -2.9331
  477MOL0     H65801  13.248   9.037   4.454 -1.9715 -0.2702 -2.0802
  477MOL0     H65802  13.354   9.157   4.639  0.5637  0.2517  0.1180
  477MOL0     H65803  13.178   9.161   4.657  0.4108 -1.6060  0.3655
  477MOL0     H65804  13.269   9.380   4.714 -0.7521 -0.1591 -0.4730
  477MOL0     H65805  13.162   9.379   4.574 -1.0650 -2.0137 -1.0383
  477MOL0     H65806  12.567   9.303   3.913  0.3407 -0.9296 -0.4132
  477MOL0     H65807  12.347   9.272   3.822  0.3386 -1.1899  5.0430
  477MOL0     H65808  12.070   9.010   3.621 -3.5797 -1.2586 -0.3815
  477MOL0     H65809  11.867   8.929   3.542 -2.1176  0.9595 -2.1010
  477MOL0     H65810   9.934   9.958   3.221  0.6741  0.2612  0.1460
  477MOL0     H65811   9.709   9.931   3.153  1.0946  2.0441  2.3202
  477MOL0     H65812   9.386   9.521   3.299 -0.1076  1.1837  3.2722
  477MOL0     H65813   9.172   9.408   3.223  1.1730 -1.3670 -2.3586
  477MOL0     H65814   8.983   9.354   3.218 -1.9351 -2.3862  0.4956
  477MOL0     H65815   8.932   9.435   3.358 -1.1413 -1.0397  0.1174
  477MOL0     H65816   8.766   9.303   3.302  0.4654  0.6402  0.7372
  477MOL0     H65817   8.773   9.331   3.125 -0.2092 -1.7397  0.4862
  477MOL0     H65818   8.689   9.543   3.318 -0.3125 -0.4246  0.6423
  477MOL0     H65819   8.668   9.542   3.141 -0.6831  0.5032 -0.0873
  477MOL0     H65820   8.454   9.492   3.221  1.9607  0.8020 -1.3397
  477MOL0     H65821   8.513   9.353   3.315 -2.1698  1.7129  0.6603
  477MOL0     H65822   8.414   9.245   2.911 -2.8473  1.5091 -0.3028
  477MOL0     H65823   9.012   9.792   3.140 -1.3601 -2.0992 -1.4336
  477MOL0     H65824   9.318   9.932   3.049 -0.1234  2.0256  0.2839
  477MOL0     H65825   9.160   9.978   3.077  0.5747  0.5829  1.9468
  477MOL0     H65826   9.278  10.001   3.213  2.3007 -1.7573  2.0255
  478MOL0     O65827   8.068   4.330   4.149 -0.0391 -0.1425 -0.5151
  478MOL0     C65828   8.012   4.249   4.220  0.5255 -0.3202  0.7632
  478MOL0     O65829   8.073   4.176   4.318 -0.1529 -0.0559 -0.5202
  478MOL0     C65830   8.211   4.165   4.342 -1.0171  0.4025  0.0831
  478MOL0     C65831   8.266   4.082   4.436 -0.6585  0.8050 -0.5798
  478MOL0     C65832   8.404   4.080   4.465 -0.0078  0.3128  0.3090
  478MOL0     C65833   8.492   4.161   4.396 -0.8835 -0.8391  0.0189
  478MOL0     O65834   8.630   4.177   4.425  0.3613  0.6978 -0.4959
  478MOL0     C65835   8.643   4.253   4.545 -0.4122 -0.1011 -0.0974
  478MOL0     C65836   8.790   4.225   4.582  0.1427  0.3299 -0.4545
  478MOL0     C65837   8.831   4.273   4.722 -0.2004 -0.4173  0.4495
  478MOL0     C65838   8.809   4.179   4.837  0.3124 -0.3887 -0.8739
  478MOL0     C65839   8.846   4.231   4.972 -0.0583 -0.7899  0.4035
  478MOL0     C65840   8.993   4.277   4.982 -0.4500 -0.2057  0.2773
  478MOL0     C65841   9.025   4.302   5.130  0.7680  1.3523 -0.7164
  478MOL0     C65842   9.162   4.374   5.157 -0.4610 -0.1493  0.1911
  478MOL0     N65843   9.266   4.270   5.149  1.4279 -0.4128  0.7583
  478MOL0     C65844   9.313   4.189   5.246 -0.4481  0.7573  0.4386
  478MOL0     C65845   9.430   4.142   5.206 -0.2891  0.1433 -0.2952
  478MOL0     C65846   9.528   4.046   5.286 -0.0144 -0.1347  0.3110
  478MOL0     C65847   9.639   4.112   5.358  0.0473  0.7327  0.3078
  478MOL0     C65848   9.712   4.212   5.274  0.4983 -0.5091  0.3721
  478MOL0     C65849   9.829   4.283   5.338  0.4870  0.3076  0.3441
  478MOL0     O65850   9.944   4.199   5.334 -0.1453 -0.2170  0.3208
  478MOL0     C65851  10.046   4.243   5.415 -0.7606  0.2672 -0.6144
  478MOL0     C65852  10.072   4.377   5.453  0.1983  0.1187 -0.0982
  478MOL0     C65853  10.180   4.415   5.532 -0.5518  0.5007 -0.1526
  478MOL0     C65854  10.202   4.563   5.571 -0.4504  0.0929  0.0126
  478MOL0     C65855  10.263   4.312   5.583 -0.2698 -0.6603  0.4869
  478MOL0     C65856  10.375   4.345   5.663  0.2508 -0.4749 -1.1682
  478MOL0     O65857  10.345   4.425   5.767 -0.0733  0.7169  0.0027
  478MOL0     C65858  10.455   4.466   5.835  0.3075 -0.1119 -0.4308
  478MOL0     C65859  10.471   4.429   5.976  0.3480 -0.1382  0.0548
  478MOL0     C65860  10.583   4.468   6.046  0.1517 -0.7167 -0.0149
  478MOL0     C65861  10.679   4.552   5.987 -0.4643  0.5677 -0.1086
  478MOL0     O65862  10.800   4.547   6.052 -0.2988  0.1610  0.4522
  478MOL0     C65863  10.915   4.611   5.994  0.6892 -0.1735  0.4841
  478MOL0     C65864  10.917   4.756   6.035  0.1900 -1.1004 -0.0682
  478MOL0     C65865  10.969   4.858   5.930 -0.0102  0.5780  0.0923
  478MOL0     C65866  11.092   4.801   5.855 -0.3634 -0.0566 -1.1116
  478MOL0     C65867  11.152   4.921   5.795 -0.2847 -0.4917 -0.8837
  478MOL0     C65868  11.267   4.882   5.696  0.0815 -0.2294 -0.4980
  478MOL0     C65869  11.349   5.006   5.653 -0.6362 -1.1287 -0.0285
  478MOL0     C65870  11.448   4.975   5.539 -0.9222  0.6740 -0.5582
  478MOL0    Cl65871  11.587   4.861   5.604 -0.3976  0.1044 -0.1937
  478MOL0     C65872  10.656   4.596   5.861  0.4733  0.9910  0.3168
  478MOL0     C65873  10.541   4.565   5.775 -0.0061 -0.2295 -0.7293
  478MOL0     O65874  10.485   4.295   5.642 -0.1045  0.0912 -0.1033
  478MOL0     C65875  10.242   4.178   5.544 -0.8395 -1.0737 -0.5574
  478MOL0     C65876  10.139   4.148   5.456  0.6766 -0.1653 -0.5012
  478MOL0     N65877   9.448   4.178   5.078  0.0833 -0.4870  0.4566
  478MOL0     N65878   9.359   4.266   5.050  0.6739  0.3436  0.5751
  478MOL0     C65879   8.440   4.258   4.316  0.0624  0.3917 -0.1612
  478MOL0     C65880   8.304   4.263   4.292  0.0047  0.6838  0.0716
  478MOL0     C65881   7.863   4.224   4.209 -0.0053 -0.1392 -0.2447
  478MOL0     C65882   7.799   4.156   4.317  0.2289  0.3839  0.9235
  478MOL0     C65883   7.667   4.125   4.323  0.4359  0.2791  0.3848
  478MOL0     C65884   7.586   4.168   4.208 -0.7913 -0.1760 -0.1013
  478MOL0     O65885   7.451   4.145   4.186  0.2200  0.2200  0.6146
  478MOL0     C65886   7.372   4.119   4.302  0.1458  0.0065 -0.5802
  478MOL0     C65887   7.219   4.138   4.269  0.6113  1.2403 -0.6172
  478MOL0     C65888   7.198   4.271   4.200  0.7134  0.0956  0.0071
  478MOL0     C65889   7.051   4.316   4.193 -0.2820  0.1395 -0.0292
  478MOL0     C65890   7.042   4.435   4.116 -0.0358 -1.1439  1.2268
  478MOL0     C65891   7.031   4.528   4.036  0.1438 -0.3995 -0.5060
  478MOL0     C65892   7.651   4.224   4.096  0.5267 -0.4618  0.3315
  478MOL0     C65893   7.785   4.265   4.094  0.5368 -0.3457 -0.3471
  478MOL0     C65894   7.836   4.326   3.967  0.0146  0.1066 -0.2521
  478MOL0     H65895   8.201   4.014   4.490  0.8244  1.0536  1.6343
  478MOL0     H65896   8.462   4.014   4.529  0.9628 -0.1664 -1.0095
  478MOL0     H65897   8.574   4.216   4.621  0.3900  0.7654  1.0973
  478MOL0     H65898   8.628   4.359   4.523 -1.5850 -0.4491 -1.0576
  478MOL0     H65899   8.815   4.119   4.583  0.0538  0.3089 -0.2426
  478MOL0     H65900   8.857   4.278   4.513 -1.0145  1.4934 -0.7196
  478MOL0     H65901   8.937   4.299   4.717 -0.8947  2.8903  0.7547
  478MOL0     H65902   8.780   4.368   4.736 -0.4258 -0.5361  0.4396
  478MOL0     H65903   8.701   4.161   4.834 -0.5801  4.0752 -2.2499
  478MOL0     H65904   8.873   4.090   4.830  0.7973 -0.6400  3.7740
  478MOL0     H65905   8.830   4.149   5.043 -2.9918 -0.6016  0.0812
  478MOL0     H65906   8.777   4.315   4.983  0.1218 -0.3845 -1.2491
  478MOL0     H65907   9.058   4.197   4.944 -0.1222 -0.3898  1.1957
  478MOL0     H65908   9.025   4.358   4.916 -0.8046 -1.0013 -0.9107
  478MOL0     H65909   9.014   4.213   5.192 -1.3573  1.3990 -0.9452
  478MOL0     H65910   8.957   4.381   5.164 -1.2049 -1.0190  1.2139
  478MOL0     H65911   9.186   4.448   5.079  0.3669  0.2425  0.8126
  478MOL0     H65912   9.166   4.424   5.254  1.2452  1.0002 -0.4315
  478MOL0     H65913   9.256   4.158   5.333 -1.8609 -1.2226 -1.0772
  478MOL0     H65914   9.569   3.982   5.207 -0.0967  0.8310 -0.5378
  478MOL0     H65915   9.465   3.981   5.347 -1.1182 -0.0267 -0.6661
  478MOL0     H65916   9.591   4.163   5.441  1.2207 -0.1706  1.5739
  478MOL0     H65917   9.703   4.031   5.395  0.3581 -1.2631 -3.9412
  478MOL0     H65918   9.735   4.153   5.185 -2.2037  1.6057 -1.9301
  478MOL0     H65919   9.642   4.285   5.233 -0.0944 -0.9746  0.5398
  478MOL0     H65920   9.850   4.374   5.283  1.0618  0.4599  0.8006
  478MOL0     H65921   9.824   4.310   5.444 -0.5212  0.3746  0.2881
  478MOL0     H65922  10.003   4.458   5.434  1.0394  0.6044 -1.1476
  478MOL0     H65923  10.309   4.586   5.581  1.0137 -3.4827 -4.2446
  478MOL0     H65924  10.155   4.591   5.666  0.2359 -0.1741  0.4376
  478MOL0     H65925  10.160   4.629   5.494  0.7498 -0.2717 -0.9835
  478MOL0     H65926  10.403   4.357   6.020  0.4106  1.0560  2.2522
  478MOL0     H65927  10.601   4.425   6.144 -1.7528  2.4204  1.8865
  478MOL0     H65928  11.006   4.562   6.029  1.2768  1.1923  0.9370
  478MOL0     H65929  10.933   4.599   5.887  1.2258 -1.8542  0.7410
  478MOL0     H65930  10.823   4.780   6.085 -0.1996 -0.6198 -1.0184
  478MOL0     H65931  10.977   4.766   6.126 -0.7879 -0.5409  0.5342
  478MOL0     H65932  10.981   4.951   5.986 -2.0575 -0.5827  2.6339
  478MOL0     H65933  10.886   4.870   5.860 -2.6767  1.4099  3.2056
  478MOL0     H65934  11.059   4.734   5.775 -1.0174  0.0465 -0.9325
  478MOL0     H65935  11.168   4.751   5.916  2.2315  2.5184 -1.9893
  478MOL0     H65936  11.076   4.977   5.741 -2.4426 -0.5638  1.8826
  478MOL0     H65937  11.207   4.972   5.874 -1.3885 -1.4855  0.5826
  478MOL0     H65938  11.228   4.820   5.615 -0.8097 -2.6621  1.6502
  478MOL0     H65939  11.345   4.820   5.740  1.7913 -0.2922 -3.3502
  478MOL0     H65940  11.399   5.043   5.744  0.6207 -7.1251  2.1555
  478MOL0     H65941  11.291   5.088   5.609  0.6662 -0.0811  0.1402
  478MOL0     H65942  11.489   5.067   5.497  2.1403  0.0816  0.8056
  478MOL0     H65943  11.404   4.930   5.450  0.7840 -0.6218 -0.8261
  478MOL0     H65944  10.734   4.645   5.804 -0.4344  1.5732 -0.4393
  478MOL0     H65945  10.518   4.597   5.673 -1.8274  2.5848  0.4235
  478MOL0     H65946  10.313   4.099   5.564 -1.1503 -1.1774  0.1464
  478MOL0     H65947  10.115   4.049   5.418  3.3221 -1.6697  1.4527
  478MOL0     H65948   8.506   4.333   4.275  1.1603  0.2062  1.1950
  478MOL0     H65949   8.281   4.339   4.218 -4.8489 -2.4154 -2.1445
  478MOL0     H65950   7.857   4.137   4.407 -0.7072 -0.5554  1.3395
  478MOL0     H65951   7.624   4.074   4.409  1.4334  0.2085  0.8597
  478MOL0     H65952   7.397   4.024   4.351 -0.7016  0.0982  0.0512
  478MOL0     H65953   7.398   4.202   4.369 -1.9493  0.3116 -0.0813
  478MOL0     H65954   7.164   4.139   4.364  0.2291  2.5763 -0.8317
  478MOL0     H65955   7.182   4.059   4.203  0.2226  2.2373 -1.6278
  478MOL0     H65956   7.253   4.351   4.250  0.8739  0.7730 -1.2203
  478MOL0     H65957   7.247   4.257   4.104 -0.1068 -2.3672 -0.1363
  478MOL0     H65958   7.020   4.347   4.293  2.5116 -2.8095  1.9615
  478MOL0     H65959   6.985   4.241   4.149 -0.8180 -2.1664  4.1799
  478MOL0     H65960   7.026   4.617   3.977 -2.9271 -1.2836 -1.8262
  478MOL0     H65961   7.589   4.239   4.008 -1.1798 -0.6218  1.4547
  478MOL0     H65962   7.914   4.270   3.916  0.9628 -1.1280  2.3511
  478MOL0     H65963   7.754   4.330   3.895 -1.7477 -1.1090  1.5600
  478MOL0     H65964   7.871   4.425   3.995 -1.2113  1.0028 -1.7519
  479MOL0     O65965   0.041   6.836   5.242  0.3505 -0.1556 -0.8349
  479MOL0     C65966   0.130   6.915   5.238  0.6209 -0.6309 -0.3261
  479MOL0     O65967   0.166   6.982   5.122 -0.9643  0.4509 -0.5057
  479MOL0     C65968   0.078   7.004   5.027  1.0916 -0.0861  0.7651
  479MOL0     C65969  -0.049   7.062   5.043  0.5452 -0.0170  0.0193
  479MOL0     C65970  -0.124   7.113   4.930 -0.4364  0.9902 -0.7841
  479MOL0     C65971  -0.070   7.099   4.800  0.2590  0.9717 -0.0627
  479MOL0     O65972  -0.146   7.146   4.703  0.5031 -0.2786  0.6718
  479MOL0     C65973  -0.130   7.083   4.576 -0.8260  0.1554  0.1468
  479MOL0     C65974  -0.241   7.096   4.478 -0.3422 -0.4207 -0.7789
  479MOL0     C65975  -0.210   7.007   4.358 -1.0207  0.0813  0.0855
  479MOL0     C65976  -0.301   7.043   4.244 -0.3982  0.1438 -0.0038
  479MOL0     C65977  -0.251   6.961   4.118  0.6451 -0.1319  0.2592
  479MOL0     C65978  -0.315   7.009   3.986  0.5243 -0.3379 -0.0642
  479MOL0     C65979  -0.467   7.006   4.003  0.9810 -0.0814 -0.9139
  479MOL0     C65980  -0.537   7.020   3.868 -0.7350 -0.5799  0.3068
  479MOL0     N65981  -0.679   7.005   3.874 -0.1607  0.1399 -0.3423
  479MOL0     C65982  -0.767   7.089   3.941 -0.8159 -0.1489  0.3057
  479MOL0     C65983  -0.889   7.044   3.912 -0.8594 -0.2518 -0.8609
  479MOL0     C65984  -1.020   7.105   3.961 -0.3367  0.3877 -0.8977
  479MOL0     C65985  -0.997   7.263   3.986  0.3871  0.8581 -0.2759
  479MOL0     C65986  -1.110   7.336   4.052 -0.7243 -0.1386  0.2116
  479MOL0     C65987  -1.076   7.478   4.113 -0.3579  0.8269  0.3410
  479MOL0     O65988  -0.940   7.486   4.170  0.0377  0.3422 -0.8339
  479MOL0     C65989  -0.906   7.389   4.266  0.9020 -0.0145 -0.7399
  479MOL0     C65990  -0.993   7.320   4.355  0.3833  0.0988  0.3801
  479MOL0     C65991  -0.950   7.214   4.439  0.8013  0.2190  0.3798
  479MOL0     C65992  -1.054   7.155   4.533 -0.1143 -0.2107 -0.7128
  479MOL0     C65993  -0.816   7.168   4.432 -0.4237  0.1834 -0.0107
  479MOL0     C65994  -0.754   7.055   4.515 -0.3570 -0.2174 -0.0343
  479MOL0     O65995  -0.622   7.024   4.491 -0.5344  0.0372 -0.3328
  479MOL0     C65996  -0.566   6.932   4.583 -0.9725 -0.0330 -0.0237
  479MOL0     C65997  -0.547   6.970   4.721 -0.2460  0.1630  0.9645
  479MOL0     C65998  -0.478   6.886   4.809 -0.0165  0.8317  0.6284
  479MOL0     C65999  -0.420   6.766   4.766  0.1180 -0.5360  0.5601
  479MOL0     O66000  -0.333   6.694   4.836  0.3849  0.6575 -0.1965
  479MOL0     C66001  -0.240   6.771   4.910 -0.0348 -0.1889 -0.3317
  479MOL0     C66002  -0.135   6.684   4.952 -0.2225  0.4096 -0.5652
  479MOL0     C66003  -0.061   6.621   4.835  0.1258  0.3968  0.2568
  479MOL0     C66004   0.077   6.574   4.886  0.5605 -0.2321 -0.0962
  479MOL0     C66005   0.069   6.462   4.983  0.5715  0.1539 -1.0017
  479MOL0     C66006   0.171   6.473   5.094 -0.2439  0.4031 -0.0009
  479MOL0     C66007   0.310   6.494   5.036  0.3960  0.2262  0.2586
  479MOL0     C66008   0.417   6.451   5.140  0.2677 -0.1805  0.3303
  479MOL0    Cl66009   0.400   6.548   5.292  0.0719 -0.1918  0.2631
  479MOL0     C66010  -0.443   6.725   4.627 -0.2405  0.5151 -0.0796
  479MOL0     C66011  -0.504   6.814   4.537 -0.6179  0.6739  1.0418
  479MOL0     O66012  -0.819   7.021   4.610 -0.4653 -0.1106  0.1960
  479MOL0     C66013  -0.729   7.234   4.342 -0.3480 -0.3560  0.6614
  479MOL0     C66014  -0.775   7.353   4.268 -0.6810  0.5641  0.1459
  479MOL0     N66015  -0.869   6.939   3.832  0.6025  0.3042 -0.1260
  479MOL0     N66016  -0.749   6.912   3.810 -0.3216  0.0385 -1.0903
  479MOL0     C66017   0.053   7.030   4.788  0.2593  0.4124  0.0355
  479MOL0     C66018   0.131   6.987   4.899  0.6106 -0.1285  0.1216
  479MOL0     C66019   0.217   6.923   5.351 -0.6292 -0.1211  0.2583
  479MOL0     C66020   0.347   6.890   5.319 -0.2912 -0.1512  0.2695
  479MOL0     C66021   0.445   6.871   5.419  0.2451  1.0693  0.8092
  479MOL0     C66022   0.417   6.905   5.550  0.2814  0.0299 -0.5464
  479MOL0     O66023   0.518   6.891   5.643 -0.4444  0.9358 -0.8136
  479MOL0     C66024   0.573   7.021   5.686  0.3299 -0.2492  0.2529
  479MOL0     C66025   0.657   7.091   5.573 -0.3099 -0.7550 -0.0222
  479MOL0     C66026   0.767   7.005   5.507  0.5382 -0.1413  0.2357
  479MOL0     C66027   0.854   6.961   5.620 -1.0076  0.6637  0.3509
  479MOL0     C66028   0.967   6.869   5.591 -0.2337 -1.1200  0.1935
  479MOL0     C66029   1.058   6.798   5.568  0.6917  0.7385 -0.5203
  479MOL0     C66030   0.283   6.946   5.582 -0.2155 -0.8518 -0.0177
  479MOL0     C66031   0.183   6.940   5.485  0.7263 -0.2608  0.1182
  479MOL0     C66032   0.043   6.961   5.537  0.8991 -0.6062  0.0515
  479MOL0     H66033  -0.082   7.072   5.146 -0.9112  3.4807 -0.6512
  479MOL0     H66034  -0.216   7.171   4.934 -1.4621 -0.5976 -0.4707
  479MOL0     H66035  -0.125   6.977   4.604 -2.5253  0.0873  0.2634
  479MOL0     H66036  -0.035   7.114   4.532 -1.0584 -0.0563 -0.5056
  479MOL0     H66037  -0.338   7.072   4.521 -1.1023  0.5564 -1.8645
  479MOL0     H66038  -0.252   7.200   4.446 -0.2534  0.2152  1.1302
  479MOL0     H66039  -0.106   7.018   4.327 -1.2258  0.2285 -0.5740
  479MOL0     H66040  -0.215   6.901   4.381  2.9420 -0.1942  0.3754
  479MOL0     H66041  -0.400   7.009   4.275 -0.9816  1.3841 -0.4253
  479MOL0     H66042  -0.301   7.151   4.226  1.0350  0.5261  1.9340
  479MOL0     H66043  -0.265   6.853   4.128 -2.2512  0.2786  2.2094
  479MOL0     H66044  -0.145   6.985   4.107 -0.0540  4.5577  1.5844
  479MOL0     H66045  -0.279   7.111   3.969  1.4592 -0.5229  0.6592
  479MOL0     H66046  -0.282   6.946   3.903 -1.4038 -2.6911  0.8442
  479MOL0     H66047  -0.502   7.091   4.062 -2.0682 -0.7069 -1.6316
  479MOL0     H66048  -0.492   6.907   4.041 -0.3413  0.2038 -0.9958
  479MOL0     H66049  -0.512   7.116   3.820  0.7897 -1.7859 -1.4416
  479MOL0     H66050  -0.499   6.942   3.801  3.8870  1.0416  0.6906
  479MOL0     H66051  -0.732   7.170   4.003 -0.7537 -0.0272  0.1100
  479MOL0     H66052  -1.058   7.062   4.055 -2.9514  0.9165 -1.6352
  479MOL0     H66053  -1.099   7.093   3.886 -3.0403 -0.0803  1.8118
  479MOL0     H66054  -0.905   7.286   4.041 -0.1538  2.6801 -0.0853
  479MOL0     H66055  -0.970   7.308   3.890 -0.0001  0.5097 -0.5479
  479MOL0     H66056  -1.188   7.341   3.975  0.2314 -0.3685 -0.7974
  479MOL0     H66057  -1.147   7.271   4.131  1.1787  1.2983  2.4196
  479MOL0     H66058  -1.065   7.552   4.034 -1.9003 -0.8426 -1.5759
  479MOL0     H66059  -1.162   7.505   4.175 -0.8529 -0.2612  0.1535
  479MOL0     H66060  -1.096   7.352   4.366 -0.5066 -3.0150  2.5939
  479MOL0     H66061  -1.013   7.178   4.632  1.7665  2.0431 -1.9242
  479MOL0     H66062  -1.070   7.047   4.533 -1.0387 -0.1025  0.5609
  479MOL0     H66063  -1.153   7.198   4.513  0.1751  0.9033  0.1169
  479MOL0     H66064  -0.595   7.057   4.766 -1.2555  0.2594 -0.2509
  479MOL0     H66065  -0.471   6.924   4.911  0.1220 -0.4848  1.1232
  479MOL0     H66066  -0.199   6.855   4.853  1.1700 -0.0988  0.6204
  479MOL0     H66067  -0.290   6.803   5.002 -0.7180 -3.0916  0.4104
  479MOL0     H66068  -0.063   6.748   5.004  2.3495 -3.4676  1.1834
  479MOL0     H66069  -0.175   6.601   5.012 -0.4622 -0.3028 -1.6704
  479MOL0     H66070  -0.058   6.688   4.748 -1.3545  1.2665  0.8510
  479MOL0     H66071  -0.109   6.529   4.801  2.7110 -1.7754  2.0267
  479MOL0     H66072   0.128   6.663   4.924 -0.0047  0.3058 -0.5902
  479MOL0     H66073   0.124   6.540   4.793 -2.5739 -0.8035 -1.5904
  479MOL0     H66074  -0.029   6.460   5.031  1.4729  0.1206  0.9091
  479MOL0     H66075   0.069   6.363   4.935  0.8819 -0.2048 -0.2747
  479MOL0     H66076   0.165   6.388   5.164  2.4026  1.0731  1.1384
  479MOL0     H66077   0.141   6.554   5.162 -1.4024  1.1315 -1.3212
  479MOL0     H66078   0.328   6.598   5.006  0.9489  0.3524  1.0193
  479MOL0     H66079   0.331   6.430   4.950  0.8104  0.7806 -0.0563
  479MOL0     H66080   0.523   6.463   5.116  1.2700 -1.9423  3.4054
  479MOL0     H66081   0.396   6.345   5.155  0.9693 -0.2982  0.5145
  479MOL0     H66082  -0.386   6.635   4.604 -1.2215 -0.6329  1.7581
  479MOL0     H66083  -0.505   6.773   4.437 -1.2544 -1.3901  1.8350
  479MOL0     H66084  -0.626   7.202   4.337  0.1257  0.7896  2.1847
  479MOL0     H66085  -0.703   7.392   4.196  0.7026 -4.0357 -1.3280
  479MOL0     H66086   0.096   7.008   4.691 -1.6857 -0.0973 -0.7532
  479MOL0     H66087   0.224   6.931   4.891  0.0887 -1.1769  1.0647
  479MOL0     H66088   0.372   6.866   5.216  0.4626 -0.2906  0.4775
  479MOL0     H66089   0.542   6.827   5.395 -0.7807  0.0820 -1.9077
  479MOL0     H66090   0.489   7.083   5.718  0.2472 -0.5726  0.6787
  479MOL0     H66091   0.639   6.999   5.771 -1.9944 -0.7052  2.0337
  479MOL0     H66092   0.707   7.171   5.629 -0.9660 -3.1212  4.4103
  479MOL0     H66093   0.591   7.127   5.493  3.0647  3.8370 -1.2336
  479MOL0     H66094   0.720   6.922   5.455 -1.8986  1.6320 -0.5643
  479MOL0     H66095   0.831   7.071   5.447  0.2006  1.8630  1.9442
  479MOL0     H66096   0.796   6.893   5.683 -4.1559  2.0259 -0.8904
  479MOL0     H66097   0.892   7.046   5.678  2.0360  1.1648 -2.1154
  479MOL0     H66098   1.139   6.732   5.546 -1.5420 -2.7026  0.8521
  479MOL0     H66099   0.257   6.965   5.685 -0.0625 -3.1174  0.5010
  479MOL0     H66100  -0.016   6.873   5.562  0.1890  0.1673  1.1757
  479MOL0     H66101   0.053   7.032   5.620 -1.8966 -1.0502  0.8609
  479MOL0     H66102  -0.016   7.006   5.456  1.4643 -2.5157 -1.5092
  480MOL0     O66103   1.479   5.780   4.157 -0.3218 -0.0682 -0.1658
  480MOL0     C66104   1.418   5.731   4.255  0.0572  0.2054  0.4918
  480MOL0     O66105   1.462   5.629   4.325 -0.5536  0.1564 -0.4715
  480MOL0     C66106   1.583   5.573   4.291  0.5346 -0.3229  0.5824
  480MOL0     C66107   1.700   5.628   4.351  0.5851  0.2541  0.6402
  480MOL0     C66108   1.828   5.571   4.329 -0.2184 -0.4924  0.2689
  480MOL0     C66109   1.837   5.452   4.260 -0.3072  0.1602  0.8819
  480MOL0     O66110   1.962   5.411   4.231 -0.4278 -0.2185 -0.1021
  480MOL0     C66111   1.983   5.313   4.134 -0.1674  0.2638 -0.1900
  480MOL0     C66112   2.140   5.286   4.120 -0.3484 -0.0400  0.3683
  480MOL0     C66113   2.199   5.367   4.003 -0.1518 -0.5704  0.2873
  480MOL0     C66114   2.345   5.319   3.973  0.7705 -0.0401  0.0973
  480MOL0     C66115   2.422   5.415   3.880 -0.0540  0.3573 -0.0227
  480MOL0     C66116   2.563   5.375   3.866 -0.7519  0.7137 -0.0882
  480MOL0     C66117   2.650   5.483   3.811  0.5153 -0.8825 -0.2570
  480MOL0     C66118   2.775   5.420   3.749  0.3773  0.2500  0.2203
  480MOL0     N66119   2.879   5.380   3.843 -1.1540  0.0875 -0.0863
  480MOL0     C66120   2.999   5.447   3.856  0.2376  0.7561  0.0563
  480MOL0     C66121   3.082   5.369   3.931  0.7791  0.0755 -0.1709
  480MOL0     C66122   3.228   5.400   3.958  0.1495 -0.6603  0.5372
  480MOL0     C66123   3.315   5.297   3.901 -0.5456  0.7890  0.7054
  480MOL0     C66124   3.298   5.307   3.745  0.1920  0.3356 -0.9830
  480MOL0     C66125   3.401   5.228   3.673  0.1000  0.7227  0.3297
  480MOL0     O66126   3.536   5.254   3.727  0.3745  0.2551  0.2762
  480MOL0     C66127   3.634   5.161   3.708 -0.0680 -0.3731 -0.3052
  480MOL0     C66128   3.647   5.061   3.616  0.4114  1.2097 -0.9647
  480MOL0     C66129   3.724   4.940   3.623 -0.0398 -0.1314 -0.7836
  480MOL0     C66130   3.690   4.826   3.528 -0.8675 -0.3278 -0.7560
  480MOL0     C66131   3.823   4.944   3.725  0.0858  0.2329  0.2560
  480MOL0     C66132   3.913   4.833   3.758  0.4432  0.6640 -0.3018
  480MOL0     O66133   4.000   4.848   3.861  0.4116  0.9922 -0.1504
  480MOL0     C66134   4.063   4.741   3.905  0.2251 -0.5705  0.0734
  480MOL0     C66135   4.147   4.665   3.825  0.0155 -0.2059  0.0569
  480MOL0     C66136   4.207   4.545   3.879  0.1406 -0.6502  0.0895
  480MOL0     C66137   4.192   4.511   4.014 -0.2211  1.0204  0.1699
  480MOL0     O66138   4.244   4.389   4.055 -0.7939 -0.8311  0.1667
  480MOL0     C66139   4.266   4.355   4.189 -0.4173  0.7383 -0.2676
  480MOL0     C66140   4.370   4.246   4.200  0.0901  0.0177  0.5309
  480MOL0     C66141   4.506   4.287   4.138  0.5346 -0.3395 -0.5856
  480MOL0     C66142   4.608   4.187   4.190 -0.1819  0.0394  0.1847
  480MOL0     C66143   4.747   4.196   4.116 -0.2309  0.6229 -0.0552
  480MOL0     C66144   4.797   4.065   4.049 -0.9507 -0.9653 -0.0988
  480MOL0     C66145   4.846   3.970   4.161 -0.1233 -0.5246 -0.3144
  480MOL0     C66146   4.876   3.834   4.101 -0.6735  0.3951 -0.0440
  480MOL0    Cl66147   5.014   3.820   3.989 -0.1834  0.0506  0.0898
  480MOL0     C66148   4.114   4.597   4.095  0.3425 -0.1818  0.6873
  480MOL0     C66149   4.057   4.720   4.043  0.1781 -0.3706  0.7699
  480MOL0     O66150   3.889   4.731   3.696  0.0721 -0.7131 -0.3115
  480MOL0     C66151   3.838   5.063   3.807  0.1150  0.4960  0.3722
  480MOL0     C66152   3.735   5.165   3.804  0.5071 -0.0518  0.6161
  480MOL0     N66153   3.013   5.254   3.963 -0.3542 -0.2846  0.4570
  480MOL0     N66154   2.902   5.259   3.904  0.4619  0.9005  0.0862
  480MOL0     C66155   1.724   5.395   4.201  0.2818 -0.2732  0.4618
  480MOL0     C66156   1.594   5.461   4.202 -0.7024 -0.2729  0.0583
  480MOL0     C66157   1.276   5.782   4.284 -0.0039  0.4896 -0.1532
  480MOL0     C66158   1.230   5.770   4.417 -0.0694 -0.1290  0.3698
  480MOL0     C66159   1.105   5.818   4.458  0.5738 -0.0304  0.9238
  480MOL0     C66160   1.020   5.888   4.365  0.0011 -0.5472 -0.3817
  480MOL0     O66161   0.893   5.941   4.395 -0.9249 -0.0240 -0.1162
  480MOL0     C66162   0.847   5.948   4.529 -0.4776  0.3009 -0.5750
  480MOL0     C66163   0.722   6.037   4.533 -0.2848 -0.0863  1.0560
  480MOL0     C66164   0.644   6.025   4.663 -0.2375  0.0429 -0.2924
  480MOL0     C66165   0.642   6.163   4.741 -0.0876 -0.1680 -0.5777
  480MOL0     C66166   0.615   6.145   4.889 -0.5880  0.5802  0.0530
  480MOL0     C66167   0.595   6.128   5.002 -0.7398 -1.1781 -0.1944
  480MOL0     C66168   1.063   5.898   4.236 -0.1620 -0.7676 -0.0066
  480MOL0     C66169   1.193   5.847   4.194 -0.3617 -0.1630  0.1508
  480MOL0     C66170   1.221   5.852   4.044  0.2483 -0.5190 -0.0105
  480MOL0     H66171   1.689   5.711   4.420  3.7749  0.5031  0.9738
  480MOL0     H66172   1.905   5.613   4.392 -1.7176 -1.2333  2.7438
  480MOL0     H66173   1.950   5.349   4.036  0.8434 -0.4238 -0.8053
  480MOL0     H66174   1.932   5.223   4.169 -0.2147 -0.0131 -0.9583
  480MOL0     H66175   2.187   5.319   4.213  0.3937 -0.9173  0.3235
  480MOL0     H66176   2.167   5.181   4.103  3.6812  0.6985  1.0086
  480MOL0     H66177   2.138   5.346   3.914  1.0209 -0.3707 -0.5901
  480MOL0     H66178   2.191   5.475   4.020 -1.4252 -0.6489  0.2896
  480MOL0     H66179   2.399   5.295   4.065  0.7080 -0.4952  0.0165
  480MOL0     H66180   2.330   5.226   3.918  0.0388  0.4166 -0.4922
  480MOL0     H66181   2.424   5.516   3.921  0.1853  0.5499 -0.5005
  480MOL0     H66182   2.378   5.422   3.780 -1.3094 -0.2694  0.4699
  480MOL0     H66183   2.611   5.340   3.957  2.2068 -2.5957 -2.6421
  480MOL0     H66184   2.552   5.294   3.793 -3.1199  0.2356  0.6987
  480MOL0     H66185   2.680   5.549   3.893 -1.7850  1.8022 -1.3832
  480MOL0     H66186   2.605   5.547   3.734  0.7505 -0.1725  0.1886
  480MOL0     H66187   2.737   5.331   3.700  1.7637 -0.5780  0.6028
  480MOL0     H66188   2.821   5.487   3.675  1.4797  0.2037  0.8305
  480MOL0     H66189   3.011   5.551   3.829  0.5390  0.8685  0.6116
  480MOL0     H66190   3.240   5.385   4.066 -1.6782 -1.0371  0.7257
  480MOL0     H66191   3.248   5.502   3.922  1.3841 -1.2315 -0.4884
  480MOL0     H66192   3.416   5.323   3.933 -0.9418  1.6059  1.3432
  480MOL0     H66193   3.288   5.195   3.930 -1.0277  0.4795 -0.7493
  480MOL0     H66194   3.199   5.271   3.718 -0.6016  0.5902  1.3222
  480MOL0     H66195   3.314   5.410   3.710 -3.8206  0.8022 -1.9250
  480MOL0     H66196   3.380   5.123   3.696 -0.4318 -0.3201 -4.0036
  480MOL0     H66197   3.407   5.257   3.567 -0.8305  2.7012  0.7683
  480MOL0     H66198   3.565   5.062   3.545  0.2822 -2.2837 -1.0341
  480MOL0     H66199   3.773   4.810   3.460  0.0057 -3.1773  0.8028
  480MOL0     H66200   3.596   4.855   3.480 -0.5562  0.4813 -0.8919
  480MOL0     H66201   3.662   4.729   3.570 -1.5387  0.7717  1.5221
  480MOL0     H66202   4.158   4.690   3.720 -0.7844 -0.0186  0.0044
  480MOL0     H66203   4.269   4.495   3.805 -0.4220  1.1068 -1.6271
  480MOL0     H66204   4.300   4.442   4.245 -2.8566 -0.1744  2.9248
  480MOL0     H66205   4.174   4.324   4.240  1.1679  0.4175  2.6770
  480MOL0     H66206   4.380   4.208   4.302  1.1720  1.1681  0.8834
  480MOL0     H66207   4.332   4.157   4.150 -2.1229  0.3800  1.4395
  480MOL0     H66208   4.537   4.385   4.178  0.8065 -0.9610  0.8141
  480MOL0     H66209   4.505   4.294   4.029  0.4676 -1.7114 -0.6846
  480MOL0     H66210   4.562   4.088   4.177  1.8274 -1.1091  1.2437
  480MOL0     H66211   4.627   4.198   4.297  0.5801 -2.9574  0.4735
  480MOL0     H66212   4.746   4.271   4.036 -0.4400 -0.0710 -0.7199
  480MOL0     H66213   4.833   4.223   4.178  2.3256 -2.4633 -1.9707
  480MOL0     H66214   4.884   4.084   3.986 -1.1709 -0.1443 -0.1724
  480MOL0     H66215   4.714   4.019   3.994  0.4367 -2.3976 -1.0601
  480MOL0     H66216   4.763   3.959   4.231 -0.6754  0.5805 -0.7791
  480MOL0     H66217   4.932   4.018   4.210 -1.1766  0.7342  0.3582
  480MOL0     H66218   4.786   3.814   4.042 -0.9809 -0.1227  0.5888
  480MOL0     H66219   4.892   3.764   4.184  0.2965 -0.3883 -0.8701
  480MOL0     H66220   4.097   4.575   4.200  1.1640  3.3108  1.6903
  480MOL0     H66221   4.018   4.797   4.110  3.4402  1.0348  1.2466
  480MOL0     H66222   3.913   5.056   3.885  1.9205 -3.0250 -1.4296
  480MOL0     H66223   3.722   5.238   3.883 -0.0759  1.0536 -0.4592
  480MOL0     H66224   1.735   5.309   4.136 -0.9855  0.8978 -1.4158
  480MOL0     H66225   1.513   5.417   4.144 -0.4817  0.6294 -0.9605
  480MOL0     H66226   1.291   5.737   4.500  1.4580  0.3588 -0.5067
  480MOL0     H66227   1.086   5.804   4.564  2.7648  1.0355  1.5284
  480MOL0     H66228   0.836   5.845   4.563  1.3887  0.0111 -0.7161
  480MOL0     H66229   0.913   6.002   4.597 -0.1250 -0.6144 -0.1830
  480MOL0     H66230   0.651   6.012   4.453  0.1718  1.5703  0.0935
  480MOL0     H66231   0.754   6.142   4.532  1.4395 -0.4809  3.6947
  480MOL0     H66232   0.542   5.991   4.645  0.2422 -1.6392  0.0083
  480MOL0     H66233   0.685   5.950   4.731 -1.0149  0.7089  0.9379
  480MOL0     H66234   0.556   6.224   4.713 -1.0124 -1.0519  0.2084
  480MOL0     H66235   0.732   6.224   4.729  0.4101 -1.0433 -1.4729
  480MOL0     H66236   0.609   6.095   5.103  1.0267 -0.2253 -0.0740
  480MOL0     H66237   0.994   5.946   4.167  1.3839 -0.1632 -1.2126
  480MOL0     H66238   1.277   5.945   4.031  1.5661 -1.2412  0.3686
  480MOL0     H66239   1.284   5.770   4.008  0.5687  0.0413 -0.7608
  480MOL0     H66240   1.138   5.852   3.973  1.8964 -1.6208 -2.0672
  481MOL0     O66241   5.108   7.992   2.429 -0.1033 -0.2428 -0.4348
  481MOL0     C66242   5.032   8.076   2.471 -0.0666 -0.1452  0.7004
  481MOL0     O66243   5.019   8.201   2.426  0.5054  0.1207  0.0043
  481MOL0     C66244   5.110   8.255   2.347  0.1736 -0.6121 -0.3178
  481MOL0     C66245   5.249   8.252   2.361  0.3450 -1.0475  0.6964
  481MOL0     C66246   5.336   8.307   2.265 -0.2432 -0.2525  0.1007
  481MOL0     C66247   5.281   8.355   2.150  0.6119 -0.6280  0.9203
  481MOL0     O66248   5.378   8.393   2.054 -0.3983  0.7240  0.2943
  481MOL0     C66249   5.343   8.460   1.927  0.4111  0.8560 -0.5102
  481MOL0     C66250   5.472   8.521   1.861 -0.4092 -0.5569 -0.2229
  481MOL0     C66251   5.558   8.602   1.964 -0.3969  0.8649 -0.3295
  481MOL0     C66252   5.505   8.741   1.992 -0.2455 -0.0654 -0.2220
  481MOL0     C66253   5.582   8.807   2.099  0.7438 -0.2014 -0.6019
  481MOL0     C66254   5.537   8.951   2.101  0.2760  0.5191  0.0827
  481MOL0     C66255   5.582   9.008   2.237 -0.4973 -0.4675  0.8589
  481MOL0     C66256   5.725   9.046   2.231 -0.5222 -0.0933  0.4239
  481MOL0     N66257   5.760   9.146   2.337 -0.2227 -0.3319  0.1959
  481MOL0     C66258   5.847   9.118   2.442  0.4095  0.3579 -0.3387
  481MOL0     C66259   5.838   9.226   2.521 -0.4413  0.5847 -0.1967
  481MOL0     C66260   5.920   9.273   2.644  0.7178  1.9637  0.1102
  481MOL0     C66261   6.045   9.359   2.625  0.9400 -0.0957  0.3634
  481MOL0     C66262   6.092   9.402   2.761  0.1027 -0.9227 -0.5874
  481MOL0     C66263   6.228   9.470   2.756 -0.3516  0.7151 -0.5303
  481MOL0     O66264   6.273   9.487   2.888 -0.1827 -0.3106  0.3673
  481MOL0     C66265   6.409   9.504   2.903 -0.2530  0.2049  0.7334
  481MOL0     C66266   6.512   9.510   2.803 -0.4273 -0.8801  0.2118
  481MOL0     C66267   6.650   9.526   2.829 -0.1999 -0.0790 -0.4457
  481MOL0     C66268   6.746   9.530   2.711  0.2617 -0.5785  0.6742
  481MOL0     C66269   6.688   9.530   2.967 -0.1288 -0.2529 -0.0261
  481MOL0     C66270   6.828   9.552   3.022 -0.6677  0.3034  1.3628
  481MOL0     O66271   6.837   9.556   3.157  0.1910 -0.1221 -0.4161
  481MOL0     C66272   6.959   9.583   3.213 -1.2894 -0.2616  0.4022
  481MOL0     C66273   7.009   9.715   3.206 -0.3440  0.7933  0.8980
  481MOL0     C66274   7.131   9.751   3.265 -0.0458  0.0697  0.3771
  481MOL0     C66275   7.204   9.659   3.343 -0.1555  0.5202 -0.5021
  481MOL0     O66276   7.306   9.688   3.429 -0.0787 -0.3481  0.4437
  481MOL0     C66277   7.331   9.828   3.457  0.3475 -0.3422 -0.9043
  481MOL0     C66278   7.466   9.862   3.526 -0.5236 -0.2652 -0.2622
  481MOL0     C66279   7.576   9.905   3.428 -1.0677  0.2155 -0.0701
  481MOL0     C66280   7.559  10.053   3.398 -0.6925 -0.3772 -0.0118
  481MOL0     C66281   7.641  10.076   3.266  0.1132  0.5187 -0.6931
  481MOL0     C66282   7.608  10.213   3.215 -0.4528 -0.1532  0.6752
  481MOL0     C66283   7.673  10.226   3.072  0.3345  0.3227 -0.7837
  481MOL0     C66284   7.560  10.273   2.980  0.0526  0.7466  0.8785
  481MOL0    Cl66285   7.424  10.166   2.963 -0.0427 -0.3126  0.0516
  481MOL0     C66286   7.159   9.530   3.345 -0.0491  0.2728 -0.4326
  481MOL0     C66287   7.041   9.491   3.277 -0.0205 -1.2801  0.9558
  481MOL0     O66288   6.924   9.539   2.945 -0.0137 -0.2010  0.3826
  481MOL0     C66289   6.589   9.525   3.068 -0.2347  0.0015  0.5781
  481MOL0     C66290   6.451   9.517   3.032 -0.0014 -0.3216 -0.0785
  481MOL0     N66291   5.754   9.318   2.468 -0.1988  0.8024  0.8897
  481MOL0     N66292   5.693   9.265   2.362  0.5018 -0.4757  0.0208
  481MOL0     C66293   5.138   8.359   2.129 -0.5796 -0.7022 -0.6236
  481MOL0     C66294   5.057   8.309   2.228 -0.4163  1.1421  0.5077
  481MOL0     C66295   4.931   8.028   2.573 -0.8010 -0.4794  0.4866
  481MOL0     C66296   4.831   8.110   2.606  0.6423 -0.3125  0.4544
  481MOL0     C66297   4.719   8.067   2.678 -1.1642 -0.7179  0.1511
  481MOL0     C66298   4.717   7.940   2.731 -0.5350  0.5069 -1.2616
  481MOL0     O66299   4.600   7.905   2.794 -0.1852 -0.7317 -0.3307
  481MOL0     C66300   4.593   7.951   2.929 -0.9275 -0.4624  0.1027
  481MOL0     C66301   4.677   7.877   3.039  0.5205 -0.0226  0.1969
  481MOL0     C66302   4.598   7.749   3.090  0.3599 -0.3348 -0.2777
  481MOL0     C66303   4.665   7.689   3.219  0.8563 -0.1721 -0.6173
  481MOL0     C66304   4.773   7.594   3.181  0.0711  0.6805  1.3384
  481MOL0     C66305   4.852   7.509   3.139  0.4553 -0.1071  0.8391
  481MOL0     C66306   4.821   7.860   2.711  0.2910  0.7316 -1.3265
  481MOL0     C66307   4.933   7.897   2.632 -0.1166  0.4523 -0.4469
  481MOL0     C66308   5.046   7.805   2.626  0.0642  0.0043 -0.4215
  481MOL0     H66309   5.290   8.212   2.454  1.9486  2.6395  1.7454
  481MOL0     H66310   5.444   8.296   2.275 -0.3144  1.1252  3.9974
  481MOL0     H66311   5.267   8.538   1.937 -2.6619 -2.0048  0.3023
  481MOL0     H66312   5.301   8.394   1.850  0.4145  1.1996 -0.8154
  481MOL0     H66313   5.532   8.444   1.812  0.8158 -1.6306  2.7469
  481MOL0     H66314   5.446   8.592   1.782  0.6957 -1.4585 -1.4455
  481MOL0     H66315   5.562   8.547   2.059 -2.2435  3.3284  1.3109
  481MOL0     H66316   5.660   8.610   1.925 -0.2459 -1.0763 -0.4149
  481MOL0     H66317   5.517   8.792   1.896 -0.0029  2.6269  1.1515
  481MOL0     H66318   5.397   8.738   2.012 -0.4541  2.8046 -0.4564
  481MOL0     H66319   5.690   8.802   2.084  0.6550 -0.3661 -1.2382
  481MOL0     H66320   5.552   8.761   2.194  1.1783 -1.9948 -1.2794
  481MOL0     H66321   5.592   9.002   2.021  0.3817 -2.1587 -1.6731
  481MOL0     H66322   5.428   8.962   2.095  0.4364  2.6331  0.1329
  481MOL0     H66323   5.563   8.949   2.327  0.7817  1.6356  2.6287
  481MOL0     H66324   5.518   9.096   2.250 -3.6977 -2.1451 -1.9629
  481MOL0     H66325   5.783   8.953   2.242  0.0937 -0.0322 -1.8862
  481MOL0     H66326   5.752   9.089   2.135  0.2167  0.0583  0.6869
  481MOL0     H66327   5.916   9.035   2.455 -1.8164 -1.6709 -0.7328
  481MOL0     H66328   5.948   9.178   2.691 -1.8645  0.5246 -1.0444
  481MOL0     H66329   5.860   9.322   2.722 -1.3085  2.8134 -1.8904
  481MOL0     H66330   6.127   9.306   2.577  1.1119 -1.2363  1.8402
  481MOL0     H66331   6.024   9.441   2.556  2.9559 -0.5602 -0.8716
  481MOL0     H66332   6.017   9.471   2.800  1.7882  1.3544 -1.1609
  481MOL0     H66333   6.089   9.323   2.836 -0.4131  0.9419  1.4850
  481MOL0     H66334   6.297   9.401   2.705  3.9679  3.6100  0.8122
  481MOL0     H66335   6.217   9.559   2.694 -2.1483 -0.1481 -1.5185
  481MOL0     H66336   6.486   9.524   2.699 -1.7304 -1.4266  0.4468
  481MOL0     H66337   6.810   9.442   2.694  0.8748 -0.0780  0.3482
  481MOL0     H66338   6.815   9.612   2.732 -0.2376 -0.4791  2.0690
  481MOL0     H66339   6.692   9.554   2.620  0.0608 -1.9870  0.3868
  481MOL0     H66340   6.962   9.786   3.138  2.3461 -0.2915 -2.3416
  481MOL0     H66341   7.158   9.855   3.248  1.7400 -0.7177 -2.5226
  481MOL0     H66342   7.339   9.879   3.360  1.8057 -0.5594 -0.9230
  481MOL0     H66343   7.244   9.869   3.510  1.6682 -0.1683  1.2217
  481MOL0     H66344   7.463   9.944   3.599  0.0839 -0.2287 -0.2753
  481MOL0     H66345   7.498   9.773   3.580 -1.0619  0.0088  0.5244
  481MOL0     H66346   7.581   9.857   3.330  0.3760 -1.1524  0.6274
  481MOL0     H66347   7.670   9.884   3.480 -1.5000  0.1897  0.7174
  481MOL0     H66348   7.603  10.108   3.482  2.1685  1.2683 -2.4143
  481MOL0     H66349   7.452  10.069   3.380 -0.8058 -1.0621  0.0321
  481MOL0     H66350   7.748  10.065   3.287 -0.8866 -2.8553  4.1422
  481MOL0     H66351   7.608  10.008   3.187  0.1860 -1.6463  1.0704
  481MOL0     H66352   7.648  10.292   3.280 -0.4423  1.1753 -0.8890
  481MOL0     H66353   7.500  10.231   3.218 -0.4374 -0.2010  2.2023
  481MOL0     H66354   7.707  10.126   3.045  0.8917 -0.3354  1.9707
  481MOL0     H66355   7.757  10.295   3.062 -0.0946  0.7024 -1.9051
  481MOL0     H66356   7.615  10.291   2.888 -1.0979  3.7407  0.6523
  481MOL0     H66357   7.517  10.367   3.016  0.1557 -0.0015  3.1724
  481MOL0     H66358   7.216   9.462   3.407 -0.1760 -0.1081 -0.7351
  481MOL0     H66359   7.002   9.390   3.286 -0.7000 -1.0904  0.3237
  481MOL0     H66360   6.607   9.527   3.175  0.6734  0.2231  0.4318
  481MOL0     H66361   6.371   9.524   3.105 -1.1078  1.7983 -1.4234
  481MOL0     H66362   5.090   8.388   2.036 -1.8098 -2.5188 -0.5970
  481MOL0     H66363   4.951   8.300   2.206 -0.7505 -2.5473  2.6350
  481MOL0     H66364   4.828   8.212   2.570 -2.0480 -0.2257  0.7728
  481MOL0     H66365   4.642   8.139   2.699 -0.0114  0.4130  0.6413
  481MOL0     H66366   4.617   8.057   2.940 -3.2681  0.0110  1.3866
  481MOL0     H66367   4.486   7.946   2.950 -1.1924  0.0523 -1.0465
  481MOL0     H66368   4.688   7.951   3.120  0.3185  0.0385  0.1695
  481MOL0     H66369   4.780   7.852   3.012  0.8536 -0.2405  1.5561
  481MOL0     H66370   4.502   7.789   3.122  0.2301  0.5920 -1.7185
  481MOL0     H66371   4.575   7.674   3.014  0.3402 -0.0515 -0.5540
  481MOL0     H66372   4.584   7.633   3.265  1.2395 -0.4532 -0.2808
  481MOL0     H66373   4.689   7.772   3.286  1.3943 -1.2040  0.4881
  481MOL0     H66374   4.918   7.429   3.113  1.2596  1.0936 -1.0531
  481MOL0     H66375   4.820   7.761   2.755  0.6576  1.0048 -0.6775
  481MOL0     H66376   5.038   7.725   2.700 -0.2221  0.8994  0.5361
  481MOL0     H66377   5.057   7.769   2.523 -0.5667  0.8654 -0.8146
  481MOL0     H66378   5.137   7.861   2.649  0.0020 -0.2061  0.3663
  482MOL0     O66379   1.628   9.922  11.180  0.2537 -0.2182 -0.1313
  482MOL0     C66380   1.583  10.020  11.239  0.9783 -0.1839  0.6112
  482MOL0     O66381   1.625  10.147  11.224  0.1897  0.1045  0.3559
  482MOL0     C66382   1.752  10.174  11.167 -0.6328 -0.2181  1.1835
  482MOL0     C66383   1.766  10.196  11.029  0.4810  0.4447 -0.4365
  482MOL0     C66384   1.890  10.223  10.971 -0.3132  0.4462  0.2834
  482MOL0     C66385   1.997  10.250  11.055  0.7925 -0.0792  0.3619
  482MOL0     O66386   2.110  10.284  10.989  0.8908 -0.3510 -0.4433
  482MOL0     C66387   2.234  10.280  11.055  0.0479 -0.1170  0.1955
  482MOL0     C66388   2.330  10.330  10.959 -0.7251 -1.3671 -0.4118
  482MOL0     C66389   2.477  10.316  11.010 -0.0715  0.4438  0.1851
  482MOL0     C66390   2.578  10.316  10.884  0.0496  0.3301 -0.1252
  482MOL0     C66391   2.728  10.344  10.924  0.4286 -0.7718  0.2850
  482MOL0     C66392   2.795  10.346  10.790 -0.0083  0.5456 -0.3455
  482MOL0     C66393   2.950  10.367  10.795  0.4617  0.1095 -0.4123
  482MOL0     C66394   3.007  10.341  10.655  0.1104 -1.0371 -0.6048
  482MOL0     N66395   3.148  10.334  10.660  0.2556  0.2392 -0.1739
  482MOL0     C66396   3.229  10.222  10.694 -0.9098 -0.0271  0.4706
  482MOL0     C66397   3.356  10.269  10.673 -0.3039  0.3760 -0.6218
  482MOL0     C66398   3.478  10.182  10.709 -0.3642 -0.2856  0.7060
  482MOL0     C66399   3.536  10.122  10.583 -0.3867  0.5774 -0.0966
  482MOL0     C66400   3.609  10.224  10.496 -0.4912  1.2350 -0.1274
  482MOL0     C66401   3.738  10.274  10.579  0.2812 -0.0847  0.1289
  482MOL0     O66402   3.822  10.167  10.604 -0.8181 -0.8540  0.9774
  482MOL0     C66403   3.955  10.169  10.564  0.4678  0.0051 -0.1012
  482MOL0     C66404   4.020  10.048  10.556 -0.4689  0.4207 -0.3783
  482MOL0     C66405   4.161  10.032  10.526 -0.1436 -0.3412 -0.5101
  482MOL0     C66406   4.231   9.894  10.529 -0.3596  0.2822 -0.7818
  482MOL0     C66407   4.227  10.156  10.515 -0.7130 -0.2040 -0.1110
  482MOL0     C66408   4.365  10.160  10.450  0.3368 -0.8812 -0.0606
  482MOL0     O66409   4.460  10.068  10.472  0.7889 -0.4992 -0.5827
  482MOL0     C66410   4.591  10.068  10.424  0.0365 -0.2477  0.1192
  482MOL0     C66411   4.663  10.188  10.403 -0.6906 -0.4527 -0.8608
  482MOL0     C66412   4.798  10.182  10.359 -1.4086 -0.3693  0.0565
  482MOL0     C66413   4.871  10.057  10.363  0.5146 -0.5821  0.0102
  482MOL0     O66414   4.994  10.059  10.319 -0.0890 -0.2270 -0.2374
  482MOL0     C66415   5.030  10.071  10.185 -0.3838  0.5928  0.0917
  482MOL0     C66416   5.165  10.019  10.159 -0.6653 -0.2714  0.4516
  482MOL0     C66417   5.267  10.077  10.263 -0.4557 -0.3235  0.0978
  482MOL0     C66418   5.426  10.073  10.235  0.1587 -0.4052 -0.0713
  482MOL0     C66419   5.468   9.933  10.188  0.4082  0.3953  0.3666
  482MOL0     C66420   5.618   9.917  10.162 -1.0491 -1.0909 -1.0886
  482MOL0     C66421   5.651   9.768  10.154  0.2134  0.4710 -0.1840
  482MOL0     C66422   5.798   9.737  10.139 -0.3943 -0.6157  0.3626
  482MOL0    Cl66423   5.869   9.776  10.296 -0.0279  0.0270 -0.2701
  482MOL0     C66424   4.796   9.939  10.394 -0.0301 -0.2694  0.2956
  482MOL0     C66425   4.661   9.945  10.420  0.2734 -0.5365  0.4046
  482MOL0     O66426   4.382  10.252  10.375  0.1370  0.0547  0.1318
  482MOL0     C66427   4.166  10.276  10.540  0.7073 -0.3854 -0.2250
  482MOL0     C66428   4.029  10.284  10.560  0.2109 -0.3597 -1.1357
  482MOL0     N66429   3.350  10.404  10.639  1.0804 -0.3857  0.1855
  482MOL0     N66430   3.232  10.443  10.647 -0.6397  0.2291  0.1938
  482MOL0     C66431   1.987  10.227  11.192  0.5936  0.4748 -0.2005
  482MOL0     C66432   1.866  10.185  11.244  0.1723  0.3817 -0.2793
  482MOL0     C66433   1.452  10.014  11.310 -0.2597 -0.1226  1.2165
  482MOL0     C66434   1.374  10.125  11.288  0.1642 -0.4675  0.0113
  482MOL0     C66435   1.258  10.127  11.368  0.0833 -0.2063  0.0404
  482MOL0     C66436   1.220  10.025  11.451 -0.4694 -0.5066 -0.5021
  482MOL0     O66437   1.113  10.043  11.540 -0.7337  1.0229  0.5829
  482MOL0     C66438   0.983  10.011  11.487 -0.2250  0.3568  0.1430
  482MOL0     C66439   0.966   9.861  11.507  0.7351 -0.4258  0.3610
  482MOL0     C66440   0.843   9.808  11.426 -0.1841 -0.0450 -0.7350
  482MOL0     C66441   0.815   9.654  11.432  0.9159  0.1761 -0.1015
  482MOL0     C66442   0.854   9.600  11.560 -0.7973 -0.9518  0.0355
  482MOL0     C66443   0.893   9.552  11.668  0.0119  0.6041  0.2992
  482MOL0     C66444   1.297   9.912  11.464 -0.1305  0.2150  0.0058
  482MOL0     C66445   1.423   9.909  11.398 -0.2733  1.2251  0.5808
  482MOL0     C66446   1.516   9.791  11.429  0.9699 -0.2510  0.2845
  482MOL0     H66447   1.677  10.188  10.967 -0.1181  0.7357  0.3798
  482MOL0     H66448   1.898  10.229  10.863  2.9231  3.0008  0.5206
  482MOL0     H66449   2.267  10.180  11.081  0.8461 -0.4379 -1.9332
  482MOL0     H66450   2.228  10.350  11.140  2.8177  1.0280 -0.4600
  482MOL0     H66451   2.328  10.276  10.864  4.6673  0.1923 -1.7702
  482MOL0     H66452   2.312  10.432  10.923  0.5459  1.2146  5.1598
  482MOL0     H66453   2.505  10.401  11.074  2.3126 -1.8466  2.4328
  482MOL0     H66454   2.493  10.219  11.058  0.7131  1.1371  1.3953
  482MOL0     H66455   2.567  10.216  10.840  1.6808  0.1652 -0.2254
  482MOL0     H66456   2.546  10.392  10.813 -0.4458  1.3598  1.1620
  482MOL0     H66457   2.770  10.273  10.996 -0.0540  0.5807  1.9672
  482MOL0     H66458   2.741  10.449  10.953  1.4170 -0.5797 -0.7932
  482MOL0     H66459   2.776  10.248  10.745  0.4467 -1.4275  3.3674
  482MOL0     H66460   2.753  10.423  10.724 -0.0780 -0.0355 -0.9923
  482MOL0     H66461   2.988  10.285  10.858  3.3317  1.0606 -0.7515
  482MOL0     H66462   2.974  10.466  10.834  0.0931 -0.0103  0.1314
  482MOL0     H66463   2.959  10.251  10.615 -1.2463 -0.9846  0.8458
  482MOL0     H66464   2.985  10.429  10.594  0.8593 -0.1455  0.3796
  482MOL0     H66465   3.193  10.129  10.739 -2.6177  0.2153 -0.2828
  482MOL0     H66466   3.442  10.099  10.771 -1.9760 -1.2069 -1.3349
  482MOL0     H66467   3.559  10.237  10.758 -0.1204  1.3441 -1.3942
  482MOL0     H66468   3.601  10.045  10.626 -0.3259  1.4732  1.5025
  482MOL0     H66469   3.457  10.072  10.526 -1.0241  1.1935  0.2283
  482MOL0     H66470   3.649  10.176  10.406 -0.3209  0.6695  0.2453
  482MOL0     H66471   3.539  10.300  10.460  0.7375  2.6879  0.4223
  482MOL0     H66472   3.784  10.358  10.526 -1.6143  1.2230  0.4368
  482MOL0     H66473   3.719  10.325  10.674  0.0851  0.0078  0.0397
  482MOL0     H66474   3.976   9.956  10.593 -0.9386  0.8593  0.1730
  482MOL0     H66475   4.320   9.892  10.593 -0.0209  0.8172 -1.2334
  482MOL0     H66476   4.265   9.862  10.430 -0.4088 -0.8045 -0.4716
  482MOL0     H66477   4.163   9.815  10.564  1.4052 -1.6031 -1.3539
  482MOL0     H66478   4.628  10.291  10.410  2.0860  0.5012  0.1960
  482MOL0     H66479   4.860  10.267  10.333 -1.2206 -0.7605 -0.8096
  482MOL0     H66480   4.965  10.012  10.120 -1.4723 -0.3437  1.9490
  482MOL0     H66481   5.039  10.180  10.173 -0.4027  0.7286  1.1566
  482MOL0     H66482   5.168   9.910  10.168 -1.8351 -0.7174 -3.0265
  482MOL0     H66483   5.203  10.043  10.060 -1.5637  0.8204  0.3515
  482MOL0     H66484   5.243  10.025  10.356 -5.2832  0.9978 -0.1301
  482MOL0     H66485   5.253  10.183  10.287 -1.5587 -0.2962 -0.6058
  482MOL0     H66486   5.483  10.089  10.327  2.9276  2.2320 -2.0294
  482MOL0     H66487   5.461  10.141  10.156  1.2691 -0.3399  0.4662
  482MOL0     H66488   5.435   9.859  10.262 -0.6873 -3.5060 -3.5789
  482MOL0     H66489   5.412   9.906  10.099 -0.7742  1.1407  0.8647
  482MOL0     H66490   5.675   9.961  10.244  0.9053  0.3174 -3.0799
  482MOL0     H66491   5.653   9.971  10.074 -1.7159  1.6845  0.2454
  482MOL0     H66492   5.604   9.728  10.064  1.6460  0.3535 -0.9084
  482MOL0     H66493   5.612   9.722  10.245  2.9911  2.8700  2.4341
  482MOL0     H66494   5.854   9.786  10.059  0.5318 -1.1411  0.6801
  482MOL0     H66495   5.821   9.631  10.131  1.9224 -0.0711 -0.8294
  482MOL0     H66496   4.825   9.835  10.394 -2.1364 -0.9104  0.2347
  482MOL0     H66497   4.609   9.852  10.440 -0.8805  0.0157  0.0495
  482MOL0     H66498   4.223  10.368  10.539  1.8611 -1.0545  0.9156
  482MOL0     H66499   4.000  10.389  10.565  2.2185  0.5206 -4.5233
  482MOL0     H66500   2.066  10.259  11.259  0.9204  0.9128 -0.7843
  482MOL0     H66501   1.864  10.178  11.352 -0.2626 -1.7100 -0.3818
  482MOL0     H66502   1.410  10.201  11.219 -0.1199 -0.9035 -0.6227
  482MOL0     H66503   1.193  10.213  11.370 -0.2509 -0.4674  0.8896
  482MOL0     H66504   0.889  10.055  11.522 -1.5692 -2.6222  0.6149
  482MOL0     H66505   0.997  10.036  11.382 -0.3242 -0.2254 -0.0110
  482MOL0     H66506   0.936   9.854  11.612 -0.2591  3.2769  0.4736
  482MOL0     H66507   1.061   9.816  11.476  1.9523  2.8692 -1.2256
  482MOL0     H66508   0.759   9.868  11.462 -1.2063  0.0475 -3.0452
  482MOL0     H66509   0.840   9.852  11.326 -0.3667  2.4914  0.3097
  482MOL0     H66510   0.871   9.589  11.365  0.8769 -1.3009  1.2549
  482MOL0     H66511   0.707   9.640  11.415  0.9271 -0.7318  0.5085
  482MOL0     H66512   0.919   9.503  11.760 -1.9973 -0.5433  0.3341
  482MOL0     H66513   1.272   9.827  11.526  0.7598 -1.5554 -1.9782
  482MOL0     H66514   1.610   9.827  11.471  0.5863  1.1742 -0.0342
  482MOL0     H66515   1.468   9.720  11.497  0.2190 -0.2424 -0.2232
  482MOL0     H66516   1.523   9.740  11.332  1.3512  2.0895 -1.0140
  483MOL0     O66517   1.309   7.008  10.506 -0.2206  0.3942 -0.0765
  483MOL0     C66518   1.420   6.954  10.484 -0.0312 -1.1349  0.7674
  483MOL0     O66519   1.431   6.821  10.442 -0.6081 -0.2400  0.0172
  483MOL0     C66520   1.325   6.742  10.446  0.6271  0.5844  0.4039
  483MOL0     C66521   1.248   6.715  10.567  0.0470 -0.2344 -0.4745
  483MOL0     C66522   1.127   6.645  10.572  1.1107  0.1699 -0.3262
  483MOL0     C66523   1.084   6.582  10.449 -0.3790  0.5745  0.1802
  483MOL0     O66524   0.961   6.508  10.464  0.6052  0.4529  0.1721
  483MOL0     C66525   0.961   6.371  10.405 -0.3266 -0.7124 -0.2125
  483MOL0     C66526   0.893   6.260  10.471  0.7427 -0.5676 -0.1593
  483MOL0     C66527   0.908   6.261  10.618 -0.3292  0.4589 -0.9299
  483MOL0     C66528   0.769   6.263  10.691 -0.5600 -0.4646 -0.5228
  483MOL0     C66529   0.697   6.396  10.677 -0.1155 -1.1858  0.7417
  483MOL0     C66530   0.726   6.489  10.799  0.3118 -0.1604 -0.3131
  483MOL0     C66531   0.606   6.591  10.816  0.0865  1.3803 -0.6736
  483MOL0     C66532   0.592   6.699  10.706  0.2183  0.8600  0.1630
  483MOL0     N66533   0.678   6.813  10.755 -0.7555 -0.6131  0.5801
  483MOL0     C66534   0.808   6.848  10.715  0.6813 -0.5565  0.6263
  483MOL0     C66535   0.835   6.958  10.788 -0.2993 -0.3608 -0.4832
  483MOL0     C66536   0.961   7.034  10.793  0.5514  0.6234  0.5734
  483MOL0     C66537   1.025   7.030  10.939  0.9464 -0.0031  0.0887
  483MOL0     C66538   1.149   7.115  10.947 -0.4918 -0.6007 -0.3719
  483MOL0     C66539   1.155   7.154  11.096  0.6616 -0.5154 -0.2456
  483MOL0     O66540   1.264   7.245  11.119  0.3797 -0.6191  0.0004
  483MOL0     C66541   1.394   7.191  11.138 -0.2574 -0.3977  1.3401
  483MOL0     C66542   1.481   7.296  11.157 -0.4790 -0.1646 -0.4006
  483MOL0     C66543   1.622   7.273  11.162  0.4228 -0.1044  0.0091
  483MOL0     C66544   1.704   7.395  11.172  0.6336 -0.5662  0.3602
  483MOL0     C66545   1.665   7.136  11.160 -0.3074 -0.2510 -0.4607
  483MOL0     C66546   1.806   7.099  11.172 -0.7681  0.6354  0.7675
  483MOL0     O66547   1.904   7.188  11.178  0.3612 -0.0305  0.0128
  483MOL0     C66548   2.023   7.139  11.222  0.7631 -0.0686 -0.0198
  483MOL0     C66549   2.143   7.188  11.164 -0.3132  0.2735  0.5821
  483MOL0     C66550   2.265   7.143  11.211 -0.4942 -1.0095 -0.6155
  483MOL0     C66551   2.278   7.048  11.306  0.6280  0.0255  0.2286
  483MOL0     O66552   2.396   6.992  11.330 -0.0865 -0.7695  0.2820
  483MOL0     C66553   2.420   6.956  11.468 -0.0751 -0.6078 -0.1767
  483MOL0     C66554   2.570   6.965  11.511 -0.6042  0.5018 -0.0296
  483MOL0     C66555   2.647   6.840  11.492 -0.1628 -0.4358  0.3640
  483MOL0     C66556   2.797   6.855  11.511 -0.6440  0.3569  0.0848
  483MOL0     C66557   2.870   6.725  11.487 -0.4929  0.1430 -0.6261
  483MOL0     C66558   3.007   6.721  11.552 -0.2435  0.3466 -0.0588
  483MOL0     C66559   3.001   6.670  11.694  0.4122  0.7088  0.1829
  483MOL0     C66560   3.137   6.663  11.750 -0.7261  0.0225 -0.1601
  483MOL0    Cl66561   3.220   6.825  11.756 -0.0058  0.3527 -0.1358
  483MOL0     C66562   2.155   6.997  11.369 -0.0988 -0.1302 -0.1938
  483MOL0     C66563   2.034   7.049  11.327  0.2153  0.8422  0.0565
  483MOL0     O66564   1.821   6.981  11.138 -0.1856  0.3978 -0.2857
  483MOL0     C66565   1.570   7.033  11.151 -0.8392  0.3325  0.2744
  483MOL0     C66566   1.440   7.063  11.135  0.0056 -0.1478 -0.5019
  483MOL0     N66567   0.732   6.979  10.885 -0.2244 -0.1620  0.8073
  483MOL0     N66568   0.643   6.894  10.855  0.6270  0.5051 -0.5661
  483MOL0     C66569   1.155   6.594  10.334 -0.4392  0.2926 -0.1982
  483MOL0     C66570   1.277   6.673  10.338 -0.6705 -0.1600 -0.7777
  483MOL0     C66571   1.545   7.048  10.478 -0.1860  0.7134 -0.0622
  483MOL0     C66572   1.663   7.016  10.403  0.2028 -0.1168 -0.1865
  483MOL0     C66573   1.767   7.100  10.395 -0.2853 -0.2035  0.1794
  483MOL0     C66574   1.773   7.221  10.464  0.1469 -0.0609 -0.9767
  483MOL0     O66575   1.887   7.297  10.451  0.0004 -0.1089  0.5010
  483MOL0     C66576   1.872   7.433  10.457  0.4618  0.3730 -0.5875
  483MOL0     C66577   1.829   7.490  10.317  0.1188  0.7482  0.2975
  483MOL0     C66578   1.811   7.645  10.322 -0.3111  0.6305  0.2851
  483MOL0     C66579   1.762   7.697  10.186  0.0697 -0.2467  0.1354
  483MOL0     C66580   1.615   7.700  10.183  0.0874  0.1454 -0.6486
  483MOL0     C66581   1.494   7.714  10.178  0.0265  0.1307 -0.0462
  483MOL0     C66582   1.672   7.251  10.551  0.2432 -0.1941  0.3689
  483MOL0     C66583   1.555   7.163  10.557 -0.2073  0.1761 -1.4153
  483MOL0     C66584   1.462   7.201  10.672 -0.1563 -0.4369 -0.9164
  483MOL0     H66585   1.300   6.750  10.655  0.2265 -1.1246 -0.2145
  483MOL0     H66586   1.079   6.633  10.669  0.7637  2.0635 -0.2265
  483MOL0     H66587   1.069   6.352  10.398 -0.1846 -1.0765  2.1983
  483MOL0     H66588   0.918   6.393  10.307  0.0248  1.1486  0.0013
  483MOL0     H66589   0.788   6.284  10.453  0.4824 -0.3894  1.4141
  483MOL0     H66590   0.925   6.162  10.434  0.5319 -0.4187 -0.7337
  483MOL0     H66591   0.952   6.167  10.654 -1.5843  0.9051  2.1082
  483MOL0     H66592   0.988   6.327  10.650  1.3838 -2.9158  2.5771
  483MOL0     H66593   0.710   6.191  10.634 -0.4413 -1.2435  0.3142
  483MOL0     H66594   0.778   6.232  10.796  1.2371 -0.7198 -0.7290
  483MOL0     H66595   0.591   6.372  10.663  0.5789 -3.6608 -0.9356
  483MOL0     H66596   0.733   6.442  10.584  0.9225 -1.1233  1.1662
  483MOL0     H66597   0.723   6.424  10.886  1.7047 -0.4554 -0.4637
  483MOL0     H66598   0.826   6.531  10.785  1.0246 -1.1899  1.4024
  483MOL0     H66599   0.621   6.635  10.915  2.6277 -2.5737  0.9507
  483MOL0     H66600   0.513   6.533  10.818  1.2943 -0.6265  0.6442
  483MOL0     H66601   0.628   6.647  10.617  0.7071  0.0664  0.8143
  483MOL0     H66602   0.490   6.725  10.676  0.9301  1.0501 -2.2578
  483MOL0     H66603   0.875   6.797  10.647 -2.3266  1.1500 -4.0918
  483MOL0     H66604   0.933   7.139  10.776 -1.3538  0.9382  4.5889
  483MOL0     H66605   1.030   6.993  10.719 -0.8788 -0.1089 -0.3974
  483MOL0     H66606   0.946   7.072  11.001  0.2683 -0.2209 -0.6089
  483MOL0     H66607   1.058   6.932  10.975 -0.5629 -0.4034  0.4487
  483MOL0     H66608   1.239   7.059  10.921 -0.1298  0.8138 -2.3931
  483MOL0     H66609   1.134   7.207  10.888 -1.0894  0.5170  1.4387
  483MOL0     H66610   1.061   7.198  11.132  0.1767 -2.9655  1.7630
  483MOL0     H66611   1.162   7.072  11.168  0.4049  1.1835  1.8005
  483MOL0     H66612   1.444   7.398  11.158  3.4598  1.4360 -0.1385
  483MOL0     H66613   1.638   7.480  11.194  0.3642 -0.8257  0.5493
  483MOL0     H66614   1.761   7.419  11.081 -1.7414  1.0595 -0.8238
  483MOL0     H66615   1.778   7.371  11.249  0.5933 -3.5283 -0.3923
  483MOL0     H66616   2.132   7.261  11.084  2.3030  1.4635  1.1797
  483MOL0     H66617   2.358   7.177  11.167  1.6422 -2.4260  2.4383
  483MOL0     H66618   2.368   7.029  11.531  2.9527  0.6665  1.0101
  483MOL0     H66619   2.397   6.851  11.487  2.7963 -1.1813  0.4968
  483MOL0     H66620   2.619   7.045  11.454 -0.5797 -0.4031 -1.3273
  483MOL0     H66621   2.583   7.004  11.612 -1.3040  1.2918 -0.2323
  483MOL0     H66622   2.617   6.800  11.395 -0.6665  3.9748 -1.5419
  483MOL0     H66623   2.627   6.771  11.575 -0.3580  0.4701  1.0854
  483MOL0     H66624   2.814   6.897  11.610  1.7648 -0.2436 -0.0030
  483MOL0     H66625   2.821   6.936  11.442 -3.2076  0.4934 -0.7513
  483MOL0     H66626   2.805   6.649  11.532 -1.3052  2.3990  2.2589
  483MOL0     H66627   2.892   6.716  11.380 -0.5294 -0.8264 -0.5669
  483MOL0     H66628   3.051   6.821  11.548  0.1752  0.2351  1.4249
  483MOL0     H66629   3.071   6.656  11.492 -1.6342 -1.7062  0.5962
  483MOL0     H66630   2.964   6.568  11.709  0.8293  0.7096  1.2529
  483MOL0     H66631   2.937   6.737  11.751 -0.2116 -0.5845  1.0570
  483MOL0     H66632   3.185   6.589  11.685 -0.5201  1.1719 -1.3604
  483MOL0     H66633   3.126   6.629  11.853  1.4011  1.0165  0.4553
  483MOL0     H66634   2.172   6.902  11.418 -1.0428  0.3167  1.0420
  483MOL0     H66635   1.952   6.995  11.373  1.9413 -0.2421  1.9821
  483MOL0     H66636   1.591   6.926  11.153 -0.9166  0.2387 -1.8794
  483MOL0     H66637   1.369   6.982  11.117 -1.1189  1.4003 -3.9694
  483MOL0     H66638   1.119   6.546  10.244  2.6788 -1.9998 -0.3546
  483MOL0     H66639   1.337   6.688  10.249  1.8469  0.8724  0.9517
  483MOL0     H66640   1.678   6.926  10.344  1.0974 -0.5827  0.7181
  483MOL0     H66641   1.858   7.071  10.345  0.1552 -1.1595  1.4688
  483MOL0     H66642   1.797   7.459  10.532  1.3642  0.2364  0.3889
  483MOL0     H66643   1.967   7.481  10.483  0.6296  0.0732 -0.6446
  483MOL0     H66644   1.739   7.445  10.274  0.7195 -0.2119  0.0243
  483MOL0     H66645   1.914   7.473  10.249  0.1313 -1.4015  0.7976
  483MOL0     H66646   1.734   7.659  10.398 -2.7679 -2.7322 -1.3704
  483MOL0     H66647   1.904   7.698  10.347  0.5770  0.3142 -2.1462
  483MOL0     H66648   1.799   7.643  10.099 -0.6415 -1.6502  0.6645
  483MOL0     H66649   1.800   7.799  10.190  1.5300 -0.7480 -0.4512
  483MOL0     H66650   1.389   7.734  10.174  0.4959  2.9745  0.2351
  483MOL0     H66651   1.672   7.334  10.620 -0.8671 -1.4393  1.9563
  483MOL0     H66652   1.493   7.292  10.725 -0.3748 -0.4477 -0.7670
  483MOL0     H66653   1.360   7.225  10.644 -1.0043 -2.0012  0.6264
  483MOL0     H66654   1.459   7.118  10.743  0.0443  0.4790  0.2126
  484MOL0     O66655   0.950   4.553   8.731 -0.2587  0.0674  0.1025
  484MOL0     C66656   0.895   4.486   8.646  0.2060  0.2315  0.5905
  484MOL0     O66657   0.960   4.443   8.530  0.1946  0.5867  0.4382
  484MOL0     C66658   1.085   4.476   8.515  0.1341  0.0825 -0.3347
  484MOL0     C66659   1.182   4.410   8.589  0.1991  0.3551  0.8131
  484MOL0     C66660   1.320   4.438   8.577  0.3972 -0.6083  0.4117
  484MOL0     C66661   1.358   4.546   8.495  0.0282 -0.2090 -0.7138
  484MOL0     O66662   1.488   4.581   8.503  0.7887  1.2422 -0.8083
  484MOL0     C66663   1.582   4.497   8.426  0.0288  0.1683  0.2242
  484MOL0     C66664   1.722   4.508   8.490 -0.0372  0.3793 -0.9429
  484MOL0     C66665   1.734   4.433   8.627  0.1164  1.4124 -1.1077
  484MOL0     C66666   1.872   4.443   8.686 -0.9174 -0.2940  0.0047
  484MOL0     C66667   1.901   4.394   8.825  0.0929  0.3991 -0.0484
  484MOL0     C66668   1.830   4.480   8.940  0.3727 -0.1083 -0.0475
  484MOL0     C66669   1.846   4.412   9.075  0.1550 -0.1454 -0.5461
  484MOL0     C66670   1.783   4.502   9.179  0.5929  0.5573 -0.6154
  484MOL0     N66671   1.781   4.425   9.301 -0.0035  0.2776  0.2232
  484MOL0     C66672   1.678   4.367   9.373 -0.8939  0.0209 -1.1326
  484MOL0     C66673   1.735   4.332   9.491 -0.0553  0.3436  0.3764
  484MOL0     C66674   1.648   4.267   9.601 -0.0787  0.6862 -0.3680
  484MOL0     C66675   1.658   4.116   9.590  0.2598 -0.0854 -0.1662
  484MOL0     C66676   1.799   4.058   9.592 -0.5681 -0.0589  0.1245
  484MOL0     C66677   1.875   4.088   9.725  0.0949  0.1934 -0.2084
  484MOL0     O66678   1.974   3.990   9.745 -0.1000  0.1849 -0.7349
  484MOL0     C66679   2.088   3.999   9.677 -1.0977 -0.0572 -0.3221
  484MOL0     C66680   2.181   3.894   9.700  0.5634 -1.4704 -0.7829
  484MOL0     C66681   2.307   3.894   9.647 -0.0810  0.0269  0.5100
  484MOL0     C66682   2.389   3.767   9.681 -0.1696 -0.1866 -0.3485
  484MOL0     C66683   2.348   3.995   9.552 -0.3378  0.5617  0.1781
  484MOL0     C66684   2.480   4.001   9.478  0.2602  0.2989  1.3993
  484MOL0     O66685   2.520   4.121   9.424 -0.1232 -1.0589  0.2534
  484MOL0     C66686   2.638   4.150   9.359  0.4489 -0.5480 -0.0489
  484MOL0     C66687   2.756   4.094   9.407 -0.6230 -0.8211  0.2327
  484MOL0     C66688   2.879   4.112   9.340  0.4585 -0.3126 -0.0128
  484MOL0     C66689   2.884   4.187   9.219  1.2435 -0.8845  0.4352
  484MOL0     O66690   3.002   4.192   9.146 -0.0013  0.9332 -0.1649
  484MOL0     C66691   3.052   4.323   9.133  0.7202 -0.3900 -1.2358
  484MOL0     C66692   3.211   4.323   9.135  0.0115 -0.5099 -0.5776
  484MOL0     C66693   3.271   4.444   9.054 -0.2299  0.3197  0.5701
  484MOL0     C66694   3.416   4.478   9.086 -0.4350  0.6371 -0.0508
  484MOL0     C66695   3.450   4.608   9.015 -0.2259  1.3266 -0.1106
  484MOL0     C66696   3.501   4.585   8.875  0.0992 -0.5316  0.6843
  484MOL0     C66697   3.480   4.703   8.781  0.6271 -0.2856 -0.3511
  484MOL0     C66698   3.526   4.841   8.839 -0.5418 -0.3402  0.1613
  484MOL0    Cl66699   3.697   4.846   8.898 -0.0961 -0.6367 -0.2055
  484MOL0     C66700   2.762   4.249   9.167  0.1089  0.0757 -0.0120
  484MOL0     C66701   2.643   4.227   9.240 -0.2181  0.2233  0.8483
  484MOL0     O66702   2.544   3.896   9.468  0.6339  1.1861 -0.1955
  484MOL0     C66703   2.258   4.098   9.526 -0.2152 -1.2924 -0.4427
  484MOL0     C66704   2.133   4.104   9.588  0.3463 -0.7435 -0.3018
  484MOL0     N66705   1.868   4.374   9.491 -0.1048 -0.4866  0.0145
  484MOL0     N66706   1.892   4.417   9.378 -0.6204  0.6919  0.6077
  484MOL0     C66707   1.263   4.616   8.412 -0.6465  0.5574 -0.7711
  484MOL0     C66708   1.129   4.571   8.425  0.3757 -0.1482  1.2362
  484MOL0     C66709   0.757   4.448   8.675  0.5902 -0.2066 -1.3143
  484MOL0     C66710   0.673   4.519   8.764 -0.1033 -0.2116 -0.3239
  484MOL0     C66711   0.547   4.486   8.792  0.0277  0.4858  0.1940
  484MOL0     C66712   0.482   4.381   8.727  0.2155 -0.3982 -1.0167
  484MOL0     O66713   0.348   4.357   8.766 -0.6325 -0.0153 -0.0153
  484MOL0     C66714   0.263   4.274   8.685  0.7383 -0.7041  0.1105
  484MOL0     C66715   0.248   4.314   8.529  0.4350 -0.2015 -0.3518
  484MOL0     C66716   0.123   4.399   8.510 -0.0135 -0.1845  0.5981
  484MOL0     C66717   0.103   4.437   8.364  0.0958  0.1362  0.4439
  484MOL0     C66718   0.196   4.548   8.330  0.5518 -0.2235  0.0574
  484MOL0     C66719   0.260   4.650   8.307  0.8492  0.5981  0.4083
  484MOL0     C66720   0.555   4.309   8.637  0.4360 -0.5680  0.3544
  484MOL0     C66721   0.691   4.340   8.613 -0.2505  0.7813  0.2794
  484MOL0     C66722   0.757   4.238   8.532 -0.4230 -0.4802 -0.0053
  484MOL0     H66723   1.153   4.326   8.652 -0.0192 -0.6606 -0.5920
  484MOL0     H66724   1.394   4.391   8.642  2.1765  0.1653 -0.9641
  484MOL0     H66725   1.580   4.535   8.323 -1.3856  0.8229  0.4804
  484MOL0     H66726   1.561   4.389   8.431 -2.3711  0.5514 -0.2069
  484MOL0     H66727   1.799   4.481   8.417  0.6696  3.5587 -1.5257
  484MOL0     H66728   1.734   4.614   8.513 -1.0539 -0.0081  1.8120
  484MOL0     H66729   1.670   4.482   8.701  0.2749  0.8357 -0.5752
  484MOL0     H66730   1.709   4.326   8.621 -0.5823  1.6378 -2.5973
  484MOL0     H66731   1.941   4.384   8.626 -0.1476 -0.0127  0.5982
  484MOL0     H66732   1.898   4.549   8.679  0.9289 -0.7355 -0.2818
  484MOL0     H66733   2.009   4.388   8.841 -0.1827 -1.0110  1.7039
  484MOL0     H66734   1.870   4.293   8.852 -0.0737  1.3855  4.1890
  484MOL0     H66735   1.868   4.583   8.944 -0.8644  0.4721 -1.6805
  484MOL0     H66736   1.722   4.484   8.922  0.3503  0.9090  0.2228
  484MOL0     H66737   1.951   4.402   9.105 -0.0804  0.5689  0.5517
  484MOL0     H66738   1.807   4.312   9.055  0.4398 -0.3367 -0.1643
  484MOL0     H66739   1.852   4.584   9.201 -0.9096  1.2934  1.6253
  484MOL0     H66740   1.681   4.538   9.167  0.1785 -0.3547  0.0264
  484MOL0     H66741   1.577   4.350   9.338 -1.8822  0.7454  1.1845
  484MOL0     H66742   1.543   4.289   9.582 -0.6598 -0.6429  1.0723
  484MOL0     H66743   1.688   4.295   9.700 -1.1354  0.2692  0.1879
  484MOL0     H66744   1.597   4.062   9.664 -0.0598  0.4945  0.0020
  484MOL0     H66745   1.606   4.092   9.497  0.6204 -0.7035 -0.2164
  484MOL0     H66746   1.797   3.951   9.571  2.7443  0.1044 -1.6946
  484MOL0     H66747   1.860   4.104   9.514  0.5938  0.2226  1.1572
  484MOL0     H66748   1.919   4.188   9.728  2.8810 -0.8505 -1.6759
  484MOL0     H66749   1.812   4.085   9.814 -0.5061 -2.8556 -0.6193
  484MOL0     H66750   2.152   3.817   9.771  2.3746 -1.4470  0.0263
  484MOL0     H66751   2.493   3.790   9.705 -0.6343  0.5249  1.0855
  484MOL0     H66752   2.381   3.701   9.594 -2.3616  0.6962 -0.8780
  484MOL0     H66753   2.345   3.722   9.771 -0.1490 -0.4759 -0.4803
  484MOL0     H66754   2.760   4.028   9.493 -5.0455 -2.7770 -0.7676
  484MOL0     H66755   2.973   4.070   9.375  0.2645  0.5090  1.5753
  484MOL0     H66756   3.021   4.375   9.042 -0.7667 -0.1550 -0.6269
  484MOL0     H66757   3.022   4.390   9.215  2.0086 -0.2272 -0.8795
  484MOL0     H66758   3.253   4.328   9.236 -0.1411  0.4975 -0.5469
  484MOL0     H66759   3.233   4.235   9.075  5.0027 -0.6337  1.0388
  484MOL0     H66760   3.205   4.530   9.071 -2.0040 -0.7425 -0.6857
  484MOL0     H66761   3.259   4.417   8.949 -0.6330 -1.9850  1.1617
  484MOL0     H66762   3.484   4.400   9.051 -1.2182  0.3360 -0.9326
  484MOL0     H66763   3.424   4.487   9.195 -4.2699 -2.3560  0.7245
  484MOL0     H66764   3.366   4.677   9.011 -1.9037 -0.6730 -1.0849
  484MOL0     H66765   3.540   4.647   9.065 -0.5042  1.3361  0.3866
  484MOL0     H66766   3.467   4.493   8.826 -0.1843  0.2239 -0.5895
  484MOL0     H66767   3.610   4.571   8.871  0.1083 -0.6070  1.2280
  484MOL0     H66768   3.372   4.708   8.767  0.4457  1.5405  1.2684
  484MOL0     H66769   3.514   4.693   8.678  0.7243  1.5010 -0.5273
  484MOL0     H66770   3.458   4.867   8.921 -0.6750  0.4719 -0.2028
  484MOL0     H66771   3.492   4.916   8.767 -3.0947 -0.8041  0.7771
  484MOL0     H66772   2.762   4.303   9.073  2.6030  1.0543  0.4795
  484MOL0     H66773   2.553   4.275   9.201 -0.2876 -0.6577 -0.1076
  484MOL0     H66774   2.281   4.170   9.447 -2.6150  0.1135  0.0554
  484MOL0     H66775   2.079   4.195   9.565  0.1345 -1.2375 -1.8960
  484MOL0     H66776   1.293   4.687   8.336 -0.2336 -0.1255 -1.2574
  484MOL0     H66777   1.060   4.616   8.354  0.5535 -1.6032  0.1073
  484MOL0     H66778   0.725   4.596   8.821 -1.8219  0.2251  0.7284
  484MOL0     H66779   0.490   4.537   8.869  0.6426 -1.9468  2.3989
  484MOL0     H66780   0.314   4.177   8.691  3.6632  0.4738 -2.7495
  484MOL0     H66781   0.163   4.282   8.729  0.2116  5.3045 -1.3806
  484MOL0     H66782   0.239   4.227   8.464 -3.2475  0.6326 -1.1926
  484MOL0     H66783   0.336   4.360   8.483  0.4103  0.3628  0.1434
  484MOL0     H66784   0.030   4.347   8.534  2.1063 -3.7241  2.0247
  484MOL0     H66785   0.140   4.484   8.577 -0.0035  0.2582  0.0425
  484MOL0     H66786   0.000   4.470   8.345 -0.1489 -0.1167  1.2777
  484MOL0     H66787   0.122   4.349   8.301 -2.6081 -0.8386  0.8619
  484MOL0     H66788   0.327   4.732   8.292 -2.9637  3.5290 -2.6047
  484MOL0     H66789   0.516   4.229   8.577 -0.2969 -0.1404  0.2511
  484MOL0     H66790   0.758   4.264   8.426 -0.5619 -0.6335 -0.0442
  484MOL0     H66791   0.865   4.240   8.548 -0.3761 -0.5959 -0.3002
  484MOL0     H66792   0.712   4.138   8.539 -0.9248 -0.3111 -0.7080
  485MOL0     O66793  10.594   9.590   6.289 -0.2535 -0.3200  0.2476
  485MOL0     C66794  10.503   9.663   6.335  0.0979 -0.5480  0.2588
  485MOL0     O66795  10.513   9.788   6.380  0.5158 -0.2759  0.2180
  485MOL0     C66796  10.636   9.846   6.375  0.3677  0.5387 -0.1246
  485MOL0     C66797  10.665   9.921   6.268 -0.0972  0.5146  0.3226
  485MOL0     C66798  10.792   9.974   6.251  0.2265 -0.8505 -0.0210
  485MOL0     C66799  10.885   9.966   6.355 -0.3139 -0.2409 -0.2767
  485MOL0     O66800  11.002  10.029   6.366 -0.4240  0.7352  1.5563
  485MOL0     C66801  11.057  10.095   6.256 -0.1177  0.1296 -0.4426
  485MOL0     C66802  11.180  10.183   6.292  0.1434  0.0805  0.0195
  485MOL0     C66803  11.298  10.098   6.339 -0.1568  0.5205  0.5071
  485MOL0     C66804  11.406  10.181   6.405 -0.3559 -0.2308 -0.2350
  485MOL0     C66805  11.542  10.109   6.416  1.2421  0.9124  0.1159
  485MOL0     C66806  11.642  10.193   6.499 -0.1978 -0.2143  0.0806
  485MOL0     C66807  11.639  10.337   6.458  0.2613 -0.7987 -0.1075
  485MOL0     C66808  11.674  10.367   6.304 -0.8421 -0.2219  0.4374
  485MOL0     N66809  11.653  10.511   6.284 -0.6532 -0.5333 -0.3237
  485MOL0     C66810  11.536  10.583   6.275  0.8096  0.3078  1.2440
  485MOL0     C66811  11.569  10.713   6.259 -0.6653 -0.3744  0.2555
  485MOL0     C66812  11.470  10.828   6.237 -0.4604 -0.1731 -0.0538
  485MOL0     C66813  11.443  10.859   6.088 -0.0368  0.7323 -0.2688
  485MOL0     C66814  11.557  10.942   6.025 -0.1594  0.4935  0.1196
  485MOL0     C66815  11.533  10.978   5.876  0.6483  1.1129 -0.7145
  485MOL0     O66816  11.528  10.864   5.794 -0.7086 -0.0460 -0.3478
  485MOL0     C66817  11.459  10.845   5.680  0.3374  0.4479  0.9635
  485MOL0     C66818  11.436  10.945   5.581 -0.1556 -0.2038 -0.6332
  485MOL0     C66819  11.386  10.917   5.457 -0.4496  0.3568 -0.1655
  485MOL0     C66820  11.387  11.026   5.356 -1.3044 -0.3988  0.0193
  485MOL0     C66821  11.343  10.785   5.425 -0.5439 -0.1775  0.9787
  485MOL0     C66822  11.278  10.744   5.299  0.7680 -0.0950 -1.0770
  485MOL0     O66823  11.193  10.637   5.306  0.5496  0.6803 -0.1953
  485MOL0     C66824  11.154  10.563   5.197  0.3220  0.3875  0.4147
  485MOL0     C66825  11.107  10.438   5.223 -0.0826  0.2240 -0.0004
  485MOL0     C66826  11.058  10.355   5.124  0.5304  0.2464  0.9545
  485MOL0     C66827  11.053  10.403   4.987  0.2306 -0.5099 -0.3101
  485MOL0     O66828  10.985  10.347   4.877  0.2936  0.3694 -0.8374
  485MOL0     C66829  10.929  10.215   4.899  0.1017 -0.3620 -0.2408
  485MOL0     C66830  10.788  10.226   4.951  0.8796 -0.2722  0.7256
  485MOL0     C66831  10.758  10.095   5.030  0.9201 -0.1871  0.0872
  485MOL0     C66832  10.603  10.081   5.044 -0.3326  0.4047  0.7152
  485MOL0     C66833  10.569   9.934   5.085 -0.2802 -0.0136 -0.4994
  485MOL0     C66834  10.588   9.923   5.237 -1.3698 -0.1233 -0.0679
  485MOL0     C66835  10.511   9.806   5.307  0.5289  0.4453 -0.2531
  485MOL0     C66836  10.588   9.738   5.413  0.0080  0.4782 -0.5959
  485MOL0    Cl66837  10.616   9.874   5.535  0.5962 -0.3728  0.1774
  485MOL0     C66838  11.102  10.531   4.957  0.0532 -0.4888  0.6672
  485MOL0     C66839  11.159  10.607   5.058  0.1153  0.9343  0.7970
  485MOL0     O66840  11.324  10.793   5.193 -0.1280  0.0931  0.1402
  485MOL0     C66841  11.349  10.692   5.529 -1.1609  1.4592  0.4171
  485MOL0     C66842  11.419  10.714   5.648 -0.1586  0.7725  0.9024
  485MOL0     N66843  11.712  10.719   6.258 -0.0783  0.7353 -0.0110
  485MOL0     N66844  11.755  10.603   6.274  0.6943  0.2510  0.3703
  485MOL0     C66845  10.847   9.901   6.478  0.1775  1.0661  0.9409
  485MOL0     C66846  10.722   9.835   6.484 -0.5341  0.7158  0.0151
  485MOL0     C66847  10.367   9.614   6.325 -0.0817  0.8660  1.0117
  485MOL0     C66848  10.270   9.691   6.263 -0.6673  0.4215 -0.0637
  485MOL0     C66849  10.137   9.660   6.252  0.3408 -0.5257  0.3271
  485MOL0     C66850  10.099   9.536   6.309 -0.2234  0.2308  0.6469
  485MOL0     O66851   9.968   9.498   6.316  0.4647 -0.0411 -0.5143
  485MOL0     C66852   9.867   9.597   6.337 -0.4052 -0.7714 -0.0651
  485MOL0     C66853   9.741   9.528   6.398 -0.3607  0.7955  0.0121
  485MOL0     C66854   9.743   9.528   6.554 -0.3723 -0.1703  0.2392
  485MOL0     C66855   9.706   9.665   6.609 -0.4161 -0.1762 -0.0724
  485MOL0     C66856   9.710   9.673   6.756 -0.2273 -0.2941  0.3521
  485MOL0     C66857   9.712   9.660   6.880  0.5842 -0.1934  0.3801
  485MOL0     C66858  10.204   9.446   6.356  0.4812  0.3808 -0.1495
  485MOL0     C66859  10.337   9.481   6.371 -0.0053 -0.2453 -0.9799
  485MOL0     C66860  10.426   9.379   6.445 -0.5574  0.0168 -0.1354
  485MOL0     H66861  10.590   9.944   6.193 -0.6060  1.1508  1.0101
  485MOL0     H66862  10.807  10.041   6.168  0.8485 -0.1367  0.6418
  485MOL0     H66863  10.981  10.165   6.219 -0.6055  0.0857  0.4608
  485MOL0     H66864  11.088  10.025   6.178  0.0130  0.1234 -0.3846
  485MOL0     H66865  11.209  10.220   6.193 -4.9269  0.3654 -1.6361
  485MOL0     H66866  11.153  10.268   6.356  0.1470 -1.1649  1.7259
  485MOL0     H66867  11.260  10.028   6.414 -0.3999 -0.2463 -0.3183
  485MOL0     H66868  11.342  10.051   6.251 -3.4149 -0.0659 -0.9626
  485MOL0     H66869  11.405  10.268   6.339 -0.6174 -1.7288 -2.2934
  485MOL0     H66870  11.374  10.220   6.503  2.5744  1.0375  0.3109
  485MOL0     H66871  11.579  10.085   6.316  3.5182  1.1193  0.8578
  485MOL0     H66872  11.519  10.018   6.472 -0.1364  1.5249  0.5857
  485MOL0     H66873  11.607  10.193   6.603  1.1120  2.8696  0.6475
  485MOL0     H66874  11.742  10.147   6.500  0.4266  1.1040  0.2480
  485MOL0     H66875  11.717  10.386   6.517  1.1875  0.5932 -2.3527
  485MOL0     H66876  11.545  10.383   6.488  0.9237  1.3305 -1.0828
  485MOL0     H66877  11.780  10.351   6.280 -0.5915  0.6321  0.9108
  485MOL0     H66878  11.617  10.303   6.236  0.5878 -1.9016  0.7390
  485MOL0     H66879  11.435  10.544   6.284 -0.3354  2.9480  0.7218
  485MOL0     H66880  11.502  10.913   6.297 -1.2176 -1.1906  1.8914
  485MOL0     H66881  11.372  10.792   6.269  0.3664 -0.3318  2.5281
  485MOL0     H66882  11.431  10.766   6.032 -0.0192  0.0419  0.8366
  485MOL0     H66883  11.355  10.924   6.084 -1.5338 -0.8808  2.7855
  485MOL0     H66884  11.569  11.041   6.071  4.4088  1.2202 -2.0486
  485MOL0     H66885  11.656  10.896   6.033 -0.2893 -0.0267 -1.1292
  485MOL0     H66886  11.440  11.035   5.869  1.3518  2.3937  0.0954
  485MOL0     H66887  11.619  11.037   5.842  1.0704 -0.0426 -1.7521
  485MOL0     H66888  11.488  11.039   5.598  0.2190  0.5764 -5.0773
  485MOL0     H66889  11.302  11.029   5.288 -1.9309 -0.6586  0.7832
  485MOL0     H66890  11.479  11.018   5.296 -0.3587 -3.4181  1.6694
  485MOL0     H66891  11.389  11.121   5.410  1.1997 -0.8409  0.8636
  485MOL0     H66892  11.106  10.403   5.326  1.2932 -0.5431 -0.2386
  485MOL0     H66893  11.016  10.260   5.155  0.4344 -0.4729 -1.2444
  485MOL0     H66894  10.933  10.164   4.803 -1.0425 -1.1216  0.0921
  485MOL0     H66895  11.005  10.165   4.959  3.2594  2.5548 -1.4990
  485MOL0     H66896  10.783  10.307   5.024  0.2752 -1.2789  1.8521
  485MOL0     H66897  10.708  10.256   4.883  0.3689  1.8034  2.1631
  485MOL0     H66898  10.787  10.087   5.135  1.6765 -1.7458 -0.2056
  485MOL0     H66899  10.806  10.009   4.982  3.1636  1.8966 -1.6666
  485MOL0     H66900  10.545  10.112   4.956 -1.6464 -1.4378  0.8426
  485MOL0     H66901  10.572  10.153   5.119  2.7752  1.4314  1.1097
  485MOL0     H66902  10.463   9.923   5.063  0.2392 -0.7598 -2.8823
  485MOL0     H66903  10.626   9.860   5.029 -0.2799  0.4999 -1.1994
  485MOL0     H66904  10.550  10.016   5.280  1.5812  1.2116 -0.1658
  485MOL0     H66905  10.691   9.920   5.273 -0.6389  0.8470 -1.9062
  485MOL0     H66906  10.483   9.731   5.233 -1.5731 -0.0135  0.9124
  485MOL0     H66907  10.422   9.852   5.350  0.5341 -0.3855  0.6991
  485MOL0     H66908  10.686   9.722   5.366  1.2592  2.4507  1.1369
  485MOL0     H66909  10.548   9.646   5.458 -0.4486  1.9000  2.0808
  485MOL0     H66910  11.105  10.564   4.854  1.1213  0.8623  1.1044
  485MOL0     H66911  11.211  10.700   5.036  2.0654 -0.0160  1.1159
  485MOL0     H66912  11.304  10.595   5.512 -0.1615  0.9812  0.4422
  485MOL0     H66913  11.419  10.631   5.718  0.4753 -0.8470 -0.9277
  485MOL0     H66914  10.917   9.895   6.562  0.1378  0.5278  0.9406
  485MOL0     H66915  10.698   9.781   6.575 -0.4605  1.4190  0.4647
  485MOL0     H66916  10.300   9.789   6.228 -0.1370  1.7637  3.6348
  485MOL0     H66917  10.059   9.715   6.201 -0.4882 -1.3921  0.6355
  485MOL0     H66918   9.898   9.685   6.395 -2.7714  0.6278 -0.7734
  485MOL0     H66919   9.844   9.640   6.239 -1.1830 -1.0997 -0.0365
  485MOL0     H66920   9.747   9.425   6.361 -0.8749  0.8041 -0.0938
  485MOL0     H66921   9.655   9.585   6.363  0.2278  3.2349  2.1738
  485MOL0     H66922   9.666   9.457   6.587 -1.0677 -0.7471 -2.4343
  485MOL0     H66923   9.839   9.487   6.586  0.0275 -1.0968 -1.9543
  485MOL0     H66924   9.606   9.691   6.573  0.5420  1.3649 -1.7623
  485MOL0     H66925   9.776   9.741   6.573  0.9558 -0.5599  1.6053
  485MOL0     H66926   9.700   9.646   6.985 -2.0848 -0.0639  0.1503
  485MOL0     H66927  10.165   9.347   6.380  0.6994  0.8928  2.6881
  485MOL0     H66928  10.366   9.320   6.514 -3.3921  1.8331 -0.8961
  485MOL0     H66929  10.469   9.310   6.372  0.0255 -4.2944  3.7881
  485MOL0     H66930  10.508   9.424   6.504  0.6661 -0.9283 -1.0741
  486MOL0     O66931   0.479   3.637   9.627 -0.0574 -0.7209  0.7619
  486MOL0     C66932   0.504   3.692   9.738 -0.2200  0.9877 -0.3483
  486MOL0     O66933   0.624   3.675   9.803  0.0876 -0.4673  0.1729
  486MOL0     C66934   0.731   3.633   9.731  0.0736  0.4599  0.2685
  486MOL0     C66935   0.793   3.514   9.770  0.2203  0.2882 -0.3156
  486MOL0     C66936   0.892   3.451   9.691  0.0856  0.1395 -0.1012
  486MOL0     C66937   0.940   3.521   9.579 -0.5232  0.0729  0.9105
  486MOL0     O66938   1.047   3.472   9.503 -0.4877 -0.1109  0.5708
  486MOL0     C66939   1.024   3.329   9.472 -0.5207  0.1884  0.6971
  486MOL0     C66940   1.100   3.289   9.349  0.0697  0.7383  0.1264
  486MOL0     C66941   1.249   3.332   9.342 -0.7150 -0.5110 -0.1624
  486MOL0     C66942   1.317   3.272   9.219 -0.3685  0.2555 -0.3197
  486MOL0     C66943   1.453   3.325   9.224 -0.0710 -0.0847  0.3359
  486MOL0     C66944   1.541   3.274   9.112 -0.6402 -0.2436  1.0077
  486MOL0     C66945   1.682   3.331   9.116  0.4555 -0.3061 -0.8911
  486MOL0     C66946   1.692   3.484   9.092 -0.2825 -0.1530  0.3411
  486MOL0     N66947   1.628   3.517   8.964 -0.4265 -0.2520  0.0682
  486MOL0     C66948   1.688   3.520   8.846  0.2295  0.7072 -0.4795
  486MOL0     C66949   1.597   3.558   8.753 -0.0316 -0.5169  0.0113
  486MOL0     C66950   1.602   3.579   8.611  0.7193  1.0118  0.1975
  486MOL0     C66951   1.565   3.715   8.566  0.2986  0.4725  0.1474
  486MOL0     C66952   1.657   3.820   8.627 -0.2150 -0.6447 -0.0180
  486MOL0     C66953   1.601   3.960   8.608 -0.3310  0.5069 -0.4956
  486MOL0     O66954   1.686   4.047   8.530  0.7832  0.1024 -0.3523
  486MOL0     C66955   1.811   4.072   8.566  0.0512 -0.4353  1.0113
  486MOL0     C66956   1.894   4.137   8.468 -0.5034 -0.2727  0.0079
  486MOL0     C66957   2.031   4.161   8.496  0.6166  0.4534 -0.6378
  486MOL0     C66958   2.116   4.227   8.391  0.6126 -0.3538 -0.6966
  486MOL0     C66959   2.082   4.124   8.626  0.9365 -0.0488  0.3996
  486MOL0     C66960   2.216   4.166   8.679  0.9165 -0.1075  0.3890
  486MOL0     O66961   2.314   4.203   8.588  0.2725  0.8180 -0.7763
  486MOL0     C66962   2.453   4.237   8.609  0.6145 -1.0673  0.2264
  486MOL0     C66963   2.513   4.251   8.732  1.5118 -0.1701  0.2698
  486MOL0     C66964   2.647   4.274   8.745 -0.0874  0.6271 -0.0509
  486MOL0     C66965   2.730   4.305   8.636  0.5584  0.1261 -0.2571
  486MOL0     O66966   2.863   4.338   8.636  0.1497 -0.0982  0.0426
  486MOL0     C66967   2.934   4.329   8.761  0.0576 -0.2190 -0.0725
  486MOL0     C66968   2.971   4.175   8.791 -0.1910  0.3499  0.2704
  486MOL0     C66969   3.076   4.124   8.700  0.1624 -0.8360  0.2079
  486MOL0     C66970   3.212   4.196   8.707  0.0741  0.5473 -0.7390
  486MOL0     C66971   3.325   4.110   8.656  0.1749 -0.4105  0.9787
  486MOL0     C66972   3.463   4.164   8.708  0.1914 -0.4360  0.0783
  486MOL0     C66973   3.513   4.269   8.619  0.7406  0.5746  0.0075
  486MOL0     C66974   3.645   4.315   8.675  0.1864 -0.2177 -0.0566
  486MOL0    Cl66975   3.684   4.474   8.607  0.1546 -0.4793  0.8298
  486MOL0     C66976   2.664   4.307   8.517  0.3006 -0.0614  0.8132
  486MOL0     C66977   2.532   4.278   8.504 -0.7609 -0.9392 -1.0254
  486MOL0     O66978   2.228   4.160   8.802  0.0587  0.6300  0.0020
  486MOL0     C66979   1.993   4.058   8.722  0.7646 -0.6392 -0.0674
  486MOL0     C66980   1.861   4.041   8.691  0.7746 -0.6523  0.3515
  486MOL0     N66981   1.478   3.578   8.823  0.2216 -0.1297 -0.4693
  486MOL0     N66982   1.498   3.553   8.951  0.4638  0.4055  0.6586
  486MOL0     C66983   0.881   3.649   9.546 -0.5881  0.9124  0.6229
  486MOL0     C66984   0.774   3.701   9.615  0.2515 -0.1800 -0.4595
  486MOL0     C66985   0.400   3.788   9.808 -0.1396  0.4043  0.3879
  486MOL0     C66986   0.290   3.837   9.735 -0.0465 -0.4318  0.3194
  486MOL0     C66987   0.207   3.940   9.792 -0.1168  0.9803  1.2946
  486MOL0     C66988   0.220   3.988   9.918 -0.1921  0.0465 -0.0208
  486MOL0     O66989   0.132   4.075   9.973  0.2022 -0.3123 -0.6555
  486MOL0     C66990  -0.003   4.089   9.925  0.6168  0.3265  0.3270
  486MOL0     C66991  -0.088   4.207   9.992 -0.3918 -0.1390 -0.1030
  486MOL0     C66992  -0.105   4.186  10.137 -0.1941  0.7002  0.2219
  486MOL0     C66993  -0.236   4.222  10.197 -0.4044  1.0201  0.2201
  486MOL0     C66994  -0.265   4.363  10.164 -0.7106  0.7219 -0.6177
  486MOL0     C66995  -0.279   4.478  10.135 -0.1868 -0.5275 -0.1549
  486MOL0     C66996   0.328   3.945   9.986  0.0075  0.0195 -0.6000
  486MOL0     C66997   0.416   3.846   9.939  0.6546 -0.8633 -1.0072
  486MOL0     C66998   0.527   3.806  10.039 -0.2562 -0.3125 -0.2790
  486MOL0     H66999   0.767   3.462   9.861  0.4531  1.4713  0.4426
  486MOL0     H67000   0.931   3.356   9.724 -0.7348  0.5538  2.2702
  486MOL0     H67001   0.916   3.311   9.468 -0.1798 -2.1977  0.2187
  486MOL0     H67002   1.058   3.265   9.555 -2.6352  0.6998  2.0658
  486MOL0     H67003   1.090   3.180   9.346 -0.3163  0.7734 -3.0568
  486MOL0     H67004   1.052   3.328   9.259  0.8349 -1.3962 -1.2747
  486MOL0     H67005   1.263   3.440   9.343  3.0338 -0.8388 -0.9586
  486MOL0     H67006   1.301   3.296   9.432 -2.1982 -1.3541  0.3908
  486MOL0     H67007   1.312   3.163   9.227 -2.8721  0.4587  1.9554
  486MOL0     H67008   1.269   3.304   9.125  2.0029  0.2187 -1.6325
  486MOL0     H67009   1.502   3.310   9.320 -0.2779 -0.0211  0.4520
  486MOL0     H67010   1.458   3.435   9.219  1.4144 -0.1392  0.1191
  486MOL0     H67011   1.550   3.165   9.108 -1.9386 -0.3374 -1.3227
  486MOL0     H67012   1.503   3.305   9.014  0.9744  1.2067  0.7977
  486MOL0     H67013   1.744   3.285   9.039  3.3467  0.9086  0.5743
  486MOL0     H67014   1.726   3.313   9.214 -2.6451 -0.2007  0.6577
  486MOL0     H67015   1.644   3.538   9.174 -3.4329  2.4275 -2.8423
  486MOL0     H67016   1.799   3.505   9.085 -0.8013  3.0130  0.5637
  486MOL0     H67017   1.785   3.479   8.821 -0.5653 -2.4506  0.9656
  486MOL0     H67018   1.533   3.508   8.562  0.4426 -0.4340  2.5528
  486MOL0     H67019   1.703   3.552   8.578  0.7706 -1.9382  2.3781
  486MOL0     H67020   1.564   3.712   8.457  0.2048  1.3462  0.1199
  486MOL0     H67021   1.466   3.736   8.609 -0.5872 -0.7948 -1.1968
  486MOL0     H67022   1.666   3.803   8.735  0.7163 -0.8947 -0.1270
  486MOL0     H67023   1.755   3.813   8.580 -0.5089  0.8558 -0.9297
  486MOL0     H67024   1.498   3.962   8.571  0.1954 -1.1646 -2.2273
  486MOL0     H67025   1.591   3.999   8.710 -1.4659 -2.1317  0.4875
  486MOL0     H67026   1.858   4.161   8.368 -1.7409 -0.0463  0.4941
  486MOL0     H67027   2.186   4.307   8.416 -0.5437  0.3429  0.4480
  486MOL0     H67028   2.048   4.262   8.313 -2.1677 -0.9088  1.2862
  486MOL0     H67029   2.198   4.165   8.354 -0.0382 -0.8452 -1.3437
  486MOL0     H67030   2.447   4.248   8.817 -0.1819 -0.8436 -1.0057
  486MOL0     H67031   2.680   4.262   8.848  0.9685 -0.6751 -0.5148
  486MOL0     H67032   3.021   4.392   8.743 -0.5905  0.4880 -0.8519
  486MOL0     H67033   2.887   4.375   8.848 -0.0317 -2.6874  1.2884
  486MOL0     H67034   3.005   4.172   8.895  1.9879  2.4351 -0.3043
  486MOL0     H67035   2.882   4.112   8.780  0.3037 -0.1163 -1.1583
  486MOL0     H67036   3.047   4.137   8.596  2.2667 -1.3320 -0.4905
  486MOL0     H67037   3.096   4.019   8.724 -0.6221 -0.7450  1.3348
  486MOL0     H67038   3.222   4.198   8.816 -4.3001 -1.6285 -0.0747
  486MOL0     H67039   3.206   4.292   8.656 -1.0671  1.5636  1.1715
  486MOL0     H67040   3.306   4.021   8.717  1.1586  0.1379  2.1389
  486MOL0     H67041   3.309   4.094   8.549 -0.5694  2.9151  0.4557
  486MOL0     H67042   3.533   4.080   8.706  0.0936 -0.5671 -3.1469
  486MOL0     H67043   3.455   4.194   8.813  0.0014 -0.9128  0.2035
  486MOL0     H67044   3.438   4.348   8.618 -2.6523 -2.3705 -0.6068
  486MOL0     H67045   3.518   4.227   8.518  1.2704  0.1064  0.2156
  486MOL0     H67046   3.723   4.247   8.641  0.5313  0.0158  0.2442
  486MOL0     H67047   3.641   4.321   8.784  1.4130 -1.1043  0.0499
  486MOL0     H67048   2.724   4.336   8.431 -2.4510  3.1523 -0.2705
  486MOL0     H67049   2.491   4.275   8.403  2.8339 -2.8477 -2.6045
  486MOL0     H67050   2.034   4.030   8.819 -0.7477 -2.2910  0.1530
  486MOL0     H67051   1.803   3.998   8.773  0.8566  0.5515  1.0673
  486MOL0     H67052   0.936   3.692   9.462 -1.0997  1.1464  0.4046
  486MOL0     H67053   0.722   3.789   9.581  1.2316  0.5252 -0.1778
  486MOL0     H67054   0.275   3.798   9.635 -0.1365  0.4157  0.0026
  486MOL0     H67055   0.128   3.981   9.731 -1.3848  1.9596  3.4631
  486MOL0     H67056  -0.003   4.104   9.817  1.7196  0.8306  0.3889
  486MOL0     H67057  -0.055   3.995   9.947 -0.7092  1.0965  0.6624
  486MOL0     H67058  -0.188   4.220   9.950 -0.1144 -0.8386 -1.0192
  486MOL0     H67059  -0.027   4.297   9.982 -0.5968 -0.1609 -1.7181
  486MOL0     H67060  -0.088   4.080  10.160  1.2351  0.8818  0.0998
  486MOL0     H67061  -0.031   4.235  10.200  1.0279 -2.2413  1.2737
  486MOL0     H67062  -0.236   4.200  10.304 -3.4922 -3.0292 -0.3499
  486MOL0     H67063  -0.315   4.155  10.161  1.4818 -1.8427  1.0902
  486MOL0     H67064  -0.287   4.583  10.115  1.2704 -0.7207 -1.9688
  486MOL0     H67065   0.339   3.985  10.086  1.4513  0.9713 -1.1089
  486MOL0     H67066   0.505   3.844  10.139  2.6500 -0.5773  0.5497
  486MOL0     H67067   0.539   3.697  10.050  1.0566 -0.1798 -0.1513
  486MOL0     H67068   0.625   3.843  10.008 -0.5752 -1.3740 -2.7897
  487MOL0     O67069   9.678   4.132   3.650 -0.1165 -0.2175  0.4555
  487MOL0     C67070   9.748   4.091   3.556 -0.5841 -0.2993  0.1326
  487MOL0     O67071   9.885   4.062   3.561  0.4215  0.2769 -0.0190
  487MOL0     C67072   9.946   4.037   3.682  0.0141  0.1104 -0.6683
  487MOL0     C67073  10.064   4.104   3.722 -0.1470  0.4613 -0.2736
  487MOL0     C67074  10.118   4.076   3.842 -0.0088 -0.0374  0.5586
  487MOL0     C67075  10.058   3.977   3.921 -0.0155  0.3345 -0.1543
  487MOL0     O67076  10.110   3.955   4.049 -0.4356  0.7767 -0.0531
  487MOL0     C67077  10.207   3.855   4.030 -0.0561  0.5095 -0.7448
  487MOL0     C67078  10.267   3.833   4.166  0.9507 -0.2019  0.1882
  487MOL0     C67079  10.319   3.954   4.245 -0.0485 -0.6661 -0.1106
  487MOL0     C67080  10.405   4.048   4.170 -0.0814  0.0711  0.0719
  487MOL0     C67081  10.472   4.138   4.259 -0.2481 -0.2141 -1.1489
  487MOL0     C67082  10.543   4.247   4.175 -0.1850  0.2105  0.3251
  487MOL0     C67083  10.672   4.295   4.234 -0.2899 -0.7369 -0.4013
  487MOL0     C67084  10.752   4.401   4.163 -0.1472  0.0074  0.5626
  487MOL0     N67085  10.686   4.532   4.151  0.0376  0.6577 -0.2105
  487MOL0     C67086  10.579   4.586   4.216 -0.2575  0.2366  0.5885
  487MOL0     C67087  10.576   4.709   4.167  0.2193 -0.5129  0.0278
  487MOL0     C67088  10.471   4.809   4.213  0.9832 -0.4395  0.8639
  487MOL0     C67089  10.495   4.880   4.346 -0.0278 -0.5723 -0.4970
  487MOL0     C67090  10.422   5.023   4.343  0.0385  0.9144 -0.0666
  487MOL0     C67091  10.468   5.120   4.231 -0.1897 -0.2566 -0.7277
  487MOL0     O67092  10.604   5.088   4.206  0.5548  0.6971 -0.4688
  487MOL0     C67093  10.700   5.175   4.239 -0.3682 -0.4070 -0.3487
  487MOL0     C67094  10.761   5.256   4.142  0.4010  1.1954  0.6764
  487MOL0     C67095  10.873   5.336   4.177  0.0252 -0.4533 -0.3023
  487MOL0     C67096  10.959   5.403   4.064 -0.2106  0.7808 -0.5963
  487MOL0     C67097  10.912   5.349   4.314  0.6764  0.0523  0.6520
  487MOL0     C67098  11.029   5.417   4.369 -0.0947 -0.2392 -0.0033
  487MOL0     O67099  11.145   5.410   4.292  0.3610  0.0779 -0.6810
  487MOL0     C67100  11.247   5.485   4.342 -0.7427  0.7467 -0.2853
  487MOL0     C67101  11.300   5.474   4.472 -0.2846  0.6721 -0.2930
  487MOL0     C67102  11.421   5.544   4.516  0.1820 -0.3949 -0.4344
  487MOL0     C67103  11.476   5.640   4.424 -0.3612  0.2118  0.1899
  487MOL0     O67104  11.573   5.739   4.450  0.1894 -0.5345  0.3307
  487MOL0     C67105  11.689   5.691   4.508 -0.0068  0.0490 -0.1205
  487MOL0     C67106  11.809   5.770   4.449  0.1325  0.0108 -1.0236
  487MOL0     C67107  11.824   5.746   4.301  0.7739  1.0022 -0.0402
  487MOL0     C67108  11.955   5.806   4.254  0.0501 -0.3701  0.2682
  487MOL0     C67109  11.971   5.775   4.101  0.2721  0.0786 -0.2429
  487MOL0     C67110  12.085   5.865   4.025 -0.4954  0.2386 -0.2192
  487MOL0     C67111  12.029   6.006   3.998 -0.1376 -0.1749 -0.6593
  487MOL0     C67112  12.114   6.079   3.893  0.5140  0.0914 -0.5314
  487MOL0    Cl67113  12.275   6.118   3.967 -0.3136 -0.4165  0.3302
  487MOL0     C67114  11.422   5.654   4.299 -0.5577  0.0499 -0.3813
  487MOL0     C67115  11.303   5.579   4.257  0.0735 -0.0915 -0.0143
  487MOL0     O67116  11.024   5.472   4.476  0.4537 -0.4632  0.2502
  487MOL0     C67117  10.845   5.262   4.409 -0.5183 -1.2676  0.2351
  487MOL0     C67118  10.743   5.178   4.372 -0.8166  0.1732 -0.1622
  487MOL0     N67119  10.675   4.742   4.084 -0.4852  0.2118 -0.4773
  487MOL0     N67120  10.743   4.631   4.079 -0.2825 -0.8166 -0.1560
  487MOL0     C67121   9.938   3.916   3.888 -0.9220  0.0272  0.6172
  487MOL0     C67122   9.882   3.949   3.771  0.9008  0.1707 -0.3065
  487MOL0     C67123   9.697   4.091   3.419 -0.1087 -0.3693  0.8007
  487MOL0     C67124   9.781   4.124   3.311 -0.2672 -0.2105  0.1007
  487MOL0     C67125   9.736   4.129   3.183  0.7460  0.1361 -0.3802
  487MOL0     C67126   9.602   4.098   3.155  1.2830 -0.3370  0.2612
  487MOL0     O67127   9.556   4.124   3.029  0.1597  0.4386  0.2379
  487MOL0     C67128   9.418   4.156   3.010 -0.0839  0.4887  0.3356
  487MOL0     C67129   9.396   4.219   2.867  0.3102  1.0370 -0.1567
  487MOL0     C67130   9.476   4.354   2.863  0.2032  0.7907 -1.0806
  487MOL0     C67131   9.443   4.442   2.738 -0.6366 -0.1171 -0.9247
  487MOL0     C67132   9.523   4.398   2.620 -0.3837  0.0799 -0.4377
  487MOL0     C67133   9.591   4.347   2.539  0.3731  0.4182  1.0589
  487MOL0     C67134   9.523   4.043   3.257  0.4827  0.6051  1.2064
  487MOL0     C67135   9.570   4.035   3.386  0.1112 -0.5692 -0.3583
  487MOL0     C67136   9.498   3.951   3.480 -0.9448  0.7863 -0.4531
  487MOL0     H67137  10.099   4.178   3.651 -2.5653 -0.3827 -2.4952
  487MOL0     H67138  10.213   4.121   3.867  1.1119 -1.1979 -1.3504
  487MOL0     H67139  10.290   3.884   3.965 -0.8762  1.7433 -1.2738
  487MOL0     H67140  10.152   3.768   3.992  0.7112 -0.1988 -0.2792
  487MOL0     H67141  10.199   3.784   4.236  0.2899  2.2360  1.3641
  487MOL0     H67142  10.343   3.755   4.159 -1.5160 -2.7900  0.4253
  487MOL0     H67143  10.231   4.004   4.285 -1.4511 -2.3052 -0.9980
  487MOL0     H67144  10.373   3.909   4.329 -2.9318 -0.1061  2.1933
  487MOL0     H67145  10.480   3.990   4.115  0.3945  1.1993 -0.4914
  487MOL0     H67146  10.349   4.100   4.092  1.4988 -2.8186 -3.2897
  487MOL0     H67147  10.543   4.074   4.311 -2.6916 -2.5293 -0.4694
  487MOL0     H67148  10.410   4.192   4.332 -1.1268  0.5766 -2.4400
  487MOL0     H67149  10.568   4.203   4.078 -1.0332  1.0465 -0.2950
  487MOL0     H67150  10.470   4.328   4.170  0.0262  0.8328  4.1196
  487MOL0     H67151  10.744   4.215   4.249 -0.1590 -0.3712  1.0433
  487MOL0     H67152  10.645   4.332   4.334  0.0910  1.1826 -0.9745
  487MOL0     H67153  10.852   4.413   4.207  0.3379  0.0438 -0.5144
  487MOL0     H67154  10.776   4.371   4.061 -1.5652  1.1689 -0.1428
  487MOL0     H67155  10.518   4.535   4.290  0.1144 -1.3698 -0.1698
  487MOL0     H67156  10.375   4.757   4.222  0.4515 -0.5898 -3.5022
  487MOL0     H67157  10.453   4.880   4.132  0.7074 -2.8589 -1.3405
  487MOL0     H67158  10.443   4.822   4.422 -0.1495 -1.5949 -1.3347
  487MOL0     H67159  10.603   4.887   4.362  0.0045 -1.4958 -0.2387
  487MOL0     H67160  10.317   5.001   4.326  0.1614 -0.4090  0.7760
  487MOL0     H67161  10.445   5.060   4.444  1.0907 -2.4127  1.0528
  487MOL0     H67162  10.410   5.096   4.142 -0.9221 -1.9573  0.1542
  487MOL0     H67163  10.451   5.223   4.264 -0.5244 -0.0275 -1.5922
  487MOL0     H67164  10.728   5.254   4.039  2.3542  2.6548 -0.0592
  487MOL0     H67165  11.050   5.348   4.038  0.8579  1.7876  0.8460
  487MOL0     H67166  10.992   5.504   4.091  2.3009  0.0654 -0.7943
  487MOL0     H67167  10.903   5.410   3.970  0.2835 -0.4964 -1.0078
  487MOL0     H67168  11.257   5.390   4.526  2.6341 -1.8530 -1.5827
  487MOL0     H67169  11.467   5.540   4.614 -2.8242  0.7975  1.1806
  487MOL0     H67170  11.697   5.692   4.617  2.8728 -1.2060 -0.2230
  487MOL0     H67171  11.714   5.586   4.487  0.0359  0.2122 -0.9412
  487MOL0     H67172  11.790   5.872   4.482 -1.4723  0.0649 -2.0049
  487MOL0     H67173  11.903   5.736   4.493  0.3484 -0.1588 -1.6137
  487MOL0     H67174  11.741   5.804   4.258  0.2743  1.6931  1.7738
  487MOL0     H67175  11.819   5.640   4.274  0.3561  1.0577 -0.1932
  487MOL0     H67176  12.039   5.778   4.317  2.2185 -2.2247 -3.1420
  487MOL0     H67177  11.949   5.914   4.271 -0.4917 -0.6027  1.6847
  487MOL0     H67178  11.995   5.668   4.093 -2.0225 -0.3879 -1.7612
  487MOL0     H67179  11.874   5.793   4.053 -3.4698 -5.6717  3.8205
  487MOL0     H67180  12.113   5.820   3.929  3.3037 -0.1707  0.9416
  487MOL0     H67181  12.186   5.870   4.065  1.0219 -2.9150 -3.1226
  487MOL0     H67182  12.028   6.065   4.090 -0.8387 -1.4073  0.1465
  487MOL0     H67183  11.927   5.987   3.966  0.3976 -0.6571 -2.1564
  487MOL0     H67184  12.066   6.173   3.866  1.3037  0.4705 -0.6435
  487MOL0     H67185  12.124   6.015   3.805  2.2583 -1.2435  0.5717
  487MOL0     H67186  11.465   5.721   4.226  1.3776 -1.2075 -0.4422
  487MOL0     H67187  11.261   5.587   4.157  1.7482 -0.8214 -0.8041
  487MOL0     H67188  10.882   5.263   4.511  1.3664 -0.3506 -0.4078
  487MOL0     H67189  10.701   5.113   4.448  2.8964 -1.4727  0.7077
  487MOL0     H67190   9.893   3.845   3.958 -1.4320  0.5774  0.8602
  487MOL0     H67191   9.792   3.899   3.736  2.1549 -0.7147 -2.4956
  487MOL0     H67192   9.885   4.147   3.329  0.3621 -3.0641  0.5575
  487MOL0     H67193   9.802   4.170   3.107  1.3629 -0.2229 -0.0457
  487MOL0     H67194   9.362   4.062   3.021  1.4497 -0.5450 -0.2515
  487MOL0     H67195   9.383   4.226   3.086  0.6574  3.2533 -1.7478
  487MOL0     H67196   9.289   4.243   2.864 -0.6332 -2.5802 -0.1939
  487MOL0     H67197   9.420   4.144   2.791 -0.4002  2.3345 -1.7326
  487MOL0     H67198   9.455   4.426   2.943  0.1395 -0.4301  0.0319
  487MOL0     H67199   9.580   4.318   2.867  0.3669  1.3153 -0.1022
  487MOL0     H67200   9.469   4.548   2.750 -0.2970 -0.3168  0.2533
  487MOL0     H67201   9.339   4.452   2.706 -2.1607  1.2355  3.5802
  487MOL0     H67202   9.642   4.300   2.457  0.9921 -0.0074  1.6718
  487MOL0     H67203   9.426   4.015   3.218  0.6608 -1.7683  2.3158
  487MOL0     H67204   9.429   4.009   3.541  0.1999 -0.3519  2.0978
  487MOL0     H67205   9.437   3.882   3.421 -1.5475  2.9350 -2.5084
  487MOL0     H67206   9.569   3.895   3.542 -2.5766  0.9317  1.6313
  488MOL0     O67207   5.151   1.624   1.418  0.0091  0.6717 -0.6435
  488MOL0     C67208   5.250   1.552   1.396  0.1844 -0.0376 -0.0839
  488MOL0     O67209   5.249   1.428   1.334  0.3429 -0.5489  0.1407
  488MOL0     C67210   5.132   1.378   1.268 -0.2437  0.2443 -0.4395
  488MOL0     C67211   5.046   1.452   1.185 -0.1338  0.3183  0.5506
  488MOL0     C67212   4.941   1.380   1.117 -0.1366  0.3076 -0.4988
  488MOL0     C67213   4.931   1.241   1.128  0.1282  0.2147  0.2439
  488MOL0     O67214   4.848   1.173   1.039 -0.1208  0.2859 -0.1904
  488MOL0     C67215   4.724   1.121   1.091  0.2357  0.1580 -0.2836
  488MOL0     C67216   4.647   1.068   0.976  0.0808 -0.9886 -0.0429
  488MOL0     C67217   4.642   1.159   0.850 -0.5903 -0.0837  0.3043
  488MOL0     C67218   4.540   1.082   0.761 -1.0572  0.5828  0.1607
  488MOL0     C67219   4.523   1.154   0.629  0.5993 -0.6150  0.6834
  488MOL0     C67220   4.430   1.074   0.531 -0.4678  0.3963  0.1839
  488MOL0     C67221   4.439   1.130   0.388 -0.2202  0.2606  0.3506
  488MOL0     C67222   4.337   1.069   0.300 -0.1773 -0.3548  0.3384
  488MOL0     N67223   4.382   0.937   0.245 -0.2751  0.4135 -0.1296
  488MOL0     C67224   4.394   0.818   0.313 -0.4496  0.2337 -0.3471
  488MOL0     C67225   4.435   0.730   0.224 -0.2665 -0.9271 -0.2547
  488MOL0     C67226   4.467   0.584   0.260 -0.4867  0.0506 -0.1178
  488MOL0     C67227   4.600   0.568   0.316  0.3283 -0.0332 -0.3194
  488MOL0     C67228   4.621   0.578   0.473 -0.2843  0.3306  0.5778
  488MOL0     C67229   4.761   0.534   0.526  0.1006 -0.5538 -0.2142
  488MOL0     O67230   4.762   0.557   0.665  0.6908 -0.1867 -0.2129
  488MOL0     C67231   4.879   0.577   0.731 -0.2468 -1.3001  0.5735
  488MOL0     C67232   4.873   0.654   0.848 -0.3047  0.7068 -0.4465
  488MOL0     C67233   4.984   0.680   0.926  0.2074  0.5481 -1.2916
  488MOL0     C67234   4.962   0.772   1.041 -0.5150  0.3881  0.2325
  488MOL0     C67235   5.103   0.629   0.887 -0.7349 -0.6112 -0.0988
  488MOL0     C67236   5.226   0.645   0.961 -0.1658  0.1553 -0.9340
  488MOL0     O67237   5.326   0.710   0.890  0.4774  0.3233  0.2521
  488MOL0     C67238   5.460   0.697   0.931  0.1411 -0.2469  0.2302
  488MOL0     C67239   5.559   0.652   0.836  0.2616 -0.2283  1.2124
  488MOL0     C67240   5.690   0.634   0.885 -0.4708  0.6867 -1.2569
  488MOL0     C67241   5.729   0.645   1.025 -0.1656 -0.5689  0.7887
  488MOL0     O67242   5.844   0.592   1.069  0.3838 -0.5240  1.1040
  488MOL0     C67243   5.873   0.583   1.209 -0.5201 -0.2965 -0.4186
  488MOL0     C67244   6.012   0.535   1.229 -0.0577  0.3559 -0.1530
  488MOL0     C67245   6.042   0.500   1.374  0.3325 -0.0447  0.1767
  488MOL0     C67246   6.179   0.420   1.381  0.7861 -0.7478  0.7260
  488MOL0     C67247   6.188   0.361   1.515  0.6447 -0.5881 -0.1995
  488MOL0     C67248   6.324   0.294   1.548  0.1749 -0.6061  0.1100
  488MOL0     C67249   6.325   0.205   1.670  0.4002  0.0803 -1.0616
  488MOL0     C67250   6.267   0.066   1.645  0.0123  0.3820 -0.0356
  488MOL0    Cl67251   6.377  -0.061   1.577 -0.1303 -0.2783 -0.1618
  488MOL0     C67252   5.631   0.705   1.106 -0.1766 -0.8176  0.3629
  488MOL0     C67253   5.498   0.724   1.062 -0.0347 -0.6083  0.4363
  488MOL0     O67254   5.242   0.581   1.064 -0.1629  0.1511 -0.4280
  488MOL0     C67255   5.119   0.555   0.768  0.4240  0.9485  0.5990
  488MOL0     C67256   5.010   0.545   0.684  0.5555 -0.3268  0.4981
  488MOL0     N67257   4.458   0.790   0.101 -0.5734  0.1405 -0.4729
  488MOL0     N67258   4.433   0.913   0.117 -0.7041 -0.2496  0.5864
  488MOL0     C67259   5.010   1.179   1.227 -0.2103  0.0662 -0.2027
  488MOL0     C67260   5.105   1.247   1.294 -0.3294  0.2600  0.3081
  488MOL0     C67261   5.386   1.603   1.437 -0.4429  1.2396 -0.0436
  488MOL0     C67262   5.504   1.519   1.432  0.0025  0.3763 -0.2718
  488MOL0     C67263   5.636   1.564   1.471  0.8835 -0.2146 -0.6632
  488MOL0     C67264   5.643   1.685   1.522 -0.0999  0.0570  0.9040
  488MOL0     O67265   5.771   1.713   1.558  0.1398  0.3014 -0.1104
  488MOL0     C67266   5.804   1.843   1.605  0.0354  1.0329 -0.1223
  488MOL0     C67267   5.950   1.871   1.641 -1.3384 -0.1335  0.1818
  488MOL0     C67268   6.013   1.744   1.703 -0.0598  0.1690 -0.1860
  488MOL0     C67269   6.154   1.770   1.769  0.0598  1.2557  0.0230
  488MOL0     C67270   6.252   1.850   1.688  0.7695 -0.2156  0.2452
  488MOL0     C67271   6.318   1.934   1.633  0.0486 -0.1122 -0.5681
  488MOL0     C67272   5.534   1.766   1.532  0.7467 -0.3945  0.9236
  488MOL0     C67273   5.408   1.733   1.494 -0.0689  0.1308  0.2905
  488MOL0     C67274   5.301   1.837   1.523 -0.5186  0.3803 -0.5907
  488MOL0     H67275   5.058   1.557   1.162 -1.2229  0.2153 -0.5331
  488MOL0     H67276   4.886   1.428   1.037 -1.0584 -1.4297 -0.9589
  488MOL0     H67277   4.669   1.193   1.151  0.2483 -0.5131  0.5566
  488MOL0     H67278   4.731   1.035   1.158  0.7667  1.5203  1.4863
  488MOL0     H67279   4.690   0.971   0.950  0.2347 -0.8272 -0.3905
  488MOL0     H67280   4.547   1.067   1.021 -1.5641  2.0967 -3.1881
  488MOL0     H67281   4.622   1.264   0.876  2.6565  0.9990 -0.9989
  488MOL0     H67282   4.739   1.155   0.799 -0.2974 -0.2281  0.8636
  488MOL0     H67283   4.567   0.979   0.738 -1.9735  0.5714 -0.9515
  488MOL0     H67284   4.446   1.075   0.817 -0.2715 -3.0237  1.2585
  488MOL0     H67285   4.617   1.186   0.584 -0.8031  2.4419 -0.2982
  488MOL0     H67286   4.471   1.248   0.649  2.3856  0.0808  2.2449
  488MOL0     H67287   4.455   0.968   0.538  2.4467  0.9267 -0.9717
  488MOL0     H67288   4.324   1.068   0.559 -1.0106  2.1530 -1.2989
  488MOL0     H67289   4.538   1.116   0.344 -0.1207  0.0228  0.6517
  488MOL0     H67290   4.428   1.238   0.398 -1.0647 -0.0477  4.5188
  488MOL0     H67291   4.242   1.059   0.354 -0.2073 -1.4102  0.1121
  488MOL0     H67292   4.320   1.130   0.211 -1.1929 -1.3901 -0.2111
  488MOL0     H67293   4.355   0.804   0.414 -0.6811  2.0299 -0.1694
  488MOL0     H67294   4.459   0.530   0.165  2.3911  1.1930 -1.1005
  488MOL0     H67295   4.396   0.541   0.332  2.2159 -0.7553  2.2596
  488MOL0     H67296   4.635   0.469   0.285 -2.1463 -0.4218 -2.0709
  488MOL0     H67297   4.668   0.643   0.275  1.7467 -0.8144  0.4878
  488MOL0     H67298   4.608   0.681   0.508 -1.2519  0.7696 -0.9982
  488MOL0     H67299   4.542   0.514   0.514  1.0456 -0.7125  1.6443
  488MOL0     H67300   4.769   0.431   0.489  2.0097  0.5434 -3.2849
  488MOL0     H67301   4.835   0.593   0.471 -1.9398  0.9700 -1.4927
  488MOL0     H67302   4.779   0.705   0.867 -1.2524 -0.7729 -1.0303
  488MOL0     H67303   5.048   0.836   1.062 -0.3991  0.5781 -0.7942
  488MOL0     H67304   4.940   0.707   1.126  1.8317 -0.2002  0.4584
  488MOL0     H67305   4.881   0.838   1.010 -1.5532 -0.8745  0.1782
  488MOL0     H67306   5.520   0.620   0.740  1.2344 -1.0602  1.0723
  488MOL0     H67307   5.771   0.603   0.820 -0.1382  0.3846 -0.7089
  488MOL0     H67308   5.856   0.683   1.250 -3.9338 -0.1343 -1.8528
  488MOL0     H67309   5.803   0.521   1.266  0.7745 -1.9146 -0.5276
  488MOL0     H67310   6.024   0.445   1.167  0.7741 -0.3774  1.0360
  488MOL0     H67311   6.081   0.614   1.199  0.7935 -0.8345 -1.4558
  488MOL0     H67312   5.959   0.447   1.420  1.8733  0.0951  3.4109
  488MOL0     H67313   6.051   0.591   1.434  0.9546 -0.0303  0.0769
  488MOL0     H67314   6.255   0.499   1.377  1.0402 -0.9510  1.3762
  488MOL0     H67315   6.180   0.353   1.295  0.1619  1.7980 -1.4053
  488MOL0     H67316   6.162   0.433   1.593  2.2677  1.1486 -1.1957
  488MOL0     H67317   6.103   0.293   1.529 -0.3430  0.8883  1.2820
  488MOL0     H67318   6.404   0.367   1.567 -0.1150 -0.3245  0.2558
  488MOL0     H67319   6.358   0.247   1.455  0.6077 -0.6953  0.3097
  488MOL0     H67320   6.273   0.262   1.747 -1.1829 -1.8516 -0.6336
  488MOL0     H67321   6.427   0.188   1.706 -0.6915 -2.3730  1.1753
  488MOL0     H67322   6.169   0.083   1.599 -0.8610  2.2650  2.3024
  488MOL0     H67323   6.241   0.019   1.741  0.1192 -4.6459 -2.1431
  488MOL0     H67324   5.653   0.713   1.212  0.3756  0.5681  0.1649
  488MOL0     H67325   5.424   0.753   1.136 -0.0009  0.0367  0.2274
  488MOL0     H67326   5.210   0.511   0.727  0.1734  1.0884 -0.1242
  488MOL0     H67327   5.018   0.489   0.592  0.2919  1.3819 -0.5920
  488MOL0     H67328   5.001   1.075   1.257  3.7439 -0.6695 -1.1104
  488MOL0     H67329   5.171   1.193   1.363  0.9531  0.9087 -0.3765
  488MOL0     H67330   5.496   1.423   1.381 -0.4901  0.5816 -0.5912
  488MOL0     H67331   5.723   1.499   1.473  0.4897 -0.7643  1.7022
  488MOL0     H67332   5.773   1.917   1.531  1.4538  1.5302 -0.2571
  488MOL0     H67333   5.747   1.872   1.694  1.2754 -1.1453  1.4812
  488MOL0     H67334   5.951   1.955   1.711  1.8711  0.3511 -0.2864
  488MOL0     H67335   6.016   1.888   1.555  1.7115 -2.4301  1.8775
  488MOL0     H67336   5.941   1.702   1.774  0.3156 -0.1592  0.0001
  488MOL0     H67337   6.022   1.673   1.620 -0.5641  0.5986 -0.6180
  488MOL0     H67338   6.191   1.672   1.800 -0.0829  0.6475 -1.6161
  488MOL0     H67339   6.131   1.830   1.858 -0.6048  0.4812  0.3922
  488MOL0     H67340   6.384   2.004   1.586  0.8398 -1.8592 -2.2162
  488MOL0     H67341   5.538   1.868   1.570 -4.5749 -0.4515  2.5019
  488MOL0     H67342   5.277   1.898   1.435 -1.5136  0.8179 -0.0284
  488MOL0     H67343   5.210   1.783   1.550 -0.3504 -0.6366 -1.9869
  488MOL0     H67344   5.325   1.904   1.607  0.3591 -0.5723 -0.0571
  489MOL0     O67345  10.563   7.570   7.801 -0.9345 -0.4612  0.4075
  489MOL0     C67346  10.522   7.532   7.692  0.6008  0.0174  0.1471
  489MOL0     O67347  10.610   7.516   7.587 -0.6588  0.7138  0.3196
  489MOL0     C67348  10.735   7.573   7.594 -0.2198 -0.2664  0.9366
  489MOL0     C67349  10.829   7.523   7.683  0.4793 -0.8313  0.4327
  489MOL0     C67350  10.953   7.580   7.677 -0.3553 -0.1365 -0.6152
  489MOL0     C67351  10.999   7.683   7.584  0.5201 -0.1368 -0.1330
  489MOL0     O67352  11.122   7.737   7.591  0.7858 -0.1086  0.0862
  489MOL0     C67353  11.181   7.815   7.488 -0.2631  0.1247  0.6464
  489MOL0     C67354  11.331   7.794   7.480 -0.8506  0.3884  0.5177
  489MOL0     C67355  11.406   7.818   7.609 -0.0449 -0.8113 -0.3011
  489MOL0     C67356  11.528   7.728   7.611 -0.9346 -0.7093  0.0237
  489MOL0     C67357  11.619   7.741   7.732  0.6490 -0.5059 -0.4611
  489MOL0     C67358  11.550   7.692   7.864 -1.2606  0.1563 -0.9069
  489MOL0     C67359  11.654   7.688   7.982 -0.8759  0.2083 -0.2363
  489MOL0     C67360  11.588   7.676   8.120  0.2388 -0.1751 -0.5927
  489MOL0     N67361  11.692   7.663   8.219  0.0345 -0.2787  0.0040
  489MOL0     C67362  11.763   7.771   8.259  0.1295  0.3903  0.6499
  489MOL0     C67363  11.839   7.733   8.361 -0.4187 -1.6625 -0.4533
  489MOL0     C67364  11.952   7.813   8.428  0.1230 -0.0814 -0.4552
  489MOL0     C67365  12.096   7.767   8.377  0.3504 -0.6064 -0.0633
  489MOL0     C67366  12.122   7.823   8.228 -0.0626  0.0523 -0.4459
  489MOL0     C67367  12.272   7.808   8.194  0.1026 -0.5256  0.4288
  489MOL0     O67368  12.309   7.671   8.191 -0.1574 -0.3682  0.0062
  489MOL0     C67369  12.414   7.624   8.131 -0.1337  0.2926 -0.1701
  489MOL0     C67370  12.410   7.486   8.117 -0.6523 -0.2270  0.7535
  489MOL0     C67371  12.516   7.422   8.055  0.1275 -0.0898 -0.0035
  489MOL0     C67372  12.511   7.271   8.052 -0.1912 -0.4248  0.4271
  489MOL0     C67373  12.622   7.497   8.000 -0.4392  0.0821  0.1252
  489MOL0     C67374  12.724   7.441   7.913 -0.8342 -0.1625 -1.3032
  489MOL0     O67375  12.860   7.470   7.949  0.0540  0.7811 -0.3884
  489MOL0     C67376  12.959   7.461   7.855  1.0519  0.5741  0.2343
  489MOL0     C67377  13.087   7.433   7.910 -0.5758 -0.3336  0.0550
  489MOL0     C67378  13.204   7.435   7.831 -0.3205 -0.3068 -1.0165
  489MOL0     C67379  13.193   7.478   7.697 -0.7589  0.1480 -0.1702
  489MOL0     O67380  13.306   7.495   7.610 -0.1812  0.1328 -0.0891
  489MOL0     C67381  13.371   7.621   7.615  0.3548  0.2125 -0.3996
  489MOL0     C67382  13.521   7.600   7.601  0.0583 -0.4301 -0.6955
  489MOL0     C67383  13.555   7.566   7.456 -0.5475 -0.6454  0.3074
  489MOL0     C67384  13.579   7.707   7.395 -0.0967 -0.0322  0.4917
  489MOL0     C67385  13.596   7.689   7.240 -1.2482 -1.1566 -0.3590
  489MOL0     C67386  13.648   7.807   7.170 -0.5252 -0.5892 -0.1461
  489MOL0     C67387  13.712   7.773   7.036  0.3746  0.1028  0.0118
  489MOL0     C67388  13.757   7.876   6.932  0.2697 -0.3770  0.0846
  489MOL0    Cl67389  13.858   7.993   7.015  0.0076 -0.2874 -0.0199
  489MOL0     C67390  13.061   7.504   7.643 -0.7015 -0.5718  0.2476
  489MOL0     C67391  12.950   7.503   7.718 -0.1960  1.2184  0.7325
  489MOL0     O67392  12.689   7.365   7.831 -0.4447  0.8914 -0.8119
  489MOL0     C67393  12.630   7.637   8.031  0.0712 -0.0169  0.3592
  489MOL0     C67394  12.524   7.695   8.087 -0.1672  0.2153  0.0318
  489MOL0     N67395  11.812   7.599   8.384  0.5036 -0.1990 -0.7178
  489MOL0     N67396  11.723   7.563   8.298 -0.4962 -0.6021  0.2367
  489MOL0     C67397  10.904   7.724   7.489 -0.0161 -0.0744  0.0235
  489MOL0     C67398  10.771   7.677   7.505  0.0655  0.6553  0.1717
  489MOL0     C67399  10.373   7.503   7.682 -0.4254  0.2362 -0.6536
  489MOL0     C67400  10.297   7.522   7.801 -0.9551 -0.3244  0.2953
  489MOL0     C67401  10.163   7.486   7.795 -0.7692  0.2879  0.5186
  489MOL0     C67402  10.110   7.416   7.690 -0.6315  0.9519  0.8235
  489MOL0     O67403   9.990   7.353   7.699  0.0146  0.0065 -0.1521
  489MOL0     C67404   9.886   7.420   7.617  0.4941  0.6952 -0.4032
  489MOL0     C67405   9.763   7.402   7.704  0.1620  0.4768 -0.3241
  489MOL0     C67406   9.698   7.266   7.689  0.4227  0.2179 -0.2697
  489MOL0     C67407   9.609   7.231   7.812 -0.0481 -0.7238 -0.1027
  489MOL0     C67408   9.525   7.119   7.793 -0.1443 -0.0215  0.4117
  489MOL0     C67409   9.478   7.009   7.774 -0.4561 -1.1232  1.3040
  489MOL0     C67410  10.186   7.404   7.572  0.3447 -0.2881  0.2787
  489MOL0     C67411  10.310   7.460   7.567 -0.1703  0.5645  0.6661
  489MOL0     C67412  10.382   7.442   7.432  0.2877  0.5044 -0.6571
  489MOL0     H67413  10.806   7.450   7.761  1.2283  0.5448  1.9942
  489MOL0     H67414  11.026   7.553   7.752 -0.6513  0.5107 -0.0710
  489MOL0     H67415  11.166   7.921   7.512  0.1054 -0.3164  3.1076
  489MOL0     H67416  11.147   7.789   7.388 -2.0903  4.0410  0.0708
  489MOL0     H67417  11.344   7.689   7.453  0.9640  0.5727  0.5424
  489MOL0     H67418  11.376   7.843   7.393 -1.1308 -2.1647 -1.1474
  489MOL0     H67419  11.427   7.924   7.625  1.2263 -1.1321  0.2664
  489MOL0     H67420  11.339   7.793   7.692 -4.6577  0.1531 -3.3398
  489MOL0     H67421  11.492   7.625   7.606 -2.6452 -0.0938 -1.6389
  489MOL0     H67422  11.592   7.747   7.525 -0.0703  2.1397  1.1878
  489MOL0     H67423  11.656   7.843   7.742  1.5368 -1.0507  2.9658
  489MOL0     H67424  11.708   7.679   7.713  0.1016 -1.2222 -0.7560
  489MOL0     H67425  11.460   7.747   7.892 -1.3648  1.1521 -3.0356
  489MOL0     H67426  11.506   7.594   7.842 -3.3089  1.3894 -2.6552
  489MOL0     H67427  11.715   7.779   7.983 -0.6842  0.2236 -3.1039
  489MOL0     H67428  11.732   7.614   7.963  1.0493  2.5857 -2.3906
  489MOL0     H67429  11.529   7.762   8.152  1.2696  0.9593 -1.6256
  489MOL0     H67430  11.522   7.589   8.129  1.7539 -1.4279 -1.0872
  489MOL0     H67431  11.757   7.867   8.209 -2.2220 -0.5338 -1.0608
  489MOL0     H67432  11.949   7.800   8.536  1.0840  1.8419 -0.1710
  489MOL0     H67433  11.941   7.921   8.417  1.0458  0.1279  0.5759
  489MOL0     H67434  12.167   7.814   8.446 -1.2495  1.7191  0.1309
  489MOL0     H67435  12.102   7.658   8.379  0.2641 -0.6423 -1.1873
  489MOL0     H67436  12.053   7.766   8.165 -2.2388 -0.3818  2.1453
  489MOL0     H67437  12.120   7.931   8.207  3.9891 -0.2857 -3.7443
  489MOL0     H67438  12.277   7.852   8.094 -1.8021 -0.6151  0.2527
  489MOL0     H67439  12.330   7.864   8.268  0.8115 -1.5634  0.6770
  489MOL0     H67440  12.316   7.437   8.137 -1.4295  0.4516 -0.9882
  489MOL0     H67441  12.468   7.234   7.959  2.3720 -1.0661 -0.5912
  489MOL0     H67442  12.450   7.237   8.137 -1.6536  0.8843 -0.0549
  489MOL0     H67443  12.612   7.232   8.070 -0.8495 -1.6232  1.7420
  489MOL0     H67444  13.106   7.420   8.017  3.7302 -1.2126 -0.6149
  489MOL0     H67445  13.302   7.423   7.877 -1.9531  0.0738  2.9514
  489MOL0     H67446  13.329   7.697   7.549  3.8101  0.9275 -2.0205
  489MOL0     H67447  13.359   7.647   7.721 -3.0219 -2.2575 -0.0155
  489MOL0     H67448  13.580   7.687   7.632  0.0951 -0.4814 -0.6220
  489MOL0     H67449  13.543   7.515   7.666  1.5247  0.4572  0.0180
  489MOL0     H67450  13.474   7.518   7.401  0.5342 -2.5166  0.2742
  489MOL0     H67451  13.644   7.504   7.454 -1.0089 -1.4760  2.7229
  489MOL0     H67452  13.670   7.757   7.431 -0.2148 -0.3880  1.2883
  489MOL0     H67453  13.489   7.765   7.416 -0.6943 -0.9574  0.5601
  489MOL0     H67454  13.663   7.603   7.228 -0.2450 -0.2348 -1.6582
  489MOL0     H67455  13.494   7.673   7.205 -1.9150 -0.0933  1.0284
  489MOL0     H67456  13.723   7.859   7.230 -0.8994  2.3782 -2.0101
  489MOL0     H67457  13.571   7.885   7.173  1.7683  1.9127  4.3334
  489MOL0     H67458  13.650   7.702   6.980 -0.9234  1.2386 -0.0456
  489MOL0     H67459  13.809   7.732   7.063  0.5633  0.4659 -0.1196
  489MOL0     H67460  13.668   7.926   6.894  0.7210 -0.1388 -0.6753
  489MOL0     H67461  13.803   7.840   6.840 -1.1229 -0.0632 -0.7578
  489MOL0     H67462  13.060   7.532   7.538 -0.1383  1.2384  0.6945
  489MOL0     H67463  12.858   7.537   7.673  0.0929 -0.1758 -1.0144
  489MOL0     H67464  12.719   7.693   8.001 -1.5794  1.6109 -1.7862
  489MOL0     H67465  12.521   7.803   8.102 -2.6653  0.2824 -0.4648
  489MOL0     H67466  10.933   7.788   7.407  1.4548  0.2300  0.7440
  489MOL0     H67467  10.697   7.709   7.433  2.4032  4.6761 -0.7727
  489MOL0     H67468  10.330   7.579   7.887 -3.1048 -0.4935  1.2913
  489MOL0     H67469  10.100   7.510   7.880  0.0083 -0.4149  1.3207
  489MOL0     H67470   9.921   7.522   7.602  0.6483  0.8100  0.6603
  489MOL0     H67471   9.875   7.371   7.520 -1.4203 -0.2085  0.2114
  489MOL0     H67472   9.691   7.474   7.666 -1.0749 -1.0031 -0.8784
  489MOL0     H67473   9.792   7.431   7.806  0.5174  3.3442 -1.1434
  489MOL0     H67474   9.656   7.260   7.589  0.5442 -3.2932 -0.2384
  489MOL0     H67475   9.782   7.195   7.686  0.0205 -0.3932  1.7170
  489MOL0     H67476   9.552   7.320   7.837  1.0916  1.1588 -3.4816
  489MOL0     H67477   9.681   7.215   7.893 -1.8307  1.9382  2.1823
  489MOL0     H67478   9.436   6.912   7.788 -1.5945 -0.4524  2.9066
  489MOL0     H67479  10.151   7.346   7.487  0.2730 -2.2908  1.6116
  489MOL0     H67480  10.441   7.350   7.436 -0.6120 -0.0506  0.5627
  489MOL0     H67481  10.309   7.451   7.351  1.3495  3.3015 -1.4361
  489MOL0     H67482  10.450   7.527   7.418  0.0681  0.5256 -1.6379
  490MOL0     O67483  11.325   4.442   6.524  0.0267  0.3206 -0.1878
  490MOL0     C67484  11.301   4.544   6.590  0.2220 -0.2333 -0.0859
  490MOL0     O67485  11.387   4.619   6.660  0.8601  0.1788 -0.2801
  490MOL0     C67486  11.514   4.612   6.620 -0.1531 -1.1696  0.8187
  490MOL0     C67487  11.613   4.521   6.676 -0.1715 -0.3312  0.3097
  490MOL0     C67488  11.748   4.522   6.634  0.0930 -0.2845 -0.0190
  490MOL0     C67489  11.788   4.620   6.540 -0.4634  0.4690 -0.5182
  490MOL0     O67490  11.916   4.635   6.498 -0.1709  0.5619 -0.4123
  490MOL0     C67491  12.016   4.554   6.557  0.1471  0.0682  0.4457
  490MOL0     C67492  12.157   4.581   6.503 -0.6196 -0.5265  0.8503
  490MOL0     C67493  12.200   4.732   6.494  0.3423  1.0684  0.0986
  490MOL0     C67494  12.337   4.735   6.415  0.3523  0.5984 -0.3534
  490MOL0     C67495  12.459   4.700   6.499  0.8885 -0.6746 -0.3881
  490MOL0     C67496  12.581   4.651   6.412 -0.6129 -1.0864  0.1586
  490MOL0     C67497  12.708   4.616   6.503  0.7793  0.3755  1.0862
  490MOL0     C67498  12.807   4.543   6.411 -0.1029  0.5242 -0.8251
  490MOL0     N67499  12.917   4.498   6.499  0.5263 -1.1519 -0.4842
  490MOL0     C67500  12.919   4.379   6.562 -0.3768 -0.5513 -0.2370
  490MOL0     C67501  13.046   4.365   6.611  1.1893  0.2620  0.2186
  490MOL0     C67502  13.097   4.252   6.697 -0.0247  0.5078 -0.2341
  490MOL0     C67503  13.168   4.296   6.824  0.4257  0.5389 -0.0137
  490MOL0     C67504  13.268   4.188   6.865 -0.3203 -0.5383  0.9898
  490MOL0     C67505  13.337   4.245   6.993  0.0953  0.7476 -0.1656
  490MOL0     O67506  13.445   4.328   6.947  0.2767  0.3999 -0.0454
  490MOL0     C67507  13.547   4.357   7.040  0.4188  0.5841 -0.2102
  490MOL0     C67508  13.662   4.409   6.987 -0.4285 -1.3106  0.5295
  490MOL0     C67509  13.765   4.462   7.066 -1.1518 -0.7179 -1.0946
  490MOL0     C67510  13.896   4.512   7.009 -0.4466  0.3755  0.8338
  490MOL0     C67511  13.764   4.451   7.206  0.4338  0.4353  0.2094
  490MOL0     C67512  13.866   4.528   7.290 -1.0127 -0.0301 -0.0828
  490MOL0     O67513  13.891   4.658   7.275  0.4511 -0.2051 -0.2629
  490MOL0     C67514  14.006   4.716   7.322  0.4869 -0.3261  0.2126
  490MOL0     C67515  14.008   4.823   7.411  0.2958  0.1287  0.1303
  490MOL0     C67516  14.134   4.850   7.476 -0.3820 -0.9997  0.8482
  490MOL0     C67517  14.249   4.786   7.436 -0.9645 -0.1249  0.0312
  490MOL0     O67518  14.373   4.814   7.491 -0.1090 -0.0265 -0.2883
  490MOL0     C67519  14.397   4.772   7.624 -0.3687  0.1049 -0.3696
  490MOL0     C67520  14.534   4.816   7.672 -0.1181  0.1206  0.6151
  490MOL0     C67521  14.546   4.958   7.682  0.5458  0.3426 -0.1687
  490MOL0     C67522  14.686   4.984   7.734 -0.8666 -0.3869  0.0908
  490MOL0     C67523  14.715   5.133   7.724 -0.0881 -0.2616 -0.3182
  490MOL0     C67524  14.859   5.160   7.758  0.7824  0.1553  0.2959
  490MOL0     C67525  14.899   5.128   7.903 -0.1239  0.3128 -0.9898
  490MOL0     C67526  15.008   5.222   7.950  0.2627 -0.3223 -0.5566
  490MOL0    Cl67527  15.045   5.194   8.123 -0.5455 -0.3510  0.0474
  490MOL0     C67528  14.244   4.704   7.324  0.5020  0.6890  0.3362
  490MOL0     C67529  14.125   4.670   7.265 -0.6131 -0.6153  0.2662
  490MOL0     O67530  13.918   4.460   7.380 -0.2482 -0.9320  0.2363
  490MOL0     C67531  13.664   4.369   7.261 -0.1659  0.4767  0.3854
  490MOL0     C67532  13.558   4.329   7.178  0.2456  0.0767  0.6249
  490MOL0     N67533  13.110   4.483   6.591  0.4713 -0.7500 -0.1098
  490MOL0     N67534  13.038   4.557   6.513  0.4466 -1.0657 -0.0588
  490MOL0     C67535  11.697   4.714   6.497  0.3527  0.3127  0.6501
  490MOL0     C67536  11.559   4.711   6.528 -0.1959  0.1549 -0.6732
  490MOL0     C67537  11.164   4.591   6.593  0.6334 -0.4047 -0.5980
  490MOL0     C67538  11.132   4.732   6.581  0.2595  0.2195 -0.2162
  490MOL0     C67539  11.006   4.778   6.557  0.2767  0.4684 -0.3496
  490MOL0     C67540  10.898   4.687   6.544 -0.0094 -0.1510 -0.0822
  490MOL0     O67541  10.778   4.747   6.510 -0.0515 -0.2931 -0.1269
  490MOL0     C67542  10.680   4.677   6.437 -0.1375 -0.6483 -0.1874
  490MOL0     C67543  10.551   4.648   6.513  0.0497  0.1323 -0.2112
  490MOL0     C67544  10.443   4.581   6.426 -0.3999  0.3618 -0.3600
  490MOL0     C67545  10.327   4.530   6.501  0.3046 -0.7381 -0.6926
  490MOL0     C67546  10.220   4.453   6.433 -0.0849  0.3913 -0.1057
  490MOL0     C67547  10.127   4.392   6.386  0.3026  0.2135 -0.1403
  490MOL0     C67548  10.916   4.553   6.582 -0.6481  0.3621  0.3030
  490MOL0     C67549  11.048   4.500   6.615 -0.2155  0.4980  0.4738
  490MOL0     C67550  11.075   4.360   6.642  0.5831  1.8390  0.8679
  490MOL0     H67551  11.564   4.446   6.737 -0.6948  0.1449  0.4951
  490MOL0     H67552  11.817   4.445   6.666  0.0544  0.4633  1.9572
  490MOL0     H67553  12.004   4.446   6.543 -0.3608 -0.4192  3.7925
  490MOL0     H67554  12.010   4.556   6.667  0.5462  1.6542  0.4599
  490MOL0     H67555  12.216   4.525   6.575 -0.3198 -2.8532 -1.0445
  490MOL0     H67556  12.154   4.527   6.407 -0.6876 -1.4567  1.3616
  490MOL0     H67557  12.131   4.790   6.432  1.2307  0.0366 -1.9723
  490MOL0     H67558  12.223   4.770   6.593  1.0614  0.2576  0.2567
  490MOL0     H67559  12.321   4.647   6.353 -0.0521 -0.3135  1.0098
  490MOL0     H67560  12.343   4.829   6.358  1.5544  2.8869  3.1961
  490MOL0     H67561  12.426   4.624   6.571  1.3548 -0.7934 -0.3004
  490MOL0     H67562  12.498   4.784   6.555  2.0370 -1.4786  0.0450
  490MOL0     H67563  12.551   4.563   6.354 -1.1430  0.0243 -1.3152
  490MOL0     H67564  12.613   4.723   6.336  0.4912 -0.5103  1.1439
  490MOL0     H67565  12.681   4.546   6.583  1.8037 -2.6532 -1.0430
  490MOL0     H67566  12.749   4.710   6.542  3.6072  1.0166 -2.8527
  490MOL0     H67567  12.762   4.458   6.360  1.0530  0.9534 -2.6641
  490MOL0     H67568  12.842   4.613   6.334  0.6249 -0.5693 -1.5057
  490MOL0     H67569  12.838   4.307   6.561  0.0806 -1.3262 -4.8282
  490MOL0     H67570  13.168   4.197   6.634  3.4657  5.0638 -0.8446
  490MOL0     H67571  13.010   4.195   6.729  1.3644 -2.2846 -1.0957
  490MOL0     H67572  13.219   4.390   6.801  1.2038  0.0746 -0.2052
  490MOL0     H67573  13.096   4.314   6.905  0.4371  0.3640  0.0352
  490MOL0     H67574  13.210   4.096   6.877 -1.9169  0.5560  2.1260
  490MOL0     H67575  13.334   4.167   6.781 -1.0512  0.0968  0.2460
  490MOL0     H67576  13.271   4.308   7.054 -1.7063  1.1829 -2.3896
  490MOL0     H67577  13.378   4.163   7.053  1.2972  1.4082 -0.0691
  490MOL0     H67578  13.652   4.427   6.881 -1.3181  0.4664  0.8752
  490MOL0     H67579  13.914   4.618   7.028  0.3030  0.1239  1.6034
  490MOL0     H67580  13.890   4.504   6.900  0.8317 -0.8932  0.8213
  490MOL0     H67581  13.984   4.457   7.044  0.0242  0.4040 -0.2971
  490MOL0     H67582  13.910   4.860   7.437 -0.1558 -0.6917 -0.3684
  490MOL0     H67583  14.148   4.907   7.567  1.9193 -0.5393  0.2760
  490MOL0     H67584  14.324   4.808   7.697  0.5656  0.4542  0.4182
  490MOL0     H67585  14.390   4.663   7.628 -0.6048  0.0784 -1.2585
  490MOL0     H67586  14.553   4.767   7.768 -1.8317  1.9413  1.9826
  490MOL0     H67587  14.596   4.776   7.591 -0.9922  0.9285 -0.4944
  490MOL0     H67588  14.477   4.985   7.763  0.8287 -0.8808  0.5051
  490MOL0     H67589  14.522   5.013   7.591  0.5036  1.0514  0.2644
  490MOL0     H67590  14.767   4.945   7.672  0.6940 -0.0257  1.8086
  490MOL0     H67591  14.709   4.944   7.833 -1.7154  0.8143  0.8079
  490MOL0     H67592  14.685   5.169   7.625 -0.4124 -0.0877 -0.1566
  490MOL0     H67593  14.651   5.178   7.800 -1.6244 -2.2216 -0.3647
  490MOL0     H67594  14.862   5.267   7.738 -4.5347  0.6863  0.9130
  490MOL0     H67595  14.922   5.113   7.682 -0.5304  1.8955 -1.9721
  490MOL0     H67596  14.941   5.027   7.908 -1.4938 -0.2287  0.4053
  490MOL0     H67597  14.813   5.136   7.970 -0.3721 -0.8893 -1.1348
  490MOL0     H67598  14.974   5.325   7.936  1.7712  0.3977  0.7935
  490MOL0     H67599  15.097   5.208   7.888  0.6783  0.5719 -0.1761
  490MOL0     H67600  14.335   4.658   7.289  0.2270  0.6605 -0.3469
  490MOL0     H67601  14.130   4.585   7.197  0.3274 -1.5172  1.4197
  490MOL0     H67602  13.672   4.350   7.367 -1.6538 -0.7158  0.3223
  490MOL0     H67603  13.471   4.291   7.230  0.3819 -0.5909  0.3670
  490MOL0     H67604  11.733   4.797   6.436  3.5270 -1.4487 -0.0684
  490MOL0     H67605  11.478   4.771   6.489 -0.0731  1.1515  0.5346
  490MOL0     H67606  11.215   4.800   6.591  0.3008  0.3302 -1.1718
  490MOL0     H67607  10.994   4.883   6.534 -1.8257  0.0740 -1.2650
  490MOL0     H67608  10.657   4.733   6.346  0.3743  0.2376  0.2200
  490MOL0     H67609  10.722   4.584   6.396  0.1288 -0.7632  0.3376
  490MOL0     H67610  10.514   4.739   6.561 -3.9824 -2.6072  2.5111
  490MOL0     H67611  10.583   4.590   6.600 -1.1659  0.1693  0.2707
  490MOL0     H67612  10.409   4.649   6.347 -1.3194 -0.6036 -0.8137
  490MOL0     H67613  10.491   4.496   6.378  1.9341  0.7476  1.1271
  490MOL0     H67614  10.275   4.613   6.550 -1.6085 -1.6913 -1.0113
  490MOL0     H67615  10.366   4.465   6.580  1.8987  0.3185 -0.5600
  490MOL0     H67616  10.039   4.343   6.351 -0.6936  2.0208 -0.3299
  490MOL0     H67617  10.822   4.498   6.582 -0.1251 -0.5882  1.7887
  490MOL0     H67618  10.980   4.312   6.667  2.6102 -2.2863  1.4063
  490MOL0     H67619  11.132   4.302   6.569 -1.9997  0.6957 -0.3673
  490MOL0     H67620  11.125   4.343   6.738  0.0014 -2.8126  0.5510
  491MOL0     O67621   7.912   9.094   4.742  0.2929 -0.0298  0.1791
  491MOL0     C67622   7.841   9.030   4.816 -0.4019  0.2338  0.0356
  491MOL0     O67623   7.881   8.956   4.928 -0.3706  0.2425  0.2174
  491MOL0     C67624   8.012   8.936   4.971  0.3054 -0.5267  0.3557
  491MOL0     C67625   8.034   8.835   5.059 -1.2982  0.5419  0.6511
  491MOL0     C67626   8.159   8.824   5.124 -0.8557  0.5606  0.6651
  491MOL0     C67627   8.272   8.906   5.107  0.9286 -0.4775 -0.3384
  491MOL0     O67628   8.396   8.904   5.158  0.0553 -0.9911  0.3152
  491MOL0     C67629   8.430   8.794   5.233  0.3580 -0.6787  0.2536
  491MOL0     C67630   8.583   8.797   5.253 -0.0519 -0.3425 -0.0902
  491MOL0     C67631   8.659   8.755   5.128  0.1777  0.0536 -0.3858
  491MOL0     C67632   8.814   8.742   5.149  1.1367 -0.3317  0.1831
  491MOL0     C67633   8.878   8.678   5.024 -0.1251  0.1493  0.0237
  491MOL0     C67634   9.025   8.685   5.038 -0.3543  0.2268  0.8965
  491MOL0     C67635   9.095   8.614   4.921  1.0098 -0.3921  0.9395
  491MOL0     C67636   9.244   8.635   4.946  0.1105  0.8632 -0.7920
  491MOL0     N67637   9.338   8.603   4.840 -0.1584 -0.0202  0.4588
  491MOL0     C67638   9.381   8.485   4.798 -0.2471  0.0668  0.1114
  491MOL0     C67639   9.492   8.506   4.726  0.3198  0.6055  0.6034
  491MOL0     C67640   9.581   8.396   4.673 -0.0912 -0.2135  0.1959
  491MOL0     C67641   9.710   8.387   4.754  0.2861  0.1278 -0.7021
  491MOL0     C67642   9.787   8.254   4.725 -0.6599  0.0088  0.5801
  491MOL0     C67643   9.925   8.247   4.806  0.2463  0.4541 -0.2380
  491MOL0     O67644   9.898   8.287   4.941  0.4599  0.0673  0.2456
  491MOL0     C67645  10.004   8.327   5.022 -0.3225 -0.0150  0.4710
  491MOL0     C67646  10.136   8.278   5.019 -0.0333 -0.1141  0.2922
  491MOL0     C67647  10.240   8.326   5.100  0.0738  0.1897 -0.1792
  491MOL0     C67648  10.375   8.269   5.067 -0.2161  0.5702 -0.0527
  491MOL0     C67649  10.216   8.419   5.203  0.8820  1.3771 -0.5014
  491MOL0     C67650  10.316   8.477   5.297 -0.2492  0.9710 -0.3348
  491MOL0     O67651  10.269   8.558   5.390 -0.4142 -0.7076 -0.9966
  491MOL0     C67652  10.353   8.642   5.465  0.3613 -0.1899  0.5037
  491MOL0     C67653  10.397   8.773   5.419 -0.5960 -0.2454 -0.1226
  491MOL0     C67654  10.484   8.847   5.502 -0.5106  1.1647 -0.4394
  491MOL0     C67655  10.521   8.803   5.627 -0.0574  0.2895 -0.1899
  491MOL0     O67656  10.602   8.889   5.696  0.1690 -0.2727 -0.0910
  491MOL0     C67657  10.664   8.820   5.817  0.3073 -0.2844  0.4994
  491MOL0     C67658  10.786   8.884   5.877  0.0144 -0.3647 -0.2188
  491MOL0     C67659  10.745   9.030   5.917  0.3126 -0.1377 -0.8851
  491MOL0     C67660  10.866   9.102   5.967  0.7540 -0.4182 -0.6240
  491MOL0     C67661  10.816   9.227   6.046 -0.3901 -0.6249 -0.3020
  491MOL0     C67662  10.925   9.322   6.101 -0.4278  0.1287 -0.2802
  491MOL0     C67663  10.853   9.449   6.163 -1.1096  0.7250 -0.3671
  491MOL0     C67664  10.943   9.529   6.253  0.7147 -0.7197  0.2035
  491MOL0    Cl67665  11.078   9.577   6.135 -0.1953 -0.0098  0.3327
  491MOL0     C67666  10.476   8.674   5.680 -0.2575 -0.5099  0.6750
  491MOL0     C67667  10.393   8.598   5.597  0.0437 -0.3486 -0.8771
  491MOL0     O67668  10.438   8.452   5.285  0.5777 -0.0168 -0.0032
  491MOL0     C67669  10.078   8.455   5.224 -0.2484 -0.5813 -0.1234
  491MOL0     C67670   9.977   8.418   5.129  0.9262  1.1526 -0.5078
  491MOL0     N67671   9.520   8.645   4.721 -0.2088 -0.4862  0.1201
  491MOL0     N67672   9.425   8.699   4.788  0.1025  0.1740 -0.2416
  491MOL0     C67673   8.246   9.018   5.016  0.7980  0.6675 -0.1729
  491MOL0     C67674   8.117   9.028   4.950 -1.0582 -0.7456  0.3557
  491MOL0     C67675   7.706   9.005   4.763  0.3132  0.3210 -0.6169
  491MOL0     C67676   7.637   8.891   4.810 -0.0181  0.5337  0.6929
  491MOL0     C67677   7.513   8.848   4.758 -0.5321  0.1178 -0.2557
  491MOL0     C67678   7.442   8.929   4.666  0.0723  0.2830 -0.0237
  491MOL0     O67679   7.326   8.897   4.595 -0.0803 -0.6077 -0.2466
  491MOL0     C67680   7.218   8.853   4.677  0.1680  0.2508  0.1515
  491MOL0     C67681   7.177   8.716   4.644  0.1501  0.3317 -0.1327
  491MOL0     C67682   7.092   8.688   4.522  0.2442 -0.4701 -0.5029
  491MOL0     C67683   7.147   8.741   4.388 -0.0186 -0.1278 -0.4962
  491MOL0     C67684   7.272   8.664   4.357 -0.2889 -0.2412 -0.2444
  491MOL0     C67685   7.363   8.584   4.350  0.8173  0.4295 -0.6639
  491MOL0     C67686   7.509   9.053   4.631 -0.2470  0.2068  0.3879
  491MOL0     C67687   7.635   9.089   4.670 -0.9517  0.2372 -0.9300
  491MOL0     C67688   7.684   9.238   4.636  0.2839  0.9813  0.2615
  491MOL0     H67689   7.956   8.763   5.081  0.4559 -1.5701  0.3018
  491MOL0     H67690   8.171   8.741   5.193  0.6463  0.6808  0.5784
  491MOL0     H67691   8.398   8.696   5.195  1.6553 -0.3305 -1.8869
  491MOL0     H67692   8.384   8.815   5.330  1.0178 -1.5393  0.7629
  491MOL0     H67693   8.629   8.887   5.294 -0.1230 -1.1000  1.7818
  491MOL0     H67694   8.602   8.717   5.326 -5.0854 -0.7648  1.1404
  491MOL0     H67695   8.605   8.664   5.099 -0.9915  1.0784 -1.5371
  491MOL0     H67696   8.635   8.824   5.047  0.5148  1.7459  0.8949
  491MOL0     H67697   8.850   8.846   5.148 -0.0316  0.1470  2.2272
  491MOL0     H67698   8.846   8.703   5.246 -0.0371 -0.6318  0.4731
  491MOL0     H67699   8.867   8.733   4.930  1.4833 -0.7704 -0.7627
  491MOL0     H67700   8.842   8.575   5.018 -2.4693  0.7528  2.3061
  491MOL0     H67701   9.068   8.786   5.032 -2.8953  1.4049 -4.7045
  491MOL0     H67702   9.052   8.635   5.131 -0.0479 -0.7447  0.3045
  491MOL0     H67703   9.066   8.658   4.825  1.3625 -1.2216  0.4347
  491MOL0     H67704   9.075   8.509   4.896  1.6963  0.3460 -3.6968
  491MOL0     H67705   9.259   8.740   4.968  1.9513 -0.1256  3.6846
  491MOL0     H67706   9.275   8.584   5.038 -2.2468 -1.2366 -1.0261
  491MOL0     H67707   9.349   8.391   4.841 -1.4936  0.7393  0.6826
  491MOL0     H67708   9.617   8.424   4.574  0.3894  4.1044  1.3976
  491MOL0     H67709   9.526   8.302   4.679 -0.0929 -0.4099 -2.0460
  491MOL0     H67710   9.769   8.477   4.737 -1.6417  2.0769  2.1448
  491MOL0     H67711   9.681   8.410   4.857 -0.0368  1.9718 -1.1727
  491MOL0     H67712   9.729   8.168   4.759  0.2673 -0.8081  0.1455
  491MOL0     H67713   9.808   8.230   4.620  0.1874 -1.9567  1.1631
  491MOL0     H67714   9.957   8.142   4.814 -1.0372  0.1520  2.0142
  491MOL0     H67715   9.999   8.311   4.758  1.5049 -1.6808 -1.3447
  491MOL0     H67716  10.163   8.220   4.931  2.5471  2.2258 -0.6060
  491MOL0     H67717  10.430   8.248   5.159  0.3003  0.9314 -0.2708
  491MOL0     H67718  10.433   8.341   5.008 -0.5352  0.7899 -0.1062
  491MOL0     H67719  10.361   8.185   4.999  0.0231  1.2965 -1.0241
  491MOL0     H67720  10.356   8.804   5.323 -3.1424 -2.0612  0.2538
  491MOL0     H67721  10.529   8.940   5.469  3.5420 -0.2030  0.6466
  491MOL0     H67722  10.594   8.810   5.900  0.1188  1.1497  0.5351
  491MOL0     H67723  10.700   8.723   5.780  0.6962  0.8188 -2.2646
  491MOL0     H67724  10.820   8.816   5.956 -1.5448  0.6352  1.4077
  491MOL0     H67725  10.866   8.890   5.803  1.7364  0.5751  1.6109
  491MOL0     H67726  10.664   9.034   5.990 -2.3279  3.0545 -3.7091
  491MOL0     H67727  10.707   9.086   5.831  0.3692  1.4842  0.0999
  491MOL0     H67728  10.924   9.142   5.884  0.7050  0.9210 -0.0544
  491MOL0     H67729  10.920   9.036   6.036 -0.1792  0.6552  1.2149
  491MOL0     H67730  10.752   9.285   5.979 -3.2037 -2.6147  0.5090
  491MOL0     H67731  10.751   9.189   6.125 -0.7546  0.4945 -0.0453
  491MOL0     H67732  10.992   9.364   6.025  2.4404  0.1669  2.0907
  491MOL0     H67733  10.990   9.274   6.174  1.6675 -1.2576 -2.8808
  491MOL0     H67734  10.770   9.414   6.225  1.8947 -0.4950  3.2865
  491MOL0     H67735  10.817   9.515   6.083 -0.7200  2.3387  0.7370
  491MOL0     H67736  10.980   9.477   6.342  1.2745  1.1163  1.0930
  491MOL0     H67737  10.890   9.618   6.287 -1.8735 -2.9189  2.3676
  491MOL0     H67738  10.494   8.640   5.781 -4.5401 -1.6990  1.2377
  491MOL0     H67739  10.332   8.520   5.641 -1.3592 -0.7391 -3.2952
  491MOL0     H67740  10.044   8.532   5.293 -0.2117  2.3861 -3.1356
  491MOL0     H67741   9.875   8.451   5.143  0.0632 -0.1334 -3.2628
  491MOL0     H67742   8.327   9.087   4.993 -0.0621  2.2360  1.2653
  491MOL0     H67743   8.095   9.109   4.881  3.8415  0.2326 -0.3853
  491MOL0     H67744   7.691   8.829   4.881 -0.6427 -3.4701 -1.9523
  491MOL0     H67745   7.483   8.753   4.802  0.8419  0.0329  0.5654
  491MOL0     H67746   7.245   8.861   4.782 -0.4139 -2.4248  0.5727
  491MOL0     H67747   7.135   8.920   4.648  0.6719  0.6686 -0.3499
  491MOL0     H67748   7.123   8.696   4.737  2.8656 -1.0206  1.2866
  491MOL0     H67749   7.262   8.646   4.652 -0.7306 -0.7562  0.0235
  491MOL0     H67750   7.073   8.582   4.502 -0.0140 -0.0113 -2.9315
  491MOL0     H67751   6.991   8.723   4.549  0.4546 -0.9444  0.9688
  491MOL0     H67752   7.167   8.848   4.394  3.3117 -0.6503 -0.4875
  491MOL0     H67753   7.072   8.722   4.310  0.2634 -1.5546 -0.4517
  491MOL0     H67754   7.435   8.505   4.357  3.7169  3.0099  1.9185
  491MOL0     H67755   7.459   9.124   4.566 -0.2907 -0.8376 -0.7706
  491MOL0     H67756   7.738   9.238   4.541  1.7591  2.7494  1.0350
  491MOL0     H67757   7.597   9.302   4.626  0.9076  1.9253  0.7412
  491MOL0     H67758   7.752   9.283   4.709 -0.8779  0.7245  1.5499
  492MOL0     O67759   2.083   1.241   9.947  0.4491 -0.0264 -0.1445
  492MOL0     C67760   2.007   1.168   9.885 -0.2035 -0.0664 -0.7452
  492MOL0     O67761   2.028   1.118   9.759  0.2787 -0.1512  0.4854
  492MOL0     C67762   2.151   1.129   9.710  0.3459  0.3971 -0.2864
  492MOL0     C67763   2.247   1.047   9.781  0.1476  0.6040 -0.0793
  492MOL0     C67764   2.375   1.031   9.740 -0.6092 -0.5754  0.1329
  492MOL0     C67765   2.410   1.071   9.603 -0.5726  0.7369 -0.3615
  492MOL0     O67766   2.536   1.053   9.547 -0.2643 -0.2242 -0.5916
  492MOL0     C67767   2.635   0.971   9.615 -0.0077  0.6698 -0.9907
  492MOL0     C67768   2.755   0.947   9.528  0.4334  0.0618  0.4654
  492MOL0     C67769   2.828   1.075   9.475 -0.1286  0.1115  0.4866
  492MOL0     C67770   2.949   1.040   9.395 -0.9222 -0.3821 -0.6588
  492MOL0     C67771   3.047   1.156   9.363 -0.1050  0.8128 -0.0651
  492MOL0     C67772   3.124   1.228   9.475  1.5513  0.5974  0.2555
  492MOL0     C67773   3.197   1.135   9.576  0.7396  0.0998  0.3789
  492MOL0     C67774   3.257   1.219   9.697 -0.0465 -0.0754  0.4894
  492MOL0     N67775   3.326   1.149   9.810 -0.5672  0.2164  0.5655
  492MOL0     C67776   3.312   1.011   9.829 -0.2869  0.6179  0.4303
  492MOL0     C67777   3.421   0.969   9.909  0.1503 -0.4803  0.6028
  492MOL0     C67778   3.456   0.840   9.966  0.3278  0.6978 -0.5867
  492MOL0     C67779   3.440   0.721   9.872 -1.2061  0.3403 -0.1898
  492MOL0     C67780   3.507   0.729   9.738  0.1966  0.1722  0.0883
  492MOL0     C67781   3.662   0.754   9.745  0.1504  0.5218  0.3836
  492MOL0     O67782   3.727   0.636   9.795  0.7311 -0.0155  0.0524
  492MOL0     C67783   3.860   0.658   9.810  0.2166  0.4666  0.2060
  492MOL0     C67784   3.934   0.548   9.841  0.4077 -0.1053 -0.6392
  492MOL0     C67785   4.068   0.555   9.872 -0.2797 -0.4655 -0.3740
  492MOL0     C67786   4.130   0.421   9.895  0.5057 -0.3856 -0.4606
  492MOL0     C67787   4.131   0.684   9.891 -0.1841 -0.1664  0.0588
  492MOL0     C67788   4.269   0.713   9.954  0.7788 -0.1638  0.1801
  492MOL0     O67789   4.364   0.619   9.962 -0.3598 -0.6676 -0.4345
  492MOL0     C67790   4.481   0.633  10.043  0.6429  1.2811 -0.5204
  492MOL0     C67791   4.560   0.743  10.060 -0.2496  0.1695 -0.7473
  492MOL0     C67792   4.668   0.743  10.151 -0.2029  0.0834 -0.0566
  492MOL0     C67793   4.714   0.628  10.208 -0.2127  0.8866 -0.0196
  492MOL0     O67794   4.827   0.611  10.286  0.4614 -0.4905  0.2668
  492MOL0     C67795   4.938   0.706  10.260  0.1888  0.2283  0.0553
  492MOL0     C67796   5.059   0.656  10.346 -0.0836  0.3386  0.1481
  492MOL0     C67797   5.029   0.628  10.498 -0.9383 -0.0766 -0.4760
  492MOL0     C67798   5.164   0.618  10.576 -1.4588 -0.5414 -0.2411
  492MOL0     C67799   5.145   0.655  10.719  0.0575 -1.0910 -0.2739
  492MOL0     C67800   5.039   0.576  10.789 -0.1087  0.3660  0.3226
  492MOL0     C67801   4.996   0.637  10.923  0.4371  0.2173 -0.3772
  492MOL0     C67802   4.941   0.532  11.011 -0.0869  0.7308  0.5266
  492MOL0    Cl67803   5.087   0.430  11.047  0.4281 -0.0155 -0.1207
  492MOL0     C67804   4.643   0.512  10.178 -0.6355 -0.3406 -0.0170
  492MOL0     C67805   4.528   0.511  10.099 -0.8089  0.8894 -0.1621
  492MOL0     O67806   4.277   0.828   9.999 -0.5773 -0.1950  0.6005
  492MOL0     C67807   4.058   0.794   9.843 -0.0829  0.3568 -0.3906
  492MOL0     C67808   3.928   0.781   9.807 -0.5224 -0.5382  0.2015
  492MOL0     N67809   3.489   1.091   9.937  0.5960  0.6155  0.8836
  492MOL0     N67810   3.429   1.194   9.884  0.1908 -0.4761  0.4697
  492MOL0     C67811   2.310   1.141   9.528  0.1837  0.0761  0.3900
  492MOL0     C67812   2.182   1.170   9.582  0.4039 -0.2746  0.5684
  492MOL0     C67813   1.875   1.158   9.952 -0.7205  0.1901 -0.0807
  492MOL0     C67814   1.766   1.152   9.860 -0.7149 -0.3279 -0.3296
  492MOL0     C67815   1.634   1.122   9.904 -1.1736  0.4230 -0.0246
  492MOL0     C67816   1.615   1.090  10.035 -0.0745 -0.0056  0.2030
  492MOL0     O67817   1.496   1.056  10.095  0.3172 -1.0264  0.2176
  492MOL0     C67818   1.421   0.962  10.023 -0.5437  0.2072  0.0024
  492MOL0     C67819   1.280   0.954  10.082  0.5291 -0.2700 -0.0590
  492MOL0     C67820   1.201   1.087  10.101  0.2151 -0.6806  0.2601
  492MOL0     C67821   1.058   1.053  10.140  0.3377  0.2443  0.7933
  492MOL0     C67822   0.957   1.154  10.118  0.4563 -0.2291 -0.5742
  492MOL0     C67823   0.882   1.253  10.102  0.1917  0.0900 -0.3529
  492MOL0     C67824   1.724   1.091  10.120  1.2230 -0.5410 -0.6797
  492MOL0     C67825   1.850   1.114  10.083 -0.9074  0.2024 -1.0736
  492MOL0     C67826   1.963   1.099  10.187 -0.7523 -0.6182  1.1133
  492MOL0     H67827   2.208   1.005   9.872 -1.2442 -0.2127 -1.0252
  492MOL0     H67828   2.448   0.992   9.810  0.6312  2.7498  0.8766
  492MOL0     H67829   2.595   0.873   9.642  1.8757  0.1479 -0.0019
  492MOL0     H67830   2.675   1.020   9.704 -2.5792 -0.1698  0.7576
  492MOL0     H67831   2.824   0.884   9.584  0.9947  3.1694  3.6218
  492MOL0     H67832   2.735   0.885   9.440  2.2517 -0.0162  0.0735
  492MOL0     H67833   2.768   1.135   9.406  1.5112  0.5378 -0.6183
  492MOL0     H67834   2.858   1.127   9.566 -2.3047 -1.7660  2.4032
  492MOL0     H67835   3.000   0.958   9.446  0.4945  0.3271 -0.9115
  492MOL0     H67836   2.924   0.998   9.297  0.7621  0.4102 -1.4663
  492MOL0     H67837   2.995   1.219   9.291 -4.1765 -1.7434  0.3170
  492MOL0     H67838   3.124   1.106   9.304  0.2062  1.7277 -0.4585
  492MOL0     H67839   3.196   1.294   9.425  0.5449  0.6430 -1.1738
  492MOL0     H67840   3.050   1.288   9.528  0.0082  0.5982 -1.7763
  492MOL0     H67841   3.285   1.096   9.523  1.0905  1.1551  0.1598
  492MOL0     H67842   3.131   1.057   9.613  0.0718  1.4923  2.2546
  492MOL0     H67843   3.316   1.299   9.652 -3.1867  2.3977  0.4476
  492MOL0     H67844   3.168   1.267   9.739  1.1752  1.9444  0.8980
  492MOL0     H67845   3.235   0.949   9.783  1.1875  0.1033 -1.5004
  492MOL0     H67846   3.389   0.830  10.052  0.4205 -0.2936 -0.6183
  492MOL0     H67847   3.556   0.843  10.011  0.6358 -5.4139 -0.0183
  492MOL0     H67848   3.473   0.628   9.918 -0.3020 -0.0818 -1.6256
  492MOL0     H67849   3.332   0.709   9.861 -1.0843  0.5300 -2.0001
  492MOL0     H67850   3.487   0.635   9.686 -1.8271  0.5142  0.1644
  492MOL0     H67851   3.471   0.816   9.681 -0.2983  1.5403  2.3691
  492MOL0     H67852   3.693   0.765   9.641  0.5671 -0.2383  0.4217
  492MOL0     H67853   3.679   0.845   9.803 -2.1528  2.8175 -2.2618
  492MOL0     H67854   3.881   0.454   9.851 -3.2001  1.7052 -1.0057
  492MOL0     H67855   4.231   0.415   9.852  2.1003 -2.6841  3.1047
  492MOL0     H67856   4.064   0.349   9.845 -0.0606 -1.5159  1.7816
  492MOL0     H67857   4.126   0.395  10.001 -1.4201  4.4601  0.9071
  492MOL0     H67858   4.528   0.845  10.044 -0.6204  0.7912  3.0203
  492MOL0     H67859   4.724   0.836  10.159  1.1182 -0.4460 -2.3897
  492MOL0     H67860   4.974   0.691  10.158  0.1095 -0.4865  0.1275
  492MOL0     H67861   4.912   0.808  10.290  1.0619  0.0745  1.4430
  492MOL0     H67862   5.108   0.573  10.294  2.3754 -0.2540  3.0814
  492MOL0     H67863   5.144   0.725  10.340  0.7712 -0.5012  1.7799
  492MOL0     H67864   4.977   0.533  10.515 -0.0506 -0.0089  3.7138
  492MOL0     H67865   4.964   0.701  10.546 -2.8383 -1.1327 -1.3246
  492MOL0     H67866   5.236   0.690  10.537  0.2702 -2.9990 -1.9189
  492MOL0     H67867   5.212   0.523  10.551 -1.6763 -0.7031 -0.0571
  492MOL0     H67868   5.239   0.652  10.775 -0.9348  1.5091  1.7633
  492MOL0     H67869   5.111   0.759  10.723 -0.5828 -1.2780 -0.8229
  492MOL0     H67870   5.078   0.475  10.800 -0.3424  0.4546  2.2803
  492MOL0     H67871   4.949   0.556  10.730  0.3198 -0.7284  0.0266
  492MOL0     H67872   4.919   0.714  10.909 -0.0710  1.0172  4.8674
  492MOL0     H67873   5.090   0.682  10.956  1.3371 -1.0252 -1.1450
  492MOL0     H67874   4.867   0.471  10.959 -0.5513  0.1364  1.8346
  492MOL0     H67875   4.895   0.575  11.101 -0.0852  0.4739  0.6515
  492MOL0     H67876   4.670   0.426  10.239 -2.4317 -1.5638 -0.8755
  492MOL0     H67877   4.480   0.414  10.089  1.4184 -0.3340  0.2285
  492MOL0     H67878   4.105   0.890   9.859  2.8229 -1.0367  0.1846
  492MOL0     H67879   3.885   0.878   9.785 -1.7158 -0.8668  0.9801
  492MOL0     H67880   2.328   1.179   9.428 -2.4550 -1.3225 -0.7186
  492MOL0     H67881   2.107   1.226   9.527  0.3824 -1.3065 -0.4887
  492MOL0     H67882   1.785   1.176   9.756  1.6849 -2.8494 -0.6027
  492MOL0     H67883   1.562   1.108   9.825 -0.2430 -0.5651 -0.7271
  492MOL0     H67884   1.414   0.975   9.914 -0.1567 -1.4420 -0.2488
  492MOL0     H67885   1.483   0.873  10.039  2.4561  2.4055  1.7145
  492MOL0     H67886   1.294   0.942  10.190 -1.7050  1.2925  0.4944
  492MOL0     H67887   1.219   0.871  10.045  0.5284 -0.9928  1.4513
  492MOL0     H67888   1.238   1.141  10.189 -0.7611 -1.9270  1.4882
  492MOL0     H67889   1.221   1.141  10.008  2.1950  0.9467  1.5372
  492MOL0     H67890   1.053   1.028  10.247 -1.9259  0.9629  0.9131
  492MOL0     H67891   1.021   0.968  10.082 -1.6709  0.9727  0.9449
  492MOL0     H67892   0.825   1.343  10.095  0.3965  0.2084 -0.5056
  492MOL0     H67893   1.706   1.053  10.220  0.8071 -0.9060 -0.8898
  492MOL0     H67894   2.052   1.058  10.140 -0.1119  2.3743 -0.5742
  492MOL0     H67895   1.996   1.197  10.222  0.1168 -0.4785 -0.0548
  492MOL0     H67896   1.928   1.037  10.270 -3.3195  0.2514  0.7769
  493MOL0     O67897  11.249   8.357   4.199 -0.3314  0.0569  0.4520
  493MOL0     C67898  11.170   8.445   4.158 -0.2057 -0.0522  0.0483
  493MOL0     O67899  11.205   8.569   4.131 -0.3167  0.2102  0.1441
  493MOL0     C67900  11.331   8.615   4.173 -0.1367  0.0591 -0.6578
  493MOL0     C67901  11.356   8.632   4.314  0.5666  0.6528 -0.0160
  493MOL0     C67902  11.482   8.681   4.354  0.2426 -1.0040  0.7875
  493MOL0     C67903  11.582   8.729   4.265  0.3924  0.1332 -0.0326
  493MOL0     O67904  11.703   8.760   4.324 -0.2456 -0.0216  0.4011
  493MOL0     C67905  11.809   8.802   4.239 -0.3155 -0.3746 -0.8813
  493MOL0     C67906  11.920   8.864   4.333 -0.0096  0.2834 -0.6333
  493MOL0     C67907  11.976   8.763   4.434 -0.3191  0.1795 -0.0879
  493MOL0     C67908  12.085   8.842   4.522  0.2486  0.2952 -0.1516
  493MOL0     C67909  12.218   8.858   4.450 -0.6819 -0.4992  0.5849
  493MOL0     C67910  12.337   8.918   4.538  0.2774  0.1017  0.5318
  493MOL0     C67911  12.477   8.871   4.492 -0.5563 -0.2863 -0.1596
  493MOL0     C67912  12.587   8.944   4.573  0.5860  0.0902  0.4449
  493MOL0     N67913  12.725   8.911   4.542 -0.7402 -0.2666  0.5909
  493MOL0     C67914  12.805   8.802   4.570 -0.1211  0.5996 -0.2408
  493MOL0     C67915  12.918   8.826   4.509  0.0276  0.2009 -0.1762
  493MOL0     C67916  13.052   8.755   4.512 -0.2136 -0.2363 -0.1060
  493MOL0     C67917  13.072   8.687   4.380 -0.0750  0.4724  1.9456
  493MOL0     C67918  13.202   8.608   4.352 -0.3753 -0.4640  0.1791
  493MOL0     C67919  13.330   8.699   4.360  0.4478  0.2823  0.5432
  493MOL0     O67920  13.443   8.610   4.323 -0.9026 -0.3294 -0.0066
  493MOL0     C67921  13.564   8.640   4.369  0.5090 -0.4388 -0.4807
  493MOL0     C67922  13.599   8.768   4.424 -0.2500  0.1811 -0.5489
  493MOL0     C67923  13.727   8.800   4.472 -0.1487  0.0385  0.1774
  493MOL0     C67924  13.743   8.946   4.511 -0.2075 -0.1540  1.1368
  493MOL0     C67925  13.829   8.708   4.463  0.5489  1.0294  0.6098
  493MOL0     C67926  13.966   8.728   4.513  0.2257  0.1774  0.2251
  493MOL0     O67927  13.991   8.826   4.602 -0.6322  0.0063  0.0175
  493MOL0     C67928  14.117   8.854   4.654 -0.0630 -0.8306  0.0256
  493MOL0     C67929  14.224   8.764   4.669 -0.2707  0.3959  0.2705
  493MOL0     C67930  14.351   8.797   4.719  0.5033  0.2674  0.0684
  493MOL0     C67931  14.372   8.925   4.765 -0.0449 -0.0716  0.3221
  493MOL0     O67932  14.496   8.956   4.809  0.4944  0.4038 -0.5195
  493MOL0     C67933  14.567   9.036   4.708 -0.3168  0.5993 -0.2947
  493MOL0     C67934  14.720   9.051   4.741 -0.5166 -0.8363  1.1861
  493MOL0     C67935  14.779   8.906   4.720  0.0760  0.1451  0.0681
  493MOL0     C67936  14.916   8.904   4.793 -1.1989  0.0981  0.0688
  493MOL0     C67937  15.024   8.962   4.686 -0.0468  0.1800 -0.8281
  493MOL0     C67938  15.153   8.975   4.767  0.0811 -0.5264  0.2719
  493MOL0     C67939  15.266   9.021   4.660 -0.5550  0.5881 -0.4300
  493MOL0     C67940  15.405   9.033   4.721 -0.2532  0.2762 -0.8267
  493MOL0    Cl67941  15.445   8.899   4.832  0.1627  0.8453 -0.1494
  493MOL0     C67942  14.273   9.024   4.749 -0.5024  0.7459 -1.1001
  493MOL0     C67943  14.143   8.990   4.703 -0.3649  0.2440 -0.0188
  493MOL0     O67944  14.048   8.648   4.471 -0.2252 -0.9808  0.1842
  493MOL0     C67945  13.799   8.582   4.400  0.0644 -0.1304  0.3458
  493MOL0     C67946  13.669   8.542   4.356 -0.3905 -0.5067  0.0628
  493MOL0     N67947  12.907   8.944   4.438 -0.7006  0.4685  0.3789
  493MOL0     N67948  12.797   8.997   4.464  0.4074 -0.7356 -0.0733
  493MOL0     C67949  11.551   8.715   4.132 -0.5343 -0.3092  0.6405
  493MOL0     C67950  11.427   8.664   4.079 -0.2521  0.8590 -0.7653
  493MOL0     C67951  11.028   8.410   4.147  0.9903  0.7337 -0.2044
  493MOL0     C67952  10.930   8.518   4.144  0.0421 -0.0084 -0.7411
  493MOL0     C67953  10.800   8.491   4.127 -0.0510 -0.0263  0.5641
  493MOL0     C67954  10.754   8.359   4.138  0.1914  0.3090  0.0167
  493MOL0     O67955  10.619   8.318   4.142  0.4196 -0.7392  0.1415
  493MOL0     C67956  10.519   8.413   4.110  0.4342  0.5527  0.3088
  493MOL0     C67957  10.385   8.342   4.097  0.2269  0.4076  0.5969
  493MOL0     C67958  10.286   8.433   4.017 -1.2560  0.4926  0.5961
  493MOL0     C67959  10.150   8.365   3.993 -1.2626 -0.5300  0.0239
  493MOL0     C67960  10.153   8.227   3.937 -0.2137  0.1080 -0.2252
  493MOL0     C67961  10.156   8.114   3.885 -0.4437  0.0640  0.0231
  493MOL0     C67962  10.848   8.258   4.144 -0.0043  1.2985 -0.1335
  493MOL0     C67963  10.985   8.276   4.150 -0.7856 -0.6273 -0.1084
  493MOL0     C67964  11.079   8.158   4.145  1.1341  0.1975  0.1395
  493MOL0     H67965  11.280   8.589   4.378 -1.6845 -0.0004 -2.9162
  493MOL0     H67966  11.500   8.684   4.461 -0.4783  0.3801  0.8917
  493MOL0     H67967  11.776   8.873   4.163  2.1839 -0.2912 -2.0083
  493MOL0     H67968  11.850   8.711   4.196 -1.2008 -0.3033 -1.8982
  493MOL0     H67969  11.996   8.906   4.265  0.9938 -0.2698  0.1220
  493MOL0     H67970  11.888   8.959   4.378  0.7093  0.1404  0.2093
  493MOL0     H67971  11.908   8.715   4.505 -0.2590  0.7265  0.3410
  493MOL0     H67972  12.009   8.669   4.387 -0.2741  0.5465 -0.8029
  493MOL0     H67973  12.053   8.941   4.554 -0.8502 -0.0389 -0.1810
  493MOL0     H67974  12.099   8.788   4.616  0.4995 -1.4068 -1.1186
  493MOL0     H67975  12.199   8.920   4.362  1.8036 -1.1223 -0.4817
  493MOL0     H67976  12.256   8.761   4.417 -0.0774 -0.1152  0.1389
  493MOL0     H67977  12.345   9.027   4.524 -0.7702  0.1578  0.3264
  493MOL0     H67978  12.336   8.893   4.645 -0.7188  0.4555  0.6105
  493MOL0     H67979  12.490   8.895   4.386  0.7850 -2.3912 -0.5286
  493MOL0     H67980  12.488   8.762   4.489 -1.4306 -0.3948 -3.2183
  493MOL0     H67981  12.573   9.052   4.568 -2.0939  0.0653  3.5970
  493MOL0     H67982  12.569   8.902   4.672 -2.7901 -0.1613 -0.1510
  493MOL0     H67983  12.773   8.713   4.624  1.4504  0.2820  0.2183
  493MOL0     H67984  13.056   8.683   4.594 -0.4851 -0.1295  0.0016
  493MOL0     H67985  13.135   8.826   4.525 -1.7588  1.3563  1.6382
  493MOL0     H67986  13.006   8.600   4.369  2.0860 -0.9984 -0.5272
  493MOL0     H67987  13.063   8.770   4.310  0.2756  0.4530  1.8773
  493MOL0     H67988  13.218   8.523   4.419  1.8393  0.3728  0.8023
  493MOL0     H67989  13.188   8.563   4.253 -2.5841  1.5978 -0.5428
  493MOL0     H67990  13.309   8.785   4.296 -1.1913  0.3834  1.1839
  493MOL0     H67991  13.333   8.732   4.464 -0.3266 -1.0077  0.9959
  493MOL0     H67992  13.525   8.848   4.420 -1.7135 -1.1087 -0.1756
  493MOL0     H67993  13.651   8.997   4.480  0.7993  0.6658 -0.6849
  493MOL0     H67994  13.828   8.995   4.463 -0.8042  0.7958  1.0104
  493MOL0     H67995  13.746   8.942   4.620 -2.2906  0.1927  1.2556
  493MOL0     H67996  14.217   8.664   4.629  1.1586 -0.1355  1.2721
  493MOL0     H67997  14.433   8.728   4.701 -0.0035 -0.8745  1.9192
  493MOL0     H67998  14.561   8.984   4.612  0.4096  1.0057 -0.5674
  493MOL0     H67999  14.526   9.137   4.699  1.3362  1.3471  0.1842
  493MOL0     H68000  14.757   9.129   4.675 -5.0609  0.7735  0.2172
  493MOL0     H68001  14.733   9.074   4.847 -2.6810 -0.1714  1.3545
  493MOL0     H68002  14.791   8.881   4.615  2.1404  1.1713  0.0052
  493MOL0     H68003  14.719   8.827   4.765 -2.2334  2.6675  1.7634
  493MOL0     H68004  14.939   8.802   4.825 -1.0925  0.0403 -0.1919
  493MOL0     H68005  14.909   8.959   4.887 -1.8708 -1.3906  0.9276
  493MOL0     H68006  15.034   8.890   4.605 -0.0857 -2.2237  1.1684
  493MOL0     H68007  15.005   9.061   4.646  1.4893  0.6639 -0.4265
  493MOL0     H68008  15.175   8.877   4.811  0.3778 -1.3741 -1.6651
  493MOL0     H68009  15.136   9.048   4.846 -0.9822 -1.6028  1.0807
  493MOL0     H68010  15.242   9.120   4.619  0.0357  0.7079 -0.4948
  493MOL0     H68011  15.276   8.942   4.586 -0.9027 -1.1272  1.2716
  493MOL0     H68012  15.413   9.126   4.779 -0.4649 -0.6182  0.6846
  493MOL0     H68013  15.477   9.030   4.639  1.9331 -2.0965  1.0298
  493MOL0     H68014  14.302   9.122   4.787 -1.0028 -0.2908  2.2965
  493MOL0     H68015  14.059   9.058   4.705  0.7476  1.6535  2.0086
  493MOL0     H68016  13.880   8.511   4.390  1.9199  2.0952 -1.5437
  493MOL0     H68017  13.655   8.447   4.305 -0.6478 -0.5316  0.1774
  493MOL0     H68018  11.617   8.736   4.048 -0.0217 -2.4710  0.4250
  493MOL0     H68019  11.420   8.648   3.972 -1.0477 -1.2396 -0.4395
  493MOL0     H68020  10.966   8.620   4.141  1.2534 -0.3873  0.0851
  493MOL0     H68021  10.724   8.568   4.117 -2.2858 -1.6720  3.3063
  493MOL0     H68022  10.504   8.493   4.184  1.1276  1.3688 -0.4130
  493MOL0     H68023  10.541   8.467   4.017 -0.3549 -0.2687 -0.3679
  493MOL0     H68024  10.334   8.311   4.189 -2.1380 -0.7686 -0.9827
  493MOL0     H68025  10.403   8.252   4.036  0.2718 -1.4245  3.1583
  493MOL0     H68026  10.258   8.524   4.071 -0.9324  1.6107 -1.0440
  493MOL0     H68027  10.325   8.444   3.915  0.3083 -2.6385  0.7166
  493MOL0     H68028  10.103   8.437   3.925  2.9389  3.3633  0.7844
  493MOL0     H68029  10.094   8.360   4.087  0.0969 -0.3255  0.8696
  493MOL0     H68030  10.155   8.009   3.865 -1.2264 -0.0246  0.4875
  493MOL0     H68031  10.810   8.156   4.139  0.5279  1.1344 -1.2036
  493MOL0     H68032  11.122   8.129   4.241 -2.7814 -5.3277  0.7022
  493MOL0     H68033  11.035   8.063   4.113 -0.2994  1.1580 -0.8913
  493MOL0     H68034  11.146   8.176   4.061 -1.2178 -0.8539 -2.1055
  494MOL0     O68035   7.482   2.809   2.281  0.2712  0.1563 -0.6102
  494MOL0     C68036   7.542   2.733   2.197  0.9786 -0.6348  0.5896
  494MOL0     O68037   7.674   2.704   2.193  0.4070 -0.3354 -0.3354
  494MOL0     C68038   7.740   2.733   2.310  0.7950  0.1634 -0.3493
  494MOL0     C68039   7.752   2.642   2.413 -0.6838 -0.0589 -0.4898
  494MOL0     C68040   7.817   2.682   2.527 -0.2718 -0.2355  0.5141
  494MOL0     C68041   7.865   2.808   2.540  0.2666 -0.0882 -0.0336
  494MOL0     O68042   7.901   2.835   2.669 -0.4156 -0.2975 -0.0173
  494MOL0     C68043   8.017   2.927   2.687  0.6095 -0.6289  0.5572
  494MOL0     C68044   8.051   2.980   2.817 -0.0584  0.7563 -0.3370
  494MOL0     C68045   8.200   3.028   2.812 -0.0536 -0.2350  0.8246
  494MOL0     C68046   8.246   3.063   2.962  0.2277 -0.1102  0.3791
  494MOL0     C68047   8.294   2.936   3.036 -0.2596 -1.5820  0.2416
  494MOL0     C68048   8.433   2.894   3.009  0.2180  0.6178  0.0146
  494MOL0     C68049   8.481   2.788   3.113 -0.4493  0.4190  0.7435
  494MOL0     C68050   8.517   2.839   3.249  0.9844  0.0237 -0.3208
  494MOL0     N68051   8.580   2.745   3.329  0.1911 -0.4838 -0.0829
  494MOL0     C68052   8.526   2.688   3.443  0.1944  0.5159  0.0389
  494MOL0     C68053   8.629   2.619   3.503 -0.9825 -0.2717  0.6725
  494MOL0     C68054   8.643   2.557   3.642 -0.9658  0.0929 -0.7873
  494MOL0     C68055   8.780   2.483   3.665  0.3061 -0.1678 -0.1335
  494MOL0     C68056   8.794   2.415   3.800  0.1836 -0.3397  0.3734
  494MOL0     C68057   8.674   2.323   3.836 -0.5590 -0.6749 -1.2882
  494MOL0     O68058   8.696   2.287   3.969  0.0788  0.0528 -0.2073
  494MOL0     C68059   8.778   2.180   4.000 -0.4183 -0.2020  0.3772
  494MOL0     C68060   8.769   2.060   3.927 -0.5832  0.4587 -1.2123
  494MOL0     C68061   8.844   1.950   3.965 -0.8565 -0.8132 -0.2926
  494MOL0     C68062   8.816   1.821   3.889 -0.2943  0.4076 -0.0680
  494MOL0     C68063   8.931   1.965   4.082 -0.0922  0.8043  0.0428
  494MOL0     C68064   9.017   1.852   4.146 -0.1145 -0.1039  0.1346
  494MOL0     O68065   9.093   1.896   4.250 -1.1059 -0.5387 -0.1134
  494MOL0     C68066   9.090   1.833   4.371 -0.1040 -0.5038 -1.1802
  494MOL0     C68067   9.199   1.842   4.452  0.3390 -0.8101  0.5575
  494MOL0     C68068   9.205   1.778   4.581  0.5950  0.5211  0.9798
  494MOL0     C68069   9.095   1.700   4.626 -0.7546 -0.2851  0.9020
  494MOL0     O68070   9.099   1.636   4.740 -0.1175  0.2275 -0.4193
  494MOL0     C68071   8.992   1.540   4.775  0.8964  0.9169 -0.2374
  494MOL0     C68072   9.041   1.425   4.862 -0.0767 -0.4532  0.3527
  494MOL0     C68073   9.094   1.317   4.783  0.1778 -0.6270  0.9443
  494MOL0     C68074   9.222   1.339   4.705 -0.7026  0.0887  0.0808
  494MOL0     C68075   9.336   1.332   4.804  0.3706  0.4329  0.1279
  494MOL0     C68076   9.462   1.327   4.727  0.0826  0.3327 -0.2088
  494MOL0     C68077   9.515   1.473   4.718 -0.4845  0.4641 -0.3706
  494MOL0     C68078   9.650   1.483   4.633 -0.6291  0.5862  0.1620
  494MOL0    Cl68079   9.702   1.654   4.623 -0.1501 -0.1713  0.5177
  494MOL0     C68080   8.976   1.703   4.544  0.1485  0.3769  0.4013
  494MOL0     C68081   8.976   1.765   4.417 -0.4738 -0.0980  0.6679
  494MOL0     O68082   9.005   1.739   4.103 -0.8920  0.4187 -0.0697
  494MOL0     C68083   8.937   2.083   4.151  0.2480  0.1493 -0.2761
  494MOL0     C68084   8.867   2.198   4.106  0.4509 -0.0222 -0.2205
  494MOL0     N68085   8.738   2.640   3.427 -0.0911  0.0397  0.5359
  494MOL0     N68086   8.715   2.718   3.324 -0.1619 -0.1205  0.9273
  494MOL0     C68087   7.853   2.899   2.431 -0.0253 -0.0752  0.3713
  494MOL0     C68088   7.785   2.859   2.317  0.0367  0.0531  0.4220
  494MOL0     C68089   7.459   2.672   2.084  0.1130 -0.0149 -0.6991
  494MOL0     C68090   7.524   2.588   1.993  0.6892 -0.1093 -0.8021
  494MOL0     C68091   7.448   2.530   1.892  0.6928 -0.2852 -0.4747
  494MOL0     C68092   7.309   2.547   1.869  0.1097  0.2566 -0.3154
  494MOL0     O68093   7.244   2.477   1.773  0.0784  0.1114  0.4409
  494MOL0     C68094   7.136   2.523   1.689  0.2535  0.5785  0.3195
  494MOL0     C68095   7.075   2.407   1.608  0.3664  0.5909  0.1456
  494MOL0     C68096   6.975   2.313   1.679 -0.1443 -0.0257  0.0683
  494MOL0     C68097   6.839   2.317   1.620 -0.1333  1.0870  0.2741
  494MOL0     C68098   6.783   2.455   1.629  0.0461  1.0658 -0.3403
  494MOL0     C68099   6.757   2.569   1.655 -0.6377 -0.0790  1.4689
  494MOL0     C68100   7.238   2.615   1.963 -0.9778  0.3276  0.0427
  494MOL0     C68101   7.311   2.680   2.073  0.2922 -0.6941 -0.9123
  494MOL0     C68102   7.222   2.775   2.152  0.2880 -0.4551  0.4420
  494MOL0     H68103   7.712   2.543   2.394  3.6509 -1.7282 -2.1655
  494MOL0     H68104   7.824   2.613   2.611 -0.7331  0.8713  1.4796
  494MOL0     H68105   7.998   3.011   2.619 -0.5759 -0.2044  1.3745
  494MOL0     H68106   8.108   2.874   2.658  0.4421 -1.3741  1.3521
  494MOL0     H68107   7.988   3.064   2.850  0.2657  0.1532  2.0184
  494MOL0     H68108   8.053   2.896   2.887  1.2794  1.0539  0.0066
  494MOL0     H68109   8.273   2.958   2.769 -1.2563  0.6099 -2.9102
  494MOL0     H68110   8.202   3.120   2.753 -0.8102 -1.7994 -1.8354
  494MOL0     H68111   8.320   3.143   2.948 -1.3300  0.8797 -3.3159
  494MOL0     H68112   8.159   3.107   3.012  0.1443 -0.5615  0.6275
  494MOL0     H68113   8.217   2.861   3.015 -2.5083  0.3729  1.0929
  494MOL0     H68114   8.284   2.954   3.143  0.7486  0.5195  0.0260
  494MOL0     H68115   8.434   2.858   2.906 -1.0151 -2.0887  0.8376
  494MOL0     H68116   8.497   2.982   3.022  1.1190 -0.2901  2.3388
  494MOL0     H68117   8.578   2.756   3.074 -1.4597  0.2986 -1.8306
  494MOL0     H68118   8.422   2.696   3.119  0.4868 -0.1516  1.5535
  494MOL0     H68119   8.577   2.929   3.233  1.3225 -0.6075 -3.0117
  494MOL0     H68120   8.421   2.862   3.295  0.5302 -3.9881  1.1840
  494MOL0     H68121   8.426   2.698   3.483  0.8785 -1.2187  2.4500
  494MOL0     H68122   8.563   2.484   3.633 -1.4275  0.8360 -5.1001
  494MOL0     H68123   8.620   2.634   3.717 -2.0455 -1.2002  0.2446
  494MOL0     H68124   8.798   2.401   3.595 -0.4271 -0.3413 -0.1239
  494MOL0     H68125   8.864   2.551   3.647  2.1248 -2.8538 -3.0359
  494MOL0     H68126   8.889   2.361   3.808 -0.4877 -1.5788  0.2211
  494MOL0     H68127   8.794   2.492   3.878  2.0464 -1.7486  1.8929
  494MOL0     H68128   8.575   2.370   3.837 -1.1012 -1.5364  2.5311
  494MOL0     H68129   8.666   2.236   3.771 -0.0497  0.5277 -3.0321
  494MOL0     H68130   8.700   2.045   3.844 -0.6825  1.3033 -1.2891
  494MOL0     H68131   8.748   1.839   3.805 -0.6673  0.2800  0.2034
  494MOL0     H68132   8.769   1.756   3.963  1.9710  0.4134  1.4769
  494MOL0     H68133   8.907   1.785   3.841 -0.2066 -1.0666  1.1388
  494MOL0     H68134   9.280   1.892   4.401 -0.7045 -2.4121 -2.9702
  494MOL0     H68135   9.306   1.781   4.619  0.6936 -1.4743  0.9847
  494MOL0     H68136   8.915   1.585   4.839 -0.1619 -0.2288 -0.6685
  494MOL0     H68137   8.952   1.497   4.683 -0.9889  2.0372  0.0062
  494MOL0     H68138   9.109   1.459   4.941  0.7301 -1.5222  0.1469
  494MOL0     H68139   8.953   1.381   4.911 -1.3113  2.0121  0.4861
  494MOL0     H68140   9.018   1.303   4.705 -0.5038  2.0376  1.0410
  494MOL0     H68141   9.107   1.228   4.845  0.9921 -0.8425  0.4755
  494MOL0     H68142   9.224   1.436   4.656  2.5627 -0.3573 -0.8732
  494MOL0     H68143   9.236   1.267   4.623  0.6195  0.4546 -0.0311
  494MOL0     H68144   9.323   1.415   4.874  0.1040  1.6371 -1.3000
  494MOL0     H68145   9.333   1.243   4.867 -0.3860  0.7957  0.6096
  494MOL0     H68146   9.451   1.300   4.622  1.4061  0.7480 -0.4812
  494MOL0     H68147   9.532   1.259   4.777 -0.5985  0.2709  0.6854
  494MOL0     H68148   9.514   1.513   4.820 -0.3886 -0.8018  0.1460
  494MOL0     H68149   9.443   1.536   4.665  0.6828  3.1013  0.9917
  494MOL0     H68150   9.637   1.445   4.532 -2.5872 -0.5598  0.7874
  494MOL0     H68151   9.727   1.429   4.689 -2.0364 -1.6187  0.1110
  494MOL0     H68152   8.883   1.658   4.577  0.8430 -0.2039  1.6516
  494MOL0     H68153   8.886   1.754   4.357 -0.6659  0.8737  0.7593
  494MOL0     H68154   9.000   2.092   4.240  0.8894 -0.8210 -0.6186
  494MOL0     H68155   8.883   2.292   4.158 -1.1034  0.3733 -0.4156
  494MOL0     H68156   7.886   3.002   2.431  0.1297 -0.1245  0.2671
  494MOL0     H68157   7.782   2.927   2.233  0.9390 -1.4330 -0.8711
  494MOL0     H68158   7.632   2.584   1.992  0.8154  1.9996 -1.8385
  494MOL0     H68159   7.503   2.460   1.830 -0.6892 -0.7580 -1.2109
  494MOL0     H68160   7.052   2.570   1.741 -0.0321  0.9690 -0.4783
  494MOL0     H68161   7.176   2.593   1.616 -1.3632  1.8748  0.6191
  494MOL0     H68162   7.161   2.344   1.585  0.0018 -1.3574  3.5245
  494MOL0     H68163   7.038   2.432   1.508  2.8806 -1.9644 -1.5828
  494MOL0     H68164   7.022   2.215   1.670  0.2605  0.2145 -0.6017
  494MOL0     H68165   6.978   2.332   1.786  1.1433  2.0642 -0.2776
  494MOL0     H68166   6.778   2.241   1.670  1.4547 -0.0057  0.6531
  494MOL0     H68167   6.852   2.292   1.514  0.2324  0.6297  0.4187
  494MOL0     H68168   6.765   2.675   1.667  0.4432 -0.0157  0.3419
  494MOL0     H68169   7.135   2.647   1.948 -0.3292  1.8526 -1.4898
  494MOL0     H68170   7.270   2.873   2.144  1.5883 -1.0582  0.6462
  494MOL0     H68171   7.122   2.793   2.112 -0.5755 -0.1766  2.6004
  494MOL0     H68172   7.211   2.750   2.258  2.1786  1.8096  1.2779
  495MOL0     O68173   8.694   1.346   5.282  0.2051 -0.4120  0.0748
  495MOL0     C68174   8.719   1.459   5.320  0.6723  0.6432  0.7127
  495MOL0     O68175   8.683   1.578   5.257  0.1273  0.3733  0.0542
  495MOL0     C68176   8.624   1.570   5.136 -0.0023  0.3093  0.6544
  495MOL0     C68177   8.680   1.565   5.015  0.0077  0.1531  1.3338
  495MOL0     C68178   8.600   1.574   4.902 -0.1102 -0.0713  0.1246
  495MOL0     C68179   8.467   1.584   4.898  0.3386 -0.2601  0.9544
  495MOL0     O68180   8.406   1.589   4.774 -0.7119 -0.4037  0.0582
  495MOL0     C68181   8.265   1.604   4.755  0.2936 -0.5709 -0.6126
  495MOL0     C68182   8.232   1.569   4.610 -0.2098  0.5349 -0.1445
  495MOL0     C68183   8.083   1.584   4.584 -0.2366  0.5513 -0.3452
  495MOL0     C68184   8.056   1.588   4.438  1.0819  0.1574  0.4036
  495MOL0     C68185   7.916   1.622   4.406  0.8840  0.3457  0.4137
  495MOL0     C68186   7.816   1.507   4.421  0.2286  0.0471 -0.1149
  495MOL0     C68187   7.687   1.544   4.334  0.5224  0.9145  0.4050
  495MOL0     C68188   7.700   1.482   4.192 -0.2069 -0.8547  0.1046
  495MOL0     N68189   7.568   1.453   4.129 -0.7008 -0.4664 -0.3299
  495MOL0     C68190   7.544   1.335   4.067 -0.5406  0.5423 -0.1582
  495MOL0     C68191   7.428   1.354   3.999 -0.6883 -0.3451 -0.2876
  495MOL0     C68192   7.356   1.244   3.933  0.0600  0.7518  0.6417
  495MOL0     C68193   7.209   1.213   3.995 -0.4515  0.3153 -0.1538
  495MOL0     C68194   7.154   1.068   3.981 -1.0815  0.3411  0.1236
  495MOL0     C68195   7.021   1.051   4.062 -0.4574 -0.5157 -0.4741
  495MOL0     O68196   6.931   1.152   4.017 -0.4281  1.7578  0.7095
  495MOL0     C68197   6.803   1.140   4.052  0.9487  0.6535 -0.2222
  495MOL0     C68198   6.726   1.233   3.989 -0.4101 -0.4614 -0.7372
  495MOL0     C68199   6.593   1.256   4.028 -0.3067  0.8390 -0.1374
  495MOL0     C68200   6.541   1.377   3.965  0.5813 -1.6532  1.1842
  495MOL0     C68201   6.533   1.171   4.127 -0.1520  0.5598  0.5151
  495MOL0     C68202   6.390   1.186   4.162 -0.0702 -1.1027 -0.6787
  495MOL0     O68203   6.311   1.268   4.098 -0.0575 -0.6207 -0.1487
  495MOL0     C68204   6.179   1.301   4.128  0.4565 -0.2422  0.6905
  495MOL0     C68205   6.148   1.431   4.106 -0.2425  0.0657 -1.2122
  495MOL0     C68206   6.017   1.469   4.144  1.5680  0.1510 -0.1768
  495MOL0     C68207   5.919   1.384   4.183 -0.1284  0.1234  0.3700
  495MOL0     O68208   5.791   1.422   4.199  0.0122  0.0624  0.2654
  495MOL0     C68209   5.692   1.354   4.124 -0.1501 -0.3184 -0.5971
  495MOL0     C68210   5.584   1.460   4.098  0.1417  0.1181  0.4209
  495MOL0     C68211   5.476   1.382   4.012  0.3655  0.4629 -0.0846
  495MOL0     C68212   5.359   1.471   3.948  0.4970  0.0060  0.1973
  495MOL0     C68213   5.320   1.591   4.036 -0.5180  0.3625  0.1356
  495MOL0     C68214   5.198   1.666   3.989 -0.1750 -0.3381  0.3455
  495MOL0     C68215   5.189   1.796   4.071  0.1738 -0.7507  0.0750
  495MOL0     C68216   5.052   1.864   4.035 -0.1763 -0.7057 -0.8157
  495MOL0    Cl68217   4.896   1.795   4.093 -0.0483 -0.0750 -0.3738
  495MOL0     C68218   5.953   1.252   4.202  0.6247  0.4830  0.4991
  495MOL0     C68219   6.087   1.212   4.179 -0.2748  0.0417  0.0467
  495MOL0     O68220   6.355   1.113   4.263 -0.4805  0.7264  0.1095
  495MOL0     C68221   6.616   1.069   4.188 -0.4299 -0.7355 -0.3997
  495MOL0     C68222   6.749   1.052   4.146  0.6934 -0.4799 -0.2104
  495MOL0     N68223   7.409   1.486   4.005  0.8675 -0.6863  0.1802
  495MOL0     N68224   7.486   1.551   4.091  0.5377  0.6901 -0.9121
  495MOL0     C68225   8.409   1.594   5.027 -0.1811  0.7873  0.0161
  495MOL0     C68226   8.482   1.599   5.150  0.4464  0.0310 -0.9332
  495MOL0     C68227   8.783   1.491   5.448  0.5352 -0.3018 -0.5664
  495MOL0     C68228   8.737   1.593   5.531  1.1421 -0.0498  0.4943
  495MOL0     C68229   8.763   1.630   5.662 -0.2284 -0.1072  0.0788
  495MOL0     C68230   8.860   1.543   5.716  0.7179 -0.8408 -0.1436
  495MOL0     O68231   8.892   1.541   5.848  0.2423 -0.0266  0.1123
  495MOL0     C68232   8.852   1.631   5.954 -0.4507  0.0815  0.6932
  495MOL0     C68233   8.946   1.756   5.982  0.4780  0.0025 -0.2928
  495MOL0     C68234   9.092   1.697   6.004 -0.8652  0.6376  0.0344
  495MOL0     C68235   9.198   1.800   6.038  0.2327 -0.0059 -0.2970
  495MOL0     C68236   9.322   1.735   6.054  0.6996  0.3495 -0.7108
  495MOL0     C68237   9.424   1.669   6.060 -0.6445  0.0203  0.8084
  495MOL0     C68238   8.916   1.440   5.649  0.0907  0.3307  0.0052
  495MOL0     C68239   8.879   1.409   5.514 -0.1710  0.6134  1.0061
  495MOL0     C68240   8.946   1.274   5.457 -0.1436 -0.0760  0.2727
  495MOL0     H68241   8.787   1.551   5.002 -0.5799 -1.9436 -3.2912
  495MOL0     H68242   8.645   1.561   4.804 -3.1549 -0.4865 -1.3197
  495MOL0     H68243   8.232   1.700   4.796  0.5085 -2.0395  3.4774
  495MOL0     H68244   8.219   1.523   4.812 -0.1627 -0.5622 -0.9607
  495MOL0     H68245   8.291   1.632   4.543 -1.3998  1.1027 -0.6991
  495MOL0     H68246   8.266   1.466   4.596  0.3017  0.6812  0.0178
  495MOL0     H68247   8.022   1.508   4.634  0.1316  1.8182  2.1796
  495MOL0     H68248   8.045   1.679   4.623 -0.0796  0.9490 -1.1413
  495MOL0     H68249   8.119   1.666   4.393  1.3508 -1.4322 -2.1079
  495MOL0     H68250   8.083   1.493   4.393 -0.0517 -0.0999  0.2534
  495MOL0     H68251   7.915   1.648   4.300  1.7047 -1.4647 -0.0738
  495MOL0     H68252   7.883   1.716   4.450  1.4800  1.1887 -0.8865
  495MOL0     H68253   7.860   1.419   4.374 -0.6298  0.6979 -2.2727
  495MOL0     H68254   7.798   1.499   4.529  3.8682  4.0146  1.1062
  495MOL0     H68255   7.665   1.652   4.337 -4.0113  0.2056  0.2836
  495MOL0     H68256   7.604   1.497   4.386  0.8457 -1.3804 -1.0353
  495MOL0     H68257   7.759   1.542   4.122  1.3294 -0.3646  1.7556
  495MOL0     H68258   7.752   1.385   4.191 -0.8197 -1.1901 -0.2376
  495MOL0     H68259   7.603   1.244   4.075 -1.8663 -0.4469 -1.2213
  495MOL0     H68260   7.411   1.151   3.947  0.9283  1.1100 -0.2516
  495MOL0     H68261   7.341   1.265   3.826 -1.5267  1.2240  0.9241
  495MOL0     H68262   7.241   1.216   4.099  3.0926 -1.5929 -1.0186
  495MOL0     H68263   7.140   1.292   3.962 -0.5877  0.7595  1.1512
  495MOL0     H68264   7.142   1.048   3.874 -2.4665  0.1091  0.3113
  495MOL0     H68265   7.229   0.994   4.011  1.4703  2.6889 -0.0892
  495MOL0     H68266   6.993   0.947   4.044  0.8440 -1.2274  1.3335
  495MOL0     H68267   7.028   1.071   4.169 -1.4726  0.1794 -0.5177
  495MOL0     H68268   6.766   1.307   3.920 -2.4123  0.6322 -0.8000
  495MOL0     H68269   6.533   1.453   4.043  0.7238  0.7872 -1.0531
  495MOL0     H68270   6.440   1.365   3.924 -0.0373  1.8836  1.3430
  495MOL0     H68271   6.607   1.422   3.890 -2.4479 -0.0021 -0.7170
  495MOL0     H68272   6.211   1.502   4.054  0.6946  0.9926  1.0456
  495MOL0     H68273   5.993   1.570   4.114  1.0485 -0.0672 -0.5113
  495MOL0     H68274   5.728   1.303   4.034 -1.4028 -1.1299 -0.6619
  495MOL0     H68275   5.651   1.273   4.185 -0.7260 -0.2770 -0.9215
  495MOL0     H68276   5.530   1.496   4.186 -0.9962 -4.0509  1.6736
  495MOL0     H68277   5.626   1.536   4.031 -0.2496  0.1799  0.2486
  495MOL0     H68278   5.424   1.309   4.075 -0.0920  1.8602  1.2024
  495MOL0     H68279   5.519   1.327   3.928  2.4368  0.9148  0.6334
  495MOL0     H68280   5.267   1.412   3.940  1.6455 -1.9154  0.3658
  495MOL0     H68281   5.382   1.500   3.846 -1.6446  0.9516 -0.0702
  495MOL0     H68282   5.304   1.548   4.136  1.2075 -1.3112 -0.2424
  495MOL0     H68283   5.405   1.658   4.052 -1.5397  2.0814 -1.3927
  495MOL0     H68284   5.100   1.618   3.994 -0.1847 -0.5398 -1.2247
  495MOL0     H68285   5.215   1.696   3.885 -1.7735  1.2377  0.4854
  495MOL0     H68286   5.271   1.863   4.044  2.2725 -2.8078  0.9854
  495MOL0     H68287   5.207   1.774   4.177  3.5459 -2.7876 -0.7542
  495MOL0     H68288   5.042   1.880   3.927 -1.0964  2.8068 -0.3394
  495MOL0     H68289   5.054   1.969   4.067  3.4442 -1.2700  1.3479
  495MOL0     H68290   5.876   1.179   4.228  2.2109 -1.2307  0.6005
  495MOL0     H68291   6.108   1.110   4.210 -1.9088 -0.0191  1.0885
  495MOL0     H68292   6.573   0.994   4.253 -0.0718  0.4986  1.3257
  495MOL0     H68293   6.803   0.969   4.190  2.5626  0.1304 -1.2422
  495MOL0     H68294   8.300   1.602   5.029 -0.3493 -0.6507 -1.7448
  495MOL0     H68295   8.427   1.598   5.243 -2.4375  1.9308 -2.4763
  495MOL0     H68296   8.650   1.647   5.494  0.9858 -0.2905  0.5052
  495MOL0     H68297   8.720   1.708   5.723  2.0308 -0.4788  2.3414
  495MOL0     H68298   8.754   1.673   5.929 -0.6085 -0.6285  0.0826
  495MOL0     H68299   8.848   1.571   6.045  0.8706 -1.2584 -0.0697
  495MOL0     H68300   8.919   1.810   6.074  1.0339  1.7228 -1.0949
  495MOL0     H68301   8.943   1.830   5.901  0.4264  1.6556  1.1340
  495MOL0     H68302   9.090   1.622   6.084 -0.4391 -0.4877 -0.9838
  495MOL0     H68303   9.127   1.649   5.913  1.8895  0.0456  1.3124
  495MOL0     H68304   9.172   1.849   6.133  0.3111  0.2261 -0.3945
  495MOL0     H68305   9.206   1.876   5.959 -0.8451 -1.9260 -2.3650
  495MOL0     H68306   9.499   1.594   6.041 -0.8469  0.0049  0.0063
  495MOL0     H68307   8.982   1.368   5.695  0.2168 -0.0090 -0.6907
  495MOL0     H68308   9.055   1.283   5.458 -0.1078  1.2041 -2.8361
  495MOL0     H68309   8.924   1.188   5.520 -0.2400 -0.8414 -0.7637
  495MOL0     H68310   8.915   1.268   5.352 -0.0196  0.0510  0.2294
  496MOL0     O68311   6.727   0.886   7.422  0.1148  0.1547  0.8769
  496MOL0     C68312   6.792   0.985   7.448 -0.1667  0.3109  0.2963
  496MOL0     O68313   6.915   1.012   7.394 -0.1637  0.2423  1.2451
  496MOL0     C68314   6.968   0.910   7.317  0.9372  0.3067 -0.4439
  496MOL0     C68315   7.070   0.833   7.361  0.0331  0.8081 -0.5159
  496MOL0     C68316   7.128   0.732   7.280 -0.6010 -0.1652 -0.6706
  496MOL0     C68317   7.059   0.696   7.163 -0.6786  0.1968 -0.5536
  496MOL0     O68318   7.123   0.585   7.104  0.3651  0.1287  0.2218
  496MOL0     C68319   7.110   0.581   6.957  0.1594 -1.0840 -0.0708
  496MOL0     C68320   7.190   0.463   6.906 -0.1077 -0.0060 -0.3327
  496MOL0     C68321   7.239   0.490   6.755  0.8524 -0.0398 -0.0958
  496MOL0     C68322   7.380   0.544   6.762 -0.0883 -0.8607 -0.6024
  496MOL0     C68323   7.430   0.557   6.619 -0.3956 -0.4696 -0.0369
  496MOL0     C68324   7.570   0.623   6.623 -0.0734 -0.0766 -0.0548
  496MOL0     C68325   7.632   0.631   6.476  0.2971 -0.5431 -0.0871
  496MOL0     C68326   7.548   0.741   6.386  0.1313 -0.6152 -0.2757
  496MOL0     N68327   7.570   0.744   6.240  0.2236  0.0287  0.2202
  496MOL0     C68328   7.680   0.786   6.169 -0.7708 -0.4639 -0.1619
  496MOL0     C68329   7.656   0.766   6.041 -0.4318  0.0760  0.0901
  496MOL0     C68330   7.747   0.786   5.917 -0.4218 -0.1994  0.0645
  496MOL0     C68331   7.899   0.780   5.949 -0.0381 -0.4790  0.5867
  496MOL0     C68332   7.926   0.641   6.003  0.5117  0.2433  0.2860
  496MOL0     C68333   8.073   0.616   6.009  0.0412  0.0792 -0.1092
  496MOL0     O68334   8.168   0.726   6.047  1.2481  0.6593 -0.0681
  496MOL0     C68335   8.303   0.691   6.050 -0.3789  0.0322  0.0725
  496MOL0     C68336   8.350   0.558   6.064 -0.1930 -0.3535  0.4227
  496MOL0     C68337   8.491   0.527   6.084  0.3702  0.4830 -0.1413
  496MOL0     C68338   8.527   0.382   6.107 -0.1345  0.5715  0.1902
  496MOL0     C68339   8.578   0.633   6.099  0.8056 -0.5335 -0.0360
  496MOL0     C68340   8.722   0.617   6.129 -0.1259  0.0228  0.1407
  496MOL0     O68341   8.772   0.494   6.136 -0.3695 -0.7029  0.1254
  496MOL0     C68342   8.902   0.471   6.156 -0.2080 -0.1532  0.1150
  496MOL0     C68343   9.006   0.515   6.070  0.0325 -0.4874  0.2287
  496MOL0     C68344   9.143   0.483   6.090 -0.4972  0.6603  0.4707
  496MOL0     C68345   9.177   0.410   6.202  0.4008 -0.0925  0.0664
  496MOL0     O68346   9.301   0.387   6.254  0.0093  0.0060 -0.1718
  496MOL0     C68347   9.408   0.380   6.163 -0.0206 -1.0542 -0.1524
  496MOL0     C68348   9.525   0.384   6.250  0.5190  0.3443  0.9101
  496MOL0     C68349   9.658   0.411   6.166  0.3022  0.3143  0.1338
  496MOL0     C68350   9.774   0.456   6.249 -0.3920 -0.1941 -0.1236
  496MOL0     C68351   9.903   0.428   6.177 -0.1217  0.0360 -0.4456
  496MOL0     C68352  10.023   0.468   6.263 -0.5369 -0.1849 -0.5614
  496MOL0     C68353  10.156   0.426   6.197 -1.2186  0.2988 -0.4164
  496MOL0     C68354  10.272   0.532   6.212 -0.4922 -0.4035 -0.0508
  496MOL0    Cl68355  10.282   0.613   6.374 -0.2663  0.1706  0.3476
  496MOL0     C68356   9.078   0.365   6.289 -0.0686 -0.2086 -0.7360
  496MOL0     C68357   8.944   0.393   6.268  0.8409 -0.2088  0.3594
  496MOL0     O68358   8.790   0.724   6.140 -0.0287 -0.2759 -0.1595
  496MOL0     C68359   8.527   0.766   6.089  0.0817 -0.8610 -0.6424
  496MOL0     C68360   8.392   0.792   6.072  0.0347 -0.0519 -0.4295
  496MOL0     N68361   7.523   0.712   6.030  0.2937 -0.7315 -0.0270
  496MOL0     N68362   7.475   0.700   6.147  0.8085  0.0820 -1.0016
  496MOL0     C68363   6.946   0.770   7.117 -0.3434 -0.0655 -0.0963
  496MOL0     C68364   6.904   0.878   7.193 -0.1895  0.5249 -0.2909
  496MOL0     C68365   6.738   1.087   7.536  0.4067  0.4582 -0.9399
  496MOL0     C68366   6.820   1.205   7.559  0.6736 -0.5641 -0.0821
  496MOL0     C68367   6.775   1.307   7.640 -0.5604 -0.8177 -0.3002
  496MOL0     C68368   6.654   1.301   7.708  0.1083 -0.4592  0.8878
  496MOL0     O68369   6.602   1.408   7.783  0.5406 -0.2873 -0.0148
  496MOL0     C68370   6.675   1.538   7.805 -0.4199 -0.5817  0.0919
  496MOL0     C68371   6.592   1.626   7.900 -0.2567  0.3114 -0.3187
  496MOL0     C68372   6.462   1.673   7.854  0.3560 -0.2330  0.8060
  496MOL0     C68373   6.400   1.768   7.958 -0.3123 -0.2990  0.0430
  496MOL0     C68374   6.260   1.797   7.930 -0.6561  1.0904 -0.5208
  496MOL0     C68375   6.142   1.812   7.898 -0.2185 -0.5826 -0.0510
  496MOL0     C68376   6.570   1.186   7.692  0.3570  0.5590  0.5164
  496MOL0     C68377   6.614   1.076   7.609 -0.4675  0.7427 -0.1579
  496MOL0     C68378   6.506   0.967   7.608  0.0223  0.5420 -0.2144
  496MOL0     H68379   7.110   0.845   7.461 -0.4933 -2.5611  0.2041
  496MOL0     H68380   7.213   0.672   7.311 -0.5741 -1.0070 -2.2885
  496MOL0     H68381   7.154   0.673   6.918 -1.0296 -0.4099  0.1183
  496MOL0     H68382   7.006   0.586   6.921 -0.2349  0.0396  1.1211
  496MOL0     H68383   7.276   0.434   6.967 -0.0291 -2.6653 -1.5900
  496MOL0     H68384   7.121   0.379   6.905  0.3306 -0.3647 -0.6161
  496MOL0     H68385   7.240   0.398   6.696  1.7418 -0.3068  0.3152
  496MOL0     H68386   7.165   0.559   6.714  0.7230  1.5722  2.6173
  496MOL0     H68387   7.373   0.645   6.805  2.3073 -1.9439  2.7865
  496MOL0     H68388   7.455   0.483   6.812  0.8245 -1.5354 -2.6886
  496MOL0     H68389   7.357   0.614   6.560  0.5130 -0.6614 -1.3827
  496MOL0     H68390   7.450   0.460   6.575 -1.3161 -0.5728 -0.2375
  496MOL0     H68391   7.555   0.725   6.661  0.0927  0.3399 -1.0766
  496MOL0     H68392   7.635   0.565   6.690 -0.2644 -1.3652 -0.9532
  496MOL0     H68393   7.627   0.532   6.430 -3.8186 -0.8375  0.6551
  496MOL0     H68394   7.734   0.671   6.478  1.0565 -2.2511 -1.7727
  496MOL0     H68395   7.442   0.718   6.399  0.4159 -1.5781  0.4537
  496MOL0     H68396   7.560   0.840   6.431 -0.8480 -0.2714 -0.7324
  496MOL0     H68397   7.777   0.820   6.203 -0.6193  0.1793 -1.1911
  496MOL0     H68398   7.724   0.878   5.861  1.7317 -0.0083 -0.5772
  496MOL0     H68399   7.721   0.715   5.838 -3.0984  2.9225 -2.1452
  496MOL0     H68400   7.954   0.798   5.857  1.5460  1.5140  1.8346
  496MOL0     H68401   7.928   0.866   6.011  2.1026  0.3332 -1.3879
  496MOL0     H68402   7.878   0.628   6.100 -0.5782  0.5226 -0.2014
  496MOL0     H68403   7.879   0.568   5.936 -2.2304  1.8337  0.3032
  496MOL0     H68404   8.083   0.530   6.076 -1.6957  0.4997  0.7628
  496MOL0     H68405   8.089   0.574   5.910 -1.0132 -1.7321  0.4466
  496MOL0     H68406   8.291   0.468   6.052  0.9853 -1.2138  0.8786
  496MOL0     H68407   8.444   0.318   6.075  1.3896  0.0139 -3.0179
  496MOL0     H68408   8.566   0.364   6.208  0.6457  1.6267  0.0980
  496MOL0     H68409   8.603   0.353   6.034  1.9299 -0.0461  2.4242
  496MOL0     H68410   8.981   0.560   5.974  0.4554 -0.6404  0.0478
  496MOL0     H68411   9.217   0.527   6.024 -0.8189  1.5478  0.6869
  496MOL0     H68412   9.397   0.293   6.097 -0.4451  0.8570 -2.7551
  496MOL0     H68413   9.405   0.470   6.102  2.7516 -2.2481 -2.2823
  496MOL0     H68414   9.522   0.469   6.319 -1.4115 -0.8175  2.3857
  496MOL0     H68415   9.528   0.285   6.298 -0.2978 -0.1728 -0.0550
  496MOL0     H68416   9.644   0.489   6.091 -0.3143 -3.0275 -3.6029
  496MOL0     H68417   9.678   0.313   6.120  2.5629  0.3079  1.0180
  496MOL0     H68418   9.761   0.386   6.333 -3.4503  1.5429  1.0248
  496MOL0     H68419   9.766   0.558   6.288 -2.2040 -1.3102  2.7202
  496MOL0     H68420   9.915   0.322   6.156 -0.9187 -0.1363 -0.0599
  496MOL0     H68421   9.902   0.489   6.086 -0.1622  1.8197  0.6924
  496MOL0     H68422  10.026   0.413   6.357  1.3404 -0.4273 -0.7167
  496MOL0     H68423  10.012   0.575   6.284 -2.4884 -0.4093 -0.2351
  496MOL0     H68424  10.137   0.407   6.091 -0.4046  0.1219 -0.5360
  496MOL0     H68425  10.193   0.335   6.245 -2.5236 -1.0705 -1.9121
  496MOL0     H68426  10.269   0.594   6.122 -0.8148  1.6122  1.2779
  496MOL0     H68427  10.366   0.479   6.192 -1.2351 -1.3000 -1.2251
  496MOL0     H68428   9.109   0.321   6.383 -0.0113 -0.8071 -1.0284
  496MOL0     H68429   8.865   0.368   6.338 -0.1625  1.0475 -0.2738
  496MOL0     H68430   8.584   0.856   6.106 -1.0858 -0.2732  0.2862
  496MOL0     H68431   8.358   0.895   6.079 -0.1808 -0.2286  1.8419
  496MOL0     H68432   6.906   0.750   7.019 -0.4047 -0.7882  0.0730
  496MOL0     H68433   6.820   0.924   7.142 -0.7689 -1.7906 -1.5790
  496MOL0     H68434   6.906   1.214   7.493 -1.2253 -3.1278 -3.1940
  496MOL0     H68435   6.839   1.392   7.659 -2.1624  0.4211 -0.1721
  496MOL0     H68436   6.781   1.528   7.834 -0.9305 -0.4183  2.2261
  496MOL0     H68437   6.675   1.584   7.706  1.8049  1.4194  0.8979
  496MOL0     H68438   6.660   1.705   7.933  1.6800 -1.3222 -0.2073
  496MOL0     H68439   6.575   1.566   7.990 -4.6707  0.4058 -0.8818
  496MOL0     H68440   6.467   1.712   7.753 -2.3687 -0.4213  0.5195
  496MOL0     H68441   6.400   1.583   7.851 -3.2155  2.0357  0.7238
  496MOL0     H68442   6.460   1.858   7.946 -1.3026  0.5002  0.8832
  496MOL0     H68443   6.403   1.721   8.057  1.3146 -0.1021  0.1045
  496MOL0     H68444   6.042   1.834   7.867 -0.7331  0.9389  2.3958
  496MOL0     H68445   6.469   1.189   7.733 -0.7303  1.6985 -2.0091
  496MOL0     H68446   6.449   0.961   7.702  1.2402 -3.4682  0.4514
  496MOL0     H68447   6.448   0.963   7.516 -1.1439 -1.2828  0.5349
  496MOL0     H68448   6.562   0.874   7.616 -0.3735  0.0660 -2.4297
  497MOL0     O68449   5.454   0.803   7.579 -0.6581  0.3648 -0.3829
  497MOL0     C68450   5.474   0.689   7.544  0.0981 -0.0550  0.5285
  497MOL0     O68451   5.382   0.596   7.508 -0.7659  0.5283 -0.5572
  497MOL0     C68452   5.247   0.599   7.542  0.1021  0.2628  0.1590
  497MOL0     C68453   5.199   0.649   7.666  0.0934  0.2174 -0.1599
  497MOL0     C68454   5.058   0.636   7.693  0.5591 -0.7343  0.4760
  497MOL0     C68455   4.968   0.578   7.598 -1.4620  0.9061 -0.8015
  497MOL0     O68456   4.844   0.544   7.635 -0.5167 -0.3539  0.5936
  497MOL0     C68457   4.761   0.640   7.694 -0.5086 -0.6157 -0.7478
  497MOL0     C68458   4.626   0.584   7.734  0.8189  0.6285  0.0116
  497MOL0     C68459   4.630   0.487   7.850  0.6620 -0.0091  0.2032
  497MOL0     C68460   4.512   0.399   7.867  0.4881 -0.4810  0.0045
  497MOL0     C68461   4.527   0.283   7.975 -0.1072  0.2409 -0.0753
  497MOL0     C68462   4.499   0.338   8.111  0.4761  0.3309 -0.0092
  497MOL0     C68463   4.510   0.229   8.223  0.1191  0.4919  0.6463
  497MOL0     C68464   4.665   0.215   8.259  0.3853 -0.1028 -0.1823
  497MOL0     N68465   4.687   0.134   8.379  0.3722 -0.9521  0.3266
  497MOL0     C68466   4.811   0.108   8.423 -0.1561 -0.6885 -0.3044
  497MOL0     C68467   4.798   0.060   8.552  0.0435 -0.0791 -0.3782
  497MOL0     C68468   4.892   0.017   8.661 -0.9163  0.2607 -0.2277
  497MOL0     C68469   5.025  -0.019   8.591  1.0907  0.1094 -0.2245
  497MOL0     C68470   5.038  -0.143   8.505  0.5897  0.3071 -0.2950
  497MOL0     C68471   5.179  -0.157   8.444  0.6450 -0.9335  0.6993
  497MOL0     O68472   5.286  -0.164   8.539 -0.3033 -0.0974 -0.0026
  497MOL0     C68473   5.399  -0.240   8.507 -0.9245  0.1044 -0.7260
  497MOL0     C68474   5.525  -0.182   8.497  0.1795 -0.6774  0.4894
  497MOL0     C68475   5.637  -0.260   8.479 -0.6059 -0.2045 -0.6692
  497MOL0     C68476   5.768  -0.187   8.494  0.0067  0.1575  0.2074
  497MOL0     C68477   5.623  -0.404   8.458  0.1766 -0.4186 -0.1175
  497MOL0     C68478   5.725  -0.500   8.426 -0.3713  0.8707  0.3675
  497MOL0     O68479   5.688  -0.626   8.418  0.5618 -0.1675  0.3927
  497MOL0     C68480   5.763  -0.721   8.354  0.5036  0.0523  1.1229
  497MOL0     C68481   5.696  -0.805   8.263  0.3007 -0.2848 -0.4039
  497MOL0     C68482   5.769  -0.897   8.191 -0.0320  0.7920  0.2779
  497MOL0     C68483   5.907  -0.908   8.200 -0.5845  0.2918  0.1025
  497MOL0     O68484   5.959  -1.007   8.120  0.1219 -0.2481 -0.1240
  497MOL0     C68485   6.101  -1.035   8.119  0.3553 -0.2347 -0.1900
  497MOL0     C68486   6.133  -1.169   8.059 -0.4918  0.2019 -0.3276
  497MOL0     C68487   6.084  -1.174   7.914  0.7018 -0.0211 -0.5124
  497MOL0     C68488   6.195  -1.131   7.818 -0.9222 -0.9731 -0.3343
  497MOL0     C68489   6.141  -1.115   7.674  0.2862  0.2023  0.0120
  497MOL0     C68490   6.242  -1.097   7.557  0.9054 -0.4478 -0.5841
  497MOL0     C68491   6.308  -0.956   7.569 -0.3762  0.0602  0.2698
  497MOL0     C68492   6.351  -0.898   7.427 -0.8726  0.9343  0.1551
  497MOL0    Cl68493   6.472  -0.991   7.345 -0.6054  0.1604  0.1762
  497MOL0     C68494   5.976  -0.825   8.287  0.1645  0.9207 -0.2019
  497MOL0     C68495   5.901  -0.735   8.359 -0.3036 -0.0841  0.1761
  497MOL0     O68496   5.839  -0.466   8.424 -0.6972  0.5561  0.1061
  497MOL0     C68497   5.489  -0.458   8.470 -0.3844  0.1246  0.3451
  497MOL0     C68498   5.377  -0.380   8.490  0.0632  0.6511  0.6763
  497MOL0     N68499   4.664   0.065   8.583 -0.1314 -0.1805  0.5759
  497MOL0     N68500   4.600   0.107   8.483  0.7086  0.2054  0.6884
  497MOL0     C68501   5.021   0.516   7.487 -0.4102  0.8750  0.2461
  497MOL0     C68502   5.161   0.520   7.464  0.4165  0.4400  0.8537
  497MOL0     C68503   5.617   0.648   7.539 -0.0087 -0.2662 -0.2129
  497MOL0     C68504   5.641   0.514   7.542  0.3457  0.4281 -0.0096
  497MOL0     C68505   5.769   0.473   7.557  0.2358 -0.1025 -0.2522
  497MOL0     C68506   5.875   0.557   7.565  0.4115  0.0560  0.0822
  497MOL0     O68507   5.997   0.502   7.592 -0.7521  0.4382 -0.3688
  497MOL0     C68508   6.046   0.412   7.498 -1.2986 -0.3763  0.7011
  497MOL0     C68509   6.191   0.361   7.511 -0.0794 -0.6050 -0.3706
  497MOL0     C68510   6.304   0.473   7.519  0.3834  0.1267 -0.5442
  497MOL0     C68511   6.444   0.420   7.498 -0.1788 -0.6184  0.0495
  497MOL0     C68512   6.529   0.522   7.432  0.8506  0.0186 -0.1992
  497MOL0     C68513   6.593   0.612   7.381 -0.1328  0.0293 -1.4477
  497MOL0     C68514   5.851   0.697   7.556 -0.2240  1.1896  0.0659
  497MOL0     C68515   5.719   0.740   7.544  0.0911 -0.0111  0.0548
  497MOL0     C68516   5.711   0.890   7.526 -0.7623  0.5110 -0.4475
  497MOL0     H68517   5.277   0.669   7.739  0.1132  0.1710 -0.1678
  497MOL0     H68518   5.020   0.668   7.789 -0.5465 -0.2740 -0.0935
  497MOL0     H68519   4.748   0.730   7.632  0.0911 -0.5257 -0.7506
  497MOL0     H68520   4.790   0.680   7.791 -2.8416  1.6135 -0.8416
  497MOL0     H68521   4.563   0.667   7.765 -3.0101 -0.3679 -4.1147
  497MOL0     H68522   4.569   0.537   7.653 -1.2109  1.2845  0.9921
  497MOL0     H68523   4.715   0.417   7.849  0.0907 -0.7034 -0.2482
  497MOL0     H68524   4.649   0.549   7.939 -0.1488 -1.4027  1.3781
  497MOL0     H68525   4.420   0.454   7.892  0.7743 -0.5051  1.1790
  497MOL0     H68526   4.493   0.354   7.769  1.4128  3.2617 -2.1087
  497MOL0     H68527   4.629   0.243   7.978  0.1151  0.8267  0.2731
  497MOL0     H68528   4.459   0.198   7.967  1.5774 -1.0823 -1.0314
  497MOL0     H68529   4.571   0.419   8.124  2.2471 -0.7972 -1.9605
  497MOL0     H68530   4.396   0.373   8.111  1.0264  2.2007  2.3410
  497MOL0     H68531   4.469   0.133   8.189  1.4521  1.0833 -2.9834
  497MOL0     H68532   4.458   0.258   8.315 -2.2300  1.3549 -0.8710
  497MOL0     H68533   4.724   0.182   8.173  0.0281 -0.0598 -0.4504
  497MOL0     H68534   4.691   0.318   8.285 -2.4068  0.7950 -0.5542
  497MOL0     H68535   4.901   0.121   8.364 -1.0837  0.6178 -1.4955
  497MOL0     H68536   4.865  -0.069   8.721  1.0975 -0.8036 -0.7534
  497MOL0     H68537   4.908   0.098   8.733 -1.5274 -0.6243  0.9231
  497MOL0     H68538   5.058   0.076   8.548 -0.9358  0.4073 -1.2128
  497MOL0     H68539   5.098  -0.037   8.671  2.6777 -0.1399 -1.6630
  497MOL0     H68540   5.029  -0.229   8.572 -2.1006  0.2504 -0.6120
  497MOL0     H68541   4.958  -0.151   8.430  2.3202 -1.5867 -2.0542
  497MOL0     H68542   5.186  -0.242   8.375 -1.4334  0.5670 -1.4961
  497MOL0     H68543   5.192  -0.073   8.375  0.6261 -2.0913 -0.7696
  497MOL0     H68544   5.523  -0.074   8.509  0.1518 -0.9167  3.1499
  497MOL0     H68545   5.800  -0.149   8.397 -0.2988 -0.6989 -0.2356
  497MOL0     H68546   5.847  -0.250   8.535 -0.2184  1.0566  2.1711
  497MOL0     H68547   5.748  -0.109   8.569 -1.7083 -1.1782  1.2469
  497MOL0     H68548   5.589  -0.796   8.244  0.3537 -0.5911 -0.8799
  497MOL0     H68549   5.716  -0.969   8.129  0.1258  1.3622 -0.5465
  497MOL0     H68550   6.152  -0.959   8.059 -1.7928  0.7925 -0.7897
  497MOL0     H68551   6.147  -1.037   8.218  4.7463  1.1833 -1.9407
  497MOL0     H68552   6.241  -1.184   8.058 -0.5466 -0.2633  0.1066
  497MOL0     H68553   6.086  -1.247   8.121 -0.9043  0.7321  0.0327
  497MOL0     H68554   5.992  -1.117   7.897  1.3278  1.8076  1.7771
  497MOL0     H68555   6.050  -1.276   7.891  0.8275  0.1640 -1.5526
  497MOL0     H68556   6.273  -1.208   7.816  0.9471  0.8248  0.3335
  497MOL0     H68557   6.239  -1.034   7.843 -0.9438 -0.7329 -1.1914
  497MOL0     H68558   6.084  -1.206   7.654 -0.6080  1.0998 -1.7441
  497MOL0     H68559   6.071  -1.031   7.674 -1.6285 -1.2992 -1.2779
  497MOL0     H68560   6.169  -1.099   7.475 -0.4601  3.5063  0.3382
  497MOL0     H68561   6.311  -1.182   7.568 -0.7578 -1.7745 -0.0767
  497MOL0     H68562   6.400  -0.956   7.628  0.3863 -2.3818 -0.7921
  497MOL0     H68563   6.238  -0.880   7.606  0.4675 -0.3196  2.8906
  497MOL0     H68564   6.399  -0.800   7.439  1.4007  0.0490 -1.1623
  497MOL0     H68565   6.260  -0.887   7.367  0.1931 -0.4414 -1.8133
  497MOL0     H68566   6.083  -0.830   8.301 -0.1682  2.0084  4.0508
  497MOL0     H68567   5.962  -0.671   8.422  2.0240 -1.9705 -0.0173
  497MOL0     H68568   5.475  -0.565   8.471  1.5090 -0.1969  3.0472
  497MOL0     H68569   5.277  -0.422   8.486  0.1751  0.4507 -0.5235
  497MOL0     H68570   4.947   0.458   7.433  0.1147  1.1269 -0.7775
  497MOL0     H68571   5.200   0.462   7.380  3.8318  1.5425  1.5341
  497MOL0     H68572   5.567   0.437   7.526  0.5049  0.7636 -2.9938
  497MOL0     H68573   5.771   0.364   7.553  0.3932 -0.0977 -0.2957
  497MOL0     H68574   5.973   0.334   7.476  0.0507 -0.9664 -2.1401
  497MOL0     H68575   6.053   0.473   7.407  0.8162 -0.3041  0.8454
  497MOL0     H68576   6.211   0.291   7.429 -0.8349 -5.0838  2.8466
  497MOL0     H68577   6.191   0.299   7.601 -3.5241 -0.2155  0.0461
  497MOL0     H68578   6.283   0.551   7.446  0.4853  2.6752  1.9607
  497MOL0     H68579   6.313   0.522   7.617  1.0333 -0.3307 -0.3677
  497MOL0     H68580   6.435   0.340   7.424  2.1666 -1.3517  0.4852
  497MOL0     H68581   6.486   0.380   7.591  0.4285  0.8319  0.4378
  497MOL0     H68582   6.656   0.683   7.332  1.4633 -0.8071 -0.6950
  497MOL0     H68583   5.939   0.760   7.545  0.5402  0.2097  0.3849
  497MOL0     H68584   5.805   0.939   7.502 -0.1757  1.4264  3.0888
  497MOL0     H68585   5.635   0.922   7.454 -1.4895 -0.7213 -0.2645
  497MOL0     H68586   5.684   0.938   7.621  1.8173 -1.6661  1.5344
  498MOL0     O68587   6.303   5.708   3.767  0.3836 -0.1270  0.0026
  498MOL0     C68588   6.221   5.779   3.822 -0.9364  0.3538  0.6363
  498MOL0     O68589   6.244   5.858   3.933  0.4259 -0.2320 -0.3170
  498MOL0     C68590   6.365   5.903   3.975  1.4532  0.3683  0.1178
  498MOL0     C68591   6.376   5.933   4.109 -0.3272  0.9829  0.5113
  498MOL0     C68592   6.497   5.984   4.151 -0.4472 -0.0823 -0.6166
  498MOL0     C68593   6.613   6.008   4.075  0.6435 -0.9131 -0.0223
  498MOL0     O68594   6.724   6.072   4.134 -0.0744  0.0477  0.2973
  498MOL0     C68595   6.843   6.041   4.079 -0.9433  0.8326  1.2591
  498MOL0     C68596   6.947   6.125   4.161  0.0307 -0.1996 -0.2663
  498MOL0     C68597   7.074   6.128   4.062 -0.7042 -0.4843 -0.7464
  498MOL0     C68598   7.175   6.015   4.101 -0.4614  0.2876  0.0695
  498MOL0     C68599   7.296   6.029   4.020  0.4126 -0.6558 -0.1510
  498MOL0     C68600   7.404   5.930   4.056 -0.0528  0.1332  0.2374
  498MOL0     C68601   7.536   5.950   3.969 -0.1542  0.4209 -0.0109
  498MOL0     C68602   7.521   5.855   3.856 -0.0458 -0.2372 -0.0018
  498MOL0     N68603   7.630   5.871   3.759  0.4068  0.3252  0.4479
  498MOL0     C68604   7.762   5.856   3.789  0.5849 -0.3724  0.2143
  498MOL0     C68605   7.835   5.852   3.677 -0.1651 -0.2203 -0.4642
  498MOL0     C68606   7.984   5.849   3.670  0.6737  0.1263  0.0781
  498MOL0     C68607   8.042   5.986   3.665  0.3488  0.7440  0.6275
  498MOL0     C68608   8.185   5.988   3.707  0.1085 -0.2988 -0.3376
  498MOL0     C68609   8.238   6.133   3.706 -0.8115 -0.5226  0.5585
  498MOL0     O68610   8.382   6.133   3.722 -0.5162 -0.4565 -0.0983
  498MOL0     C68611   8.453   6.250   3.748  0.6137 -0.0906 -0.1968
  498MOL0     C68612   8.388   6.372   3.762  0.5965 -0.5252  0.0827
  498MOL0     C68613   8.455   6.488   3.810  0.2666 -0.1135 -1.5936
  498MOL0     C68614   8.379   6.608   3.849 -0.2153  0.9627 -0.6426
  498MOL0     C68615   8.587   6.473   3.842 -0.1206 -0.5945 -0.7724
  498MOL0     C68616   8.687   6.586   3.870  0.8747 -0.2733 -0.7475
  498MOL0     O68617   8.804   6.554   3.936 -0.4148  0.6203  0.1641
  498MOL0     C68618   8.901   6.650   3.958  0.1311 -0.5529 -0.8890
  498MOL0     C68619   9.031   6.608   3.948  0.9070 -0.6492 -0.5047
  498MOL0     C68620   9.138   6.686   3.966  0.4908 -0.4341  0.9313
  498MOL0     C68621   9.121   6.822   3.979 -0.4938 -0.6368 -0.3445
  498MOL0     O68622   9.221   6.919   3.972 -0.5653 -0.3644  0.7667
  498MOL0     C68623   9.354   6.878   3.990  0.1061 -0.3722 -0.2979
  498MOL0     C68624   9.452   6.987   3.957 -0.3730  1.3224  0.5207
  498MOL0     C68625   9.445   7.043   3.815 -0.0516  0.4238 -0.0457
  498MOL0     C68626   9.537   7.162   3.803 -0.4629  0.5309  0.3278
  498MOL0     C68627   9.549   7.214   3.661 -0.5984  0.0169  0.7263
  498MOL0     C68628   9.412   7.240   3.576 -0.3214 -0.2274  0.7356
  498MOL0     C68629   9.430   7.263   3.427 -0.5727  0.6483 -0.1530
  498MOL0     C68630   9.300   7.313   3.353  0.5469 -0.3601 -0.8598
  498MOL0    Cl68631   9.199   7.173   3.312  0.0708  0.0770 -0.2075
  498MOL0     C68632   8.988   6.869   3.985 -0.4206 -0.4572 -0.5789
  498MOL0     C68633   8.878   6.791   3.975  0.4839  0.7506 -0.2789
  498MOL0     O68634   8.656   6.698   3.822 -0.0446 -0.3576 -0.0463
  498MOL0     C68635   8.650   6.349   3.823 -0.7036  0.4463 -0.2605
  498MOL0     C68636   8.582   6.244   3.770  0.7581  0.0317  0.7113
  498MOL0     N68637   7.749   5.873   3.570  0.2575  0.2825 -0.5136
  498MOL0     N68638   7.626   5.891   3.621  0.3160  0.4625  0.1561
  498MOL0     C68639   6.598   5.975   3.939 -0.2034  0.2415  0.2611
  498MOL0     C68640   6.478   5.912   3.894 -0.4311 -0.6347  1.0302
  498MOL0     C68641   6.093   5.788   3.750  0.4287 -0.1829 -0.2115
  498MOL0     C68642   6.080   5.736   3.622  0.3810  0.5956 -0.4562
  498MOL0     C68643   5.953   5.728   3.566  0.2396  0.4270  0.1826
  498MOL0     C68644   5.838   5.773   3.620  0.7241  0.2434  0.5947
  498MOL0     O68645   5.723   5.755   3.538 -0.5183  0.0263 -0.1672
  498MOL0     C68646   5.603   5.790   3.588  0.8262  0.1021 -0.5370
  498MOL0     C68647   5.500   5.773   3.475 -0.0308 -0.5527  1.2565
  498MOL0     C68648   5.529   5.837   3.340  0.4448  0.3171  0.0951
  498MOL0     C68649   5.537   5.990   3.366 -0.1106  0.3778  1.1388
  498MOL0     C68650   5.410   6.065   3.399  0.2817  0.3191 -0.4133
  498MOL0     C68651   5.298   6.110   3.436  0.3813 -0.4230  0.4142
  498MOL0     C68652   5.849   5.841   3.740  0.1672 -0.0164 -0.1853
  498MOL0     C68653   5.974   5.848   3.808 -0.5642 -0.1484 -0.1807
  498MOL0     C68654   5.957   5.909   3.946 -0.0191 -0.2300 -0.3503
  498MOL0     H68655   6.290   5.918   4.174 -0.5613 -1.9564 -0.3380
  498MOL0     H68656   6.501   6.020   4.254 -2.0731  0.2461 -0.6560
  498MOL0     H68657   6.847   6.075   3.975 -1.5659  0.3719  1.0782
  498MOL0     H68658   6.864   5.933   4.078 -1.5314  0.6381 -2.0906
  498MOL0     H68659   6.896   6.221   4.171 -0.4619 -0.2272 -2.0949
  498MOL0     H68660   6.976   6.089   4.260  1.4618  2.6474  0.4297
  498MOL0     H68661   7.055   6.140   3.955  2.7839  2.5709 -1.2361
  498MOL0     H68662   7.142   6.211   4.084  2.8112 -2.8304 -1.7124
  498MOL0     H68663   7.194   6.018   4.209 -0.3946  2.2355  0.0401
  498MOL0     H68664   7.119   5.923   4.082 -0.1007 -0.4111  2.1488
  498MOL0     H68665   7.338   6.128   4.040 -2.9855  0.5635  1.9423
  498MOL0     H68666   7.266   6.041   3.915 -1.4447  1.7537  0.5419
  498MOL0     H68667   7.423   5.941   4.163 -4.5395 -1.1074  1.4097
  498MOL0     H68668   7.357   5.831   4.053 -0.5164  0.3697 -1.1866
  498MOL0     H68669   7.621   5.909   4.023  1.8116 -0.3844 -3.4426
  498MOL0     H68670   7.553   6.056   3.945  1.8191 -0.0683 -0.9329
  498MOL0     H68671   7.525   5.755   3.900  2.2739  0.2943  1.1975
  498MOL0     H68672   7.423   5.873   3.812 -0.3956 -1.0278  0.4385
  498MOL0     H68673   7.802   5.843   3.889  1.1083 -1.4362 -0.1207
  498MOL0     H68674   8.000   5.787   3.581  0.1146 -3.8547  2.4784
  498MOL0     H68675   8.012   5.797   3.763 -2.9753  1.8112  2.3827
  498MOL0     H68676   8.030   6.033   3.566 -0.2195  0.4620  0.5597
  498MOL0     H68677   7.987   6.057   3.726 -0.4328 -1.8919  3.2114
  498MOL0     H68678   8.201   5.936   3.801 -0.9137 -0.7494 -0.4092
  498MOL0     H68679   8.239   5.932   3.630  1.5648 -0.0886  0.4980
  498MOL0     H68680   8.207   6.190   3.619 -1.6733  2.1090  2.4719
  498MOL0     H68681   8.190   6.183   3.791  2.2612  1.9461  1.0288
  498MOL0     H68682   8.281   6.381   3.744  0.8426  1.8499 -0.4971
  498MOL0     H68683   8.404   6.686   3.777 -1.1231  0.7990 -1.1447
  498MOL0     H68684   8.406   6.646   3.948  2.9646  1.1540 -1.4699
  498MOL0     H68685   8.272   6.588   3.847 -0.5469  2.1576  1.4587
  498MOL0     H68686   9.043   6.502   3.931  0.6971 -0.7040 -0.3177
  498MOL0     H68687   9.237   6.642   3.955  2.0529  3.0741 -0.4841
  498MOL0     H68688   9.370   6.857   4.096 -0.4794  0.3594 -0.0540
  498MOL0     H68689   9.379   6.793   3.925  2.6653 -0.5754  0.8313
  498MOL0     H68690   9.426   7.062   4.033 -1.3234 -0.8441  2.4529
  498MOL0     H68691   9.554   6.953   3.975 -0.2186  0.7430 -1.3424
  498MOL0     H68692   9.340   7.072   3.799  0.2378  2.0260  0.7122
  498MOL0     H68693   9.480   6.970   3.742 -0.6924  0.3137 -0.2541
  498MOL0     H68694   9.634   7.135   3.846 -1.0576 -1.9909  0.2513
  498MOL0     H68695   9.484   7.236   3.863 -1.9408 -0.6405  0.5132
  498MOL0     H68696   9.604   7.308   3.672  2.6018 -1.7511  1.1982
  498MOL0     H68697   9.614   7.154   3.596 -1.4587 -0.7059  0.5160
  498MOL0     H68698   9.375   7.336   3.615  1.1103  1.4366 -1.7211
  498MOL0     H68699   9.350   7.151   3.579  3.3635 -3.0395  0.7094
  498MOL0     H68700   9.466   7.176   3.372 -0.2615  2.3769 -2.8545
  498MOL0     H68701   9.513   7.333   3.416  0.5649 -0.6857 -0.3622
  498MOL0     H68702   9.316   7.366   3.258 -0.6170  2.1534  0.2496
  498MOL0     H68703   9.238   7.385   3.406  0.9584  1.4588 -2.6914
  498MOL0     H68704   8.976   6.976   4.003 -0.4173 -0.2745 -1.6398
  498MOL0     H68705   8.778   6.833   3.976 -0.1861 -0.6962  1.7346
  498MOL0     H68706   8.758   6.338   3.834 -0.6461 -0.2847 -1.2803
  498MOL0     H68707   8.628   6.151   3.738 -0.9900 -0.5486 -0.2887
  498MOL0     H68708   6.679   5.996   3.870  1.6593 -1.0468  1.9790
  498MOL0     H68709   6.467   5.887   3.789  0.9328  1.4913  0.3155
  498MOL0     H68710   6.165   5.708   3.560 -0.7831  0.1679 -1.9157
  498MOL0     H68711   5.940   5.682   3.469  0.6398  1.7148 -0.5111
  498MOL0     H68712   5.580   5.718   3.668  0.6131 -1.6243 -2.0784
  498MOL0     H68713   5.606   5.891   3.629 -0.9541  0.8244 -2.0882
  498MOL0     H68714   5.402   5.810   3.508  0.2192  1.4418 -0.0124
  498MOL0     H68715   5.479   5.668   3.454  3.5935 -0.9756 -1.0217
  498MOL0     H68716   5.621   5.794   3.300  0.0652 -0.7273  0.3051
  498MOL0     H68717   5.446   5.820   3.270 -0.5842  1.5334  0.9691
  498MOL0     H68718   5.580   6.038   3.277  0.8534 -3.8121 -0.9083
  498MOL0     H68719   5.602   6.013   3.451  0.2162  0.3470  0.9014
  498MOL0     H68720   5.197   6.146   3.434  0.9607  1.4330  1.5174
  498MOL0     H68721   5.750   5.861   3.780 -0.5893  0.0456 -1.9918
  498MOL0     H68722   6.005   5.842   4.017  0.3843 -1.4586 -1.7415
  498MOL0     H68723   6.005   6.007   3.940  0.0323 -0.3075 -1.5481
  498MOL0     H68724   5.853   5.920   3.978  0.8055  0.1951  2.4154
  499MOL0     O68725   9.554   4.613   6.575  0.2923 -0.2664 -0.4218
  499MOL0     C68726   9.445   4.605   6.638  0.3286  0.3169  0.5054
  499MOL0     O68727   9.438   4.604   6.770 -0.7269  0.7448 -0.2355
  499MOL0     C68728   9.511   4.701   6.836 -0.4432 -0.3118  0.5481
  499MOL0     C68729   9.611   4.671   6.928  0.1254  0.6824  0.5193
  499MOL0     C68730   9.668   4.768   7.004  0.0029 -0.4343 -0.1749
  499MOL0     C68731   9.646   4.897   6.988  0.5571 -1.2494 -0.9077
  499MOL0     O68732   9.708   4.987   7.065 -0.2098  0.2719 -0.7453
  499MOL0     C68733   9.834   5.026   7.007  0.1203  0.1202  0.8698
  499MOL0     C68734   9.913   5.128   7.087  0.1135 -0.6644 -0.0218
  499MOL0     C68735  10.051   5.160   7.028 -0.6185 -0.0207  0.0128
  499MOL0     C68736  10.139   5.236   7.129 -0.5993 -0.9951  0.7778
  499MOL0     C68737  10.281   5.258   7.062 -0.5176 -0.0260  0.7640
  499MOL0     C68738  10.377   5.311   7.160  0.0027  0.5573  0.2069
  499MOL0     C68739  10.520   5.303   7.097 -0.8659 -0.3193 -0.3616
  499MOL0     C68740  10.548   5.413   6.987  0.5654  0.9149 -0.8708
  499MOL0     N68741  10.694   5.412   6.942 -0.4809  0.3783 -0.3355
  499MOL0     C68742  10.800   5.448   7.021 -0.1470 -0.1820  0.5041
  499MOL0     C68743  10.906   5.449   6.929 -0.6731 -1.0416 -0.5847
  499MOL0     C68744  11.059   5.461   6.957  1.0480 -0.6444 -0.3744
  499MOL0     C68745  11.121   5.329   6.931 -0.1309 -0.0233 -0.2904
  499MOL0     C68746  11.269   5.351   6.904  0.2912 -0.0647 -0.0824
  499MOL0     C68747  11.339   5.214   6.903  0.6322  0.3262  0.7554
  499MOL0     O68748  11.486   5.233   6.879  0.7357  1.0607  0.4915
  499MOL0     C68749  11.568   5.129   6.929  0.4550 -0.0022  0.3951
  499MOL0     C68750  11.532   4.993   6.941  0.7374 -0.1140 -0.0531
  499MOL0     C68751  11.631   4.897   6.978  0.4518  0.4040 -0.3142
  499MOL0     C68752  11.578   4.759   6.968 -0.4470  0.0765 -0.2635
  499MOL0     C68753  11.768   4.932   7.001 -0.4739  0.7299  0.7554
  499MOL0     C68754  11.873   4.834   7.034  0.2479 -0.3037  0.0464
  499MOL0     O68755  11.842   4.701   7.018  0.2970 -0.9156  0.0660
  499MOL0     C68756  11.938   4.615   7.001 -0.1811 -0.0962 -0.8381
  499MOL0     C68757  12.056   4.630   6.932  0.4031  0.0679 -0.1908
  499MOL0     C68758  12.126   4.517   6.885 -0.5910 -0.2660 -0.1376
  499MOL0     C68759  12.093   4.387   6.916  0.2728 -0.3492 -0.0830
  499MOL0     O68760  12.169   4.282   6.886 -0.0717  0.2012  0.3220
  499MOL0     C68761  12.195   4.257   6.748  0.3849 -0.2964 -0.1778
  499MOL0     C68762  12.082   4.191   6.681 -0.0707 -0.3352 -0.8187
  499MOL0     C68763  12.023   4.061   6.748 -0.1951  1.0532 -0.2871
  499MOL0     C68764  11.885   4.021   6.686  0.2120 -0.2041  0.3934
  499MOL0     C68765  11.820   3.898   6.751  0.5395 -0.1305  0.1348
  499MOL0     C68766  11.671   3.906   6.731 -0.0825  0.7519  0.3448
  499MOL0     C68767  11.608   4.021   6.809  0.8070 -0.3108 -1.2294
  499MOL0     C68768  11.459   4.007   6.787 -0.8872 -0.5712  0.7312
  499MOL0    Cl68769  11.388   4.167   6.835  0.1247  0.1700  0.4765
  499MOL0     C68770  11.974   4.379   6.990 -0.3672 -0.0132  0.2112
  499MOL0     C68771  11.894   4.483   7.022  0.3358 -0.7751  0.0695
  499MOL0     O68772  11.973   4.882   7.074 -0.7094 -0.0100 -0.1712
  499MOL0     C68773  11.802   5.069   6.998 -0.7253  0.1860  0.4122
  499MOL0     C68774  11.707   5.163   6.954 -0.2885  0.0395  0.2735
  499MOL0     N68775  10.854   5.405   6.803  0.0624  0.3651 -0.6166
  499MOL0     N68776  10.728   5.395   6.813  0.1102 -0.2645  0.3758
  499MOL0     C68777   9.561   4.939   6.884 -0.1139  0.6369 -0.5916
  499MOL0     C68778   9.488   4.834   6.818  0.5411 -0.8143  0.5710
  499MOL0     C68779   9.321   4.573   6.559 -0.1546  0.5695  0.5006
  499MOL0     C68780   9.222   4.515   6.629 -0.4729  0.6780 -0.3529
  499MOL0     C68781   9.097   4.490   6.573 -0.3988  0.0166  0.0696
  499MOL0     C68782   9.064   4.533   6.444  0.3449 -0.2270  0.4955
  499MOL0     O68783   8.934   4.521   6.405  0.2861 -0.1797 -0.4259
  499MOL0     C68784   8.867   4.605   6.307  0.3756  0.2791  0.0622
  499MOL0     C68785   8.714   4.588   6.327 -0.8905 -0.4502 -0.1361
  499MOL0     C68786   8.653   4.683   6.437  0.7603  1.3886  0.3136
  499MOL0     C68787   8.711   4.661   6.574  0.8461  0.5695  0.1802
  499MOL0     C68788   8.654   4.769   6.663  0.3984 -0.6215 -0.1392
  499MOL0     C68789   8.596   4.850   6.737  0.5721 -0.4746  0.7381
  499MOL0     C68790   9.164   4.583   6.368 -0.4065 -0.6568 -0.1035
  499MOL0     C68791   9.296   4.610   6.425 -0.4756 -0.1253  0.7110
  499MOL0     C68792   9.389   4.693   6.332  0.0052  0.3383 -0.6448
  499MOL0     H68793   9.637   4.569   6.952 -0.2413  0.8723  1.7563
  499MOL0     H68794   9.737   4.727   7.076  0.4933 -0.1926 -0.4997
  499MOL0     H68795   9.807   5.067   6.909 -3.6954  0.8464  2.0502
  499MOL0     H68796   9.889   4.937   6.979 -1.9273 -0.9531  0.0241
  499MOL0     H68797   9.844   5.213   7.095 -2.7441 -2.6602 -1.5085
  499MOL0     H68798   9.929   5.086   7.187  0.0962 -2.2014 -0.6541
  499MOL0     H68799  10.105   5.069   7.002  2.0324  1.5903 -0.5497
  499MOL0     H68800  10.043   5.217   6.935 -2.1256 -2.1141 -1.2173
  499MOL0     H68801  10.081   5.319   7.169  0.3465  0.4027 -0.6394
  499MOL0     H68802  10.142   5.171   7.217 -1.5324 -2.5170 -0.2615
  499MOL0     H68803  10.269   5.329   6.979  0.6972 -0.5760  0.0823
  499MOL0     H68804  10.323   5.163   7.027  2.0578  0.5118  2.1951
  499MOL0     H68805  10.347   5.410   7.195 -0.5207  0.3767  0.2689
  499MOL0     H68806  10.380   5.240   7.243  2.0281 -0.6631 -0.8122
  499MOL0     H68807  10.539   5.204   7.055 -2.2284 -0.8790  0.2652
  499MOL0     H68808  10.581   5.320   7.185 -2.1435  0.5194  0.3893
  499MOL0     H68809  10.486   5.409   6.897  0.5857 -2.0530 -0.8613
  499MOL0     H68810  10.520   5.509   7.030  0.0449  1.0389 -1.4849
  499MOL0     H68811  10.790   5.475   7.126 -1.5687 -0.7349  0.5357
  499MOL0     H68812  11.071   5.503   7.057 -0.4411 -3.0754  0.8998
  499MOL0     H68813  11.095   5.534   6.883  0.9060  1.9324  1.9165
  499MOL0     H68814  11.114   5.263   7.018 -1.0007 -0.3862 -0.6286
  499MOL0     H68815  11.079   5.278   6.844 -1.5319 -2.8126  1.8704
  499MOL0     H68816  11.280   5.406   6.810 -0.7946  1.9486  0.8952
  499MOL0     H68817  11.307   5.415   6.985  0.8676 -0.7906  0.2295
  499MOL0     H68818  11.323   5.172   7.002  0.8855 -1.2581  0.1417
  499MOL0     H68819  11.295   5.142   6.834  1.6477  0.7188 -0.3377
  499MOL0     H68820  11.430   4.972   6.911  0.5059 -0.9007  1.2314
  499MOL0     H68821  11.469   4.759   6.955 -0.6527  3.9031  0.3588
  499MOL0     H68822  11.604   4.705   7.059 -0.2337 -0.8149 -0.8335
  499MOL0     H68823  11.633   4.716   6.884  1.7886  2.8013 -0.3269
  499MOL0     H68824  12.090   4.724   6.889  0.3493  0.5929  0.8837
  499MOL0     H68825  12.218   4.530   6.829 -1.9707  0.2244 -2.4176
  499MOL0     H68826  12.224   4.350   6.700 -1.6369  0.2746 -0.3689
  499MOL0     H68827  12.282   4.191   6.744  0.2499 -0.5268  0.4575
  499MOL0     H68828  12.003   4.266   6.683  0.4267  0.2389 -1.7149
  499MOL0     H68829  12.105   4.164   6.577 -1.0029 -0.6057 -0.9624
  499MOL0     H68830  12.016   4.063   6.857 -0.9326 -0.9165 -0.2467
  499MOL0     H68831  12.084   3.971   6.739 -1.3728  0.2489 -0.5497
  499MOL0     H68832  11.910   4.009   6.581  2.8246 -1.6343  1.0756
  499MOL0     H68833  11.823   4.111   6.683  0.4585 -0.0411  0.0789
  499MOL0     H68834  11.869   3.805   6.722 -0.6985 -0.3978 -1.2242
  499MOL0     H68835  11.826   3.909   6.860  0.2007  0.4172  0.1055
  499MOL0     H68836  11.618   3.815   6.757 -0.2000  0.5155 -0.6645
  499MOL0     H68837  11.653   3.926   6.625  1.0808  1.7232  0.2972
  499MOL0     H68838  11.638   4.118   6.767  0.3374  0.8033  0.8841
  499MOL0     H68839  11.635   4.021   6.915 -0.6282  3.3214 -0.7233
  499MOL0     H68840  11.410   3.932   6.849 -2.7460  0.7990  0.9971
  499MOL0     H68841  11.435   3.966   6.688 -1.3457 -5.3127  2.5430
  499MOL0     H68842  11.947   4.281   7.026  1.9167 -0.2164  1.5671
  499MOL0     H68843  11.805   4.460   7.080  0.7563 -0.7344  0.7450
  499MOL0     H68844  11.901   5.096   7.034 -0.5818 -0.6032  0.6354
  499MOL0     H68845  11.735   5.268   6.950  0.0557 -0.0828 -2.7639
  499MOL0     H68846   9.539   5.046   6.881 -0.7745  0.5748  0.9383
  499MOL0     H68847   9.424   4.876   6.741 -0.6110  1.3421  2.5535
  499MOL0     H68848   9.245   4.493   6.733  1.7006  1.8914 -0.5354
  499MOL0     H68849   9.028   4.429   6.629  0.9323 -2.3902 -0.7618
  499MOL0     H68850   8.888   4.712   6.312 -1.7311  0.6786  1.5267
  499MOL0     H68851   8.897   4.564   6.210 -2.3916 -0.3138 -0.6187
  499MOL0     H68852   8.706   4.483   6.358 -1.1469 -0.7769 -1.2542
  499MOL0     H68853   8.656   4.601   6.234  2.0366  0.1795 -1.9939
  499MOL0     H68854   8.680   4.778   6.390  1.0138  0.7502 -0.8605
  499MOL0     H68855   8.546   4.663   6.435  0.9887  0.1904 -1.3473
  499MOL0     H68856   8.821   4.665   6.577  1.1062 -2.2283 -1.2510
  499MOL0     H68857   8.686   4.564   6.618  0.3174  1.7770  2.7241
  499MOL0     H68858   8.536   4.919   6.792  0.4451 -0.0043  0.0284
  499MOL0     H68859   9.150   4.611   6.264 -0.5980 -2.0491 -0.4715
  499MOL0     H68860   9.467   4.632   6.286  0.8392  2.1634 -1.7573
  499MOL0     H68861   9.324   4.736   6.255 -0.1284  0.3285 -0.5379
  499MOL0     H68862   9.440   4.772   6.388 -0.5275  0.5548 -0.4546
  500MOL0     O68863   6.483   4.064   4.893 -0.6773 -0.0969 -0.3579
  500MOL0     C68864   6.498   3.950   4.844 -1.3419 -0.7135  0.2362
  500MOL0     O68865   6.436   3.904   4.743 -0.1883 -0.4162 -0.3653
  500MOL0     C68866   6.333   3.968   4.682 -0.0816  0.4118 -0.2628
  500MOL0     C68867   6.212   3.899   4.678  0.1037 -0.0411  0.1834
  500MOL0     C68868   6.112   3.946   4.602  0.0341 -0.7643  0.9025
  500MOL0     C68869   6.116   4.065   4.531  0.8375  0.3054  1.2126
  500MOL0     O68870   6.018   4.093   4.445 -0.4781  0.0039 -0.4463
  500MOL0     C68871   5.999   4.243   4.435  0.4012  0.7287 -0.4821
  500MOL0     C68872   5.894   4.263   4.325  0.4072 -0.2027 -0.0079
  500MOL0     C68873   5.750   4.215   4.356  0.4467  0.7140  0.7256
  500MOL0     C68874   5.644   4.281   4.261  1.0206  0.3276 -0.1540
  500MOL0     C68875   5.635   4.424   4.308  0.2148 -0.6626  0.8273
  500MOL0     C68876   5.496   4.488   4.282  0.8907  0.4115  1.0110
  500MOL0     C68877   5.489   4.638   4.295 -0.6331  0.0159  0.0612
  500MOL0     C68878   5.477   4.708   4.161 -1.2959 -0.2488 -0.3667
  500MOL0     N68879   5.357   4.664   4.087 -0.0046 -0.5806  0.2762
  500MOL0     C68880   5.234   4.721   4.112 -0.1835  0.1033  0.3521
  500MOL0     C68881   5.166   4.699   3.992  0.9055  0.9226  0.2189
  500MOL0     C68882   5.026   4.733   3.953 -0.3804 -0.3849 -0.4162
  500MOL0     C68883   4.985   4.882   3.976 -0.3265 -0.2950  0.4098
  500MOL0     C68884   4.935   4.971   3.857  0.1405 -0.4920  0.1410
  500MOL0     C68885   5.059   5.023   3.768  0.5551  0.3690 -0.3671
  500MOL0     O68886   5.133   5.121   3.845 -0.7292 -0.3073 -0.5922
  500MOL0     C68887   5.269   5.106   3.873 -0.6403 -0.2637 -0.3917
  500MOL0     C68888   5.332   5.203   3.964  0.9109  1.1608 -0.5384
  500MOL0     C68889   5.468   5.196   3.999  0.1581 -0.0493 -0.3958
  500MOL0     C68890   5.521   5.302   4.097  0.4096 -0.2356  0.2563
  500MOL0     C68891   5.545   5.080   3.962  0.1995 -0.2654 -0.2532
  500MOL0     C68892   5.691   5.037   4.008  0.1977 -0.1661  0.2379
  500MOL0     O68893   5.780   5.134   4.042  0.2289 -0.0446 -0.5542
  500MOL0     C68894   5.892   5.100   4.102  0.2481 -0.1627 -0.8775
  500MOL0     C68895   5.977   4.999   4.060 -0.2756 -0.4624  0.5249
  500MOL0     C68896   6.088   4.954   4.131 -0.7204 -0.0779  0.6114
  500MOL0     C68897   6.117   5.018   4.254  1.0155  0.6427 -1.0819
  500MOL0     O68898   6.220   4.965   4.328 -0.2688  0.3517 -0.4015
  500MOL0     C68899   6.343   4.993   4.258  0.0692 -0.5510  1.0588
  500MOL0     C68900   6.462   4.964   4.346  0.2785  0.0033  0.9767
  500MOL0     C68901   6.492   5.068   4.456 -0.3884  0.5325 -0.6555
  500MOL0     C68902   6.626   5.052   4.536 -0.5873  0.6015  0.3237
  500MOL0     C68903   6.609   4.956   4.657  0.6590 -0.0043  0.0072
  500MOL0     C68904   6.746   4.912   4.716  0.4103 -0.3005 -0.0126
  500MOL0     C68905   6.728   4.847   4.854  0.4603  0.8043 -0.4074
  500MOL0     C68906   6.865   4.797   4.899  0.5637 -0.2053 -0.4702
  500MOL0    Cl68907   6.995   4.916   4.874  0.4588 -0.3321  0.2381
  500MOL0     C68908   6.029   5.116   4.309  0.9827  0.1875  0.1092
  500MOL0     C68909   5.928   5.168   4.222  0.3744  0.7823  0.3221
  500MOL0     O68910   5.706   4.921   4.021  0.5481  0.1882  0.9668
  500MOL0     C68911   5.483   4.986   3.874 -0.9848 -0.0289  0.0826
  500MOL0     C68912   5.350   5.007   3.830  0.0534  0.3119  1.0820
  500MOL0     N68913   5.250   4.630   3.904  0.1040 -0.0742  0.7195
  500MOL0     N68914   5.363   4.611   3.964 -0.2018 -0.6929  0.3035
  500MOL0     C68915   6.228   4.146   4.559  0.6679 -0.2340  0.0432
  500MOL0     C68916   6.339   4.098   4.637 -0.0293  0.0229 -0.0774
  500MOL0     C68917   6.623   3.872   4.877  0.5485  1.1469  0.2452
  500MOL0     C68918   6.625   3.741   4.834  0.5368 -0.0043 -0.4733
  500MOL0     C68919   6.728   3.660   4.859 -0.0081  0.4692 -0.9488
  500MOL0     C68920   6.848   3.701   4.912 -0.3088 -0.7903  0.7595
  500MOL0     O68921   6.929   3.593   4.919 -0.1317 -0.9086  0.0209
  500MOL0     C68922   7.069   3.616   4.959 -0.2663  0.0544  0.3889
  500MOL0     C68923   7.152   3.495   4.951  0.4312 -0.3534  0.2227
  500MOL0     C68924   7.295   3.518   5.009  0.4423 -0.4785  0.2637
  500MOL0     C68925   7.398   3.590   4.912  0.7317 -0.4590 -0.1030
  500MOL0     C68926   7.420   3.501   4.800  0.4938  0.3781  0.3845
  500MOL0     C68927   7.432   3.406   4.729 -1.4071  1.0272 -0.7616
  500MOL0     C68928   6.858   3.834   4.955  0.0245  0.0468 -0.7354
  500MOL0     C68929   6.747   3.923   4.933  0.4006  0.9693 -0.4982
  500MOL0     C68930   6.756   4.067   4.981  0.5511  0.0777  0.0117
  500MOL0     H68931   6.195   3.803   4.724 -1.1816  0.6630  1.2590
  500MOL0     H68932   6.017   3.898   4.584  0.0585 -1.0689  1.5391
  500MOL0     H68933   6.091   4.296   4.409  1.9189 -2.7846 -3.2069
  500MOL0     H68934   5.967   4.284   4.531  1.6471  1.4241 -0.3417
  500MOL0     H68935   5.884   4.372   4.315  1.6334 -0.1573 -0.9792
  500MOL0     H68936   5.928   4.214   4.233 -1.1583 -1.4073  0.0153
  500MOL0     H68937   5.756   4.106   4.355  0.7526  0.7057  1.9745
  500MOL0     H68938   5.716   4.241   4.457 -2.7542  0.0375 -0.0474
  500MOL0     H68939   5.669   4.260   4.157 -2.0723 -3.4361 -0.3626
  500MOL0     H68940   5.550   4.230   4.282 -0.0499  2.6965  1.2288
  500MOL0     H68941   5.697   4.491   4.247 -1.3051  0.8215  0.8231
  500MOL0     H68942   5.666   4.445   4.411  1.6505  0.8482  0.1462
  500MOL0     H68943   5.474   4.456   4.180  1.7023  0.6544  0.7571
  500MOL0     H68944   5.422   4.442   4.349  2.5244 -1.6501  1.5136
  500MOL0     H68945   5.579   4.678   4.342 -1.4181  1.5399  0.3220
  500MOL0     H68946   5.409   4.671   4.361  1.2839 -1.1123  3.1683
  500MOL0     H68947   5.475   4.817   4.173  0.1846 -0.3179  0.7819
  500MOL0     H68948   5.568   4.694   4.102 -1.1562  3.4554 -1.2715
  500MOL0     H68949   5.185   4.764   4.199  1.1466 -1.2039  1.7790
  500MOL0     H68950   4.967   4.676   4.025  0.5583  0.7501  1.3373
  500MOL0     H68951   5.004   4.700   3.851 -2.7460 -1.2607  0.3084
  500MOL0     H68952   4.914   4.874   4.060  2.3244  0.4783  2.8857
  500MOL0     H68953   5.075   4.929   4.014 -0.0798 -1.0157  0.7368
  500MOL0     H68954   4.858   4.921   3.798  1.5350 -0.8268 -1.4692
  500MOL0     H68955   4.891   5.062   3.899 -2.1632 -0.8683 -1.3059
  500MOL0     H68956   5.118   4.936   3.736 -2.1243 -1.8995  0.4691
  500MOL0     H68957   5.019   5.079   3.684  0.7053  2.5340  0.9253
  500MOL0     H68958   5.271   5.280   4.011  0.4704 -0.4256  1.6702
  500MOL0     H68959   5.496   5.277   4.200 -1.8976  0.9943  0.0768
  500MOL0     H68960   5.469   5.396   4.077 -1.7695 -1.6210 -1.0927
  500MOL0     H68961   5.628   5.316   4.083  0.7405 -3.2036 -1.0185
  500MOL0     H68962   5.949   4.952   3.966  1.4547  0.3783 -0.4365
  500MOL0     H68963   6.147   4.865   4.110 -0.3917  0.5704 -1.4066
  500MOL0     H68964   6.354   4.933   4.167  2.9461  0.3446  0.7154
  500MOL0     H68965   6.341   5.099   4.229  0.8774 -0.9072 -0.4001
  500MOL0     H68966   6.447   4.863   4.386 -1.7248 -0.3622 -0.4874
  500MOL0     H68967   6.545   4.951   4.276 -0.3646 -2.1229  0.5128
  500MOL0     H68968   6.410   5.050   4.526 -0.9032 -0.3773 -1.4636
  500MOL0     H68969   6.489   5.170   4.416  3.5744 -0.0471 -2.9612
  500MOL0     H68970   6.673   5.149   4.556  3.6645 -0.8088 -1.7446
  500MOL0     H68971   6.696   5.008   4.466 -1.0897  0.7310 -0.2724
  500MOL0     H68972   6.556   5.012   4.735  2.7945  0.2551  1.3368
  500MOL0     H68973   6.544   4.871   4.634  0.6582 -0.6360  2.1501
  500MOL0     H68974   6.811   5.000   4.716  0.3261 -0.2159 -1.2089
  500MOL0     H68975   6.794   4.839   4.650  2.3514  1.3514 -0.5414
  500MOL0     H68976   6.665   4.758   4.842 -1.2886  2.1481 -1.4995
  500MOL0     H68977   6.677   4.906   4.930 -0.2382 -2.3286  1.7532
  500MOL0     H68978   6.888   4.711   4.835 -3.4244 -1.3832 -0.5586
  500MOL0     H68979   6.861   4.773   5.005 -0.8704  1.2512 -0.1446
  500MOL0     H68980   6.052   5.161   4.406 -0.6153 -2.7263  1.9796
  500MOL0     H68981   5.869   5.250   4.263 -2.1005 -0.9389  0.4670
  500MOL0     H68982   5.541   4.897   3.850 -1.6443 -1.1949  2.4197
  500MOL0     H68983   5.308   4.933   3.763  0.0981  0.3708  0.9887
  500MOL0     H68984   6.247   4.246   4.519  0.7572  0.4487  1.6986
  500MOL0     H68985   6.426   4.160   4.654 -1.9596  3.1289 -0.7497
  500MOL0     H68986   6.547   3.692   4.776 -0.3158  1.2776 -0.4492
  500MOL0     H68987   6.711   3.554   4.843 -2.8958  0.1024  2.9993
  500MOL0     H68988   7.118   3.688   4.892 -0.3995  2.0301  2.3228
  500MOL0     H68989   7.071   3.667   5.055  3.0590 -2.4658  1.8896
  500MOL0     H68990   7.149   3.474   4.843 -2.9132 -1.3444  0.3768
  500MOL0     H68991   7.117   3.415   5.017  0.5678 -0.6310 -0.0350
  500MOL0     H68992   7.287   3.574   5.103 -1.4508  2.9007 -1.7225
  500MOL0     H68993   7.323   3.412   5.015  0.0418 -0.5274  1.6500
  500MOL0     H68994   7.494   3.603   4.962  0.2107 -0.4403  0.9270
  500MOL0     H68995   7.354   3.681   4.870 -1.4172 -0.1902  2.4203
  500MOL0     H68996   7.449   3.313   4.678 -0.0389  0.9482 -0.2160
  500MOL0     H68997   6.943   3.866   5.013 -0.5725  2.2650 -1.0008
  500MOL0     H68998   6.699   4.080   5.074 -0.9185  1.7251 -1.0291
  500MOL0     H68999   6.857   4.104   5.000  0.0622 -0.1039  3.9373
  500MOL0     H69000   6.724   4.143   4.909  1.1576  2.4462  2.0664
  501MOL0     O69001   2.297  11.233   6.726  0.8909 -0.1455 -0.1109
  501MOL0     C69002   2.210  11.169   6.785 -0.2004  0.5340  0.5170
  501MOL0     O69003   2.225  11.118   6.908  0.4584  0.7127  0.5692
  501MOL0     C69004   2.348  11.129   6.958  0.5278  0.2664  0.0334
  501MOL0     C69005   2.358  11.228   7.057  0.4274  0.1983 -1.2229
  501MOL0     C69006   2.485  11.266   7.111  0.4211  0.4377  0.0665
  501MOL0     C69007   2.594  11.194   7.079 -0.3854 -0.5553  0.4903
  501MOL0     O69008   2.719  11.210   7.129 -0.0493  0.0512  0.1421
  501MOL0     C69009   2.748  11.317   7.224  1.1868  1.4074 -0.8672
  501MOL0     C69010   2.899  11.333   7.238  0.2406 -0.1938 -0.1768
  501MOL0     C69011   2.957  11.203   7.293 -0.3517  0.1337 -0.7794
  501MOL0     C69012   3.079  11.150   7.214  0.2897  0.5895 -0.4300
  501MOL0     C69013   3.177  11.085   7.305 -0.4313  1.2272 -0.5870
  501MOL0     C69014   3.306  11.050   7.230  0.3526 -0.5532 -0.2269
  501MOL0     C69015   3.401  10.957   7.297  0.3999 -0.0930 -0.3239
  501MOL0     C69016   3.335  10.842   7.368  0.8278  0.3557  0.0324
  501MOL0     N69017   3.448  10.746   7.413 -0.8360  0.4503  0.1904
  501MOL0     C69018   3.504  10.645   7.337 -0.6603 -0.3541  0.0296
  501MOL0     C69019   3.624  10.603   7.394 -0.1900 -0.6720  0.4264
  501MOL0     C69020   3.703  10.493   7.340  1.0224 -0.4918  0.6619
  501MOL0     C69021   3.710  10.382   7.451  0.5371 -0.5171  0.6414
  501MOL0     C69022   3.741  10.232   7.399 -0.2346  0.0855 -0.9768
  501MOL0     C69023   3.868  10.248   7.317  0.0806 -0.3731  0.2836
  501MOL0     O69024   3.969  10.300   7.406  0.5046  0.2415 -0.1143
  501MOL0     C69025   4.095  10.342   7.357 -0.2932  0.1634  0.1560
  501MOL0     C69026   4.150  10.316   7.228 -1.4303 -0.6963  0.3269
  501MOL0     C69027   4.272  10.382   7.184 -0.2284 -0.7432  0.5024
  501MOL0     C69028   4.302  10.375   7.039  0.1054  0.3905 -0.1984
  501MOL0     C69029   4.353  10.452   7.276  0.0035  1.3447 -0.1752
  501MOL0     C69030   4.494  10.514   7.256  0.4305  0.8696  0.0137
  501MOL0     O69031   4.555  10.573   7.370  0.2731  0.0438 -0.0739
  501MOL0     C69032   4.689  10.603   7.349  0.0988  0.1480  0.4092
  501MOL0     C69033   4.709  10.741   7.329  0.3164  0.1184 -0.6723
  501MOL0     C69034   4.836  10.790   7.295  0.4436 -0.5286  0.9680
  501MOL0     C69035   4.938  10.701   7.270 -0.2461 -0.7470 -0.4292
  501MOL0     O69036   5.068  10.729   7.229 -0.0922  0.0921  0.8498
  501MOL0     C69037   5.124  10.852   7.290 -0.1963  0.5595  0.0018
  501MOL0     C69038   5.274  10.829   7.277  0.9435 -0.4933  0.4950
  501MOL0     C69039   5.349  10.944   7.349 -0.3153 -0.3178 -0.0694
  501MOL0     C69040   5.489  10.969   7.292 -0.0141  0.2313 -0.5554
  501MOL0     C69041   5.572  11.078   7.357 -0.5695  0.4366 -0.1980
  501MOL0     C69042   5.569  11.096   7.506  0.0031  0.8829  0.0393
  501MOL0     C69043   5.605  11.234   7.560 -0.9870 -0.3012  0.3683
  501MOL0     C69044   5.750  11.272   7.511  0.0556 -0.7955 -0.2207
  501MOL0    Cl69045   5.773  11.433   7.554 -0.0146 -0.9689  0.0711
  501MOL0     C69046   4.919  10.564   7.293 -0.0318 -0.2570  0.5356
  501MOL0     C69047   4.796  10.506   7.330  0.8269 -1.0618  0.4461
  501MOL0     O69048   4.548  10.492   7.154 -0.4076  0.5565 -0.1868
  501MOL0     C69049   4.305  10.457   7.409 -0.1221 -0.3130 -0.2815
  501MOL0     C69050   4.179  10.411   7.444 -0.3834  0.2411 -0.6717
  501MOL0     N69051   3.640  10.684   7.510  0.5723 -0.3941 -0.0097
  501MOL0     N69052   3.540  10.773   7.514 -0.5569 -0.4343  0.2039
  501MOL0     C69053   2.581  11.091   6.982  0.1745  0.3109  0.2572
  501MOL0     C69054   2.457  11.062   6.923 -0.6591  0.5325  0.0759
  501MOL0     C69055   2.084  11.152   6.708  0.6251  0.5720 -0.3928
  501MOL0     C69056   1.977  11.076   6.769  0.5149  0.1053  0.1463
  501MOL0     C69057   1.851  11.070   6.710  0.3020 -0.2475  0.8761
  501MOL0     C69058   1.824  11.128   6.587  0.7787  0.1122  0.4752
  501MOL0     O69059   1.704  11.153   6.522 -0.7467  0.2074  0.3415
  501MOL0     C69060   1.600  11.061   6.569  0.7558 -0.0729  0.2526
  501MOL0     C69061   1.501  11.053   6.450 -0.1752 -0.3493 -0.7913
  501MOL0     C69062   1.379  10.974   6.488 -0.2824  0.9397 -0.9135
  501MOL0     C69063   1.286  10.970   6.369  1.2954 -0.2224 -0.1137
  501MOL0     C69064   1.158  10.925   6.412  0.4452  0.2706  0.9178
  501MOL0     C69065   1.047  10.885   6.441 -0.1669 -0.5064  0.2542
  501MOL0     C69066   1.932  11.182   6.514  0.4212  0.0367 -0.5457
  501MOL0     C69067   2.061  11.195   6.576 -0.0117 -0.2793  0.5557
  501MOL0     C69068   2.167  11.246   6.472  0.0780 -0.2208  0.3918
  501MOL0     H69069   2.261  11.272   7.078 -0.9665 -1.6199 -3.5156
  501MOL0     H69070   2.490  11.349   7.181 -1.6032  1.8413 -1.3146
  501MOL0     H69071   2.702  11.296   7.321  0.1070  0.6659 -1.5265
  501MOL0     H69072   2.705  11.412   7.193 -2.1804  0.6220  0.9582
  501MOL0     H69073   2.954  11.335   7.144  3.0030 -2.8787  1.2233
  501MOL0     H69074   2.918  11.419   7.303 -0.3332 -0.3074  0.1507
  501MOL0     H69075   2.993  11.240   7.390 -1.4685  3.4229 -1.4823
  501MOL0     H69076   2.876  11.131   7.310  0.4896 -0.5810  0.3957
  501MOL0     H69077   3.045  11.082   7.136 -1.6060  3.4379 -2.2965
  501MOL0     H69078   3.130  11.235   7.167  1.2534  0.9859  1.2619
  501MOL0     H69079   3.130  10.995   7.345  2.1591  1.0186  2.4048
  501MOL0     H69080   3.203  11.152   7.388  0.2592  1.2975 -0.8571
  501MOL0     H69081   3.289  11.014   7.128 -0.8808 -0.7869  0.0428
  501MOL0     H69082   3.354  11.148   7.219 -1.2321  0.0318 -2.6161
  501MOL0     H69083   3.452  11.014   7.375  0.1895  0.2939 -0.4639
  501MOL0     H69084   3.467  10.930   7.215  2.6196  0.5941  1.1607
  501MOL0     H69085   3.273  10.880   7.450  0.9929 -1.0919  0.8561
  501MOL0     H69086   3.276  10.790   7.293 -0.4736 -1.6354  2.3255
  501MOL0     H69087   3.466  10.602   7.245  1.2409  0.0100 -0.9620
  501MOL0     H69088   3.806  10.523   7.318  0.3340  0.9588 -0.7473
  501MOL0     H69089   3.651  10.460   7.250  1.1595  0.4042  0.2419
  501MOL0     H69090   3.789  10.408   7.522 -0.0094  1.4848  0.5654
  501MOL0     H69091   3.620  10.373   7.512  0.8848  0.3388  1.3128
  501MOL0     H69092   3.758  10.169   7.487 -1.8093  2.2987  1.0466
  501MOL0     H69093   3.669  10.182   7.335  0.9241 -1.0692 -1.4069
  501MOL0     H69094   3.899  10.154   7.271 -0.8178  0.1525 -1.5155
  501MOL0     H69095   3.857  10.320   7.234 -0.6521 -0.2160  0.5055
  501MOL0     H69096   4.087  10.264   7.157  0.5954 -1.9137 -0.6821
  501MOL0     H69097   4.406  10.349   7.016 -0.3180 -2.0739  0.4166
  501MOL0     H69098   4.287  10.470   6.986  3.5160  1.5877  0.6972
  501MOL0     H69099   4.234  10.303   6.993  0.7798  1.3870 -2.9557
  501MOL0     H69100   4.639  10.820   7.358  0.4584 -0.6650  2.1488
  501MOL0     H69101   4.846  10.898   7.298 -5.6244  0.5323 -1.6752
  501MOL0     H69102   5.089  10.932   7.225 -2.0081 -0.3579 -0.2267
  501MOL0     H69103   5.105  10.863   7.397  3.1555 -0.2814  0.8105
  501MOL0     H69104   5.307  10.734   7.321  1.8299 -0.4900 -0.1249
  501MOL0     H69105   5.309  10.824   7.173 -0.1654  0.2868  0.0772
  501MOL0     H69106   5.365  10.914   7.453  4.0910  1.3280 -0.0422
  501MOL0     H69107   5.288  11.034   7.348 -0.4125 -0.2853  2.5018
  501MOL0     H69108   5.470  11.009   7.191 -0.4266  0.3646 -0.4276
  501MOL0     H69109   5.556  10.882   7.291  1.0172  0.9618  1.4406
  501MOL0     H69110   5.676  11.070   7.322 -0.9739  0.4501 -1.4278
  501MOL0     H69111   5.530  11.171   7.320 -3.1696 -1.3777 -2.1343
  501MOL0     H69112   5.638  11.020   7.546 -2.5261 -1.3826  0.3720
  501MOL0     H69113   5.471  11.070   7.547  0.6669 -1.0191  0.5561
  501MOL0     H69114   5.605  11.232   7.669 -0.2572  0.4274  0.3904
  501MOL0     H69115   5.534  11.306   7.517 -1.4056 -1.0907 -0.2974
  501MOL0     H69116   5.756  11.271   7.401  2.2707 -0.2102 -0.1500
  501MOL0     H69117   5.828  11.209   7.554 -0.0698 -1.5461 -1.0496
  501MOL0     H69118   5.007  10.502   7.281  1.4144  1.4727  1.7322
  501MOL0     H69119   4.788  10.398   7.330  1.2902 -1.1051  0.0432
  501MOL0     H69120   4.367  10.515   7.477  0.6227  1.8318 -2.6282
  501MOL0     H69121   4.132  10.432   7.540  0.3403 -1.3790  0.0805
  501MOL0     H69122   2.674  11.039   6.963  0.5855  0.9845  0.3706
  501MOL0     H69123   2.462  10.984   6.848  2.2885 -2.3895  2.9979
  501MOL0     H69124   1.988  11.027   6.865  0.7088 -1.4382 -0.6462
  501MOL0     H69125   1.766  11.044   6.773 -0.3010  1.9961  1.0766
  501MOL0     H69126   1.629  10.957   6.586 -1.4987 -0.4573  2.2470
  501MOL0     H69127   1.550  11.095   6.660 -2.0680  1.5040 -1.7418
  501MOL0     H69128   1.543  10.996   6.367  1.3991  1.5420 -1.3628
  501MOL0     H69129   1.475  11.156   6.424 -1.7588 -0.9951 -2.0411
  501MOL0     H69130   1.408  10.875   6.525 -1.4659  0.5602 -0.9488
  501MOL0     H69131   1.337  11.042   6.562  0.6030  1.9659 -1.3214
  501MOL0     H69132   1.322  10.897   6.295  0.4297 -0.8190  0.0338
  501MOL0     H69133   1.280  11.070   6.324  0.6263  1.2333  3.0038
  501MOL0     H69134   0.951  10.866   6.483 -1.8097  0.5392 -2.7479
  501MOL0     H69135   1.918  11.232   6.419 -0.3080  1.1347  0.1186
  501MOL0     H69136   2.237  11.319   6.515 -0.8044 -0.1526  1.7760
  501MOL0     H69137   2.216  11.158   6.430 -1.7650  0.1191 -2.7579
  501MOL0     H69138   2.106  11.303   6.402  0.7712  0.7801  0.5758
  502MOL0     O69139   2.905   3.259  11.414  0.2846 -0.9235  0.1280
  502MOL0     C69140   2.881   3.206  11.311 -0.0574  0.2350 -0.4382
  502MOL0     O69141   2.760   3.176  11.255  0.1192  0.2669  0.3426
  502MOL0     C69142   2.647   3.211  11.316  0.2585  0.2742 -0.3821
  502MOL0     C69143   2.616   3.169  11.447  0.3779 -0.0004  0.3283
  502MOL0     C69144   2.510   3.212  11.517 -0.4350 -0.2249  0.3079
  502MOL0     C69145   2.414   3.300  11.459 -0.0873 -0.4414 -0.0872
  502MOL0     O69146   2.291   3.342  11.506  1.1704  0.1476 -0.0409
  502MOL0     C69147   2.235   3.280  11.628 -0.6621  0.8081  0.6910
  502MOL0     C69148   2.128   3.386  11.680  0.5628  0.1015  0.2569
  502MOL0     C69149   1.982   3.332  11.650  0.1670 -0.1908 -0.4824
  502MOL0     C69150   1.884   3.447  11.675 -0.5274  0.1598 -0.8309
  502MOL0     C69151   1.742   3.393  11.669  0.6779  0.1044 -0.0708
  502MOL0     C69152   1.630   3.503  11.690  0.5182 -0.7380  1.4349
  502MOL0     C69153   1.492   3.439  11.673 -0.2184  0.2159 -0.1695
  502MOL0     C69154   1.376   3.520  11.727 -1.1341  0.3838 -0.1553
  502MOL0     N69155   1.243   3.473  11.681  0.5846 -0.1168  0.1506
  502MOL0     C69156   1.120   3.519  11.708  0.2480  0.1562 -0.2637
  502MOL0     C69157   1.037   3.470  11.609 -0.3156  0.0136 -0.1352
  502MOL0     C69158   0.897   3.509  11.608 -0.1510 -0.4763 -0.0708
  502MOL0     C69159   0.877   3.633  11.521  0.0036 -0.0792 -0.3105
  502MOL0     C69160   0.734   3.672  11.530  1.1077 -0.0699  0.2595
  502MOL0     C69161   0.700   3.821  11.479  0.0270 -0.3948 -0.3925
  502MOL0     O69162   0.744   3.927  11.560 -0.0140 -0.0373 -0.2968
  502MOL0     C69163   0.749   4.052  11.504  0.1832 -0.0192 -0.3535
  502MOL0     C69164   0.855   4.141  11.531  0.1638  0.0427  0.0331
  502MOL0     C69165   0.851   4.273  11.485 -0.2232  0.0022  0.4022
  502MOL0     C69166   0.972   4.364  11.500 -0.2908 -0.6813 -0.4322
  502MOL0     C69167   0.733   4.328  11.417  0.4206 -0.4655 -0.3479
  502MOL0     C69168   0.722   4.473  11.379 -0.9493  0.7802 -0.0560
  502MOL0     O69169   0.654   4.510  11.268 -0.0589 -0.5162  0.3220
  502MOL0     C69170   0.631   4.648  11.262 -0.6325 -0.4548  0.2502
  502MOL0     C69171   0.715   4.720  11.173 -0.6349 -0.0240 -0.4775
  502MOL0     C69172   0.685   4.854  11.150 -0.2834  1.1117 -0.0203
  502MOL0     C69173   0.583   4.919  11.221  1.1222  0.7017 -0.1216
  502MOL0     O69174   0.573   5.058  11.220  0.3861 -0.6474 -0.2187
  502MOL0     C69175   0.599   5.140  11.105  0.5067  0.6514 -0.3157
  502MOL0     C69176   0.596   5.283  11.149 -0.1345 -0.0015 -0.1480
  502MOL0     C69177   0.687   5.316  11.277 -1.3842 -0.1996 -0.6708
  502MOL0     C69178   0.826   5.260  11.266 -0.0336 -0.5418 -0.0407
  502MOL0     C69179   0.913   5.307  11.389 -0.1898  0.9052  0.7489
  502MOL0     C69180   1.067   5.270  11.375  0.7375 -0.8280  0.4978
  502MOL0     C69181   1.147   5.337  11.258  0.2969  1.7111  0.3946
  502MOL0     C69182   1.295   5.345  11.266  0.0314 -0.3712  0.0549
  502MOL0    Cl69183   1.356   5.351  11.438 -0.2167  0.2475  0.0379
  502MOL0     C69184   0.502   4.842  11.305 -0.0943 -0.8598 -0.1858
  502MOL0     C69185   0.530   4.716  11.330 -0.2089 -0.0535 -0.1729
  502MOL0     O69186   0.775   4.550  11.463 -0.0105 -0.2882  0.7721
  502MOL0     C69187   0.638   4.232  11.385  0.4585 -0.0792  0.9940
  502MOL0     C69188   0.639   4.096  11.423  0.0323 -0.5590  0.1777
  502MOL0     N69189   1.115   3.388  11.524  1.0388  0.3692  0.1627
  502MOL0     N69190   1.230   3.393  11.567 -0.0907  0.0299 -0.7891
  502MOL0     C69191   2.436   3.331  11.326  0.6472  0.9159  1.0273
  502MOL0     C69192   2.550   3.290  11.254 -0.2156 -0.1571 -0.4047
  502MOL0     C69193   2.994   3.149  11.250 -0.1025  0.8504  0.0398
  502MOL0     C69194   2.969   3.037  11.167  0.7751 -0.0988  0.2520
  502MOL0     C69195   3.063   2.982  11.083 -0.3694  0.5362  0.7609
  502MOL0     C69196   3.202   3.020  11.088 -0.7268 -1.5738 -0.1657
  502MOL0     O69197   3.302   2.971  11.008  0.7122  0.0636  0.1186
  502MOL0     C69198   3.262   2.863  10.912 -0.4555 -0.3145 -0.3163
  502MOL0     C69199   3.378   2.814  10.822  0.4010 -0.4856  0.5827
  502MOL0     C69200   3.438   2.927  10.740  0.3974 -0.1743 -0.4765
  502MOL0     C69201   3.527   2.864  10.630  0.8340  0.0376 -0.1796
  502MOL0     C69202   3.660   2.829  10.685 -0.0246 -0.2843 -0.4220
  502MOL0     C69203   3.775   2.803  10.710 -0.3588  0.1528 -0.6547
  502MOL0     C69204   3.229   3.130  11.177  0.4276  1.2069 -0.3587
  502MOL0     C69205   3.128   3.188  11.263  1.1902 -0.3643  0.8945
  502MOL0     C69206   3.170   3.310  11.348  0.1259 -0.0682 -0.5727
  502MOL0     H69207   2.684   3.098  11.493 -4.1043 -3.5962  2.1286
  502MOL0     H69208   2.499   3.177  11.619  0.4372 -1.2681  0.0545
  502MOL0     H69209   2.310   3.270  11.706  0.2161 -0.6986 -0.3158
  502MOL0     H69210   2.202   3.179  11.601 -0.1282  0.8110  0.0092
  502MOL0     H69211   2.148   3.396  11.787  1.3277  0.9106  0.0467
  502MOL0     H69212   2.140   3.484  11.633  2.7795 -0.4063 -0.3108
  502MOL0     H69213   1.983   3.308  11.544  2.5374  4.4286 -1.7487
  502MOL0     H69214   1.964   3.239  11.706 -3.8286 -0.9840 -2.6902
  502MOL0     H69215   1.908   3.495  11.770 -1.0401 -1.1992  0.0260
  502MOL0     H69216   1.896   3.525  11.600 -0.0354 -0.2479 -1.1845
  502MOL0     H69217   1.712   3.312  11.736 -2.2466  0.7436 -0.4969
  502MOL0     H69218   1.726   3.357  11.567 -0.4527 -0.9230  0.4533
  502MOL0     H69219   1.649   3.551  11.787 -1.7789  2.5422  0.4684
  502MOL0     H69220   1.629   3.581  11.614 -0.5039 -0.1464  2.0222
  502MOL0     H69221   1.493   3.355  11.743 -2.1315 -0.1729 -0.5591
  502MOL0     H69222   1.486   3.397  11.573 -0.7072 -0.8700  0.3032
  502MOL0     H69223   1.377   3.510  11.836  1.7467  2.0722  0.0751
  502MOL0     H69224   1.386   3.627  11.707  0.5588  0.5313  1.2139
  502MOL0     H69225   1.086   3.590  11.782 -0.0931  2.4873 -2.5351
  502MOL0     H69226   0.857   3.526  11.708 -0.0305 -2.1547  0.2868
  502MOL0     H69227   0.840   3.431  11.556  0.2252 -0.6550 -0.2151
  502MOL0     H69228   0.956   3.704  11.549  2.4836 -1.8705 -2.2080
  502MOL0     H69229   0.907   3.603  11.420  2.6517  1.5390 -0.1127
  502MOL0     H69230   0.676   3.603  11.468  1.2241  1.2648 -1.4233
  502MOL0     H69231   0.700   3.669  11.634  1.0752 -0.1780  0.2451
  502MOL0     H69232   0.713   3.838  11.372 -1.2771  3.4632 -0.0653
  502MOL0     H69233   0.591   3.821  11.492  0.2342  0.7883  1.8851
  502MOL0     H69234   0.921   4.087  11.598 -1.1872  1.8773  3.0393
  502MOL0     H69235   0.951   4.446  11.570  0.8043 -0.3870 -0.4195
  502MOL0     H69236   1.016   4.404  11.408  4.4155 -0.8840  1.4275
  502MOL0     H69237   1.055   4.312  11.550 -0.7194  0.6727  1.8487
  502MOL0     H69238   0.800   4.662  11.139  1.1974  1.1039  1.8962
  502MOL0     H69239   0.755   4.909  11.088  0.5286  0.4095  0.2576
  502MOL0     H69240   0.699   5.114  11.068 -0.0550 -0.5296 -1.0981
  502MOL0     H69241   0.519   5.116  11.034 -1.7205 -1.3471  2.6088
  502MOL0     H69242   0.627   5.337  11.060  0.5146 -1.7725 -1.0497
  502MOL0     H69243   0.495   5.313  11.178 -0.0281  0.2696 -0.0498
  502MOL0     H69244   0.645   5.279  11.371 -0.3998 -1.9268 -0.8750
  502MOL0     H69245   0.688   5.425  11.278 -0.8461 -0.1971  0.1786
  502MOL0     H69246   0.859   5.302  11.171  0.2383  0.8494  0.6419
  502MOL0     H69247   0.820   5.151  11.267 -0.4047 -0.5395 -1.3098
  502MOL0     H69248   0.910   5.415  11.402  0.4194  1.0012  0.1856
  502MOL0     H69249   0.881   5.260  11.482 -0.6649  0.7548  0.5141
  502MOL0     H69250   1.098   5.165  11.380  2.4514 -0.3140  4.3463
  502MOL0     H69251   1.109   5.293  11.473  0.5942  0.8102  0.1970
  502MOL0     H69252   1.101   5.435  11.246 -2.6832  0.7748  2.8601
  502MOL0     H69253   1.136   5.273  11.170  0.5767  2.5037 -0.2307
  502MOL0     H69254   1.324   5.421  11.193  1.1399 -0.0909  0.7503
  502MOL0     H69255   1.327   5.250  11.224  1.9481 -0.2567  1.1403
  502MOL0     H69256   0.421   4.902  11.345  0.7962 -0.1030  0.5233
  502MOL0     H69257   0.472   4.651  11.395 -0.8120  1.0336  0.4051
  502MOL0     H69258   0.544   4.260  11.337 -0.5783 -1.5157  2.1197
  502MOL0     H69259   0.561   4.027  11.392  0.1476 -1.8755  2.5918
  502MOL0     H69260   2.350   3.379  11.280 -0.1678 -0.1863  1.3697
  502MOL0     H69261   2.562   3.308  11.147  2.1656 -2.5568 -0.6468
  502MOL0     H69262   2.871   2.996  11.144  0.4357  2.1652 -2.8351
  502MOL0     H69263   3.035   2.899  11.019  2.1640 -1.4923  2.1051
  502MOL0     H69264   3.216   2.777  10.962  1.3919 -0.8420  0.5470
  502MOL0     H69265   3.183   2.898  10.845  0.2514 -0.6391 -1.3383
  502MOL0     H69266   3.345   2.733  10.755 -0.6443  1.5473 -1.4901
  502MOL0     H69267   3.459   2.782  10.888 -1.6166 -0.5157  3.1882
  502MOL0     H69268   3.358   2.990  10.699 -3.0540 -2.2775  2.4662
  502MOL0     H69269   3.502   2.984  10.807  1.4745 -0.5056 -1.1978
  502MOL0     H69270   3.542   2.938  10.551  3.1307  0.0548  0.1769
  502MOL0     H69271   3.486   2.772  10.587  2.0319 -1.6220  1.9873
  502MOL0     H69272   3.878   2.781  10.730 -0.4523 -0.2019 -0.5677
  502MOL0     H69273   3.331   3.165  11.185  1.3727 -1.1091 -1.4835
  502MOL0     H69274   3.160   3.286  11.454  1.6285 -1.8172 -0.7771
  502MOL0     H69275   3.276   3.330  11.334  0.2967 -0.1817  0.4889
  502MOL0     H69276   3.109   3.401  11.333  1.2850  0.9631  0.6992
  503MOL0     O69277   3.140  10.027  11.066 -0.2893  0.3044 -0.6010
  503MOL0     C69278   3.148   9.907  11.087 -0.2276  0.1542 -1.0939
  503MOL0     O69279   3.264   9.833  11.072  0.2914 -0.4685  0.0060
  503MOL0     C69280   3.385   9.895  11.079 -0.1340 -0.0410  0.3137
  503MOL0     C69281   3.496   9.835  11.008  0.0539 -0.2902  0.2364
  503MOL0     C69282   3.618   9.901  10.980 -0.5494 -0.2598 -0.1509
  503MOL0     C69283   3.647  10.027  11.042  0.4341 -0.3660  0.5598
  503MOL0     O69284   3.767  10.099  11.027 -0.3520  0.2149 -0.8393
  503MOL0     C69285   3.880  10.031  10.964 -0.0641 -0.5077  0.2222
  503MOL0     C69286   3.997  10.137  10.966  0.9095  0.0218  0.4459
  503MOL0     C69287   4.126  10.073  10.915  0.0214 -0.1031 -0.0879
  503MOL0     C69288   4.255  10.172  10.933  0.0470 -0.7034 -0.1254
  503MOL0     C69289   4.383  10.099  10.889 -0.4769 -0.6967 -0.1395
  503MOL0     C69290   4.494  10.199  10.857  0.5946  0.3538 -0.0946
  503MOL0     C69291   4.626  10.130  10.842  0.3449  0.0912  0.3310
  503MOL0     C69292   4.717  10.233  10.780  0.1693 -0.4773 -0.2783
  503MOL0     N69293   4.856  10.181  10.748 -0.0904 -0.3308 -0.3969
  503MOL0     C69294   4.948  10.270  10.689  0.7495 -0.8129 -0.1454
  503MOL0     C69295   5.053  10.194  10.672 -0.0766 -0.1534 -0.5007
  503MOL0     C69296   5.183  10.227  10.606 -0.3332 -0.4424  0.3886
  503MOL0     C69297   5.264  10.310  10.705  0.3604 -0.8065 -0.3002
  503MOL0     C69298   5.413  10.330  10.668  0.5527 -0.0276 -0.0880
  503MOL0     C69299   5.520  10.278  10.780  1.0230  0.0226 -0.1795
  503MOL0     O69300   5.651  10.308  10.730  0.0439  0.0037 -0.2396
  503MOL0     C69301   5.757  10.330  10.815  0.4887 -0.2982 -0.1882
  503MOL0     C69302   5.750  10.361  10.954  0.3603 -0.0076  0.3297
  503MOL0     C69303   5.859  10.409  11.026 -0.4984  0.2840 -0.2460
  503MOL0     C69304   5.834  10.473  11.162  0.6222 -0.1908  1.4618
  503MOL0     C69305   5.985  10.406  10.958 -0.4086  0.0774  0.4160
  503MOL0     C69306   6.116  10.426  11.024  0.6587  0.5981 -0.2213
  503MOL0     O69307   6.234  10.435  10.956 -0.8788 -0.8636  0.3764
  503MOL0     C69308   6.347  10.450  11.030 -0.1998  0.4124  0.0301
  503MOL0     C69309   6.426  10.339  11.048  0.1978  0.4396 -0.2878
  503MOL0     C69310   6.540  10.355  11.136 -0.2237 -0.0446  0.4094
  503MOL0     C69311   6.565  10.472  11.208 -0.3584  0.0100  1.4424
  503MOL0     O69312   6.678  10.496  11.279  0.0754  0.4175 -0.8113
  503MOL0     C69313   6.784  10.398  11.276  0.5427  0.3376 -0.3452
  503MOL0     C69314   6.910  10.455  11.346 -0.1534  1.0009 -0.6393
  503MOL0     C69315   7.026  10.354  11.340  0.5823 -0.0907 -0.1397
  503MOL0     C69316   7.146  10.413  11.426  0.2225 -0.4417  0.7207
  503MOL0     C69317   7.228  10.294  11.487  0.5524 -0.4881  0.4267
  503MOL0     C69318   7.330  10.349  11.589 -0.7140 -0.3480  0.0396
  503MOL0     C69319   7.446  10.403  11.508  0.0218  0.7589 -0.6661
  503MOL0     C69320   7.558  10.438  11.606  0.0992  0.4065 -0.3964
  503MOL0    Cl69321   7.633  10.292  11.671  0.3638 -0.0296 -0.4334
  503MOL0     C69322   6.487  10.583  11.181 -0.6115  0.9059  0.1263
  503MOL0     C69323   6.373  10.569  11.104  0.0910 -0.3657  0.2026
  503MOL0     O69324   6.110  10.421  11.147 -0.6608  0.3260  0.7463
  503MOL0     C69325   5.991  10.368  10.822 -0.8855 -0.4276 -0.5087
  503MOL0     C69326   5.879  10.332  10.755 -0.3609 -0.0483  0.2380
  503MOL0     N69327   5.026  10.063  10.723 -0.4618 -0.7641  0.2416
  503MOL0     N69328   4.904  10.059  10.771 -1.2139 -0.4688 -0.0171
  503MOL0     C69329   3.545  10.088  11.122 -0.1320  0.0243  0.2952
  503MOL0     C69330   3.422  10.025  11.144 -0.3993 -0.0188  0.8062
  503MOL0     C69331   3.019   9.829  11.109 -0.2060 -0.0600 -1.0163
  503MOL0     C69332   3.025   9.686  11.091 -0.3725 -0.5522  0.3158
  503MOL0     C69333   2.911   9.608  11.102  0.7739  0.4133  0.5511
  503MOL0     C69334   2.781   9.658  11.132 -0.1669 -0.1003 -0.0944
  503MOL0     O69335   2.671   9.587  11.159  0.3605 -0.4829  0.2587
  503MOL0     C69336   2.679   9.457  11.218  0.5041 -0.2798 -0.3338
  503MOL0     C69337   2.534   9.409  11.249 -0.8467  0.8703 -0.0614
  503MOL0     C69338   2.427   9.446  11.141  0.8292  0.5324  0.1047
  503MOL0     C69339   2.284   9.382  11.159  0.0270  0.6500  0.4349
  503MOL0     C69340   2.196   9.464  11.236  0.1413 -1.0948  0.3082
  503MOL0     C69341   2.114   9.545  11.285 -0.8289  0.0854  0.2171
  503MOL0     C69342   2.776   9.798  11.160  0.3405  0.6373  0.4581
  503MOL0     C69343   2.890   9.880  11.154  0.0525  0.2846  0.6914
  503MOL0     C69344   2.863  10.020  11.200  0.4096  0.1559  0.7152
  503MOL0     H69345   3.477   9.741  10.959 -3.2830 -0.2540  1.2156
  503MOL0     H69346   3.693   9.861  10.911  1.0310 -0.7293  1.7543
  503MOL0     H69347   3.849  10.001  10.864 -0.2066  1.0948 -0.2556
  503MOL0     H69348   3.914   9.942  11.018  1.1317  0.1918  0.6749
  503MOL0     H69349   3.960  10.218  10.903 -2.2643  0.3501  2.5101
  503MOL0     H69350   4.004  10.176  11.068 -0.3818 -1.1588  1.0102
  503MOL0     H69351   4.143   9.978  10.967 -0.0069  0.4498  0.9624
  503MOL0     H69352   4.117  10.049  10.809  1.5658  0.0134 -0.2684
  503MOL0     H69353   4.242  10.262  10.872 -4.7480 -1.5995 -0.8125
  503MOL0     H69354   4.271  10.200  11.037  1.9514  0.2902 -0.6423
  503MOL0     H69355   4.360  10.043  10.799 -0.4310 -1.5759  0.3829
  503MOL0     H69356   4.418  10.025  10.961  0.2596 -2.0701 -1.8630
  503MOL0     H69357   4.463  10.268  10.778 -0.7528  1.4220  1.3022
  503MOL0     H69358   4.501  10.268  10.941  0.2441 -1.7460  1.7737
  503MOL0     H69359   4.618  10.050  10.768 -0.5241  0.9603 -0.5430
  503MOL0     H69360   4.663  10.076  10.930  1.7012 -1.3981 -1.0955
  503MOL0     H69361   4.678  10.269  10.684  0.2729  2.8855  0.7980
  503MOL0     H69362   4.714  10.326  10.838 -0.6265 -0.5577 -0.1678
  503MOL0     H69363   4.930  10.370  10.653  1.2498 -1.1423 -1.3590
  503MOL0     H69364   5.169  10.282  10.513 -1.1214 -0.5912  0.4134
  503MOL0     H69365   5.233  10.135  10.574  2.5830  0.9308  0.6615
  503MOL0     H69366   5.223  10.410  10.723 -0.0991 -1.0537  0.0661
  503MOL0     H69367   5.263  10.254  10.799 -1.5080  0.6301  0.6007
  503MOL0     H69368   5.434  10.285  10.570 -3.2635 -2.2514 -0.0803
  503MOL0     H69369   5.431  10.437  10.657 -2.4658  0.3845 -2.0648
  503MOL0     H69370   5.495  10.323  10.877 -1.3808 -2.2305  0.3625
  503MOL0     H69371   5.511  10.171  10.801  2.8886 -0.1761 -0.2897
  503MOL0     H69372   5.649  10.362  10.993 -0.3023 -1.2545 -1.2331
  503MOL0     H69373   5.892  10.565  11.178 -0.6416  0.9988 -0.4328
  503MOL0     H69374   5.850  10.402  11.244  2.0471 -0.2834  1.1337
  503MOL0     H69375   5.732  10.512  11.162  0.4569 -0.5256 -0.3749
  503MOL0     H69376   6.392  10.248  11.001 -3.3953  1.0108  0.9356
  503MOL0     H69377   6.601  10.266  11.140  0.5569  0.4730  0.2484
  503MOL0     H69378   6.760  10.304  11.327 -1.4083  0.9208 -0.0897
  503MOL0     H69379   6.802  10.370  11.172 -0.0543  0.1424 -0.3988
  503MOL0     H69380   6.941  10.552  11.307  2.6002  0.4250 -0.1403
  503MOL0     H69381   6.870  10.473  11.445 -1.7684  3.1735 -1.6202
  503MOL0     H69382   7.056  10.336  11.236  0.5328 -0.0060 -0.1691
  503MOL0     H69383   6.979  10.264  11.381  0.0055  1.0869  1.9257
  503MOL0     H69384   7.110  10.472  11.510  0.6006  2.8681 -1.2864
  503MOL0     H69385   7.197  10.476  11.353  0.2342 -2.4274 -1.0660
  503MOL0     H69386   7.163  10.223  11.538  3.1355 -2.5550  1.0644
  503MOL0     H69387   7.273  10.235  11.407  0.0916  0.3563 -0.4685
  503MOL0     H69388   7.366  10.271  11.657 -1.0911  0.1987  0.8792
  503MOL0     H69389   7.283  10.429  11.646 -2.9891 -1.5090 -0.1002
  503MOL0     H69390   7.410  10.498  11.469 -1.5495  0.9137  1.0194
  503MOL0     H69391   7.483  10.338  11.428 -1.1862  1.8219 -2.1482
  503MOL0     H69392   7.518  10.494  11.692  0.2538 -0.1519  0.0505
  503MOL0     H69393   7.631  10.496  11.549 -0.4288  1.2988 -0.1800
  503MOL0     H69394   6.501  10.670  11.244 -1.8177  1.4265 -0.2875
  503MOL0     H69395   6.311  10.656  11.090  1.0883  0.2181 -0.7122
  503MOL0     H69396   6.085  10.358  10.770  1.8088 -1.8437  4.1106
  503MOL0     H69397   5.892  10.312  10.650  2.2774  3.8847 -0.4117
  503MOL0     H69398   3.566  10.186  11.164  1.1241  1.7768 -3.9201
  503MOL0     H69399   3.354  10.083  11.206  0.7111  0.2137  1.8357
  503MOL0     H69400   3.115   9.637  11.058  1.5890  0.6075  3.4880
  503MOL0     H69401   2.916   9.501  11.082 -2.3785  0.6954 -2.6130
  503MOL0     H69402   2.721   9.380  11.153 -0.6405  0.0700 -1.5537
  503MOL0     H69403   2.742   9.458  11.307  1.9170 -0.8825 -1.2840
  503MOL0     H69404   2.515   9.434  11.354 -1.5554 -1.4490  0.4297
  503MOL0     H69405   2.541   9.300  11.244  1.6786  1.0077 -0.6410
  503MOL0     H69406   2.411   9.554  11.127 -2.7767 -0.0120 -0.9570
  503MOL0     H69407   2.454   9.405  11.043  1.6350  2.0573 -0.3497
  503MOL0     H69408   2.286   9.282  11.202  1.8254  0.2000 -0.6235
  503MOL0     H69409   2.235   9.367  11.062  2.0071 -0.4840 -0.4591
  503MOL0     H69410   2.048   9.621  11.321  2.4496  3.7021 -0.7527
  503MOL0     H69411   2.682   9.834  11.201 -0.7514 -0.9754 -0.5223
  503MOL0     H69412   2.755  10.037  11.204  0.5510  1.2327  0.2417
  503MOL0     H69413   2.909  10.039  11.297 -0.1994  0.9496  0.8558
  503MOL0     H69414   2.893  10.097  11.128  0.6152 -1.0431 -0.5362
  504MOL0     O69415   5.327   8.728   3.945 -0.0452  0.0411  0.2989
  504MOL0     C69416   5.303   8.618   4.002 -0.7462 -0.1584  0.0618
  504MOL0     O69417   5.377   8.572   4.108  0.2562  0.6556  0.7743
  504MOL0     C69418   5.479   8.632   4.157  0.9848 -0.1220 -0.0589
  504MOL0     C69419   5.610   8.586   4.153 -0.6049 -0.6205  0.1716
  504MOL0     C69420   5.717   8.652   4.227  0.0391  0.4134  1.2766
  504MOL0     C69421   5.691   8.766   4.293 -0.3067 -0.4898  0.1549
  504MOL0     O69422   5.796   8.811   4.378 -1.4550  0.0408  0.0973
  504MOL0     C69423   5.773   8.897   4.488  0.0747 -0.7925 -0.2437
  504MOL0     C69424   5.902   8.905   4.578  0.1902 -0.3535  0.0876
  504MOL0     C69425   5.969   8.770   4.614 -0.4835 -0.7738 -0.2219
  504MOL0     C69426   6.118   8.794   4.652  0.1852  0.1049  0.0454
  504MOL0     C69427   6.175   8.659   4.692  0.2613 -0.2632  1.2397
  504MOL0     C69428   6.324   8.673   4.730  0.2035  0.3799  0.5148
  504MOL0     C69429   6.383   8.550   4.812  0.4680 -0.7307 -0.4661
  504MOL0     C69430   6.413   8.434   4.715  0.5283 -0.4740  0.3672
  504MOL0     N69431   6.544   8.456   4.650 -0.2631  0.7364  0.3131
  504MOL0     C69432   6.559   8.497   4.516 -0.8601 -0.3256  0.9444
  504MOL0     C69433   6.689   8.482   4.488 -0.9182 -0.3563 -0.1299
  504MOL0     C69434   6.765   8.510   4.367 -0.3581 -0.8780  0.9954
  504MOL0     C69435   6.768   8.383   4.273  0.0849 -0.2476  0.4959
  504MOL0     C69436   6.836   8.425   4.142 -0.2618  0.3894  0.0871
  504MOL0     C69437   6.861   8.302   4.051 -0.6278 -0.9367 -0.0819
  504MOL0     O69438   6.968   8.345   3.966 -0.7597  0.6199 -0.4198
  504MOL0     C69439   7.105   8.344   3.992 -0.5020  0.6839 -0.2939
  504MOL0     C69440   7.160   8.274   4.104  0.5176 -0.1779  0.6423
  504MOL0     C69441   7.297   8.280   4.145 -0.1207  0.3321  0.3071
  504MOL0     C69442   7.335   8.213   4.272 -1.6761  0.0142 -1.0574
  504MOL0     C69443   7.389   8.348   4.068  0.9740 -0.2380 -0.2543
  504MOL0     C69444   7.532   8.337   4.080  0.0721  0.6741 -0.8355
  504MOL0     O69445   7.597   8.422   4.004 -0.2526  0.6327  0.5894
  504MOL0     C69446   7.730   8.451   4.014 -0.1558  0.6063  0.4154
  504MOL0     C69447   7.805   8.471   3.900  0.2374 -0.3665  0.1170
  504MOL0     C69448   7.942   8.492   3.905  0.3296 -0.8032 -1.1120
  504MOL0     C69449   8.017   8.477   4.016  0.6397  0.3949 -0.0592
  504MOL0     O69450   8.152   8.491   4.002 -0.2391  0.0625 -0.2014
  504MOL0     C69451   8.219   8.559   4.105 -0.7258  0.0673  0.2657
  504MOL0     C69452   8.178   8.707   4.116 -0.0257  0.9318 -0.2828
  504MOL0     C69453   8.226   8.780   4.240  0.3135  0.2528  0.1797
  504MOL0     C69454   8.187   8.933   4.245  0.1703 -0.3346 -0.2517
  504MOL0     C69455   8.032   8.963   4.237  1.0590  0.0237 -0.0941
  504MOL0     C69456   7.949   8.915   4.348  0.0115 -0.6874 -0.2562
  504MOL0     C69457   7.807   8.951   4.318 -0.0331 -0.0907 -0.2002
  504MOL0     C69458   7.701   8.870   4.392  0.2124  0.1022  0.3119
  504MOL0    Cl69459   7.698   8.706   4.309  0.3314 -0.0335  0.0681
  504MOL0     C69460   7.943   8.454   4.137  0.0891 -0.1328 -0.5761
  504MOL0     C69461   7.801   8.441   4.136  0.5634  0.5730 -0.2958
  504MOL0     O69462   7.586   8.236   4.126  0.3743  0.4227 -0.0366
  504MOL0     C69463   7.334   8.409   3.948 -0.6932  0.2743 -1.0189
  504MOL0     C69464   7.200   8.409   3.914 -1.0115  0.7003 -0.3596
  504MOL0     N69465   6.752   8.419   4.593 -0.2137 -0.2775  0.1094
  504MOL0     N69466   6.661   8.388   4.686 -0.2845 -0.8097  0.4346
  504MOL0     C69467   5.565   8.821   4.293  0.2590 -0.3482  0.1018
  504MOL0     C69468   5.462   8.759   4.224  0.0252 -0.3484 -0.4608
  504MOL0     C69469   5.189   8.537   3.951  0.9114  0.0379 -0.1899
  504MOL0     C69470   5.167   8.413   4.011 -0.2142  0.0690 -0.7812
  504MOL0     C69471   5.079   8.318   3.963 -0.4731 -0.5342  0.2641
  504MOL0     C69472   4.996   8.346   3.855 -0.2510  0.2390 -0.3384
  504MOL0     O69473   4.906   8.253   3.824  0.5058  0.7447 -0.2886
  504MOL0     C69474   4.827   8.257   3.706 -0.1041 -0.2762  0.5064
  504MOL0     C69475   4.893   8.224   3.573  0.0051  0.3024 -0.3061
  504MOL0     C69476   4.929   8.073   3.560  0.3883  0.7504  0.5860
  504MOL0     C69477   5.043   8.053   3.452  0.4157  0.5543  0.2366
  504MOL0     C69478   4.987   8.088   3.318  0.4437  0.6243  0.1300
  504MOL0     C69479   4.950   8.130   3.215  0.6750  0.1090  0.6779
  504MOL0     C69480   5.013   8.473   3.794  0.3012  0.4507 -1.1533
  504MOL0     C69481   5.103   8.567   3.840 -0.6872 -1.0949  0.4801
  504MOL0     C69482   5.093   8.690   3.749 -0.0999 -0.3263  0.1481
  504MOL0     H69483   5.643   8.490   4.115  2.9210  0.6161 -0.2776
  504MOL0     H69484   5.815   8.605   4.226 -0.5390 -0.9145 -0.8078
  504MOL0     H69485   5.685   8.861   4.542 -0.4699 -0.7108 -1.0566
  504MOL0     H69486   5.745   9.000   4.462 -1.9206 -1.2368 -0.0289
  504MOL0     H69487   5.977   8.959   4.522  2.1113 -0.1887  2.6364
  504MOL0     H69488   5.873   8.971   4.660  2.7625  0.7698  0.1676
  504MOL0     H69489   5.909   8.723   4.692 -2.2299 -0.8839 -1.5490
  504MOL0     H69490   5.943   8.709   4.527 -4.4817 -2.3289  1.8117
  504MOL0     H69491   6.181   8.838   4.575  3.9833 -3.4585  0.7254
  504MOL0     H69492   6.119   8.864   4.736 -1.3202  0.8722 -0.5476
  504MOL0     H69493   6.170   8.595   4.603 -0.1537  0.4419  0.7543
  504MOL0     H69494   6.118   8.607   4.769 -1.3971 -3.2943 -1.7414
  504MOL0     H69495   6.389   8.709   4.650 -0.7064 -0.5668 -0.6834
  504MOL0     H69496   6.323   8.758   4.799  2.0723 -0.5295  1.7611
  504MOL0     H69497   6.314   8.521   4.891  1.4448  0.0494  0.7069
  504MOL0     H69498   6.473   8.577   4.868 -0.8418  2.0691  0.4493
  504MOL0     H69499   6.420   8.341   4.771 -0.7667 -2.0550 -1.9032
  504MOL0     H69500   6.329   8.440   4.644 -0.9937 -0.1924  2.1304
  504MOL0     H69501   6.486   8.538   4.446 -1.0474 -0.7141  0.9099
  504MOL0     H69502   6.866   8.550   4.384  0.0872 -1.2508 -0.6203
  504MOL0     H69503   6.707   8.587   4.315  1.3386 -1.1034 -1.3930
  504MOL0     H69504   6.823   8.303   4.323 -2.9103 -1.2184  2.4841
  504MOL0     H69505   6.669   8.342   4.255 -0.6440  1.5051  0.3278
  504MOL0     H69506   6.765   8.496   4.101 -1.0739  0.3926  1.4272
  504MOL0     H69507   6.936   8.469   4.151 -0.1371  0.8723 -2.8736
  504MOL0     H69508   6.893   8.206   4.093  2.6927 -0.8111 -1.9420
  504MOL0     H69509   6.774   8.292   3.985 -0.3315  2.5206 -1.1816
  504MOL0     H69510   7.088   8.213   4.158  1.3577 -0.4800  1.4405
  504MOL0     H69511   7.250   8.209   4.341  0.4711  0.6486  1.7990
  504MOL0     H69512   7.415   8.261   4.329 -3.7330 -0.6066  2.5928
  504MOL0     H69513   7.366   8.111   4.251  0.4424  1.0514 -3.5459
  504MOL0     H69514   7.766   8.455   3.800  2.0553  0.7704 -0.8303
  504MOL0     H69515   7.995   8.504   3.811  1.5467 -0.3150 -0.3940
  504MOL0     H69516   8.217   8.507   4.202  2.2953  1.9704  1.4955
  504MOL0     H69517   8.322   8.567   4.068 -0.9097 -1.3164 -0.6389
  504MOL0     H69518   8.216   8.765   4.031 -0.1258  1.1000 -0.2145
  504MOL0     H69519   8.069   8.722   4.111  0.2449  2.7390 -1.6839
  504MOL0     H69520   8.335   8.772   4.236  0.4209  1.3105  0.5430
  504MOL0     H69521   8.194   8.727   4.330 -1.7163  0.5667 -0.3193
  504MOL0     H69522   8.236   8.986   4.163 -1.9979  3.3252  0.5987
  504MOL0     H69523   8.227   8.983   4.333 -3.4837 -0.5642  1.7118
  504MOL0     H69524   8.025   9.072   4.238 -0.3589 -0.0555  0.0073
  504MOL0     H69525   7.982   8.939   4.143 -2.2183  3.2074  0.6292
  504MOL0     H69526   7.974   8.960   4.445  0.1435  0.9059 -1.0123
  504MOL0     H69527   7.963   8.807   4.360  0.1930 -0.4310  2.5340
  504MOL0     H69528   7.790   8.948   4.209 -0.7765 -0.9718 -0.0718
  504MOL0     H69529   7.799   9.057   4.346 -0.2034 -0.5667  1.6848
  504MOL0     H69530   7.607   8.922   4.373 -1.7633 -3.7266 -1.6541
  504MOL0     H69531   7.722   8.864   4.499  2.4413 -0.1540 -0.0819
  504MOL0     H69532   8.000   8.455   4.230 -1.9511  0.2329  0.7274
  504MOL0     H69533   7.745   8.422   4.227  0.7523 -0.7441 -0.4322
  504MOL0     H69534   7.393   8.457   3.871 -0.8273  0.5820 -0.9307
  504MOL0     H69535   7.164   8.451   3.820  2.0101  3.2983 -0.5454
  504MOL0     H69536   5.542   8.912   4.347  1.5994  0.1739 -0.1758
  504MOL0     H69537   5.361   8.798   4.213 -0.5963 -2.1512 -1.6478
  504MOL0     H69538   5.217   8.394   4.105 -1.6869  1.4151  0.3195
  504MOL0     H69539   5.082   8.220   4.009 -2.4946 -0.5644  0.4340
  504MOL0     H69540   4.740   8.192   3.714  0.4093 -0.8320  1.8895
  504MOL0     H69541   4.789   8.360   3.701  2.8051  1.0200  2.3349
  504MOL0     H69542   4.985   8.281   3.578  0.1567  0.4833 -3.3037
  504MOL0     H69543   4.840   8.248   3.480  0.7183  0.7421 -0.6044
  504MOL0     H69544   4.969   8.041   3.656  1.2001 -1.6967 -0.4942
  504MOL0     H69545   4.845   8.007   3.541  2.1600 -1.4214 -0.1130
  504MOL0     H69546   5.069   7.947   3.442  2.2977  1.1158 -1.6037
  504MOL0     H69547   5.132   8.111   3.480 -1.6422  2.9453  2.2849
  504MOL0     H69548   4.912   8.162   3.120  0.6731 -1.3594  0.1577
  504MOL0     H69549   4.956   8.502   3.706  3.0313  0.4551 -3.0290
  504MOL0     H69550   5.015   8.751   3.794 -0.3709 -0.1683 -0.5348
  504MOL0     H69551   5.185   8.748   3.735 -0.9712  0.8193 -0.9740
  504MOL0     H69552   5.051   8.671   3.650 -1.0249 -0.5734  0.5765
  505MOL0     O69553  11.151   0.269  10.085 -0.0725  0.3735  0.7820
  505MOL0     C69554  11.048   0.226  10.133 -0.9775  0.3825 -0.3279
  505MOL0     O69555  11.011   0.088  10.133  0.2394  0.0999 -0.5206
  505MOL0     C69556  11.092   0.001  10.060  0.7195  0.1602  0.4682
  505MOL0     C69557  11.087  -0.010   9.920  0.2365 -0.9823 -0.2553
  505MOL0     C69558  11.172  -0.102   9.860  0.0516 -0.2530  0.1307
  505MOL0     C69559  11.276  -0.175   9.922  1.1200  0.7663 -0.8503
  505MOL0     O69560  11.362  -0.251   9.852  0.5023  0.1756  0.3563
  505MOL0     C69561  11.463  -0.327   9.920 -0.6420  0.6186 -0.8669
  505MOL0     C69562  11.536  -0.409   9.820  0.2865 -0.0146 -0.7057
  505MOL0     C69563  11.667  -0.461   9.887  0.2870  0.4654  0.0722
  505MOL0     C69564  11.766  -0.532   9.790  0.1020 -0.0102 -0.1350
  505MOL0     C69565  11.833  -0.444   9.688  0.3066  0.1874  0.1497
  505MOL0     C69566  11.899  -0.512   9.573  0.3129  0.6254 -0.1261
  505MOL0     C69567  11.960  -0.407   9.476 -0.2289 -0.4684 -0.0282
  505MOL0     C69568  12.083  -0.340   9.537  0.6289  0.1916  0.2799
  505MOL0     N69569  12.167  -0.274   9.438 -0.7454 -0.6633 -0.6646
  505MOL0     C69570  12.273  -0.327   9.370  0.9348 -0.3004  0.2081
  505MOL0     C69571  12.325  -0.240   9.293 -0.4721  0.2032 -0.4732
  505MOL0     C69572  12.451  -0.249   9.215 -0.2895 -0.1621 -0.7658
  505MOL0     C69573  12.436  -0.272   9.067 -0.2807  0.6180  0.4444
  505MOL0     C69574  12.418  -0.424   9.032 -0.6044 -0.5298 -0.6121
  505MOL0     C69575  12.397  -0.451   8.886 -0.3221  0.3142 -0.0733
  505MOL0     O69576  12.377  -0.585   8.850  0.6762 -0.1367 -0.7045
  505MOL0     C69577  12.433  -0.620   8.736 -0.0235 -1.3966  0.0894
  505MOL0     C69578  12.406  -0.568   8.609  0.9683  0.0754  0.4164
  505MOL0     C69579  12.469  -0.628   8.489  0.4132 -0.4354 -0.5926
  505MOL0     C69580  12.432  -0.564   8.357 -0.1198  0.0336  1.0500
  505MOL0     C69581  12.571  -0.726   8.508  0.2254  0.0690  0.1922
  505MOL0     C69582  12.667  -0.772   8.397 -0.1092  0.0968 -0.0113
  505MOL0     O69583  12.741  -0.891   8.423  0.2140  0.2837  0.4836
  505MOL0     C69584  12.854  -0.904   8.351  0.1800  0.0273  0.3570
  505MOL0     C69585  12.975  -0.860   8.391 -0.0995  0.0622 -0.8352
  505MOL0     C69586  13.088  -0.887   8.307 -0.0972  0.1400  0.0197
  505MOL0     C69587  13.078  -0.959   8.190  0.3363  0.0348 -0.2296
  505MOL0     O69588  13.196  -0.990   8.118 -0.2644 -0.6344  1.0884
  505MOL0     C69589  13.179  -1.049   7.984 -0.1716  0.1870  0.4889
  505MOL0     C69590  13.316  -1.040   7.905 -0.4336  0.3023 -0.4505
  505MOL0     C69591  13.413  -1.145   7.968 -0.0399  1.2541  0.6714
  505MOL0     C69592  13.533  -1.183   7.877 -0.4153 -0.4977  1.1088
  505MOL0     C69593  13.608  -1.063   7.824  0.0539  0.7580 -0.4018
  505MOL0     C69594  13.736  -1.116   7.747 -0.0478  0.6156 -0.4459
  505MOL0     C69595  13.862  -1.150   7.840 -0.1798 -0.1218  0.3239
  505MOL0     C69596  13.984  -1.191   7.766 -0.1917 -0.2652 -0.1755
  505MOL0    Cl69597  14.046  -1.060   7.681 -0.5654 -0.2713  0.1289
  505MOL0     C69598  12.956  -1.014   8.160  0.3278  0.0022 -0.9742
  505MOL0     C69599  12.843  -0.982   8.240  0.3410 -0.1338  0.2631
  505MOL0     O69600  12.681  -0.706   8.292  0.1129 -0.0758  0.0409
  505MOL0     C69601  12.595  -0.767   8.638  0.2597 -0.6868  0.8425
  505MOL0     C69602  12.532  -0.712   8.749 -0.1095  0.0946  0.5702
  505MOL0     N69603  12.252  -0.118   9.305 -0.6023  0.8750  0.4659
  505MOL0     N69604  12.160  -0.141   9.393 -0.3632  0.2268 -0.6453
  505MOL0     C69605  11.276  -0.167  10.063 -0.2936  0.2054  0.1675
  505MOL0     C69606  11.178  -0.092  10.134  0.2915  0.0435  0.5853
  505MOL0     C69607  10.950   0.316  10.201 -0.7222 -0.0828  0.2930
  505MOL0     C69608  10.847   0.254  10.272 -0.6293 -0.4934  0.1163
  505MOL0     C69609  10.760   0.317  10.352 -0.5078 -0.8668 -0.6183
  505MOL0     C69610  10.789   0.449  10.390 -0.1463  0.0848 -0.1658
  505MOL0     O69611  10.718   0.513  10.493 -0.1488 -0.0679  0.0137
  505MOL0     C69612  10.714   0.656  10.514 -0.1063  0.5802  0.3733
  505MOL0     C69613  10.565   0.690  10.558 -0.3696  0.0764  0.0699
  505MOL0     C69614  10.557   0.823  10.630  0.3995 -0.7990  0.1712
  505MOL0     C69615  10.632   0.940  10.558  0.2252 -0.1116 -0.2390
  505MOL0     C69616  10.556   0.996  10.441  0.1961  0.5974 -1.2803
  505MOL0     C69617  10.490   1.047  10.355 -0.1507  0.5158  0.3496
  505MOL0     C69618  10.893   0.513  10.319  0.2416  0.1996 -0.1196
  505MOL0     C69619  10.971   0.450  10.217 -0.0276 -0.0444 -0.9127
  505MOL0     C69620  11.065   0.541  10.138 -0.1747  0.2822 -0.0973
  505MOL0     H69621  11.015   0.048   9.863 -0.4373 -2.2527 -0.7405
  505MOL0     H69622  11.168  -0.113   9.752 -0.1305 -0.8260  0.1922
  505MOL0     H69623  11.417  -0.395   9.992  1.1411  2.1180  1.8389
  505MOL0     H69624  11.536  -0.266   9.975  1.9098 -1.3160 -1.8802
  505MOL0     H69625  11.473  -0.496   9.801 -0.8832  0.9216 -1.2885
  505MOL0     H69626  11.554  -0.364   9.722 -2.9753  1.2927 -0.8296
  505MOL0     H69627  11.707  -0.373   9.936 -3.1098  2.3320 -0.2366
  505MOL0     H69628  11.647  -0.539   9.962  2.0474  0.8070  0.9357
  505MOL0     H69629  11.852  -0.568   9.847  0.3584 -0.6150 -0.8885
  505MOL0     H69630  11.706  -0.610   9.743 -2.1036  0.2671  2.0183
  505MOL0     H69631  11.891  -0.366   9.738 -1.8758  2.5922 -0.8001
  505MOL0     H69632  11.755  -0.381   9.644  0.7697  2.6267  2.5672
  505MOL0     H69633  11.972  -0.589   9.603 -0.1384  0.2444  0.0076
  505MOL0     H69634  11.828  -0.579   9.523 -1.1669  0.7517  1.7174
  505MOL0     H69635  11.880  -0.335   9.456  0.0601 -0.5577 -1.6723
  505MOL0     H69636  11.990  -0.449   9.379  2.8456  0.0738  0.5772
  505MOL0     H69637  12.051  -0.267   9.612 -0.2469 -0.2752  0.3795
  505MOL0     H69638  12.136  -0.417   9.594  1.3513  0.4369 -0.0534
  505MOL0     H69639  12.322  -0.424   9.372  1.6667  0.0763  0.8706
  505MOL0     H69640  12.533  -0.307   9.259  3.1940  3.7923 -1.4495
  505MOL0     H69641  12.495  -0.149   9.218  2.0867 -1.1219 -1.6164
  505MOL0     H69642  12.350  -0.221   9.022 -0.4099 -2.9605 -4.1390
  505MOL0     H69643  12.519  -0.229   9.011 -1.3229  1.2042 -0.6976
  505MOL0     H69644  12.505  -0.477   9.071 -0.3761  1.4196  1.7293
  505MOL0     H69645  12.327  -0.456   9.084 -0.2984  0.5055  0.5945
  505MOL0     H69646  12.308  -0.400   8.848 -1.7279 -2.0994 -0.1923
  505MOL0     H69647  12.486  -0.414   8.833  0.0841  1.2171  1.2045
  505MOL0     H69648  12.332  -0.491   8.588 -0.4090 -1.8143 -2.1638
  505MOL0     H69649  12.515  -0.499   8.327 -0.6198  0.6117  0.8997
  505MOL0     H69650  12.334  -0.515   8.351  1.3895  3.1866 -3.2523
  505MOL0     H69651  12.431  -0.641   8.279 -0.3195  0.9187  0.1505
  505MOL0     H69652  12.984  -0.811   8.487 -1.3449 -3.4235  1.2478
  505MOL0     H69653  13.185  -0.848   8.335 -0.3657  1.4497 -0.8028
  505MOL0     H69654  13.143  -1.152   7.989  1.4289 -0.3456  3.4843
  505MOL0     H69655  13.106  -0.986   7.933 -0.5237 -0.2607  0.4360
  505MOL0     H69656  13.290  -1.059   7.800 -2.5161 -0.5732  0.1673
  505MOL0     H69657  13.356  -0.940   7.923 -0.5174  0.5683 -1.6541
  505MOL0     H69658  13.362  -1.240   7.988 -0.1789  1.3254  0.6613
  505MOL0     H69659  13.460  -1.111   8.061  0.4669  1.6279  0.2798
  505MOL0     H69660  13.514  -1.231   7.781 -1.4671  0.4926  0.8039
  505MOL0     H69661  13.600  -1.247   7.935  1.2146  1.3478  1.4010
  505MOL0     H69662  13.532  -1.010   7.767 -0.4957  1.3252  0.8042
  505MOL0     H69663  13.637  -0.990   7.901 -1.8421  2.0234 -0.8060
  505MOL0     H69664  13.767  -1.032   7.685  0.7130 -0.2480 -1.2638
  505MOL0     H69665  13.722  -1.200   7.678 -1.0171  0.2266  0.1978
  505MOL0     H69666  13.841  -1.235   7.906  2.9151 -0.4020  1.0839
  505MOL0     H69667  13.884  -1.059   7.897 -3.9518  1.6297 -0.6726
  505MOL0     H69668  13.957  -1.260   7.686 -1.1350  2.1063 -2.0434
  505MOL0     H69669  14.055  -1.253   7.821  2.2035  0.9712 -1.7185
  505MOL0     H69670  12.938  -1.070   8.069  2.1298 -1.2591 -0.5943
  505MOL0     H69671  12.753  -1.038   8.216  1.2789 -2.2176  1.4136
  505MOL0     H69672  12.661  -0.848   8.664  1.7402  0.2389  0.1003
  505MOL0     H69673  12.549  -0.749   8.849 -1.3082  1.7100  1.4128
  505MOL0     H69674  11.345  -0.234  10.114 -0.0040 -0.8544 -1.5372
  505MOL0     H69675  11.172  -0.098  10.242 -0.4842  0.2503  0.5632
  505MOL0     H69676  10.831   0.146  10.271 -1.0634 -0.4326 -1.3175
  505MOL0     H69677  10.684   0.263  10.408 -0.2282  0.3810  1.0528
  505MOL0     H69678  10.794   0.683  10.585 -0.6239 -0.9582  1.6027
  505MOL0     H69679  10.734   0.702  10.417 -3.7219 -0.2980 -0.9122
  505MOL0     H69680  10.517   0.612  10.617 -0.5666  1.1882  1.4487
  505MOL0     H69681  10.507   0.685  10.465 -0.6696  0.2991  0.2441
  505MOL0     H69682  10.455   0.859  10.649  1.6331  2.1808  1.7808
  505MOL0     H69683  10.591   0.808  10.733  2.7606  0.0730 -0.4243
  505MOL0     H69684  10.730   0.897  10.534 -0.9536 -4.3275  1.5078
  505MOL0     H69685  10.647   1.019  10.632  0.6431 -0.6956  0.3174
  505MOL0     H69686  10.436   1.090  10.273  0.6751 -1.1527 -1.1423
  505MOL0     H69687  10.917   0.617  10.337 -0.2380  0.1449  0.9323
  505MOL0     H69688  11.167   0.523  10.173  0.0132  0.4339 -0.5651
  505MOL0     H69689  11.058   0.522  10.031 -1.2768  2.3997 -0.4509
  505MOL0     H69690  11.037   0.645  10.154  0.3092  0.2106  1.3719
  506MOL0     O69691   3.889   0.734   6.415 -0.9919 -0.3207 -0.1678
  506MOL0     C69692   3.903   0.681   6.306 -0.8957 -0.3782 -0.1388
  506MOL0     O69693   4.018   0.678   6.232 -0.1845 -0.0563 -0.1969
  506MOL0     C69694   4.133   0.740   6.290 -0.8538  1.3054  0.6668
  506MOL0     C69695   4.142   0.877   6.319 -0.5517  0.1608  0.2680
  506MOL0     C69696   4.258   0.938   6.365 -0.4132 -0.5323  0.1577
  506MOL0     C69697   4.372   0.858   6.390  0.0985 -0.4871  1.2476
  506MOL0     O69698   4.483   0.920   6.442  0.1957  0.0808  0.1885
  506MOL0     C69699   4.609   0.886   6.369 -0.9891 -0.1940 -0.3548
  506MOL0     C69700   4.718   0.980   6.431  0.3023 -0.2416  0.2742
  506MOL0     C69701   4.851   0.949   6.375  1.1636  0.1947  0.3310
  506MOL0     C69702   4.950   1.064   6.391 -0.5172  0.2279  0.4523
  506MOL0     C69703   4.987   1.063   6.544 -0.4522  0.1284  0.3918
  506MOL0     C69704   5.129   1.114   6.561  0.7190  0.2852 -0.2428
  506MOL0     C69705   5.176   1.100   6.715  0.6584 -1.0308  0.6103
  506MOL0     C69706   5.199   0.949   6.755  0.0353 -0.0673 -0.2609
  506MOL0     N69707   5.326   0.902   6.699 -0.0458 -0.4669 -1.0520
  506MOL0     C69708   5.338   0.832   6.583 -0.7134  0.6589  1.8329
  506MOL0     C69709   5.473   0.794   6.593  0.0583 -0.4784 -0.6588
  506MOL0     C69710   5.556   0.738   6.490  0.3535  0.1865  0.1294
  506MOL0     C69711   5.507   0.592   6.463 -0.1451  0.7297  0.2444
  506MOL0     C69712   5.538   0.497   6.582  0.1102  0.2623  0.5607
  506MOL0     C69713   5.688   0.495   6.625  0.9955  0.3826 -0.1478
  506MOL0     O69714   5.760   0.470   6.506 -0.0035  0.0541 -0.0309
  506MOL0     C69715   5.896   0.456   6.514  0.5508  0.4384 -0.1073
  506MOL0     C69716   5.972   0.430   6.632 -0.6225 -0.0027 -0.1134
  506MOL0     C69717   6.114   0.422   6.622  0.8987  0.0467 -0.3208
  506MOL0     C69718   6.188   0.392   6.754  0.1924  0.4655  0.1031
  506MOL0     C69719   6.178   0.445   6.498  0.1078  0.3370  0.8369
  506MOL0     C69720   6.327   0.448   6.482  0.2552  0.2650 -0.1613
  506MOL0     O69721   6.367   0.438   6.357  0.0066 -0.3490  0.1551
  506MOL0     C69722   6.494   0.424   6.318 -0.3829 -0.1987 -0.4315
  506MOL0     C69723   6.510   0.465   6.186 -0.0565 -0.2707  0.3415
  506MOL0     C69724   6.633   0.485   6.133  0.4991 -0.0964 -0.6671
  506MOL0     C69725   6.749   0.452   6.203  1.1515 -1.0097  0.7128
  506MOL0     O69726   6.874   0.458   6.156  0.3442  0.1091 -0.7390
  506MOL0     C69727   6.893   0.489   6.023 -0.2535  0.8840 -0.3725
  506MOL0     C69728   7.042   0.511   5.981  0.0180 -0.0491 -0.1237
  506MOL0     C69729   7.055   0.644   5.907  0.0116 -0.8938  0.5938
  506MOL0     C69730   7.205   0.672   5.860  0.8145  0.2906  0.4327
  506MOL0     C69731   7.242   0.819   5.852 -0.0550 -0.2549  0.2474
  506MOL0     C69732   7.354   0.833   5.751 -0.0651  0.6565 -0.8818
  506MOL0     C69733   7.378   0.984   5.732 -0.4513 -1.0025  0.1010
  506MOL0     C69734   7.298   1.059   5.616  0.1896  0.0739  0.6918
  506MOL0    Cl69735   7.307   1.238   5.618 -0.0688  0.6064 -0.1271
  506MOL0     C69736   6.729   0.396   6.326 -0.6228 -0.2041 -0.1041
  506MOL0     C69737   6.609   0.379   6.386  0.6649  0.1091 -0.0302
  506MOL0     O69738   6.391   0.499   6.577  0.2955  0.3403  0.9126
  506MOL0     C69739   6.098   0.474   6.386 -0.2720 -0.1105 -0.0162
  506MOL0     C69740   5.963   0.488   6.395  0.5686  0.4436  0.0170
  506MOL0     N69741   5.527   0.840   6.711 -0.5638 -1.0543 -0.0212
  506MOL0     N69742   5.433   0.901   6.777 -0.1007  0.2417  0.5549
  506MOL0     C69743   4.362   0.712   6.379 -0.1103 -0.1219 -0.5060
  506MOL0     C69744   4.241   0.657   6.327  0.0345 -0.3425 -0.4097
  506MOL0     C69745   3.780   0.613   6.262 -0.0482  0.6272  0.0840
  506MOL0     C69746   3.796   0.546   6.137 -0.3074  0.0880 -0.0081
  506MOL0     C69747   3.698   0.460   6.092  0.2756  0.1119 -0.0407
  506MOL0     C69748   3.580   0.430   6.169  0.0177 -0.4712 -0.6006
  506MOL0     O69749   3.494   0.332   6.124 -0.2351  1.0601 -0.2242
  506MOL0     C69750   3.354   0.344   6.139  0.4489  0.0202 -1.0691
  506MOL0     C69751   3.275   0.318   6.008 -0.5948  0.5879  0.3209
  506MOL0     C69752   3.284   0.171   5.949  0.1847 -0.8227  0.1977
  506MOL0     C69753   3.199   0.154   5.820 -0.3665  0.5591  0.2467
  506MOL0     C69754   3.056   0.142   5.856  0.3635 -0.8578  0.2415
  506MOL0     C69755   2.941   0.140   5.884  0.1395  0.0801 -0.3053
  506MOL0     C69756   3.571   0.500   6.294  0.1444 -0.4904 -0.1553
  506MOL0     C69757   3.660   0.592   6.339  0.0505  0.1456  0.5925
  506MOL0     C69758   3.635   0.640   6.480 -0.2454 -0.6917 -0.4669
  506MOL0     H69759   4.061   0.939   6.282  1.3669  3.0505  0.5084
  506MOL0     H69760   4.256   1.044   6.388  0.2653 -0.2571 -0.9793
  506MOL0     H69761   4.589   0.907   6.264  1.2329  0.4966 -0.6756
  506MOL0     H69762   4.636   0.780   6.373 -1.4070 -0.4153 -2.4019
  506MOL0     H69763   4.692   1.080   6.397 -1.2053 -0.6502  0.1849
  506MOL0     H69764   4.722   0.966   6.539  0.1593  1.8278  0.5821
  506MOL0     H69765   4.874   0.850   6.416 -2.2205 -0.1634  1.6662
  506MOL0     H69766   4.840   0.944   6.267  2.5771 -1.3275  0.2082
  506MOL0     H69767   5.039   1.035   6.333 -2.9060 -1.7733 -2.5365
  506MOL0     H69768   4.901   1.156   6.360 -2.0069 -1.0720 -1.2835
  506MOL0     H69769   4.984   0.959   6.577 -3.2966 -0.2897 -0.8843
  506MOL0     H69770   4.920   1.126   6.605 -0.4457  1.0051 -0.4862
  506MOL0     H69771   5.196   1.045   6.510 -0.8399 -2.4717  1.1575
  506MOL0     H69772   5.133   1.217   6.524 -2.3076 -0.0184 -1.6837
  506MOL0     H69773   5.095   1.143   6.774 -0.9108 -0.2383 -1.9359
  506MOL0     H69774   5.266   1.161   6.724 -0.6007  0.9355  0.5757
  506MOL0     H69775   5.209   0.950   6.864 -1.0195  2.7290 -0.1213
  506MOL0     H69776   5.113   0.889   6.723 -2.0716  1.6150  1.8414
  506MOL0     H69777   5.262   0.823   6.507  0.4562 -1.6564  0.8289
  506MOL0     H69778   5.663   0.739   6.511  0.6603  1.4916 -1.2733
  506MOL0     H69779   5.556   0.792   6.394  1.6807 -1.9829 -1.1858
  506MOL0     H69780   5.399   0.580   6.449  0.1479 -4.2991  0.5745
  506MOL0     H69781   5.560   0.543   6.381 -1.3165 -2.2878  1.1759
  506MOL0     H69782   5.479   0.533   6.666 -1.4767  0.9482 -0.7943
  506MOL0     H69783   5.514   0.391   6.573  1.5210 -0.0344 -0.0667
  506MOL0     H69784   5.717   0.589   6.672 -0.1133 -0.4149  2.2937
  506MOL0     H69785   5.695   0.415   6.699 -2.5960  0.7411  0.7701
  506MOL0     H69786   5.924   0.419   6.728  0.5072 -0.1969  0.4453
  506MOL0     H69787   6.174   0.287   6.779  2.4826 -1.0711 -4.0572
  506MOL0     H69788   6.151   0.450   6.840  0.3754 -1.3632  1.4869
  506MOL0     H69789   6.297   0.392   6.752  0.4174 -3.0783  2.5334
  506MOL0     H69790   6.433   0.502   6.119  2.3137  3.3912 -0.6805
  506MOL0     H69791   6.632   0.536   6.037  0.9048  0.4637 -0.3834
  506MOL0     H69792   6.854   0.403   5.969  2.2139 -0.7905  0.3527
  506MOL0     H69793   6.841   0.579   5.987 -0.5328  0.5930 -0.7042
  506MOL0     H69794   7.107   0.529   6.068 -0.1758  0.7107 -0.1301
  506MOL0     H69795   7.083   0.426   5.926  2.0355 -2.5099  4.5639
  506MOL0     H69796   7.032   0.733   5.967 -0.1933 -0.6852  0.2063
  506MOL0     H69797   6.994   0.631   5.818  1.8678 -1.4225 -0.6663
  506MOL0     H69798   7.214   0.626   5.761  1.1604  0.0249  0.5857
  506MOL0     H69799   7.280   0.631   5.927  0.6264 -1.1168 -0.1782
  506MOL0     H69800   7.160   0.885   5.823 -0.6781 -1.1702 -0.1389
  506MOL0     H69801   7.257   0.856   5.953 -0.9069 -1.0815  0.6891
  506MOL0     H69802   7.328   0.778   5.660 -4.1072  1.9261 -0.6791
  506MOL0     H69803   7.440   0.779   5.792  0.5793  3.4333  1.7529
  506MOL0     H69804   7.484   0.987   5.704 -0.8547  2.0336 -1.4524
  506MOL0     H69805   7.355   1.031   5.828  2.3029 -1.9521  1.3416
  506MOL0     H69806   7.195   1.026   5.630  0.5490 -1.1093  0.6763
  506MOL0     H69807   7.337   1.026   5.519  0.2305 -1.5587  1.2251
  506MOL0     H69808   6.812   0.349   6.378 -0.3120  1.7057  1.1989
  506MOL0     H69809   6.595   0.347   6.489 -1.5142  2.1348  0.3996
  506MOL0     H69810   6.142   0.492   6.288 -0.9899 -0.4073 -0.3994
  506MOL0     H69811   5.900   0.513   6.310  0.6992 -2.2951 -1.0026
  506MOL0     H69812   4.439   0.641   6.409 -0.1490  0.8203  2.0508
  506MOL0     H69813   4.216   0.551   6.319  1.6839 -0.7495 -0.5972
  506MOL0     H69814   3.878   0.562   6.068 -1.5802 -0.7637 -1.7909
  506MOL0     H69815   3.719   0.408   6.000 -3.7615  0.3638 -1.3103
  506MOL0     H69816   3.303   0.281   6.212 -0.5679  1.3889 -0.5465
  506MOL0     H69817   3.331   0.448   6.163  2.6733  0.9193 -2.5409
  506MOL0     H69818   3.305   0.384   5.926 -1.1844  0.8407  0.3038
  506MOL0     H69819   3.170   0.340   6.025  0.0160  3.5369  0.7924
  506MOL0     H69820   3.389   0.151   5.927  0.6426 -0.5019  1.9351
  506MOL0     H69821   3.251   0.099   6.024 -0.7022 -0.9378 -0.2814
  506MOL0     H69822   3.227   0.066   5.762  0.6465  0.4346  0.9048
  506MOL0     H69823   3.220   0.234   5.748  1.2474 -1.2286 -1.3421
  506MOL0     H69824   2.842   0.161   5.918 -1.0966 -0.5257 -3.2065
  506MOL0     H69825   3.484   0.483   6.357 -0.1281  4.0612  1.0042
  506MOL0     H69826   3.634   0.749   6.472  1.2622 -0.8491 -4.3422
  506MOL0     H69827   3.537   0.613   6.521  0.3531 -0.9791  0.8314
  506MOL0     H69828   3.698   0.583   6.550 -3.4864 -1.7070  1.8936
  507MOL0     O69829   7.234   8.318   2.982 -1.3905  0.3555  0.4292
  507MOL0     C69830   7.129   8.274   3.012  0.0606 -0.1779  0.7148
  507MOL0     O69831   7.095   8.219   3.135 -0.4704  0.0870  0.1255
  507MOL0     C69832   7.191   8.200   3.220 -0.3260  1.1378 -1.1000
  507MOL0     C69833   7.189   8.293   3.323 -0.4623 -1.3334  0.1009
  507MOL0     C69834   7.286   8.287   3.417 -0.3723  0.0979 -0.9807
  507MOL0     C69835   7.388   8.188   3.412  1.1417  0.1413  0.7039
  507MOL0     O69836   7.490   8.207   3.499 -0.1199  0.6917  0.0993
  507MOL0     C69837   7.505   8.103   3.588 -0.1476  0.0213  0.2617
  507MOL0     C69838   7.622   8.133   3.686 -0.2724 -0.0771 -0.3686
  507MOL0     C69839   7.764   8.092   3.647  0.0574  0.8300 -0.0332
  507MOL0     C69840   7.868   8.194   3.704  0.9013 -0.2426  0.0417
  507MOL0     C69841   8.010   8.166   3.656  1.7980  0.4595  0.7222
  507MOL0     C69842   8.102   8.279   3.660  0.8591  0.2121  0.2603
  507MOL0     C69843   8.238   8.239   3.629  0.3301  0.6708  0.5258
  507MOL0     C69844   8.341   8.336   3.696 -0.9195  0.0554  0.0277
  507MOL0     N69845   8.475   8.267   3.690  0.0920 -0.0470  0.0686
  507MOL0     C69846   8.530   8.183   3.588 -0.2360 -0.2623  0.1604
  507MOL0     C69847   8.656   8.163   3.624  0.5244 -0.2742  0.5445
  507MOL0     C69848   8.752   8.091   3.540 -0.6896  0.4900  0.2855
  507MOL0     C69849   8.816   8.172   3.425 -0.2599  0.5382  1.0083
  507MOL0     C69850   8.948   8.236   3.464  0.3675 -0.2428 -0.4235
  507MOL0     C69851   8.999   8.327   3.351 -0.6611 -1.3714  0.3626
  507MOL0     O69852   9.065   8.268   3.240  1.0904  0.1148 -0.0628
  507MOL0     C69853   9.195   8.228   3.240  0.3082 -0.8966  0.2880
  507MOL0     C69854   9.212   8.091   3.237 -0.4901 -0.6885  0.0531
  507MOL0     C69855   9.340   8.037   3.229 -0.1296  0.0324 -0.1671
  507MOL0     C69856   9.349   7.894   3.201  0.3169  0.3632  0.7936
  507MOL0     C69857   9.455   8.119   3.236  0.4061 -0.0190  0.0146
  507MOL0     C69858   9.597   8.064   3.232  0.4526  0.6238 -0.3245
  507MOL0     O69859   9.690   8.152   3.250 -0.1371 -0.6861  0.2936
  507MOL0     C69860   9.826   8.131   3.232  0.0162  0.0394  0.1169
  507MOL0     C69861   9.911   8.185   3.327  0.0682  1.0730 -0.2121
  507MOL0     C69862  10.051   8.181   3.327 -0.2719 -0.3040 -0.8884
  507MOL0     C69863  10.111   8.112   3.221  0.6585  0.8059 -0.5834
  507MOL0     O69864  10.245   8.108   3.220 -0.4457  0.2319 -0.4166
  507MOL0     C69865  10.298   7.990   3.157 -0.3178  0.5142  0.8642
  507MOL0     C69866  10.439   7.975   3.227  0.1587  0.4407 -0.2890
  507MOL0     C69867  10.555   7.922   3.153  0.3396  0.2734  0.1358
  507MOL0     C69868  10.690   7.927   3.231  0.5822  0.0949  0.3620
  507MOL0     C69869  10.792   7.818   3.191  0.1527  0.7632 -0.2466
  507MOL0     C69870  10.905   7.799   3.289  0.8142  0.4736 -0.3576
  507MOL0     C69871  10.991   7.928   3.308  0.3971 -0.1581  0.1637
  507MOL0     C69872  11.069   7.974   3.184 -0.7802  0.4559  0.3693
  507MOL0    Cl69873  11.171   7.832   3.129  1.0300 -0.1612  0.5666
  507MOL0     C69874  10.029   8.059   3.118  0.4230 -0.5768 -0.4027
  507MOL0     C69875   9.889   8.069   3.125  0.1432  0.0173 -0.1181
  507MOL0     O69876   9.618   7.946   3.208  0.1963 -0.0064  0.4757
  507MOL0     C69877   9.438   8.256   3.245  0.1725 -0.1789  0.5305
  507MOL0     C69878   9.310   8.313   3.240 -0.6975 -1.0989  0.3028
  507MOL0     N69879   8.699   8.222   3.741 -0.4033 -0.1596  0.3519
  507MOL0     N69880   8.584   8.278   3.781 -0.0260  0.3416 -0.2673
  507MOL0     C69881   7.389   8.095   3.302 -0.1959  0.9024  0.2238
  507MOL0     C69882   7.281   8.097   3.207  0.5280  0.0628 -0.8215
  507MOL0     C69883   7.034   8.283   2.906  0.3321 -0.0524 -0.8275
  507MOL0     C69884   7.061   8.292   2.769 -0.1810 -0.2837  0.4578
  507MOL0     C69885   6.960   8.304   2.667 -0.7627 -0.5109  0.0694
  507MOL0     C69886   6.824   8.294   2.701  0.3110  0.4842 -0.2624
  507MOL0     O69887   6.745   8.285   2.585  0.2044 -0.2600  0.5168
  507MOL0     C69888   6.636   8.205   2.581  0.0653  0.2584 -0.7066
  507MOL0     C69889   6.512   8.293   2.602  0.4604 -0.2237 -0.2770
  507MOL0     C69890   6.498   8.407   2.502 -0.4979 -0.3572 -0.9208
  507MOL0     C69891   6.483   8.365   2.356  0.5388 -0.2173  0.3169
  507MOL0     C69892   6.351   8.302   2.335 -0.3949  0.6030 -0.8616
  507MOL0     C69893   6.244   8.247   2.314 -0.4610 -0.9448  0.4870
  507MOL0     C69894   6.789   8.290   2.845 -0.1687 -0.5442  0.3778
  507MOL0     C69895   6.890   8.288   2.944  0.7725  0.0825  0.0490
  507MOL0     C69896   6.848   8.304   3.095 -0.4243 -0.1272  0.3258
  507MOL0     H69897   7.119   8.376   3.329  1.6547  0.4928  0.6061
  507MOL0     H69898   7.281   8.366   3.491 -1.3274  0.3831 -1.3260
  507MOL0     H69899   7.531   8.006   3.545  0.1679 -0.3852  1.3548
  507MOL0     H69900   7.415   8.104   3.650 -0.5440  2.0841 -0.2548
  507MOL0     H69901   7.621   8.241   3.704 -2.1185 -0.0105 -0.6848
  507MOL0     H69902   7.583   8.087   3.777 -2.2677  1.3603 -0.4246
  507MOL0     H69903   7.788   7.992   3.684 -1.7838 -0.4547 -2.1002
  507MOL0     H69904   7.769   8.090   3.538  0.9473 -1.4372  0.0047
  507MOL0     H69905   7.841   8.294   3.668 -0.5959 -0.5470  0.2646
  507MOL0     H69906   7.864   8.185   3.813  0.3020  1.2943  0.1713
  507MOL0     H69907   8.006   8.151   3.548  0.7028 -0.0047  0.8175
  507MOL0     H69908   8.039   8.074   3.708  1.4717  1.3427  2.5811
  507MOL0     H69909   8.062   8.363   3.603 -0.2756  1.2171  2.3976
  507MOL0     H69910   8.101   8.324   3.760  0.4078 -0.5189  0.5901
  507MOL0     H69911   8.262   8.218   3.525 -0.6467 -0.2503  0.4702
  507MOL0     H69912   8.259   8.137   3.664 -0.6266 -0.4455 -1.9750
  507MOL0     H69913   8.351   8.430   3.641  0.0399  0.4436  0.8412
  507MOL0     H69914   8.312   8.360   3.799  2.4432 -1.5280  1.4834
  507MOL0     H69915   8.477   8.141   3.503 -0.8340 -2.0583  1.3674
  507MOL0     H69916   8.701   8.009   3.490  0.5052  0.3837 -0.8175
  507MOL0     H69917   8.824   8.039   3.604 -4.0715 -0.2768  3.8791
  507MOL0     H69918   8.847   8.095   3.354 -2.7351  0.3818 -0.0101
  507MOL0     H69919   8.744   8.241   3.379  1.6674  0.3035 -2.7440
  507MOL0     H69920   8.941   8.283   3.562  0.7821  1.2168 -1.0607
  507MOL0     H69921   9.019   8.155   3.485 -1.8419 -1.8996  1.0615
  507MOL0     H69922   8.922   8.395   3.314  0.2603  1.0673  2.6058
  507MOL0     H69923   9.066   8.402   3.396 -3.7454  1.2380  0.9326
  507MOL0     H69924   9.124   8.027   3.246 -0.5934 -0.2524  2.9023
  507MOL0     H69925   9.405   7.835   3.275  0.6919 -0.7038 -0.3004
  507MOL0     H69926   9.393   7.867   3.105 -0.3891 -0.5851  0.7200
  507MOL0     H69927   9.248   7.857   3.179  0.5350  0.2104  0.0587
  507MOL0     H69928   9.859   8.219   3.416 -1.8331 -1.2931 -0.3110
  507MOL0     H69929  10.113   8.212   3.409  0.6168 -3.5584 -0.1600
  507MOL0     H69930  10.237   7.899   3.165  1.1178 -0.5026  0.5283
  507MOL0     H69931  10.324   8.001   3.051  0.6938 -2.6326  0.6921
  507MOL0     H69932  10.463   8.074   3.266  0.1452 -0.8810  3.5228
  507MOL0     H69933  10.433   7.919   3.321  1.3156 -0.6398 -0.8268
  507MOL0     H69934  10.562   7.983   3.063  0.7775 -0.1000 -0.0930
  507MOL0     H69935  10.530   7.820   3.122 -2.0098  1.4079 -2.1022
  507MOL0     H69936  10.680   7.924   3.340  2.2520  1.4549  0.6035
  507MOL0     H69937  10.729   8.026   3.205 -0.9474 -0.0539 -2.9087
  507MOL0     H69938  10.742   7.721   3.184  3.0466 -0.9933  1.4258
  507MOL0     H69939  10.833   7.857   3.098 -2.0815  1.7862 -0.8803
  507MOL0     H69940  10.963   7.710   3.262 -1.0543 -0.9900  0.1687
  507MOL0     H69941  10.845   7.773   3.377 -1.7763  1.0450 -1.8616
  507MOL0     H69942  11.070   7.901   3.379  2.9567 -2.9604 -3.3267
  507MOL0     H69943  10.926   8.008   3.344  0.5381  0.8983 -1.7669
  507MOL0     H69944  11.135   8.060   3.204 -2.2367  1.7680 -0.2651
  507MOL0     H69945  11.008   8.012   3.102  0.2791 -2.5053 -1.9374
  507MOL0     H69946  10.059   8.005   3.029 -2.0503 -0.3308 -1.4735
  507MOL0     H69947   9.825   8.029   3.047 -0.3811  3.2048 -1.4973
  507MOL0     H69948   9.527   8.318   3.234  0.8802 -1.5317 -2.5568
  507MOL0     H69949   9.308   8.421   3.235  2.2264 -1.0197 -3.4116
  507MOL0     H69950   7.474   8.028   3.294 -1.1116 -1.1101  4.3689
  507MOL0     H69951   7.272   8.029   3.123 -2.2959 -0.3687 -0.2542
  507MOL0     H69952   7.166   8.311   2.746 -0.7543  2.5707 -0.0993
  507MOL0     H69953   6.987   8.331   2.566  2.0606 -1.3350  0.4992
  507MOL0     H69954   6.631   8.150   2.487  0.2792  0.0748 -0.6106
  507MOL0     H69955   6.643   8.143   2.671  0.3929  1.9234  0.4630
  507MOL0     H69956   6.511   8.329   2.706  0.7517  1.6961 -0.9009
  507MOL0     H69957   6.423   8.231   2.586  1.4551 -1.6432 -0.4601
  507MOL0     H69958   6.421   8.478   2.533  1.3478  1.1124  0.5708
  507MOL0     H69959   6.592   8.462   2.504 -1.3535  1.1894 -1.8610
  507MOL0     H69960   6.574   8.314   2.326  1.7785  0.7764  2.1836
  507MOL0     H69961   6.466   8.452   2.292  1.0677 -0.0929  0.3457
  507MOL0     H69962   6.145   8.215   2.288 -1.2527  1.5324  0.2489
  507MOL0     H69963   6.690   8.285   2.889  0.2414 -1.7843  1.2297
  507MOL0     H69964   6.853   8.206   3.143 -0.0371  0.3854  1.3723
  507MOL0     H69965   6.909   8.383   3.140 -0.3553  0.4250 -0.7284
  507MOL0     H69966   6.746   8.339   3.117 -0.9785 -2.3199  1.5800
  508MOL0     O69967  10.643   8.685   1.756  0.5496 -0.7334 -0.1265
  508MOL0     C69968  10.630   8.800   1.803 -0.7848 -0.0086 -0.6598
  508MOL0     O69969  10.734   8.883   1.822  0.0859 -0.0942  0.2717
  508MOL0     C69970  10.865   8.838   1.808  0.2900 -0.9476  0.5256
  508MOL0     C69971  10.917   8.739   1.886 -0.2024  1.2241  0.0366
  508MOL0     C69972  11.056   8.706   1.868 -0.1069 -0.0521 -0.1991
  508MOL0     C69973  11.131   8.762   1.759  0.6700 -0.1942  0.2548
  508MOL0     O69974  11.261   8.724   1.745  0.4361 -0.5184  1.1164
  508MOL0     C69975  11.343   8.795   1.647 -0.0633  0.7121 -0.5988
  508MOL0     C69976  11.491   8.768   1.665 -0.0836  0.3946 -0.5158
  508MOL0     C69977  11.546   8.634   1.609  0.9494 -0.6320 -0.6539
  508MOL0     C69978  11.704   8.632   1.611  0.7439 -0.6279  0.5508
  508MOL0     C69979  11.758   8.614   1.745 -0.0912 -0.3493 -0.2660
  508MOL0     C69980  11.728   8.484   1.813  0.0655  0.1457 -0.2461
  508MOL0     C69981  11.831   8.451   1.924  0.9145 -0.6693  0.2617
  508MOL0     C69982  11.807   8.545   2.042  0.5690 -1.3111 -0.3716
  508MOL0     N69983  11.896   8.531   2.159 -0.3032 -0.0204 -0.6265
  508MOL0     C69984  11.888   8.439   2.263  0.0906  0.0682  0.4222
  508MOL0     C69985  11.990   8.479   2.349  1.5254  0.7554  0.8511
  508MOL0     C69986  12.003   8.396   2.481  0.1575  0.0523 -0.1383
  508MOL0     C69987  12.094   8.460   2.590  0.1402  0.0870 -0.1977
  508MOL0     C69988  12.113   8.361   2.706 -0.4656 -0.5808 -0.1345
  508MOL0     C69989  12.234   8.390   2.784 -0.6519 -0.4066  0.2376
  508MOL0     O69990  12.272   8.528   2.772 -0.6979  0.5022  0.9157
  508MOL0     C69991  12.400   8.566   2.758  0.2329 -0.0882  0.7647
  508MOL0     C69992  12.484   8.564   2.869 -0.6758 -0.0639  0.3460
  508MOL0     C69993  12.616   8.598   2.843 -0.6897 -0.9535  0.6817
  508MOL0     C69994  12.710   8.604   2.964 -0.1117 -0.0704 -0.3196
  508MOL0     C69995  12.664   8.625   2.708  0.6400  0.0173 -0.4082
  508MOL0     C69996  12.810   8.656   2.666  0.2639  0.3027 -0.3266
  508MOL0     O69997  12.831   8.682   2.529 -0.3751  0.0756  0.6889
  508MOL0     C69998  12.961   8.695   2.498 -0.1185  0.4086  0.0365
  508MOL0     C69999  13.035   8.577   2.469  0.6023 -1.0068 -0.3859
  508MOL0     C70000  13.177   8.580   2.442  0.7120  0.3088 -0.4072
  508MOL0     C70001  13.238   8.702   2.416  0.3737 -0.5630  0.7152
  508MOL0     O70002  13.370   8.720   2.386  0.0801 -0.2193  0.3561
  508MOL0     C70003  13.446   8.607   2.350 -0.7918  0.3092 -0.2566
  508MOL0     C70004  13.581   8.660   2.294  0.6219 -0.2281 -0.7506
  508MOL0     C70005  13.638   8.542   2.219  0.6590  0.3452 -0.6443
  508MOL0     C70006  13.762   8.587   2.153  0.2743 -1.4922 -0.5638
  508MOL0     C70007  13.844   8.466   2.109  0.2252 -0.3036 -0.0511
  508MOL0     C70008  13.959   8.504   2.030 -0.2350  0.3160 -0.1339
  508MOL0     C70009  14.084   8.414   2.051 -0.6640  0.4057 -0.4942
  508MOL0     C70010  14.190   8.428   1.937 -0.8782 -0.4051 -0.5353
  508MOL0    Cl70011  14.281   8.590   1.949 -0.1918  0.4824 -0.3672
  508MOL0     C70012  13.166   8.816   2.449  0.4339 -0.1415 -0.0542
  508MOL0     C70013  13.029   8.810   2.482  0.0088  0.1670  0.3926
  508MOL0     O70014  12.897   8.647   2.758 -0.1486 -0.2514 -0.1178
  508MOL0     C70015  12.572   8.626   2.600  0.2977 -0.6487 -0.0154
  508MOL0     C70016  12.442   8.599   2.623  0.6277  0.3418 -0.0505
  508MOL0     N70017  12.056   8.590   2.301  0.1279  0.6582 -0.5617
  508MOL0     N70018  11.998   8.613   2.187 -0.0754 -0.3595  0.2281
  508MOL0     C70019  11.064   8.861   1.680 -0.5111 -0.3372  0.4423
  508MOL0     C70020  10.936   8.899   1.703  0.1379 -0.0772 -0.1577
  508MOL0     C70021  10.495   8.852   1.848  1.0821 -0.2527  0.1012
  508MOL0     C70022  10.473   8.994   1.864  0.3207 -0.1035 -0.0246
  508MOL0     C70023  10.355   9.045   1.907  0.3285 -0.5102  0.0981
  508MOL0     C70024  10.247   8.968   1.926  0.3523  0.0917  0.2906
  508MOL0     O70025  10.131   9.034   1.972 -0.1117 -0.3733 -0.4002
  508MOL0     C70026  10.031   8.967   2.047 -0.4599 -0.0522  0.4104
  508MOL0     C70027   9.942   9.071   2.115  0.2500 -0.0853  0.2114
  508MOL0     C70028   9.818   8.995   2.176  0.2175  0.0723 -0.9897
  508MOL0     C70029   9.840   8.958   2.324  0.5400 -0.5691  0.7283
  508MOL0     C70030   9.706   8.912   2.354  0.0391 -0.0263 -0.1213
  508MOL0     C70031   9.599   8.867   2.376 -0.0585  0.1670  0.1105
  508MOL0     C70032  10.255   8.832   1.900  0.5271  0.7557 -0.0716
  508MOL0     C70033  10.376   8.772   1.860  0.3992  0.7621 -0.2751
  508MOL0     C70034  10.361   8.633   1.817 -0.0460  0.2883 -0.4553
  508MOL0     H70035  10.876   8.708   1.982  0.1501  1.5294  0.2860
  508MOL0     H70036  11.084   8.639   1.948 -3.0933 -1.8204 -0.4639
  508MOL0     H70037  11.334   8.902   1.670 -1.4934  0.7779 -1.4227
  508MOL0     H70038  11.329   8.767   1.543 -1.4894 -0.1020 -0.2107
  508MOL0     H70039  11.544   8.849   1.615 -2.0554  1.8496 -0.3816
  508MOL0     H70040  11.517   8.768   1.771  1.9567 -0.5594 -0.9756
  508MOL0     H70041  11.497   8.555   1.667 -3.7326  1.5178 -1.2443
  508MOL0     H70042  11.517   8.615   1.505  0.4264 -2.1020 -0.2610
  508MOL0     H70043  11.740   8.541   1.562 -0.2921 -0.8833  0.2269
  508MOL0     H70044  11.741   8.718   1.555  2.0265 -2.4665 -1.5773
  508MOL0     H70045  11.731   8.702   1.804 -0.3649  0.2362 -1.2310
  508MOL0     H70046  11.864   8.621   1.717 -0.3255 -3.0549 -2.3396
  508MOL0     H70047  11.623   8.479   1.844 -0.0609 -1.1183 -0.7995
  508MOL0     H70048  11.742   8.399   1.746 -0.3207  0.1377 -0.3221
  508MOL0     H70049  11.931   8.473   1.885  0.2734  0.3168 -0.9275
  508MOL0     H70050  11.829   8.347   1.955  0.2276 -1.0474 -0.9749
  508MOL0     H70051  11.820   8.644   1.997  3.1726 -1.0734  0.7375
  508MOL0     H70052  11.706   8.534   2.083  0.4944 -0.2294 -0.2348
  508MOL0     H70053  11.827   8.351   2.277  0.5351  0.0888  2.9653
  508MOL0     H70054  12.054   8.305   2.451 -0.8009 -0.3772 -0.5170
  508MOL0     H70055  11.907   8.364   2.524  2.6450 -1.8852  4.6597
  508MOL0     H70056  12.192   8.460   2.540  0.7824 -0.2747  1.0273
  508MOL0     H70057  12.056   8.557   2.624 -0.0999 -0.1376  0.1839
  508MOL0     H70058  12.029   8.377   2.774 -0.4501 -1.2349  0.0466
  508MOL0     H70059  12.111   8.254   2.682  1.0029 -0.6388 -0.0346
  508MOL0     H70060  12.216   8.367   2.890 -3.7680 -0.8057 -0.2693
  508MOL0     H70061  12.305   8.325   2.733 -0.5035  0.3508 -0.5348
  508MOL0     H70062  12.449   8.535   2.968 -0.0194 -1.8614  0.0964
  508MOL0     H70063  12.795   8.536   2.967  0.0074 -0.0000 -1.5085
  508MOL0     H70064  12.663   8.585   3.062  3.2541  0.9871  1.6526
  508MOL0     H70065  12.760   8.700   2.980  0.6393 -0.8009  2.2322
  508MOL0     H70066  12.988   8.479   2.463  1.2156 -1.3307  0.0480
  508MOL0     H70067  13.228   8.486   2.425  3.1856  1.1137  1.8213
  508MOL0     H70068  13.467   8.534   2.428 -0.6071  2.3460  1.6976
  508MOL0     H70069  13.391   8.565   2.265  0.7016  1.0766 -1.6542
  508MOL0     H70070  13.560   8.751   2.237 -1.9075  0.5048  1.1506
  508MOL0     H70071  13.649   8.687   2.376  0.8591  1.4736 -1.4643
  508MOL0     H70072  13.578   8.507   2.134  0.7278  4.1676 -2.4915
  508MOL0     H70073  13.656   8.452   2.279 -0.1092  0.1595 -0.6763
  508MOL0     H70074  13.828   8.648   2.216 -0.2821 -1.1305 -0.3264
  508MOL0     H70075  13.732   8.642   2.064  0.5562 -1.9776 -0.9630
  508MOL0     H70076  13.868   8.424   2.208 -1.6279 -0.5833  0.3059
  508MOL0     H70077  13.777   8.398   2.057  0.9801  0.2942 -1.8621
  508MOL0     H70078  13.996   8.605   2.049  3.1986 -0.4661 -1.9860
  508MOL0     H70079  13.925   8.492   1.926  1.5073 -2.4041 -0.5039
  508MOL0     H70080  14.043   8.313   2.059 -0.5915  0.5446  2.8910
  508MOL0     H70081  14.138   8.431   2.144  0.7481 -0.4241 -1.1357
  508MOL0     H70082  14.142   8.416   1.840 -1.8529 -3.7482  0.2443
  508MOL0     H70083  14.265   8.348   1.944  1.1510  1.0977 -3.0292
  508MOL0     H70084  13.212   8.914   2.458  0.3827 -0.2835  2.5750
  508MOL0     H70085  12.963   8.895   2.488 -0.3658 -0.2352  4.3033
  508MOL0     H70086  12.593   8.671   2.504 -1.0922  0.9118  0.3658
  508MOL0     H70087  12.359   8.600   2.553  0.3882 -1.8502  0.1352
  508MOL0     H70088  11.120   8.902   1.597 -0.6682 -2.5232 -0.8368
  508MOL0     H70089  10.888   8.976   1.644 -0.7048 -1.0261 -0.7280
  508MOL0     H70090  10.554   9.054   1.824  0.5614 -1.7686 -2.2362
  508MOL0     H70091  10.353   9.152   1.927 -0.5578 -0.5889  0.5028
  508MOL0     H70092   9.972   8.901   1.982  0.5268  1.2832 -1.9157
  508MOL0     H70093  10.074   8.900   2.122  0.7972  1.4597  1.0886
  508MOL0     H70094   9.915   9.148   2.042 -1.6814 -1.2705 -0.3757
  508MOL0     H70095  10.016   9.124   2.177 -0.5895  2.5963 -0.9027
  508MOL0     H70096   9.728   9.054   2.156  0.4251  0.0839 -1.8928
  508MOL0     H70097   9.796   8.903   2.122 -3.3699  1.4819 -2.2375
  508MOL0     H70098   9.867   9.041   2.390 -0.1926  0.8594 -0.6952
  508MOL0     H70099   9.917   8.881   2.327  2.5435  1.2988 -0.3600
  508MOL0     H70100   9.500   8.829   2.392 -0.1168  0.4495  0.4206
  508MOL0     H70101  10.171   8.763   1.906 -0.2600  1.7209  0.3220
  508MOL0     H70102  10.381   8.615   1.711  1.2819  0.6920 -0.2893
  508MOL0     H70103  10.443   8.579   1.865 -0.9124 -0.5212  0.1613
  508MOL0     H70104  10.264   8.590   1.845 -0.8905  3.3156  1.8399
  509MOL0     O70105   6.769   8.713   9.573  0.4941 -0.3131 -0.6497
  509MOL0     C70106   6.732   8.732   9.690 -0.6522 -1.2112  0.4050
  509MOL0     O70107   6.819   8.717   9.798 -0.9006  0.9949  0.0650
  509MOL0     C70108   6.956   8.714   9.774  0.5417  0.7522 -0.4830
  509MOL0     C70109   7.011   8.590   9.729  0.2736  1.0113 -0.4692
  509MOL0     C70110   7.151   8.590   9.720 -0.7292 -0.6459  0.6305
  509MOL0     C70111   7.231   8.712   9.746 -1.2854  0.3688  0.4377
  509MOL0     O70112   7.368   8.727   9.716 -0.6679  0.3134  0.9313
  509MOL0     C70113   7.426   8.682   9.589  0.1219  0.7040 -1.0042
  509MOL0     C70114   7.555   8.755   9.557 -0.6819 -0.2860  0.0233
  509MOL0     C70115   7.553   8.907   9.563  0.5912 -1.1423 -0.9120
  509MOL0     C70116   7.691   8.969   9.539 -0.2691 -0.3504  0.5010
  509MOL0     C70117   7.673   9.119   9.523 -0.0241 -0.1508  0.8889
  509MOL0     C70118   7.763   9.159   9.403  0.1139  0.5107  0.3389
  509MOL0     C70119   7.919   9.156   9.434  0.4259 -1.1765  0.9090
  509MOL0     C70120   7.995   9.191   9.309 -0.8222  0.1912  0.4135
  509MOL0     N70121   7.946   9.319   9.254  0.0564  0.1016  0.7272
  509MOL0     C70122   7.951   9.433   9.324  0.7496 -0.4584  0.0492
  509MOL0     C70123   7.865   9.518   9.259 -0.3359 -0.0183 -0.2415
  509MOL0     C70124   7.852   9.665   9.288  0.8236 -0.5431  0.8106
  509MOL0     C70125   7.949   9.747   9.199 -0.7996  0.8390 -0.0147
  509MOL0     C70126   7.891   9.782   9.060 -0.5937 -0.3938  0.3056
  509MOL0     C70127   7.999   9.868   8.989  0.0097 -0.0757 -0.4369
  509MOL0     O70128   8.009   9.808   8.857 -0.3039  0.0188 -0.4994
  509MOL0     C70129   8.103   9.838   8.763 -1.6951  0.3291 -0.9141
  509MOL0     C70130   8.091   9.771   8.646 -0.3020 -1.3521 -0.9317
  509MOL0     C70131   8.181   9.790   8.541  0.3739 -0.5778  0.3765
  509MOL0     C70132   8.130   9.725   8.410 -0.5287  0.1132  0.2183
  509MOL0     C70133   8.307   9.851   8.571  0.4749  0.6788 -0.2716
  509MOL0     C70134   8.411   9.853   8.470  0.1103 -0.1553 -0.2320
  509MOL0     O70135   8.503   9.950   8.496  0.0380  0.4200 -0.2521
  509MOL0     C70136   8.630   9.936   8.450  0.2040 -0.3681 -0.3458
  509MOL0     C70137   8.703   9.821   8.431  0.0948 -0.4706  0.9955
  509MOL0     C70138   8.834   9.831   8.381  0.5701  0.1319 -0.1113
  509MOL0     C70139   8.894   9.957   8.343  0.1265 -0.1382  0.0989
  509MOL0     O70140   9.017   9.961   8.285 -0.3495 -0.0281 -0.0059
  509MOL0     C70141   9.122  10.041   8.335  1.0806  0.0372  0.9132
  509MOL0     C70142   9.225   9.949   8.392  0.6728  1.4031 -0.0338
  509MOL0     C70143   9.356  10.025   8.383 -0.3091  0.0287  0.5030
  509MOL0     C70144   9.472   9.958   8.457  0.6792  0.4665  0.3205
  509MOL0     C70145   9.601  10.037   8.463 -0.0186 -0.4400  0.6067
  509MOL0     C70146   9.660  10.080   8.330  0.4046 -0.3355  0.4241
  509MOL0     C70147   9.700   9.969   8.231 -0.3259 -0.6061  0.4030
  509MOL0     C70148   9.789  10.025   8.114 -1.0436  0.4088  0.2909
  509MOL0    Cl70149   9.841   9.896   8.019  0.3535  0.1278  0.2935
  509MOL0     C70150   8.817  10.073   8.348  0.4033  0.4746 -0.3131
  509MOL0     C70151   8.688  10.062   8.408  0.0401 -0.1714 -0.2997
  509MOL0     O70152   8.423   9.763   8.388  0.4140  0.1599  0.4100
  509MOL0     C70153   8.321   9.915   8.696  0.7435 -0.1036 -0.3480
  509MOL0     C70154   8.215   9.915   8.792  0.2135  0.0960 -0.9056
  509MOL0     N70155   7.813   9.461   9.149  0.8239 -0.6965 -0.6059
  509MOL0     N70156   7.861   9.340   9.150 -0.0409 -0.0931  0.3679
  509MOL0     C70157   7.168   8.824   9.791 -0.5040 -0.9404  0.6670
  509MOL0     C70158   7.031   8.823   9.809 -0.8232 -0.7824  0.3671
  509MOL0     C70159   6.590   8.747   9.726  0.0665 -0.4062  0.8515
  509MOL0     C70160   6.561   8.835   9.835  0.1399  0.0446  0.0930
  509MOL0     C70161   6.431   8.866   9.881  1.1337  0.1560  0.2629
  509MOL0     C70162   6.329   8.824   9.798  0.6704  0.4146  0.4089
  509MOL0     O70163   6.199   8.869   9.832  0.0439 -0.6070 -0.1470
  509MOL0     C70164   6.165   9.003   9.778  0.5679  0.8204 -0.5841
  509MOL0     C70165   6.090   9.095   9.879 -0.7871 -0.4619  0.0197
  509MOL0     C70166   6.193   9.137   9.989  0.1595  0.4352 -0.0170
  509MOL0     C70167   6.164   9.280  10.034  0.2979 -0.2021  0.4340
  509MOL0     C70168   6.261   9.318  10.138  0.5334  0.1207  0.5950
  509MOL0     C70169   6.345   9.361  10.215  0.6459 -0.4172  0.0959
  509MOL0     C70170   6.355   8.743   9.682 -0.2867  0.4029 -0.2400
  509MOL0     C70171   6.477   8.703   9.645 -0.3647 -0.0626  0.2915
  509MOL0     C70172   6.492   8.605   9.526  0.1153 -0.2645 -0.8946
  509MOL0     H70173   6.950   8.504   9.707  0.4272  1.3237 -2.2519
  509MOL0     H70174   7.202   8.501   9.687 -0.1503  0.0944 -0.5242
  509MOL0     H70175   7.364   8.696   9.500 -0.4060 -1.8861 -1.1231
  509MOL0     H70176   7.458   8.577   9.598  3.0110  1.4663 -1.5046
  509MOL0     H70177   7.625   8.725   9.635  0.0041 -0.6686 -0.7197
  509MOL0     H70178   7.585   8.724   9.456  1.3024  1.7753 -0.1095
  509MOL0     H70179   7.483   8.956   9.494 -3.5733  1.6621  4.4875
  509MOL0     H70180   7.519   8.927   9.666  0.6040 -0.9177 -0.9516
  509MOL0     H70181   7.763   8.953   9.619  1.3970 -0.8450 -1.0238
  509MOL0     H70182   7.717   8.930   9.440 -0.1674  2.2024 -0.5514
  509MOL0     H70183   7.703   9.172   9.615  0.2670  0.5798  0.3846
  509MOL0     H70184   7.569   9.145   9.503 -0.0333 -0.8911 -0.0670
  509MOL0     H70185   7.737   9.111   9.309 -1.4607  1.1533  0.4269
  509MOL0     H70186   7.741   9.266   9.394  0.9583  0.6080 -0.7451
  509MOL0     H70187   7.947   9.055   9.465 -3.5311 -3.0408 -0.8110
  509MOL0     H70188   7.952   9.216   9.519 -1.8316 -0.2349  1.1875
  509MOL0     H70189   8.103   9.192   9.326 -0.0907 -0.9750 -3.1876
  509MOL0     H70190   7.983   9.114   9.232  1.0542 -0.6211  0.8865
  509MOL0     H70191   8.000   9.455   9.418 -2.5918  2.3359  1.3529
  509MOL0     H70192   7.870   9.694   9.392 -2.0069  1.3227  0.8753
  509MOL0     H70193   7.754   9.697   9.253  0.4831 -3.1851 -0.9901
  509MOL0     H70194   7.970   9.843   9.248  1.0864 -0.1058  1.1484
  509MOL0     H70195   8.044   9.695   9.182 -1.2185  0.9723 -3.4732
  509MOL0     H70196   7.857   9.696   9.002  1.1447 -1.8007  1.2639
  509MOL0     H70197   7.803   9.846   9.068  0.5291  1.1693  0.6603
  509MOL0     H70198   7.966   9.972   8.989 -2.0093 -0.5703  2.6124
  509MOL0     H70199   8.096   9.869   9.039 -1.0796  1.2273  1.7805
  509MOL0     H70200   8.000   9.713   8.632 -2.9765  1.3981  2.8001
  509MOL0     H70201   8.142   9.617   8.402  0.3100  0.0923  1.5076
  509MOL0     H70202   8.181   9.768   8.324 -1.1961  1.4803  0.4817
  509MOL0     H70203   8.020   9.728   8.408 -0.7390 -3.4678 -0.8373
  509MOL0     H70204   8.663   9.723   8.455 -1.3515 -0.4300 -0.9502
  509MOL0     H70205   8.902   9.746   8.385  1.6211  0.8611 -1.5932
  509MOL0     H70206   9.164  10.096   8.251 -0.8611  1.8073  1.0158
  509MOL0     H70207   9.093  10.123   8.401  0.7180  0.4040  0.3049
  509MOL0     H70208   9.225   9.912   8.495  2.6671 -3.7647 -1.5491
  509MOL0     H70209   9.235   9.853   8.341 -1.3076 -0.0507  2.1032
  509MOL0     H70210   9.343  10.120   8.437 -0.9661  0.2663 -0.0603
  509MOL0     H70211   9.381  10.045   8.278  0.3142  0.4980  0.7310
  509MOL0     H70212   9.495   9.867   8.401  0.9474  1.5867 -1.4794
  509MOL0     H70213   9.442   9.954   8.562 -0.0583  3.7294  0.3499
  509MOL0     H70214   9.589  10.132   8.515  0.3905  0.3116 -0.6165
  509MOL0     H70215   9.681   9.983   8.514  0.7305 -1.0361 -1.0990
  509MOL0     H70216   9.752  10.139   8.336 -0.2498  0.7361  0.1657
  509MOL0     H70217   9.591  10.145   8.275  3.2780  3.2438  0.6627
  509MOL0     H70218   9.610   9.917   8.194  0.0009 -0.7968 -0.1327
  509MOL0     H70219   9.744   9.884   8.282  1.6056 -0.7569 -1.3847
  509MOL0     H70220   9.865  10.087   8.163 -0.6989 -0.8924  1.4751
  509MOL0     H70221   9.735  10.088   8.044 -0.5806  0.5133  0.0265
  509MOL0     H70222   8.863  10.168   8.321  1.2449  0.6259  1.4990
  509MOL0     H70223   8.643  10.161   8.419  2.4970  1.3216 -2.5461
  509MOL0     H70224   8.418   9.954   8.724  0.2940 -0.0615  1.2568
  509MOL0     H70225   8.219   9.970   8.886  0.7276 -0.8029 -0.3917
  509MOL0     H70226   7.221   8.915   9.820 -1.3116 -0.4749  0.7084
  509MOL0     H70227   6.982   8.907   9.858  1.9479  0.3563  1.3962
  509MOL0     H70228   6.638   8.872   9.901 -1.3148  1.8048  0.9002
  509MOL0     H70229   6.416   8.934   9.964  6.1094  1.2573  0.5590
  509MOL0     H70230   6.257   9.039   9.731  1.0843 -0.5274 -0.6540
  509MOL0     H70231   6.096   8.992   9.693  0.3434 -2.7063 -0.1312
  509MOL0     H70232   6.001   9.039   9.910 -2.3980  0.9439 -1.8451
  509MOL0     H70233   6.063   9.188   9.829  1.0678  0.1839  0.1215
  509MOL0     H70234   6.187   9.060  10.067  2.0597  0.6624  0.4013
  509MOL0     H70235   6.295   9.135   9.950  0.1652 -3.8912 -0.2860
  509MOL0     H70236   6.067   9.289  10.084  0.6865  0.5308  1.0740
  509MOL0     H70237   6.184   9.338   9.943  1.5021 -3.1720 -1.3549
  509MOL0     H70238   6.424   9.416  10.263  0.1148 -0.3903  0.9523
  509MOL0     H70239   6.278   8.706   9.615 -0.8072  2.0623 -0.6123
  509MOL0     H70240   6.589   8.555   9.515 -0.5699 -1.3968 -1.9397
  509MOL0     H70241   6.425   8.522   9.547 -0.6413  0.7825  1.0266
  509MOL0     H70242   6.477   8.653   9.429  1.9887 -0.9007 -1.5609
  510MOL0     O70243   4.059   6.726   1.406 -0.6276 -0.0343 -0.9581
  510MOL0     C70244   4.013   6.691   1.300  0.6403 -1.2208  0.1407
  510MOL0     O70245   4.087   6.656   1.187 -0.4453 -0.0762  0.6455
  510MOL0     C70246   4.222   6.693   1.185 -0.1566 -0.2681 -0.1883
  510MOL0     C70247   4.255   6.812   1.111  0.0169 -0.1137  0.5054
  510MOL0     C70248   4.378   6.861   1.090 -1.5184 -0.0189  0.5515
  510MOL0     C70249   4.489   6.788   1.142  0.5817  0.7867 -0.4988
  510MOL0     O70250   4.616   6.841   1.124  0.3461 -0.2943 -0.8677
  510MOL0     C70251   4.710   6.796   1.218 -0.4350  0.4750 -0.6111
  510MOL0     C70252   4.832   6.876   1.218 -0.4083 -0.7706  0.6579
  510MOL0     C70253   4.929   6.810   1.311 -0.4818  0.7506 -0.6667
  510MOL0     C70254   5.050   6.904   1.340  0.4121  0.0611 -0.2068
  510MOL0     C70255   5.170   6.838   1.403 -0.1547  0.0222 -0.5044
  510MOL0     C70256   5.126   6.811   1.554  0.5904 -0.5987  0.5073
  510MOL0     C70257   5.257   6.784   1.632  0.4060  0.0915 -0.0397
  510MOL0     C70258   5.285   6.881   1.744  0.1235  0.3531 -0.1722
  510MOL0     N70259   5.416   6.883   1.812 -0.5007  0.1712  0.1490
  510MOL0     C70260   5.540   6.897   1.757  0.1886  0.2363 -0.0596
  510MOL0     C70261   5.615   6.878   1.867 -0.8170 -0.3050 -0.1196
  510MOL0     C70262   5.758   6.900   1.874 -0.1503  0.4928  0.6081
  510MOL0     C70263   5.794   7.025   1.800 -0.2750  0.1927 -0.8039
  510MOL0     C70264   5.950   7.043   1.799  0.0188 -0.1676 -0.6863
  510MOL0     C70265   5.999   7.130   1.673 -0.1412 -0.1393 -1.1523
  510MOL0     O70266   6.019   7.269   1.690  0.5549  0.0445 -0.1176
  510MOL0     C70267   6.115   7.329   1.769 -0.7900 -0.0210  0.5050
  510MOL0     C70268   6.209   7.261   1.847  0.4945  0.2450  0.7058
  510MOL0     C70269   6.293   7.325   1.933 -0.1244 -0.2625 -0.3071
  510MOL0     C70270   6.395   7.243   2.010  0.3789  0.1536 -0.5893
  510MOL0     C70271   6.311   7.465   1.933  0.6739 -0.3078 -0.5443
  510MOL0     C70272   6.409   7.543   2.013 -0.6464  0.0057 -0.3520
  510MOL0     O70273   6.437   7.664   1.961  0.2773  0.8436  0.2504
  510MOL0     C70274   6.500   7.754   2.029 -0.3103  0.2372 -0.3948
  510MOL0     C70275   6.625   7.797   1.986 -0.1030  0.4860 -0.2731
  510MOL0     C70276   6.690   7.899   2.055 -0.0773  0.0108  0.2605
  510MOL0     C70277   6.633   7.954   2.173  0.1915 -0.0630  0.7873
  510MOL0     O70278   6.672   8.059   2.249  0.5451  0.1105 -0.4848
  510MOL0     C70279   6.808   8.094   2.265 -0.3422 -0.4516 -0.3715
  510MOL0     C70280   6.908   7.979   2.288 -0.4485  0.3176 -0.5079
  510MOL0     C70281   7.035   8.048   2.338 -0.7589 -0.2617  0.6011
  510MOL0     C70282   7.126   8.063   2.207  0.1828 -0.3421 -0.4805
  510MOL0     C70283   7.237   8.166   2.223 -0.5745  0.4462  0.2733
  510MOL0     C70284   7.329   8.172   2.100 -0.5192 -0.2738  0.3515
  510MOL0     C70285   7.448   8.265   2.146 -0.4486 -0.2191 -0.3625
  510MOL0     C70286   7.400   8.409   2.139 -0.7798 -0.1224  1.6232
  510MOL0    Cl70287   7.348   8.454   1.974 -0.0454  0.0127 -0.1293
  510MOL0     C70288   6.506   7.909   2.212  0.0533  1.0428  1.1196
  510MOL0     C70289   6.440   7.811   2.139  0.1677 -0.1885  0.2113
  510MOL0     O70290   6.447   7.501   2.124 -0.5661 -0.8939 -0.3611
  510MOL0     C70291   6.229   7.543   1.845 -0.1320  1.1122 -0.5639
  510MOL0     C70292   6.132   7.468   1.763 -1.0633 -0.1091 -0.0701
  510MOL0     N70293   5.540   6.846   1.976 -0.3990 -0.1822 -0.2708
  510MOL0     N70294   5.420   6.857   1.947 -0.0423 -0.1355 -0.0516
  510MOL0     C70295   4.459   6.669   1.208  0.3907 -0.1504 -0.3608
  510MOL0     C70296   4.328   6.617   1.227 -0.1954  0.6002  0.5783
  510MOL0     C70297   3.868   6.705   1.269 -0.1373 -0.3020  0.1250
  510MOL0     C70298   3.776   6.675   1.375  0.1804  0.0105  0.3685
  510MOL0     C70299   3.642   6.672   1.350  0.0620  0.0792 -0.1231
  510MOL0     C70300   3.590   6.688   1.221  0.2134  0.9690  0.7790
  510MOL0     O70301   3.460   6.693   1.189 -0.0292 -0.2841 -0.5924
  510MOL0     C70302   3.362   6.607   1.254 -0.4501 -0.6216  0.5494
  510MOL0     C70303   3.226   6.640   1.218 -0.1630 -0.0505  0.1942
  510MOL0     C70304   3.127   6.554   1.285  0.2270  0.0727  0.4787
  510MOL0     C70305   2.992   6.535   1.208  0.1020  0.8216  0.1344
  510MOL0     C70306   2.924   6.408   1.229  0.5247  0.8486  0.8572
  510MOL0     C70307   2.862   6.305   1.219  0.2123 -0.1722 -0.2356
  510MOL0     C70308   3.673   6.722   1.116 -0.6740  0.1665  1.1986
  510MOL0     C70309   3.810   6.736   1.138 -0.9798 -0.1778  0.7783
  510MOL0     C70310   3.894   6.789   1.021  0.2330 -0.7799 -0.9497
  510MOL0     H70311   4.171   6.859   1.061 -0.1123 -1.0016 -0.1336
  510MOL0     H70312   4.399   6.956   1.041  1.3605 -1.1449 -0.6412
  510MOL0     H70313   4.738   6.695   1.188 -1.1343 -0.6305  2.0977
  510MOL0     H70314   4.674   6.788   1.321  1.1847 -0.4311 -0.0820
  510MOL0     H70315   4.865   6.886   1.114 -3.1781 -1.3476 -0.3505
  510MOL0     H70316   4.814   6.975   1.261  0.5201 -1.2710  2.3051
  510MOL0     H70317   4.880   6.783   1.405 -0.8998 -2.9740 -1.7936
  510MOL0     H70318   4.957   6.715   1.265  0.4713 -0.6107  2.4185
  510MOL0     H70319   5.091   6.933   1.243  3.0892 -3.2287 -0.2425
  510MOL0     H70320   5.009   6.988   1.397 -1.7621 -2.8339  2.9083
  510MOL0     H70321   5.263   6.894   1.396  3.0278 -4.4667  0.8744
  510MOL0     H70322   5.204   6.743   1.362 -2.3288 -1.5165  0.9843
  510MOL0     H70323   5.080   6.898   1.602 -3.0803 -1.8849 -0.3508
  510MOL0     H70324   5.051   6.732   1.571 -1.3890  1.5057  2.4086
  510MOL0     H70325   5.345   6.777   1.568  0.2878 -1.2408 -0.0817
  510MOL0     H70326   5.260   6.681   1.668  0.7356 -0.9668 -2.8390
  510MOL0     H70327   5.264   6.982   1.709 -0.6142  0.3136  0.1324
  510MOL0     H70328   5.205   6.875   1.818  0.3518 -1.3736 -0.0028
  510MOL0     H70329   5.572   6.924   1.657  0.7133 -2.1596 -0.5991
  510MOL0     H70330   5.812   6.822   1.819  0.4098  1.8912 -0.9231
  510MOL0     H70331   5.788   6.905   1.979 -0.9925 -2.6367  1.0957
  510MOL0     H70332   5.763   7.020   1.695 -1.0788  1.6255 -0.6693
  510MOL0     H70333   5.749   7.115   1.843 -0.5515  0.0479 -0.7868
  510MOL0     H70334   5.989   7.064   1.899 -0.1134 -3.8911  0.3186
  510MOL0     H70335   5.994   6.944   1.778 -0.1481 -0.2276 -0.7514
  510MOL0     H70336   6.089   7.091   1.624  0.2034  2.5288 -2.8708
  510MOL0     H70337   5.926   7.112   1.594  2.2293 -3.2892 -2.8641
  510MOL0     H70338   6.205   7.153   1.832  0.3126  0.6316 -3.1388
  510MOL0     H70339   6.383   7.251   2.118 -3.4700 -0.2521 -0.8273
  510MOL0     H70340   6.498   7.261   1.978  0.9889 -0.9480  0.6514
  510MOL0     H70341   6.371   7.136   1.999  0.2076 -0.1397  1.9800
  510MOL0     H70342   6.669   7.765   1.892 -1.8427 -0.8609 -0.6730
  510MOL0     H70343   6.784   7.925   2.006  1.0494  0.0913  2.3170
  510MOL0     H70344   6.837   8.151   2.176 -0.7677 -0.4253 -0.4965
  510MOL0     H70345   6.808   8.169   2.344 -2.3277 -0.0644 -0.6974
  510MOL0     H70346   6.862   7.911   2.360 -0.4190 -1.3904 -2.0165
  510MOL0     H70347   6.920   7.930   2.190 -1.3701 -0.0531 -0.4478
  510MOL0     H70348   7.083   7.996   2.421  0.2203  1.8100  1.4038
  510MOL0     H70349   7.022   8.149   2.378 -0.3807 -0.5559  1.4953
  510MOL0     H70350   7.062   8.085   2.121 -0.4067  3.8551  0.8100
  510MOL0     H70351   7.175   7.967   2.190  1.1113 -0.8315  3.8480
  510MOL0     H70352   7.184   8.261   2.239 -1.5450 -0.0626  0.1336
  510MOL0     H70353   7.295   8.135   2.311  1.1517 -0.5556 -1.1537
  510MOL0     H70354   7.284   8.207   2.007  0.4562  4.2797  1.3918
  510MOL0     H70355   7.376   8.073   2.092  0.3385  0.2282 -1.1684
  510MOL0     H70356   7.535   8.243   2.084  1.0319  1.0585  1.1664
  510MOL0     H70357   7.473   8.237   2.249 -2.1613  0.3626  0.2442
  510MOL0     H70358   7.472   8.486   2.169 -0.7106 -0.3574  2.0726
  510MOL0     H70359   7.315   8.417   2.208 -1.1517 -2.5235  1.5288
  510MOL0     H70360   6.456   7.947   2.301  0.7339  2.2956  0.9881
  510MOL0     H70361   6.339   7.783   2.165 -0.4055  1.6738  0.1183
  510MOL0     H70362   6.232   7.651   1.838  2.0731  1.1357  0.1024
  510MOL0     H70363   6.058   7.515   1.698 -0.1897  1.2077 -0.1666
  510MOL0     H70364   4.544   6.614   1.248  3.0125  3.4735 -0.4329
  510MOL0     H70365   4.322   6.526   1.285  1.4312  1.0640  1.5620
  510MOL0     H70366   3.821   6.659   1.473 -1.7808 -0.1064  1.2976
  510MOL0     H70367   3.577   6.663   1.436 -0.8223 -0.4413 -0.8268
  510MOL0     H70368   3.386   6.505   1.225  0.3773 -0.0286 -0.9877
  510MOL0     H70369   3.367   6.624   1.362  1.3349  1.5874  0.1968
  510MOL0     H70370   3.214   6.633   1.109 -0.9170 -1.2395  0.3349
  510MOL0     H70371   3.203   6.743   1.247 -0.4756  0.1348 -0.6873
  510MOL0     H70372   3.169   6.455   1.306 -1.4482 -0.1784  3.0342
  510MOL0     H70373   3.119   6.593   1.387  2.1405 -0.7601  0.9908
  510MOL0     H70374   3.000   6.562   1.102  3.3056 -0.0935  0.0233
  510MOL0     H70375   2.923   6.607   1.254 -1.7840 -0.2088 -0.9811
  510MOL0     H70376   2.812   6.211   1.214 -0.6399  0.2934 -0.6063
  510MOL0     H70377   3.638   6.751   1.018 -1.0564 -2.7007  0.3861
  510MOL0     H70378   3.962   6.711   0.986  1.6200  0.1593 -0.4326
  510MOL0     H70379   3.835   6.836   0.942 -0.0902  1.9366  0.7769
  510MOL0     H70380   3.956   6.868   1.065 -2.6585  0.2247  1.7130
  511MOL0     O70381   6.925   1.444   6.900  0.3092  0.2987 -0.3425
  511MOL0     C70382   6.984   1.459   7.000  0.9261 -0.8561 -0.7704
  511MOL0     O70383   6.940   1.416   7.121  0.3227 -0.1904  0.3244
  511MOL0     C70384   6.817   1.362   7.131  0.3267 -0.4424  0.3489
  511MOL0     C70385   6.800   1.224   7.155 -0.2273 -1.0797 -0.4517
  511MOL0     C70386   6.668   1.168   7.162  0.6309 -0.1546 -0.2415
  511MOL0     C70387   6.560   1.245   7.120 -0.1706  0.2980 -0.0342
  511MOL0     O70388   6.435   1.184   7.098  0.5137 -0.1849  0.5858
  511MOL0     C70389   6.343   1.257   7.013  0.0375  0.6136  0.4170
  511MOL0     C70390   6.232   1.161   6.974 -0.0444  1.0006  0.7805
  511MOL0     C70391   6.113   1.149   7.079  0.5241  0.1037  0.2497
  511MOL0     C70392   6.000   1.071   7.018  0.0155  0.3279 -0.0608
  511MOL0     C70393   5.858   1.102   7.080 -0.8822  0.4154  0.0821
  511MOL0     C70394   5.735   1.034   7.007 -0.0173 -0.4701 -0.6831
  511MOL0     C70395   5.620   1.017   7.110 -0.0668 -0.0258 -0.5950
  511MOL0     C70396   5.553   1.152   7.163  0.2284  0.4570  0.7770
  511MOL0     N70397   5.487   1.240   7.053 -0.2802  0.4135 -0.2679
  511MOL0     C70398   5.553   1.322   6.970 -0.0995 -0.8284 -0.3725
  511MOL0     C70399   5.456   1.361   6.884 -0.0566  0.3681  0.7252
  511MOL0     C70400   5.487   1.448   6.755 -0.3592  1.1027 -1.3896
  511MOL0     C70401   5.423   1.589   6.769 -0.2863 -0.4158  0.0881
  511MOL0     C70402   5.510   1.696   6.692  0.0334  0.6518 -0.5448
  511MOL0     C70403   5.511   1.654   6.541  0.0779 -0.7955 -0.2744
  511MOL0     O70404   5.570   1.745   6.444  0.0137 -0.5368  0.2688
  511MOL0     C70405   5.686   1.812   6.482  0.2424 -0.4843 -0.2681
  511MOL0     C70406   5.676   1.933   6.544 -0.0445 -0.3425  0.0151
  511MOL0     C70407   5.780   1.996   6.597 -0.5693  0.0914  0.0353
  511MOL0     C70408   5.747   2.128   6.664  0.1582 -0.0472  0.8491
  511MOL0     C70409   5.911   1.939   6.572 -0.6881  0.1993 -0.3830
  511MOL0     C70410   6.037   2.010   6.602  0.3165  0.6993 -0.8731
  511MOL0     O70411   6.146   1.932   6.643  0.9894 -0.0863  0.2387
  511MOL0     C70412   6.263   1.988   6.664 -0.0120  0.9819  0.1750
  511MOL0     C70413   6.282   2.068   6.773 -0.1315 -0.4483 -0.5994
  511MOL0     C70414   6.413   2.116   6.797  0.2198  0.0793 -0.0495
  511MOL0     C70415   6.518   2.097   6.712 -0.0962  0.1967  0.3396
  511MOL0     O70416   6.630   2.165   6.752 -0.7053 -0.4324 -0.0595
  511MOL0     C70417   6.756   2.141   6.685 -0.9339  0.7127  0.0454
  511MOL0     C70418   6.847   2.263   6.677  0.7981  0.0967  0.3636
  511MOL0     C70419   6.996   2.207   6.668  0.1335 -0.3547 -0.5029
  511MOL0     C70420   7.089   2.325   6.621 -0.5869  0.1858  0.0740
  511MOL0     C70421   7.221   2.255   6.585 -0.1670  0.2075 -0.5710
  511MOL0     C70422   7.309   2.211   6.694 -0.8219 -0.4263 -0.8107
  511MOL0     C70423   7.435   2.151   6.640 -0.6478  0.1419 -0.8574
  511MOL0     C70424   7.538   2.113   6.749 -0.1002  0.1736  0.2173
  511MOL0    Cl70425   7.602   2.274   6.812 -0.8308 -0.2199 -0.1278
  511MOL0     C70426   6.498   2.012   6.592 -0.1838  0.1378 -0.2136
  511MOL0     C70427   6.372   1.955   6.570  0.0917 -0.1815  0.1519
  511MOL0     O70428   6.038   2.129   6.583 -0.1120  0.1894 -0.4584
  511MOL0     C70429   5.922   1.804   6.526  1.2615 -0.1858 -0.1567
  511MOL0     C70430   5.802   1.736   6.477 -0.0754  0.2697 -0.5912
  511MOL0     N70431   5.338   1.306   6.916  0.3130 -0.1648 -0.3412
  511MOL0     N70432   5.357   1.235   7.016 -0.3077 -0.4217 -1.0919
  511MOL0     C70433   6.578   1.380   7.094  0.8415 -0.9705  0.3550
  511MOL0     C70434   6.702   1.436   7.098 -0.0995  0.2733 -0.2030
  511MOL0     C70435   7.114   1.521   6.983 -0.0283 -0.0595  0.3701
  511MOL0     C70436   7.192   1.507   7.102 -0.3825  0.0670 -0.1050
  511MOL0     C70437   7.324   1.558   7.114  0.0534  0.3536  1.3597
  511MOL0     C70438   7.369   1.631   7.001 -0.2693 -0.6997 -0.4779
  511MOL0     O70439   7.489   1.698   7.021  0.1040  0.1082 -0.0978
  511MOL0     C70440   7.483   1.826   7.085 -0.1045  0.7546 -0.4386
  511MOL0     C70441   7.624   1.875   7.122 -0.4851  0.2714 -0.1272
  511MOL0     C70442   7.721   1.866   7.003  0.0409  0.9222 -0.8553
  511MOL0     C70443   7.845   1.958   7.024  0.3768 -0.2545  0.4719
  511MOL0     C70444   7.928   1.954   7.143  0.3919 -0.3343 -0.0007
  511MOL0     C70445   7.997   1.947   7.241  0.1269  1.2196  0.9000
  511MOL0     C70446   7.281   1.655   6.893  0.8288  0.3880  1.4164
  511MOL0     C70447   7.158   1.600   6.878 -0.0769 -0.2723 -0.3881
  511MOL0     C70448   7.082   1.624   6.748  0.5456  0.2824 -0.3804
  511MOL0     H70449   6.889   1.165   7.171  1.4776  1.6520  0.8465
  511MOL0     H70450   6.651   1.062   7.180  3.2666 -0.5163  0.5638
  511MOL0     H70451   6.408   1.278   6.928 -0.8660  0.2897 -0.3791
  511MOL0     H70452   6.305   1.340   7.074 -0.7324 -1.3855  2.8696
  511MOL0     H70453   6.192   1.196   6.879  0.3899 -0.4308  0.0548
  511MOL0     H70454   6.267   1.060   6.951  0.9952  1.3954  0.5926
  511MOL0     H70455   6.145   1.099   7.171  3.0471 -2.3406 -1.7673
  511MOL0     H70456   6.081   1.252   7.093 -0.7311 -0.3953  1.2891
  511MOL0     H70457   5.995   1.086   6.910 -1.0523  0.3765 -0.0192
  511MOL0     H70458   6.023   0.965   7.034  1.7438  0.7990  0.8950
  511MOL0     H70459   5.842   1.209   7.093  0.6798  0.4668  2.0549
  511MOL0     H70460   5.867   1.064   7.182 -0.4731 -3.8432 -1.3173
  511MOL0     H70461   5.700   1.095   6.923 -0.0429  2.3408  1.2113
  511MOL0     H70462   5.758   0.933   6.974 -1.7950 -2.2225  2.8792
  511MOL0     H70463   5.670   0.971   7.196 -0.4437  0.2497 -0.2248
  511MOL0     H70464   5.533   0.959   7.078 -1.2850  1.1380  0.4446
  511MOL0     H70465   5.486   1.120   7.242  0.5979  1.2354  1.4254
  511MOL0     H70466   5.630   1.217   7.205  1.3354 -0.0431 -0.3789
  511MOL0     H70467   5.660   1.341   6.972 -0.4840  1.5901  0.2708
  511MOL0     H70468   5.445   1.391   6.672 -1.3838  1.6864 -1.2968
  511MOL0     H70469   5.594   1.462   6.738  0.5044 -0.9633  1.5255
  511MOL0     H70470   5.320   1.580   6.736 -0.1638 -0.3511 -0.3206
  511MOL0     H70471   5.432   1.612   6.876  2.0880  0.1964 -0.1705
  511MOL0     H70472   5.454   1.790   6.698 -0.9895  0.0164  0.2987
  511MOL0     H70473   5.608   1.715   6.735  0.5744 -0.9861 -1.0050
  511MOL0     H70474   5.566   1.560   6.544  0.1603 -0.7263  0.6289
  511MOL0     H70475   5.408   1.642   6.508 -0.6997  1.9542  0.8489
  511MOL0     H70476   5.579   1.981   6.549 -0.2479 -0.9029  2.3417
  511MOL0     H70477   5.774   2.210   6.598 -5.2186  1.1820 -0.2773
  511MOL0     H70478   5.795   2.132   6.763  0.0056  0.8083  0.8933
  511MOL0     H70479   5.640   2.137   6.681  0.3257 -0.5078  2.3065
  511MOL0     H70480   6.201   2.092   6.840 -0.4772 -2.4445 -0.2358
  511MOL0     H70481   6.420   2.182   6.883 -1.0283  0.6433 -0.3687
  511MOL0     H70482   6.809   2.064   6.742  2.3389  0.1779 -3.3628
  511MOL0     H70483   6.747   2.098   6.585  2.1550  1.3411 -0.5862
  511MOL0     H70484   6.814   2.326   6.594  0.3438 -1.3537 -0.6029
  511MOL0     H70485   6.837   2.317   6.771 -3.9003  1.5747 -0.7110
  511MOL0     H70486   6.994   2.114   6.610 -2.2874 -0.0985 -0.9647
  511MOL0     H70487   7.015   2.174   6.770 -0.5569  1.4863  0.2604
  511MOL0     H70488   7.109   2.396   6.702 -2.1705 -1.2234  1.7630
  511MOL0     H70489   7.056   2.383   6.534  1.9637  1.0587 -0.4056
  511MOL0     H70490   7.201   2.166   6.523 -1.3550  0.6503 -0.8460
  511MOL0     H70491   7.268   2.334   6.526 -2.9556  2.8142  0.4922
  511MOL0     H70492   7.264   2.137   6.761 -1.8847  1.1714  0.3248
  511MOL0     H70493   7.334   2.292   6.763 -1.8563 -2.3373  2.0082
  511MOL0     H70494   7.477   2.227   6.574  0.0197  1.2195  0.7548
  511MOL0     H70495   7.411   2.064   6.577 -0.6968  0.1301 -0.8224
  511MOL0     H70496   7.620   2.053   6.708  0.0008 -0.1038  0.8096
  511MOL0     H70497   7.491   2.058   6.830 -2.8221  2.2264  0.1793
  511MOL0     H70498   6.588   1.983   6.538 -0.1840 -0.3389  0.0296
  511MOL0     H70499   6.337   1.896   6.487 -2.0479  0.7839  0.3092
  511MOL0     H70500   6.019   1.757   6.513  1.1281 -0.9220  1.3437
  511MOL0     H70501   5.797   1.631   6.450 -2.8037  0.4014 -0.8792
  511MOL0     H70502   6.492   1.436   7.059  1.6138 -0.6112 -1.0097
  511MOL0     H70503   6.719   1.538   7.066  1.5160  0.5927  1.4524
  511MOL0     H70504   7.158   1.462   7.195  0.9262 -1.2462 -0.2443
  511MOL0     H70505   7.387   1.528   7.197  1.8655 -2.0311 -0.7036
  511MOL0     H70506   7.434   1.903   7.025 -0.0028  2.7988  1.9373
  511MOL0     H70507   7.414   1.812   7.169 -2.6650  0.5488 -2.4375
  511MOL0     H70508   7.663   1.813   7.203 -0.0827 -0.7708 -1.0873
  511MOL0     H70509   7.629   1.978   7.157  2.6559  0.2240 -0.1098
  511MOL0     H70510   7.764   1.766   6.997 -0.3099  0.7834 -1.0791
  511MOL0     H70511   7.665   1.900   6.915 -0.4052 -1.1681 -1.4330
  511MOL0     H70512   7.792   2.052   7.043 -0.1016 -0.0883 -1.4701
  511MOL0     H70513   7.908   1.959   6.934 -0.6158  4.4260 -0.4536
  511MOL0     H70514   8.073   1.924   7.313 -0.1128 -1.9258  0.3229
  511MOL0     H70515   7.318   1.729   6.822  1.1715  0.3456  1.5497
  511MOL0     H70516   7.072   1.526   6.700  0.0806  0.1526 -0.0195
  511MOL0     H70517   6.990   1.680   6.766 -0.5789 -1.0705 -1.6178
  511MOL0     H70518   7.144   1.688   6.684 -1.3338  1.4176 -1.1487
  512MOL0     O70519   4.814   5.764   1.834 -0.2285  0.0950 -0.4110
  512MOL0     C70520   4.805   5.877   1.787 -0.7838 -0.6074  0.0711
  512MOL0     O70521   4.891   5.982   1.787  0.2123  0.3722 -0.4250
  512MOL0     C70522   4.991   5.964   1.877  0.2700  0.7085  0.1513
  512MOL0     C70523   5.076   5.851   1.880 -0.0648 -0.4611  0.1260
  512MOL0     C70524   5.158   5.829   1.986 -0.1389  0.6057  0.8014
  512MOL0     C70525   5.170   5.936   2.080 -0.7400  0.5747 -0.0192
  512MOL0     O70526   5.263   5.922   2.182  0.1728 -0.1371  0.2494
  512MOL0     C70527   5.394   5.948   2.141 -0.4020 -0.7722 -0.8648
  512MOL0     C70528   5.488   5.924   2.267  1.1357  0.5099 -0.0126
  512MOL0     C70529   5.450   5.793   2.350  0.1434 -0.4436 -1.3478
  512MOL0     C70530   5.543   5.780   2.469 -0.0404  0.0638  0.5380
  512MOL0     C70531   5.512   5.648   2.539  0.8909 -0.1027 -1.2909
  512MOL0     C70532   5.587   5.624   2.672  1.0497  0.1584  0.9535
  512MOL0     C70533   5.544   5.499   2.741  0.2068  0.4140  0.1005
  512MOL0     C70534   5.628   5.477   2.870 -0.8747 -0.0971 -0.1667
  512MOL0     N70535   5.747   5.406   2.818 -0.3275 -0.3135 -0.3039
  512MOL0     C70536   5.751   5.276   2.779 -0.3292 -0.5428  0.0272
  512MOL0     C70537   5.887   5.251   2.748  0.1869 -0.1603 -0.2453
  512MOL0     C70538   5.940   5.124   2.691  0.0250 -0.1113 -0.2151
  512MOL0     C70539   5.904   4.998   2.776  0.7413  0.1824  0.3315
  512MOL0     C70540   5.969   5.001   2.921  0.0221 -0.4319 -0.8299
  512MOL0     C70541   6.103   4.946   2.931  0.0252  0.0585 -0.2118
  512MOL0     O70542   6.092   4.815   2.901 -0.6061  0.2986  0.0837
  512MOL0     C70543   6.197   4.735   2.943  0.3755  0.3377  0.2850
  512MOL0     C70544   6.307   4.766   3.025  0.2112  0.5952 -1.1623
  512MOL0     C70545   6.404   4.667   3.044  0.0626  0.0401 -0.8317
  512MOL0     C70546   6.523   4.711   3.131 -0.5778  0.2883 -0.3046
  512MOL0     C70547   6.389   4.541   2.985  0.1766  0.6163 -0.8906
  512MOL0     C70548   6.493   4.439   3.008 -0.6913  0.8096  0.1610
  512MOL0     O70549   6.498   4.401   3.141 -0.5993  0.1624 -0.1663
  512MOL0     C70550   6.617   4.343   3.169  0.2314 -0.3850  0.7470
  512MOL0     C70551   6.612   4.207   3.198 -0.4926  0.6268  0.0607
  512MOL0     C70552   6.715   4.134   3.241  0.3706 -0.0821 -0.2891
  512MOL0     C70553   6.844   4.193   3.245 -0.0638  0.0841 -0.9552
  512MOL0     O70554   6.943   4.102   3.275 -0.6768  0.6538 -0.4264
  512MOL0     C70555   7.077   4.160   3.287 -0.8809 -0.1527 -0.2075
  512MOL0     C70556   7.187   4.061   3.303 -1.0149  1.3967 -0.2272
  512MOL0     C70557   7.314   4.122   3.246  0.6017  0.0693  0.5882
  512MOL0     C70558   7.434   4.035   3.252  0.3464  0.3228 -0.2446
  512MOL0     C70559   7.420   3.943   3.127  0.1756  0.1837 -0.3967
  512MOL0     C70560   7.459   4.005   2.988  0.2659 -0.7453 -0.1396
  512MOL0     C70561   7.408   3.914   2.880  0.3940  0.0954 -0.1245
  512MOL0     C70562   7.486   3.926   2.749  0.3142  0.0057  0.0996
  512MOL0    Cl70563   7.475   4.097   2.689 -0.0375  0.1098 -0.0722
  512MOL0     C70564   6.853   4.332   3.215 -0.2891 -0.1839  0.6483
  512MOL0     C70565   6.740   4.411   3.177 -0.4545 -0.4500  0.3964
  512MOL0     O70566   6.563   4.393   2.914 -0.4018  0.0443 -0.3331
  512MOL0     C70567   6.288   4.515   2.905 -0.7060 -0.2535  0.6906
  512MOL0     C70568   6.182   4.602   2.896  0.2410 -0.1553  0.2657
  512MOL0     N70569   5.948   5.372   2.748  0.0095  0.5282  0.0549
  512MOL0     N70570   5.867   5.464   2.786  0.4732 -0.3475 -0.9244
  512MOL0     C70571   5.102   6.056   2.074 -0.2309  0.0539  0.2109
  512MOL0     C70572   5.004   6.067   1.967 -0.8043  0.0100 -0.3632
  512MOL0     C70573   4.671   5.893   1.724 -0.1651 -0.8468  0.1513
  512MOL0     C70574   4.672   5.988   1.608  0.2131  0.1596 -0.1410
  512MOL0     C70575   4.550   6.013   1.539  0.5777 -0.1866  0.2345
  512MOL0     C70576   4.441   5.944   1.563 -0.0611  0.3197 -1.2704
  512MOL0     O70577   4.333   5.966   1.487  0.2766 -0.1962 -0.0192
  512MOL0     C70578   4.339   5.939   1.352  0.0951 -0.8079  0.2948
  512MOL0     C70579   4.243   5.823   1.325  0.5504  0.7657 -0.2693
  512MOL0     C70580   4.092   5.861   1.335  0.5709 -0.7014 -0.1015
  512MOL0     C70581   4.047   5.940   1.202 -0.9096  0.6613 -0.1708
  512MOL0     C70582   3.903   5.951   1.186  0.5716 -0.0231 -0.3007
  512MOL0     C70583   3.784   5.973   1.173  0.8908 -0.4566  0.1310
  512MOL0     C70584   4.440   5.845   1.660 -0.3957 -0.1342 -0.9973
  512MOL0     C70585   4.554   5.813   1.736  0.2414  0.4134 -0.0565
  512MOL0     C70586   4.517   5.719   1.853  0.0614  0.6505 -0.1148
  512MOL0     H70587   5.080   5.770   1.808 -0.3387  0.2787 -0.7496
  512MOL0     H70588   5.219   5.739   1.987  2.5480  2.1377 -2.7611
  512MOL0     H70589   5.409   6.056   2.130  4.8172 -0.6427  3.3596
  512MOL0     H70590   5.432   5.889   2.057 -1.2850 -1.0675 -1.0668
  512MOL0     H70591   5.593   5.913   2.238  1.5598 -1.5832  2.0281
  512MOL0     H70592   5.485   6.004   2.341 -0.5366  1.1200 -0.7018
  512MOL0     H70593   5.345   5.804   2.381 -0.4933 -1.7945 -2.9267
  512MOL0     H70594   5.459   5.713   2.277 -2.4034 -0.3336 -1.8596
  512MOL0     H70595   5.647   5.762   2.441  0.7918 -2.3944  4.3113
  512MOL0     H70596   5.531   5.864   2.538  1.7506 -1.4614  2.9005
  512MOL0     H70597   5.529   5.567   2.467  0.9571 -0.0382 -1.3474
  512MOL0     H70598   5.405   5.652   2.560  0.7591  0.3213 -2.0093
  512MOL0     H70599   5.692   5.627   2.644  0.7619  2.8976 -0.1273
  512MOL0     H70600   5.570   5.716   2.729 -0.5332  0.3390  0.2584
  512MOL0     H70601   5.547   5.415   2.671  1.6361 -0.0144  0.6493
  512MOL0     H70602   5.438   5.514   2.765  0.6323  2.9724  0.6218
  512MOL0     H70603   5.630   5.570   2.926 -3.6639  0.2961 -0.5793
  512MOL0     H70604   5.584   5.400   2.934 -3.3288  0.1107 -1.4946
  512MOL0     H70605   5.668   5.210   2.760 -1.2075  0.3613  0.6440
  512MOL0     H70606   6.048   5.135   2.683 -0.0113 -0.1569 -0.8061
  512MOL0     H70607   5.904   5.106   2.590 -3.0379 -1.7654  1.0327
  512MOL0     H70608   5.796   4.980   2.776  0.8527 -0.5524 -0.3433
  512MOL0     H70609   5.949   4.912   2.726  1.1083  0.1239  0.7547
  512MOL0     H70610   5.972   5.103   2.960 -1.5711 -1.1923  1.4916
  512MOL0     H70611   5.908   4.946   2.994  2.6003  0.3116  2.0792
  512MOL0     H70612   6.167   4.999   2.860 -1.5591  1.4223 -0.7085
  512MOL0     H70613   6.134   4.952   3.036 -0.3347  0.4721 -0.1248
  512MOL0     H70614   6.318   4.864   3.071 -0.3925 -0.2878  0.9537
  512MOL0     H70615   6.608   4.661   3.084  0.0164  1.0854 -0.1126
  512MOL0     H70616   6.499   4.686   3.235  1.7924 -0.7876  0.0375
  512MOL0     H70617   6.541   4.818   3.113 -0.3461  0.1995 -0.6048
  512MOL0     H70618   6.516   4.157   3.187 -0.4060  0.1771  1.2713
  512MOL0     H70619   6.685   4.032   3.263 -1.1424  0.7631  2.0066
  512MOL0     H70620   7.093   4.221   3.197  1.3524 -1.3087 -0.6628
  512MOL0     H70621   7.063   4.230   3.370 -0.1447 -1.8995  1.4465
  512MOL0     H70622   7.207   4.029   3.406 -0.6353  0.7497 -0.4868
  512MOL0     H70623   7.155   3.969   3.253 -1.6210  1.0896  0.7008
  512MOL0     H70624   7.332   4.218   3.295  1.2748  0.8552 -1.0974
  512MOL0     H70625   7.296   4.144   3.140 -0.1310 -2.3865  0.1506
  512MOL0     H70626   7.449   3.976   3.343  1.2288  1.8167  0.6326
  512MOL0     H70627   7.527   4.092   3.239 -1.0405  2.3922 -1.6947
  512MOL0     H70628   7.491   3.863   3.152  0.8400  1.3374  1.6756
  512MOL0     H70629   7.317   3.905   3.128 -0.3374  1.5114 -0.8410
  512MOL0     H70630   7.566   4.022   2.972  0.2452  0.7446  1.0994
  512MOL0     H70631   7.413   4.102   2.969 -0.0445 -0.5537  1.4988
  512MOL0     H70632   7.303   3.938   2.859 -0.6059 -3.3470  0.3547
  512MOL0     H70633   7.424   3.809   2.905  4.2524  0.6504  0.4351
  512MOL0     H70634   7.453   3.850   2.678  0.7236 -1.1573  1.1232
  512MOL0     H70635   7.590   3.899   2.769 -0.2407  0.1080  3.8253
  512MOL0     H70636   6.945   4.389   3.218 -0.2777 -0.2438  3.1405
  512MOL0     H70637   6.752   4.516   3.153 -2.3957 -0.5443 -1.3195
  512MOL0     H70638   6.283   4.419   2.854  1.0027  0.0581 -0.1063
  512MOL0     H70639   6.092   4.576   2.841 -1.0709  1.7564  1.4029
  512MOL0     H70640   5.125   6.133   2.147 -0.9258  0.3950  0.0741
  512MOL0     H70641   4.938   6.152   1.959 -0.5863  0.3739  1.2941
  512MOL0     H70642   4.756   6.050   1.579  0.3358 -0.2417 -0.6618
  512MOL0     H70643   4.553   6.089   1.462  3.1501 -0.9529 -0.5076
  512MOL0     H70644   4.296   6.020   1.293 -0.3834 -0.1377  1.5249
  512MOL0     H70645   4.434   5.912   1.304 -1.7642 -3.2050 -2.4420
  512MOL0     H70646   4.268   5.743   1.395  0.3799  0.0731 -0.9746
  512MOL0     H70647   4.256   5.774   1.228 -0.6704 -0.7394  0.2890
  512MOL0     H70648   4.032   5.771   1.354  1.0334 -0.6888  1.5435
  512MOL0     H70649   4.075   5.916   1.428 -1.9786 -2.0122  0.2972
  512MOL0     H70650   4.078   5.881   1.115  1.5910 -0.4879  1.3645
  512MOL0     H70651   4.096   6.038   1.204  5.3904 -2.0131  2.0226
  512MOL0     H70652   3.683   5.997   1.147  1.3481  0.0998 -1.1995
  512MOL0     H70653   4.350   5.787   1.676 -1.3051  1.4271 -0.0851
  512MOL0     H70654   4.418   5.673   1.845 -0.6365  2.2125 -0.7673
  512MOL0     H70655   4.590   5.637   1.852  0.3845  0.9343 -0.2098
  512MOL0     H70656   4.523   5.769   1.950  1.7576 -1.7927  1.1713
  513MOL0     O70657  10.148   5.613   7.291 -0.0655  0.3961 -0.0410
  513MOL0     C70658  10.138   5.644   7.412  0.3157 -0.5836  0.0620
  513MOL0     O70659  10.234   5.696   7.486  0.2412 -0.4677 -0.3268
  513MOL0     C70660  10.359   5.647   7.473 -0.6365  0.6177  0.6792
  513MOL0     C70661  10.469   5.720   7.436  0.2309  0.5567 -0.8446
  513MOL0     C70662  10.604   5.668   7.427  0.2972  0.6372  0.1810
  513MOL0     C70663  10.623   5.534   7.451  0.2980  0.2591  0.0147
  513MOL0     O70664  10.752   5.497   7.425  0.4331  0.5367  0.5202
  513MOL0     C70665  10.796   5.364   7.443  0.8590  0.8899  0.2113
  513MOL0     C70666  10.948   5.364   7.462  0.4484 -0.3337 -0.2824
  513MOL0     C70667  11.034   5.420   7.346 -0.3232 -0.5510 -0.2292
  513MOL0     C70668  11.184   5.431   7.393  0.1426 -0.0028 -0.1864
  513MOL0     C70669  11.274   5.511   7.289  0.5089 -0.1605 -0.7411
  513MOL0     C70670  11.414   5.484   7.322 -0.7176  0.4673 -0.3137
  513MOL0     C70671  11.511   5.548   7.207  0.2487 -0.5390  0.3803
  513MOL0     C70672  11.641   5.588   7.284  0.0133  0.9701 -0.8423
  513MOL0     N70673  11.710   5.461   7.339 -0.2861  0.5484  0.5694
  513MOL0     C70674  11.745   5.336   7.277  0.1060 -1.3967 -0.9177
  513MOL0     C70675  11.844   5.277   7.350 -0.5745 -0.0356 -1.2597
  513MOL0     C70676  11.922   5.145   7.318  0.0956  0.6466 -0.7333
  513MOL0     C70677  12.043   5.147   7.413 -0.1846  0.1521  0.4960
  513MOL0     C70678  12.143   5.042   7.361 -0.5318 -0.2154  0.0175
  513MOL0     C70679  12.272   5.058   7.445 -0.6729 -0.3223 -0.5107
  513MOL0     O70680  12.367   4.970   7.380  0.7432  0.5618  0.1868
  513MOL0     C70681  12.494   4.953   7.428 -0.2626  0.5659 -0.6458
  513MOL0     C70682  12.563   4.851   7.366 -0.5762 -0.9015  0.4864
  513MOL0     C70683  12.689   4.814   7.413 -0.1975 -0.1122  0.5324
  513MOL0     C70684  12.752   4.686   7.351  0.8492 -0.6396  0.2960
  513MOL0     C70685  12.758   4.887   7.511 -0.2111  0.3503  0.3135
  513MOL0     C70686  12.894   4.870   7.568 -0.0065  0.3443 -0.9154
  513MOL0     O70687  12.912   4.886   7.700  0.3030 -0.0313  0.5917
  513MOL0     C70688  13.037   4.914   7.751 -0.3392 -0.6106 -0.1140
  513MOL0     C70689  13.152   4.835   7.717 -0.3434 -0.6606  0.5343
  513MOL0     C70690  13.270   4.867   7.776  0.0295  0.2632  0.0478
  513MOL0     C70691  13.286   4.977   7.867 -0.1092 -0.2580 -0.1367
  513MOL0     O70692  13.415   5.006   7.916  0.1184  0.0568 -0.2666
  513MOL0     C70693  13.428   5.106   8.021 -0.2650  0.3035 -0.5875
  513MOL0     C70694  13.579   5.120   8.057  0.2236  0.2368 -0.5686
  513MOL0     C70695  13.673   5.197   7.958 -0.4924  0.7165  0.3777
  513MOL0     C70696  13.813   5.226   8.017  0.2173 -0.2755 -0.1241
  513MOL0     C70697  13.885   5.340   7.941 -0.1803 -0.1276 -0.3396
  513MOL0     C70698  13.961   5.290   7.818 -0.3444  0.2742 -0.2719
  513MOL0     C70699  14.113   5.276   7.852 -0.6714 -0.2762  0.5876
  513MOL0     C70700  14.192   5.190   7.751 -0.0066  0.1953 -0.1200
  513MOL0    Cl70701  14.162   5.024   7.805 -0.6717 -0.1465 -0.5205
  513MOL0     C70702  13.175   5.054   7.891 -0.0707 -0.4578  0.6957
  513MOL0     C70703  13.043   5.023   7.839  0.3181  0.2166 -0.5412
  513MOL0     O70704  12.976   4.844   7.481  0.0866 -0.1835 -0.7655
  513MOL0     C70705  12.685   4.986   7.575  0.1008 -0.4489 -0.2937
  513MOL0     C70706  12.554   5.025   7.534  0.5257  0.0087  1.0656
  513MOL0     N70707  11.865   5.361   7.462  0.2442  0.3245  0.2216
  513MOL0     N70708  11.776   5.457   7.458 -0.7754 -0.4531 -0.2968
  513MOL0     C70709  10.516   5.460   7.491  0.7884  0.0255 -0.2623
  513MOL0     C70710  10.386   5.510   7.502 -0.1188  1.1566 -0.1369
  513MOL0     C70711  10.002   5.635   7.474 -0.2563  0.6676 -0.3595
  513MOL0     C70712   9.990   5.670   7.610  0.6119  0.1208 -0.4527
  513MOL0     C70713   9.873   5.648   7.689  0.3149  0.0870  0.7048
  513MOL0     C70714   9.759   5.593   7.638 -0.4376  0.1310 -0.4286
  513MOL0     O70715   9.644   5.578   7.707 -0.4751 -0.8966 -0.2514
  513MOL0     C70716   9.619   5.633   7.837  0.0563  0.5269 -0.7908
  513MOL0     C70717   9.590   5.782   7.839 -1.2917  0.6032  0.1050
  513MOL0     C70718   9.525   5.822   7.962  0.4651 -0.4670 -0.4533
  513MOL0     C70719   9.493   5.981   7.955  0.4036 -0.1740  0.3977
  513MOL0     C70720   9.618   6.049   7.963  0.0034 -0.6302 -0.2713
  513MOL0     C70721   9.727   6.101   7.983 -0.4448  0.3451 -0.4775
  513MOL0     C70722   9.758   5.574   7.496  0.1496  1.0658 -0.0135
  513MOL0     C70723   9.878   5.590   7.415  0.4383 -0.3582  0.8524
  513MOL0     C70724   9.852   5.563   7.264  0.7907  0.1616 -0.7785
  513MOL0     H70725  10.453   5.827   7.422 -0.8641  0.2145 -2.6136
  513MOL0     H70726  10.686   5.734   7.401  0.0404  0.5255 -0.9702
  513MOL0     H70727  10.763   5.298   7.362 -1.8351  2.1499  0.2117
  513MOL0     H70728  10.752   5.334   7.539  0.2138 -0.4387 -0.4718
  513MOL0     H70729  10.972   5.426   7.549 -0.2251  1.6828 -1.4491
  513MOL0     H70730  10.983   5.266   7.496  3.1763  1.1298  1.4577
  513MOL0     H70731  11.037   5.352   7.260 -0.1066 -0.2310 -0.4813
  513MOL0     H70732  10.990   5.514   7.309 -1.1758  0.0631  2.1936
  513MOL0     H70733  11.173   5.488   7.485 -0.2526 -2.0070  1.0692
  513MOL0     H70734  11.228   5.334   7.417 -0.2309 -0.1538 -0.0933
  513MOL0     H70735  11.242   5.616   7.290  0.8844 -0.0404 -0.7697
  513MOL0     H70736  11.246   5.481   7.188 -2.6132 -0.7480  0.1877
  513MOL0     H70737  11.422   5.542   7.414 -5.7077  0.3376  0.4758
  513MOL0     H70738  11.433   5.381   7.352  1.7692  0.8123 -0.4936
  513MOL0     H70739  11.476   5.644   7.170  2.5979  0.6233  0.9577
  513MOL0     H70740  11.520   5.475   7.126 -1.8798 -1.2919  0.7633
  513MOL0     H70741  11.718   5.628   7.217  1.9599 -3.3972 -1.5825
  513MOL0     H70742  11.629   5.661   7.365  1.0912 -2.5399  2.8171
  513MOL0     H70743  11.698   5.301   7.186  1.2977  0.0813 -2.1615
  513MOL0     H70744  11.967   5.162   7.219  0.0925 -2.0655 -1.2818
  513MOL0     H70745  11.864   5.054   7.325 -2.2154  2.1118  0.1238
  513MOL0     H70746  12.092   5.244   7.415  0.3185 -0.0939  0.2719
  513MOL0     H70747  12.009   5.130   7.516 -1.1671 -0.0287  0.1504
  513MOL0     H70748  12.082   4.950   7.357  0.5612 -0.9331 -0.6655
  513MOL0     H70749  12.177   5.062   7.259  0.2578 -1.9834 -0.0998
  513MOL0     H70750  12.311   5.159   7.434 -0.9042 -0.2524 -0.7012
  513MOL0     H70751  12.248   5.031   7.548  2.3798 -0.6331  0.2002
  513MOL0     H70752  12.513   4.800   7.285 -1.2136 -0.1709  0.4055
  513MOL0     H70753  12.805   4.626   7.426  2.5401  2.1159  1.4381
  513MOL0     H70754  12.826   4.707   7.274  0.4395 -0.1483  0.0292
  513MOL0     H70755  12.674   4.627   7.302 -0.4333 -0.2237  1.7286
  513MOL0     H70756  13.163   4.754   7.646  4.2309  0.0393  0.1364
  513MOL0     H70757  13.360   4.811   7.754 -1.1459 -1.7597  0.0890
  513MOL0     H70758  13.388   5.198   7.977 -1.4451  0.9763  1.7431
  513MOL0     H70759  13.356   5.088   8.101  0.4561 -0.0148  0.0022
  513MOL0     H70760  13.571   5.186   8.143 -0.5004  0.5857 -0.8893
  513MOL0     H70761  13.623   5.029   8.096  3.6888  1.2349 -1.7948
  513MOL0     H70762  13.616   5.289   7.946 -0.0714  1.5282  3.5647
  513MOL0     H70763  13.675   5.129   7.872  3.3509  1.3707 -0.2230
  513MOL0     H70764  13.871   5.134   8.029 -1.6760 -1.2653  2.1953
  513MOL0     H70765  13.798   5.258   8.120 -0.6405  0.2297 -0.4002
  513MOL0     H70766  13.815   5.419   7.912 -4.5605 -3.3526  0.4610
  513MOL0     H70767  13.955   5.387   8.011  1.5198 -2.8701 -0.0774
  513MOL0     H70768  13.949   5.363   7.737  0.0788 -1.4697 -2.0006
  513MOL0     H70769  13.932   5.191   7.783  1.7893  0.1363 -1.9284
  513MOL0     H70770  14.128   5.226   7.948  3.4479 -1.5046 -0.4572
  513MOL0     H70771  14.164   5.373   7.858 -0.6216 -0.1588 -1.0573
  513MOL0     H70772  14.300   5.200   7.764  0.1866 -0.8608 -0.7852
  513MOL0     H70773  14.158   5.204   7.648 -0.5388  0.2499  0.0578
  513MOL0     H70774  13.184   5.143   7.952  1.8357  1.4205 -2.0395
  513MOL0     H70775  12.958   5.087   7.861  1.5524  0.9610  2.6739
  513MOL0     H70776  12.724   5.039   7.661 -0.0625  0.2854 -0.6642
  513MOL0     H70777  12.503   5.106   7.585 -1.5245 -0.8691  0.5087
  513MOL0     H70778  10.534   5.355   7.512 -2.0437 -0.6044 -0.5883
  513MOL0     H70779  10.309   5.438   7.528  3.2047 -3.4800 -1.7649
  513MOL0     H70780  10.078   5.714   7.655  1.0251 -1.0017 -0.1610
  513MOL0     H70781   9.865   5.697   7.786 -0.8429 -0.1956  0.7606
  513MOL0     H70782   9.534   5.586   7.887  0.7299 -1.9585 -1.8186
  513MOL0     H70783   9.706   5.618   7.902 -0.8187  2.1415  0.8557
  513MOL0     H70784   9.527   5.800   7.751 -2.5094 -1.7624  0.4203
  513MOL0     H70785   9.686   5.833   7.825 -0.3473 -0.5481  1.9081
  513MOL0     H70786   9.430   5.771   7.977  0.1897 -0.1717 -1.1235
  513MOL0     H70787   9.593   5.802   8.045  1.3947  1.4988 -0.6844
  513MOL0     H70788   9.426   6.001   8.039 -2.3652 -2.7943 -0.9536
  513MOL0     H70789   9.431   6.004   7.868  0.3493  0.3468  0.5752
  513MOL0     H70790   9.829   6.132   7.991  0.1264 -1.9275  3.2374
  513MOL0     H70791   9.663   5.543   7.452  0.8086 -3.6472  1.4025
  513MOL0     H70792   9.745   5.560   7.245  0.9619 -1.5492 -1.6885
  513MOL0     H70793   9.888   5.640   7.195 -0.4130  1.6188  0.1474
  513MOL0     H70794   9.902   5.470   7.234  0.1357 -0.0625 -1.1958
  514MOL0     O70795   7.266   3.804   5.642 -0.2417  0.2200  0.7041
  514MOL0     C70796   7.201   3.737   5.721 -0.1755  0.2495  0.3473
  514MOL0     O70797   7.252   3.634   5.808  0.9402  0.4385  0.7737
  514MOL0     C70798   7.364   3.568   5.771  0.5868  0.7457  0.0376
  514MOL0     C70799   7.495   3.631   5.741  0.9329 -0.0369 -0.1247
  514MOL0     C70800   7.609   3.549   5.727 -0.1173  0.9874 -0.6225
  514MOL0     C70801   7.596   3.410   5.739  0.1759 -0.6876  0.5071
  514MOL0     O70802   7.713   3.343   5.732  0.2274  0.5008 -0.1683
  514MOL0     C70803   7.713   3.202   5.685  1.2728  0.5544  0.7291
  514MOL0     C70804   7.847   3.172   5.611  0.5300 -0.8808  0.1631
  514MOL0     C70805   7.878   3.028   5.603  0.0137  0.5189 -0.5684
  514MOL0     C70806   8.003   3.008   5.514 -0.7053  0.3278  0.6242
  514MOL0     C70807   8.024   2.859   5.469  0.7896 -0.3946 -0.7359
  514MOL0     C70808   8.020   2.753   5.574  0.8573  0.2119 -0.2439
  514MOL0     C70809   7.979   2.617   5.521  0.1101 -0.1081 -0.4809
  514MOL0     C70810   8.051   2.563   5.396  0.6425 -0.6930  0.9742
  514MOL0     N70811   8.198   2.590   5.397  0.2926  0.8085  0.3839
  514MOL0     C70812   8.264   2.651   5.294 -0.8059  0.8298 -0.1750
  514MOL0     C70813   8.393   2.664   5.335  0.2310 -0.3314 -0.2164
  514MOL0     C70814   8.493   2.750   5.251  0.1686 -0.2117  0.1583
  514MOL0     C70815   8.619   2.675   5.197 -0.6427 -0.4711  0.0490
  514MOL0     C70816   8.725   2.776   5.154 -0.7130  0.5543  0.3757
  514MOL0     C70817   8.861   2.698   5.152 -0.7104 -0.2690  0.9826
  514MOL0     O70818   8.962   2.783   5.110  0.2631  0.0148 -0.0962
  514MOL0     C70819   9.076   2.728   5.071  0.6415 -0.1230  0.2049
  514MOL0     C70820   9.090   2.676   4.941  0.5508 -0.0385  0.0019
  514MOL0     C70821   9.211   2.610   4.914 -0.1548  0.1411 -1.0087
  514MOL0     C70822   9.220   2.521   4.796 -0.3822 -0.1211 -0.5229
  514MOL0     C70823   9.318   2.614   5.007  0.2426  0.6911  0.1583
  514MOL0     C70824   9.446   2.536   4.987 -0.2741 -0.0921  0.6975
  514MOL0     O70825   9.500   2.548   4.861  0.4476 -0.0192  0.2624
  514MOL0     C70826   9.624   2.497   4.847  0.3759 -1.0003 -0.1492
  514MOL0     C70827   9.649   2.361   4.832  0.4502 -0.4226 -0.1672
  514MOL0     C70828   9.784   2.313   4.831  0.2980  0.8258 -1.2675
  514MOL0     C70829   9.890   2.407   4.832  0.9446  0.5767 -0.3861
  514MOL0     O70830  10.015   2.361   4.820  0.1215 -0.1796 -0.4140
  514MOL0     C70831  10.126   2.438   4.851 -0.4336 -0.4920 -0.6342
  514MOL0     C70832  10.239   2.344   4.892  0.2098  0.3636 -0.5124
  514MOL0     C70833  10.327   2.289   4.780  0.4157 -0.5038  0.7151
  514MOL0     C70834  10.475   2.273   4.824  0.3549  0.5820  0.2364
  514MOL0     C70835  10.506   2.184   4.945  0.1033 -0.6653  0.8440
  514MOL0     C70836  10.500   2.043   4.907  0.8616  0.7031 -0.3358
  514MOL0     C70837  10.518   1.941   5.023 -0.5615 -0.0566  0.2455
  514MOL0     C70838  10.439   1.954   5.149  0.6068  0.2770 -0.3435
  514MOL0    Cl70839  10.267   1.920   5.102 -0.1621 -0.2518  0.1699
  514MOL0     C70840   9.857   2.546   4.855  0.0199  0.3840  0.7753
  514MOL0     C70841   9.726   2.588   4.867 -0.2296  0.5114 -0.0932
  514MOL0     O70842   9.514   2.507   5.082  0.1052  0.0578  0.3081
  514MOL0     C70843   9.310   2.682   5.133  1.2913 -0.2536  0.3295
  514MOL0     C70844   9.190   2.749   5.146  0.2006 -0.6943 -0.4935
  514MOL0     N70845   8.398   2.612   5.463 -0.6953 -0.4923 -0.5820
  514MOL0     N70846   8.289   2.553   5.494  0.2127  0.2103  0.0827
  514MOL0     C70847   7.467   3.351   5.761  0.3705 -0.7403 -0.4585
  514MOL0     C70848   7.355   3.430   5.763 -0.5147 -0.7846  0.5530
  514MOL0     C70849   7.069   3.792   5.737  0.2054 -0.0652  0.1670
  514MOL0     C70850   7.046   3.929   5.756  0.4884 -0.5389 -0.3970
  514MOL0     C70851   6.915   3.979   5.779 -0.7330 -0.2639 -0.1144
  514MOL0     C70852   6.802   3.888   5.789  1.0983  0.2466  1.3581
  514MOL0     O70853   6.671   3.918   5.811  0.0994 -0.5038 -0.7004
  514MOL0     C70854   6.633   4.059   5.805  0.3480 -0.1428 -0.0186
  514MOL0     C70855   6.486   4.056   5.805 -0.2782 -0.7614  0.0178
  514MOL0     C70856   6.420   4.190   5.784 -0.2882  0.0471 -0.6034
  514MOL0     C70857   6.271   4.180   5.776 -0.4350  0.3325 -0.0995
  514MOL0     C70858   6.236   4.139   5.640  0.1587  0.5262  0.9265
  514MOL0     C70859   6.213   4.110   5.523  0.6480 -0.5623 -1.0540
  514MOL0     C70860   6.832   3.751   5.767 -0.5005  0.7562  1.2608
  514MOL0     C70861   6.961   3.698   5.733 -0.4786 -0.2284  0.1393
  514MOL0     C70862   6.985   3.554   5.702  0.0878 -0.0278 -0.2749
  514MOL0     H70863   7.503   3.739   5.740 -0.5110  0.1241  1.0959
  514MOL0     H70864   7.708   3.594   5.732  0.6302 -0.3902 -2.0767
  514MOL0     H70865   7.631   3.193   5.613  1.0898  1.2046  0.8446
  514MOL0     H70866   7.709   3.127   5.764  2.0961 -2.4925 -1.9111
  514MOL0     H70867   7.851   3.223   5.515 -0.6817  2.2004  1.6212
  514MOL0     H70868   7.919   3.228   5.672 -1.2870 -1.0886  2.6316
  514MOL0     H70869   7.884   2.985   5.703 -0.7640  1.4425 -0.1227
  514MOL0     H70870   7.797   2.971   5.557 -1.9242  1.2709  1.7313
  514MOL0     H70871   7.993   3.072   5.425  0.4496 -2.5645 -1.7519
  514MOL0     H70872   8.092   3.041   5.569  0.3187  1.1390 -1.4016
  514MOL0     H70873   8.119   2.838   5.419  0.7639  0.4060 -1.1397
  514MOL0     H70874   7.953   2.837   5.390  0.4147 -0.0718 -0.4948
  514MOL0     H70875   8.117   2.747   5.625  0.6618 -0.0771  0.0947
  514MOL0     H70876   7.957   2.790   5.655  1.0305  0.2345 -0.1171
  514MOL0     H70877   7.874   2.630   5.494  0.1086 -0.1932 -0.5150
  514MOL0     H70878   7.983   2.540   5.598 -2.4336 -1.6250 -1.7549
  514MOL0     H70879   8.035   2.455   5.401  0.1675 -0.5687  3.4723
  514MOL0     H70880   8.006   2.612   5.309  0.1807  0.3921  1.7996
  514MOL0     H70881   8.211   2.685   5.205 -1.6524 -0.7968 -0.3343
  514MOL0     H70882   8.527   2.835   5.311  1.5759 -1.3682  1.0929
  514MOL0     H70883   8.447   2.792   5.161  0.9755 -1.6322 -0.9764
  514MOL0     H70884   8.665   2.623   5.281  2.8537  1.7980 -0.2752
  514MOL0     H70885   8.596   2.605   5.116 -0.6727  0.0930 -0.4361
  514MOL0     H70886   8.705   2.809   5.052 -0.2713 -1.9407 -0.5981
  514MOL0     H70887   8.744   2.848   5.235 -0.9371 -0.1156  1.0335
  514MOL0     H70888   8.883   2.674   5.257 -2.5936 -1.4950  1.1455
  514MOL0     H70889   8.846   2.607   5.095  0.1162 -0.3485  0.8849
  514MOL0     H70890   9.001   2.664   4.880 -0.9438  1.4751  1.7617
  514MOL0     H70891   9.245   2.422   4.835 -1.4160 -0.4230 -0.5969
  514MOL0     H70892   9.290   2.558   4.721 -1.9613 -0.4699 -2.2303
  514MOL0     H70893   9.119   2.513   4.754 -1.3272 -1.2806  1.7300
  514MOL0     H70894   9.564   2.293   4.826 -0.2940  0.4796 -0.2282
  514MOL0     H70895   9.797   2.207   4.812 -1.1876 -0.3605  3.0407
  514MOL0     H70896  10.158   2.504   4.769  0.6053 -1.7795 -1.3063
  514MOL0     H70897  10.104   2.507   4.933 -2.6673 -1.8076 -0.0601
  514MOL0     H70898  10.304   2.406   4.954 -0.1915  1.0456 -0.7565
  514MOL0     H70899  10.192   2.263   4.949  0.2463  0.6433 -0.0864
  514MOL0     H70900  10.328   2.355   4.693  1.8486 -1.3604  0.0412
  514MOL0     H70901  10.278   2.196   4.748 -1.1276  0.0966  1.2556
  514MOL0     H70902  10.519   2.372   4.844  0.9460  0.2831  0.4364
  514MOL0     H70903  10.520   2.239   4.731 -0.1033  2.7624 -0.8551
  514MOL0     H70904  10.612   2.201   4.967  0.7897 -0.5447 -2.1398
  514MOL0     H70905  10.428   2.210   5.017 -0.5188 -0.2023  0.0181
  514MOL0     H70906  10.572   2.030   4.826  1.2727  0.2246  0.0940
  514MOL0     H70907  10.401   2.020   4.868 -0.1213  2.4468  0.9866
  514MOL0     H70908  10.626   1.950   5.039 -0.7045  1.2187  0.6008
  514MOL0     H70909  10.497   1.839   4.990 -1.1009 -0.0578  0.5694
  514MOL0     H70910  10.443   2.054   5.193  1.0969  0.3589 -0.5681
  514MOL0     H70911  10.477   1.885   5.225 -2.2018 -0.2583  0.6883
  514MOL0     H70912   9.943   2.612   4.856  0.0507  0.3329  1.7121
  514MOL0     H70913   9.706   2.693   4.888 -0.8282  0.3745  0.0373
  514MOL0     H70914   9.393   2.685   5.202  2.2125  1.2432 -0.7993
  514MOL0     H70915   9.189   2.810   5.236 -3.2173 -0.0635 -0.8346
  514MOL0     H70916   7.457   3.243   5.761  0.1595 -0.7344  0.6009
  514MOL0     H70917   7.258   3.384   5.773  0.0819 -2.4542 -0.7274
  514MOL0     H70918   7.118   4.010   5.753 -0.5632  0.3694 -2.8747
  514MOL0     H70919   6.902   4.084   5.805  1.6496 -0.0236  0.3093
  514MOL0     H70920   6.688   4.119   5.878  2.1760 -0.8577 -0.7355
  514MOL0     H70921   6.663   4.104   5.710 -3.6269  0.6350 -1.0803
  514MOL0     H70922   6.449   4.023   5.902  0.7824 -3.5737 -0.4298
  514MOL0     H70923   6.447   3.989   5.727 -2.3052 -0.9559  1.1430
  514MOL0     H70924   6.456   4.261   5.858  1.3649  3.3612 -4.2177
  514MOL0     H70925   6.461   4.231   5.691  1.1866  1.7817  0.7254
  514MOL0     H70926   6.233   4.278   5.803 -2.4067  0.0686 -1.6697
  514MOL0     H70927   6.229   4.099   5.837 -1.5939  0.0873 -1.1835
  514MOL0     H70928   6.186   4.075   5.425 -1.3709  0.7105 -0.9920
  514MOL0     H70929   6.749   3.680   5.774  0.4178 -0.3058  1.7085
  514MOL0     H70930   7.006   3.500   5.795 -0.8600 -4.6573 -2.4369
  514MOL0     H70931   6.894   3.505   5.664 -0.5694  1.6147 -0.9249
  514MOL0     H70932   7.060   3.537   5.625 -1.2357  1.5896 -2.0245
  515MOL0     O70933   4.488   3.739   6.477 -0.3435 -0.0538 -0.9466
  515MOL0     C70934   4.393   3.716   6.552  0.8927  0.9747 -0.1862
  515MOL0     O70935   4.394   3.702   6.684  0.1181 -0.7893 -0.7669
  515MOL0     C70936   4.504   3.722   6.763 -1.3752  0.3751 -0.6280
  515MOL0     C70937   4.633   3.695   6.721  0.2404  0.0173  1.2701
  515MOL0     C70938   4.740   3.693   6.815 -0.4852 -0.2084 -0.0910
  515MOL0     C70939   4.718   3.732   6.941  0.1173 -0.2400 -0.1523
  515MOL0     O70940   4.806   3.732   7.048  0.1218 -0.8749  0.3978
  515MOL0     C70941   4.941   3.740   7.017 -0.1072 -0.0836  0.3940
  515MOL0     C70942   5.018   3.788   7.150  0.8675  0.1731 -0.5817
  515MOL0     C70943   5.170   3.789   7.139 -0.0354 -0.6063  0.5822
  515MOL0     C70944   5.241   3.932   7.130 -0.4182  0.0049  0.4265
  515MOL0     C70945   5.391   3.916   7.094  0.6215 -0.4733  0.3106
  515MOL0     C70946   5.477   3.870   7.211 -0.4282 -0.2319 -0.3178
  515MOL0     C70947   5.528   3.734   7.182 -0.6209 -0.3699 -0.2207
  515MOL0     C70948   5.635   3.704   7.289 -0.4393 -0.0677  0.2428
  515MOL0     N70949   5.761   3.781   7.258  0.0879  0.0809 -0.4270
  515MOL0     C70950   5.855   3.762   7.155 -0.3052  0.3237 -0.1909
  515MOL0     C70951   5.943   3.866   7.172  0.3575  0.5842  0.6573
  515MOL0     C70952   6.065   3.893   7.086 -0.1760 -0.4017 -0.3224
  515MOL0     C70953   6.050   3.966   6.955  0.0199  1.0967 -0.2411
  515MOL0     C70954   6.169   3.961   6.856 -0.5425  0.5150 -0.5411
  515MOL0     C70955   6.279   4.048   6.915  0.0719 -0.5489 -0.7820
  515MOL0     O70956   6.368   4.065   6.799 -0.2584  0.2564 -0.5336
  515MOL0     C70957   6.440   4.182   6.783  0.3690 -0.0142 -0.2284
  515MOL0     C70958   6.452   4.238   6.650  1.0615 -0.1314 -0.5203
  515MOL0     C70959   6.531   4.351   6.631  0.6748 -0.9935 -0.3750
  515MOL0     C70960   6.532   4.408   6.490  0.1461  0.1269 -0.2843
  515MOL0     C70961   6.594   4.408   6.739 -0.7203  0.4842  0.5448
  515MOL0     C70962   6.662   4.543   6.737  0.3323  0.8212  1.0040
  515MOL0     O70963   6.771   4.556   6.821  0.4785  0.3104 -0.1527
  515MOL0     C70964   6.823   4.679   6.834 -1.2329  0.0071 -0.6524
  515MOL0     C70965   6.962   4.682   6.822 -0.4250  0.0434 -0.1661
  515MOL0     C70966   7.031   4.806   6.832 -0.5621 -0.1927  0.4931
  515MOL0     C70967   6.958   4.922   6.839  0.3531 -0.0266 -0.5412
  515MOL0     O70968   7.022   5.042   6.826 -0.4035 -0.1300 -0.3988
  515MOL0     C70969   6.988   5.149   6.915 -0.3840  0.2787 -0.1902
  515MOL0     C70970   7.111   5.239   6.954  0.3425  0.3935 -0.2855
  515MOL0     C70971   7.161   5.321   6.833  1.0625 -0.6816 -0.3857
  515MOL0     C70972   7.061   5.436   6.784 -0.7760  0.5011 -0.4772
  515MOL0     C70973   7.098   5.456   6.632 -0.3973 -0.9665 -0.1497
  515MOL0     C70974   7.026   5.590   6.604  0.5442  1.0507 -0.6776
  515MOL0     C70975   7.015   5.603   6.456  0.3871 -0.3654  0.2476
  515MOL0     C70976   6.963   5.750   6.422 -0.0431  0.7770  0.1003
  515MOL0    Cl70977   6.801   5.784   6.466 -0.1103 -0.1559 -0.2786
  515MOL0     C70978   6.818   4.916   6.862 -0.2226 -0.0823 -0.2213
  515MOL0     C70979   6.750   4.793   6.857 -0.3906  0.0646  0.5703
  515MOL0     O70980   6.629   4.623   6.642  0.2203 -0.4213 -0.0270
  515MOL0     C70981   6.591   4.346   6.865  0.6484 -0.8461 -0.8197
  515MOL0     C70982   6.507   4.240   6.887 -0.0636 -0.2576 -0.1316
  515MOL0     N70983   5.899   3.937   7.279 -0.7088 -0.2976  0.0165
  515MOL0     N70984   5.796   3.884   7.331 -1.4759 -0.6433 -1.1098
  515MOL0     C70985   4.596   3.769   6.982  0.4316  0.3229 -0.6190
  515MOL0     C70986   4.482   3.759   6.898 -0.0192 -0.3229  0.4985
  515MOL0     C70987   4.257   3.702   6.487  0.1568 -0.0647  0.2304
  515MOL0     C70988   4.174   3.590   6.525  0.2575  0.2956 -0.3827
  515MOL0     C70989   4.043   3.571   6.476 -0.2018 -0.3907 -0.5471
  515MOL0     C70990   3.989   3.661   6.384  0.7564 -0.1530 -0.2708
  515MOL0     O70991   3.860   3.646   6.327 -0.9262  0.1960 -0.0193
  515MOL0     C70992   3.756   3.673   6.419  0.3200  0.6044  0.4586
  515MOL0     C70993   3.626   3.661   6.352 -0.0539 -0.4038  0.1132
  515MOL0     C70994   3.516   3.669   6.456  0.0642  0.5476  0.0087
  515MOL0     C70995   3.380   3.721   6.413  0.3434  0.3711 -0.5551
  515MOL0     C70996   3.266   3.694   6.511 -0.3008  0.7795 -0.2578
  515MOL0     C70997   3.177   3.682   6.589  0.2241  0.9979 -1.1146
  515MOL0     C70998   4.069   3.770   6.345  0.1799  0.0656  0.3289
  515MOL0     C70999   4.201   3.789   6.398 -0.3537  0.7630 -0.0473
  515MOL0     C71000   4.257   3.921   6.365  0.5280 -0.8980  0.8618
  515MOL0     H71001   4.669   3.657   6.626 -0.0456  4.0592 -0.6392
  515MOL0     H71002   4.841   3.674   6.780 -0.1755 -0.3053  0.8372
  515MOL0     H71003   4.959   3.823   6.947  1.8137  0.3188  1.2844
  515MOL0     H71004   4.982   3.649   6.973  0.7428  0.7867 -0.6752
  515MOL0     H71005   4.987   3.892   7.167 -0.1084  0.0309 -1.3632
  515MOL0     H71006   4.979   3.737   7.238 -0.7855  0.6139 -1.0140
  515MOL0     H71007   5.215   3.730   7.219 -1.0782  0.6181  2.1404
  515MOL0     H71008   5.196   3.733   7.049  0.5522 -3.4533  2.3956
  515MOL0     H71009   5.197   3.987   7.046  1.3429  1.7057  0.5402
  515MOL0     H71010   5.221   3.998   7.215  0.3181  0.4735  0.2432
  515MOL0     H71011   5.432   4.006   7.049 -1.4298  0.5313  0.3774
  515MOL0     H71012   5.400   3.840   7.016 -0.0067 -0.9743  0.7182
  515MOL0     H71013   5.552   3.948   7.229  0.6199 -1.4345  0.6629
  515MOL0     H71014   5.421   3.863   7.304 -0.4260 -0.4676 -0.3351
  515MOL0     H71015   5.569   3.728   7.080  0.1774 -0.0766  0.0726
  515MOL0     H71016   5.447   3.664   7.203  0.6155 -1.4112  1.2606
  515MOL0     H71017   5.597   3.718   7.390 -1.3078 -3.1959  0.4565
  515MOL0     H71018   5.665   3.598   7.287  0.4344  0.1767 -0.4068
  515MOL0     H71019   5.862   3.687   7.077  0.3666  0.9446 -0.7377
  515MOL0     H71020   6.094   3.794   7.051  0.0050 -0.3537 -0.3097
  515MOL0     H71021   6.141   3.932   7.155 -1.7688  2.3855 -0.0021
  515MOL0     H71022   5.963   3.927   6.901  0.8362  0.3869 -1.0847
  515MOL0     H71023   6.026   4.071   6.975 -3.0105  0.1403  1.8379
  515MOL0     H71024   6.205   3.859   6.840 -1.2627 -0.2248  2.0257
  515MOL0     H71025   6.133   3.992   6.757 -0.7737  2.1849  0.0389
  515MOL0     H71026   6.241   4.147   6.943  0.9905 -0.2089 -0.7083
  515MOL0     H71027   6.318   4.011   7.010 -0.7618  1.1631  0.2901
  515MOL0     H71028   6.397   4.193   6.567  3.2854 -0.2485 -2.0281
  515MOL0     H71029   6.539   4.324   6.420  1.1236 -1.9066  2.0852
  515MOL0     H71030   6.626   4.464   6.481  0.1051  0.2164 -0.1617
  515MOL0     H71031   6.445   4.466   6.461 -0.9109 -1.0631  0.3756
  515MOL0     H71032   7.015   4.593   6.790  1.5420  1.5245 -1.2070
  515MOL0     H71033   7.134   4.832   6.810 -0.9071  0.8101 -0.0179
  515MOL0     H71034   6.910   5.212   6.871  1.3463  1.8893 -1.0668
  515MOL0     H71035   6.950   5.103   7.007  4.2363 -0.3240  1.6638
  515MOL0     H71036   7.081   5.296   7.043  0.9840 -1.9597  1.5244
  515MOL0     H71037   7.203   5.188   6.984  0.8066 -0.5418 -3.0105
  515MOL0     H71038   7.178   5.243   6.758  0.7218  1.1549 -2.4526
  515MOL0     H71039   7.254   5.372   6.861 -0.5826  1.8893  0.7521
  515MOL0     H71040   7.083   5.525   6.843  1.5186  0.6111 -1.3971
  515MOL0     H71041   6.959   5.397   6.788  0.1087 -2.4185 -2.4400
  515MOL0     H71042   7.205   5.472   6.617 -0.7887  0.4530 -1.7375
  515MOL0     H71043   7.069   5.376   6.564  1.4640 -1.5108 -0.3520
  515MOL0     H71044   7.075   5.676   6.649  0.6134 -0.5911  2.6477
  515MOL0     H71045   6.926   5.584   6.648  0.3756  1.4759 -0.9915
  515MOL0     H71046   6.959   5.515   6.422 -2.8664  1.6004  0.1037
  515MOL0     H71047   7.110   5.593   6.403  1.4533 -2.0229  2.3083
  515MOL0     H71048   6.981   5.774   6.317 -0.5551  0.4993 -0.0546
  515MOL0     H71049   7.026   5.821   6.476  1.4909 -1.0492  0.8268
  515MOL0     H71050   6.774   5.013   6.881 -1.1098 -0.8093  1.6965
  515MOL0     H71051   6.644   4.778   6.874 -0.0430 -0.8902  2.1476
  515MOL0     H71052   6.632   4.394   6.953 -0.6383 -2.7986  0.9374
  515MOL0     H71053   6.489   4.199   6.986 -0.8957  2.6652  1.0433
  515MOL0     H71054   4.575   3.799   7.085  2.0150  2.6743 -0.9050
  515MOL0     H71055   4.383   3.766   6.940 -0.3790  1.4158 -0.5326
  515MOL0     H71056   4.206   3.521   6.602  0.0834  0.5094 -0.1143
  515MOL0     H71057   3.987   3.488   6.520 -1.6109  1.0970  0.5768
  515MOL0     H71058   3.767   3.611   6.508  0.6146  0.1426  0.1043
  515MOL0     H71059   3.749   3.776   6.455  0.8870  0.3690  1.2574
  515MOL0     H71060   3.620   3.566   6.298 -1.4153  0.7509 -1.8964
  515MOL0     H71061   3.618   3.743   6.280 -0.6938 -0.7080 -0.1776
  515MOL0     H71062   3.486   3.567   6.484  0.5863  0.3955  0.0185
  515MOL0     H71063   3.540   3.723   6.548 -1.4607  0.2676  0.6006
  515MOL0     H71064   3.370   3.680   6.312  1.3155 -0.0273 -0.5050
  515MOL0     H71065   3.386   3.831   6.411  3.2609  0.4210  2.2254
  515MOL0     H71066   3.108   3.659   6.668 -0.3518  1.3260 -1.5148
  515MOL0     H71067   4.025   3.845   6.280  1.8901  0.9561  0.1453
  515MOL0     H71068   4.333   3.896   6.290  3.0262  1.4268  2.4401
  515MOL0     H71069   4.176   3.985   6.330 -0.2080 -0.9546  2.4248
  515MOL0     H71070   4.318   3.969   6.442  2.2257 -1.5072 -0.0315
  516MOL0     O71071   4.729   0.159   2.727 -0.2949 -0.5939 -0.8606
  516MOL0     C71072   4.620   0.179   2.775  0.5608  0.3763 -0.1105
  516MOL0     O71073   4.587   0.272   2.870  0.1163 -0.7401  0.0073
  516MOL0     C71074   4.677   0.354   2.924 -0.0957  0.3475 -0.1402
  516MOL0     C71075   4.793   0.299   2.981  0.7992  0.5553 -0.0896
  516MOL0     C71076   4.879   0.389   3.047  0.0693 -0.1526 -0.2512
  516MOL0     C71077   4.860   0.530   3.047  0.5183 -0.4802 -0.5453
  516MOL0     O71078   4.929   0.615   3.124 -0.6047  0.3074  0.2936
  516MOL0     C71079   4.968   0.739   3.058  0.1716 -0.0118  0.3891
  516MOL0     C71080   5.073   0.822   3.144  0.4789  0.7290 -0.1122
  516MOL0     C71081   5.210   0.756   3.161  0.5235  0.3374 -0.3229
  516MOL0     C71082   5.321   0.804   3.065  0.1254 -0.2487 -0.0861
  516MOL0     C71083   5.448   0.740   3.100 -0.6616 -0.2182  0.2665
  516MOL0     C71084   5.563   0.796   3.005  0.3382  0.3939  0.0235
  516MOL0     C71085   5.688   0.717   3.007  1.0970  0.3498  0.6693
  516MOL0     C71086   5.681   0.597   2.911 -0.3643 -0.3776  0.2691
  516MOL0     N71087   5.678   0.631   2.769 -0.1474  0.0276 -0.1716
  516MOL0     C71088   5.564   0.649   2.693  0.3744 -0.4728  0.0845
  516MOL0     C71089   5.605   0.706   2.579  0.2427  0.1788  0.8825
  516MOL0     C71090   5.535   0.730   2.446  0.2509 -0.1730  0.1934
  516MOL0     C71091   5.536   0.618   2.346  0.3255 -0.5366  0.3518
  516MOL0     C71092   5.639   0.639   2.234 -0.1817 -0.5092  0.3646
  516MOL0     C71093   5.658   0.512   2.158 -0.4781  0.3841  0.3559
  516MOL0     O71094   5.707   0.537   2.026 -0.7264 -0.2513  0.4490
  516MOL0     C71095   5.715   0.433   1.935 -0.4684  0.1456  0.0665
  516MOL0     C71096   5.641   0.314   1.948 -0.0752  0.1783  0.3893
  516MOL0     C71097   5.655   0.212   1.851 -0.2153  0.1219 -0.4130
  516MOL0     C71098   5.584   0.083   1.885  0.3665 -0.6869 -0.9786
  516MOL0     C71099   5.739   0.227   1.743 -0.1921  0.0101 -0.0329
  516MOL0     C71100   5.756   0.131   1.639 -0.1597 -0.4847  0.2763
  516MOL0     O71101   5.885   0.115   1.593  0.0626  0.3249 -0.7882
  516MOL0     C71102   5.909   0.047   1.479  0.5867  0.4544  0.6752
  516MOL0     C71103   5.973  -0.078   1.483  0.0068 -0.3242 -0.8571
  516MOL0     C71104   6.002  -0.160   1.371 -0.2043 -0.7194 -0.5276
  516MOL0     C71105   5.948  -0.107   1.246  0.2277  0.5410 -0.1739
  516MOL0     O71106   5.961  -0.180   1.126 -0.0986  0.1468 -0.6165
  516MOL0     C71107   5.984  -0.323   1.144 -0.0252  0.3499  0.0678
  516MOL0     C71108   5.875  -0.400   1.218 -0.0550  0.3849  0.4579
  516MOL0     C71109   5.739  -0.398   1.146 -1.2538 -0.0956 -1.1487
  516MOL0     C71110   5.627  -0.477   1.232 -0.0531 -0.0305  0.3375
  516MOL0     C71111   5.489  -0.475   1.165 -0.0882 -0.0631 -0.0400
  516MOL0     C71112   5.483  -0.508   1.014 -1.0576  0.9493 -0.5995
  516MOL0     C71113   5.337  -0.501   0.960  0.4835 -0.1487  0.2562
  516MOL0     C71114   5.338  -0.555   0.810  0.0828  0.7030 -0.8996
  516MOL0    Cl71115   5.169  -0.576   0.757 -0.3754 -0.1226  0.2126
  516MOL0     C71116   5.885   0.011   1.238 -0.3717 -0.0889 -0.2322
  516MOL0     C71117   5.879   0.091   1.351  0.8205 -0.0582  0.5460
  516MOL0     O71118   5.658   0.089   1.585  0.8941  0.2825  0.3723
  516MOL0     C71119   5.825   0.346   1.734  0.7906  0.5113 -0.3999
  516MOL0     C71120   5.812   0.442   1.832 -0.4995 -0.6265  0.7559
  516MOL0     N71121   5.744   0.744   2.595  0.2066 -0.0921  0.7662
  516MOL0     N71122   5.782   0.690   2.701 -0.3966  0.1511  0.3291
  516MOL0     C71123   4.753   0.584   2.974 -0.2176  0.1302  0.5210
  516MOL0     C71124   4.664   0.491   2.919  0.3040  0.4196 -0.2345
  516MOL0     C71125   4.514   0.087   2.741  0.6008  0.8454  0.4331
  516MOL0     C71126   4.541  -0.052   2.765  0.5936 -0.4499  0.3095
  516MOL0     C71127   4.434  -0.144   2.758 -0.3184 -0.0659 -0.0813
  516MOL0     C71128   4.307  -0.106   2.713  0.6003 -0.3073 -0.4488
  516MOL0     O71129   4.193  -0.176   2.720  0.8534 -0.2607 -0.3831
  516MOL0     C71130   4.193  -0.314   2.690 -0.0000  0.2234  0.0444
  516MOL0     C71131   4.155  -0.336   2.541  0.5865 -0.1164 -0.6619
  516MOL0     C71132   4.009  -0.302   2.513 -0.2031 -1.1649  0.0778
  516MOL0     C71133   3.917  -0.404   2.569 -0.7435  0.2114 -0.3004
  516MOL0     C71134   3.782  -0.359   2.545 -0.5792 -0.0541 -0.3190
  516MOL0     C71135   3.666  -0.313   2.536 -0.3273  0.1798 -0.7221
  516MOL0     C71136   4.286   0.031   2.688  0.9658 -0.2648  0.4361
  516MOL0     C71137   4.383   0.128   2.708 -0.5327  0.5266  0.1707
  516MOL0     C71138   4.345   0.277   2.677  0.6363  1.0155  0.2898
  516MOL0     H71139   4.810   0.192   2.990 -1.6088  0.0101 -1.1815
  516MOL0     H71140   4.961   0.348   3.107 -2.7206 -1.0037  3.3201
  516MOL0     H71141   4.878   0.800   3.049 -1.1795 -0.9161  4.9066
  516MOL0     H71142   5.013   0.720   2.960  0.2087 -2.3811  0.7970
  516MOL0     H71143   5.099   0.920   3.104 -0.5331  1.4483  0.9234
  516MOL0     H71144   5.028   0.852   3.239 -0.2358  2.7224 -1.0282
  516MOL0     H71145   5.243   0.786   3.260 -1.6446  4.1101 -0.5738
  516MOL0     H71146   5.189   0.649   3.162  0.7910  0.2625 -1.1596
  516MOL0     H71147   5.288   0.780   2.964  1.0981 -1.5781 -0.1198
  516MOL0     H71148   5.338   0.912   3.077  0.5994 -0.2496 -0.7085
  516MOL0     H71149   5.442   0.630   3.099  1.3433 -0.3683 -0.5430
  516MOL0     H71150   5.479   0.765   3.202  0.2213  3.6347 -0.8101
  516MOL0     H71151   5.515   0.798   2.906 -1.0672  1.7759  0.6743
  516MOL0     H71152   5.587   0.899   3.034 -0.1142  0.1155  1.4541
  516MOL0     H71153   5.694   0.680   3.110 -0.8055 -0.4501  0.5299
  516MOL0     H71154   5.780   0.771   2.985  3.4819 -2.9456  1.6987
  516MOL0     H71155   5.776   0.547   2.930  0.1081  0.3089 -0.2436
  516MOL0     H71156   5.597   0.531   2.935 -2.9435  2.6496  0.2392
  516MOL0     H71157   5.465   0.614   2.721  0.6577  1.3724  4.0460
  516MOL0     H71158   5.576   0.818   2.396  4.1166 -1.4432  0.7836
  516MOL0     H71159   5.433   0.750   2.481  0.3218  2.3435 -0.8440
  516MOL0     H71160   5.569   0.529   2.400 -0.4082 -0.8313  0.3274
  516MOL0     H71161   5.436   0.615   2.302  1.0978  0.4167 -1.5978
  516MOL0     H71162   5.599   0.722   2.174 -1.3101 -0.1915  1.5279
  516MOL0     H71163   5.737   0.654   2.280 -0.2087 -1.3317  0.7006
  516MOL0     H71164   5.722   0.443   2.214 -0.7656  0.5659  0.9165
  516MOL0     H71165   5.563   0.457   2.153  1.2014 -2.6383 -0.6728
  516MOL0     H71166   5.581   0.298   2.037 -0.7413  2.2500  0.3698
  516MOL0     H71167   5.609   0.069   1.991 -2.1438  2.0287  0.1288
  516MOL0     H71168   5.616  -0.002   1.825  3.3702 -0.8835  0.7260
  516MOL0     H71169   5.475   0.087   1.879  0.1294 -2.6243  0.8291
  516MOL0     H71170   6.003  -0.111   1.582 -0.5385  2.1795  0.2238
  516MOL0     H71171   6.038  -0.258   1.399  1.1508 -0.0889  0.0106
  516MOL0     H71172   5.988  -0.361   1.041 -3.8956  1.5208 -0.6864
  516MOL0     H71173   6.079  -0.341   1.193  0.3084  1.1058 -0.2822
  516MOL0     H71174   5.914  -0.502   1.224 -0.7316  0.1333  0.6675
  516MOL0     H71175   5.857  -0.367   1.321  1.6533 -2.9446  1.9951
  516MOL0     H71176   5.758  -0.430   1.043 -0.7903  1.9479 -1.7424
  516MOL0     H71177   5.712  -0.294   1.130 -3.9604 -0.6845 -0.8727
  516MOL0     H71178   5.619  -0.420   1.325  0.9155 -2.0304  1.7382
  516MOL0     H71179   5.667  -0.576   1.256 -1.5632 -0.7390 -0.0150
  516MOL0     H71180   5.421  -0.526   1.234 -2.1376  1.5249 -0.7764
  516MOL0     H71181   5.466  -0.368   1.172  2.2141  0.3985  1.9524
  516MOL0     H71182   5.522  -0.609   0.999 -1.3279  0.6030  0.8602
  516MOL0     H71183   5.532  -0.435   0.949 -2.5885  0.1539 -2.7708
  516MOL0     H71184   5.306  -0.396   0.973  0.8543 -0.2056  1.7961
  516MOL0     H71185   5.265  -0.568   1.008  0.3550  0.2457  0.6237
  516MOL0     H71186   5.369  -0.660   0.811 -0.8646  0.4080 -0.9264
  516MOL0     H71187   5.392  -0.498   0.734 -0.2304  1.2977 -0.6785
  516MOL0     H71188   5.843   0.037   1.141  1.0274 -0.4275 -0.9646
  516MOL0     H71189   5.824   0.183   1.334  1.5093 -0.2355 -4.1774
  516MOL0     H71190   5.871   0.376   1.640 -0.5411  0.2468 -1.1699
  516MOL0     H71191   5.885   0.521   1.820  1.0857 -2.3389 -1.5104
  516MOL0     H71192   4.728   0.688   2.956 -1.8943  0.5536  4.3176
  516MOL0     H71193   4.577   0.525   2.864 -1.5898 -4.0100 -0.4205
  516MOL0     H71194   4.639  -0.081   2.805  2.0134  4.4700  1.0138
  516MOL0     H71195   4.451  -0.249   2.781  0.0341 -0.4855 -2.0780
  516MOL0     H71196   4.296  -0.349   2.700  0.6430  2.2132  1.1922
  516MOL0     H71197   4.130  -0.366   2.762  0.5157  3.9327  3.5967
  516MOL0     H71198   4.179  -0.439   2.513 -1.0326 -0.8960  0.6575
  516MOL0     H71199   4.215  -0.264   2.485 -1.4884  2.0123 -0.3160
  516MOL0     H71200   3.977  -0.205   2.552  0.6307 -1.5225  1.7501
  516MOL0     H71201   3.998  -0.300   2.404 -1.8369 -2.3133  0.1805
  516MOL0     H71202   3.932  -0.416   2.677  0.5295 -4.7125 -0.7862
  516MOL0     H71203   3.945  -0.506   2.540 -0.1141  0.6729 -1.4037
  516MOL0     H71204   3.564  -0.281   2.544  0.3994  2.5091  0.0582
  516MOL0     H71205   4.187   0.064   2.662  1.8963  2.0364 -0.4573
  516MOL0     H71206   4.326   0.335   2.768 -1.2858 -0.6028  0.9835
  516MOL0     H71207   4.423   0.324   2.617  1.0964 -0.5471 -0.3917
  516MOL0     H71208   4.251   0.271   2.622  0.8215  1.9171 -0.1430
  517MOL0     O71209   4.688   3.816   7.950 -0.0350  0.6689  0.1508
  517MOL0     C71210   4.702   3.703   7.903 -0.2953 -0.9091  0.4964
  517MOL0     O71211   4.819   3.627   7.901  0.7228 -0.2823  0.0295
  517MOL0     C71212   4.940   3.679   7.935 -0.6569  0.5772 -0.5487
  517MOL0     C71213   5.021   3.593   8.006 -0.4050  0.1346 -0.5650
  517MOL0     C71214   5.160   3.634   8.030 -0.6534  0.4204 -0.3804
  517MOL0     C71215   5.209   3.760   8.001  0.2988  0.0600  0.1913
  517MOL0     O71216   5.337   3.790   8.050  0.3374  0.1375  0.2870
  517MOL0     C71217   5.399   3.917   8.023 -0.8499  0.7585  0.8994
  517MOL0     C71218   5.533   3.930   8.091  0.3197 -0.5611 -0.0667
  517MOL0     C71219   5.629   3.812   8.074 -0.5870  0.1463  0.4929
  517MOL0     C71220   5.768   3.834   8.137  0.1365 -0.0300 -0.0430
  517MOL0     C71221   5.860   3.709   8.109  0.0227 -1.0140  0.0705
  517MOL0     C71222   6.007   3.718   8.153  0.0853 -0.0326 -0.0210
  517MOL0     C71223   6.030   3.726   8.302 -1.5761  0.5731  0.7176
  517MOL0     C71224   6.175   3.721   8.355  0.1039 -0.1049 -0.1814
  517MOL0     N71225   6.177   3.717   8.507 -0.0728  0.0779  0.3818
  517MOL0     C71226   6.185   3.603   8.587 -0.4943 -0.0601 -0.4173
  517MOL0     C71227   6.222   3.654   8.707  0.0986 -0.8440  0.2128
  517MOL0     C71228   6.260   3.578   8.826  0.3507  0.4550  0.0183
  517MOL0     C71229   6.356   3.650   8.923  0.1257 -0.2932  0.0844
  517MOL0     C71230   6.392   3.547   9.038 -0.3285 -0.1983  0.3894
  517MOL0     C71231   6.482   3.626   9.140  0.8284 -1.1282 -0.2029
  517MOL0     O71232   6.618   3.623   9.098  0.6821 -0.3123  0.3096
  517MOL0     C71233   6.702   3.688   9.177 -0.3544  0.2171  0.1020
  517MOL0     C71234   6.725   3.829   9.181 -0.2858 -0.5221 -0.1951
  517MOL0     C71235   6.805   3.888   9.274 -1.5567 -0.2447 -0.5886
  517MOL0     C71236   6.805   4.039   9.284  0.6497 -1.3127  0.5115
  517MOL0     C71237   6.880   3.810   9.365 -0.8862 -0.2205  0.4851
  517MOL0     C71238   6.963   3.865   9.479 -0.1688 -0.1305 -0.0786
  517MOL0     O71239   7.043   3.968   9.443 -0.1128  0.0041 -0.5484
  517MOL0     C71240   7.110   4.043   9.525  1.0893  0.3938 -0.4069
  517MOL0     C71241   7.233   4.014   9.563  0.3881  0.6687 -0.1077
  517MOL0     C71242   7.306   4.095   9.644 -0.2761  0.0794 -0.4386
  517MOL0     C71243   7.249   4.224   9.681  0.0549  1.5356 -0.1622
  517MOL0     O71244   7.295   4.312   9.771  0.2297 -0.2822  0.0250
  517MOL0     C71245   7.440   4.325   9.797 -0.0747 -0.5037 -0.2442
  517MOL0     C71246   7.473   4.456   9.875 -0.1766  0.0856 -0.5845
  517MOL0     C71247   7.455   4.587   9.796 -0.5463  0.5764  0.5304
  517MOL0     C71248   7.568   4.611   9.700 -0.1114 -0.4481  0.1776
  517MOL0     C71249   7.524   4.713   9.590  0.0518 -0.3488 -0.0787
  517MOL0     C71250   7.634   4.758   9.483 -0.3195 -0.4564  0.6682
  517MOL0     C71251   7.758   4.829   9.527 -0.0054  0.1345  0.3327
  517MOL0     C71252   7.748   4.960   9.608 -0.2873  0.2941  0.5158
  517MOL0    Cl71253   7.670   5.066   9.499  0.3203 -0.4405 -0.0135
  517MOL0     C71254   7.121   4.257   9.629  0.0049 -0.2462 -0.3664
  517MOL0     C71255   7.049   4.164   9.558  0.1364 -0.0170  1.2417
  517MOL0     O71256   6.976   3.802   9.588  0.1251  0.0969 -0.2298
  517MOL0     C71257   6.865   3.669   9.358 -0.5990 -0.1714  0.3309
  517MOL0     C71258   6.779   3.608   9.261 -0.3210 -0.6320 -0.6250
  517MOL0     N71259   6.226   3.787   8.699  0.2370  0.1598 -0.6721
  517MOL0     N71260   6.202   3.821   8.582 -0.6949  0.8942 -0.3962
  517MOL0     C71261   5.126   3.852   7.933 -0.0133 -0.6691 -0.7840
  517MOL0     C71262   4.993   3.810   7.908  0.1109 -0.5656  0.4453
  517MOL0     C71263   4.590   3.647   7.833  0.6119 -0.4744  1.0535
  517MOL0     C71264   4.498   3.581   7.900 -0.3934  0.0481  0.2197
  517MOL0     C71265   4.395   3.515   7.819 -0.0971  0.6771 -0.0459
  517MOL0     C71266   4.387   3.516   7.685  0.0067  0.8112 -0.7247
  517MOL0     O71267   4.290   3.448   7.612  1.1900  0.0514  0.2540
  517MOL0     C71268   4.187   3.372   7.685  0.4742  0.2017  0.3242
  517MOL0     C71269   4.090   3.308   7.577  0.0795 -0.6452  0.1619
  517MOL0     C71270   3.966   3.242   7.634 -0.0056  0.4313 -0.0726
  517MOL0     C71271   3.869   3.210   7.522  0.7552 -0.1803  0.4026
  517MOL0     C71272   3.915   3.119   7.418  0.5161 -0.0389  0.1662
  517MOL0     C71273   3.960   3.043   7.337 -0.2094 -0.2270  0.3324
  517MOL0     C71274   4.484   3.590   7.619  0.1563 -0.0639 -0.1216
  517MOL0     C71275   4.584   3.654   7.689  0.3265 -0.7688 -0.3991
  517MOL0     C71276   4.691   3.721   7.599  0.1255  0.9204  0.1722
  517MOL0     H71277   4.999   3.496   8.049  1.2268  0.9960  2.4770
  517MOL0     H71278   5.233   3.562   8.063  0.4048  1.9982  0.8949
  517MOL0     H71279   5.335   3.995   8.064 -2.8560 -0.6275  0.5316
  517MOL0     H71280   5.407   3.933   7.915 -1.8890  1.9617  0.9729
  517MOL0     H71281   5.577   4.018   8.044  0.6700 -1.4073 -1.3985
  517MOL0     H71282   5.512   3.936   8.198 -1.6121 -1.6802 -0.3252
  517MOL0     H71283   5.599   3.724   8.132  2.2685 -0.4277  1.2588
  517MOL0     H71284   5.649   3.779   7.972  0.4850  0.6893  0.5165
  517MOL0     H71285   5.816   3.926   8.102  1.6687 -0.8199 -0.1335
  517MOL0     H71286   5.748   3.857   8.242 -0.6893  0.9603 -0.4006
  517MOL0     H71287   5.869   3.707   8.000 -0.2740 -3.1032  0.0442
  517MOL0     H71288   5.822   3.613   8.146  0.5687 -1.1957  0.1625
  517MOL0     H71289   6.052   3.630   8.106  1.3863  1.8263 -2.5324
  517MOL0     H71290   6.035   3.806   8.093  1.4258  0.3707  1.1360
  517MOL0     H71291   5.974   3.640   8.339  0.4330 -0.3126  1.8905
  517MOL0     H71292   5.975   3.805   8.353 -0.4560  0.2840  2.4626
  517MOL0     H71293   6.215   3.631   8.308 -1.0735  0.4032 -2.3048
  517MOL0     H71294   6.243   3.804   8.336  2.3601 -1.2933  2.1361
  517MOL0     H71295   6.160   3.503   8.552 -2.5336 -0.0043  0.7411
  517MOL0     H71296   6.309   3.485   8.798  1.2248  1.0131 -0.3504
  517MOL0     H71297   6.169   3.562   8.884  0.9724 -1.5837  0.4963
  517MOL0     H71298   6.446   3.670   8.865  2.3081 -2.4285  2.5227
  517MOL0     H71299   6.320   3.748   8.956 -1.6659 -1.1538  0.8470
  517MOL0     H71300   6.319   3.501   9.105  2.4182 -0.0031  3.8200
  517MOL0     H71301   6.452   3.468   8.992 -1.8061 -1.0743 -0.1047
  517MOL0     H71302   6.448   3.730   9.135  0.6076 -1.1766  0.2151
  517MOL0     H71303   6.476   3.591   9.244  0.7083  0.1079  0.2285
  517MOL0     H71304   6.666   3.902   9.126 -0.9673  0.8465  2.2454
  517MOL0     H71305   6.716   4.073   9.230  0.5222 -4.1111 -1.2493
  517MOL0     H71306   6.887   4.098   9.241 -1.1944  0.8843 -0.2328
  517MOL0     H71307   6.804   4.064   9.390 -0.6540 -1.1066  0.4585
  517MOL0     H71308   7.278   3.918   9.539 -3.1491 -1.7592  2.0737
  517MOL0     H71309   7.406   4.072   9.678 -0.4950  1.4440  1.2943
  517MOL0     H71310   7.462   4.230   9.847  0.0048 -1.1480 -1.4643
  517MOL0     H71311   7.495   4.343   9.703  0.6188  0.3653  0.3125
  517MOL0     H71312   7.404   4.451   9.959 -1.3187 -0.8577 -1.5367
  517MOL0     H71313   7.575   4.451   9.914 -0.6516  0.4287  0.7379
  517MOL0     H71314   7.463   4.673   9.864 -1.5824  1.0241  0.1143
  517MOL0     H71315   7.358   4.584   9.745 -0.1889 -0.1243 -0.1152
  517MOL0     H71316   7.595   4.513   9.660  4.0539  1.2856 -1.9284
  517MOL0     H71317   7.647   4.658   9.759  0.7911 -0.6369 -0.8576
  517MOL0     H71318   7.434   4.671   9.546 -1.2533 -1.3716  3.2681
  517MOL0     H71319   7.488   4.805   9.638 -0.1973 -0.6635  0.3401
  517MOL0     H71320   7.584   4.825   9.413 -1.5671 -0.7887  1.2186
  517MOL0     H71321   7.665   4.672   9.424  0.9801 -1.8135  3.1452
  517MOL0     H71322   7.808   4.854   9.433 -0.9667 -2.4756 -0.9808
  517MOL0     H71323   7.826   4.770   9.590  0.6853 -0.9217 -1.3337
  517MOL0     H71324   7.843   5.002   9.641 -0.3366  0.2251  0.7440
  517MOL0     H71325   7.685   4.939   9.695 -2.2633 -1.3276 -1.1894
  517MOL0     H71326   7.079   4.354   9.652  3.8510  1.6232 -0.5388
  517MOL0     H71327   6.955   4.192   9.511  1.2445  0.6639 -0.6839
  517MOL0     H71328   6.905   3.599   9.431 -2.2000 -1.6786 -0.1828
  517MOL0     H71329   6.768   3.500   9.258 -2.1107 -0.5408  0.7453
  517MOL0     H71330   5.152   3.957   7.925 -0.3610 -0.5917 -0.9260
  517MOL0     H71331   4.937   3.891   7.862  1.2998  0.1951  0.2802
  517MOL0     H71332   4.503   3.577   8.008  0.2648 -0.6687  0.1767
  517MOL0     H71333   4.319   3.458   7.873  3.8724 -1.5836  3.8282
  517MOL0     H71334   4.226   3.296   7.752  0.1434  0.9726  1.4282
  517MOL0     H71335   4.117   3.441   7.734  1.6458  1.1085  0.7740
  517MOL0     H71336   4.156   3.232   7.535  1.8477 -0.0624  1.7304
  517MOL0     H71337   4.063   3.378   7.497  2.3133 -0.1782 -0.2324
  517MOL0     H71338   3.979   3.168   7.713 -0.6532 -0.5299 -0.8386
  517MOL0     H71339   3.917   3.320   7.693 -0.8127 -0.5985  0.6557
  517MOL0     H71340   3.836   3.305   7.480  0.7207  1.3145  3.4928
  517MOL0     H71341   3.781   3.169   7.573  1.4842 -1.9933  0.2968
  517MOL0     H71342   4.018   2.987   7.267  0.7127  1.9849 -0.7763
  517MOL0     H71343   4.481   3.601   7.511 -0.5758  0.7020 -0.0339
  517MOL0     H71344   4.750   3.635   7.566 -0.5566 -0.0712  1.4687
  517MOL0     H71345   4.646   3.777   7.516  1.7498  0.7426 -0.8920
  517MOL0     H71346   4.762   3.792   7.643  3.5628 -1.4825 -1.0127
  518MOL0     O71347   3.550   1.632   1.934  0.6736 -0.3676  0.5251
  518MOL0     C71348   3.602   1.600   2.039  0.2016 -0.2967  0.3078
  518MOL0     O71349   3.535   1.546   2.147 -0.0485 -0.2317 -0.9918
  518MOL0     C71350   3.397   1.537   2.131  0.1765  0.3636 -0.2435
  518MOL0     C71351   3.357   1.421   2.079 -0.4158 -0.0154 -0.5430
  518MOL0     C71352   3.222   1.390   2.058  0.0107 -0.5576 -0.5946
  518MOL0     C71353   3.121   1.487   2.086  0.1594 -0.3914 -0.5974
  518MOL0     O71354   2.991   1.469   2.047 -0.5423  0.2983  0.3505
  518MOL0     C71355   2.904   1.376   2.111  0.5301 -0.4774 -0.5828
  518MOL0     C71356   2.777   1.358   2.032  0.5407 -0.4293  0.4645
  518MOL0     C71357   2.807   1.345   1.879 -0.2212 -0.5226 -0.0369
  518MOL0     C71358   2.757   1.460   1.794  0.5198 -0.2083  0.8556
  518MOL0     C71359   2.777   1.449   1.648 -1.0930  0.1990 -0.3219
  518MOL0     C71360   2.738   1.573   1.577 -0.2339  0.1791 -0.2527
  518MOL0     C71361   2.775   1.574   1.435 -0.9841 -0.3685  0.1701
  518MOL0     C71362   2.726   1.698   1.358 -0.5686 -0.1909  0.3068
  518MOL0     N71363   2.751   1.831   1.413 -0.1074 -0.1139 -0.4323
  518MOL0     C71364   2.879   1.894   1.430  0.6627  0.5839  0.1396
  518MOL0     C71365   2.853   2.017   1.478 -0.1155  1.0890 -0.0067
  518MOL0     C71366   2.956   2.120   1.511  0.0723 -0.0087  0.2218
  518MOL0     C71367   3.060   2.153   1.405 -0.3223  0.3056  0.1049
  518MOL0     C71368   3.011   2.154   1.262  0.1766  1.0320  0.1991
  518MOL0     C71369   3.117   2.222   1.164 -0.3411  0.3915  0.6629
  518MOL0     O71370   3.113   2.157   1.036  0.1576 -0.3054  0.2992
  518MOL0     C71371   3.236   2.139   0.985 -1.1616 -0.9468 -0.0929
  518MOL0     C71372   3.293   2.008   0.955  0.2379 -0.0666 -0.3443
  518MOL0     C71373   3.415   1.996   0.889 -0.6036 -0.1848 -0.3039
  518MOL0     C71374   3.454   1.856   0.845 -0.0985  0.2001 -0.2082
  518MOL0     C71375   3.496   2.113   0.878  0.7185 -0.4696  0.2607
  518MOL0     C71376   3.640   2.113   0.836 -0.3484  0.4664 -0.0720
  518MOL0     O71377   3.698   2.230   0.790 -0.1347 -0.6311  0.4766
  518MOL0     C71378   3.821   2.235   0.733 -0.3671 -0.0381 -0.2712
  518MOL0     C71379   3.933   2.162   0.777  0.1101  0.8116 -0.7066
  518MOL0     C71380   4.055   2.191   0.721 -0.0061 -0.3907  0.6221
  518MOL0     C71381   4.067   2.275   0.608 -0.9223 -0.2578  0.1943
  518MOL0     O71382   4.198   2.293   0.563 -0.1361 -0.0903  0.6852
  518MOL0     C71383   4.222   2.325   0.429 -0.1464  0.4373  0.2186
  518MOL0     C71384   4.379   2.343   0.416 -1.3405  0.0252  1.6366
  518MOL0     C71385   4.422   2.387   0.280  0.2628  0.9433 -0.9580
  518MOL0     C71386   4.554   2.454   0.274  0.4074 -0.2622  0.3733
  518MOL0     C71387   4.596   2.499   0.132 -0.1126  0.3350 -0.5995
  518MOL0     C71388   4.748   2.543   0.136  0.5793  0.4381  0.0290
  518MOL0     C71389   4.852   2.430   0.179 -0.5897  0.0554  1.0569
  518MOL0     C71390   4.829   2.295   0.104 -0.3435 -0.3887 -0.8025
  518MOL0    Cl71391   4.964   2.188   0.169 -0.2207 -0.1225  0.3260
  518MOL0     C71392   3.961   2.342   0.564  0.1051  0.6147  0.2272
  518MOL0     C71393   3.836   2.320   0.623  0.4476 -0.4635  0.0341
  518MOL0     O71394   3.693   2.004   0.837 -0.0665 -0.7029  1.1253
  518MOL0     C71395   3.449   2.233   0.920 -0.0343 -0.3305  0.6818
  518MOL0     C71396   3.320   2.254   0.967 -0.7333  0.7864 -0.6283
  518MOL0     N71397   2.717   2.030   1.491  0.1738 -0.3691  0.2279
  518MOL0     N71398   2.653   1.920   1.448  0.6412 -0.3106 -0.4265
  518MOL0     C71399   3.162   1.613   2.131 -0.0830 -0.1836  0.0777
  518MOL0     C71400   3.300   1.630   2.155  0.0670 -0.4514 -1.1854
  518MOL0     C71401   3.740   1.645   2.060  0.7554  0.0666  0.6884
  518MOL0     C71402   3.851   1.557   2.033 -0.1651 -0.6575  0.1526
  518MOL0     C71403   3.983   1.603   2.056  0.3535  0.0750 -0.0184
  518MOL0     C71404   4.002   1.739   2.093  0.0056 -0.3455 -0.0396
  518MOL0     O71405   4.131   1.784   2.110  0.2608  0.3687  1.0969
  518MOL0     C71406   4.206   1.804   1.985 -0.2373 -0.6935 -0.1740
  518MOL0     C71407   4.217   1.955   1.950  0.2068 -0.2887  0.4608
  518MOL0     C71408   4.260   1.986   1.805  0.4801  0.1015 -0.1818
  518MOL0     C71409   4.382   1.927   1.755  0.2645  0.1190 -0.0244
  518MOL0     C71410   4.406   1.984   1.622  0.2645  0.1586 -0.4584
  518MOL0     C71411   4.416   2.029   1.511  0.1162 -0.4291  0.4228
  518MOL0     C71412   3.891   1.821   2.121 -0.0590  0.3296 -0.7546
  518MOL0     C71413   3.762   1.773   2.106  0.8742 -0.2386  0.4119
  518MOL0     C71414   3.645   1.865   2.140 -0.6108 -0.1446  0.0199
  518MOL0     H71415   3.435   1.351   2.052  1.2786  1.0965  1.1776
  518MOL0     H71416   3.200   1.292   2.018  3.4858 -0.6435 -2.6220
  518MOL0     H71417   2.884   1.407   2.214  0.4782 -1.3671 -0.3151
  518MOL0     H71418   2.947   1.275   2.114  2.7122  0.4100 -0.1916
  518MOL0     H71419   2.729   1.267   2.069 -1.9466 -0.0089 -1.4688
  518MOL0     H71420   2.715   1.445   2.056 -1.0420 -2.0189  2.5429
  518MOL0     H71421   2.909   1.323   1.847 -1.1213  1.5310 -5.5277
  518MOL0     H71422   2.749   1.257   1.851 -0.7640  0.3906 -1.9978
  518MOL0     H71423   2.650   1.458   1.816 -0.1720 -2.5609 -2.1624
  518MOL0     H71424   2.797   1.549   1.845 -0.1264  1.1926 -0.9713
  518MOL0     H71425   2.728   1.361   1.604  0.0227 -0.5872 -0.0199
  518MOL0     H71426   2.882   1.428   1.629 -1.3763 -0.9975 -0.6577
  518MOL0     H71427   2.629   1.582   1.579 -0.2841  1.2467 -3.1437
  518MOL0     H71428   2.779   1.663   1.625 -1.7673  0.8517 -0.1643
  518MOL0     H71429   2.735   1.481   1.393  1.8563 -2.2500  1.3516
  518MOL0     H71430   2.880   1.554   1.412 -1.3965  0.1869 -2.4774
  518MOL0     H71431   2.765   1.693   1.256 -0.4553 -3.9038  0.3702
  518MOL0     H71432   2.617   1.689   1.359 -0.8341  2.0660  2.3265
  518MOL0     H71433   2.978   1.864   1.397  1.0746  3.0735 -1.1975
  518MOL0     H71434   3.006   2.092   1.604 -0.3908  0.0126  0.4787
  518MOL0     H71435   2.911   2.219   1.521  0.1199 -0.1212  1.6926
  518MOL0     H71436   3.116   2.243   1.430  1.2860 -0.9584  1.2768
  518MOL0     H71437   3.134   2.072   1.406 -0.3670  0.2522 -0.8200
  518MOL0     H71438   3.005   2.052   1.225  2.3530  0.7063  0.6016
  518MOL0     H71439   2.912   2.202   1.263 -0.1453  0.3846 -0.3580
  518MOL0     H71440   3.096   2.329   1.157  3.2044  1.2080  0.6635
  518MOL0     H71441   3.214   2.222   1.214 -0.0570  0.5228  0.1102
  518MOL0     H71442   3.219   1.929   0.965 -0.3874  0.3121 -1.7793
  518MOL0     H71443   3.558   1.830   0.870 -0.8572 -1.4849  1.4909
  518MOL0     H71444   3.437   1.834   0.740 -2.3487  0.7653 -0.0057
  518MOL0     H71445   3.403   1.779   0.904  2.8973 -0.8803  1.2271
  518MOL0     H71446   3.931   2.071   0.835  1.5419 -0.3333 -2.3484
  518MOL0     H71447   4.142   2.132   0.747  1.0206  1.4042  1.4488
  518MOL0     H71448   4.196   2.247   0.356  2.6958 -1.0337  0.6235
  518MOL0     H71449   4.172   2.422   0.416 -1.6703 -0.3572 -0.0879
  518MOL0     H71450   4.412   2.424   0.482 -0.1940 -0.8261  2.1562
  518MOL0     H71451   4.438   2.256   0.447  0.0916  0.2654 -0.2447
  518MOL0     H71452   4.348   2.456   0.239 -2.7755 -1.4245  0.1478
  518MOL0     H71453   4.433   2.297   0.220  1.4253 -0.3966  1.1300
  518MOL0     H71454   4.616   2.372   0.313  1.4360  0.5351  0.4381
  518MOL0     H71455   4.553   2.541   0.340 -3.9165 -0.5962  1.0938
  518MOL0     H71456   4.578   2.422   0.056 -2.8894 -0.9283  1.1623
  518MOL0     H71457   4.534   2.588   0.119 -1.4192 -0.0733  2.0791
  518MOL0     H71458   4.758   2.615   0.218 -0.4892 -2.5826  3.0339
  518MOL0     H71459   4.789   2.586   0.045  1.0093  1.8762  0.8714
  518MOL0     H71460   4.842   2.405   0.285 -0.9699 -0.3677  0.9249
  518MOL0     H71461   4.952   2.462   0.148 -1.9834  2.7693 -1.1161
  518MOL0     H71462   4.848   2.314  -0.003  1.7420 -1.8076 -0.7529
  518MOL0     H71463   4.731   2.261   0.136  0.0179 -0.4195  0.2953
  518MOL0     H71464   3.969   2.413   0.483 -1.3770  0.1962 -0.3108
  518MOL0     H71465   3.748   2.367   0.579  0.0889 -4.5324 -4.3886
  518MOL0     H71466   3.502   2.328   0.912 -1.9503  0.7085 -0.4257
  518MOL0     H71467   3.280   2.351   0.994 -2.6160 -0.2139  0.3867
  518MOL0     H71468   3.087   1.687   2.155  1.2968  2.2372 -2.4513
  518MOL0     H71469   3.336   1.726   2.190 -0.5817 -0.3371 -0.8204
  518MOL0     H71470   3.813   1.462   1.997  0.3037 -0.8534  0.1671
  518MOL0     H71471   4.072   1.543   2.041 -1.3258 -2.1369 -1.8200
  518MOL0     H71472   4.307   1.767   2.004  1.3987  4.1787  2.6583
  518MOL0     H71473   4.151   1.754   1.906 -2.4171  0.9736  0.2016
  518MOL0     H71474   4.295   1.996   2.016  1.3297 -0.4867 -0.6903
  518MOL0     H71475   4.118   1.998   1.969  0.1425  0.6253 -1.6922
  518MOL0     H71476   4.174   1.951   1.747  1.3077  0.9227 -1.9741
  518MOL0     H71477   4.273   2.095   1.808  2.2762 -0.0325 -1.6457
  518MOL0     H71478   4.372   1.818   1.750 -0.5204  0.1633  0.5438
  518MOL0     H71479   4.476   1.950   1.805 -0.0263  1.3520  0.0034
  518MOL0     H71480   4.429   2.081   1.419 -3.1223 -2.5142 -1.4265
  518MOL0     H71481   3.899   1.924   2.155  0.3270  0.3546 -0.9205
  518MOL0     H71482   3.550   1.812   2.130 -0.3527 -0.4636 -0.8575
  518MOL0     H71483   3.648   1.902   2.243 -2.5848  0.8756 -0.2389
  518MOL0     H71484   3.637   1.951   2.073 -0.2012  0.3836  0.6365
  519MOL0     O71485   6.387   1.362   3.597  0.3868  0.5760 -0.7267
  519MOL0     C71486   6.364   1.373   3.479 -0.4363  0.1907  0.9409
  519MOL0     O71487   6.428   1.302   3.378  0.2277  0.3818 -0.9165
  519MOL0     C71488   6.562   1.270   3.379  0.3503 -0.5650 -1.2423
  519MOL0     C71489   6.660   1.321   3.469 -0.0423  0.4191  0.6637
  519MOL0     C71490   6.789   1.271   3.472  0.9672  0.6243 -0.3245
  519MOL0     C71491   6.828   1.167   3.387  0.1624 -0.1047 -0.1655
  519MOL0     O71492   6.960   1.123   3.374  0.0721  0.3240 -0.2636
  519MOL0     C71493   7.051   1.158   3.475  0.7964  0.1068 -0.2341
  519MOL0     C71494   7.186   1.088   3.456 -0.2793 -0.0688 -1.1731
  519MOL0     C71495   7.284   1.123   3.574 -0.8707  0.8165  0.3221
  519MOL0     C71496   7.429   1.107   3.519  0.3318  0.5573 -0.5703
  519MOL0     C71497   7.526   1.068   3.636 -0.1944 -1.0788  0.6489
  519MOL0     C71498   7.672   1.084   3.604 -0.0658 -0.0616  0.6421
  519MOL0     C71499   7.761   1.065   3.723 -0.0101 -0.8162  0.8000
  519MOL0     C71500   7.732   1.161   3.833  0.4255  0.1655 -0.1673
  519MOL0     N71501   7.857   1.182   3.904  0.2824  0.2614  0.0405
  519MOL0     C71502   7.932   1.083   3.962 -0.5276  0.5431 -0.6855
  519MOL0     C71503   8.045   1.152   4.013 -0.2709 -0.2321  1.0207
  519MOL0     C71504   8.169   1.098   4.075  0.1781  0.6253  0.2339
  519MOL0     C71505   8.237   1.008   3.964 -0.2087  0.0354 -0.5721
  519MOL0     C71506   8.273   1.088   3.830  0.0878 -0.0692 -0.6469
  519MOL0     C71507   8.383   1.184   3.852  0.7252  0.1361 -0.0582
  519MOL0     O71508   8.421   1.228   3.721  0.4823  0.0357 -0.0093
  519MOL0     C71509   8.355   1.323   3.643 -0.1533 -0.4356 -0.1652
  519MOL0     C71510   8.399   1.334   3.514 -0.6710  0.1607  0.4599
  519MOL0     C71511   8.327   1.408   3.416 -0.1345  0.3006 -0.3575
  519MOL0     C71512   8.366   1.382   3.276  0.2824 -0.2709 -0.5548
  519MOL0     C71513   8.213   1.485   3.452  0.2522 -0.3695  0.3916
  519MOL0     C71514   8.127   1.561   3.356 -0.1488  0.3030  0.6868
  519MOL0     O71515   8.069   1.668   3.422 -0.5351 -0.0381 -0.3628
  519MOL0     C71516   8.007   1.754   3.338  0.4857 -0.0302 -0.6293
  519MOL0     C71517   7.885   1.727   3.280 -0.1529 -0.5112 -0.4429
  519MOL0     C71518   7.825   1.824   3.201 -0.1299 -1.1074 -0.1997
  519MOL0     C71519   7.880   1.946   3.172  0.3248  0.7316 -0.0623
  519MOL0     O71520   7.808   2.027   3.094 -0.2532 -0.4663  0.6825
  519MOL0     C71521   7.882   2.125   3.014  0.4252  0.2190  0.4481
  519MOL0     C71522   7.800   2.154   2.892 -0.4336 -0.1990 -0.2648
  519MOL0     C71523   7.684   2.252   2.908 -0.1203  0.3348 -0.7232
  519MOL0     C71524   7.638   2.307   2.774  0.7333  0.0465  0.1116
  519MOL0     C71525   7.510   2.392   2.781  0.3260  0.7585  0.2120
  519MOL0     C71526   7.488   2.452   2.644 -0.6686  0.5346 -0.0918
  519MOL0     C71527   7.359   2.538   2.658 -0.4312 -0.3984  0.1573
  519MOL0     C71528   7.352   2.639   2.552 -1.1225 -0.1996 -0.3308
  519MOL0    Cl71529   7.211   2.755   2.561 -0.1931  0.3494 -0.3149
  519MOL0     C71530   7.993   1.976   3.245 -0.0899  0.9836  0.1711
  519MOL0     C71531   8.055   1.880   3.331 -0.6219  0.7631 -0.1881
  519MOL0     O71532   8.122   1.545   3.235  1.1177 -0.1456 -0.4350
  519MOL0     C71533   8.187   1.488   3.592  0.1037  0.4957  0.4981
  519MOL0     C71534   8.251   1.406   3.680  0.3199  0.6164  0.3754
  519MOL0     N71535   8.032   1.283   3.975  0.4078  0.5507 -0.5455
  519MOL0     N71536   7.928   1.300   3.906  0.5745 -0.0019  0.1690
  519MOL0     C71537   6.740   1.122   3.291 -0.7380  0.4152 -0.0171
  519MOL0     C71538   6.611   1.176   3.282  0.6319 -0.4747 -0.3358
  519MOL0     C71539   6.255   1.465   3.437  0.2619 -0.2110  0.5723
  519MOL0     C71540   6.211   1.453   3.304 -0.5396 -1.2950 -0.0848
  519MOL0     C71541   6.110   1.537   3.255 -0.7885 -0.0863  0.0078
  519MOL0     C71542   6.033   1.616   3.336 -0.1325 -0.1125  0.0526
  519MOL0     O71543   5.925   1.678   3.275  0.2073 -0.5272  0.0287
  519MOL0     C71544   5.878   1.797   3.341 -0.2521 -0.3457 -1.1663
  519MOL0     C71545   5.797   1.879   3.239  0.4081 -0.0939  0.5599
  519MOL0     C71546   5.736   2.012   3.299  0.4317 -0.5710  0.7638
  519MOL0     C71547   5.607   1.996   3.371  0.0287 -0.6248  0.5567
  519MOL0     C71548   5.499   1.939   3.293  0.6326  0.2443  0.4156
  519MOL0     C71549   5.405   1.880   3.244  0.0075 -0.0144  0.4667
  519MOL0     C71550   6.077   1.626   3.469  0.2959 -0.7011 -0.0720
  519MOL0     C71551   6.197   1.565   3.518 -0.2810  0.5072 -0.6370
  519MOL0     C71552   6.231   1.585   3.666  0.7629  0.3034 -0.2849
  519MOL0     H71553   6.635   1.406   3.532  1.5065  1.6504 -0.3203
  519MOL0     H71554   6.847   1.310   3.555 -2.9964  1.0620  2.5192
  519MOL0     H71555   7.004   1.134   3.571 -0.2474  0.5244 -0.6219
  519MOL0     H71556   7.067   1.266   3.469 -1.0887  0.3563 -3.2434
  519MOL0     H71557   7.164   0.981   3.455 -0.6916  0.0132 -2.1231
  519MOL0     H71558   7.230   1.106   3.357 -0.2746  0.9838 -0.9975
  519MOL0     H71559   7.262   1.226   3.604  0.7501  1.1718  0.3329
  519MOL0     H71560   7.253   1.056   3.655 -0.3600  0.9552  0.6314
  519MOL0     H71561   7.443   1.035   3.438  0.2635 -0.0088 -0.0856
  519MOL0     H71562   7.467   1.203   3.482 -1.2237  0.4205 -2.6954
  519MOL0     H71563   7.506   0.964   3.664 -0.2867 -1.6834 -1.4516
  519MOL0     H71564   7.489   1.120   3.725  0.1272 -2.7870  1.8212
  519MOL0     H71565   7.708   1.007   3.535  0.6905  0.0298  0.9217
  519MOL0     H71566   7.692   1.178   3.552 -1.5764 -0.1896 -0.2383
  519MOL0     H71567   7.867   1.069   3.697 -0.7248  0.5148 -2.3895
  519MOL0     H71568   7.727   0.970   3.763 -0.0340 -1.1167  0.0798
  519MOL0     H71569   7.701   1.262   3.806  0.5417  0.0956 -0.5598
  519MOL0     H71570   7.658   1.123   3.905 -0.3709  1.6840 -0.1524
  519MOL0     H71571   7.908   0.978   3.973  0.2240  0.5332  1.2282
  519MOL0     H71572   8.153   1.040   4.166  0.0167  2.1212  1.1910
  519MOL0     H71573   8.240   1.174   4.110  2.4179 -0.0161 -2.4688
  519MOL0     H71574   8.334   0.978   4.005  0.4622  3.7404  1.0009
  519MOL0     H71575   8.180   0.919   3.938 -1.5637  0.2494  1.4253
  519MOL0     H71576   8.297   1.010   3.757 -2.0367 -0.2797 -1.1902
  519MOL0     H71577   8.189   1.143   3.786  2.8591  3.9001 -1.4602
  519MOL0     H71578   8.358   1.267   3.919 -0.5840  0.1979 -0.5911
  519MOL0     H71579   8.465   1.125   3.895 -0.0722 -1.4289 -0.5895
  519MOL0     H71580   8.482   1.268   3.490  0.4944  1.8906 -0.5006
  519MOL0     H71581   8.280   1.339   3.225  2.9499 -3.5888 -2.6687
  519MOL0     H71582   8.445   1.310   3.253  0.6023  0.0320 -0.4171
  519MOL0     H71583   8.400   1.478   3.236  0.1199  0.1209  0.2162
  519MOL0     H71584   7.836   1.631   3.292  1.1467 -1.2043 -0.5261
  519MOL0     H71585   7.731   1.798   3.153 -0.7760  0.4254  0.1926
  519MOL0     H71586   7.911   2.213   3.072 -2.5401  1.2926  0.4742
  519MOL0     H71587   7.976   2.081   2.980  0.0955 -1.9722  2.1237
  519MOL0     H71588   7.868   2.210   2.827 -2.2154 -0.5432 -2.5659
  519MOL0     H71589   7.755   2.071   2.837  0.5262  0.7863 -2.7015
  519MOL0     H71590   7.717   2.333   2.974 -2.3184  1.0432 -0.3932
  519MOL0     H71591   7.610   2.198   2.968  0.6519  1.7163  1.5903
  519MOL0     H71592   7.623   2.221   2.708  3.1054 -0.3847  0.0456
  519MOL0     H71593   7.719   2.364   2.728  0.4711  1.7377  1.6343
  519MOL0     H71594   7.421   2.333   2.803  0.7866 -0.7172 -1.6473
  519MOL0     H71595   7.529   2.472   2.853  0.5383  2.4674 -1.6377
  519MOL0     H71596   7.486   2.381   2.562 -1.0537  0.0587  0.3204
  519MOL0     H71597   7.580   2.507   2.623  1.4642 -2.0298  1.8716
  519MOL0     H71598   7.355   2.592   2.754 -1.1479 -3.2848  1.8783
  519MOL0     H71599   7.272   2.471   2.657 -0.6900 -0.0650 -1.3000
  519MOL0     H71600   7.358   2.583   2.459 -0.3966 -1.3231  0.3788
  519MOL0     H71601   7.444   2.698   2.556 -1.5428  0.4165  2.6918
  519MOL0     H71602   8.035   2.076   3.253 -0.2441  1.1039 -0.4132
  519MOL0     H71603   8.156   1.903   3.365 -1.2093  2.1375  0.7642
  519MOL0     H71604   8.118   1.559   3.636 -0.0064 -0.4672  1.9463
  519MOL0     H71605   8.233   1.413   3.786  1.0822 -2.6925  0.8317
  519MOL0     H71606   6.774   1.045   3.221 -0.8145  1.6206 -1.4277
  519MOL0     H71607   6.537   1.156   3.205  2.8996  2.5664 -3.6655
  519MOL0     H71608   6.257   1.389   3.230  1.3949  0.2571 -0.3435
  519MOL0     H71609   6.080   1.530   3.151 -1.6525 -0.6801  0.2777
  519MOL0     H71610   5.824   1.779   3.434  0.8357  1.0334 -0.2159
  519MOL0     H71611   5.963   1.863   3.365 -0.4850 -0.3863 -0.1769
  519MOL0     H71612   5.714   1.829   3.187  1.0026  0.1315 -0.6489
  519MOL0     H71613   5.862   1.910   3.157  0.6582 -0.7011  0.5257
  519MOL0     H71614   5.812   2.052   3.366  0.9045  0.4170 -0.3252
  519MOL0     H71615   5.726   2.097   3.231 -0.5301  1.8203  3.6485
  519MOL0     H71616   5.574   2.098   3.393  1.1823  0.1723 -1.2261
  519MOL0     H71617   5.620   1.929   3.456  0.5975 -0.5750  0.5120
  519MOL0     H71618   5.311   1.836   3.217 -1.8568  1.0553  4.4609
  519MOL0     H71619   6.010   1.678   3.536  1.6848  2.1041 -0.7251
  519MOL0     H71620   6.167   1.663   3.708 -0.4090 -2.7390  4.3853
  519MOL0     H71621   6.212   1.501   3.734 -1.0585  0.8211 -0.0848
  519MOL0     H71622   6.333   1.618   3.688  0.8020 -0.7265  1.2213
  520MOL0     O71623   5.088   9.090   5.955 -0.3005  0.8412 -0.4969
  520MOL0     C71624   5.034   9.004   6.030  0.0495 -0.3459 -0.3047
  520MOL0     O71625   5.087   8.958   6.144 -0.1252 -0.2964 -0.3140
  520MOL0     C71626   5.209   9.001   6.188 -0.6286 -1.4205  0.0524
  520MOL0     C71627   5.231   9.100   6.295  0.4838  1.3259 -0.9148
  520MOL0     C71628   5.359   9.130   6.339  0.2610 -0.3626  0.3796
  520MOL0     C71629   5.476   9.076   6.279  0.0563 -0.0226  0.1350
  520MOL0     O71630   5.601   9.095   6.322 -0.0734 -0.1385  0.6141
  520MOL0     C71631   5.634   9.229   6.335  0.2536 -0.3272 -0.6461
  520MOL0     C71632   5.771   9.242   6.275 -0.3797 -0.1384 -0.2835
  520MOL0     C71633   5.894   9.185   6.346  0.3000  0.4606 -0.5417
  520MOL0     C71634   6.024   9.226   6.278 -0.1426 -0.2165  0.8663
  520MOL0     C71635   6.137   9.182   6.371  0.3850  0.2294  0.2410
  520MOL0     C71636   6.157   9.031   6.359 -0.3194 -0.4187 -0.3088
  520MOL0     C71637   6.291   8.976   6.410 -0.4170 -0.0402 -0.5282
  520MOL0     C71638   6.328   8.835   6.356 -0.1916 -0.2515 -0.3417
  520MOL0     N71639   6.450   8.785   6.424  0.3747  0.6032  0.0475
  520MOL0     C71640   6.539   8.703   6.366  0.2382  0.2837 -0.3879
  520MOL0     C71641   6.632   8.663   6.456 -0.3670  0.1586  0.4650
  520MOL0     C71642   6.742   8.560   6.454 -1.1178  0.7811  1.4372
  520MOL0     C71643   6.882   8.591   6.526  0.2087 -0.9149  0.4038
  520MOL0     C71644   6.964   8.473   6.563  1.2730  0.1771 -0.9215
  520MOL0     C71645   7.041   8.412   6.444  0.6174 -0.3621  0.3135
  520MOL0     O71646   7.154   8.332   6.497  0.0286 -0.5143 -0.1850
  520MOL0     C71647   7.136   8.208   6.544 -0.0670 -0.5736 -0.4907
  520MOL0     C71648   7.017   8.143   6.566  0.4956  0.1059  0.0909
  520MOL0     C71649   7.007   8.006   6.607  0.4362 -0.1395 -0.6096
  520MOL0     C71650   6.868   7.941   6.625  0.3330 -0.3888 -0.0471
  520MOL0     C71651   7.136   7.935   6.621  1.0187 -0.3904  0.1841
  520MOL0     C71652   7.137   7.781   6.621 -0.0489 -0.3785  0.6910
  520MOL0     O71653   7.240   7.710   6.674  0.0894 -0.1355  0.2779
  520MOL0     C71654   7.284   7.589   6.621  1.4989  0.4867 -0.1981
  520MOL0     C71655   7.256   7.563   6.479 -0.5236  0.2523 -0.4475
  520MOL0     C71656   7.304   7.441   6.433 -0.2576 -0.1938 -0.5293
  520MOL0     C71657   7.358   7.340   6.506 -0.4291  0.1054  0.8297
  520MOL0     O71658   7.405   7.215   6.465 -0.5199 -0.4495  0.4726
  520MOL0     C71659   7.457   7.200   6.331 -0.4646  0.2711 -0.2716
  520MOL0     C71660   7.511   7.058   6.307  0.1573 -0.8463 -0.3306
  520MOL0     C71661   7.475   7.012   6.170 -0.0459  0.3205 -0.0205
  520MOL0     C71662   7.527   6.875   6.147 -0.3334 -0.1395  0.0612
  520MOL0     C71663   7.486   6.823   6.016  0.1862 -1.1939  0.4425
  520MOL0     C71664   7.526   6.904   5.880 -0.0243  0.7185 -0.2874
  520MOL0     C71665   7.472   6.828   5.771 -0.2056 -0.1107 -0.1293
  520MOL0     C71666   7.510   6.875   5.629 -0.8840  0.4538  0.5530
  520MOL0    Cl71667   7.670   6.817   5.587  0.0196  0.3966 -0.3779
  520MOL0     C71668   7.387   7.362   6.640  0.9601 -0.8163 -0.3068
  520MOL0     C71669   7.344   7.489   6.698  0.4701 -0.9952  0.8214
  520MOL0     O71670   7.041   7.726   6.573 -0.0042 -0.2045  0.4551
  520MOL0     C71671   7.254   8.007   6.619  0.6665 -1.2310 -0.5503
  520MOL0     C71672   7.251   8.142   6.575  0.1081 -0.3788 -0.2730
  520MOL0     N71673   6.608   8.741   6.568  0.1173 -0.1031  0.2013
  520MOL0     N71674   6.496   8.804   6.553  0.3161 -0.0434 -0.9792
  520MOL0     C71675   5.454   9.002   6.161 -0.6173 -0.4347 -0.7113
  520MOL0     C71676   5.330   8.957   6.130  0.4831 -0.3016  0.1819
  520MOL0     C71677   4.905   8.933   5.994  0.5295  0.2538 -0.4824
  520MOL0     C71678   4.855   8.952   5.862 -1.5953  0.8223 -0.0849
  520MOL0     C71679   4.737   8.894   5.816  0.0145  0.0011 -0.2786
  520MOL0     C71680   4.655   8.830   5.904 -0.1846  0.1730  0.4357
  520MOL0     O71681   4.536   8.794   5.857  0.1503  0.3844  0.6227
  520MOL0     C71682   4.421   8.835   5.935 -0.3151 -0.3032 -0.5485
  520MOL0     C71683   4.295   8.839   5.846 -0.0172 -0.2918  1.3057
  520MOL0     C71684   4.285   8.717   5.752 -0.1520  0.4949 -0.2622
  520MOL0     C71685   4.155   8.724   5.671 -0.6805  0.8635 -0.3212
  520MOL0     C71686   4.037   8.689   5.752 -0.2403 -0.0674  1.0708
  520MOL0     C71687   3.946   8.641   5.811  0.8566  0.2679 -0.0855
  520MOL0     C71688   4.689   8.822   6.041 -1.5399 -0.4125 -0.8503
  520MOL0     C71689   4.816   8.873   6.087 -0.7135  0.5943  0.0501
  520MOL0     C71690   4.843   8.873   6.232 -0.2402 -0.4173  0.3319
  520MOL0     H71691   5.147   9.151   6.342  1.3398  1.1595  0.8481
  520MOL0     H71692   5.368   9.199   6.423 -2.9305 -0.6835  1.0946
  520MOL0     H71693   5.621   9.261   6.439  1.5249 -1.4368 -0.1122
  520MOL0     H71694   5.561   9.283   6.274  0.0182 -1.3997 -1.3524
  520MOL0     H71695   5.772   9.196   6.175 -4.0823  0.8847 -0.9313
  520MOL0     H71696   5.793   9.349   6.263 -0.9087  1.2199  6.7003
  520MOL0     H71697   5.884   9.225   6.447 -0.0486  1.9859 -1.1469
  520MOL0     H71698   5.882   9.077   6.332  0.3741  0.3199  0.4519
  520MOL0     H71699   6.037   9.184   6.178  0.1784 -3.5841  2.2017
  520MOL0     H71700   6.036   9.335   6.271  0.8846 -0.3556  0.3771
  520MOL0     H71701   6.118   9.199   6.477  2.2440 -1.6783  0.9720
  520MOL0     H71702   6.227   9.238   6.344  1.0757 -0.3829  1.2213
  520MOL0     H71703   6.076   8.977   6.409  0.9742 -0.2429  2.1275
  520MOL0     H71704   6.130   9.003   6.256 -0.1725  0.1970 -0.5170
  520MOL0     H71705   6.289   8.957   6.518  1.8365 -0.5691 -0.5298
  520MOL0     H71706   6.371   9.049   6.397 -1.0784  1.0652  1.1746
  520MOL0     H71707   6.245   8.764   6.362 -2.5922  2.3924 -0.2418
  520MOL0     H71708   6.334   8.848   6.247 -0.3229  4.9647  0.0556
  520MOL0     H71709   6.529   8.666   6.265  1.9752 -0.1924 -0.4134
  520MOL0     H71710   6.763   8.530   6.351 -2.4547 -3.0870  2.1319
  520MOL0     H71711   6.709   8.468   6.504  1.0808 -1.5681 -1.0928
  520MOL0     H71712   6.945   8.658   6.467 -1.4123 -0.6398 -1.0924
  520MOL0     H71713   6.856   8.645   6.618 -2.2024 -1.2447 -0.0132
  520MOL0     H71714   7.031   8.504   6.644 -1.1269  2.7108  0.2674
  520MOL0     H71715   6.895   8.398   6.603  2.2604  1.0277  2.7370
  520MOL0     H71716   6.981   8.355   6.373  1.9515 -2.1748  0.5882
  520MOL0     H71717   7.095   8.489   6.388 -0.4328 -0.3133 -0.6753
  520MOL0     H71718   6.928   8.197   6.536  1.2730  0.6743 -1.2749
  520MOL0     H71719   6.794   8.022   6.623 -0.6631 -1.2945 -2.0906
  520MOL0     H71720   6.846   7.890   6.719 -2.4117 -0.6072 -0.7211
  520MOL0     H71721   6.835   7.882   6.539 -1.0740 -1.4274  1.1589
  520MOL0     H71722   7.233   7.637   6.403 -1.8607 -2.4473 -2.8512
  520MOL0     H71723   7.310   7.436   6.324  0.3197 -1.1249 -0.4620
  520MOL0     H71724   7.375   7.218   6.261 -1.6582 -2.9039  0.1464
  520MOL0     H71725   7.540   7.270   6.316  1.7098 -2.1673 -0.3364
  520MOL0     H71726   7.620   7.063   6.312  0.3280 -1.1590 -2.7027
  520MOL0     H71727   7.479   6.992   6.389 -1.6479 -0.0207 -0.3324
  520MOL0     H71728   7.515   7.085   6.099 -2.6574  4.8585  2.6916
  520MOL0     H71729   7.367   7.021   6.154  0.0028  0.0026 -0.5670
  520MOL0     H71730   7.491   6.811   6.228 -1.4741 -0.0527 -0.3460
  520MOL0     H71731   7.636   6.881   6.148 -0.2806 -0.8909 -0.2351
  520MOL0     H71732   7.538   6.727   6.002  1.7339 -0.1997 -0.8903
  520MOL0     H71733   7.379   6.805   6.027  0.1181 -3.0057 -2.1635
  520MOL0     H71734   7.634   6.896   5.870 -0.2059 -1.2718 -1.1943
  520MOL0     H71735   7.488   7.006   5.886 -0.0966  0.6037  2.1104
  520MOL0     H71736   7.362   6.828   5.776 -0.4421 -0.0959 -3.1905
  520MOL0     H71737   7.506   6.724   5.780 -1.1665 -0.3552  0.9285
  520MOL0     H71738   7.488   6.981   5.613 -0.2636  0.5071  0.0246
  520MOL0     H71739   7.439   6.829   5.559 -4.6004  1.5227  3.2788
  520MOL0     H71740   7.418   7.284   6.709  3.7348  1.4988  1.2614
  520MOL0     H71741   7.360   7.503   6.805  1.4150  1.3974  0.4474
  520MOL0     H71742   7.347   7.954   6.637  0.5466 -1.4714 -0.6236
  520MOL0     H71743   7.340   8.203   6.560 -0.8571  1.1607  0.0368
  520MOL0     H71744   5.545   8.970   6.111  0.2742 -0.9442  1.1393
  520MOL0     H71745   5.322   8.894   6.042  0.0548  0.0417 -0.0332
  520MOL0     H71746   4.925   8.999   5.793  0.1626 -0.5126  0.7041
  520MOL0     H71747   4.703   8.897   5.712 -0.0332 -0.2597 -0.2721
  520MOL0     H71748   4.414   8.762   6.016  3.0582 -0.7771 -0.5363
  520MOL0     H71749   4.426   8.930   5.989 -0.7090  0.4166 -1.7385
  520MOL0     H71750   4.293   8.930   5.784  0.3595 -0.7283  0.6451
  520MOL0     H71751   4.204   8.844   5.906 -0.3444 -2.3634  1.0622
  520MOL0     H71752   4.374   8.702   5.690 -0.5015 -0.1120 -0.6326
  520MOL0     H71753   4.296   8.626   5.812  0.3215  0.3153 -0.6029
  520MOL0     H71754   4.159   8.659   5.582  2.9498 -1.6762  1.4315
  520MOL0     H71755   4.136   8.827   5.640 -0.1129  0.5545 -1.7731
  520MOL0     H71756   3.861   8.603   5.866 -0.2721  2.7352 -0.0059
  520MOL0     H71757   4.608   8.780   6.101 -1.1669 -0.1390 -0.1464
  520MOL0     H71758   4.870   8.976   6.257  1.6342 -0.0865 -2.5004
  520MOL0     H71759   4.745   8.854   6.274 -0.7497  0.3591 -0.4544
  520MOL0     H71760   4.927   8.805   6.249  1.6915  1.6629 -0.3881
  521MOL0     O71761   8.238  11.261   9.957 -0.1531  0.0951  0.6894
  521MOL0     C71762   8.274  11.204   9.855  0.2864  0.0618 -0.2529
  521MOL0     O71763   8.345  11.249   9.757 -0.3549 -1.0492 -0.4017
  521MOL0     C71764   8.402  11.374   9.745 -0.1279  0.0077 -0.1230
  521MOL0     C71765   8.514  11.393   9.662 -0.2403  1.2735 -0.5781
  521MOL0     C71766   8.574  11.514   9.644 -0.0202 -0.0728  0.5639
  521MOL0     C71767   8.535  11.623   9.725  0.3980 -0.2794  0.2584
  521MOL0     O71768   8.611  11.735   9.705  0.8372  0.1209 -0.6989
  521MOL0     C71769   8.606  11.826   9.822  0.0833  0.5096  0.6192
  521MOL0     C71770   8.691  11.951   9.794  0.5280 -0.4287 -0.5555
  521MOL0     C71771   8.828  11.929   9.743 -0.2361  0.9946 -0.2304
  521MOL0     C71772   8.905  12.061   9.748  0.1535 -0.1006 -0.7952
  521MOL0     C71773   9.039  12.041   9.674  0.6393  0.8891 -0.8329
  521MOL0     C71774   9.136  12.163   9.683  0.3018  0.5665  0.9032
  521MOL0     C71775   9.256  12.139   9.594 -0.6475  0.7061  0.2424
  521MOL0     C71776   9.373  12.229   9.612  0.5091 -0.0512  0.0108
  521MOL0     N71777   9.498  12.175   9.558  0.2912 -0.0977 -0.7986
  521MOL0     C71778   9.593  12.237   9.479 -0.5347 -0.6829 -0.1582
  521MOL0     C71779   9.704  12.162   9.484 -0.9118 -0.1103 -0.9185
  521MOL0     C71780   9.827  12.191   9.399  0.2796  0.9979  0.3241
  521MOL0     C71781   9.957  12.112   9.423  0.0898  0.5208 -0.9380
  521MOL0     C71782   9.974  11.980   9.366  0.3937  0.1430  0.7042
  521MOL0     C71783  10.104  11.917   9.395 -0.5865  0.2228  0.7255
  521MOL0     O71784  10.208  11.964   9.316 -0.4168  0.6840 -0.0124
  521MOL0     C71785  10.335  11.907   9.333 -0.2633  0.4869  0.0492
  521MOL0     C71786  10.378  11.818   9.433  1.8353  0.0522 -0.6784
  521MOL0     C71787  10.499  11.758   9.444  0.0186  0.4711  0.2359
  521MOL0     C71788  10.526  11.676   9.575 -0.1225 -0.4312 -0.1983
  521MOL0     C71789  10.596  11.790   9.353 -0.5412 -0.1948  0.1759
  521MOL0     C71790  10.743  11.730   9.351  0.0723 -0.8049 -0.5280
  521MOL0     O71791  10.812  11.761   9.237 -0.4980 -0.1811 -0.6297
  521MOL0     C71792  10.931  11.700   9.213  0.3681 -0.1809  0.7666
  521MOL0     C71793  10.930  11.562   9.203 -0.0294  0.1055 -0.2452
  521MOL0     C71794  11.030  11.497   9.147 -0.3509 -0.3868 -0.3935
  521MOL0     C71795  11.154  11.566   9.119  0.0791  0.3766  0.2198
  521MOL0     O71796  11.269  11.506   9.076  0.1422 -0.2362 -0.6597
  521MOL0     C71797  11.298  11.383   9.136  0.2529  0.4109 -0.4261
  521MOL0     C71798  11.451  11.356   9.124  0.2467 -0.1565 -0.0558
  521MOL0     C71799  11.510  11.373   8.986 -0.4383 -0.6457 -0.3359
  521MOL0     C71800  11.663  11.349   8.962  0.0289  0.1786 -1.0170
  521MOL0     C71801  11.715  11.215   8.996  0.4406  0.4369 -0.5332
  521MOL0     C71802  11.856  11.212   9.026  0.0298 -0.4082 -0.2234
  521MOL0     C71803  11.884  11.077   9.094 -0.2782  0.2929  0.9100
  521MOL0     C71804  12.025  11.022   9.062 -0.1538 -0.4534  0.4063
  521MOL0    Cl71805  12.048  10.852   9.096 -0.0294 -0.5235  0.0607
  521MOL0     C71806  11.155  11.705   9.123  0.4362  0.1999 -0.1488
  521MOL0     C71807  11.037  11.774   9.166  1.1138 -0.4664  0.5242
  521MOL0     O71808  10.790  11.674   9.444 -0.4568  0.3887 -0.3669
  521MOL0     C71809  10.558  11.866   9.242 -0.1202 -0.1238 -0.4541
  521MOL0     C71810  10.430  11.930   9.240 -0.1248 -1.0139  0.4266
  521MOL0     N71811   9.681  12.056   9.566  0.4632 -0.8604  0.7521
  521MOL0     N71812   9.555  12.066   9.612 -0.1534 -0.1967  0.2059
  521MOL0     C71813   8.422  11.608   9.811  0.3789  0.3204 -0.0691
  521MOL0     C71814   8.360  11.488   9.815  0.1690 -0.0379 -0.1258
  521MOL0     C71815   8.227  11.066   9.845  0.1125  0.1074  0.5327
  521MOL0     C71816   8.114  11.026   9.915 -0.0912  0.2385  0.4653
  521MOL0     C71817   8.074  10.891   9.913  0.2852  0.5406 -0.5043
  521MOL0     C71818   8.140  10.795   9.840 -0.6417 -0.4651  0.0739
  521MOL0     O71819   8.086  10.666   9.828 -0.4550 -0.1357  0.4379
  521MOL0     C71820   8.153  10.552   9.779  0.7255 -0.0855  0.7684
  521MOL0     C71821   8.143  10.528   9.623 -0.2286  0.4236 -0.7742
  521MOL0     C71822   7.999  10.561   9.563  0.4216 -0.5142  0.3366
  521MOL0     C71823   7.954  10.473   9.444 -0.3777  0.2815  0.6510
  521MOL0     C71824   7.936  10.330   9.473  0.1252 -0.8290 -0.2499
  521MOL0     C71825   7.927  10.221   9.506  0.1723  0.1316 -0.0993
  521MOL0     C71826   8.261  10.833   9.774 -0.0324 -0.1131  0.3342
  521MOL0     C71827   8.312  10.968   9.780 -0.0379  0.2963  0.1090
  521MOL0     C71828   8.448  10.988   9.714  0.8111 -0.1790 -0.0130
  521MOL0     H71829   8.550  11.310   9.603 -1.1183  0.2272  0.3323
  521MOL0     H71830   8.657  11.540   9.579  0.5001  0.4250  1.4129
  521MOL0     H71831   8.639  11.782   9.916 -1.8190 -1.6427  0.3814
  521MOL0     H71832   8.506  11.868   9.833  0.3986  0.8978  2.2341
  521MOL0     H71833   8.629  12.014   9.730 -1.5776 -0.6002  1.1879
  521MOL0     H71834   8.700  12.009   9.886 -0.5492  1.3789 -1.5403
  521MOL0     H71835   8.885  11.874   9.818  0.7064  2.4681  0.1737
  521MOL0     H71836   8.820  11.885   9.643  0.0134  2.1831 -0.7958
  521MOL0     H71837   8.855  12.141   9.693  3.0029  1.8634 -0.7256
  521MOL0     H71838   8.917  12.085   9.854 -0.5120 -3.6097  0.2274
  521MOL0     H71839   9.000  12.032   9.572 -0.8337 -2.7599 -0.0983
  521MOL0     H71840   9.087  11.947   9.703  1.1195  0.9560 -1.3792
  521MOL0     H71841   9.087  12.256   9.652  0.2456  0.4419  0.6105
  521MOL0     H71842   9.173  12.178   9.785  0.6288  0.6877  0.7671
  521MOL0     H71843   9.226  12.143   9.489 -0.7329 -1.6009  0.1209
  521MOL0     H71844   9.292  12.036   9.599 -1.8009  0.3245  1.7352
  521MOL0     H71845   9.360  12.325   9.561  1.9503 -0.1755 -0.6618
  521MOL0     H71846   9.384  12.258   9.717 -4.2067  2.5998  0.0770
  521MOL0     H71847   9.564  12.329   9.429  1.5466 -1.8130 -3.8106
  521MOL0     H71848   9.850  12.297   9.413  0.0708  0.9373  1.1473
  521MOL0     H71849   9.795  12.186   9.294  0.0875  0.2596  0.4093
  521MOL0     H71850  10.037  12.180   9.392  0.5658  0.2995 -0.2348
  521MOL0     H71851   9.962  12.097   9.531 -2.6936  0.3358 -0.7706
  521MOL0     H71852   9.891  11.920   9.403  0.6923 -1.2435 -0.7581
  521MOL0     H71853   9.966  11.992   9.257 -2.3964  0.1244  0.8433
  521MOL0     H71854  10.125  11.926   9.502 -1.8273 -0.0874  1.0091
  521MOL0     H71855  10.096  11.812   9.366 -0.6274  0.5288 -0.4181
  521MOL0     H71856  10.296  11.793   9.499  1.8935 -0.1535 -0.6842
  521MOL0     H71857  10.451  11.684   9.654  2.4649  1.4568  2.2586
  521MOL0     H71858  10.608  11.724   9.628 -2.7142  2.0817  1.8890
  521MOL0     H71859  10.544  11.571   9.550 -0.5695 -0.5464 -0.0553
  521MOL0     H71860  10.840  11.506   9.225 -0.2116  0.5528  0.1456
  521MOL0     H71861  11.021  11.390   9.132 -1.3206 -0.8822  2.8667
  521MOL0     H71862  11.270  11.386   9.242 -2.5803  0.1573 -1.0799
  521MOL0     H71863  11.257  11.299   9.080  3.0911 -0.7196 -0.9642
  521MOL0     H71864  11.498  11.416   9.203 -2.2283  0.0965  1.3131
  521MOL0     H71865  11.465  11.252   9.155  2.6994  0.4573  1.1966
  521MOL0     H71866  11.474  11.467   8.945 -0.2743 -1.0813 -1.5207
  521MOL0     H71867  11.453  11.302   8.926 -0.7648  0.9538 -1.9851
  521MOL0     H71868  11.727  11.425   9.008  0.3840 -0.1499 -0.9610
  521MOL0     H71869  11.671  11.365   8.854 -0.1633  0.2325 -1.0236
  521MOL0     H71870  11.668  11.171   9.085  1.1647  1.5034  0.3936
  521MOL0     H71871  11.702  11.149   8.909  2.8662  1.7522 -1.9896
  521MOL0     H71872  11.888  11.293   9.093  2.3046 -0.6314 -0.9597
  521MOL0     H71873  11.917  11.215   8.936  0.0074  1.4288 -0.2145
  521MOL0     H71874  11.811  10.997   9.079  0.9729 -0.5349 -1.2995
  521MOL0     H71875  11.897  11.103   9.199  0.9154  2.1833  0.3408
  521MOL0     H71876  12.093  11.078   9.127  0.3210  0.7504 -1.0835
  521MOL0     H71877  12.048  11.038   8.956  0.7360  2.9090  0.9954
  521MOL0     H71878  11.243  11.763   9.097  0.4174  1.1014  1.6729
  521MOL0     H71879  11.044  11.882   9.169 -1.5780 -0.2599  1.1582
  521MOL0     H71880  10.630  11.874   9.161  0.5230 -3.4757 -0.3920
  521MOL0     H71881  10.416  11.983   9.146  2.5809 -1.7845 -0.4918
  521MOL0     H71882   8.382  11.681   9.881  3.5871  1.6602  0.5377
  521MOL0     H71883   8.270  11.483   9.875  0.8076  4.3043  1.5336
  521MOL0     H71884   8.049  11.087   9.976 -2.3055 -3.7054  2.4984
  521MOL0     H71885   7.987  10.856   9.967  1.7697 -2.0842  0.3798
  521MOL0     H71886   8.259  10.568   9.798  0.3750  0.8185  2.0312
  521MOL0     H71887   8.113  10.464   9.830  2.0599 -0.8756  0.5165
  521MOL0     H71888   8.161  10.421   9.612 -1.0900  0.4069 -2.2552
  521MOL0     H71889   8.227  10.583   9.579  1.0782  0.5165  1.6301
  521MOL0     H71890   7.924  10.547   9.642 -1.3138 -2.6524 -1.5317
  521MOL0     H71891   8.003  10.665   9.529  4.7055 -0.9770 -1.1452
  521MOL0     H71892   8.020  10.494   9.359  0.4565  1.7124  1.5930
  521MOL0     H71893   7.854  10.505   9.415 -0.7372 -0.9925  0.4269
  521MOL0     H71894   7.897  10.123   9.539  0.8326 -0.2405 -0.5790
  521MOL0     H71895   8.312  10.754   9.721  2.3791  0.8235  1.0891
  521MOL0     H71896   8.496  11.063   9.778 -0.4927 -1.0361  2.0548
  521MOL0     H71897   8.507  10.897   9.703  0.6505 -0.2455 -0.3455
  521MOL0     H71898   8.438  11.031   9.614  1.5170  3.7602  1.4062
  522MOL0     O71899   1.072   5.530   5.137  0.0410  0.0385  0.4256
  522MOL0     C71900   1.072   5.408   5.134  0.1311  0.0420  1.1000
  522MOL0     O71901   1.187   5.325   5.126  0.0104  0.0760  0.2170
  522MOL0     C71902   1.303   5.402   5.121  0.4316  0.3193  0.1043
  522MOL0     C71903   1.340   5.480   5.234  0.1484  0.1810  1.0855
  522MOL0     C71904   1.446   5.568   5.227 -0.3664  0.1119  0.6602
  522MOL0     C71905   1.534   5.571   5.118  0.1333  0.3493  0.1733
  522MOL0     O71906   1.652   5.642   5.136 -0.3825 -0.1072  0.9644
  522MOL0     C71907   1.772   5.582   5.092 -0.2991 -0.0492  0.9122
  522MOL0     C71908   1.893   5.620   5.180  0.1308 -0.4952  0.3158
  522MOL0     C71909   2.011   5.519   5.157 -0.3193  0.3191 -0.6197
  522MOL0     C71910   2.135   5.604   5.180  0.0450 -0.0539  0.6899
  522MOL0     C71911   2.263   5.519   5.188  0.3509 -0.5973  0.1423
  522MOL0     C71912   2.387   5.609   5.220  0.3201 -0.1471 -0.2115
  522MOL0     C71913   2.526   5.541   5.232  0.4141 -0.2182 -0.4768
  522MOL0     C71914   2.642   5.640   5.236  0.0679  0.1644 -0.4347
  522MOL0     N71915   2.774   5.580   5.228 -0.8424 -0.6469 -0.3443
  522MOL0     C71916   2.815   5.454   5.260  0.2549 -0.2312 -0.0635
  522MOL0     C71917   2.951   5.451   5.246 -0.9699  0.6340  0.3914
  522MOL0     C71918   3.026   5.323   5.296  0.0374  0.2268 -0.2663
  522MOL0     C71919   3.164   5.340   5.361  0.4235 -0.2273 -0.3155
  522MOL0     C71920   3.252   5.213   5.358 -1.1575 -0.5282  0.2639
  522MOL0     C71921   3.394   5.242   5.421  0.6750  0.0779  0.1861
  522MOL0     O71922   3.486   5.327   5.336  0.5788  0.3681  0.4150
  522MOL0     C71923   3.625   5.324   5.381  0.6024 -0.2251  0.2410
  522MOL0     C71924   3.681   5.285   5.506  0.3336 -0.0239  0.4354
  522MOL0     C71925   3.818   5.278   5.536  0.2348 -0.4972 -0.2381
  522MOL0     C71926   3.864   5.218   5.665  0.4336 -0.5651  0.6698
  522MOL0     C71927   3.907   5.310   5.433  1.1496 -0.8414  0.1186
  522MOL0     C71928   4.057   5.306   5.431  0.7127 -0.1763  0.2614
  522MOL0     O71929   4.116   5.337   5.312  0.0882 -0.1906  0.3737
  522MOL0     C71930   4.252   5.324   5.297 -0.0924 -0.6413  0.2224
  522MOL0     C71931   4.310   5.200   5.289  0.3126 -0.1104  0.0896
  522MOL0     C71932   4.451   5.178   5.273 -0.8644 -0.7327  1.1532
  522MOL0     C71933   4.537   5.294   5.262  0.6253 -0.2937 -0.1463
  522MOL0     O71934   4.673   5.279   5.255  0.0290 -0.6271 -0.0832
  522MOL0     C71935   4.746   5.375   5.177  0.3443  0.8102  0.0889
  522MOL0     C71936   4.861   5.295   5.113 -0.5257 -0.1917  0.4976
  522MOL0     C71937   4.985   5.300   5.204  0.2124  0.6901  0.0017
  522MOL0     C71938   5.098   5.223   5.138 -0.1831  0.1035 -0.1809
  522MOL0     C71939   5.206   5.199   5.230  0.3566 -0.1064 -0.5276
  522MOL0     C71940   5.181   5.088   5.332  0.5191  0.0948 -0.1511
  522MOL0     C71941   5.294   5.083   5.434 -0.0112  0.4219  0.2141
  522MOL0     C71942   5.305   4.945   5.495  0.0712  0.6102  0.6052
  522MOL0    Cl71943   5.407   4.956   5.653  0.0052  0.1024 -0.3782
  522MOL0     C71944   4.477   5.424   5.251  0.3793  0.5403  0.5682
  522MOL0     C71945   4.337   5.435   5.278  0.2400  0.3871  0.5396
  522MOL0     O71946   4.117   5.278   5.536 -0.3677 -0.0190  0.3826
  522MOL0     C71947   3.847   5.363   5.317 -0.6143 -0.0932  0.2989
  522MOL0     C71948   3.714   5.360   5.288  0.2919  0.8484 -0.6145
  522MOL0     N71949   2.997   5.573   5.207  0.5372 -0.0982 -0.1458
  522MOL0     N71950   2.893   5.645   5.199  0.2475 -0.6740  1.2327
  522MOL0     C71951   1.511   5.479   5.005 -0.2709  0.2483 -0.3400
  522MOL0     C71952   1.391   5.398   5.010 -0.3627  0.3810 -0.2678
  522MOL0     C71953   0.944   5.332   5.109 -1.0255  0.1417 -0.5893
  522MOL0     C71954   0.826   5.384   5.173 -0.4474 -0.6146 -0.6861
  522MOL0     C71955   0.703   5.315   5.155 -0.0502 -0.3008  0.7342
  522MOL0     C71956   0.693   5.205   5.081  1.5319  0.3266 -0.2327
  522MOL0     O71957   0.585   5.128   5.089 -0.0764  0.2442 -0.4843
  522MOL0     C71958   0.460   5.176   5.155 -0.9367  0.1124  0.3603
  522MOL0     C71959   0.395   5.296   5.086 -0.5700 -0.6152 -0.8561
  522MOL0     C71960   0.336   5.262   4.947  0.6874 -0.2427 -0.5018
  522MOL0     C71961   0.415   5.327   4.831 -0.2726  1.1050  0.2511
  522MOL0     C71962   0.331   5.325   4.707  0.0551  0.4877 -0.5008
  522MOL0     C71963   0.260   5.331   4.612  0.8001 -0.1574  0.0961
  522MOL0     C71964   0.806   5.154   5.010 -0.3811  0.6600 -0.4829
  522MOL0     C71965   0.925   5.219   5.021  0.1286  0.0095  0.4104
  522MOL0     C71966   1.037   5.163   4.950 -1.1723  0.2428  0.4601
  522MOL0     H71967   1.277   5.501   5.319  1.6043 -0.6310  2.4253
  522MOL0     H71968   1.480   5.636   5.304  4.6429 -1.9291  0.6209
  522MOL0     H71969   1.796   5.613   4.990 -1.9060 -0.8388  0.2721
  522MOL0     H71970   1.764   5.473   5.101 -2.5329  0.0770  1.0832
  522MOL0     H71971   1.917   5.723   5.152  0.3347 -0.8476 -0.8659
  522MOL0     H71972   1.864   5.618   5.285  0.1463 -2.5974  0.3277
  522MOL0     H71973   2.000   5.430   5.219 -2.4685  2.4875  2.3750
  522MOL0     H71974   2.008   5.482   5.054 -1.3458 -1.0538 -0.1280
  522MOL0     H71975   2.140   5.675   5.098  2.3394 -0.5795  0.3179
  522MOL0     H71976   2.109   5.646   5.278 -2.6364 -3.1025  1.4611
  522MOL0     H71977   2.280   5.479   5.087 -0.0882 -0.8681  0.1719
  522MOL0     H71978   2.251   5.430   5.251 -1.1585  1.2547  2.6532
  522MOL0     H71979   2.400   5.683   5.141 -0.3749 -0.6298 -0.7892
  522MOL0     H71980   2.364   5.673   5.305 -1.3433 -2.4483  1.1811
  522MOL0     H71981   2.532   5.482   5.140 -1.7540  0.5601 -1.1610
  522MOL0     H71982   2.521   5.467   5.313  0.9217 -0.9990 -1.1433
  522MOL0     H71983   2.633   5.711   5.153 -1.0589 -0.6177 -0.9963
  522MOL0     H71984   2.636   5.711   5.320  0.4894  0.0607 -0.3174
  522MOL0     H71985   2.753   5.368   5.285 -0.4878  0.4376  0.4503
  522MOL0     H71986   3.038   5.257   5.209 -2.5291 -0.9037  0.1787
  522MOL0     H71987   2.955   5.270   5.359 -0.0840 -1.3781 -1.6895
  522MOL0     H71988   3.204   5.411   5.288 -2.7167  0.6172 -1.4163
  522MOL0     H71989   3.163   5.373   5.465  1.1317 -2.9233  0.6185
  522MOL0     H71990   3.202   5.133   5.414  1.7514  0.0262  4.1112
  522MOL0     H71991   3.274   5.191   5.253  1.6533  4.0997 -0.3969
  522MOL0     H71992   3.369   5.289   5.516 -1.2164 -1.0054  0.2866
  522MOL0     H71993   3.441   5.145   5.442  0.6477  0.1064  0.3786
  522MOL0     H71994   3.614   5.249   5.583 -1.8517 -0.5752 -1.5940
  522MOL0     H71995   3.955   5.158   5.657  1.8940  1.7165 -1.4134
  522MOL0     H71996   3.787   5.145   5.690 -0.0016 -1.5914 -3.1703
  522MOL0     H71997   3.885   5.298   5.737  1.3817 -0.2627  0.0702
  522MOL0     H71998   4.243   5.115   5.297  0.6750 -0.3893  0.2202
  522MOL0     H71999   4.501   5.082   5.274  4.3745  1.5752 -1.1521
  522MOL0     H72000   4.686   5.384   5.086 -1.1091 -2.0362  0.6423
  522MOL0     H72001   4.764   5.473   5.222 -3.0062  1.5566  0.0602
  522MOL0     H72002   4.818   5.198   5.088 -0.7839 -0.1224  0.6674
  522MOL0     H72003   4.883   5.345   5.018 -3.0484  0.1414  0.0125
  522MOL0     H72004   4.962   5.259   5.303  1.1301  3.0501  1.2881
  522MOL0     H72005   5.008   5.407   5.213 -1.6717  1.0482  1.0744
  522MOL0     H72006   5.114   5.263   5.037 -0.7354 -4.0347 -2.1362
  522MOL0     H72007   5.069   5.125   5.099 -2.6194  1.4180 -2.0107
  522MOL0     H72008   5.293   5.179   5.167  1.6523  0.6343  0.9495
  522MOL0     H72009   5.227   5.291   5.286 -0.3295 -0.4851  0.3851
  522MOL0     H72010   5.173   4.990   5.283  0.4898  0.1322 -0.2209
  522MOL0     H72011   5.088   5.101   5.388 -0.8639 -0.1052 -2.2766
  522MOL0     H72012   5.259   5.156   5.507 -0.6241  1.1226 -0.7663
  522MOL0     H72013   5.390   5.112   5.391  0.3033 -4.0414 -2.7592
  522MOL0     H72014   5.351   4.876   5.424 -1.5424 -0.0588  0.1631
  522MOL0     H72015   5.205   4.912   5.525  0.0442  0.4909  0.3825
  522MOL0     H72016   4.540   5.511   5.235  1.2143  0.0811  1.2274
  522MOL0     H72017   4.288   5.531   5.271 -3.5313 -1.3129  1.0202
  522MOL0     H72018   3.908   5.393   5.232 -0.4815 -1.0446  0.0465
  522MOL0     H72019   3.694   5.392   5.187  0.9724  1.7640 -0.4680
  522MOL0     H72020   1.577   5.467   4.920 -0.0873  2.7745 -0.6301
  522MOL0     H72021   1.369   5.332   4.927 -0.6640  0.7508 -0.4843
  522MOL0     H72022   0.822   5.477   5.229 -0.4957 -1.5628  0.9616
  522MOL0     H72023   0.622   5.360   5.211  0.1687  1.1322 -0.0432
  522MOL0     H72024   0.392   5.092   5.174  0.6017 -0.9437  1.4294
  522MOL0     H72025   0.482   5.219   5.253 -2.3149  1.6515  0.0376
  522MOL0     H72026   0.465   5.380   5.084 -0.5611 -0.6425 -1.7929
  522MOL0     H72027   0.316   5.331   5.154 -0.2233 -1.3283 -0.0649
  522MOL0     H72028   0.333   5.152   4.952 -0.9791 -0.1886  0.2525
  522MOL0     H72029   0.235   5.304   4.947  0.5858 -0.3435  1.8333
  522MOL0     H72030   0.508   5.273   4.811 -1.0886 -0.0642 -0.5174
  522MOL0     H72031   0.439   5.432   4.849 -1.3547  1.2796  0.7744
  522MOL0     H72032   0.203   5.338   4.522 -0.2739 -1.0697  0.6846
  522MOL0     H72033   0.791   5.064   4.952  0.3093 -0.1079  0.5030
  522MOL0     H72034   0.997   5.095   4.874  1.6867 -0.0598 -0.9167
  522MOL0     H72035   1.090   5.247   4.903 -1.8078  0.5888  0.3585
  522MOL0     H72036   1.100   5.104   5.017  0.9388  0.4535 -1.2197
  523MOL0     O72037   8.859   0.103   8.678 -0.2345 -0.1887 -0.1095
  523MOL0     C72038   8.740   0.123   8.710 -0.1473 -0.2789 -0.3914
  523MOL0     O72039   8.675   0.242   8.696 -0.0911 -0.1961 -0.2306
  523MOL0     C72040   8.735   0.341   8.632  0.3356 -0.8139  0.0241
  523MOL0     C72041   8.760   0.330   8.501 -0.1307 -0.3684 -0.6735
  523MOL0     C72042   8.847   0.430   8.447 -0.4691 -0.3987 -0.4680
  523MOL0     C72043   8.899   0.535   8.525 -0.6670 -0.1875 -0.1166
  523MOL0     O72044   8.992   0.622   8.476  0.5560 -0.0855  0.0415
  523MOL0     C72045   9.052   0.741   8.542  0.2537  0.4368 -0.4556
  523MOL0     C72046   9.158   0.792   8.444 -0.5972  0.6304  0.3504
  523MOL0     C72047   9.254   0.904   8.476 -0.3210 -0.0523 -0.1927
  523MOL0     C72048   9.359   0.934   8.370  0.2572 -0.0328  0.2824
  523MOL0     C72049   9.436   1.047   8.425  0.1957 -1.0607 -0.2923
  523MOL0     C72050   9.542   1.104   8.336 -1.0323  0.0319  0.6060
  523MOL0     C72051   9.636   1.200   8.409 -0.6254  0.7207  0.5337
  523MOL0     C72052   9.736   1.143   8.503  0.7410  0.1842  0.5291
  523MOL0     N72053   9.832   1.045   8.446  0.1959 -0.5677  0.1669
  523MOL0     C72054   9.962   1.070   8.402  0.4806  0.2198  0.1415
  523MOL0     C72055   9.995   0.950   8.369 -0.5182  0.2387 -0.1032
  523MOL0     C72056  10.133   0.917   8.317 -0.1332  0.0140 -0.0420
  523MOL0     C72057  10.159   1.016   8.200 -0.1821 -0.1176  0.0235
  523MOL0     C72058  10.305   0.977   8.145  0.7551 -0.2416  0.8441
  523MOL0     C72059  10.406   1.026   8.248 -0.1996  0.0583 -0.0836
  523MOL0     O72060  10.530   1.054   8.187 -0.5538  0.3521  0.2352
  523MOL0     C72061  10.639   1.079   8.274 -0.7553  0.3930  0.0696
  523MOL0     C72062  10.627   1.123   8.409 -0.7523  0.2364  0.7173
  523MOL0     C72063  10.735   1.136   8.495 -0.7069  0.5714 -0.4714
  523MOL0     C72064  10.713   1.167   8.632  0.5321 -0.5276 -0.2369
  523MOL0     C72065  10.869   1.116   8.432  0.2071  0.1505 -0.3538
  523MOL0     C72066  10.997   1.126   8.497  1.1468 -0.0608  0.5670
  523MOL0     O72067  11.081   1.023   8.495  0.5137  0.5863 -0.4075
  523MOL0     C72068  11.205   1.028   8.556  0.3498 -1.2535  0.7845
  523MOL0     C72069  11.317   0.987   8.467 -0.1436  0.8992 -0.3551
  523MOL0     C72070  11.440   0.973   8.532  0.3309 -1.0384  0.0972
  523MOL0     C72071  11.456   0.996   8.673 -0.2768 -0.0111 -0.2580
  523MOL0     O72072  11.570   0.977   8.748 -0.2568  0.3027 -0.3021
  523MOL0     C72073  11.688   0.940   8.678  0.1814  0.7619 -0.4940
  523MOL0     C72074  11.809   0.944   8.774  1.2062  0.6088 -0.8027
  523MOL0     C72075  11.931   0.882   8.704 -0.6480 -0.6066 -0.0481
  523MOL0     C72076  12.050   0.864   8.790 -0.6452  0.1346 -1.4555
  523MOL0     C72077  12.183   0.834   8.719 -0.4937  0.4093  0.2338
  523MOL0     C72078  12.281   0.776   8.825  0.0720 -0.5673 -0.2794
  523MOL0     C72079  12.431   0.773   8.777  0.1499 -0.5560 -0.6163
  523MOL0     C72080  12.503   0.912   8.790 -0.5891 -0.0962  0.4402
  523MOL0    Cl72081  12.672   0.898   8.737  0.0118  0.1348  0.4661
  523MOL0     C72082  11.350   1.043   8.745  0.8126  0.3322 -0.7524
  523MOL0     C72083  11.226   1.056   8.686  0.0790  0.4884 -0.2262
  523MOL0     O72084  11.010   1.226   8.568  0.2727  0.8052  0.1859
  523MOL0     C72085  10.882   1.096   8.296  0.0604  0.6473  0.3822
  523MOL0     C72086  10.770   1.070   8.218 -0.7865 -0.4873  0.5207
  523MOL0     N72087   9.908   0.848   8.395  0.2914  0.0301  0.4024
  523MOL0     N72088   9.800   0.912   8.448 -0.0822  0.4925  1.2942
  523MOL0     C72089   8.851   0.553   8.649 -0.4906 -0.5141  0.6431
  523MOL0     C72090   8.769   0.459   8.708  0.6698 -0.7486 -0.9616
  523MOL0     C72091   8.676   0.016   8.792  1.3231  0.2090  0.6457
  523MOL0     C72092   8.598   0.064   8.898 -0.9770 -0.9496 -0.8040
  523MOL0     C72093   8.548  -0.017   8.998  0.3317  0.3637  0.4061
  523MOL0     C72094   8.573  -0.155   8.991 -0.2175  0.4854  0.3038
  523MOL0     O72095   8.512  -0.242   9.075  0.0622 -0.4891  0.0494
  523MOL0     C72096   8.588  -0.320   9.167  0.2217  0.1389 -0.3297
  523MOL0     C72097   8.623  -0.230   9.286  0.1020 -0.3900  0.1410
  523MOL0     C72098   8.765  -0.169   9.270  0.0333 -0.2321 -0.3211
  523MOL0     C72099   8.816  -0.114   9.399  0.5029  0.0428  0.1120
  523MOL0     C72100   8.836  -0.227   9.487 -0.2896  0.4515  0.0919
  523MOL0     C72101   8.863  -0.320   9.560 -0.7554 -0.4297  0.6700
  523MOL0     C72102   8.638  -0.202   8.883 -0.3226 -0.1228 -0.7508
  523MOL0     C72103   8.694  -0.129   8.783  0.0009 -1.3805  0.1281
  523MOL0     C72104   8.776  -0.179   8.671  0.0622  0.7261  0.0283
  523MOL0     H72105   8.746   0.238   8.444 -0.4658 -0.7746  0.0566
  523MOL0     H72106   8.885   0.402   8.349 -0.3477 -0.5189 -0.3874
  523MOL0     H72107   9.087   0.729   8.645 -0.5088  0.7149 -0.1626
  523MOL0     H72108   8.968   0.810   8.548  1.3655  1.8699 -0.6602
  523MOL0     H72109   9.217   0.704   8.418 -1.0867 -0.0425  1.4357
  523MOL0     H72110   9.106   0.823   8.353 -1.7204 -1.4016  0.2265
  523MOL0     H72111   9.190   0.990   8.495 -1.2985 -1.3078  2.6843
  523MOL0     H72112   9.307   0.884   8.570 -0.3395  0.7838 -0.0028
  523MOL0     H72113   9.423   0.851   8.341 -0.3482  0.5504 -3.0326
  523MOL0     H72114   9.302   0.956   8.279  0.0664  0.4899  0.5217
  523MOL0     H72115   9.487   1.011   8.515 -0.3258 -2.6959 -0.6200
  523MOL0     H72116   9.368   1.129   8.449 -2.2293 -3.5711  2.1544
  523MOL0     H72117   9.600   1.018   8.302  2.8679  2.0000  1.5649
  523MOL0     H72118   9.503   1.152   8.246  0.3377  1.3909  0.6740
  523MOL0     H72119   9.568   1.270   8.458 -1.8202  0.0282 -0.0870
  523MOL0     H72120   9.685   1.247   8.323 -0.2873 -0.0905  0.2710
  523MOL0     H72121   9.797   1.230   8.528  0.8982  0.4619 -0.7867
  523MOL0     H72122   9.680   1.098   8.586 -3.9995  5.0316  0.5032
  523MOL0     H72123  10.008   1.167   8.411 -1.0704  1.1165 -1.0226
  523MOL0     H72124  10.130   0.814   8.281  0.5612  0.0365 -0.1849
  523MOL0     H72125  10.200   0.927   8.403  0.4472 -0.7282 -0.3935
  523MOL0     H72126  10.080   0.988   8.129  0.2580 -2.6324  0.4350
  523MOL0     H72127  10.158   1.124   8.215  2.6896 -0.0689  0.5064
  523MOL0     H72128  10.317   0.871   8.119  0.2164 -1.1620  3.9536
  523MOL0     H72129  10.320   1.036   8.054  0.3620 -2.3350 -0.6481
  523MOL0     H72130  10.374   1.113   8.305  0.5785 -0.1254  0.6732
  523MOL0     H72131  10.430   0.942   8.314  1.6929 -0.0970 -0.8870
  523MOL0     H72132  10.528   1.152   8.441 -1.7064  0.0040 -1.8314
  523MOL0     H72133  10.721   1.275   8.643  0.4632 -0.4813 -0.6149
  523MOL0     H72134  10.800   1.134   8.690  1.2278  0.1401 -0.8756
  523MOL0     H72135  10.622   1.116   8.664  0.2825 -0.8879 -1.4629
  523MOL0     H72136  11.306   0.982   8.359  0.0204 -1.7813 -0.3029
  523MOL0     H72137  11.524   0.938   8.473 -0.7559  0.8480 -2.7692
  523MOL0     H72138  11.674   0.842   8.633 -2.3162  0.9289 -0.2353
  523MOL0     H72139  11.702   1.008   8.594 -2.8048  0.3504 -1.4619
  523MOL0     H72140  11.835   1.048   8.799  0.3618  0.8294 -0.8103
  523MOL0     H72141  11.791   0.883   8.862  1.1311 -2.9412 -3.0919
  523MOL0     H72142  11.947   0.949   8.619 -3.3225 -1.7579 -1.5760
  523MOL0     H72143  11.906   0.785   8.660  1.9557 -1.7053  0.7097
  523MOL0     H72144  12.038   0.789   8.869 -0.2282 -0.4589 -1.9503
  523MOL0     H72145  12.066   0.961   8.838 -0.4571 -0.8529  0.5889
  523MOL0     H72146  12.159   0.753   8.650  0.2537 -0.1319  0.6058
  523MOL0     H72147  12.222   0.924   8.671  2.3381 -0.8084  0.0698
  523MOL0     H72148  12.247   0.679   8.861  0.9095 -0.8693 -0.2878
  523MOL0     H72149  12.280   0.841   8.913  0.8781 -0.9002 -0.0206
  523MOL0     H72150  12.435   0.742   8.672 -0.6093  0.0005 -0.8173
  523MOL0     H72151  12.481   0.704   8.845 -3.8905 -0.8854  2.3723
  523MOL0     H72152  12.507   0.944   8.895  0.6361 -0.0958  0.4061
  523MOL0     H72153  12.449   0.991   8.738 -0.0431  0.1765  0.2794
  523MOL0     H72154  11.373   1.067   8.849 -0.8797 -0.2982 -0.1932
  523MOL0     H72155  11.148   1.085   8.756 -0.9994 -0.0499 -1.1719
  523MOL0     H72156  10.982   1.089   8.253  0.8603  0.5377  2.1878
  523MOL0     H72157  10.787   1.037   8.116  2.1970  0.3049  0.6661
  523MOL0     H72158   8.899   0.622   8.717 -1.5551  0.4564  0.4326
  523MOL0     H72159   8.738   0.474   8.811  1.6522  0.4974 -0.8140
  523MOL0     H72160   8.586   0.170   8.914 -1.3539 -1.0356 -0.5024
  523MOL0     H72161   8.475   0.014   9.072 -0.1690 -0.2054  0.1589
  523MOL0     H72162   8.517  -0.392   9.209  0.5906  0.4602  0.8816
  523MOL0     H72163   8.668  -0.370   9.111 -1.2197  1.7044 -4.1319
  523MOL0     H72164   8.626  -0.289   9.378 -0.8119  1.0640  1.1342
  523MOL0     H72165   8.550  -0.149   9.286 -0.9383 -1.1609 -3.0054
  523MOL0     H72166   8.836  -0.246   9.238  0.4071 -0.4822  1.0649
  523MOL0     H72167   8.768  -0.094   9.190 -0.3981 -0.7456 -0.8228
  523MOL0     H72168   8.741  -0.041   9.433 -2.8355 -2.8871 -0.3065
  523MOL0     H72169   8.913  -0.066   9.385  0.8361 -1.1959 -2.5282
  523MOL0     H72170   8.891  -0.395   9.631 -0.2482 -1.8507 -0.9632
  523MOL0     H72171   8.651  -0.309   8.871 -3.1828 -0.8495  1.4092
  523MOL0     H72172   8.761  -0.287   8.663 -0.0843  0.8747 -2.0242
  523MOL0     H72173   8.752  -0.137   8.574  2.6126 -1.2981 -1.6170
  523MOL0     H72174   8.880  -0.151   8.688 -0.1592  1.7947 -0.3552
  524MOL0     O72175   0.692  10.991   7.975 -0.9543  0.4331 -0.1484
  524MOL0     C72176   0.638  10.924   7.890 -0.7461  0.9155 -0.7597
  524MOL0     O72177   0.701  10.830   7.823  0.4701  0.1891 -0.5360
  524MOL0     C72178   0.835  10.828   7.841 -1.0479  0.5847  0.5303
  524MOL0     C72179   0.897  10.775   7.957  0.8033  0.0390 -0.1880
  524MOL0     C72180   1.035  10.772   7.966 -0.6922 -0.6165  0.5413
  524MOL0     C72181   1.114  10.828   7.857  0.1145 -0.5658 -0.0491
  524MOL0     O72182   1.256  10.855   7.868  0.0495  0.2301  0.3464
  524MOL0     C72183   1.296  10.827   8.005 -0.1535 -1.0956 -0.5478
  524MOL0     C72184   1.447  10.854   8.018  0.5161 -1.3625  0.9908
  524MOL0     C72185   1.551  10.755   7.959  0.6143  0.0475  0.1797
  524MOL0     C72186   1.626  10.802   7.829  0.5049  0.7399  1.0015
  524MOL0     C72187   1.739  10.719   7.799  0.0421  0.4409 -0.1947
  524MOL0     C72188   1.844  10.809   7.721  0.3046 -0.5542  0.3285
  524MOL0     C72189   1.958  10.723   7.669 -0.9670  0.0830 -0.2028
  524MOL0     C72190   1.908  10.658   7.538  0.3386 -0.4552  0.3640
  524MOL0     N72191   1.920  10.753   7.427  0.3634  0.0387  0.1527
  524MOL0     C72192   2.015  10.767   7.338  0.0863 -0.1318 -0.7166
  524MOL0     C72193   1.977  10.845   7.243 -0.9890 -0.6697  0.3530
  524MOL0     C72194   2.054  10.894   7.128  0.0601  0.6754  0.4101
  524MOL0     C72195   2.141  10.793   7.052 -0.6475  0.2331 -0.4317
  524MOL0     C72196   2.067  10.732   6.935  0.4479 -0.7627  1.0971
  524MOL0     C72197   1.946  10.645   6.977  0.0577  0.0384 -1.2639
  524MOL0     O72198   1.994  10.536   7.052 -0.2440  1.0228  0.2640
  524MOL0     C72199   1.925  10.489   7.163  0.7181  0.0840 -0.0067
  524MOL0     C72200   1.999  10.399   7.229 -0.5674 -0.0786  0.2827
  524MOL0     C72201   1.945  10.329   7.345 -1.1078  0.5556 -0.5757
  524MOL0     C72202   2.036  10.238   7.427 -0.3380 -0.0556  0.0198
  524MOL0     C72203   1.818  10.354   7.386 -0.9697 -0.7195 -0.0505
  524MOL0     C72204   1.757  10.283   7.501  0.8868  0.2459 -1.0532
  524MOL0     O72205   1.798  10.163   7.538 -0.0627 -0.1737  0.0829
  524MOL0     C72206   1.777  10.100   7.654 -0.1696 -0.2802 -0.4728
  524MOL0     C72207   1.872  10.006   7.693  0.6814 -0.0064 -0.9959
  524MOL0     C72208   1.863   9.931   7.811 -0.6230  0.1703 -0.4422
  524MOL0     C72209   1.748   9.943   7.899  0.3324 -0.7793 -1.0176
  524MOL0     O72210   1.730   9.860   8.002 -0.0927 -0.4223  0.3135
  524MOL0     C72211   1.647   9.900   8.110 -0.2197 -0.1945 -0.5601
  524MOL0     C72212   1.679   9.809   8.235  0.7469  0.0939  0.7115
  524MOL0     C72213   1.630   9.668   8.211  0.4773 -0.2522  0.8584
  524MOL0     C72214   1.661   9.592   8.333  0.0335  0.3164 -0.2374
  524MOL0     C72215   1.545   9.599   8.434  0.6053  0.6833  0.6707
  524MOL0     C72216   1.417   9.510   8.399 -0.2407 -0.4428 -0.1645
  524MOL0     C72217   1.310   9.518   8.514  0.1454 -0.1414 -0.9970
  524MOL0     C72218   1.213   9.418   8.491  0.1899 -0.7421  0.1757
  524MOL0    Cl72219   1.068   9.444   8.595  0.0536 -0.3007 -0.1379
  524MOL0     C72220   1.652  10.043   7.859  1.0827  0.0332 -0.3301
  524MOL0     C72221   1.665  10.124   7.743  0.6776 -0.0938 -0.1617
  524MOL0     O72222   1.688  10.352   7.573 -0.6866 -0.3785  0.2729
  524MOL0     C72223   1.737  10.445   7.310  0.1228 -0.0633 -0.9025
  524MOL0     C72224   1.792  10.510   7.197 -0.2344 -0.6498  0.2318
  524MOL0     N72225   1.850  10.888   7.274  0.6965  0.0496  0.0597
  524MOL0     N72226   1.815  10.824   7.383  0.3954  0.4010 -0.3109
  524MOL0     C72227   1.046  10.874   7.743 -0.3420  0.1769  0.2464
  524MOL0     C72228   0.907  10.864   7.730 -0.4314  0.0489  0.1929
  524MOL0     C72229   0.493  10.944   7.854  0.1893  0.5293 -0.0485
  524MOL0     C72230   0.440  10.868   7.754  0.6705  0.3015  0.3451
  524MOL0     C72231   0.314  10.891   7.697  1.2981 -0.1447 -0.6782
  524MOL0     C72232   0.232  10.991   7.747 -0.3110 -0.4307 -0.1197
  524MOL0     O72233   0.106  11.001   7.696  0.4387  0.8040  0.3417
  524MOL0     C72234   0.057  11.131   7.668 -0.5832 -0.5950  0.0676
  524MOL0     C72235  -0.032  11.178   7.783  0.0890 -0.2849  0.8463
  524MOL0     C72236  -0.067  11.331   7.760  0.5813 -0.1549 -0.0553
  524MOL0     C72237  -0.122  11.366   7.625  0.2084  1.1466  0.3260
  524MOL0     C72238  -0.254  11.304   7.590 -0.0295  0.0451 -0.3270
  524MOL0     C72239  -0.357  11.267   7.555 -0.3851  0.2818 -0.2117
  524MOL0     C72240   0.277  11.059   7.862  0.9920 -0.5576 -0.4904
  524MOL0     C72241   0.400  11.028   7.922 -0.4510  0.1274 -0.2099
  524MOL0     C72242   0.423  11.100   8.052 -0.8779 -0.3701  0.1893
  524MOL0     H72243   0.829  10.747   8.037  0.4528  3.6831  0.9721
  524MOL0     H72244   1.074  10.743   8.063 -1.6401  0.9469  1.4385
  524MOL0     H72245   1.271  10.724   8.028  0.3119 -1.5879 -2.1088
  524MOL0     H72246   1.257  10.902   8.073  0.2299  1.1486 -2.6307
  524MOL0     H72247   1.460  10.951   7.970  0.2739 -3.8207 -4.8332
  524MOL0     H72248   1.453  10.861   8.127  0.3924  0.8944  0.9110
  524MOL0     H72249   1.628  10.734   8.034  1.4031  3.3592  0.4152
  524MOL0     H72250   1.495  10.666   7.928  1.2642  1.0327 -4.6064
  524MOL0     H72251   1.557  10.796   7.745  0.8564 -3.4620  0.8397
  524MOL0     H72252   1.651  10.908   7.839 -1.3721  1.5006 -1.3174
  524MOL0     H72253   1.711  10.628   7.746 -0.2419 -1.2614  2.6331
  524MOL0     H72254   1.796  10.694   7.890 -0.3449  2.2121  0.5657
  524MOL0     H72255   1.795  10.880   7.653 -2.1715 -1.5733  0.9207
  524MOL0     H72256   1.884  10.879   7.795 -0.4400 -0.5212  0.7170
  524MOL0     H72257   1.986  10.637   7.731 -1.3067 -0.3476 -0.6386
  524MOL0     H72258   2.056  10.769   7.654  0.7642 -3.5651 -1.1320
  524MOL0     H72259   1.970  10.573   7.509  1.7341  0.5366  0.3869
  524MOL0     H72260   1.804  10.628   7.557  0.5971 -2.4112 -1.0409
  524MOL0     H72261   2.117  10.732   7.349  0.4361  1.3270  1.2804
  524MOL0     H72262   2.105  10.986   7.156  1.0194  0.5024 -0.7096
  524MOL0     H72263   1.984  10.932   7.052  1.0167  1.2279 -0.2040
  524MOL0     H72264   2.230  10.839   7.009 -0.3395 -0.3912 -0.4729
  524MOL0     H72265   2.174  10.713   7.118  1.1047 -0.4080 -2.0163
  524MOL0     H72266   2.030  10.813   6.873  3.2568 -0.5912 -0.5346
  524MOL0     H72267   2.133  10.666   6.879 -0.6994 -2.4584  1.6460
  524MOL0     H72268   1.886  10.716   7.035  0.9346  1.0873 -1.5952
  524MOL0     H72269   1.888  10.620   6.888 -0.2286  2.6549 -1.8994
  524MOL0     H72270   2.098  10.385   7.188 -0.8232  0.4524 -0.5354
  524MOL0     H72271   2.009  10.132   7.420  0.0913 -0.2116  0.6079
  524MOL0     H72272   2.041  10.261   7.534  3.2093  0.2366 -0.0862
  524MOL0     H72273   2.140  10.254   7.399 -0.6187  1.1195 -0.3795
  524MOL0     H72274   1.959   9.996   7.629  2.5350 -0.3420  1.4338
  524MOL0     H72275   1.935   9.853   7.835 -0.1680 -0.0858 -2.4450
  524MOL0     H72276   1.696   9.990   8.148  1.4335 -0.9877 -0.7421
  524MOL0     H72277   1.540   9.920   8.099  0.2110  5.3355  1.9029
  524MOL0     H72278   1.787   9.816   8.250  0.6729 -1.0061  1.9981
  524MOL0     H72279   1.633   9.838   8.330 -1.1409  0.3839 -0.2401
  524MOL0     H72280   1.684   9.616   8.132  1.8708  0.7490  1.1230
  524MOL0     H72281   1.522   9.665   8.193  0.5591 -2.8854  0.5085
  524MOL0     H72282   1.758   9.627   8.368  0.0409  1.6925 -1.5288
  524MOL0     H72283   1.682   9.489   8.300  0.3764  0.4011 -0.2803
  524MOL0     H72284   1.572   9.547   8.526 -2.0098 -0.0674  1.1090
  524MOL0     H72285   1.526   9.703   8.463  0.7881  1.1453 -0.7823
  524MOL0     H72286   1.437   9.403   8.383  0.7248 -0.2148 -0.5199
  524MOL0     H72287   1.368   9.552   8.311  0.0717 -0.8486 -0.5406
  524MOL0     H72288   1.268   9.619   8.517  1.4077  0.4315  3.0384
  524MOL0     H72289   1.352   9.491   8.611  0.8831 -2.1449 -1.8185
  524MOL0     H72290   1.264   9.325   8.520  0.8639 -1.1057 -2.0173
  524MOL0     H72291   1.188   9.411   8.385  1.1166 -2.2210  0.0197
  524MOL0     H72292   1.559  10.036   7.915  0.3523 -0.6071 -1.5688
  524MOL0     H72293   1.585  10.191   7.715  2.5615  2.6674  0.6151
  524MOL0     H72294   1.636  10.472   7.341  0.6797  0.3861  0.5970
  524MOL0     H72295   1.740  10.588   7.143 -1.3803 -1.1234  0.6205
  524MOL0     H72296   1.100  10.909   7.656  0.5594 -0.6413  0.4588
  524MOL0     H72297   0.864  10.889   7.634  0.2993  0.9202  0.0751
  524MOL0     H72298   0.484  10.789   7.695 -1.2658  0.0118 -0.8258
  524MOL0     H72299   0.289  10.832   7.610  0.9046  0.5446 -1.0344
  524MOL0     H72300   0.141  11.201   7.658  1.2043 -2.6653 -0.1883
  524MOL0     H72301   0.004  11.140   7.573  0.7525  6.2489 -0.5160
  524MOL0     H72302   0.009  11.150   7.881  1.5801 -0.4984  0.1768
  524MOL0     H72303  -0.123  11.118   7.783 -0.2897  0.2682  1.6218
  524MOL0     H72304  -0.132  11.353   7.845  1.2883 -3.2854  1.4758
  524MOL0     H72305   0.023  11.394   7.765 -0.3432  1.1454  1.3062
  524MOL0     H72306  -0.050  11.347   7.545 -0.2710  0.1561  0.1224
  524MOL0     H72307  -0.138  11.474   7.626 -1.7468  0.9446 -1.9390
  524MOL0     H72308  -0.447  11.212   7.539 -0.5951 -0.0138  1.7004
  524MOL0     H72309   0.214  11.125   7.920  2.9946 -0.8142  2.1903
  524MOL0     H72310   0.442  11.032   8.135  0.7098 -0.1421  0.0518
  524MOL0     H72311   0.517  11.156   8.055 -0.0316 -1.7735  2.4917
  524MOL0     H72312   0.351  11.175   8.088  0.1053  0.2458  0.9431
  525MOL0     O72313   9.329   0.474   3.689  0.1034 -0.2270  0.2529
  525MOL0     C72314   9.342   0.580   3.622 -0.3048  0.0118 -0.6062
  525MOL0     O72315   9.243   0.630   3.542  1.2125  0.8184 -0.2577
  525MOL0     C72316   9.110   0.582   3.563  0.0149 -0.0611 -0.0856
  525MOL0     C72317   9.064   0.466   3.504 -0.1234 -0.7264 -0.1341
  525MOL0     C72318   8.931   0.437   3.511  0.0886 -0.3843 -0.6704
  525MOL0     C72319   8.843   0.515   3.586 -0.0748 -0.0694  0.0362
  525MOL0     O72320   8.710   0.480   3.584 -0.2179  0.2978  0.2053
  525MOL0     C72321   8.630   0.491   3.708 -0.5136  0.3636 -0.6129
  525MOL0     C72322   8.656   0.363   3.785  0.0111 -0.5660 -0.6242
  525MOL0     C72323   8.620   0.369   3.933 -0.6482  0.6737 -0.1184
  525MOL0     C72324   8.471   0.344   3.939  0.8785  0.7169 -0.0210
  525MOL0     C72325   8.423   0.366   4.089 -0.3894 -0.5279 -0.2625
  525MOL0     C72326   8.275   0.362   4.114  0.2732 -0.0709 -0.9096
  525MOL0     C72327   8.191   0.444   4.019 -0.4967  0.6290 -0.1449
  525MOL0     C72328   8.050   0.454   4.068 -0.6523  0.1590  0.3136
  525MOL0     N72329   7.985   0.545   3.972  0.8448 -0.1175  0.4308
  525MOL0     C72330   7.950   0.516   3.842 -0.1691  0.3317 -0.2284
  525MOL0     C72331   7.883   0.624   3.801 -1.0614  0.3967  0.7980
  525MOL0     C72332   7.803   0.642   3.673 -0.4252 -0.2643 -0.3255
  525MOL0     C72333   7.848   0.747   3.569  1.3747 -0.1171 -0.6853
  525MOL0     C72334   7.977   0.708   3.486  0.1518 -0.2971  0.3740
  525MOL0     C72335   8.103   0.709   3.578  0.6768  0.3075  0.0622
  525MOL0     O72336   8.230   0.734   3.517 -0.0460 -0.2081 -0.2845
  525MOL0     C72337   8.332   0.765   3.598  0.1741 -0.4121  0.0256
  525MOL0     C72338   8.421   0.860   3.545 -0.2622 -0.1991 -0.5213
  525MOL0     C72339   8.530   0.903   3.620  0.1788  0.3464 -0.5354
  525MOL0     C72340   8.628   0.993   3.552  0.2027  0.6951 -0.1627
  525MOL0     C72341   8.537   0.852   3.761 -1.1412 -0.3541  1.0832
  525MOL0     C72342   8.658   0.899   3.854  0.4019  0.3996  0.2808
  525MOL0     O72343   8.648   0.869   3.985  0.0856  0.8007  0.0068
  525MOL0     C72344   8.731   0.927   4.075  0.5598 -0.2838 -0.4856
  525MOL0     C72345   8.677   0.990   4.187 -0.2146  0.4787 -0.3325
  525MOL0     C72346   8.763   1.074   4.270 -0.0493 -0.0200  0.0300
  525MOL0     C72347   8.897   1.077   4.250  0.2880  0.4746  0.2622
  525MOL0     O72348   8.988   1.145   4.328  0.0933 -0.0203  0.1829
  525MOL0     C72349   8.949   1.267   4.393  0.1306 -0.5200  0.1695
  525MOL0     C72350   8.957   1.379   4.287 -0.7054  0.5304  0.0663
  525MOL0     C72351   9.089   1.387   4.211 -0.0381  0.3920  0.1305
  525MOL0     C72352   9.193   1.455   4.303 -0.1546  0.3145 -0.4485
  525MOL0     C72353   9.323   1.486   4.230 -0.9964 -0.8518  0.4763
  525MOL0     C72354   9.400   1.368   4.173  0.8428 -0.5993 -1.0885
  525MOL0     C72355   9.460   1.274   4.283  0.1344  0.8648  0.0222
  525MOL0     C72356   9.390   1.136   4.287  0.1928 -0.5358  0.3695
  525MOL0    Cl72357   9.488   1.040   4.396  0.0078  0.2709  0.1276
  525MOL0     C72358   8.952   1.004   4.143  0.6423  0.3746 -0.1794
  525MOL0     C72359   8.867   0.923   4.056  0.3625 -0.5187 -0.0972
  525MOL0     O72360   8.759   0.946   3.796  0.1004 -0.9238 -0.2055
  525MOL0     C72361   8.443   0.756   3.811 -0.3091  0.6872 -0.0764
  525MOL0     C72362   8.341   0.711   3.730 -0.1374 -0.4270 -0.0428
  525MOL0     N72363   7.875   0.717   3.898  0.0579 -0.4646 -0.6568
  525MOL0     N72364   7.931   0.667   3.997 -0.1575  0.7926  0.0170
  525MOL0     C72365   8.887   0.635   3.657 -1.1455  0.0450  0.3831
  525MOL0     C72366   9.026   0.660   3.639 -0.8095 -0.8711 -0.0646
  525MOL0     C72367   9.460   0.663   3.659 -0.1081 -0.9445 -0.3545
  525MOL0     C72368   9.540   0.623   3.769 -0.4027  0.4856 -0.1117
  525MOL0     C72369   9.657   0.694   3.804 -0.0302 -1.1861  0.2307
  525MOL0     C72370   9.696   0.816   3.739  0.3494  0.7965  0.5454
  525MOL0     O72371   9.799   0.898   3.761 -0.1600 -0.7624 -0.0847
  525MOL0     C72372   9.863   0.897   3.896  0.5350 -0.4783  0.0062
  525MOL0     C72373   9.767   0.904   4.021 -1.0176  0.2705 -0.0233
  525MOL0     C72374   9.704   1.051   4.025 -0.8742  0.0304 -0.6811
  525MOL0     C72375   9.794   1.174   3.982 -0.3211 -0.6027 -0.5833
  525MOL0     C72376   9.931   1.171   4.048  0.3381  0.8144  0.5655
  525MOL0     C72377  10.028   1.173   4.112 -0.6392  0.4321 -0.1580
  525MOL0     C72378   9.614   0.849   3.627 -0.3071  0.5465  0.8088
  525MOL0     C72379   9.496   0.779   3.590 -0.3577  0.5162  0.6619
  525MOL0     C72380   9.424   0.836   3.471 -0.0055  0.1480  0.2780
  525MOL0     H72381   9.135   0.416   3.439  1.7322  1.2668  0.2592
  525MOL0     H72382   8.885   0.355   3.458 -0.8101 -0.9857  0.9770
  525MOL0     H72383   8.524   0.514   3.691 -0.4241  2.9510  1.6298
  525MOL0     H72384   8.673   0.570   3.770  2.9704 -0.3934 -1.8417
  525MOL0     H72385   8.602   0.279   3.742 -0.2505 -1.1230  0.7422
  525MOL0     H72386   8.765   0.356   3.792  0.2269  2.2965  0.5375
  525MOL0     H72387   8.674   0.302   4.001  3.5480  1.5946 -2.1840
  525MOL0     H72388   8.642   0.472   3.960 -0.5367  0.1665  1.8652
  525MOL0     H72389   8.424   0.415   3.871 -2.4165 -0.4608  0.8693
  525MOL0     H72390   8.438   0.243   3.913 -3.3505  2.0525 -0.6468
  525MOL0     H72391   8.475   0.457   4.124  0.5995  0.3508 -3.6365
  525MOL0     H72392   8.465   0.293   4.159 -1.7068 -0.6039  0.4762
  525MOL0     H72393   8.249   0.256   4.116  1.0082 -0.2720  1.1679
  525MOL0     H72394   8.242   0.388   4.215 -2.1008 -1.9636 -1.0952
  525MOL0     H72395   8.189   0.378   3.932 -0.4306  0.2956  0.1060
  525MOL0     H72396   8.247   0.537   4.005  2.9974 -1.5576 -2.2198
  525MOL0     H72397   7.997   0.358   4.075 -0.7294  0.1705 -0.0686
  525MOL0     H72398   8.031   0.505   4.163 -2.7926  2.5735 -1.2745
  525MOL0     H72399   7.958   0.424   3.785 -1.0310 -1.5512  2.5053
  525MOL0     H72400   7.706   0.684   3.701  0.4439  0.3389  2.0177
  525MOL0     H72401   7.793   0.542   3.629 -2.9310  1.1403 -3.2579
  525MOL0     H72402   7.762   0.753   3.503  0.6950  1.8571  0.2965
  525MOL0     H72403   7.854   0.843   3.622 -0.9971 -0.3179  0.0400
  525MOL0     H72404   7.949   0.615   3.436 -1.2773  0.0176  0.5534
  525MOL0     H72405   7.995   0.790   3.416 -1.4191  1.9054  2.3591
  525MOL0     H72406   8.078   0.781   3.656 -0.9023  1.9452 -1.8462
  525MOL0     H72407   8.104   0.612   3.630 -2.3947  0.5412  0.7673
  525MOL0     H72408   8.407   0.898   3.444  1.9636  0.9606 -0.4592
  525MOL0     H72409   8.729   0.952   3.544 -0.1655 -0.2200 -0.3144
  525MOL0     H72410   8.647   1.091   3.596 -0.3197  1.7585 -2.2184
  525MOL0     H72411   8.586   1.013   3.453  0.0677 -0.8539 -0.4464
  525MOL0     H72412   8.572   0.996   4.210 -0.4119  1.7359 -1.4615
  525MOL0     H72413   8.718   1.131   4.351 -1.6849  2.6288 -2.5168
  525MOL0     H72414   8.850   1.253   4.439  0.9254  1.8022  2.8526
  525MOL0     H72415   9.020   1.288   4.473  0.6600 -2.1411  0.1545
  525MOL0     H72416   8.880   1.354   4.213 -0.9996  2.2037 -0.2573
  525MOL0     H72417   8.933   1.478   4.327 -2.0793 -0.2645  1.3254
  525MOL0     H72418   9.079   1.443   4.118 -0.4487  0.8855  0.4639
  525MOL0     H72419   9.121   1.285   4.188  1.4761  0.2714  2.4042
  525MOL0     H72420   9.209   1.402   4.397 -2.0087  0.2004 -0.1738
  525MOL0     H72421   9.156   1.555   4.325 -1.7922 -0.1684 -0.9181
  525MOL0     H72422   9.310   1.551   4.144 -0.9357  0.2197  1.2598
  525MOL0     H72423   9.389   1.534   4.303  1.6892 -2.7247 -0.5431
  525MOL0     H72424   9.482   1.422   4.125 -0.0524  3.2468  1.2515
  525MOL0     H72425   9.348   1.308   4.097  0.9582 -0.2551 -1.4418
  525MOL0     H72426   9.446   1.311   4.385 -1.1348  2.9900 -0.8560
  525MOL0     H72427   9.568   1.257   4.270  0.5344  2.2630  1.1082
  525MOL0     H72428   9.385   1.085   4.191  0.4457  1.3888 -0.7277
  525MOL0     H72429   9.289   1.146   4.328 -1.0926  0.3802 -2.7405
  525MOL0     H72430   9.060   1.014   4.135  0.3334  3.1522 -2.1610
  525MOL0     H72431   8.905   0.870   3.969 -2.4602 -1.6007 -0.7766
  525MOL0     H72432   8.460   0.710   3.907  1.1930  1.4078  0.0379
  525MOL0     H72433   8.273   0.629   3.751 -0.7066 -0.8531 -3.0800
  525MOL0     H72434   8.829   0.695   3.726  1.2563 -0.3198  2.8953
  525MOL0     H72435   9.070   0.750   3.680  1.8072 -3.1133  2.5155
  525MOL0     H72436   9.511   0.539   3.830  2.7303 -0.1519  0.6413
  525MOL0     H72437   9.687   0.664   3.904 -0.7099 -2.4444  0.0879
  525MOL0     H72438   9.926   0.810   3.916 -0.3109 -0.9722  0.5780
  525MOL0     H72439   9.933   0.981   3.889  0.2856  0.0653  2.7728
  525MOL0     H72440   9.839   0.887   4.102 -0.3994 -2.7599 -1.0648
  525MOL0     H72441   9.685   0.832   4.033 -2.0585  0.9426 -2.5810
  525MOL0     H72442   9.632   1.047   3.943 -0.1923 -0.7322 -1.2567
  525MOL0     H72443   9.655   1.067   4.122 -1.3059  3.5242 -1.3436
  525MOL0     H72444   9.749   1.273   3.992 -0.8152 -0.7027 -1.7252
  525MOL0     H72445   9.814   1.161   3.875 -0.9238  1.1016 -0.9248
  525MOL0     H72446  10.125   1.175   4.157 -1.0959 -0.4691  0.9137
  525MOL0     H72447   9.643   0.929   3.561 -0.9234  1.4499  1.6119
  525MOL0     H72448   9.433   0.764   3.389  3.2561  1.4676 -0.6886
  525MOL0     H72449   9.321   0.843   3.507  0.5010 -0.6594  1.9938
  525MOL0     H72450   9.460   0.934   3.438  0.6027 -0.1203  0.1371
  526MOL0     O72451   2.013   4.852   1.966 -0.6522 -0.5745 -0.2572
  526MOL0     C72452   1.995   4.939   1.884 -0.0552 -0.7706  0.6585
  526MOL0     O72453   2.096   5.021   1.826 -0.3524 -0.6454  0.2913
  526MOL0     C72454   2.226   4.982   1.842 -0.0386 -0.8392 -0.4876
  526MOL0     C72455   2.275   4.854   1.813 -0.4919  0.5889  0.5567
  526MOL0     C72456   2.413   4.818   1.842  0.0358 -0.0408  0.4873
  526MOL0     C72457   2.504   4.922   1.858 -1.4376 -0.1689  0.4511
  526MOL0     O72458   2.636   4.894   1.879  0.1550  0.3537 -0.7505
  526MOL0     C72459   2.743   4.969   1.822  0.4111 -0.2008 -0.4420
  526MOL0     C72460   2.877   4.906   1.851 -0.5315  0.2423  0.7076
  526MOL0     C72461   2.873   4.749   1.847 -0.1624 -0.0165 -0.5563
  526MOL0     C72462   2.840   4.690   1.713  0.8221 -0.0476 -0.2936
  526MOL0     C72463   2.967   4.699   1.619  0.8092  0.0811 -0.6592
  526MOL0     C72464   2.938   4.677   1.467 -0.1334 -0.2043 -0.4015
  526MOL0     C72465   3.067   4.693   1.386 -0.1001  0.4030  0.1404
  526MOL0     C72466   3.049   4.815   1.288  0.2402 -0.2573  0.2729
  526MOL0     N72467   3.069   4.938   1.360  0.9577  0.7713  0.5710
  526MOL0     C72468   3.195   5.003   1.358  0.8760  0.4517 -0.2222
  526MOL0     C72469   3.175   5.112   1.437  0.2532  0.5281  0.4360
  526MOL0     C72470   3.270   5.212   1.474 -0.6186  0.2957 -0.5066
  526MOL0     C72471   3.313   5.184   1.618  0.3707  0.0647 -1.0321
  526MOL0     C72472   3.367   5.312   1.673 -0.8968 -0.3369  1.4166
  526MOL0     C72473   3.480   5.363   1.580  0.0323 -0.6213 -0.6572
  526MOL0     O72474   3.585   5.269   1.598  0.4078  0.3142  0.5686
  526MOL0     C72475   3.712   5.303   1.565 -0.2862  0.7293  0.1013
  526MOL0     C72476   3.809   5.203   1.592  0.0901 -0.4791  0.0347
  526MOL0     C72477   3.941   5.235   1.577  0.6617 -0.7164 -0.1189
  526MOL0     C72478   4.048   5.136   1.612 -0.6301 -0.5936  0.2690
  526MOL0     C72479   3.983   5.361   1.516 -0.3223 -0.0713  0.1064
  526MOL0     C72480   4.124   5.401   1.489  0.4724  0.0919 -0.1338
  526MOL0     O72481   4.229   5.329   1.540  0.1217  1.0817  0.1399
  526MOL0     C72482   4.358   5.359   1.513 -0.4507  0.0830  0.7145
  526MOL0     C72483   4.422   5.490   1.526  0.2445  0.4790  0.4437
  526MOL0     C72484   4.556   5.514   1.482  0.0671 -0.6088 -0.4988
  526MOL0     C72485   4.637   5.414   1.420  0.9933  0.5111 -0.3087
  526MOL0     O72486   4.760   5.447   1.375  0.6299 -0.5575 -0.4762
  526MOL0     C72487   4.838   5.351   1.305 -0.9178 -0.6210 -0.2382
  526MOL0     C72488   4.911   5.249   1.397  0.8128  0.7003  0.1413
  526MOL0     C72489   5.011   5.315   1.498 -1.0542  0.5644 -0.5345
  526MOL0     C72490   5.136   5.357   1.427 -0.4465 -0.2279 -0.6238
  526MOL0     C72491   5.243   5.386   1.538  0.1917 -0.4835  0.1664
  526MOL0     C72492   5.325   5.268   1.592 -0.2658 -0.4866  0.2855
  526MOL0     C72493   5.426   5.328   1.694 -0.0597  0.1914  0.6675
  526MOL0     C72494   5.503   5.218   1.771 -0.4538  0.7472 -0.4751
  526MOL0    Cl72495   5.583   5.124   1.642 -0.4097 -0.0065  0.2535
  526MOL0     C72496   4.573   5.288   1.393 -0.1950 -0.2223  0.0805
  526MOL0     C72497   4.444   5.256   1.448  0.2752 -0.0725  0.8799
  526MOL0     O72498   4.133   5.483   1.404  0.2600 -0.2258  0.0727
  526MOL0     C72499   3.879   5.451   1.478  0.8768  0.2830 -0.1743
  526MOL0     C72500   3.747   5.435   1.520  0.3271  0.0628  0.5657
  526MOL0     N72501   3.039   5.121   1.464  0.1562  1.0164 -0.6219
  526MOL0     N72502   2.975   5.019   1.411  0.6286 -1.1296  0.0855
  526MOL0     C72503   2.451   5.054   1.870  0.9799  0.0051  0.1329
  526MOL0     C72504   2.320   5.084   1.866  0.2730  0.1029 -0.8795
  526MOL0     C72505   1.852   4.959   1.846  0.3166  0.4268  0.6041
  526MOL0     C72506   1.755   4.903   1.926 -0.0000 -0.0329 -0.4827
  526MOL0     C72507   1.620   4.929   1.912  0.3933 -0.0044  0.1681
  526MOL0     C72508   1.581   5.017   1.811  1.2312  0.7997 -0.2192
  526MOL0     O72509   1.449   5.040   1.790  0.2227 -0.4940  0.4182
  526MOL0     C72510   1.342   4.956   1.829 -0.6139  0.0192 -0.1735
  526MOL0     C72511   1.282   4.999   1.968 -0.2246 -0.3440  0.5569
  526MOL0     C72512   1.202   4.875   2.017  0.9669  0.1636 -0.1407
  526MOL0     C72513   1.160   4.854   2.165  0.4213 -1.0180 -1.2103
  526MOL0     C72514   1.077   4.968   2.217 -0.8846  0.4713 -0.1847
  526MOL0     C72515   1.021   5.064   2.262  0.2355 -0.3726 -0.6527
  526MOL0     C72516   1.668   5.076   1.729 -0.6701 -0.3463 -0.6903
  526MOL0     C72517   1.806   5.049   1.744  0.3468  0.4819  0.0796
  526MOL0     C72518   1.896   5.090   1.635 -0.6812 -0.6451  0.2642
  526MOL0     H72519   2.204   4.774   1.792  0.4611 -0.5476  1.5267
  526MOL0     H72520   2.439   4.713   1.832 -1.0006 -0.3771  1.1541
  526MOL0     H72521   2.751   5.072   1.857  2.1208 -0.7638  1.0285
  526MOL0     H72522   2.740   4.989   1.715  1.0929  1.7838 -0.1403
  526MOL0     H72523   2.943   4.943   1.772  0.9629 -0.2115  1.7033
  526MOL0     H72524   2.917   4.952   1.942  1.7658  1.1982 -0.7033
  526MOL0     H72525   2.967   4.710   1.886  0.3413 -0.0366 -1.7318
  526MOL0     H72526   2.792   4.721   1.916  0.6672  1.4468  1.0794
  526MOL0     H72527   2.805   4.588   1.730 -2.0534  1.0273  0.7408
  526MOL0     H72528   2.754   4.743   1.673 -1.5163 -1.3119  2.6716
  526MOL0     H72529   3.037   4.622   1.653 -2.2835 -2.2633  0.9744
  526MOL0     H72530   3.019   4.794   1.629 -1.6115  1.6759 -2.2628
  526MOL0     H72531   2.901   4.575   1.458 -1.5833  0.4050 -1.8256
  526MOL0     H72532   2.857   4.737   1.425 -1.1107 -1.5431 -0.5039
  526MOL0     H72533   3.077   4.599   1.331  0.8343  0.0434  0.9115
  526MOL0     H72534   3.159   4.715   1.442 -0.0092  1.9075 -0.5464
  526MOL0     H72535   3.129   4.807   1.214  1.3084 -0.0033  1.3646
  526MOL0     H72536   2.952   4.804   1.240  1.5551 -4.2426 -1.9296
  526MOL0     H72537   3.293   4.973   1.324  0.7368 -0.2862  0.0046
  526MOL0     H72538   3.230   5.310   1.445  0.9030  0.5599 -1.8745
  526MOL0     H72539   3.354   5.206   1.404 -1.6309 -0.5999 -1.6986
  526MOL0     H72540   3.229   5.170   1.686  0.9344  2.5095  0.2911
  526MOL0     H72541   3.381   5.100   1.631  2.1506  1.5345 -0.3819
  526MOL0     H72542   3.275   5.370   1.688 -1.4105 -1.5937  3.6419
  526MOL0     H72543   3.398   5.297   1.777 -0.8588  0.2337  1.4921
  526MOL0     H72544   3.460   5.375   1.473 -0.7607  0.2237 -0.4223
  526MOL0     H72545   3.508   5.462   1.615 -0.1264 -0.3446 -1.2941
  526MOL0     H72546   3.783   5.107   1.636 -0.6480  0.4254  1.6619
  526MOL0     H72547   4.007   5.039   1.643 -0.7541 -0.6236  0.0091
  526MOL0     H72548   4.116   5.175   1.689  1.3848 -2.0484 -0.6563
  526MOL0     H72549   4.113   5.113   1.527  0.6559  0.0825  1.0362
  526MOL0     H72550   4.362   5.575   1.555  1.3796  2.0333 -1.4861
  526MOL0     H72551   4.592   5.616   1.482 -0.1260 -0.3632 -4.9109
  526MOL0     H72552   4.781   5.298   1.229 -1.2273 -3.7125  1.9223
  526MOL0     H72553   4.907   5.416   1.250  1.3311 -1.7532  1.0691
  526MOL0     H72554   4.836   5.190   1.449 -0.4169  1.7949 -0.3284
  526MOL0     H72555   4.966   5.182   1.331 -2.5091  0.7029 -2.9384
  526MOL0     H72556   5.040   5.231   1.561 -0.9445  0.2094 -1.0512
  526MOL0     H72557   4.962   5.393   1.558  2.6061  2.2946  0.4898
  526MOL0     H72558   5.118   5.451   1.373  1.9006  1.9152  1.9410
  526MOL0     H72559   5.169   5.286   1.351 -3.4264 -0.6243 -1.6582
  526MOL0     H72560   5.323   5.449   1.498  1.5456 -1.5801  1.0260
  526MOL0     H72561   5.193   5.435   1.621  2.7995  2.6845  0.0615
  526MOL0     H72562   5.374   5.217   1.509  1.2509  1.1120  0.1356
  526MOL0     H72563   5.262   5.198   1.647 -0.6857  0.3141  0.8398
  526MOL0     H72564   5.374   5.384   1.772  0.1742  1.0759  0.1984
  526MOL0     H72565   5.497   5.393   1.642  1.3860 -0.7891  1.3329
  526MOL0     H72566   5.430   5.154   1.821 -0.7196 -1.2025 -3.1569
  526MOL0     H72567   5.576   5.260   1.841 -0.0750  0.7159 -0.8483
  526MOL0     H72568   4.616   5.209   1.333 -0.6185  0.3426 -1.0162
  526MOL0     H72569   4.397   5.160   1.434  0.6878 -0.5021  2.3170
  526MOL0     H72570   3.911   5.543   1.429  0.2476  1.1322  0.9522
  526MOL0     H72571   3.678   5.514   1.492  1.3039  1.6812  2.4891
  526MOL0     H72572   2.520   5.134   1.896 -0.8536  1.1935  1.5921
  526MOL0     H72573   2.290   5.186   1.882  2.7695  0.9445 -1.0960
  526MOL0     H72574   1.783   4.842   2.011  1.7920  0.3195 -0.7805
  526MOL0     H72575   1.559   4.877   1.985 -0.6827 -0.4422 -0.9920
  526MOL0     H72576   1.270   4.963   1.748 -0.8112 -1.9469 -0.2145
  526MOL0     H72577   1.377   4.852   1.836 -0.6455  0.1059  2.8456
  526MOL0     H72578   1.227   5.091   1.945  1.0778  0.4643  0.5736
  526MOL0     H72579   1.355   5.024   2.045 -1.1598  0.1262  1.3221
  526MOL0     H72580   1.110   4.854   1.962 -0.0356 -1.7243  2.0796
  526MOL0     H72581   1.263   4.786   1.997  0.7741  0.2295 -1.1037
  526MOL0     H72582   1.251   4.834   2.223 -0.3816  0.8510  0.8604
  526MOL0     H72583   1.105   4.760   2.169  0.9641 -1.2966  1.3513
  526MOL0     H72584   0.976   5.152   2.303  0.1421 -1.9732  2.9701
  526MOL0     H72585   1.632   5.154   1.663 -0.3756  2.3644  2.1207
  526MOL0     H72586   1.840   5.113   1.544 -0.4479 -1.9559 -0.2286
  526MOL0     H72587   1.963   5.172   1.660 -0.1948 -1.5597  2.1070
  526MOL0     H72588   1.962   5.005   1.616  1.8979  1.5633 -1.2872
  527MOL0     O72589  10.807   3.523  10.599 -0.4141  0.1257 -0.7311
  527MOL0     C72590  10.806   3.405  10.605 -0.6271  1.0014 -0.7629
  527MOL0     O72591  10.903   3.316  10.648 -0.4919  0.1522 -1.1108
  527MOL0     C72592  11.030   3.373  10.656  0.1012  0.7098  1.2822
  527MOL0     C72593  11.088   3.434  10.538  0.5142 -0.7134  0.0212
  527MOL0     C72594  11.209   3.496  10.539  0.2236  0.4827 -0.0099
  527MOL0     C72595  11.282   3.497  10.655 -0.0051  0.4526 -0.0643
  527MOL0     O72596  11.413   3.539  10.660  0.7693  0.1115  0.2501
  527MOL0     C72597  11.487   3.514  10.537 -0.0588  0.1147  0.6037
  527MOL0     C72598  11.639   3.537  10.572  0.0505 -0.2538  0.6471
  527MOL0     C72599  11.686   3.425  10.662  0.0259  0.7038 -0.3465
  527MOL0     C72600  11.839   3.453  10.689  0.5012  0.0365 -0.6107
  527MOL0     C72601  11.905   3.336  10.774  0.6495 -0.3794 -0.0052
  527MOL0     C72602  12.045   3.365  10.824  0.1923  0.3032  0.7670
  527MOL0     C72603  12.156   3.351  10.730  0.7621  0.2606 -0.2294
  527MOL0     C72604  12.182   3.482  10.650 -0.2510 -0.1666 -0.3534
  527MOL0     N72605  12.261   3.460  10.533 -0.2702  0.4836 -0.8371
  527MOL0     C72606  12.211   3.420  10.407 -0.0202  0.5026  0.2395
  527MOL0     C72607  12.319   3.363  10.348  0.6222 -0.3986 -0.5754
  527MOL0     C72608  12.338   3.312  10.201 -0.6598  0.1068  0.5382
  527MOL0     C72609  12.486   3.319  10.145 -0.7150  0.1788  0.7803
  527MOL0     C72610  12.491   3.260   9.998  0.2339 -0.3422 -0.4984
  527MOL0     C72611  12.634   3.249   9.953  0.6371  0.2209 -0.0420
  527MOL0     O72612  12.635   3.225   9.809  0.2944 -0.7457 -0.0214
  527MOL0     C72613  12.749   3.190   9.740 -0.6821 -0.1851  0.1339
  527MOL0     C72614  12.746   3.090   9.639  0.9556 -1.5030 -1.2154
  527MOL0     C72615  12.859   3.030   9.584  0.4605 -0.7438 -0.1685
  527MOL0     C72616  12.840   2.923   9.481  0.0019  0.1800  0.0394
  527MOL0     C72617  12.984   3.085   9.612 -0.2565 -0.4863 -0.3145
  527MOL0     C72618  13.115   3.046   9.543 -0.8773 -0.0023  0.5204
  527MOL0     O72619  13.118   3.005   9.410 -0.4335  0.0124 -0.4199
  527MOL0     C72620  13.237   2.959   9.355  0.6735  0.1401 -0.2770
  527MOL0     C72621  13.238   2.825   9.330 -0.1275  0.2010 -0.7355
  527MOL0     C72622  13.351   2.776   9.260 -0.8794 -0.3406 -0.6927
  527MOL0     C72623  13.464   2.853   9.236 -0.9060  0.2907  0.5324
  527MOL0     O72624  13.565   2.780   9.177  0.2730  0.3216  0.3442
  527MOL0     C72625  13.687   2.846   9.144 -1.2715 -0.5335 -0.5025
  527MOL0     C72626  13.787   2.743   9.095 -0.2338 -0.2966 -0.4180
  527MOL0     C72627  13.913   2.829   9.050  0.2275 -0.6523  1.1533
  527MOL0     C72628  14.016   2.746   8.977  0.5320  0.6981  0.4676
  527MOL0     C72629  14.125   2.833   8.909 -0.3112 -0.3309  0.0824
  527MOL0     C72630  14.217   2.754   8.813  0.0602  0.2354  0.3456
  527MOL0     C72631  14.285   2.858   8.711 -0.7486  0.1975  0.1586
  527MOL0     C72632  14.429   2.899   8.766  1.0685 -0.4596  0.5911
  527MOL0    Cl72633  14.402   3.031   8.883 -0.4153 -0.8316  0.0754
  527MOL0     C72634  13.464   2.989   9.271 -0.0906 -0.2995 -0.4978
  527MOL0     C72635  13.346   3.041   9.335 -0.2566  0.5769 -0.5895
  527MOL0     O72636  13.220   3.050   9.616 -0.1032  0.1186  0.3442
  527MOL0     C72637  12.991   3.195   9.696  0.2119 -0.7408  0.2672
  527MOL0     C72638  12.875   3.246   9.763  0.9190  0.6088  0.0319
  527MOL0     N72639  12.436   3.375  10.426 -0.0446  0.1939  0.1921
  527MOL0     N72640  12.391   3.418  10.540 -0.3562 -0.2867 -0.2060
  527MOL0     C72641  11.232   3.448  10.771 -1.2590  0.3982  0.0432
  527MOL0     C72642  11.112   3.378  10.772  0.6814 -0.2844  0.5649
  527MOL0     C72643  10.675   3.349  10.566  0.3233  1.1515  0.0485
  527MOL0     C72644  10.609   3.281  10.667  0.0257  0.0040  0.1869
  527MOL0     C72645  10.477   3.238  10.653  0.1488 -0.7841 -0.3434
  527MOL0     C72646  10.402   3.265  10.539 -0.0168 -0.4345 -0.0594
  527MOL0     O72647  10.264   3.251  10.528  0.2790  0.1581  0.3096
  527MOL0     C72648  10.201   3.152  10.612 -0.5191 -0.5395  0.0358
  527MOL0     C72649  10.160   3.194  10.757 -0.6265 -0.0615  0.0508
  527MOL0     C72650  10.053   3.099  10.796 -0.1147  0.3824  0.7778
  527MOL0     C72651   9.924   3.168  10.781 -0.2632 -0.5448  0.1213
  527MOL0     C72652   9.835   3.122  10.883  0.4219 -0.3422 -0.0992
  527MOL0     C72653   9.747   3.094  10.959  0.6791  0.6420 -0.1903
  527MOL0     C72654  10.465   3.343  10.441 -0.4175 -0.0680 -0.3758
  527MOL0     C72655  10.602   3.376  10.452 -1.0926  0.2440 -0.0750
  527MOL0     C72656  10.658   3.454  10.332 -0.2168  0.0116 -0.0986
  527MOL0     H72657  11.031   3.438  10.445  1.9233  0.0075 -0.8448
  527MOL0     H72658  11.240   3.544  10.447  1.2353  1.6970  0.9397
  527MOL0     H72659  11.458   3.595  10.469  2.7376  1.8212  1.2409
  527MOL0     H72660  11.472   3.416  10.492 -0.1664  0.8635 -1.0535
  527MOL0     H72661  11.697   3.534  10.479 -2.4861 -2.3270 -0.9913
  527MOL0     H72662  11.649   3.633  10.624  0.1155 -0.2283  0.5867
  527MOL0     H72663  11.639   3.441  10.759 -0.7205 -0.0552 -0.5724
  527MOL0     H72664  11.661   3.325  10.625 -2.2569  1.0822  0.0454
  527MOL0     H72665  11.878   3.447  10.588  0.2795  1.5340 -0.7955
  527MOL0     H72666  11.851   3.552  10.734 -0.6405  0.2727 -0.7901
  527MOL0     H72667  11.904   3.242  10.718 -2.6143  0.7860 -2.1708
  527MOL0     H72668  11.843   3.323  10.864  1.6581 -1.5377  0.5653
  527MOL0     H72669  12.036   3.461  10.875 -1.0029 -0.1901  1.5189
  527MOL0     H72670  12.067   3.285  10.895  1.8070 -1.5903 -1.6648
  527MOL0     H72671  12.147   3.264  10.664  2.6879  0.0540 -0.2714
  527MOL0     H72672  12.246   3.349  10.791 -0.5052  3.5347  1.9831
  527MOL0     H72673  12.088   3.530  10.622 -0.6632  0.8682  2.4854
  527MOL0     H72674  12.234   3.539  10.727 -1.5973  0.7999 -0.1260
  527MOL0     H72675  12.110   3.429  10.370 -0.1319 -1.7167 -0.1424
  527MOL0     H72676  12.290   3.375  10.126  2.3131 -0.3002 -1.8788
  527MOL0     H72677  12.308   3.207  10.189  1.1654 -0.2202 -1.7358
  527MOL0     H72678  12.517   3.423  10.154  0.0270 -0.0208  0.5861
  527MOL0     H72679  12.543   3.249  10.206  0.0434  0.1643  0.0691
  527MOL0     H72680  12.442   3.163   9.993  0.8013 -0.6338 -0.4940
  527MOL0     H72681  12.443   3.324   9.924  3.6096  1.8275 -1.0486
  527MOL0     H72682  12.679   3.347   9.975  0.7687  0.6585 -2.0098
  527MOL0     H72683  12.684   3.167  10.005 -0.2454  0.5490  1.3484
  527MOL0     H72684  12.651   3.046   9.611 -0.0080  0.1798 -0.7644
  527MOL0     H72685  12.918   2.847   9.489  3.9365  3.7131 -1.0713
  527MOL0     H72686  12.836   2.961   9.378  1.2530 -0.5112 -0.2778
  527MOL0     H72687  12.742   2.873   9.488  0.1052 -0.2106 -1.0679
  527MOL0     H72688  13.150   2.763   9.343  0.2363 -0.0281  0.7680
  527MOL0     H72689  13.354   2.671   9.233 -1.6314 -1.2724  2.3926
  527MOL0     H72690  13.666   2.913   9.060  0.5591 -2.5050 -2.7066
  527MOL0     H72691  13.732   2.897   9.229  1.9808 -0.6070 -2.0089
  527MOL0     H72692  13.818   2.678   9.177  3.4951  0.0493 -1.3664
  527MOL0     H72693  13.739   2.685   9.016  2.2980 -2.2224 -0.6491
  527MOL0     H72694  13.961   2.886   9.130 -0.2953  1.1228  0.2554
  527MOL0     H72695  13.871   2.901   8.979 -2.8848 -3.0774  0.2989
  527MOL0     H72696  13.965   2.706   8.889  0.4347  2.1222 -0.1472
  527MOL0     H72697  14.056   2.671   9.046  1.5996  0.6606 -0.1778
  527MOL0     H72698  14.067   2.898   8.843 -0.1172 -1.0504 -0.8133
  527MOL0     H72699  14.171   2.900   8.983 -0.6907  0.3821 -0.3185
  527MOL0     H72700  14.158   2.681   8.756  1.4029 -0.6197  0.0179
  527MOL0     H72701  14.296   2.702   8.867 -0.5260 -0.1683  0.8241
  527MOL0     H72702  14.219   2.943   8.692  0.8584  0.9489 -2.5494
  527MOL0     H72703  14.307   2.813   8.614  4.6349 -0.0738  1.1924
  527MOL0     H72704  14.489   2.933   8.681 -0.2380  2.0658  0.5758
  527MOL0     H72705  14.475   2.822   8.829  0.7732 -0.4366  0.8365
  527MOL0     H72706  13.541   3.051   9.228 -1.2834  1.9463  0.4324
  527MOL0     H72707  13.338   3.148   9.353  0.0818  0.5825 -0.4605
  527MOL0     H72708  13.085   3.246   9.719 -0.8804  2.1364 -1.1204
  527MOL0     H72709  12.872   3.338   9.819  2.6968  1.7291 -1.5488
  527MOL0     H72710  11.290   3.452  10.862  1.0497  0.0651 -1.3477
  527MOL0     H72711  11.088   3.312  10.855  1.0868 -0.3942  0.5966
  527MOL0     H72712  10.649   3.273  10.768  0.8394 -1.0205 -0.1979
  527MOL0     H72713  10.426   3.184  10.731  0.7078 -1.8427 -0.6893
  527MOL0     H72714  10.108   3.119  10.564  1.1777  0.3369 -4.3587
  527MOL0     H72715  10.272   3.068  10.619 -0.0087 -0.0344  0.9750
  527MOL0     H72716  10.142   3.302  10.755 -0.5242 -0.0239 -3.4094
  527MOL0     H72717  10.244   3.186  10.827 -1.5448 -1.2540  1.0634
  527MOL0     H72718  10.065   3.004  10.743  0.0014  0.3388  0.8822
  527MOL0     H72719  10.056   3.068  10.901 -1.3586 -0.8871  0.4657
  527MOL0     H72720   9.886   3.146  10.681  1.2603 -0.9534 -0.4052
  527MOL0     H72721   9.933   3.277  10.788  1.0755 -0.7443  2.4340
  527MOL0     H72722   9.662   3.056  11.012  0.3632  0.4124 -0.8503
  527MOL0     H72723  10.407   3.379  10.356  0.7350  0.2445 -1.0662
  527MOL0     H72724  10.709   3.389  10.261 -0.4226  0.6392 -0.8413
  527MOL0     H72725  10.578   3.506  10.279  1.0709  4.9072  2.1520
  527MOL0     H72726  10.730   3.530  10.365 -0.1865 -0.7157  1.5717
  528MOL0     O72727   6.606   8.917   0.349  0.2855  0.4719  0.2778
  528MOL0     C72728   6.556   8.887   0.455 -0.7173  0.1907  0.1589
  528MOL0     O72729   6.608   8.800   0.554  0.7123 -0.2292 -0.0669
  528MOL0     C72730   6.726   8.730   0.535  0.3454 -0.7778  0.2314
  528MOL0     C72731   6.741   8.633   0.431 -0.2343 -0.9742 -0.6420
  528MOL0     C72732   6.867   8.565   0.411 -0.3972 -0.5473  0.1795
  528MOL0     C72733   6.977   8.592   0.494  0.5460  0.0223 -0.2484
  528MOL0     O72734   7.101   8.525   0.472  0.3722  0.5593 -0.4917
  528MOL0     C72735   7.127   8.436   0.358 -0.2459 -0.0261  0.5980
  528MOL0     C72736   7.157   8.534   0.240  0.8707 -0.7368  0.6598
  528MOL0     C72737   7.281   8.623   0.271 -0.2866 -0.3902 -0.1987
  528MOL0     C72738   7.327   8.707   0.148  0.7987  0.2225  0.9552
  528MOL0     C72739   7.471   8.761   0.159  0.6942 -0.2852 -0.8083
  528MOL0     C72740   7.570   8.633   0.145 -0.0193  0.4860 -0.1077
  528MOL0     C72741   7.710   8.690   0.146 -0.1806 -0.9698  0.1094
  528MOL0     C72742   7.805   8.595   0.072  0.0429 -0.1684  0.4536
  528MOL0     N72743   7.949   8.638   0.076  0.4221 -0.2619  0.3396
  528MOL0     C72744   8.028   8.615   0.188 -0.0704  0.1233  0.6536
  528MOL0     C72745   8.144   8.680   0.163 -0.3416  0.5838 -0.7004
  528MOL0     C72746   8.284   8.692   0.229  0.7845  0.4082  0.0290
  528MOL0     C72747   8.400   8.676   0.134  0.0466  0.1931 -0.2297
  528MOL0     C72748   8.386   8.549   0.052  0.7478  0.0447  0.4711
  528MOL0     C72749   8.487   8.537  -0.064 -0.8489 -0.4344  1.0808
  528MOL0     O72750   8.613   8.604  -0.046 -0.2339 -0.0824 -0.2098
  528MOL0     C72751   8.700   8.604  -0.153  0.1704  0.3875 -0.5508
  528MOL0     C72752   8.745   8.485  -0.216 -0.6748  0.3957 -0.2647
  528MOL0     C72753   8.850   8.482  -0.312 -0.6197 -0.0231 -0.3068
  528MOL0     C72754   8.880   8.344  -0.371  0.2093 -0.3617  0.3942
  528MOL0     C72755   8.905   8.605  -0.366 -0.1498  0.5084 -0.8458
  528MOL0     C72756   9.006   8.620  -0.474  0.1182  0.0979  0.5532
  528MOL0     O72757   9.067   8.507  -0.520  0.2593  0.4909  0.0114
  528MOL0     C72758   9.168   8.529  -0.609  0.0513 -0.6336  0.4372
  528MOL0     C72759   9.141   8.563  -0.745  0.0975 -1.2174 -0.1638
  528MOL0     C72760   9.240   8.596  -0.837  0.0896 -0.5042  0.3557
  528MOL0     C72761   9.378   8.568  -0.810  0.3639  0.3321 -0.0095
  528MOL0     O72762   9.487   8.565  -0.902  0.2614 -0.5574  0.0058
  528MOL0     C72763   9.458   8.526  -1.036 -0.2274 -0.0122  0.2377
  528MOL0     C72764   9.542   8.402  -1.073  0.4089 -0.6697  0.3753
  528MOL0     C72765   9.677   8.438  -1.144  0.3241 -0.9036 -0.4693
  528MOL0     C72766   9.776   8.321  -1.165  0.4584 -0.0946  0.3443
  528MOL0     C72767   9.906   8.365  -1.229 -0.3029  0.0372  0.1164
  528MOL0     C72768  10.008   8.247  -1.207 -0.2297 -0.3038  0.0292
  528MOL0     C72769   9.986   8.112  -1.286 -0.1626  0.6070 -0.4483
  528MOL0     C72770  10.094   8.005  -1.251  0.4957 -0.8243  0.9242
  528MOL0    Cl72771  10.254   8.059  -1.296 -0.1618 -0.2730  0.1350
  528MOL0     C72772   9.402   8.513  -0.683 -1.2442  0.7531  1.5397
  528MOL0     C72773   9.306   8.496  -0.584  0.2376 -0.5588 -0.0461
  528MOL0     O72774   9.045   8.736  -0.502 -0.1148  0.9794  0.4339
  528MOL0     C72775   8.854   8.719  -0.300  0.4804 -1.0392 -0.4913
  528MOL0     C72776   8.756   8.718  -0.194 -0.3812  0.3001  0.2976
  528MOL0     N72777   8.121   8.743   0.036  0.0340  0.3813  0.0760
  528MOL0     N72778   8.009   8.707  -0.017  0.0078  0.4150  1.0719
  528MOL0     C72779   6.956   8.686   0.591 -0.8120  0.4843 -1.0380
  528MOL0     C72780   6.838   8.761   0.614  0.2197  0.3128 -0.5399
  528MOL0     C72781   6.424   8.953   0.482 -0.5291 -0.3968 -0.1251
  528MOL0     C72782   6.401   9.094   0.495  0.1761 -1.3588  0.0158
  528MOL0     C72783   6.276   9.149   0.519 -0.8305 -0.1698  0.0596
  528MOL0     C72784   6.164   9.064   0.537  0.2857 -0.2585 -0.1907
  528MOL0     O72785   6.045   9.129   0.556  0.2919 -0.2099 -0.0102
  528MOL0     C72786   5.929   9.052   0.523  0.5149  0.4231  0.4644
  528MOL0     C72787   5.793   9.125   0.522 -0.0660 -0.2436  0.1733
  528MOL0     C72788   5.802   9.274   0.527  0.5979 -0.3321 -0.1154
  528MOL0     C72789   5.844   9.329   0.392 -0.1943  0.2408  0.0706
  528MOL0     C72790   5.752   9.290   0.282 -0.3746  0.7050 -0.3489
  528MOL0     C72791   5.672   9.263   0.197  0.1601  0.1806 -0.3044
  528MOL0     C72792   6.181   8.927   0.541 -1.1376 -0.6728  0.0805
  528MOL0     C72793   6.311   8.872   0.517  0.0208 -0.1394 -0.2801
  528MOL0     C72794   6.322   8.724   0.511  0.2322 -0.0033  0.0020
  528MOL0     H72795   6.664   8.605   0.360 -1.7580 -0.1841  0.6548
  528MOL0     H72796   6.875   8.499   0.325  1.4397  1.6494 -1.4744
  528MOL0     H72797   7.042   8.370   0.339 -1.1436  0.9025  1.2793
  528MOL0     H72798   7.215   8.372   0.369 -2.1795 -2.8554  0.4381
  528MOL0     H72799   7.177   8.471   0.153  0.5989 -0.5861  0.4881
  528MOL0     H72800   7.070   8.595   0.215  1.9861  1.3631  1.6077
  528MOL0     H72801   7.249   8.693   0.349 -1.0683  1.2034 -1.8744
  528MOL0     H72802   7.368   8.562   0.298  1.7835  0.6235 -4.0012
  528MOL0     H72803   7.319   8.652   0.054  0.2222  2.0465 -0.1121
  528MOL0     H72804   7.253   8.786   0.131  0.9706  0.4735  1.3696
  528MOL0     H72805   7.483   8.800   0.260 -2.0960 -0.1135 -0.4777
  528MOL0     H72806   7.482   8.834   0.078  1.6001 -0.7681 -1.1404
  528MOL0     H72807   7.561   8.554   0.220 -1.4052 -0.4464 -1.2184
  528MOL0     H72808   7.543   8.593   0.047 -0.6208  0.8302 -0.0875
  528MOL0     H72809   7.753   8.711   0.244  1.1575 -1.4913 -0.3317
  528MOL0     H72810   7.719   8.783   0.088  0.1586 -0.6868  0.6079
  528MOL0     H72811   7.795   8.496   0.117 -0.7010 -1.4306 -2.2573
  528MOL0     H72812   7.772   8.587  -0.032 -0.0018  1.8270  0.2799
  528MOL0     H72813   8.007   8.544   0.268  2.3036 -0.2508  1.0159
  528MOL0     H72814   8.295   8.622   0.312  2.3089  0.5014 -0.0713
  528MOL0     H72815   8.289   8.795   0.265  1.4147  0.6129 -0.6110
  528MOL0     H72816   8.399   8.759   0.062 -1.3834 -0.5900 -1.1712
  528MOL0     H72817   8.485   8.668   0.202 -0.7805 -4.0907  0.5380
  528MOL0     H72818   8.391   8.459   0.114  0.6516 -1.3614 -1.4670
  528MOL0     H72819   8.287   8.532   0.010 -0.2268  0.0672  2.6008
  528MOL0     H72820   8.502   8.432  -0.091  2.2354 -0.0097  0.7954
  528MOL0     H72821   8.443   8.569  -0.159  0.1711 -0.3120  0.6322
  528MOL0     H72822   8.690   8.396  -0.189  0.9910  0.1307  2.6331
  528MOL0     H72823   8.842   8.342  -0.473 -0.3772 -1.1012  0.6180
  528MOL0     H72824   8.837   8.260  -0.316 -1.5780  0.3365  0.1239
  528MOL0     H72825   8.987   8.318  -0.372  0.5921  0.9275  2.0920
  528MOL0     H72826   9.042   8.593  -0.778 -1.1738 -3.4392  1.3143
  528MOL0     H72827   9.224   8.633  -0.938 -1.1639 -1.2948  0.2410
  528MOL0     H72828   9.353   8.496  -1.032 -0.6301  1.4528  1.5647
  528MOL0     H72829   9.489   8.608  -1.100  2.1978 -0.0696  1.2527
  528MOL0     H72830   9.550   8.344  -0.981 -0.4177 -0.6127  0.4843
  528MOL0     H72831   9.488   8.337  -1.143  0.9304 -0.0326 -0.6367
  528MOL0     H72832   9.715   8.519  -1.080 -2.8312  1.0945 -0.8709
  528MOL0     H72833   9.654   8.488  -1.239 -2.5476 -1.8808 -0.3765
  528MOL0     H72834   9.735   8.253  -1.241 -1.6113  0.6491  0.7269
  528MOL0     H72835   9.784   8.264  -1.072  1.0018 -2.0186 -0.8238
  528MOL0     H72836   9.905   8.376  -1.338  0.6399  0.6437  0.1575
  528MOL0     H72837   9.938   8.457  -1.179 -0.7250  1.0500 -1.4022
  528MOL0     H72838  10.012   8.228  -1.099 -0.0940  2.6708  0.6312
  528MOL0     H72839  10.106   8.288  -1.233  0.5758 -1.6202  0.8833
  528MOL0     H72840   9.982   8.123  -1.395 -3.3961  2.9861 -0.2444
  528MOL0     H72841   9.894   8.065  -1.251 -0.1200 -0.9859 -2.3223
  528MOL0     H72842  10.094   7.914  -1.311 -1.6795 -2.0595  2.6276
  528MOL0     H72843  10.089   7.973  -1.146  1.8364 -1.9171  0.6798
  528MOL0     H72844   9.506   8.488  -0.664 -1.2043 -0.6525 -0.3108
  528MOL0     H72845   9.334   8.462  -0.485 -0.1728  0.0489  0.2853
  528MOL0     H72846   8.881   8.817  -0.337 -0.6864 -0.1881  0.8059
  528MOL0     H72847   8.729   8.815  -0.153  0.4733  1.3794 -1.5748
  528MOL0     H72848   7.043   8.699   0.654  1.3058 -2.2066 -3.1510
  528MOL0     H72849   6.838   8.839   0.690 -0.8612  1.0518 -1.2759
  528MOL0     H72850   6.477   9.167   0.470  0.1217 -0.3048  2.6530
  528MOL0     H72851   6.265   9.257   0.514 -0.6583 -0.1420  0.2505
  528MOL0     H72852   5.951   8.999   0.430 -1.5726  2.6155 -1.4302
  528MOL0     H72853   5.922   8.981   0.605 -0.1309  0.9929  0.9221
  528MOL0     H72854   5.738   9.098   0.613  0.1611  1.6542  0.9335
  528MOL0     H72855   5.730   9.097   0.438  2.8256  1.0705 -2.6285
  528MOL0     H72856   5.698   9.305   0.544  0.0368 -2.0114 -0.2339
  528MOL0     H72857   5.863   9.309   0.610  0.1657  2.4889 -0.8992
  528MOL0     H72858   5.943   9.293   0.364 -1.5987 -2.0834 -2.4184
  528MOL0     H72859   5.846   9.438   0.403 -0.4566  0.3060 -0.4679
  528MOL0     H72860   5.599   9.236   0.123 -0.1771 -0.4097  0.2373
  528MOL0     H72861   6.111   8.857   0.585  1.2160 -2.5527  1.0370
  528MOL0     H72862   6.376   8.688   0.423  1.1949  0.4763  0.3888
  528MOL0     H72863   6.374   8.698   0.604 -1.5337  2.4197  1.7956
  528MOL0     H72864   6.226   8.671   0.508  0.1344  0.1899 -0.3312
  529MOL0     O72865   4.238   2.309   9.867 -0.4315  0.0100  0.7457
  529MOL0     C72866   4.194   2.368   9.963  0.4297  0.1393 -0.6407
  529MOL0     O72867   4.262   2.394  10.076 -0.1275  0.4918 -0.1609
  529MOL0     C72868   4.397   2.372  10.069  0.2182  0.3081  0.0755
  529MOL0     C72869   4.447   2.240  10.077  0.7638 -0.1595 -0.4194
  529MOL0     C72870   4.586   2.224  10.056 -0.1761 -0.3134  0.3880
  529MOL0     C72871   4.673   2.332  10.027 -0.2675  0.3808  0.3592
  529MOL0     O72872   4.807   2.343  10.005 -0.7082  0.0385  0.2362
  529MOL0     C72873   4.879   2.220   9.981  1.1904 -0.5472 -0.5264
  529MOL0     C72874   4.992   2.241   9.888 -0.1242  0.2198  0.1484
  529MOL0     C72875   5.100   2.136   9.921 -0.5913  0.4535 -0.2763
  529MOL0     C72876   5.226   2.140   9.830 -0.1299 -0.0320 -0.0839
  529MOL0     C72877   5.338   2.054   9.881 -1.3206  0.4101 -0.0450
  529MOL0     C72878   5.445   2.066   9.779 -0.0912 -0.1597 -0.1813
  529MOL0     C72879   5.557   1.968   9.823 -0.4600  0.2145 -0.0567
  529MOL0     C72880   5.653   1.946   9.705  0.0204 -0.3829 -0.3711
  529MOL0     N72881   5.749   2.056   9.696  0.0174  0.1783 -0.2588
  529MOL0     C72882   5.865   2.063   9.768 -0.5052  0.1783 -0.0744
  529MOL0     C72883   5.931   2.176   9.727  0.4562  0.2033  0.6557
  529MOL0     C72884   6.069   2.233   9.772  0.2112 -0.0028 -0.4625
  529MOL0     C72885   6.184   2.130   9.731 -0.0984 -0.1611 -0.9890
  529MOL0     C72886   6.320   2.197   9.759 -0.3275 -0.2650 -0.2797
  529MOL0     C72887   6.437   2.106   9.718  0.5832  0.1248 -0.8603
  529MOL0     O72888   6.429   2.096   9.581  0.2687  0.4608  0.7343
  529MOL0     C72889   6.533   2.055   9.497  0.4833 -0.2743  1.1073
  529MOL0     C72890   6.496   2.019   9.363 -0.3243  0.4445 -1.0053
  529MOL0     C72891   6.594   1.991   9.268 -1.4673  0.9007  0.4254
  529MOL0     C72892   6.560   1.984   9.121 -0.4576 -0.1862 -0.2310
  529MOL0     C72893   6.734   1.985   9.305 -0.5802  0.0271 -0.9433
  529MOL0     C72894   6.849   1.945   9.215  0.1762  0.6783 -0.0355
  529MOL0     O72895   6.826   1.832   9.137 -0.5168 -0.0490 -0.6297
  529MOL0     C72896   6.937   1.784   9.077 -0.7435  0.5727 -0.2598
  529MOL0     C72897   6.947   1.744   8.939 -1.1699 -0.3494 -0.2882
  529MOL0     C72898   7.071   1.701   8.880 -0.1776 -0.4811 -0.8745
  529MOL0     C72899   7.180   1.674   8.958 -1.0744 -0.1782  1.2404
  529MOL0     O72900   7.288   1.630   8.886  0.1745 -0.7490  0.3502
  529MOL0     C72901   7.423   1.654   8.940 -0.2076  0.3654  0.0702
  529MOL0     C72902   7.537   1.610   8.845  0.3849  0.1811 -0.4470
  529MOL0     C72903   7.680   1.599   8.912  0.4941  0.4247 -0.7615
  529MOL0     C72904   7.787   1.598   8.804 -0.5200  0.1509 -0.1855
  529MOL0     C72905   7.932   1.610   8.853 -0.5485 -0.0399  0.5241
  529MOL0     C72906   7.970   1.480   8.934  0.8232 -0.5178  0.4011
  529MOL0     C72907   8.081   1.516   9.030 -0.5891  0.3734  0.2211
  529MOL0     C72908   8.207   1.579   8.962  0.7287 -0.0380  0.6559
  529MOL0    Cl72909   8.339   1.559   9.077  0.3154 -0.0342  0.1256
  529MOL0     C72910   7.184   1.705   9.100  0.7669 -0.0275  0.1600
  529MOL0     C72911   7.066   1.768   9.147  0.8226  0.5261  0.4095
  529MOL0     O72912   6.949   2.019   9.214  0.3938  0.3838 -0.1969
  529MOL0     C72913   6.770   2.024   9.445  0.9255 -0.2620  0.0359
  529MOL0     C72914   6.667   2.056   9.537 -0.6895  0.4662 -0.4367
  529MOL0     N72915   5.839   2.241   9.649  0.6140  0.2879 -0.2459
  529MOL0     N72916   5.735   2.170   9.625  0.5931  0.4938  0.3595
  529MOL0     C72917   4.616   2.460  10.016  0.0944  0.3253 -0.0257
  529MOL0     C72918   4.482   2.474  10.036  0.3192  0.8271  0.4306
  529MOL0     C72919   4.044   2.372   9.969  0.6236 -0.3168  0.3420
  529MOL0     C72920   3.974   2.339   9.849  0.1973  0.1061  0.4434
  529MOL0     C72921   3.834   2.333   9.842  0.2029 -0.7346 -0.0236
  529MOL0     C72922   3.760   2.347   9.955  0.5799  0.1629  0.8002
  529MOL0     O72923   3.627   2.339   9.951  0.6961 -0.6101 -0.3477
  529MOL0     C72924   3.567   2.413   9.842 -0.0329  0.4907  0.3833
  529MOL0     C72925   3.426   2.440   9.865 -0.5734  0.9774  0.3240
  529MOL0     C72926   3.341   2.304   9.885  0.1532  0.2529  0.5199
  529MOL0     C72927   3.191   2.337   9.875 -0.4887  0.9510 -0.3727
  529MOL0     C72928   3.128   2.398   9.992  0.9679 -0.1556 -1.2531
  529MOL0     C72929   3.072   2.458  10.083  0.3275 -0.3926  0.0357
  529MOL0     C72930   3.823   2.380  10.078 -0.6321 -1.5317  0.2092
  529MOL0     C72931   3.968   2.400  10.084  0.0929 -0.1895  0.0533
  529MOL0     C72932   4.023   2.447  10.214 -0.6598  0.2030 -0.2882
  529MOL0     H72933   4.393   2.157  10.119 -1.0097  0.8801 -0.5509
  529MOL0     H72934   4.630   2.128  10.083  0.1987  0.7036  3.8527
  529MOL0     H72935   4.809   2.159   9.924 -2.1044  2.6616 -0.2388
  529MOL0     H72936   4.922   2.174  10.071 -0.6161  2.1952  1.9108
  529MOL0     H72937   4.939   2.228   9.794 -1.1519  0.5210  0.6638
  529MOL0     H72938   5.029   2.343   9.903  0.3468  0.5124 -2.5131
  529MOL0     H72939   5.134   2.143  10.025  0.4103 -2.5084 -0.3119
  529MOL0     H72940   5.057   2.035   9.920 -0.3267  0.3380 -0.0366
  529MOL0     H72941   5.195   2.099   9.734 -4.5039 -1.5306  1.7444
  529MOL0     H72942   5.254   2.246   9.824 -0.6511  0.1344  0.3051
  529MOL0     H72943   5.314   1.948   9.877  0.2755  0.0552 -2.0047
  529MOL0     H72944   5.377   2.076   9.981  1.6701 -5.1868  0.3887
  529MOL0     H72945   5.419   2.043   9.675 -1.5239 -1.7033  0.4580
  529MOL0     H72946   5.488   2.165   9.792  0.6397 -0.4841 -0.1079
  529MOL0     H72947   5.502   1.874   9.840 -0.7297  0.0853 -1.5655
  529MOL0     H72948   5.608   2.005   9.912 -2.0709  1.0647  0.5524
  529MOL0     H72949   5.706   1.851   9.714  2.9042  1.1753  0.2330
  529MOL0     H72950   5.587   1.931   9.619  0.7594 -1.9621 -0.6957
  529MOL0     H72951   5.900   1.988   9.840 -0.1894 -0.7202 -1.1306
  529MOL0     H72952   6.066   2.233   9.881  0.9716 -0.4477 -0.4320
  529MOL0     H72953   6.090   2.334   9.737  1.6492 -1.1839 -3.4372
  529MOL0     H72954   6.175   2.034   9.782 -2.7260 -1.0103 -2.8067
  529MOL0     H72955   6.173   2.118   9.623 -1.6116  1.4158 -1.0565
  529MOL0     H72956   6.324   2.296   9.714  0.0508  0.6889  1.7263
  529MOL0     H72957   6.319   2.214   9.867  1.4056  0.3919 -0.3273
  529MOL0     H72958   6.530   2.149   9.756  0.9588 -2.3462  1.2770
  529MOL0     H72959   6.428   2.011   9.771 -1.2786 -0.5798 -2.3000
  529MOL0     H72960   6.391   2.019   9.334 -0.7213 -1.9190  0.2011
  529MOL0     H72961   6.646   1.974   9.054 -1.1721  1.6254 -1.5030
  529MOL0     H72962   6.513   2.079   9.092  0.3657  0.8116  1.5259
  529MOL0     H72963   6.489   1.901   9.116 -1.6425  0.0600  5.7674
  529MOL0     H72964   6.855   1.755   8.883 -0.4523  1.3130 -1.2265
  529MOL0     H72965   7.071   1.683   8.773 -1.4547 -2.4860 -0.6009
  529MOL0     H72966   7.445   1.757   8.967 -1.3210 -0.1771  3.5813
  529MOL0     H72967   7.433   1.590   9.029  1.9265 -0.1170 -0.4567
  529MOL0     H72968   7.509   1.516   8.796  1.0820 -0.2368 -0.0792
  529MOL0     H72969   7.524   1.689   8.771 -2.9894  1.8767  1.7225
  529MOL0     H72970   7.677   1.508   8.972  2.7473  2.5251  2.8343
  529MOL0     H72971   7.686   1.688   8.975 -2.4659  1.2643 -1.4701
  529MOL0     H72972   7.768   1.689   8.746 -2.3166  0.0242  0.1581
  529MOL0     H72973   7.775   1.509   8.742 -2.3099 -0.1014  0.4590
  529MOL0     H72974   8.005   1.639   8.777  1.7450  0.0914  2.6309
  529MOL0     H72975   7.926   1.694   8.923 -0.8222  3.0140 -2.8680
  529MOL0     H72976   8.007   1.401   8.867  0.2293 -0.1550 -0.3666
  529MOL0     H72977   7.889   1.438   8.993 -1.5424  3.6784  0.4690
  529MOL0     H72978   8.112   1.429   9.088  0.7855 -0.0825 -1.1274
  529MOL0     H72979   8.038   1.585   9.104  1.6324 -0.6172  2.5938
  529MOL0     H72980   8.191   1.681   8.925 -2.5778 -0.8605 -0.4901
  529MOL0     H72981   8.227   1.523   8.870  0.3150 -0.3693  0.7647
  529MOL0     H72982   7.264   1.695   9.172 -0.0455 -1.9545  0.8420
  529MOL0     H72983   7.063   1.796   9.252 -1.4971 -2.0127  1.1367
  529MOL0     H72984   6.872   2.004   9.478  1.1880 -0.3519 -0.8149
  529MOL0     H72985   6.682   2.081   9.642 -2.4702  0.1083 -0.0657
  529MOL0     H72986   4.677   2.543   9.982 -1.1427  1.3271  0.1133
  529MOL0     H72987   4.433   2.570  10.024 -1.3194  0.0891  0.9266
  529MOL0     H72988   4.028   2.317   9.757  0.7319  3.8800 -0.2981
  529MOL0     H72989   3.780   2.312   9.750  0.2576 -1.5743  0.1219
  529MOL0     H72990   3.623   2.506   9.832  3.1498 -0.9231  2.8308
  529MOL0     H72991   3.580   2.354   9.750  2.3958 -0.2589  1.1220
  529MOL0     H72992   3.390   2.506   9.786 -1.2801 -0.0537 -0.2435
  529MOL0     H72993   3.422   2.498   9.958 -2.2698  0.6510  0.5023
  529MOL0     H72994   3.364   2.241   9.799  1.2881  1.5499 -0.1620
  529MOL0     H72995   3.361   2.250   9.978  0.2392 -0.1697  0.2547
  529MOL0     H72996   3.149   2.238   9.855 -0.2994  1.1808 -2.0406
  529MOL0     H72997   3.170   2.386   9.780  0.2240 -0.9746 -1.5811
  529MOL0     H72998   3.024   2.515  10.160  1.2576  0.6961 -0.1626
  529MOL0     H72999   3.762   2.393  10.167  0.5859 -1.0408  0.9845
  529MOL0     H73000   3.955   2.454  10.299 -0.2987 -0.7274  0.0919
  529MOL0     H73001   4.085   2.364  10.249 -1.1069 -0.4927 -1.0900
  529MOL0     H73002   4.081   2.538  10.197  1.6501 -1.1553  0.0052
  530MOL0     O73003   0.548   9.616   3.228  0.5214  0.5281  0.3051
  530MOL0     C73004   0.539   9.560   3.122 -0.3749  0.6255 -0.7856
  530MOL0     O73005   0.636   9.574   3.035  0.3271 -0.6176  0.3353
  530MOL0     C73006   0.757   9.634   3.057  0.1082 -0.9183 -0.3488
  530MOL0     C73007   0.817   9.630   3.188 -0.3918  0.1301  0.1579
  530MOL0     C73008   0.952   9.671   3.195 -0.8498 -0.4642 -0.0958
  530MOL0     C73009   1.031   9.711   3.082  0.5635 -1.2473 -0.8718
  530MOL0     O73010   1.160   9.735   3.104 -0.0516  0.4482  0.2125
  530MOL0     C73011   1.250   9.698   3.003 -0.0662 -0.9296  0.6404
  530MOL0     C73012   1.382   9.687   3.070 -0.7139  0.2783  0.7692
  530MOL0     C73013   1.501   9.655   2.969  1.0325  0.1268  0.0662
  530MOL0     C73014   1.614   9.577   3.025 -0.9181  0.1436  0.1036
  530MOL0     C73015   1.715   9.547   2.919 -0.0885 -0.0932  0.1162
  530MOL0     C73016   1.852   9.609   2.938  0.1827  0.1716 -0.2504
  530MOL0     C73017   1.942   9.603   2.808 -0.3463 -0.6769  0.3874
  530MOL0     C73018   2.017   9.471   2.800 -0.8202  0.4792  0.9171
  530MOL0     N73019   2.077   9.440   2.669  0.4319 -0.1636 -0.0916
  530MOL0     C73020   2.006   9.364   2.575 -0.1374 -0.7482 -0.1464
  530MOL0     C73021   2.092   9.347   2.472  0.7916 -0.1884 -0.5953
  530MOL0     C73022   2.050   9.290   2.338 -0.4062 -0.0729  0.5040
  530MOL0     C73023   2.021   9.140   2.338  0.1594  0.2580  0.0823
  530MOL0     C73024   2.132   9.053   2.417 -0.0795 -0.9311  0.3211
  530MOL0     C73025   2.275   9.069   2.352 -0.0964  0.2111 -0.2470
  530MOL0     O73026   2.370   8.989   2.418 -0.2237 -0.1538 -0.4433
  530MOL0     C73027   2.497   8.995   2.369  0.6548  0.2857 -0.3301
  530MOL0     C73028   2.551   8.941   2.256  1.0617  0.5385  0.2961
  530MOL0     C73029   2.683   8.941   2.225  0.3641 -0.1555 -0.2201
  530MOL0     C73030   2.722   8.858   2.103 -0.5529  0.3414 -0.8443
  530MOL0     C73031   2.767   9.011   2.315  0.1535 -0.0823  1.0526
  530MOL0     C73032   2.919   9.028   2.291  0.4573 -0.2744 -0.0410
  530MOL0     O73033   2.975   9.140   2.349  0.2951  0.4194 -0.4310
  530MOL0     C73034   3.110   9.147   2.345 -0.2739  0.4224 -0.2330
  530MOL0     C73035   3.174   9.241   2.263  0.8989 -0.4423  0.5822
  530MOL0     C73036   3.307   9.255   2.261 -0.0052 -0.2796  0.0708
  530MOL0     C73037   3.380   9.163   2.336 -0.0282  0.3427  0.5680
  530MOL0     O73038   3.517   9.169   2.348 -1.1526  1.0398  0.2356
  530MOL0     C73039   3.597   9.280   2.301 -0.0096  0.6771  1.1048
  530MOL0     C73040   3.739   9.242   2.329  0.6955 -0.7163 -0.0646
  530MOL0     C73041   3.839   9.297   2.232 -0.4700  1.1031 -0.0495
  530MOL0     C73042   3.815   9.441   2.210  0.2995 -0.5738  0.2463
  530MOL0     C73043   3.936   9.501   2.135 -0.4111 -0.7031  0.1385
  530MOL0     C73044   3.910   9.653   2.120  0.4264 -0.3545 -0.6616
  530MOL0     C73045   4.031   9.735   2.081  0.4277 -0.4250  0.1201
  530MOL0     C73046   4.008   9.895   2.084 -0.7334 -0.5937 -0.9294
  530MOL0    Cl73047   3.857   9.960   2.016  0.2570 -0.3283  0.0533
  530MOL0     C73048   3.326   9.060   2.414 -0.0737 -0.4786 -0.2055
  530MOL0     C73049   3.187   9.048   2.415 -1.0050 -0.8995 -0.5644
  530MOL0     O73050   2.982   8.934   2.244 -0.6195  0.6525  0.6405
  530MOL0     C73051   2.714   9.072   2.426 -0.5185  0.9158 -0.9406
  530MOL0     C73052   2.584   9.053   2.458  0.0669 -0.3892  0.4776
  530MOL0     N73053   2.210   9.413   2.501 -0.3589 -0.0095  0.5632
  530MOL0     N73054   2.206   9.472   2.616  0.5670  0.5576 -0.9116
  530MOL0     C73055   0.963   9.716   2.958  0.2489  0.0882  0.0327
  530MOL0     C73056   0.829   9.683   2.947 -0.8445  0.4849 -0.1776
  530MOL0     C73057   0.426   9.473   3.097 -0.3591  0.1495 -0.5446
  530MOL0     C73058   0.450   9.361   3.013  0.1694  0.1254  0.2428
  530MOL0     C73059   0.344   9.277   2.983  0.3333  0.6905 -0.1850
  530MOL0     C73060   0.214   9.311   3.032  0.0443  0.4179  0.5286
  530MOL0     O73061   0.102   9.232   3.014 -0.5363  0.2626  0.1795
  530MOL0     C73062   0.084   9.171   2.878 -0.8079 -0.0160 -0.7264
  530MOL0     C73063   0.077   9.264   2.770 -0.0168 -0.2388  0.0298
  530MOL0     C73064   0.190   9.260   2.672 -0.0465  0.0823  0.3248
  530MOL0     C73065   0.153   9.344   2.549 -0.9976 -0.4519 -0.7555
  530MOL0     C73066   0.228   9.337   2.424 -0.4110  0.0319 -0.2966
  530MOL0     C73067   0.269   9.358   2.311 -0.1505  0.0098  1.6222
  530MOL0     C73068   0.186   9.424   3.106 -1.0250  0.2454 -0.2912
  530MOL0     C73069   0.297   9.503   3.147 -0.7007 -0.1031  0.3467
  530MOL0     C73070   0.265   9.621   3.234 -0.0913  0.3678 -0.2464
  530MOL0     H73071   0.774   9.609   3.286 -0.2199  1.6792  0.5888
  530MOL0     H73072   0.983   9.667   3.299 -0.6592  3.0167  0.0820
  530MOL0     H73073   1.249   9.790   2.944 -2.8804 -0.7962  0.7701
  530MOL0     H73074   1.227   9.610   2.941  0.5561 -0.0040 -0.9663
  530MOL0     H73075   1.419   9.773   3.126 -0.5308 -0.0166  1.0981
  530MOL0     H73076   1.369   9.607   3.143 -2.0785  1.1906  1.5660
  530MOL0     H73077   1.452   9.593   2.894  1.2247  0.6409 -0.5005
  530MOL0     H73078   1.529   9.754   2.930 -2.1214  0.8114 -0.7587
  530MOL0     H73079   1.658   9.636   3.107  0.2229 -1.4431  0.6810
  530MOL0     H73080   1.575   9.482   3.062  0.1573 -2.0849 -3.9137
  530MOL0     H73081   1.677   9.582   2.822 -0.5294 -1.9394 -0.4154
  530MOL0     H73082   1.717   9.438   2.910 -3.2492 -0.1055 -2.4382
  530MOL0     H73083   1.845   9.714   2.968  2.7467 -0.1841  2.0161
  530MOL0     H73084   1.905   9.566   3.024 -1.2475  0.6604  0.9224
  530MOL0     H73085   2.010   9.688   2.809 -2.0664  1.0217 -3.5848
  530MOL0     H73086   1.879   9.601   2.719  3.6218  2.1852 -2.8526
  530MOL0     H73087   2.099   9.467   2.872 -0.1877 -0.5243  0.1681
  530MOL0     H73088   1.956   9.383   2.823  0.4351 -0.8917 -0.6691
  530MOL0     H73089   1.904   9.329   2.588  0.4061 -2.1212  0.5614
  530MOL0     H73090   2.118   9.314   2.256 -0.0750 -0.5662  0.6327
  530MOL0     H73091   1.960   9.342   2.303 -1.3157 -0.5845  1.9752
  530MOL0     H73092   1.925   9.118   2.386  1.1741 -2.0506  1.1628
  530MOL0     H73093   2.007   9.104   2.236 -1.7144  0.9264  0.0592
  530MOL0     H73094   2.126   9.094   2.519  2.8457  2.1390 -0.5369
  530MOL0     H73095   2.111   8.946   2.420  1.1497 -1.1731  2.4007
  530MOL0     H73096   2.279   9.041   2.246  2.4607  0.9180 -0.4022
  530MOL0     H73097   2.307   9.173   2.363  3.2467 -0.4856 -2.1713
  530MOL0     H73098   2.479   8.891   2.193 -1.3026  1.0689  2.4106
  530MOL0     H73099   2.810   8.909   2.063  0.0401  0.8475  0.9671
  530MOL0     H73100   2.637   8.848   2.036  0.2166 -0.4106 -1.7281
  530MOL0     H73101   2.752   8.760   2.142 -2.5103 -0.0371 -0.1766
  530MOL0     H73102   3.109   9.311   2.210 -1.9481 -2.7115  0.8876
  530MOL0     H73103   3.352   9.343   2.215 -2.1330  0.1760 -1.2711
  530MOL0     H73104   3.579   9.301   2.195  2.3774 -1.4064  0.1999
  530MOL0     H73105   3.567   9.373   2.350 -3.2935 -0.0502  0.6627
  530MOL0     H73106   3.760   9.270   2.433 -6.4716  0.1656  1.7079
  530MOL0     H73107   3.741   9.133   2.318 -0.1610 -0.6101 -1.5571
  530MOL0     H73108   3.844   9.241   2.138  1.1465  1.1217 -0.0011
  530MOL0     H73109   3.938   9.283   2.277 -1.0209 -2.7876  0.2430
  530MOL0     H73110   3.788   9.487   2.305 -1.3591  3.0939 -1.8228
  530MOL0     H73111   3.727   9.456   2.146 -1.6212  0.1236  2.8759
  530MOL0     H73112   4.034   9.481   2.180  0.1443  0.9496 -0.2572
  530MOL0     H73113   3.938   9.461   2.033  0.4717 -1.2966  0.3751
  530MOL0     H73114   3.877   9.698   2.214  0.7720  1.3210 -1.3217
  530MOL0     H73115   3.827   9.661   2.049  1.5074 -0.2292 -1.9252
  530MOL0     H73116   4.057   9.701   1.980 -1.2930  1.2491 -0.9558
  530MOL0     H73117   4.098   9.724   2.166 -0.0458 -0.1229  0.5333
  530MOL0     H73118   4.094   9.935   2.030 -2.0747  2.1131 -1.2518
  530MOL0     H73119   4.005   9.919   2.190 -0.6715  0.4288 -1.1521
  530MOL0     H73120   3.375   8.988   2.479 -0.8783 -1.6404 -0.8543
  530MOL0     H73121   3.128   8.976   2.471 -0.1887  0.3351  2.0797
  530MOL0     H73122   2.786   9.125   2.487  0.3892 -1.1244 -0.1304
  530MOL0     H73123   2.542   9.091   2.551 -1.3188 -1.6209  0.3963
  530MOL0     H73124   1.030   9.736   2.874  2.1469 -1.5318  1.0811
  530MOL0     H73125   0.783   9.658   2.852  0.1677  0.9179 -0.7931
  530MOL0     H73126   0.545   9.342   2.965 -0.2484 -0.5195 -0.3500
  530MOL0     H73127   0.371   9.183   2.936 -0.4135 -0.1433  0.9958
  530MOL0     H73128   0.164   9.100   2.855  1.0036  1.7919 -0.3225
  530MOL0     H73129  -0.006   9.111   2.887  0.0602 -1.1691  0.6539
  530MOL0     H73130   0.046   9.363   2.804 -0.6553  0.6152 -2.8059
  530MOL0     H73131  -0.019   9.244   2.722  0.3329  3.2371 -2.4482
  530MOL0     H73132   0.283   9.297   2.716 -0.8962  1.3281  1.1692
  530MOL0     H73133   0.211   9.159   2.636  2.5511  0.2892  1.1152
  530MOL0     H73134   0.161   9.451   2.568 -3.3607 -0.0807 -1.5410
  530MOL0     H73135   0.048   9.323   2.528 -1.0620 -0.8554 -0.0635
  530MOL0     H73136   0.296   9.386   2.211 -1.0720  2.0701  1.9099
  530MOL0     H73137   0.083   9.440   3.136 -1.2729  2.8234 -2.1913
  530MOL0     H73138   0.327   9.710   3.226 -3.6926  2.9418 -4.7015
  530MOL0     H73139   0.162   9.657   3.220 -1.2263 -1.2996  2.7587
  530MOL0     H73140   0.273   9.590   3.339 -3.2364  0.9986  0.2942
  531MOL0     O73141   5.156   0.755   9.191  0.8784  0.2804 -0.4610
  531MOL0     C73142   5.242   0.707   9.118 -0.7538  0.0791  0.1041
  531MOL0     O73143   5.372   0.717   9.145 -0.7061  0.4766  0.4787
  531MOL0     C73144   5.415   0.772   9.266  0.5020  0.3833 -1.2398
  531MOL0     C73145   5.406   0.699   9.386 -0.3223 -0.7691 -0.5398
  531MOL0     C73146   5.468   0.756   9.502  0.5616 -0.2116  1.0978
  531MOL0     C73147   5.507   0.892   9.507 -0.0813  1.4789  0.5296
  531MOL0     O73148   5.562   0.953   9.617  0.0841  0.2962  0.0222
  531MOL0     C73149   5.636   0.881   9.713 -0.8344 -0.1450  1.0496
  531MOL0     C73150   5.788   0.923   9.718  0.5877  0.9420 -0.0899
  531MOL0     C73151   5.805   1.071   9.734 -0.2793 -0.9506 -0.2275
  531MOL0     C73152   5.951   1.114   9.747  0.0217 -0.3852 -0.0874
  531MOL0     C73153   5.969   1.265   9.764  0.1958 -1.2428 -0.5509
  531MOL0     C73154   6.123   1.299   9.774  0.7102  0.0311 -0.2464
  531MOL0     C73155   6.199   1.289   9.634  0.9513  0.1365  0.5855
  531MOL0     C73156   6.276   1.163   9.623  0.0016  0.3683  0.2522
  531MOL0     N73157   6.417   1.182   9.653  0.0529  0.1192 -0.0379
  531MOL0     C73158   6.512   1.107   9.582  0.0566  0.4369 -0.4237
  531MOL0     C73159   6.629   1.115   9.652  0.3233  0.5033 -0.2051
  531MOL0     C73160   6.754   1.044   9.617  0.5075 -0.0019 -0.9539
  531MOL0     C73161   6.814   1.098   9.480  0.7777  0.6277 -0.2243
  531MOL0     C73162   6.941   1.020   9.432 -0.9420 -0.0333 -0.0078
  531MOL0     C73163   7.051   1.025   9.535  0.3874  0.4383  1.2397
  531MOL0     O73164   7.079   1.155   9.570 -0.1834  0.1085  0.4268
  531MOL0     C73165   7.211   1.180   9.624  0.9350  0.5536  0.7074
  531MOL0     C73166   7.284   1.290   9.584  0.1852  0.2495 -0.3659
  531MOL0     C73167   7.417   1.319   9.629  0.9700 -0.2821 -0.8237
  531MOL0     C73168   7.467   1.462   9.603 -0.1548  1.3357  0.1523
  531MOL0     C73169   7.478   1.224   9.714 -0.0911  0.6914  0.1462
  531MOL0     C73170   7.617   1.233   9.759 -0.1844 -1.5365  0.1820
  531MOL0     O73171   7.709   1.316   9.696 -0.1732 -0.5132 -0.4236
  531MOL0     C73172   7.824   1.314   9.773 -0.8580 -0.9330 -0.5693
  531MOL0     C73173   7.860   1.419   9.859  0.2155  0.5059 -0.2015
  531MOL0     C73174   7.974   1.423   9.932  1.6610  0.3369  0.3240
  531MOL0     C73175   8.062   1.315   9.930  0.3978  0.9206  1.0739
  531MOL0     O73176   8.186   1.315   9.990  0.1543 -1.2401 -0.0404
  531MOL0     C73177   8.225   1.202  10.067 -0.2525 -0.2272 -0.4784
  531MOL0     C73178   8.350   1.248  10.161 -0.5898  0.3682 -0.2444
  531MOL0     C73179   8.484   1.253  10.097 -1.2171  0.1309  0.2896
  531MOL0     C73180   8.604   1.245  10.195 -0.0694 -0.3976  1.0147
  531MOL0     C73181   8.737   1.221  10.116 -0.1401 -0.2317  0.5691
  531MOL0     C73182   8.858   1.206  10.211  0.1362  0.2898 -0.3394
  531MOL0     C73183   8.979   1.157  10.132 -0.8485 -0.0536 -0.1817
  531MOL0     C73184   9.116   1.205  10.179 -0.1820 -0.1375  0.6759
  531MOL0    Cl73185   9.228   1.064  10.137  0.8048 -0.3742  0.4366
  531MOL0     C73186   8.031   1.204   9.840  0.2995 -0.8897 -1.2372
  531MOL0     C73187   7.910   1.202   9.773 -0.3471 -0.0864  0.6882
  531MOL0     O73188   7.635   1.170   9.865 -0.1620 -0.0078 -0.6285
  531MOL0     C73189   7.402   1.110   9.751  0.2957 -0.4156  1.0135
  531MOL0     C73190   7.270   1.092   9.711 -0.7170 -0.1114 -0.8191
  531MOL0     N73191   6.598   1.196   9.755 -0.0162 -0.1842  0.0682
  531MOL0     N73192   6.473   1.226   9.767  0.2799  0.2015  0.5368
  531MOL0     C73193   5.494   0.966   9.388  0.2877 -0.1789 -0.4136
  531MOL0     C73194   5.450   0.907   9.267 -0.6544  0.1456 -0.2198
  531MOL0     C73195   5.197   0.638   8.993 -0.2353  0.5252  0.1195
  531MOL0     C73196   5.073   0.574   8.988 -0.4458 -0.4354 -0.5456
  531MOL0     C73197   5.030   0.511   8.873 -0.5819 -0.6747  0.2884
  531MOL0     C73198   5.105   0.517   8.755 -0.1176  0.3259 -0.5854
  531MOL0     O73199   5.039   0.471   8.650  0.7248  0.6473  0.4463
  531MOL0     C73200   5.095   0.499   8.521  0.4979  0.5947  0.1352
  531MOL0     C73201   5.004   0.424   8.419 -0.1479  0.4119  0.9487
  531MOL0     C73202   5.039   0.489   8.280 -0.8726  0.3211  0.2973
  531MOL0     C73203   4.995   0.411   8.152 -0.4812  0.7273  0.4730
  531MOL0     C73204   5.061   0.286   8.112  0.3537 -0.4250 -0.0544
  531MOL0     C73205   5.117   0.178   8.087 -0.0288 -0.3891  0.8209
  531MOL0     C73206   5.238   0.571   8.767  0.8750 -0.2219  0.0524
  531MOL0     C73207   5.276   0.639   8.880 -0.1452  0.0230 -0.1223
  531MOL0     C73208   5.408   0.718   8.866  0.2506  0.7816  0.2393
  531MOL0     H73209   5.362   0.600   9.390 -3.8813  0.6319  4.4237
  531MOL0     H73210   5.476   0.687   9.585 -0.9625 -1.4599  0.2663
  531MOL0     H73211   5.625   0.773   9.701 -1.3588 -0.2117  1.9711
  531MOL0     H73212   5.592   0.907   9.810 -1.2960  4.7951 -0.2041
  531MOL0     H73213   5.845   0.875   9.798  1.4550  4.1692  1.4149
  531MOL0     H73214   5.819   0.888   9.619 -0.8325  1.1298 -0.6183
  531MOL0     H73215   5.774   1.119   9.642  1.6512  0.6029 -0.1427
  531MOL0     H73216   5.748   1.110   9.819 -1.5535  0.8083 -1.8254
  531MOL0     H73217   5.993   1.058   9.831  0.2120  2.0960  1.5606
  531MOL0     H73218   6.003   1.090   9.654  1.4590 -1.7732  1.0204
  531MOL0     H73219   5.911   1.295   9.853 -2.1270 -4.0657 -0.9671
  531MOL0     H73220   5.926   1.316   9.678  1.9520  2.8809  0.7299
  531MOL0     H73221   6.120   1.406   9.798 -0.9561  0.4364 -1.9654
  531MOL0     H73222   6.160   1.239   9.857  1.1905  0.9233  0.1893
  531MOL0     H73223   6.272   1.369   9.623  0.0008  1.1431  1.3313
  531MOL0     H73224   6.134   1.316   9.551  1.5801  2.5027  0.7905
  531MOL0     H73225   6.225   1.091   9.688 -3.2682 -0.4862 -2.9781
  531MOL0     H73226   6.274   1.131   9.519 -0.6301 -0.4172  0.4974
  531MOL0     H73227   6.509   1.038   9.498 -0.6238 -0.8757  0.6367
  531MOL0     H73228   6.726   0.939   9.620  1.0660 -0.1403 -0.1734
  531MOL0     H73229   6.826   1.066   9.697 -1.3510  1.7991  0.3321
  531MOL0     H73230   6.737   1.078   9.404  1.6508 -0.6504 -0.8014
  531MOL0     H73231   6.840   1.204   9.482  2.4210  0.2944 -1.5427
  531MOL0     H73232   6.913   0.915   9.429  0.8316 -0.5318 -0.8776
  531MOL0     H73233   6.976   1.050   9.333  2.2388  2.6088  1.6866
  531MOL0     H73234   7.015   0.971   9.623  1.1054  0.3500  1.4852
  531MOL0     H73235   7.132   0.973   9.482 -0.2374 -0.6459  1.3311
  531MOL0     H73236   7.238   1.366   9.523 -1.6282 -1.8735 -1.8229
  531MOL0     H73237   7.568   1.451   9.563 -0.6959 -1.1463 -0.7249
  531MOL0     H73238   7.464   1.528   9.691 -1.5753  1.8562 -0.2595
  531MOL0     H73239   7.406   1.511   9.527 -0.1158  1.3405  0.1248
  531MOL0     H73240   7.791   1.502   9.865 -3.3285 -2.1843 -0.0309
  531MOL0     H73241   8.006   1.503   9.998  3.3805  0.0205 -0.0574
  531MOL0     H73242   8.143   1.163  10.128  1.4957 -1.9925  0.9157
  531MOL0     H73243   8.266   1.119  10.008 -0.4165 -1.9689  1.7193
  531MOL0     H73244   8.325   1.344  10.207 -0.4867 -1.5659  4.3442
  531MOL0     H73245   8.362   1.186  10.250 -0.8943  1.3101  0.4711
  531MOL0     H73246   8.485   1.344  10.038 -5.1285 -1.3879 -2.5263
  531MOL0     H73247   8.501   1.178  10.019 -3.0413  1.7713 -1.8076
  531MOL0     H73248   8.592   1.160  10.263  0.8346  0.7990  2.7398
  531MOL0     H73249   8.593   1.336  10.254  2.8019  0.8621 -0.2244
  531MOL0     H73250   8.723   1.120  10.074 -0.2936  0.5179 -1.2587
  531MOL0     H73251   8.752   1.291  10.034 -1.2097 -0.7279 -0.0841
  531MOL0     H73252   8.825   1.145  10.296 -1.2182 -0.1777 -1.1659
  531MOL0     H73253   8.872   1.310  10.240 -0.7794  0.6642 -1.2047
  531MOL0     H73254   8.968   1.180  10.025 -0.0683  3.5750  0.3635
  531MOL0     H73255   8.982   1.049  10.145  2.1832  0.0141  0.3710
  531MOL0     H73256   9.122   1.234  10.285 -1.9876 -0.3499  0.8648
  531MOL0     H73257   9.137   1.298  10.126  2.7778 -0.7921  0.5302
  531MOL0     H73258   8.096   1.118   9.831  1.8097  0.1624 -0.7884
  531MOL0     H73259   7.889   1.115   9.712  2.4835 -1.5758  1.6554
  531MOL0     H73260   7.456   1.034   9.807 -0.5439 -2.2494 -0.5328
  531MOL0     H73261   7.232   0.997   9.747  0.6869 -0.7235 -0.9045
  531MOL0     H73262   5.517   1.072   9.390  1.9517 -0.0658 -6.3645
  531MOL0     H73263   5.436   0.977   9.185 -4.0245  2.1745  1.8374
  531MOL0     H73264   5.010   0.561   9.075  3.4175  0.0597  2.6369
  531MOL0     H73265   4.928   0.475   8.874 -0.4267 -1.1221  0.8621
  531MOL0     H73266   5.092   0.604   8.490  0.9179  0.9234  1.1488
  531MOL0     H73267   5.196   0.456   8.520  0.3310  0.2030 -0.5029
  531MOL0     H73268   4.898   0.449   8.430 -0.9994 -1.7927 -1.3775
  531MOL0     H73269   5.023   0.317   8.422 -0.6157  0.3153  0.6882
  531MOL0     H73270   5.003   0.591   8.261  1.0373  0.8032 -0.9462
  531MOL0     H73271   5.147   0.504   8.280 -0.9920  1.7030  2.5652
  531MOL0     H73272   5.003   0.477   8.066  0.3411 -0.8674 -0.7306
  531MOL0     H73273   4.894   0.380   8.181  0.2504 -1.1157  1.1880
  531MOL0     H73274   5.156   0.080   8.071 -1.5750 -0.6240 -2.0682
  531MOL0     H73275   5.309   0.571   8.686 -0.3642  1.1461 -1.0780
  531MOL0     H73276   5.479   0.642   8.902  1.1897  1.3415 -0.4046
  531MOL0     H73277   5.426   0.747   8.763  0.8076 -1.7821 -0.4537
  531MOL0     H73278   5.411   0.811   8.924  4.0743  1.2717 -0.5379
  532MOL0     O73279   0.219   1.899   1.783  0.0552 -0.5118  1.2630
  532MOL0     C73280   0.331   1.920   1.828 -0.5234 -0.4182 -0.6689
  532MOL0     O73281   0.418   1.821   1.863  0.0529 -0.1862  0.7579
  532MOL0     C73282   0.393   1.697   1.814  0.4393  0.1419 -0.0100
  532MOL0     C73283   0.454   1.640   1.695  0.4815 -0.1288  0.3609
  532MOL0     C73284   0.421   1.507   1.657 -0.2231 -0.4671 -0.9433
  532MOL0     C73285   0.330   1.433   1.730 -0.2798 -0.1982 -0.9682
  532MOL0     O73286   0.309   1.306   1.695  0.4769 -0.3302  0.3487
  532MOL0     C73287   0.167   1.283   1.670  0.3003 -0.2309 -0.0343
  532MOL0     C73288   0.140   1.143   1.618 -0.3592 -0.0500 -0.2557
  532MOL0     C73289   0.169   1.038   1.731  0.3689 -0.8787  0.0020
  532MOL0     C73290   0.115   0.901   1.689 -0.3553 -0.1194 -0.1043
  532MOL0     C73291  -0.031   0.877   1.718 -0.5557 -0.9345 -0.3525
  532MOL0     C73292  -0.086   0.754   1.654 -0.4680 -0.7383 -0.3882
  532MOL0     C73293  -0.036   0.620   1.710  0.2151  0.2156 -0.7853
  532MOL0     C73294  -0.081   0.499   1.635  0.3633 -0.0459 -0.3373
  532MOL0     N73295  -0.036   0.506   1.498  0.0584  0.2174  0.2000
  532MOL0     C73296   0.093   0.516   1.450  0.8927 -0.7448  0.9381
  532MOL0     C73297   0.080   0.535   1.316 -0.2286  0.8962 -0.3509
  532MOL0     C73298   0.189   0.547   1.210 -0.8480 -0.9451 -0.8440
  532MOL0     C73299   0.196   0.679   1.132  0.5096 -0.6983 -0.2191
  532MOL0     C73300   0.214   0.795   1.226  0.0487 -0.9617  0.3752
  532MOL0     C73301   0.233   0.929   1.161 -0.1342 -0.1738 -0.0663
  532MOL0     O73302   0.264   1.024   1.260  0.2578 -0.3320  0.1391
  532MOL0     C73303   0.367   1.119   1.246 -0.3476 -0.1189 -0.4943
  532MOL0     C73304   0.439   1.123   1.356 -0.9177 -0.2122 -1.1177
  532MOL0     C73305   0.566   1.191   1.358  0.4642 -0.3690  0.3044
  532MOL0     C73306   0.635   1.193   1.488 -0.7331 -0.0250 -0.1513
  532MOL0     C73307   0.608   1.251   1.237 -0.8532  0.6307 -0.0256
  532MOL0     C73308   0.731   1.334   1.222 -0.0448 -0.2404  0.4440
  532MOL0     O73309   0.793   1.315   1.107 -0.1377  0.8665  0.2771
  532MOL0     C73310   0.900   1.393   1.065 -0.7333  0.0630  0.0806
  532MOL0     C73311   0.996   1.328   0.984  0.1589 -1.2128  0.3916
  532MOL0     C73312   1.116   1.394   0.942 -0.6042  0.1568 -0.1520
  532MOL0     C73313   1.131   1.534   0.971  0.2637 -0.0013 -0.6975
  532MOL0     O73314   1.260   1.582   0.943 -0.2121 -0.4589 -0.4238
  532MOL0     C73315   1.282   1.690   0.847 -0.2725 -0.0878 -0.1667
  532MOL0     C73316   1.423   1.746   0.881 -0.2970 -0.5311  0.1728
  532MOL0     C73317   1.470   1.854   0.788 -0.1685 -0.0960 -0.0678
  532MOL0     C73318   1.589   1.933   0.854 -0.6896  0.2278 -0.5383
  532MOL0     C73319   1.618   2.066   0.793 -0.6438 -0.8666  0.9927
  532MOL0     C73320   1.668   2.056   0.643  0.9690  0.2502  0.0902
  532MOL0     C73321   1.814   2.010   0.629 -0.2376 -0.5782 -0.6765
  532MOL0     C73322   1.925   2.111   0.668  0.8106 -0.0615  0.1540
  532MOL0    Cl73323   2.081   2.025   0.649 -0.6775  0.2054  0.4126
  532MOL0     C73324   1.029   1.597   1.050  0.0425 -0.3762  0.0964
  532MOL0     C73325   0.914   1.530   1.087  0.1953  0.1011  0.0881
  532MOL0     O73326   0.762   1.409   1.310  0.3058 -0.1997  0.1341
  532MOL0     C73327   0.524   1.245   1.123  0.1069  0.1307  0.1165
  532MOL0     C73328   0.405   1.172   1.127 -0.3694 -0.4024 -0.0124
  532MOL0     N73329  -0.051   0.512   1.284  0.1268  0.4143 -0.2903
  532MOL0     N73330  -0.122   0.518   1.393  0.8086  0.5762 -0.1300
  532MOL0     C73331   0.278   1.492   1.847 -0.3258 -0.4371 -0.2550
  532MOL0     C73332   0.303   1.619   1.885  1.2437 -0.0733 -0.6524
  532MOL0     C73333   0.369   2.060   1.857 -0.1381 -0.3704 -0.3876
  532MOL0     C73334   0.267   2.145   1.901  0.8877 -0.5880  0.1729
  532MOL0     C73335   0.276   2.281   1.923 -0.1172 -0.6236 -0.3592
  532MOL0     C73336   0.405   2.333   1.899  0.2141 -0.5282  1.1186
  532MOL0     O73337   0.420   2.470   1.907 -1.2567  0.6476  0.2680
  532MOL0     C73338   0.524   2.517   1.997 -0.1680  0.6083  0.1711
  532MOL0     C73339   0.494   2.512   2.145  0.3604 -0.2505  0.4555
  532MOL0     C73340   0.405   2.625   2.180 -0.3606  0.4486  0.3148
  532MOL0     C73341   0.344   2.620   2.320  0.3998  0.3551 -0.7490
  532MOL0     C73342   0.429   2.660   2.427 -0.0641 -0.6270 -0.4542
  532MOL0     C73343   0.492   2.696   2.526  0.7698 -0.6974 -0.3854
  532MOL0     C73344   0.512   2.252   1.851  1.1501 -0.6362  0.2637
  532MOL0     C73345   0.495   2.120   1.830 -0.0839 -0.1647  0.2592
  532MOL0     C73346   0.609   2.037   1.770 -0.2084 -0.0042  0.4181
  532MOL0     H73347   0.525   1.696   1.636  0.1691  0.2025  0.2957
  532MOL0     H73348   0.476   1.469   1.571  3.2085  0.8104  0.5096
  532MOL0     H73349   0.135   1.369   1.611 -1.7241  1.7699  3.6034
  532MOL0     H73350   0.113   1.289   1.765  1.6845  2.6065  0.6848
  532MOL0     H73351   0.037   1.143   1.580 -0.9469 -0.9974  1.2519
  532MOL0     H73352   0.210   1.131   1.535  1.1274 -2.0234  1.1879
  532MOL0     H73353   0.276   1.030   1.752  0.6520  0.6922 -0.7226
  532MOL0     H73354   0.115   1.066   1.822 -3.0675 -0.9783 -1.8242
  532MOL0     H73355   0.145   0.871   1.589  1.2396 -0.1469  0.3535
  532MOL0     H73356   0.163   0.825   1.752  0.3761 -0.2196 -0.7598
  532MOL0     H73357  -0.091   0.958   1.675 -1.0020 -1.2764 -0.3804
  532MOL0     H73358  -0.043   0.866   1.826 -0.6938  0.1909 -0.2442
  532MOL0     H73359  -0.195   0.756   1.666 -0.3917  1.2370  0.3691
  532MOL0     H73360  -0.057   0.771   1.549  0.7523  1.0104  0.1833
  532MOL0     H73361  -0.072   0.618   1.813  1.3603 -0.7166 -0.3794
  532MOL0     H73362   0.073   0.612   1.716  0.1876  0.0915 -0.4052
  532MOL0     H73363  -0.055   0.400   1.676  0.3895  0.1311  0.0840
  532MOL0     H73364  -0.190   0.511   1.641  0.1408 -2.1083  1.0639
  532MOL0     H73365   0.189   0.511   1.502 -0.3331 -1.8175  3.2438
  532MOL0     H73366   0.197   0.461   1.143  0.8936  1.7984 -4.5718
  532MOL0     H73367   0.283   0.547   1.266 -1.4342  1.0744  0.2459
  532MOL0     H73368   0.280   0.684   1.064 -1.0125  0.8380 -2.1077
  532MOL0     H73369   0.103   0.694   1.077 -0.3120  1.0976  1.5451
  532MOL0     H73370   0.134   0.803   1.301  1.0852  1.2913  1.3454
  532MOL0     H73371   0.301   0.769   1.287  0.4180 -0.9747 -0.1588
  532MOL0     H73372   0.306   0.915   1.081 -1.5293  0.5226 -1.5016
  532MOL0     H73373   0.143   0.959   1.108  1.4393  2.0936 -1.6665
  532MOL0     H73374   0.410   1.066   1.443 -0.9802 -0.9804 -1.6317
  532MOL0     H73375   0.650   1.095   1.533 -1.1853  0.0671  0.2067
  532MOL0     H73376   0.579   1.242   1.568 -0.5554  1.5487 -0.9558
  532MOL0     H73377   0.727   1.251   1.475 -2.0729  1.8674 -1.7586
  532MOL0     H73378   0.980   1.223   0.961 -0.4811 -1.5164  2.0859
  532MOL0     H73379   1.201   1.361   0.883  1.4441  2.0165  1.5809
  532MOL0     H73380   1.281   1.649   0.746 -1.8336 -1.5278  0.3773
  532MOL0     H73381   1.194   1.754   0.842 -3.6028 -4.2771 -3.9905
  532MOL0     H73382   1.433   1.773   0.987  0.2134 -1.3708  0.3502
  532MOL0     H73383   1.491   1.661   0.874  1.1499  0.4570  1.4367
  532MOL0     H73384   1.386   1.921   0.769 -0.1249 -0.6685 -2.6725
  532MOL0     H73385   1.500   1.810   0.693  0.8597 -1.9868  1.0781
  532MOL0     H73386   1.678   1.870   0.855 -1.2627 -0.6453  1.4384
  532MOL0     H73387   1.562   1.951   0.959  2.4518  0.3416  0.3467
  532MOL0     H73388   1.529   2.129   0.805 -0.5074  0.5096 -3.3980
  532MOL0     H73389   1.695   2.126   0.842  1.4868 -0.9718 -1.9308
  532MOL0     H73390   1.646   2.153   0.598  0.4344 -1.3534 -3.4609
  532MOL0     H73391   1.601   1.986   0.591  1.2642 -1.1597  1.5284
  532MOL0     H73392   1.819   1.982   0.523  3.7606  0.0903 -0.8084
  532MOL0     H73393   1.822   1.916   0.684  0.9230 -0.4896 -0.6668
  532MOL0     H73394   1.914   2.171   0.759 -0.1250  1.2585 -0.8042
  532MOL0     H73395   1.918   2.188   0.591  0.0254  3.1926  3.2306
  532MOL0     H73396   1.057   1.696   1.086  0.3800 -1.3262  2.6809
  532MOL0     H73397   0.835   1.590   1.132 -1.0489 -1.1313 -0.4195
  532MOL0     H73398   0.550   1.306   1.036 -1.7528  2.2122  0.9306
  532MOL0     H73399   0.346   1.169   1.036 -1.9422  1.7035  0.8446
  532MOL0     H73400   0.246   1.422   1.924  0.4594 -0.4304  0.0821
  532MOL0     H73401   0.254   1.664   1.970  1.9380 -1.2047  0.3766
  532MOL0     H73402   0.169   2.101   1.915  0.9085 -0.4511  0.8036
  532MOL0     H73403   0.194   2.346   1.950 -0.9140 -1.8962  0.3756
  532MOL0     H73404   0.618   2.466   1.974 -2.0791 -1.0221 -6.3568
  532MOL0     H73405   0.540   2.619   1.962  3.5827 -0.3728 -1.5000
  532MOL0     H73406   0.587   2.523   2.200  2.0582 -1.6664 -1.9566
  532MOL0     H73407   0.449   2.418   2.177 -2.0741  0.5974 -0.2446
  532MOL0     H73408   0.458   2.721   2.172 -0.4336  0.5812  1.3193
  532MOL0     H73409   0.322   2.625   2.110  0.8687 -1.0651 -1.2219
  532MOL0     H73410   0.288   2.527   2.333  1.7223 -0.5917 -1.6491
  532MOL0     H73411   0.260   2.691   2.316 -2.9664 -3.2493  0.1536
  532MOL0     H73412   0.537   2.745   2.611 -2.6040  1.8796  0.1480
  532MOL0     H73413   0.607   2.305   1.843 -0.7868  3.0292 -1.1345
  532MOL0     H73414   0.691   2.098   1.730  0.9190  0.6799  3.4797
  532MOL0     H73415   0.652   1.983   1.855  1.6137  1.0253  0.2060
  532MOL0     H73416   0.569   1.980   1.685 -0.6313 -0.6036  1.0144
  533MOL0     O73417   1.935  11.009   3.368 -0.0698 -0.2142 -0.9073
  533MOL0     C73418   1.862  10.912   3.384 -0.1836 -0.2339 -0.7788
  533MOL0     O73419   1.904  10.788   3.431  0.2341 -0.3138  0.0929
  533MOL0     C73420   2.036  10.766   3.467 -1.0806  0.5534  0.5653
  533MOL0     C73421   2.101  10.645   3.428 -0.4090 -0.7124 -0.0917
  533MOL0     C73422   2.231  10.613   3.477  0.8305 -0.5158  0.1431
  533MOL0     C73423   2.300  10.706   3.550  0.6587 -1.0836  0.2102
  533MOL0     O73424   2.431  10.681   3.577  0.5317 -0.0276 -0.1485
  533MOL0     C73425   2.476  10.665   3.712  0.6385 -0.3741 -0.2280
  533MOL0     C73426   2.614  10.736   3.725 -0.0329  0.6549  0.9713
  533MOL0     C73427   2.736  10.650   3.682 -1.5968  0.5483  0.5432
  533MOL0     C73428   2.755  10.654   3.527  0.3085  0.8069 -0.6769
  533MOL0     C73429   2.698  10.521   3.461 -0.1509  0.2838  0.1559
  533MOL0     C73430   2.696  10.542   3.305 -0.2817  0.1775  0.1177
  533MOL0     C73431   2.647  10.421   3.229 -0.4906 -0.1579  0.5419
  533MOL0     C73432   2.672  10.283   3.294 -0.5792  0.5698 -0.1019
  533MOL0     N73433   2.636  10.174   3.198 -0.1013  0.0125  0.2020
  533MOL0     C73434   2.686  10.162   3.069 -0.3356 -0.8809 -0.6256
  533MOL0     C73435   2.623  10.059   3.020  0.2666  0.8729 -1.0476
  533MOL0     C73436   2.623   9.999   2.886 -1.0964  0.0315  0.5625
  533MOL0     C73437   2.754   9.927   2.859 -0.8192  0.1317 -0.7022
  533MOL0     C73438   2.781   9.808   2.950 -0.5169 -0.2944 -0.1585
  533MOL0     C73439   2.917   9.767   2.907  0.5761  0.2952  0.4030
  533MOL0     O73440   2.989   9.698   3.016  0.2305 -0.6351 -0.7618
  533MOL0     C73441   3.126   9.694   3.013  0.6226 -0.9118 -0.3730
  533MOL0     C73442   3.213   9.763   2.936  0.6080 -0.1796  0.3343
  533MOL0     C73443   3.350   9.768   2.968  0.7724 -0.1431  0.3176
  533MOL0     C73444   3.438   9.841   2.876 -0.2267 -0.0869  0.4781
  533MOL0     C73445   3.403   9.686   3.076  1.0336 -0.4123  0.7102
  533MOL0     C73446   3.548   9.699   3.120  0.2064 -0.5260  0.1060
  533MOL0     O73447   3.583   9.676   3.251 -0.2240  0.6111 -0.7966
  533MOL0     C73448   3.713   9.686   3.293 -0.0879 -0.2613  0.1428
  533MOL0     C73449   3.771   9.592   3.367 -1.0478  0.1915 -0.1054
  533MOL0     C73450   3.905   9.612   3.418 -0.3870  0.1665  0.2381
  533MOL0     C73451   3.981   9.723   3.378  0.4325  0.2062  0.3372
  533MOL0     O73452   4.103   9.742   3.421 -0.6710  0.7007  0.4137
  533MOL0     C73453   4.126   9.790   3.561 -0.3866 -0.5132 -0.2904
  533MOL0     C73454   4.171   9.672   3.653 -0.1186  0.0091  0.5538
  533MOL0     C73455   4.178   9.707   3.805  0.0485  0.4297  0.0357
  533MOL0     C73456   4.225   9.591   3.882  0.3567  0.2064  0.0961
  533MOL0     C73457   4.248   9.616   4.029 -0.7481 -0.0810  0.0098
  533MOL0     C73458   4.375   9.682   4.069  0.2620  0.1053 -0.3266
  533MOL0     C73459   4.495   9.606   4.036 -0.1816 -0.0158 -0.1453
  533MOL0     C73460   4.617   9.678   4.093 -0.1324 -0.7058 -0.2588
  533MOL0    Cl73461   4.758   9.580   4.042  0.2508  0.0942 -0.2576
  533MOL0     C73462   3.911   9.829   3.325 -0.4400  0.6218 -0.2221
  533MOL0     C73463   3.779   9.811   3.274  0.0415  0.1782 -0.6810
  533MOL0     O73464   3.633   9.729   3.039 -0.9528 -0.7324 -0.5999
  533MOL0     C73465   3.307   9.622   3.162 -0.6222  0.2650 -0.2956
  533MOL0     C73466   3.172   9.630   3.125  0.5019  0.3273 -0.2707
  533MOL0     N73467   2.541  10.000   3.119  0.4422 -0.2008 -1.0474
  533MOL0     N73468   2.555  10.072   3.223  0.1851  0.0018  0.2862
  533MOL0     C73469   2.241  10.819   3.595 -0.1157 -0.5085 -0.7213
  533MOL0     C73470   2.107  10.847   3.552  0.0251  0.5504  0.1726
  533MOL0     C73471   1.712  10.912   3.378  0.7258 -0.3724  0.3440
  533MOL0     C73472   1.641  10.800   3.437  0.2587 -0.4173  0.8040
  533MOL0     C73473   1.493  10.803   3.422  0.0031 -0.0096  0.8907
  533MOL0     C73474   1.428  10.915   3.369 -0.2681 -0.4214 -0.5695
  533MOL0     O73475   1.301  10.925   3.366 -0.1111  0.0676 -0.1772
  533MOL0     C73476   1.224  10.813   3.315  0.7822 -0.8550  0.1904
  533MOL0     C73477   1.082  10.871   3.292 -0.5310 -0.4527  0.7924
  533MOL0     C73478   1.031  10.961   3.409  1.0347 -0.6331  0.9548
  533MOL0     C73479   0.890  11.012   3.404 -1.2676  0.1667 -0.0229
  533MOL0     C73480   0.799  10.902   3.382  0.1769 -0.8123  0.6656
  533MOL0     C73481   0.718  10.825   3.335  0.2021  0.0730  0.1402
  533MOL0     C73482   1.502  11.025   3.333  0.9951  0.2517  0.3389
  533MOL0     C73483   1.637  11.026   3.318  0.2582 -0.0111  0.7344
  533MOL0     C73484   1.707  11.143   3.257  0.1155 -0.0018  0.3334
  533MOL0     H73485   2.051  10.568   3.371  0.9901 -3.2081  1.8735
  533MOL0     H73486   2.286  10.527   3.441 -0.4899 -1.0120 -0.7984
  533MOL0     H73487   2.490  10.559   3.736  1.9577 -0.4938 -1.3809
  533MOL0     H73488   2.404  10.716   3.776  1.1385 -0.9170  0.8037
  533MOL0     H73489   2.611  10.831   3.672  3.6201 -0.4049 -1.4992
  533MOL0     H73490   2.624  10.765   3.830 -1.3419  2.5766  0.6025
  533MOL0     H73491   2.827  10.695   3.721 -0.6287 -0.6756 -0.2207
  533MOL0     H73492   2.763  10.554   3.728  2.2814  0.8410 -0.8329
  533MOL0     H73493   2.712  10.747   3.489  0.2510  1.3127  0.5816
  533MOL0     H73494   2.864  10.653   3.518  0.7667 -1.3100  3.1062
  533MOL0     H73495   2.596  10.508   3.499  0.3201  1.9659  2.2168
  533MOL0     H73496   2.763  10.436   3.481 -1.5737 -1.2742 -1.5399
  533MOL0     H73497   2.640  10.630   3.271  2.3457  1.1219 -2.1439
  533MOL0     H73498   2.796  10.567   3.268 -0.0808 -0.9304 -0.1089
  533MOL0     H73499   2.686  10.424   3.126  0.2753 -0.2906  0.8213
  533MOL0     H73500   2.539  10.432   3.218 -0.4749  2.0709  1.9547
  533MOL0     H73501   2.771  10.272   3.338  0.1174 -0.3336 -1.7936
  533MOL0     H73502   2.600  10.283   3.377 -0.9045 -0.9900 -0.3535
  533MOL0     H73503   2.760  10.218   3.013  0.6199  0.2979  1.6902
  533MOL0     H73504   2.590  10.069   2.809 -0.2150 -0.0651  0.0888
  533MOL0     H73505   2.555   9.913   2.882 -0.9149 -0.0577 -2.7363
  533MOL0     H73506   2.738   9.890   2.757  0.0931  1.7328 -1.4580
  533MOL0     H73507   2.837   9.998   2.858 -1.8872  1.5504  1.8831
  533MOL0     H73508   2.782   9.840   3.055 -1.3939 -0.7281 -0.0085
  533MOL0     H73509   2.700   9.734   2.953  0.9866 -2.0561  4.0623
  533MOL0     H73510   2.916   9.704   2.817  3.5822 -0.1944  0.6038
  533MOL0     H73511   2.969   9.858   2.876  0.3566  0.1835 -0.3126
  533MOL0     H73512   3.166   9.802   2.846 -1.1618 -5.0453 -1.1804
  533MOL0     H73513   3.389   9.889   2.790  0.6059  2.0597  1.1167
  533MOL0     H73514   3.519   9.781   2.833  0.8514  1.4296  0.2697
  533MOL0     H73515   3.492   9.924   2.923  0.0426 -0.5457  0.9896
  533MOL0     H73516   3.713   9.504   3.393 -2.9815  1.3625 -0.2472
  533MOL0     H73517   3.955   9.550   3.492  0.9919 -0.2445 -0.9856
  533MOL0     H73518   4.205   9.864   3.554 -0.7254 -0.2104 -1.0115
  533MOL0     H73519   4.041   9.846   3.603 -0.5075 -0.0731 -1.0981
  533MOL0     H73520   4.099   9.590   3.652 -0.8596  0.6238  1.4447
  533MOL0     H73521   4.271   9.634   3.629  0.6158  2.1192  0.0311
  533MOL0     H73522   4.075   9.734   3.831  0.3349 -0.5486  2.5076
  533MOL0     H73523   4.243   9.794   3.817 -0.5292  1.0166 -1.0112
  533MOL0     H73524   4.317   9.545   3.844  0.3492  0.5789 -0.3752
  533MOL0     H73525   4.155   9.507   3.879 -0.1830  0.6185  0.8026
  533MOL0     H73526   4.167   9.674   4.074  0.7520 -0.7457  3.8969
  533MOL0     H73527   4.251   9.516   4.073  0.1350 -1.4620 -2.8915
  533MOL0     H73528   4.361   9.700   4.176 -2.5040 -0.7707 -0.4512
  533MOL0     H73529   4.378   9.778   4.017 -1.9706  0.0477 -0.6804
  533MOL0     H73530   4.499   9.588   3.928 -0.5166  0.6430 -0.2703
  533MOL0     H73531   4.496   9.510   4.090 -2.9164  1.4505  2.8413
  533MOL0     H73532   4.602   9.668   4.201 -0.9200 -1.6065 -0.4376
  533MOL0     H73533   4.630   9.779   4.053  0.8277 -0.9933 -0.7201
  533MOL0     H73534   3.956   9.927   3.310 -0.3404  0.2980 -2.3450
  533MOL0     H73535   3.719   9.890   3.229 -0.7459  0.0700  0.1308
  533MOL0     H73536   3.336   9.579   3.258  0.6455 -0.1662 -0.8633
  533MOL0     H73537   3.097   9.584   3.189  1.6887  0.7024  1.4811
  533MOL0     H73538   2.288  10.881   3.671 -3.2585  0.4906  0.5596
  533MOL0     H73539   2.048  10.928   3.593 -0.1924  1.0339 -1.0453
  533MOL0     H73540   1.682  10.716   3.492 -0.4921 -0.9928  0.4992
  533MOL0     H73541   1.428  10.728   3.464 -3.6271  1.7996 -1.0277
  533MOL0     H73542   1.273  10.770   3.227  0.2690  0.6050 -0.8435
  533MOL0     H73543   1.210  10.737   3.392 -2.2319  0.8382  1.4955
  533MOL0     H73544   1.010  10.794   3.264  0.4310 -0.7335 -1.0533
  533MOL0     H73545   1.090  10.929   3.199  0.9654 -2.1026 -0.1659
  533MOL0     H73546   1.054  10.915   3.505  0.6645 -0.8275  0.9548
  533MOL0     H73547   1.089  11.053   3.401  0.6348 -0.5144 -2.8176
  533MOL0     H73548   0.883  11.082   3.320  2.4842  1.6080  0.6611
  533MOL0     H73549   0.864  11.070   3.493  2.0001 -0.0077  1.1444
  533MOL0     H73550   0.641  10.756   3.305 -0.1558  0.4563  0.1657
  533MOL0     H73551   1.443  11.110   3.300  0.5421 -0.0556  0.3481
  533MOL0     H73552   1.764  11.200   3.331 -2.0701  0.5945  1.6639
  533MOL0     H73553   1.770  11.121   3.170  0.8619 -0.7489  1.0492
  533MOL0     H73554   1.632  11.209   3.211 -0.1209 -1.0331 -0.7960
  534MOL0     O73555  11.166   2.623   8.125 -0.0420  0.1528 -0.5967
  534MOL0     C73556  11.055   2.588   8.098  0.0986  0.2522 -0.7313
  534MOL0     O73557  11.019   2.555   7.968 -0.0237  0.4872 -0.1220
  534MOL0     C73558  11.111   2.567   7.869 -0.0774  0.4996 -0.5681
  534MOL0     C73559  11.223   2.476   7.856  0.3706  0.1570 -0.1615
  534MOL0     C73560  11.314   2.494   7.758 -0.4706 -0.4811  0.0873
  534MOL0     C73561  11.299   2.603   7.666  0.3196  0.0486 -0.4808
  534MOL0     O73562  11.402   2.591   7.569  0.0298 -0.3682 -0.2393
  534MOL0     C73563  11.405   2.683   7.461  0.8378 -0.4265  0.0825
  534MOL0     C73564  11.512   2.782   7.486 -0.3887  0.7111  0.4762
  534MOL0     C73565  11.651   2.734   7.457 -0.2385 -1.2317 -0.6606
  534MOL0     C73566  11.689   2.597   7.506 -0.1067 -0.4737  0.3974
  534MOL0     C73567  11.844   2.575   7.516  0.7570 -0.5757 -0.7129
  534MOL0     C73568  11.910   2.601   7.380 -0.7511  0.4031  0.0399
  534MOL0     C73569  12.064   2.549   7.369  0.5646 -1.4556 -0.3142
  534MOL0     C73570  12.078   2.392   7.366  0.5447 -0.8174  0.0490
  534MOL0     N73571  12.211   2.341   7.322  0.0965  0.4283  0.2993
  534MOL0     C73572  12.280   2.388   7.218  0.0053 -1.5520 -0.2049
  534MOL0     C73573  12.393   2.323   7.214  0.4289  1.1906  0.6221
  534MOL0     C73574  12.494   2.333   7.116 -0.3340 -0.0901  0.0821
  534MOL0     C73575  12.567   2.468   7.134 -1.0583 -0.0856 -0.5642
  534MOL0     C73576  12.661   2.460   7.257  0.9978 -0.1046  0.1967
  534MOL0     C73577  12.743   2.579   7.292 -0.2050  0.7831  0.5317
  534MOL0     O73578  12.871   2.595   7.226  0.2406 -0.4011 -0.3190
  534MOL0     C73579  12.973   2.644   7.302  0.6185 -0.1490 -0.4991
  534MOL0     C73580  12.950   2.759   7.384  1.2881  0.0869 -0.1233
  534MOL0     C73581  13.051   2.808   7.461  0.1073 -0.4687  0.4383
  534MOL0     C73582  13.016   2.920   7.554  0.2411 -0.6042  0.0243
  534MOL0     C73583  13.189   2.749   7.461 -0.0474 -0.2906 -0.1370
  534MOL0     C73584  13.297   2.798   7.542 -0.4204  1.6827 -0.2223
  534MOL0     O73585  13.369   2.698   7.594  0.5095  0.5127 -0.3364
  534MOL0     C73586  13.467   2.735   7.674 -0.9449 -0.0800 -0.1803
  534MOL0     C73587  13.488   2.666   7.794  1.1933 -0.1647 -0.5182
  534MOL0     C73588  13.592   2.700   7.885 -0.0307 -0.0711  0.2227
  534MOL0     C73589  13.680   2.804   7.860 -0.6665 -1.2680  0.0678
  534MOL0     O73590  13.771   2.832   7.961 -0.8980  0.2196 -0.6054
  534MOL0     C73591  13.841   2.955   7.955 -0.3605 -0.0436 -0.4571
  534MOL0     C73592  13.919   2.969   8.085 -0.3307  0.3346 -0.4393
  534MOL0     C73593  14.003   2.844   8.094 -0.3826 -0.6681 -0.6255
  534MOL0     C73594  14.136   2.857   8.164 -0.5990  0.3670  0.0321
  534MOL0     C73595  14.224   2.947   8.085  0.5473  0.4107 -0.1376
  534MOL0     C73596  14.366   2.942   8.122 -0.0219 -0.2259 -0.5482
  534MOL0     C73597  14.445   3.056   8.055  0.1366 -0.1309 -0.4483
  534MOL0     C73598  14.596   3.046   8.059 -0.5163 -0.7148 -0.8914
  534MOL0    Cl73599  14.663   3.005   8.220 -0.0380  0.3883  0.1085
  534MOL0     C73600  13.673   2.875   7.737 -0.6055  0.2211 -1.0112
  534MOL0     C73601  13.565   2.837   7.647 -0.9597 -0.1953  0.1303
  534MOL0     O73602  13.313   2.920   7.548 -0.1102  0.9128  0.2665
  534MOL0     C73603  13.204   2.635   7.388 -0.7365  0.4657 -0.0672
  534MOL0     C73604  13.099   2.575   7.309 -0.1861 -0.1850 -0.2394
  534MOL0     N73605  12.406   2.241   7.321  0.2044 -0.2018  0.1336
  534MOL0     N73606  12.292   2.247   7.387  0.1141  0.0396  0.1252
  534MOL0     C73607  11.189   2.698   7.676 -0.3006 -0.8743  0.0110
  534MOL0     C73608  11.102   2.680   7.784  0.8466 -0.5533 -0.6153
  534MOL0     C73609  10.951   2.598   8.211  0.0193  0.4569 -0.7804
  534MOL0     C73610  10.996   2.571   8.340  0.3866 -0.9366 -0.1534
  534MOL0     C73611  10.909   2.563   8.445  0.9983  0.2356 -0.2009
  534MOL0     C73612  10.767   2.578   8.427 -0.8569  0.3949 -0.4108
  534MOL0     O73613  10.691   2.558   8.538 -0.2269 -0.4818  0.5438
  534MOL0     C73614  10.550   2.587   8.531  0.3753  0.7094  0.0436
  534MOL0     C73615  10.488   2.592   8.675 -1.0497  0.7807  0.0797
  534MOL0     C73616  10.340   2.567   8.671  0.6877 -0.3065 -0.1146
  534MOL0     C73617  10.282   2.597   8.804 -0.2485  0.3110  0.1787
  534MOL0     C73618  10.141   2.576   8.811  0.2627 -0.2629  0.0984
  534MOL0     C73619  10.020   2.563   8.791 -1.1581 -0.6314  0.4439
  534MOL0     C73620  10.723   2.597   8.294  0.4080 -0.2235 -0.1161
  534MOL0     C73621  10.810   2.620   8.194  0.8960  0.6597 -0.3830
  534MOL0     C73622  10.747   2.635   8.061  0.2806  0.1828  0.1582
  534MOL0     H73623  11.214   2.400   7.933 -4.2112  0.4747 -0.0524
  534MOL0     H73624  11.400   2.428   7.755  0.3699  0.4563  2.0055
  534MOL0     H73625  11.306   2.724   7.444 -0.3526 -2.6262  1.2626
  534MOL0     H73626  11.427   2.621   7.373  3.5441  1.9449 -1.0784
  534MOL0     H73627  11.503   2.852   7.402 -1.3707 -1.2689 -1.1605
  534MOL0     H73628  11.505   2.826   7.586 -1.5770 -2.2742  1.8461
  534MOL0     H73629  11.679   2.731   7.352  1.9963 -2.3310 -0.1072
  534MOL0     H73630  11.721   2.796   7.515 -1.7473 -2.0855  2.2875
  534MOL0     H73631  11.647   2.587   7.607  1.5499 -0.0927  1.1498
  534MOL0     H73632  11.640   2.524   7.441  0.7118 -0.1357 -0.6115
  534MOL0     H73633  11.857   2.474   7.556  0.3745 -0.1607  0.4993
  534MOL0     H73634  11.868   2.655   7.586  0.3890 -2.0592  1.2059
  534MOL0     H73635  11.846   2.549   7.308  1.3012 -1.3886 -0.6181
  534MOL0     H73636  11.917   2.707   7.356  0.4018  0.4595  0.5810
  534MOL0     H73637  12.117   2.594   7.453 -2.7330  0.8464  0.7114
  534MOL0     H73638  12.105   2.591   7.277 -0.5447  0.7013  0.1246
  534MOL0     H73639  12.053   2.353   7.465  0.1736  0.6721  0.5656
  534MOL0     H73640  12.018   2.345   7.288 -0.4853 -1.3684  1.1494
  534MOL0     H73641  12.246   2.461   7.145  0.9106 -1.3069 -0.3904
  534MOL0     H73642  12.465   2.312   7.013  0.4937 -1.1615  0.0501
  534MOL0     H73643  12.574   2.263   7.141 -0.5706 -0.8592 -1.2457
  534MOL0     H73644  12.628   2.495   7.047  1.3603 -1.0874  0.7324
  534MOL0     H73645  12.498   2.553   7.144  0.3821  1.6503 -3.8699
  534MOL0     H73646  12.589   2.453   7.339  3.3699  1.2507  2.5190
  534MOL0     H73647  12.715   2.366   7.256  0.1138 -0.7047  2.6690
  534MOL0     H73648  12.683   2.669   7.275  0.0433  1.2177  1.7880
  534MOL0     H73649  12.760   2.576   7.400 -0.8104 -0.4795  0.6114
  534MOL0     H73650  12.861   2.817   7.407  1.7044  0.3523  0.8829
  534MOL0     H73651  12.909   2.929   7.571  0.5714  0.9299  1.5555
  534MOL0     H73652  13.057   3.018   7.525  0.3748 -0.1226  1.7099
  534MOL0     H73653  13.069   2.899   7.647  0.1361 -2.2344 -0.2611
  534MOL0     H73654  13.413   2.592   7.822  1.5009  0.2413  1.5023
  534MOL0     H73655  13.621   2.652   7.978  0.3112  0.6053  0.4765
  534MOL0     H73656  13.914   2.963   7.874 -0.5636  0.7052 -0.5692
  534MOL0     H73657  13.774   3.042   7.957  1.1217  1.1185  1.3831
  534MOL0     H73658  13.973   3.062   8.107 -2.0013  1.4988 -1.0708
  534MOL0     H73659  13.857   2.951   8.173 -1.9938  1.2905 -1.3564
  534MOL0     H73660  14.027   2.820   7.990  0.9334  0.6191 -0.6554
  534MOL0     H73661  13.956   2.760   8.145  2.2886 -2.8344 -1.4739
  534MOL0     H73662  14.174   2.755   8.174 -0.3065  0.6074  1.7112
  534MOL0     H73663  14.118   2.889   8.267 -3.1295 -0.8930  0.0645
  534MOL0     H73664  14.221   2.915   7.981  1.4059 -0.0712 -0.0196
  534MOL0     H73665  14.185   3.049   8.092  0.1042  0.3296 -1.2785
  534MOL0     H73666  14.416   2.848   8.101  0.8340  0.4453 -1.5876
  534MOL0     H73667  14.366   2.964   8.230  1.8116 -0.2251 -0.5186
  534MOL0     H73668  14.434   3.158   8.094 -2.6889 -0.5741  0.0957
  534MOL0     H73669  14.424   3.058   7.947  0.4090  1.4429 -0.4977
  534MOL0     H73670  14.646   3.139   8.030 -1.9056  1.1268  2.1000
  534MOL0     H73671  14.625   2.966   7.991  0.3147 -0.2254 -1.1326
  534MOL0     H73672  13.732   2.964   7.713  0.5117 -0.7432 -1.9814
  534MOL0     H73673  13.551   2.893   7.555 -2.0469 -0.8423 -0.1226
  534MOL0     H73674  13.296   2.578   7.390 -1.0657 -0.0672  0.2430
  534MOL0     H73675  13.114   2.481   7.257 -2.3448 -0.0784 -1.1299
  534MOL0     H73676  11.165   2.782   7.612 -0.8113 -0.1130  1.1608
  534MOL0     H73677  11.012   2.741   7.791  1.8998  0.8936  2.1445
  534MOL0     H73678  11.103   2.554   8.351  0.9996  1.9526 -0.8675
  534MOL0     H73679  10.947   2.549   8.545  2.2141 -0.5792 -0.7624
  534MOL0     H73680  10.532   2.673   8.466  1.4798  0.6725 -0.3290
  534MOL0     H73681  10.504   2.498   8.486  0.6151 -1.3615  3.5013
  534MOL0     H73682  10.510   2.687   8.726 -0.7851  0.8912 -0.2350
  534MOL0     H73683  10.540   2.508   8.724 -1.1523  1.5442  1.5664
  534MOL0     H73684  10.295   2.630   8.593 -2.5016 -0.4833  1.4438
  534MOL0     H73685  10.322   2.463   8.646  1.4104 -0.2464 -0.9362
  534MOL0     H73686  10.321   2.689   8.848 -2.0123 -0.3803  3.5513
  534MOL0     H73687  10.317   2.516   8.869 -0.0684 -0.5888 -1.0123
  534MOL0     H73688   9.918   2.541   8.765 -1.6188  0.5710  1.1215
  534MOL0     H73689  10.615   2.587   8.281  0.3204  2.3300 -2.0295
  534MOL0     H73690  10.817   2.693   8.000  1.9886 -1.4968  0.4177
  534MOL0     H73691  10.723   2.544   8.006 -2.7339  0.7991  0.3153
  534MOL0     H73692  10.646   2.674   8.071  0.3368  1.0951 -2.2269
  535MOL0     O73693   3.902   7.245   1.927  0.5614  0.4248  0.4759
  535MOL0     C73694   3.815   7.253   1.838  0.0967 -0.4471 -0.1334
  535MOL0     O73695   3.818   7.329   1.723  0.2337  0.0376 -0.3407
  535MOL0     C73696   3.932   7.398   1.697  0.1295  0.4991  0.9586
  535MOL0     C73697   4.037   7.348   1.619 -0.1494 -0.7442 -0.4272
  535MOL0     C73698   4.159   7.417   1.610  0.0917  0.0205  0.3729
  535MOL0     C73699   4.183   7.540   1.681  0.0631 -1.4058  0.2550
  535MOL0     O73700   4.306   7.600   1.681  0.2291 -0.0929 -0.4452
  535MOL0     C73701   4.342   7.716   1.766 -0.0339  0.0402 -0.1848
  535MOL0     C73702   4.495   7.715   1.808  0.8039 -0.0735  0.5747
  535MOL0     C73703   4.531   7.594   1.893  0.0635  0.7387 -0.3238
  535MOL0     C73704   4.652   7.524   1.825  0.1232  0.1737  1.1940
  535MOL0     C73705   4.682   7.388   1.886  0.6028  0.0381  0.3296
  535MOL0     C73706   4.813   7.317   1.835 -0.2694 -0.7060 -0.0656
  535MOL0     C73707   4.840   7.181   1.910  0.2232 -1.0197 -0.1819
  535MOL0     C73708   4.926   7.098   1.823 -0.1541 -0.1139  0.1835
  535MOL0     N73709   5.056   7.146   1.814  0.2234 -0.4377 -0.2830
  535MOL0     C73710   5.151   7.161   1.913  0.6689  0.3555 -1.1397
  535MOL0     C73711   5.252   7.230   1.858 -0.1855 -0.3089  0.2976
  535MOL0     C73712   5.374   7.275   1.934 -0.0493 -0.2681  0.6197
  535MOL0     C73713   5.416   7.424   1.923  0.9366 -0.2820 -0.5356
  535MOL0     C73714   5.309   7.539   1.956 -0.2290 -0.2993 -0.3912
  535MOL0     C73715   5.264   7.548   2.105  0.3525  0.2223 -0.0163
  535MOL0     O73716   5.374   7.554   2.199 -0.2146  0.5970 -0.1598
  535MOL0     C73717   5.422   7.681   2.230  0.5365  0.8669  1.4197
  535MOL0     C73718   5.550   7.689   2.265  0.1011 -0.1131  1.0826
  535MOL0     C73719   5.617   7.802   2.301 -0.0284  0.0883  0.2268
  535MOL0     C73720   5.761   7.788   2.324 -0.4428 -0.1587 -0.0248
  535MOL0     C73721   5.543   7.923   2.310  0.4506  0.4431 -0.4073
  535MOL0     C73722   5.606   8.042   2.363  0.7531  0.2329  0.2150
  535MOL0     O73723   5.725   8.073   2.302  0.2840 -0.2503 -0.6837
  535MOL0     C73724   5.773   8.197   2.305  0.0412 -0.5068 -0.9636
  535MOL0     C73725   5.730   8.301   2.224 -0.6181  0.0449  0.3028
  535MOL0     C73726   5.791   8.426   2.241  0.1290 -0.1172  0.6238
  535MOL0     C73727   5.888   8.453   2.334  1.0810 -0.1137  0.4493
  535MOL0     O73728   5.956   8.571   2.344 -0.4363 -0.8199  0.6846
  535MOL0     C73729   5.958   8.663   2.236  0.0178  0.5543 -0.1658
  535MOL0     C73730   6.036   8.789   2.277 -0.1606 -0.0045  0.2818
  535MOL0     C73731   6.083   8.867   2.152  0.5049 -0.5091 -0.9807
  535MOL0     C73732   6.128   9.006   2.166 -0.6670 -0.5125  0.1156
  535MOL0     C73733   6.265   9.027   2.239 -0.2245 -1.6071  0.1444
  535MOL0     C73734   6.252   9.129   2.347 -0.3908  0.1708  0.5432
  535MOL0     C73735   6.377   9.156   2.430 -0.8709  0.6424  0.2600
  535MOL0     C73736   6.388   9.038   2.535 -0.3180 -0.8513 -0.6804
  535MOL0    Cl73737   6.287   9.073   2.681  0.2199 -0.0468  0.3091
  535MOL0     C73738   5.927   8.348   2.414  0.9517 -0.8025 -0.8194
  535MOL0     C73739   5.858   8.229   2.417  0.1173  0.0567  0.6034
  535MOL0     O73740   5.531   8.110   2.443 -0.7661  0.6425 -0.0431
  535MOL0     C73741   5.405   7.913   2.287 -0.6679 -0.0452 -0.3869
  535MOL0     C73742   5.339   7.798   2.254 -1.1436  0.6232 -0.8658
  535MOL0     N73743   5.226   7.252   1.723  0.1540  0.1805  0.0238
  535MOL0     N73744   5.109   7.195   1.700  0.5495 -0.1528  0.3366
  535MOL0     C73745   4.070   7.598   1.742  0.9182 -0.4553  0.2045
  535MOL0     C73746   3.947   7.526   1.752  0.1032  0.9225  0.1361
  535MOL0     C73747   3.682   7.202   1.866 -0.4801  0.7004  0.7052
  535MOL0     C73748   3.567   7.265   1.810 -0.0488 -0.5876 -0.5096
  535MOL0     C73749   3.440   7.220   1.843 -0.3904 -0.0507  0.3998
  535MOL0     C73750   3.420   7.121   1.933  0.1900 -0.2754  1.2216
  535MOL0     O73751   3.294   7.078   1.970 -0.2486 -0.0823 -0.6335
  535MOL0     C73752   3.174   7.143   1.928  0.2198  0.3745  0.0829
  535MOL0     C73753   3.075   7.027   1.962  1.6233 -0.7947 -0.1118
  535MOL0     C73754   2.939   7.077   1.913  0.1511 -0.3850  0.5758
  535MOL0     C73755   2.844   7.131   2.025 -0.0994 -0.0165  1.6058
  535MOL0     C73756   2.729   7.215   1.976 -0.2708  0.4358  0.3914
  535MOL0     C73757   2.637   7.291   1.955  0.3100  0.7529  0.6867
  535MOL0     C73758   3.531   7.048   1.973  0.5833 -0.8473 -0.3689
  535MOL0     C73759   3.660   7.082   1.939 -0.2460 -1.1827 -0.3134
  535MOL0     C73760   3.774   7.018   2.007  1.2492  0.1111  0.8173
  535MOL0     H73761   4.034   7.251   1.571 -2.5539 -1.2345  0.5407
  535MOL0     H73762   4.234   7.361   1.555 -0.0795 -0.3202  0.4825
  535MOL0     H73763   4.285   7.731   1.858  1.9693  1.2432  0.9345
  535MOL0     H73764   4.319   7.807   1.710  1.6231  0.2268 -0.6124
  535MOL0     H73765   4.546   7.733   1.713 -1.1614  1.5635 -0.2524
  535MOL0     H73766   4.517   7.808   1.861  0.6467  0.4766 -0.2933
  535MOL0     H73767   4.554   7.620   1.997  2.2167  0.3580 -0.6535
  535MOL0     H73768   4.442   7.530   1.894  0.9840 -0.5768 -0.0033
  535MOL0     H73769   4.637   7.521   1.717 -1.4221  0.6888  1.3746
  535MOL0     H73770   4.744   7.583   1.834 -1.5630  2.9090  1.5695
  535MOL0     H73771   4.598   7.323   1.860  0.7772  0.3523 -1.0882
  535MOL0     H73772   4.687   7.396   1.995 -2.3920 -0.9361  0.6484
  535MOL0     H73773   4.805   7.290   1.729  1.8739  1.7664 -0.9481
  535MOL0     H73774   4.893   7.388   1.852 -0.1682 -1.1721  1.5772
  535MOL0     H73775   4.747   7.129   1.938 -2.3873  3.2194 -0.1649
  535MOL0     H73776   4.889   7.197   2.006  0.7571 -1.5205 -0.3659
  535MOL0     H73777   4.934   7.002   1.875  5.4156 -0.0677 -0.0752
  535MOL0     H73778   4.892   7.091   1.719 -0.0119  3.3523 -0.2119
  535MOL0     H73779   5.148   7.130   2.017  2.1118 -1.2323 -1.5164
  535MOL0     H73780   5.455   7.213   1.896 -1.4365 -0.8953 -1.5039
  535MOL0     H73781   5.359   7.261   2.041 -0.9341  1.3986  0.7619
  535MOL0     H73782   5.504   7.445   1.985  0.9242  1.4305 -1.0629
  535MOL0     H73783   5.433   7.445   1.818 -0.8329  0.4955 -0.7123
  535MOL0     H73784   5.365   7.627   1.923  1.1387 -0.6821  0.7964
  535MOL0     H73785   5.220   7.530   1.894 -1.1829  1.7245  0.6099
  535MOL0     H73786   5.191   7.626   2.125 -0.0144 -0.6564  2.3178
  535MOL0     H73787   5.205   7.456   2.111  1.8574 -0.7067  1.1625
  535MOL0     H73788   5.607   7.599   2.246 -0.1879  0.0286 -0.6328
  535MOL0     H73789   5.809   7.849   2.247 -2.5411  0.2968 -1.0140
  535MOL0     H73790   5.799   7.685   2.330 -0.4729 -0.0825  2.7001
  535MOL0     H73791   5.788   7.821   2.425  0.0495  3.2241 -1.1191
  535MOL0     H73792   5.659   8.283   2.143  0.2857  2.5341 -1.1863
  535MOL0     H73793   5.752   8.510   2.184 -4.0370 -0.4448  2.6252
  535MOL0     H73794   6.010   8.605   2.159  0.0314  0.8093 -0.3503
  535MOL0     H73795   5.857   8.695   2.210  0.9880  4.3428  0.0997
  535MOL0     H73796   5.981   8.851   2.349  2.0154  1.9252  0.4109
  535MOL0     H73797   6.125   8.752   2.329 -0.7401 -3.0575 -0.7084
  535MOL0     H73798   5.992   8.869   2.093 -0.8187 -2.9556  0.8282
  535MOL0     H73799   6.167   8.816   2.104 -0.4710 -1.0347 -2.1444
  535MOL0     H73800   6.049   9.069   2.208  1.3888  1.4852  1.2416
  535MOL0     H73801   6.142   9.053   2.069  1.0364  1.9508  1.4344
  535MOL0     H73802   6.290   8.929   2.281 -0.1987 -2.2740 -1.3530
  535MOL0     H73803   6.343   9.049   2.165  0.0003 -2.1901  0.2026
  535MOL0     H73804   6.174   9.094   2.415 -1.2291 -0.4362 -0.6762
  535MOL0     H73805   6.209   9.221   2.306  0.9732  0.7284  0.3259
  535MOL0     H73806   6.369   9.252   2.481  3.0824  0.1225  2.2853
  535MOL0     H73807   6.469   9.152   2.371 -0.7166  1.6832  0.4195
  535MOL0     H73808   6.492   9.050   2.568  0.2395 -0.6139 -2.3861
  535MOL0     H73809   6.365   8.938   2.496 -2.0892 -1.5520  1.9581
  535MOL0     H73810   6.003   8.368   2.490  0.2798  0.5871 -0.4939
  535MOL0     H73811   5.886   8.149   2.485  0.4797 -1.3046 -1.0820
  535MOL0     H73812   5.335   7.993   2.311 -0.8584 -0.3013 -0.0779
  535MOL0     H73813   5.231   7.788   2.248 -1.0133 -1.1208 -0.8036
  535MOL0     H73814   4.074   7.697   1.787  2.1019  0.3093 -1.5014
  535MOL0     H73815   3.867   7.574   1.807 -1.7133  1.0816 -2.4765
  535MOL0     H73816   3.565   7.349   1.742  1.4411 -0.2161 -0.1406
  535MOL0     H73817   3.353   7.268   1.798 -0.3356 -1.0936 -0.8814
  535MOL0     H73818   3.160   7.230   1.992  2.6810 -0.3471  1.7475
  535MOL0     H73819   3.172   7.180   1.824  0.8248  0.8305  0.2268
  535MOL0     H73820   3.066   7.014   2.070  0.6117 -0.4880 -0.1446
  535MOL0     H73821   3.104   6.938   1.907  0.5762 -0.2243 -1.6760
  535MOL0     H73822   2.949   7.155   1.836 -0.7652 -1.4178 -0.6400
  535MOL0     H73823   2.892   6.996   1.857  3.0453 -1.8502  0.1052
  535MOL0     H73824   2.898   7.186   2.102  2.2653 -1.6296  1.1885
  535MOL0     H73825   2.800   7.042   2.072  0.6099 -0.9159  0.6006
  535MOL0     H73826   2.549   7.353   1.957 -1.1439 -1.2230  0.9693
  535MOL0     H73827   3.517   6.962   2.037  3.5604 -1.0033  0.1945
  535MOL0     H73828   3.760   6.911   2.025  2.8794 -0.5477 -1.4009
  535MOL0     H73829   3.863   7.022   1.944 -0.0850 -1.8712 -1.4268
  535MOL0     H73830   3.795   7.068   2.101  2.1788  1.7802 -0.2311
  536MOL0     O73831   5.726   2.910   2.086 -0.3989  0.3616  0.7702
  536MOL0     C73832   5.758   3.016   2.126  0.6206 -0.5281 -0.1154
  536MOL0     O73833   5.683   3.114   2.193 -0.0678 -0.7216 -0.4381
  536MOL0     C73834   5.559   3.078   2.239  0.0575  0.0246  0.7156
  536MOL0     C73835   5.524   3.099   2.378  0.6102  0.4466 -0.0289
  536MOL0     C73836   5.387   3.111   2.409 -0.0263 -1.0095 -0.0485
  536MOL0     C73837   5.284   3.093   2.314 -0.1965 -0.1267 -0.2754
  536MOL0     O73838   5.152   3.089   2.347  0.0554  0.4071 -0.2077
  536MOL0     C73839   5.117   3.115   2.490 -0.0186  0.6781 -0.6675
  536MOL0     C73840   4.968   3.086   2.504  0.3240 -0.3575 -0.6504
  536MOL0     C73841   4.931   2.935   2.516  0.1874 -1.0186 -0.2836
  536MOL0     C73842   4.986   2.875   2.640  0.1645  0.1405 -0.6326
  536MOL0     C73843   4.946   2.730   2.666 -0.7444 -0.5880 -0.2622
  536MOL0     C73844   4.992   2.684   2.808 -0.1590  0.6025  0.1192
  536MOL0     C73845   4.978   2.526   2.824 -0.4834  0.1346 -0.9406
  536MOL0     C73846   4.841   2.475   2.871  1.1518 -0.2937 -0.2101
  536MOL0     N73847   4.818   2.534   3.007  0.2663  0.1773  0.6243
  536MOL0     C73848   4.885   2.497   3.115  1.0773 -0.0752 -0.5997
  536MOL0     C73849   4.828   2.581   3.218 -0.0785  0.0151  0.8083
  536MOL0     C73850   4.858   2.574   3.370  0.2079 -0.3667 -0.4454
  536MOL0     C73851   4.759   2.658   3.456  0.4110  0.0219 -0.2342
  536MOL0     C73852   4.761   2.621   3.614  0.5171  0.0962  0.0132
  536MOL0     C73853   4.902   2.609   3.673 -0.5050  0.6225 -0.5459
  536MOL0     O73854   4.906   2.599   3.816  0.2478 -0.2499  0.0969
  536MOL0     C73855   5.025   2.585   3.872  0.3232 -0.0122  0.1412
  536MOL0     C73856   5.014   2.577   4.010  0.0126 -1.0525  0.1858
  536MOL0     C73857   5.137   2.575   4.089  0.4873 -0.4222  0.1683
  536MOL0     C73858   5.122   2.547   4.231 -0.9182 -0.7965 -0.9081
  536MOL0     C73859   5.265   2.578   4.026  0.1453  0.5863 -1.5040
  536MOL0     C73860   5.398   2.602   4.095  0.0376  0.6517  0.5408
  536MOL0     O73861   5.398   2.672   4.205  1.0582 -0.1046  0.6179
  536MOL0     C73862   5.510   2.666   4.280 -0.6111  0.1741 -0.1412
  536MOL0     C73863   5.602   2.768   4.275 -0.1373  0.3232  0.1593
  536MOL0     C73864   5.716   2.752   4.348 -0.7699  0.3241 -0.6563
  536MOL0     C73865   5.751   2.638   4.414  0.1269  0.3933  0.1416
  536MOL0     O73866   5.877   2.629   4.460  0.1750 -0.0260  0.0504
  536MOL0     C73867   5.921   2.529   4.543 -0.4552  0.3997  0.8620
  536MOL0     C73868   6.077   2.542   4.563  0.4547 -0.3242 -0.8112
  536MOL0     C73869   6.122   2.678   4.631  0.1839 -0.4052 -0.0740
  536MOL0     C73870   6.200   2.665   4.765  0.2593  0.1756  0.4818
  536MOL0     C73871   6.281   2.781   4.816  0.0284  0.3004  0.5921
  536MOL0     C73872   6.370   2.730   4.927  0.5835 -0.9476 -0.4063
  536MOL0     C73873   6.441   2.847   5.006 -0.5212  1.2963  1.3351
  536MOL0     C73874   6.511   2.779   5.122  0.5511  0.2462  0.0827
  536MOL0    Cl73875   6.622   2.647   5.062  0.0231 -0.3784  0.3347
  536MOL0     C73876   5.656   2.533   4.420 -0.1839  0.4696 -0.7233
  536MOL0     C73877   5.540   2.545   4.346  0.8681  0.0319  0.3327
  536MOL0     O73878   5.501   2.547   4.055  0.1153  0.1844  0.1728
  536MOL0     C73879   5.269   2.570   3.888  0.7183 -0.5456  0.7141
  536MOL0     C73880   5.150   2.577   3.811  0.5391  0.1564  0.0646
  536MOL0     N73881   4.740   2.666   3.147 -0.1047  0.2574  0.3691
  536MOL0     N73882   4.733   2.638   3.028  0.6531 -0.3099 -0.7987
  536MOL0     C73883   5.313   3.070   2.183 -1.0375  0.4697  0.1206
  536MOL0     C73884   5.453   3.063   2.145 -0.1291  0.4660 -0.6068
  536MOL0     C73885   5.899   3.063   2.098  0.4542  0.1515 -0.1402
  536MOL0     C73886   5.925   3.206   2.083 -1.0044  0.3304  0.3151
  536MOL0     C73887   6.055   3.252   2.059 -0.8112 -0.1342  0.4604
  536MOL0     C73888   6.167   3.169   2.074 -0.7817 -1.7924 -0.0369
  536MOL0     O73889   6.293   3.207   2.035  0.0727 -0.1199 -0.2063
  536MOL0     C73890   6.397   3.181   2.132  0.5695  0.2099  0.4771
  536MOL0     C73891   6.405   3.284   2.248  0.8666 -0.4869  0.5746
  536MOL0     C73892   6.410   3.428   2.191  0.0187 -0.6808  0.3942
  536MOL0     C73893   6.474   3.525   2.298  0.4580 -0.1473  0.7361
  536MOL0     C73894   6.615   3.498   2.302 -1.0264  0.4302  0.1372
  536MOL0     C73895   6.736   3.467   2.315  0.0003  0.5335 -0.2910
  536MOL0     C73896   6.146   3.033   2.093 -0.6678  0.1821 -0.6777
  536MOL0     C73897   6.017   2.976   2.096 -0.2143  0.3366  0.0532
  536MOL0     C73898   6.006   2.829   2.098 -1.0482  0.8420 -0.1752
  536MOL0     H73899   5.597   3.107   2.458  1.9028 -0.8180 -1.0315
  536MOL0     H73900   5.367   3.136   2.513 -0.3661 -0.9840 -0.1157
  536MOL0     H73901   5.141   3.220   2.507  1.3199  0.4053 -0.7673
  536MOL0     H73902   5.173   3.055   2.563 -0.6630 -0.6808 -1.2516
  536MOL0     H73903   4.935   3.137   2.595 -2.2752 -2.5756 -0.2250
  536MOL0     H73904   4.908   3.114   2.417 -1.5570 -2.2007 -0.0160
  536MOL0     H73905   4.822   2.934   2.525  0.3235 -2.9076  2.1000
  536MOL0     H73906   4.956   2.890   2.419 -0.0859 -2.0100  0.1013
  536MOL0     H73907   5.093   2.864   2.620  0.2405  1.4154 -0.9590
  536MOL0     H73908   4.956   2.936   2.726 -1.5697  0.6659 -1.5666
  536MOL0     H73909   4.979   2.657   2.591 -4.7657 -1.2484 -1.6426
  536MOL0     H73910   4.837   2.721   2.669 -1.0450  1.9880  3.8088
  536MOL0     H73911   5.095   2.718   2.820 -0.7005  2.5384 -0.4019
  536MOL0     H73912   4.931   2.745   2.875  0.2595 -0.6364  1.7109
  536MOL0     H73913   5.063   2.501   2.887 -0.4602  2.3033 -0.0216
  536MOL0     H73914   5.009   2.473   2.733 -0.5594  0.3149 -1.0722
  536MOL0     H73915   4.770   2.507   2.794 -1.6055 -0.9112  1.9433
  536MOL0     H73916   4.841   2.366   2.876  1.5654 -0.2180  3.0267
  536MOL0     H73917   4.969   2.429   3.122  3.6083  2.6476 -2.0923
  536MOL0     H73918   4.959   2.610   3.390 -0.9376  1.1931  3.1631
  536MOL0     H73919   4.863   2.471   3.406 -0.1581 -0.2044  0.0691
  536MOL0     H73920   4.789   2.763   3.449 -2.9654  1.1276  0.0769
  536MOL0     H73921   4.658   2.637   3.417 -0.7454  1.6333  1.7111
  536MOL0     H73922   4.723   2.707   3.670 -0.4469  0.0216 -0.5203
  536MOL0     H73923   4.700   2.533   3.635  1.1318 -0.3031  0.1684
  536MOL0     H73924   4.962   2.527   3.634 -1.3724  0.8546 -2.4993
  536MOL0     H73925   4.954   2.700   3.640  2.6266 -2.0788 -3.8231
  536MOL0     H73926   4.917   2.579   4.057 -0.4951  1.4260 -0.7905
  536MOL0     H73927   5.207   2.492   4.272 -0.8999 -1.1794 -1.4492
  536MOL0     H73928   5.032   2.488   4.248 -0.4272 -1.6302 -1.1430
  536MOL0     H73929   5.119   2.644   4.282 -1.2385 -0.6082 -1.2861
  536MOL0     H73930   5.580   2.864   4.231  0.0047 -0.4280 -1.6202
  536MOL0     H73931   5.795   2.827   4.342  0.6748 -1.0122  0.5843
  536MOL0     H73932   5.851   2.526   4.627 -1.2711 -0.0176  0.1853
  536MOL0     H73933   5.903   2.430   4.499 -1.9032  0.9694  0.0811
  536MOL0     H73934   6.094   2.454   4.625  0.1925 -0.3794 -0.8139
  536MOL0     H73935   6.140   2.523   4.476  1.4376  0.3937 -0.2684
  536MOL0     H73936   6.042   2.751   4.642 -1.5378 -1.5282 -3.6474
  536MOL0     H73937   6.186   2.720   4.553 -2.2752 -0.5765 -2.3176
  536MOL0     H73938   6.274   2.588   4.743  0.2688  0.2193  0.3558
  536MOL0     H73939   6.134   2.628   4.844  2.6926 -1.4956  1.8591
  536MOL0     H73940   6.342   2.830   4.739 -1.0593  0.5003 -0.1731
  536MOL0     H73941   6.208   2.856   4.848  0.4485  0.9409  0.0871
  536MOL0     H73942   6.439   2.658   4.881  1.5032 -1.1094  1.1791
  536MOL0     H73943   6.301   2.688   4.999  1.8089 -0.0303  1.3716
  536MOL0     H73944   6.359   2.916   5.028 -1.3701 -0.1073  2.7658
  536MOL0     H73945   6.519   2.896   4.946 -0.2092  1.2392  1.6909
  536MOL0     H73946   6.444   2.725   5.190 -0.3211 -2.3615 -2.5824
  536MOL0     H73947   6.564   2.863   5.166 -1.5809  0.9658  1.4538
  536MOL0     H73948   5.683   2.434   4.455  0.3691  0.6330 -0.6764
  536MOL0     H73949   5.473   2.460   4.335  4.3408 -2.6314 -3.2103
  536MOL0     H73950   5.366   2.586   3.841  0.4500  0.9376  0.6249
  536MOL0     H73951   5.161   2.584   3.703 -2.4356 -0.4748 -0.3720
  536MOL0     H73952   5.231   3.070   2.112 -1.0616  1.2080  0.1429
  536MOL0     H73953   5.473   3.055   2.039 -0.1995 -3.6340 -0.4467
  536MOL0     H73954   5.834   3.265   2.082 -1.2202  0.0171  0.8280
  536MOL0     H73955   6.069   3.358   2.037 -1.8941 -0.4949 -2.4140
  536MOL0     H73956   6.391   3.078   2.168 -0.2804 -0.0543 -0.3900
  536MOL0     H73957   6.495   3.196   2.086  1.8131  1.0540  3.1578
  536MOL0     H73958   6.497   3.260   2.302  1.1267 -2.7145 -0.7371
  536MOL0     H73959   6.319   3.274   2.315  1.4101 -1.4422  1.1503
  536MOL0     H73960   6.468   3.429   2.099 -2.4375  0.5354 -1.2395
  536MOL0     H73961   6.310   3.462   2.162  1.8462  3.4013 -2.1364
  536MOL0     H73962   6.441   3.507   2.400 -0.3985  2.1702  0.9379
  536MOL0     H73963   6.443   3.628   2.275 -0.7838  0.3193  3.9795
  536MOL0     H73964   6.842   3.450   2.324 -0.2721 -0.8367  0.7265
  536MOL0     H73965   6.238   2.975   2.087 -0.0738  1.0998 -0.4789
  536MOL0     H73966   6.100   2.775   2.114 -0.3766  1.2414 -2.4470
  536MOL0     H73967   5.940   2.808   2.183 -1.8759  0.4901 -0.8901
  536MOL0     H73968   5.981   2.796   1.997  0.8480  1.8313 -1.0034
  537MOL0     O73969   3.414   5.828   1.836  0.8712 -0.3147  0.4766
  537MOL0     C73970   3.379   5.789   1.722 -0.8631  0.2299 -0.0911
  537MOL0     O73971   3.469   5.734   1.627 -0.4224  0.0143 -0.2601
  537MOL0     C73972   3.605   5.759   1.647  0.5689  0.2311  0.8821
  537MOL0     C73973   3.682   5.842   1.568  0.9275 -0.2584 -0.3602
  537MOL0     C73974   3.813   5.869   1.608 -0.0846 -0.3976  0.4904
  537MOL0     C73975   3.882   5.807   1.710  0.5309 -0.1884 -0.4611
  537MOL0     O73976   4.013   5.810   1.741  0.2969 -0.4888  0.1337
  537MOL0     C73977   4.082   5.937   1.739 -0.3494 -0.1647  1.2729
  537MOL0     C73978   4.143   5.973   1.871  1.2869  0.4463 -0.5869
  537MOL0     C73979   4.227   6.092   1.860  0.4529 -0.0427  0.7282
  537MOL0     C73980   4.323   6.119   1.983  0.7763 -0.5097  1.2555
  537MOL0     C73981   4.381   6.256   1.975  0.1128  0.1080  0.3713
  537MOL0     C73982   4.480   6.271   2.087  0.2672 -0.1164 -0.1160
  537MOL0     C73983   4.479   6.412   2.127  0.0132 -0.6942 -0.5919
  537MOL0     C73984   4.568   6.438   2.256 -0.6265  0.9556  0.3292
  537MOL0     N73985   4.715   6.435   2.239  0.2693 -0.4538  0.0303
  537MOL0     C73986   4.781   6.481   2.127 -0.2420 -0.2985 -0.7417
  537MOL0     C73987   4.910   6.432   2.144  0.2996 -0.1734 -0.2343
  537MOL0     C73988   5.028   6.448   2.057  0.7258 -1.1081 -0.6140
  537MOL0     C73989   5.133   6.554   2.106 -0.3253 -0.1242  0.6598
  537MOL0     C73990   5.056   6.678   2.121  0.5211 -0.8432 -0.4187
  537MOL0     C73991   5.124   6.792   2.189  0.0674 -0.1623  0.4076
  537MOL0     O73992   5.038   6.905   2.205  0.4082  0.4615 -0.3155
  537MOL0     C73993   5.085   7.017   2.267 -0.0482 -0.7949  0.4494
  537MOL0     C73994   4.999   7.127   2.263  0.0307  0.4895 -0.3277
  537MOL0     C73995   5.033   7.255   2.308  0.0492  0.5894 -1.0677
  537MOL0     C73996   4.927   7.350   2.305 -0.3743  0.3365 -0.8874
  537MOL0     C73997   5.163   7.268   2.365 -0.0016 -0.2292 -0.0136
  537MOL0     C73998   5.207   7.396   2.439 -0.4898 -0.0706  0.7284
  537MOL0     O73999   5.333   7.384   2.500  0.0807  0.0656 -0.5340
  537MOL0     C74000   5.396   7.489   2.568  1.1762 -0.1743  0.1060
  537MOL0     C74001   5.510   7.460   2.632 -0.0193 -0.3315  0.0946
  537MOL0     C74002   5.586   7.557   2.683 -0.9250 -0.7505 -0.6727
  537MOL0     C74003   5.545   7.689   2.688  0.0029 -1.0588  0.2354
  537MOL0     O74004   5.635   7.786   2.743  0.5269  0.2418  0.0081
  537MOL0     C74005   5.585   7.923   2.740  0.1088  0.4469  0.9558
  537MOL0     C74006   5.690   8.023   2.802 -0.5594  0.4648  0.4456
  537MOL0     C74007   5.823   8.001   2.736 -0.3152  0.2911 -0.0005
  537MOL0     C74008   5.926   8.097   2.792  0.3531  0.3694 -0.4913
  537MOL0     C74009   6.064   8.077   2.735  0.0014 -0.0388  0.2612
  537MOL0     C74010   6.174   8.169   2.792 -0.4042 -0.2479  0.2204
  537MOL0     C74011   6.189   8.155   2.945  0.1723 -0.7472 -0.5102
  537MOL0     C74012   6.298   8.243   3.005  0.0501  0.1152 -0.0533
  537MOL0    Cl74013   6.461   8.214   2.940  0.1978  0.2025  0.1635
  537MOL0     C74014   5.423   7.721   2.633  0.4791 -0.7224  0.5697
  537MOL0     C74015   5.350   7.621   2.566  0.0584  0.1331  0.5215
  537MOL0     O74016   5.150   7.498   2.413  0.4337  0.4820  0.2373
  537MOL0     C74017   5.253   7.157   2.374  0.0745 -0.2493 -0.5041
  537MOL0     C74018   5.218   7.035   2.322 -0.0450 -1.2092  0.4144
  537MOL0     N74019   4.909   6.354   2.261  0.2072  0.1575 -0.1140
  537MOL0     N74020   4.797   6.359   2.315 -0.0379 -0.2402 -0.3464
  537MOL0     C74021   3.810   5.717   1.780 -0.4615  0.6218 -0.3787
  537MOL0     C74022   3.673   5.700   1.748 -0.3254  0.7950 -0.9384
  537MOL0     C74023   3.228   5.788   1.689 -1.3014 -0.0397 -0.4197
  537MOL0     C74024   3.193   5.726   1.565  0.0828 -0.3297  0.5315
  537MOL0     C74025   3.064   5.719   1.517  0.3172  1.1040  0.7657
  537MOL0     C74026   2.962   5.769   1.601  0.1881 -0.3172  0.3557
  537MOL0     O74027   2.830   5.766   1.555  0.3182  0.0328  0.3433
  537MOL0     C74028   2.737   5.739   1.656 -0.7894 -0.3842  0.3525
  537MOL0     C74029   2.608   5.672   1.610 -1.1315 -0.3620 -0.3500
  537MOL0     C74030   2.535   5.750   1.504  0.1618 -0.4025  0.2225
  537MOL0     C74031   2.482   5.886   1.545 -0.0626  0.8803 -0.3813
  537MOL0     C74032   2.372   5.932   1.460 -0.0724  0.0600 -0.0274
  537MOL0     C74033   2.290   5.990   1.395 -0.3906 -0.1410  0.5324
  537MOL0     C74034   2.999   5.841   1.721  0.1305  0.1695  0.0850
  537MOL0     C74035   3.130   5.838   1.775  0.8716  0.0290 -0.5725
  537MOL0     C74036   3.159   5.907   1.916  0.2156 -0.8645 -0.0309
  537MOL0     H74037   3.625   5.898   1.494 -0.5563 -2.4383 -0.9660
  537MOL0     H74038   3.861   5.942   1.545 -3.1879  1.9276  0.6196
  537MOL0     H74039   4.021   6.018   1.697  0.8040  0.6321  1.0956
  537MOL0     H74040   4.170   5.928   1.676 -0.1604  3.0240  0.9201
  537MOL0     H74041   4.063   5.998   1.942 -0.6107 -3.3313 -1.1501
  537MOL0     H74042   4.208   5.890   1.898 -0.1993 -0.2465  1.0412
  537MOL0     H74043   4.288   6.083   1.770  0.3941 -3.8431  0.9150
  537MOL0     H74044   4.164   6.181   1.855 -1.5575 -1.4120  0.4901
  537MOL0     H74045   4.262   6.121   2.075  0.1118 -1.4593  0.8585
  537MOL0     H74046   4.394   6.038   1.998  1.4033  0.0379  1.2674
  537MOL0     H74047   4.305   6.334   1.966 -1.4983 -1.2633  1.3073
  537MOL0     H74048   4.439   6.261   1.882 -1.0474 -4.0228 -0.7865
  537MOL0     H74049   4.464   6.209   2.176 -1.7678 -0.9265 -0.9911
  537MOL0     H74050   4.579   6.247   2.048  0.5333  1.7812 -0.7089
  537MOL0     H74051   4.376   6.440   2.150 -0.2215 -1.3868 -0.7620
  537MOL0     H74052   4.516   6.484   2.054 -4.1951  0.8202 -1.5091
  537MOL0     H74053   4.549   6.535   2.304 -0.7240  0.8475  0.5093
  537MOL0     H74054   4.548   6.367   2.336  2.3329 -1.5791 -0.9989
  537MOL0     H74055   4.749   6.537   2.039  0.9012  0.3202 -0.7867
  537MOL0     H74056   4.992   6.478   1.959  0.9129 -1.3225 -0.7482
  537MOL0     H74057   5.081   6.353   2.051 -0.1465 -1.6061 -0.6019
  537MOL0     H74058   5.169   6.527   2.206  0.4541  0.6414  0.5994
  537MOL0     H74059   5.216   6.564   2.035 -0.5184  0.3804  0.5003
  537MOL0     H74060   5.015   6.700   2.022  1.5030 -1.0684 -0.8829
  537MOL0     H74061   4.972   6.660   2.189  0.3909  3.8231  0.9866
  537MOL0     H74062   5.167   6.767   2.287 -3.7859 -1.5256  1.9277
  537MOL0     H74063   5.210   6.816   2.126  0.5209 -1.3983  0.5296
  537MOL0     H74064   4.902   7.096   2.226  0.2817  0.6825 -1.1719
  537MOL0     H74065   4.835   7.297   2.282 -0.0108  0.7843 -3.8492
  537MOL0     H74066   4.943   7.425   2.226 -1.1886  1.2299 -0.2169
  537MOL0     H74067   4.920   7.403   2.400  1.7853 -0.7058 -0.0790
  537MOL0     H74068   5.554   7.360   2.633  2.1073  0.5607 -0.1925
  537MOL0     H74069   5.679   7.545   2.739 -2.5459 -1.6089  2.0491
  537MOL0     H74070   5.559   7.946   2.637 -0.0119 -3.8606 -0.1746
  537MOL0     H74071   5.491   7.931   2.796  1.2869  1.7378  2.8675
  537MOL0     H74072   5.656   8.127   2.802 -1.7615  0.3347  5.3891
  537MOL0     H74073   5.695   8.002   2.909  1.5640  1.9647  0.7080
  537MOL0     H74074   5.828   8.014   2.628  1.6208 -0.9406 -0.1172
  537MOL0     H74075   5.874   7.906   2.758  3.0290  2.3852  2.1976
  537MOL0     H74076   5.925   8.087   2.900  1.6129 -1.9318 -0.6206
  537MOL0     H74077   5.900   8.200   2.764  0.7985  1.6114  3.1915
  537MOL0     H74078   6.087   7.975   2.768 -1.3011 -0.9979 -1.6736
  537MOL0     H74079   6.066   8.085   2.626  0.1190 -1.0086  0.1796
  537MOL0     H74080   6.149   8.273   2.768  0.7420  0.1591  0.7603
  537MOL0     H74081   6.270   8.142   2.747 -0.6533 -1.3551  0.3049
  537MOL0     H74082   6.196   8.051   2.980 -0.8358 -0.7067 -0.1658
  537MOL0     H74083   6.090   8.187   2.979 -1.0870 -0.2014 -4.2650
  537MOL0     H74084   6.311   8.223   3.112 -0.9846  1.2464  0.2961
  537MOL0     H74085   6.277   8.350   2.997  1.6328  0.5495  1.1095
  537MOL0     H74086   5.382   7.822   2.632 -1.9318 -1.6520 -1.1816
  537MOL0     H74087   5.254   7.650   2.524 -0.4537 -1.2612  0.6783
  537MOL0     H74088   5.351   7.161   2.420 -0.0201 -2.5563 -0.0099
  537MOL0     H74089   5.288   6.952   2.327  1.8611  0.3233  0.1092
  537MOL0     H74090   3.849   5.653   1.858  0.9849  0.1085 -1.4910
  537MOL0     H74091   3.610   5.627   1.798 -0.2898  0.0850 -1.9106
  537MOL0     H74092   3.263   5.687   1.492  0.1816 -1.9783  1.4567
  537MOL0     H74093   3.034   5.680   1.420 -0.5417 -0.3100  1.5637
  537MOL0     H74094   2.790   5.674   1.726 -1.3326  1.8678  2.9980
  537MOL0     H74095   2.725   5.833   1.710 -0.5307 -1.2294  1.9326
  537MOL0     H74096   2.544   5.658   1.697 -1.0774 -1.6344 -0.4863
  537MOL0     H74097   2.636   5.578   1.561  0.4389  0.4259 -1.0419
  537MOL0     H74098   2.602   5.760   1.418  1.6760 -0.2974  1.3676
  537MOL0     H74099   2.460   5.674   1.479  1.5219 -1.6320 -0.2753
  537MOL0     H74100   2.565   5.957   1.541 -1.5278  2.8006  1.0832
  537MOL0     H74101   2.450   5.877   1.650 -2.2230  1.3714 -0.9571
  537MOL0     H74102   2.233   6.059   1.336  0.2911  1.1270  1.3126
  537MOL0     H74103   2.928   5.899   1.780 -0.6886 -1.1398  0.4144
  537MOL0     H74104   3.069   5.953   1.958  0.0246 -1.1092 -0.1650
  537MOL0     H74105   3.190   5.838   1.995  1.3973  1.1773  1.3719
  537MOL0     H74106   3.229   5.989   1.897 -2.2100  0.9448 -1.9375
  538MOL0     O74107   2.642   2.905   3.963  0.3748  0.1550 -0.0767
  538MOL0     C74108   2.596   2.892   3.851  0.4512 -0.0877 -0.4317
  538MOL0     O74109   2.670   2.915   3.738 -0.2540  0.9038  0.6027
  538MOL0     C74110   2.809   2.931   3.749 -0.8549  0.1863  0.3668
  538MOL0     C74111   2.870   3.029   3.825 -0.1041  0.1472 -0.3615
  538MOL0     C74112   3.011   3.049   3.821 -0.2574  0.4215  0.1707
  538MOL0     C74113   3.088   2.983   3.725  0.3009  0.7638  0.5236
  538MOL0     O74114   3.215   3.029   3.717 -0.8771  0.0926 -0.8921
  538MOL0     C74115   3.297   2.982   3.597  1.7334 -0.4409 -0.0938
  538MOL0     C74116   3.442   3.015   3.633 -0.0551 -0.3002  0.0046
  538MOL0     C74117   3.455   3.156   3.666  0.2732 -0.4198  0.4048
  538MOL0     C74118   3.594   3.196   3.708  0.4881 -0.1697  0.1365
  538MOL0     C74119   3.589   3.344   3.768 -0.6807  0.1468  0.8482
  538MOL0     C74120   3.712   3.393   3.847  0.3277  0.3680 -0.3084
  538MOL0     C74121   3.841   3.395   3.759 -0.6593 -0.2387  0.3065
  538MOL0     C74122   3.861   3.532   3.692  0.2865 -0.2309 -0.7769
  538MOL0     N74123   3.993   3.528   3.614  0.4282 -0.0247 -0.9573
  538MOL0     C74124   4.098   3.437   3.604  0.0201  1.2275 -0.5093
  538MOL0     C74125   4.196   3.495   3.541 -0.3524  1.3545 -0.3633
  538MOL0     C74126   4.337   3.434   3.516  0.2657  0.3935 -0.3294
  538MOL0     C74127   4.445   3.531   3.574  0.4637 -0.2144 -0.6787
  538MOL0     C74128   4.585   3.472   3.545 -0.0547 -0.9780 -0.1228
  538MOL0     C74129   4.693   3.555   3.613  0.7855 -0.6170 -0.1287
  538MOL0     O74130   4.716   3.498   3.741  0.2738  0.6071  0.2491
  538MOL0     C74131   4.675   3.555   3.857  0.8920  0.3754  0.1828
  538MOL0     C74132   4.719   3.498   3.972  0.3593 -0.2088  0.2297
  538MOL0     C74133   4.665   3.522   4.102 -0.1783 -0.1341  0.0403
  538MOL0     C74134   4.705   3.443   4.221  1.0595 -0.3643 -0.4220
  538MOL0     C74135   4.575   3.635   4.108 -0.1101  0.8558 -0.3923
  538MOL0     C74136   4.513   3.670   4.234  0.1918  0.2672 -0.2958
  538MOL0     O74137   4.371   3.689   4.235  0.0297 -0.8466 -0.1496
  538MOL0     C74138   4.319   3.746   4.355 -0.1476  0.3635  0.6326
  538MOL0     C74139   4.284   3.664   4.466  0.7434  1.2102  0.0962
  538MOL0     C74140   4.202   3.720   4.561  0.5056  0.1275  0.2847
  538MOL0     C74141   4.146   3.848   4.544  0.4536 -0.0293  0.9079
  538MOL0     O74142   4.048   3.894   4.631 -0.3394  0.0669  0.1640
  538MOL0     C74143   4.031   4.041   4.645  0.4838  0.3611  0.7128
  538MOL0     C74144   3.932   4.059   4.756 -0.3647  0.2081 -0.5006
  538MOL0     C74145   3.999   4.009   4.887 -0.5473 -0.2564  0.6347
  538MOL0     C74146   3.893   4.002   4.993 -0.6753  0.3187 -0.3591
  538MOL0     C74147   3.876   4.139   5.051 -0.5814 -0.5183 -1.1259
  538MOL0     C74148   3.848   4.134   5.200  0.0416 -0.5612  0.1381
  538MOL0     C74149   3.815   4.272   5.258 -0.4063  0.3954  0.0306
  538MOL0     C74150   3.945   4.330   5.325 -0.9023  0.9293  0.6639
  538MOL0    Cl74151   3.904   4.501   5.356 -0.2127  0.2194 -0.0618
  538MOL0     C74152   4.192   3.931   4.429  0.9197  1.0059 -0.2300
  538MOL0     C74153   4.275   3.875   4.343 -0.2457  0.4146  0.2745
  538MOL0     O74154   4.585   3.696   4.328 -0.5448 -0.8672 -0.2836
  538MOL0     C74155   4.528   3.693   3.993 -0.1009 -0.1761  0.1148
  538MOL0     C74156   4.573   3.650   3.865  0.6631 -0.1438 -0.7738
  538MOL0     N74157   4.147   3.624   3.495 -0.5435  0.0936 -0.1544
  538MOL0     N74158   4.032   3.640   3.547 -0.7376  0.2546 -0.9592
  538MOL0     C74159   3.030   2.881   3.654 -0.0292  0.0561 -0.4624
  538MOL0     C74160   2.893   2.861   3.663  0.5551  0.1388  0.0373
  538MOL0     C74161   2.455   2.854   3.828  0.6259  0.4396  0.9092
  538MOL0     C74162   2.412   2.854   3.688 -0.1471  0.3802  0.1748
  538MOL0     C74163   2.299   2.799   3.647 -0.0113 -0.0721  0.1065
  538MOL0     C74164   2.209   2.754   3.738  0.4302  1.1002 -1.0412
  538MOL0     O74165   2.094   2.688   3.706 -0.5670 -0.8811  0.3156
  538MOL0     C74166   1.993   2.757   3.626 -0.9677 -0.5642 -0.1931
  538MOL0     C74167   1.863   2.674   3.614  0.4706 -0.4023 -0.8227
  538MOL0     C74168   1.778   2.647   3.744  0.4925 -0.6871 -0.1431
  538MOL0     C74169   1.730   2.772   3.817 -0.9521 -0.5020  0.3900
  538MOL0     C74170   1.631   2.844   3.731 -0.8502 -0.7429  0.2321
  538MOL0     C74171   1.546   2.880   3.651  0.2532 -0.1722 -0.7191
  538MOL0     C74172   2.236   2.755   3.878  0.6217 -0.0820 -0.0697
  538MOL0     C74173   2.362   2.811   3.920 -0.0393 -0.0956 -1.2327
  538MOL0     C74174   2.392   2.810   4.068 -0.8868  0.1016  0.9976
  538MOL0     H74175   2.812   3.098   3.885  2.2172  1.1918  0.8027
  538MOL0     H74176   3.053   3.116   3.896  0.2133 -2.5482  2.7650
  538MOL0     H74177   3.252   3.016   3.503 -3.9950  0.1529  2.4524
  538MOL0     H74178   3.284   2.874   3.600 -1.6670 -0.1363  0.4022
  538MOL0     H74179   3.475   2.954   3.718  0.1835 -1.2562 -0.7553
  538MOL0     H74180   3.508   2.989   3.550  1.1453 -0.5738  0.9938
  538MOL0     H74181   3.430   3.218   3.580  0.5097  0.4596  0.9550
  538MOL0     H74182   3.391   3.186   3.749 -0.3614 -0.6352 -0.0031
  538MOL0     H74183   3.629   3.128   3.787 -2.0650  0.8731  2.3451
  538MOL0     H74184   3.653   3.188   3.616 -4.1247 -2.3317 -2.9778
  538MOL0     H74185   3.500   3.350   3.832 -2.4096 -2.0392 -1.1644
  538MOL0     H74186   3.579   3.411   3.682  2.4614  2.0500  1.7974
  538MOL0     H74187   3.700   3.494   3.888  2.2010  0.3790  0.3240
  538MOL0     H74188   3.725   3.322   3.929 -0.8552 -1.3745 -1.5662
  538MOL0     H74189   3.845   3.316   3.684  0.6569 -1.0521  1.1845
  538MOL0     H74190   3.925   3.382   3.828 -1.2401  0.4667  1.1631
  538MOL0     H74191   3.775   3.565   3.633  0.0624  0.6699  0.0255
  538MOL0     H74192   3.859   3.603   3.775 -1.9143 -0.6055 -0.4419
  538MOL0     H74193   4.100   3.331   3.631  1.3652  1.3751  0.0361
  538MOL0     H74194   4.355   3.428   3.408 -0.6064  0.7511 -0.4987
  538MOL0     H74195   4.335   3.337   3.567  0.3516  1.0819  1.0196
  538MOL0     H74196   4.429   3.628   3.527  0.9722 -0.2685 -0.9755
  538MOL0     H74197   4.427   3.538   3.682 -0.2690  3.7047 -0.9283
  538MOL0     H74198   4.592   3.371   3.587  1.6337 -0.5824  0.6728
  538MOL0     H74199   4.607   3.484   3.438  2.0753  1.4566  0.4698
  538MOL0     H74200   4.791   3.559   3.563 -0.3192  1.8422 -2.3260
  538MOL0     H74201   4.658   3.659   3.612  3.7585  0.4988  0.7989
  538MOL0     H74202   4.792   3.420   3.952  0.3668  0.1202 -1.1640
  538MOL0     H74203   4.788   3.499   4.266  0.8551 -1.6370  1.6767
  538MOL0     H74204   4.742   3.343   4.194 -0.9016 -0.6321 -2.4620
  538MOL0     H74205   4.623   3.431   4.293  1.1115 -1.6552 -0.5576
  538MOL0     H74206   4.307   3.559   4.482 -3.3821  0.3399  1.6816
  538MOL0     H74207   4.166   3.682   4.656 -0.7566 -1.4159 -0.7454
  538MOL0     H74208   4.127   4.090   4.664  1.2893  0.2709 -2.5509
  538MOL0     H74209   4.004   4.079   4.547  3.1786  1.5455  0.3262
  538MOL0     H74210   3.901   4.163   4.773  1.7922  0.6929  0.7500
  538MOL0     H74211   3.847   3.991   4.745 -0.4986 -0.3595  2.9245
  538MOL0     H74212   4.088   4.066   4.915 -1.2995  0.5855  1.3830
  538MOL0     H74213   4.024   3.904   4.868 -4.2811 -1.3023  0.6813
  538MOL0     H74214   3.932   3.934   5.070 -0.5363 -0.4987 -1.1333
  538MOL0     H74215   3.793   3.973   4.960 -2.4099  3.8965  1.3049
  538MOL0     H74216   3.956   4.211   5.030  0.4923 -2.4493 -4.4528
  538MOL0     H74217   3.788   4.192   5.013 -0.2345 -0.1017 -1.3557
  538MOL0     H74218   3.937   4.088   5.243 -0.3179 -1.9929 -0.5753
  538MOL0     H74219   3.763   4.065   5.210  0.8306 -1.5911 -0.1159
  538MOL0     H74220   3.751   4.256   5.346  0.4742  2.2500  1.0484
  538MOL0     H74221   3.774   4.339   5.183  0.5438  2.1021  0.9744
  538MOL0     H74222   4.025   4.332   5.250 -1.0915  1.9354  0.4703
  538MOL0     H74223   3.966   4.258   5.404  0.3151  0.2753 -0.2281
  538MOL0     H74224   4.151   4.029   4.407 -2.4169 -0.4760 -1.4549
  538MOL0     H74225   4.295   3.925   4.249 -2.4510 -0.3678 -0.6779
  538MOL0     H74226   4.459   3.774   4.012  1.2338  0.7313  1.3057
  538MOL0     H74227   4.535   3.694   3.773 -3.9828  1.3069  1.5033
  538MOL0     H74228   3.086   2.819   3.585 -0.2418 -0.0088 -0.5766
  538MOL0     H74229   2.851   2.780   3.604  0.3149 -0.4797  1.0390
  538MOL0     H74230   2.473   2.890   3.605 -3.6263  1.2751 -2.2275
  538MOL0     H74231   2.286   2.795   3.540 -1.4957 -0.7074  0.2801
  538MOL0     H74232   1.978   2.855   3.672  0.5443 -0.3753 -0.0505
  538MOL0     H74233   2.041   2.773   3.529 -0.1486  0.5098  0.3596
  538MOL0     H74234   1.884   2.576   3.570 -0.6479 -2.0219  1.9970
  538MOL0     H74235   1.798   2.724   3.542  1.4058  1.9812 -0.1056
  538MOL0     H74236   1.688   2.594   3.712  2.0792 -1.9585 -2.7880
  538MOL0     H74237   1.835   2.584   3.814  0.5105 -0.5119  0.0001
  538MOL0     H74238   1.816   2.829   3.852 -2.2911  0.0499  3.0202
  538MOL0     H74239   1.677   2.746   3.909 -0.1684 -0.2736  0.9150
  538MOL0     H74240   1.473   2.907   3.578  1.0889  0.4417 -1.3497
  538MOL0     H74241   2.163   2.716   3.948  1.4335  0.7887  1.2957
  538MOL0     H74242   2.451   2.899   4.091  0.0694 -0.0194 -0.8284
  538MOL0     H74243   2.306   2.792   4.133 -1.2780  0.6301  0.6300
  538MOL0     H74244   2.465   2.728   4.067  0.9401  1.6575 -1.1667
  539MOL0     O74245   8.755   5.204   8.276 -0.0845 -0.1176  0.9634
  539MOL0     C74246   8.734   5.288   8.193 -0.0747 -0.0738 -0.1216
  539MOL0     O74247   8.614   5.311   8.135  0.7910  0.2083  0.7102
  539MOL0     C74248   8.493   5.263   8.192  0.0531  0.3649  0.4537
  539MOL0     C74249   8.472   5.196   8.316  0.3669 -0.2454  0.0394
  539MOL0     C74250   8.346   5.144   8.348 -0.1047  0.6340  0.2374
  539MOL0     C74251   8.237   5.166   8.262 -0.7646 -0.1151 -0.3549
  539MOL0     O74252   8.121   5.113   8.314 -0.0313 -0.7638  0.0728
  539MOL0     C74253   8.027   5.086   8.218  0.2981  0.2244 -0.0240
  539MOL0     C74254   7.910   5.015   8.293  0.0139 -0.1037 -0.3115
  539MOL0     C74255   7.872   5.087   8.419 -0.3805 -0.2442  0.3109
  539MOL0     C74256   7.736   5.037   8.465 -0.0773 -0.0722  0.1944
  539MOL0     C74257   7.690   5.108   8.596 -0.1692  0.7091 -0.0034
  539MOL0     C74258   7.636   5.254   8.578  0.7505 -0.0925  0.1642
  539MOL0     C74259   7.651   5.332   8.699 -0.8582 -0.0527 -0.7093
  539MOL0     C74260   7.583   5.465   8.689  0.0943  0.1666  0.3322
  539MOL0     N74261   7.601   5.553   8.814 -1.0994  0.4033 -0.0421
  539MOL0     C74262   7.516   5.569   8.914  0.2641 -0.6178 -0.2370
  539MOL0     C74263   7.569   5.650   9.011  0.1775 -0.1417 -0.7186
  539MOL0     C74264   7.515   5.687   9.151 -0.3116  0.8948  0.4664
  539MOL0     C74265   7.564   5.823   9.201 -0.8426 -0.4329 -0.2087
  539MOL0     C74266   7.641   5.810   9.333  0.2104 -0.7819 -0.3090
  539MOL0     C74267   7.552   5.754   9.443  0.1841  0.6597  0.4662
  539MOL0     O74268   7.594   5.617   9.464 -0.1330 -0.3444  0.6392
  539MOL0     C74269   7.576   5.541   9.578  0.1434 -0.2019 -0.2786
  539MOL0     C74270   7.500   5.580   9.685 -0.0813 -0.0388  0.1041
  539MOL0     C74271   7.480   5.501   9.799 -0.0729  0.1086 -0.1484
  539MOL0     C74272   7.377   5.549   9.905 -0.1155 -0.1358  0.5299
  539MOL0     C74273   7.559   5.383   9.813  0.0186  0.2718 -0.2266
  539MOL0     C74274   7.594   5.305   9.938  0.3339 -0.8468 -0.5846
  539MOL0     O74275   7.695   5.211   9.926 -0.2522  0.3595 -0.2428
  539MOL0     C74276   7.728   5.137  10.035  0.3387  0.7671 -0.8832
  539MOL0     C74277   7.861   5.106  10.056  0.2285 -0.8683  0.4057
  539MOL0     C74278   7.905   5.014  10.149  1.1124 -0.4156 -0.4581
  539MOL0     C74279   7.813   4.946  10.230  0.4300 -0.1426 -0.3446
  539MOL0     O74280   7.845   4.851  10.326 -0.2702  0.0491 -0.1045
  539MOL0     C74281   7.981   4.809  10.328  0.9727  0.2093 -0.0961
  539MOL0     C74282   7.985   4.674  10.402 -0.6625  0.5684  0.7200
  539MOL0     C74283   8.122   4.607  10.384 -0.1979 -1.0945 -0.0374
  539MOL0     C74284   8.156   4.474  10.457 -0.5062 -0.5540 -0.3397
  539MOL0     C74285   8.119   4.353  10.377 -0.2081 -0.4911 -0.3366
  539MOL0     C74286   8.222   4.330  10.263  0.1737  0.6392  0.8308
  539MOL0     C74287   8.196   4.198  10.180 -0.3506  0.0128 -0.3794
  539MOL0     C74288   8.214   4.059  10.254 -0.3970 -0.1788 -0.5136
  539MOL0    Cl74289   8.385   4.033  10.312  0.2556 -0.3752 -0.0215
  539MOL0     C74290   7.679   4.991  10.227 -0.1561  1.4748  0.5321
  539MOL0     C74291   7.639   5.088  10.135 -0.9660 -0.2148 -0.4345
  539MOL0     O74292   7.530   5.335  10.041  0.1681  0.0058 -0.3011
  539MOL0     C74293   7.618   5.336   9.692 -0.6673 -0.4862  0.7068
  539MOL0     C74294   7.618   5.414   9.576 -0.1772  0.7187 -0.5396
  539MOL0     N74295   7.699   5.673   8.953  0.7147 -0.8120  0.3123
  539MOL0     N74296   7.718   5.612   8.846 -0.9500 -0.1314  0.6380
  539MOL0     C74297   8.257   5.244   8.148 -0.4210  0.6080 -0.0850
  539MOL0     C74298   8.386   5.283   8.112  0.6547  0.5582 -0.9659
  539MOL0     C74299   8.849   5.374   8.138  0.4957  0.3678 -0.0503
  539MOL0     C74300   8.848   5.418   8.007  0.3624  0.1265  0.1401
  539MOL0     C74301   8.940   5.507   7.958 -0.4744 -0.8520 -0.5089
  539MOL0     C74302   9.046   5.555   8.034 -0.6382  0.0181 -0.3544
  539MOL0     O74303   9.144   5.640   7.999  0.6185 -0.2990 -0.2671
  539MOL0     C74304   9.159   5.670   7.863 -0.5729 -0.4896 -0.1742
  539MOL0     C74305   9.233   5.556   7.798  0.2133  0.2637 -0.4997
  539MOL0     C74306   9.269   5.596   7.651 -0.5315  0.4202  0.0731
  539MOL0     C74307   9.353   5.486   7.572  0.1008 -0.3522 -0.5542
  539MOL0     C74308   9.251   5.382   7.541  1.5248  0.3221 -0.2889
  539MOL0     C74309   9.167   5.310   7.494 -0.2597  1.1580  0.3290
  539MOL0     C74310   9.052   5.506   8.166  0.1719  0.1898  0.6498
  539MOL0     C74311   8.959   5.416   8.223  0.2201  0.1000 -0.0589
  539MOL0     C74312   8.969   5.373   8.367  0.4295  0.3022 -0.2366
  539MOL0     H74313   8.551   5.188   8.390 -0.4273  3.7696  1.5733
  539MOL0     H74314   8.331   5.091   8.441 -1.3228  0.4984 -0.0153
  539MOL0     H74315   8.066   5.032   8.131  1.0395 -0.2994  0.6138
  539MOL0     H74316   7.988   5.178   8.175  1.2470  0.1015 -1.1939
  539MOL0     H74317   7.827   5.016   8.221 -0.2783  3.1944 -0.0623
  539MOL0     H74318   7.940   4.911   8.311  0.0545  0.0122  0.3013
  539MOL0     H74319   7.939   5.071   8.503 -0.6099 -1.6585  0.2565
  539MOL0     H74320   7.869   5.194   8.395  2.1167 -0.0478  0.6680
  539MOL0     H74321   7.666   5.043   8.381 -3.0562 -1.0171  2.4094
  539MOL0     H74322   7.739   4.929   8.485 -0.5306 -0.2501 -0.6360
  539MOL0     H74323   7.777   5.124   8.661 -0.6462  0.9811  0.5782
  539MOL0     H74324   7.617   5.047   8.650 -2.6803  0.9540 -2.8934
  539MOL0     H74325   7.686   5.313   8.500  2.7769  0.9006  2.0930
  539MOL0     H74326   7.530   5.243   8.551  0.3601  1.6720  0.7930
  539MOL0     H74327   7.758   5.353   8.710 -0.8008 -0.9666  0.6946
  539MOL0     H74328   7.627   5.275   8.789  1.6282  2.2868  1.6400
  539MOL0     H74329   7.615   5.516   8.598  0.6735  0.3636  0.6383
  539MOL0     H74330   7.474   5.459   8.679 -0.0275  2.7897 -0.8398
  539MOL0     H74331   7.419   5.520   8.914  0.5630 -1.2519 -1.7011
  539MOL0     H74332   7.550   5.603   9.212  1.2122  1.1027 -0.0722
  539MOL0     H74333   7.406   5.686   9.150 -0.3776 -1.8894  1.8851
  539MOL0     H74334   7.648   5.862   9.142 -0.7731  1.5126  1.0745
  539MOL0     H74335   7.479   5.892   9.199  0.3350  1.0601 -0.3813
  539MOL0     H74336   7.736   5.759   9.320  0.3940 -0.1105 -1.7862
  539MOL0     H74337   7.657   5.909   9.377 -1.8200 -0.1429 -0.8707
  539MOL0     H74338   7.554   5.810   9.537 -3.0182  0.3575  0.8303
  539MOL0     H74339   7.446   5.752   9.417  0.7372 -2.0456 -2.0757
  539MOL0     H74340   7.455   5.679   9.675 -1.2233 -0.0700  3.6593
  539MOL0     H74341   7.423   5.607   9.984 -0.8685  3.3108 -1.3573
  539MOL0     H74342   7.318   5.466   9.945 -1.3264  0.9117  0.9961
  539MOL0     H74343   7.302   5.612   9.856  0.5872 -0.9144 -1.7064
  539MOL0     H74344   7.934   5.150   9.988  0.4374 -1.3588  0.3056
  539MOL0     H74345   8.014   5.012  10.149  1.1814  0.6882  1.6390
  539MOL0     H74346   8.027   4.797  10.230 -0.2873  0.7824 -0.7746
  539MOL0     H74347   8.044   4.878  10.385 -2.2975  4.4221 -1.0920
  539MOL0     H74348   7.969   4.695  10.508  0.1589 -0.5740  1.0853
  539MOL0     H74349   7.913   4.599  10.368  0.8911 -0.6967  0.0801
  539MOL0     H74350   8.195   4.681  10.420 -1.1112 -1.3132  2.3829
  539MOL0     H74351   8.132   4.595  10.275 -0.9052  0.6932 -0.3387
  539MOL0     H74352   8.097   4.457  10.547 -0.5408 -3.8722 -0.8684
  539MOL0     H74353   8.260   4.479  10.491 -0.8480  0.1169  0.6536
  539MOL0     H74354   8.100   4.267  10.441  0.0127  0.7231  1.4353
  539MOL0     H74355   8.025   4.382  10.328 -0.5979  0.5931  0.9822
  539MOL0     H74356   8.322   4.318  10.308 -0.4334 -3.7924  1.4450
  539MOL0     H74357   8.236   4.416  10.196 -2.1303  0.8933  0.6144
  539MOL0     H74358   8.266   4.202  10.096 -1.7375  0.9212 -1.5365
  539MOL0     H74359   8.098   4.209  10.133 -0.3654 -0.3238 -0.4323
  539MOL0     H74360   8.181   3.979  10.187  1.9934 -1.1655 -0.5872
  539MOL0     H74361   8.147   4.064  10.341  0.2157  0.3763 -0.0661
  539MOL0     H74362   7.615   4.942  10.299 -1.1279  1.5030 -0.2880
  539MOL0     H74363   7.531   5.092  10.123 -0.8141 -1.2428 -2.4361
  539MOL0     H74364   7.679   5.247   9.692 -0.0784 -0.1184  2.3627
  539MOL0     H74365   7.670   5.379   9.487 -0.7809 -2.4922  0.2442
  539MOL0     H74366   8.171   5.260   8.083 -2.3890 -0.5529  2.0985
  539MOL0     H74367   8.398   5.331   8.015  2.3313  0.0006 -1.0653
  539MOL0     H74368   8.772   5.397   7.933  3.6897 -0.5331 -3.4348
  539MOL0     H74369   8.934   5.535   7.854 -1.3970 -1.4622 -0.6273
  539MOL0     H74370   9.062   5.695   7.819 -0.6264 -1.6587 -0.7581
  539MOL0     H74371   9.227   5.754   7.850  0.7968 -1.7691 -1.8039
  539MOL0     H74372   9.174   5.464   7.806 -0.3243  0.6239 -0.2464
  539MOL0     H74373   9.326   5.540   7.854  0.0531  0.6086 -0.1309
  539MOL0     H74374   9.176   5.611   7.594 -2.3625 -1.5607  2.3029
  539MOL0     H74375   9.326   5.689   7.655 -1.4132  0.9982 -0.3819
  539MOL0     H74376   9.425   5.450   7.646 -2.6875  1.4120  3.3398
  539MOL0     H74377   9.415   5.519   7.489 -0.1528 -2.4333 -1.6477
  539MOL0     H74378   9.093   5.250   7.444  0.0160  2.2160 -1.4302
  539MOL0     H74379   9.133   5.541   8.228  1.9142  2.9169 -2.7993
  539MOL0     H74380   8.996   5.267   8.363  3.4303  0.9692  0.1194
  539MOL0     H74381   9.048   5.434   8.412  0.0390  1.9721 -1.6849
  539MOL0     H74382   8.875   5.389   8.422  0.1165  1.3879 -1.0555
  540MOL0     O74383  10.036   2.127   9.762 -0.6329  0.0630  0.5565
  540MOL0     C74384  10.017   2.216   9.686 -0.0046  0.3325  0.1991
  540MOL0     O74385  10.115   2.268   9.600  0.0303 -0.3516  0.2845
  540MOL0     C74386  10.243   2.227   9.578 -0.6996 -1.2171  0.6787
  540MOL0     C74387  10.279   2.097   9.550 -0.4234 -0.3034  0.1604
  540MOL0     C74388  10.403   2.048   9.538  0.3885 -0.2094 -0.5799
  540MOL0     C74389  10.511   2.144   9.539  0.5905  0.5939 -0.4027
  540MOL0     O74390  10.635   2.091   9.551  0.2750  0.2162  0.0484
  540MOL0     C74391  10.744   2.187   9.557  0.8652 -0.3765  0.7616
  540MOL0     C74392  10.872   2.112   9.579 -0.4160 -0.7831 -0.1265
  540MOL0     C74393  10.915   2.036   9.445  1.0673 -0.0075 -0.2830
  540MOL0     C74394  10.995   2.140   9.349 -0.4702 -0.1930  0.0202
  540MOL0     C74395  11.042   2.057   9.236  0.0192 -0.7876 -0.5359
  540MOL0     C74396  11.182   1.995   9.277  0.2702  0.2731  0.6144
  540MOL0     C74397  11.206   1.883   9.170  0.1919  0.0081  0.1076
  540MOL0     C74398  11.356   1.842   9.182 -0.1570  0.9696  0.1973
  540MOL0     N74399  11.460   1.947   9.169  0.9073  0.3636  0.6086
  540MOL0     C74400  11.583   1.955   9.223 -0.2536  0.8401 -0.6208
  540MOL0     C74401  11.639   2.073   9.182  0.1616 -0.0068  0.4182
  540MOL0     C74402  11.769   2.135   9.240 -0.4194 -0.3671  0.4258
  540MOL0     C74403  11.902   2.083   9.180  0.2469  0.5243  0.9268
  540MOL0     C74404  11.899   2.120   9.027  0.3752 -0.7298 -0.5451
  540MOL0     C74405  12.038   2.084   8.958  0.0243 -0.4890 -0.7699
  540MOL0     O74406  12.125   2.196   8.981  0.1894 -0.3062  0.1945
  540MOL0     C74407  12.254   2.171   8.940  0.1626 -0.8851  0.8439
  540MOL0     C74408  12.306   2.089   8.851 -0.3710  1.2181 -0.0510
  540MOL0     C74409  12.448   2.066   8.835 -0.9141  0.0128 -0.4204
  540MOL0     C74410  12.483   1.967   8.719 -0.5746  0.3503  0.1359
  540MOL0     C74411  12.544   2.147   8.905 -0.6006  1.1200 -0.1166
  540MOL0     C74412  12.690   2.138   8.907  0.4545 -0.1478  0.4370
  540MOL0     O74413  12.765   2.237   8.968 -0.1297  0.2445  0.4224
  540MOL0     C74414  12.904   2.218   8.976 -0.2895  0.5479 -0.5678
  540MOL0     C74415  12.969   2.103   9.031  0.2590  0.6706 -0.2935
  540MOL0     C74416  13.110   2.096   9.021 -0.1108  0.8983  0.0328
  540MOL0     C74417  13.188   2.194   8.968 -0.8727 -0.3490 -0.4994
  540MOL0     O74418  13.320   2.164   8.964 -0.0042  0.0286  0.0119
  540MOL0     C74419  13.418   2.259   8.927 -0.4078 -0.2658 -0.9283
  540MOL0     C74420  13.556   2.194   8.951  0.0895  0.6783 -0.8503
  540MOL0     C74421  13.665   2.297   8.912 -0.1027  0.3043  0.4739
  540MOL0     C74422  13.801   2.234   8.950  0.3677 -0.0235  0.5142
  540MOL0     C74423  13.920   2.328   8.919  0.2628 -0.9992  0.1646
  540MOL0     C74424  14.054   2.266   8.936 -1.2122 -0.2665 -0.3047
  540MOL0     C74425  14.167   2.365   8.950 -0.7262 -0.5292  0.6226
  540MOL0     C74426  14.311   2.311   8.947  0.3529 -0.3886 -0.4348
  540MOL0    Cl74427  14.417   2.449   8.946  0.6708 -0.1319 -0.2562
  540MOL0     C74428  13.126   2.314   8.930 -0.1415 -0.1816  0.5369
  540MOL0     C74429  12.987   2.328   8.940 -0.0119 -0.3186  0.3463
  540MOL0     O74430  12.735   2.041   8.846  0.0677  0.5359 -0.4298
  540MOL0     C74431  12.486   2.262   8.975 -0.6670  0.3125 -0.6390
  540MOL0     C74432  12.348   2.268   8.991 -0.1396  0.6632  0.2201
  540MOL0     N74433  11.551   2.129   9.102 -0.7195  0.1067  0.3084
  540MOL0     N74434  11.443   2.050   9.091  0.6385  0.1242 -0.3440
  540MOL0     C74435  10.479   2.283   9.548  0.1035  0.2872  0.0084
  540MOL0     C74436  10.345   2.326   9.561 -0.0057  0.4010 -0.8905
  540MOL0     C74437   9.873   2.245   9.661 -0.2495 -0.7698 -0.0521
  540MOL0     C74438   9.840   2.309   9.544  0.0929  0.1724  0.3870
  540MOL0     C74439   9.710   2.347   9.514 -0.1965 -0.4698  0.1484
  540MOL0     C74440   9.606   2.308   9.603  1.2977  0.0979 -0.0182
  540MOL0     O74441   9.473   2.338   9.570  0.0125  0.0612  0.0152
  540MOL0     C74442   9.450   2.478   9.541 -0.4173  0.2830 -0.2920
  540MOL0     C74443   9.312   2.536   9.589 -0.7162  0.0639  0.4856
  540MOL0     C74444   9.323   2.544   9.737  1.0382 -0.7009  0.0761
  540MOL0     C74445   9.185   2.564   9.805  0.7389 -0.4868  0.2026
  540MOL0     C74446   9.122   2.684   9.759 -1.0937  0.1107 -0.6208
  540MOL0     C74447   9.113   2.803   9.729 -0.5429  0.2584 -0.4808
  540MOL0     C74448   9.630   2.239   9.724  0.0822  0.0389  0.0250
  540MOL0     C74449   9.766   2.209   9.754 -0.0684  0.0447  0.3052
  540MOL0     C74450   9.792   2.134   9.888  0.9958 -0.1546 -0.1221
  540MOL0     H74451  10.198   2.025   9.556 -0.3164 -0.3314  1.5213
  540MOL0     H74452  10.413   1.940   9.527 -3.2459 -0.7293 -0.1216
  540MOL0     H74453  10.738   2.257   9.641 -0.3546  0.4432  0.0239
  540MOL0     H74454  10.748   2.244   9.464  1.3711 -0.5714  0.6642
  540MOL0     H74455  10.950   2.177   9.620  0.8162 -1.4594 -1.2994
  540MOL0     H74456  10.861   2.033   9.654 -0.4548 -0.6244  0.0348
  540MOL0     H74457  10.979   1.958   9.487  1.2267 -0.2306 -0.9370
  540MOL0     H74458  10.827   1.992   9.398  0.7465  0.8442 -0.5060
  540MOL0     H74459  10.931   2.218   9.306  0.8998  0.5938 -0.6577
  540MOL0     H74460  11.077   2.188   9.402 -1.2564  0.6996  0.4694
  540MOL0     H74461  11.058   2.123   9.149  0.8558  0.8870  0.8297
  540MOL0     H74462  10.971   1.976   9.219 -1.1137  0.3786 -1.5612
  540MOL0     H74463  11.261   2.068   9.254  1.5895 -1.2287  0.2314
  540MOL0     H74464  11.193   1.953   9.377 -0.6683  0.5536  0.8476
  540MOL0     H74465  11.180   1.921   9.071 -2.0622 -0.9306  0.2789
  540MOL0     H74466  11.152   1.789   9.187 -0.2403  0.1404 -0.5105
  540MOL0     H74467  11.366   1.790   9.278 -1.6386 -1.5881 -0.9417
  540MOL0     H74468  11.385   1.773   9.103  0.2205  0.5334  0.7065
  540MOL0     H74469  11.626   1.877   9.285 -2.9790 -0.3113 -0.0438
  540MOL0     H74470  11.777   2.130   9.349  1.7272  2.9215  0.5663
  540MOL0     H74471  11.765   2.244   9.223 -0.1959 -0.2547  1.0928
  540MOL0     H74472  11.990   2.132   9.223  1.3336 -1.2317  0.8269
  540MOL0     H74473  11.920   1.975   9.189  0.9144  0.4861 -0.5721
  540MOL0     H74474  11.825   2.062   8.971  0.9144  0.1448 -2.2370
  540MOL0     H74475  11.880   2.228   9.017  1.4344 -0.2505  1.8649
  540MOL0     H74476  12.080   1.991   8.997 -0.0189  0.3592  1.5033
  540MOL0     H74477  12.024   2.081   8.850  0.0948 -0.8440 -0.7686
  540MOL0     H74478  12.243   2.015   8.803  0.2012  1.4155 -1.1320
  540MOL0     H74479  12.543   1.997   8.632 -2.3730 -0.1475 -1.3586
  540MOL0     H74480  12.392   1.933   8.669 -0.9828  2.0005 -0.3117
  540MOL0     H74481  12.524   1.881   8.772  1.7821  1.8694  0.9193
  540MOL0     H74482  12.908   2.032   9.086 -0.7388  1.8424  0.1623
  540MOL0     H74483  13.162   2.008   9.057 -0.4953 -0.3791 -2.3062
  540MOL0     H74484  13.387   2.294   8.828 -1.8953 -1.2242 -0.8367
  540MOL0     H74485  13.414   2.343   8.996 -2.6548 -2.2299  1.5288
  540MOL0     H74486  13.562   2.165   9.056  1.4092  0.4053 -0.9823
  540MOL0     H74487  13.562   2.104   8.889  0.5353  1.0093 -1.2988
  540MOL0     H74488  13.657   2.397   8.955  0.3156 -0.0529  1.4184
  540MOL0     H74489  13.662   2.316   8.804  0.0222  2.0330  0.7572
  540MOL0     H74490  13.799   2.148   8.882 -2.7430  1.6408 -1.7339
  540MOL0     H74491  13.798   2.209   9.057  0.4050  1.6645  0.9326
  540MOL0     H74492  13.900   2.375   8.823 -1.3457  0.2981  1.0659
  540MOL0     H74493  13.901   2.412   8.987 -0.3705 -0.2582 -0.8940
  540MOL0     H74494  14.073   2.211   8.844  0.4049 -2.1654  1.0667
  540MOL0     H74495  14.054   2.205   9.027  3.1590  0.0645  0.1215
  540MOL0     H74496  14.152   2.423   9.041 -3.2714  0.8881 -0.5984
  540MOL0     H74497  14.150   2.434   8.867 -2.3012 -1.5526  0.0346
  540MOL0     H74498  14.336   2.241   8.867  1.3836 -0.7555  0.1766
  540MOL0     H74499  14.330   2.261   9.043 -0.6115  1.0342  0.5325
  540MOL0     H74500  13.185   2.395   8.888 -0.2175 -0.3214  0.1574
  540MOL0     H74501  12.932   2.416   8.910  1.1246  1.1717  2.4045
  540MOL0     H74502  12.554   2.334   9.020 -0.6328 -0.9384  1.4244
  540MOL0     H74503  12.302   2.353   9.041 -4.2058  1.5253 -4.3156
  540MOL0     H74504  10.555   2.361   9.542 -2.1081  2.5004 -1.6578
  540MOL0     H74505  10.331   2.432   9.579  1.2050  0.2318  1.5286
  540MOL0     H74506   9.913   2.341   9.471 -0.4242 -1.9133 -1.1235
  540MOL0     H74507   9.695   2.397   9.419  0.2136  0.7159  0.6963
  540MOL0     H74508   9.534   2.536   9.582 -0.1727 -0.2640 -0.0112
  540MOL0     H74509   9.459   2.492   9.433 -1.0142 -2.5896 -0.8004
  540MOL0     H74510   9.231   2.467   9.563 -1.2487 -0.0666  2.3571
  540MOL0     H74511   9.294   2.635   9.546  3.1255  0.7503  0.1642
  540MOL0     H74512   9.356   2.452   9.785  3.9620 -0.7777 -1.8092
  540MOL0     H74513   9.400   2.614   9.771  3.3731 -1.8206 -2.5435
  540MOL0     H74514   9.198   2.556   9.913  0.2802 -3.1233  0.1297
  540MOL0     H74515   9.118   2.483   9.773  0.6926  0.3082 -1.8502
  540MOL0     H74516   9.109   2.910   9.721 -1.8136  0.1353 -1.6688
  540MOL0     H74517   9.549   2.218   9.793  0.8208  0.2900  0.9948
  540MOL0     H74518   9.819   2.031   9.866  2.3276  0.1429  0.0593
  540MOL0     H74519   9.861   2.184   9.956 -0.4859  0.1659  1.2183
  540MOL0     H74520   9.698   2.135   9.944 -2.6820 -1.9324 -5.4556
  541MOL0     O74521   5.135   1.884   8.608  0.1500  0.0115 -0.0012
  541MOL0     C74522   5.127   1.759   8.590 -0.0145 -0.5127  0.1820
  541MOL0     O74523   5.238   1.682   8.585  0.7503 -0.9918 -0.0102
  541MOL0     C74524   5.354   1.724   8.648  0.0853 -0.3466 -0.9364
  541MOL0     C74525   5.355   1.765   8.782 -0.2612 -0.7247 -0.2701
  541MOL0     C74526   5.466   1.813   8.842  0.0619  0.0069  0.0143
  541MOL0     C74527   5.588   1.825   8.765  0.3385  0.2203 -0.4995
  541MOL0     O74528   5.710   1.857   8.826  0.1470 -0.6941  0.3831
  541MOL0     C74529   5.745   1.748   8.917 -0.3784  0.1417 -0.0847
  541MOL0     C74530   5.894   1.758   8.950 -0.2467 -0.6689 -0.2051
  541MOL0     C74531   5.991   1.721   8.836  0.2809 -0.6352  0.1241
  541MOL0     C74532   6.046   1.575   8.837  0.0191 -0.1393  0.1218
  541MOL0     C74533   6.173   1.575   8.753  0.0309  0.3685 -0.4153
  541MOL0     C74534   6.247   1.434   8.769  0.0653 -0.6902  0.0599
  541MOL0     C74535   6.401   1.445   8.751  0.1171 -0.1008 -0.0011
  541MOL0     C74536   6.478   1.315   8.769 -0.3547  0.3187  0.0063
  541MOL0     N74537   6.621   1.346   8.741 -0.1672 -0.2613 -0.1648
  541MOL0     C74538   6.697   1.293   8.640 -0.3582 -0.1987 -0.0822
  541MOL0     C74539   6.823   1.337   8.673 -0.4667 -0.0798  0.7287
  541MOL0     C74540   6.936   1.292   8.577  0.1767  0.2718 -0.4813
  541MOL0     C74541   7.072   1.293   8.646 -0.0869  0.2198  0.0165
  541MOL0     C74542   7.186   1.273   8.541 -0.3796 -0.2826 -0.2247
  541MOL0     C74543   7.210   1.122   8.516  1.0075 -0.1370  0.0030
  541MOL0     O74544   7.192   1.117   8.370  0.3427  0.1238 -0.9872
  541MOL0     C74545   7.305   1.102   8.292  0.2222 -0.2672  0.7454
  541MOL0     C74546   7.437   1.096   8.322  0.4045 -0.2003 -0.1771
  541MOL0     C74547   7.539   1.095   8.223 -0.5379  0.7716 -0.3729
  541MOL0     C74548   7.684   1.071   8.264 -0.3097  0.8074 -0.6675
  541MOL0     C74549   7.509   1.115   8.088 -0.7342 -0.2566  0.6811
  541MOL0     C74550   7.610   1.130   7.978  0.3338  1.1683  0.5997
  541MOL0     O74551   7.580   1.057   7.862  0.2421  0.1327 -0.2676
  541MOL0     C74552   7.668   1.060   7.759  0.6841  0.2641 -0.0109
  541MOL0     C74553   7.719   1.175   7.699 -0.3421  0.2564 -0.6755
  541MOL0     C74554   7.808   1.172   7.590 -0.3860  0.4330  0.8037
  541MOL0     C74555   7.852   1.051   7.540 -1.3064  1.2873  0.5884
  541MOL0     O74556   7.958   1.052   7.448 -0.3902  0.4114  0.8944
  541MOL0     C74557   7.900   1.013   7.316 -1.1725 -0.2226  0.3617
  541MOL0     C74558   8.007   0.993   7.212 -0.0469 -0.1988 -0.4771
  541MOL0     C74559   8.082   1.116   7.177 -0.1631  0.4492  0.2980
  541MOL0     C74560   8.156   1.096   7.039 -0.0417  0.8016  0.4619
  541MOL0     C74561   8.221   1.220   6.977 -0.8294  0.0741  0.0969
  541MOL0     C74562   8.296   1.171   6.855  0.3895 -0.6365 -0.1675
  541MOL0     C74563   8.390   1.281   6.807 -0.2980 -0.0579 -0.5576
  541MOL0     C74564   8.452   1.229   6.675 -0.6922  0.2558  0.5985
  541MOL0    Cl74565   8.320   1.201   6.551 -0.5917  0.0201  0.0030
  541MOL0     C74566   7.823   0.935   7.607 -0.6087  0.3365 -0.8620
  541MOL0     C74567   7.738   0.940   7.718 -0.3250 -0.6815 -0.7854
  541MOL0     O74568   7.710   1.202   7.992 -0.0156  0.7593 -0.9465
  541MOL0     C74569   7.370   1.131   8.058  0.3689  0.0974 -0.4462
  541MOL0     C74570   7.278   1.121   8.157  0.4574  1.2909 -0.3680
  541MOL0     N74571   6.815   1.417   8.783  1.1876 -0.1841 -0.0001
  541MOL0     N74572   6.695   1.420   8.822  0.6578  1.3847 -0.3357
  541MOL0     C74573   5.588   1.783   8.637 -0.2742 -0.5438  0.3650
  541MOL0     C74574   5.478   1.735   8.577  0.4782  0.6715  0.0163
  541MOL0     C74575   4.987   1.704   8.565  0.5061 -0.6403  0.3073
  541MOL0     C74576   4.891   1.790   8.508 -0.1025  0.8327  1.4399
  541MOL0     C74577   4.765   1.741   8.484  0.1578  0.5169 -0.0145
  541MOL0     C74578   4.729   1.614   8.531 -0.2275 -0.0718  0.5577
  541MOL0     O74579   4.593   1.584   8.524 -0.5158  0.3950 -0.1292
  541MOL0     C74580   4.488   1.670   8.478  0.5839 -0.3807 -0.3683
  541MOL0     C74581   4.448   1.777   8.580  1.1721  0.2731  0.3154
  541MOL0     C74582   4.321   1.848   8.523 -0.0182 -0.1207  0.1984
  541MOL0     C74583   4.341   1.995   8.505  0.0462  0.4544 -0.2991
  541MOL0     C74584   4.461   2.044   8.431 -0.3166  0.5372  1.0913
  541MOL0     C74585   4.564   2.078   8.377 -0.2823 -0.6183 -0.4218
  541MOL0     C74586   4.820   1.521   8.568  0.6443  0.8957 -0.0097
  541MOL0     C74587   4.949   1.574   8.601  0.3331  0.1469  0.1771
  541MOL0     C74588   5.041   1.490   8.686 -0.4741  0.5495 -0.0519
  541MOL0     H74589   5.266   1.760   8.845 -0.5245 -0.2674 -0.5995
  541MOL0     H74590   5.456   1.839   8.947 -0.3410 -1.6087  0.4054
  541MOL0     H74591   5.741   1.655   8.860  2.3541  0.0446 -0.2623
  541MOL0     H74592   5.687   1.753   9.009 -0.0804 -0.0237  0.1129
  541MOL0     H74593   5.911   1.858   8.989 -0.4088 -1.0206  0.8039
  541MOL0     H74594   5.910   1.693   9.037 -0.4195  1.4810  1.5167
  541MOL0     H74595   5.953   1.744   8.736  1.1880  1.1210  0.1497
  541MOL0     H74596   6.067   1.799   8.839 -0.0706 -0.2804  0.0090
  541MOL0     H74597   6.062   1.547   8.942 -1.0368  0.4880  0.4725
  541MOL0     H74598   5.967   1.510   8.799  1.5867 -0.6780 -2.4427
  541MOL0     H74599   6.255   1.644   8.774  0.7098  0.2726 -2.4375
  541MOL0     H74600   6.146   1.586   8.647 -1.8895  1.7778  0.1718
  541MOL0     H74601   6.222   1.394   8.868 -0.9132 -0.5208 -0.1079
  541MOL0     H74602   6.205   1.372   8.689 -0.8660  0.9440 -0.7742
  541MOL0     H74603   6.442   1.521   8.817  4.4432 -0.0494 -2.3874
  541MOL0     H74604   6.406   1.477   8.647 -3.3193  1.4163  0.1531
  541MOL0     H74605   6.472   1.278   8.872  0.9904  2.8865  1.1155
  541MOL0     H74606   6.447   1.233   8.703  1.6967 -2.0277  1.7420
  541MOL0     H74607   6.675   1.241   8.548  0.8310  0.4662 -0.7608
  541MOL0     H74608   6.926   1.348   8.484 -0.5887 -1.2133 -1.3299
  541MOL0     H74609   6.912   1.187   8.555 -3.1051  0.3545  1.8847
  541MOL0     H74610   7.092   1.393   8.686 -0.7844  0.9498 -1.4110
  541MOL0     H74611   7.095   1.209   8.713  4.4161 -0.1750 -1.6406
  541MOL0     H74612   7.170   1.332   8.450  0.1338  0.0541 -0.1040
  541MOL0     H74613   7.279   1.313   8.583  0.1065 -0.2849 -1.2515
  541MOL0     H74614   7.308   1.101   8.559  1.0085  1.6127  0.9117
  541MOL0     H74615   7.143   1.052   8.567  0.5583  0.0774 -0.2891
  541MOL0     H74616   7.471   1.088   8.424  0.0828  2.6064  0.2233
  541MOL0     H74617   7.736   1.008   8.191 -0.6807  1.1215 -1.2187
  541MOL0     H74618   7.695   1.022   8.361 -2.4267 -0.9247 -1.2012
  541MOL0     H74619   7.735   1.168   8.261  0.0205  0.6131 -1.6271
  541MOL0     H74620   7.691   1.268   7.748 -1.9342 -2.0125  3.2078
  541MOL0     H74621   7.863   1.262   7.564  1.2338 -0.9150 -0.5836
  541MOL0     H74622   7.865   0.912   7.339 -0.4857 -0.9578 -1.6327
  541MOL0     H74623   7.813   1.068   7.280  0.3829  1.2246 -1.4068
  541MOL0     H74624   8.062   0.902   7.236 -0.2322  0.1590  1.4545
  541MOL0     H74625   7.960   0.962   7.119 -4.1640  2.5593  0.4136
  541MOL0     H74626   8.161   1.136   7.249  2.0398 -1.5532 -1.4005
  541MOL0     H74627   8.019   1.205   7.173  2.0377  2.1297  1.2695
  541MOL0     H74628   8.081   1.062   6.967  0.7300 -0.8444  0.3935
  541MOL0     H74629   8.228   1.015   7.048 -0.5113  0.5634  2.8547
  541MOL0     H74630   8.141   1.293   6.960  1.1050  1.6487 -3.5222
  541MOL0     H74631   8.298   1.267   7.037  1.6247 -1.0552 -1.9632
  541MOL0     H74632   8.222   1.147   6.778 -0.5967  0.4219  0.4146
  541MOL0     H74633   8.347   1.078   6.883  0.7548 -0.8702 -1.5626
  541MOL0     H74634   8.477   1.306   6.869  1.5613  1.6427 -3.5833
  541MOL0     H74635   8.329   1.369   6.786 -0.3428  0.1631  0.4695
  541MOL0     H74636   8.505   1.136   6.695 -1.2240  0.2692  2.2016
  541MOL0     H74637   8.521   1.298   6.625 -0.0210 -1.4855 -0.9903
  541MOL0     H74638   7.872   0.843   7.576 -0.7240 -0.0219  0.0021
  541MOL0     H74639   7.733   0.841   7.762  3.3907 -0.5548  0.2202
  541MOL0     H74640   7.337   1.143   7.956  0.9876 -0.6733 -0.7447
  541MOL0     H74641   7.175   1.132   8.124  0.6408 -0.6428 -1.7888
  541MOL0     H74642   5.684   1.779   8.585 -0.0122  2.7839  0.3426
  541MOL0     H74643   5.483   1.701   8.475  0.6655  2.0400 -0.4466
  541MOL0     H74644   4.906   1.887   8.462  0.0722  0.4915  0.7814
  541MOL0     H74645   4.696   1.816   8.445 -1.1800  0.2353  1.6899
  541MOL0     H74646   4.521   1.714   8.383  1.0941 -0.0295 -0.0288
  541MOL0     H74647   4.400   1.612   8.448 -0.7700  1.9703 -1.2041
  541MOL0     H74648   4.528   1.845   8.612 -0.2841  2.1011  0.2375
  541MOL0     H74649   4.412   1.721   8.666 -2.8836 -1.0788 -2.0073
  541MOL0     H74650   4.293   1.798   8.430 -0.5494 -1.4808  1.0641
  541MOL0     H74651   4.235   1.837   8.590 -0.7904  1.2909 -0.5080
  541MOL0     H74652   4.340   2.039   8.605  0.5813  2.9343 -1.3127
  541MOL0     H74653   4.254   2.041   8.457 -0.7834  1.6830  2.2046
  541MOL0     H74654   4.654   2.112   8.330  0.5416 -0.8870  0.9009
  541MOL0     H74655   4.796   1.418   8.593  3.2732 -0.0841 -1.2228
  541MOL0     H74656   5.082   1.540   8.774  3.0941 -0.3160 -1.0522
  541MOL0     H74657   4.997   1.394   8.715  0.4893 -0.7415 -2.5940
  541MOL0     H74658   5.127   1.471   8.622 -0.4251  1.9774 -0.4494
  542MOL0     O74659   9.514   0.170   5.625  0.3956  0.0241 -1.2137
  542MOL0     C74660   9.467   0.146   5.734  0.2859  0.4657 -1.0479
  542MOL0     O74661   9.531   0.119   5.848  0.1553 -0.3984 -0.5945
  542MOL0     C74662   9.659   0.157   5.856  0.3701 -0.5315  0.7372
  542MOL0     C74663   9.687   0.292   5.841  0.1921  0.2834 -0.2800
  542MOL0     C74664   9.820   0.331   5.854 -0.6162 -0.1050  0.0460
  542MOL0     C74665   9.919   0.237   5.887  0.0679  0.1568 -0.6158
  542MOL0     O74666  10.048   0.287   5.903  0.3865 -0.3951  0.0885
  542MOL0     C74667  10.160   0.198   5.904 -0.4285  0.0116  0.1619
  542MOL0     C74668  10.188   0.109   5.784 -0.4609 -0.2948  0.2901
  542MOL0     C74669  10.232   0.197   5.663  0.1318 -0.0342  0.3215
  542MOL0     C74670  10.257   0.105   5.539 -0.3730  0.4060  0.5001
  542MOL0     C74671  10.318   0.188   5.426  0.2091 -0.6046  0.1914
  542MOL0     C74672  10.360   0.120   5.295  0.4609  1.0171  0.1909
  542MOL0     C74673  10.459   0.203   5.210  0.0502 -0.0392 -0.6431
  542MOL0     C74674  10.399   0.209   5.064 -0.3547  0.8395 -0.4038
  542MOL0     N74675  10.504   0.229   4.965 -0.1013  0.2976 -0.3567
  542MOL0     C74676  10.618   0.151   4.953  0.1733 -0.8829 -0.0993
  542MOL0     C74677  10.675   0.198   4.835  0.5254  0.1710 -1.0895
  542MOL0     C74678  10.802   0.153   4.779  0.2335 -0.4964  0.3943
  542MOL0     C74679  10.913   0.244   4.817  0.7023 -0.4732  0.3986
  542MOL0     C74680  11.049   0.204   4.756 -0.1589  0.0126  0.0358
  542MOL0     C74681  11.108   0.068   4.782  0.2311 -0.2844 -0.6313
  542MOL0     O74682  11.147   0.052   4.920 -0.0300  1.0450 -0.3078
  542MOL0     C74683  11.270  -0.003   4.959 -0.0492  0.3022  0.7262
  542MOL0     C74684  11.369  -0.058   4.877 -0.1999 -0.1196  0.4410
  542MOL0     C74685  11.482  -0.119   4.922  0.1647  0.1873  0.2915
  542MOL0     C74686  11.574  -0.161   4.815  0.5336  0.8936  0.1550
  542MOL0     C74687  11.506  -0.133   5.057  0.5872 -0.5308 -0.2940
  542MOL0     C74688  11.617  -0.219   5.115 -0.3562  0.2508 -0.2844
  542MOL0     O74689  11.639  -0.210   5.243 -0.2230 -0.3594  0.4931
  542MOL0     C74690  11.762  -0.258   5.289  0.7253 -0.2790 -0.0723
  542MOL0     C74691  11.885  -0.215   5.246 -0.2804  0.1359 -0.4296
  542MOL0     C74692  11.997  -0.259   5.316 -0.1768  0.2701 -0.1182
  542MOL0     C74693  11.990  -0.347   5.423 -0.9678  0.0487 -0.1067
  542MOL0     O74694  12.109  -0.361   5.500  0.3252 -0.2082  0.3846
  542MOL0     C74695  12.095  -0.306   5.638 -0.9295  0.4829  1.2459
  542MOL0     C74696  12.240  -0.310   5.705  0.7280  0.3846  0.0692
  542MOL0     C74697  12.239  -0.241   5.843  0.8100  0.9099 -0.9010
  542MOL0     C74698  12.176  -0.334   5.948  0.2057 -0.8349 -0.0983
  542MOL0     C74699  12.189  -0.276   6.089 -0.0437 -0.8105 -0.4379
  542MOL0     C74700  12.174  -0.364   6.211  0.0487  0.1697  0.2477
  542MOL0     C74701  12.198  -0.277   6.337 -0.0206 -0.0215  0.2167
  542MOL0     C74702  12.328  -0.201   6.336 -0.0404  0.3967 -0.3102
  542MOL0    Cl74703  12.351  -0.146   6.501  0.0092  0.1722  0.1556
  542MOL0     C74704  11.865  -0.391   5.459  0.8367 -0.0343 -0.5496
  542MOL0     C74705  11.753  -0.346   5.393  0.0882  0.8550  0.0535
  542MOL0     O74706  11.694  -0.273   5.039  0.2110  0.5004 -0.1841
  542MOL0     C74707  11.406  -0.080   5.140 -0.0450 -0.1068 -0.2744
  542MOL0     C74708  11.292  -0.017   5.099  0.0079  0.5833  0.5933
  542MOL0     N74709  10.600   0.306   4.791  0.2060  0.0546 -0.0744
  542MOL0     N74710  10.498   0.326   4.869 -0.6008  0.7185  0.3139
  542MOL0     C74711   9.892   0.102   5.889  1.0935  0.6426  0.0503
  542MOL0     C74712   9.759   0.062   5.881  0.9104  0.7024 -0.5133
  542MOL0     C74713   9.320   0.150   5.741  0.9607 -0.4872  0.4238
  542MOL0     C74714   9.250   0.253   5.809 -0.5297 -0.0057  0.3697
  542MOL0     C74715   9.112   0.261   5.823 -0.0169 -0.0613 -0.5848
  542MOL0     C74716   9.035   0.180   5.736 -0.1082  0.6904 -0.0300
  542MOL0     O74717   8.897   0.192   5.731  0.6773  0.2498 -0.3821
  542MOL0     C74718   8.828   0.286   5.816 -0.0213  0.6520 -0.4542
  542MOL0     C74719   8.683   0.289   5.760  0.1331 -0.2866 -0.7215
  542MOL0     C74720   8.610   0.160   5.795  0.4269  0.3297 -1.0359
  542MOL0     C74721   8.463   0.153   5.751  0.0085 -0.0858  0.6692
  542MOL0     C74722   8.373   0.264   5.781 -0.1266  1.2208 -0.0537
  542MOL0     C74723   8.297   0.355   5.807  0.3093 -0.0639 -0.2082
  542MOL0     C74724   9.097   0.076   5.668 -0.1991  1.0221  0.2002
  542MOL0     C74725   9.239   0.055   5.667  0.7623 -0.1019 -0.1980
  542MOL0     C74726   9.307  -0.062   5.597 -0.0798  0.5690  0.5236
  542MOL0     H74727   9.618   0.373   5.821  0.0622  0.1931 -0.1986
  542MOL0     H74728   9.852   0.432   5.830  2.6307 -1.5441 -2.5889
  542MOL0     H74729  10.145   0.130   5.988 -3.4547  2.3718  1.7731
  542MOL0     H74730  10.246   0.260   5.929 -1.4171  0.5817  2.4562
  542MOL0     H74731  10.269   0.042   5.815 -1.8743 -1.8455  0.7892
  542MOL0     H74732  10.100   0.052   5.752  0.3971 -1.6579  0.2439
  542MOL0     H74733  10.164   0.283   5.660  0.8056  0.6868  2.9098
  542MOL0     H74734  10.331   0.235   5.687  0.4768 -1.9114  2.2296
  542MOL0     H74735  10.330   0.025   5.554 -0.1607  0.4324 -0.3400
  542MOL0     H74736  10.165   0.064   5.496  0.2033  0.0201 -0.3964
  542MOL0     H74737  10.398   0.250   5.467 -0.5756  0.7088 -0.2113
  542MOL0     H74738  10.250   0.266   5.392  1.0461  0.3606  0.6713
  542MOL0     H74739  10.415   0.027   5.314  0.2895  1.0559  0.9072
  542MOL0     H74740  10.269   0.099   5.237 -1.0616  1.3269  2.3398
  542MOL0     H74741  10.556   0.155   5.229 -0.9069 -1.9836 -0.3982
  542MOL0     H74742  10.471   0.304   5.250  1.0112 -1.0491  1.8392
  542MOL0     H74743  10.353   0.111   5.049  0.1355  0.4676  0.4376
  542MOL0     H74744  10.331   0.293   5.047 -2.3089 -0.3040  1.3332
  542MOL0     H74745  10.650   0.062   5.006 -1.3173 -0.6069  1.3831
  542MOL0     H74746  10.791   0.160   4.671 -0.6377 -2.0697  0.3526
  542MOL0     H74747  10.822   0.048   4.801 -1.9447 -0.4655  3.0830
  542MOL0     H74748  10.891   0.341   4.771 -1.6034 -1.1266  0.0333
  542MOL0     H74749  10.923   0.247   4.925  1.5668 -0.3203  0.3216
  542MOL0     H74750  11.035   0.217   4.648 -0.9276  0.5158  0.1918
  542MOL0     H74751  11.116   0.285   4.787  0.7589 -0.2402 -1.2074
  542MOL0     H74752  11.036  -0.008   4.751  1.0650 -1.6124  0.5830
  542MOL0     H74753  11.194   0.068   4.714 -0.6912  2.0756 -1.9167
  542MOL0     H74754  11.356  -0.047   4.770  0.5761 -0.0166  0.3513
  542MOL0     H74755  11.612  -0.264   4.820 -1.0365  0.1525 -1.8647
  542MOL0     H74756  11.667  -0.103   4.815 -0.1360  2.0261 -1.4484
  542MOL0     H74757  11.531  -0.154   4.715  0.1190  0.1023  0.2672
  542MOL0     H74758  11.901  -0.132   5.177 -0.5804  1.5953  1.2018
  542MOL0     H74759  12.096  -0.223   5.292  0.3067 -0.6901  0.3799
  542MOL0     H74760  12.066  -0.201   5.628 -0.1272  0.5057 -1.9920
  542MOL0     H74761  12.034  -0.373   5.699 -1.1392 -0.3184  0.1843
  542MOL0     H74762  12.286  -0.409   5.708  0.3093  0.0695 -2.1809
  542MOL0     H74763  12.302  -0.253   5.636 -1.3447  2.6396 -0.0465
  542MOL0     H74764  12.176  -0.151   5.840  0.3049  0.5419 -1.6465
  542MOL0     H74765  12.341  -0.211   5.870 -0.3451  1.2052  4.1848
  542MOL0     H74766  12.242  -0.421   5.948  0.7819 -0.4028 -0.4578
  542MOL0     H74767  12.074  -0.369   5.925  0.1674 -0.9493  0.2436
  542MOL0     H74768  12.283  -0.219   6.087  0.3363 -1.3923  0.4619
  542MOL0     H74769  12.108  -0.204   6.103  0.9242  0.4786 -1.1252
  542MOL0     H74770  12.244  -0.448   6.213  0.9373  0.8760 -0.4428
  542MOL0     H74771  12.075  -0.410   6.215 -0.4315  1.0855 -0.6578
  542MOL0     H74772  12.197  -0.338   6.428  1.4978 -0.2973  0.0742
  542MOL0     H74773  12.118  -0.203   6.343  2.1821  2.5257 -0.3831
  542MOL0     H74774  12.327  -0.118   6.265 -0.1325 -0.5595 -1.4536
  542MOL0     H74775  12.410  -0.264   6.303 -0.3157  0.2127 -0.6498
  542MOL0     H74776  11.855  -0.463   5.540 -0.7207 -0.1593 -0.8305
  542MOL0     H74777  11.658  -0.390   5.423  0.4106 -0.1820 -0.3915
  542MOL0     H74778  11.418  -0.095   5.247 -0.2522 -1.7792 -0.4467
  542MOL0     H74779  11.221   0.019   5.173  1.3150  0.0483  2.1661
  542MOL0     H74780   9.966   0.028   5.917  2.3871  1.9327  0.1751
  542MOL0     H74781   9.722  -0.039   5.896  0.1465  1.1055  0.4416
  542MOL0     H74782   9.301   0.335   5.860  0.9526  0.7731 -2.1753
  542MOL0     H74783   9.070   0.347   5.874 -0.0485 -0.3510 -0.1207
  542MOL0     H74784   8.827   0.254   5.921 -2.3402 -0.0830 -0.6267
  542MOL0     H74785   8.868   0.387   5.807  0.1898  1.0102  3.0601
  542MOL0     H74786   8.682   0.300   5.652 -2.3813 -0.3862 -0.7602
  542MOL0     H74787   8.624   0.372   5.801  0.7704 -0.1569 -0.0447
  542MOL0     H74788   8.651   0.069   5.749 -1.3278 -0.6028 -0.8501
  542MOL0     H74789   8.600   0.150   5.903 -1.1223  0.9775 -1.0860
  542MOL0     H74790   8.430   0.054   5.784  2.1005 -0.6522  1.1708
  542MOL0     H74791   8.474   0.141   5.643 -1.0726 -0.8193  0.6262
  542MOL0     H74792   8.240   0.445   5.815 -2.0456 -1.1496 -3.0295
  542MOL0     H74793   9.036   0.009   5.608 -0.1345 -0.5173  1.7767
  542MOL0     H74794   9.240  -0.143   5.568  2.1442 -1.3197  0.3832
  542MOL0     H74795   9.344  -0.027   5.501 -1.2199  0.9741  0.2171
  542MOL0     H74796   9.380  -0.100   5.669 -1.1667  2.6196  2.8510
  543MOL0     O74797   6.380   1.869   2.435 -0.4717 -0.1531  0.2804
  543MOL0     C74798   6.355   1.978   2.486 -0.6091  0.2687 -0.8347
  543MOL0     O74799   6.442   2.085   2.484  0.4795 -0.3297 -0.1895
  543MOL0     C74800   6.572   2.057   2.461 -0.5130  0.9533  1.1676
  543MOL0     C74801   6.645   2.005   2.570  0.5301 -0.5662  0.6392
  543MOL0     C74802   6.778   1.972   2.555 -0.0667 -1.2496  0.0132
  543MOL0     C74803   6.842   1.986   2.429  0.4860 -0.1096  0.2118
  543MOL0     O74804   6.966   1.933   2.420  0.4147  0.0714  0.2305
  543MOL0     C74805   7.060   2.012   2.357 -0.1774 -0.5231 -1.0536
  543MOL0     C74806   7.089   2.152   2.430 -0.3486 -0.3559 -0.1111
  543MOL0     C74807   7.094   2.154   2.584 -0.7944  0.6493 -0.3068
  543MOL0     C74808   7.202   2.073   2.650  0.2821 -0.2581 -0.6698
  543MOL0     C74809   7.202   2.100   2.800 -0.0394 -0.9300  0.0631
  543MOL0     C74810   7.299   1.990   2.865  0.2954  0.0641 -0.7786
  543MOL0     C74811   7.355   2.039   3.006 -0.4000  0.5722  1.0132
  543MOL0     C74812   7.257   2.046   3.116 -0.5404 -0.6872  0.6420
  543MOL0     N74813   7.308   1.999   3.245  1.0489 -1.1235 -0.8376
  543MOL0     C74814   7.410   2.058   3.307 -0.4982  0.1995 -0.0065
  543MOL0     C74815   7.427   1.963   3.403 -1.0995  0.0499 -0.3000
  543MOL0     C74816   7.531   1.981   3.508  0.3204  0.8218 -0.2532
  543MOL0     C74817   7.672   1.935   3.470 -0.4732 -0.8577 -0.2337
  543MOL0     C74818   7.770   1.957   3.583  0.1366 -0.4560 -0.2260
  543MOL0     C74819   7.822   2.095   3.612 -0.1567 -0.2131  0.1734
  543MOL0     O74820   7.914   2.084   3.721  0.8474 -0.5446  0.5949
  543MOL0     C74821   8.042   2.063   3.678  0.0359  0.5868 -0.1750
  543MOL0     C74822   8.120   2.154   3.607 -0.9619  0.9758  0.0007
  543MOL0     C74823   8.247   2.120   3.563  0.4853  0.3242 -0.7297
  543MOL0     C74824   8.331   2.228   3.498  0.2570  0.4855  1.2016
  543MOL0     C74825   8.294   1.987   3.575  0.0478  0.4969  0.1771
  543MOL0     C74826   8.417   1.930   3.509  0.0210  0.0145 -0.2142
  543MOL0     O74827   8.472   1.815   3.568 -0.7989  0.6244  0.1336
  543MOL0     C74828   8.566   1.730   3.506  0.3325 -0.2789 -0.0721
  543MOL0     C74829   8.567   1.709   3.366 -0.2857 -1.0216 -0.9898
  543MOL0     C74830   8.654   1.607   3.315 -0.0164 -0.2309  0.0891
  543MOL0     C74831   8.725   1.524   3.390  0.7458 -0.3970  0.0460
  543MOL0     O74832   8.785   1.420   3.318  0.7669 -0.3191 -0.0249
  543MOL0     C74833   8.899   1.348   3.372  0.5980  0.2637 -0.4708
  543MOL0     C74834   8.853   1.197   3.392 -0.3978  0.3503 -0.3074
  543MOL0     C74835   8.976   1.104   3.429 -0.1118 -0.5411  0.3878
  543MOL0     C74836   9.040   1.156   3.562  0.6878 -0.0048 -0.1025
  543MOL0     C74837   9.133   1.051   3.611 -0.8133  0.1363 -0.3493
  543MOL0     C74838   9.202   1.089   3.749  0.3620  1.1755  0.1657
  543MOL0     C74839   9.289   0.971   3.801 -0.1872  0.6030  0.2978
  543MOL0     C74840   9.261   0.942   3.946  0.7961 -0.2369  0.3098
  543MOL0    Cl74841   9.370   0.811   4.003  0.1919  0.3454 -0.0170
  543MOL0     C74842   8.721   1.538   3.528  0.2900  1.0143 -0.1694
  543MOL0     C74843   8.643   1.637   3.586  0.1687 -0.2291 -0.7104
  543MOL0     O74844   8.473   1.993   3.427 -0.3271  0.4390 -0.1150
  543MOL0     C74845   8.216   1.896   3.646  0.0890 -0.7134  0.2005
  543MOL0     C74846   8.097   1.935   3.703  0.6413 -0.3335 -0.2455
  543MOL0     N74847   7.342   1.858   3.399 -0.2241 -0.0705  0.3216
  543MOL0     N74848   7.278   1.879   3.295  0.4261  0.2920  0.7958
  543MOL0     C74849   6.765   2.018   2.313 -0.3655  1.0262 -0.6198
  543MOL0     C74850   6.638   2.068   2.334  0.2978 -0.4512  0.3594
  543MOL0     C74851   6.218   2.001   2.540  0.3764  0.1870 -0.0617
  543MOL0     C74852   6.124   1.895   2.544  0.0721  0.3922 -0.1620
  543MOL0     C74853   5.992   1.912   2.594  0.9603  0.7081 -0.8671
  543MOL0     C74854   5.953   2.035   2.652  0.1347  0.4816 -1.0476
  543MOL0     O74855   5.836   2.064   2.727 -0.8374 -0.6774 -0.0720
  543MOL0     C74856   5.758   1.954   2.779 -1.1103  0.0090 -0.1721
  543MOL0     C74857   5.666   2.006   2.893 -0.6976  0.2679  0.0071
  543MOL0     C74858   5.573   2.111   2.833  0.3813 -0.2634 -0.2046
  543MOL0     C74859   5.458   2.146   2.925 -0.8965 -0.7139  0.6677
  543MOL0     C74860   5.389   2.263   2.858  0.4704  0.8654 -1.2408
  543MOL0     C74861   5.353   2.356   2.788  0.2910 -0.6337 -0.4342
  543MOL0     C74862   6.043   2.136   2.646  0.0902 -0.8352 -0.7746
  543MOL0     C74863   6.168   2.124   2.588 -0.1828  0.6041 -0.4215
  543MOL0     C74864   6.250   2.248   2.579 -0.2094  0.2875 -0.3097
  543MOL0     H74865   6.596   2.014   2.667 -0.3741 -0.1363  0.1490
  543MOL0     H74866   6.837   1.962   2.646  1.3103 -0.0536 -0.7065
  543MOL0     H74867   7.036   2.027   2.252 -2.9556  2.0570 -0.1747
  543MOL0     H74868   7.152   1.955   2.373  0.9595  1.5864  0.3924
  543MOL0     H74869   7.187   2.183   2.395 -0.0388 -1.6528 -0.4162
  543MOL0     H74870   7.023   2.232   2.395  4.1251  3.1735 -1.4469
  543MOL0     H74871   7.102   2.255   2.625  0.5404 -0.2021  1.6630
  543MOL0     H74872   6.995   2.113   2.610 -0.9631  1.7467  0.9333
  543MOL0     H74873   7.194   1.965   2.635 -0.9287 -0.0985 -1.2742
  543MOL0     H74874   7.293   2.103   2.598  0.8959 -0.1473  0.4327
  543MOL0     H74875   7.106   2.076   2.846 -0.9522 -0.7958 -1.7074
  543MOL0     H74876   7.244   2.199   2.820  1.1677 -1.3670 -0.2124
  543MOL0     H74877   7.246   1.897   2.888 -0.1881  1.0342  2.5812
  543MOL0     H74878   7.379   1.973   2.792  0.3874 -2.6640 -0.1400
  543MOL0     H74879   7.397   2.138   2.991  1.0735 -0.4703 -2.6307
  543MOL0     H74880   7.430   1.962   3.025 -0.4175 -0.4303 -2.3292
  543MOL0     H74881   7.207   2.143   3.129  1.1827  0.1133  1.6319
  543MOL0     H74882   7.180   1.973   3.087 -2.3317  1.0552  0.8100
  543MOL0     H74883   7.466   2.148   3.281  0.6976  0.0804  1.9905
  543MOL0     H74884   7.504   1.921   3.595 -1.2556  3.8924  1.5556
  543MOL0     H74885   7.532   2.085   3.542  0.7341 -0.1838  3.2483
  543MOL0     H74886   7.674   1.830   3.441  0.8278 -0.5405 -1.4480
  543MOL0     H74887   7.708   1.993   3.384  0.8728  0.6439  1.2660
  543MOL0     H74888   7.731   1.924   3.680 -1.8134  1.3245 -0.3203
  543MOL0     H74889   7.857   1.898   3.552  0.5779  0.5052 -0.8440
  543MOL0     H74890   7.868   2.137   3.522 -0.9514 -0.9125 -0.5702
  543MOL0     H74891   7.741   2.160   3.646 -0.8342 -1.9064  1.9413
  543MOL0     H74892   8.080   2.255   3.607 -2.6405  0.3889  1.9586
  543MOL0     H74893   8.373   2.208   3.399  2.3122  0.3527  2.0560
  543MOL0     H74894   8.414   2.258   3.562  0.3282  1.4448  0.6762
  543MOL0     H74895   8.278   2.321   3.476 -1.1380 -1.2901 -5.0261
  543MOL0     H74896   8.496   1.758   3.299 -2.6555  0.4264  2.3122
  543MOL0     H74897   8.661   1.594   3.207 -0.3334 -0.2562  0.0688
  543MOL0     H74898   8.990   1.357   3.313  0.6087  2.1210 -0.2197
  543MOL0     H74899   8.927   1.397   3.466 -1.8630 -2.3021  1.7823
  543MOL0     H74900   8.769   1.191   3.462 -1.1791 -0.7474 -1.2910
  543MOL0     H74901   8.807   1.156   3.302 -1.3058  1.0557 -0.1718
  543MOL0     H74902   9.052   1.095   3.351 -1.8050 -3.9916 -1.0686
  543MOL0     H74903   8.947   0.999   3.438  1.0043 -0.9459 -0.4732
  543MOL0     H74904   8.953   1.155   3.629 -0.2329 -1.8689 -1.2508
  543MOL0     H74905   9.084   1.256   3.560  1.6113 -0.2976  2.0244
  543MOL0     H74906   9.089   0.951   3.612 -0.5245 -0.0356  2.1543
  543MOL0     H74907   9.202   1.039   3.527 -0.5249 -0.8899  0.0197
  543MOL0     H74908   9.118   1.091   3.818  0.9196  0.5020  0.8886
  543MOL0     H74909   9.260   1.179   3.730  2.8699 -0.1707  0.9166
  543MOL0     H74910   9.395   0.993   3.785 -0.4665 -0.5876 -5.8851
  543MOL0     H74911   9.256   0.883   3.744 -3.5068  1.8767  0.0424
  543MOL0     H74912   9.156   0.915   3.960  0.0081  2.8179  1.0040
  543MOL0     H74913   9.280   1.030   4.008 -1.8218  0.9185 -0.3542
  543MOL0     H74914   8.773   1.463   3.587 -1.4717  0.6904  1.0347
  543MOL0     H74915   8.637   1.655   3.693 -0.8219  3.0462 -1.2022
  543MOL0     H74916   8.243   1.791   3.654  1.7643 -0.3554 -0.4628
  543MOL0     H74917   8.033   1.867   3.758 -2.5984  3.3516  1.1172
  543MOL0     H74918   6.803   2.012   2.211 -1.3004  1.4539 -1.0098
  543MOL0     H74919   6.569   2.095   2.255 -0.7191  0.4573  1.5081
  543MOL0     H74920   6.153   1.802   2.496 -1.3023  0.6261 -1.5094
  543MOL0     H74921   5.928   1.826   2.610 -0.5375  2.0938  1.0743
  543MOL0     H74922   5.691   1.916   2.701 -1.0615  0.4101 -0.4098
  543MOL0     H74923   5.831   1.879   2.813 -0.1727  0.5809 -0.8888
  543MOL0     H74924   5.732   2.048   2.971 -0.4810  0.9430 -0.5243
  543MOL0     H74925   5.617   1.920   2.939 -0.5222  0.8864  1.4056
  543MOL0     H74926   5.631   2.199   2.805  0.6586  0.3779  2.2078
  543MOL0     H74927   5.537   2.075   2.736 -0.2360  1.8458 -0.8127
  543MOL0     H74928   5.488   2.170   3.027 -0.4057  0.0434  0.3524
  543MOL0     H74929   5.390   2.060   2.923  0.1265 -1.5326  0.2035
  543MOL0     H74930   5.323   2.446   2.740 -0.5035 -0.8164 -0.2837
  543MOL0     H74931   6.001   2.227   2.688 -3.5780 -2.5111 -0.3920
  543MOL0     H74932   6.295   2.271   2.482  0.0504 -1.2700 -0.5982
  543MOL0     H74933   6.189   2.335   2.601 -0.9899 -0.2248 -0.4289
  543MOL0     H74934   6.327   2.243   2.657 -0.2671 -0.6319 -0.2937
  544MOL0     O74935   7.672   3.579   8.532 -1.0294 -0.2989  1.0254
  544MOL0     C74936   7.648   3.683   8.589  0.5752  0.7125  0.0977
  544MOL0     O74937   7.720   3.741   8.695  0.0732  0.5984 -0.0272
  544MOL0     C74938   7.819   3.660   8.744  0.0105 -0.0042  0.4761
  544MOL0     C74939   7.782   3.555   8.828  0.3264 -1.1661 -0.5233
  544MOL0     C74940   7.879   3.496   8.916  0.5146  0.3165  0.2730
  544MOL0     C74941   8.015   3.520   8.906  0.0617  0.4303  0.5516
  544MOL0     O74942   8.111   3.475   8.992 -0.2796 -0.2211 -0.3703
  544MOL0     C74943   8.087   3.448   9.131  0.3827 -1.1672  0.1581
  544MOL0     C74944   8.202   3.364   9.205  0.6462 -0.3236 -0.3938
  544MOL0     C74945   8.329   3.451   9.214  0.5805 -0.1009  0.1134
  544MOL0     C74946   8.438   3.356   9.274 -0.3034 -0.5306  0.6240
  544MOL0     C74947   8.574   3.412   9.263  0.0907 -0.7568 -0.2166
  544MOL0     C74948   8.671   3.328   9.352  0.2981  0.4486  0.7597
  544MOL0     C74949   8.821   3.334   9.313  0.3062  0.3260 -0.3265
  544MOL0     C74950   8.911   3.261   9.407  0.5449  0.0053 -0.4817
  544MOL0     N74951   9.054   3.250   9.358  0.2041  0.5014  0.2549
  544MOL0     C74952   9.166   3.324   9.383  0.5042 -0.7510 -0.2239
  544MOL0     C74953   9.263   3.274   9.302  0.3006  0.4036  0.1001
  544MOL0     C74954   9.408   3.322   9.301  0.7945 -0.3343  0.4458
  544MOL0     C74955   9.506   3.211   9.252 -0.1170 -0.5628 -0.1077
  544MOL0     C74956   9.648   3.274   9.263  1.0588 -0.0820 -0.2006
  544MOL0     C74957   9.763   3.182   9.225 -0.5661  0.2827 -0.6373
  544MOL0     O74958   9.880   3.252   9.205  0.3074 -0.0302 -0.4749
  544MOL0     C74959   9.995   3.189   9.171 -0.1145 -0.5416  0.4005
  544MOL0     C74960  10.006   3.055   9.141 -0.3958 -0.1205  0.0776
  544MOL0     C74961  10.127   3.002   9.094 -0.0622 -0.5197  0.3052
  544MOL0     C74962  10.138   2.856   9.085  0.2648  0.3998 -0.8478
  544MOL0     C74963  10.230   3.091   9.084  1.9541 -0.5462 -0.1906
  544MOL0     C74964  10.371   3.049   9.056  0.3495 -0.0290 -0.7474
  544MOL0     O74965  10.465   3.143   9.066 -0.5794  0.5513  0.0644
  544MOL0     C74966  10.600   3.109   9.064 -0.1837 -0.2379 -0.2858
  544MOL0     C74967  10.668   3.139   8.945 -0.1085  0.4842  0.2812
  544MOL0     C74968  10.813   3.123   8.946  0.3604 -0.2052 -0.2570
  544MOL0     C74969  10.881   3.069   9.055  0.6055  0.0511 -0.3899
  544MOL0     O74970  11.009   3.039   9.042 -0.3940  0.2547 -0.2046
  544MOL0     C74971  11.071   2.939   9.121 -0.5306 -0.2536 -0.4692
  544MOL0     C74972  11.222   2.894   9.081  0.0391  0.5482  0.3041
  544MOL0     C74973  11.329   2.986   9.150 -0.6687  0.4433 -0.3061
  544MOL0     C74974  11.364   2.939   9.286 -0.4499 -0.4464 -0.5236
  544MOL0     C74975  11.445   3.048   9.355 -0.1420 -0.2156  0.8297
  544MOL0     C74976  11.478   2.996   9.498 -0.2438  0.1322  0.4580
  544MOL0     C74977  11.577   2.874   9.508  0.4545  0.4292 -0.7021
  544MOL0     C74978  11.725   2.909   9.469  0.8582  0.0051 -0.5088
  544MOL0    Cl74979  11.798   3.016   9.573  0.0199  0.2087  0.3400
  544MOL0     C74980  10.800   3.038   9.167 -0.0778  0.0468  0.3404
  544MOL0     C74981  10.660   3.048   9.173 -0.2198 -0.5975  0.2622
  544MOL0     O74982  10.399   2.929   9.038  0.0998 -0.5184 -0.6316
  544MOL0     C74983  10.203   3.223   9.103  0.5115  0.1388 -0.8118
  544MOL0     C74984  10.088   3.272   9.136 -0.4034  0.0304 -0.2649
  544MOL0     N74985   9.209   3.162   9.242  0.1336 -0.0856 -0.0196
  544MOL0     N74986   9.086   3.160   9.265  0.9583  1.2911 -0.7763
  544MOL0     C74987   8.048   3.613   8.807  0.9179  0.6988 -0.7658
  544MOL0     C74988   7.957   3.686   8.731 -0.2257 -0.3255  0.7747
  544MOL0     C74989   7.515   3.731   8.542 -1.0074  0.0256 -0.8625
  544MOL0     C74990   7.451   3.809   8.644  0.4359 -0.5202  0.2803
  544MOL0     C74991   7.330   3.877   8.619 -0.9064 -0.0425 -0.2425
  544MOL0     C74992   7.276   3.867   8.493 -0.8014 -0.2348 -0.5438
  544MOL0     O74993   7.160   3.923   8.461  0.4162 -0.5543 -0.1276
  544MOL0     C74994   7.075   3.989   8.555 -0.0376  0.3010 -0.5826
  544MOL0     C74995   6.939   4.033   8.492 -0.0833 -0.7309  0.6197
  544MOL0     C74996   6.967   4.136   8.380  1.1498 -0.4505  0.0864
  544MOL0     C74997   6.996   4.066   8.242  1.1002 -0.0709  0.1985
  544MOL0     C74998   6.948   4.133   8.117 -0.2481 -0.2333 -0.0373
  544MOL0     C74999   6.911   4.200   8.022 -0.1145  0.9107  0.3627
  544MOL0     C75000   7.335   3.796   8.390  0.0341  0.0703  0.2337
  544MOL0     C75001   7.456   3.723   8.414 -1.1617  0.0825  0.5246
  544MOL0     C75002   7.526   3.668   8.294  0.0806  0.7237  0.0154
  544MOL0     H75003   7.676   3.536   8.841  0.1992  0.3069  0.9205
  544MOL0     H75004   7.851   3.424   8.992  0.6943  0.0778  0.1118
  544MOL0     H75005   7.993   3.397   9.156 -0.2996 -0.5219 -1.0046
  544MOL0     H75006   8.086   3.545   9.181  0.2637 -1.5436  0.8989
  544MOL0     H75007   8.167   3.341   9.307  0.5546 -1.1751 -0.6130
  544MOL0     H75008   8.222   3.265   9.163  2.1356  0.3015 -1.2331
  544MOL0     H75009   8.359   3.495   9.119 -0.8570  2.5131  0.7678
  544MOL0     H75010   8.326   3.537   9.282  1.1767 -0.2675  0.3553
  544MOL0     H75011   8.435   3.343   9.382  0.4687 -0.3415  0.6705
  544MOL0     H75012   8.437   3.263   9.215 -2.7509  0.4999 -1.1776
  544MOL0     H75013   8.577   3.517   9.294 -0.8751 -0.9604  0.6190
  544MOL0     H75014   8.604   3.414   9.158  2.7675 -1.3096  0.4510
  544MOL0     H75015   8.666   3.356   9.458  0.7037 -1.7459  1.3935
  544MOL0     H75016   8.636   3.227   9.331  1.1729 -0.1000  1.8658
  544MOL0     H75017   8.851   3.439   9.323 -2.0762  0.9798  0.6896
  544MOL0     H75018   8.819   3.310   9.206 -4.4155  1.6932 -0.7841
  544MOL0     H75019   8.903   3.305   9.506 -5.4929 -2.3621  0.5013
  544MOL0     H75020   8.873   3.159   9.418 -2.8592  1.1872  0.1623
  544MOL0     H75021   9.173   3.410   9.449 -0.1083 -0.8979  0.0327
  544MOL0     H75022   9.430   3.363   9.400 -0.6619 -1.8641  1.4627
  544MOL0     H75023   9.396   3.397   9.223 -1.2925 -1.2419 -0.1892
  544MOL0     H75024   9.489   3.124   9.315 -1.0195 -0.0241  0.4155
  544MOL0     H75025   9.474   3.174   9.154 -4.3384  1.1304  0.4273
  544MOL0     H75026   9.643   3.347   9.182  0.1491 -0.4412 -0.4906
  544MOL0     H75027   9.654   3.307   9.367  0.7870 -0.8889  0.0858
  544MOL0     H75028   9.783   3.120   9.313  0.6334  1.7324  0.1646
  544MOL0     H75029   9.742   3.127   9.133 -0.0884  3.8368 -3.0530
  544MOL0     H75030   9.917   2.994   9.147 -0.8928  0.6017  0.0603
  544MOL0     H75031  10.214   2.825   9.158 -0.2371  1.9486  0.3810
  544MOL0     H75032  10.164   2.817   8.986  0.6421 -1.0495 -0.2106
  544MOL0     H75033  10.049   2.798   9.109  1.1413 -0.7353 -0.2499
  544MOL0     H75034  10.616   3.172   8.856  2.7199  0.2620 -1.6151
  544MOL0     H75035  10.879   3.142   8.861  1.4898 -0.8549  0.4565
  544MOL0     H75036  11.066   2.974   9.225  1.1826 -0.8186 -0.1589
  544MOL0     H75037  11.010   2.849   9.113 -1.4327  0.0515  2.0457
  544MOL0     H75038  11.237   2.788   9.102 -0.6536  0.6399  1.3416
  544MOL0     H75039  11.221   2.906   8.973 -0.5178  0.1068  0.2569
  544MOL0     H75040  11.289   3.085   9.169 -2.5577 -0.4317  0.5389
  544MOL0     H75041  11.416   2.993   9.084 -0.5883 -0.1278 -0.2655
  544MOL0     H75042  11.429   2.851   9.284  3.8357  2.3246  0.8017
  544MOL0     H75043  11.273   2.917   9.343  0.0574  1.5797  1.2360
  544MOL0     H75044  11.543   3.066   9.308 -0.5285  0.6520  0.3332
  544MOL0     H75045  11.387   3.141   9.358 -2.9287 -1.8870  1.1604
  544MOL0     H75046  11.387   2.965   9.551 -1.7060  1.5330 -1.1182
  544MOL0     H75047  11.505   3.088   9.550 -3.5148  0.6861  1.4500
  544MOL0     H75048  11.543   2.783   9.457 -2.4939 -0.0263  1.7983
  544MOL0     H75049  11.579   2.858   9.616 -1.2494  0.2190 -0.6738
  544MOL0     H75050  11.732   2.946   9.366  0.4906  0.0689 -0.5122
  544MOL0     H75051  11.789   2.820   9.458  1.6496  0.6884 -1.6231
  544MOL0     H75052  10.855   2.997   9.252  1.8374 -0.1586 -0.9577
  544MOL0     H75053  10.611   3.012   9.263  1.4423 -2.5884  0.4363
  544MOL0     H75054  10.281   3.292   9.073  1.2534  0.2681  1.2293
  544MOL0     H75055  10.080   3.380   9.141  1.4414  0.1933 -0.1873
  544MOL0     H75056   8.156   3.626   8.802  1.5116 -3.1442 -1.1518
  544MOL0     H75057   7.979   3.772   8.668  0.2209 -0.0511  1.3038
  544MOL0     H75058   7.491   3.816   8.744 -0.9586 -3.0858  1.1087
  544MOL0     H75059   7.290   3.933   8.703  1.1011  1.6484 -0.3307
  544MOL0     H75060   7.062   3.926   8.644 -2.2666  1.0356 -0.3378
  544MOL0     H75061   7.123   4.082   8.587  2.7035  0.1559 -3.7094
  544MOL0     H75062   6.871   4.081   8.562 -1.0590  0.5021 -1.0891
  544MOL0     H75063   6.887   3.947   8.449 -2.7289  1.7066 -1.4259
  544MOL0     H75064   6.887   4.208   8.367 -0.3516 -1.8919  0.9805
  544MOL0     H75065   7.051   4.200   8.409  0.1544  0.3517  1.3019
  544MOL0     H75066   6.954   3.965   8.243  2.3221 -0.6045  1.2509
  544MOL0     H75067   7.104   4.062   8.226  1.0605  0.7660 -0.3342
  544MOL0     H75068   6.860   4.254   7.945  0.2502  0.6184 -0.0926
  544MOL0     H75069   7.279   3.804   8.297 -0.8181  0.7884  0.8035
  544MOL0     H75070   7.561   3.567   8.318 -0.4776  0.6097  0.3552
  544MOL0     H75071   7.465   3.672   8.203 -0.0985  1.1580  0.1506
  544MOL0     H75072   7.622   3.714   8.270  0.7463 -0.1426  0.9040
  545MOL0     O75073  10.615   1.492   2.129  0.1121  0.5917 -0.3166
  545MOL0     C75074  10.538   1.400   2.120 -0.1707 -0.1401 -0.3911
  545MOL0     O75075  10.566   1.269   2.144  0.8800 -0.4724 -0.1302
  545MOL0     C75076  10.691   1.231   2.174  0.2852 -0.5125  0.7542
  545MOL0     C75077  10.810   1.291   2.117 -0.0544 -0.7896 -0.4325
  545MOL0     C75078  10.930   1.282   2.179 -0.7240  0.3828 -0.9544
  545MOL0     C75079  10.941   1.202   2.297  0.1726 -0.0941 -0.2926
  545MOL0     O75080  11.061   1.181   2.370 -0.3731 -0.0528  0.1713
  545MOL0     C75081  11.142   1.307   2.375 -0.2424 -0.4318 -0.1817
  545MOL0     C75082  11.246   1.300   2.487 -0.3980 -1.0817  0.4018
  545MOL0     C75083  11.297   1.440   2.526 -1.2121 -0.2472  0.9658
  545MOL0     C75084  11.355   1.526   2.406  0.6486  0.2205  0.1793
  545MOL0     C75085  11.422   1.655   2.443 -0.3812 -0.0854 -0.0539
  545MOL0     C75086  11.573   1.623   2.485 -0.7823  0.0116  0.7477
  545MOL0     C75087  11.644   1.734   2.551  0.7933 -1.1542 -1.0882
  545MOL0     C75088  11.785   1.686   2.590  0.0078  0.0122 -0.0651
  545MOL0     N75089  11.852   1.807   2.638  0.0561  0.5709  0.2527
  545MOL0     C75090  11.923   1.890   2.553  0.2651 -0.2888 -0.4826
  545MOL0     C75091  11.925   2.009   2.619  0.4283  0.4589 -0.1111
  545MOL0     C75092  11.981   2.141   2.568 -0.4019 -0.0786  0.6079
  545MOL0     C75093  12.140   2.151   2.578  0.3903 -0.1684 -0.3254
  545MOL0     C75094  12.215   2.050   2.487  0.0297  0.1293  0.6844
  545MOL0     C75095  12.359   2.073   2.467 -0.0705 -0.5369 -0.5060
  545MOL0     O75096  12.395   2.208   2.445 -0.0350 -0.4304 -0.0451
  545MOL0     C75097  12.526   2.244   2.471 -0.6388 -0.2571 -0.4773
  545MOL0     C75098  12.556   2.386   2.469 -0.4743 -0.2998 -0.3599
  545MOL0     C75099  12.683   2.449   2.511 -0.1136 -0.0584  0.5575
  545MOL0     C75100  12.700   2.597   2.511 -0.2557 -0.5624 -0.6185
  545MOL0     C75101  12.785   2.356   2.541  0.3001  0.9318 -0.0965
  545MOL0     C75102  12.917   2.393   2.594 -0.1976 -0.7797  0.0748
  545MOL0     O75103  12.926   2.501   2.677 -0.3920 -0.1993  0.4813
  545MOL0     C75104  13.005   2.485   2.786 -0.3754  1.0571  0.2017
  545MOL0     C75105  13.145   2.470   2.778  0.8002 -0.2804 -0.8676
  545MOL0     C75106  13.217   2.473   2.899  0.4533 -0.1074  0.4548
  545MOL0     C75107  13.167   2.490   3.026  0.7886  0.1626 -0.7053
  545MOL0     O75108  13.225   2.496   3.150  0.6216 -0.4861  0.8477
  545MOL0     C75109  13.368   2.524   3.139 -0.8971  0.1476 -0.1669
  545MOL0     C75110  13.429   2.499   3.275 -0.1094  0.9621 -0.7905
  545MOL0     C75111  13.565   2.575   3.287 -0.0931 -0.1213  0.7212
  545MOL0     C75112  13.679   2.484   3.235  0.2655 -0.1028 -0.4099
  545MOL0     C75113  13.818   2.549   3.216 -0.0913 -0.4517 -0.1929
  545MOL0     C75114  13.910   2.546   3.342 -0.8963 -0.8218  0.6063
  545MOL0     C75115  14.057   2.574   3.304 -1.4177  0.8333  0.1534
  545MOL0     C75116  14.155   2.537   3.417 -0.1907 -0.0092 -0.2123
  545MOL0    Cl75117  14.324   2.570   3.365  0.1271  0.4140 -0.1875
  545MOL0     C75118  13.031   2.515   3.031 -0.3421  0.2080 -0.1054
  545MOL0     C75119  12.950   2.503   2.915 -0.3835 -0.1792  0.1040
  545MOL0     O75120  13.013   2.312   2.576  0.9854  0.1980  0.6359
  545MOL0     C75121  12.763   2.219   2.530 -0.3517  0.7035 -0.2766
  545MOL0     C75122  12.633   2.164   2.506 -0.7758  0.1346 -0.1908
  545MOL0     N75123  11.889   1.983   2.753 -0.9700 -0.3389  0.0768
  545MOL0     N75124  11.852   1.861   2.761 -0.8986 -0.1922 -0.6019
  545MOL0     C75125  10.828   1.131   2.335 -0.0749 -0.8067 -0.8134
  545MOL0     C75126  10.704   1.147   2.279  0.6859 -0.2375  0.3305
  545MOL0     C75127  10.394   1.419   2.072  0.9563 -0.6547  0.9955
  545MOL0     C75128  10.314   1.307   2.050 -0.0246  0.4017  0.3265
  545MOL0     C75129  10.187   1.321   1.987 -0.5710 -0.4791  0.4930
  545MOL0     C75130  10.124   1.440   1.968  0.5016 -0.3033 -0.0863
  545MOL0     O75131   9.998   1.452   1.916 -0.5959 -0.2610  1.1396
  545MOL0     C75132   9.982   1.442   1.775 -0.5247 -0.6157 -0.5506
  545MOL0     C75133   9.979   1.300   1.723 -0.4518  0.5776  0.1508
  545MOL0     C75134   9.871   1.215   1.793  0.2036 -0.1337 -0.4320
  545MOL0     C75135   9.862   1.062   1.761 -0.3873  0.5919  0.0594
  545MOL0     C75136   9.967   0.978   1.813 -0.4145 -0.1424 -0.2022
  545MOL0     C75137  10.067   0.938   1.876  0.0436  0.2154 -0.1714
  545MOL0     C75138  10.200   1.552   1.996  0.3691 -0.0084 -1.2783
  545MOL0     C75139  10.333   1.547   2.044  0.7594  0.7258  0.7657
  545MOL0     C75140  10.407   1.674   2.059 -0.2578  0.8730  1.3906
  545MOL0     H75141  10.801   1.362   2.036  1.2895 -0.1334 -0.0339
  545MOL0     H75142  11.019   1.330   2.140 -0.7367  1.8889  0.7613
  545MOL0     H75143  11.089   1.401   2.391  2.9257  1.3830  0.5015
  545MOL0     H75144  11.197   1.332   2.283 -0.6611 -1.0304 -0.5977
  545MOL0     H75145  11.215   1.255   2.582  3.8388 -0.4578  2.3133
  545MOL0     H75146  11.338   1.247   2.460  0.8934  1.8024 -1.3253
  545MOL0     H75147  11.213   1.498   2.564 -0.5557  1.2092  0.2596
  545MOL0     H75148  11.373   1.443   2.604 -0.7034 -0.5436  0.4908
  545MOL0     H75149  11.430   1.469   2.349 -0.7193 -2.1248  0.5609
  545MOL0     H75150  11.274   1.545   2.335  1.0280 -0.3337 -0.4134
  545MOL0     H75151  11.362   1.709   2.517  1.4439 -0.1154  1.5236
  545MOL0     H75152  11.420   1.724   2.357  1.2103  1.3498  0.9802
  545MOL0     H75153  11.568   1.536   2.551 -3.7969 -1.1186 -0.7802
  545MOL0     H75154  11.629   1.596   2.395  0.2398 -0.9825  1.6632
  545MOL0     H75155  11.584   1.758   2.639  0.5730  0.0295 -1.5451
  545MOL0     H75156  11.640   1.823   2.487  0.4061 -0.5329 -0.2152
  545MOL0     H75157  11.794   1.607   2.665 -0.2310 -0.1515 -0.2047
  545MOL0     H75158  11.834   1.635   2.507 -0.0672  0.0655 -0.1419
  545MOL0     H75159  11.948   1.887   2.448  1.1851  1.2803 -0.3369
  545MOL0     H75160  11.934   2.221   2.626 -0.7859  0.3933 -0.3435
  545MOL0     H75161  11.942   2.159   2.468  0.2031 -2.5718 -0.1673
  545MOL0     H75162  12.170   2.249   2.541  1.8300 -1.2397 -2.1856
  545MOL0     H75163  12.177   2.146   2.681  2.0521 -1.4305 -0.9391
  545MOL0     H75164  12.197   1.953   2.535 -0.9701 -0.4786 -0.8427
  545MOL0     H75165  12.167   2.050   2.389  1.4423  2.1170 -0.0446
  545MOL0     H75166  12.410   2.030   2.555 -1.7456 -0.6770  0.4303
  545MOL0     H75167  12.397   2.016   2.382  3.3751  1.0807 -0.2476
  545MOL0     H75168  12.470   2.448   2.447 -0.2570  0.8033  1.6394
  545MOL0     H75169  12.612   2.644   2.467  0.3006  1.2878  0.1262
  545MOL0     H75170  12.793   2.618   2.457  1.2592 -3.3473  0.6814
  545MOL0     H75171  12.714   2.636   2.612  2.9528 -2.7219 -0.0625
  545MOL0     H75172  13.197   2.470   2.683  0.6587  2.5890 -1.0263
  545MOL0     H75173  13.326   2.467   2.895  0.3758 -3.5782 -3.5169
  545MOL0     H75174  13.419   2.455   3.071  0.2030  0.2603  0.5228
  545MOL0     H75175  13.386   2.626   3.101  0.8969 -1.0722 -2.9126
  545MOL0     H75176  13.359   2.533   3.353  0.3158  0.3802 -0.1415
  545MOL0     H75177  13.456   2.395   3.294  1.2608  1.5661  0.9026
  545MOL0     H75178  13.599   2.600   3.388  2.2229 -2.4658  0.6411
  545MOL0     H75179  13.560   2.662   3.222 -0.5448 -1.0501 -0.5388
  545MOL0     H75180  13.647   2.450   3.136 -0.4280  0.8121 -0.5210
  545MOL0     H75181  13.691   2.400   3.303  1.2218  0.1999 -0.1881
  545MOL0     H75182  13.861   2.499   3.128 -2.4000 -2.0254 -0.5192
  545MOL0     H75183  13.797   2.655   3.198  3.6754  0.1774 -1.9571
  545MOL0     H75184  13.902   2.444   3.381  1.9244 -1.6749 -0.7678
  545MOL0     H75185  13.880   2.623   3.414  0.0583 -1.3503  1.6041
  545MOL0     H75186  14.082   2.677   3.278 -2.2694  0.6874 -1.3377
  545MOL0     H75187  14.090   2.502   3.229  1.2630  2.0969  0.0340
  545MOL0     H75188  14.147   2.433   3.452 -0.8383  0.6336  1.7035
  545MOL0     H75189  14.143   2.599   3.507  1.9539 -0.3852  0.3925
  545MOL0     H75190  12.976   2.527   3.123 -1.9787  2.9923 -1.3043
  545MOL0     H75191  12.842   2.512   2.918 -0.4093  1.3071 -2.3894
  545MOL0     H75192  12.841   2.145   2.544  0.1853  1.4333  0.7348
  545MOL0     H75193  12.630   2.056   2.507 -0.3549  0.1103  1.7195
  545MOL0     H75194  10.837   1.055   2.412  2.9555 -1.1931 -1.4386
  545MOL0     H75195  10.613   1.094   2.306 -0.3291  0.7211 -1.0126
  545MOL0     H75196  10.340   1.207   2.083  1.4831  0.4998 -0.4600
  545MOL0     H75197  10.133   1.229   1.969 -1.6863  0.1440  0.5511
  545MOL0     H75198   9.886   1.492   1.760  0.9309  2.5131 -0.2796
  545MOL0     H75199  10.053   1.500   1.717 -1.8120  1.3274 -0.2714
  545MOL0     H75200  10.074   1.247   1.732 -2.1215 -2.2847  2.9279
  545MOL0     H75201   9.945   1.310   1.619  0.2501  1.5844 -0.0057
  545MOL0     H75202   9.867   1.241   1.899  2.3419  1.3540 -0.6585
  545MOL0     H75203   9.777   1.249   1.748  0.0439 -1.2075 -0.9621
  545MOL0     H75204   9.845   1.052   1.654  0.0318  0.5447 -0.0051
  545MOL0     H75205   9.767   1.028   1.804  0.4477 -0.9760  0.7363
  545MOL0     H75206  10.155   0.907   1.929 -2.0072 -0.9855  2.8553
  545MOL0     H75207  10.156   1.651   1.987  1.5089  0.9070  2.0910
  545MOL0     H75208  10.353   1.749   1.999 -0.7611 -0.8526 -0.4148
  545MOL0     H75209  10.407   1.717   2.160 -2.3331  4.3755  0.0854
  545MOL0     H75210  10.504   1.654   2.013 -1.5040 -1.4555 -0.4353
  546MOL0     O75211   4.316   1.444   8.684 -0.0936  0.0920 -0.1098
  546MOL0     C75212   4.259   1.369   8.761  0.0770 -0.3552 -0.3797
  546MOL0     O75213   4.314   1.312   8.884  0.6064 -0.7652 -0.0012
  546MOL0     C75214   4.439   1.318   8.920 -0.6237 -0.4066 -0.2725
  546MOL0     C75215   4.471   1.229   9.021 -0.7566  0.5639  0.2725
  546MOL0     C75216   4.603   1.230   9.074 -0.8220 -0.5191  0.3498
  546MOL0     C75217   4.702   1.322   9.027 -0.3298 -0.0170 -0.0090
  546MOL0     O75218   4.825   1.314   9.082 -0.2358  0.9495  0.7627
  546MOL0     C75219   4.939   1.401   9.042 -0.0333 -0.7340  0.1259
  546MOL0     C75220   5.056   1.378   9.126 -0.6158  0.0299  0.3613
  546MOL0     C75221   5.161   1.487   9.117 -0.1143  0.3437 -0.3361
  546MOL0     C75222   5.292   1.428   9.157 -0.1090 -0.7164  0.3167
  546MOL0     C75223   5.369   1.532   9.245  0.0295 -0.3730  0.0197
  546MOL0     C75224   5.509   1.475   9.284 -0.0812  0.1699 -0.6327
  546MOL0     C75225   5.599   1.570   9.357  0.1372 -0.4440  0.2479
  546MOL0     C75226   5.741   1.511   9.362 -0.1049  0.3300 -0.5325
  546MOL0     N75227   5.827   1.574   9.460 -0.6694 -0.2853 -0.1463
  546MOL0     C75228   5.928   1.669   9.433  0.1883 -0.7170  0.1312
  546MOL0     C75229   5.973   1.720   9.548  0.3406 -0.2051 -0.4818
  546MOL0     C75230   6.086   1.824   9.566  0.7176  0.0339  0.6930
  546MOL0     C75231   6.230   1.754   9.575 -0.4542 -0.5680  0.2309
  546MOL0     C75232   6.235   1.669   9.702 -0.4780  0.4522  0.3501
  546MOL0     C75233   6.376   1.605   9.717 -0.5501 -0.1879 -0.4548
  546MOL0     O75234   6.474   1.708   9.767  0.0602 -0.4563  0.3895
  546MOL0     C75235   6.608   1.690   9.742  0.0787  0.0723 -0.3900
  546MOL0     C75236   6.669   1.571   9.703 -0.0263 -0.5282 -0.7496
  546MOL0     C75237   6.806   1.564   9.674  0.1148  0.5920  0.1312
  546MOL0     C75238   6.865   1.428   9.657 -1.5301  0.0007  0.3954
  546MOL0     C75239   6.895   1.677   9.687 -0.1449  0.3214 -0.5210
  546MOL0     C75240   7.043   1.684   9.650  0.1336  0.6210  0.1589
  546MOL0     O75241   7.083   1.818   9.629 -0.0261  0.1151  0.9361
  546MOL0     C75242   7.210   1.841   9.600 -0.9758 -0.8371 -0.0354
  546MOL0     C75243   7.318   1.793   9.670  0.1968  0.6774 -0.1062
  546MOL0     C75244   7.448   1.830   9.633 -0.7220  0.0884  0.5207
  546MOL0     C75245   7.483   1.914   9.521  1.2271 -0.5674 -0.3778
  546MOL0     O75246   7.597   1.948   9.459  0.5410 -0.3273 -0.3067
  546MOL0     C75247   7.707   1.979   9.554 -0.0580  0.2778  0.9800
  546MOL0     C75248   7.814   1.864   9.520  0.0100 -0.4498  0.5447
  546MOL0     C75249   7.932   1.873   9.615 -0.0136 -1.3676 -0.1589
  546MOL0     C75250   8.024   1.752   9.602 -0.6562 -0.7156 -0.0611
  546MOL0     C75251   8.135   1.758   9.709  0.1486  0.0303 -0.2042
  546MOL0     C75252   8.238   1.644   9.701 -0.0533 -0.1223  0.7679
  546MOL0     C75253   8.353   1.661   9.786 -0.2658  0.7538 -0.1964
  546MOL0     C75254   8.457   1.548   9.765  0.0747 -0.5517 -0.8821
  546MOL0    Cl75255   8.538   1.544   9.598  0.5201 -0.4655  0.0086
  546MOL0     C75256   7.367   1.970   9.454 -0.1991 -0.7005  0.0244
  546MOL0     C75257   7.234   1.932   9.496 -0.1721  0.2692 -0.3437
  546MOL0     O75258   7.109   1.580   9.649  0.3150 -0.7036  0.3443
  546MOL0     C75259   6.832   1.792   9.736  1.0475 -0.3406 -0.2680
  546MOL0     C75260   6.697   1.799   9.764  1.0079  0.1737 -0.1325
  546MOL0     N75261   5.898   1.653   9.649 -0.6759 -0.1629  0.0036
  546MOL0     N75262   5.806   1.574   9.593  0.5035  0.4011 -0.0377
  546MOL0     C75263   4.668   1.405   8.912  0.8040  0.7854 -0.5538
  546MOL0     C75264   4.534   1.409   8.870 -0.3222 -1.0767  0.8795
  546MOL0     C75265   4.112   1.332   8.732 -0.0574 -0.2666  0.0833
  546MOL0     C75266   4.072   1.368   8.591 -0.0404  0.1119 -0.2130
  546MOL0     C75267   3.951   1.326   8.536  0.4744  0.3570 -0.2121
  546MOL0     C75268   3.861   1.257   8.613  0.9230 -0.2457 -0.1031
  546MOL0     O75269   3.747   1.228   8.544  0.4761  0.1311  0.2456
  546MOL0     C75270   3.670   1.114   8.592 -0.0724  0.1384 -0.3359
  546MOL0     C75271   3.548   1.094   8.493  0.2073 -1.3871 -0.1922
  546MOL0     C75272   3.589   1.079   8.339  0.5162  0.2598  0.8001
  546MOL0     C75273   3.687   0.960   8.320  0.4318  0.4309 -0.1478
  546MOL0     C75274   3.626   0.835   8.336  0.5205  0.1442  0.5801
  546MOL0     C75275   3.572   0.728   8.351 -0.9360 -0.8737  0.5042
  546MOL0     C75276   3.881   1.238   8.749 -0.2705 -0.1328  0.2464
  546MOL0     C75277   4.013   1.269   8.808  0.1147  0.1218 -0.0784
  546MOL0     C75278   4.035   1.230   8.955  0.2078  1.0813 -0.6637
  546MOL0     H75279   4.401   1.151   9.049 -0.3025  1.2513  3.8758
  546MOL0     H75280   4.638   1.157   9.146 -2.8773  0.5611  2.5743
  546MOL0     H75281   4.905   1.505   9.039 -1.2360 -1.0825  0.8302
  546MOL0     H75282   4.966   1.383   8.938 -0.8760  1.7204 -0.5889
  546MOL0     H75283   5.022   1.369   9.229 -0.3809 -1.0944  0.3578
  546MOL0     H75284   5.107   1.286   9.093 -0.1727  0.1863  0.5922
  546MOL0     H75285   5.163   1.516   9.011  0.6257 -0.5567 -0.5757
  546MOL0     H75286   5.122   1.574   9.170 -2.0959  0.3465 -1.6679
  546MOL0     H75287   5.281   1.342   9.223 -2.2714 -0.4604  0.3527
  546MOL0     H75288   5.357   1.396   9.075  1.0080 -2.0696  1.6750
  546MOL0     H75289   5.308   1.561   9.332 -1.2506  1.7881 -1.4902
  546MOL0     H75290   5.386   1.622   9.185  0.9763 -0.5403  0.0236
  546MOL0     H75291   5.494   1.383   9.341 -2.8955  1.2151  0.4968
  546MOL0     H75292   5.564   1.442   9.196  1.7040 -0.4366  0.6516
  546MOL0     H75293   5.545   1.571   9.452 -2.5735  0.2260 -1.2106
  546MOL0     H75294   5.603   1.672   9.317 -0.1286  0.3632  2.1583
  546MOL0     H75295   5.736   1.404   9.381 -1.1171  0.1360 -1.8308
  546MOL0     H75296   5.781   1.534   9.263  2.5663  1.6389  0.7389
  546MOL0     H75297   5.962   1.694   9.333 -2.3183 -2.1125 -1.1724
  546MOL0     H75298   6.057   1.878   9.656 -0.0546  0.7010  0.0603
  546MOL0     H75299   6.084   1.897   9.484  0.8269 -1.3185 -0.5559
  546MOL0     H75300   6.248   1.687   9.491 -1.4382  3.0894 -3.1453
  546MOL0     H75301   6.311   1.826   9.566 -2.4668  1.7234 -0.3583
  546MOL0     H75302   6.210   1.731   9.788 -3.4035  1.4117 -1.0698
  546MOL0     H75303   6.161   1.589   9.692 -0.4733  0.5804 -0.8869
  546MOL0     H75304   6.369   1.515   9.779  1.0579  0.6091  0.9630
  546MOL0     H75305   6.414   1.591   9.615 -0.7106  3.5173 -1.1628
  546MOL0     H75306   6.603   1.486   9.689 -1.1432 -0.2592  2.2147
  546MOL0     H75307   6.930   1.417   9.569 -1.1914 -3.1191  0.9161
  546MOL0     H75308   6.785   1.353   9.652 -2.0222  0.5706 -2.0768
  546MOL0     H75309   6.929   1.392   9.738  1.1144 -1.6798 -2.2214
  546MOL0     H75310   7.300   1.724   9.751 -0.2484 -0.4233 -1.1200
  546MOL0     H75311   7.530   1.778   9.681  0.7846  1.8596 -0.0191
  546MOL0     H75312   7.760   2.072   9.533  2.6618 -1.4721 -0.6886
  546MOL0     H75313   7.672   1.993   9.656 -2.1383  4.0761 -0.0959
  546MOL0     H75314   7.758   1.772   9.538 -2.8029  0.4823 -2.4282
  546MOL0     H75315   7.850   1.856   9.417 -2.1845 -0.2977 -0.2953
  546MOL0     H75316   7.906   1.901   9.718  2.1037  2.2820 -0.4238
  546MOL0     H75317   7.996   1.957   9.586  1.0080 -1.8266  0.7278
  546MOL0     H75318   8.080   1.765   9.509  1.4687  0.1309  1.2583
  546MOL0     H75319   7.971   1.657   9.599 -1.6186 -0.1787 -0.4173
  546MOL0     H75320   8.190   1.852   9.697 -2.6806  1.7283 -0.7223
  546MOL0     H75321   8.089   1.769   9.808  1.6105  0.7096  0.4447
  546MOL0     H75322   8.282   1.641   9.601 -0.5846 -0.0685  0.5258
  546MOL0     H75323   8.185   1.553   9.731  0.5661  0.3190  3.4065
  546MOL0     H75324   8.319   1.632   9.885  2.5066 -1.3941  0.2658
  546MOL0     H75325   8.406   1.757   9.777  1.8775 -0.2873  0.6400
  546MOL0     H75326   8.410   1.450   9.776 -0.1723 -0.3313  0.1606
  546MOL0     H75327   8.535   1.562   9.841  1.6245  2.7468 -2.8677
  546MOL0     H75328   7.386   2.040   9.373  2.8445  0.8487  1.9004
  546MOL0     H75329   7.155   1.980   9.439  0.5130 -0.3699 -1.8902
  546MOL0     H75330   6.881   1.889   9.737 -0.4359  0.4346 -0.1403
  546MOL0     H75331   6.650   1.894   9.784  0.1310 -0.0276 -1.1103
  546MOL0     H75332   4.748   1.465   8.870  1.5148  0.3813  0.1797
  546MOL0     H75333   4.525   1.479   8.788  0.6777 -1.9299 -0.0012
  546MOL0     H75334   4.135   1.422   8.521  2.0132 -1.9242 -0.0458
  546MOL0     H75335   3.946   1.349   8.430  0.2748  0.4279 -0.1888
  546MOL0     H75336   3.734   1.026   8.582  0.1659  0.4198 -1.4915
  546MOL0     H75337   3.627   1.133   8.691  1.1359  0.5003  0.1418
  546MOL0     H75338   3.477   1.177   8.493  0.4237 -1.2001 -0.2799
  546MOL0     H75339   3.499   0.999   8.518 -2.3090 -0.4982 -1.4282
  546MOL0     H75340   3.501   1.061   8.275  1.1030 -0.6471  0.2178
  546MOL0     H75341   3.636   1.167   8.295  0.6487 -0.7727 -1.2630
  546MOL0     H75342   3.765   0.964   8.397  0.5009 -2.8038  0.0929
  546MOL0     H75343   3.741   0.942   8.227 -0.6318  0.8618 -0.8551
  546MOL0     H75344   3.535   0.628   8.362 -0.2124 -1.3601 -1.1352
  546MOL0     H75345   3.803   1.198   8.813  0.8292  1.5646  2.7999
  546MOL0     H75346   4.105   1.289   9.015 -1.5855 -1.3440  4.3281
  546MOL0     H75347   3.934   1.232   8.998 -0.6775  2.5265 -2.6355
  546MOL0     H75348   4.064   1.125   8.959  0.6156  1.2203  0.0301
  547MOL0     O75349  10.080  10.181   5.349  0.3872 -1.0807 -0.4729
  547MOL0     C75350   9.996  10.236   5.279 -0.0417  0.3369  0.4402
  547MOL0     O75351   9.860  10.215   5.280  0.8585  0.4068  0.2860
  547MOL0     C75352   9.795  10.131   5.366  0.4907  1.0159 -0.4320
  547MOL0     C75353   9.690  10.063   5.329 -0.8947  0.4014  0.2712
  547MOL0     C75354   9.629   9.964   5.414  0.1852 -0.0380  0.1853
  547MOL0     C75355   9.684   9.942   5.535  0.6668  0.0686  0.2223
  547MOL0     O75356   9.640   9.829   5.603 -0.0262 -0.4608  0.4750
  547MOL0     C75357   9.616   9.824   5.746 -0.2722  0.0892  0.8058
  547MOL0     C75358   9.495   9.734   5.765  0.2520 -0.3524 -0.4933
  547MOL0     C75359   9.377   9.787   5.675 -0.0640 -0.0471 -0.9106
  547MOL0     C75360   9.252   9.713   5.711  0.9470 -0.0630 -0.1178
  547MOL0     C75361   9.137   9.796   5.651  0.8517 -0.0915 -0.0380
  547MOL0     C75362   9.010   9.709   5.642  0.3652 -0.0996 -0.4511
  547MOL0     C75363   8.986   9.630   5.771  0.5113 -0.7417  0.6791
  547MOL0     C75364   8.854   9.556   5.763  0.1445 -0.2531  0.1174
  547MOL0     N75365   8.743   9.640   5.821 -0.4181  0.6299 -0.1015
  547MOL0     C75366   8.703   9.763   5.772  0.0960 -0.3030  0.0464
  547MOL0     C75367   8.655   9.830   5.883 -0.0116 -0.4830  0.4848
  547MOL0     C75368   8.593   9.967   5.875  0.1913  0.3376 -0.2401
  547MOL0     C75369   8.681  10.077   5.807  0.2051  0.3816 -0.0467
  547MOL0     C75370   8.818  10.111   5.865  0.0925  0.5639  0.5002
  547MOL0     C75371   8.906  10.192   5.769  0.2915  0.5017  0.5966
  547MOL0     O75372   8.854  10.330   5.758  0.7523 -0.3741 -0.1428
  547MOL0     C75373   8.889  10.433   5.843  0.3956 -0.1935 -0.4655
  547MOL0     C75374   9.010  10.442   5.920 -0.8975 -0.1195  0.1816
  547MOL0     C75375   9.037  10.556   5.985  1.2688  0.3549 -0.3282
  547MOL0     C75376   9.167  10.554   6.070  0.6965 -0.8324  0.8764
  547MOL0     C75377   8.953  10.670   5.979  0.2668  0.7350  0.7672
  547MOL0     C75378   8.968  10.793   6.066 -0.0433  0.7556  0.0977
  547MOL0     O75379   9.097  10.837   6.111  0.7085 -0.3966 -0.0584
  547MOL0     C75380   9.106  10.902   6.227 -0.0158  0.5398  0.1958
  547MOL0     C75381   9.011  10.880   6.327  0.2918  0.7529 -0.3082
  547MOL0     C75382   9.024  10.943   6.453  0.4394  0.4524 -0.7301
  547MOL0     C75383   9.128  11.046   6.471 -0.3932  0.3477 -0.1422
  547MOL0     O75384   9.139  11.132   6.572 -0.5799 -0.5376  0.3396
  547MOL0     C75385   9.137  11.065   6.698  0.6254 -0.1813 -0.2143
  547MOL0     C75386   9.213  11.160   6.788  0.7684  0.1345 -0.5718
  547MOL0     C75387   9.250  11.109   6.930 -0.2113  0.2801  0.9881
  547MOL0     C75388   9.336  11.192   7.022  0.2101  0.4096  0.1449
  547MOL0     C75389   9.487  11.189   6.978 -0.3525  0.4792  0.9024
  547MOL0     C75390   9.562  11.299   7.055  0.0904  0.8382  0.3457
  547MOL0     C75391   9.619  11.255   7.188 -0.3908 -0.1190  0.6879
  547MOL0     C75392   9.720  11.349   7.241  0.2313 -0.3122 -1.3355
  547MOL0    Cl75393   9.644  11.512   7.277  0.1680  0.3581 -0.0227
  547MOL0     C75394   9.215  11.064   6.365 -0.5803 -0.0944 -0.4189
  547MOL0     C75395   9.211  10.986   6.251  0.6340 -0.5188  0.7414
  547MOL0     O75396   8.859  10.842   6.095 -0.6396  0.1046  0.9110
  547MOL0     C75397   8.829  10.657   5.907 -0.1052 -0.3263  0.3764
  547MOL0     C75398   8.793  10.542   5.842  0.0646 -0.4973  0.3949
  547MOL0     N75399   8.661   9.743   5.992 -0.9227 -0.3415 -0.4384
  547MOL0     N75400   8.705   9.628   5.950 -0.3353  0.3081  0.0550
  547MOL0     C75401   9.791  10.017   5.577 -0.9794 -0.3795 -0.1556
  547MOL0     C75402   9.843  10.117   5.498  0.0266 -0.2032 -0.3147
  547MOL0     C75403  10.037  10.318   5.170  0.0834 -0.5681  0.4945
  547MOL0     C75404   9.944  10.405   5.108  1.2915  0.1838  0.0038
  547MOL0     C75405   9.985  10.488   5.009 -0.0091  0.3076  0.3001
  547MOL0     C75406  10.104  10.478   4.943  0.3033 -1.2861  0.2518
  547MOL0     O75407  10.134  10.555   4.834 -0.4057 -0.1228 -0.4150
  547MOL0     C75408  10.058  10.677   4.798  0.3834  0.4154 -0.3270
  547MOL0     C75409  10.099  10.784   4.901  0.0224 -0.3054  0.2277
  547MOL0     C75410  10.031  10.917   4.889  0.0706 -1.3794 -0.1530
  547MOL0     C75411  10.025  11.002   5.025 -0.2561 -0.0299  0.0731
  547MOL0     C75412   9.931  10.945   5.124  0.2314 -0.3783 -0.2787
  547MOL0     C75413   9.851  10.891   5.202 -0.3579 -1.4335 -0.0538
  547MOL0     C75414  10.191  10.385   4.987 -0.4532  0.1185  0.4548
  547MOL0     C75415  10.168  10.309   5.106  0.9342 -0.2962 -0.6226
  547MOL0     C75416  10.270  10.204   5.132 -0.2629  0.4098  0.5935
  547MOL0     H75417   9.661  10.074   5.225 -0.5261 -0.2852  0.0946
  547MOL0     H75418   9.539   9.914   5.379 -0.0684  0.6487 -0.1505
  547MOL0     H75419   9.597   9.923   5.790 -1.3451  0.9322 -1.3986
  547MOL0     H75420   9.692   9.773   5.806  0.2974  1.5193  1.3545
  547MOL0     H75421   9.522   9.632   5.736  1.7569 -0.2209  0.3465
  547MOL0     H75422   9.475   9.731   5.872  1.6509 -0.7205 -0.2144
  547MOL0     H75423   9.360   9.891   5.704 -0.3642 -0.6326  1.1437
  547MOL0     H75424   9.403   9.788   5.568 -1.3787  0.0522 -1.2403
  547MOL0     H75425   9.261   9.607   5.686 -0.3710 -0.8004  2.1679
  547MOL0     H75426   9.233   9.724   5.819 -0.0529 -0.3988 -0.2498
  547MOL0     H75427   9.164   9.840   5.555 -1.3450  2.0503  0.2122
  547MOL0     H75428   9.117   9.886   5.710  0.8417  3.6251 -5.1318
  547MOL0     H75429   8.926   9.768   5.605  0.0666 -0.0696  0.2507
  547MOL0     H75430   9.008   9.640   5.558  2.4195 -0.8432  0.0407
  547MOL0     H75431   8.987   9.693   5.861 -3.3497 -3.7591  3.1643
  547MOL0     H75432   9.068   9.559   5.789  0.8133 -0.6561 -0.3130
  547MOL0     H75433   8.836   9.518   5.662  0.6546 -1.1034  0.3296
  547MOL0     H75434   8.876   9.473   5.830 -0.7105 -0.5691  0.0270
  547MOL0     H75435   8.711   9.815   5.677 -1.0330 -0.8685 -0.3756
  547MOL0     H75436   8.596  10.001   5.979  0.5752 -1.7903  0.5001
  547MOL0     H75437   8.491   9.956   5.836  0.0456 -1.2278  0.5217
  547MOL0     H75438   8.705  10.048   5.704  1.5113  0.0165  0.3389
  547MOL0     H75439   8.626  10.171   5.800 -0.1585  0.1619 -0.1560
  547MOL0     H75440   8.805  10.179   5.950  0.0284  0.6571  0.4149
  547MOL0     H75441   8.863  10.021   5.910 -2.0870 -0.4321  0.8398
  547MOL0     H75442   9.010  10.195   5.804  0.0632  1.2347  1.2305
  547MOL0     H75443   8.910  10.154   5.666 -0.4575 -1.1120  1.1240
  547MOL0     H75444   9.079  10.359   5.927 -0.5931  0.2594  2.3998
  547MOL0     H75445   9.216  10.456   6.075  0.1065 -1.1309  0.9242
  547MOL0     H75446   9.152  10.592   6.171  2.2214  1.6283  0.2745
  547MOL0     H75447   9.241  10.618   6.021  0.0507 -0.3007  0.5800
  547MOL0     H75448   8.935  10.803   6.317  1.4520 -0.1087 -3.2719
  547MOL0     H75449   8.946  10.917   6.524 -0.4742 -2.5546 -2.6357
  547MOL0     H75450   9.035  11.046   6.731  1.2214 -0.7286  1.4122
  547MOL0     H75451   9.195  10.972   6.695  1.8855  0.5579  0.3186
  547MOL0     H75452   9.308  11.196   6.746  1.8513 -1.4743  0.3648
  547MOL0     H75453   9.142  11.241   6.809  0.3709 -0.4797  0.4951
  547MOL0     H75454   9.308  11.021   6.901  1.9897  2.6039 -2.4059
  547MOL0     H75455   9.156  11.089   6.983 -1.9365  0.5745 -1.7788
  547MOL0     H75456   9.322  11.158   7.125  0.6077  0.6353  0.2734
  547MOL0     H75457   9.300  11.295   7.017 -1.3944 -0.1634 -1.1209
  547MOL0     H75458   9.518  11.084   6.981  1.9891  1.0919  0.0752
  547MOL0     H75459   9.494  11.222   6.874 -0.8904 -0.3282  0.5985
  547MOL0     H75460   9.493  11.381   7.079 -1.2895 -0.2196  0.0928
  547MOL0     H75461   9.643  11.338   6.992  0.5377 -0.6067  0.0042
  547MOL0     H75462   9.663  11.157   7.170  1.8654  1.0628 -0.6686
  547MOL0     H75463   9.543  11.243   7.266  0.4254 -3.3470  1.0965
  547MOL0     H75464   9.806  11.359   7.175 -0.3188 -2.8016 -2.5643
  547MOL0     H75465   9.762  11.321   7.339  0.1231  2.2224 -0.4963
  547MOL0     H75466   9.297  11.134   6.374  1.5931 -2.6063  0.5428
  547MOL0     H75467   9.286  11.001   6.174 -0.4079 -4.7877 -1.3985
  547MOL0     H75468   8.755  10.734   5.893 -1.8690 -2.1450 -0.8887
  547MOL0     H75469   8.700  10.533   5.786  0.1341  1.0613 -0.0069
  547MOL0     H75470   9.836  10.003   5.674  1.4152 -2.7030 -1.4822
  547MOL0     H75471   9.908  10.184   5.553 -2.8815  2.1145  0.6018
  547MOL0     H75472   9.852  10.442   5.153  2.4015  2.2023  0.7497
  547MOL0     H75473   9.918  10.567   4.979 -2.2945 -1.4745  0.3625
  547MOL0     H75474  10.088  10.711   4.699  1.3348 -1.9221 -0.9195
  547MOL0     H75475   9.951  10.656   4.793  0.6713 -2.4206  2.3106
  547MOL0     H75476  10.206  10.788   4.879 -0.3696 -2.3530 -2.6844
  547MOL0     H75477  10.083  10.743   5.002  0.5788 -3.7519 -0.9339
  547MOL0     H75478  10.080  10.975   4.811  0.9863 -1.3946  0.4010
  547MOL0     H75479   9.929  10.903   4.851 -0.3682  2.6197 -0.7935
  547MOL0     H75480   9.992  11.103   4.998 -0.1159  0.6209  2.1487
  547MOL0     H75481  10.127  11.007   5.066  0.4023  1.9149 -1.6121
  547MOL0     H75482   9.806  10.830   5.277  1.5938 -2.9144  0.0049
  547MOL0     H75483  10.288  10.369   4.940 -0.0007  0.4811  1.2451
  547MOL0     H75484  10.345  10.206   5.052 -0.8681  6.0468 -0.2544
  547MOL0     H75485  10.315  10.231   5.228 -1.8158 -0.0742  1.4958
  547MOL0     H75486  10.219  10.108   5.137  0.3513  0.0526  0.2243
  548MOL0     O75487   5.826   2.391   2.589  0.8619 -0.2690  0.1651
  548MOL0     C75488   5.796   2.417   2.473 -0.4272 -0.4268 -0.0139
  548MOL0     O75489   5.872   2.476   2.376 -0.2530  0.2030  1.0173
  548MOL0     C75490   5.992   2.541   2.397  0.8890 -0.0079 -0.3337
  548MOL0     C75491   6.004   2.636   2.496  0.1825 -0.1276 -0.4128
  548MOL0     C75492   6.119   2.701   2.526 -0.7558  0.0650 -0.1565
  548MOL0     C75493   6.233   2.681   2.447  0.3624  0.3426 -1.0107
  548MOL0     O75494   6.359   2.739   2.475  0.9652  0.3941  0.3947
  548MOL0     C75495   6.412   2.734   2.601 -0.5529  0.4479  0.8075
  548MOL0     C75496   6.480   2.600   2.629 -0.0824  0.0887 -0.3448
  548MOL0     C75497   6.563   2.547   2.511  0.1681 -0.1501  0.3276
  548MOL0     C75498   6.622   2.403   2.539  0.1479  0.1131 -0.6844
  548MOL0     C75499   6.695   2.390   2.678  0.8675 -0.0427  0.3372
  548MOL0     C75500   6.831   2.457   2.678 -0.1540  0.3170 -0.5414
  548MOL0     C75501   6.888   2.472   2.824  0.2345 -0.2669 -0.0450
  548MOL0     C75502   7.025   2.525   2.804 -0.1924 -0.0624 -0.6339
  548MOL0     N75503   7.112   2.503   2.921 -0.5072  0.8304 -0.0700
  548MOL0     C75504   7.136   2.590   3.021 -0.5231 -0.7640  0.7088
  548MOL0     C75505   7.195   2.513   3.109 -0.0239 -0.6291  0.1716
  548MOL0     C75506   7.248   2.550   3.244  0.2110  0.3972 -0.7430
  548MOL0     C75507   7.381   2.622   3.246 -0.7201 -0.1716  0.3689
  548MOL0     C75508   7.477   2.555   3.149 -0.5417 -0.8935  0.0495
  548MOL0     C75509   7.614   2.626   3.172  0.3929  0.5745 -0.0816
  548MOL0     O75510   7.623   2.751   3.106 -0.0115  0.4300  0.2434
  548MOL0     C75511   7.722   2.846   3.135  0.4429  0.4055  0.5966
  548MOL0     C75512   7.703   2.980   3.115  0.1655 -0.2438 -0.1679
  548MOL0     C75513   7.793   3.084   3.150  0.0827 -0.8866 -1.1210
  548MOL0     C75514   7.737   3.224   3.139 -0.0765  0.7579 -1.0643
  548MOL0     C75515   7.913   3.044   3.216 -0.6811 -0.3109  0.2488
  548MOL0     C75516   8.012   3.150   3.271  0.6465 -0.1033  0.0169
  548MOL0     O75517   8.115   3.102   3.352  0.2164  0.1188 -0.0654
  548MOL0     C75518   8.202   3.194   3.404  0.4890  0.2641  1.1994
  548MOL0     C75519   8.229   3.201   3.531  0.5585 -0.3484 -0.3960
  548MOL0     C75520   8.342   3.267   3.582 -0.8422 -0.0759  0.7415
  548MOL0     C75521   8.432   3.338   3.496 -0.9648  0.4517 -0.2312
  548MOL0     O75522   8.557   3.377   3.548  0.4391 -0.4478  0.4107
  548MOL0     C75523   8.560   3.450   3.676  0.0407 -0.1453  0.7802
  548MOL0     C75524   8.615   3.591   3.674 -0.6757 -0.1436 -0.2318
  548MOL0     C75525   8.717   3.632   3.572 -0.2606 -0.1600 -0.2832
  548MOL0     C75526   8.853   3.555   3.587 -0.1025 -0.5989 -0.2452
  548MOL0     C75527   8.953   3.624   3.491 -0.3601  0.6578 -0.5096
  548MOL0     C75528   9.082   3.548   3.514 -0.2152  0.5888 -0.4860
  548MOL0     C75529   9.106   3.440   3.411 -0.2733  0.5851  0.7428
  548MOL0     C75530   9.220   3.357   3.464 -0.1028 -0.2223  0.2226
  548MOL0    Cl75531   9.154   3.267   3.606  0.2528  0.3691 -0.2342
  548MOL0     C75532   8.410   3.320   3.357  0.2955 -0.1420  0.8725
  548MOL0     C75533   8.290   3.258   3.312 -0.9249 -0.1409 -0.9032
  548MOL0     O75534   8.000   3.275   3.245  1.0501  0.3252 -0.3013
  548MOL0     C75535   7.933   2.908   3.229 -0.5367 -0.3755 -0.2946
  548MOL0     C75536   7.835   2.811   3.202 -0.5655 -0.6889  0.7881
  548MOL0     N75537   7.195   2.382   3.073  1.0238  0.1222  0.2914
  548MOL0     N75538   7.148   2.379   2.950  0.6026  0.7442 -0.0421
  548MOL0     C75539   6.226   2.595   2.337 -0.2648 -0.0089 -0.5017
  548MOL0     C75540   6.102   2.536   2.307 -0.1894 -0.3651  0.3602
  548MOL0     C75541   5.662   2.387   2.433  0.0354  0.2894 -0.6158
  548MOL0     C75542   5.606   2.268   2.490 -0.4109  0.4127 -0.0231
  548MOL0     C75543   5.485   2.217   2.436 -0.0556  0.2331 -0.0721
  548MOL0     C75544   5.415   2.288   2.337 -0.5257 -0.2992  0.1975
  548MOL0     O75545   5.293   2.240   2.294 -0.3094  0.2340  0.1341
  548MOL0     C75546   5.199   2.319   2.228 -0.4013  0.5791 -0.1382
  548MOL0     C75547   5.070   2.235   2.215 -0.4786  0.8344 -0.2286
  548MOL0     C75548   4.953   2.314   2.262 -0.5770 -0.1162 -0.4027
  548MOL0     C75549   4.951   2.293   2.415 -1.6512  0.0013  0.1370
  548MOL0     C75550   4.826   2.354   2.469  0.3352  0.2777  0.0134
  548MOL0     C75551   4.719   2.398   2.506 -0.0481  1.0362 -0.4193
  548MOL0     C75552   5.464   2.410   2.298 -0.2064 -0.0830 -0.0378
  548MOL0     C75553   5.585   2.464   2.339  1.2414 -0.3004 -0.4777
  548MOL0     C75554   5.617   2.605   2.289  0.3780  0.1857 -0.0396
  548MOL0     H75555   5.915   2.664   2.552 -0.7986 -0.8034 -1.5925
  548MOL0     H75556   6.125   2.783   2.597 -1.0725 -0.8342  0.9353
  548MOL0     H75557   6.339   2.761   2.677 -1.0813  1.6296 -0.0999
  548MOL0     H75558   6.495   2.804   2.601 -0.0953 -0.0811  0.4496
  548MOL0     H75559   6.553   2.620   2.708  3.2943 -0.9704 -2.9435
  548MOL0     H75560   6.406   2.524   2.655 -2.5227  2.1019 -1.1116
  548MOL0     H75561   6.494   2.538   2.427 -2.7848 -1.6302  2.7199
  548MOL0     H75562   6.647   2.610   2.479 -0.4224 -0.6547 -2.4832
  548MOL0     H75563   6.532   2.341   2.530  0.2364 -0.1367  0.0412
  548MOL0     H75564   6.685   2.370   2.457 -0.2341 -0.1108 -0.8914
  548MOL0     H75565   6.698   2.283   2.697 -1.8530 -0.4166 -0.8395
  548MOL0     H75566   6.630   2.432   2.755 -0.3565  2.8102 -2.0402
  548MOL0     H75567   6.903   2.397   2.621 -0.1312  0.7104 -0.9280
  548MOL0     H75568   6.831   2.550   2.620  2.3674  2.3357  2.4331
  548MOL0     H75569   6.889   2.371   2.867  1.4749  0.8735  2.8230
  548MOL0     H75570   6.833   2.539   2.891  0.2213 -1.4832  1.2092
  548MOL0     H75571   7.083   2.487   2.719 -0.3296 -2.6491  0.3581
  548MOL0     H75572   7.008   2.631   2.783  1.2268 -0.0290 -1.8114
  548MOL0     H75573   7.125   2.697   3.029  2.4036  0.0471 -3.0851
  548MOL0     H75574   7.251   2.459   3.304 -0.8486 -0.0959 -1.4334
  548MOL0     H75575   7.186   2.624   3.295  1.3184  0.3071  0.8282
  548MOL0     H75576   7.366   2.729   3.228  0.9030  0.2276  1.1415
  548MOL0     H75577   7.435   2.618   3.342  1.2279 -0.9751 -0.6968
  548MOL0     H75578   7.499   2.459   3.196  2.6857  0.5421  1.8072
  548MOL0     H75579   7.447   2.549   3.044 -2.2680  1.9105  0.2792
  548MOL0     H75580   7.646   2.627   3.276 -0.4156 -1.5253  0.2350
  548MOL0     H75581   7.680   2.557   3.117 -2.1634 -0.6016 -1.8552
  548MOL0     H75582   7.602   2.998   3.078  0.2108  1.6557  0.4928
  548MOL0     H75583   7.627   3.220   3.135 -0.0749 -0.5862 -0.2051
  548MOL0     H75584   7.777   3.268   3.047  1.6425 -0.4591 -0.9513
  548MOL0     H75585   7.772   3.283   3.223 -2.5071 -0.9203  1.2977
  548MOL0     H75586   8.158   3.149   3.595  0.5756 -1.3429 -1.1632
  548MOL0     H75587   8.354   3.265   3.689  2.3159  0.1030  0.4577
  548MOL0     H75588   8.469   3.434   3.734 -0.6153 -3.5493 -0.9784
  548MOL0     H75589   8.635   3.393   3.732  3.1308  1.7778 -1.1301
  548MOL0     H75590   8.537   3.665   3.651  1.2204  0.9840 -3.7110
  548MOL0     H75591   8.659   3.604   3.773 -2.6343 -1.0141  0.8125
  548MOL0     H75592   8.741   3.738   3.580  1.8919 -0.5201 -1.2053
  548MOL0     H75593   8.673   3.626   3.472 -0.5947 -2.8024 -0.0589
  548MOL0     H75594   8.842   3.450   3.559  1.8940 -0.5088 -1.5497
  548MOL0     H75595   8.887   3.563   3.691 -0.4952 -0.5478 -0.1154
  548MOL0     H75596   8.914   3.617   3.390 -0.3150 -2.8546 -0.4344
  548MOL0     H75597   8.967   3.727   3.523 -2.7128  0.5503  1.1336
  548MOL0     H75598   9.086   3.512   3.618  1.8397 -1.0429 -1.0584
  548MOL0     H75599   9.162   3.621   3.496  1.9048 -1.7467 -1.0418
  548MOL0     H75600   9.113   3.480   3.309  0.2644 -2.2649 -0.4165
  548MOL0     H75601   9.031   3.361   3.404 -1.8478  2.1079 -0.6189
  548MOL0     H75602   9.306   3.422   3.483  3.4301 -4.0756 -0.9687
  548MOL0     H75603   9.253   3.283   3.390  2.9751  2.2620 -1.1074
  548MOL0     H75604   8.486   3.358   3.290  1.6798 -0.5757  2.1531
  548MOL0     H75605   8.284   3.228   3.207  0.4312  0.2186 -1.1024
  548MOL0     H75606   8.024   2.875   3.278 -0.7380  1.5991  1.5347
  548MOL0     H75607   7.858   2.711   3.236 -1.7203 -0.2961  2.8534
  548MOL0     H75608   6.316   2.596   2.277 -0.7486  0.5639 -1.2562
  548MOL0     H75609   6.087   2.464   2.227 -1.8529  2.4863 -2.0931
  548MOL0     H75610   5.657   2.213   2.569 -0.9269 -2.4797 -1.5737
  548MOL0     H75611   5.451   2.122   2.476  1.1227 -0.1255  0.1071
  548MOL0     H75612   5.171   2.410   2.282  0.1612 -1.0625  3.1397
  548MOL0     H75613   5.239   2.344   2.129 -3.2842  1.1698 -1.2524
  548MOL0     H75614   5.071   2.141   2.272 -0.0383  2.5716  2.8733
  548MOL0     H75615   5.059   2.212   2.109  0.7917 -2.2837  0.2186
  548MOL0     H75616   4.960   2.419   2.234  1.4409 -0.6324 -2.1211
  548MOL0     H75617   4.868   2.281   2.202  0.3261 -0.4725 -1.5230
  548MOL0     H75618   5.042   2.339   2.453 -0.3574 -1.2613 -1.2634
  548MOL0     H75619   4.948   2.185   2.436 -1.0954 -0.0839 -0.1959
  548MOL0     H75620   4.618   2.419   2.537 -0.3317 -0.3821 -0.3357
  548MOL0     H75621   5.404   2.475   2.234  1.7215  0.2930 -1.5374
  548MOL0     H75622   5.530   2.664   2.257 -1.8433 -2.5588  0.5658
  548MOL0     H75623   5.679   2.664   2.358  1.1390  1.3747 -1.6691
  548MOL0     H75624   5.666   2.582   2.194 -2.6404 -3.9358 -0.8722
  549MOL0     O75625   9.588  10.600   1.961 -0.1723  0.3946 -0.0511
  549MOL0     C75626   9.619  10.717   1.937 -0.0442  0.1419  0.3967
  549MOL0     O75627   9.706  10.794   2.006  0.1537 -0.0366 -0.2369
  549MOL0     C75628   9.794  10.706   2.070  0.6745 -0.1408 -0.3375
  549MOL0     C75629   9.896  10.652   1.994  0.1085  0.4212 -0.1135
  549MOL0     C75630  10.008  10.596   2.048  0.1273  0.3418 -0.0334
  549MOL0     C75631  10.011  10.554   2.182  0.0979  0.3555 -0.6895
  549MOL0     O75632  10.118  10.486   2.246  0.0019 -0.0893 -0.1149
  549MOL0     C75633  10.229  10.428   2.176 -1.4321 -0.2784 -0.2193
  549MOL0     C75634  10.331  10.539   2.160 -0.8122  0.0505 -0.5024
  549MOL0     C75635  10.478  10.488   2.150  0.0929  0.1809 -0.0238
  549MOL0     C75636  10.585  10.595   2.191  0.3943 -0.1772 -0.1786
  549MOL0     C75637  10.581  10.718   2.104 -0.0751  0.0366  0.0925
  549MOL0     C75638  10.683  10.818   2.139  0.2367  0.4597 -0.2006
  549MOL0     C75639  10.824  10.778   2.146  0.2225 -0.6150 -0.8563
  549MOL0     C75640  10.913  10.898   2.175 -0.4301  0.5307  0.9003
  549MOL0     N75641  11.051  10.844   2.200 -0.1634  0.0180 -0.0500
  549MOL0     C75642  11.134  10.888   2.299  0.4122 -0.1866  0.6630
  549MOL0     C75643  11.239  10.809   2.287  0.3885 -0.7983 -0.6178
  549MOL0     C75644  11.357  10.815   2.374 -0.3436  0.8150 -0.3531
  549MOL0     C75645  11.339  10.713   2.485 -0.1943  0.7787 -0.5804
  549MOL0     C75646  11.465  10.670   2.564 -0.1118 -0.4916  0.6286
  549MOL0     C75647  11.586  10.652   2.474 -0.3215  0.5143 -0.1827
  549MOL0     O75648  11.549  10.557   2.372 -0.1832 -0.3369  0.3391
  549MOL0     C75649  11.642  10.548   2.273 -0.1342 -0.3886  0.3533
  549MOL0     C75650  11.758  10.481   2.298  0.2427  0.0765  0.8457
  549MOL0     C75651  11.853  10.471   2.197 -0.1281  0.3705  1.2143
  549MOL0     C75652  11.980  10.406   2.242 -0.1649 -0.1197  0.6074
  549MOL0     C75653  11.837  10.534   2.072 -0.2724  1.1430  0.3326
  549MOL0     C75654  11.948  10.549   1.969  0.4880 -0.0998 -0.3150
  549MOL0     O75655  11.914  10.641   1.872 -0.1173  0.1941  0.5702
  549MOL0     C75656  11.973  10.640   1.755 -0.4512 -0.2723 -0.0253
  549MOL0     C75657  11.959  10.764   1.685  0.3347  0.2679 -0.3839
  549MOL0     C75658  12.022  10.789   1.559 -1.3169 -0.5283 -0.9546
  549MOL0     C75659  12.100  10.683   1.499 -0.2432 -0.9403 -0.0440
  549MOL0     O75660  12.156  10.718   1.381  0.7423 -0.3457  0.1481
  549MOL0     C75661  12.284  10.665   1.340  0.4020  1.0129 -0.2125
  549MOL0     C75662  12.335  10.775   1.245 -0.3574  1.0770  0.0771
  549MOL0     C75663  12.402  10.893   1.314 -0.0050  0.1187 -0.4931
  549MOL0     C75664  12.487  10.981   1.232  0.1869  0.3190  0.0681
  549MOL0     C75665  12.542  11.084   1.324  0.1663 -0.6609  0.3723
  549MOL0     C75666  12.593  11.210   1.251  0.0149  0.0881 -0.3463
  549MOL0     C75667  12.672  11.300   1.348  0.4009  0.0005 -0.0472
  549MOL0     C75668  12.728  11.420   1.267 -0.4846  0.1292 -0.8673
  549MOL0    Cl75669  12.836  11.505   1.371 -0.7499  0.3417 -0.2228
  549MOL0     C75670  12.098  10.558   1.564 -0.4955  0.5125 -0.6836
  549MOL0     C75671  12.048  10.539   1.699 -0.1634  0.1329  0.3651
  549MOL0     O75672  12.054  10.484   1.976 -0.5238 -0.2783 -0.1290
  549MOL0     C75673  11.708  10.591   2.043  0.5947 -0.0060 -0.4061
  549MOL0     C75674  11.610  10.602   2.151  0.1265  0.2021 -0.2710
  549MOL0     N75675  11.215  10.713   2.197  0.0226 -0.2018  0.3188
  549MOL0     N75676  11.104  10.739   2.132 -0.9880 -0.7553  0.3936
  549MOL0     C75677   9.902  10.601   2.263  0.7617  0.3014  0.0110
  549MOL0     C75678   9.801  10.679   2.207 -1.1548  0.1109 -0.2998
  549MOL0     C75679   9.589  10.781   1.808  0.3980  0.1788  0.5041
  549MOL0     C75680   9.665  10.881   1.745 -0.0584  1.0440 -0.2089
  549MOL0     C75681   9.634  10.939   1.623 -0.2524 -0.4896  0.7674
  549MOL0     C75682   9.514  10.906   1.567 -0.4499  0.1650  0.1256
  549MOL0     O75683   9.460  10.948   1.450 -0.0297  0.3713 -0.6756
  549MOL0     C75684   9.539  11.028   1.365 -0.7223  0.2847  0.3391
  549MOL0     C75685   9.451  11.129   1.300  0.1689 -0.4094 -0.8461
  549MOL0     C75686   9.348  11.076   1.201  1.7619  1.0664 -1.6865
  549MOL0     C75687   9.402  11.066   1.057  0.1072 -0.9251  0.1240
  549MOL0     C75688   9.314  10.995   0.965  0.1530  0.0292 -0.3987
  549MOL0     C75689   9.269  10.924   0.875  0.1859 -0.7995 -0.0846
  549MOL0     C75690   9.423  10.820   1.627  0.1722  0.2991  0.3147
  549MOL0     C75691   9.461  10.759   1.744 -0.3486 -0.4654 -0.3129
  549MOL0     C75692   9.350  10.687   1.819  0.2454 -0.0882 -0.0176
  549MOL0     H75693   9.895  10.655   1.885 -1.5071  0.3727 -0.1297
  549MOL0     H75694  10.091  10.573   1.982  1.6903 -2.6683  2.7245
  549MOL0     H75695  10.192  10.394   2.079 -1.6162  0.4775 -0.4176
  549MOL0     H75696  10.274  10.343   2.228 -1.1441  0.3387  0.5612
  549MOL0     H75697  10.310  10.605   2.076 -0.6014  0.2926 -0.3695
  549MOL0     H75698  10.316  10.596   2.253  0.1143 -1.1327  0.4183
  549MOL0     H75699  10.502  10.403   2.214  1.9232  1.7039  1.4695
  549MOL0     H75700  10.491  10.450   2.048 -0.0721  0.5484 -0.1837
  549MOL0     H75701  10.561  10.617   2.295 -1.3767 -0.6801 -0.4449
  549MOL0     H75702  10.683  10.548   2.179 -0.4404 -1.8723 -0.6233
  549MOL0     H75703  10.480  10.761   2.102 -0.2063 -0.1826  1.4510
  549MOL0     H75704  10.595  10.675   2.004  0.2571  0.5388 -0.0806
  549MOL0     H75705  10.682  10.886   2.053  0.7543  0.6033 -0.0976
  549MOL0     H75706  10.648  10.881   2.222  0.1305 -0.2993  0.3439
  549MOL0     H75707  10.846  10.719   2.057 -1.4093 -0.8146 -1.1710
  549MOL0     H75708  10.838  10.707   2.227 -1.4320 -1.5213 -1.3053
  549MOL0     H75709  10.915  10.950   2.079 -1.0158 -3.0658 -1.2668
  549MOL0     H75710  10.885  10.971   2.251 -2.7374 -1.9168  2.6039
  549MOL0     H75711  11.109  10.961   2.374 -2.5278 -0.7519  0.3412
  549MOL0     H75712  11.380  10.917   2.407  0.6167  0.3549  0.4697
  549MOL0     H75713  11.443  10.788   2.312  0.7078  2.8499  0.1400
  549MOL0     H75714  11.267  10.744   2.562 -0.2684 -0.2541 -0.2176
  549MOL0     H75715  11.299  10.617   2.450 -2.3191  1.3528  0.0852
  549MOL0     H75716  11.490  10.751   2.633 -2.6837 -0.2457  1.3661
  549MOL0     H75717  11.455  10.577   2.620  0.7593 -0.4306  0.9010
  549MOL0     H75718  11.633  10.742   2.432  0.3124  0.1696 -0.2308
  549MOL0     H75719  11.661  10.600   2.535 -1.6337 -0.2300  0.8323
  549MOL0     H75720  11.784  10.429   2.390 -0.7447  0.3700  1.3007
  549MOL0     H75721  12.044  10.488   2.277 -0.9787  1.7064 -1.8541
  549MOL0     H75722  12.037  10.347   2.169 -1.4539 -3.2543  1.9742
  549MOL0     H75723  11.960  10.340   2.327 -1.6097  0.1172  0.4700
  549MOL0     H75724  11.898  10.838   1.735  1.9356  0.9261  0.6838
  549MOL0     H75725  12.022  10.884   1.506  2.6276  1.2100  1.7218
  549MOL0     H75726  12.355  10.652   1.422  0.5043  0.8128 -0.3345
  549MOL0     H75727  12.277  10.570   1.286  0.9943  0.3631  0.8262
  549MOL0     H75728  12.408  10.719   1.186 -1.0114  1.2924 -0.9642
  549MOL0     H75729  12.247  10.801   1.185 -0.6273 -2.1952 -1.1480
  549MOL0     H75730  12.468  10.855   1.392  0.6727 -3.8433 -2.7287
  549MOL0     H75731  12.320  10.952   1.356 -1.2090 -1.7703 -0.0871
  549MOL0     H75732  12.428  11.021   1.149  0.5126 -0.2172 -0.4234
  549MOL0     H75733  12.568  10.927   1.184 -2.1380 -0.4764 -3.3757
  549MOL0     H75734  12.470  11.106   1.403  0.5004 -1.0348  0.7879
  549MOL0     H75735  12.628  11.036   1.373 -1.3542 -2.0291  1.8082
  549MOL0     H75736  12.507  11.259   1.203 -0.1119  1.1271  0.8769
  549MOL0     H75737  12.666  11.186   1.174  0.3282 -0.6139  0.1651
  549MOL0     H75738  12.752  11.234   1.383 -1.0009 -2.0287 -0.4820
  549MOL0     H75739  12.614  11.332   1.435 -0.1210  0.0303 -0.3990
  549MOL0     H75740  12.639  11.472   1.230 -0.2017  0.6843 -0.7716
  549MOL0     H75741  12.779  11.385   1.177 -0.2567 -1.0301 -0.3134
  549MOL0     H75742  12.151  10.469   1.532 -0.6187 -0.6392  1.9571
  549MOL0     H75743  12.064  10.440   1.741  0.7954  0.1476  0.0601
  549MOL0     H75744  11.670  10.627   1.948 -1.4865  3.2282  1.4577
  549MOL0     H75745  11.511  10.640   2.127 -0.9334 -1.8245  0.6445
  549MOL0     H75746   9.900  10.579   2.369  0.2182 -0.5506 -0.1629
  549MOL0     H75747   9.721  10.719   2.268 -0.0161  0.1912  1.1766
  549MOL0     H75748   9.759  10.901   1.796  1.5025  0.5051 -2.6791
  549MOL0     H75749   9.710  10.996   1.572 -0.3320  0.4477  1.6679
  549MOL0     H75750   9.609  11.085   1.426 -0.5032 -0.8281  1.1604
  549MOL0     H75751   9.595  10.975   1.287  0.4676  4.9850 -2.4286
  549MOL0     H75752   9.504  11.203   1.240 -1.7129 -1.9252 -4.7536
  549MOL0     H75753   9.403  11.177   1.386  1.4170  2.6413 -1.7323
  549MOL0     H75754   9.302  10.983   1.235 -3.3686  3.5187 -0.8675
  549MOL0     H75755   9.259  11.139   1.189  0.0360 -1.4174 -2.9523
  549MOL0     H75756   9.500  11.017   1.051  1.8615  2.2934  0.5863
  549MOL0     H75757   9.402  11.167   1.016 -4.5765 -0.7171  0.0389
  549MOL0     H75758   9.210  10.878   0.799 -0.8461 -0.3509  0.4253
  549MOL0     H75759   9.328  10.793   1.582 -0.6086  1.4945  1.2107
  549MOL0     H75760   9.315  10.748   1.903  2.4398  0.4523  0.5516
  549MOL0     H75761   9.266  10.657   1.755 -0.3697  0.2377  0.6174
  549MOL0     H75762   9.376  10.594   1.870  0.1996  1.8925  4.0122
  550MOL0     O75763   5.441  10.951   6.677  0.6353 -0.1886  0.3670
  550MOL0     C75764   5.380  10.955   6.786 -0.3093  0.8437 -0.2100
  550MOL0     O75765   5.444  10.964   6.911  0.1879  0.0858  0.3495
  550MOL0     C75766   5.583  10.955   6.911 -0.2952  0.3014  0.6276
  550MOL0     C75767   5.672  11.041   6.840  1.8618  0.1147  0.1346
  550MOL0     C75768   5.806  11.035   6.859 -0.2898  0.0515  0.6572
  550MOL0     C75769   5.868  10.939   6.942  0.4597 -0.4096 -0.7639
  550MOL0     O75770   6.006  10.929   6.966  0.1718  0.1368  0.5678
  550MOL0     C75771   6.076  10.851   6.860  0.5497 -0.5093  0.0813
  550MOL0     C75772   6.223  10.862   6.889 -0.4211 -0.6258  1.0684
  550MOL0     C75773   6.315  10.961   6.811 -0.0500  0.0081  0.3429
  550MOL0     C75774   6.317  10.920   6.665 -0.4055  0.2321  0.2317
  550MOL0     C75775   6.292  11.052   6.588  1.0789  0.7627  0.5162
  550MOL0     C75776   6.146  11.100   6.566  0.1388 -0.8845  0.4876
  550MOL0     C75777   6.055  11.003   6.498  0.2815  0.0900  0.0745
  550MOL0     C75778   5.919  11.057   6.458  0.3198 -0.7494  1.1646
  550MOL0     N75779   5.858  10.983   6.342 -0.6038 -0.9015 -0.7251
  550MOL0     C75780   5.754  11.028   6.278  0.3244 -0.8423 -0.1435
  550MOL0     C75781   5.734  10.945   6.176  0.7226  0.9629  0.3586
  550MOL0     C75782   5.640  10.981   6.064 -0.2091  0.6103 -0.7845
  550MOL0     C75783   5.494  10.925   6.107 -0.4692 -0.2336 -0.4678
  550MOL0     C75784   5.428  11.008   6.215  0.2697  0.3670  0.4305
  550MOL0     C75785   5.377  11.142   6.143 -0.1750  0.4073  0.1771
  550MOL0     O75786   5.242  11.150   6.107  0.3710 -0.0525  0.5712
  550MOL0     C75787   5.145  11.130   6.205 -0.3580  0.0919 -0.1708
  550MOL0     C75788   5.015  11.094   6.155 -0.6503  0.2651  0.1181
  550MOL0     C75789   4.904  11.081   6.241  0.2509 -0.9402 -0.3419
  550MOL0     C75790   4.786  11.010   6.187  1.0460  0.3001  1.5348
  550MOL0     C75791   4.917  11.114   6.378  0.1286 -0.7973 -0.0202
  550MOL0     C75792   4.800  11.130   6.470  0.4538 -0.0788  0.2231
  550MOL0     O75793   4.680  11.089   6.426 -0.5449 -0.3247 -0.2458
  550MOL0     C75794   4.567  11.098   6.503 -0.4408  0.3149 -0.1340
  550MOL0     C75795   4.459  11.169   6.459 -0.8449  0.4089  0.2201
  550MOL0     C75796   4.337  11.174   6.529 -0.0108  0.2872 -0.3157
  550MOL0     C75797   4.324  11.094   6.644 -0.5375 -0.0546  0.4268
  550MOL0     O75798   4.209  11.090   6.721 -0.5543 -0.7854 -0.4148
  550MOL0     C75799   4.088  11.077   6.649  0.5238  0.1095  0.5578
  550MOL0     C75800   3.989  11.184   6.701  0.4787 -0.3795 -0.5771
  550MOL0     C75801   3.852  11.166   6.637  0.2800  0.0668 -0.8468
  550MOL0     C75802   3.772  11.296   6.651 -0.7958  0.5619 -1.1219
  550MOL0     C75803   3.626  11.278   6.613  0.3706 -0.0601 -0.2239
  550MOL0     C75804   3.538  11.174   6.692  0.6156 -0.0661 -0.0894
  550MOL0     C75805   3.549  11.201   6.842 -0.1628 -1.2333 -0.2873
  550MOL0     C75806   3.467  11.112   6.922  0.7694  0.4934  0.5549
  550MOL0    Cl75807   3.293  11.148   6.883  0.2287 -0.5318 -0.6776
  550MOL0     C75808   4.433  11.015   6.685  0.5634  0.0109 -0.1464
  550MOL0     C75809   4.556  11.022   6.621 -0.2814  0.2243  0.4461
  550MOL0     O75810   4.823  11.173   6.585 -0.2001 -0.6295 -0.0577
  550MOL0     C75811   5.041  11.165   6.424 -0.1035 -0.1002 -0.2158
  550MOL0     C75812   5.154  11.159   6.341 -0.2564  1.5144  0.4107
  550MOL0     N75813   5.825  10.838   6.183  0.1311  0.6878 -0.5737
  550MOL0     N75814   5.886  10.863   6.289 -0.5120  0.4373 -0.4040
  550MOL0     C75815   5.781  10.855   7.013 -0.3433  0.2275  0.3514
  550MOL0     C75816   5.643  10.862   6.995  0.1187 -0.1579 -0.1205
  550MOL0     C75817   5.230  10.933   6.781  0.0748  0.6196  0.7020
  550MOL0     C75818   5.161  10.952   6.897 -0.1415 -0.5212  0.1314
  550MOL0     C75819   5.023  10.920   6.913 -1.0341  0.2653 -0.3836
  550MOL0     C75820   4.945  10.881   6.806  0.5708 -0.5218 -0.4213
  550MOL0     O75821   4.812  10.851   6.801 -0.6734  0.3664  0.0861
  550MOL0     C75822   4.745  10.817   6.921  0.1185  0.4838 -0.3048
  550MOL0     C75823   4.791  10.675   6.972 -0.8418  0.9063  0.6019
  550MOL0     C75824   4.766  10.564   6.866  0.4641 -0.7500  0.4551
  550MOL0     C75825   4.819  10.428   6.908 -0.0809  0.4030 -0.6148
  550MOL0     C75826   4.917  10.367   6.816  0.5013 -0.0041  0.9255
  550MOL0     C75827   5.002  10.316   6.746  0.4205  0.2251 -0.4584
  550MOL0     C75828   5.009  10.883   6.685  0.1460 -0.5680 -0.2361
  550MOL0     C75829   5.145  10.899   6.672 -0.7831 -0.8123  0.2673
  550MOL0     C75830   5.201  10.882   6.531 -1.2984  0.5538 -0.2296
  550MOL0     H75831   5.613  11.102   6.773 -0.5496  0.1548  2.1658
  550MOL0     H75832   5.874  11.095   6.800 -0.5576 -1.8070 -1.6756
  550MOL0     H75833   6.051  10.889   6.760 -0.0472  0.5346  0.6096
  550MOL0     H75834   6.037  10.749   6.863 -1.5208  0.2259  3.7847
  550MOL0     H75835   6.239  10.877   6.996 -0.7940 -1.1510  1.2004
  550MOL0     H75836   6.265  10.764   6.863  0.8019  0.7429 -2.7916
  550MOL0     H75837   6.273  11.060   6.829  0.4788 -0.2429  3.5721
  550MOL0     H75838   6.418  10.960   6.848  0.7373 -0.1630 -1.7556
  550MOL0     H75839   6.418  10.891   6.637 -0.4535 -0.8593  1.0751
  550MOL0     H75840   6.246  10.840   6.640  0.1077  0.0305 -0.5923
  550MOL0     H75841   6.332  11.021   6.491  0.0572  0.1826  0.2685
  550MOL0     H75842   6.356  11.133   6.625  2.1218 -1.0053  2.8239
  550MOL0     H75843   6.094  11.140   6.654  0.5261  2.1273 -0.5186
  550MOL0     H75844   6.150  11.190   6.503 -1.2703  0.7490  2.5693
  550MOL0     H75845   6.038  10.914   6.560 -1.4093  2.0259  2.5518
  550MOL0     H75846   6.098  10.969   6.403  0.1791 -1.2345  0.4756
  550MOL0     H75847   5.853  11.053   6.545 -1.4599  0.5833 -0.0794
  550MOL0     H75848   5.933  11.159   6.420  1.4086 -1.1422  0.4532
  550MOL0     H75849   5.709  11.126   6.287  0.7561 -0.1027 -4.2459
  550MOL0     H75850   5.671  10.919   5.980 -3.4875 -0.2549 -1.4997
  550MOL0     H75851   5.647  11.088   6.043  3.3638  0.3186 -1.6296
  550MOL0     H75852   5.434  10.924   6.015  1.6816 -0.6108 -1.9350
  550MOL0     H75853   5.492  10.822   6.142 -4.2700 -0.5415 -1.1471
  550MOL0     H75854   5.341  10.953   6.251  0.3604 -0.8911 -1.1311
  550MOL0     H75855   5.498  11.033   6.295  1.4852  2.0188 -1.0516
  550MOL0     H75856   5.380  11.224   6.216 -2.0176  0.8438 -0.1894
  550MOL0     H75857   5.446  11.162   6.060 -2.1183  1.3248 -1.3142
  550MOL0     H75858   5.003  11.086   6.048  0.9291  2.5845 -0.3229
  550MOL0     H75859   4.694  11.068   6.181  0.5241 -0.5496  1.2006
  550MOL0     H75860   4.774  10.924   6.253  0.2991 -0.0673  0.9269
  550MOL0     H75861   4.815  10.960   6.094  2.2745 -0.6691  2.4020
  550MOL0     H75862   4.460  11.226   6.367  2.3815 -0.0206 -0.1283
  550MOL0     H75863   4.254  11.233   6.492  0.8048  1.3999 -0.4294
  550MOL0     H75864   4.114  11.088   6.544  0.4456 -0.0513  0.5217
  550MOL0     H75865   4.055  10.974   6.666  0.5462  0.4069  2.7032
  550MOL0     H75866   3.978  11.178   6.810 -0.4599  0.5075 -0.6073
  550MOL0     H75867   4.036  11.281   6.682 -1.4411  0.6608 -0.2942
  550MOL0     H75868   3.802  11.077   6.677  1.7106 -0.2478  0.3118
  550MOL0     H75869   3.855  11.141   6.530 -0.6216 -2.9873 -0.2647
  550MOL0     H75870   3.810  11.378   6.590  0.5859  1.8471  1.3244
  550MOL0     H75871   3.759  11.331   6.754 -0.2025 -1.1365 -0.4436
  550MOL0     H75872   3.566  11.370   6.621 -0.4065 -0.2510 -2.9684
  550MOL0     H75873   3.618  11.250   6.508  0.2221  2.8079 -1.0661
  550MOL0     H75874   3.585  11.077   6.675 -2.3886 -1.4779 -0.9940
  550MOL0     H75875   3.433  11.170   6.661  0.6140 -2.9545  0.0526
  550MOL0     H75876   3.530  11.304   6.873  2.1933 -1.1169  1.0326
  550MOL0     H75877   3.652  11.184   6.876  0.2463  0.7045 -0.4423
  550MOL0     H75878   3.485  11.119   7.030  0.2700  1.6970  0.5783
  550MOL0     H75879   3.486  11.008   6.896 -1.7948 -0.0874  0.7809
  550MOL0     H75880   4.412  10.946   6.766 -1.5177 -1.9778 -2.2437
  550MOL0     H75881   4.635  10.953   6.647 -1.6393 -1.2496  0.8447
  550MOL0     H75882   5.050  11.205   6.525 -0.0636 -1.5018  0.3685
  550MOL0     H75883   5.249  11.179   6.391 -0.6147 -2.2985  3.0991
  550MOL0     H75884   5.819  10.782   7.084 -2.3899  1.2090  2.6405
  550MOL0     H75885   5.574  10.792   7.042  0.3249  0.5241  1.2603
  550MOL0     H75886   5.205  10.987   6.990 -1.4647 -1.0168  0.9785
  550MOL0     H75887   4.974  10.925   7.009 -1.4769  0.1424 -0.6004
  550MOL0     H75888   4.759  10.890   7.001 -1.4803  3.3107 -2.3946
  550MOL0     H75889   4.637  10.820   6.905 -0.0390  1.4925  0.7825
  550MOL0     H75890   4.739  10.646   7.064  0.5449 -0.3944  1.0312
  550MOL0     H75891   4.901  10.670   6.978 -0.6724  0.4906 -1.9967
  550MOL0     H75892   4.661  10.563   6.835  1.1543 -0.5730 -2.1042
  550MOL0     H75893   4.820  10.587   6.774 -0.6253 -1.0736 -0.2870
  550MOL0     H75894   4.727  10.370   6.903  2.7434 -4.5857 -3.9623
  550MOL0     H75895   4.859  10.433   7.010  2.1087 -1.3868 -1.2908
  550MOL0     H75896   5.080  10.268   6.691  0.6597 -0.9023  0.8197
  550MOL0     H75897   4.943  10.860   6.602 -0.1469 -1.4125  0.2264
  550MOL0     H75898   5.267  10.795   6.523 -2.7320 -0.8019  1.7248
  550MOL0     H75899   5.119  10.856   6.464  1.3623 -2.3751 -2.6574
  550MOL0     H75900   5.250  10.972   6.492 -2.7930  1.5613  0.1271
  551MOL0     O75901   2.207   4.739   4.734  0.1296  0.7269 -0.9934
  551MOL0     C75902   2.098   4.763   4.793  0.5755  0.3901 -0.0935
  551MOL0     O75903   2.067   4.890   4.835  0.3137 -0.1981 -0.0922
  551MOL0     C75904   2.173   4.969   4.859 -0.6460 -0.8675 -0.5982
  551MOL0     C75905   2.283   4.937   4.942 -0.0452  0.1034  0.1191
  551MOL0     C75906   2.402   5.007   4.935 -0.3122  0.5487  0.0581
  551MOL0     C75907   2.419   5.123   4.857  0.5996 -0.2134  0.9717
  551MOL0     O75908   2.542   5.184   4.853 -0.2739  1.0113  0.1674
  551MOL0     C75909   2.548   5.308   4.786  0.1671  0.0359 -0.5334
  551MOL0     C75910   2.669   5.378   4.846 -0.2239  0.0463  0.5425
  551MOL0     C75911   2.708   5.520   4.788 -1.0392 -0.1958 -0.0299
  551MOL0     C75912   2.819   5.589   4.871 -0.6207 -0.3813 -0.7834
  551MOL0     C75913   2.802   5.746   4.847 -0.3494  0.3889 -0.5894
  551MOL0     C75914   2.919   5.823   4.911  0.0591 -0.3426 -0.3679
  551MOL0     C75915   2.897   5.981   4.898  0.3894  0.5694 -0.0143
  551MOL0     C75916   2.814   6.042   5.010 -0.0841  0.4771 -0.0202
  551MOL0     N75917   2.808   6.181   4.999  0.0872 -0.2283 -0.6225
  551MOL0     C75918   2.896   6.262   5.072  0.6906 -0.3395 -0.5841
  551MOL0     C75919   2.847   6.392   5.060 -0.1463  0.9665  0.5909
  551MOL0     C75920   2.912   6.503   5.130  0.2181 -0.6245 -0.1572
  551MOL0     C75921   3.013   6.585   5.037 -0.9617  0.7806  0.5025
  551MOL0     C75922   3.116   6.479   4.980 -0.6531 -0.1525  0.2407
  551MOL0     C75923   3.241   6.559   4.931  0.5664 -0.6747 -0.7801
  551MOL0     O75924   3.339   6.465   4.901  0.3229  0.2658  0.5232
  551MOL0     C75925   3.462   6.512   4.860  0.3520 -0.2882  1.0084
  551MOL0     C75926   3.564   6.414   4.845  0.4888  0.3571  0.3341
  551MOL0     C75927   3.690   6.440   4.797 -0.6612 -0.1820 -0.0592
  551MOL0     C75928   3.786   6.325   4.795 -0.1845  0.9585  0.5439
  551MOL0     C75929   3.722   6.573   4.763 -0.9380  0.1836 -1.5176
  551MOL0     C75930   3.839   6.602   4.702  0.8177 -0.4288  0.3645
  551MOL0     O75931   3.938   6.655   4.777 -0.2429 -0.2230  0.3295
  551MOL0     C75932   4.054   6.677   4.701  0.3073 -0.2870  0.0487
  551MOL0     C75933   4.069   6.777   4.606  0.4602 -0.3585  0.0300
  551MOL0     C75934   4.188   6.796   4.540 -0.1518  0.3048  0.5360
  551MOL0     C75935   4.294   6.705   4.565  0.3340 -1.3853 -0.2040
  551MOL0     O75936   4.421   6.703   4.508  0.2115 -0.1140 -0.2276
  551MOL0     C75937   4.432   6.772   4.382  1.0367 -1.0226 -0.7386
  551MOL0     C75938   4.559   6.732   4.311 -0.0170 -0.4709  0.8411
  551MOL0     C75939   4.609   6.838   4.214 -0.3213 -0.0594 -0.3152
  551MOL0     C75940   4.521   6.830   4.086  0.8550 -0.5539 -0.7785
  551MOL0     C75941   4.558   6.938   3.987  0.2953 -0.0118  0.3246
  551MOL0     C75942   4.483   6.924   3.857  0.6556 -0.1806 -0.4123
  551MOL0     C75943   4.484   7.063   3.783 -0.2097  0.7570 -0.7840
  551MOL0     C75944   4.393   7.166   3.847 -0.5249  0.4059 -1.0455
  551MOL0    Cl75945   4.220   7.120   3.887 -0.2010 -0.0406  0.1393
  551MOL0     C75946   4.278   6.612   4.666 -0.5718 -0.2715  0.0218
  551MOL0     C75947   4.162   6.596   4.735  0.3820  0.0287  0.0671
  551MOL0     O75948   3.844   6.586   4.577  0.5766  0.3909 -0.0554
  551MOL0     C75949   3.622   6.669   4.770  0.4155  0.1098  0.1254
  551MOL0     C75950   3.491   6.643   4.818  0.7060  0.8766 -0.2007
  551MOL0     N75951   2.743   6.388   4.983 -0.0247  0.3604 -0.2843
  551MOL0     N75952   2.714   6.264   4.945  0.0893 -0.4122  0.1855
  551MOL0     C75953   2.307   5.154   4.779 -0.2735 -0.1569  0.4885
  551MOL0     C75954   2.187   5.083   4.784  0.2646  0.4207  0.0874
  551MOL0     C75955   1.993   4.658   4.801  0.1693 -0.2108  0.5506
  551MOL0     C75956   2.019   4.537   4.736  0.1762 -0.1741  0.5434
  551MOL0     C75957   1.928   4.428   4.751 -0.0649  0.2177 -0.5466
  551MOL0     C75958   1.803   4.444   4.808 -0.1841  0.7706  0.0380
  551MOL0     O75959   1.727   4.328   4.826 -0.5051  0.3359  0.0780
  551MOL0     C75960   1.620   4.331   4.925  0.3647 -0.5505 -0.2319
  551MOL0     C75961   1.563   4.190   4.960  0.0633 -0.3908  0.3753
  551MOL0     C75962   1.430   4.196   5.023  0.9565 -0.0842  0.7668
  551MOL0     C75963   1.370   4.050   5.033  0.4106 -1.0488 -0.5479
  551MOL0     C75964   1.224   4.056   5.058  0.5377  0.0030  0.2752
  551MOL0     C75965   1.103   4.067   5.070 -0.3002  0.1431  0.0348
  551MOL0     C75966   1.774   4.576   4.853  0.4186 -0.1087 -0.0524
  551MOL0     C75967   1.864   4.685   4.849  1.0824  0.7052 -0.7473
  551MOL0     C75968   1.798   4.817   4.884 -0.1340  0.0004 -0.3228
  551MOL0     H75969   2.275   4.856   5.013 -1.9826  1.0828  1.1141
  551MOL0     H75970   2.493   4.985   4.989  1.4535  1.6496 -2.2811
  551MOL0     H75971   2.456   5.360   4.815 -1.2905 -1.8695 -1.5103
  551MOL0     H75972   2.541   5.294   4.677  1.7954  2.2387 -0.9889
  551MOL0     H75973   2.648   5.382   4.953  0.1016  1.5270  0.5705
  551MOL0     H75974   2.751   5.307   4.833 -2.3277 -2.4719  0.1096
  551MOL0     H75975   2.757   5.506   4.691  3.8939  2.5828  1.6898
  551MOL0     H75976   2.620   5.584   4.783 -2.0423 -1.3191  1.9638
  551MOL0     H75977   2.810   5.556   4.975  2.1650  1.1183  0.0388
  551MOL0     H75978   2.917   5.557   4.834  0.1340  1.5372 -0.5688
  551MOL0     H75979   2.714   5.781   4.902  1.4116  0.4739  2.3302
  551MOL0     H75980   2.800   5.769   4.740  0.0123 -1.2783 -0.9857
  551MOL0     H75981   2.931   5.790   5.014  0.4890 -2.9772 -1.1881
  551MOL0     H75982   3.008   5.783   4.861 -0.1196 -0.4620 -0.5965
  551MOL0     H75983   2.849   5.996   4.801  4.0530 -1.2563 -2.3289
  551MOL0     H75984   2.996   6.028   4.907  2.9394 -4.3237  1.3330
  551MOL0     H75985   2.715   5.996   5.000  1.3506 -2.6342 -0.8500
  551MOL0     H75986   2.847   6.009   5.109 -2.1978 -2.4359 -0.1692
  551MOL0     H75987   2.981   6.213   5.118  1.3770  0.2908 -1.1572
  551MOL0     H75988   2.962   6.475   5.223  2.4071  0.0228 -1.0747
  551MOL0     H75989   2.833   6.578   5.141 -1.2331 -1.6079 -2.9824
  551MOL0     H75990   2.962   6.626   4.950 -0.3610  1.0599  0.2727
  551MOL0     H75991   3.063   6.666   5.092 -0.3202  1.7970 -1.4816
  551MOL0     H75992   3.167   6.430   5.063  1.9397 -1.1033 -1.7448
  551MOL0     H75993   3.090   6.408   4.901  1.4858  0.6986 -1.3375
  551MOL0     H75994   3.223   6.614   4.838  2.1441  2.8076  0.8058
  551MOL0     H75995   3.275   6.634   5.002 -1.3221 -0.4236 -0.0644
  551MOL0     H75996   3.534   6.312   4.868  1.4524  0.0306  0.1818
  551MOL0     H75997   3.791   6.286   4.897  0.1950  2.6636  1.2195
  551MOL0     H75998   3.887   6.346   4.758 -0.0428 -0.3177  0.1731
  551MOL0     H75999   3.747   6.245   4.731  0.5399  0.5000  0.6701
  551MOL0     H76000   3.980   6.838   4.590 -1.5396 -2.6310  1.7332
  551MOL0     H76001   4.208   6.876   4.471 -1.0695  0.6691  0.6698
  551MOL0     H76002   4.342   6.751   4.323 -1.2455  0.9751  1.7686
  551MOL0     H76003   4.422   6.880   4.400  0.2669 -1.3001  0.6020
  551MOL0     H76004   4.636   6.720   4.387  1.0195 -0.0667 -0.1101
  551MOL0     H76005   4.532   6.635   4.267 -2.6260  1.3757 -2.0888
  551MOL0     H76006   4.712   6.829   4.180 -0.0876 -0.9431  0.5706
  551MOL0     H76007   4.611   6.938   4.257 -3.8047 -0.4481  1.0856
  551MOL0     H76008   4.414   6.848   4.104  0.6344  1.2708 -3.3509
  551MOL0     H76009   4.542   6.734   4.040  1.0647 -0.5080 -0.7762
  551MOL0     H76010   4.536   7.030   4.041 -0.1734 -2.5802  4.9856
  551MOL0     H76011   4.667   6.937   3.973  0.0692 -0.3988 -1.8525
  551MOL0     H76012   4.383   6.887   3.881  1.2912 -2.1553 -0.6051
  551MOL0     H76013   4.529   6.842   3.800 -0.8759 -3.6045  2.8544
  551MOL0     H76014   4.455   7.046   3.679 -0.8360 -0.8379 -0.3713
  551MOL0     H76015   4.588   7.096   3.782 -0.0315  0.1931 -1.3099
  551MOL0     H76016   4.393   7.253   3.780  1.2701  1.8165  0.6513
  551MOL0     H76017   4.436   7.194   3.943  1.1421  0.1321 -1.6791
  551MOL0     H76018   4.363   6.547   4.686  1.1446  1.6231 -0.6499
  551MOL0     H76019   4.135   6.519   4.807 -0.6099 -0.7371 -1.0857
  551MOL0     H76020   3.656   6.766   4.736  2.2808 -0.6550 -0.3020
  551MOL0     H76021   3.420   6.725   4.818  0.9671  1.1285  1.0952
  551MOL0     H76022   2.322   5.236   4.710  1.3022 -1.3131 -0.6165
  551MOL0     H76023   2.108   5.117   4.718 -1.8362 -1.8322  1.2566
  551MOL0     H76024   2.108   4.514   4.679  0.2622  3.8181 -1.3215
  551MOL0     H76025   1.937   4.326   4.713 -0.8565 -0.3235  0.6550
  551MOL0     H76026   1.654   4.386   5.013  2.2962 -1.0128 -0.6386
  551MOL0     H76027   1.539   4.393   4.883  1.2172 -1.3195 -3.2884
  551MOL0     H76028   1.619   4.131   5.033 -1.8151 -1.1802  1.2330
  551MOL0     H76029   1.560   4.150   4.859 -0.9092 -1.3168  0.7628
  551MOL0     H76030   1.434   4.263   5.110 -0.4162  0.0136  0.7695
  551MOL0     H76031   1.366   4.258   4.959  0.6563 -0.0542  1.0960
  551MOL0     H76032   1.411   4.012   5.127 -0.8569 -0.3676  0.3272
  551MOL0     H76033   1.386   3.992   4.942 -1.0305 -1.4981 -0.5362
  551MOL0     H76034   0.997   4.063   5.080 -0.1344  0.3458  2.2830
  551MOL0     H76035   1.677   4.603   4.892  0.9567  3.2251 -0.6439
  551MOL0     H76036   1.701   4.799   4.932 -0.3261  0.2297 -0.6221
  551MOL0     H76037   1.851   4.881   4.954  0.7216  0.4235 -1.3271
  551MOL0     H76038   1.773   4.876   4.795 -2.0518 -2.5388 -1.6197
  552MOL0     O76039   7.823   3.408   3.466 -0.6014  0.5654  0.0723
  552MOL0     C76040   7.812   3.507   3.393 -0.0276 -1.0850 -0.2538
  552MOL0     O76041   7.700   3.544   3.327  0.6163 -1.1015  0.3753
  552MOL0     C76042   7.574   3.486   3.339 -0.9779  0.4490  0.1588
  552MOL0     C76043   7.480   3.498   3.243  0.6148  0.2750 -0.2252
  552MOL0     C76044   7.355   3.433   3.256 -0.1022  0.9825 -0.3796
  552MOL0     C76045   7.325   3.350   3.367  0.5502  0.2564 -0.4389
  552MOL0     O76046   7.209   3.270   3.378 -0.4396 -0.3866  0.8995
  552MOL0     C76047   7.080   3.334   3.355  0.1487 -0.4364 -0.4008
  552MOL0     C76048   6.972   3.259   3.428  0.2123 -0.2946  0.8635
  552MOL0     C76049   6.845   3.337   3.417 -0.4666 -0.4034 -1.4549
  552MOL0     C76050   6.727   3.269   3.484  0.4169  0.2928 -0.1457
  552MOL0     C76051   6.589   3.345   3.444  0.3678  0.5524  0.9908
  552MOL0     C76052   6.469   3.293   3.521  0.4919 -0.2045 -0.2331
  552MOL0     C76053   6.339   3.352   3.444  0.2341 -0.0469 -0.1338
  552MOL0     C76054   6.308   3.493   3.487 -0.4294 -0.5310  0.6790
  552MOL0     N76055   6.165   3.528   3.497  0.9081  0.0725  0.6784
  552MOL0     C76056   6.089   3.565   3.388 -1.3379 -0.4822 -1.0208
  552MOL0     C76057   5.969   3.605   3.441  0.5513 -0.5213  1.5818
  552MOL0     C76058   5.848   3.659   3.374  0.5604  0.7798 -0.1874
  552MOL0     C76059   5.859   3.672   3.224 -0.4089  0.3307  1.0700
  552MOL0     C76060   5.937   3.801   3.189  0.4609 -0.6305 -0.5094
  552MOL0     C76061   5.996   3.805   3.043  0.7030 -0.2348 -0.0711
  552MOL0     O76062   6.073   3.684   3.012  0.0279 -0.5439  0.0096
  552MOL0     C76063   6.202   3.668   3.050 -0.1651  0.7065  0.3351
  552MOL0     C76064   6.258   3.538   3.039 -0.6068  0.3165  0.0679
  552MOL0     C76065   6.398   3.523   3.068  0.8086 -0.0581  0.5820
  552MOL0     C76066   6.450   3.387   3.029 -0.6636  0.6057 -0.2022
  552MOL0     C76067   6.480   3.628   3.111  0.3454  0.1311 -0.7239
  552MOL0     C76068   6.633   3.617   3.124  1.1804  0.3616  0.3200
  552MOL0     O76069   6.690   3.723   3.191  0.0873 -0.4550 -0.1261
  552MOL0     C76070   6.818   3.719   3.241  0.5374 -0.0030 -0.7260
  552MOL0     C76071   6.935   3.661   3.174  0.5078 -0.0088  0.0065
  552MOL0     C76072   7.069   3.672   3.219  1.1102  0.5560  0.1736
  552MOL0     C76073   7.084   3.737   3.344 -0.4175 -0.5182  0.0602
  552MOL0     O76074   7.212   3.755   3.385 -0.1936 -0.0746  0.2772
  552MOL0     C76075   7.241   3.720   3.520 -0.4777 -0.4172 -0.2578
  552MOL0     C76076   7.372   3.792   3.553 -1.5696  0.4483 -0.3012
  552MOL0     C76077   7.467   3.713   3.647 -0.4295 -0.2103  0.2045
  552MOL0     C76078   7.404   3.701   3.786 -0.2650 -0.9690 -0.1620
  552MOL0     C76079   7.506   3.631   3.880  0.3399  0.2699 -0.2730
  552MOL0     C76080   7.439   3.572   4.007 -0.0007 -0.1821 -0.8531
  552MOL0     C76081   7.369   3.671   4.101 -0.7228 -0.0821  0.5515
  552MOL0     C76082   7.470   3.781   4.137 -0.5295 -0.4787  0.6361
  552MOL0    Cl76083   7.612   3.703   4.233  0.1622 -0.2214 -0.0473
  552MOL0     C76084   6.977   3.795   3.409 -0.5638  0.9065 -0.2771
  552MOL0     C76085   6.851   3.791   3.361 -0.1487  0.1889 -0.8541
  552MOL0     O76086   6.685   3.514   3.103 -0.4022 -0.4645  0.3767
  552MOL0     C76087   6.417   3.750   3.133 -0.0890 -0.1184  0.4080
  552MOL0     C76088   6.287   3.776   3.098  0.0205  0.7125  0.6259
  552MOL0     N76089   5.973   3.587   3.579 -0.3007 -0.5062  0.2642
  552MOL0     N76090   6.091   3.544   3.608  0.2368 -0.0933  0.2538
  552MOL0     C76091   7.425   3.338   3.467 -0.1067 -0.3723 -0.6030
  552MOL0     C76092   7.539   3.418   3.464 -0.8533 -0.0980 -0.1811
  552MOL0     C76093   7.925   3.599   3.382 -0.2255 -1.0530 -0.0562
  552MOL0     C76094   8.055   3.548   3.395 -0.7495 -0.1374 -0.7475
  552MOL0     C76095   8.173   3.622   3.367  0.0175  0.1286 -0.3753
  552MOL0     C76096   8.165   3.755   3.326  0.0784  0.1354 -0.3738
  552MOL0     O76097   8.282   3.801   3.283 -0.2638  0.0851  0.4183
  552MOL0     C76098   8.281   3.908   3.181  0.1817 -0.1299 -0.4288
  552MOL0     C76099   8.310   4.035   3.264 -0.3240 -0.4499  0.5550
  552MOL0     C76100   8.453   4.039   3.305  0.0886 -0.0473  0.1632
  552MOL0     C76101   8.498   4.177   3.377  0.4446 -0.1386  0.2716
  552MOL0     C76102   8.622   4.144   3.442 -0.0178  0.9606 -0.8850
  552MOL0     C76103   8.723   4.129   3.513  0.0031 -0.2972 -0.1802
  552MOL0     C76104   8.036   3.812   3.314  0.0953  0.4244 -0.2028
  552MOL0     C76105   7.919   3.738   3.342 -0.6365 -0.1856  0.3003
  552MOL0     C76106   7.787   3.815   3.334  0.9278 -0.3875  0.0882
  552MOL0     H76107   7.489   3.567   3.159 -0.4608 -0.1351 -0.6979
  552MOL0     H76108   7.296   3.446   3.165 -0.2316  3.8658  0.0246
  552MOL0     H76109   7.067   3.332   3.246  2.7920 -0.3952 -0.7796
  552MOL0     H76110   7.075   3.438   3.388  0.0328 -0.4043 -0.5186
  552MOL0     H76111   6.955   3.158   3.388 -1.6836  0.4478 -0.3036
  552MOL0     H76112   6.996   3.241   3.534  0.6929 -2.3530  0.4621
  552MOL0     H76113   6.863   3.431   3.471  1.2108 -1.3282 -0.3479
  552MOL0     H76114   6.819   3.371   3.316  1.0717  3.4140 -0.7556
  552MOL0     H76115   6.726   3.163   3.455  0.4105 -0.0509  1.0297
  552MOL0     H76116   6.751   3.277   3.591  0.7281 -1.5366 -0.0467
  552MOL0     H76117   6.580   3.323   3.338 -2.7968  1.7034  0.9266
  552MOL0     H76118   6.596   3.454   3.446  3.1815  0.5441 -1.4262
  552MOL0     H76119   6.467   3.184   3.516 -4.2029 -0.2951 -0.7303
  552MOL0     H76120   6.471   3.319   3.627 -1.9117  1.9596 -0.6456
  552MOL0     H76121   6.248   3.302   3.477 -0.4857  1.6776  0.6210
  552MOL0     H76122   6.352   3.353   3.335  1.2099  1.5403 -0.0458
  552MOL0     H76123   6.372   3.512   3.574  3.7569 -2.1214 -1.7316
  552MOL0     H76124   6.361   3.555   3.415  0.7059 -2.9415 -0.7134
  552MOL0     H76125   6.113   3.566   3.282 -0.5358  3.2557 -0.9552
  552MOL0     H76126   5.820   3.755   3.419 -0.2437  0.6811 -0.4658
  552MOL0     H76127   5.765   3.593   3.400  2.5001 -2.3753 -1.3931
  552MOL0     H76128   5.909   3.584   3.184  0.6990  2.1898 -1.9841
  552MOL0     H76129   5.758   3.686   3.187 -1.1046  1.1990  3.1222
  552MOL0     H76130   5.866   3.883   3.205  0.8677 -0.5990  1.4437
  552MOL0     H76131   6.025   3.810   3.254  2.2363  2.7495 -3.0950
  552MOL0     H76132   5.910   3.816   2.976 -0.7271  0.3369  1.7511
  552MOL0     H76133   6.049   3.901   3.037  0.0741  0.1237 -0.0368
  552MOL0     H76134   6.198   3.456   3.002  1.3578 -1.1636 -0.0170
  552MOL0     H76135   6.376   3.316   2.991  0.1033 -0.0635 -0.4662
  552MOL0     H76136   6.489   3.347   3.123 -0.2559  3.5664  1.0110
  552MOL0     H76137   6.528   3.402   2.954  0.1031 -0.0156  0.4614
  552MOL0     H76138   6.913   3.621   3.075  0.9879 -0.2266 -0.0137
  552MOL0     H76139   7.156   3.629   3.170  1.2076  0.0039  0.8001
  552MOL0     H76140   7.165   3.757   3.589 -1.1350 -1.8117 -0.2055
  552MOL0     H76141   7.252   3.611   3.522 -3.1667 -0.9351 -3.5675
  552MOL0     H76142   7.420   3.802   3.456 -1.0672 -0.9838 -0.2225
  552MOL0     H76143   7.349   3.893   3.589 -0.5260  1.2014 -1.6814
  552MOL0     H76144   7.569   3.754   3.654  0.8451 -2.2673 -3.4425
  552MOL0     H76145   7.480   3.614   3.604  1.1685 -0.9723  2.2584
  552MOL0     H76146   7.310   3.644   3.787 -0.3916 -0.7653  1.3111
  552MOL0     H76147   7.370   3.801   3.813 -1.1679 -1.3166  0.0394
  552MOL0     H76148   7.563   3.549   3.835  1.9821  0.8067  0.7259
  552MOL0     H76149   7.593   3.689   3.912  0.1680 -0.0973  0.9361
  552MOL0     H76150   7.528   3.532   4.057  1.1717  0.9230 -1.9822
  552MOL0     H76151   7.372   3.491   3.975  1.6106 -1.3280 -1.4491
  552MOL0     H76152   7.334   3.613   4.187  0.0751 -3.7780 -1.3742
  552MOL0     H76153   7.284   3.705   4.042  1.1770  0.3017 -2.1634
  552MOL0     H76154   7.428   3.862   4.198 -2.0213  0.3295 -1.3340
  552MOL0     H76155   7.518   3.840   4.059  2.4971 -2.2041  1.0411
  552MOL0     H76156   6.998   3.830   3.509  2.7344 -3.3733  0.7946
  552MOL0     H76157   6.764   3.839   3.406 -1.1486 -1.5237 -0.8547
  552MOL0     H76158   6.476   3.830   3.177  1.5354 -0.7050 -0.5936
  552MOL0     H76159   6.233   3.866   3.125 -1.3060 -0.6160  2.7867
  552MOL0     H76160   7.400   3.292   3.562 -0.8310  1.4378  0.1353
  552MOL0     H76161   7.613   3.429   3.543 -0.9674 -0.5656 -0.0050
  552MOL0     H76162   8.073   3.441   3.402  2.4101  0.3118 -0.3424
  552MOL0     H76163   8.272   3.578   3.359 -0.2454 -0.9247  1.6073
  552MOL0     H76164   8.361   3.892   3.110  0.9501 -1.4925  0.7026
  552MOL0     H76165   8.183   3.912   3.132 -0.1162 -0.1203  0.1546
  552MOL0     H76166   8.244   4.045   3.351  0.4821 -0.4200  1.1711
  552MOL0     H76167   8.286   4.125   3.205  1.3597 -1.2922 -1.5387
  552MOL0     H76168   8.470   3.949   3.366  0.5780 -0.7213 -0.9262
  552MOL0     H76169   8.510   4.019   3.213 -1.2057  0.1726 -0.7036
  552MOL0     H76170   8.420   4.220   3.440  0.4132  1.8321 -1.0262
  552MOL0     H76171   8.523   4.255   3.305  2.9506  2.2481  3.4480
  552MOL0     H76172   8.812   4.133   3.572 -0.2181 -2.6219  0.4185
  552MOL0     H76173   8.025   3.912   3.275 -1.3995  0.0503 -0.8482
  552MOL0     H76174   7.721   3.788   3.252 -2.6731  0.5498  2.4546
  552MOL0     H76175   7.733   3.786   3.424  0.9006  0.9656  0.5349
  552MOL0     H76176   7.801   3.924   3.339 -0.9796 -0.1242  0.2803
  553MOL0     O76177   6.959   0.268   3.654  0.5046 -0.2064 -0.5505
  553MOL0     C76178   6.897   0.371   3.620  0.4956 -0.8547  1.1054
  553MOL0     O76179   6.959   0.475   3.546  0.4835 -0.5427  0.0829
  553MOL0     C76180   7.096   0.472   3.518 -0.0710 -0.0270  0.2743
  553MOL0     C76181   7.172   0.589   3.511 -0.6223 -0.5349  0.3068
  553MOL0     C76182   7.304   0.577   3.463 -0.8963  0.5326 -0.0392
  553MOL0     C76183   7.363   0.456   3.440 -0.0508  0.9301 -0.1772
  553MOL0     O76184   7.492   0.452   3.411 -0.1219 -0.1939  0.4212
  553MOL0     C76185   7.567   0.338   3.376 -1.0363 -0.3296 -0.3782
  553MOL0     C76186   7.717   0.395   3.355  0.7676  0.9641  0.2708
  553MOL0     C76187   7.807   0.273   3.380 -1.2049  0.5063  0.1044
  553MOL0     C76188   7.937   0.318   3.451 -0.0014 -0.1090  0.5825
  553MOL0     C76189   8.038   0.212   3.471  0.2485 -0.5848 -0.1770
  553MOL0     C76190   8.159   0.267   3.563 -0.1966  0.0326 -0.4375
  553MOL0     C76191   8.280   0.165   3.570 -1.5644 -0.3931 -0.3531
  553MOL0     C76192   8.266   0.068   3.688 -0.2428 -0.4243  0.5112
  553MOL0     N76193   8.370  -0.034   3.690 -0.7553 -0.2068  0.1204
  553MOL0     C76194   8.375  -0.157   3.631 -0.9365 -0.1008  0.2204
  553MOL0     C76195   8.504  -0.209   3.652  1.3221  0.1774  0.0484
  553MOL0     C76196   8.566  -0.332   3.586  0.6805 -0.0104  0.0615
  553MOL0     C76197   8.713  -0.321   3.541 -0.3911  0.4058 -0.3481
  553MOL0     C76198   8.744  -0.260   3.393 -0.5363 -0.6404 -0.1141
  553MOL0     C76199   8.896  -0.234   3.362  0.3507  0.2813  0.0009
  553MOL0     O76200   8.963  -0.356   3.401 -0.0172  0.2985  0.6984
  553MOL0     C76201   9.028  -0.426   3.303 -0.3393 -0.4546 -0.4913
  553MOL0     C76202   8.967  -0.520   3.221  0.1507  0.1523  1.1509
  553MOL0     C76203   9.039  -0.598   3.122  0.4299  0.1224  0.0440
  553MOL0     C76204   8.950  -0.679   3.025  0.0741  1.1657  0.0147
  553MOL0     C76205   9.182  -0.599   3.126 -0.0590 -0.9718 -0.1678
  553MOL0     C76206   9.275  -0.688   3.037  0.0378 -0.7103 -0.1510
  553MOL0     O76207   9.407  -0.650   3.018 -0.0807  0.8746 -0.1297
  553MOL0     C76208   9.470  -0.725   2.921  0.5039 -0.3301 -0.0074
  553MOL0     C76209   9.441  -0.688   2.792  0.4102  0.5188 -0.5086
  553MOL0     C76210   9.510  -0.750   2.687 -0.0510 -0.6062  0.5099
  553MOL0     C76211   9.609  -0.846   2.703  0.0779 -0.1668  0.0159
  553MOL0     O76212   9.672  -0.900   2.588 -0.2255 -0.2645  0.1813
  553MOL0     C76213   9.758  -1.015   2.604 -0.7851 -0.5543 -0.5736
  553MOL0     C76214   9.908  -0.982   2.617  0.7774 -0.1475 -0.1927
  553MOL0     C76215   9.985  -1.106   2.565 -0.0193  0.2004  0.0126
  553MOL0     C76216  10.136  -1.092   2.567 -1.0136  0.0912  0.0200
  553MOL0     C76217  10.206  -1.210   2.486  0.5365 -1.1871 -0.7938
  553MOL0     C76218  10.350  -1.195   2.482  0.5086  0.1437 -0.5394
  553MOL0     C76219  10.420  -1.239   2.611 -0.3883  0.7117 -0.1764
  553MOL0     C76220  10.564  -1.200   2.603  0.0038 -0.0973  0.3419
  553MOL0    Cl76221  10.654  -1.281   2.471 -0.7006 -0.1530 -0.4465
  553MOL0     C76222   9.639  -0.878   2.839 -0.7401 -0.1973  0.1496
  553MOL0     C76223   9.564  -0.827   2.943 -0.0748 -0.2876 -0.2979
  553MOL0     O76224   9.223  -0.788   2.990 -0.3248  1.1518  0.7228
  553MOL0     C76225   9.241  -0.509   3.222 -0.3426 -0.5137  0.4947
  553MOL0     C76226   9.167  -0.428   3.310 -0.5995 -0.8614 -0.5106
  553MOL0     N76227   8.564  -0.121   3.734  0.6734  0.0007 -0.2314
  553MOL0     N76228   8.489  -0.011   3.750 -0.3401  1.4285 -0.5068
  553MOL0     C76229   7.284   0.337   3.434 -0.2834 -0.3776 -0.3378
  553MOL0     C76230   7.149   0.350   3.469  0.3189  0.1350  1.0513
  553MOL0     C76231   6.753   0.370   3.649  1.1832  0.0554 -0.4211
  553MOL0     C76232   6.681   0.490   3.614 -0.0845  0.2057  0.5767
  553MOL0     C76233   6.539   0.494   3.630  0.3595 -0.2536  1.1468
  553MOL0     C76234   6.465   0.386   3.682 -0.6731  0.1577  0.0987
  553MOL0     O76235   6.330   0.394   3.713  0.0035 -0.0679  0.5029
  553MOL0     C76236   6.234   0.445   3.615 -0.4104 -0.1160  0.5377
  553MOL0     C76237   6.121   0.523   3.683 -0.1278  0.6119 -0.2759
  553MOL0     C76238   6.040   0.435   3.775  0.3755  0.3946 -0.4668
  553MOL0     C76239   5.973   0.512   3.888  0.2597  0.4957 -0.4641
  553MOL0     C76240   5.878   0.617   3.848 -0.2116  0.6225 -0.0212
  553MOL0     C76241   5.796   0.697   3.821 -0.4245  0.5411 -0.2593
  553MOL0     C76242   6.538   0.276   3.728  0.8198  0.8318  0.4212
  553MOL0     C76243   6.673   0.261   3.709 -0.6325 -0.1286 -0.4532
  553MOL0     C76244   6.735   0.142   3.770 -0.4005  0.3721 -0.3033
  553MOL0     H76245   7.136   0.690   3.525 -0.6149 -0.3912 -0.6349
  553MOL0     H76246   7.364   0.667   3.456 -3.4190  2.3311 -0.1047
  553MOL0     H76247   7.536   0.280   3.288  0.1085 -0.0062 -1.0267
  553MOL0     H76248   7.566   0.284   3.471 -1.2835  2.9334  1.6356
  553MOL0     H76249   7.719   0.418   3.248 -1.0858  1.6767  0.3500
  553MOL0     H76250   7.740   0.485   3.412  1.7476  0.3194  0.9334
  553MOL0     H76251   7.768   0.194   3.446 -0.9862  3.5319  4.2759
  553MOL0     H76252   7.833   0.232   3.282 -0.1047  0.4577  0.4047
  553MOL0     H76253   7.970   0.406   3.397  0.3134  0.0602  1.0431
  553MOL0     H76254   7.899   0.343   3.551  0.7927  3.0275  0.1900
  553MOL0     H76255   8.075   0.187   3.371 -0.6305  0.6436 -0.8423
  553MOL0     H76256   8.000   0.114   3.503  2.5800 -2.3787 -2.4287
  553MOL0     H76257   8.183   0.362   3.514 -3.0026 -0.1695 -2.4937
  553MOL0     H76258   8.119   0.282   3.664  2.0092 -0.0270  0.5012
  553MOL0     H76259   8.373   0.221   3.585  1.4547 -4.4508 -2.0264
  553MOL0     H76260   8.296   0.103   3.481 -0.9193 -1.1832  0.2992
  553MOL0     H76261   8.266   0.131   3.778  0.1864  1.6029 -0.8549
  553MOL0     H76262   8.168   0.022   3.672 -0.4406  0.6210 -1.4997
  553MOL0     H76263   8.296  -0.201   3.570 -0.3891 -2.3467  1.0374
  553MOL0     H76264   8.505  -0.356   3.499  0.9226  1.5437 -0.5598
  553MOL0     H76265   8.568  -0.408   3.665  0.1502 -0.9753 -0.8180
  553MOL0     H76266   8.769  -0.256   3.610  2.6094 -2.3190  0.0348
  553MOL0     H76267   8.759  -0.421   3.538  2.7858  1.6166  1.9597
  553MOL0     H76268   8.729  -0.329   3.309  0.9525  3.6150 -4.3922
  553MOL0     H76269   8.695  -0.164   3.372  0.9406  0.0039 -0.8038
  553MOL0     H76270   8.920  -0.202   3.260 -0.0197  1.6627  0.3231
  553MOL0     H76271   8.922  -0.150   3.427  0.0426  0.6162 -0.3100
  553MOL0     H76272   8.860  -0.534   3.216 -0.0751  1.8504  0.7439
  553MOL0     H76273   9.004  -0.693   2.931  2.8912 -1.3078  1.7923
  553MOL0     H76274   8.862  -0.618   3.006  0.6540  2.9408  2.4766
  553MOL0     H76275   8.919  -0.773   3.072 -0.5238  1.1391 -0.4308
  553MOL0     H76276   9.369  -0.610   2.773 -2.5914 -1.2020  2.5646
  553MOL0     H76277   9.485  -0.728   2.583 -0.5201  3.5770  1.3430
  553MOL0     H76278   9.731  -1.070   2.695 -3.3358 -0.3623 -1.1148
  553MOL0     H76279   9.744  -1.085   2.522  0.6237 -4.4780  2.2431
  553MOL0     H76280   9.934  -0.901   2.549 -2.5802  1.4640  0.2414
  553MOL0     H76281   9.928  -0.964   2.723  0.9943 -3.6065  0.4569
  553MOL0     H76282   9.954  -1.137   2.465  0.7996 -0.3727 -0.0810
  553MOL0     H76283   9.961  -1.185   2.637 -0.6626  0.1838 -0.2175
  553MOL0     H76284  10.186  -1.086   2.664  1.2879 -1.0520 -1.0175
  553MOL0     H76285  10.161  -1.000   2.514 -2.1440  0.3330 -0.1142
  553MOL0     H76286  10.187  -1.308   2.532 -1.1518 -0.1077  0.9744
  553MOL0     H76287  10.155  -1.212   2.389  0.0449  0.6378 -0.6116
  553MOL0     H76288  10.357  -1.087   2.465 -1.7835  0.3400 -0.4653
  553MOL0     H76289  10.395  -1.253   2.401 -1.2789  2.2679 -3.1933
  553MOL0     H76290  10.421  -1.348   2.625 -2.3422  0.5144 -1.1959
  553MOL0     H76291  10.380  -1.190   2.701 -0.8706  3.5915 -1.8440
  553MOL0     H76292  10.609  -1.218   2.701  0.4013 -0.5815  0.0757
  553MOL0     H76293  10.575  -1.092   2.597  0.6734 -0.1061  1.1694
  553MOL0     H76294   9.716  -0.948   2.871 -2.7442 -2.3419  0.5651
  553MOL0     H76295   9.599  -0.841   3.045  3.5355  1.5800 -1.1042
  553MOL0     H76296   9.349  -0.509   3.237 -0.3850 -1.0511  0.8322
  553MOL0     H76297   9.215  -0.369   3.388 -0.0788 -1.8178 -0.0881
  553MOL0     H76298   7.331   0.249   3.393  1.0475  0.6376 -1.0495
  553MOL0     H76299   7.095   0.256   3.463  1.5538 -1.0194  4.8785
  553MOL0     H76300   6.738   0.579   3.587 -2.4656  1.8831  0.8002
  553MOL0     H76301   6.486   0.586   3.603  1.0199 -0.3940 -0.7941
  553MOL0     H76302   6.285   0.498   3.534  0.7768  1.0890  2.0042
  553MOL0     H76303   6.196   0.354   3.567  0.4855  0.5776 -1.5746
  553MOL0     H76304   6.049   0.564   3.613  0.6460  1.4928 -0.5777
  553MOL0     H76305   6.164   0.605   3.742 -2.8148  1.7028  0.3072
  553MOL0     H76306   5.972   0.367   3.724  0.2673  0.1976 -0.0615
  553MOL0     H76307   6.108   0.368   3.827  0.6943  1.1117  0.0608
  553MOL0     H76308   6.047   0.543   3.962  0.3095  1.5757 -0.9411
  553MOL0     H76309   5.912   0.430   3.926  1.5033 -0.5945 -0.7277
  553MOL0     H76310   5.717   0.768   3.808 -1.4961 -0.3853  1.0637
  553MOL0     H76311   6.474   0.205   3.779 -0.7934  1.9887  0.0874
  553MOL0     H76312   6.665   0.081   3.828  0.4691 -0.1042  0.2684
  553MOL0     H76313   6.783   0.090   3.687 -0.8881  1.4412 -1.2762
  553MOL0     H76314   6.804   0.169   3.851 -2.9855 -0.7458  2.4923
  554MOL0     O76315   0.086   7.672   0.522  0.5959 -0.5836  0.1849
  554MOL0     C76316   0.186   7.712   0.587  0.8832  0.1869 -0.0589
  554MOL0     O76317   0.212   7.671   0.712 -0.5090  0.1236  0.5020
  554MOL0     C76318   0.127   7.601   0.788  0.1962  0.7012 -0.6557
  554MOL0     C76319   0.188   7.512   0.884 -0.7686 -0.1410  0.9382
  554MOL0     C76320   0.112   7.469   0.989 -0.8497 -0.1589  0.5941
  554MOL0     C76321  -0.023   7.491   1.004 -0.3272 -0.7356  0.3718
  554MOL0     O76322  -0.104   7.455   1.109 -0.0089 -0.0613  0.7956
  554MOL0     C76323  -0.038   7.479   1.237 -0.8635  0.4695 -0.2201
  554MOL0     C76324  -0.087   7.365   1.335 -0.2354  0.2922  0.0980
  554MOL0     C76325   0.000   7.385   1.462  0.3933 -0.2704  0.3585
  554MOL0     C76326   0.095   7.268   1.502  0.2054  0.1434  0.7402
  554MOL0     C76327   0.228   7.287   1.426  0.7483  0.0362  0.5658
  554MOL0     C76328   0.332   7.192   1.475 -0.0876  0.1996 -0.4644
  554MOL0     C76329   0.459   7.203   1.398  0.1145  0.1820 -0.5198
  554MOL0     C76330   0.567   7.103   1.449 -0.2130  0.7624  0.1413
  554MOL0     N76331   0.692   7.100   1.379 -0.3638  0.2030 -0.3042
  554MOL0     C76332   0.716   7.093   1.245  0.4279 -0.0391 -0.5608
  554MOL0     C76333   0.844   7.101   1.228 -0.4868 -0.7045 -0.8258
  554MOL0     C76334   0.923   7.083   1.107  0.1006  0.3247  0.3398
  554MOL0     C76335   0.956   6.938   1.096 -0.2664  0.8167 -0.0553
  554MOL0     C76336   0.833   6.851   1.085 -0.0671  0.3753  0.3014
  554MOL0     C76337   0.874   6.718   1.033  0.0928  0.0287  0.9426
  554MOL0     O76338   1.011   6.680   1.068  0.2348 -0.3951 -0.0623
  554MOL0     C76339   1.066   6.567   1.015  0.2601  0.4468  0.9518
  554MOL0     C76340   1.036   6.443   1.071  0.3449 -0.2354 -0.1724
  554MOL0     C76341   1.101   6.324   1.040 -0.0451  0.2047  0.4645
  554MOL0     C76342   1.045   6.202   1.111  0.0053 -0.8238  0.6926
  554MOL0     C76343   1.199   6.321   0.940 -0.2274 -1.0543 -0.3578
  554MOL0     C76344   1.280   6.203   0.895 -0.1112 -0.6843 -0.8775
  554MOL0     O76345   1.342   6.207   0.775 -0.1577  0.7884 -0.5544
  554MOL0     C76346   1.432   6.101   0.760  0.3454  0.0198  0.2872
  554MOL0     C76347   1.552   6.098   0.825 -0.3610 -0.3278 -0.3840
  554MOL0     C76348   1.649   6.007   0.791 -0.5892  1.0259  0.5758
  554MOL0     C76349   1.631   5.906   0.704  0.1827  0.7424  1.2375
  554MOL0     O76350   1.721   5.800   0.691  0.2504 -0.4963 -0.7775
  554MOL0     C76351   1.757   5.761   0.557  0.6008  0.0804  0.3520
  554MOL0     C76352   1.864   5.655   0.562  0.1531 -0.4038 -0.5764
  554MOL0     C76353   1.889   5.581   0.424  0.9189  0.6941 -0.4945
  554MOL0     C76354   2.023   5.502   0.426  0.5490 -0.1000  0.2273
  554MOL0     C76355   2.033   5.424   0.289  0.2743  0.8759  0.9652
  554MOL0     C76356   2.175   5.349   0.290  1.1748  0.4961 -0.4461
  554MOL0     C76357   2.203   5.268   0.154 -0.0668  0.3746 -0.4203
  554MOL0     C76358   2.353   5.242   0.133 -0.9926  0.6551  0.4209
  554MOL0    Cl76359   2.407   5.112   0.254  0.4657 -0.4381  0.2514
  554MOL0     C76360   1.509   5.901   0.643  0.1485 -0.6558  0.2203
  554MOL0     C76361   1.412   5.998   0.662  0.7611  0.1459  0.0601
  554MOL0     O76362   1.284   6.115   0.978 -0.4013  0.1877  0.0144
  554MOL0     C76363   1.228   6.443   0.872 -0.0227 -0.3638 -0.6028
  554MOL0     C76364   1.159   6.565   0.911  0.3530 -0.3411  0.1678
  554MOL0     N76365   0.903   7.135   1.351  0.6534  0.5543  0.0418
  554MOL0     N76366   0.810   7.148   1.439 -0.6129  0.0593  0.1118
  554MOL0     C76367  -0.085   7.555   0.895  0.2281 -0.2035  0.1370
  554MOL0     C76368  -0.014   7.617   0.795  0.0052  0.4785  0.0647
  554MOL0     C76369   0.287   7.797   0.522 -0.2996 -0.0444  0.1137
  554MOL0     C76370   0.411   7.815   0.582 -0.2394 -0.0258 -0.4026
  554MOL0     C76371   0.507   7.903   0.532  0.1410 -0.3297 -0.2218
  554MOL0     C76372   0.484   7.960   0.409  0.1992 -0.2584  0.8058
  554MOL0     O76373   0.581   8.048   0.360 -0.2362 -0.0511  0.2984
  554MOL0     C76374   0.566   8.122   0.240  0.4733  0.0750 -0.1423
  554MOL0     C76375   0.580   8.032   0.115  0.4857 -0.6390  0.5038
  554MOL0     C76376   0.639   8.105  -0.004  0.5814  0.1820 -0.2227
  554MOL0     C76377   0.617   8.031  -0.131  0.7687 -0.7034 -0.6408
  554MOL0     C76378   0.664   8.112  -0.239  0.3270  0.1794 -0.3204
  554MOL0     C76379   0.721   8.182  -0.327  0.6043 -0.4576  0.4899
  554MOL0     C76380   0.368   7.952   0.352 -0.3139  0.9161  0.3158
  554MOL0     C76381   0.263   7.873   0.403 -1.2624  0.8892 -0.7195
  554MOL0     C76382   0.135   7.880   0.318 -0.4543  0.7396 -0.5490
  554MOL0     H76383   0.293   7.492   0.867 -0.2088  2.8063  0.2860
  554MOL0     H76384   0.164   7.401   1.055  1.7618 -0.3456 -1.4708
  554MOL0     H76385  -0.079   7.569   1.282 -1.0424  0.0721  0.4123
  554MOL0     H76386   0.070   7.484   1.215 -1.2256  0.4784 -2.2022
  554MOL0     H76387  -0.193   7.372   1.362  0.0281  0.4264  1.1093
  554MOL0     H76388  -0.062   7.268   1.292 -2.9962 -0.4303 -0.0508
  554MOL0     H76389   0.050   7.482   1.453  1.0463 -0.6763 -0.5346
  554MOL0     H76390  -0.062   7.384   1.551  1.9561 -3.8288  1.5849
  554MOL0     H76391   0.127   7.257   1.606  1.8184 -3.2457  0.0346
  554MOL0     H76392   0.057   7.171   1.467  2.7733 -1.7227  2.7120
  554MOL0     H76393   0.255   7.392   1.442 -0.7975  0.1691  2.6833
  554MOL0     H76394   0.212   7.273   1.318 -0.9708  0.6816  0.7007
  554MOL0     H76395   0.340   7.202   1.583 -3.2152  0.0822 -0.1362
  554MOL0     H76396   0.299   7.087   1.473 -0.2298  0.2399 -0.2614
  554MOL0     H76397   0.485   7.308   1.414 -1.4181  0.4370  0.5825
  554MOL0     H76398   0.439   7.172   1.295 -3.1197 -2.3271  0.7055
  554MOL0     H76399   0.579   7.136   1.552  0.7504  0.0850  0.2535
  554MOL0     H76400   0.528   7.001   1.440  0.4206  0.4615  0.7967
  554MOL0     H76401   0.644   7.078   1.165 -0.2151 -1.3928  0.2424
  554MOL0     H76402   1.012   7.146   1.112 -2.2810  4.2096 -1.3529
  554MOL0     H76403   0.865   7.123   1.023 -0.4766 -0.7892  0.1862
  554MOL0     H76404   1.020   6.916   1.010  1.5115  0.3368  1.3195
  554MOL0     H76405   1.014   6.912   1.185  0.6354 -1.1247 -1.1302
  554MOL0     H76406   0.775   6.844   1.177  0.9494  1.8315  1.0938
  554MOL0     H76407   0.763   6.895   1.013 -1.3878  0.4486  1.5896
  554MOL0     H76408   0.815   6.637   1.075  2.2739 -2.6945 -0.8297
  554MOL0     H76409   0.857   6.710   0.925 -0.6040 -1.1634  1.1297
  554MOL0     H76410   0.947   6.439   1.132  1.2510 -0.7048  1.1590
  554MOL0     H76411   1.048   6.124   1.033  3.5617 -0.6160  0.4701
  554MOL0     H76412   0.943   6.219   1.146 -0.3312  0.7490 -0.9019
  554MOL0     H76413   1.100   6.163   1.197 -2.0729 -3.9356  0.7847
  554MOL0     H76414   1.567   6.182   0.892 -0.9881 -1.7987  1.7224
  554MOL0     H76415   1.742   6.026   0.844 -0.3572  2.1038 -0.2019
  554MOL0     H76416   1.666   5.730   0.506  0.1683 -1.4098  1.9503
  554MOL0     H76417   1.799   5.847   0.504 -0.7756 -0.1669 -1.2287
  554MOL0     H76418   1.956   5.707   0.588 -0.0994 -0.8359  1.3005
  554MOL0     H76419   1.845   5.583   0.643 -1.5791 -1.5191 -1.8836
  554MOL0     H76420   1.888   5.647   0.337 -2.3043  1.2187 -0.1937
  554MOL0     H76421   1.808   5.510   0.406 -1.0023  2.8642 -0.9282
  554MOL0     H76422   2.017   5.421   0.499 -0.6326  1.7813  2.3246
  554MOL0     H76423   2.111   5.562   0.449  1.2259  0.0035 -2.3288
  554MOL0     H76424   1.951   5.355   0.267  0.5452  0.8108  0.1164
  554MOL0     H76425   2.031   5.498   0.208 -0.1162  0.0568  0.2033
  554MOL0     H76426   2.191   5.283   0.375 -1.5047  0.0502 -0.1899
  554MOL0     H76427   2.256   5.422   0.303  1.8040 -0.2309 -0.2612
  554MOL0     H76428   2.162   5.326   0.071  0.2846  0.5496 -0.4735
  554MOL0     H76429   2.146   5.174   0.155 -1.5896  1.2722  0.3474
  554MOL0     H76430   2.411   5.334   0.144  1.0532 -0.3666 -1.0823
  554MOL0     H76431   2.370   5.199   0.034  0.4818 -1.2573  1.4367
  554MOL0     H76432   1.472   5.819   0.581 -1.6079 -0.9569  1.5704
  554MOL0     H76433   1.318   6.001   0.610  0.8853 -1.2343 -0.2761
  554MOL0     H76434   1.308   6.464   0.802  2.7602 -3.3837  1.4146
  554MOL0     H76435   1.174   6.661   0.863 -2.6289  0.8956  1.4461
  554MOL0     H76436  -0.193   7.554   0.900  0.1960 -2.2617 -0.1468
  554MOL0     H76437  -0.065   7.674   0.719  0.9347  1.4526  0.1555
  554MOL0     H76438   0.427   7.751   0.669 -3.6267  0.6127  0.8422
  554MOL0     H76439   0.608   7.913   0.571  1.9786  0.6817 -4.6118
  554MOL0     H76440   0.466   8.166   0.248 -0.1922 -1.6122  1.9225
  554MOL0     H76441   0.640   8.202   0.244  0.2080  0.2710  2.2635
  554MOL0     H76442   0.479   8.000   0.088  0.4398  0.8832 -1.3110
  554MOL0     H76443   0.634   7.942   0.147 -2.1071 -1.6231  2.4534
  554MOL0     H76444   0.591   8.204   0.001  0.0497 -0.1276  1.0943
  554MOL0     H76445   0.747   8.105   0.013  0.1216  1.0176  3.5445
  554MOL0     H76446   0.509   8.034  -0.144  0.6848  1.4912  0.1602
  554MOL0     H76447   0.656   7.928  -0.130 -0.2744 -1.1218  0.6748
  554MOL0     H76448   0.754   8.254  -0.399 -0.6173 -0.5299 -0.1773
  554MOL0     H76449   0.346   8.001   0.258  1.3552  1.8228  0.3515
  554MOL0     H76450   0.168   7.895   0.215  2.1461 -0.7429 -0.0139
  554MOL0     H76451   0.075   7.788   0.315 -1.2019  1.1761  0.3637
  554MOL0     H76452   0.085   7.967   0.360  1.9974  1.9043  0.1018
  555MOL0     O76453   8.821   6.774   6.447  0.1321  0.2724  0.2115
  555MOL0     C76454   8.814   6.658   6.427  0.1731  0.4370 -0.3414
  555MOL0     O76455   8.924   6.584   6.397 -0.4640  0.3274 -1.2402
  555MOL0     C76456   9.056   6.606   6.435 -0.6514  0.6444 -0.1604
  555MOL0     C76457   9.161   6.552   6.363 -0.0027  0.0140 -0.4476
  555MOL0     C76458   9.295   6.569   6.392  0.9778 -0.2555  0.1400
  555MOL0     C76459   9.330   6.642   6.504 -0.2778 -0.8340  1.1466
  555MOL0     O76460   9.464   6.656   6.546 -0.1644 -0.1248  0.0864
  555MOL0     C76461   9.570   6.590   6.476 -0.8564 -0.4860  0.4021
  555MOL0     C76462   9.700   6.608   6.547  0.4783 -0.0121  0.4086
  555MOL0     C76463   9.734   6.503   6.660 -0.3994 -0.4572 -0.6631
  555MOL0     C76464   9.866   6.543   6.732 -0.5537 -0.7293 -0.0496
  555MOL0     C76465   9.849   6.616   6.869 -1.1923 -0.8416 -0.1771
  555MOL0     C76466   9.766   6.745   6.862 -0.0440  0.0329 -0.1306
  555MOL0     C76467   9.742   6.801   7.003 -0.7607 -0.7113  0.4653
  555MOL0     C76468   9.651   6.917   7.002 -0.1803 -0.5045 -0.0056
  555MOL0     N76469   9.702   7.035   6.927 -0.6391 -0.7631 -0.4052
  555MOL0     C76470   9.796   7.127   6.969  0.3690 -0.1086  0.7018
  555MOL0     C76471   9.809   7.208   6.865  0.6014  0.0948 -0.1286
  555MOL0     C76472   9.898   7.325   6.842 -0.4941 -0.2733 -0.1874
  555MOL0     C76473  10.002   7.274   6.742  0.2994  0.4754 -0.2096
  555MOL0     C76474  10.124   7.209   6.815  0.6487 -0.2571  0.5118
  555MOL0     C76475  10.249   7.217   6.731  0.0115  0.8158  1.0403
  555MOL0     O76476  10.289   7.354   6.731 -0.8317  0.9147  0.3631
  555MOL0     C76477  10.415   7.387   6.685  0.0997  0.2442 -0.2036
  555MOL0     C76478  10.457   7.525   6.663  0.2299  0.6169 -0.3097
  555MOL0     C76479  10.590   7.563   6.635  0.4840  0.6322  0.1545
  555MOL0     C76480  10.621   7.710   6.611  0.2060  0.4821  0.4914
  555MOL0     C76481  10.684   7.458   6.612 -0.4267  0.0108  0.4547
  555MOL0     C76482  10.820   7.485   6.567 -0.2869 -0.6103 -0.0024
  555MOL0     O76483  10.842   7.596   6.496 -0.7212 -0.0722  0.8482
  555MOL0     C76484  10.975   7.641   6.491  0.4043 -0.5216  0.6488
  555MOL0     C76485  11.020   7.681   6.371 -0.4433  0.9279 -0.0677
  555MOL0     C76486  11.146   7.739   6.352 -0.2709 -0.1752  0.7145
  555MOL0     C76487  11.217   7.761   6.466 -0.1660  0.5159 -0.8582
  555MOL0     O76488  11.340   7.811   6.471 -0.4119  0.2824  0.1468
  555MOL0     C76489  11.367   7.925   6.390 -0.4510 -0.0018  0.2757
  555MOL0     C76490  11.473   8.024   6.447  0.5220  0.5078  0.3737
  555MOL0     C76491  11.619   7.972   6.432 -0.1370  0.0237  0.2239
  555MOL0     C76492  11.720   8.079   6.480 -0.1645  0.0639  0.6210
  555MOL0     C76493  11.861   8.027   6.501  0.4273  0.1583 -0.2399
  555MOL0     C76494  11.948   8.124   6.583 -0.0492 -0.0423 -0.4163
  555MOL0     C76495  11.902   8.143   6.726  1.5013 -0.4619 -0.4291
  555MOL0     C76496  12.018   8.149   6.829 -0.9893  0.1021  0.1223
  555MOL0    Cl76497  12.108   8.301   6.820  0.4396 -0.6390  0.4535
  555MOL0     C76498  11.184   7.709   6.593 -0.2605 -0.9734  0.6630
  555MOL0     C76499  11.060   7.646   6.606 -0.2177 -0.5614  0.3109
  555MOL0     O76500  10.912   7.403   6.598 -0.8051  0.5652 -0.0812
  555MOL0     C76501  10.643   7.324   6.631 -0.9361  0.8347 -0.7044
  555MOL0     C76502  10.514   7.285   6.662 -0.5453  1.3216  0.1490
  555MOL0     N76503   9.719   7.168   6.762  0.1241 -0.7461 -0.5607
  555MOL0     N76504   9.663   7.062   6.794  0.1947 -0.1730 -0.0584
  555MOL0     C76505   9.224   6.699   6.583  0.5679  0.5121 -0.0059
  555MOL0     C76506   9.092   6.672   6.559  0.0089 -0.0790  0.6644
  555MOL0     C76507   8.683   6.581   6.432  0.0560 -1.0389 -0.0486
  555MOL0     C76508   8.693   6.440   6.447 -0.2795 -0.1715 -0.0638
  555MOL0     C76509   8.579   6.362   6.462  0.1672 -1.4794  1.1024
  555MOL0     C76510   8.454   6.414   6.434 -0.3035  0.1846 -0.3685
  555MOL0     O76511   8.339   6.344   6.440  0.2153 -0.2551  0.7290
  555MOL0     C76512   8.342   6.217   6.375  0.3104 -1.0156 -0.9123
  555MOL0     C76513   8.211   6.204   6.298 -0.6829  0.5895 -0.3923
  555MOL0     C76514   8.158   6.316   6.213  0.0985  0.5924  0.1544
  555MOL0     C76515   8.035   6.263   6.134  0.5009  0.7405  0.8619
  555MOL0     C76516   8.056   6.145   6.040  0.6000  0.0165 -1.2440
  555MOL0     C76517   8.073   6.048   5.964 -0.1383 -0.6218 -0.6341
  555MOL0     C76518   8.443   6.552   6.416 -0.8349  0.1502 -0.0557
  555MOL0     C76519   8.553   6.640   6.412 -0.2404  0.0934  0.2725
  555MOL0     C76520   8.529   6.789   6.393 -0.5317 -0.1978 -0.3638
  555MOL0     H76521   9.136   6.497   6.273 -0.4015 -1.5078  0.5598
  555MOL0     H76522   9.367   6.536   6.318  0.3467 -1.6906  0.1417
  555MOL0     H76523   9.581   6.636   6.378 -0.1216 -1.8905 -0.2168
  555MOL0     H76524   9.552   6.483   6.458  1.0740 -0.7537 -0.1866
  555MOL0     H76525   9.781   6.607   6.473  0.0735  0.4552 -0.0509
  555MOL0     H76526   9.700   6.707   6.594 -0.6274 -0.6210  1.7392
  555MOL0     H76527   9.649   6.499   6.728 -0.6494 -0.1563 -0.9629
  555MOL0     H76528   9.749   6.406   6.611 -1.2009 -0.0621 -1.7244
  555MOL0     H76529   9.908   6.446   6.759 -1.3429 -0.7304  1.2632
  555MOL0     H76530   9.937   6.603   6.674 -0.2774  1.7686  2.6379
  555MOL0     H76531   9.939   6.660   6.912 -3.1305  0.2971  3.0308
  555MOL0     H76532   9.800   6.555   6.945 -5.1654  2.4035  0.1965
  555MOL0     H76533   9.819   6.811   6.792  0.1677 -0.7534 -0.7204
  555MOL0     H76534   9.666   6.727   6.821 -0.9084 -2.5926  2.7988
  555MOL0     H76535   9.838   6.840   7.038 -0.9891  1.3804 -1.0488
  555MOL0     H76536   9.704   6.727   7.075 -0.7862  0.5738  1.8185
  555MOL0     H76537   9.559   6.881   6.955 -0.5999  1.0387 -0.4295
  555MOL0     H76538   9.616   6.955   7.099 -0.6414  3.6841 -1.6000
  555MOL0     H76539   9.848   7.121   7.064  0.6770 -0.7193  0.5019
  555MOL0     H76540   9.932   7.377   6.932 -4.6757 -0.4305  1.7068
  555MOL0     H76541   9.832   7.399   6.795  1.0454  0.0742 -1.9151
  555MOL0     H76542   9.957   7.219   6.659 -1.0499  2.4797 -0.8862
  555MOL0     H76543  10.040   7.366   6.695 -4.4421  2.3547 -1.0032
  555MOL0     H76544  10.134   7.257   6.913 -2.2285 -1.3594  1.4443
  555MOL0     H76545  10.102   7.104   6.832 -2.7370  0.0602 -1.1444
  555MOL0     H76546  10.321   7.153   6.782  2.2775  3.4748  1.3810
  555MOL0     H76547  10.223   7.181   6.632 -0.6963 -0.4437  1.6578
  555MOL0     H76548  10.379   7.601   6.671 -0.6338 -0.3816  1.4142
  555MOL0     H76549  10.547   7.779   6.652 -0.9224 -0.7342  0.5753
  555MOL0     H76550  10.633   7.727   6.504  1.6493  0.7539  0.6733
  555MOL0     H76551  10.719   7.732   6.654  1.0602  0.1082 -1.1665
  555MOL0     H76552  10.955   7.671   6.284 -2.2563  1.0279  1.2193
  555MOL0     H76553  11.176   7.782   6.257 -1.5433  3.1952  1.6901
  555MOL0     H76554  11.399   7.884   6.294 -2.6021 -1.8146  0.2576
  555MOL0     H76555  11.281   7.986   6.363  1.6071  3.8679  1.6061
  555MOL0     H76556  11.470   8.119   6.392  0.5446  0.9412  1.1135
  555MOL0     H76557  11.456   8.046   6.553 -1.2015  2.1253 -0.1854
  555MOL0     H76558  11.644   7.952   6.327  1.8531  0.7808  0.5088
  555MOL0     H76559  11.633   7.873   6.477 -0.4074 -0.6408 -1.0979
  555MOL0     H76560  11.681   8.121   6.573 -0.6342  0.1422  0.3940
  555MOL0     H76561  11.728   8.159   6.406 -0.5292  0.5668  1.1126
  555MOL0     H76562  11.850   7.936   6.560  1.0896  0.9778  1.1840
  555MOL0     H76563  11.908   8.015   6.403 -0.1150 -2.1638 -0.2840
  555MOL0     H76564  11.945   8.220   6.530 -0.5318  0.2333  0.0974
  555MOL0     H76565  12.051   8.087   6.576  0.2126  0.0347  2.0007
  555MOL0     H76566  11.851   8.056   6.768  2.2037 -0.2163  0.9794
  555MOL0     H76567  11.850   8.238   6.742  2.2491 -0.0081 -0.6475
  555MOL0     H76568  12.094   8.072   6.813 -0.0292  0.5096  2.3121
  555MOL0     H76569  11.986   8.143   6.934  2.0204  0.6830  1.1790
  555MOL0     H76570  11.251   7.726   6.676 -1.1122  0.4962  1.1067
  555MOL0     H76571  11.028   7.615   6.705  0.1186 -0.8800  0.3212
  555MOL0     H76572  10.717   7.245   6.624  0.5539  2.0997  0.1677
  555MOL0     H76573  10.506   7.179   6.681  2.9567  1.1780  1.6467
  555MOL0     H76574   9.235   6.752   6.677 -1.4696 -1.2441  1.3326
  555MOL0     H76575   9.022   6.722   6.625 -0.2137  0.9641 -0.3228
  555MOL0     H76576   8.779   6.380   6.476 -0.7313 -0.7209  0.1636
  555MOL0     H76577   8.598   6.257   6.479 -0.7330 -2.0153 -0.9475
  555MOL0     H76578   8.415   6.202   6.295  1.4951 -1.5925  0.2609
  555MOL0     H76579   8.360   6.132   6.441 -0.2702 -1.6234 -1.5105
  555MOL0     H76580   8.146   6.186   6.384  4.2576  0.6563  3.8453
  555MOL0     H76581   8.213   6.113   6.237 -1.6562 -0.1157  0.5902
  555MOL0     H76582   8.127   6.403   6.271  0.0504 -0.3643  1.6181
  555MOL0     H76583   8.232   6.349   6.139 -1.1736 -0.8232 -1.8692
  555MOL0     H76584   7.995   6.334   6.062 -1.5608  0.7920  1.9696
  555MOL0     H76585   7.957   6.239   6.207  1.4080  5.2853  3.6694
  555MOL0     H76586   8.118   5.971   5.905  2.6681 -0.5965  1.2896
  555MOL0     H76587   8.346   6.597   6.398 -1.8867 -1.6191  0.9201
  555MOL0     H76588   8.576   6.832   6.304 -3.2869  0.6416 -1.5192
  555MOL0     H76589   8.425   6.823   6.386 -0.3147  0.4936 -0.2321
  555MOL0     H76590   8.560   6.842   6.484 -0.0638 -1.2149  0.0865
  556MOL0     O76591  10.902  11.016   6.478  0.0549 -0.0356  0.0095
  556MOL0     C76592  10.784  11.036   6.434 -0.1810  0.1778 -0.4285
  556MOL0     O76593  10.742  11.143   6.364 -0.2373 -0.5452 -0.6518
  556MOL0     C76594  10.825  11.258   6.354 -0.1614  0.4526  0.4260
  556MOL0     C76595  10.823  11.355   6.445 -0.2032 -0.8494  1.1332
  556MOL0     C76596  10.905  11.469   6.438 -0.1910  0.5507  0.9550
  556MOL0     C76597  10.996  11.484   6.334  0.0144 -0.2649 -0.3975
  556MOL0     O76598  11.067  11.600   6.297  0.4813 -0.8419 -0.2492
  556MOL0     C76599  11.066  11.716   6.380  0.3218 -0.2346 -0.1635
  556MOL0     C76600  11.154  11.695   6.495  0.2210  0.6555 -0.6790
  556MOL0     C76601  11.301  11.670   6.469  1.2692 -0.1529 -0.1676
  556MOL0     C76602  11.392  11.677   6.586 -0.6990 -0.3981 -0.2871
  556MOL0     C76603  11.533  11.627   6.563  0.5668  0.3778 -1.5955
  556MOL0     C76604  11.587  11.564   6.700  0.2363 -0.6236  0.7856
  556MOL0     C76605  11.611  11.418   6.686  1.9205  0.2089 -0.1920
  556MOL0     C76606  11.667  11.355   6.815 -0.2736 -0.4186  0.7554
  556MOL0     N76607  11.575  11.376   6.926 -0.5766  0.3701 -0.6436
  556MOL0     C76608  11.449  11.325   6.924  0.5215 -1.1349 -0.6871
  556MOL0     C76609  11.396  11.369   7.041  1.1929  1.2116 -0.6262
  556MOL0     C76610  11.256  11.337   7.087  0.0774 -0.4463  0.2461
  556MOL0     C76611  11.235  11.207   7.167  0.4021 -0.1078 -0.0740
  556MOL0     C76612  11.085  11.155   7.169  1.0091 -0.1261 -0.4408
  556MOL0     C76613  11.067  11.051   7.276  0.1824 -1.2540  0.6698
  556MOL0     O76614  10.934  11.044   7.316  0.0609 -0.3379 -0.6609
  556MOL0     C76615  10.844  10.954   7.260 -1.2121 -0.7266  0.0893
  556MOL0     C76616  10.717  10.948   7.312 -0.2307  0.2673  0.7544
  556MOL0     C76617  10.616  10.873   7.242 -0.4298 -0.3080 -0.4567
  556MOL0     C76618  10.475  10.897   7.291  0.7309  0.5486  0.9028
  556MOL0     C76619  10.643  10.796   7.129 -0.0638 -0.2430  0.4740
  556MOL0     C76620  10.556  10.701   7.060 -0.2197  0.4792 -0.5977
  556MOL0     O76621  10.566  10.689   6.930  0.5521  0.5839  0.4057
  556MOL0     C76622  10.507  10.592   6.854  1.3718 -0.5874  0.3586
  556MOL0     C76623  10.395  10.617   6.772 -0.7398 -0.2565  0.3313
  556MOL0     C76624  10.332  10.510   6.702  0.0684 -0.4453 -0.1663
  556MOL0     C76625  10.381  10.382   6.715 -0.1502  0.2551  0.0491
  556MOL0     O76626  10.322  10.283   6.642 -0.4121 -0.3047 -0.3976
  556MOL0     C76627  10.300  10.169   6.719  0.4423 -0.8064  0.8327
  556MOL0     C76628  10.224  10.066   6.637 -0.1905  0.0840  0.1469
  556MOL0     C76629  10.180   9.943   6.718 -0.7162  0.6719 -0.2838
  556MOL0     C76630  10.114   9.851   6.619 -0.2393  0.2195  0.2922
  556MOL0     C76631  10.100   9.709   6.691 -0.5042 -0.3433 -0.7479
  556MOL0     C76632  10.226   9.634   6.714 -0.6247 -0.5199 -0.5566
  556MOL0     C76633  10.183   9.496   6.784  0.2462  0.3521 -0.0233
  556MOL0     C76634  10.180   9.509   6.941 -0.1707  0.4755 -0.5366
  556MOL0    Cl76635  10.104   9.357   7.013 -0.3461 -0.0926  0.5621
  556MOL0     C76636  10.500  10.358   6.785  0.2983  0.3616 -0.3385
  556MOL0     C76637  10.560  10.468   6.851 -0.3675  0.0957  0.3984
  556MOL0     O76638  10.473  10.645   7.126  0.6508  0.5034 -0.4781
  556MOL0     C76639  10.780  10.796   7.086  0.6203  1.2620 -0.1169
  556MOL0     C76640  10.876  10.870   7.149  0.5695 -0.5866  0.1208
  556MOL0     N76641  11.480  11.447   7.105 -0.1016 -0.2743 -0.0230
  556MOL0     N76642  11.596  11.436   7.050 -0.2526  0.3579 -0.4904
  556MOL0     C76643  11.005  11.383   6.243 -0.8831  1.1136  0.1461
  556MOL0     C76644  10.920  11.265   6.254 -0.2593 -1.0854  0.6489
  556MOL0     C76645  10.691  10.922   6.428 -0.3021 -0.4775  0.2974
  556MOL0     C76646  10.598  10.924   6.322 -0.3457  0.2689 -0.1868
  556MOL0     C76647  10.512  10.827   6.310  0.1581  0.6154 -0.2869
  556MOL0     C76648  10.495  10.719   6.400 -0.6030  0.8571 -0.4410
  556MOL0     O76649  10.404  10.622   6.374  0.2150 -0.3428 -0.3414
  556MOL0     C76650  10.454  10.483   6.363 -0.2568  0.4536  0.0799
  556MOL0     C76651  10.358  10.398   6.288 -0.1083 -0.0610 -0.3944
  556MOL0     C76652  10.404  10.256   6.300  0.3680 -0.7101 -0.1015
  556MOL0     C76653  10.332  10.149   6.203  0.0879 -0.5764 -0.6292
  556MOL0     C76654  10.208  10.096   6.274  0.2576  0.0031  0.1262
  556MOL0     C76655  10.113  10.050   6.327 -0.0681 -0.2243  0.5890
  556MOL0     C76656  10.584  10.710   6.506 -0.9879  0.2749 -0.2757
  556MOL0     C76657  10.681  10.816   6.526 -0.2651 -0.0549 -0.7731
  556MOL0     C76658  10.760  10.818   6.653  0.7048  1.1286 -0.1370
  556MOL0     H76659  10.747  11.358   6.523 -1.2107  2.8794  0.2059
  556MOL0     H76660  10.884  11.562   6.489 -0.9859  1.5379 -1.0476
  556MOL0     H76661  10.969  11.759   6.407  0.2035 -0.0526 -0.8538
  556MOL0     H76662  11.113  11.797   6.323  1.8256 -0.3593  0.8438
  556MOL0     H76663  11.154  11.780   6.564  2.3465 -0.3065  0.6237
  556MOL0     H76664  11.114  11.621   6.566  1.9176  1.2977  1.0503
  556MOL0     H76665  11.310  11.569   6.428  1.7190  0.1046 -0.7283
  556MOL0     H76666  11.327  11.737   6.386 -1.0139  1.2061  0.1249
  556MOL0     H76667  11.392  11.782   6.616 -3.9330 -0.4672  0.3808
  556MOL0     H76668  11.352  11.618   6.668  1.6908  0.8801  1.9227
  556MOL0     H76669  11.592  11.713   6.530  0.5299  0.3330 -1.7795
  556MOL0     H76670  11.518  11.551   6.486 -1.1950  0.3178 -1.2291
  556MOL0     H76671  11.681  11.610   6.734 -1.1167  0.7620  2.8967
  556MOL0     H76672  11.521  11.589   6.783 -1.4108 -0.5170 -0.5017
  556MOL0     H76673  11.684  11.404   6.607  2.2749  2.7855 -0.4120
  556MOL0     H76674  11.518  11.366   6.663  1.6440  0.1390  1.0211
  556MOL0     H76675  11.680  11.250   6.788 -1.4705 -0.0936 -1.3565
  556MOL0     H76676  11.765  11.402   6.834  0.4735  0.7833 -4.5048
  556MOL0     H76677  11.388  11.284   6.844  0.6768 -0.0631 -1.3768
  556MOL0     H76678  11.208  11.327   6.989  2.0325  3.1765 -1.2865
  556MOL0     H76679  11.211  11.417   7.146 -2.2355 -1.6772  0.2650
  556MOL0     H76680  11.291  11.133   7.109  2.4924  2.0725 -0.9888
  556MOL0     H76681  11.274  11.220   7.269  0.5247 -0.8645 -0.0150
  556MOL0     H76682  11.022  11.235   7.209  2.6318  0.2896  1.4422
  556MOL0     H76683  11.051  11.123   7.070 -0.2864 -1.3963  0.3740
  556MOL0     H76684  11.116  10.957   7.250  1.1132 -0.7624  0.6253
  556MOL0     H76685  11.124  11.083   7.364 -0.5949  0.2135  0.6658
  556MOL0     H76686  10.687  11.005   7.399  4.4962  2.4296  1.2882
  556MOL0     H76687  10.457  10.959   7.379 -0.4998  0.2679  0.8643
  556MOL0     H76688  10.433  10.802   7.325  0.9319  1.0579  2.6884
  556MOL0     H76689  10.418  10.938   7.207  1.0659 -1.0295 -0.1281
  556MOL0     H76690  10.360  10.720   6.768  2.9720  1.1125 -1.2934
  556MOL0     H76691  10.255  10.531   6.628  1.9698  0.3574 -2.0524
  556MOL0     H76692  10.400  10.131   6.742  1.4382  2.7117  3.0781
  556MOL0     H76693  10.242  10.190   6.809 -1.3628 -1.3638 -0.1509
  556MOL0     H76694  10.131  10.117   6.611  0.6879  1.5413 -0.2541
  556MOL0     H76695  10.288  10.045   6.551  1.2805  2.3249  0.5826
  556MOL0     H76696  10.117   9.969   6.803  0.8476 -0.0476  1.1579
  556MOL0     H76697  10.269   9.907   6.771 -0.5690  1.2117 -0.1621
  556MOL0     H76698  10.174   9.843   6.528 -3.3200  3.1744 -2.2890
  556MOL0     H76699  10.016   9.890   6.588 -0.5038 -1.2831 -0.9033
  556MOL0     H76700  10.047   9.723   6.786 -3.4896  3.4925 -2.6951
  556MOL0     H76701  10.033   9.650   6.628 -1.9520  0.8282 -0.3647
  556MOL0     H76702  10.296   9.697   6.771 -0.7960  2.3383 -3.2564
  556MOL0     H76703  10.280   9.607   6.623  0.1554  2.2512 -0.9922
  556MOL0     H76704  10.252   9.417   6.754  1.6111  0.9868  1.2747
  556MOL0     H76705  10.080   9.473   6.756  0.4918 -0.8197 -0.0085
  556MOL0     H76706  10.121   9.595   6.974  1.2299  0.4263  2.5169
  556MOL0     H76707  10.282   9.532   6.975  0.1255  0.3497 -1.3263
  556MOL0     H76708  10.565  10.271   6.790  0.2662  0.4196  1.8102
  556MOL0     H76709  10.655  10.444   6.898 -0.7441  0.2440  1.2578
  556MOL0     H76710  10.806  10.727   7.007  0.4162 -0.0174  0.8919
  556MOL0     H76711  10.972  10.890   7.101 -0.2246  1.7305 -0.6116
  556MOL0     H76712  11.064  11.394   6.153 -0.7428  1.0892  0.2356
  556MOL0     H76713  10.935  11.197   6.170  1.7469  1.1701 -0.9376
  556MOL0     H76714  10.591  10.995   6.241 -0.8401  2.1051  1.3889
  556MOL0     H76715  10.451  10.823   6.221 -0.1386  2.8553 -0.2424
  556MOL0     H76716  10.547  10.491   6.306 -0.8734  2.1431 -0.7731
  556MOL0     H76717  10.475  10.442   6.462 -0.7591 -0.0071  0.0011
  556MOL0     H76718  10.347  10.423   6.182 -0.9925 -3.6336 -1.2881
  556MOL0     H76719  10.262  10.413   6.340 -1.3232 -0.0424 -2.5260
  556MOL0     H76720  10.511  10.257   6.277  0.6178  0.8504  1.0100
  556MOL0     H76721  10.397  10.212   6.399 -1.5791 -1.8408 -0.6710
  556MOL0     H76722  10.408  10.074   6.182  1.8638  1.2231 -0.8771
  556MOL0     H76723  10.297  10.189   6.107 -1.7243 -4.2597 -1.6960
  556MOL0     H76724  10.029  10.005   6.376  0.0494 -2.2494 -0.9132
  556MOL0     H76725  10.591  10.632   6.580  0.4431  0.3917 -0.2607
  556MOL0     H76726  10.692  10.795   6.736 -0.9784  0.1337 -1.7148
  556MOL0     H76727  10.826  10.732   6.648 -0.7892 -0.1633  1.0767
  556MOL0     H76728  10.827  10.899   6.685  1.4254  0.0648  1.1281
  557MOL0     O76729   4.628   7.817   9.222 -0.4841  0.8341  0.1534
  557MOL0     C76730   4.574   7.817   9.333 -0.2451 -0.4801  0.4251
  557MOL0     O76731   4.628   7.860   9.448  0.6297  0.0350 -0.1266
  557MOL0     C76732   4.763   7.893   9.463  0.5463 -0.6431  1.0773
  557MOL0     C76733   4.798   7.992   9.556  0.1165 -0.6022  0.0992
  557MOL0     C76734   4.921   8.039   9.579  0.3576 -0.9648 -0.1652
  557MOL0     C76735   5.030   7.986   9.505 -0.5820 -0.2246  0.5175
  557MOL0     O76736   5.164   8.020   9.513 -0.0306 -0.5379 -0.4026
  557MOL0     C76737   5.185   8.143   9.587  0.4476  0.4518  0.0388
  557MOL0     C76738   5.322   8.198   9.582 -0.8245 -0.7577 -0.7537
  557MOL0     C76739   5.435   8.089   9.588 -0.6436 -1.0246  0.6030
  557MOL0     C76740   5.422   7.976   9.698 -0.1165 -0.5296  0.4951
  557MOL0     C76741   5.495   7.852   9.651 -0.0344  0.2945  0.0685
  557MOL0     C76742   5.451   7.727   9.739  0.1801 -0.6240 -0.5501
  557MOL0     C76743   5.565   7.625   9.728 -0.5936  0.3391 -0.0703
  557MOL0     C76744   5.557   7.481   9.783 -0.5411 -0.0447 -0.5481
  557MOL0     N76745   5.681   7.405   9.780 -0.5965 -0.6769 -0.2185
  557MOL0     C76746   5.676   7.266   9.803 -0.4898 -0.1755 -0.5294
  557MOL0     C76747   5.805   7.227   9.780 -0.2024  0.2659  0.3077
  557MOL0     C76748   5.876   7.096   9.804  1.1998  0.0520  0.0798
  557MOL0     C76749   5.891   7.090   9.960  0.5855  0.3755 -0.5641
  557MOL0     C76750   6.032   7.121  10.006  0.0113 -0.2221  0.1708
  557MOL0     C76751   6.045   7.096  10.166  0.2698 -1.0868  0.3067
  557MOL0     O76752   6.082   6.962  10.182  0.5724  0.4938 -0.5212
  557MOL0     C76753   6.211   6.930  10.188 -0.2903 -0.7804 -0.7539
  557MOL0     C76754   6.320   7.007  10.138 -0.2415 -0.1798  0.4163
  557MOL0     C76755   6.452   6.970  10.171  0.1689  0.3997  0.0131
  557MOL0     C76756   6.550   7.052  10.097 -0.0668 -0.3717 -0.0273
  557MOL0     C76757   6.482   6.853  10.246  0.7129 -0.6474 -0.7122
  557MOL0     C76758   6.616   6.813  10.291  0.5790 -0.3957 -1.4060
  557MOL0     O76759   6.620   6.692  10.335 -0.1990 -0.1303  0.2898
  557MOL0     C76760   6.735   6.643  10.392 -0.2827  0.7097  0.5940
  557MOL0     C76761   6.840   6.602  10.309 -0.7857 -0.8289 -0.0384
  557MOL0     C76762   6.953   6.536  10.358  0.0245 -0.9958 -0.9547
  557MOL0     C76763   6.963   6.516  10.501 -0.5663  0.4940  0.2452
  557MOL0     O76764   7.070   6.453  10.553 -0.1354 -0.9568  0.0185
  557MOL0     C76765   7.108   6.465  10.686 -0.4767 -0.0006 -0.6534
  557MOL0     C76766   7.249   6.418  10.688 -0.2760 -0.0627 -0.1682
  557MOL0     C76767   7.256   6.265  10.698 -1.2027  0.1371  0.4489
  557MOL0     C76768   7.264   6.211  10.563  0.4591  0.2156  0.0294
  557MOL0     C76769   7.225   6.059  10.555  0.2528  0.5998 -0.3274
  557MOL0     C76770   7.240   6.000  10.416  0.2723  0.2049  0.4477
  557MOL0     C76771   7.192   5.847  10.390  0.0034 -0.3027 -0.1343
  557MOL0     C76772   7.225   5.797  10.247  0.4853 -0.2631 -0.3969
  557MOL0    Cl76773   7.388   5.724  10.237 -0.0098 -0.0083 -0.1160
  557MOL0     C76774   6.858   6.564  10.585  0.0645 -0.4144  0.4342
  557MOL0     C76775   6.739   6.619  10.530  0.4361  0.1573 -0.3721
  557MOL0     O76776   6.714   6.890  10.283  0.0837 -0.6214  0.0661
  557MOL0     C76777   6.371   6.772  10.281  0.6812 -0.3588 -0.2473
  557MOL0     C76778   6.241   6.818  10.258  0.3990  0.0041  0.4076
  557MOL0     N76779   5.877   7.331   9.735  0.1963 -0.8693  1.3208
  557MOL0     N76780   5.807   7.437   9.738 -0.4655  0.6776 -0.0791
  557MOL0     C76781   5.002   7.877   9.418 -0.2922  1.0264  0.0528
  557MOL0     C76782   4.867   7.833   9.394  0.0898  0.4826  0.2149
  557MOL0     C76783   4.423   7.778   9.341  0.2991  0.3688  0.0736
  557MOL0     C76784   4.345   7.781   9.220  0.7242 -0.9837  0.4886
  557MOL0     C76785   4.208   7.756   9.211  0.4597 -0.5050 -0.8688
  557MOL0     C76786   4.145   7.730   9.337 -0.0449  0.1615 -0.6290
  557MOL0     O76787   4.010   7.713   9.329  0.3643 -0.5292 -0.3720
  557MOL0     C76788   3.934   7.649   9.433 -0.0820 -0.3135 -0.4265
  557MOL0     C76789   3.890   7.768   9.533 -0.3697 -0.3351  0.8043
  557MOL0     C76790   3.762   7.724   9.599  0.1964  0.0283  0.2699
  557MOL0     C76791   3.689   7.802   9.716 -0.0023 -0.0366 -0.0069
  557MOL0     C76792   3.548   7.759   9.743  0.5683 -0.6469 -0.0470
  557MOL0     C76793   3.434   7.724   9.756  0.7384 -0.2247  0.2804
  557MOL0     C76794   4.225   7.724   9.459  1.0377  0.9695  0.1120
  557MOL0     C76795   4.361   7.747   9.461  0.1228 -0.8904 -0.2235
  557MOL0     C76796   4.429   7.733   9.595  0.4491  0.3832 -1.0751
  557MOL0     H76797   4.722   8.024   9.627 -1.4153  0.5366 -1.9139
  557MOL0     H76798   4.937   8.117   9.652 -0.4661  0.9231 -1.8885
  557MOL0     H76799   5.165   8.124   9.693 -0.7140 -2.5960 -0.6190
  557MOL0     H76800   5.119   8.224   9.554 -0.5594 -0.1401  0.5765
  557MOL0     H76801   5.337   8.254   9.490 -2.4524  0.1868 -0.4896
  557MOL0     H76802   5.321   8.265   9.669  0.6904 -0.3007 -1.0682
  557MOL0     H76803   5.426   8.053   9.485 -3.6489  0.9148  0.0604
  557MOL0     H76804   5.532   8.138   9.601 -1.3363  1.3633 -2.1632
  557MOL0     H76805   5.454   8.025   9.790 -1.1213  0.1849  0.4831
  557MOL0     H76806   5.316   7.946   9.704 -0.7445  0.6503 -2.7981
  557MOL0     H76807   5.599   7.870   9.677  0.8305 -0.9067 -2.2956
  557MOL0     H76808   5.485   7.835   9.544 -1.5055  0.7408  0.1029
  557MOL0     H76809   5.432   7.752   9.844 -0.8194  0.9273 -1.0653
  557MOL0     H76810   5.351   7.684   9.724 -0.2777  0.5004 -0.7762
  557MOL0     H76811   5.654   7.666   9.778 -0.9111  0.1964  0.6205
  557MOL0     H76812   5.590   7.617   9.621 -0.0949  1.6239 -0.0805
  557MOL0     H76813   5.531   7.492   9.889 -2.0785 -2.5347 -0.6031
  557MOL0     H76814   5.469   7.437   9.736 -0.3322 -2.3171  1.0278
  557MOL0     H76815   5.596   7.200   9.833 -3.6497  2.7266 -1.8708
  557MOL0     H76816   5.974   7.086   9.757  1.3251 -2.5288  0.7365
  557MOL0     H76817   5.826   7.009   9.760 -1.2458  0.7104  1.3650
  557MOL0     H76818   5.824   7.164  10.005 -1.4712 -1.8864  0.3139
  557MOL0     H76819   5.858   6.997  10.006 -0.3307  1.8836  2.0285
  557MOL0     H76820   6.104   7.062   9.949  0.7237 -0.5626  1.3705
  557MOL0     H76821   6.055   7.222   9.971  0.0623  0.2607  1.5368
  557MOL0     H76822   6.117   7.166  10.209 -0.7205  0.1258  0.0567
  557MOL0     H76823   5.951   7.129  10.211  0.7506 -0.8967  1.1943
  557MOL0     H76824   6.302   7.096  10.079 -2.1830  0.4034  1.8051
  557MOL0     H76825   6.505   7.144  10.059 -0.0714  0.7518  2.5088
  557MOL0     H76826   6.596   7.002  10.011 -2.0195 -1.1674 -0.6766
  557MOL0     H76827   6.631   7.103  10.150  0.4557 -0.6829 -0.5058
  557MOL0     H76828   6.833   6.605  10.201  0.6126 -1.5174 -0.1704
  557MOL0     H76829   7.034   6.512  10.289 -0.0797 -0.7277 -1.1734
  557MOL0     H76830   7.105   6.571  10.713 -1.4638  0.1117 -1.1747
  557MOL0     H76831   7.045   6.403  10.751  1.5819 -0.9820  0.5111
  557MOL0     H76832   7.304   6.459  10.603 -2.0034  1.2454 -0.7259
  557MOL0     H76833   7.286   6.462  10.781  1.1594  0.5723 -1.0151
  557MOL0     H76834   7.177   6.224  10.761 -0.6367  1.7948  2.3815
  557MOL0     H76835   7.349   6.238  10.750 -0.5541 -0.5136 -0.9971
  557MOL0     H76836   7.364   6.229  10.522 -0.2785  0.7325 -1.6339
  557MOL0     H76837   7.202   6.266  10.493 -1.2713  0.2505  1.5274
  557MOL0     H76838   7.270   5.991  10.627  1.1028 -1.9655 -3.0565
  557MOL0     H76839   7.118   6.063  10.579  0.1769  4.1008 -0.6977
  557MOL0     H76840   7.345   5.996  10.386 -0.0743 -0.2928 -0.7423
  557MOL0     H76841   7.187   6.064  10.345  2.3057  3.4169  1.5945
  557MOL0     H76842   7.083   5.842  10.392  0.0246 -2.4739 -1.1073
  557MOL0     H76843   7.248   5.788  10.463  1.0116  1.0143  0.1711
  557MOL0     H76844   7.217   5.888  10.187 -1.8014 -0.0723  0.0791
  557MOL0     H76845   7.152   5.723  10.211  2.4393 -1.7340 -1.4848
  557MOL0     H76846   6.874   6.552  10.692  0.5559 -2.8413  0.1377
  557MOL0     H76847   6.656   6.658  10.588  0.3675  1.8731 -1.5632
  557MOL0     H76848   6.374   6.679  10.337  0.4880 -0.7097 -0.8065
  557MOL0     H76849   6.160   6.751  10.283 -2.0086  3.0939  1.5875
  557MOL0     H76850   5.081   7.824   9.367 -0.1937  1.8354 -0.6573
  557MOL0     H76851   4.845   7.747   9.331  0.2946  0.9456 -0.5046
  557MOL0     H76852   4.402   7.813   9.134  1.3264 -0.2313  1.1493
  557MOL0     H76853   4.148   7.755   9.120 -1.6916 -3.8552  0.3886
  557MOL0     H76854   3.839   7.608   9.398 -0.7829  0.0394  0.9858
  557MOL0     H76855   3.983   7.567   9.486 -0.1186  1.2641  2.2429
  557MOL0     H76856   3.882   7.864   9.482 -4.4276 -0.8474  0.1686
  557MOL0     H76857   3.955   7.781   9.619 -1.2275  0.1020  1.4012
  557MOL0     H76858   3.688   7.721   9.518  0.9262 -1.5801 -0.3793
  557MOL0     H76859   3.773   7.620   9.631 -2.9435  0.4685  3.3648
  557MOL0     H76860   3.677   7.908   9.690 -0.2635 -0.4586 -1.7291
  557MOL0     H76861   3.744   7.784   9.809  0.5780 -2.8673 -0.8003
  557MOL0     H76862   3.334   7.694   9.783  1.6194  0.2302  4.9671
  557MOL0     H76863   4.164   7.700   9.545  0.0304 -0.7676 -1.0275
  557MOL0     H76864   4.509   7.658   9.597 -1.6452 -2.0824  2.2799
  557MOL0     H76865   4.463   7.830   9.632 -1.5821  1.0599 -0.8739
  557MOL0     H76866   4.357   7.693   9.667 -0.2516 -1.3600 -2.6579
  558MOL0     O76867   6.113  10.189   2.376  1.2851  0.1409 -0.4178
  558MOL0     C76868   6.057  10.293   2.354 -0.2579 -0.4757 -0.5948
  558MOL0     O76869   6.129  10.409   2.327  0.3194 -0.5282  0.1719
  558MOL0     C76870   6.265  10.408   2.334  0.6665 -0.5336  0.5306
  558MOL0     C76871   6.309  10.482   2.441 -0.9154 -0.4869 -0.5577
  558MOL0     C76872   6.444  10.495   2.465 -0.4006 -1.4989  0.1444
  558MOL0     C76873   6.540  10.437   2.375 -0.1899 -0.3721 -0.4511
  558MOL0     O76874   6.672  10.467   2.402  0.1126 -0.8628  0.2624
  558MOL0     C76875   6.757  10.475   2.286 -0.4545 -0.3123  0.1179
  558MOL0     C76876   6.879  10.556   2.315 -0.4084 -0.3589 -0.0163
  558MOL0     C76877   6.992  10.550   2.212 -0.3327  0.4842  0.1001
  558MOL0     C76878   7.115  10.615   2.271 -0.0542  0.4803 -0.1969
  558MOL0     C76879   7.237  10.629   2.176 -0.0450  0.5375  0.5842
  558MOL0     C76880   7.366  10.677   2.246 -1.2469 -0.3234  0.7373
  558MOL0     C76881   7.462  10.718   2.134  0.2277  0.1097  0.8994
  558MOL0     C76882   7.595  10.760   2.198  0.9554 -0.0290  0.3431
  558MOL0     N76883   7.683  10.660   2.264 -0.3931  0.4851  0.2806
  558MOL0     C76884   7.728  10.538   2.203  0.3189  0.5516  0.2209
  558MOL0     C76885   7.810  10.482   2.296 -0.8497  0.3258 -0.5238
  558MOL0     C76886   7.879  10.352   2.287  0.1196  0.5807 -0.0466
  558MOL0     C76887   8.019  10.368   2.231 -0.1550  0.4330  0.0121
  558MOL0     C76888   8.124  10.267   2.270 -0.0440  0.8603 -0.1401
  558MOL0     C76889   8.259  10.297   2.217 -0.0078 -0.0031 -0.1676
  558MOL0     O76890   8.330  10.177   2.221  0.3036  0.4730 -0.0751
  558MOL0     C76891   8.468  10.172   2.197  1.1656  0.1058 -0.3867
  558MOL0     C76892   8.550  10.260   2.264  0.1857 -0.4518  0.2738
  558MOL0     C76893   8.694  10.246   2.276 -0.5675  0.4895 -0.1342
  558MOL0     C76894   8.772  10.342   2.365 -0.8654 -0.4273  0.1092
  558MOL0     C76895   8.749  10.122   2.216  0.0916  0.0048  0.3288
  558MOL0     C76896   8.888  10.068   2.253 -0.0524 -0.4941  0.7571
  558MOL0     O76897   8.896   9.938   2.231 -0.2586  0.5649  0.2362
  558MOL0     C76898   9.010   9.893   2.158  0.2318  0.2474  0.2760
  558MOL0     C76899   9.134   9.904   2.209 -0.0701 -0.8873 -0.3226
  558MOL0     C76900   9.242   9.838   2.141  0.4917 -0.1054  0.9036
  558MOL0     C76901   9.223   9.772   2.016 -0.4555  0.2211 -0.3653
  558MOL0     O76902   9.337   9.724   1.959 -0.6135  0.0432 -0.1564
  558MOL0     C76903   9.298   9.633   1.847  0.2272  0.0943 -0.1590
  558MOL0     C76904   9.417   9.555   1.813  0.7557 -0.2347  1.2050
  558MOL0     C76905   9.397   9.501   1.667  0.5401  0.4839  0.7236
  558MOL0     C76906   9.524   9.429   1.631 -0.5519  0.6013 -0.1202
  558MOL0     C76907   9.649   9.517   1.590  0.2011  0.2309  0.1231
  558MOL0     C76908   9.753   9.429   1.511 -0.1359  0.0520  0.0122
  558MOL0     C76909   9.874   9.517   1.472 -0.6720  0.2940  0.1150
  558MOL0     C76910   9.998   9.422   1.447 -0.5779  0.3854 -0.6778
  558MOL0    Cl76911   9.965   9.315   1.301 -0.2454 -0.0633 -0.3866
  558MOL0     C76912   9.088   9.779   1.960 -1.4715 -0.5260  1.2104
  558MOL0     C76913   8.983   9.834   2.036 -0.5279  0.2847 -0.5525
  558MOL0     O76914   8.975  10.151   2.271  0.7019  0.4505  0.1993
  558MOL0     C76915   8.659  10.039   2.148  0.0166 -0.2294 -0.0866
  558MOL0     C76916   8.525  10.068   2.124 -1.0404  0.3250 -1.3875
  558MOL0     N76917   7.821  10.572   2.399 -0.4060 -0.7221 -0.6195
  558MOL0     N76918   7.742  10.668   2.384 -0.1428 -0.6635  0.6118
  558MOL0     C76919   6.493  10.348   2.270  0.6541 -0.1250 -0.4744
  558MOL0     C76920   6.347  10.329   2.258 -0.2129 -0.0470  0.2065
  558MOL0     C76921   5.904  10.305   2.330 -0.1675 -0.4478  0.9120
  558MOL0     C76922   5.842  10.427   2.275  0.1673  0.4305 -0.0452
  558MOL0     C76923   5.705  10.431   2.233  0.0562  0.5963 -0.2843
  558MOL0     C76924   5.630  10.316   2.255 -0.3445 -0.4930 -0.2089
  558MOL0     O76925   5.504  10.318   2.199  0.1989 -0.0506 -0.7323
  558MOL0     C76926   5.403  10.347   2.299 -0.0254 -0.3193 -0.7979
  558MOL0     C76927   5.389  10.249   2.410 -0.5688 -0.0018  0.0379
  558MOL0     C76928   5.288  10.302   2.510  0.1473  0.1182 -0.5528
  558MOL0     C76929   5.215  10.189   2.586 -0.3126 -0.2062  0.1443
  558MOL0     C76930   5.313  10.120   2.672 -0.0826 -0.7727 -0.3109
  558MOL0     C76931   5.403  10.075   2.743  0.7986 -0.5061 -0.3449
  558MOL0     C76932   5.687  10.198   2.309  0.5845 -0.0267  0.1949
  558MOL0     C76933   5.816  10.193   2.355  0.0032  0.0863 -0.8810
  558MOL0     C76934   5.847  10.064   2.435  0.3788 -1.0936  0.7751
  558MOL0     H76935   6.231  10.527   2.503  0.1351 -1.3041  1.4504
  558MOL0     H76936   6.480  10.545   2.554 -0.3794 -1.5472  0.1627
  558MOL0     H76937   6.698  10.522   2.206 -0.5154  0.5448  0.6628
  558MOL0     H76938   6.790  10.376   2.252  0.2864  0.4975 -1.6442
  558MOL0     H76939   6.847  10.656   2.343 -1.1740 -0.9949  1.4903
  558MOL0     H76940   6.918  10.506   2.404  1.6905 -0.8222 -1.1115
  558MOL0     H76941   7.011  10.449   2.177  0.1280  0.9531 -1.0354
  558MOL0     H76942   6.960  10.610   2.126  1.8830 -0.5094 -1.5084
  558MOL0     H76943   7.094  10.717   2.305  0.8881  0.1257  1.5514
  558MOL0     H76944   7.152  10.572   2.364 -2.9301 -2.1499 -0.1186
  558MOL0     H76945   7.205  10.695   2.094  1.6856  0.3060 -0.3288
  558MOL0     H76946   7.263  10.533   2.130 -0.5632  0.5291  0.3018
  558MOL0     H76947   7.351  10.769   2.301  0.9876  2.3881 -2.7266
  558MOL0     H76948   7.413  10.608   2.317 -0.3005 -3.1633 -2.3743
  558MOL0     H76949   7.429  10.810   2.086 -0.6356 -1.3121 -1.3633
  558MOL0     H76950   7.473  10.633   2.066  0.7581  1.2301 -0.4498
  558MOL0     H76951   7.650  10.807   2.116  0.6270  2.7822  1.6216
  558MOL0     H76952   7.572  10.835   2.273  2.6945 -0.1118  0.9996
  558MOL0     H76953   7.707  10.504   2.102  1.7757  2.5494 -0.8425
  558MOL0     H76954   7.814  10.289   2.226  1.2530 -1.5801  0.8509
  558MOL0     H76955   7.879  10.311   2.389  2.7126  0.0949 -0.1897
  558MOL0     H76956   8.009  10.347   2.124 -0.4531  0.1397  0.0960
  558MOL0     H76957   8.049  10.471   2.252 -0.7117  0.5362  0.3399
  558MOL0     H76958   8.119  10.244   2.377 -1.6679 -2.6696 -0.8196
  558MOL0     H76959   8.102  10.167   2.231 -1.6523  0.0416  2.6067
  558MOL0     H76960   8.255  10.327   2.112 -4.8539 -0.6523 -0.4013
  558MOL0     H76961   8.307  10.367   2.286 -1.0368  0.0043  0.5683
  558MOL0     H76962   8.497  10.342   2.311 -1.3898 -0.0854 -1.9832
  558MOL0     H76963   8.721  10.371   2.457  1.0525 -1.7368  1.6675
  558MOL0     H76964   8.814  10.425   2.307  0.6571 -1.1431  0.1420
  558MOL0     H76965   8.862  10.302   2.412  0.3256  2.4146  0.4837
  558MOL0     H76966   9.155   9.952   2.305  3.0864  0.0661 -1.3638
  558MOL0     H76967   9.340   9.831   2.186 -0.8865  2.8285  4.9091
  558MOL0     H76968   9.209   9.571   1.863  0.1856 -0.8113 -3.2471
  558MOL0     H76969   9.289   9.687   1.752 -1.5570 -1.0861 -0.7158
  558MOL0     H76970   9.502   9.623   1.820  0.7854 -0.1354 -0.0451
  558MOL0     H76971   9.441   9.479   1.888  1.1047 -1.5116 -0.1589
  558MOL0     H76972   9.386   9.582   1.595  1.0486  0.9561  1.1675
  558MOL0     H76973   9.309   9.437   1.673  0.2383  0.5686 -1.9317
  558MOL0     H76974   9.496   9.370   1.543 -0.1073  1.0080 -0.5399
  558MOL0     H76975   9.552   9.358   1.709 -0.8468  0.6126 -0.0015
  558MOL0     H76976   9.625   9.592   1.514  0.1019 -0.6505 -0.7362
  558MOL0     H76977   9.695   9.560   1.679 -0.6916 -0.3466  0.8668
  558MOL0     H76978   9.699   9.401   1.419 -3.0863  1.8328  1.0573
  558MOL0     H76979   9.774   9.339   1.569  1.4626  2.0031  2.6736
  558MOL0     H76980   9.891   9.580   1.559  1.4695 -0.1857  0.1088
  558MOL0     H76981   9.856   9.576   1.381  6.6406 -1.1566 -3.0591
  558MOL0     H76982  10.031   9.358   1.529  1.1384  0.4045 -1.3090
  558MOL0     H76983  10.078   9.491   1.416  0.2611 -1.5900 -3.2932
  558MOL0     H76984   9.076   9.728   1.865  2.1279 -0.9898  0.8670
  558MOL0     H76985   8.887   9.827   1.986  0.7444 -2.9911 -2.8337
  558MOL0     H76986   8.700   9.949   2.103  0.7103  0.3930 -0.7060
  558MOL0     H76987   8.460   9.990   2.085 -1.7994 -0.0570  0.5276
  558MOL0     H76988   6.557  10.302   2.195  0.6489  1.5714 -1.5811
  558MOL0     H76989   6.316  10.259   2.181 -1.6858 -0.4002  1.0869
  558MOL0     H76990   5.907  10.513   2.255  1.0254 -0.0114  0.7500
  558MOL0     H76991   5.662  10.507   2.169 -1.9273  0.1179  0.4140
  558MOL0     H76992   5.422  10.447   2.338 -0.7867 -0.2919 -0.4768
  558MOL0     H76993   5.306  10.352   2.248  0.3013  0.0753 -1.3871
  558MOL0     H76994   5.487  10.234   2.456 -0.1602  1.2875 -0.3615
  558MOL0     H76995   5.362  10.158   2.356  0.4607 -0.4655  0.2772
  558MOL0     H76996   5.341  10.369   2.578  1.0550 -0.1814 -0.9479
  558MOL0     H76997   5.213  10.359   2.455 -0.1019 -0.7579 -1.1466
  558MOL0     H76998   5.168  10.115   2.521  3.8742 -1.9402 -1.2682
  558MOL0     H76999   5.145  10.230   2.660  0.6326 -1.5727  1.8842
  558MOL0     H77000   5.490  10.043   2.797  1.3992 -0.2987 -1.1675
  558MOL0     H77001   5.632  10.104   2.316  0.9582 -0.3758 -1.1123
  558MOL0     H77002   5.950  10.035   2.413  1.8968  0.9129  4.3723
  558MOL0     H77003   5.843  10.086   2.542  1.0173  2.5904  0.1717
  558MOL0     H77004   5.781   9.980   2.411 -0.0956 -1.3517  2.7411
  559MOL0     O77005   8.784   0.899   0.756 -0.0908 -0.2272 -0.6670
  559MOL0     C77006   8.776   0.910   0.633 -0.1208 -0.6021  0.1423
  559MOL0     O77007   8.880   0.948   0.549 -0.3885 -0.1962 -0.5775
  559MOL0     C77008   9.001   0.989   0.592  0.1274 -0.2579  0.0868
  559MOL0     C77009   9.111   0.943   0.520  0.7085 -0.7373  0.9417
  559MOL0     C77010   9.230   0.984   0.561 -0.3134 -0.0022  0.1784
  559MOL0     C77011   9.261   1.055   0.683  0.8116  0.2772  0.3033
  559MOL0     O77012   9.390   1.068   0.719 -0.1272  0.3088  0.0282
  559MOL0     C77013   9.413   1.135   0.848 -0.4132  0.1173  0.0555
  559MOL0     C77014   9.537   1.221   0.847 -1.5045 -0.9871 -0.2732
  559MOL0     C77015   9.514   1.344   0.759 -0.6397 -0.4868  0.6984
  559MOL0     C77016   9.643   1.426   0.711 -0.6982  0.4100 -0.2439
  559MOL0     C77017   9.654   1.559   0.792  0.2052  0.0298 -0.0719
  559MOL0     C77018   9.701   1.540   0.938  0.3655 -0.7778  0.7523
  559MOL0     C77019   9.679   1.665   1.022  0.5506 -0.6745 -0.9292
  559MOL0     C77020   9.732   1.791   0.965  0.7903 -0.0619 -0.1051
  559MOL0     N77021   9.877   1.810   0.976  0.2751  0.5802  0.2602
  559MOL0     C77022   9.953   1.868   1.077  0.9317  0.0914 -0.1056
  559MOL0     C77023  10.079   1.858   1.031  0.4038 -0.6796 -0.5256
  559MOL0     C77024  10.184   1.934   1.100  0.7336 -0.2235  0.6996
  559MOL0     C77025  10.291   1.996   1.008  0.1666  1.1852 -0.5409
  559MOL0     C77026  10.230   2.108   0.924 -0.6909 -0.6730 -0.1975
  559MOL0     C77027  10.235   2.236   1.012 -0.0104  0.1725  0.1807
  559MOL0     O77028  10.362   2.288   1.043  0.1064 -0.4096  0.8148
  559MOL0     C77029  10.423   2.380   0.978 -0.5303  0.2573  0.2812
  559MOL0     C77030  10.356   2.477   0.897  0.1691  0.1137 -1.0796
  559MOL0     C77031  10.416   2.587   0.835 -0.6895  0.0747  0.4306
  559MOL0     C77032  10.331   2.695   0.781  0.1899 -0.1624  0.0922
  559MOL0     C77033  10.560   2.578   0.827  0.2252  0.0291 -0.8023
  559MOL0     C77034  10.642   2.670   0.742  0.0404  0.4903  0.0956
  559MOL0     O77035  10.581   2.752   0.647  0.1824  0.5624  0.0958
  559MOL0     C77036  10.647   2.847   0.573 -0.4740  0.6306 -0.2693
  559MOL0     C77037  10.757   2.924   0.619  1.5044  1.1616 -0.0094
  559MOL0     C77038  10.826   3.009   0.537  0.4492  0.2842 -0.2926
  559MOL0     C77039  10.799   3.028   0.403  0.2134  0.1950 -1.3311
  559MOL0     O77040  10.883   3.085   0.312  0.4465  0.5742  0.2359
  559MOL0     C77041  11.012   3.138   0.347  0.5106 -0.3397  0.1092
  559MOL0     C77042  11.055   3.213   0.223 -0.8505 -0.0444 -0.5565
  559MOL0     C77043  11.120   3.354   0.255  0.0667  0.6644  0.6493
  559MOL0     C77044  11.219   3.380   0.139  0.0780 -0.0512 -0.0042
  559MOL0     C77045  11.279   3.518   0.133  0.8242 -0.7784  0.4202
  559MOL0     C77046  11.366   3.551   0.255 -0.4053 -0.5729 -0.2554
  559MOL0     C77047  11.291   3.630   0.361  0.3820 -0.3299  0.2658
  559MOL0     C77048  11.344   3.625   0.502 -0.1508  0.2584 -0.1123
  559MOL0    Cl77049  11.510   3.682   0.522  0.4767 -0.4925  0.2251
  559MOL0     C77050  10.682   2.963   0.363 -0.0086  0.4063 -0.0713
  559MOL0     C77051  10.611   2.880   0.444  0.7766  0.2926 -0.0970
  559MOL0     O77052  10.757   2.677   0.776  1.0088 -0.3471  0.1372
  559MOL0     C77053  10.626   2.491   0.925 -0.2100  0.5705 -0.3711
  559MOL0     C77054  10.556   2.398   0.998 -0.1416 -0.0459 -0.8598
  559MOL0     N77055  10.088   1.774   0.921 -0.0129  0.1580 -0.4434
  559MOL0     N77056   9.964   1.760   0.881  0.1666 -0.3424 -0.3882
  559MOL0     C77057   9.146   1.105   0.752 -0.4449  0.7444 -1.3651
  559MOL0     C77058   9.020   1.081   0.705  0.3238  1.3021 -0.2620
  559MOL0     C77059   8.641   0.919   0.577  0.1106 -0.5365 -0.3173
  559MOL0     C77060   8.606   1.039   0.522 -0.5703 -0.6920 -0.1322
  559MOL0     C77061   8.472   1.067   0.474 -0.8913  0.6650 -0.2965
  559MOL0     C77062   8.369   0.973   0.484 -0.1073 -0.0444 -0.3515
  559MOL0     O77063   8.251   1.015   0.431 -0.1414 -0.6406  0.8042
  559MOL0     C77064   8.166   0.909   0.390 -0.2546  0.0022 -1.1176
  559MOL0     C77065   8.038   0.967   0.326 -0.5793 -0.4404 -0.2080
  559MOL0     C77066   8.085   1.050   0.202 -0.1780 -1.0307 -0.0622
  559MOL0     C77067   7.974   1.153   0.163  0.3202  0.9839 -0.9549
  559MOL0     C77068   7.846   1.091   0.119 -0.3395  0.7621 -0.0985
  559MOL0     C77069   7.743   1.039   0.090 -0.1190  0.7535 -0.0832
  559MOL0     C77070   8.402   0.848   0.543 -0.1717  0.5685 -0.3636
  559MOL0     C77071   8.536   0.824   0.588  0.6182 -0.9871  0.5286
  559MOL0     C77072   8.568   0.694   0.646 -0.1183  0.2489  0.1155
  559MOL0     H77073   9.096   0.881   0.432  4.4901  1.2938 -1.3834
  559MOL0     H77074   9.306   0.950   0.491 -0.8807 -0.9645  0.0091
  559MOL0     H77075   9.419   1.051   0.918  0.1701  1.5180  1.7489
  559MOL0     H77076   9.337   1.205   0.883  1.1705  1.8830  0.1206
  559MOL0     H77077   9.570   1.244   0.949 -2.0160 -3.0053  0.4076
  559MOL0     H77078   9.622   1.163   0.810 -2.9047 -3.3603  0.0264
  559MOL0     H77079   9.487   1.306   0.660  0.6927 -1.5216  0.6882
  559MOL0     H77080   9.427   1.404   0.785 -1.0157  0.1369 -1.7886
  559MOL0     H77081   9.727   1.357   0.712 -1.2359 -0.2593  0.3664
  559MOL0     H77082   9.631   1.451   0.605  0.4403 -1.6646 -0.9101
  559MOL0     H77083   9.551   1.591   0.811 -0.0580 -0.6685 -0.2690
  559MOL0     H77084   9.710   1.641   0.748  3.0657 -1.2450  0.9254
  559MOL0     H77085   9.639   1.465   0.988 -3.6893  1.0922 -0.9576
  559MOL0     H77086   9.803   1.500   0.936 -0.4493 -2.9914  0.7063
  559MOL0     H77087   9.719   1.643   1.121  1.7546 -0.7533 -1.4247
  559MOL0     H77088   9.571   1.674   1.037  0.6210  3.1776 -1.6650
  559MOL0     H77089   9.695   1.810   0.863  2.4754  5.2298 -0.0070
  559MOL0     H77090   9.693   1.879   1.016  1.9894  1.0808 -1.0823
  559MOL0     H77091   9.914   1.933   1.155  0.0901  0.3741 -0.7353
  559MOL0     H77092  10.221   1.856   1.167  0.3461  1.3757  2.8799
  559MOL0     H77093  10.149   2.003   1.177 -0.6629 -0.1259  0.0079
  559MOL0     H77094  10.386   2.020   1.057 -1.1935  3.1061  1.3370
  559MOL0     H77095  10.323   1.915   0.943 -2.6586 -0.4255 -0.0725
  559MOL0     H77096  10.288   2.125   0.833 -0.7051 -0.2756 -0.1323
  559MOL0     H77097  10.123   2.093   0.904 -1.1306  0.7126  0.9702
  559MOL0     H77098  10.179   2.303   0.947 -0.2286 -3.3839 -3.7063
  559MOL0     H77099  10.189   2.215   1.109 -3.4537  0.8735 -1.1740
  559MOL0     H77100  10.248   2.481   0.886 -0.1494  0.2286  1.6060
  559MOL0     H77101  10.337   2.704   0.672  0.7218  2.4539  0.2925
  559MOL0     H77102  10.359   2.783   0.839  2.0110 -0.1918 -0.7004
  559MOL0     H77103  10.224   2.679   0.798 -0.3487  2.3408 -0.5809
  559MOL0     H77104  10.801   2.900   0.715  2.2029  0.9722 -0.3645
  559MOL0     H77105  10.907   3.054   0.593 -0.6835  1.9068  0.1200
  559MOL0     H77106  11.007   3.212   0.427  0.8517  1.2977 -1.3258
  559MOL0     H77107  11.083   3.066   0.388  1.2765  1.7284  2.6876
  559MOL0     H77108  11.131   3.161   0.164 -1.4906  1.6042 -2.9415
  559MOL0     H77109  10.970   3.239   0.159  0.7860  2.3369 -1.9249
  559MOL0     H77110  11.169   3.357   0.353  0.2329 -2.4547  0.7630
  559MOL0     H77111  11.053   3.439   0.260  0.7698  1.2574  0.2778
  559MOL0     H77112  11.166   3.364   0.045 -1.2110  0.1942  0.6667
  559MOL0     H77113  11.304   3.310   0.133  0.7760  0.8119 -0.3696
  559MOL0     H77114  11.351   3.522   0.051  2.8023  5.3674  1.9063
  559MOL0     H77115  11.201   3.594   0.118  0.2334 -1.4959 -0.2716
  559MOL0     H77116  11.452   3.606   0.215 -1.8772  1.3109 -1.0027
  559MOL0     H77117  11.394   3.457   0.304 -2.5700 -0.6152  1.0308
  559MOL0     H77118  11.185   3.604   0.366  0.1850  0.2755 -0.4929
  559MOL0     H77119  11.295   3.737   0.339 -2.4241 -0.2775 -0.2966
  559MOL0     H77120  11.345   3.524   0.544  0.1322 -0.4037 -1.6296
  559MOL0     H77121  11.286   3.695   0.563 -2.0318 -1.4979  0.2408
  559MOL0     H77122  10.652   2.963   0.258  1.9771  1.1905 -0.6990
  559MOL0     H77123  10.521   2.833   0.407  1.1219  0.2834 -0.9314
  559MOL0     H77124  10.733   2.492   0.944 -0.4210 -2.7422  1.7526
  559MOL0     H77125  10.613   2.334   1.064 -0.5673  1.1119  0.6793
  559MOL0     H77126   9.138   1.169   0.839  1.0294 -0.3357 -0.3863
  559MOL0     H77127   8.935   1.133   0.748  0.4856  0.6478  0.8913
  559MOL0     H77128   8.681   1.117   0.518  0.6525 -1.8519 -0.4953
  559MOL0     H77129   8.444   1.163   0.434 -2.1246  0.6729  0.5340
  559MOL0     H77130   8.219   0.839   0.325  0.3027 -0.7637  0.1324
  559MOL0     H77131   8.129   0.855   0.477  0.3861  1.9233  0.4180
  559MOL0     H77132   7.991   1.023   0.407 -3.0928 -1.1394 -1.1091
  559MOL0     H77133   7.962   0.893   0.298 -3.2557  1.8169  0.6570
  559MOL0     H77134   8.171   1.113   0.227 -2.4313  1.8200  0.9625
  559MOL0     H77135   8.106   0.980   0.120  0.5458 -1.3280  0.3700
  559MOL0     H77136   8.017   1.206   0.078  3.5186 -0.2876 -0.2680
  559MOL0     H77137   7.952   1.230   0.237 -2.3358  2.8263 -3.4429
  559MOL0     H77138   7.659   0.979   0.063  0.2814  0.1660 -0.0523
  559MOL0     H77139   8.323   0.774   0.556  0.0817  0.4949  0.8786
  559MOL0     H77140   8.616   0.695   0.745 -1.0456 -0.2482  0.5957
  559MOL0     H77141   8.478   0.632   0.652 -1.6816  2.2672 -1.2797
  559MOL0     H77142   8.641   0.648   0.579 -0.3312  2.3747 -1.6855
  560MOL0     O77143   8.598   6.150   7.338 -0.2734  0.1598 -0.3268
  560MOL0     C77144   8.647   6.126   7.445 -0.4888  0.0544 -0.6060
  560MOL0     O77145   8.619   6.011   7.519  0.2760 -0.3251  1.1448
  560MOL0     C77146   8.546   5.903   7.468 -0.2332 -0.2501 -0.7676
  560MOL0     C77147   8.439   5.857   7.529  0.4865 -0.1092 -0.7263
  560MOL0     C77148   8.376   5.749   7.472  0.2444 -0.5804 -0.2289
  560MOL0     C77149   8.409   5.692   7.343 -0.4140 -0.4058 -0.3520
  560MOL0     O77150   8.326   5.605   7.286  0.2159 -0.0713  0.7645
  560MOL0     C77151   8.367   5.509   7.185 -0.2486  0.2221  0.2008
  560MOL0     C77152   8.423   5.378   7.245  0.1714  0.4365  0.6128
  560MOL0     C77153   8.322   5.326   7.355 -0.2252  0.2638  0.5124
  560MOL0     C77154   8.338   5.179   7.388 -0.1111 -0.6880  0.6951
  560MOL0     C77155   8.214   5.100   7.351 -0.7794  0.4396  0.5480
  560MOL0     C77156   8.224   4.951   7.368 -0.9786 -0.1216  0.6572
  560MOL0     C77157   8.096   4.891   7.410  0.0184 -0.3295 -0.8331
  560MOL0     C77158   8.119   4.742   7.448 -0.8159  0.8277  0.1621
  560MOL0     N77159   8.215   4.724   7.546 -0.5002 -0.3933 -0.1436
  560MOL0     C77160   8.216   4.764   7.679 -0.0181 -0.0047 -0.5007
  560MOL0     C77161   8.326   4.703   7.732  0.1348  0.0376  0.6209
  560MOL0     C77162   8.372   4.716   7.875  0.9992  0.3481 -0.4264
  560MOL0     C77163   8.501   4.790   7.894  0.2823 -0.0984  0.4812
  560MOL0     C77164   8.508   4.874   8.022  0.2229 -0.7068 -0.0681
  560MOL0     C77165   8.651   4.925   8.054 -0.2157 -0.3137 -0.6415
  560MOL0     O77166   8.728   4.815   8.101 -0.2511 -0.6895  0.5448
  560MOL0     C77167   8.856   4.831   8.159  0.7440  0.0547 -0.4204
  560MOL0     C77168   8.913   4.718   8.210 -0.4142  0.4328  0.0570
  560MOL0     C77169   9.031   4.727   8.271 -0.1278  0.2246 -0.7101
  560MOL0     C77170   9.069   4.607   8.345 -0.5710 -1.0756  0.2930
  560MOL0     C77171   9.111   4.845   8.267  0.1746 -0.4049 -0.2370
  560MOL0     C77172   9.259   4.867   8.311 -0.0524  0.9885 -0.1863
  560MOL0     O77173   9.295   4.981   8.363 -0.3719 -0.1511 -0.5802
  560MOL0     C77174   9.420   4.991   8.432  0.9258 -0.2376  0.0190
  560MOL0     C77175   9.428   4.974   8.568 -0.7035 -0.0326 -0.2519
  560MOL0     C77176   9.545   5.004   8.639 -0.1712  1.0853  0.2300
  560MOL0     C77177   9.657   5.049   8.570  0.0788 -0.2973  0.5199
  560MOL0     O77178   9.773   5.086   8.627 -0.5918  0.0957  1.1298
  560MOL0     C77179   9.787   5.069   8.770 -0.8543 -0.2005  0.2484
  560MOL0     C77180   9.914   5.146   8.811  0.4816 -0.0583  0.3114
  560MOL0     C77181  10.044   5.110   8.730 -0.1764  0.2582  0.0258
  560MOL0     C77182  10.169   5.152   8.814  0.9065 -0.0277 -0.4579
  560MOL0     C77183  10.297   5.097   8.752 -1.0715 -0.3091 -0.1742
  560MOL0     C77184  10.421   5.111   8.840  0.8608  0.1107  0.1687
  560MOL0     C77185  10.449   5.257   8.865 -0.1911  0.4671  0.5716
  560MOL0     C77186  10.597   5.287   8.907  0.1775  0.9549 -1.0440
  560MOL0    Cl77187  10.631   5.460   8.881  0.1993 -0.0038  0.0254
  560MOL0     C77188   9.652   5.064   8.430  0.2105  0.1563 -0.5481
  560MOL0     C77189   9.536   5.044   8.366  0.6609  0.1152  0.7709
  560MOL0     O77190   9.331   4.767   8.296 -0.4329 -0.0007  1.0117
  560MOL0     C77191   9.045   4.959   8.223 -0.2043  1.0519  0.5106
  560MOL0     C77192   8.922   4.956   8.162  0.1985  0.7201 -0.1861
  560MOL0     N77193   8.401   4.655   7.630 -0.0606  0.3949  0.3226
  560MOL0     N77194   8.332   4.663   7.519  0.2586 -0.1179 -0.4343
  560MOL0     C77195   8.530   5.735   7.291 -0.4680  0.2034 -0.6501
  560MOL0     C77196   8.589   5.841   7.354 -0.4640 -0.5280  0.3171
  560MOL0     C77197   8.725   6.228   7.507  0.2239 -0.4257 -0.2184
  560MOL0     C77198   8.734   6.225   7.649  0.6950 -0.1319  1.0145
  560MOL0     C77199   8.820   6.312   7.712 -0.1888 -0.2226  0.2040
  560MOL0     C77200   8.888   6.414   7.640  0.6071 -0.2025  0.5170
  560MOL0     O77201   8.955   6.512   7.703 -0.2432 -0.4710  0.2218
  560MOL0     C77202   9.028   6.615   7.648  0.0839 -0.4377  0.2644
  560MOL0     C77203   9.093   6.710   7.756  0.3535  1.2218 -0.0580
  560MOL0     C77204   9.000   6.790   7.846  0.2572  0.2976 -0.2241
  560MOL0     C77205   9.055   6.909   7.932 -0.0806 -1.5271 -0.2729
  560MOL0     C77206   9.109   7.006   7.842 -0.2483  0.0238  1.3085
  560MOL0     C77207   9.150   7.082   7.761 -0.5926 -0.0014  0.2897
  560MOL0     C77208   8.889   6.408   7.500  0.4846 -0.4991 -0.0528
  560MOL0     C77209   8.826   6.305   7.431 -0.4452  0.1046  0.4417
  560MOL0     C77210   8.853   6.294   7.273 -0.3742  0.2307 -0.1826
  560MOL0     H77211   8.413   5.910   7.620  0.3787  1.4661 -1.6344
  560MOL0     H77212   8.291   5.705   7.521 -1.4779  2.1069 -0.5926
  560MOL0     H77213   8.432   5.561   7.114 -2.2345 -0.1839 -2.0490
  560MOL0     H77214   8.280   5.480   7.126  1.1690 -0.2670 -1.7690
  560MOL0     H77215   8.445   5.303   7.168  3.5593  0.4608  1.4030
  560MOL0     H77216   8.523   5.393   7.287 -0.8356 -1.4150  4.0389
  560MOL0     H77217   8.340   5.392   7.440 -0.1945 -1.0408  1.5585
  560MOL0     H77218   8.219   5.354   7.330  0.5702  0.5598 -2.9631
  560MOL0     H77219   8.424   5.130   7.342 -0.1574 -0.8429  0.7750
  560MOL0     H77220   8.348   5.172   7.496  2.8024 -0.2085  0.5307
  560MOL0     H77221   8.195   5.117   7.245  0.2634 -0.8402  0.1298
  560MOL0     H77222   8.128   5.145   7.401 -0.7165 -0.6513  1.6802
  560MOL0     H77223   8.251   4.919   7.267 -0.6419  1.6911  0.1192
  560MOL0     H77224   8.316   4.915   7.413  1.9254  2.4141 -2.7111
  560MOL0     H77225   8.013   4.905   7.340 -0.7694 -1.0585 -0.0742
  560MOL0     H77226   8.074   4.951   7.499 -0.2571  0.3757 -1.3727
  560MOL0     H77227   8.030   4.689   7.483 -0.9629  1.7854  1.3312
  560MOL0     H77228   8.148   4.689   7.357  5.6870  1.8919  1.1230
  560MOL0     H77229   8.145   4.828   7.731 -0.3810 -1.0932  0.3847
  560MOL0     H77230   8.365   4.620   7.926  0.6229 -0.1228 -1.3224
  560MOL0     H77231   8.303   4.783   7.926 -1.0112 -1.2297 -0.9074
  560MOL0     H77232   8.577   4.713   7.910 -0.1922 -0.4962  0.8204
  560MOL0     H77233   8.522   4.860   7.813  1.7281  0.4410  1.2686
  560MOL0     H77234   8.440   4.959   8.011  1.2616 -0.0069 -1.3855
  560MOL0     H77235   8.467   4.822   8.109 -0.4985 -0.8115 -0.4631
  560MOL0     H77236   8.691   4.971   7.964  0.9551  1.6167  0.7863
  560MOL0     H77237   8.650   5.002   8.132  1.4762 -1.2656  0.3950
  560MOL0     H77238   8.853   4.628   8.213  0.2426 -0.3821 -4.3099
  560MOL0     H77239   9.137   4.635   8.426  0.7007 -1.1210 -0.7224
  560MOL0     H77240   9.123   4.543   8.274  0.0062  0.8190 -1.0454
  560MOL0     H77241   8.983   4.553   8.384 -1.6498  0.8470  0.6662
  560MOL0     H77242   9.338   4.937   8.616 -0.6399 -3.8184 -2.6681
  560MOL0     H77243   9.537   4.984   8.745 -2.9259  0.1882 -0.0593
  560MOL0     H77244   9.702   5.110   8.825 -1.3755  0.6924 -1.1588
  560MOL0     H77245   9.797   4.965   8.802 -2.0939 -0.2156  0.6260
  560MOL0     H77246   9.909   5.254   8.792  2.3248 -0.3954 -2.6903
  560MOL0     H77247   9.922   5.125   8.918 -0.0942  0.2687  0.4236
  560MOL0     H77248  10.040   5.151   8.628 -1.1380 -2.5114 -1.1425
  560MOL0     H77249  10.041   5.001   8.721  1.6406  0.3493 -2.5408
  560MOL0     H77250  10.156   5.118   8.917 -1.2196  0.4769 -0.5050
  560MOL0     H77251  10.166   5.261   8.813 -0.3871 -0.0418  0.0181
  560MOL0     H77252  10.278   4.992   8.727  0.1827 -0.5592 -0.1368
  560MOL0     H77253  10.321   5.155   8.663 -3.4343 -1.8988 -1.9899
  560MOL0     H77254  10.509   5.061   8.799 -0.2262 -4.6529  2.8895
  560MOL0     H77255  10.400   5.067   8.938  2.0944  0.2079  0.4888
  560MOL0     H77256  10.376   5.294   8.937 -0.7735 -1.6193  1.1144
  560MOL0     H77257  10.439   5.314   8.773  4.4346  1.9263  0.6948
  560MOL0     H77258  10.664   5.220   8.854  0.2069 -0.7455  1.0344
  560MOL0     H77259  10.611   5.261   9.012 -0.5449 -1.7838 -1.5523
  560MOL0     H77260   9.741   5.097   8.378  0.2353  0.7255 -0.1590
  560MOL0     H77261   9.537   5.067   8.260 -0.6056  2.6335  1.2267
  560MOL0     H77262   9.092   5.057   8.235  1.8869 -0.0861  2.3844
  560MOL0     H77263   8.875   5.039   8.110  0.0935  0.5684 -0.3313
  560MOL0     H77264   8.564   5.704   7.193 -0.6263 -0.3069 -0.5448
  560MOL0     H77265   8.669   5.886   7.296 -1.5961  1.4828  0.2102
  560MOL0     H77266   8.692   6.149   7.714 -0.2176 -0.4896  0.0433
  560MOL0     H77267   8.822   6.313   7.821 -0.3282 -2.3493  0.2789
  560MOL0     H77268   9.108   6.553   7.607  0.5088 -1.4037  2.4089
  560MOL0     H77269   8.971   6.668   7.572  0.4466  1.5753  1.3081
  560MOL0     H77270   9.163   6.770   7.698 -1.4018  1.6563 -1.8262
  560MOL0     H77271   9.141   6.648   7.832 -2.6816  0.1903  1.1686
  560MOL0     H77272   8.915   6.826   7.788 -0.2625  0.1660  0.4436
  560MOL0     H77273   8.953   6.709   7.903  2.6689 -0.6813  0.5314
  560MOL0     H77274   9.139   6.876   7.993 -0.2763 -0.6813  0.4860
  560MOL0     H77275   8.978   6.951   7.997  1.5953 -1.7481  1.9662
  560MOL0     H77276   9.196   7.157   7.698  2.0489 -2.1280 -0.5233
  560MOL0     H77277   8.922   6.492   7.440 -2.3319  2.0859  1.7208
  560MOL0     H77278   8.957   6.317   7.245 -0.8829 -0.5448 -3.0597
  560MOL0     H77279   8.831   6.199   7.224  0.2098 -1.0595  1.9632
  560MOL0     H77280   8.787   6.362   7.219 -0.5762 -0.9133 -1.4341
  561MOL0     O77281   0.757   3.195   2.203  0.2462 -0.5214 -0.3440
  561MOL0     C77282   0.724   3.281   2.122  0.5073 -0.1403  0.4863
  561MOL0     O77283   0.691   3.410   2.158  0.4377 -0.8646 -0.2746
  561MOL0     C77284   0.727   3.445   2.286  0.3022 -0.4013 -0.0906
  561MOL0     C77285   0.864   3.456   2.314 -0.5904  0.1569 -0.7942
  561MOL0     C77286   0.907   3.522   2.431  0.8512  0.1098 -0.3780
  561MOL0     C77287   0.814   3.540   2.534 -0.5351  0.6813 -0.6330
  561MOL0     O77288   0.845   3.569   2.663  0.4573 -0.2568  0.4526
  561MOL0     C77289   0.960   3.653   2.684 -0.0006  0.2358 -0.7304
  561MOL0     C77290   0.942   3.721   2.816 -0.8816 -0.2656  0.7435
  561MOL0     C77291   0.951   3.630   2.932 -0.2518  0.2538 -0.4363
  561MOL0     C77292   0.940   3.708   3.067 -0.0146 -0.1277  0.5724
  561MOL0     C77293   0.897   3.616   3.182 -0.3957  0.3426 -0.2494
  561MOL0     C77294   0.874   3.688   3.313  0.7024 -0.0608  0.0278
  561MOL0     C77295   0.794   3.605   3.412  0.4602  0.2886 -0.1007
  561MOL0     C77296   0.761   3.673   3.550  0.2939 -0.5983  0.5003
  561MOL0     N77297   0.673   3.790   3.532  0.0096 -0.4453  0.2629
  561MOL0     C77298   0.678   3.896   3.610 -0.4844 -0.6902  0.4215
  561MOL0     C77299   0.566   3.968   3.581  0.6298 -0.6285  0.2655
  561MOL0     C77300   0.530   4.105   3.642  0.1535 -0.0246 -0.3379
  561MOL0     C77301   0.431   4.100   3.752  0.8001 -0.2236 -1.1582
  561MOL0     C77302   0.486   4.140   3.889  0.3592 -0.0758  0.2680
  561MOL0     C77303   0.378   4.120   3.995 -0.6019 -0.1511 -0.3342
  561MOL0     O77304   0.425   4.163   4.121  0.3849  0.3975  0.0054
  561MOL0     C77305   0.445   4.289   4.144 -0.2263 -0.4195  0.5141
  561MOL0     C77306   0.563   4.322   4.218  0.3933  0.2204 -0.2458
  561MOL0     C77307   0.600   4.458   4.238  0.1890 -0.2508 -0.6704
  561MOL0     C77308   0.719   4.494   4.324  0.1935 -0.1445  0.2787
  561MOL0     C77309   0.510   4.556   4.187  0.4842 -0.1548  0.1840
  561MOL0     C77310   0.550   4.706   4.194  0.0688  0.6316  0.3821
  561MOL0     O77311   0.489   4.796   4.274  0.4783 -0.0596 -0.7773
  561MOL0     C77312   0.363   4.759   4.326  0.1492 -0.1065  0.1634
  561MOL0     C77313   0.356   4.674   4.441 -0.1479 -0.0736 -0.4459
  561MOL0     C77314   0.230   4.650   4.498 -0.5134 -0.5939 -1.0667
  561MOL0     C77315   0.113   4.702   4.434  0.8221  0.6945  0.3036
  561MOL0     O77316  -0.007   4.667   4.476 -0.3946  0.1822  0.4044
  561MOL0     C77317  -0.030   4.564   4.566  0.5694  0.2034 -1.1161
  561MOL0     C77318  -0.169   4.500   4.556  0.1137 -0.4590  0.0556
  561MOL0     C77319  -0.291   4.596   4.522 -0.2275 -0.6075  0.4953
  561MOL0     C77320  -0.429   4.526   4.497  0.2460 -0.0813  0.2980
  561MOL0     C77321  -0.539   4.614   4.431 -0.5231  0.9477  0.2876
  561MOL0     C77322  -0.569   4.752   4.494 -0.7820  0.3367  0.1470
  561MOL0     C77323  -0.648   4.743   4.632 -0.2023 -0.3452  0.1552
  561MOL0     C77324  -0.678   4.889   4.675  0.6048 -0.3855 -0.1232
  561MOL0    Cl77325  -0.536   4.997   4.712 -0.0569 -0.0798 -0.5592
  561MOL0     C77326   0.125   4.783   4.323  0.0110  0.8554  0.0691
  561MOL0     C77327   0.248   4.816   4.268  0.9574 -0.2358  0.1759
  561MOL0     O77328   0.641   4.736   4.119 -0.5393 -0.4976  0.2759
  561MOL0     C77329   0.397   4.520   4.106 -0.5247 -0.1135  0.5495
  561MOL0     C77330   0.359   4.390   4.093 -0.2681  0.1990 -1.1731
  561MOL0     N77331   0.500   3.911   3.478 -0.7828  0.3089  0.8858
  561MOL0     N77332   0.569   3.799   3.448  0.0568  0.2414  0.4024
  561MOL0     C77333   0.678   3.528   2.511  0.6787 -1.1957  0.8184
  561MOL0     C77334   0.635   3.491   2.384  0.0270  1.1319 -0.7700
  561MOL0     C77335   0.746   3.247   1.981  0.2277  1.2141  0.6041
  561MOL0     C77336   0.777   3.347   1.888  0.0611 -0.0604  0.3051
  561MOL0     C77337   0.787   3.325   1.750  0.6474  0.3143  0.6051
  561MOL0     C77338   0.774   3.190   1.706 -1.0120 -0.6667  0.1641
  561MOL0     O77339   0.785   3.162   1.570 -0.1002 -0.6734 -0.1356
  561MOL0     C77340   0.748   3.032   1.529 -0.4251 -1.1302  0.3094
  561MOL0     C77341   0.779   3.006   1.382 -0.4022  0.3909 -0.5669
  561MOL0     C77342   0.924   2.962   1.352  0.4798 -0.2392  0.2380
  561MOL0     C77343   0.950   2.808   1.366 -0.4955  0.3184  0.8976
  561MOL0     C77344   1.042   2.755   1.259 -0.4520 -0.3404 -0.0848
  561MOL0     C77345   1.095   2.733   1.145 -0.4842 -0.6596 -0.8951
  561MOL0     C77346   0.733   3.085   1.793 -0.0141 -0.1850 -0.3454
  561MOL0     C77347   0.717   3.115   1.933  0.4103  0.7771 -1.0222
  561MOL0     C77348   0.672   2.997   2.024  0.5629  0.4637 -0.2152
  561MOL0     H77349   0.939   3.419   2.244 -1.1376 -2.1527 -0.2061
  561MOL0     H77350   1.010   3.554   2.440  0.2051  1.7059  3.0502
  561MOL0     H77351   0.976   3.737   2.615  2.9250  0.6942  0.3556
  561MOL0     H77352   1.046   3.589   2.700 -1.5314 -1.3274  1.9067
  561MOL0     H77353   1.020   3.798   2.820  1.4230 -2.4698  0.5562
  561MOL0     H77354   0.845   3.773   2.813 -0.9754 -0.4606 -2.7119
  561MOL0     H77355   0.878   3.550   2.916  1.4308 -1.4358 -0.1475
  561MOL0     H77356   1.048   3.579   2.929 -0.1511  0.4778 -1.2427
  561MOL0     H77357   1.037   3.758   3.074  1.8349 -3.1302 -1.1279
  561MOL0     H77358   0.860   3.781   3.056 -0.7075 -0.9815 -0.2188
  561MOL0     H77359   0.967   3.540   3.218  0.0181  1.5944  1.7180
  561MOL0     H77360   0.810   3.562   3.145 -0.2965  1.7311 -2.7506
  561MOL0     H77361   0.961   3.715   3.373 -1.2475  0.0119  2.9978
  561MOL0     H77362   0.804   3.769   3.288 -2.8772 -2.5228  1.1897
  561MOL0     H77363   0.857   3.519   3.437  1.3017  1.2374  1.1287
  561MOL0     H77364   0.701   3.562   3.373  0.9911 -0.2076 -0.8517
  561MOL0     H77365   0.705   3.601   3.611 -1.0786 -0.1295 -0.1531
  561MOL0     H77366   0.859   3.689   3.596  1.8084 -2.9831 -1.6087
  561MOL0     H77367   0.748   3.923   3.689 -1.7772 -0.1842  1.4170
  561MOL0     H77368   0.494   4.176   3.566 -1.5991  0.6226  1.0354
  561MOL0     H77369   0.623   4.155   3.672 -0.9577  3.2550 -1.7866
  561MOL0     H77370   0.338   4.157   3.741 -0.4394 -1.9706 -0.2772
  561MOL0     H77371   0.377   4.005   3.747 -1.8731  1.1590 -0.6947
  561MOL0     H77372   0.569   4.072   3.912 -1.8783 -2.1436  2.8708
  561MOL0     H77373   0.514   4.246   3.888  0.6665 -0.1545  0.4519
  561MOL0     H77374   0.289   4.172   3.959 -0.6086 -0.8051 -1.3083
  561MOL0     H77375   0.342   4.016   4.001 -1.7694  0.3081  3.4476
  561MOL0     H77376   0.614   4.237   4.263 -2.1196 -1.0761  0.3410
  561MOL0     H77377   0.683   4.506   4.427 -4.3021 -0.4309 -1.0425
  561MOL0     H77378   0.765   4.589   4.296  3.1363 -1.3488  0.5737
  561MOL0     H77379   0.795   4.416   4.310  0.8671  0.0604  2.4026
  561MOL0     H77380   0.453   4.640   4.477 -0.1195 -0.5915 -0.9896
  561MOL0     H77381   0.232   4.596   4.592  1.0534  1.6182  0.2759
  561MOL0     H77382   0.039   4.484   4.541  1.7491  1.2560 -1.3419
  561MOL0     H77383  -0.015   4.600   4.669 -0.5158 -2.5434  0.1038
  561MOL0     H77384  -0.172   4.420   4.481  1.2623  0.4403 -0.9834
  561MOL0     H77385  -0.195   4.463   4.655 -0.5307  0.3619  0.2046
  561MOL0     H77386  -0.274   4.657   4.432 -3.0109  0.1585  0.4000
  561MOL0     H77387  -0.293   4.668   4.604  0.8925  1.1646 -0.9246
  561MOL0     H77388  -0.464   4.482   4.590  1.8631 -0.0010  0.9804
  561MOL0     H77389  -0.411   4.439   4.433 -0.7287 -0.7998  0.9849
  561MOL0     H77390  -0.507   4.636   4.329 -1.7470 -2.3084 -0.9553
  561MOL0     H77391  -0.628   4.555   4.407  0.4648  0.4407 -2.3605
  561MOL0     H77392  -0.633   4.806   4.424 -1.3427  2.1447  1.9333
  561MOL0     H77393  -0.473   4.798   4.520  0.2490 -1.6440  0.0247
  561MOL0     H77394  -0.579   4.694   4.702  0.2365 -1.8055 -1.2380
  561MOL0     H77395  -0.739   4.687   4.612  1.5878 -3.2678 -0.4416
  561MOL0     H77396  -0.733   4.886   4.769 -1.1564  0.4912 -1.0887
  561MOL0     H77397  -0.737   4.942   4.600  0.1158  0.6278  0.9542
  561MOL0     H77398   0.031   4.800   4.270 -0.4540  1.8850  1.1767
  561MOL0     H77399   0.258   4.876   4.178  0.7424 -2.3452 -1.3173
  561MOL0     H77400   0.336   4.603   4.075  0.2512  0.8544  1.5101
  561MOL0     H77401   0.261   4.376   4.049 -0.4737 -0.9796 -0.3769
  561MOL0     H77402   0.611   3.528   2.596 -1.3672 -2.0115 -0.7202
  561MOL0     H77403   0.529   3.481   2.361 -0.3889  1.6542  0.8322
  561MOL0     H77404   0.766   3.447   1.931 -2.6935 -0.5851  1.0540
  561MOL0     H77405   0.820   3.399   1.678  1.2829  1.7207  2.2629
  561MOL0     H77406   0.822   2.965   1.573  2.1425  1.2224 -0.1722
  561MOL0     H77407   0.648   2.995   1.555  0.3081 -2.8708  0.8019
  561MOL0     H77408   0.756   3.103   1.337 -0.2602  0.1043 -1.2864
  561MOL0     H77409   0.713   2.934   1.332  0.0934 -0.1243 -0.4955
  561MOL0     H77410   0.920   2.986   1.245 -4.2997  0.0231  0.2619
  561MOL0     H77411   1.003   3.015   1.405  0.0169 -0.0624  0.7566
  561MOL0     H77412   0.853   2.758   1.367 -1.5102  2.1930  0.0367
  561MOL0     H77413   0.999   2.797   1.464  1.4316 -1.3727 -0.1728
  561MOL0     H77414   1.149   2.724   1.054 -0.9072 -1.4330 -1.0714
  561MOL0     H77415   0.718   2.978   1.779  0.1342 -0.2480 -0.0262
  561MOL0     H77416   0.600   3.026   2.101 -0.5044 -3.6971  0.6014
  561MOL0     H77417   0.641   2.905   1.973  1.1939  0.9927 -1.6272
  561MOL0     H77418   0.760   2.970   2.082 -0.8403 -1.6810  1.0346
  562MOL0     O77419   8.142  10.906   5.022 -0.3314 -0.2201  0.3205
  562MOL0     C77420   8.047  10.922   4.949  0.3702 -0.3119 -0.4145
  562MOL0     O77421   8.034  10.861   4.825  0.1709  0.0851  0.6082
  562MOL0     C77422   8.150  10.801   4.773  0.9556 -0.2369  1.2314
  562MOL0     C77423   8.154  10.662   4.742  0.4210  0.3232  0.0422
  562MOL0     C77424   8.272  10.600   4.688  0.1981  1.0869  0.3353
  562MOL0     C77425   8.380  10.676   4.654  0.4835  0.6285  0.3595
  562MOL0     O77426   8.486  10.606   4.613 -0.0912  0.0123 -0.3365
  562MOL0     C77427   8.608  10.664   4.644 -0.6973  0.8275 -0.3831
  562MOL0     C77428   8.720  10.558   4.634  0.2413 -0.4735 -0.1422
  562MOL0     C77429   8.856  10.612   4.622 -0.6485 -0.4847 -0.7164
  562MOL0     C77430   8.975  10.513   4.621 -0.0388  0.4029  0.4067
  562MOL0     C77431   9.113  10.568   4.622  0.3186  0.7187 -0.1942
  562MOL0     C77432   9.166  10.620   4.488  0.5370 -0.8981 -0.6169
  562MOL0     C77433   9.308  10.665   4.497  0.4612  0.8255  0.1953
  562MOL0     C77434   9.413  10.548   4.508  1.3024  0.8219 -0.6217
  562MOL0     N77435   9.544  10.617   4.533  0.1481 -0.2068  0.3700
  562MOL0     C77436   9.619  10.707   4.453 -0.5039  0.1283  0.1849
  562MOL0     C77437   9.739  10.731   4.507 -0.6839 -0.0446  0.3580
  562MOL0     C77438   9.849  10.824   4.455 -0.6435  0.6842  0.2792
  562MOL0     C77439   9.904  10.787   4.314  0.6829 -0.3630  0.0490
  562MOL0     C77440  10.003  10.895   4.278 -0.1969  0.3530  0.6519
  562MOL0     C77441  10.082  10.845   4.155 -0.3100  0.2758  0.1548
  562MOL0     O77442  10.139  10.715   4.161  0.4887  0.0213  0.1724
  562MOL0     C77443  10.170  10.678   4.034  0.5612  0.0541  0.3488
  562MOL0     C77444  10.108  10.573   3.970  0.3619  0.1209 -0.0891
  562MOL0     C77445  10.144  10.522   3.848  0.5071 -0.2918  0.3796
  562MOL0     C77446  10.061  10.412   3.797  0.1156 -0.3956 -1.1447
  562MOL0     C77447  10.258  10.588   3.785 -0.6110  0.6821 -0.1708
  562MOL0     C77448  10.303  10.558   3.645 -0.5585 -0.3474  0.1574
  562MOL0     O77449  10.436  10.589   3.617 -0.5843 -0.0817  0.1902
  562MOL0     C77450  10.479  10.551   3.496  0.6991 -0.5041 -0.0002
  562MOL0     C77451  10.579  10.454   3.483  0.7551 -0.2986 -0.5897
  562MOL0     C77452  10.615  10.412   3.346 -0.6091  0.5813  0.3795
  562MOL0     C77453  10.563  10.475   3.236  0.3571 -0.4172  0.0083
  562MOL0     O77454  10.609  10.452   3.111 -0.8575 -0.1354  0.2676
  562MOL0     C77455  10.561  10.528   2.995 -0.0319  0.2126 -0.1953
  562MOL0     C77456  10.617  10.673   2.981 -0.0875  0.3887  0.2501
  562MOL0     C77457  10.767  10.673   2.931  0.7842  0.0122 -0.7816
  562MOL0     C77458  10.837  10.807   2.902 -0.2486 -0.2800 -0.3579
  562MOL0     C77459  10.988  10.794   2.915  0.7990  0.9194  0.0359
  562MOL0     C77460  11.057  10.910   2.834 -0.1722 -0.0019  0.1782
  562MOL0     C77461  11.213  10.881   2.843  0.1007 -0.2681  0.9513
  562MOL0     C77462  11.282  10.988   2.762 -1.1248  0.2833  0.0944
  562MOL0    Cl77463  11.459  10.981   2.793  0.4438 -0.2180 -0.3093
  562MOL0     C77464  10.464  10.568   3.257 -0.5351 -0.0291 -0.2780
  562MOL0     C77465  10.421  10.609   3.381 -1.1000  0.7508 -0.2550
  562MOL0     O77466  10.224  10.488   3.573  0.1823 -0.3013  0.2218
  562MOL0     C77467  10.327  10.677   3.862 -0.3220 -0.1905 -0.1522
  562MOL0     C77468  10.289  10.729   3.987 -0.0990  0.1905  0.2404
  562MOL0     N77469   9.747  10.629   4.607  0.2424  0.1816  0.1497
  562MOL0     N77470   9.634  10.568   4.630  0.5236 -0.3499 -0.1135
  562MOL0     C77471   8.373  10.810   4.681  0.0417  0.8118 -0.1853
  562MOL0     C77472   8.259  10.877   4.732  0.5320  0.2304  0.8409
  562MOL0     C77473   7.947  11.016   4.995 -0.1382  0.1691 -0.0853
  562MOL0     C77474   7.855  11.065   4.899 -0.4294 -0.2523 -0.4311
  562MOL0     C77475   7.752  11.156   4.925 -0.3333 -0.0595  0.0061
  562MOL0     C77476   7.731  11.195   5.053 -0.3964  1.3504 -0.3010
  562MOL0     O77477   7.635  11.286   5.077  0.4058 -0.4098 -0.3315
  562MOL0     C77478   7.613  11.338   5.207  0.0281  0.3980 -0.3201
  562MOL0     C77479   7.483  11.415   5.195  0.5523 -0.3526 -0.7572
  562MOL0     C77480   7.489  11.539   5.110  0.2425  0.4736  1.1001
  562MOL0     C77481   7.369  11.639   5.131  0.8245  0.9643 -0.5943
  562MOL0     C77482   7.398  11.781   5.139 -1.2065 -0.3203  0.1430
  562MOL0     C77483   7.432  11.895   5.138 -1.2984  0.2732  1.1096
  562MOL0     C77484   7.803  11.127   5.153 -0.3722  0.1709 -0.0900
  562MOL0     C77485   7.922  11.045   5.135  1.3380 -0.7519 -0.2869
  562MOL0     C77486   7.990  10.969   5.245  0.2855  0.1513 -0.3788
  562MOL0     H77487   8.068  10.600   4.768  2.0145 -1.7948  0.5417
  562MOL0     H77488   8.292  10.493   4.688  1.5562  1.2815 -1.7914
  562MOL0     H77489   8.610  10.705   4.746 -0.5530 -0.1616  0.0250
  562MOL0     H77490   8.640  10.743   4.575  0.6611 -0.4489 -1.2758
  562MOL0     H77491   8.712  10.490   4.720  0.7487 -0.6189 -0.2122
  562MOL0     H77492   8.696  10.496   4.547  1.1281  0.9472 -1.4392
  562MOL0     H77493   8.866  10.668   4.528 -3.9181 -0.9165 -1.4413
  562MOL0     H77494   8.872  10.682   4.705 -0.7814  1.4368 -2.2413
  562MOL0     H77495   8.957  10.452   4.710 -1.0229  1.8620  1.2469
  562MOL0     H77496   8.966  10.458   4.527  0.3746  2.0964 -0.6632
  562MOL0     H77497   9.183  10.496   4.665 -1.4348 -1.5974 -1.0672
  562MOL0     H77498   9.114  10.656   4.687  0.1407 -0.6352  1.7202
  562MOL0     H77499   9.168  10.538   4.416  0.7595 -1.8652  0.4735
  562MOL0     H77500   9.110  10.706   4.449 -0.8244 -0.7081  1.5859
  562MOL0     H77501   9.323  10.732   4.582  2.1491  2.6692 -1.4716
  562MOL0     H77502   9.332  10.718   4.405  1.9975 -3.6130 -2.2671
  562MOL0     H77503   9.386  10.476   4.587  4.5202  1.5922  1.3559
  562MOL0     H77504   9.415  10.492   4.414  1.0308 -0.4812  0.1248
  562MOL0     H77505   9.571  10.753   4.368 -0.2935 -1.3901 -0.8015
  562MOL0     H77506   9.930  10.835   4.528  1.0772 -0.8442 -1.2931
  562MOL0     H77507   9.810  10.925   4.446  2.0277  1.6478 -1.7904
  562MOL0     H77508   9.958  10.693   4.329  2.1481  0.7341  2.1480
  562MOL0     H77509   9.825  10.784   4.239 -0.4777 -0.9061  1.2580
  562MOL0     H77510   9.960  10.992   4.249  0.4332  1.2164  2.4867
  562MOL0     H77511  10.076  10.915   4.356  1.6427 -0.5308 -0.7789
  562MOL0     H77512  10.008  10.829   4.076  2.2184 -4.6352 -1.6358
  562MOL0     H77513  10.149  10.919   4.111  0.1723 -1.1660 -1.6423
  562MOL0     H77514  10.019  10.540   4.024 -0.3171  2.0400  0.0609
  562MOL0     H77515   9.976  10.394   3.865  1.5026  2.6077  1.6728
  562MOL0     H77516  10.120  10.321   3.788 -0.0223 -0.6685  0.4132
  562MOL0     H77517  10.024  10.454   3.703 -0.9489  1.8185  0.1656
  562MOL0     H77518  10.609  10.416   3.580 -1.6637 -1.1886 -0.1125
  562MOL0     H77519  10.686  10.331   3.352 -1.5705 -0.1636  3.7358
  562MOL0     H77520  10.585  10.483   2.898  1.1103  0.1949  0.0896
  562MOL0     H77521  10.452  10.515   2.998  0.0645 -1.1835 -1.3289
  562MOL0     H77522  10.549  10.726   2.913  0.5890 -1.9406 -2.4441
  562MOL0     H77523  10.608  10.729   3.075 -0.6952  1.4629 -0.4245
  562MOL0     H77524  10.785  10.607   2.846  3.3701 -3.3985  2.1165
  562MOL0     H77525  10.821  10.637   3.019  1.5242  1.3207 -0.6642
  562MOL0     H77526  10.805  10.885   2.972  2.4389  1.4180 -0.9104
  562MOL0     H77527  10.817  10.841   2.800  1.7124  1.2951 -0.2804
  562MOL0     H77528  11.012  10.810   3.020  0.0372  2.0898  0.0517
  562MOL0     H77529  11.030  10.699   2.880  2.0453  1.6836 -0.6390
  562MOL0     H77530  11.027  11.011   2.863  0.1647 -0.0420  0.6835
  562MOL0     H77531  11.029  10.901   2.729 -2.6302 -0.8795  0.8213
  562MOL0     H77532  11.233  10.785   2.795  1.0279  1.9846 -3.7390
  562MOL0     H77533  11.238  10.886   2.949 -3.2618 -1.3882  1.9532
  562MOL0     H77534  11.244  11.089   2.784  0.8384  0.8240  1.1637
  562MOL0     H77535  11.270  10.961   2.657  0.7547 -1.1707  0.2067
  562MOL0     H77536  10.407  10.606   3.174 -3.2445 -0.7765  1.1156
  562MOL0     H77537  10.337  10.677   3.380 -0.9244  0.9645 -0.9344
  562MOL0     H77538  10.421  10.718   3.826 -0.6240  0.4008 -0.2664
  562MOL0     H77539  10.343  10.802   4.046 -1.1815  0.7528  0.5642
  562MOL0     H77540   8.460  10.871   4.656  1.8686 -1.6648 -0.3171
  562MOL0     H77541   8.257  10.983   4.753 -2.7301  0.1388  1.5026
  562MOL0     H77542   7.869  11.046   4.793 -2.2545  0.8710 -0.9086
  562MOL0     H77543   7.681  11.193   4.852 -2.7437  1.9218  3.0839
  562MOL0     H77544   7.598  11.259   5.282  1.6475  0.1266 -0.2584
  562MOL0     H77545   7.694  11.397   5.249  0.4288 -1.9771  2.5770
  562MOL0     H77546   7.466  11.464   5.291 -2.6688 -0.3606 -1.2353
  562MOL0     H77547   7.402  11.348   5.166 -2.6386  1.7619  2.4542
  562MOL0     H77548   7.581  11.593   5.133  1.0362 -0.4170  0.1262
  562MOL0     H77549   7.497  11.500   5.008  3.7052  0.4196  1.2571
  562MOL0     H77550   7.314  11.602   5.219  0.6975  0.8906 -0.7053
  562MOL0     H77551   7.305  11.612   5.047 -0.7769 -1.4372  1.2628
  562MOL0     H77552   7.483  11.989   5.137 -0.6015 -0.0995  0.7288
  562MOL0     H77553   7.778  11.138   5.258  2.1337 -1.5813  0.7952
  562MOL0     H77554   7.989  10.863   5.220  2.0552 -0.5467  2.1341
  562MOL0     H77555   8.093  11.007   5.249  0.4965 -0.2523 -1.6815
  562MOL0     H77556   7.946  10.976   5.345  1.0449  2.9260 -0.1461
  563MOL0     O77557   8.837   0.548   5.402 -0.0821 -0.6993 -0.1816
  563MOL0     C77558   8.761   0.461   5.375 -0.0223 -0.1989  0.7631
  563MOL0     O77559   8.797   0.338   5.331  0.3894 -0.1069 -0.7219
  563MOL0     C77560   8.924   0.294   5.309  0.3641 -0.0379  1.1767
  563MOL0     C77561   8.936   0.191   5.216 -0.1068 -0.3851  0.4175
  563MOL0     C77562   9.058   0.128   5.185  0.0251  0.2339 -0.7093
  563MOL0     C77563   9.171   0.165   5.259 -0.8717  0.4504 -0.3105
  563MOL0     O77564   9.291   0.092   5.240 -0.0306  0.0048  0.3340
  563MOL0     C77565   9.416   0.169   5.233 -0.1342  0.8626 -0.0670
  563MOL0     C77566   9.482   0.145   5.096  0.0918  0.5997  0.5152
  563MOL0     C77567   9.534  -0.000   5.074  0.2281 -0.0153  0.8507
  563MOL0     C77568   9.609  -0.019   4.939  0.7215 -0.4071 -0.1767
  563MOL0     C77569   9.642  -0.165   4.901  0.4078  0.4957 -0.2562
  563MOL0     C77570   9.733  -0.170   4.775  0.6671  0.4192 -0.6385
  563MOL0     C77571   9.869  -0.111   4.802 -0.3117 -0.2998 -0.1505
  563MOL0     C77572   9.974  -0.153   4.703 -0.1689 -0.4745 -0.3615
  563MOL0     N77573   9.950  -0.136   4.557 -0.6326  0.0303 -0.2362
  563MOL0     C77574   9.897  -0.027   4.501 -0.5818  0.7797 -0.3662
  563MOL0     C77575   9.865  -0.057   4.377 -0.0313 -0.5815 -0.4353
  563MOL0     C77576   9.801   0.037   4.284 -0.5093  0.4811 -0.3898
  563MOL0     C77577   9.664   0.068   4.327 -0.9391 -0.8258 -0.9084
  563MOL0     C77578   9.603   0.187   4.242  0.1822 -1.1966 -0.4310
  563MOL0     C77579   9.584   0.156   4.091  0.4174  0.1830  0.5076
  563MOL0     O77580   9.481   0.055   4.081  1.0290 -0.5590 -0.4487
  563MOL0     C77581   9.466   0.002   3.953  0.3197  0.1303  0.0883
  563MOL0     C77582   9.420  -0.127   3.947  0.1282  0.5303  0.1739
  563MOL0     C77583   9.417  -0.202   3.830  0.2998  0.3908 -0.2857
  563MOL0     C77584   9.350  -0.334   3.840 -0.2845 -0.3468  0.4211
  563MOL0     C77585   9.484  -0.154   3.719 -0.0546 -0.8216  0.7314
  563MOL0     C77586   9.527  -0.226   3.604  0.1464 -0.4743  1.1441
  563MOL0     O77587   9.562  -0.148   3.486 -0.6577  0.3204  0.5917
  563MOL0     C77588   9.606  -0.216   3.369  0.3745 -0.4842 -0.4029
  563MOL0     C77589   9.742  -0.222   3.357  0.2315  0.1824  0.0509
  563MOL0     C77590   9.803  -0.290   3.250 -0.5029  0.2312  0.3263
  563MOL0     C77591   9.714  -0.354   3.148 -0.4296  0.5258  0.3297
  563MOL0     O77592   9.777  -0.413   3.040 -0.1403 -0.3305 -0.6186
  563MOL0     C77593   9.718  -0.441   2.918  0.6906  0.4071 -0.3874
  563MOL0     C77594   9.790  -0.552   2.847 -0.9802  0.6238  1.2466
  563MOL0     C77595   9.921  -0.511   2.780 -0.3694  0.5695  0.1276
  563MOL0     C77596   9.954  -0.613   2.680  1.0059 -0.0472  0.3557
  563MOL0     C77597  10.087  -0.564   2.628 -0.6908  0.1687  0.0179
  563MOL0     C77598  10.175  -0.663   2.545  0.6093  0.1609 -0.4712
  563MOL0     C77599  10.317  -0.614   2.544 -0.7909  0.5262  0.3533
  563MOL0     C77600  10.418  -0.699   2.631  0.7175 -1.3345 -0.6821
  563MOL0    Cl77601  10.451  -0.861   2.573  0.2648  0.1826 -0.0990
  563MOL0     C77602   9.577  -0.343   3.167  0.3728  0.3508 -0.2375
  563MOL0     C77603   9.524  -0.275   3.279  0.0351  0.1225  0.1147
  563MOL0     O77604   9.508  -0.346   3.598  0.5747 -0.1800  0.1058
  563MOL0     C77605   9.530  -0.017   3.717  0.0608  0.2405 -1.0911
  563MOL0     C77606   9.510   0.065   3.831  0.5157  0.1128 -0.3118
  563MOL0     N77607   9.913  -0.186   4.354  0.0121  0.0859 -0.8624
  563MOL0     N77608   9.951  -0.236   4.467 -0.1914 -0.3080 -1.3188
  563MOL0     C77609   9.159   0.271   5.353  0.6941 -0.0451  0.1625
  563MOL0     C77610   9.035   0.337   5.375  0.0751  0.3205  0.3521
  563MOL0     C77611   8.616   0.495   5.394  0.2807 -0.0078  0.0356
  563MOL0     C77612   8.530   0.396   5.437 -0.1562  0.1792  0.1580
  563MOL0     C77613   8.396   0.420   5.445  1.5815  0.0516 -0.1291
  563MOL0     C77614   8.337   0.541   5.419  0.1056  0.0920 -0.4350
  563MOL0     O77615   8.201   0.548   5.448  0.4234  0.1544  0.0126
  563MOL0     C77616   8.127   0.667   5.421 -0.2231 -0.1707  0.5234
  563MOL0     C77617   7.978   0.650   5.445  0.2535 -0.1326  0.7681
  563MOL0     C77618   7.945   0.593   5.580  0.3714 -0.0032  0.2355
  563MOL0     C77619   7.795   0.572   5.591  0.1627  0.1426  0.3875
  563MOL0     C77620   7.721   0.703   5.581  0.8358  0.5823  0.7081
  563MOL0     C77621   7.670   0.813   5.567 -0.3780  0.2943 -0.0967
  563MOL0     C77622   8.420   0.639   5.364  0.1196 -0.6233  0.6685
  563MOL0     C77623   8.561   0.618   5.354  0.2958 -0.3757  0.6374
  563MOL0     C77624   8.641   0.740   5.293  0.0378  0.0397  0.1735
  563MOL0     H77625   8.839   0.167   5.173 -0.6238  0.5395  1.0600
  563MOL0     H77626   9.061   0.062   5.099 -1.2733 -2.3604  1.1045
  563MOL0     H77627   9.487   0.132   5.308 -0.6892 -1.5974 -0.6457
  563MOL0     H77628   9.401   0.275   5.254 -0.6665  0.3839  2.2198
  563MOL0     H77629   9.407   0.179   5.024  0.8185  0.5585 -0.2798
  563MOL0     H77630   9.568   0.213   5.086  1.9403 -1.5475  0.9603
  563MOL0     H77631   9.593  -0.038   5.157 -0.8999 -0.7523  1.3386
  563MOL0     H77632   9.446  -0.065   5.069 -0.7556  1.3608 -1.5930
  563MOL0     H77633   9.559   0.016   4.848 -0.0593  3.8361  1.6324
  563MOL0     H77634   9.706   0.032   4.947 -0.1561  1.2388  0.5038
  563MOL0     H77635   9.549  -0.211   4.865  0.1846  0.3281  0.5186
  563MOL0     H77636   9.674  -0.222   4.988  0.2275 -0.1513 -0.6088
  563MOL0     H77637   9.740  -0.275   4.743 -1.2040 -0.3059  1.0886
  563MOL0     H77638   9.677  -0.112   4.701  1.1008  3.5591  1.3219
  563MOL0     H77639   9.908  -0.135   4.901  0.7807 -2.7420 -1.0862
  563MOL0     H77640   9.859  -0.002   4.810 -1.2935 -0.4356  0.6055
  563MOL0     H77641  10.067  -0.098   4.718  0.6657 -1.9910  0.2788
  563MOL0     H77642  10.002  -0.258   4.719 -0.2627 -0.2151  1.7783
  563MOL0     H77643   9.871   0.064   4.554 -0.7326  1.2611 -1.2380
  563MOL0     H77644   9.813  -0.002   4.183 -0.4861  0.6566 -0.4532
  563MOL0     H77645   9.868   0.123   4.283 -0.4942  0.5196  1.0097
  563MOL0     H77646   9.610  -0.024   4.303  1.6978 -3.0996  1.1642
  563MOL0     H77647   9.651   0.094   4.432  0.8603  1.8926 -1.2318
  563MOL0     H77648   9.506   0.213   4.284  1.5412  1.2556  1.5337
  563MOL0     H77649   9.667   0.276   4.246 -0.5577 -0.5089 -2.5335
  563MOL0     H77650   9.549   0.244   4.036  0.6933  1.8327  2.8299
  563MOL0     H77651   9.668   0.103   4.046 -0.1354 -0.2506 -0.0255
  563MOL0     H77652   9.383  -0.161   4.043  2.8764 -0.1215  1.0874
  563MOL0     H77653   9.270  -0.346   3.767 -2.0306  2.2992  1.7601
  563MOL0     H77654   9.292  -0.358   3.929 -0.7149 -0.9990 -0.0238
  563MOL0     H77655   9.422  -0.415   3.824 -0.9898 -0.9081  0.0750
  563MOL0     H77656   9.806  -0.188   3.439  2.1922 -2.0373 -0.4424
  563MOL0     H77657   9.910  -0.287   3.233 -0.0230 -1.1871  2.7233
  563MOL0     H77658   9.614  -0.473   2.928  1.6922 -2.4178  3.4128
  563MOL0     H77659   9.712  -0.352   2.856 -2.6880 -0.8818 -2.1286
  563MOL0     H77660   9.800  -0.637   2.915 -1.0010 -0.2277  0.1943
  563MOL0     H77661   9.715  -0.579   2.772  1.9173 -3.5187 -0.5074
  563MOL0     H77662   9.998  -0.512   2.857 -0.1980 -0.6732 -0.0384
  563MOL0     H77663   9.910  -0.413   2.731 -0.2556  0.5813  0.1270
  563MOL0     H77664   9.882  -0.605   2.599 -0.0146  1.7523  1.3644
  563MOL0     H77665   9.964  -0.714   2.720  0.7584  0.5121  1.9473
  563MOL0     H77666  10.064  -0.474   2.569 -1.2589 -1.1455 -1.8720
  563MOL0     H77667  10.147  -0.536   2.715  0.1118  2.9035 -1.2952
  563MOL0     H77668  10.136  -0.685   2.445  0.8951 -3.7053  0.1146
  563MOL0     H77669  10.163  -0.759   2.596  0.0028  0.2999 -0.3472
  563MOL0     H77670  10.315  -0.509   2.575 -0.4092  1.1557 -1.5822
  563MOL0     H77671  10.353  -0.617   2.440 -1.3136 -2.9016  0.1707
  563MOL0     H77672  10.377  -0.706   2.732 -0.2623  2.7350 -0.6663
  563MOL0     H77673  10.510  -0.640   2.634 -1.2937  1.9874  0.0493
  563MOL0     H77674   9.506  -0.391   3.100  0.0323 -1.9783  1.7060
  563MOL0     H77675   9.416  -0.282   3.285 -0.1558 -0.5524 -2.7693
  563MOL0     H77676   9.576   0.031   3.631  1.4174 -0.0779 -0.5733
  563MOL0     H77677   9.565   0.159   3.832 -0.6404  0.8813 -2.3798
  563MOL0     H77678   9.248   0.291   5.411 -0.5998  1.4968  1.7622
  563MOL0     H77679   9.020   0.423   5.440 -3.3280 -0.3293  0.6093
  563MOL0     H77680   8.578   0.301   5.459  0.3658  0.0715 -1.2889
  563MOL0     H77681   8.339   0.337   5.485  0.6075  1.2576  1.0688
  563MOL0     H77682   8.171   0.746   5.483 -3.8505  2.9467 -0.4484
  563MOL0     H77683   8.136   0.703   5.318 -1.8149  1.6992  0.9722
  563MOL0     H77684   7.938   0.575   5.377 -0.7640  1.2056 -0.1517
  563MOL0     H77685   7.928   0.746   5.428 -0.1069 -0.4887 -0.2195
  563MOL0     H77686   7.988   0.496   5.604 -1.9261 -1.1596 -0.0582
  563MOL0     H77687   7.976   0.656   5.664  0.1190 -0.4113  0.6362
  563MOL0     H77688   7.767   0.523   5.684 -0.5072  0.4156  0.3365
  563MOL0     H77689   7.768   0.503   5.511 -2.0923  0.2428  1.0083
  563MOL0     H77690   7.617   0.906   5.558 -0.4287  0.3153  0.3831
  563MOL0     H77691   8.385   0.733   5.322  1.8565  0.2385  1.0763
  563MOL0     H77692   8.726   0.772   5.354  2.6302 -1.9072 -2.1476
  563MOL0     H77693   8.686   0.698   5.203  0.2305 -0.4998  0.5153
  563MOL0     H77694   8.580   0.829   5.276  3.5154  2.3932 -1.1150
  564MOL0     O77695   1.714   0.861   4.049 -0.5194  0.4012  0.2360
  564MOL0     C77696   1.659   0.803   3.961  0.7405 -0.8538 -0.0671
  564MOL0     O77697   1.721   0.761   3.856  0.2206  0.0614  0.2756
  564MOL0     C77698   1.840   0.813   3.822  0.0232  0.0732  0.2335
  564MOL0     C77699   1.835   0.837   3.681  0.3040 -0.0596  0.1846
  564MOL0     C77700   1.963   0.864   3.621  0.1514  0.7004  0.4391
  564MOL0     C77701   2.082   0.867   3.697 -0.3773  1.0649  0.8199
  564MOL0     O77702   2.207   0.887   3.630 -0.4999 -0.4735  0.2162
  564MOL0     C77703   2.320   0.927   3.709 -0.8934  1.1411 -0.8862
  564MOL0     C77704   2.437   0.983   3.629  0.3650 -0.6313  0.0388
  564MOL0     C77705   2.394   1.126   3.575  0.0345 -0.1187  0.5185
  564MOL0     C77706   2.520   1.183   3.517  0.2980 -1.0731  0.9178
  564MOL0     C77707   2.501   1.334   3.457  0.0984 -0.4987 -0.1242
  564MOL0     C77708   2.612   1.386   3.376 -1.3087 -0.0764  0.6298
  564MOL0     C77709   2.625   1.345   3.231  0.6024  0.3213  0.1204
  564MOL0     C77710   2.758   1.295   3.193  0.5134  0.5347 -0.1910
  564MOL0     N77711   2.853   1.409   3.190 -0.3380 -0.9056 -0.3755
  564MOL0     C77712   2.828   1.524   3.125 -0.5376  0.3700  0.6989
  564MOL0     C77713   2.940   1.599   3.144 -0.1479 -0.5256 -0.4010
  564MOL0     C77714   2.971   1.745   3.116 -0.1425  0.5269  0.2447
  564MOL0     C77715   3.110   1.763   3.057 -0.1306  0.8666  0.3551
  564MOL0     C77716   3.133   1.911   3.021  0.0747 -0.1083 -0.4295
  564MOL0     C77717   3.283   1.923   2.982  0.6263 -0.4611 -0.2458
  564MOL0     O77718   3.353   1.884   3.102  0.2722  0.1911  0.4978
  564MOL0     C77719   3.490   1.863   3.099  0.5110  0.2795  0.7631
  564MOL0     C77720   3.575   1.853   2.984  0.8756  1.4006  0.7421
  564MOL0     C77721   3.709   1.807   2.992  0.3052 -0.0022  0.6580
  564MOL0     C77722   3.773   1.786   2.859  0.5659  0.8641 -0.4251
  564MOL0     C77723   3.771   1.777   3.122  0.5554 -1.0430 -0.2718
  564MOL0     C77724   3.909   1.734   3.147  0.0580  0.8306 -0.3904
  564MOL0     O77725   3.957   1.738   3.274 -0.3096  0.6592  0.1275
  564MOL0     C77726   4.094   1.747   3.281 -0.5083 -0.4184  0.1776
  564MOL0     C77727   4.161   1.851   3.213 -0.1524 -0.3087 -0.2277
  564MOL0     C77728   4.301   1.856   3.217  1.0506  0.1657  0.8856
  564MOL0     C77729   4.378   1.776   3.301  0.5334 -0.4988  0.2506
  564MOL0     O77730   4.515   1.794   3.298  0.0311 -0.2498  0.6326
  564MOL0     C77731   4.600   1.724   3.387  0.3404  0.1347  0.3374
  564MOL0     C77732   4.749   1.768   3.359  0.1106 -0.3768 -0.4016
  564MOL0     C77733   4.835   1.665   3.436 -0.3584  0.0545 -0.3781
  564MOL0     C77734   4.982   1.693   3.404  1.3241  1.1573 -0.0274
  564MOL0     C77735   5.081   1.635   3.505 -0.1610  0.4709  0.1113
  564MOL0     C77736   5.218   1.693   3.480  0.3537  0.2531 -0.0305
  564MOL0     C77737   5.314   1.623   3.580  0.3777 -0.1295 -0.2849
  564MOL0     C77738   5.454   1.660   3.540  0.0965 -0.5861  0.1498
  564MOL0    Cl77739   5.583   1.608   3.652  0.0347 -0.2184  0.3943
  564MOL0     C77740   4.307   1.684   3.376  0.3633  0.0461  0.4395
  564MOL0     C77741   4.169   1.659   3.361  0.2977 -0.8024  0.0189
  564MOL0     O77742   3.970   1.686   3.054 -0.9840  0.8529  0.6949
  564MOL0     C77743   3.684   1.791   3.238  1.4065 -0.0444  0.1016
  564MOL0     C77744   3.548   1.830   3.221  0.4071 -0.5184 -0.0789
  564MOL0     N77745   3.028   1.532   3.228  1.5238  0.4581  0.6356
  564MOL0     N77746   2.973   1.417   3.253 -0.3119  0.2056  0.1145
  564MOL0     C77747   2.074   0.851   3.834  0.0223 -0.0737  0.1357
  564MOL0     C77748   1.957   0.816   3.898 -0.0103 -0.5080 -0.0595
  564MOL0     C77749   1.517   0.752   3.973  0.0529  0.1081  0.7801
  564MOL0     C77750   1.487   0.624   3.919 -0.5231 -0.0231  0.3729
  564MOL0     C77751   1.364   0.565   3.934  0.1711  0.5662  0.4800
  564MOL0     C77752   1.267   0.626   4.009  0.4319 -0.7555  0.1932
  564MOL0     O77753   1.152   0.557   4.051 -0.1020 -0.1105  0.6468
  564MOL0     C77754   1.113   0.435   3.986 -0.7386  0.0417  0.5457
  564MOL0     C77755   0.990   0.382   4.048  0.1949  0.9417 -0.0071
  564MOL0     C77756   0.865   0.441   3.992  0.4529 -0.4571 -0.0746
  564MOL0     C77757   0.726   0.384   4.035 -0.5781 -0.1382 -0.1099
  564MOL0     C77758   0.619   0.466   3.987  1.2768  0.4037  0.9235
  564MOL0     C77759   0.544   0.534   3.923  0.7360  0.1446  0.6852
  564MOL0     C77760   1.287   0.753   4.054 -0.0493  0.3712  0.6437
  564MOL0     C77761   1.412   0.816   4.037 -0.2638 -0.3041  0.3029
  564MOL0     C77762   1.433   0.952   4.105  0.3570  0.4909 -0.3325
  564MOL0     H77763   1.745   0.826   3.622  0.0143  0.4964  0.5117
  564MOL0     H77764   1.979   0.890   3.517  3.3418 -1.1551  0.3286
  564MOL0     H77765   2.360   0.849   3.774  0.2240  1.5216 -1.0914
  564MOL0     H77766   2.288   1.007   3.777 -1.5304 -1.0123  1.4930
  564MOL0     H77767   2.522   0.998   3.695  1.1403 -0.0038 -1.0763
  564MOL0     H77768   2.467   0.912   3.551 -0.2990 -0.2624 -0.5685
  564MOL0     H77769   2.314   1.125   3.501  0.6564  0.4148 -0.1777
  564MOL0     H77770   2.359   1.194   3.654  1.9976  2.4279 -0.6424
  564MOL0     H77771   2.609   1.175   3.580  0.9109  0.0195  0.2338
  564MOL0     H77772   2.538   1.127   3.424  0.4725  0.2396  0.1400
  564MOL0     H77773   2.484   1.405   3.538 -0.0325  0.2309 -0.7770
  564MOL0     H77774   2.405   1.332   3.404 -0.9964 -0.6114  1.7837
  564MOL0     H77775   2.603   1.495   3.377  0.1454  0.2474 -3.5902
  564MOL0     H77776   2.709   1.366   3.423 -0.5224 -3.0033 -1.9119
  564MOL0     H77777   2.587   1.429   3.173  0.7228  0.8484  0.7954
  564MOL0     H77778   2.553   1.266   3.209 -0.0175  1.4983 -2.3731
  564MOL0     H77779   2.802   1.226   3.266  1.7838  0.7115 -0.7581
  564MOL0     H77780   2.761   1.251   3.093 -0.5455  0.3649 -0.1563
  564MOL0     H77781   2.738   1.563   3.077  0.3969  2.8797  0.8369
  564MOL0     H77782   2.979   1.802   3.209  1.3382 -0.8456  1.0051
  564MOL0     H77783   2.888   1.788   3.060  0.7872  1.2829 -0.5772
  564MOL0     H77784   3.187   1.729   3.127  2.0166  0.3612 -2.1114
  564MOL0     H77785   3.120   1.700   2.969  1.0491  0.9518  0.4148
  564MOL0     H77786   3.064   1.924   2.937 -0.2283 -0.8998 -0.3086
  564MOL0     H77787   3.102   1.970   3.108 -2.3081 -1.6767 -0.1350
  564MOL0     H77788   3.301   1.864   2.891 -0.7004  2.3330 -2.4907
  564MOL0     H77789   3.309   2.021   2.942  1.0413  0.1643  1.4726
  564MOL0     H77790   3.535   1.890   2.890  0.1003 -0.0543  0.4572
  564MOL0     H77791   3.700   1.797   2.778  0.2478  1.1047 -0.1129
  564MOL0     H77792   3.836   1.696   2.861 -1.5223 -0.6782  1.0007
  564MOL0     H77793   3.849   1.863   2.846 -1.7299  3.3296 -0.0486
  564MOL0     H77794   4.104   1.928   3.162  1.1587  0.9697  0.1584
  564MOL0     H77795   4.339   1.939   3.158 -1.3562  0.8287  0.1353
  564MOL0     H77796   4.572   1.741   3.492 -1.5382  0.9412 -0.2497
  564MOL0     H77797   4.590   1.618   3.364 -1.8181  0.4740 -0.5186
  564MOL0     H77798   4.752   1.759   3.250 -1.5409 -0.2497 -0.4765
  564MOL0     H77799   4.751   1.874   3.386 -2.5807 -0.0325 -1.2794
  564MOL0     H77800   4.805   1.563   3.412 -3.9052  1.0434 -0.7399
  564MOL0     H77801   4.824   1.685   3.543  1.9217 -0.8873  0.0963
  564MOL0     H77802   4.995   1.797   3.374 -1.6883  0.8763 -2.9494
  564MOL0     H77803   4.998   1.637   3.311  0.8092  0.1899  0.4428
  564MOL0     H77804   5.052   1.672   3.604  0.8793  1.8677 -0.0716
  564MOL0     H77805   5.076   1.526   3.511  0.1239  0.4019 -0.7313
  564MOL0     H77806   5.216   1.800   3.497 -2.5096  0.0541  1.5529
  564MOL0     H77807   5.243   1.675   3.375  0.5395  1.6780 -0.2429
  564MOL0     H77808   5.306   1.517   3.606  1.4608  0.0027  0.6945
  564MOL0     H77809   5.305   1.678   3.674  1.1959  0.8951 -0.7808
  564MOL0     H77810   5.463   1.769   3.542  1.0167 -0.6544  0.3156
  564MOL0     H77811   5.477   1.630   3.438 -2.1764  0.8716 -0.8916
  564MOL0     H77812   4.365   1.644   3.459 -2.2756  1.1079  2.9492
  564MOL0     H77813   4.123   1.572   3.408 -1.5283 -0.0291 -0.2460
  564MOL0     H77814   3.721   1.751   3.332  0.6613 -0.7468  0.1151
  564MOL0     H77815   3.482   1.845   3.306 -2.5416 -1.2041 -2.0870
  564MOL0     H77816   2.161   0.845   3.899 -2.4301 -0.1543  3.6853
  564MOL0     H77817   1.964   0.778   3.999 -0.4998 -2.2257 -0.6205
  564MOL0     H77818   1.560   0.563   3.866 -1.2851  0.0299 -0.7835
  564MOL0     H77819   1.351   0.469   3.885  0.3361  1.8022 -2.1323
  564MOL0     H77820   1.103   0.453   3.878  0.0072  1.4552  0.6988
  564MOL0     H77821   1.194   0.361   3.993 -1.4760 -0.7457  0.9392
  564MOL0     H77822   0.991   0.396   4.156 -1.4424 -1.0479  0.3085
  564MOL0     H77823   0.975   0.275   4.032  1.1980  0.6586  0.8196
  564MOL0     H77824   0.869   0.549   4.012  1.5906 -0.5963  0.5272
  564MOL0     H77825   0.861   0.429   3.884 -1.5650  1.3548 -0.2841
  564MOL0     H77826   0.727   0.384   4.144  0.9297  3.5770  0.0338
  564MOL0     H77827   0.730   0.283   3.994 -1.5852 -0.8834  1.5450
  564MOL0     H77828   0.479   0.606   3.878 -2.7441 -3.9479 -1.5802
  564MOL0     H77829   1.197   0.799   4.094  0.9691  2.4963  0.6282
  564MOL0     H77830   1.503   1.014   4.048  0.5960 -1.1021 -1.8114
  564MOL0     H77831   1.344   1.016   4.110  0.7618  1.0919 -0.7055
  564MOL0     H77832   1.459   0.929   4.209 -1.0475  0.5948  0.0631
  565MOL0     O77833   3.511   6.527   6.451  0.3592  0.4753  0.1004
  565MOL0     C77834   3.423   6.446   6.404 -0.8023  0.8053 -0.4264
  565MOL0     O77835   3.442   6.362   6.297  0.0617 -0.6434  0.0030
  565MOL0     C77836   3.551   6.378   6.214  0.3005  0.7006  0.1483
  565MOL0     C77837   3.657   6.285   6.222 -0.5297 -0.2051  0.3799
  565MOL0     C77838   3.763   6.295   6.131  0.4384  0.0116 -0.5753
  565MOL0     C77839   3.777   6.401   6.047 -0.8265  0.5710 -0.0282
  565MOL0     O77840   3.883   6.430   5.966 -0.5497  0.0504 -0.7032
  565MOL0     C77841   4.008   6.361   5.976  0.0505  0.1086 -0.7634
  565MOL0     C77842   4.122   6.450   5.939 -0.1691 -0.6383  0.0930
  565MOL0     C77843   4.252   6.377   5.913 -0.2224  0.3711  1.4223
  565MOL0     C77844   4.239   6.302   5.779 -0.5900 -0.4896 -0.4327
  565MOL0     C77845   4.370   6.225   5.750 -0.7658 -0.9391 -0.4200
  565MOL0     C77846   4.365   6.117   5.645 -0.0827  0.9619  0.0839
  565MOL0     C77847   4.314   6.169   5.516  0.0463 -0.0313  0.0145
  565MOL0     C77848   4.167   6.183   5.499 -0.7459 -0.0064  0.5685
  565MOL0     N77849   4.110   6.063   5.433 -0.3319  0.6193 -0.7232
  565MOL0     C77850   4.062   5.945   5.487  0.2331  0.3005 -0.1292
  565MOL0     C77851   4.040   5.863   5.385 -0.3338 -0.5500 -0.3796
  565MOL0     C77852   3.971   5.732   5.373 -0.6562  0.0897 -0.0728
  565MOL0     C77853   3.816   5.744   5.360 -0.5606  0.6579 -0.4222
  565MOL0     C77854   3.756   5.682   5.483  0.1688 -1.0399 -0.3405
  565MOL0     C77855   3.608   5.662   5.459  0.3467  0.2154  0.2722
  565MOL0     O77856   3.539   5.789   5.480 -0.2387  0.0792  0.0348
  565MOL0     C77857   3.407   5.789   5.517  0.2515  0.4683 -0.6124
  565MOL0     C77858   3.353   5.907   5.583 -0.0845  0.0224 -0.3705
  565MOL0     C77859   3.220   5.918   5.620 -0.4721  0.1028 -0.4058
  565MOL0     C77860   3.166   6.043   5.674 -0.8002  0.1704 -1.0368
  565MOL0     C77861   3.132   5.805   5.594  0.1296 -0.6956  0.4407
  565MOL0     C77862   2.995   5.782   5.638 -0.1248  0.7799 -0.0980
  565MOL0     O77863   2.914   5.693   5.573 -0.1418  0.4623 -1.0191
  565MOL0     C77864   2.781   5.683   5.586 -0.5023 -0.5486 -0.4131
  565MOL0     C77865   2.722   5.560   5.562 -0.1500 -0.1985 -0.0987
  565MOL0     C77866   2.581   5.535   5.562 -0.6499  0.3192 -0.7672
  565MOL0     C77867   2.491   5.632   5.600  0.2124 -0.3557  0.3106
  565MOL0     O77868   2.354   5.615   5.622 -0.7569  0.0495  0.1477
  565MOL0     C77869   2.286   5.497   5.568  0.2430 -0.1109 -0.2505
  565MOL0     C77870   2.131   5.518   5.563  1.1558  0.3015  0.7113
  565MOL0     C77871   2.062   5.527   5.696  0.3688  0.8585  0.4340
  565MOL0     C77872   1.913   5.523   5.677 -0.6211  0.6264  0.8507
  565MOL0     C77873   1.835   5.515   5.812 -0.5544  0.2367 -0.8819
  565MOL0     C77874   1.686   5.537   5.797 -0.8771  0.0388 -0.0566
  565MOL0     C77875   1.631   5.582   5.937 -0.4039 -0.9558 -0.1219
  565MOL0     C77876   1.596   5.719   5.957  0.8119  0.7800 -0.0784
  565MOL0    Cl77877   1.710   5.840   5.889 -0.2481  0.3471  0.1851
  565MOL0     C77878   2.548   5.758   5.633  0.2644  0.4714  0.0033
  565MOL0     C77879   2.690   5.788   5.619  0.4828 -1.0956  0.3907
  565MOL0     O77880   2.968   5.834   5.745  0.1077  0.6121  0.1483
  565MOL0     C77881   3.188   5.690   5.534  0.2949 -0.1716  0.6618
  565MOL0     C77882   3.323   5.681   5.504 -0.1618 -0.5626  0.2092
  565MOL0     N77883   4.085   5.926   5.269  0.5551  0.5253  0.3671
  565MOL0     N77884   4.118   6.046   5.295  0.6299 -0.7973 -0.4013
  565MOL0     C77885   3.677   6.498   6.044  0.5955  0.9131 -0.6881
  565MOL0     C77886   3.556   6.483   6.120 -0.2569  0.7080  0.2583
  565MOL0     C77887   3.296   6.424   6.480  0.1678 -0.1007  0.3099
  565MOL0     C77888   3.249   6.541   6.545  0.0691  0.5191 -0.0936
  565MOL0     C77889   3.134   6.527   6.623 -0.7739 -0.2587 -0.5037
  565MOL0     C77890   3.058   6.412   6.641 -0.2824  0.0812  1.8486
  565MOL0     O77891   2.939   6.413   6.709  0.0514 -0.2231  0.2541
  565MOL0     C77892   2.925   6.486   6.824 -0.1317 -0.1184 -0.3533
  565MOL0     C77893   2.801   6.428   6.896  0.0581 -0.8516 -0.0556
  565MOL0     C77894   2.680   6.498   6.841 -0.0638 -0.0440  0.7180
  565MOL0     C77895   2.551   6.451   6.902  0.5396 -0.5700 -0.2625
  565MOL0     C77896   2.511   6.542   7.005 -0.2754  0.0015 -0.2798
  565MOL0     C77897   2.473   6.613   7.098 -0.5033 -0.3322  0.2187
  565MOL0     C77898   3.104   6.295   6.566  0.6493  0.5345  0.2859
  565MOL0     C77899   3.219   6.303   6.485 -0.4196  0.0189 -1.0227
  565MOL0     C77900   3.273   6.178   6.425 -0.6092 -0.1173  0.4106
  565MOL0     H77901   3.639   6.204   6.292 -0.5880 -1.8428 -1.4461
  565MOL0     H77902   3.848   6.228   6.141  2.2307  2.4603  2.3524
  565MOL0     H77903   4.000   6.275   5.908 -0.5350 -0.0742 -0.4698
  565MOL0     H77904   4.021   6.314   6.074 -0.5881  1.5164  0.0295
  565MOL0     H77905   4.083   6.506   5.854  1.4881  2.2961  1.1109
  565MOL0     H77906   4.147   6.520   6.019 -1.3796 -0.0535 -0.0334
  565MOL0     H77907   4.342   6.437   5.895 -0.0463 -0.4719 -0.7886
  565MOL0     H77908   4.273   6.317   6.002  1.7280  0.4268  1.0606
  565MOL0     H77909   4.151   6.237   5.787  1.0808 -2.8424 -0.0062
  565MOL0     H77910   4.230   6.379   5.703  1.2878  0.3283  0.1073
  565MOL0     H77911   4.396   6.181   5.847 -2.4568  0.1074  0.5559
  565MOL0     H77912   4.446   6.296   5.717 -1.7621 -0.6615 -2.2232
  565MOL0     H77913   4.462   6.071   5.627 -1.1183 -1.5786  0.5010
  565MOL0     H77914   4.304   6.035   5.685  0.0408 -0.4498 -2.4629
  565MOL0     H77915   4.356   6.111   5.433 -0.7505  1.2694 -1.3425
  565MOL0     H77916   4.350   6.271   5.504  2.1775 -0.6146  0.9631
  565MOL0     H77917   4.121   6.182   5.598  2.0161  1.2106  1.9832
  565MOL0     H77918   4.152   6.278   5.449  1.9134  0.1508 -0.0933
  565MOL0     H77919   4.015   5.923   5.583  0.3615 -2.8241 -0.6649
  565MOL0     H77920   4.002   5.685   5.467 -0.2808 -1.3456 -0.8756
  565MOL0     H77921   4.004   5.673   5.287  2.9382  2.6808 -0.6756
  565MOL0     H77922   3.781   5.847   5.356 -1.8995  0.2528  0.0367
  565MOL0     H77923   3.792   5.689   5.269 -4.5505 -2.3991  2.0939
  565MOL0     H77924   3.796   5.585   5.514  2.3096 -0.6356 -1.6281
  565MOL0     H77925   3.772   5.746   5.571 -1.5131  0.4030 -1.0173
  565MOL0     H77926   3.584   5.626   5.359  0.9607 -0.3722  0.3318
  565MOL0     H77927   3.588   5.593   5.541  2.4417  0.4971  1.0808
  565MOL0     H77928   3.407   5.999   5.598  0.7602 -0.7483  1.6624
  565MOL0     H77929   3.082   6.076   5.613 -1.7688 -0.1884  0.0799
  565MOL0     H77930   3.245   6.117   5.658 -0.9670  0.2989 -1.2708
  565MOL0     H77931   3.137   6.024   5.778 -2.1413  0.9494 -1.2477
  565MOL0     H77932   2.783   5.472   5.549  0.4678  0.0035  1.3282
  565MOL0     H77933   2.563   5.434   5.527  0.4082 -1.5541  3.4881
  565MOL0     H77934   2.308   5.486   5.461 -3.3052 -0.1734 -1.1036
  565MOL0     H77935   2.312   5.406   5.622 -2.5524 -1.8228 -1.5400
  565MOL0     H77936   2.100   5.608   5.509 -2.5550 -2.1469 -1.7133
  565MOL0     H77937   2.087   5.431   5.513  0.6022  1.5256 -1.0258
  565MOL0     H77938   2.094   5.618   5.748  2.0504  1.4703 -1.5465
  565MOL0     H77939   2.088   5.440   5.757 -0.5631 -0.2136 -0.6344
  565MOL0     H77940   1.881   5.441   5.611  0.9141  1.1127 -0.5428
  565MOL0     H77941   1.865   5.596   5.612 -3.2897 -3.2598 -2.0650
  565MOL0     H77942   1.851   5.419   5.861 -0.3472 -0.5884 -2.5046
  565MOL0     H77943   1.876   5.587   5.884  0.2937  1.0241 -2.0965
  565MOL0     H77944   1.636   5.446   5.762  1.1560 -0.6833 -1.2634
  565MOL0     H77945   1.672   5.615   5.722  0.2366 -0.4572 -0.8079
  565MOL0     H77946   1.696   5.544   6.017 -2.9282 -0.4083  2.3208
  565MOL0     H77947   1.537   5.530   5.958 -0.8242  0.5003  1.9436
  565MOL0     H77948   1.567   5.739   6.061  1.2748  3.2990 -0.3732
  565MOL0     H77949   1.498   5.734   5.910 -2.0736 -2.5892  4.0880
  565MOL0     H77950   2.470   5.829   5.660  0.8467  0.2638  2.4483
  565MOL0     H77951   2.733   5.887   5.621 -0.0602 -0.5350 -4.1191
  565MOL0     H77952   3.137   5.595   5.526  0.4731 -0.1620 -1.0652
  565MOL0     H77953   3.351   5.584   5.463  0.5298  0.2522 -1.3071
  565MOL0     H77954   3.691   6.580   5.974  0.2885 -1.4648 -3.7316
  565MOL0     H77955   3.465   6.540   6.104 -1.4933 -1.7888 -2.5934
  565MOL0     H77956   3.311   6.630   6.553 -0.3721  0.8388 -0.1731
  565MOL0     H77957   3.109   6.621   6.671 -0.5188 -0.8596  0.8516
  565MOL0     H77958   3.012   6.458   6.884 -0.9213  0.0086  0.8898
  565MOL0     H77959   2.916   6.593   6.806  1.5303 -0.1987 -1.8655
  565MOL0     H77960   2.827   6.435   7.002  1.0520  0.1020 -0.3369
  565MOL0     H77961   2.788   6.322   6.872  0.2456  0.1547 -6.1501
  565MOL0     H77962   2.696   6.604   6.862  0.6952 -0.5033  2.7405
  565MOL0     H77963   2.680   6.487   6.732  1.3850  2.2607  0.4225
  565MOL0     H77964   2.561   6.350   6.944 -1.7421 -1.6159 -1.9932
  565MOL0     H77965   2.473   6.445   6.825  1.4779 -0.1195 -1.2875
  565MOL0     H77966   2.442   6.678   7.177 -0.1658  2.1989 -1.5862
  565MOL0     H77967   3.049   6.201   6.567  0.0039  0.8611 -1.2487
  565MOL0     H77968   3.376   6.168   6.461 -0.5443  0.2671  0.3362
  565MOL0     H77969   3.213   6.092   6.456  0.5925 -2.4661 -3.1620
  565MOL0     H77970   3.277   6.202   6.319  0.2503 -1.2741  0.1493
  566MOL0     O77971   5.082   9.775   8.411  0.2018 -0.2886 -0.0144
  566MOL0     C77972   5.144   9.839   8.327 -0.4820  0.3315 -0.7979
  566MOL0     O77973   5.171   9.972   8.327 -0.0601  0.1665 -0.2736
  566MOL0     C77974   5.148  10.039   8.442 -0.1763  0.3055  0.0613
  566MOL0     C77975   5.248  10.053   8.535  0.1486  0.5301  0.8864
  566MOL0     C77976   5.241  10.137   8.640  0.4321 -0.0674 -0.6699
  566MOL0     C77977   5.119  10.200   8.660  0.8588 -0.3430 -0.6093
  566MOL0     O77978   5.105  10.277   8.771 -0.7001 -0.5542  0.0496
  566MOL0     C77979   5.174  10.402   8.752  1.5503 -0.3362 -0.3164
  566MOL0     C77980   5.173  10.469   8.884 -0.1453  0.2931 -0.1368
  566MOL0     C77981   5.271  10.400   8.974 -0.7257  0.2437 -0.5633
  566MOL0     C77982   5.250  10.447   9.115 -0.3202 -0.4078 -0.0808
  566MOL0     C77983   5.339  10.384   9.224  0.1853  0.9043 -0.1322
  566MOL0     C77984   5.304  10.235   9.262 -0.2738  0.6393  0.3876
  566MOL0     C77985   5.369  10.196   9.388  0.1757 -0.4723  0.7600
  566MOL0     C77986   5.525  10.184   9.371  0.2491  0.4105  1.2716
  566MOL0     N77987   5.583  10.100   9.473  0.7925  0.3695  0.2613
  566MOL0     C77988   5.604   9.961   9.484 -0.1598  0.4692  1.4516
  566MOL0     C77989   5.658   9.942   9.601 -0.0250 -0.0226 -0.4109
  566MOL0     C77990   5.708   9.824   9.666  0.2790  0.8195  0.1319
  566MOL0     C77991   5.858   9.835   9.698  0.2315  0.1569 -0.2935
  566MOL0     C77992   5.909   9.691   9.744  0.0739  0.5789  0.3333
  566MOL0     C77993   6.055   9.691   9.799 -0.2052  0.1649 -0.1102
  566MOL0     O77994   6.077   9.803   9.886  0.3502  0.0897 -0.1341
  566MOL0     C77995   6.191   9.807   9.972 -0.5081  0.9834 -0.0405
  566MOL0     C77996   6.316   9.751   9.928  0.4999 -0.0430  0.4394
  566MOL0     C77997   6.426   9.745  10.016 -0.0248 -0.8473 -0.2110
  566MOL0     C77998   6.559   9.682   9.964 -0.0603  0.6203  0.2761
  566MOL0     C77999   6.415   9.798  10.149  1.0066 -0.4812  0.2048
  566MOL0     C78000   6.527   9.793  10.257  0.2080  0.6285 -0.4219
  566MOL0     O78001   6.495   9.855  10.379  0.0129 -0.0273 -0.5268
  566MOL0     C78002   6.587   9.862  10.488 -1.0711  0.8756  0.3511
  566MOL0     C78003   6.728   9.863  10.478 -0.2135 -0.0365  0.3044
  566MOL0     C78004   6.803   9.871  10.593  0.1412 -0.5466 -0.1664
  566MOL0     C78005   6.746   9.878  10.720  0.0315  0.5751 -0.0022
  566MOL0     O78006   6.824   9.883  10.834 -1.0757 -0.2039 -0.4093
  566MOL0     C78007   6.772   9.840  10.960  0.8202  0.2025  0.2778
  566MOL0     C78008   6.867   9.824  11.069  0.9079 -0.3295 -0.1470
  566MOL0     C78009   6.903   9.969  11.118  0.9948  0.5152 -0.9102
  566MOL0     C78010   7.025   9.964  11.211  0.3219  0.1289 -0.4702
  566MOL0     C78011   7.159   9.963  11.138  0.4095 -0.4503  0.4944
  566MOL0     C78012   7.197  10.097  11.069 -0.2962 -0.7076 -0.8233
  566MOL0     C78013   7.338  10.091  11.036  0.1847 -0.0757  0.0823
  566MOL0     C78014   7.392  10.230  11.016  0.5764  0.0245  0.1088
  566MOL0    Cl78015   7.388  10.331  11.168 -0.2580  0.1295 -0.3882
  566MOL0     C78016   6.606   9.861  10.726 -0.1440  1.1002 -0.3234
  566MOL0     C78017   6.527   9.856  10.615  0.2190 -0.7192 -0.5407
  566MOL0     O78018   6.631   9.737  10.234 -0.3478  0.7419  0.5090
  566MOL0     C78019   6.293   9.854  10.186  0.5392 -0.1898  0.1203
  566MOL0     C78020   6.184   9.866  10.099 -0.2951  0.1385  0.6747
  566MOL0     N78021   5.677  10.073   9.653  0.8866  0.4843  0.5223
  566MOL0     N78022   5.641  10.167   9.571  0.0523  0.5084 -0.0179
  566MOL0     C78023   5.014  10.190   8.572  0.5080 -0.4954  0.5023
  566MOL0     C78024   5.030  10.107   8.459 -0.1560 -1.2468  0.1933
  566MOL0     C78025   5.198   9.771   8.204 -0.4004 -0.0176 -1.4439
  566MOL0     C78026   5.124   9.662   8.167  0.4020  0.1247 -0.2730
  566MOL0     C78027   5.159   9.599   8.049 -0.0902 -0.8526  0.0846
  566MOL0     C78028   5.263   9.644   7.967 -0.3187  1.0282  0.3105
  566MOL0     O78029   5.272   9.582   7.845  1.1829 -0.3095 -0.1897
  566MOL0     C78030   5.400   9.583   7.790  0.4246  0.1454  0.5645
  566MOL0     C78031   5.418   9.697   7.683 -0.5441 -0.0873 -0.8527
  566MOL0     C78032   5.341   9.663   7.561 -0.4442 -0.5196 -0.3006
  566MOL0     C78033   5.334   9.785   7.467  0.0719  0.8049 -0.0273
  566MOL0     C78034   5.448   9.781   7.369  0.9964 -0.3541  0.5003
  566MOL0     C78035   5.535   9.790   7.287 -0.2522 -0.2286 -0.6689
  566MOL0     C78036   5.353   9.744   8.018  0.6227  0.0327 -0.2621
  566MOL0     C78037   5.323   9.802   8.142 -0.8635 -0.0580 -0.4728
  566MOL0     C78038   5.418   9.894   8.198  0.4335 -1.1353 -0.5204
  566MOL0     H78039   5.334   9.992   8.510 -0.3675 -0.3899  1.3179
  566MOL0     H78040   5.316  10.131   8.718  1.1675 -0.2453 -1.3789
  566MOL0     H78041   5.117  10.470   8.688 -0.2600 -0.5965  0.9608
  566MOL0     H78042   5.276  10.386   8.717  1.6990 -1.0021  0.3986
  566MOL0     H78043   5.209  10.573   8.887 -2.5607  1.1643  1.1036
  566MOL0     H78044   5.073  10.473   8.928  0.1522  2.8322  0.5089
  566MOL0     H78045   5.265  10.291   8.968 -0.2565  0.3106 -3.6929
  566MOL0     H78046   5.371  10.424   8.938 -0.3093  0.3488  0.6112
  566MOL0     H78047   5.266  10.556   9.119  1.3283 -0.6459  0.7018
  566MOL0     H78048   5.145  10.438   9.145 -0.6972  0.9937 -0.8952
  566MOL0     H78049   5.315  10.443   9.313  0.0012  2.3823 -1.1119
  566MOL0     H78050   5.444  10.388   9.195 -0.6140  0.5328 -3.5324
  566MOL0     H78051   5.196  10.222   9.267  0.0167 -3.4375 -0.4867
  566MOL0     H78052   5.333  10.167   9.181 -1.0043  2.3713 -1.4126
  566MOL0     H78053   5.327  10.099   9.418  0.5436 -0.8593  0.0503
  566MOL0     H78054   5.349  10.264   9.471  1.7120  0.4339  0.4155
  566MOL0     H78055   5.548  10.138   9.274 -3.0114  1.0576  0.0834
  566MOL0     H78056   5.572  10.282   9.360  1.2217 -0.2907 -1.6332
  566MOL0     H78057   5.576   9.879   9.419  2.5946 -0.4663  1.3187
  566MOL0     H78058   5.700   9.740   9.596 -1.8141  0.7764  0.3792
  566MOL0     H78059   5.658   9.809   9.761  1.1227  1.8493  0.7613
  566MOL0     H78060   5.912   9.877   9.613  1.3755  0.7696  0.7073
  566MOL0     H78061   5.872   9.897   9.788  1.4993  1.5563 -1.4007
  566MOL0     H78062   5.853   9.660   9.832  1.3956 -1.6056  0.4764
  566MOL0     H78063   5.897   9.610   9.670  0.9786 -5.3839  5.8302
  566MOL0     H78064   6.085   9.602   9.854  0.9977  0.2362 -0.6309
  566MOL0     H78065   6.124   9.709   9.716 -0.4924 -0.6933 -0.5545
  566MOL0     H78066   6.327   9.701   9.832  0.6419  1.2359 -0.2307
  566MOL0     H78067   6.543   9.632   9.869 -0.7929 -0.6705  1.0512
  566MOL0     H78068   6.584   9.599  10.032 -1.1903  2.1158  2.6703
  566MOL0     H78069   6.649   9.744   9.955  0.3571  0.2700  1.7275
  566MOL0     H78070   6.788   9.860  10.388 -0.5273  0.5893  0.0661
  566MOL0     H78071   6.909   9.877  10.569  0.5868 -5.5692 -0.4375
  566MOL0     H78072   6.695   9.914  10.986  1.6883  1.9383 -1.8486
  566MOL0     H78073   6.711   9.750  10.947  0.9394  0.1347  0.1887
  566MOL0     H78074   6.825   9.766  11.152 -1.3600 -2.8278 -2.7922
  566MOL0     H78075   6.959   9.771  11.044  1.5449 -1.1641  3.4190
  566MOL0     H78076   6.816  10.009  11.169  2.2298  0.4437  1.3830
  566MOL0     H78077   6.921  10.032  11.031  0.4713 -0.1665 -1.5229
  566MOL0     H78078   7.019   9.874  11.273 -4.2887  0.5349  0.0181
  566MOL0     H78079   7.013  10.046  11.283 -0.0495 -0.7686  0.5156
  566MOL0     H78080   7.230   9.922  11.210 -0.9352 -1.6998  1.1381
  566MOL0     H78081   7.147   9.892  11.056  1.1949  0.4882 -0.4749
  566MOL0     H78082   7.187  10.184  11.135  1.1664 -2.6470  2.1853
  566MOL0     H78083   7.133  10.099  10.980 -0.4005  1.1876 -0.7300
  566MOL0     H78084   7.349  10.040  10.940  1.9524 -0.5776  0.5244
  566MOL0     H78085   7.395  10.030  11.106  1.8084  0.5762 -0.6236
  566MOL0     H78086   7.325  10.267  10.938 -0.4948 -2.1399 -0.0791
  566MOL0     H78087   7.494  10.238  10.978  0.8914  2.0241  1.2234
  566MOL0     H78088   6.556   9.843  10.821  1.1268 -2.4692 -0.1829
  566MOL0     H78089   6.422   9.837  10.630  0.5508 -1.9345  0.3496
  566MOL0     H78090   6.278   9.874  10.292 -0.9107 -1.5687  0.2139
  566MOL0     H78091   6.088   9.907  10.128 -0.3145  0.6697 -0.1226
  566MOL0     H78092   4.927  10.253   8.587  2.0537  1.4154  2.1056
  566MOL0     H78093   4.959  10.109   8.377 -0.0070 -0.7471  0.0728
  566MOL0     H78094   5.041   9.622   8.224  0.2859 -0.2250 -0.6793
  566MOL0     H78095   5.099   9.514   8.018 -1.8834 -0.4824  2.3096
  566MOL0     H78096   5.488   9.580   7.855  0.7815 -0.2236  0.0701
  566MOL0     H78097   5.412   9.491   7.732  0.4345 -0.6534  1.8035
  566MOL0     H78098   5.525   9.691   7.662  0.1151  2.7741  1.1203
  566MOL0     H78099   5.393   9.800   7.711 -2.0050 -0.2669 -1.3958
  566MOL0     H78100   5.384   9.576   7.510  1.7188  0.7289 -0.6990
  566MOL0     H78101   5.239   9.644   7.595 -1.2359  1.0859 -1.6009
  566MOL0     H78102   5.336   9.878   7.526  2.1379  0.3146  0.7492
  566MOL0     H78103   5.240   9.777   7.411 -0.7859 -2.6899  1.6318
  566MOL0     H78104   5.623   9.806   7.228  1.6039  1.8967  2.3424
  566MOL0     H78105   5.434   9.793   7.966  0.0202  2.0590  0.6035
  566MOL0     H78106   5.405   9.899   8.307  0.7534  0.3571 -0.5322
  566MOL0     H78107   5.519   9.865   8.168  0.5519 -1.5024  0.1978
  566MOL0     H78108   5.397   9.995   8.162 -0.0441  0.1121  2.8616
  567MOL0     O78109   1.147   8.743   7.842  0.9139 -0.7179  0.3271
  567MOL0     C78110   1.184   8.640   7.893  0.0133 -0.1710 -0.7192
  567MOL0     O78111   1.149   8.586   8.014 -0.3280  0.4602  0.4861
  567MOL0     C78112   1.081   8.659   8.103  0.6642 -0.1233 -0.4422
  567MOL0     C78113   0.997   8.569   8.169 -0.0577 -0.3525  0.5252
  567MOL0     C78114   0.908   8.623   8.256  0.4396  0.4562  0.4914
  567MOL0     C78115   0.904   8.761   8.282 -0.6978 -0.7773  1.3571
  567MOL0     O78116   0.816   8.792   8.379  0.6356 -0.3051 -0.3094
  567MOL0     C78117   0.720   8.895   8.342  0.3844 -0.5757 -0.1539
  567MOL0     C78118   0.623   8.865   8.223  0.4273 -0.0154 -0.0821
  567MOL0     C78119   0.539   8.745   8.280 -0.6213 -0.6746 -1.0649
  567MOL0     C78120   0.430   8.697   8.189 -0.3107  0.1542  0.9337
  567MOL0     C78121   0.482   8.611   8.069  0.2057  0.1060 -0.3011
  567MOL0     C78122   0.364   8.572   7.971 -0.3766  0.3486  0.5830
  567MOL0     C78123   0.326   8.688   7.874 -0.7897 -0.6915  0.2441
  567MOL0     C78124   0.425   8.715   7.765 -0.2177  0.4166  0.5482
  567MOL0     N78125   0.367   8.822   7.676  0.0413  0.0937 -0.4639
  567MOL0     C78126   0.406   8.954   7.694  0.4453 -0.4797  0.1110
  567MOL0     C78127   0.356   9.021   7.586  0.3847  0.4954  0.0971
  567MOL0     C78128   0.385   9.164   7.558  0.1808 -1.3611 -1.2132
  567MOL0     C78129   0.533   9.196   7.527  0.3360  0.4705  0.9555
  567MOL0     C78130   0.566   9.332   7.475  1.1517 -0.0044  0.1596
  567MOL0     C78131   0.707   9.383   7.498  0.1931  0.1673  0.0148
  567MOL0     O78132   0.796   9.293   7.433 -0.3841 -0.2621 -0.0956
  567MOL0     C78133   0.922   9.338   7.392 -1.1956  0.5555  1.3570
  567MOL0     C78134   0.983   9.466   7.431 -0.4415  0.8569 -0.4830
  567MOL0     C78135   1.100   9.503   7.377 -0.1644  0.5073 -1.2275
  567MOL0     C78136   1.160   9.629   7.431  0.1382 -0.2161 -0.0535
  567MOL0     C78137   1.168   9.421   7.280  0.6492 -0.6614  0.2234
  567MOL0     C78138   1.306   9.442   7.224 -1.3499 -0.5719  0.5115
  567MOL0     O78139   1.359   9.336   7.161  0.3619  0.9636 -0.8060
  567MOL0     C78140   1.487   9.316   7.127 -0.0194 -0.2567 -0.6490
  567MOL0     C78141   1.590   9.411   7.116  0.6753  0.1809 -0.3422
  567MOL0     C78142   1.718   9.381   7.068 -0.0184  1.1637 -1.0381
  567MOL0     C78143   1.755   9.252   7.032  1.8504  0.3315  0.2668
  567MOL0     O78144   1.889   9.235   7.003 -0.2243 -0.0979 -0.2239
  567MOL0     C78145   1.913   9.137   6.908  0.8596  0.1850  0.0225
  567MOL0     C78146   2.064   9.130   6.888 -0.8753 -0.3899  0.1362
  567MOL0     C78147   2.108   8.992   6.831 -0.5226 -0.1646  0.6113
  567MOL0     C78148   2.257   8.985   6.799  0.3930  0.2522 -0.8634
  567MOL0     C78149   2.307   8.842   6.781  0.6530 -0.4430 -0.2396
  567MOL0     C78150   2.459   8.852   6.767  0.4021  0.1208 -0.5128
  567MOL0     C78151   2.538   8.873   6.900 -0.8500 -0.0880  0.4641
  567MOL0     C78152   2.690   8.879   6.859  0.7423 -0.5639 -0.7068
  567MOL0    Cl78153   2.757   8.733   6.804 -0.5524 -0.2543 -0.1537
  567MOL0     C78154   1.652   9.155   7.041 -1.0048 -0.0143  0.3634
  567MOL0     C78155   1.517   9.184   7.078  0.0744  0.8379  0.2423
  567MOL0     O78156   1.371   9.547   7.251 -0.0598 -0.6653 -0.0779
  567MOL0     C78157   1.104   9.304   7.235  0.2647  0.4340  0.4490
  567MOL0     C78158   0.983   9.261   7.288 -0.1372  0.6846  0.5611
  567MOL0     N78159   0.276   8.934   7.512  0.4126 -0.1623  0.1426
  567MOL0     N78160   0.296   8.812   7.559 -0.0060 -0.8040  0.6731
  567MOL0     C78161   0.994   8.853   8.221  0.3033  0.0737 -0.6304
  567MOL0     C78162   1.083   8.797   8.132 -0.3093  0.1063  0.0814
  567MOL0     C78163   1.285   8.561   7.811 -0.7316 -0.2472 -0.3632
  567MOL0     C78164   1.279   8.421   7.816 -0.7085 -1.7692 -0.3376
  567MOL0     C78165   1.364   8.343   7.730  0.5223 -0.0101  0.1332
  567MOL0     C78166   1.444   8.405   7.633  0.9027  0.5114 -1.0254
  567MOL0     O78167   1.509   8.326   7.538 -1.0322 -0.3834 -0.1008
  567MOL0     C78168   1.422   8.305   7.426 -0.1914  0.0661 -0.5794
  567MOL0     C78169   1.507   8.237   7.316  0.1766 -0.2536  0.3966
  567MOL0     C78170   1.617   8.333   7.270  0.8327 -0.2400 -0.8443
  567MOL0     C78171   1.558   8.456   7.208  0.2890 -0.1583 -0.4945
  567MOL0     C78172   1.461   8.434   7.098 -0.5246  0.5558  0.4922
  567MOL0     C78173   1.382   8.382   7.022  0.0832  0.0717 -0.4951
  567MOL0     C78174   1.460   8.543   7.635  0.0629 -0.2593  0.6550
  567MOL0     C78175   1.380   8.624   7.723  0.5223 -0.2198  0.3897
  567MOL0     C78176   1.403   8.776   7.711 -0.3544 -0.5419 -0.7897
  567MOL0     H78177   0.990   8.468   8.130  0.2233  0.8717 -3.0635
  567MOL0     H78178   0.833   8.555   8.297 -2.0923  2.1719 -1.0168
  567MOL0     H78179   0.769   8.992   8.328  1.1738 -1.0852 -0.9819
  567MOL0     H78180   0.660   8.917   8.431  0.6453  0.3624 -0.2008
  567MOL0     H78181   0.571   8.961   8.213 -1.0291 -0.0166  4.7914
  567MOL0     H78182   0.694   8.845   8.142  0.9134 -0.3296  0.4212
  567MOL0     H78183   0.612   8.666   8.301  1.7149  1.2500 -1.5382
  567MOL0     H78184   0.496   8.778   8.375 -3.3631 -0.1966 -2.3782
  567MOL0     H78185   0.381   8.625   8.256  0.4597 -0.9924  0.2858
  567MOL0     H78186   0.365   8.781   8.164  2.4061  2.2071  0.3019
  567MOL0     H78187   0.536   8.523   8.107 -0.0748 -0.0916 -0.3606
  567MOL0     H78188   0.554   8.669   8.011 -0.9763  0.9531 -0.9590
  567MOL0     H78189   0.395   8.483   7.916 -0.4119  0.3643  0.5372
  567MOL0     H78190   0.275   8.539   8.026  0.2237 -1.3543  0.5917
  567MOL0     H78191   0.300   8.784   7.921 -1.2681 -0.5165 -0.3647
  567MOL0     H78192   0.230   8.667   7.827 -2.2986  2.9600  1.2819
  567MOL0     H78193   0.511   8.758   7.817 -0.1356  0.4280  0.4030
  567MOL0     H78194   0.447   8.619   7.718 -0.2601  1.7629 -2.4342
  567MOL0     H78195   0.473   8.992   7.770 -1.2606 -1.5083  2.2398
  567MOL0     H78196   0.361   9.227   7.644 -0.1077  1.1071 -3.0104
  567MOL0     H78197   0.319   9.201   7.479 -2.9474  2.2591  2.6110
  567MOL0     H78198   0.606   9.189   7.608  0.5724 -1.0120  0.6374
  567MOL0     H78199   0.564   9.114   7.462  0.6171 -1.1323  3.0141
  567MOL0     H78200   0.554   9.341   7.366  1.0451  5.5381  0.3224
  567MOL0     H78201   0.501   9.409   7.518  0.4520 -0.5304  0.0632
  567MOL0     H78202   0.717   9.485   7.461 -2.5250  0.7735  0.7051
  567MOL0     H78203   0.736   9.384   7.603  2.4819  2.8807 -0.5437
  567MOL0     H78204   0.928   9.541   7.487 -2.7178 -0.3045 -1.0573
  567MOL0     H78205   1.105   9.679   7.511  2.1707 -1.0801  1.9676
  567MOL0     H78206   1.170   9.691   7.341 -0.4577 -2.8196 -2.0637
  567MOL0     H78207   1.264   9.621   7.465  0.2631  0.5057 -0.2391
  567MOL0     H78208   1.579   9.513   7.151  3.0449  0.2725  0.2929
  567MOL0     H78209   1.780   9.470   7.072 -0.5737  1.5130  0.3649
  567MOL0     H78210   1.885   9.039   6.947 -0.8842  0.4582 -0.4780
  567MOL0     H78211   1.859   9.152   6.815 -2.2238 -0.7166  1.5462
  567MOL0     H78212   2.099   9.207   6.818 -1.6916  0.2791  0.4569
  567MOL0     H78213   2.109   9.148   6.986 -0.5717  1.1593 -0.2612
  567MOL0     H78214   2.045   8.952   6.751  2.8748 -2.3282 -1.2231
  567MOL0     H78215   2.100   8.919   6.911  2.3126 -0.8535  0.3705
  567MOL0     H78216   2.312   9.025   6.885  0.4702 -1.3005 -0.1493
  567MOL0     H78217   2.281   9.042   6.709 -0.7711 -0.0808 -1.3970
  567MOL0     H78218   2.281   8.793   6.874 -0.0663 -1.1940 -0.8211
  567MOL0     H78219   2.257   8.787   6.701 -0.1903 -0.1391  0.0673
  567MOL0     H78220   2.490   8.943   6.716  0.9014  1.9770  2.7636
  567MOL0     H78221   2.499   8.762   6.720 -1.4683 -1.2152  0.3036
  567MOL0     H78222   2.521   8.799   6.978 -0.9154 -0.2830  0.2661
  567MOL0     H78223   2.520   8.969   6.949  3.1868 -0.0131  2.2308
  567MOL0     H78224   2.748   8.926   6.939 -0.5758 -1.5904  0.8881
  567MOL0     H78225   2.703   8.947   6.773  3.3590 -2.1102 -1.6308
  567MOL0     H78226   1.689   9.055   7.020  1.4062  0.2214  2.8676
  567MOL0     H78227   1.446   9.106   7.103  1.7891 -0.3064  1.7781
  567MOL0     H78228   1.153   9.243   7.160  1.0506  1.5854  0.0017
  567MOL0     H78229   0.935   9.174   7.244 -0.2241  0.6793  0.6679
  567MOL0     H78230   0.990   8.959   8.245 -3.8224 -0.2507  0.9282
  567MOL0     H78231   1.159   8.854   8.079 -2.5337  0.8275 -2.5662
  567MOL0     H78232   1.215   8.371   7.887 -0.6626 -0.8175  0.3937
  567MOL0     H78233   1.368   8.235   7.739  2.2054 -0.2109 -2.0348
  567MOL0     H78234   1.337   8.240   7.448 -1.7442  2.2968  0.3091
  567MOL0     H78235   1.377   8.399   7.392 -3.4758 -1.3698 -0.5514
  567MOL0     H78236   1.450   8.212   7.226 -0.3508  1.9051  0.0846
  567MOL0     H78237   1.554   8.142   7.343  0.6998 -0.0358  0.2528
  567MOL0     H78238   1.698   8.358   7.339  0.1149 -0.8627  0.2742
  567MOL0     H78239   1.670   8.284   7.188  0.3454  2.7962 -3.1307
  567MOL0     H78240   1.639   8.506   7.154  2.2050  0.0910  2.4265
  567MOL0     H78241   1.520   8.527   7.281  0.6911  2.3575 -2.5911
  567MOL0     H78242   1.316   8.325   6.960 -0.4775 -0.0334  0.1795
  567MOL0     H78243   1.515   8.593   7.556  1.4915 -1.7598  0.6563
  567MOL0     H78244   1.345   8.839   7.779  0.8117  0.0017 -0.2718
  567MOL0     H78245   1.504   8.801   7.745  0.2160 -0.9431 -2.1130
  567MOL0     H78246   1.386   8.815   7.610  1.0288  0.9285 -0.5069
  568MOL0     O78247   9.059   5.940   8.690 -0.4479 -0.0899 -0.7538
  568MOL0     C78248   9.008   5.897   8.585 -0.4073 -0.1890 -1.1686
  568MOL0     O78249   9.090   5.855   8.471  0.2779  0.1573  0.1734
  568MOL0     C78250   9.224   5.869   8.474  0.0057  0.4048  0.4938
  568MOL0     C78251   9.299   5.782   8.547  0.6168 -0.4361  0.1756
  568MOL0     C78252   9.443   5.777   8.528  0.2153 -0.0052  0.5302
  568MOL0     C78253   9.507   5.862   8.435 -0.4560 -0.0573  0.7028
  568MOL0     O78254   9.644   5.883   8.441 -0.0745  0.0642  0.3070
  568MOL0     C78255   9.708   5.819   8.331  0.3224  0.3295 -0.3450
  568MOL0     C78256   9.864   5.825   8.337 -0.0312  1.1161 -0.1902
  568MOL0     C78257   9.925   5.963   8.328  0.4260 -0.5495  0.6763
  568MOL0     C78258  10.074   5.975   8.297  0.4805  0.2596  0.1195
  568MOL0     C78259  10.120   6.120   8.302  0.1831 -0.7495 -0.0470
  568MOL0     C78260  10.075   6.209   8.181 -0.4992 -0.1723  0.6312
  568MOL0     C78261  10.151   6.337   8.162  0.3723 -0.8993  0.5016
  568MOL0     C78262  10.099   6.413   8.033  0.1616 -0.5465  0.0255
  568MOL0     N78263  10.209   6.467   7.948 -0.2735  0.2556 -1.0225
  568MOL0     C78264  10.280   6.580   7.988  0.0421 -0.1676  0.0519
  568MOL0     C78265  10.382   6.585   7.895 -0.1302  0.0766 -0.2001
  568MOL0     C78266  10.491   6.684   7.889 -0.7512 -0.9731  0.2519
  568MOL0     C78267  10.631   6.619   7.880  0.4712 -0.1371  1.2194
  568MOL0     C78268  10.725   6.694   7.968 -0.7504 -0.3463  0.6376
  568MOL0     C78269  10.743   6.842   7.941  0.2949 -1.5005  0.0358
  568MOL0     O78270  10.820   6.856   7.818 -0.7563  0.3123  0.1256
  568MOL0     C78271  10.903   6.968   7.806  0.4828 -1.0960  0.4170
  568MOL0     C78272  10.894   7.089   7.879  0.8810 -0.3164  0.0187
  568MOL0     C78273  11.000   7.188   7.866  0.1263  0.0888 -0.2996
  568MOL0     C78274  10.986   7.308   7.953  0.5697  0.4645 -0.1839
  568MOL0     C78275  11.103   7.165   7.772 -0.9275  0.4784  0.2437
  568MOL0     C78276  11.214   7.265   7.744 -0.6647  0.3611 -0.3445
  568MOL0     O78277  11.300   7.227   7.642  0.5943  0.2723  0.8299
  568MOL0     C78278  11.426   7.282   7.620 -0.3102  0.0844  0.1154
  568MOL0     C78279  11.490   7.271   7.493 -0.5157 -0.3941  0.9020
  568MOL0     C78280  11.618   7.313   7.470 -0.0218 -0.8749 -0.6865
  568MOL0     C78281  11.690   7.379   7.575 -1.0343  0.7383 -0.5052
  568MOL0     O78282  11.817   7.417   7.562  0.6753  0.3670 -0.1724
  568MOL0     C78283  11.842   7.501   7.450 -0.1124 -0.3267  0.0249
  568MOL0     C78284  11.937   7.604   7.501  0.1502 -0.5885  0.0524
  568MOL0     C78285  12.002   7.692   7.388  0.4108 -0.4304  0.4259
  568MOL0     C78286  12.092   7.804   7.452  0.3046  0.4421 -0.1981
  568MOL0     C78287  12.148   7.893   7.337 -0.1040 -0.4199 -0.4389
  568MOL0     C78288  12.252   7.989   7.397 -0.1733  0.3303  0.4205
  568MOL0     C78289  12.344   8.055   7.299 -0.8266 -0.1615  0.6952
  568MOL0     C78290  12.479   7.984   7.296 -0.0398  0.6063  0.0398
  568MOL0    Cl78291  12.566   8.029   7.152  0.4477  0.1747 -0.0300
  568MOL0     C78292  11.633   7.389   7.698 -0.1159  0.0280 -0.3862
  568MOL0     C78293  11.503   7.347   7.723  0.0963  0.5359 -0.1355
  568MOL0     O78294  11.222   7.369   7.800 -0.3767 -0.2658 -0.2150
  568MOL0     C78295  11.103   7.050   7.693  0.3046  0.3636 -0.3246
  568MOL0     C78296  11.002   6.950   7.708  0.0992 -0.1600 -0.4126
  568MOL0     N78297  10.384   6.471   7.822 -0.2017  0.2932  0.1315
  568MOL0     N78298  10.276   6.406   7.846  0.8300 -0.9793  0.5281
  568MOL0     C78299   9.432   5.942   8.350  0.9111 -0.2574 -0.0052
  568MOL0     C78300   9.293   5.936   8.364  0.2474 -0.2386  0.0772
  568MOL0     C78301   8.858   5.881   8.580 -0.4436 -0.4623 -0.0196
  568MOL0     C78302   8.803   5.805   8.475  0.7598  0.0924  0.9237
  568MOL0     C78303   8.668   5.799   8.450  0.4617 -0.4087 -0.1312
  568MOL0     C78304   8.577   5.874   8.526  0.1519  0.0605  1.3141
  568MOL0     O78305   8.439   5.864   8.507 -0.3209 -0.4895  0.5047
  568MOL0     C78306   8.373   5.752   8.451  0.1177 -0.0041 -1.1598
  568MOL0     C78307   8.389   5.630   8.558 -0.4259  0.2874  0.6893
  568MOL0     C78308   8.342   5.504   8.493  0.4192 -0.0931  0.7971
  568MOL0     C78309   8.185   5.513   8.480  0.3384  0.6649 -0.8639
  568MOL0     C78310   8.112   5.537   8.608 -0.9664  0.0154 -0.6165
  568MOL0     C78311   8.063   5.569   8.713  0.8294 -0.1827 -1.3255
  568MOL0     C78312   8.632   5.940   8.636 -0.0100 -0.2917 -0.1926
  568MOL0     C78313   8.767   5.945   8.670 -0.4279  0.1691  1.0780
  568MOL0     C78314   8.807   6.008   8.803  0.4116 -0.6184 -0.4232
  568MOL0     H78315   9.252   5.705   8.608  0.2033  0.6065  1.2120
  568MOL0     H78316   9.494   5.699   8.584  0.6313 -1.8306 -2.1906
  568MOL0     H78317   9.681   5.875   8.240  0.4584  2.0216  0.6114
  568MOL0     H78318   9.681   5.713   8.332  1.6330 -0.0257 -0.4253
  568MOL0     H78319   9.910   5.776   8.423  1.4419  1.4185 -0.7673
  568MOL0     H78320   9.897   5.772   8.247 -4.5258  0.2936 -1.5833
  568MOL0     H78321   9.866   6.025   8.260 -1.8113  0.8461  3.6557
  568MOL0     H78322   9.911   6.012   8.425 -1.7202 -1.4311  0.8563
  568MOL0     H78323  10.136   5.926   8.372  0.5002 -1.0043 -0.6886
  568MOL0     H78324  10.100   5.937   8.197  0.4646 -0.8446  0.5249
  568MOL0     H78325  10.230   6.117   8.309  0.5407 -0.3495 -3.4877
  568MOL0     H78326  10.086   6.169   8.393  0.8422 -3.1811  1.6235
  568MOL0     H78327  10.093   6.156   8.087  0.5150  0.8023  0.2583
  568MOL0     H78328   9.971   6.239   8.189 -0.7266 -0.8380  0.2050
  568MOL0     H78329  10.260   6.331   8.165  0.7021  3.0606  3.0791
  568MOL0     H78330  10.119   6.399   8.246 -1.2394 -2.9400  1.4849
  568MOL0     H78331  10.049   6.345   7.963  1.3933  1.2117 -2.7656
  568MOL0     H78332  10.035   6.498   8.058  2.0638  0.4242  1.9181
  568MOL0     H78333  10.247   6.642   8.070 -3.6146 -1.1543 -0.4964
  568MOL0     H78334  10.494   6.753   7.973  0.4057  0.8839 -1.2262
  568MOL0     H78335  10.488   6.756   7.806  3.7957 -0.8224 -0.0621
  568MOL0     H78336  10.635   6.515   7.912 -0.4157 -0.3694  0.6384
  568MOL0     H78337  10.665   6.616   7.776  2.6742  2.9707  1.6935
  568MOL0     H78338  10.697   6.684   8.073 -0.9843 -0.5570  0.5578
  568MOL0     H78339  10.821   6.644   7.951 -1.3205 -0.4995 -2.9513
  568MOL0     H78340  10.647   6.894   7.933  1.6375  1.4865  1.7979
  568MOL0     H78341  10.796   6.882   8.028 -1.2776 -0.2059  0.4551
  568MOL0     H78342  10.811   7.105   7.948 -0.0224  0.2164 -1.1686
  568MOL0     H78343  11.062   7.299   8.032 -0.2207 -1.2139  0.4421
  568MOL0     H78344  10.888   7.327   7.996 -0.2589  1.7140 -2.4648
  568MOL0     H78345  10.995   7.398   7.891 -1.0296  1.1934  0.5861
  568MOL0     H78346  11.421   7.235   7.416 -0.9643  0.8350  0.7069
  568MOL0     H78347  11.666   7.288   7.376  2.6656 -0.0542  0.3891
  568MOL0     H78348  11.887   7.438   7.372  0.3697 -0.2064  0.2053
  568MOL0     H78349  11.746   7.544   7.420  0.4628  0.6864 -0.3885
  568MOL0     H78350  11.889   7.669   7.574 -2.1331 -1.5353 -0.5293
  568MOL0     H78351  12.016   7.560   7.563 -0.7035  0.2744  1.8138
  568MOL0     H78352  11.925   7.738   7.326  1.6157  1.2909  0.1320
  568MOL0     H78353  12.059   7.623   7.325 -0.9700 -1.2039 -0.0128
  568MOL0     H78354  12.171   7.759   7.513 -1.9467  1.7198  4.0516
  568MOL0     H78355  12.030   7.874   7.510 -2.6832 -0.0921 -2.5160
  568MOL0     H78356  12.203   7.832   7.265  2.1717 -0.9927  1.6586
  568MOL0     H78357  12.078   7.955   7.279 -0.0291 -0.1643 -0.2614
  568MOL0     H78358  12.309   7.931   7.471 -1.9248 -0.7143  1.0124
  568MOL0     H78359  12.207   8.068   7.458  1.1754  1.8693 -0.4966
  568MOL0     H78360  12.352   8.157   7.338 -1.1789 -0.9404  2.9986
  568MOL0     H78361  12.299   8.060   7.199 -0.0400  1.9117  0.3970
  568MOL0     H78362  12.457   7.877   7.302 -1.9308  0.8137 -2.0949
  568MOL0     H78363  12.538   8.015   7.383  1.0583  0.4316 -0.6190
  568MOL0     H78364  11.674   7.446   7.781 -2.7405 -2.8923  3.2682
  568MOL0     H78365  11.460   7.362   7.822  0.1972 -0.0064 -0.0009
  568MOL0     H78366  11.170   7.023   7.613 -1.0428  0.2189 -1.4407
  568MOL0     H78367  10.990   6.857   7.653  1.1100 -1.8829  2.0970
  568MOL0     H78368   9.481   6.016   8.287  1.2782  1.8558  2.5749
  568MOL0     H78369   9.233   6.002   8.302  1.0814  0.6294  0.1695
  568MOL0     H78370   8.865   5.753   8.403 -0.8346  2.2424 -2.2164
  568MOL0     H78371   8.630   5.746   8.364 -0.5565 -0.1705  0.1584
  568MOL0     H78372   8.267   5.773   8.433 -0.3093  0.1775  1.1878
  568MOL0     H78373   8.405   5.726   8.350  0.1690 -2.2976 -0.6028
  568MOL0     H78374   8.333   5.659   8.647 -2.6216 -0.2214 -0.4553
  568MOL0     H78375   8.490   5.596   8.582 -1.7740 -5.8977 -0.4474
  568MOL0     H78376   8.389   5.487   8.396  0.2646  3.1246  0.0749
  568MOL0     H78377   8.378   5.421   8.556  2.4788  1.1962  1.4158
  568MOL0     H78378   8.139   5.424   8.437 -0.0005  0.1816  0.4521
  568MOL0     H78379   8.157   5.591   8.409 -0.0734  1.5749  0.2704
  568MOL0     H78380   8.019   5.595   8.807  2.0898 -2.0804 -0.1542
  568MOL0     H78381   8.566   6.002   8.697  1.5962  2.0827 -0.7042
  568MOL0     H78382   8.893   5.969   8.858  3.0024  4.7839  0.1004
  568MOL0     H78383   8.846   6.107   8.778  0.3256 -0.7836 -1.2317
  568MOL0     H78384   8.724   6.021   8.873  0.1645  1.7361 -1.0446
  569MOL0     O78385   6.117   3.929  10.046 -0.6149  0.6410 -0.5391
  569MOL0     C78386   6.107   3.820   9.990 -0.4692 -0.9917  0.7611
  569MOL0     O78387   6.201   3.728   9.982  0.4388 -0.1012  0.0420
  569MOL0     C78388   6.323   3.741  10.052  0.4777 -1.0647 -0.1574
  569MOL0     C78389   6.349   3.813  10.171  0.9009  0.1032  0.1223
  569MOL0     C78390   6.481   3.805  10.223 -0.8750  0.1475 -0.0815
  569MOL0     C78391   6.584   3.744  10.149 -0.1681 -0.1233 -0.1270
  569MOL0     O78392   6.705   3.738  10.208  0.3834 -0.2492 -0.2288
  569MOL0     C78393   6.824   3.725  10.119 -1.1039 -0.3507 -0.7414
  569MOL0     C78394   6.945   3.798  10.182  0.6359 -0.8944  0.9724
  569MOL0     C78395   7.060   3.775  10.088 -0.0787 -0.5496  0.2247
  569MOL0     C78396   7.180   3.853  10.139 -0.4680  0.9801  0.1778
  569MOL0     C78397   7.293   3.851  10.036  0.8090 -0.3080 -0.4271
  569MOL0     C78398   7.401   3.953  10.064 -0.1169 -0.5493 -0.0763
  569MOL0     C78399   7.461   3.929  10.200 -0.6083  0.2196 -0.3825
  569MOL0     C78400   7.593   3.991  10.228  0.6546  0.1039 -0.1909
  569MOL0     N78401   7.703   3.973  10.135 -0.2355  0.4337 -0.3762
  569MOL0     C78402   7.736   4.043  10.019  0.7644 -0.0160  0.1992
  569MOL0     C78403   7.862   4.003   9.990  0.1404  0.7677 -0.3595
  569MOL0     C78404   7.935   4.057   9.870  0.9505 -0.8910  0.4160
  569MOL0     C78405   7.877   4.003   9.740 -0.7687 -0.1397  0.1012
  569MOL0     C78406   7.756   4.090   9.692  0.0352  0.3228 -0.1547
  569MOL0     C78407   7.718   4.067   9.542 -0.5744 -0.3287 -0.7564
  569MOL0     O78408   7.646   4.174   9.479  0.3903  0.2038 -0.4974
  569MOL0     C78409   7.726   4.254   9.405  0.1225 -0.7013  0.2498
  569MOL0     C78410   7.658   4.317   9.300  0.5382  0.5334  0.4208
  569MOL0     C78411   7.732   4.412   9.216  0.1629  0.2097  0.1947
  569MOL0     C78412   7.656   4.473   9.104  0.6431 -0.1583  0.6244
  569MOL0     C78413   7.865   4.440   9.243  0.2866  0.6062 -0.2538
  569MOL0     C78414   7.950   4.530   9.168  0.1059  0.4767  0.4840
  569MOL0     O78415   8.087   4.513   9.177 -0.1097 -0.4299  0.4103
  569MOL0     C78416   8.165   4.598   9.098  0.5842 -0.6595  0.4245
  569MOL0     C78417   8.213   4.557   8.965  0.0661  0.1329  0.8325
  569MOL0     C78418   8.298   4.641   8.895  1.1512 -0.6034  0.3440
  569MOL0     C78419   8.349   4.754   8.949  0.5203  0.3677 -0.1494
  569MOL0     O78420   8.447   4.806   8.876 -0.3709  0.4931  0.4193
  569MOL0     C78421   8.534   4.920   8.919 -0.0859  0.0867  0.0212
  569MOL0     C78422   8.668   4.864   8.975 -0.1766  0.2841 -0.4700
  569MOL0     C78423   8.728   4.749   8.891  0.4746 -0.0607  0.1277
  569MOL0     C78424   8.870   4.706   8.940 -0.0419  0.3020 -0.1270
  569MOL0     C78425   8.950   4.686   8.815  0.2327 -0.2412  0.1554
  569MOL0     C78426   9.094   4.643   8.849  0.3874  0.1666  0.2733
  569MOL0     C78427   9.198   4.661   8.745  0.6182  0.3998 -0.2559
  569MOL0     C78428   9.326   4.590   8.777 -0.0033 -0.1809 -0.0307
  569MOL0    Cl78429   9.424   4.696   8.880 -0.1793  0.1334 -0.1609
  569MOL0     C78430   8.316   4.789   9.078  0.5266 -0.5854  0.7005
  569MOL0     C78431   8.226   4.710   9.153 -0.8135  0.0170  0.1476
  569MOL0     O78432   7.892   4.620   9.114 -0.4368 -0.8845  0.2649
  569MOL0     C78433   7.924   4.379   9.357  0.1699 -0.9857  0.6937
  569MOL0     C78434   7.858   4.289   9.439 -0.3121 -0.2945  0.5884
  569MOL0     N78435   7.898   3.899  10.078  0.0520 -0.5750  0.3587
  569MOL0     N78436   7.802   3.890  10.161 -0.6097  0.7239  0.5113
  569MOL0     C78437   6.557   3.678  10.027  0.5641  0.9075  0.3185
  569MOL0     C78438   6.422   3.679   9.987 -0.0104 -0.1413  0.0848
  569MOL0     C78439   5.969   3.778   9.937 -0.7985 -0.0871 -0.2073
  569MOL0     C78440   5.942   3.642   9.940 -0.2058  0.2183 -0.4138
  569MOL0     C78441   5.822   3.589   9.894  0.2031 -0.0107 -0.0316
  569MOL0     C78442   5.726   3.665   9.835  0.8900 -0.8229 -1.5152
  569MOL0     O78443   5.607   3.608   9.803  0.3414 -0.5473 -0.2545
  569MOL0     C78444   5.484   3.685   9.829 -0.4158 -0.3978 -0.7214
  569MOL0     C78445   5.357   3.601   9.849 -0.2762  0.3200 -0.2138
  569MOL0     C78446   5.234   3.701   9.867  0.1480 -1.1799  0.2638
  569MOL0     C78447   5.113   3.609   9.893  0.1146  0.7486  0.9640
  569MOL0     C78448   5.072   3.532   9.772 -0.9200  1.0635 -0.0352
  569MOL0     C78449   5.030   3.488   9.669  0.0107 -0.8123 -0.0757
  569MOL0     C78450   5.758   3.806   9.819 -0.0230  0.2135 -0.2278
  569MOL0     C78451   5.875   3.859   9.875  0.5387  0.8365 -0.1283
  569MOL0     C78452   5.912   4.003   9.863  0.0835 -0.3470  0.0962
  569MOL0     H78453   6.272   3.869  10.223  1.4812 -1.5707  2.9732
  569MOL0     H78454   6.491   3.842  10.324 -2.3385 -2.0664  0.9306
  569MOL0     H78455   6.794   3.764  10.021 -0.9742 -0.1153 -0.6865
  569MOL0     H78456   6.848   3.619  10.106  2.0150 -0.2292  2.6532
  569MOL0     H78457   6.925   3.906  10.187 -1.1860 -1.0757 -0.9121
  569MOL0     H78458   6.971   3.765  10.283  4.3773 -0.8389  0.1676
  569MOL0     H78459   7.078   3.668  10.085 -1.6772 -0.8286 -1.1212
  569MOL0     H78460   7.027   3.806   9.988  0.0671 -0.9041  0.0667
  569MOL0     H78461   7.144   3.956  10.147  0.2924  1.1668  1.4067
  569MOL0     H78462   7.209   3.817  10.238  0.4552  3.3011  0.8239
  569MOL0     H78463   7.257   3.887   9.939  3.1395  2.6337 -0.3422
  569MOL0     H78464   7.331   3.751  10.013  0.5914 -1.5558  3.7928
  569MOL0     H78465   7.479   3.941   9.988  0.2525 -2.3078  0.5244
  569MOL0     H78466   7.353   4.051  10.058  1.3421  0.1011 -2.5981
  569MOL0     H78467   7.469   3.821  10.218 -1.5691  0.5087  2.2750
  569MOL0     H78468   7.393   3.978  10.271  0.1517 -0.1012  0.5852
  569MOL0     H78469   7.572   4.097  10.245 -0.1197  0.0803 -0.9231
  569MOL0     H78470   7.626   3.942  10.320  2.3823 -0.5803 -1.1206
  569MOL0     H78471   7.683   4.125   9.972 -1.7609  0.2087  3.1055
  569MOL0     H78472   8.039   4.024   9.879  1.4574  0.3446 -0.5720
  569MOL0     H78473   7.926   4.166   9.869  0.0305 -0.9528 -0.6543
  569MOL0     H78474   7.957   4.002   9.666  1.0276 -2.3903  1.8998
  569MOL0     H78475   7.852   3.898   9.758  1.1098 -0.5825  0.2643
  569MOL0     H78476   7.674   4.036   9.740  1.1785 -1.0649  0.2807
  569MOL0     H78477   7.774   4.195   9.718  1.6087  0.0109  0.0587
  569MOL0     H78478   7.802   4.033   9.482 -1.2413 -0.7307 -1.4676
  569MOL0     H78479   7.661   3.974   9.537  0.2556 -0.9654  0.8637
  569MOL0     H78480   7.554   4.289   9.287  0.8387  0.7387 -3.7452
  569MOL0     H78481   7.702   4.465   9.005  0.8418 -1.9002  0.8288
  569MOL0     H78482   7.635   4.579   9.124  0.8314  0.3454 -1.5949
  569MOL0     H78483   7.560   4.422   9.097 -0.2484  1.0649  2.8726
  569MOL0     H78484   8.168   4.465   8.929  0.2686  0.1085  0.6371
  569MOL0     H78485   8.333   4.620   8.795  0.9096  2.9086 -0.5940
  569MOL0     H78486   8.555   4.981   8.830  2.9304 -1.2210 -0.2850
  569MOL0     H78487   8.484   4.979   8.996  2.4721  1.6699  0.5672
  569MOL0     H78488   8.737   4.949   8.976 -0.0396  0.1725 -0.2568
  569MOL0     H78489   8.647   4.840   9.080 -1.3580  1.4767 -0.3991
  569MOL0     H78490   8.728   4.782   8.787  1.0984  0.5608  0.3150
  569MOL0     H78491   8.666   4.659   8.892  1.5252 -0.8187 -0.3700
  569MOL0     H78492   8.868   4.613   8.999 -4.1657  1.3566  1.7492
  569MOL0     H78493   8.918   4.787   8.995  1.5621  0.3629 -1.5437
  569MOL0     H78494   8.891   4.613   8.758  0.5766 -0.8202  0.5303
  569MOL0     H78495   8.953   4.776   8.753 -1.7508 -1.3741 -1.7273
  569MOL0     H78496   9.077   4.537   8.871  0.8007  0.3699  1.6897
  569MOL0     H78497   9.135   4.687   8.940 -0.5700 -1.2401  1.4320
  569MOL0     H78498   9.223   4.767   8.745  4.5163 -0.3811  0.9851
  569MOL0     H78499   9.162   4.641   8.644  0.3924 -0.1140 -0.0822
  569MOL0     H78500   9.376   4.579   8.681  1.5981  2.6743  0.3763
  569MOL0     H78501   9.321   4.494   8.830  0.6851  0.1486  0.6355
  569MOL0     H78502   8.357   4.870   9.136 -2.5473 -1.0619  3.8903
  569MOL0     H78503   8.197   4.757   9.247 -0.3832  1.2144 -0.2903
  569MOL0     H78504   8.018   4.418   9.394  1.7928 -1.3302 -2.7037
  569MOL0     H78505   7.900   4.251   9.532  2.2269  0.5712 -0.1192
  569MOL0     H78506   6.628   3.624   9.965 -3.3860 -2.3415 -1.8796
  569MOL0     H78507   6.393   3.611   9.908 -1.0428 -0.9360  1.1056
  569MOL0     H78508   6.007   3.568   9.985 -1.2209  0.2952  1.2757
  569MOL0     H78509   5.804   3.482   9.901  1.2881 -0.6833 -4.5333
  569MOL0     H78510   5.501   3.764   9.903 -2.2379  0.2790 -0.9717
  569MOL0     H78511   5.464   3.739   9.735 -0.6074 -1.1559 -1.1229
  569MOL0     H78512   5.380   3.546   9.941 -0.1760  1.1909  0.2950
  569MOL0     H78513   5.341   3.537   9.762 -1.4112 -0.9740  0.9017
  569MOL0     H78514   5.249   3.766   9.954 -1.0109  0.4594 -0.7117
  569MOL0     H78515   5.217   3.774   9.788  1.7710 -1.6861 -0.5938
  569MOL0     H78516   5.027   3.668   9.927 -1.3573 -1.8371  2.1087
  569MOL0     H78517   5.127   3.545   9.980 -3.5138 -1.5294  0.1129
  569MOL0     H78518   4.995   3.472   9.569 -2.6701  3.1217 -0.0229
  569MOL0     H78519   5.680   3.870   9.780  1.3990  1.9500 -0.3464
  569MOL0     H78520   5.883   4.044   9.961  1.4380 -0.5015  0.5914
  569MOL0     H78521   6.020   4.016   9.848  0.0605  1.2989  1.0989
  569MOL0     H78522   5.861   4.047   9.778  0.6065  3.3045  1.5073
  570MOL0     O78523   3.661   7.562   1.932  0.1939  0.1944  0.1287
  570MOL0     C78524   3.639   7.533   2.047  1.0191 -0.5882 -0.5167
  570MOL0     O78525   3.729   7.556   2.156  0.0677  0.5035 -0.8814
  570MOL0     C78526   3.842   7.625   2.134 -0.1255 -0.5357 -0.8226
  570MOL0     C78527   3.838   7.761   2.176  1.4486  0.8836 -0.5017
  570MOL0     C78528   3.953   7.844   2.171 -0.4323 -0.3671 -0.2410
  570MOL0     C78529   4.078   7.786   2.128 -0.6582  0.1226  0.1916
  570MOL0     O78530   4.194   7.859   2.126  0.1579 -0.1345  0.0100
  570MOL0     C78531   4.280   7.839   2.238 -0.0882  0.2606  0.1478
  570MOL0     C78532   4.416   7.907   2.205 -0.0798  0.0870 -0.4018
  570MOL0     C78533   4.399   8.052   2.153 -0.7957 -0.2125  0.1281
  570MOL0     C78534   4.530   8.114   2.095 -0.0653  0.6165 -0.1833
  570MOL0     C78535   4.508   8.259   2.068  0.6696  0.1070 -0.3795
  570MOL0     C78536   4.625   8.341   2.008  0.2409  0.4552  0.2459
  570MOL0     C78537   4.593   8.482   1.953 -0.5559 -0.0828  0.0883
  570MOL0     C78538   4.718   8.547   1.884  0.4601  0.5431 -0.3456
  570MOL0     N78539   4.775   8.620   1.993 -0.2169  0.3450  0.0527
  570MOL0     C78540   4.751   8.746   2.015 -0.0294  0.1568 -0.4593
  570MOL0     C78541   4.829   8.789   2.112 -0.4210  0.2025 -0.0944
  570MOL0     C78542   4.843   8.920   2.186  0.4356  0.4386  0.2216
  570MOL0     C78543   4.800   8.903   2.338 -0.0906  0.0622  0.6381
  570MOL0     C78544   4.652   8.939   2.371  0.4151 -0.8091 -0.0968
  570MOL0     C78545   4.605   9.078   2.325 -1.3346  0.3157 -0.0455
  570MOL0     O78546   4.484   9.117   2.385  0.4385  0.5639 -0.0106
  570MOL0     C78547   4.377   9.046   2.350  0.0081 -0.8178  0.3815
  570MOL0     C78548   4.366   8.956   2.240 -0.0028 -0.3568 -0.4534
  570MOL0     C78549   4.248   8.887   2.200  0.5198 -0.1305 -0.3573
  570MOL0     C78550   4.248   8.780   2.092  0.2399 -0.8283  0.1445
  570MOL0     C78551   4.125   8.926   2.251  0.4064  0.6476  0.1662
  570MOL0     C78552   3.993   8.874   2.207 -0.7501  0.5078  0.1363
  570MOL0     O78553   3.926   8.935   2.101  0.0361  0.6488  0.1010
  570MOL0     C78554   3.799   8.902   2.071 -0.6498  0.6605  0.6802
  570MOL0     C78555   3.772   8.874   1.945 -0.3658 -0.0806  0.3121
  570MOL0     C78556   3.648   8.853   1.908  0.6966  0.3808  0.3028
  570MOL0     C78557   3.539   8.860   1.997  1.0378  0.5715 -0.5855
  570MOL0     O78558   3.406   8.849   1.964  0.0979  0.1919 -0.2209
  570MOL0     C78559   3.375   8.797   1.834 -0.0537  0.7503  0.7979
  570MOL0     C78560   3.220   8.778   1.818 -0.2849  1.1225 -0.1284
  570MOL0     C78561   3.176   8.743   1.680  0.4179 -0.3964  0.8440
  570MOL0     C78562   3.029   8.700   1.663 -0.5173  0.1136  0.3480
  570MOL0     C78563   2.989   8.681   1.514 -0.2617  0.2876  0.6244
  570MOL0     C78564   2.863   8.611   1.503  0.9727  0.9226 -0.6109
  570MOL0     C78565   2.800   8.610   1.361  0.1795  0.3659  0.4904
  570MOL0     C78566   2.698   8.501   1.354 -0.0198  1.0636 -0.6886
  570MOL0    Cl78567   2.613   8.510   1.212 -0.2107 -0.5868  0.3263
  570MOL0     C78568   3.562   8.885   2.132  0.0893  0.1410 -0.0683
  570MOL0     C78569   3.699   8.897   2.166  0.3281  0.0672  0.1713
  570MOL0     O78570   3.941   8.797   2.292 -0.2943 -0.0637 -0.2090
  570MOL0     C78571   4.132   9.022   2.355 -0.1287  1.0695 -0.2339
  570MOL0     C78572   4.256   9.085   2.400 -0.2268 -0.1462  0.6722
  570MOL0     N78573   4.918   8.678   2.137 -0.3275 -0.9110  0.5126
  570MOL0     N78574   4.888   8.580   2.059 -0.4766 -0.2899  0.4168
  570MOL0     C78575   4.078   7.660   2.075 -0.2839 -0.0014 -0.0957
  570MOL0     C78576   3.965   7.570   2.083  0.1291  0.1285 -0.8573
  570MOL0     C78577   3.507   7.487   2.086  0.1525  0.4523 -0.5221
  570MOL0     C78578   3.389   7.544   2.032 -0.3421 -0.3253  0.7165
  570MOL0     C78579   3.266   7.489   2.073 -0.2513  0.4266 -0.5578
  570MOL0     C78580   3.250   7.393   2.172  1.0508 -0.1081 -0.3712
  570MOL0     O78581   3.124   7.358   2.217  0.5824  0.1535 -0.0181
  570MOL0     C78582   3.115   7.308   2.350  0.0092 -0.2997  0.2720
  570MOL0     C78583   2.967   7.301   2.366  1.1305 -0.4733  0.5465
  570MOL0     C78584   2.888   7.437   2.352  0.2373  0.1768 -0.2655
  570MOL0     C78585   2.742   7.410   2.384 -0.8631  0.1052 -0.1205
  570MOL0     C78586   2.669   7.533   2.353  0.3644 -0.8036 -0.0298
  570MOL0     C78587   2.600   7.629   2.325 -0.2773 -0.1305  0.1891
  570MOL0     C78588   3.376   7.345   2.224  0.1433 -0.4859 -0.0645
  570MOL0     C78589   3.501   7.375   2.173 -0.3591  0.1166 -0.8746
  570MOL0     C78590   3.628   7.304   2.219  0.2255  0.0955 -0.4747
  570MOL0     H78591   3.743   7.809   2.198  1.7438  1.2130  0.0818
  570MOL0     H78592   3.933   7.946   2.200  0.8511  0.0902 -0.8969
  570MOL0     H78593   4.294   7.732   2.257 -0.6086 -0.0147 -0.9388
  570MOL0     H78594   4.231   7.883   2.325 -0.7635  0.1008 -0.1420
  570MOL0     H78595   4.471   7.900   2.299 -0.3279  1.2112 -0.1644
  570MOL0     H78596   4.460   7.836   2.133 -2.2526  0.7711 -2.5279
  570MOL0     H78597   4.329   8.049   2.069 -1.7448 -2.0594  0.9445
  570MOL0     H78598   4.377   8.126   2.231 -0.2871  0.8096 -0.6637
  570MOL0     H78599   4.595   8.088   2.178 -0.5340  1.0505  0.3320
  570MOL0     H78600   4.579   8.055   2.017 -1.9620 -2.7455  0.9392
  570MOL0     H78601   4.484   8.305   2.165 -0.4245  0.5616 -0.8392
  570MOL0     H78602   4.424   8.259   1.998  0.9042  3.3013 -0.8054
  570MOL0     H78603   4.706   8.360   2.078  2.7781  2.4896 -2.9630
  570MOL0     H78604   4.669   8.277   1.931  1.1647 -0.2617  1.3459
  570MOL0     H78605   4.550   8.548   2.029 -1.9353 -0.6944 -0.1277
  570MOL0     H78606   4.517   8.473   1.874 -0.6354 -2.9794  0.3792
  570MOL0     H78607   4.780   8.471   1.835 -1.9759 -0.3775 -2.2068
  570MOL0     H78608   4.692   8.611   1.799  0.2076  1.9796  0.7835
  570MOL0     H78609   4.669   8.804   1.974 -2.3854 -0.2455  3.2097
  570MOL0     H78610   4.788   8.994   2.127  3.9796  2.1258 -1.2466
  570MOL0     H78611   4.941   8.964   2.167 -0.7623  2.3794 -2.0032
  570MOL0     H78612   4.820   8.801   2.372  3.1404  0.3857  0.0450
  570MOL0     H78613   4.864   8.973   2.393  1.8337 -0.8445 -0.3554
  570MOL0     H78614   4.591   8.860   2.326  0.1438 -0.1837 -0.8523
  570MOL0     H78615   4.638   8.931   2.479 -1.1887  2.0967  0.0068
  570MOL0     H78616   4.682   9.149   2.356 -0.3134 -0.7891  0.0092
  570MOL0     H78617   4.603   9.075   2.216 -1.2115 -1.6863 -0.0344
  570MOL0     H78618   4.450   8.941   2.174  1.6169  2.5613  0.7425
  570MOL0     H78619   4.195   8.687   2.114  0.0964 -0.7797  0.0048
  570MOL0     H78620   4.350   8.740   2.083  0.6183  0.1176  0.0938
  570MOL0     H78621   4.200   8.816   2.000 -1.2409 -0.2020  1.1199
  570MOL0     H78622   3.848   8.889   1.868  0.7012  0.4272  1.4305
  570MOL0     H78623   3.629   8.848   1.801 -2.5316  1.0747  0.7311
  570MOL0     H78624   3.401   8.860   1.748 -0.0159  0.2457  0.4269
  570MOL0     H78625   3.415   8.699   1.805 -0.4801  0.3396  1.5817
  570MOL0     H78626   3.177   8.700   1.881  1.1222  1.3544  1.1836
  570MOL0     H78627   3.170   8.870   1.850  0.6051  0.8748  2.1420
  570MOL0     H78628   3.233   8.658   1.638  0.1835  0.5698 -1.5960
  570MOL0     H78629   3.174   8.841   1.632 -2.9234 -0.0869  1.4064
  570MOL0     H78630   2.961   8.776   1.702 -4.2472  0.0147 -4.9076
  570MOL0     H78631   3.017   8.603   1.711  0.3678 -0.0241  0.3056
  570MOL0     H78632   2.979   8.781   1.470  1.2087  0.4346  0.5576
  570MOL0     H78633   3.064   8.620   1.463 -1.1255 -0.0008 -0.3260
  570MOL0     H78634   2.796   8.662   1.574  1.6856 -1.0550  1.5954
  570MOL0     H78635   2.875   8.510   1.542 -2.1839  0.8361  0.4074
  570MOL0     H78636   2.867   8.578   1.281 -1.9630 -3.7308  0.0982
  570MOL0     H78637   2.761   8.712   1.351 -2.1662 -0.2434  2.4296
  570MOL0     H78638   2.636   8.512   1.444 -2.0891 -1.4797 -1.6862
  570MOL0     H78639   2.735   8.398   1.364 -0.8054  0.9282  1.4247
  570MOL0     H78640   3.486   8.893   2.208 -1.8475 -0.6764 -1.8240
  570MOL0     H78641   3.725   8.918   2.269 -1.5489 -0.4320  0.7904
  570MOL0     H78642   4.035   9.052   2.394 -0.6217 -0.8846  0.1587
  570MOL0     H78643   4.244   9.152   2.484 -0.5823  1.1102 -0.3368
  570MOL0     H78644   4.176   7.623   2.047  1.2652  1.4653  2.8641
  570MOL0     H78645   3.973   7.465   2.057  0.1468 -0.1600  0.2388
  570MOL0     H78646   3.387   7.619   1.954 -0.1019 -1.5171 -0.4747
  570MOL0     H78647   3.170   7.503   2.025 -0.7091 -2.6014 -0.6997
  570MOL0     H78648   3.165   7.212   2.367 -0.0148 -0.6257 -1.2847
  570MOL0     H78649   3.165   7.383   2.412 -0.8859  1.4122 -0.9808
  570MOL0     H78650   2.964   7.275   2.473  2.2271 -0.3652  0.6179
  570MOL0     H78651   2.919   7.218   2.313 -1.2557 -1.4715  3.9080
  570MOL0     H78652   2.929   7.509   2.424  1.7291  0.5688 -1.4643
  570MOL0     H78653   2.889   7.481   2.252 -0.3567 -2.4728 -1.5402
  570MOL0     H78654   2.731   7.397   2.492  0.6106  2.0161  0.3068
  570MOL0     H78655   2.707   7.326   2.322  0.7924 -1.4450  0.9623
  570MOL0     H78656   2.545   7.718   2.302  1.0985 -0.1417 -3.9009
  570MOL0     H78657   3.378   7.279   2.310 -2.2734 -0.4756  0.0607
  570MOL0     H78658   3.719   7.328   2.162 -1.2731  2.4851 -2.0319
  570MOL0     H78659   3.648   7.325   2.324 -0.1169 -0.6341 -0.2642
  570MOL0     H78660   3.619   7.196   2.210 -2.3096  0.1843  0.3499
  571MOL0     O78661  10.072   6.358   5.146 -0.1104  0.1221 -0.4274
  571MOL0     C78662  10.146   6.348   5.052  0.4811 -0.1587  0.8849
  571MOL0     O78663  10.259   6.421   5.023 -0.1927  0.7085 -0.1045
  571MOL0     C78664  10.279   6.528   5.105  0.5767 -0.4567 -0.7965
  571MOL0     C78665  10.399   6.538   5.171 -0.9604  0.4665 -0.5557
  571MOL0     C78666  10.438   6.651   5.242  0.5287 -0.2732  0.2235
  571MOL0     C78667  10.350   6.766   5.250  0.7925 -0.0804  0.1844
  571MOL0     O78668  10.372   6.885   5.319 -0.5590 -0.6964 -0.0393
  571MOL0     C78669  10.470   6.873   5.429  0.0502  1.5222  1.1845
  571MOL0     C78670  10.449   7.011   5.497 -0.0693 -0.3259  0.0686
  571MOL0     C78671  10.324   7.006   5.583 -0.5404 -0.0489 -0.3265
  571MOL0     C78672  10.183   7.006   5.528 -0.4238  0.0152 -0.4598
  571MOL0     C78673  10.081   7.034   5.633 -0.0636  0.7132 -0.4417
  571MOL0     C78674   9.950   7.070   5.566  0.2602 -0.1156 -0.0911
  571MOL0     C78675   9.947   7.212   5.519 -1.1334 -0.7308 -0.1673
  571MOL0     C78676   9.846   7.233   5.400  0.0224  0.3230 -0.7322
  571MOL0     N78677   9.877   7.151   5.282 -0.4598  0.2109  0.9305
  571MOL0     C78678   9.789   7.058   5.230  0.1854  0.8029 -0.8744
  571MOL0     C78679   9.868   6.993   5.142  0.3305 -1.2249  0.6093
  571MOL0     C78680   9.821   6.872   5.070 -0.9057  1.0635 -0.6343
  571MOL0     C78681   9.677   6.887   5.024  0.4495 -0.2094  0.1664
  571MOL0     C78682   9.642   6.758   4.940 -0.5704 -0.1401  0.2848
  571MOL0     C78683   9.501   6.750   4.913  0.8676 -0.4911  0.2551
  571MOL0     O78684   9.435   6.693   5.025  0.2585 -0.6468 -0.2969
  571MOL0     C78685   9.302   6.658   5.003 -0.5486 -0.0421  0.7354
  571MOL0     C78686   9.228   6.711   4.901  1.6456 -0.6150 -0.1274
  571MOL0     C78687   9.097   6.661   4.882  0.1114  0.1248 -1.3179
  571MOL0     C78688   9.023   6.716   4.764 -0.6214  0.4913 -0.6259
  571MOL0     C78689   9.045   6.563   4.971  0.3435  0.2044 -0.3266
  571MOL0     C78690   8.900   6.512   4.963 -0.1959 -0.0551  0.2283
  571MOL0     O78691   8.813   6.564   4.865  0.2965 -0.0109  0.0395
  571MOL0     C78692   8.679   6.562   4.890  0.2315  0.1587  0.1389
  571MOL0     C78693   8.620   6.571   5.010  0.1184  0.4403 -0.5554
  571MOL0     C78694   8.482   6.581   5.028 -1.1287 -0.1292 -0.2515
  571MOL0     C78695   8.397   6.572   4.919  0.1177 -0.0699 -0.5612
  571MOL0     O78696   8.264   6.580   4.941 -0.7276  0.1252  0.0357
  571MOL0     C78697   8.161   6.590   4.840  0.4413 -0.2931 -0.7046
  571MOL0     C78698   8.030   6.648   4.912 -0.3220 -0.1985 -0.0197
  571MOL0     C78699   8.061   6.790   4.961 -0.3162  0.2955 -0.4820
  571MOL0     C78700   7.916   6.857   4.984  0.5309 -0.7374  0.8526
  571MOL0     C78701   7.830   6.781   5.090 -0.6473  0.2266  0.4033
  571MOL0     C78702   7.684   6.824   5.115  0.8157 -0.7230 -0.1544
  571MOL0     C78703   7.670   6.969   5.155  0.0557  0.4065 -0.2461
  571MOL0     C78704   7.530   7.002   5.188  0.5344 -0.2892 -0.0395
  571MOL0    Cl78705   7.442   6.875   5.293 -0.2090 -0.1804 -0.2486
  571MOL0     C78706   8.459   6.556   4.795  0.4486  0.3522  0.0111
  571MOL0     C78707   8.595   6.552   4.780 -0.3588 -1.1453 -0.0227
  571MOL0     O78708   8.865   6.426   5.044 -0.1201 -0.6337  0.6144
  571MOL0     C78709   9.117   6.530   5.085  0.7238  0.0327  0.8627
  571MOL0     C78710   9.258   6.560   5.089  0.4436  0.4718 -0.2009
  571MOL0     N78711   9.997   7.044   5.136  0.1771 -0.4127  0.3463
  571MOL0     N78712   9.999   7.143   5.218 -0.2268  0.1362 -0.3370
  571MOL0     C78713  10.234   6.755   5.180  0.1438  0.1173  0.3579
  571MOL0     C78714  10.191   6.639   5.110 -0.4595 -0.2585  0.3201
  571MOL0     C78715  10.123   6.238   4.952  0.2863  0.3758 -0.1726
  571MOL0     C78716   9.994   6.220   4.903  0.5106  0.2836  0.2365
  571MOL0     C78717   9.975   6.142   4.780  0.0770 -0.3515 -0.7873
  571MOL0     C78718  10.073   6.076   4.720 -0.0128  0.1765 -0.7532
  571MOL0     O78719  10.042   5.998   4.613 -0.1719  0.2487  0.1593
  571MOL0     C78720  10.142   5.916   4.550  0.4441  0.3268 -0.1167
  571MOL0     C78721  10.095   5.859   4.413 -0.2368 -0.3755 -0.4151
  571MOL0     C78722   9.947   5.815   4.398  0.9048  0.4664 -0.5288
  571MOL0     C78723   9.848   5.926   4.358  0.4286  0.8657 -0.3866
  571MOL0     C78724   9.710   5.866   4.356 -0.2448 -0.1074 -0.0901
  571MOL0     C78725   9.602   5.812   4.344 -0.5502 -0.4251  1.1309
  571MOL0     C78726  10.203   6.079   4.781 -0.2879  0.5646  0.2474
  571MOL0     C78727  10.237   6.162   4.896 -0.4273  0.4385  0.2566
  571MOL0     C78728  10.382   6.177   4.926  1.0500  0.1693 -0.5727
  571MOL0     H78729  10.446   6.441   5.181 -1.9138  0.1237  1.0546
  571MOL0     H78730  10.534   6.658   5.293 -1.5887 -1.6150  4.8875
  571MOL0     H78731  10.570   6.858   5.388  0.7088 -0.3049  3.3035
  571MOL0     H78732  10.452   6.794   5.502  0.1012 -2.7846 -2.9884
  571MOL0     H78733  10.537   7.051   5.548 -1.0998  1.0932  0.8028
  571MOL0     H78734  10.438   7.086   5.418  0.0960 -0.1858  0.1796
  571MOL0     H78735  10.329   6.931   5.662  0.9520  1.0702  0.6990
  571MOL0     H78736  10.329   7.106   5.627 -2.8466 -0.3908  0.8967
  571MOL0     H78737  10.171   7.082   5.450 -0.0905 -0.0977 -0.6227
  571MOL0     H78738  10.169   6.914   5.472  2.4578 -0.1118 -1.1386
  571MOL0     H78739  10.113   7.112   5.702 -1.4967 -0.6731  1.9228
  571MOL0     H78740  10.057   6.945   5.692 -0.3517 -0.8579 -2.7653
  571MOL0     H78741   9.935   6.994   5.488 -0.8321 -0.5128  0.4794
  571MOL0     H78742   9.875   7.047   5.642  0.8572 -2.5986 -0.1702
  571MOL0     H78743  10.042   7.247   5.477 -1.5762  1.0089  0.2086
  571MOL0     H78744   9.920   7.275   5.604  1.1176  1.9949 -1.3339
  571MOL0     H78745   9.745   7.204   5.433  1.0002 -1.3371  1.0544
  571MOL0     H78746   9.842   7.340   5.381  1.5418  0.4292 -0.5072
  571MOL0     H78747   9.689   7.031   5.263  1.5316 -2.6729  0.8550
  571MOL0     H78748   9.836   6.780   5.127  1.9584  2.3247  0.8432
  571MOL0     H78749   9.878   6.853   4.979 -0.8204 -3.7630  0.1525
  571MOL0     H78750   9.612   6.888   5.112  3.5641 -0.0364  2.6025
  571MOL0     H78751   9.661   6.976   4.963 -2.0727 -0.1858  0.7290
  571MOL0     H78752   9.692   6.766   4.843 -0.8785 -2.1250 -0.0684
  571MOL0     H78753   9.670   6.663   4.985 -0.2216 -1.4659 -2.5258
  571MOL0     H78754   9.460   6.849   4.891 -0.2121 -1.2883 -1.4612
  571MOL0     H78755   9.485   6.688   4.825 -1.9018  1.6276 -0.8886
  571MOL0     H78756   9.264   6.793   4.839 -0.4298  1.5096  1.2685
  571MOL0     H78757   9.074   6.802   4.722  0.4395 -0.2965 -0.9924
  571MOL0     H78758   8.918   6.741   4.785 -2.3589 -5.4318 -0.3837
  571MOL0     H78759   9.026   6.636   4.689 -0.6019 -1.1733  1.0689
  571MOL0     H78760   8.675   6.579   5.103 -2.0271 -0.0334  0.8245
  571MOL0     H78761   8.439   6.597   5.126 -0.7141 -3.1632  0.5245
  571MOL0     H78762   8.196   6.657   4.762  1.4274  1.9433  1.5356
  571MOL0     H78763   8.140   6.487   4.809  0.8764 -0.4838 -0.3714
  571MOL0     H78764   7.941   6.644   4.848  1.0441 -0.7728 -1.9502
  571MOL0     H78765   8.018   6.579   4.997 -1.9155 -0.3554 -0.3270
  571MOL0     H78766   8.117   6.833   4.878 -0.0131 -3.9213 -2.7368
  571MOL0     H78767   8.123   6.787   5.051  0.2266  3.4092 -0.6337
  571MOL0     H78768   7.866   6.849   4.887  0.5296 -0.5941  0.8402
  571MOL0     H78769   7.913   6.965   5.005 -1.4107 -0.5019 -0.3902
  571MOL0     H78770   7.839   6.673   5.076 -2.1352  0.2519 -1.1413
  571MOL0     H78771   7.873   6.806   5.187  1.0418  2.3642 -0.8119
  571MOL0     H78772   7.648   6.765   5.199  0.8100 -2.1234 -1.1025
  571MOL0     H78773   7.613   6.810   5.033  0.0646  0.0311  0.3490
  571MOL0     H78774   7.688   7.034   5.070  0.5685 -0.6239 -0.9515
  571MOL0     H78775   7.734   6.989   5.242 -2.2103 -1.7225  2.1254
  571MOL0     H78776   7.469   7.016   5.099 -1.1770 -1.2858  0.9289
  571MOL0     H78777   7.523   7.095   5.245  1.4685 -0.8378  1.0124
  571MOL0     H78778   8.391   6.535   4.713  0.8537  1.7175 -0.6983
  571MOL0     H78779   8.625   6.541   4.677  0.6031  1.2931 -0.0749
  571MOL0     H78780   9.078   6.457   5.156 -2.0526  0.7201  0.1846
  571MOL0     H78781   9.321   6.529   5.171 -1.0338  1.2970  1.3102
  571MOL0     H78782  10.184   6.851   5.170 -0.7318 -0.2462  1.0601
  571MOL0     H78783  10.092   6.622   5.067 -0.9091 -0.5022  1.4200
  571MOL0     H78784   9.913   6.288   4.928 -0.8357 -1.2281  0.1495
  571MOL0     H78785   9.879   6.138   4.730  0.9393 -1.9101 -2.4749
  571MOL0     H78786  10.240   5.961   4.529  1.4326 -1.4051  0.4930
  571MOL0     H78787  10.168   5.837   4.621 -1.5955 -0.4065 -0.1247
  571MOL0     H78788  10.150   5.766   4.399 -1.5887 -1.2585 -0.1061
  571MOL0     H78789  10.120   5.927   4.331 -1.2591  0.1402 -0.3147
  571MOL0     H78790   9.936   5.726   4.335  0.3495 -0.7394  1.1860
  571MOL0     H78791   9.911   5.780   4.496 -0.1357  1.5973 -0.4809
  571MOL0     H78792   9.867   5.965   4.258 -0.5145  1.7301 -0.2431
  571MOL0     H78793   9.849   6.012   4.426 -2.4134 -0.0798  1.0591
  571MOL0     H78794   9.509   5.763   4.323 -1.7870  2.1936 -0.0075
  571MOL0     H78795  10.289   6.026   4.742 -0.1412 -0.9071  2.3739
  571MOL0     H78796  10.445   6.097   4.886  1.6798  0.0273  0.6458
  571MOL0     H78797  10.418   6.273   4.887 -2.8955  1.6029 -1.1061
  571MOL0     H78798  10.392   6.170   5.035 -0.5062 -1.8410 -0.4900
  572MOL0     O78799   0.025   6.039   3.702  0.1261  0.0213  0.0056
  572MOL0     C78800   0.002   5.919   3.684 -0.5616 -0.5897  0.3080
  572MOL0     O78801   0.088   5.821   3.682 -0.5808  0.7964  0.4898
  572MOL0     C78802   0.217   5.847   3.678  0.3975  0.2351  0.7988
  572MOL0     C78803   0.299   5.762   3.740 -0.5975 -0.5505  0.0163
  572MOL0     C78804   0.434   5.767   3.732 -0.1287  0.3053 -0.2820
  572MOL0     C78805   0.495   5.861   3.651  0.2537  0.1506  0.0536
  572MOL0     O78806   0.628   5.862   3.641 -0.3753  0.2944 -0.8190
  572MOL0     C78807   0.678   5.896   3.511  0.4118  0.0259 -0.1903
  572MOL0     C78808   0.820   5.844   3.498  0.2158  0.2165 -0.1863
  572MOL0     C78809   0.901   5.862   3.626 -0.4939  0.4259  0.5297
  572MOL0     C78810   1.053   5.842   3.606  0.5139 -0.3330 -0.8608
  572MOL0     C78811   1.130   5.962   3.551  0.2104 -0.0097 -0.1483
  572MOL0     C78812   1.279   5.931   3.552  0.0132 -0.3674  0.5668
  572MOL0     C78813   1.363   6.046   3.587  0.4379 -0.7576 -0.0072
  572MOL0     C78814   1.522   6.033   3.547  0.9656 -0.3277 -0.8120
  572MOL0     N78815   1.601   5.923   3.609 -0.1663  0.4808 -0.2997
  572MOL0     C78816   1.571   5.877   3.737  0.2321 -0.4370 -0.2268
  572MOL0     C78817   1.639   5.764   3.751  0.4688 -0.0679 -0.4615
  572MOL0     C78818   1.674   5.693   3.888 -0.3731 -0.1206 -0.6081
  572MOL0     C78819   1.725   5.549   3.859 -0.2800 -0.4203  0.0788
  572MOL0     C78820   1.619   5.460   3.802  0.6474 -0.7268 -0.1118
  572MOL0     C78821   1.674   5.318   3.793  0.1322  0.0739  0.0786
  572MOL0     O78822   1.794   5.312   3.714 -0.1279  0.4752  0.5585
  572MOL0     C78823   1.893   5.215   3.736  0.1436 -0.2666  0.2257
  572MOL0     C78824   1.890   5.118   3.837 -0.2510  0.3571 -0.0523
  572MOL0     C78825   2.007   5.045   3.870  0.0208  0.8703 -0.9846
  572MOL0     C78826   1.993   4.938   3.982 -0.6482 -0.9705  0.1321
  572MOL0     C78827   2.130   5.072   3.788 -0.3661 -0.2720  0.6355
  572MOL0     C78828   2.256   4.991   3.797  1.1157 -0.2150 -0.5111
  572MOL0     O78829   2.369   5.048   3.747 -0.3497 -0.4697  0.4798
  572MOL0     C78830   2.489   5.007   3.805  0.3095 -0.0938 -0.6949
  572MOL0     C78831   2.598   4.978   3.730 -0.2481  0.4738  0.4533
  572MOL0     C78832   2.719   4.941   3.793  0.2049 -0.0327  0.6300
  572MOL0     C78833   2.726   4.935   3.929 -0.1500  0.0011  0.0469
  572MOL0     O78834   2.855   4.905   3.978  0.1098  0.1640  0.4435
  572MOL0     C78835   2.877   4.938   4.122  0.3631  0.3990  0.6333
  572MOL0     C78836   3.025   4.949   4.141  0.1213  0.8326 -0.2670
  572MOL0     C78837   3.045   4.966   4.293 -0.7138  0.5608  0.6993
  572MOL0     C78838   3.197   4.998   4.319  0.4521  0.3636 -0.9074
  572MOL0     C78839   3.232   5.001   4.471  0.1999  0.3319 -0.1096
  572MOL0     C78840   3.386   5.012   4.493 -0.0622  0.2377 -0.6132
  572MOL0     C78841   3.410   5.000   4.645 -1.3080 -0.5612 -0.5786
  572MOL0     C78842   3.564   5.008   4.685  0.0707  0.3786  0.5995
  572MOL0    Cl78843   3.655   5.148   4.621 -0.1223  0.2001 -0.4172
  572MOL0     C78844   2.621   4.975   4.004  0.1049  0.2781  0.1307
  572MOL0     C78845   2.504   5.010   3.947  0.7480 -0.5465  1.0541
  572MOL0     O78846   2.254   4.893   3.867 -0.3734 -0.0896  0.5924
  572MOL0     C78847   2.125   5.176   3.691  0.6380  0.1697  0.1924
  572MOL0     C78848   2.014   5.242   3.667  0.2586  0.7393 -0.7478
  572MOL0     N78849   1.682   5.730   3.625 -0.3214 -0.0490  0.3728
  572MOL0     N78850   1.656   5.824   3.539  0.5510 -0.1540 -0.8648
  572MOL0     C78851   0.419   5.955   3.577  0.4378  0.1049  0.4044
  572MOL0     C78852   0.278   5.941   3.584  0.4873 -0.6709 -0.6371
  572MOL0     C78853  -0.141   5.877   3.684 -0.4131  0.6000  0.1853
  572MOL0     C78854  -0.241   5.971   3.641 -0.1794 -0.3567 -0.2667
  572MOL0     C78855  -0.378   5.948   3.650  0.3093  0.7113 -0.0695
  572MOL0     C78856  -0.432   5.819   3.689 -0.5503 -1.0063  0.1540
  572MOL0     O78857  -0.559   5.766   3.676 -0.7765  0.3176  0.6240
  572MOL0     C78858  -0.659   5.861   3.661  0.1816 -0.2431  0.7686
  572MOL0     C78859  -0.796   5.814   3.707 -0.4490  0.8303 -0.5821
  572MOL0     C78860  -0.792   5.776   3.858 -0.8540  0.7289 -0.0397
  572MOL0     C78861  -0.859   5.869   3.942 -0.7478 -0.5694  0.4040
  572MOL0     C78862  -0.826   6.014   3.930  0.2140 -1.3382  0.1195
  572MOL0     C78863  -0.787   6.124   3.944 -0.1709 -0.1552  0.0132
  572MOL0     C78864  -0.334   5.727   3.720  0.6285 -0.1578  1.3030
  572MOL0     C78865  -0.189   5.750   3.723 -0.3649 -0.0263 -0.3141
  572MOL0     C78866  -0.109   5.642   3.777 -0.8687  0.5580 -0.5477
  572MOL0     H78867   0.250   5.690   3.805 -2.3793 -1.1924 -1.9330
  572MOL0     H78868   0.491   5.701   3.797  1.3119  0.1285 -1.6550
  572MOL0     H78869   0.687   6.004   3.493 -4.1048  0.4372 -1.1676
  572MOL0     H78870   0.611   5.861   3.432 -2.5555  3.3854  0.5403
  572MOL0     H78871   0.815   5.736   3.480  1.1915 -0.0289  0.8521
  572MOL0     H78872   0.865   5.894   3.412 -0.5999 -1.6730 -1.8007
  572MOL0     H78873   0.878   5.956   3.677  1.3062  0.1212  2.0096
  572MOL0     H78874   0.877   5.775   3.688 -0.8143  0.3667  0.3276
  572MOL0     H78875   1.099   5.829   3.705 -2.0841  0.9766  0.6193
  572MOL0     H78876   1.079   5.748   3.557  0.5974 -0.4989 -0.5041
  572MOL0     H78877   1.115   6.036   3.630  1.4594  1.1025 -0.9188
  572MOL0     H78878   1.096   5.991   3.451 -0.1932  1.5696  0.4147
  572MOL0     H78879   1.302   5.846   3.618  0.4134 -0.7588 -0.0708
  572MOL0     H78880   1.301   5.904   3.449 -0.7503 -0.7733  0.5051
  572MOL0     H78881   1.355   6.054   3.696 -3.2388 -1.7489 -0.0540
  572MOL0     H78882   1.330   6.142   3.546  3.2818  0.6332  0.6688
  572MOL0     H78883   1.527   6.015   3.439  1.6980 -0.3893 -0.7782
  572MOL0     H78884   1.572   6.128   3.568 -0.6858  0.5294 -0.6043
  572MOL0     H78885   1.497   5.931   3.796 -1.4138 -0.2888 -2.2833
  572MOL0     H78886   1.583   5.686   3.947 -0.7140 -1.9797 -1.2668
  572MOL0     H78887   1.750   5.758   3.932  0.1070 -1.4601  0.6069
  572MOL0     H78888   1.812   5.551   3.793 -0.2581 -0.7936  0.0939
  572MOL0     H78889   1.768   5.500   3.947  0.6336 -0.5148 -0.4050
  572MOL0     H78890   1.524   5.468   3.856  1.0213  0.2813  0.4159
  572MOL0     H78891   1.602   5.500   3.701  2.9271 -0.7046 -0.5257
  572MOL0     H78892   1.698   5.293   3.897  1.4775 -0.6958 -0.3930
  572MOL0     H78893   1.611   5.230   3.774 -1.0770  0.2399  2.8265
  572MOL0     H78894   1.797   5.095   3.889  0.8889 -2.2459  1.0138
  572MOL0     H78895   2.086   4.953   4.037 -0.9875 -0.4618  0.5748
  572MOL0     H78896   1.992   4.836   3.943 -3.1041 -1.0178  0.1603
  572MOL0     H78897   1.912   4.956   4.054  0.6403  3.5279  0.8030
  572MOL0     H78898   2.580   4.977   3.623 -1.6148 -0.4651  0.6656
  572MOL0     H78899   2.813   4.912   3.747  0.4503 -0.6543  1.5132
  572MOL0     H78900   2.831   5.035   4.142 -0.1461  0.1371  0.7473
  572MOL0     H78901   2.832   4.856   4.179 -0.9140  0.7732  0.2123
  572MOL0     H78902   3.074   4.858   4.104  2.6114  0.9600  2.3651
  572MOL0     H78903   3.075   5.030   4.088  0.7854  0.7183  0.1738
  572MOL0     H78904   3.018   4.877   4.351 -0.0353 -1.7210 -2.2863
  572MOL0     H78905   2.977   5.047   4.323 -1.7068  0.2807 -0.7003
  572MOL0     H78906   3.233   5.097   4.288 -0.2421  1.5751  1.7981
  572MOL0     H78907   3.253   4.932   4.253  0.7039  1.4923 -1.8462
  572MOL0     H78908   3.198   5.098   4.507  2.4847  1.1712 -0.0789
  572MOL0     H78909   3.184   4.923   4.532  0.6451 -1.7982 -2.3065
  572MOL0     H78910   3.433   5.097   4.442  0.8071 -1.0500 -2.0347
  572MOL0     H78911   3.431   4.923   4.447  0.5906  1.1617 -1.8253
  572MOL0     H78912   3.374   4.900   4.670  1.0516 -1.8953 -2.1144
  572MOL0     H78913   3.360   5.074   4.708  2.2809  1.8813 -0.2870
  572MOL0     H78914   3.604   4.917   4.638 -1.4062  1.0122 -2.1231
  572MOL0     H78915   3.570   4.994   4.793 -1.7030 -3.3946  0.3756
  572MOL0     H78916   2.631   4.977   4.112  0.4990 -0.4556  0.1155
  572MOL0     H78917   2.420   5.042   4.008  0.7758  2.8843 -0.4487
  572MOL0     H78918   2.211   5.200   3.630  1.1293  0.3178  0.9231
  572MOL0     H78919   2.027   5.320   3.593 -0.0342  0.2042 -1.3803
  572MOL0     H78920   0.463   6.020   3.502  2.2353 -1.0935  0.3580
  572MOL0     H78921   0.204   5.988   3.519 -2.0165 -1.9710  1.1024
  572MOL0     H78922  -0.191   6.056   3.596 -1.3321  1.2215  1.3107
  572MOL0     H78923  -0.449   6.026   3.625  1.3063  2.2035  1.5904
  572MOL0     H78924  -0.642   5.939   3.736 -0.0213 -1.0855  1.7189
  572MOL0     H78925  -0.673   5.906   3.562  0.0717 -0.2691  0.7715
  572MOL0     H78926  -0.828   5.721   3.660  5.3534 -0.6210 -2.5539
  572MOL0     H78927  -0.867   5.891   3.679 -0.5508 -0.8315 -6.0498
  572MOL0     H78928  -0.830   5.676   3.877  1.8645 -0.0655  1.8005
  572MOL0     H78929  -0.690   5.772   3.897 -1.1791 -0.5677  0.6909
  572MOL0     H78930  -0.829   5.826   4.038 -0.5949  1.3816  1.2794
  572MOL0     H78931  -0.966   5.849   3.937 -0.3339 -2.7793 -2.7985
  572MOL0     H78932  -0.749   6.222   3.963  3.5351 -1.5726  0.7199
  572MOL0     H78933  -0.371   5.631   3.757  1.1234 -0.4643  1.0107
  572MOL0     H78934  -0.165   5.565   3.831  2.7779 -0.2425  2.5092
  572MOL0     H78935  -0.041   5.601   3.701 -0.3781 -2.0633  1.1665
  572MOL0     H78936  -0.042   5.686   3.851 -1.4960  1.7305 -0.6600
  573MOL0     O78937   8.730   3.876   8.161 -0.7720 -0.4539 -0.6663
  573MOL0     C78938   8.709   3.756   8.180 -0.0844  0.5527  0.7023
  573MOL0     O78939   8.795   3.671   8.242 -0.2005 -0.3229  0.4678
  573MOL0     C78940   8.922   3.718   8.271  0.6277  1.3239 -0.0797
  573MOL0     C78941   8.975   3.698   8.405  0.4057 -0.2981  0.1925
  573MOL0     C78942   9.091   3.759   8.448  0.4046  0.3941  0.2807
  573MOL0     C78943   9.176   3.822   8.354 -0.0148  0.6975 -0.3104
  573MOL0     O78944   9.291   3.875   8.407 -0.3714  0.0313  0.3924
  573MOL0     C78945   9.398   3.886   8.316 -0.0216 -0.7238  0.1956
  573MOL0     C78946   9.522   3.907   8.413 -0.5456  0.1356  1.0294
  573MOL0     C78947   9.542   4.050   8.459 -1.0315  0.5525  0.4274
  573MOL0     C78948   9.682   4.062   8.533  0.7537 -0.5975 -0.4394
  573MOL0     C78949   9.799   4.030   8.442  0.9931  0.6219  0.0516
  573MOL0     C78950   9.927   4.096   8.484  0.3241 -0.1398 -0.4858
  573MOL0     C78951   9.978   4.027   8.610 -0.0945 -0.3378 -0.7903
  573MOL0     C78952  10.111   4.087   8.654 -0.6997 -0.0592  0.5201
  573MOL0     N78953  10.224   4.071   8.564  1.1463 -0.1874  0.4148
  573MOL0     C78954  10.296   3.960   8.552 -0.4934  0.0029  0.0800
  573MOL0     C78955  10.410   3.991   8.474  0.7075 -0.3221 -0.2555
  573MOL0     C78956  10.493   3.883   8.420 -0.3934  0.2860 -0.6867
  573MOL0     C78957  10.638   3.912   8.440  1.0319 -0.1971 -0.3298
  573MOL0     C78958  10.701   4.013   8.346  0.2763 -0.2090  0.2041
  573MOL0     C78959  10.837   4.051   8.409  1.2167 -0.9406  0.0164
  573MOL0     O78960  10.927   3.940   8.404 -0.3095  0.2847  0.0882
  573MOL0     C78961  11.051   3.953   8.457  0.3823  0.1272  0.3051
  573MOL0     C78962  11.138   3.845   8.448 -0.7159 -0.3643  0.5777
  573MOL0     C78963  11.268   3.844   8.496 -0.3108 -0.9643 -0.1348
  573MOL0     C78964  11.346   3.715   8.485 -0.3198  0.7840  0.4100
  573MOL0     C78965  11.316   3.966   8.558 -0.3819  0.8608  0.8562
  573MOL0     C78966  11.465   3.980   8.584 -0.0810  0.4199  0.5571
  573MOL0     O78967  11.561   3.926   8.498 -0.0518 -0.0813  0.8328
  573MOL0     C78968  11.695   3.916   8.530 -0.1531  0.5444  0.4058
  573MOL0     C78969  11.727   3.847   8.648 -0.6388  0.2679  0.1360
  573MOL0     C78970  11.859   3.808   8.682  0.0682 -0.5528  0.1740
  573MOL0     C78971  11.958   3.838   8.586 -0.1831 -0.3409  0.3797
  573MOL0     O78972  12.094   3.819   8.599 -0.0694 -0.1259 -0.7461
  573MOL0     C78973  12.158   3.825   8.727 -0.0510  0.3825  0.8915
  573MOL0     C78974  12.171   3.980   8.751  0.2182 -0.0607  0.2282
  573MOL0     C78975  12.231   4.004   8.891 -0.3202 -0.3614  0.2047
  573MOL0     C78976  12.233   4.155   8.924 -0.9848  0.7071 -0.0262
  573MOL0     C78977  12.331   4.183   9.040  0.4860  0.1028 -0.3518
  573MOL0     C78978  12.289   4.118   9.175  0.0201 -0.1071  0.5182
  573MOL0     C78979  12.368   4.190   9.285 -1.1783  0.0850  0.4387
  573MOL0     C78980  12.328   4.138   9.427 -0.1376  0.6330  0.9502
  573MOL0    Cl78981  12.338   3.959   9.418 -0.4941  0.3903 -0.3079
  573MOL0     C78982  11.923   3.907   8.467 -0.3347  0.0483 -0.0074
  573MOL0     C78983  11.794   3.938   8.440  0.0611 -0.2592 -0.2646
  573MOL0     O78984  11.495   4.026   8.691  0.1432 -0.5714  0.0264
  573MOL0     C78985  11.235   4.077   8.562  0.6626 -0.2774 -0.6501
  573MOL0     C78986  11.102   4.071   8.518  0.2637  0.4253  0.0670
  573MOL0     N78987  10.395   4.123   8.441 -0.2471  0.3956  0.0176
  573MOL0     N78988  10.287   4.170   8.498  0.2688  0.6612  0.0876
  573MOL0     C78989   9.127   3.835   8.223 -0.4786 -0.2861 -0.5785
  573MOL0     C78990   9.004   3.783   8.178  0.4001  0.0158  0.6439
  573MOL0     C78991   8.584   3.691   8.130  0.0095  0.2601  0.3284
  573MOL0     C78992   8.467   3.759   8.150 -0.7344 -0.2930  0.1562
  573MOL0     C78993   8.350   3.710   8.096  0.3984 -0.6885 -1.8138
  573MOL0     C78994   8.347   3.588   8.031  0.5597  0.1966 -0.2420
  573MOL0     O78995   8.230   3.532   7.986 -0.3681  0.0395  0.5897
  573MOL0     C78996   8.123   3.617   7.944  0.3179  0.3373 -0.2226
  573MOL0     C78997   8.031   3.545   7.843 -0.5448  0.2539  0.4291
  573MOL0     C78998   8.091   3.554   7.701 -0.1069 -0.3950  0.0394
  573MOL0     C78999   8.005   3.501   7.596 -0.6705  0.7169  0.0956
  573MOL0     C79000   8.081   3.468   7.473  0.0100 -0.1614 -0.1433
  573MOL0     C79001   8.152   3.450   7.375 -0.6150 -0.1349 -0.9430
  573MOL0     C79002   8.466   3.523   8.009  0.9630  0.7343 -0.8409
  573MOL0     C79003   8.580   3.572   8.055 -0.5623  0.2821  0.2796
  573MOL0     C79004   8.715   3.506   8.031  0.0812  0.5941  0.5802
  573MOL0     H79005   8.919   3.648   8.483 -0.3479  0.2546  0.0256
  573MOL0     H79006   9.118   3.747   8.553 -2.1967  1.9534  1.2074
  573MOL0     H79007   9.380   3.972   8.251  1.7209  0.5683  1.3558
  573MOL0     H79008   9.411   3.790   8.266 -2.3804 -0.8411 -0.3533
  573MOL0     H79009   9.509   3.842   8.500 -0.8465 -0.3797  0.6046
  573MOL0     H79010   9.607   3.873   8.353 -3.4519 -1.5678 -2.5966
  573MOL0     H79011   9.549   4.128   8.383  0.5775 -1.5551 -1.7606
  573MOL0     H79012   9.458   4.066   8.528 -1.2038 -0.9756  0.6136
  573MOL0     H79013   9.688   4.165   8.571 -0.0932 -0.1641 -1.4237
  573MOL0     H79014   9.680   3.997   8.621 -2.1539 -0.2541 -0.1347
  573MOL0     H79015   9.770   4.061   8.341  1.5718  0.9126 -0.0256
  573MOL0     H79016   9.816   3.922   8.453 -2.2479  0.1802  2.1351
  573MOL0     H79017  10.006   4.095   8.408  0.8775 -0.3070  0.0843
  573MOL0     H79018   9.900   4.201   8.502 -2.7661 -0.5808 -1.8798
  573MOL0     H79019   9.989   3.918   8.610  0.0813 -0.3239 -0.0658
  573MOL0     H79020   9.912   4.042   8.695  2.2004 -3.2173  1.7009
  573MOL0     H79021  10.087   4.194   8.659 -0.5413  0.1840 -2.1810
  573MOL0     H79022  10.133   4.046   8.753  2.9508 -1.3899 -0.6499
  573MOL0     H79023  10.283   3.860   8.591  1.0768  0.2781  1.3662
  573MOL0     H79024  10.468   3.876   8.314 -2.3084  1.9654 -0.4091
  573MOL0     H79025  10.474   3.789   8.472  1.1812 -0.5367 -1.5220
  573MOL0     H79026  10.658   3.942   8.543  0.7856 -1.2578  0.0388
  573MOL0     H79027  10.693   3.818   8.432  1.0708 -0.1644 -0.4490
  573MOL0     H79028  10.720   3.966   8.248  0.7009 -1.1361  0.7155
  573MOL0     H79029  10.629   4.095   8.355  0.6631 -0.0584  2.3208
  573MOL0     H79030  10.874   4.125   8.337 -2.8165  0.2028 -1.1297
  573MOL0     H79031  10.830   4.096   8.509 -0.0458  1.3822 -1.0495
  573MOL0     H79032  11.105   3.759   8.389  2.8612  0.3064 -2.8455
  573MOL0     H79033  11.425   3.719   8.560  2.5864  2.8604 -2.4652
  573MOL0     H79034  11.382   3.705   8.382  0.9923 -1.2357  1.0164
  573MOL0     H79035  11.281   3.630   8.507 -0.1374  0.3953 -0.4893
  573MOL0     H79036  11.648   3.831   8.720  0.8200 -0.5661  1.6345
  573MOL0     H79037  11.887   3.752   8.770  3.8074 -2.8047 -2.1823
  573MOL0     H79038  12.109   3.769   8.807  0.8335 -1.2109  0.3402
  573MOL0     H79039  12.256   3.779   8.715 -1.9831 -4.6940  2.2392
  573MOL0     H79040  12.240   4.019   8.675  1.2432 -1.5409  0.3472
  573MOL0     H79041  12.073   4.026   8.735  0.5667  1.0352  1.1194
  573MOL0     H79042  12.336   3.977   8.894 -0.3908 -0.5826  3.0950
  573MOL0     H79043  12.174   3.939   8.959  0.2556 -2.4671 -1.2332
  573MOL0     H79044  12.131   4.187   8.946 -0.8578  0.3427  1.1767
  573MOL0     H79045  12.268   4.212   8.838 -0.1008  2.8763  1.6637
  573MOL0     H79046  12.430   4.148   9.009  0.6209 -1.7758  1.9796
  573MOL0     H79047  12.329   4.292   9.052 -0.5464 -0.1827  3.1111
  573MOL0     H79048  12.308   4.011   9.166  2.1668  0.1978  0.8044
  573MOL0     H79049  12.182   4.138   9.185  0.1281  1.7361 -1.2588
  573MOL0     H79050  12.341   4.296   9.292 -0.7524  0.1503  1.1358
  573MOL0     H79051  12.475   4.175   9.271 -1.1085 -1.4518  2.2152
  573MOL0     H79052  12.223   4.157   9.448 -0.8885 -2.7565  0.7946
  573MOL0     H79053  12.390   4.176   9.510 -1.0978 -1.5041  2.7575
  573MOL0     H79054  11.997   3.943   8.396  1.0395 -2.9393 -0.2244
  573MOL0     H79055  11.756   3.968   8.343 -3.2697 -0.3109  0.9084
  573MOL0     H79056  11.281   4.173   8.582 -0.8367  0.5344 -0.9523
  573MOL0     H79057  11.037   4.158   8.521  0.0687  0.2712  0.4692
  573MOL0     H79058   9.193   3.888   8.155  0.5329  1.0621  1.3433
  573MOL0     H79059   8.969   3.792   8.075  2.1691  2.7173  0.1851
  573MOL0     H79060   8.470   3.858   8.196 -2.4116  0.7543 -1.8264
  573MOL0     H79061   8.260   3.764   8.125  0.1465 -1.8000 -0.3801
  573MOL0     H79062   8.055   3.633   8.029 -0.2798  2.9062 -1.0855
  573MOL0     H79063   8.165   3.712   7.910  0.3379 -0.0798 -1.3745
  573MOL0     H79064   7.929   3.585   7.842 -1.0365 -0.8674  2.2220
  573MOL0     H79065   8.029   3.440   7.873 -0.8336 -0.2885 -1.3758
  573MOL0     H79066   8.112   3.657   7.672  1.1539 -0.5916  0.2296
  573MOL0     H79067   8.185   3.499   7.693 -0.7444 -2.0220  2.4561
  573MOL0     H79068   7.930   3.580   7.583 -0.9032  0.9982  2.5580
  573MOL0     H79069   7.953   3.410   7.628  2.2473 -0.9822  0.3836
  573MOL0     H79070   8.214   3.431   7.290 -3.2492 -1.1432 -2.8071
  573MOL0     H79071   8.455   3.427   7.960 -3.1847  1.4673 -1.7430
  573MOL0     H79072   8.714   3.427   7.956  2.0709  0.2798  0.8451
  573MOL0     H79073   8.788   3.579   7.997 -1.5936  2.2219  0.2836
  573MOL0     H79074   8.751   3.459   8.122 -0.2286 -0.6447  0.0833
  574MOL0     O79075   0.587   8.777   4.031  0.6563  0.5625 -0.4965
  574MOL0     C79076   0.594   8.720   3.921  0.4542 -0.2200  0.4748
  574MOL0     O79077   0.702   8.651   3.874 -0.3263 -0.4519 -0.1282
  574MOL0     C79078   0.818   8.688   3.934 -0.0879  0.4089 -0.7496
  574MOL0     C79079   0.900   8.794   3.889  0.1332 -0.1937  0.4149
  574MOL0     C79080   1.012   8.834   3.966  0.2954 -0.0344  0.9841
  574MOL0     C79081   1.052   8.768   4.081  0.2360 -0.0164  0.0783
  574MOL0     O79082   1.162   8.791   4.158  0.0057 -0.0437 -0.6291
  574MOL0     C79083   1.263   8.887   4.113  0.0226  0.5511  1.0399
  574MOL0     C79084   1.329   8.829   3.994 -0.0299  0.0245  0.2604
  574MOL0     C79085   1.439   8.728   4.029  0.8179 -0.1825  0.3092
  574MOL0     C79086   1.506   8.671   3.906 -0.0399 -0.3403  0.1504
  574MOL0     C79087   1.613   8.570   3.949 -0.7536  0.0814 -0.2516
  574MOL0     C79088   1.708   8.562   3.831 -1.0626 -0.6731  0.3696
  574MOL0     C79089   1.843   8.499   3.876 -0.0672  0.6403 -0.4531
  574MOL0     C79090   1.841   8.387   3.977 -0.3721  1.0166  0.9548
  574MOL0     N79091   1.955   8.299   3.960 -0.5603  0.3655  0.4212
  574MOL0     C79092   1.966   8.177   3.892 -0.1687  0.6672  0.1503
  574MOL0     C79093   2.104   8.158   3.883  0.5654  0.9934 -0.7077
  574MOL0     C79094   2.169   8.034   3.824  0.0557  0.5248  0.6356
  574MOL0     C79095   2.155   7.905   3.915 -0.1685  0.0398 -0.4929
  574MOL0     C79096   2.264   7.921   4.027  0.9375 -0.1538  1.1482
  574MOL0     C79097   2.280   7.785   4.095 -0.1596 -0.1096  0.0423
  574MOL0     O79098   2.347   7.806   4.216 -0.4110  0.1060  0.0458
  574MOL0     C79099   2.484   7.832   4.217  0.6542  0.5632  0.8034
  574MOL0     C79100   2.575   7.730   4.187  0.1012  0.6450 -0.3697
  574MOL0     C79101   2.712   7.753   4.182  0.8712 -0.6286 -0.3584
  574MOL0     C79102   2.797   7.636   4.130  0.8404  0.0135 -0.1451
  574MOL0     C79103   2.760   7.878   4.216  0.8576  0.0658  0.3753
  574MOL0     C79104   2.902   7.915   4.215  0.3284 -0.2815  0.5404
  574MOL0     O79105   2.922   8.047   4.241 -0.2934  0.4096  0.0015
  574MOL0     C79106   3.051   8.099   4.243  0.1678  0.2318 -0.0074
  574MOL0     C79107   3.116   8.093   4.370  0.4602 -0.5106  0.1558
  574MOL0     C79108   3.242   8.132   4.382  0.3041  0.2513  0.6171
  574MOL0     C79109   3.311   8.194   4.273 -0.0457  0.1664  0.8765
  574MOL0     O79110   3.434   8.239   4.263 -0.1484  0.9301  0.1815
  574MOL0     C79111   3.502   8.244   4.394  0.1862  0.6111 -0.2615
  574MOL0     C79112   3.634   8.297   4.362  0.3426  0.1626  1.1856
  574MOL0     C79113   3.703   8.323   4.487  0.4587  0.1956 -1.6349
  574MOL0     C79114   3.848   8.341   4.459  0.0652 -0.2389  0.3471
  574MOL0     C79115   3.905   8.395   4.597 -0.5417 -0.3096  0.1705
  574MOL0     C79116   4.062   8.395   4.613  0.2027 -0.3545 -0.5436
  574MOL0     C79117   4.139   8.412   4.480 -0.3573 -0.3414  0.6068
  574MOL0     C79118   4.292   8.417   4.492 -0.2613  0.3358  0.0661
  574MOL0    Cl79119   4.351   8.260   4.564  0.0375 -0.5397  0.1867
  574MOL0     C79120   3.248   8.201   4.149  0.8724  0.1395  0.1711
  574MOL0     C79121   3.118   8.152   4.138 -0.2444 -0.5954  0.5722
  574MOL0     O79122   2.988   7.827   4.222 -0.7912 -0.3607  0.3602
  574MOL0     C79123   2.659   7.979   4.246 -0.8429 -0.4924  0.1152
  574MOL0     C79124   2.526   7.958   4.239 -0.0789 -0.2695  0.2612
  574MOL0     N79125   2.171   8.265   3.948 -0.4542 -0.2830 -0.3769
  574MOL0     N79126   2.085   8.352   3.979 -0.1447 -0.4551  0.3831
  574MOL0     C79127   0.962   8.677   4.139 -0.3052  0.6962 -0.4348
  574MOL0     C79128   0.852   8.637   4.059  0.7791 -0.0318 -0.2159
  574MOL0     C79129   0.470   8.707   3.845 -0.8552  0.5544  0.6179
  574MOL0     C79130   0.398   8.817   3.819  1.3439 -0.1309 -0.0626
  574MOL0     C79131   0.280   8.810   3.743 -0.5168 -1.0612 -0.0968
  574MOL0     C79132   0.238   8.685   3.698  0.2619 -0.9802  0.0403
  574MOL0     O79133   0.123   8.661   3.626 -0.0640 -0.0098  0.0652
  574MOL0     C79134   0.107   8.755   3.511 -0.2599  0.8118 -0.5287
  574MOL0     C79135   0.011   8.701   3.408  0.4506 -0.5803 -0.2814
  574MOL0     C79136   0.018   8.784   3.274 -0.3683  0.2512 -0.2165
  574MOL0     C79137  -0.073   8.715   3.171 -0.3306 -0.2066 -0.5271
  574MOL0     C79138  -0.060   8.780   3.046  0.1324 -0.7119 -0.2003
  574MOL0     C79139  -0.050   8.837   2.937  0.4057 -0.2529 -0.3017
  574MOL0     C79140   0.303   8.577   3.733 -0.0040  0.1409  0.0043
  574MOL0     C79141   0.425   8.577   3.809  0.3544  0.2767 -0.1067
  574MOL0     C79142   0.493   8.441   3.833 -0.0715  0.1542 -0.6826
  574MOL0     H79143   0.870   8.851   3.802 -1.2617  0.3231  1.2082
  574MOL0     H79144   1.073   8.913   3.923 -1.6916  2.8214  3.0036
  574MOL0     H79145   1.342   8.905   4.186  2.5886 -1.1889 -1.0801
  574MOL0     H79146   1.222   8.982   4.077  1.7221  1.8846  2.4457
  574MOL0     H79147   1.260   8.775   3.928 -0.7734  0.7408  0.4333
  574MOL0     H79148   1.366   8.918   3.942 -2.2674  2.1248  2.0141
  574MOL0     H79149   1.512   8.783   4.088  2.8698  0.5313 -2.6529
  574MOL0     H79150   1.388   8.647   4.083  0.9447  0.3993  1.3197
  574MOL0     H79151   1.433   8.622   3.841 -1.6861  0.4668  1.3148
  574MOL0     H79152   1.557   8.759   3.867  0.4208  0.2639  2.0060
  574MOL0     H79153   1.562   8.476   3.972 -1.2511 -0.0565 -1.7750
  574MOL0     H79154   1.669   8.608   4.035  0.0307 -0.3788 -0.5435
  574MOL0     H79155   1.664   8.503   3.750 -1.4543  2.0940 -1.5486
  574MOL0     H79156   1.734   8.658   3.787 -2.3887  0.2526  1.5339
  574MOL0     H79157   1.906   8.583   3.908 -1.7394  1.9775 -0.5221
  574MOL0     H79158   1.888   8.467   3.781  1.0161  0.9976 -0.0720
  574MOL0     H79159   1.840   8.424   4.080 -0.0298 -1.5010  1.9188
  574MOL0     H79160   1.758   8.317   3.965 -1.8195  3.0484 -2.4009
  574MOL0     H79161   1.900   8.104   3.845  2.0535 -1.5626  0.2947
  574MOL0     H79162   2.272   8.062   3.803 -0.7799  0.8082 -4.0060
  574MOL0     H79163   2.127   8.014   3.725  3.5342  1.5769 -1.1829
  574MOL0     H79164   2.058   7.899   3.964  0.2869 -0.9172  0.3100
  574MOL0     H79165   2.171   7.813   3.859 -0.6545 -1.1146  1.1955
  574MOL0     H79166   2.357   7.945   3.975 -0.2389 -4.2099 -3.5168
  574MOL0     H79167   2.230   7.993   4.103  2.3528  1.7445  0.0840
  574MOL0     H79168   2.179   7.751   4.120 -0.9271  2.4363  0.7006
  574MOL0     H79169   2.328   7.707   4.035  0.3788 -0.1025  0.4514
  574MOL0     H79170   2.530   7.633   4.166  0.4539  0.8853 -2.3875
  574MOL0     H79171   2.844   7.590   4.217 -2.0777  0.8241  2.0165
  574MOL0     H79172   2.876   7.677   4.066  0.1605  1.2659 -0.2056
  574MOL0     H79173   2.731   7.572   4.071 -0.1216 -1.1708  2.0911
  574MOL0     H79174   3.062   8.047   4.452  2.1143 -1.0577  0.9840
  574MOL0     H79175   3.281   8.113   4.482 -2.9671 -1.1761  1.7661
  574MOL0     H79176   3.448   8.311   4.460 -1.3845 -0.0337 -0.8469
  574MOL0     H79177   3.527   8.147   4.439 -0.8820  0.4987  0.1053
  574MOL0     H79178   3.682   8.224   4.296 -1.1524  0.4058 -0.2369
  574MOL0     H79179   3.621   8.394   4.313  1.6524 -0.4526 -0.4639
  574MOL0     H79180   3.681   8.239   4.553 -0.6438  0.0512 -2.1482
  574MOL0     H79181   3.661   8.410   4.538  0.0763  0.1854 -1.9271
  574MOL0     H79182   3.861   8.416   4.381  1.2227 -2.5297 -1.8198
  574MOL0     H79183   3.899   8.249   4.430  2.1574  0.9107  0.1943
  574MOL0     H79184   3.878   8.501   4.604 -0.2021 -0.3221  2.2271
  574MOL0     H79185   3.878   8.346   4.692  0.4677  1.1938  1.2813
  574MOL0     H79186   4.087   8.304   4.669 -3.1310  0.3956  2.5721
  574MOL0     H79187   4.092   8.475   4.682 -2.0220 -0.9576  1.2561
  574MOL0     H79188   4.100   8.502   4.431 -0.0778 -0.3542  0.3548
  574MOL0     H79189   4.098   8.331   4.418  1.5100 -2.4993  2.0300
  574MOL0     H79190   4.330   8.504   4.546 -2.1765  1.8935 -0.9935
  574MOL0     H79191   4.337   8.424   4.393  0.3566  0.1924  0.3292
  574MOL0     H79192   3.298   8.246   4.064  0.9694 -2.5180 -1.2728
  574MOL0     H79193   3.080   8.146   4.036  0.3812 -0.1726  0.3076
  574MOL0     H79194   2.681   8.083   4.269 -1.8220 -0.4504  0.9567
  574MOL0     H79195   2.463   8.045   4.254  0.6824  0.4488 -0.6281
  574MOL0     H79196   0.985   8.646   4.240 -2.5579 -4.8411 -1.2739
  574MOL0     H79197   0.784   8.560   4.095  0.0733  0.3608 -0.6771
  574MOL0     H79198   0.425   8.918   3.848  0.9903 -0.4369  1.4082
  574MOL0     H79199   0.211   8.892   3.728 -0.1394 -0.9187 -1.1438
  574MOL0     H79200   0.063   8.849   3.544 -1.7984  0.3326 -1.1236
  574MOL0     H79201   0.207   8.763   3.468 -0.5642  1.7939 -1.0820
  574MOL0     H79202  -0.091   8.696   3.447  0.8709 -1.0486  0.7826
  574MOL0     H79203   0.024   8.595   3.387  0.7290 -0.6533  0.2500
  574MOL0     H79204  -0.016   8.885   3.297  0.7184  0.9551 -1.5349
  574MOL0     H79205   0.121   8.797   3.240 -0.3264 -2.0792 -1.1479
  574MOL0     H79206  -0.179   8.717   3.198 -1.0113 -1.0307 -2.8901
  574MOL0     H79207  -0.039   8.612   3.155 -2.0446 -1.0635  0.9701
  574MOL0     H79208  -0.034   8.902   2.853 -2.8164  0.3727 -0.5691
  574MOL0     H79209   0.272   8.480   3.694  3.8144 -0.8368 -1.0004
  574MOL0     H79210   0.447   8.359   3.778 -0.1041  0.5743 -1.2887
  574MOL0     H79211   0.597   8.443   3.801  0.3979 -0.6387  0.7077
  574MOL0     H79212   0.486   8.417   3.940  1.5795 -0.6746 -0.7324
  575MOL0     O79213   1.967   2.071   3.904 -0.3350  0.9993  0.7436
  575MOL0     C79214   1.935   1.952   3.922 -0.3246 -0.6565 -0.7640
  575MOL0     O79215   2.026   1.853   3.931  0.4762  0.4451 -0.4844
  575MOL0     C79216   2.152   1.846   3.870 -0.0848 -0.7521  0.7465
  575MOL0     C79217   2.247   1.752   3.914  0.1636  0.5007 -0.6309
  575MOL0     C79218   2.370   1.733   3.848  0.2182 -0.3605 -0.1995
  575MOL0     C79219   2.408   1.818   3.746 -0.9370 -0.7484 -0.9436
  575MOL0     O79220   2.526   1.788   3.687  0.3222 -0.0287 -0.0546
  575MOL0     C79221   2.612   1.906   3.677 -0.0988  0.1222  0.3750
  575MOL0     C79222   2.624   1.951   3.532 -0.8177 -0.1292  0.4898
  575MOL0     C79223   2.729   2.058   3.512  0.1101 -0.5827 -0.2884
  575MOL0     C79224   2.747   2.099   3.365  0.3966  0.6057 -0.6360
  575MOL0     C79225   2.872   2.187   3.325  0.6030  0.6037  0.3165
  575MOL0     C79226   3.012   2.126   3.352 -0.0141 -0.0610 -0.7702
  575MOL0     C79227   3.115   2.229   3.314  0.2271  0.2104  0.5668
  575MOL0     C79228   3.264   2.180   3.271  0.1946 -0.8571  0.0546
  575MOL0     N79229   3.345   2.279   3.201  0.5726 -0.2720  0.0996
  575MOL0     C79230   3.318   2.412   3.178 -0.2646 -0.1373 -0.8074
  575MOL0     C79231   3.430   2.458   3.120 -0.9257 -1.1577 -0.6494
  575MOL0     C79232   3.427   2.600   3.080 -0.1365 -0.2868  0.1938
  575MOL0     C79233   3.321   2.635   2.978  0.3821 -0.0454  0.4461
  575MOL0     C79234   3.290   2.790   2.966 -0.6559 -0.4691 -0.1343
  575MOL0     C79235   3.164   2.800   2.887  0.1466 -0.3281 -0.1631
  575MOL0     O79236   3.048   2.743   2.959  0.1530 -0.1798 -0.7442
  575MOL0     C79237   2.926   2.796   2.929 -0.2190  1.2241  1.0684
  575MOL0     C79238   2.887   2.846   2.806  0.0951  0.6639 -0.0731
  575MOL0     C79239   2.767   2.899   2.768 -0.5809 -0.4490  0.8719
  575MOL0     C79240   2.745   2.942   2.627  0.0322  0.3695  0.0944
  575MOL0     C79241   2.659   2.889   2.857  0.6818 -0.1192 -0.5710
  575MOL0     C79242   2.518   2.906   2.834  0.1413 -0.0683 -0.2434
  575MOL0     O79243   2.430   2.867   2.929  0.0594  0.7254  0.0695
  575MOL0     C79244   2.296   2.880   2.889 -0.4387  0.0104 -0.1196
  575MOL0     C79245   2.222   3.002   2.910  0.3279  0.6667  0.3062
  575MOL0     C79246   2.083   3.011   2.892 -0.2559 -0.1872 -0.4153
  575MOL0     C79247   2.009   2.904   2.825 -0.3502  0.7899 -0.1891
  575MOL0     O79248   1.877   2.915   2.792 -0.0348 -0.5226  0.7347
  575MOL0     C79249   1.799   2.919   2.915  0.1851 -0.1758 -0.3089
  575MOL0     C79250   1.661   2.974   2.875 -0.1242  0.2018  0.9094
  575MOL0     C79251   1.601   2.882   2.769 -0.4081  0.2717 -0.6854
  575MOL0     C79252   1.473   2.943   2.723  0.8475  0.3874  0.8237
  575MOL0     C79253   1.366   2.975   2.829  0.5277 -0.9185  0.6297
  575MOL0     C79254   1.323   2.843   2.885  0.2030 -0.0357  0.1457
  575MOL0     C79255   1.184   2.846   2.958  0.0304  0.5543  0.0800
  575MOL0     C79256   1.145   2.706   3.005  0.1023  0.0158 -0.2449
  575MOL0    Cl79257   0.990   2.709   3.095  0.1774  0.6460  0.3593
  575MOL0     C79258   2.092   2.786   2.797  1.0588  0.2153 -0.5865
  575MOL0     C79259   2.225   2.775   2.834 -0.1393  0.0048  0.2083
  575MOL0     O79260   2.486   2.967   2.736 -0.2739  0.0598 -0.8030
  575MOL0     C79261   2.691   2.835   2.983  0.0907  0.2946 -0.6850
  575MOL0     C79262   2.815   2.788   3.017  0.5674  0.3889  0.3438
  575MOL0     N79263   3.530   2.361   3.107  0.0392  0.3678 -0.1180
  575MOL0     N79264   3.474   2.255   3.156 -0.0373  0.1426  0.0439
  575MOL0     C79265   2.319   1.913   3.700 -0.1325  0.3343 -0.3276
  575MOL0     C79266   2.190   1.921   3.755 -0.6807  0.1686  0.0732
  575MOL0     C79267   1.789   1.931   3.943  0.1178 -0.6523  0.1906
  575MOL0     C79268   1.711   2.036   4.003  0.4287 -0.4210  0.0597
  575MOL0     C79269   1.575   2.022   3.998  0.7377  0.3080 -0.1976
  575MOL0     C79270   1.510   1.917   3.938 -0.1666  0.7920 -0.8642
  575MOL0     O79271   1.375   1.916   3.941 -0.4370 -0.0331  0.0812
  575MOL0     C79272   1.301   1.842   3.853  1.1137  0.2671 -0.5869
  575MOL0     C79273   1.144   1.882   3.854 -0.3592 -0.4118 -0.4782
  575MOL0     C79274   1.074   1.811   3.737 -0.4580  0.5385  0.1779
  575MOL0     C79275   1.059   1.653   3.773  0.2874  0.1382  0.1285
  575MOL0     C79276   1.055   1.577   3.654  0.2785  0.2301  0.7661
  575MOL0     C79277   1.061   1.522   3.542 -0.1642  0.3941 -0.1032
  575MOL0     C79278   1.586   1.812   3.880 -0.2245 -0.1678  0.5259
  575MOL0     C79279   1.730   1.820   3.890  1.0080  0.7914 -0.2208
  575MOL0     C79280   1.806   1.715   3.821 -0.0738  0.2787  0.1835
  575MOL0     H79281   2.239   1.694   4.005 -2.2748 -1.0347 -1.7024
  575MOL0     H79282   2.439   1.653   3.875 -0.3458 -0.6214  0.4832
  575MOL0     H79283   2.710   1.877   3.714  1.5529 -1.0590 -4.2249
  575MOL0     H79284   2.579   1.984   3.746 -0.8491  1.8048 -1.7416
  575MOL0     H79285   2.650   1.868   3.466 -0.0414 -0.6468  1.4307
  575MOL0     H79286   2.530   1.996   3.496 -1.6144 -0.1852  2.3913
  575MOL0     H79287   2.698   2.141   3.576 -3.2674 -1.3715 -0.6787
  575MOL0     H79288   2.830   2.031   3.543  1.3990 -0.4728 -3.9007
  575MOL0     H79289   2.761   2.003   3.315  3.2846  2.0104 -2.8255
  575MOL0     H79290   2.656   2.139   3.321  1.5815  0.4020 -3.4939
  575MOL0     H79291   2.863   2.279   3.383 -2.4683  0.6868 -0.1404
  575MOL0     H79292   2.864   2.207   3.218  0.7644 -2.6145 -0.4100
  575MOL0     H79293   3.035   2.101   3.456  3.2214 -0.8654 -1.5623
  575MOL0     H79294   3.019   2.031   3.298 -3.4926  0.3131 -2.1183
  575MOL0     H79295   3.129   2.298   3.398 -0.1846 -0.2329  1.0068
  575MOL0     H79296   3.082   2.284   3.226 -0.2380 -1.0974 -0.0992
  575MOL0     H79297   3.311   2.152   3.365 -1.3426  1.5022  1.6441
  575MOL0     H79298   3.264   2.093   3.204 -1.3548 -0.5018 -0.4602
  575MOL0     H79299   3.223   2.462   3.193  1.4143  3.6121 -1.5223
  575MOL0     H79300   3.524   2.630   3.039  0.3995  0.8978  2.2076
  575MOL0     H79301   3.409   2.657   3.171 -0.4443 -2.1868  1.3758
  575MOL0     H79302   3.350   2.597   2.880 -0.7788  0.3163 -0.0566
  575MOL0     H79303   3.226   2.589   3.007  0.9408 -1.5995 -0.0730
  575MOL0     H79304   3.276   2.838   3.064  1.9209  2.7728 -1.1859
  575MOL0     H79305   3.364   2.850   2.912 -2.1968  0.4197 -1.3299
  575MOL0     H79306   3.148   2.905   2.862  2.1778  0.0581  0.0622
  575MOL0     H79307   3.191   2.753   2.792  1.3195  3.2365 -1.7566
  575MOL0     H79308   2.950   2.839   2.717 -0.6845 -0.1972 -0.5674
  575MOL0     H79309   2.694   3.038   2.637  3.8222  2.4452  1.7164
  575MOL0     H79310   2.696   2.860   2.573  1.7984 -1.9091  1.7133
  575MOL0     H79311   2.843   2.959   2.582 -1.2574  1.8222 -2.3752
  575MOL0     H79312   2.282   3.088   2.939  2.8314 -1.4199  1.6003
  575MOL0     H79313   2.051   3.111   2.919 -2.2432 -0.2961 -2.0965
  575MOL0     H79314   1.790   2.819   2.958 -2.2301  0.1066 -0.0333
  575MOL0     H79315   1.840   2.990   2.987 -0.2560  0.3256 -0.5433
  575MOL0     H79316   1.596   2.989   2.962 -1.3660  2.9072 -0.3622
  575MOL0     H79317   1.670   3.073   2.829 -0.8931 -0.2962 -0.3677
  575MOL0     H79318   1.585   2.779   2.803 -1.1732  0.7494  0.4356
  575MOL0     H79319   1.657   2.883   2.675 -1.4735  1.5692 -1.3465
  575MOL0     H79320   1.435   2.867   2.654  1.9669 -1.8083  2.4805
  575MOL0     H79321   1.491   3.031   2.661  2.2513 -0.6722 -0.3912
  575MOL0     H79322   1.395   3.049   2.905 -1.0639  2.2274 -1.5954
  575MOL0     H79323   1.284   3.016   2.769  0.8414 -2.0293 -0.5958
  575MOL0     H79324   1.402   2.795   2.943 -0.0538 -0.6360  0.0061
  575MOL0     H79325   1.313   2.773   2.801  0.4231 -3.0540  2.4419
  575MOL0     H79326   1.108   2.889   2.892 -0.4503 -0.6407 -0.1781
  575MOL0     H79327   1.188   2.910   3.047 -0.2429 -1.9062  1.9653
  575MOL0     H79328   1.234   2.677   3.061  0.9268 -0.5678 -1.7763
  575MOL0     H79329   1.137   2.638   2.920  3.4410 -0.3896 -0.3539
  575MOL0     H79330   2.041   2.700   2.755 -1.3317  0.2875  1.8509
  575MOL0     H79331   2.285   2.685   2.821  1.7220  0.9190  1.9730
  575MOL0     H79332   2.613   2.821   3.058  0.8230  1.3296  0.3041
  575MOL0     H79333   2.845   2.744   3.111  0.2976  0.9309  0.6920
  575MOL0     H79334   2.345   1.972   3.613 -2.3659  1.2053 -0.4732
  575MOL0     H79335   2.121   1.984   3.699  0.5267  0.8404 -0.6968
  575MOL0     H79336   1.753   2.121   4.056 -2.7313  0.8592  0.7473
  575MOL0     H79337   1.508   2.100   4.035  1.2001 -0.7212  3.1890
  575MOL0     H79338   1.333   1.841   3.748  2.1809 -3.0022 -0.3553
  575MOL0     H79339   1.313   1.738   3.885 -2.0782  0.3117  1.1665
  575MOL0     H79340   1.140   1.990   3.837 -1.2085  0.0136  1.9857
  575MOL0     H79341   1.092   1.866   3.950  0.4066  0.4740  0.0991
  575MOL0     H79342   0.978   1.861   3.724 -1.6701 -1.7986 -0.2815
  575MOL0     H79343   1.130   1.831   3.645 -1.0020  0.5911 -0.1467
  575MOL0     H79344   0.973   1.644   3.839  1.7991  1.6786  2.4519
  575MOL0     H79345   1.145   1.636   3.838  1.3356  1.5654 -0.8133
  575MOL0     H79346   1.059   1.466   3.450  1.8997  2.0838 -1.2549
  575MOL0     H79347   1.544   1.726   3.829  0.3202  1.0094 -2.0616
  575MOL0     H79348   1.898   1.741   3.768  1.0461  1.1465  2.4130
  575MOL0     H79349   1.807   1.623   3.881 -3.6400  2.6551  4.5713
  575MOL0     H79350   1.741   1.693   3.736 -2.1825  0.2328  1.7141
  576MOL0     O79351   0.378   8.321   3.171 -0.7351  0.2151 -0.3647
  576MOL0     C79352   0.375   8.321   3.297  0.3932  0.0362  0.3790
  576MOL0     O79353   0.473   8.357   3.382  0.1819 -0.0375  0.1304
  576MOL0     C79354   0.569   8.443   3.344  0.4994 -0.3154 -0.1362
  576MOL0     C79355   0.671   8.411   3.252  0.8187  0.0590 -0.2853
  576MOL0     C79356   0.772   8.498   3.219  0.1647  0.5448 -0.3052
  576MOL0     C79357   0.787   8.619   3.282 -0.2948 -0.2430  0.8209
  576MOL0     O79358   0.897   8.687   3.241  0.4038 -0.0288  0.0189
  576MOL0     C79359   0.947   8.795   3.330  0.5616  0.4057  0.1185
  576MOL0     C79360   1.100   8.796   3.311 -0.2387 -0.0757 -0.2685
  576MOL0     C79361   1.165   8.687   3.394  0.0846  0.6156  0.0978
  576MOL0     C79362   1.319   8.695   3.374  0.2603  0.1860 -0.2121
  576MOL0     C79363   1.397   8.594   3.449 -0.0798 -0.2786 -0.5010
  576MOL0     C79364   1.381   8.451   3.382  0.9560 -0.3380  0.4916
  576MOL0     C79365   1.439   8.328   3.470 -0.8070 -0.5581 -0.3321
  576MOL0     C79366   1.591   8.335   3.469  0.6953  0.0502 -0.2291
  576MOL0     N79367   1.649   8.213   3.520  0.4471  0.0186 -0.2339
  576MOL0     C79368   1.647   8.089   3.450 -0.0716  0.3541 -0.0477
  576MOL0     C79369   1.696   8.001   3.538  0.6824 -0.9508  0.1419
  576MOL0     C79370   1.693   7.848   3.512  0.0947  0.0318  0.0265
  576MOL0     C79371   1.824   7.777   3.559 -0.4626  0.3126  0.5917
  576MOL0     C79372   1.942   7.832   3.478  0.2250  0.0962  0.7699
  576MOL0     C79373   2.074   7.754   3.466 -1.2449  0.1913  0.5341
  576MOL0     O79374   2.148   7.788   3.588 -0.1555 -0.5386  0.0125
  576MOL0     C79375   2.281   7.762   3.582  0.4501  0.3600  0.9810
  576MOL0     C79376   2.333   7.672   3.668  0.2555  0.1971  0.1658
  576MOL0     C79377   2.470   7.670   3.712  0.2713  1.1125  0.7128
  576MOL0     C79378   2.515   7.556   3.795  0.5262  0.2136 -0.0359
  576MOL0     C79379   2.551   7.778   3.665  0.1570 -0.4314 -0.8774
  576MOL0     C79380   2.692   7.792   3.700 -0.3289  0.7210  0.1516
  576MOL0     O79381   2.744   7.916   3.702 -0.9291 -0.2008 -0.0036
  576MOL0     C79382   2.877   7.921   3.728 -0.5081  0.1174  0.9788
  576MOL0     C79383   2.961   7.959   3.620  0.0019 -0.1850  0.2896
  576MOL0     C79384   3.101   7.952   3.643  0.5995 -0.9699 -0.3437
  576MOL0     C79385   3.157   7.932   3.773  0.3573  0.2568  0.1464
  576MOL0     O79386   3.286   7.938   3.795 -0.3631  0.2618 -0.4881
  576MOL0     C79387   3.383   7.973   3.693  0.7747 -0.3052 -0.0865
  576MOL0     C79388   3.389   8.122   3.662 -0.2598 -0.5267 -0.9138
  576MOL0     C79389   3.527   8.175   3.630 -0.0074 -0.1439  0.0677
  576MOL0     C79390   3.586   8.112   3.497 -0.2794 -0.1209 -0.1754
  576MOL0     C79391   3.717   8.182   3.442 -0.9194 -0.0311 -0.6536
  576MOL0     C79392   3.843   8.176   3.529  0.5275  0.0022 -0.4536
  576MOL0     C79393   3.892   8.032   3.524 -0.4110 -0.2054 -0.1527
  576MOL0     C79394   4.024   8.008   3.603  0.2694  0.3097  0.0413
  576MOL0    Cl79395   4.008   8.043   3.784 -0.6383 -0.1302 -0.3256
  576MOL0     C79396   3.075   7.899   3.877 -0.2197  0.3978 -0.3303
  576MOL0     C79397   2.935   7.890   3.853 -0.0246 -0.4727 -0.3731
  576MOL0     O79398   2.754   7.685   3.724  0.1557  0.0843  0.0209
  576MOL0     C79399   2.506   7.870   3.569  0.1789 -0.1420 -0.4274
  576MOL0     C79400   2.367   7.870   3.535 -0.5929  0.3217  0.3494
  576MOL0     N79401   1.736   8.063   3.651 -0.5214  0.0734 -0.6760
  576MOL0     N79402   1.710   8.189   3.643 -0.2336 -0.0842  0.6702
  576MOL0     C79403   0.687   8.660   3.371  0.1828  0.0602 -0.0411
  576MOL0     C79404   0.573   8.575   3.401  0.0050 -0.0099  0.5184
  576MOL0     C79405   0.263   8.251   3.366 -0.3433 -0.0015  0.6069
  576MOL0     C79406   0.269   8.229   3.501 -1.4777  0.0765 -0.8113
  576MOL0     C79407   0.173   8.163   3.578  0.0175  0.4479  0.4847
  576MOL0     C79408   0.048   8.126   3.517 -0.7911 -0.2839 -1.0267
  576MOL0     O79409  -0.054   8.056   3.575  0.7236 -0.1276  0.1111
  576MOL0     C79410  -0.023   7.985   3.685 -0.3829 -0.3354  0.0758
  576MOL0     C79411  -0.129   7.893   3.731  0.1642  0.1604  0.0119
  576MOL0     C79412  -0.269   7.961   3.765 -1.0387 -1.1430  0.5068
  576MOL0     C79413  -0.376   7.871   3.819 -0.5258 -0.8895  0.4316
  576MOL0     C79414  -0.410   7.786   3.699  0.2062  0.3783  1.4330
  576MOL0     C79415  -0.443   7.711   3.607 -0.7864 -0.3281 -0.5985
  576MOL0     C79416   0.046   8.147   3.376  0.5826  0.5304 -0.3521
  576MOL0     C79417   0.148   8.202   3.302  0.1487  0.5725 -0.1984
  576MOL0     C79418   0.131   8.188   3.150  0.2001 -0.3617  0.8460
  576MOL0     H79419   0.666   8.311   3.209  1.6335 -0.1799  0.1643
  576MOL0     H79420   0.834   8.470   3.135  0.0534 -0.0885 -0.1830
  576MOL0     H79421   0.908   8.766   3.428 -0.8125 -0.3919 -0.6227
  576MOL0     H79422   0.902   8.891   3.302 -3.2245 -1.6348 -1.5997
  576MOL0     H79423   1.115   8.770   3.205 -4.5872  0.8715 -1.3072
  576MOL0     H79424   1.139   8.896   3.335  1.0004 -0.7065  0.4357
  576MOL0     H79425   1.137   8.697   3.499  0.3120  0.7934  0.1415
  576MOL0     H79426   1.126   8.597   3.345  1.7637 -0.5182  0.7884
  576MOL0     H79427   1.331   8.678   3.267 -3.5121  0.9019 -0.9094
  576MOL0     H79428   1.347   8.796   3.406  2.7280 -0.5019 -0.0016
  576MOL0     H79429   1.375   8.584   3.555  1.8012 -0.8098 -0.1150
  576MOL0     H79430   1.503   8.617   3.437 -0.5706  1.6548 -1.6169
  576MOL0     H79431   1.274   8.431   3.374  0.9168 -0.9582  2.2490
  576MOL0     H79432   1.425   8.457   3.282  3.4511 -1.8435  1.4110
  576MOL0     H79433   1.397   8.234   3.433 -1.5277  0.2206 -1.5459
  576MOL0     H79434   1.404   8.347   3.572 -0.7174  2.5873 -0.7851
  576MOL0     H79435   1.617   8.347   3.363  3.0915 -1.4059  0.1298
  576MOL0     H79436   1.626   8.424   3.523  0.5510  0.1549 -0.3097
  576MOL0     H79437   1.615   8.052   3.354  1.8003  0.1380 -0.6358
  576MOL0     H79438   1.678   7.827   3.405 -1.8170 -0.7838  0.4137
  576MOL0     H79439   1.613   7.800   3.569 -0.5361 -0.9400 -1.5931
  576MOL0     H79440   1.835   7.793   3.667 -1.5265  0.0192  0.7583
  576MOL0     H79441   1.816   7.670   3.538 -0.5939  0.6668 -1.3587
  576MOL0     H79442   1.909   7.844   3.374  0.6567 -2.1082  0.3304
  576MOL0     H79443   1.967   7.933   3.513  1.7349 -0.2420  0.7376
  576MOL0     H79444   2.050   7.647   3.462 -0.3484  0.0094 -1.1608
  576MOL0     H79445   2.132   7.776   3.375 -1.0562 -1.5789  0.1894
  576MOL0     H79446   2.265   7.595   3.702  0.2054  0.7429  1.3702
  576MOL0     H79447   2.592   7.574   3.870  1.5196  3.1535 -1.6140
  576MOL0     H79448   2.555   7.481   3.726 -4.6895 -0.1577 -3.2027
  576MOL0     H79449   2.430   7.511   3.848  1.0178 -0.5042  0.1549
  576MOL0     H79450   2.917   7.974   3.522  1.4546 -0.2950 -0.4073
  576MOL0     H79451   3.154   7.978   3.553  2.2539 -1.2088  0.5305
  576MOL0     H79452   3.477   7.936   3.735 -1.1265 -2.2852  2.8843
  576MOL0     H79453   3.355   7.914   3.605 -2.3203  1.1512 -0.2044
  576MOL0     H79454   3.330   8.141   3.573 -2.1852 -1.1018  0.1825
  576MOL0     H79455   3.354   8.177   3.750 -0.1321 -0.8535 -0.6537
  576MOL0     H79456   3.595   8.180   3.716 -0.7054  1.9423  0.5633
  576MOL0     H79457   3.510   8.280   3.607 -2.3023  0.0973  2.3376
  576MOL0     H79458   3.519   8.121   3.411  2.9809  1.6919 -2.7724
  576MOL0     H79459   3.618   8.012   3.527  1.5409  0.4427 -0.1030
  576MOL0     H79460   3.744   8.127   3.351 -0.8151 -1.9866  0.4890
  576MOL0     H79461   3.684   8.283   3.418  1.2053  1.0448  0.6939
  576MOL0     H79462   3.820   8.208   3.631 -0.0863 -1.3767 -0.1470
  576MOL0     H79463   3.918   8.244   3.487  3.4364 -2.7354 -0.0213
  576MOL0     H79464   3.903   7.984   3.426  1.3830 -0.4095  0.1077
  576MOL0     H79465   3.814   7.974   3.574  0.9439 -2.9216 -1.0279
  576MOL0     H79466   4.103   8.064   3.551  1.0059 -0.2437  0.5416
  576MOL0     H79467   4.054   7.903   3.604  1.1317  0.5436  1.4503
  576MOL0     H79468   3.113   7.861   3.971 -1.2233  0.0920 -0.0328
  576MOL0     H79469   2.865   7.871   3.933 -1.9153  2.8973 -1.0274
  576MOL0     H79470   2.570   7.935   3.511 -0.2844  0.5211 -0.2101
  576MOL0     H79471   2.330   7.955   3.479  2.9640  2.6119  1.1252
  576MOL0     H79472   0.699   8.756   3.422 -2.6829 -0.7090  2.3167
  576MOL0     H79473   0.494   8.600   3.471 -2.4034 -0.7964 -1.7537
  576MOL0     H79474   0.360   8.263   3.548 -1.7244 -0.2361 -0.0934
  576MOL0     H79475   0.184   8.159   3.686  1.9180 -1.0659  0.2807
  576MOL0     H79476   0.060   7.917   3.664 -0.2069 -0.2732  0.5595
  576MOL0     H79477  -0.004   8.047   3.774 -3.2730 -1.1801  1.3932
  576MOL0     H79478  -0.094   7.845   3.823 -1.0776  2.5249  1.8445
  576MOL0     H79479  -0.141   7.826   3.645  3.3976  0.8609 -1.1265
  576MOL0     H79480  -0.255   8.037   3.842  0.1810 -2.4089  1.5952
  576MOL0     H79481  -0.295   8.024   3.679  0.3032  1.6816  2.0430
  576MOL0     H79482  -0.466   7.924   3.850  0.0567  0.6133 -0.3600
  576MOL0     H79483  -0.341   7.807   3.900 -0.3165 -1.5001 -0.1292
  576MOL0     H79484  -0.459   7.623   3.549  0.8577 -0.0535 -1.5249
  576MOL0     H79485  -0.041   8.118   3.318 -0.5406  0.3984  1.3168
  576MOL0     H79486   0.213   8.136   3.099 -1.1196 -1.9173  0.2389
  576MOL0     H79487   0.036   8.142   3.124  0.2890 -0.9503  1.5288
  576MOL0     H79488   0.116   8.293   3.123  0.8746 -0.0840  1.5056
  577MOL0     O79489   7.058   5.570   2.484 -0.3554 -0.1539 -1.0114
  577MOL0     C79490   7.077   5.593   2.367  0.1441  0.8523  0.6698
  577MOL0     O79491   7.200   5.614   2.311 -0.4509  0.5012 -0.8129
  577MOL0     C79492   7.299   5.663   2.392 -1.1471 -0.2284 -0.2056
  577MOL0     C79493   7.281   5.770   2.479 -0.3128 -0.3692  0.1381
  577MOL0     C79494   7.392   5.828   2.541 -0.0910  0.0363 -0.4356
  577MOL0     C79495   7.521   5.784   2.529 -0.2528  0.3076  0.2344
  577MOL0     O79496   7.621   5.848   2.595  0.2353 -0.1241 -0.5352
  577MOL0     C79497   7.754   5.832   2.544 -0.1907  0.4892  0.7884
  577MOL0     C79498   7.825   5.964   2.560  0.1043  0.1594 -0.1229
  577MOL0     C79499   7.966   5.950   2.524 -0.5128  0.2970 -0.3065
  577MOL0     C79500   7.992   5.968   2.373 -0.7496 -0.0802  1.0687
  577MOL0     C79501   8.136   5.922   2.334 -0.2482 -0.1558 -0.5248
  577MOL0     C79502   8.251   6.031   2.353  0.5807 -0.1172  0.2967
  577MOL0     C79503   8.389   5.986   2.315 -0.7562  0.2852  0.1998
  577MOL0     C79504   8.493   6.101   2.329 -0.2288 -0.2421 -0.1915
  577MOL0     N79505   8.624   6.055   2.289 -0.0174 -0.7189  0.2299
  577MOL0     C79506   8.678   6.075   2.158  0.6279 -0.1501 -0.5578
  577MOL0     C79507   8.790   6.000   2.157  0.3169 -0.2826  0.1654
  577MOL0     C79508   8.880   5.953   2.047 -0.6622  0.1770  0.4810
  577MOL0     C79509   8.991   6.065   2.036 -1.0624 -0.6702 -0.2124
  577MOL0     C79510   9.081   6.021   1.924 -0.0051 -0.2898  0.4170
  577MOL0     C79511   9.185   6.129   1.895 -0.8028  0.4467  0.4616
  577MOL0     O79512   9.299   6.056   1.849  0.2128 -0.4685  0.2990
  577MOL0     C79513   9.414   6.133   1.833 -0.6232  0.2023  0.9441
  577MOL0     C79514   9.418   6.262   1.786 -0.1032 -0.3760 -0.9123
  577MOL0     C79515   9.531   6.341   1.759  0.2510  0.2449 -0.8916
  577MOL0     C79516   9.516   6.487   1.740  0.0744  1.0319 -0.2941
  577MOL0     C79517   9.656   6.268   1.764 -0.9965  0.1165 -0.5502
  577MOL0     C79518   9.784   6.334   1.732  0.6217  0.0092 -0.2076
  577MOL0     O79519   9.792   6.473   1.756  0.3128 -0.3655 -0.3006
  577MOL0     C79520   9.906   6.541   1.712  0.3005  0.0731  0.4162
  577MOL0     C79521   9.887   6.638   1.609 -0.2467 -0.2095 -0.3166
  577MOL0     C79522  10.001   6.703   1.558  0.3725  0.6390  0.2902
  577MOL0     C79523  10.129   6.679   1.613 -0.0540  0.4238 -0.1240
  577MOL0     O79524  10.233   6.752   1.565 -0.9177  0.2160  0.0198
  577MOL0     C79525  10.351   6.680   1.561  0.5163  1.1423  0.4978
  577MOL0     C79526  10.438   6.737   1.450 -0.3638 -0.6065 -0.3511
  577MOL0     C79527  10.484   6.884   1.477  0.5356  0.8835 -0.0336
  577MOL0     C79528  10.577   6.937   1.366  0.1292  0.4757  0.0097
  577MOL0     C79529  10.709   6.862   1.341 -0.5365 -0.2451  0.3895
  577MOL0     C79530  10.773   6.903   1.208 -0.3983  0.5182 -0.3848
  577MOL0     C79531  10.921   6.873   1.201  0.3964  0.1931  0.3668
  577MOL0     C79532  10.976   6.921   1.063 -0.5906 -0.1455  0.2612
  577MOL0    Cl79533  11.014   6.771   0.962  0.4549 -0.8588 -0.3269
  577MOL0     C79534  10.144   6.585   1.715  0.3785 -0.8876 -0.9081
  577MOL0     C79535  10.033   6.510   1.762 -0.1876  0.0086  0.6618
  577MOL0     O79536   9.881   6.268   1.699  0.6114  0.2064  0.0991
  577MOL0     C79537   9.651   6.131   1.785 -1.0455  0.7723  0.3885
  577MOL0     C79538   9.540   6.068   1.835 -0.1164 -0.2816 -0.4106
  577MOL0     N79539   8.812   5.959   2.287  0.7823  0.3164  0.3910
  577MOL0     N79540   8.713   5.977   2.359  0.3500 -0.0044 -0.6474
  577MOL0     C79541   7.536   5.674   2.442 -0.5606 -0.2507 -0.1186
  577MOL0     C79542   7.429   5.616   2.372  0.3642  0.4348  0.9133
  577MOL0     C79543   6.962   5.575   2.265 -0.2355 -0.8094  0.6551
  577MOL0     C79544   6.992   5.582   2.124  0.2565 -0.1818  0.4773
  577MOL0     C79545   6.896   5.565   2.025  0.2625  0.5337  0.0902
  577MOL0     C79546   6.765   5.531   2.061  0.1224  1.1493 -0.9668
  577MOL0     O79547   6.664   5.492   1.978  0.7166 -0.1802  0.2131
  577MOL0     C79548   6.671   5.482   1.832 -0.5874  0.8817  0.0001
  577MOL0     C79549   6.519   5.472   1.774 -0.2828  0.5870  0.3596
  577MOL0     C79550   6.445   5.609   1.780 -0.1974 -0.8361 -0.0029
  577MOL0     C79551   6.291   5.596   1.745 -0.4865  0.6529 -0.4382
  577MOL0     C79552   6.272   5.556   1.603  0.4390  0.3116  0.1590
  577MOL0     C79553   6.252   5.508   1.492  0.2868 -0.8499  0.5477
  577MOL0     C79554   6.734   5.534   2.202  0.4380  0.4581  0.4029
  577MOL0     C79555   6.830   5.562   2.301  0.6803  0.2882  0.2830
  577MOL0     C79556   6.767   5.549   2.434 -0.3481  0.0473  0.7971
  577MOL0     H79557   7.182   5.813   2.491 -0.3680 -0.2284 -0.6978
  577MOL0     H79558   7.371   5.912   2.607  2.5188 -1.1382  2.1227
  577MOL0     H79559   7.748   5.808   2.438 -0.4059  0.6558  0.7623
  577MOL0     H79560   7.809   5.759   2.605  3.3053  2.5523  0.3562
  577MOL0     H79561   7.775   6.036   2.496  0.6924 -0.1477 -0.9592
  577MOL0     H79562   7.824   5.998   2.664  1.1512  0.2779 -0.1333
  577MOL0     H79563   8.019   6.027   2.580  0.1320  0.4369 -1.0936
  577MOL0     H79564   8.010   5.852   2.543  1.9799  1.8394  2.7517
  577MOL0     H79565   7.936   5.897   2.311  1.3835 -0.6692 -0.2989
  577MOL0     H79566   7.973   6.070   2.339  0.0784 -0.5287 -0.8901
  577MOL0     H79567   8.136   5.909   2.225 -0.2267 -1.0668 -0.4206
  577MOL0     H79568   8.165   5.830   2.385 -0.3973 -0.8898 -1.7302
  577MOL0     H79569   8.219   6.120   2.298 -2.6811 -2.7118 -2.4488
  577MOL0     H79570   8.261   6.053   2.460  2.6208 -2.3616  0.6663
  577MOL0     H79571   8.382   5.946   2.213 -0.6983 -1.1188  0.7233
  577MOL0     H79572   8.425   5.899   2.370  0.0211  0.5715  0.1480
  577MOL0     H79573   8.455   6.183   2.267 -0.6193  0.9119  1.4970
  577MOL0     H79574   8.488   6.135   2.433 -1.1631  0.0711 -0.3266
  577MOL0     H79575   8.634   6.130   2.075  0.8679  0.4708 -0.2742
  577MOL0     H79576   8.831   5.935   1.951 -2.1822  0.0690  1.2439
  577MOL0     H79577   8.934   5.862   2.076  0.2663  0.7525  0.5823
  577MOL0     H79578   8.938   6.155   2.006 -2.2593 -0.6780  1.7352
  577MOL0     H79579   9.035   6.083   2.135 -2.7855  5.4603 -0.1537
  577MOL0     H79580   9.136   5.937   1.967  1.1975  1.5215  2.7120
  577MOL0     H79581   9.023   6.001   1.834  0.2520 -0.6252  0.3241
  577MOL0     H79582   9.156   6.200   1.817  2.7983 -1.8952 -3.3718
  577MOL0     H79583   9.222   6.178   1.985  2.5851  0.2645 -0.7130
  577MOL0     H79584   9.323   6.314   1.776 -0.7687 -1.5229 -0.7825
  577MOL0     H79585   9.409   6.513   1.737 -0.8745 -0.8633  5.1747
  577MOL0     H79586   9.582   6.524   1.661  5.8122 -1.1153  2.9398
  577MOL0     H79587   9.557   6.534   1.830 -1.7266 -0.8150  1.6156
  577MOL0     H79588   9.788   6.667   1.575  0.3996  2.4513 -0.0954
  577MOL0     H79589   9.992   6.768   1.471 -0.7517  1.0967  0.7223
  577MOL0     H79590  10.394   6.691   1.661 -0.0413 -1.4360  1.0988
  577MOL0     H79591  10.339   6.574   1.538  1.5798  1.4162 -1.5557
  577MOL0     H79592  10.528   6.675   1.450 -0.7735 -1.2111  0.4214
  577MOL0     H79593  10.390   6.741   1.352 -1.0931  2.3179  0.0267
  577MOL0     H79594  10.533   6.879   1.574 -0.5021  1.5873  0.5527
  577MOL0     H79595  10.391   6.942   1.479 -1.3764 -1.9987  0.9927
  577MOL0     H79596  10.600   7.039   1.399 -1.8851  0.4363  1.7751
  577MOL0     H79597  10.514   6.945   1.277  0.2854 -0.6092 -0.2067
  577MOL0     H79598  10.773   6.893   1.424 -1.0883 -0.1479  0.7861
  577MOL0     H79599  10.690   6.755   1.356 -0.0866 -0.1633  1.7195
  577MOL0     H79600  10.761   7.012   1.210 -0.5583  0.5487  3.1787
  577MOL0     H79601  10.716   6.862   1.124 -0.6973  2.5640 -1.2534
  577MOL0     H79602  10.931   6.765   1.218  1.7709  0.6022  2.6266
  577MOL0     H79603  10.977   6.923   1.281 -0.5782  0.5836  0.8277
  577MOL0     H79604  11.068   6.972   1.091 -0.0718  0.0665 -1.6443
  577MOL0     H79605  10.912   7.001   1.025 -0.1172  1.4310  2.6113
  577MOL0     H79606  10.243   6.564   1.753  1.0000  0.9717 -1.4198
  577MOL0     H79607  10.047   6.429   1.833 -0.8033  0.0530  0.8366
  577MOL0     H79608   9.746   6.079   1.778 -0.4453  2.0174 -1.5261
  577MOL0     H79609   9.547   5.961   1.850  1.4378 -0.4634 -2.0730
  577MOL0     H79610   7.635   5.631   2.435 -1.2075 -2.3927  2.4339
  577MOL0     H79611   7.441   5.543   2.292 -3.9512 -4.4871  4.0278
  577MOL0     H79612   7.095   5.593   2.091  0.1983  1.2691  0.6808
  577MOL0     H79613   6.916   5.570   1.918 -1.1628 -1.1450 -0.2961
  577MOL0     H79614   6.720   5.572   1.795 -0.6324  1.2887  0.8982
  577MOL0     H79615   6.735   5.395   1.810 -1.5496  0.4396 -1.1495
  577MOL0     H79616   6.467   5.387   1.820  0.1717  0.6341  0.9793
  577MOL0     H79617   6.525   5.439   1.670 -2.2901  3.9015 -0.9505
  577MOL0     H79618   6.462   5.647   1.881  0.6757 -0.1175 -0.4096
  577MOL0     H79619   6.497   5.671   1.706 -0.2546 -1.6396 -0.7341
  577MOL0     H79620   6.242   5.691   1.768 -0.1272  0.0525  3.3729
  577MOL0     H79621   6.251   5.520   1.813  1.2705 -1.8642 -2.0395
  577MOL0     H79622   6.234   5.478   1.391 -1.3024 -1.7561  1.0613
  577MOL0     H79623   6.638   5.501   2.240  1.7729 -0.7668  2.9307
  577MOL0     H79624   6.819   5.613   2.505 -0.7690  2.4327 -0.9429
  577MOL0     H79625   6.664   5.582   2.447  0.3365  1.5793  2.7353
  577MOL0     H79626   6.791   5.446   2.465  3.3246  0.5970  0.2761
  578MOL0     O79627   9.856  10.873   5.934 -0.1995 -0.7424 -0.1807
  578MOL0     C79628   9.762  10.942   5.912  0.2145 -0.8721 -0.1369
  578MOL0     O79629   9.644  10.932   5.975  0.2703 -0.1451 -0.9102
  578MOL0     C79630   9.632  10.829   6.050  0.4365 -0.1138  0.7558
  578MOL0     C79631   9.665  10.835   6.185 -0.2086 -0.6402  0.2037
  578MOL0     C79632   9.641  10.731   6.268 -0.2460  0.0595  0.6911
  578MOL0     C79633   9.580  10.615   6.221  0.4029  0.7962  0.3188
  578MOL0     O79634   9.552  10.494   6.282 -0.3508  0.4009 -0.7765
  578MOL0     C79635   9.592  10.490   6.425  0.3855 -0.1035 -0.3401
  578MOL0     C79636   9.609  10.339   6.440  0.0681 -0.2313  0.0272
  578MOL0     C79637   9.697  10.299   6.560  0.1070  0.1173  0.0583
  578MOL0     C79638   9.651  10.160   6.603  0.8774 -0.4518  0.1017
  578MOL0     C79639   9.727  10.104   6.727  0.1328 -1.3521  0.9091
  578MOL0     C79640   9.643  10.139   6.852 -0.2624 -0.6929 -0.4372
  578MOL0     C79641   9.700  10.086   6.982 -0.2664 -0.3304  0.7412
  578MOL0     C79642   9.641  10.151   7.101 -0.0112 -0.2819  0.0849
  578MOL0     N79643   9.499  10.188   7.102 -0.8570 -0.3544 -0.2723
  578MOL0     C79644   9.443  10.310   7.055 -0.9651 -0.8025 -0.1394
  578MOL0     C79645   9.318  10.308   7.101 -0.0364  0.0647 -0.6808
  578MOL0     C79646   9.206  10.412   7.084 -0.1629  0.6138  0.3981
  578MOL0     C79647   9.216  10.529   7.189 -0.1081 -0.1792 -0.1011
  578MOL0     C79648   9.234  10.480   7.330 -0.5174  0.1236  0.0862
  578MOL0     C79649   9.293  10.598   7.416  0.0177  0.2378  0.1188
  578MOL0     O79650   9.433  10.641   7.382  1.0725 -0.2806 -0.6584
  578MOL0     C79651   9.532  10.550   7.420 -0.2619 -0.6731 -0.4806
  578MOL0     C79652   9.655  10.579   7.364 -0.0143  1.0397 -0.0555
  578MOL0     C79653   9.770  10.495   7.380  0.9341  0.1480  0.7718
  578MOL0     C79654   9.895  10.529   7.296  0.5154 -0.4575 -0.4771
  578MOL0     C79655   9.756  10.379   7.469 -0.4048 -0.1737  0.0408
  578MOL0     C79656   9.873  10.295   7.503 -0.7878 -0.1292 -0.0033
  578MOL0     O79657   9.844  10.176   7.573  0.0160 -0.2447 -0.5258
  578MOL0     C79658   9.944  10.076   7.579  0.2590 -0.8014 -0.3635
  578MOL0     C79659   9.964  10.002   7.694  0.4249  0.5146  0.0617
  578MOL0     C79660  10.068   9.908   7.705 -0.3998  0.0952 -0.6633
  578MOL0     C79661  10.145   9.871   7.600 -0.1611  0.2812  1.1324
  578MOL0     O79662  10.239   9.776   7.601 -0.1254 -0.4223  0.6686
  578MOL0     C79663  10.293   9.714   7.722  0.2717 -1.0125 -0.3873
  578MOL0     C79664  10.402   9.611   7.694  0.5848  0.2802  0.0224
  578MOL0     C79665  10.486   9.572   7.820  0.3811  0.2391  0.3678
  578MOL0     C79666  10.587   9.480   7.794 -0.2898  0.6878 -0.2561
  578MOL0     C79667  10.660   9.435   7.917 -0.9773 -0.5117 -0.6823
  578MOL0     C79668  10.786   9.342   7.871  0.0125  0.2914 -0.7772
  578MOL0     C79669  10.812   9.229   7.978  0.1984  0.2926  0.0318
  578MOL0     C79670  10.919   9.127   7.926 -0.7309  0.5360  0.4572
  578MOL0    Cl79671  11.058   9.212   7.846 -0.0168 -0.1648  0.1544
  578MOL0     C79672  10.122   9.943   7.477 -1.1371  0.0745  0.0637
  578MOL0     C79673  10.020  10.037   7.469 -0.7262 -0.3789 -0.1471
  578MOL0     O79674   9.989  10.332   7.468  0.6440  1.1834 -0.5282
  578MOL0     C79675   9.629  10.358   7.528 -0.3399  0.1703 -0.2863
  578MOL0     C79676   9.520  10.442   7.506  0.1296  0.6320  0.0339
  578MOL0     N79677   9.298  10.197   7.176  0.2714  0.2609 -0.2161
  578MOL0     N79678   9.411  10.127   7.179  0.2291 -0.7690  0.5160
  578MOL0     C79679   9.556  10.602   6.082 -0.5294  0.1656  0.4644
  578MOL0     C79680   9.570  10.714   5.995 -0.7845  0.3297 -0.8354
  578MOL0     C79681   9.792  11.055   5.815  0.0821 -0.3208  0.7665
  578MOL0     C79682   9.923  11.117   5.804 -0.0106 -0.0713  0.5712
  578MOL0     C79683   9.950  11.221   5.712 -0.5394  0.1718 -0.2116
  578MOL0     C79684   9.847  11.271   5.629  0.5558  0.0302  0.4991
  578MOL0     O79685   9.878  11.362   5.535 -0.7983  0.3343 -0.7029
  578MOL0     C79686   9.786  11.470   5.508 -0.3365 -0.4978  0.2366
  578MOL0     C79687   9.845  11.570   5.414 -0.8144 -0.8965 -1.3894
  578MOL0     C79688   9.884  11.502   5.285 -0.6119  0.3976 -0.0170
  578MOL0     C79689   9.936  11.617   5.193 -0.1412  0.2848  0.3564
  578MOL0     C79690  10.014  11.572   5.076 -0.4806 -0.1358 -0.0419
  578MOL0     C79691  10.079  11.529   4.971  0.5567  0.2110 -0.0606
  578MOL0     C79692   9.717  11.212   5.640 -0.4235 -0.9428  0.5068
  578MOL0     C79693   9.686  11.106   5.728 -1.1669  0.4399  0.0684
  578MOL0     C79694   9.553  11.045   5.728 -0.2110 -0.1027 -1.4268
  578MOL0     H79695   9.716  10.925   6.218 -1.7861 -0.9714  3.9781
  578MOL0     H79696   9.667  10.751   6.372  0.9060 -0.3158  0.4860
  578MOL0     H79697   9.510  10.524   6.490 -0.6182 -2.4121 -0.2961
  578MOL0     H79698   9.687  10.544   6.431  0.4798 -0.1961 -0.9794
  578MOL0     H79699   9.508  10.298   6.444 -0.6689  1.5611  1.4365
  578MOL0     H79700   9.658  10.305   6.348  1.1728  0.8487  0.1921
  578MOL0     H79701   9.804  10.313   6.545 -0.1827  2.2539 -0.3544
  578MOL0     H79702   9.682  10.375   6.637  3.9498 -0.5649  1.7171
  578MOL0     H79703   9.543  10.158   6.620  0.5121 -2.6811 -1.9292
  578MOL0     H79704   9.655  10.098   6.513  1.3828 -1.2275  0.6442
  578MOL0     H79705   9.831  10.139   6.734  0.7606 -2.8409 -0.3250
  578MOL0     H79706   9.737   9.995   6.729  2.0854 -1.2110  1.5408
  578MOL0     H79707   9.628  10.248   6.853 -3.2041 -1.0223 -1.1397
  578MOL0     H79708   9.544  10.094   6.845 -0.6694 -0.1241  1.1922
  578MOL0     H79709   9.809  10.100   6.988 -0.5322  1.2752  2.6467
  578MOL0     H79710   9.692   9.977   6.992  0.4692 -0.4790 -0.0582
  578MOL0     H79711   9.652  10.100   7.197  0.3227  0.2499  0.3310
  578MOL0     H79712   9.703  10.241   7.103  1.5847 -1.2736 -1.7352
  578MOL0     H79713   9.485  10.392   6.997 -1.3683 -0.5125 -0.0289
  578MOL0     H79714   9.109  10.362   7.081  1.0256 -1.8158 -2.4512
  578MOL0     H79715   9.212  10.461   6.986 -3.5314  2.6967  1.0556
  578MOL0     H79716   9.308  10.578   7.153  0.6738 -1.8413 -0.4448
  578MOL0     H79717   9.132  10.596   7.171 -0.2710 -0.3893 -0.1178
  578MOL0     H79718   9.139  10.450   7.376 -1.1515  1.1128 -0.5295
  578MOL0     H79719   9.305  10.397   7.335 -3.1965 -2.3710 -0.6081
  578MOL0     H79720   9.235  10.680   7.373  1.6611  1.1443 -0.4834
  578MOL0     H79721   9.264  10.593   7.521  0.9627 -0.1272  0.3775
  578MOL0     H79722   9.674  10.654   7.288  0.9892 -0.1292 -1.0012
  578MOL0     H79723   9.962  10.574   7.369 -4.3836  1.9109  3.1420
  578MOL0     H79724   9.878  10.606   7.219  1.0702  0.5310  0.3673
  578MOL0     H79725   9.947  10.446   7.247 -1.1490  0.0367 -3.3376
  578MOL0     H79726   9.910  10.028   7.785  0.1777 -1.0836  0.3927
  578MOL0     H79727  10.081   9.866   7.804 -2.4266  3.1247  1.0568
  578MOL0     H79728  10.352   9.794   7.770  1.4415 -0.1933 -3.0131
  578MOL0     H79729  10.219   9.683   7.796  0.9364 -3.1284 -0.5465
  578MOL0     H79730  10.341   9.528   7.658 -1.4620  1.8882 -0.3948
  578MOL0     H79731  10.469   9.649   7.616 -1.5213  2.5524 -0.8324
  578MOL0     H79732  10.427   9.531   7.902  1.6051  2.5449  2.5413
  578MOL0     H79733  10.535   9.662   7.857 -2.6923  1.9761  0.4961
  578MOL0     H79734  10.655   9.525   7.722 -2.6991  1.0536 -2.4598
  578MOL0     H79735  10.555   9.393   7.736 -0.8677 -1.4183  2.9313
  578MOL0     H79736  10.672   9.521   7.983 -2.4893  0.3364 -1.4544
  578MOL0     H79737  10.586   9.370   7.964 -1.2798 -0.8280 -1.5690
  578MOL0     H79738  10.873   9.404   7.849  0.2683 -0.0554 -0.7579
  578MOL0     H79739  10.764   9.297   7.774  2.8406  1.4973 -2.0651
  578MOL0     H79740  10.726   9.165   8.002 -0.2903  0.5863 -0.8610
  578MOL0     H79741  10.843   9.279   8.070  1.6883  1.2946 -0.9628
  578MOL0     H79742  10.876   9.056   7.855  0.4763  1.0693 -0.8526
  578MOL0     H79743  10.970   9.080   8.010  1.1661 -0.1896 -1.0288
  578MOL0     H79744  10.169   9.923   7.381 -1.0481 -0.4533  0.2094
  578MOL0     H79745  10.007  10.081   7.371  1.0763  0.5577  0.0098
  578MOL0     H79746   9.618  10.274   7.597 -0.8392  2.0132  1.9863
  578MOL0     H79747   9.427  10.404   7.547  0.7043 -1.5441 -0.5454
  578MOL0     H79748   9.509  10.511   6.048  0.4412 -0.6036  1.1399
  578MOL0     H79749   9.541  10.721   5.891  0.9647  0.3241 -1.3532
  578MOL0     H79750  10.001  11.094   5.875 -1.5709 -0.8152  2.1441
  578MOL0     H79751  10.048  11.265   5.693 -1.0568  0.9269 -1.1767
  578MOL0     H79752   9.700  11.428   5.454  0.1608 -0.4339 -0.6183
  578MOL0     H79753   9.766  11.523   5.602 -0.7686 -0.9148  0.3850
  578MOL0     H79754   9.938  11.603   5.461 -0.9603 -3.9471  1.3678
  578MOL0     H79755   9.782  11.656   5.391  1.9148  1.2072 -1.5138
  578MOL0     H79756   9.967  11.434   5.304  1.3810  3.3211  2.5897
  578MOL0     H79757   9.805  11.442   5.238 -1.1342  1.2798 -0.2857
  578MOL0     H79758   9.994  11.686   5.255  1.3625 -3.4615  3.4769
  578MOL0     H79759   9.848  11.665   5.149 -1.7415 -2.3579  0.4673
  578MOL0     H79760  10.147  11.512   4.890  0.1966 -2.1771  0.0702
  578MOL0     H79761   9.637  11.237   5.571  0.3868 -0.3931 -0.2653
  578MOL0     H79762   9.507  11.061   5.826  0.0466 -1.2844 -1.0850
  578MOL0     H79763   9.494  11.090   5.648 -2.0296  1.2696  0.5701
  578MOL0     H79764   9.562  10.936   5.716  0.8212 -0.5348  2.1031
  579MOL0     O79765   3.364   6.268   5.440  0.3296 -0.2212  0.6422
  579MOL0     C79766   3.316   6.204   5.345  0.9590 -0.2254 -0.4366
  579MOL0     O79767   3.388   6.151   5.245 -0.4781 -0.2197 -0.4513
  579MOL0     C79768   3.518   6.199   5.239 -0.1050 -0.6746  0.2132
  579MOL0     C79769   3.555   6.318   5.157 -0.3762 -0.2654 -0.2408
  579MOL0     C79770   3.691   6.355   5.152 -0.3804 -0.5422 -0.2979
  579MOL0     C79771   3.789   6.288   5.225 -0.6628 -0.3041  0.4201
  579MOL0     O79772   3.922   6.334   5.226  0.6881  0.2624 -0.7505
  579MOL0     C79773   3.955   6.455   5.160  0.3493  0.1440  0.4786
  579MOL0     C79774   4.103   6.482   5.172 -0.4423 -0.5810  0.4143
  579MOL0     C79775   4.200   6.407   5.085 -0.4661  0.1937  0.1034
  579MOL0     C79776   4.314   6.356   5.183 -0.7943  0.1680 -0.1827
  579MOL0     C79777   4.426   6.271   5.115  0.1518  0.0206 -0.0136
  579MOL0     C79778   4.368   6.132   5.064  0.1051 -1.0055 -0.2973
  579MOL0     C79779   4.488   6.046   5.018  0.1974 -0.0518 -0.4118
  579MOL0     C79780   4.433   5.902   4.993  0.5258 -0.1668 -0.5977
  579MOL0     N79781   4.538   5.800   4.990 -0.1743  0.0917 -0.8245
  579MOL0     C79782   4.625   5.793   4.891 -0.1084 -0.3272  0.6481
  579MOL0     C79783   4.707   5.690   4.923 -0.8595  0.2778  0.2000
  579MOL0     C79784   4.834   5.644   4.847  0.8685 -1.1330 -0.6768
  579MOL0     C79785   4.792   5.554   4.732 -0.1279 -1.1852  0.3676
  579MOL0     C79786   4.917   5.511   4.664  0.0699  0.1723 -0.1812
  579MOL0     C79787   5.037   5.467   4.751 -0.3709  0.0314 -0.2988
  579MOL0     O79788   5.012   5.323   4.769  0.3595 -0.8461  0.4237
  579MOL0     C79789   5.106   5.246   4.707  0.5621 -0.0232 -0.6908
  579MOL0     C79790   5.087   5.193   4.577 -0.4391  0.1623 -0.3224
  579MOL0     C79791   5.178   5.105   4.509  0.2883 -0.1296 -0.3211
  579MOL0     C79792   5.163   5.059   4.365  0.3352 -0.6484  0.7140
  579MOL0     C79793   5.293   5.072   4.581  0.1680  0.4756  0.1212
  579MOL0     C79794   5.404   4.982   4.543 -0.6593  0.9806  0.1902
  579MOL0     O79795   5.532   5.027   4.537  1.2102  0.2918  0.1622
  579MOL0     C79796   5.628   4.935   4.509  1.4246  0.6938 -0.1553
  579MOL0     C79797   5.700   4.940   4.390 -1.1038  0.3808  0.4765
  579MOL0     C79798   5.813   4.859   4.365 -0.4127  0.2023 -0.1741
  579MOL0     C79799   5.835   4.756   4.461  0.5444 -0.2602 -0.0017
  579MOL0     O79800   5.919   4.655   4.434 -0.0518  0.0424 -1.0598
  579MOL0     C79801   6.049   4.692   4.383  0.2620  1.0926  0.1427
  579MOL0     C79802   6.135   4.575   4.402  0.7764  0.1739  0.0146
  579MOL0     C79803   6.282   4.586   4.351  0.6258  0.5908  0.5511
  579MOL0     C79804   6.307   4.588   4.197  0.9095 -0.7041 -0.0608
  579MOL0     C79805   6.309   4.452   4.127  0.1962  0.2786  0.1414
  579MOL0     C79806   6.450   4.398   4.091  0.9628  0.6916 -0.3384
  579MOL0     C79807   6.517   4.350   4.230  0.3894  0.5017  0.2061
  579MOL0     C79808   6.667   4.322   4.208 -0.3591  0.4041  0.4629
  579MOL0    Cl79809   6.684   4.208   4.063 -0.2926  0.1183 -0.2207
  579MOL0     C79810   5.751   4.747   4.576  0.2473 -0.3531  0.8282
  579MOL0     C79811   5.651   4.837   4.603  0.1177 -0.6538  0.4952
  579MOL0     O79812   5.362   4.873   4.499 -0.2092  0.0236 -0.9126
  579MOL0     C79813   5.314   5.126   4.713 -0.0120  0.3046  0.4631
  579MOL0     C79814   5.221   5.213   4.771  0.0219  0.2937 -0.4123
  579MOL0     N79815   4.650   5.629   5.033  0.3942  0.3575 -0.2111
  579MOL0     N79816   4.550   5.697   5.076  0.6839  0.1732  0.4926
  579MOL0     C79817   3.755   6.172   5.306 -0.0430  0.0194  0.5030
  579MOL0     C79818   3.616   6.133   5.310 -0.1636  0.0589  0.5728
  579MOL0     C79819   3.171   6.170   5.361 -0.0176 -0.5171  0.0240
  579MOL0     C79820   3.083   6.257   5.433  0.2250  0.4718  0.1222
  579MOL0     C79821   2.954   6.240   5.444 -0.0502  0.9797 -0.2376
  579MOL0     C79822   2.893   6.127   5.390 -0.2546 -1.0305  0.5505
  579MOL0     O79823   2.759   6.099   5.408  1.0867  0.1630 -0.1013
  579MOL0     C79824   2.666   6.206   5.413  0.6262  0.1974 -0.1479
  579MOL0     C79825   2.552   6.165   5.318  0.0478 -0.2057  1.1826
  579MOL0     C79826   2.474   6.037   5.351  0.6068 -0.5631  0.4919
  579MOL0     C79827   2.366   6.001   5.247  0.0861 -0.5081 -0.5001
  579MOL0     C79828   2.417   5.975   5.116 -0.1570 -0.3396 -0.0534
  579MOL0     C79829   2.457   5.934   5.009 -0.3434  0.4942  0.4342
  579MOL0     C79830   2.973   6.039   5.316  0.2342  0.1630 -0.1203
  579MOL0     C79831   3.109   6.062   5.304 -0.4281  0.3041  0.6962
  579MOL0     C79832   3.191   5.951   5.235 -0.6409 -0.0167 -0.7339
  579MOL0     H79833   3.475   6.371   5.107 -1.1944 -1.6592 -0.4887
  579MOL0     H79834   3.714   6.444   5.095  1.2801 -1.1533 -0.6189
  579MOL0     H79835   3.895   6.534   5.206 -0.9472  1.0530 -2.4912
  579MOL0     H79836   3.943   6.447   5.051 -2.1202  1.2945  0.6138
  579MOL0     H79837   4.125   6.585   5.145 -1.1128  0.2703  2.8482
  579MOL0     H79838   4.127   6.483   5.279  1.7324  0.4732 -0.0315
  579MOL0     H79839   4.146   6.329   5.030 -0.4851  0.4983 -0.3151
  579MOL0     H79840   4.254   6.471   5.015  0.6004  0.9577  1.5663
  579MOL0     H79841   4.356   6.449   5.222 -1.2456  0.0568  0.6131
  579MOL0     H79842   4.285   6.307   5.277  0.3309  1.7375  1.0455
  579MOL0     H79843   4.506   6.256   5.188 -0.9056  0.7734  1.3278
  579MOL0     H79844   4.464   6.325   5.028 -3.2787 -0.0373 -1.7270
  579MOL0     H79845   4.319   6.089   5.151 -0.9502  2.4731  0.9758
  579MOL0     H79846   4.295   6.143   4.983 -0.2741  0.2347  0.1975
  579MOL0     H79847   4.569   6.055   5.091 -0.7841  0.7434  0.6309
  579MOL0     H79848   4.527   6.080   4.922 -2.1247  2.3033 -0.6270
  579MOL0     H79849   4.365   5.884   5.076  0.7865 -1.3260 -0.6227
  579MOL0     H79850   4.366   5.905   4.906 -0.1906 -0.6051 -0.0591
  579MOL0     H79851   4.634   5.853   4.801  1.4960  1.1707  1.7357
  579MOL0     H79852   4.886   5.581   4.920 -1.0988 -2.1256 -0.0792
  579MOL0     H79853   4.889   5.728   4.804 -0.1753 -0.4384 -0.6839
  579MOL0     H79854   4.733   5.473   4.777  0.3416  0.7297  5.0710
  579MOL0     H79855   4.724   5.613   4.671  2.5055  0.1196 -1.5083
  579MOL0     H79856   4.891   5.444   4.581 -2.2878  0.2853  0.3844
  579MOL0     H79857   4.955   5.599   4.611  0.5404 -0.7299 -1.3955
  579MOL0     H79858   5.127   5.474   4.689  0.1559 -1.2141  0.2937
  579MOL0     H79859   5.057   5.516   4.846 -0.5833  0.2262 -0.3558
  579MOL0     H79860   4.992   5.206   4.525 -2.0620 -0.9877  2.1420
  579MOL0     H79861   5.089   5.122   4.315  1.0934 -0.4892 -0.2233
  579MOL0     H79862   5.126   4.957   4.356 -2.7378  0.3066  1.2699
  579MOL0     H79863   5.261   5.056   4.317  0.6887 -1.0663  1.4450
  579MOL0     H79864   5.664   4.999   4.306 -0.9296 -1.8277 -1.2488
  579MOL0     H79865   5.870   4.860   4.273  0.2856  3.1029  0.1853
  579MOL0     H79866   6.051   4.719   4.278  2.1681 -2.2195 -0.8158
  579MOL0     H79867   6.091   4.775   4.440  0.5106  1.8708 -1.1356
  579MOL0     H79868   6.124   4.547   4.507  0.1942 -4.9073 -1.1639
  579MOL0     H79869   6.076   4.499   4.350 -1.0253  1.2087  0.4777
  579MOL0     H79870   6.341   4.503   4.392  0.1224 -0.5232 -0.8716
  579MOL0     H79871   6.334   4.673   4.391  0.8752  2.0261 -2.5997
  579MOL0     H79872   6.401   4.641   4.180  1.7648 -1.9146  0.7306
  579MOL0     H79873   6.229   4.649   4.150  0.8404 -0.9666 -0.2968
  579MOL0     H79874   6.257   4.373   4.182 -0.8503  0.4134 -0.6241
  579MOL0     H79875   6.247   4.461   4.037 -1.2414 -0.8846  0.9690
  579MOL0     H79876   6.513   4.473   4.042 -1.4194  1.2966 -2.6613
  579MOL0     H79877   6.430   4.321   4.016 -2.2974  1.4210 -0.3413
  579MOL0     H79878   6.467   4.265   4.278 -1.6973  2.0726  1.0095
  579MOL0     H79879   6.521   4.437   4.296  0.2241  1.7162 -1.3109
  579MOL0     H79880   6.705   4.274   4.299  1.5606  1.2555  0.1548
  579MOL0     H79881   6.727   4.408   4.180  3.4536 -1.9473  0.6312
  579MOL0     H79882   5.776   4.654   4.625  2.6001 -0.1751  0.0703
  579MOL0     H79883   5.589   4.823   4.690  1.7931  0.1084  1.8662
  579MOL0     H79884   5.407   5.108   4.767 -1.1793  1.2942  2.9758
  579MOL0     H79885   5.244   5.248   4.871  1.8432  2.1363 -1.4025
  579MOL0     H79886   3.841   6.124   5.352 -0.1020 -0.2362  0.3473
  579MOL0     H79887   3.594   6.041   5.363 -0.1004 -1.0748 -1.2626
  579MOL0     H79888   3.126   6.350   5.469 -0.0519  0.4843  0.4236
  579MOL0     H79889   2.889   6.302   5.505 -0.9507 -0.7564  0.6425
  579MOL0     H79890   2.628   6.222   5.515  2.2925 -2.4676  1.0072
  579MOL0     H79891   2.716   6.288   5.362 -0.4223 -0.6769 -2.7421
  579MOL0     H79892   2.590   6.164   5.215 -0.9528 -1.5966  0.8068
  579MOL0     H79893   2.484   6.249   5.334  1.2303  0.8280  0.9205
  579MOL0     H79894   2.540   5.952   5.373  3.5991  1.7885  1.2371
  579MOL0     H79895   2.419   6.055   5.443 -0.8340  0.2711 -0.4922
  579MOL0     H79896   2.291   6.080   5.248  3.0909  2.5312 -0.2754
  579MOL0     H79897   2.325   5.906   5.284  2.7424 -1.4158  0.3281
  579MOL0     H79898   2.498   5.898   4.917  2.2922  0.2555  1.6119
  579MOL0     H79899   2.918   5.948   5.294 -1.6804  1.3407 -0.4051
  579MOL0     H79900   3.206   5.976   5.130 -3.6402 -0.6232 -1.4134
  579MOL0     H79901   3.282   5.929   5.291 -1.5495 -0.3515  0.6742
  579MOL0     H79902   3.134   5.859   5.221 -1.2882  0.3234 -0.3865
  580MOL0     O79903   9.305   8.584   5.468  0.3510  0.3502  0.6272
  580MOL0     C79904   9.398   8.520   5.417 -0.2598  0.5056  0.6287
  580MOL0     O79905   9.527   8.545   5.438 -0.3631 -0.1925  0.1574
  580MOL0     C79906   9.551   8.651   5.528  0.4275  0.8712  0.5609
  580MOL0     C79907   9.554   8.638   5.662 -0.1045 -0.1395 -0.8278
  580MOL0     C79908   9.588   8.753   5.740  0.1034  0.0889 -0.0980
  580MOL0     C79909   9.597   8.878   5.675 -0.1492 -0.9313  0.6519
  580MOL0     O79910   9.627   8.997   5.744 -0.0471  0.0857  0.0296
  580MOL0     C79911   9.608   9.005   5.894 -0.1107 -0.4539 -0.7550
  580MOL0     C79912   9.669   9.130   5.968  0.3310  0.0200 -0.3595
  580MOL0     C79913   9.597   9.257   5.918  0.5311 -0.5430 -0.1100
  580MOL0     C79914   9.633   9.380   5.999 -0.7803 -0.2594  0.4446
  580MOL0     C79915   9.732   9.489   5.932 -0.3431  0.9488 -1.0735
  580MOL0     C79916   9.889   9.461   5.930 -0.3630  0.6045 -0.1704
  580MOL0     C79917   9.955   9.568   5.841  0.1709  0.1547  0.3040
  580MOL0     C79918   9.932   9.536   5.687 -0.1976  0.9531  0.4126
  580MOL0     N79919  10.037   9.618   5.627 -0.1788 -0.0437  0.6925
  580MOL0     C79920  10.027   9.760   5.639  0.0982  0.3637 -0.0018
  580MOL0     C79921  10.143   9.810   5.595 -0.9921  0.3959 -0.1964
  580MOL0     C79922  10.193   9.955   5.603  0.0015 -0.5309 -0.0476
  580MOL0     C79923  10.186  10.028   5.739 -0.2190  0.0507  0.2384
  580MOL0     C79924  10.250   9.940   5.859 -0.9171  0.0780 -0.0227
  580MOL0     C79925  10.401   9.912   5.851 -0.5408 -0.3816 -0.4077
  580MOL0     O79926  10.465  10.045   5.861 -0.2970  0.3553 -0.3338
  580MOL0     C79927  10.603  10.050   5.870  0.3680 -0.0391 -0.0399
  580MOL0     C79928  10.662  10.174   5.869 -0.6765 -0.0377 -0.1239
  580MOL0     C79929  10.797  10.200   5.859  0.5831 -0.2283 -0.3657
  580MOL0     C79930  10.831  10.351   5.840 -1.1987 -0.0789  0.1385
  580MOL0     C79931  10.887  10.092   5.881 -0.5224  0.2239 -0.3766
  580MOL0     C79932  11.033  10.103   5.884  0.3927  0.4840  1.1367
  580MOL0     O79933  11.102   9.987   5.873 -0.4065 -0.5025 -0.1120
  580MOL0     C79934  11.238   9.979   5.930  0.7249 -0.4663  0.1075
  580MOL0     C79935  11.335  10.074   5.912  0.1112 -0.3726  0.3597
  580MOL0     C79936  11.464  10.066   5.961  0.6357  0.5597 -0.1238
  580MOL0     C79937  11.509   9.957   6.035 -0.2295 -0.2692  0.0093
  580MOL0     O79938  11.638   9.958   6.090 -0.0421  0.0285  1.1262
  580MOL0     C79939  11.676   9.851   6.178 -0.1771 -0.2555 -0.2221
  580MOL0     C79940  11.822   9.872   6.226  0.6974  0.6984 -0.1247
  580MOL0     C79941  11.942   9.860   6.125  0.5495 -0.2062  0.1461
  580MOL0     C79942  12.079   9.861   6.182  0.0849  0.2203  0.0124
  580MOL0     C79943  12.115  10.003   6.217 -0.1641 -0.2984 -0.9572
  580MOL0     C79944  12.251  10.022   6.282  0.0401  0.2798 -0.8772
  580MOL0     C79945  12.273  10.158   6.351 -0.5488 -0.4396 -0.4957
  580MOL0     C79946  12.194  10.174   6.482  0.1684 -0.7166  0.0398
  580MOL0    Cl79947  12.048  10.276   6.475  0.2153  0.0356 -0.0813
  580MOL0     C79948  11.418   9.854   6.049  0.4829  0.3718  0.1477
  580MOL0     C79949  11.282   9.858   5.993 -1.0359 -0.0316  0.6871
  580MOL0     O79950  11.079  10.207   5.924  0.3774  0.3249 -0.7066
  580MOL0     C79951  10.828   9.964   5.898 -0.0902 -0.8978  0.3408
  580MOL0     C79952  10.688   9.943   5.882 -0.2742  0.2298  0.3853
  580MOL0     N79953  10.214   9.695   5.542  0.0974  0.2844  0.3975
  580MOL0     N79954  10.151   9.583   5.563  0.2081  0.1925 -0.3228
  580MOL0     C79955   9.595   8.891   5.541  0.9700  0.8039 -0.2717
  580MOL0     C79956   9.572   8.774   5.469  0.7311 -0.2845 -0.0086
  580MOL0     C79957   9.369   8.425   5.301 -0.6104 -0.6112  0.3270
  580MOL0     C79958   9.237   8.432   5.258  0.8420 -1.0243  0.5167
  580MOL0     C79959   9.195   8.359   5.152  0.2262  0.2216 -1.0167
  580MOL0     C79960   9.286   8.271   5.083  0.5469  0.1763 -0.6011
  580MOL0     O79961   9.257   8.183   4.981 -0.6081  0.3451  0.4496
  580MOL0     C79962   9.121   8.164   4.941  0.4783  0.2536  0.0132
  580MOL0     C79963   9.088   8.048   4.849  0.6779 -0.5627 -0.2125
  580MOL0     C79964   8.944   8.039   4.799 -0.4571 -0.2023  0.0965
  580MOL0     C79965   8.866   7.991   4.915  0.4692  0.3211 -0.4737
  580MOL0     C79966   8.726   7.954   4.897 -1.0601  0.5973 -0.8621
  580MOL0     C79967   8.612   7.924   4.865 -0.9558 -0.6698  0.3378
  580MOL0     C79968   9.424   8.277   5.115  0.5234 -0.0366  0.0417
  580MOL0     C79969   9.467   8.352   5.228  0.7255  0.2084  0.1476
  580MOL0     C79970   9.611   8.333   5.263 -0.7953 -0.3402  1.0416
  580MOL0     H79971   9.530   8.539   5.699 -2.2260  0.6511  0.0359
  580MOL0     H79972   9.610   8.749   5.846 -0.0856 -0.0938 -0.0636
  580MOL0     H79973   9.652   8.926   5.956 -2.5988 -0.2731  1.4147
  580MOL0     H79974   9.503   9.011   5.923  0.6877  1.0102  2.2971
  580MOL0     H79975   9.647   9.120   6.075 -0.7990  0.4195 -0.5418
  580MOL0     H79976   9.778   9.141   5.970  0.3760  3.5483  5.8982
  580MOL0     H79977   9.621   9.268   5.812 -0.3554 -0.6198 -0.3206
  580MOL0     H79978   9.489   9.246   5.927  0.0385  2.0917 -1.6884
  580MOL0     H79979   9.539   9.434   6.013 -0.4640  0.2010  0.8085
  580MOL0     H79980   9.664   9.354   6.101 -0.2956 -0.7544  0.1745
  580MOL0     H79981   9.710   9.578   5.992  2.1170  1.2961 -0.5907
  580MOL0     H79982   9.697   9.503   5.830  1.7952 -1.2259 -2.1876
  580MOL0     H79983   9.932   9.467   6.030  3.6969 -0.0500 -1.6970
  580MOL0     H79984   9.909   9.360   5.892  0.5812  1.1046 -1.0456
  580MOL0     H79985  10.059   9.582   5.872 -0.3727 -0.1489  2.4636
  580MOL0     H79986   9.914   9.666   5.865  0.4680  0.6730 -1.1848
  580MOL0     H79987   9.953   9.431   5.665 -1.9755  0.7069 -0.2394
  580MOL0     H79988   9.834   9.568   5.650  1.5800  1.6139 -4.4939
  580MOL0     H79989   9.952   9.821   5.690  0.2995  0.2850  0.3910
  580MOL0     H79990  10.149  10.017   5.525  1.4931 -1.3686 -1.6385
  580MOL0     H79991  10.299   9.951   5.576  0.3103  1.6448  0.6707
  580MOL0     H79992  10.239  10.123   5.737  0.6502 -0.3233  2.2795
  580MOL0     H79993  10.083  10.057   5.764 -0.9281 -0.5160 -1.8136
  580MOL0     H79994  10.234   9.994   5.952  2.0225 -1.5300  1.5875
  580MOL0     H79995  10.190   9.849   5.872 -1.0503  0.2087  0.2692
  580MOL0     H79996  10.442   9.853   5.934  2.8611  2.6231  0.3118
  580MOL0     H79997  10.429   9.864   5.757  0.7867 -0.0780 -0.1996
  580MOL0     H79998  10.594  10.258   5.857  0.1021  0.6368  0.0959
  580MOL0     H79999  10.887  10.367   5.747  0.4631  2.2540  1.4431
  580MOL0     H80000  10.890  10.391   5.923 -0.2482 -1.4953  0.1680
  580MOL0     H80001  10.746  10.421   5.843  0.3018  1.7935  1.0362
  580MOL0     H80002  11.308  10.164   5.857  2.4223  0.1299 -0.0631
  580MOL0     H80003  11.523  10.156   5.951 -1.2146  1.9576  0.8805
  580MOL0     H80004  11.605   9.831   6.259  0.3412 -1.6158 -0.0729
  580MOL0     H80005  11.679   9.757   6.121 -0.6541 -1.7136  2.0176
  580MOL0     H80006  11.815   9.975   6.260 -3.5213  0.7454 -0.5629
  580MOL0     H80007  11.854   9.805   6.307 -1.7352 -2.1077 -1.2821
  580MOL0     H80008  11.941   9.954   6.069  0.2102  0.9038  1.9201
  580MOL0     H80009  11.922   9.778   6.056 -0.1201 -0.6904  0.8924
  580MOL0     H80010  12.151   9.818   6.111  1.9712  2.5668  0.3983
  580MOL0     H80011  12.077   9.799   6.272  2.9220 -0.2108 -0.1229
  580MOL0     H80012  12.106  10.072   6.133  1.9633  0.1939 -0.8359
  580MOL0     H80013  12.040  10.038   6.289  1.7528  0.6034  0.7310
  580MOL0     H80014  12.326   9.991   6.207  0.9353 -1.3038  0.6044
  580MOL0     H80015  12.275   9.940   6.350  0.3309  1.2740  0.2329
  580MOL0     H80016  12.258  10.240   6.281  3.8902  0.9257 -0.1337
  580MOL0     H80017  12.380  10.169   6.370 -0.2041  3.0800 -3.4444
  580MOL0     H80018  12.268  10.220   6.549  0.1565  0.6155 -0.8142
  580MOL0     H80019  12.176  10.073   6.519  0.2584 -0.9304 -0.5035
  580MOL0     H80020  11.446   9.771   6.113  0.1680  0.9473  1.0493
  580MOL0     H80021  11.211   9.779   6.013  0.0098 -1.7095 -1.7417
  580MOL0     H80022  10.898   9.882   5.913  3.3796  1.4214 -1.5577
  580MOL0     H80023  10.638   9.847   5.885 -0.1849  0.1357 -0.8029
  580MOL0     H80024   9.604   8.984   5.485  2.6791  0.3199 -0.8641
  580MOL0     H80025   9.577   8.777   5.360 -2.4288 -1.7933 -0.2888
  580MOL0     H80026   9.163   8.497   5.303  0.9993 -1.5095  1.5162
  580MOL0     H80027   9.090   8.348   5.129  0.0176  2.7822 -1.5556
  580MOL0     H80028   9.052   8.161   5.026  1.1390  1.3125  0.5995
  580MOL0     H80029   9.092   8.250   4.880 -1.8595  0.1111  0.8126
  580MOL0     H80030   9.115   7.955   4.900 -0.7864  0.1815  2.0766
  580MOL0     H80031   9.154   8.041   4.762  1.1738 -1.3361  0.2058
  580MOL0     H80032   8.910   8.130   4.749  1.5789  1.7376  2.0004
  580MOL0     H80033   8.943   7.958   4.725  1.2331 -1.7892  1.6917
  580MOL0     H80034   8.870   8.067   4.994  1.1294  1.2720 -1.3974
  580MOL0     H80035   8.919   7.903   4.955  1.1480  1.5762  1.5551
  580MOL0     H80036   8.511   7.898   4.842 -0.6100  1.3820 -4.9208
  580MOL0     H80037   9.492   8.230   5.045 -0.5019 -1.3599 -0.0979
  580MOL0     H80038   9.624   8.307   5.368 -0.0926 -0.8621  0.8314
  580MOL0     H80039   9.664   8.258   5.203  1.6001  2.4371 -0.5926
  580MOL0     H80040   9.658   8.425   5.227 -1.3923 -1.6621 -3.8878
  581MOL0     O80041   9.170   7.286   7.318 -0.6082  0.1905  0.0233
  581MOL0     C80042   9.200   7.374   7.393 -0.0451  0.5240  0.9747
  581MOL0     O80043   9.301   7.358   7.488  0.0426 -0.2936  0.3185
  581MOL0     C80044   9.404   7.282   7.437  0.0123 -0.9374  1.5883
  581MOL0     C80045   9.514   7.353   7.376  0.7607  0.5553  0.0328
  581MOL0     C80046   9.622   7.287   7.318  0.3522 -0.8352 -0.2740
  581MOL0     C80047   9.636   7.147   7.337 -0.6834 -0.5735 -0.1383
  581MOL0     O80048   9.748   7.077   7.302 -0.1138 -0.4350 -0.8778
  581MOL0     C80049   9.831   7.046   7.417  0.1153 -0.0102  0.9742
  581MOL0     C80050   9.969   6.984   7.381  0.2279 -0.1495 -0.9813
  581MOL0     C80051  10.063   7.093   7.322 -0.2643  0.3291  0.1692
  581MOL0     C80052  10.199   7.024   7.273 -0.1748 -1.8054  1.0311
  581MOL0     C80053  10.285   7.143   7.205  0.4671 -0.1476  0.1414
  581MOL0     C80054  10.420   7.092   7.154 -0.1779  0.9850  0.1783
  581MOL0     C80055  10.523   7.200   7.156  0.2257 -0.0478  0.0085
  581MOL0     C80056  10.470   7.331   7.088  0.0568  1.0245 -0.8144
  581MOL0     N80057  10.575   7.431   7.086 -0.5817 -0.0434  0.1145
  581MOL0     C80058  10.676   7.428   6.995  0.2798 -0.5194 -0.0996
  581MOL0     C80059  10.768   7.511   7.045 -0.3799  0.3473  0.3761
  581MOL0     C80060  10.905   7.538   6.989  0.5164 -0.2888  0.5242
  581MOL0     C80061  11.009   7.443   7.045 -0.1120  0.5041 -0.6661
  581MOL0     C80062  11.160   7.476   7.004  0.0980  0.2709 -0.7692
  581MOL0     C80063  11.214   7.591   7.093 -0.2680  0.5403  0.0312
  581MOL0     O80064  11.337   7.556   7.149 -0.2715 -0.0117  0.3563
  581MOL0     C80065  11.459   7.590   7.087 -1.0598 -0.4733 -0.0128
  581MOL0     C80066  11.481   7.669   6.977 -0.0537 -0.3660 -0.0812
  581MOL0     C80067  11.607   7.704   6.920 -0.9335  0.3747  0.1285
  581MOL0     C80068  11.608   7.808   6.806  0.6964  0.2179 -0.0030
  581MOL0     C80069  11.724   7.638   6.982 -0.2958 -0.5913  0.4162
  581MOL0     C80070  11.862   7.657   6.942  0.2198  0.2056  0.5780
  581MOL0     O80071  11.957   7.622   7.027 -0.0381  0.2880 -0.7096
  581MOL0     C80072  12.083   7.669   6.992 -0.3839  0.4586 -0.2883
  581MOL0     C80073  12.191   7.579   6.984  0.5453 -1.0129  0.1058
  581MOL0     C80074  12.321   7.627   6.970 -0.3884 -0.1690 -0.6083
  581MOL0     C80075  12.346   7.763   6.962 -0.1628  1.0181  0.6958
  581MOL0     O80076  12.469   7.818   6.930  0.6417  1.2259 -0.0117
  581MOL0     C80077  12.560   7.745   6.847  0.0505 -0.6567  1.1269
  581MOL0     C80078  12.654   7.845   6.773 -0.3999  0.5154  0.2112
  581MOL0     C80079  12.738   7.774   6.665 -0.2132  0.6813 -0.4912
  581MOL0     C80080  12.837   7.662   6.712 -0.3058  0.1118  0.6098
  581MOL0     C80081  12.921   7.614   6.594 -0.6360 -0.6932 -0.5094
  581MOL0     C80082  12.999   7.722   6.509 -0.1420  0.0450  0.4866
  581MOL0     C80083  13.101   7.664   6.401  0.1122 -0.4626  0.1339
  581MOL0     C80084  13.043   7.563   6.302  0.1879  0.0219  0.3057
  581MOL0    Cl80085  13.159   7.542   6.164 -0.0536  0.2870  0.2868
  581MOL0     C80086  12.241   7.853   6.981  0.5266  0.1017  0.1894
  581MOL0     C80087  12.110   7.807   6.999  0.4915  0.6783  0.0842
  581MOL0     O80088  11.888   7.700   6.834  0.8936 -0.6129  0.0938
  581MOL0     C80089  11.707   7.557   7.094  0.8336  0.1119  0.4808
  581MOL0     C80090  11.572   7.534   7.148  0.7924 -0.0889 -0.1994
  581MOL0     N80091  10.722   7.561   7.167 -0.7843  0.3336 -0.1087
  581MOL0     N80092  10.610   7.508   7.186 -0.7540  0.0297  0.2798
  581MOL0     C80093   9.536   7.077   7.406  0.2690 -0.7582 -0.1471
  581MOL0     C80094   9.426   7.146   7.460 -0.2626 -0.2734 -0.5776
  581MOL0     C80095   9.113   7.493   7.393  0.3049 -0.4605 -0.0316
  581MOL0     C80096   9.116   7.574   7.508  0.3320  1.0243  0.3926
  581MOL0     C80097   9.041   7.687   7.525 -0.3013 -0.2994  0.2773
  581MOL0     C80098   8.951   7.722   7.423  0.2082 -1.6253 -0.4681
  581MOL0     O80099   8.877   7.830   7.441 -0.5663 -0.6178 -0.2269
  581MOL0     C80100   8.746   7.830   7.385 -0.5208  1.0686  0.1029
  581MOL0     C80101   8.657   7.924   7.477 -1.1039  0.0598 -0.2961
  581MOL0     C80102   8.639   7.854   7.615 -0.3887 -0.2337 -0.5992
  581MOL0     C80103   8.653   7.959   7.725  0.3032  0.2661 -0.6032
  581MOL0     C80104   8.659   7.903   7.862 -0.4916 -0.5315  0.2942
  581MOL0     C80105   8.664   7.860   7.968 -0.4422  0.6152 -0.6013
  581MOL0     C80106   8.944   7.646   7.307 -0.1481  0.5134  0.1807
  581MOL0     C80107   9.028   7.529   7.287  0.6797  0.4360  0.1366
  581MOL0     C80108   9.010   7.455   7.154  0.0836 -0.7344  0.4427
  581MOL0     H80109   9.496   7.458   7.353  1.9808  0.6069 -0.7533
  581MOL0     H80110   9.691   7.353   7.267  0.2330  1.0393  1.8213
  581MOL0     H80111   9.766   6.977   7.472 -0.4699  1.4648  2.2013
  581MOL0     H80112   9.845   7.138   7.474  0.5940  0.2212  0.4946
  581MOL0     H80113  10.005   6.939   7.474 -2.6975 -2.3418 -0.7729
  581MOL0     H80114   9.937   6.906   7.311  0.4437 -1.4790  0.3504
  581MOL0     H80115  10.022   7.134   7.229 -0.6044 -0.9297 -0.2511
  581MOL0     H80116  10.087   7.168   7.398  2.0974  0.7442 -0.8882
  581MOL0     H80117  10.258   6.985   7.356  1.2829 -0.2140  0.8111
  581MOL0     H80118  10.182   6.947   7.197  2.8646 -1.0960 -0.5253
  581MOL0     H80119  10.297   7.222   7.280 -0.4626  0.6908 -0.5644
  581MOL0     H80120  10.226   7.184   7.122 -2.3204  1.5379  2.7023
  581MOL0     H80121  10.453   7.009   7.218 -1.5394  0.8951  0.7991
  581MOL0     H80122  10.415   7.059   7.050 -2.0816 -1.0138  0.8347
  581MOL0     H80123  10.616   7.155   7.122 -1.0311 -2.4188 -0.5636
  581MOL0     H80124  10.538   7.215   7.263  2.7331 -0.5462 -0.2248
  581MOL0     H80125  10.440   7.307   6.985  2.7384  2.8243 -2.1332
  581MOL0     H80126  10.386   7.367   7.149  0.9865  1.7762  0.0529
  581MOL0     H80127  10.683   7.376   6.900  1.6363  0.8418 -0.7921
  581MOL0     H80128  10.934   7.637   7.028  1.8952 -1.0669  1.5520
  581MOL0     H80129  10.914   7.548   6.880 -0.5131  0.7376  0.5107
  581MOL0     H80130  10.996   7.440   7.154  1.1140 -2.6709 -0.5061
  581MOL0     H80131  10.986   7.344   7.005  1.5120 -0.5336  0.8047
  581MOL0     H80132  11.215   7.381   7.006 -0.9198 -0.3247  0.6653
  581MOL0     H80133  11.152   7.502   6.898 -1.4976 -1.6638 -1.1979
  581MOL0     H80134  11.222   7.670   7.019 -2.4937  1.7624  0.9937
  581MOL0     H80135  11.144   7.602   7.177  0.2497  2.4024  0.2547
  581MOL0     H80136  11.399   7.720   6.929 -0.1883  0.3563  0.8940
  581MOL0     H80137  11.629   7.746   6.718  2.4478  1.6834 -0.6890
  581MOL0     H80138  11.688   7.882   6.792  2.8414 -2.2436 -1.5309
  581MOL0     H80139  11.510   7.857   6.803  0.7456  0.3097 -0.1492
  581MOL0     H80140  12.171   7.473   6.996 -1.8485 -0.2531  6.3210
  581MOL0     H80141  12.397   7.552   6.953  0.6425  1.0069 -1.3949
  581MOL0     H80142  12.620   7.679   6.909 -0.4584 -3.2480 -0.9812
  581MOL0     H80143  12.505   7.691   6.770  3.0725 -1.5169 -0.5758
  581MOL0     H80144  12.589   7.923   6.731 -2.3811 -0.0568  2.0498
  581MOL0     H80145  12.717   7.887   6.852  0.1203  0.5299 -0.2014
  581MOL0     H80146  12.806   7.854   6.634 -0.5580  0.0438 -3.1011
  581MOL0     H80147  12.676   7.740   6.582 -0.1528 -3.2197  0.8406
  581MOL0     H80148  12.775   7.576   6.737  2.6972 -2.3383  0.2330
  581MOL0     H80149  12.903   7.686   6.796  2.3223  0.4132 -1.4115
  581MOL0     H80150  12.996   7.539   6.620 -0.3512  0.1900  1.4256
  581MOL0     H80151  12.853   7.568   6.522 -0.0525  2.6582 -3.5520
  581MOL0     H80152  13.059   7.786   6.573  0.5790  0.9660 -1.0500
  581MOL0     H80153  12.935   7.799   6.465  0.1269  0.7284  1.2710
  581MOL0     H80154  13.186   7.616   6.452  1.5433  0.9295 -0.8738
  581MOL0     H80155  13.135   7.745   6.336 -0.0631 -1.7405 -1.6223
  581MOL0     H80156  12.947   7.591   6.259  1.0250  1.4805 -0.6826
  581MOL0     H80157  13.039   7.469   6.359  0.9487 -0.4848 -0.4496
  581MOL0     H80158  12.265   7.958   6.969 -0.2143  0.0513 -2.3983
  581MOL0     H80159  12.024   7.873   7.004 -0.9154 -1.1372  2.7919
  581MOL0     H80160  11.781   7.488   7.133 -0.4318 -0.6902  1.5368
  581MOL0     H80161  11.572   7.481   7.243  1.1776  0.3704  0.0592
  581MOL0     H80162   9.547   6.970   7.418 -3.7883 -1.3465 -0.4077
  581MOL0     H80163   9.366   7.105   7.540  0.4609  2.1265  1.2963
  581MOL0     H80164   9.178   7.551   7.594 -1.5110  1.3312  1.8647
  581MOL0     H80165   9.051   7.747   7.614  1.5204 -2.6142  1.7175
  581MOL0     H80166   8.748   7.868   7.282 -1.7764  1.1149  0.0772
  581MOL0     H80167   8.709   7.727   7.378  0.8688  0.6072 -1.1266
  581MOL0     H80168   8.562   7.944   7.426 -0.1948  0.2721 -1.9843
  581MOL0     H80169   8.713   8.017   7.491 -0.0428 -0.6862  0.5871
  581MOL0     H80170   8.549   7.793   7.617 -0.0667 -0.7830 -1.8743
  581MOL0     H80171   8.719   7.783   7.636 -0.8556 -0.5462  0.1580
  581MOL0     H80172   8.572   8.031   7.707  2.4289  3.0151  0.1540
  581MOL0     H80173   8.747   8.014   7.717  0.7537 -0.2342  1.0401
  581MOL0     H80174   8.670   7.812   8.063  3.4725  0.5410 -0.7186
  581MOL0     H80175   8.882   7.672   7.222 -2.1925 -1.5434  0.9230
  581MOL0     H80176   8.954   7.509   7.077  2.5531 -0.1889 -1.0761
  581MOL0     H80177   9.111   7.447   7.111  0.4021  2.5421  0.2792
  581MOL0     H80178   8.977   7.352   7.171  0.7224 -1.3168 -1.5340
  582MOL0     O80179   3.030   3.487  10.262 -0.0394 -0.4090 -0.4549
  582MOL0     C80180   2.929   3.438  10.215 -0.0778  0.2785  0.2446
  582MOL0     O80181   2.924   3.383  10.088 -0.1403 -0.2822 -0.4087
  582MOL0     C80182   3.042   3.367  10.026 -0.1671 -0.7582  0.1254
  582MOL0     C80183   3.098   3.246  10.019 -0.7945 -0.1033 -0.2005
  582MOL0     C80184   3.223   3.227   9.959 -0.1927  0.7041 -0.4167
  582MOL0     C80185   3.299   3.335   9.912 -0.5708  0.9034 -0.5619
  582MOL0     O80186   3.421   3.300   9.858  0.3749  0.8673  0.5052
  582MOL0     C80187   3.476   3.392   9.769 -0.1156 -0.1069  0.0154
  582MOL0     C80188   3.619   3.345   9.756 -0.1803  0.6033  0.2112
  582MOL0     C80189   3.688   3.329   9.891  0.0469  0.1417 -0.1870
  582MOL0     C80190   3.844   3.305   9.877  0.7910  0.8527 -0.7032
  582MOL0     C80191   3.904   3.267  10.020 -0.3180  0.8544  0.9976
  582MOL0     C80192   4.046   3.198  10.000 -0.1754 -0.6764  1.0633
  582MOL0     C80193   4.119   3.190  10.130  0.2098  0.0115  0.3056
  582MOL0     C80194   4.199   3.311  10.171 -0.7643  0.3880 -0.8523
  582MOL0     N80195   4.341   3.312  10.127  0.6726  0.8700 -0.9742
  582MOL0     C80196   4.445   3.406  10.148  0.9605  0.1467 -0.1364
  582MOL0     C80197   4.555   3.366  10.082 -0.1008 -0.5837  0.1699
  582MOL0     C80198   4.689   3.441  10.080 -0.5569 -0.0404 -0.2970
  582MOL0     C80199   4.805   3.347  10.037 -0.4924 -0.6047 -0.3207
  582MOL0     C80200   4.855   3.242  10.140 -0.0648  0.4709  0.3338
  582MOL0     C80201   4.939   3.144  10.058 -0.4570 -0.7339 -0.7323
  582MOL0     O80202   5.066   3.207  10.018 -0.7136 -0.7815 -0.1831
  582MOL0     C80203   5.178   3.221  10.102  0.2428 -0.2410 -0.1378
  582MOL0     C80204   5.299   3.268  10.045  0.0820 -0.4695  0.1837
  582MOL0     C80205   5.412   3.299  10.119  0.1598 -0.7350  0.0122
  582MOL0     C80206   5.537   3.358  10.052  0.1996  0.4376  0.8996
  582MOL0     C80207   5.418   3.253  10.259 -0.1708 -1.2526  0.2559
  582MOL0     C80208   5.527   3.268  10.363  0.5365 -0.1507 -0.4446
  582MOL0     O80209   5.501   3.231  10.499  0.1153  0.7154 -0.1143
  582MOL0     C80210   5.593   3.259  10.592  0.5458  0.0141 -0.0682
  582MOL0     C80211   5.572   3.378  10.657 -0.6874 -0.2296 -0.3515
  582MOL0     C80212   5.647   3.401  10.776  0.1860  0.4249  0.3646
  582MOL0     C80213   5.743   3.313  10.819  0.5289 -0.0375 -0.2898
  582MOL0     O80214   5.830   3.351  10.922  0.8506 -0.0270  0.0769
  582MOL0     C80215   5.971   3.327  10.897  0.9969  0.5058  1.1345
  582MOL0     C80216   6.057   3.426  10.986  0.3648 -0.0661  0.6959
  582MOL0     C80217   6.207   3.426  10.949 -0.2659  0.7760  0.5805
  582MOL0     C80218   6.282   3.290  10.957 -0.2050  0.4027  0.3206
  582MOL0     C80219   6.422   3.334  10.930 -0.1690 -0.0745  0.4777
  582MOL0     C80220   6.515   3.214  10.951  0.3558  0.1396  0.1344
  582MOL0     C80221   6.657   3.254  10.906  0.1972  0.1437 -1.0244
  582MOL0     C80222   6.753   3.139  10.885  0.0027  0.0715 -0.0896
  582MOL0    Cl80223   6.913   3.223  10.908  0.1125  0.4689  0.0527
  582MOL0     C80224   5.765   3.195  10.752 -0.4121 -0.0564 -0.0689
  582MOL0     C80225   5.689   3.172  10.634  0.2140  0.6974  0.1842
  582MOL0     O80226   5.636   3.306  10.322 -0.7140  0.2430  0.4442
  582MOL0     C80227   5.291   3.205  10.308  0.4861  0.1562 -0.4090
  582MOL0     C80228   5.176   3.195  10.234  0.4430 -0.0893 -0.1971
  582MOL0     N80229   4.523   3.242  10.031  0.0220  0.5744 -0.3159
  582MOL0     N80230   4.401   3.205  10.070  0.5636 -0.7093  0.9432
  582MOL0     C80231   3.243   3.463   9.925  0.4644 -0.7309  0.1519
  582MOL0     C80232   3.122   3.477   9.980  0.0144  0.1098 -0.7443
  582MOL0     C80233   2.795   3.429  10.296 -0.8154  0.5366  0.0299
  582MOL0     C80234   2.681   3.380  10.235 -0.3151  0.0283 -0.2103
  582MOL0     C80235   2.558   3.371  10.301  1.0329  0.8198  0.5228
  582MOL0     C80236   2.545   3.451  10.420  0.6594  0.4838  0.2311
  582MOL0     O80237   2.412   3.450  10.481  0.1147  0.7228 -0.1351
  582MOL0     C80238   2.402   3.514  10.608  0.4761 -0.0971 -0.8703
  582MOL0     C80239   2.255   3.517  10.648 -0.4528  0.3131  0.4814
  582MOL0     C80240   2.225   3.551  10.800 -0.4321 -0.3143  0.1116
  582MOL0     C80241   2.311   3.484  10.912  0.3955 -1.2847  0.6914
  582MOL0     C80242   2.269   3.533  11.046 -0.2400 -0.5200  0.5817
  582MOL0     C80243   2.234   3.589  11.151 -0.0519 -0.1738  0.1287
  582MOL0     C80244   2.666   3.499  10.485  0.3019  1.3198 -0.1734
  582MOL0     C80245   2.789   3.493  10.420  0.9491 -0.0429  0.5522
  582MOL0     C80246   2.897   3.563  10.491  0.0705  0.0458 -0.6532
  582MOL0     H80247   3.046   3.158  10.056  2.3562 -2.8226 -1.6789
  582MOL0     H80248   3.262   3.127   9.939 -3.0000 -0.6235  0.2219
  582MOL0     H80249   3.481   3.493   9.812  0.0096 -0.2120  0.2506
  582MOL0     H80250   3.427   3.391   9.672  0.9315 -0.3867 -0.5299
  582MOL0     H80251   3.624   3.243   9.716  2.4959  0.6299  0.3145
  582MOL0     H80252   3.681   3.408   9.692 -2.2659  0.9417 -1.6096
  582MOL0     H80253   3.674   3.407   9.966 -2.7805  2.1943 -2.5688
  582MOL0     H80254   3.637   3.239   9.925 -2.1264  0.4253 -2.3711
  582MOL0     H80255   3.862   3.230   9.800  1.7436  0.9405 -0.5804
  582MOL0     H80256   3.892   3.400   9.852 -0.2413  2.1204  1.7112
  582MOL0     H80257   3.845   3.195  10.077 -1.3918 -1.0318 -2.2224
  582MOL0     H80258   3.921   3.350  10.088  1.3559  0.2612  1.3567
  582MOL0     H80259   4.021   3.103   9.951  2.4613  0.1084 -2.2295
  582MOL0     H80260   4.104   3.254   9.925 -2.3468  3.5171  2.2420
  582MOL0     H80261   4.180   3.101  10.148  1.3406  0.4121 -1.3014
  582MOL0     H80262   4.035   3.188  10.200  0.5792  1.0378  0.7937
  582MOL0     H80263   4.145   3.400  10.136  0.7779  0.7054 -2.5988
  582MOL0     H80264   4.213   3.321  10.279  0.6291  0.8507 -1.0604
  582MOL0     H80265   4.426   3.495  10.207 -0.4601  0.5087 -1.1166
  582MOL0     H80266   4.720   3.479  10.178  1.3424 -3.0595  0.4303
  582MOL0     H80267   4.692   3.533  10.022  2.4026  0.0097 -0.2389
  582MOL0     H80268   4.774   3.287   9.951 -1.5156 -0.6035  0.0299
  582MOL0     H80269   4.895   3.406  10.017  0.5700 -1.5208  1.5396
  582MOL0     H80270   4.917   3.288  10.217 -0.8269  2.0313  0.0590
  582MOL0     H80271   4.763   3.200  10.181 -0.5723  0.8464 -0.3962
  582MOL0     H80272   4.954   3.056  10.121  1.1531 -0.1082 -0.1658
  582MOL0     H80273   4.886   3.112   9.968 -2.7057  2.1987 -0.6037
  582MOL0     H80274   5.292   3.300   9.941 -1.0099 -0.9967  0.0763
  582MOL0     H80275   5.569   3.454  10.093  0.2887  0.7876  0.0300
  582MOL0     H80276   5.533   3.359   9.942  2.5283 -2.5249  0.6495
  582MOL0     H80277   5.624   3.294  10.071  1.1857  1.2904 -0.5096
  582MOL0     H80278   5.506   3.451  10.611 -0.7405 -0.9715 -1.5061
  582MOL0     H80279   5.620   3.492  10.830 -0.6751  0.0430  0.5950
  582MOL0     H80280   5.998   3.228  10.934 -2.0345 -0.0573  2.1367
  582MOL0     H80281   5.997   3.344  10.792  3.6382  2.4313  1.9775
  582MOL0     H80282   6.001   3.519  10.975 -2.5014 -1.6551  0.8302
  582MOL0     H80283   6.050   3.403  11.093  0.9618  0.0293  0.7603
  582MOL0     H80284   6.250   3.492  11.024  0.6181 -1.4195  2.0857
  582MOL0     H80285   6.216   3.467  10.848  0.3251  1.2703  0.8278
  582MOL0     H80286   6.256   3.208  10.888  0.2759 -0.0354  0.6514
  582MOL0     H80287   6.282   3.244  11.056  1.4348  0.3966  0.3439
  582MOL0     H80288   6.427   3.368  10.826 -1.0821 -1.1387  0.0548
  582MOL0     H80289   6.448   3.412  11.002 -0.5727 -0.3612  0.9388
  582MOL0     H80290   6.487   3.139  10.876 -0.4269 -0.7049  1.2413
  582MOL0     H80291   6.517   3.171  11.051  0.1753 -0.4184 -0.0999
  582MOL0     H80292   6.696   3.325  10.979 -1.9893 -0.3163  0.6792
  582MOL0     H80293   6.649   3.304  10.809  2.9435 -0.2085 -1.5218
  582MOL0     H80294   6.745   3.098  10.784 -3.4051  0.6745 -0.1823
  582MOL0     H80295   6.740   3.059  10.959  0.5926  2.4191  2.7349
  582MOL0     H80296   5.837   3.126  10.797  1.5586  1.2665 -1.0336
  582MOL0     H80297   5.698   3.073  10.591  0.3873 -0.6776  3.0954
  582MOL0     H80298   5.283   3.183  10.414  0.8872 -1.2613 -0.6514
  582MOL0     H80299   5.084   3.170  10.286 -0.5841  1.4005 -1.2003
  582MOL0     H80300   3.305   3.549   9.903  2.3569 -1.7496  1.2588
  582MOL0     H80301   3.077   3.576   9.987  1.1290  0.5695  0.4523
  582MOL0     H80302   2.695   3.330  10.140  0.1073 -1.1242  0.4397
  582MOL0     H80303   2.485   3.308  10.251  2.3396 -0.0880 -0.3066
  582MOL0     H80304   2.458   3.459  10.685  0.6772  2.8297  1.2507
  582MOL0     H80305   2.441   3.616  10.605 -0.1082  0.1340 -0.5698
  582MOL0     H80306   2.199   3.427  10.622 -0.5105  0.5509 -0.2581
  582MOL0     H80307   2.194   3.581  10.583 -1.4747 -2.1074 -1.0874
  582MOL0     H80308   2.260   3.654  10.801  0.3445 -0.5725  0.4562
  582MOL0     H80309   2.121   3.542  10.834 -1.1392  0.0142 -1.8706
  582MOL0     H80310   2.417   3.511  10.906  0.5241 -2.0857 -1.6456
  582MOL0     H80311   2.295   3.376  10.912  1.5893 -1.4813  0.2154
  582MOL0     H80312   2.200   3.634  11.243 -2.9324 -5.0108  1.7936
  582MOL0     H80313   2.673   3.530  10.589  0.4153  1.9278 -0.3560
  582MOL0     H80314   2.957   3.625  10.424  4.2220 -0.1254  2.5063
  582MOL0     H80315   2.858   3.625  10.573 -0.6257  0.9637 -1.6518
  582MOL0     H80316   2.969   3.496  10.539 -1.5553 -2.9243 -2.1355
  583MOL0     O80317   2.140   9.528   3.816  0.2497  0.0837  0.1106
  583MOL0     C80318   2.088   9.592   3.726 -0.8746  0.0011  0.1548
  583MOL0     O80319   2.144   9.606   3.606 -0.6606 -0.8428  0.3303
  583MOL0     C80320   2.279   9.583   3.590 -0.1268 -0.4007  0.6469
  583MOL0     C80321   2.378   9.592   3.685 -0.3988 -0.0998 -0.6691
  583MOL0     C80322   2.514   9.582   3.646 -0.0438 -0.7109  0.2464
  583MOL0     C80323   2.546   9.570   3.509 -0.9419 -0.3548 -1.3839
  583MOL0     O80324   2.681   9.565   3.471  0.5350  0.0607 -0.4750
  583MOL0     C80325   2.718   9.658   3.371 -0.0648 -0.6807 -0.6667
  583MOL0     C80326   2.873   9.667   3.384 -0.1495 -0.4447 -0.2121
  583MOL0     C80327   2.917   9.736   3.511  0.5921  0.1955  0.7136
  583MOL0     C80328   3.046   9.665   3.559  0.0932 -0.2129 -0.2278
  583MOL0     C80329   3.123   9.745   3.659 -0.9042 -0.0515 -0.5561
  583MOL0     C80330   3.100   9.702   3.811  0.1945  0.3921  1.0751
  583MOL0     C80331   3.164   9.780   3.919 -0.3762 -0.3847 -0.1361
  583MOL0     C80332   3.320   9.788   3.916  0.4383  0.3444  0.3353
  583MOL0     N80333   3.373   9.902   3.985  0.2973  0.5582 -0.0519
  583MOL0     C80334   3.381  10.029   3.930  0.3138  0.5245  0.8312
  583MOL0     C80335   3.378  10.107   4.034  0.4710  0.0303 -0.7314
  583MOL0     C80336   3.370  10.260   4.045  0.5437 -0.5904  0.1379
  583MOL0     C80337   3.506  10.335   4.002  0.6225 -0.3098 -0.1442
  583MOL0     C80338   3.614  10.324   4.107  0.5343  0.9259 -0.2091
  583MOL0     C80339   3.759  10.363   4.067  0.3550  0.1634 -0.3618
  583MOL0     O80340   3.831  10.350   4.194  0.6904 -0.3575 -0.0396
  583MOL0     C80341   3.963  10.375   4.202  0.9767  0.9775  0.4883
  583MOL0     C80342   4.050  10.418   4.097  0.5360  0.6421 -0.2581
  583MOL0     C80343   4.191  10.437   4.112  0.9041  0.2762 -0.0554
  583MOL0     C80344   4.277  10.477   3.998  0.8172 -0.1973 -0.5714
  583MOL0     C80345   4.246  10.410   4.238  0.5157 -0.5563  0.8328
  583MOL0     C80346   4.387  10.442   4.277  0.0978 -0.2648 -0.8471
  583MOL0     O80347   4.401  10.550   4.360  0.1800 -0.1595 -0.1573
  583MOL0     C80348   4.517  10.604   4.412 -0.2479  1.0408  0.0868
  583MOL0     C80349   4.501  10.715   4.496 -1.3408  0.3869  0.6943
  583MOL0     C80350   4.617  10.769   4.559  0.4749  0.1573 -0.0429
  583MOL0     C80351   4.752  10.717   4.534  0.0806 -0.6392  1.1218
  583MOL0     O80352   4.867  10.752   4.601 -0.1798  0.0227  0.2333
  583MOL0     C80353   4.873  10.877   4.672  0.2933 -0.5278 -0.2639
  583MOL0     C80354   5.009  10.892   4.735  0.0695  0.1054  0.5793
  583MOL0     C80355   5.019  11.024   4.816  0.2502  0.0978 -0.3970
  583MOL0     C80356   4.968  11.149   4.744  0.2585  0.2234  0.8194
  583MOL0     C80357   4.984  11.282   4.823  0.2868  0.5614 -0.0940
  583MOL0     C80358   4.936  11.408   4.764 -0.1652  0.2429  0.0689
  583MOL0     C80359   4.791  11.401   4.711 -0.9481  0.1713 -0.0251
  583MOL0     C80360   4.695  11.370   4.820  0.0661 -0.5294 -0.5247
  583MOL0    Cl80361   4.712  11.486   4.966 -0.2216 -0.0437  0.5256
  583MOL0     C80362   4.764  10.620   4.431  0.1489 -0.0144  0.2887
  583MOL0     C80363   4.649  10.569   4.375  0.5689  0.3747  0.0781
  583MOL0     O80364   4.474  10.372   4.229 -0.3078 -0.0044 -0.1797
  583MOL0     C80365   4.161  10.378   4.347  0.3494 -0.2629 -0.0442
  583MOL0     C80366   4.028  10.346   4.326  0.3608  0.6244  0.1793
  583MOL0     N80367   3.358  10.036   4.152 -0.4150  0.2427  0.5971
  583MOL0     N80368   3.353   9.917   4.117  0.7676  0.1683  0.2030
  583MOL0     C80369   2.452   9.570   3.416 -0.2875 -0.5369 -0.1832
  583MOL0     C80370   2.316   9.580   3.462  0.2651 -0.6653  0.2444
  583MOL0     C80371   1.957   9.664   3.753 -0.8915  0.5033  0.1752
  583MOL0     C80372   1.913   9.762   3.661 -0.2920 -0.3808  0.2594
  583MOL0     C80373   1.798   9.834   3.679  0.2901  0.5391 -0.4665
  583MOL0     C80374   1.719   9.816   3.794  0.6224  1.3496 -0.3944
  583MOL0     O80375   1.601   9.890   3.808  0.2063  0.6432  0.0502
  583MOL0     C80376   1.504   9.846   3.907  0.1403 -0.5094 -0.1348
  583MOL0     C80377   1.454   9.974   3.967 -0.5428 -0.3632  0.1597
  583MOL0     C80378   1.554  10.013   4.076 -0.1150 -0.4137  0.1556
  583MOL0     C80379   1.507  10.140   4.158  0.1264 -0.2827 -0.7136
  583MOL0     C80380   1.387  10.097   4.234  0.3674  1.3125  0.7678
  583MOL0     C80381   1.288  10.040   4.291 -0.1991 -0.2171  1.5375
  583MOL0     C80382   1.761   9.710   3.883 -0.0460 -0.6971  0.1123
  583MOL0     C80383   1.880   9.638   3.864 -0.6659 -0.3639 -0.7783
  583MOL0     C80384   1.908   9.527   3.959  0.3199 -0.8491 -0.5317
  583MOL0     H80385   2.367   9.611   3.791  3.6019  1.7432 -0.3798
  583MOL0     H80386   2.593   9.594   3.719  0.0567  3.1923 -0.2448
  583MOL0     H80387   2.670   9.756   3.382  0.0988 -0.7982  1.6475
  583MOL0     H80388   2.701   9.618   3.271 -0.2244  0.5273 -1.1467
  583MOL0     H80389   2.911   9.565   3.374 -1.5822 -1.1744  1.3979
  583MOL0     H80390   2.910   9.736   3.307  0.0367 -0.2540  0.0437
  583MOL0     H80391   2.952   9.838   3.495  2.1021  0.1859  3.3294
  583MOL0     H80392   2.839   9.728   3.588 -1.3633 -0.7999 -1.2655
  583MOL0     H80393   3.017   9.572   3.609  3.0462 -1.3386 -0.4519
  583MOL0     H80394   3.101   9.635   3.469 -1.8925 -1.3747 -1.1353
  583MOL0     H80395   3.109   9.853   3.660  4.8826  1.0296  0.3260
  583MOL0     H80396   3.229   9.727   3.638 -0.4159  0.7475  1.0634
  583MOL0     H80397   2.993   9.706   3.830 -0.3050  0.7598 -1.4751
  583MOL0     H80398   3.122   9.596   3.822 -0.1845  0.1303 -0.5119
  583MOL0     H80399   3.133   9.726   4.008 -3.9665  0.6966 -0.5924
  583MOL0     H80400   3.122   9.881   3.922  0.2019 -0.1649  2.3933
  583MOL0     H80401   3.367   9.699   3.960  2.5421  1.7866  1.1884
  583MOL0     H80402   3.360   9.801   3.815  2.4835  0.6264  1.1191
  583MOL0     H80403   3.382  10.056   3.825  3.0902  0.8883  0.8817
  583MOL0     H80404   3.346  10.291   4.147  1.0096  0.8681 -0.1635
  583MOL0     H80405   3.286  10.299   3.988 -0.0002 -0.1053  1.2423
  583MOL0     H80406   3.551  10.304   3.907  2.2151 -1.0429  0.7998
  583MOL0     H80407   3.471  10.438   3.991 -1.5708 -1.0816 -0.9299
  583MOL0     H80408   3.583  10.378   4.198  1.3021 -2.2900  2.1498
  583MOL0     H80409   3.621  10.220   4.139 -0.4681  1.9439  4.0653
  583MOL0     H80410   3.809  10.298   3.995  1.6726 -0.6666  1.2132
  583MOL0     H80411   3.754  10.469   4.039  2.3807  0.5198  0.4381
  583MOL0     H80412   4.018  10.430   3.994 -0.5141 -1.9778 -0.3150
  583MOL0     H80413   4.248  10.434   3.901 -1.5930  1.0688 -0.5006
  583MOL0     H80414   4.378  10.440   4.016  1.4953  1.4170 -0.8848
  583MOL0     H80415   4.286  10.584   3.982  0.3773 -0.2379 -1.1706
  583MOL0     H80416   4.409  10.758   4.534  0.5362  1.2460  4.8664
  583MOL0     H80417   4.603  10.845   4.635  1.7745  2.0575 -1.6199
  583MOL0     H80418   4.864  10.969   4.612 -0.2723 -0.1807  0.3399
  583MOL0     H80419   4.798  10.890   4.751  1.8255  1.4293  0.9866
  583MOL0     H80420   5.026  10.805   4.798  2.2260 -0.2605 -0.4319
  583MOL0     H80421   5.087  10.886   4.659 -1.4585  2.1766 -1.3061
  583MOL0     H80422   5.120  11.048   4.849 -0.4915  1.4487  1.0019
  583MOL0     H80423   4.973  11.018   4.915  2.1544  1.5056  0.6268
  583MOL0     H80424   4.860  11.140   4.732  0.3336  0.8916 -0.5570
  583MOL0     H80425   5.012  11.155   4.644 -1.8810 -1.2681 -0.2914
  583MOL0     H80426   4.927  11.263   4.914 -1.7449  2.8014 -0.7920
  583MOL0     H80427   5.088  11.308   4.847 -0.9163  3.7556  2.4672
  583MOL0     H80428   4.994  11.427   4.673 -1.0943 -0.6749 -0.7488
  583MOL0     H80429   4.953  11.494   4.828  0.4806 -0.1367  0.4181
  583MOL0     H80430   4.783  11.340   4.621  1.5139  1.4433 -1.2115
  583MOL0     H80431   4.769  11.501   4.672 -0.5037 -0.0022 -0.7519
  583MOL0     H80432   4.711  11.267   4.853  1.3788 -0.4891 -0.9925
  583MOL0     H80433   4.599  11.375   4.768 -0.3747 -0.6266  0.2570
  583MOL0     H80434   4.865  10.589   4.407 -1.0948 -1.9991 -3.0549
  583MOL0     H80435   4.661  10.485   4.307  3.3621 -0.7866  1.8656
  583MOL0     H80436   4.204  10.351   4.443  0.7442 -3.1363 -0.9387
  583MOL0     H80437   3.973  10.295   4.405 -1.1828  0.1381 -1.1547
  583MOL0     H80438   2.478   9.571   3.311 -1.5702  1.1503 -0.5290
  583MOL0     H80439   2.244   9.573   3.382  0.0277  3.0757 -0.0596
  583MOL0     H80440   1.961   9.790   3.568  0.3985  4.3495  1.7847
  583MOL0     H80441   1.768   9.909   3.607 -2.1191 -0.9084 -1.1137
  583MOL0     H80442   1.423   9.794   3.855 -0.1449  1.6820 -2.0439
  583MOL0     H80443   1.543   9.789   3.992 -1.7852  0.2070  1.3092
  583MOL0     H80444   1.358   9.960   4.018 -1.2936  4.5575  0.6024
  583MOL0     H80445   1.438  10.054   3.895  0.0260 -1.7082 -1.5509
  583MOL0     H80446   1.565   9.934   4.150  1.4109  0.8030  1.3031
  583MOL0     H80447   1.651  10.032   4.027 -1.2876  0.8258 -1.8557
  583MOL0     H80448   1.477  10.227   4.101 -0.2017 -0.8873 -1.4799
  583MOL0     H80449   1.585  10.162   4.232  0.3773 -0.4930 -0.9099
  583MOL0     H80450   1.194  10.005   4.330 -0.3473 -0.4956  0.9434
  583MOL0     H80451   1.704   9.674   3.969  0.9149 -1.6721  0.3690
  583MOL0     H80452   1.828   9.511   4.032  0.9301  1.2622  0.7003
  583MOL0     H80453   1.935   9.436   3.905  1.1379 -0.2231 -1.2193
  583MOL0     H80454   1.997   9.562   4.011 -2.6744  3.9287  2.1717
  584MOL0     O80455   1.183   1.765   9.138  0.3784  0.5663 -0.2224
  584MOL0     C80456   1.147   1.695   9.042 -0.2700 -0.1635 -0.5011
  584MOL0     O80457   1.235   1.620   8.961  0.4316 -0.1311 -0.2373
  584MOL0     C80458   1.370   1.628   8.997  0.9320 -0.2112  0.0169
  584MOL0     C80459   1.424   1.531   9.084 -0.5770 -0.9596 -0.9130
  584MOL0     C80460   1.559   1.542   9.113 -0.4312  0.7701  0.2378
  584MOL0     C80461   1.649   1.627   9.049  0.1792 -0.5099 -0.4578
  584MOL0     O80462   1.781   1.622   9.085 -0.6902 -0.7161 -0.2298
  584MOL0     C80463   1.873   1.708   9.015 -0.2942 -0.9622  0.5638
  584MOL0     C80464   2.024   1.657   9.039  0.3351 -0.2101 -0.0656
  584MOL0     C80465   2.132   1.774   9.042 -1.0861  0.2408 -0.3639
  584MOL0     C80466   2.273   1.722   9.067 -0.0927  0.0462  0.4826
  584MOL0     C80467   2.388   1.816   9.027  0.9300 -0.2981 -0.0653
  584MOL0     C80468   2.394   1.849   8.882 -0.0697  0.1621 -1.2831
  584MOL0     C80469   2.538   1.876   8.843 -0.6579  0.2589  0.2284
  584MOL0     C80470   2.553   1.869   8.690  0.3542  0.1587 -0.1938
  584MOL0     N80471   2.699   1.885   8.665 -0.1567  0.1855 -0.0288
  584MOL0     C80472   2.787   1.787   8.634 -0.1675  0.7094  0.6576
  584MOL0     C80473   2.893   1.861   8.593  0.1439  0.7115 -0.7349
  584MOL0     C80474   3.017   1.809   8.537  0.1886  0.1490  0.5052
  584MOL0     C80475   3.145   1.854   8.609  0.7805  0.5355  0.5665
  584MOL0     C80476   3.172   2.014   8.615  0.7128 -0.0809 -0.2161
  584MOL0     C80477   3.314   2.036   8.617  0.8197  0.0152 -0.0058
  584MOL0     O80478   3.343   2.172   8.604 -0.7421 -0.6184 -0.0661
  584MOL0     C80479   3.454   2.220   8.536  0.0210 -0.3280 -0.1000
  584MOL0     C80480   3.576   2.183   8.577 -1.3387 -0.2473 -0.7433
  584MOL0     C80481   3.706   2.233   8.526  0.2682  0.0730  0.1046
  584MOL0     C80482   3.838   2.176   8.571  1.0636  0.4995  0.0039
  584MOL0     C80483   3.695   2.309   8.407  0.1336 -0.0175 -0.2255
  584MOL0     C80484   3.812   2.371   8.355 -1.0012 -0.0803  0.3180
  584MOL0     O80485   3.906   2.283   8.311  0.4841  1.0821  0.2151
  584MOL0     C80486   4.005   2.326   8.235 -0.0155 -0.3995  0.5355
  584MOL0     C80487   4.130   2.263   8.253 -0.0166 -0.9727 -0.3481
  584MOL0     C80488   4.229   2.284   8.161  1.2465  0.2091  1.5055
  584MOL0     C80489   4.212   2.379   8.056  0.1973 -1.0689 -0.0832
  584MOL0     O80490   4.325   2.418   7.984 -0.5909  0.1972  0.6282
  584MOL0     C80491   4.446   2.424   8.067  0.1693  0.4550 -0.0545
  584MOL0     C80492   4.518   2.297   8.056  0.6410  1.0809  0.4168
  584MOL0     C80493   4.623   2.310   7.944 -0.4667 -0.3204 -0.2880
  584MOL0     C80494   4.685   2.176   7.921 -0.4520 -0.0153  0.6172
  584MOL0     C80495   4.736   2.183   7.782 -0.1884 -0.0965  0.1322
  584MOL0     C80496   4.798   2.055   7.738 -0.5597  0.9737  0.6300
  584MOL0     C80497   4.851   2.039   7.599 -0.2029 -0.1514  0.1201
  584MOL0     C80498   4.861   1.891   7.566 -0.8730  0.3846 -0.3562
  584MOL0    Cl80499   4.919   1.851   7.395 -0.3880  0.0017 -0.5074
  584MOL0     C80500   4.082   2.435   8.033  0.1276 -0.8637 -0.0025
  584MOL0     C80501   3.984   2.410   8.123 -0.6909 -0.2918  0.4129
  584MOL0     O80502   3.815   2.492   8.338 -0.1187 -0.0306 -0.5974
  584MOL0     C80503   3.567   2.355   8.369  0.2061 -0.8123 -0.0510
  584MOL0     C80504   3.446   2.312   8.427 -0.0740  0.8843 -0.5551
  584MOL0     N80505   2.862   1.995   8.614  0.0287  0.0936 -0.2637
  584MOL0     N80506   2.746   2.012   8.647  1.5302 -0.0807  0.1760
  584MOL0     C80507   1.581   1.717   8.957 -0.0922 -0.0214  0.4833
  584MOL0     C80508   1.446   1.723   8.932 -1.5210 -1.0208 -0.2995
  584MOL0     C80509   1.004   1.690   9.005  0.0869 -0.3487  0.3107
  584MOL0     C80510   0.977   1.663   8.872  0.2373  0.0417 -0.9869
  584MOL0     C80511   0.847   1.662   8.825  0.2940  0.2829  0.4687
  584MOL0     C80512   0.735   1.688   8.901 -0.6283  0.7082 -0.5622
  584MOL0     O80513   0.614   1.700   8.833 -0.3025  0.0737 -0.1548
  584MOL0     C80514   0.497   1.761   8.897 -0.9719  0.3428 -0.1397
  584MOL0     C80515   0.403   1.646   8.893  0.1803 -0.0396  0.6354
  584MOL0     C80516   0.256   1.672   8.943 -0.3797  0.1841  0.3664
  584MOL0     C80517   0.191   1.777   8.845  0.1024  0.0440  0.1742
  584MOL0     C80518   0.045   1.771   8.832  0.4647 -0.9688 -0.7240
  584MOL0     C80519  -0.071   1.781   8.810  0.5446 -0.3837 -0.2374
  584MOL0     C80520   0.762   1.712   9.039 -0.3847  0.2187  0.0329
  584MOL0     C80521   0.893   1.696   9.097 -1.7372 -0.6007  0.1523
  584MOL0     C80522   0.914   1.700   9.251  0.5623 -0.4825  0.3393
  584MOL0     H80523   1.369   1.463   9.149  0.8272  0.9266  2.5357
  584MOL0     H80524   1.606   1.467   9.175  0.9921  0.5808 -1.0039
  584MOL0     H80525   1.859   1.807   9.060  0.1923  0.4520 -2.1911
  584MOL0     H80526   1.860   1.711   8.907  1.9354 -2.6048  0.1712
  584MOL0     H80527   2.015   1.603   9.133  1.2527 -2.1560 -1.0274
  584MOL0     H80528   2.051   1.601   8.949 -3.4518  2.0622 -2.9721
  584MOL0     H80529   2.122   1.831   8.949 -0.9654  0.0753 -0.4782
  584MOL0     H80530   2.112   1.848   9.120 -0.5881  0.1526 -0.1465
  584MOL0     H80531   2.284   1.708   9.175 -0.4020 -0.8876  0.4047
  584MOL0     H80532   2.293   1.625   9.020 -0.1956  0.4073 -0.3352
  584MOL0     H80533   2.480   1.759   9.040  0.4643 -1.4031 -1.4107
  584MOL0     H80534   2.384   1.914   9.077  0.5136  0.2856 -1.2005
  584MOL0     H80535   2.358   1.759   8.831 -1.5922 -2.0923  3.2856
  584MOL0     H80536   2.324   1.929   8.856  0.0915  0.8245  0.2694
  584MOL0     H80537   2.611   1.805   8.882  1.1114  0.4768 -2.3705
  584MOL0     H80538   2.570   1.974   8.880 -0.5505  0.7345 -1.0550
  584MOL0     H80539   2.520   1.769   8.660  1.0948 -0.2212  0.2248
  584MOL0     H80540   2.491   1.949   8.649 -2.7309 -0.7901  2.2457
  584MOL0     H80541   2.777   1.679   8.628  2.0698  0.2941  2.5178
  584MOL0     H80542   3.022   1.855   8.438  1.8715  3.7960  2.0991
  584MOL0     H80543   3.031   1.700   8.530  0.8325  0.1774  1.1845
  584MOL0     H80544   3.144   1.817   8.712  1.0544 -2.8782 -0.5137
  584MOL0     H80545   3.228   1.799   8.565  1.3786  1.2078  0.8341
  584MOL0     H80546   3.130   2.046   8.519 -2.0061 -1.9424  0.2232
  584MOL0     H80547   3.122   2.061   8.700 -2.1828 -0.2271 -1.7260
  584MOL0     H80548   3.360   1.993   8.706  2.5185  0.4455 -0.6363
  584MOL0     H80549   3.376   1.994   8.538  0.9927  1.7836 -0.8603
  584MOL0     H80550   3.577   2.106   8.654 -0.6365 -0.5515 -1.0468
  584MOL0     H80551   3.820   2.111   8.658 -1.6783 -0.6933 -1.3675
  584MOL0     H80552   3.909   2.256   8.594 -0.3122  2.0884 -1.1080
  584MOL0     H80553   3.888   2.105   8.505  1.7377 -0.5417  1.5519
  584MOL0     H80554   4.139   2.188   8.331  0.9457 -2.3496 -1.7205
  584MOL0     H80555   4.318   2.225   8.174 -0.3138 -2.1266  2.2546
  584MOL0     H80556   4.504   2.510   8.032  3.3570 -0.5062  2.3895
  584MOL0     H80557   4.411   2.431   8.170 -3.4165 -0.8075 -1.0372
  584MOL0     H80558   4.563   2.268   8.151 -0.9660  1.6608  1.3999
  584MOL0     H80559   4.448   2.221   8.019 -0.2940  1.9310  0.3796
  584MOL0     H80560   4.703   2.370   7.989 -1.7478  0.5085  1.0063
  584MOL0     H80561   4.582   2.355   7.853 -4.2907 -3.3953 -0.3572
  584MOL0     H80562   4.607   2.099   7.924  1.8277 -2.5510 -0.4647
  584MOL0     H80563   4.764   2.144   7.990  2.9487  1.4885 -2.2684
  584MOL0     H80564   4.649   2.202   7.718 -2.0329 -2.6190  1.7114
  584MOL0     H80565   4.820   2.252   7.771  1.2329 -1.9788 -1.5666
  584MOL0     H80566   4.715   1.983   7.740 -0.8870  1.1948 -1.8804
  584MOL0     H80567   4.874   2.020   7.808 -1.7384 -0.0112  1.4851
  584MOL0     H80568   4.953   2.073   7.578  1.2127 -2.4547  2.5345
  584MOL0     H80569   4.783   2.090   7.531 -0.7210 -1.1117 -0.1080
  584MOL0     H80570   4.767   1.837   7.581 -0.5242 -0.1575 -0.0287
  584MOL0     H80571   4.937   1.834   7.621  0.9697  1.4731 -1.6646
  584MOL0     H80572   4.058   2.496   7.946  1.0902 -3.7288 -2.4573
  584MOL0     H80573   3.892   2.454   8.087  1.3740  1.9733 -2.7457
  584MOL0     H80574   3.557   2.428   8.290  2.2555 -0.4348 -0.0358
  584MOL0     H80575   3.345   2.335   8.394 -1.4621 -0.3889  2.3820
  584MOL0     H80576   1.634   1.784   8.889 -0.7598 -0.8485 -0.8813
  584MOL0     H80577   1.393   1.791   8.865 -1.5943 -1.4081 -0.6421
  584MOL0     H80578   1.051   1.643   8.795  0.2285 -2.2938 -0.4555
  584MOL0     H80579   0.838   1.653   8.718 -0.0287  1.7786  0.3460
  584MOL0     H80580   0.508   1.789   9.002 -0.9588  0.9212 -0.2941
  584MOL0     H80581   0.478   1.851   8.837 -0.2076  0.9921  0.5585
  584MOL0     H80582   0.449   1.568   8.955  4.5052  0.8833 -1.0791
  584MOL0     H80583   0.407   1.606   8.791 -0.0577  0.1602  0.5476
  584MOL0     H80584   0.202   1.578   8.950 -1.4033  0.7763  0.7172
  584MOL0     H80585   0.258   1.727   9.038 -1.1120  1.1550 -0.1579
  584MOL0     H80586   0.233   1.776   8.744  1.7374  1.2411  0.7822
  584MOL0     H80587   0.212   1.879   8.881 -0.7869  0.1994  0.2654
  584MOL0     H80588  -0.178   1.792   8.811  0.6381  0.6282 -0.3248
  584MOL0     H80589   0.683   1.728   9.112 -1.6292 -2.9120 -0.4903
  584MOL0     H80590   0.941   1.800   9.289  2.3887 -0.8203  0.0550
  584MOL0     H80591   0.828   1.665   9.308  0.3145  3.0568  2.4385
  584MOL0     H80592   1.004   1.644   9.278  0.0544 -0.7202  1.5940
  585MOL0     O80593   0.071  10.541   4.511  0.2574 -0.0014  0.0924
  585MOL0     C80594   0.088  10.423   4.496 -0.4466 -0.2397  1.0226
  585MOL0     O80595   0.199  10.368   4.435 -0.4397  0.6263 -0.4669
  585MOL0     C80596   0.312  10.439   4.420 -0.0663 -0.0767  0.1254
  585MOL0     C80597   0.363  10.539   4.507  0.3961  0.5808  0.3260
  585MOL0     C80598   0.487  10.593   4.479 -0.3013  0.3376  0.0151
  585MOL0     C80599   0.573  10.534   4.393 -0.7221  0.5216  0.1787
  585MOL0     O80600   0.691  10.594   4.360  0.4574  0.3522 -0.1085
  585MOL0     C80601   0.718  10.722   4.419 -0.0246 -0.2455 -0.1605
  585MOL0     C80602   0.842  10.773   4.360 -0.4360 -0.0135  0.4556
  585MOL0     C80603   0.860  10.740   4.208  0.4632 -0.5761 -0.2188
  585MOL0     C80604   1.001  10.778   4.159  0.1357  0.5023  0.0839
  585MOL0     C80605   0.991  10.769   4.010 -0.0598  1.1919 -1.1697
  585MOL0     C80606   1.127  10.802   3.955  0.0431 -0.3460  0.2872
  585MOL0     C80607   1.135  10.829   3.800  0.2748  1.0117 -0.1347
  585MOL0     C80608   1.283  10.852   3.752 -0.3824  0.2537 -0.3988
  585MOL0     N80609   1.332  10.987   3.789  0.4435  0.1338  0.1391
  585MOL0     C80610   1.372  11.083   3.696 -0.0555  0.1625 -0.3766
  585MOL0     C80611   1.438  11.179   3.767 -0.0799 -0.7837 -0.6655
  585MOL0     C80612   1.506  11.299   3.701  0.3910  0.0230  0.4298
  585MOL0     C80613   1.660  11.291   3.708 -1.0371  0.3392  0.3514
  585MOL0     C80614   1.733  11.356   3.585  0.1736 -0.6753 -0.8864
  585MOL0     C80615   1.872  11.308   3.584 -0.7893 -0.4405 -0.4867
  585MOL0     O80616   1.944  11.344   3.709  0.1681  0.2380  0.1684
  585MOL0     C80617   2.071  11.298   3.740  0.4652  0.3717  0.3067
  585MOL0     C80618   2.171  11.275   3.650 -0.5547 -0.6370  0.0673
  585MOL0     C80619   2.303  11.255   3.684  0.4146 -0.2037 -0.7096
  585MOL0     C80620   2.403  11.233   3.581 -1.4758  0.1233  0.8437
  585MOL0     C80621   2.335  11.244   3.824  0.7098 -0.2890 -0.8624
  585MOL0     C80622   2.469  11.211   3.874 -0.8665  0.1397  0.0052
  585MOL0     O80623   2.497  11.279   3.994 -0.1397 -0.6030  0.2198
  585MOL0     C80624   2.625  11.284   4.039 -0.4183 -0.1045 -0.2201
  585MOL0     C80625   2.732  11.331   3.959 -0.6357  0.9792  0.1408
  585MOL0     C80626   2.869  11.324   4.010  0.1647 -0.8794  0.1320
  585MOL0     C80627   2.897  11.282   4.137  0.4467 -0.4122 -0.4868
  585MOL0     O80628   3.024  11.271   4.187  0.2785 -0.3337  0.1956
  585MOL0     C80629   3.137  11.272   4.093 -0.3628 -0.2362  0.3486
  585MOL0     C80630   3.270  11.231   4.149  0.0419 -0.0620  0.1595
  585MOL0     C80631   3.390  11.286   4.067  0.2955  0.0908  0.0289
  585MOL0     C80632   3.428  11.419   4.114 -0.4773  0.2108  0.0498
  585MOL0     C80633   3.547  11.478   4.023  0.1874 -0.2316  0.0332
  585MOL0     C80634   3.623  11.594   4.089  0.1259 -0.6421 -0.6284
  585MOL0     C80635   3.733  11.651   3.997  0.4352  0.0668 -0.1081
  585MOL0     C80636   3.817  11.769   4.044  0.9339  0.5475 -0.5737
  585MOL0    Cl80637   3.924  11.721   4.171  0.0886  0.0403  0.5175
  585MOL0     C80638   2.793  11.262   4.224 -0.1702  1.2318  0.2982
  585MOL0     C80639   2.660  11.249   4.170 -0.0685 -0.3337 -0.3134
  585MOL0     O80640   2.542  11.130   3.808 -0.3365 -0.6933  0.5366
  585MOL0     C80641   2.225  11.267   3.912 -0.3966 -1.0257  0.4615
  585MOL0     C80642   2.096  11.298   3.875  0.1781 -0.1388 -0.2088
  585MOL0     N80643   1.440  11.142   3.901  0.0232  0.3844 -0.2815
  585MOL0     N80644   1.385  11.025   3.912 -0.0168 -0.7506 -0.2829
  585MOL0     C80645   0.524  10.429   4.315  0.7931  0.4813 -0.3371
  585MOL0     C80646   0.391  10.388   4.318  0.2892  0.3356  1.1021
  585MOL0     C80647  -0.008  10.319   4.543 -0.5166 -0.5093  0.4266
  585MOL0     C80648   0.025  10.180   4.542 -0.3817  0.8610  0.3591
  585MOL0     C80649  -0.068  10.079   4.577  0.0402 -0.9997  0.6600
  585MOL0     C80650  -0.187  10.122   4.630 -0.0738  0.1345 -0.3913
  585MOL0     O80651  -0.283  10.032   4.671  1.1960  0.1393 -0.7527
  585MOL0     C80652  -0.252   9.898   4.721 -0.2750 -0.6749  1.0490
  585MOL0     C80653  -0.382   9.821   4.754  0.3956 -0.4276  0.4481
  585MOL0     C80654  -0.470   9.799   4.622 -0.0259 -0.6789  0.2480
  585MOL0     C80655  -0.589   9.884   4.625 -0.3532  0.1852  0.8359
  585MOL0     C80656  -0.694   9.822   4.703 -0.0879  0.0244 -0.5185
  585MOL0     C80657  -0.786   9.778   4.770 -0.3806  0.1988 -0.8255
  585MOL0     C80658  -0.227  10.248   4.618 -0.1138  0.2836  0.6703
  585MOL0     C80659  -0.143  10.349   4.574  0.3728  0.4193  0.8962
  585MOL0     C80660  -0.202  10.494   4.569 -0.0148  0.4224  0.1374
  585MOL0     H80661   0.313  10.583   4.592  0.2127  0.6767  0.1679
  585MOL0     H80662   0.525  10.668   4.547  1.2940  0.7690 -1.2994
  585MOL0     H80663   0.721  10.719   4.529  2.7729  4.0970  0.1253
  585MOL0     H80664   0.640  10.795   4.392  1.9840  0.3595 -5.3765
  585MOL0     H80665   0.843  10.883   4.366 -1.9237  0.0582 -0.1264
  585MOL0     H80666   0.926  10.727   4.411  1.6620  0.8312 -2.0377
  585MOL0     H80667   0.848  10.637   4.172  0.5543 -1.6285  2.4960
  585MOL0     H80668   0.787  10.800   4.152  0.7464  0.2182  0.2429
  585MOL0     H80669   1.022  10.880   4.193  2.5969  0.3729 -0.8520
  585MOL0     H80670   1.067  10.699   4.196  0.4399 -0.4619 -2.3268
  585MOL0     H80671   0.924  10.847   3.973 -2.4591 -0.3078 -0.2406
  585MOL0     H80672   0.948  10.672   3.983  0.7373 -0.0095  1.5661
  585MOL0     H80673   1.159  10.888   4.014 -3.2456  0.7196  0.6790
  585MOL0     H80674   1.201  10.723   3.974  0.5300 -0.6167 -2.3816
  585MOL0     H80675   1.066  10.909   3.770 -2.3633 -0.2930  2.0349
  585MOL0     H80676   1.096  10.740   3.749  0.1426  0.0828  1.5180
  585MOL0     H80677   1.357  10.783   3.793 -1.1371  0.3246  1.1401
  585MOL0     H80678   1.281  10.842   3.643  0.9986 -2.5405 -0.2519
  585MOL0     H80679   1.374  11.074   3.588  0.3721 -2.3313 -0.2143
  585MOL0     H80680   1.477  11.384   3.765  3.2946 -0.7107  2.9854
  585MOL0     H80681   1.470  11.315   3.599 -0.1412 -1.0505  0.4390
  585MOL0     H80682   1.693  11.342   3.798 -2.0490  0.6598  0.5501
  585MOL0     H80683   1.692  11.187   3.721 -0.4885  0.1681 -1.8603
  585MOL0     H80684   1.678  11.335   3.493 -0.5358  3.0205 -1.4943
  585MOL0     H80685   1.732  11.463   3.608  1.8879 -0.9018  0.4415
  585MOL0     H80686   1.891  11.202   3.563  3.8492  0.6976 -3.3080
  585MOL0     H80687   1.911  11.369   3.503 -0.4749  0.1474  0.1073
  585MOL0     H80688   2.151  11.287   3.544  0.9289 -1.1054 -0.2901
  585MOL0     H80689   2.426  11.127   3.577 -0.3429  0.3178  1.6396
  585MOL0     H80690   2.497  11.284   3.607 -1.3717  1.0080 -1.0703
  585MOL0     H80691   2.382  11.268   3.480  0.3968 -0.3427  0.2637
  585MOL0     H80692   2.726  11.376   3.860  2.9881  2.1247  0.3047
  585MOL0     H80693   2.949  11.351   3.943  0.5326 -0.0849  0.8771
  585MOL0     H80694   3.124  11.208   4.005  0.6465  0.9851 -0.7205
  585MOL0     H80695   3.145  11.376   4.060  0.1339 -0.1780  0.6470
  585MOL0     H80696   3.266  11.285   4.244 -2.8477  0.4454 -0.1526
  585MOL0     H80697   3.282  11.124   4.168 -1.1091 -0.4860 -1.2886
  585MOL0     H80698   3.388  11.288   3.958  4.8604  0.8576 -0.2473
  585MOL0     H80699   3.470  11.212   4.083 -0.8308 -1.3585 -0.8164
  585MOL0     H80700   3.461  11.421   4.218 -0.0426 -0.8002 -0.0575
  585MOL0     H80701   3.352  11.495   4.092  0.1858  1.3138  1.4338
  585MOL0     H80702   3.619  11.397   4.005  0.2419 -0.5430  1.5402
  585MOL0     H80703   3.521  11.518   3.924  3.0083  0.9793 -0.3388
  585MOL0     H80704   3.669  11.561   4.183 -1.0498 -1.2789 -0.2408
  585MOL0     H80705   3.549  11.670   4.114 -0.4265 -1.9353  2.0150
  585MOL0     H80706   3.679  11.682   3.907  0.0983  0.2992  0.1713
  585MOL0     H80707   3.800  11.569   3.970 -0.4104 -0.7475  0.1948
  585MOL0     H80708   3.751  11.852   4.071  0.4287 -0.6615  2.2461
  585MOL0     H80709   3.886  11.794   3.963  0.8402 -0.8763 -1.1211
  585MOL0     H80710   2.805  11.230   4.327 -1.9587  0.1008  0.1875
  585MOL0     H80711   2.580  11.221   4.238 -0.2255 -2.6355 -1.3480
  585MOL0     H80712   2.254  11.262   4.017  0.5199  0.0560  0.2749
  585MOL0     H80713   2.020  11.311   3.951  0.9564 -1.3301  0.7984
  585MOL0     H80714   0.594  10.380   4.249  0.2987  1.4840 -1.6582
  585MOL0     H80715   0.356  10.312   4.249  3.5363 -0.2294 -0.1399
  585MOL0     H80716   0.127  10.146   4.527 -0.8444 -0.9857  1.1352
  585MOL0     H80717  -0.045   9.973   4.576 -1.1400 -1.2944 -1.0422
  585MOL0     H80718  -0.195   9.850   4.641  1.1376  1.4878  0.6791
  585MOL0     H80719  -0.198   9.899   4.816  0.0546  0.0386  0.8659
  585MOL0     H80720  -0.424   9.890   4.828  0.0247 -1.5173  1.2769
  585MOL0     H80721  -0.358   9.727   4.804 -2.1044 -0.5896  1.5007
  585MOL0     H80722  -0.406   9.823   4.537 -0.5803  0.7466  0.2131
  585MOL0     H80723  -0.504   9.695   4.615 -1.3995 -0.1221 -2.9385
  585MOL0     H80724  -0.632   9.872   4.525  0.8042 -2.2240  0.5636
  585MOL0     H80725  -0.569   9.988   4.654  1.7257  0.1534 -0.3541
  585MOL0     H80726  -0.862   9.735   4.832  1.1638 -1.7113 -0.1620
  585MOL0     H80727  -0.326  10.270   4.656 -0.4044  0.3402 -0.0928
  585MOL0     H80728  -0.181  10.530   4.468  1.1089 -0.7642 -0.0786
  585MOL0     H80729  -0.310  10.477   4.574 -0.0219 -0.1649 -1.3417
  585MOL0     H80730  -0.156  10.562   4.641  0.1051  1.2725 -0.7183
  586MOL0     O80731   0.183   6.758   6.930 -0.0136 -0.1594 -0.8666
  586MOL0     C80732   0.112   6.669   6.971 -1.0342 -0.1315  0.2634
  586MOL0     O80733   0.114   6.611   7.088  0.8483 -0.2513 -0.3789
  586MOL0     C80734   0.183   6.669   7.191 -1.0713  0.5808 -0.0636
  586MOL0     C80735   0.315   6.642   7.217 -0.0048 -0.1841 -0.0170
  586MOL0     C80736   0.378   6.700   7.324  0.0822  0.3358  0.5078
  586MOL0     C80737   0.312   6.787   7.412  0.6865  0.4047  0.1269
  586MOL0     O80738   0.381   6.843   7.521  0.4127 -0.5398 -0.2020
  586MOL0     C80739   0.323   6.969   7.578  0.3506  0.0390 -0.7486
  586MOL0     C80740   0.397   7.015   7.697  0.6572  0.2842 -0.1739
  586MOL0     C80741   0.544   7.042   7.671  0.7290 -0.1108 -0.3741
  586MOL0     C80742   0.637   6.995   7.786  0.0645 -0.8580  0.1801
  586MOL0     C80743   0.784   7.001   7.736 -0.8319 -0.1082  0.1104
  586MOL0     C80744   0.834   7.143   7.707 -1.4903  0.4558  0.2509
  586MOL0     C80745   0.994   7.129   7.688  0.4727 -0.7441 -0.8226
  586MOL0     C80746   1.042   7.270   7.655  0.5914  0.2643 -0.5601
  586MOL0     N80747   1.009   7.321   7.522 -0.9304 -0.1875  0.4012
  586MOL0     C80748   1.053   7.254   7.405  0.3153  0.3468  0.0276
  586MOL0     C80749   0.979   7.304   7.302  0.2708  0.6889  0.0031
  586MOL0     C80750   0.985   7.256   7.159 -0.0531  0.2240 -0.3868
  586MOL0     C80751   1.135   7.277   7.108 -0.5786  0.9716  0.1442
  586MOL0     C80752   1.200   7.145   7.141 -0.0929 -0.2819  0.1105
  586MOL0     C80753   1.337   7.129   7.082  0.5914  0.1658 -0.3990
  586MOL0     O80754   1.418   7.028   7.144  0.4710 -0.8170 -0.6467
  586MOL0     C80755   1.550   7.014   7.117  0.0546 -0.4688  0.4220
  586MOL0     C80756   1.617   6.919   7.185  0.2579 -0.0990 -0.3419
  586MOL0     C80757   1.755   6.909   7.188 -0.0428 -0.5401 -0.1359
  586MOL0     C80758   1.821   6.817   7.284  0.7887 -0.1859 -0.4183
  586MOL0     C80759   1.835   6.995   7.101 -0.3676 -0.1722  0.0584
  586MOL0     C80760   1.986   7.006   7.110 -0.5046 -0.4011  0.2254
  586MOL0     O80761   2.042   7.130   7.093 -0.1965  0.3924  1.3352
  586MOL0     C80762   2.179   7.143   7.098 -1.1218  0.3702 -0.3522
  586MOL0     C80763   2.266   7.201   7.003  0.0003  0.0299  1.2548
  586MOL0     C80764   2.402   7.234   7.013  0.0992 -0.1466  0.2932
  586MOL0     C80765   2.460   7.203   7.135 -0.2443 -0.3038  0.4376
  586MOL0     O80766   2.590   7.242   7.148 -0.2030  0.7194  0.1477
  586MOL0     C80767   2.658   7.173   7.257 -0.1174  0.4831  0.9655
  586MOL0     C80768   2.800   7.221   7.270 -0.1489 -0.1822 -0.5093
  586MOL0     C80769   2.901   7.159   7.174  1.1412 -0.1304 -0.1275
  586MOL0     C80770   3.028   7.235   7.177 -0.2010 -0.6870  0.3106
  586MOL0     C80771   3.116   7.197   7.060  0.5374 -0.3728  0.4767
  586MOL0     C80772   3.256   7.252   7.082 -0.4949  0.3750 -0.4352
  586MOL0     C80773   3.343   7.224   6.960 -0.6161 -0.1335 -0.1948
  586MOL0     C80774   3.487   7.267   6.987  0.7749 -0.6206 -0.6328
  586MOL0    Cl80775   3.587   7.196   6.854  0.3200  0.3347  0.5648
  586MOL0     C80776   2.379   7.124   7.230 -0.3532  0.4905  0.6728
  586MOL0     C80777   2.240   7.100   7.208 -0.9742  0.5387 -0.0832
  586MOL0     O80778   2.046   6.905   7.119  0.2153 -0.1488 -0.2217
  586MOL0     C80779   1.765   7.079   7.016  0.1055 -0.7056 -0.2640
  586MOL0     C80780   1.626   7.094   7.023  0.4121  0.0025  0.0576
  586MOL0     N80781   0.884   7.386   7.364  0.7947  0.3920 -0.0793
  586MOL0     N80782   0.898   7.394   7.488  0.2186 -0.4221  0.6679
  586MOL0     C80783   0.176   6.813   7.388 -0.5402  0.4357  0.4451
  586MOL0     C80784   0.117   6.756   7.280 -0.1177 -0.4072 -0.8461
  586MOL0     C80785   0.012   6.622   6.875 -0.6027  0.3741 -0.0422
  586MOL0     C80786  -0.095   6.704   6.833  0.1326 -0.5423  1.9346
  586MOL0     C80787  -0.181   6.667   6.724  0.3038  1.0104  0.4119
  586MOL0     C80788  -0.174   6.535   6.677  0.4017  0.0833  0.0365
  586MOL0     O80789  -0.266   6.500   6.586 -0.4235  0.1210  0.2947
  586MOL0     C80790  -0.306   6.362   6.561  0.1796  0.2426  0.3756
  586MOL0     C80791  -0.402   6.368   6.440  0.0733  0.6125 -0.3434
  586MOL0     C80792  -0.335   6.426   6.321 -0.8722  0.1392  0.3372
  586MOL0     C80793  -0.395   6.387   6.187  0.3249 -0.5400  0.8858
  586MOL0     C80794  -0.377   6.238   6.162  0.1390 -0.0839  0.5517
  586MOL0     C80795  -0.358   6.118   6.143  0.6025  0.4092 -0.2238
  586MOL0     C80796  -0.065   6.452   6.718  0.2268 -0.2604 -0.1271
  586MOL0     C80797   0.025   6.494   6.821  0.0132 -0.6729 -0.7295
  586MOL0     C80798   0.126   6.397   6.874  0.0642  0.9499  0.0868
  586MOL0     H80799   0.371   6.580   7.147 -1.0476 -2.1381  0.7784
  586MOL0     H80800   0.477   6.669   7.354 -0.2271 -1.0094  0.2344
  586MOL0     H80801   0.228   6.940   7.624  1.5774 -3.2715 -0.0651
  586MOL0     H80802   0.304   7.046   7.502  2.5844  0.9508 -0.4782
  586MOL0     H80803   0.353   7.111   7.727 -0.7045 -0.6130  0.7988
  586MOL0     H80804   0.375   6.945   7.778  2.6985 -0.3488 -0.1313
  586MOL0     H80805   0.570   6.987   7.580  2.4735  3.0237 -1.9395
  586MOL0     H80806   0.556   7.148   7.651  1.0127 -0.0101  0.2879
  586MOL0     H80807   0.636   7.072   7.863  2.2414  0.0520 -0.6230
  586MOL0     H80808   0.606   6.895   7.818  3.9598 -1.7653  1.6021
  586MOL0     H80809   0.799   6.927   7.657  0.7870  0.1821  0.1127
  586MOL0     H80810   0.852   6.970   7.816 -0.0729  0.4381 -0.3255
  586MOL0     H80811   0.790   7.172   7.611 -2.2546 -5.5306 -1.5750
  586MOL0     H80812   0.803   7.210   7.788  2.0367  0.2528  1.9473
  586MOL0     H80813   1.017   7.052   7.613 -2.0448 -1.9610 -0.4347
  586MOL0     H80814   1.033   7.098   7.785 -2.8568 -2.4715  0.1148
  586MOL0     H80815   1.008   7.327   7.742 -0.1749  0.1518 -0.7852
  586MOL0     H80816   1.151   7.272   7.661  0.5591  3.5058  1.1135
  586MOL0     H80817   1.132   7.180   7.417 -0.6168 -0.4887  1.2721
  586MOL0     H80818   0.922   7.328   7.106 -1.6531  0.7925  2.1006
  586MOL0     H80819   0.948   7.154   7.150  0.7330 -0.0024 -1.2273
  586MOL0     H80820   1.142   7.285   6.999  1.6733 -0.8742  0.0658
  586MOL0     H80821   1.197   7.355   7.153  1.7835  1.1823 -3.1040
  586MOL0     H80822   1.227   7.138   7.246 -0.0807 -0.6762  0.0827
  586MOL0     H80823   1.137   7.064   7.102 -0.1734  0.4760 -1.4174
  586MOL0     H80824   1.316   7.096   6.979 -0.5873 -0.1932 -0.0596
  586MOL0     H80825   1.386   7.227   7.082  1.1313 -0.0994 -0.7584
  586MOL0     H80826   1.561   6.860   7.258  0.8228  0.6868  0.7558
  586MOL0     H80827   1.874   6.877   7.359  1.9504 -0.9012 -0.6453
  586MOL0     H80828   1.895   6.753   7.236 -0.6344 -1.2426 -1.2991
  586MOL0     H80829   1.750   6.756   7.341  0.7369  0.7674  0.5778
  586MOL0     H80830   2.233   7.218   6.901  1.4809  2.4982  1.1226
  586MOL0     H80831   2.448   7.286   6.929  1.8918 -1.5014  0.3633
  586MOL0     H80832   2.616   7.203   7.354 -0.0720  1.0748  0.8016
  586MOL0     H80833   2.653   7.064   7.247  1.8813  0.5041 -1.3612
  586MOL0     H80834   2.794   7.326   7.238  0.9803  0.3885  1.0426
  586MOL0     H80835   2.834   7.230   7.373 -1.3190  2.2459 -0.2579
  586MOL0     H80836   2.850   7.175   7.078  1.0545  2.8201  0.3204
  586MOL0     H80837   2.910   7.051   7.194 -1.3334 -0.0593  1.8418
  586MOL0     H80838   3.076   7.222   7.275  1.5366 -1.5212 -0.6173
  586MOL0     H80839   3.010   7.343   7.176 -0.1931 -0.6822  0.5546
  586MOL0     H80840   3.114   7.089   7.043 -0.2588 -0.1689 -0.8047
  586MOL0     H80841   3.074   7.247   6.972 -0.1769  0.6012  1.3477
  586MOL0     H80842   3.289   7.192   7.167 -2.0743  1.7223  1.2012
  586MOL0     H80843   3.259   7.360   7.096  0.4728  0.8714 -3.6197
  586MOL0     H80844   3.310   7.284   6.874  0.2391  1.2879  0.4283
  586MOL0     H80845   3.326   7.119   6.937 -1.8731  0.3979 -1.9024
  586MOL0     H80846   3.514   7.231   7.086 -0.3215  0.2663  0.0138
  586MOL0     H80847   3.496   7.376   6.988  2.3782 -0.7374  0.7280
  586MOL0     H80848   2.421   7.085   7.322  3.7408 -1.6924 -1.8492
  586MOL0     H80849   2.172   7.056   7.281  1.8377 -1.9869  1.2467
  586MOL0     H80850   1.815   7.150   6.952 -3.5660  2.9256  0.5025
  586MOL0     H80851   1.580   7.183   6.982  1.0708  0.1553 -0.3478
  586MOL0     H80852   0.128   6.885   7.453 -0.0276  0.4928  0.7628
  586MOL0     H80853   0.013   6.784   7.262 -0.2505 -0.1079  0.3171
  586MOL0     H80854  -0.095   6.808   6.865 -0.8101  0.2569 -0.4160
  586MOL0     H80855  -0.259   6.737   6.697  0.0426  0.3170 -0.7041
  586MOL0     H80856  -0.223   6.291   6.552  0.5853  0.7110  0.3663
  586MOL0     H80857  -0.363   6.329   6.649 -2.3916  1.7145 -0.6321
  586MOL0     H80858  -0.492   6.426   6.461 -1.9718 -2.4267 -0.1348
  586MOL0     H80859  -0.437   6.267   6.421 -0.1799  1.0441 -2.4607
  586MOL0     H80860  -0.335   6.535   6.330  0.5089  0.3504 -1.5416
  586MOL0     H80861  -0.231   6.394   6.315 -0.7756 -0.0335  2.2913
  586MOL0     H80862  -0.342   6.445   6.111 -0.3558 -2.0570 -0.7946
  586MOL0     H80863  -0.502   6.408   6.196  0.4729  0.8705 -0.2219
  586MOL0     H80864  -0.373   6.015   6.116 -0.5899  0.4127  0.3607
  586MOL0     H80865  -0.063   6.352   6.674  0.7587 -1.9552  3.3970
  586MOL0     H80866   0.084   6.332   6.952 -1.0206  0.3633 -0.9490
  586MOL0     H80867   0.148   6.328   6.792 -0.2431  0.6150  0.2803
  586MOL0     H80868   0.221   6.440   6.906  0.3978  1.6460 -1.7634
  587MOL0     O80869   4.187   1.087   5.932  0.6900 -0.1752  0.4599
  587MOL0     C80870   4.200   0.968   5.938  0.4220  0.0132  0.5771
  587MOL0     O80871   4.318   0.895   5.959 -0.0460  0.4024  0.9185
  587MOL0     C80872   4.430   0.970   5.976 -0.2405  1.1430  0.4225
  587MOL0     C80873   4.547   0.930   5.920 -0.2175  0.5478 -0.3937
  587MOL0     C80874   4.663   1.005   5.928  0.7565 -0.4137  0.7928
  587MOL0     C80875   4.665   1.118   6.002 -0.2179 -0.4619 -0.5944
  587MOL0     O80876   4.778   1.199   5.999 -0.0253  0.1686 -0.0125
  587MOL0     C80877   4.797   1.308   6.086 -0.4007 -0.0464 -0.5659
  587MOL0     C80878   4.931   1.357   6.056  0.1159  0.4625  0.4401
  587MOL0     C80879   5.040   1.288   6.140  0.4742 -0.1674  0.6245
  587MOL0     C80880   5.189   1.339   6.128  0.7164  0.3085  0.1610
  587MOL0     C80881   5.287   1.272   6.226  0.2844  0.4947 -0.2592
  587MOL0     C80882   5.432   1.314   6.197  0.2422 -0.1109 -0.1189
  587MOL0     C80883   5.527   1.286   6.307 -0.1448 -0.2911  0.1546
  587MOL0     C80884   5.670   1.341   6.295 -0.3352  0.1795  0.0424
  587MOL0     N80885   5.756   1.291   6.406  0.0847 -0.1164 -0.5130
  587MOL0     C80886   5.771   1.160   6.443 -1.1806  0.7966 -0.2338
  587MOL0     C80887   5.846   1.161   6.553 -0.5684  0.8900 -1.2179
  587MOL0     C80888   5.902   1.033   6.619  0.3652  0.1154 -1.2432
  587MOL0     C80889   6.052   1.019   6.582  0.2322  0.3753 -0.2596
  587MOL0     C80890   6.093   0.868   6.600 -0.2564  0.3214 -0.3384
  587MOL0     C80891   6.237   0.843   6.570 -0.5558  0.0183 -0.4621
  587MOL0     O80892   6.310   0.938   6.645  0.3947  0.3612 -0.0575
  587MOL0     C80893   6.446   0.924   6.660  0.5760 -0.7312  0.6952
  587MOL0     C80894   6.500   1.038   6.714 -0.3721 -0.0149  0.6741
  587MOL0     C80895   6.632   1.036   6.760  0.2219  0.2777 -0.8740
  587MOL0     C80896   6.683   1.173   6.808 -0.1113 -0.4010 -0.1110
  587MOL0     C80897   6.719   0.926   6.729 -0.6710 -0.2555 -0.2130
  587MOL0     C80898   6.871   0.925   6.756  0.0863 -0.0279  0.8590
  587MOL0     O80899   6.941   1.044   6.759 -0.4185 -0.4405  0.4806
  587MOL0     C80900   7.072   1.048   6.810 -0.3796 -0.0736  0.8195
  587MOL0     C80901   7.172   0.968   6.748 -0.4471 -0.0662 -0.1866
  587MOL0     C80902   7.302   0.974   6.790  0.1615  1.0911  1.0546
  587MOL0     C80903   7.335   1.054   6.901  0.8252  0.9645  0.2767
  587MOL0     O80904   7.452   1.053   6.964  0.3420  0.2596 -0.6069
  587MOL0     C80905   7.519   0.934   7.006  0.2058 -0.0881  0.1819
  587MOL0     C80906   7.454   0.890   7.128  0.2022  0.3526 -0.1863
  587MOL0     C80907   7.485   0.983   7.250  0.1659 -0.0975  0.0778
  587MOL0     C80908   7.453   0.918   7.381  0.1239 -0.6244 -0.1690
  587MOL0     C80909   7.462   1.022   7.490 -0.4437  0.1784 -0.2627
  587MOL0     C80910   7.342   1.107   7.506 -0.7244 -0.1728  0.1317
  587MOL0     C80911   7.272   1.062   7.641  0.7374 -0.7431  0.4313
  587MOL0     C80912   7.157   1.166   7.690 -1.1152 -0.1119 -0.2695
  587MOL0    Cl80913   7.104   1.111   7.853  0.3829  0.2568  0.3418
  587MOL0     C80914   7.230   1.134   6.959 -0.8498  0.3865 -0.2318
  587MOL0     C80915   7.104   1.133   6.918 -0.1725 -0.0204  0.6934
  587MOL0     O80916   6.914   0.807   6.783  0.5273 -1.0342 -0.3509
  587MOL0     C80917   6.665   0.820   6.660 -0.2855  0.1376 -0.6145
  587MOL0     C80918   6.532   0.817   6.623  0.3420  0.2404 -0.6752
  587MOL0     N80919   5.886   1.292   6.581 -0.3091  0.1604  0.3652
  587MOL0     N80920   5.818   1.371   6.499 -0.5403  0.0535  0.0345
  587MOL0     C80921   4.550   1.153   6.083  0.3539 -0.7098  0.1139
  587MOL0     C80922   4.430   1.080   6.063  0.2720  0.4359  0.3592
  587MOL0     C80923   4.084   0.881   5.911  0.6243 -1.3248 -0.4539
  587MOL0     C80924   4.107   0.774   5.828  0.7996 -0.3532 -0.4405
  587MOL0     C80925   4.001   0.694   5.799  0.6317 -0.6306 -0.2791
  587MOL0     C80926   3.869   0.717   5.846 -0.0671 -0.1299  1.2509
  587MOL0     O80927   3.775   0.620   5.812  0.3221  0.9177  0.1925
  587MOL0     C80928   3.758   0.602   5.673  0.1598  0.5406  1.5449
  587MOL0     C80929   3.609   0.573   5.651 -1.1689 -0.1652 -0.2098
  587MOL0     C80930   3.523   0.650   5.752  0.2955  0.2616 -0.6868
  587MOL0     C80931   3.386   0.602   5.741  0.1917 -0.3899 -0.3975
  587MOL0     C80932   3.329   0.605   5.611  0.3327  0.1583 -0.4517
  587MOL0     C80933   3.278   0.587   5.508 -0.2815 -0.3945  0.9391
  587MOL0     C80934   3.833   0.833   5.910 -0.2153  0.3087  0.9563
  587MOL0     C80935   3.945   0.913   5.946 -0.2292 -0.4277  0.6242
  587MOL0     C80936   3.905   1.042   6.014 -0.1680 -0.4977  0.0198
  587MOL0     H80937   4.551   0.830   5.879  1.0009 -0.1228  1.2132
  587MOL0     H80938   4.753   0.965   5.883 -0.1605 -2.3127  0.5373
  587MOL0     H80939   4.797   1.274   6.190  0.5141  2.3515  0.2974
  587MOL0     H80940   4.720   1.384   6.073 -1.7110 -1.5330 -1.9411
  587MOL0     H80941   4.947   1.341   5.949 -3.6482  0.2887 -0.2124
  587MOL0     H80942   4.936   1.466   6.062 -1.3096  0.6411 -0.9020
  587MOL0     H80943   5.009   1.310   6.242 -1.7931 -1.6607  0.3259
  587MOL0     H80944   5.034   1.180   6.120 -2.0613 -0.4214  2.3674
  587MOL0     H80945   5.224   1.323   6.025 -2.6634 -2.3334 -0.7889
  587MOL0     H80946   5.181   1.445   6.154 -2.1369  0.2267 -0.0163
  587MOL0     H80947   5.264   1.165   6.222  0.6996  0.1911  2.7197
  587MOL0     H80948   5.262   1.310   6.325 -0.2617  2.1497 -1.0080
  587MOL0     H80949   5.471   1.239   6.127 -0.0490 -2.9078  2.5271
  587MOL0     H80950   5.438   1.422   6.176  2.4524 -0.0895  0.3252
  587MOL0     H80951   5.531   1.178   6.328 -3.0225 -0.5162 -0.0970
  587MOL0     H80952   5.480   1.322   6.399  0.3812 -2.6092  1.4240
  587MOL0     H80953   5.715   1.302   6.203  1.3072  2.0531 -0.0042
  587MOL0     H80954   5.676   1.450   6.299  0.5169  0.0849  2.5313
  587MOL0     H80955   5.717   1.074   6.405  0.3980 -0.8546  1.0806
  587MOL0     H80956   5.830   0.952   6.602 -2.5533  1.8846  1.5252
  587MOL0     H80957   5.885   1.036   6.727  0.0667 -1.4593 -1.2143
  587MOL0     H80958   6.055   1.053   6.479 -0.2091 -0.9936 -0.7524
  587MOL0     H80959   6.108   1.088   6.646  0.6416  1.2330 -1.5056
  587MOL0     H80960   6.083   0.829   6.701 -2.2642 -0.2679 -0.7160
  587MOL0     H80961   6.043   0.802   6.528  1.5413 -0.6825 -0.7131
  587MOL0     H80962   6.255   0.736   6.586  0.9195  0.3358  0.1688
  587MOL0     H80963   6.257   0.860   6.464  3.2445  1.3070  0.2851
  587MOL0     H80964   6.445   1.131   6.716 -1.8787 -0.8680  0.0941
  587MOL0     H80965   6.750   1.222   6.736 -1.5778 -1.0583 -2.0191
  587MOL0     H80966   6.742   1.160   6.899 -1.4461  1.2160  1.0502
  587MOL0     H80967   6.607   1.248   6.832  1.4926  0.5389  2.3587
  587MOL0     H80968   7.155   0.908   6.658 -0.8762  0.0207 -0.1654
  587MOL0     H80969   7.375   0.913   6.739  0.2145  0.6727  1.6139
  587MOL0     H80970   7.514   0.861   6.925  0.2961  0.4904 -0.3494
  587MOL0     H80971   7.624   0.947   7.034  0.9169  1.1043 -2.6892
  587MOL0     H80972   7.345   0.901   7.134  0.2134 -0.0260  1.0517
  587MOL0     H80973   7.480   0.786   7.149 -2.4318 -1.0076 -3.0364
  587MOL0     H80974   7.431   1.078   7.250  1.0689  0.4336 -0.6490
  587MOL0     H80975   7.591   1.009   7.250  0.2351 -0.3574 -0.6647
  587MOL0     H80976   7.528   0.840   7.393 -2.0805 -2.9839 -0.6978
  587MOL0     H80977   7.349   0.883   7.376 -0.4115  0.6069  1.2790
  587MOL0     H80978   7.471   0.972   7.586  0.4821 -1.2830 -1.0826
  587MOL0     H80979   7.543   1.094   7.478  0.1302  0.1115  2.5967
  587MOL0     H80980   7.279   1.092   7.417 -0.0249 -0.1866 -0.3716
  587MOL0     H80981   7.370   1.212   7.518 -2.8646  0.4037  0.4600
  587MOL0     H80982   7.346   1.053   7.721 -0.3044  1.9151  1.8217
  587MOL0     H80983   7.219   0.967   7.633  1.4926 -1.3338  2.0391
  587MOL0     H80984   7.066   1.155   7.630 -2.4687 -1.1089  1.8611
  587MOL0     H80985   7.194   1.268   7.706 -1.1510  0.0912 -1.3977
  587MOL0     H80986   7.261   1.201   7.039  2.5059 -0.7908 -0.4067
  587MOL0     H80987   7.028   1.192   6.969  1.1697  1.5671  0.9245
  587MOL0     H80988   6.721   0.732   6.629  0.7048 -1.1052  3.8376
  587MOL0     H80989   6.484   0.728   6.584 -0.7768 -0.0386  1.2147
  587MOL0     H80990   4.547   1.234   6.155 -1.5756  1.6487 -2.3869
  587MOL0     H80991   4.347   1.084   6.132 -0.0386 -0.0109  0.0176
  587MOL0     H80992   4.196   0.763   5.767  1.4058  2.7441 -0.2633
  587MOL0     H80993   4.030   0.599   5.754 -0.1928 -1.3021  0.5542
  587MOL0     H80994   3.795   0.693   5.624 -0.7878  1.9893  3.3950
  587MOL0     H80995   3.815   0.522   5.624 -3.5118 -0.6618 -1.2245
  587MOL0     H80996   3.582   0.467   5.652  1.1407 -0.8118 -0.9411
  587MOL0     H80997   3.589   0.614   5.551 -1.1608 -0.9638 -0.5430
  587MOL0     H80998   3.548   0.628   5.856  0.5458  2.4646 -0.2262
  587MOL0     H80999   3.528   0.759   5.741 -0.3588  0.6770  2.2297
  587MOL0     H81000   3.325   0.663   5.808  2.5185 -0.7674  2.2284
  587MOL0     H81001   3.391   0.499   5.777  0.8330 -0.5138 -0.8131
  587MOL0     H81002   3.248   0.578   5.406  2.0743  0.9467  0.0442
  587MOL0     H81003   3.729   0.860   5.926 -0.5208  1.1589 -1.9406
  587MOL0     H81004   3.886   1.128   5.949 -0.5602  1.6297  2.7853
  587MOL0     H81005   3.810   1.020   6.063 -0.3019 -1.7273 -0.7418
  587MOL0     H81006   3.984   1.063   6.087 -0.2995 -0.5985  0.1906
  588MOL0     O81007   9.850   8.932  10.931 -0.1216  0.6490  0.2944
  588MOL0     C81008   9.793   8.885  10.831  1.3435 -0.5652  0.2011
  588MOL0     O81009   9.695   8.948  10.748 -0.7425 -0.0270 -0.0950
  588MOL0     C81010   9.664   9.076  10.765  1.0485 -0.4497  0.2822
  588MOL0     C81011   9.541   9.106  10.705  0.2072  0.1964 -0.8325
  588MOL0     C81012   9.503   9.237  10.688 -0.1877  0.2928 -0.4639
  588MOL0     C81013   9.578   9.354  10.735  0.3502 -0.1461  0.8318
  588MOL0     O81014   9.524   9.472  10.697  0.1304  0.0328 -0.3842
  588MOL0     C81015   9.551   9.588  10.780 -0.3708 -0.0175  0.1069
  588MOL0     C81016   9.463   9.595  10.903 -0.1832  0.8623 -0.5061
  588MOL0     C81017   9.484   9.733  10.962  1.0592 -0.8575  0.5715
  588MOL0     C81018   9.372   9.838  10.935 -0.4160  0.6581  0.1334
  588MOL0     C81019   9.346   9.933  11.058 -0.5682 -0.1136  0.1157
  588MOL0     C81020   9.240  10.044  11.027  0.2414 -0.2288  0.6485
  588MOL0     C81021   9.262  10.173  11.113  0.7961 -0.4347 -0.3236
  588MOL0     C81022   9.236  10.168  11.261 -0.3527  0.0865  0.7780
  588MOL0     N81023   9.244  10.296  11.327  0.0891  0.1926 -0.0319
  588MOL0     C81024   9.353  10.355  11.385  0.0891 -0.0221  0.6018
  588MOL0     C81025   9.309  10.426  11.494 -0.2956 -0.8915  1.0014
  588MOL0     C81026   9.384  10.512  11.594 -0.3387  0.0932  0.9348
  588MOL0     C81027   9.409  10.656  11.537  0.2644  1.1864  0.5741
  588MOL0     C81028   9.453  10.751  11.643  0.0108 -0.3601 -1.7718
  588MOL0     C81029   9.486  10.901  11.589 -0.4385 -0.1434 -0.0020
  588MOL0     O81030   9.608  10.892  11.516 -0.2457  0.0154  0.2613
  588MOL0     C81031   9.681  11.013  11.510  0.3771  0.4092  0.1957
  588MOL0     C81032   9.625  11.143  11.506  0.0601  0.1999  0.0835
  588MOL0     C81033   9.707  11.254  11.476 -0.6041  0.0902 -0.9501
  588MOL0     C81034   9.637  11.395  11.495  0.2112 -0.7684  0.2738
  588MOL0     C81035   9.843  11.237  11.456 -0.6047 -0.3538  0.9261
  588MOL0     C81036   9.928  11.348  11.397  0.2955  0.4209  0.7773
  588MOL0     O81037  10.059  11.316  11.384  0.0942  0.3569  0.1095
  588MOL0     C81038  10.147  11.411  11.332  0.1007 -0.0338 -0.5502
  588MOL0     C81039  10.220  11.369  11.224 -0.3022  0.0759  0.2485
  588MOL0     C81040  10.299  11.465  11.161  0.6549 -0.2478 -0.2369
  588MOL0     C81041  10.304  11.595  11.203 -0.5164  0.6287  0.1767
  588MOL0     O81042  10.380  11.686  11.131 -0.5953  0.1255  0.7885
  588MOL0     C81043  10.336  11.821  11.116  0.6908 -0.6115  0.5205
  588MOL0     C81044  10.285  11.833  10.967  0.2696  0.0789  0.0297
  588MOL0     C81045  10.214  11.973  10.955  0.4012  0.3930 -0.0750
  588MOL0     C81046  10.161  12.005  10.812 -0.3199 -0.2905 -0.1256
  588MOL0     C81047  10.156  12.153  10.778 -0.1684 -0.6861  0.2409
  588MOL0     C81048  10.067  12.186  10.661 -0.2746  0.1053  0.1896
  588MOL0     C81049  10.137  12.120  10.539 -0.4461  0.6676  0.1054
  588MOL0     C81050  10.070  12.181  10.411 -1.0740  0.0282  0.1344
  588MOL0    Cl81051  10.115  12.076  10.267 -0.3223 -0.8398 -0.0953
  588MOL0     C81052  10.243  11.634  11.322 -0.1748 -0.2102  1.2867
  588MOL0     C81053  10.152  11.547  11.379  0.4834 -0.2555  0.5637
  588MOL0     O81054   9.871  11.447  11.344 -0.2856  0.1010 -0.6585
  588MOL0     C81055   9.897  11.106  11.477  0.1988  0.3871 -0.0548
  588MOL0     C81056   9.817  10.992  11.484 -0.8843 -0.4175  0.2612
  588MOL0     N81057   9.175  10.418  11.495  0.0094 -0.1785 -0.6407
  588MOL0     N81058   9.140  10.351  11.391  0.2084  0.5873  0.0654
  588MOL0     C81059   9.704   9.319  10.793  0.1650  0.1261  0.5375
  588MOL0     C81060   9.745   9.183  10.808  1.0187 -0.2298 -0.6646
  588MOL0     C81061   9.857   8.761  10.767 -1.0783  0.3434 -1.0455
  588MOL0     C81062   9.770   8.663  10.715  0.2331 -0.0777 -0.0233
  588MOL0     C81063   9.810   8.540  10.671  0.0439 -0.1308  0.3699
  588MOL0     C81064   9.949   8.514  10.663  0.0846  0.3155 -0.3837
  588MOL0     O81065   9.984   8.396  10.608  0.1959 -0.0679  0.6738
  588MOL0     C81066  10.127   8.371  10.582  0.1944 -0.0294 -0.1003
  588MOL0     C81067  10.210   8.312  10.702 -0.0874 -0.4860  0.6244
  588MOL0     C81068  10.361   8.263  10.665 -0.0522  0.2346  0.2706
  588MOL0     C81069  10.467   8.258  10.775  0.2656  0.2061  0.0987
  588MOL0     C81070  10.421   8.174  10.886  0.4545 -0.4065 -0.0065
  588MOL0     C81071  10.367   8.100  10.969 -0.4647  0.2022 -0.0074
  588MOL0     C81072  10.033   8.606  10.721 -0.8207 -0.2619  0.6026
  588MOL0     C81073   9.997   8.735  10.766 -0.3475  0.2230  0.3450
  588MOL0     C81074  10.098   8.836  10.807 -0.2197 -0.1239 -0.4309
  588MOL0     H81075   9.493   9.026  10.647 -0.1502 -1.7422  1.9428
  588MOL0     H81076   9.416   9.253  10.625  0.1660  0.6178 -0.8794
  588MOL0     H81077   9.542   9.675  10.713  1.0892 -2.2257 -3.2390
  588MOL0     H81078   9.659   9.588  10.799 -0.2264 -1.0049 -0.6407
  588MOL0     H81079   9.359   9.566  10.883 -0.8584  0.6092  2.8748
  588MOL0     H81080   9.511   9.518  10.963  0.9165  2.0616  0.1964
  588MOL0     H81081   9.490   9.728  11.071  1.5113  1.6619  0.7280
  588MOL0     H81082   9.578   9.780  10.932 -0.2699  3.5817  2.4099
  588MOL0     H81083   9.406   9.898  10.850  0.1855  1.5808  0.9908
  588MOL0     H81084   9.282   9.786  10.903  0.1987  0.9607 -2.2854
  588MOL0     H81085   9.440   9.980  11.089 -0.3182 -0.4704 -0.1018
  588MOL0     H81086   9.312   9.868  11.140 -2.0883  0.4382 -0.0289
  588MOL0     H81087   9.258  10.061  10.920 -0.3920 -0.4798  0.4942
  588MOL0     H81088   9.138  10.009  11.045 -0.2270  0.7526 -0.0216
  588MOL0     H81089   9.205  10.257  11.071 -0.6197 -2.2789 -2.3674
  588MOL0     H81090   9.368  10.195  11.107  0.7517 -0.4215 -1.1145
  588MOL0     H81091   9.137  10.122  11.275  0.2206 -2.1629 -1.7507
  588MOL0     H81092   9.309  10.091  11.289  1.7538  0.4442 -3.0736
  588MOL0     H81093   9.455  10.328  11.358 -0.8925 -2.8787 -0.6245
  588MOL0     H81094   9.482  10.468  11.616  0.9219  2.4979  0.4627
  588MOL0     H81095   9.325  10.518  11.686 -3.6464  0.1571 -1.0155
  588MOL0     H81096   9.487  10.650  11.461 -1.1423  3.1995 -1.1657
  588MOL0     H81097   9.315  10.689  11.490  0.1509  2.6576  1.7491
  588MOL0     H81098   9.381  10.752  11.725  0.8711 -0.5870 -0.9885
  588MOL0     H81099   9.549  10.718  11.684 -0.8057 -1.4518 -0.6858
  588MOL0     H81100   9.407  10.931  11.520 -3.1839 -1.9453  2.1533
  588MOL0     H81101   9.490  10.978  11.666  1.8401  0.6632 -0.8226
  588MOL0     H81102   9.518  11.162  11.516  0.1733  0.3698  1.0455
  588MOL0     H81103   9.694  11.460  11.561 -0.4313  0.1290 -0.0444
  588MOL0     H81104   9.541  11.386  11.546 -1.4004  2.1489 -1.9064
  588MOL0     H81105   9.623  11.437  11.395 -2.1558 -2.1766 -0.0872
  588MOL0     H81106  10.221  11.269  11.180  0.7599  0.8909 -1.7068
  588MOL0     H81107  10.351  11.439  11.069 -0.9081 -0.8894 -0.9757
  588MOL0     H81108  10.254  11.837  11.186  0.0767  0.9053 -0.4982
  588MOL0     H81109  10.415  11.892  11.139 -0.4840  0.4021  1.5352
  588MOL0     H81110  10.362  11.820  10.890  1.0395 -0.2849  0.8405
  588MOL0     H81111  10.204  11.760  10.963  0.3725 -0.0032 -1.2381
  588MOL0     H81112  10.282  12.056  10.976 -1.9699  2.1815  1.1271
  588MOL0     H81113  10.137  11.975  11.033 -0.0364  0.8160 -0.5058
  588MOL0     H81114  10.060  11.962  10.809  0.6175 -2.6562 -0.0691
  588MOL0     H81115  10.230  11.946  10.750  1.4704  0.7111  0.8274
  588MOL0     H81116  10.122  12.207  10.867 -1.7970 -3.0288  1.1581
  588MOL0     H81117  10.254  12.198  10.761  1.3186 -2.4473  3.1951
  588MOL0     H81118  10.066  12.294  10.642 -1.9754  0.2104  0.6584
  588MOL0     H81119   9.963  12.155  10.677  0.0625 -1.3352 -0.2431
  588MOL0     H81120  10.113  12.014  10.544 -0.4745  0.7213  3.6475
  588MOL0     H81121  10.246  12.128  10.541 -0.1109 -0.9456 -3.5712
  588MOL0     H81122  10.114  12.279  10.387 -0.8662 -0.2285 -0.5809
  588MOL0     H81123   9.962  12.192  10.413 -1.0013  0.6897  0.7589
  588MOL0     H81124  10.250  11.736  11.358  1.8091  0.2224 -0.1543
  588MOL0     H81125  10.093  11.586  11.460  0.2297  1.7587 -0.5265
  588MOL0     H81126  10.004  11.087  11.470  0.1383  0.3083 -0.9295
  588MOL0     H81127   9.864  10.895  11.480 -0.2956 -0.1501 -3.5093
  588MOL0     H81128   9.781   9.389  10.822  1.7110 -1.5016  0.5526
  588MOL0     H81129   9.845   9.173  10.848  1.3123 -1.0581 -1.5806
  588MOL0     H81130   9.663   8.677  10.700  0.7842  0.7418 -4.6307
  588MOL0     H81131   9.736   8.471  10.633  0.8860 -1.5486  1.2178
  588MOL0     H81132  10.128   8.299  10.499  1.5423 -1.4461  1.0795
  588MOL0     H81133  10.186   8.459  10.556 -0.0916  0.5767  1.1913
  588MOL0     H81134  10.150   8.235  10.751 -3.2850 -0.7705 -3.2025
  588MOL0     H81135  10.223   8.400  10.766 -0.9665  0.2808 -0.2187
  588MOL0     H81136  10.346   8.161  10.628 -3.1052 -0.0677  1.9641
  588MOL0     H81137  10.412   8.319  10.586 -0.0309  1.7878  1.3467
  588MOL0     H81138  10.488   8.362  10.802  1.3490  0.9352 -3.0914
  588MOL0     H81139  10.560   8.213  10.738  0.1656 -1.4629  1.7105
  588MOL0     H81140  10.320   8.041  11.044 -0.4920 -2.0928 -1.7075
  588MOL0     H81141  10.140   8.588  10.721  0.1061  3.8536 -1.5639
  588MOL0     H81142  10.089   8.849  10.916 -0.4807 -0.7242 -0.3783
  588MOL0     H81143  10.197   8.794  10.788  0.5944  1.2384  0.5566
  588MOL0     H81144  10.092   8.933  10.757 -2.9845 -0.0235 -0.0699
  589MOL0     O81145   5.781   6.255   0.946 -0.2635  0.3923 -0.3519
  589MOL0     C81146   5.780   6.340   1.032 -0.9351 -0.4940 -0.0250
  589MOL0     O81147   5.677   6.428   1.045 -0.1396  0.8882  0.6063
  589MOL0     C81148   5.580   6.420   0.949 -0.3540 -0.3396  0.0480
  589MOL0     C81149   5.560   6.523   0.858 -0.3598 -0.0839  0.6941
  589MOL0     C81150   5.455   6.524   0.770  0.4890 -0.8101  0.0005
  589MOL0     C81151   5.364   6.420   0.765  0.0123  1.0231 -0.6226
  589MOL0     O81152   5.257   6.414   0.680 -0.0776  0.9304  0.1831
  589MOL0     C81153   5.291   6.460   0.553 -0.1257  0.0067 -0.5113
  589MOL0     C81154   5.414   6.396   0.478  0.0345 -0.6542  0.2814
  589MOL0     C81155   5.387   6.259   0.413 -1.0523  0.2640  0.2011
  589MOL0     C81156   5.274   6.185   0.493  0.0827 -0.1949  0.6182
  589MOL0     C81157   5.269   6.033   0.465  0.3959  0.3881  0.8046
  589MOL0     C81158   5.159   5.969   0.551  0.1532  0.2804  0.0963
  589MOL0     C81159   5.163   5.818   0.497  0.4335  0.4331 -0.6994
  589MOL0     C81160   5.065   5.726   0.567 -1.2961 -0.1270 -0.1498
  589MOL0     N81161   5.088   5.588   0.529 -0.7382 -0.2876  0.2448
  589MOL0     C81162   5.181   5.519   0.599  0.7856 -0.4191  0.1329
  589MOL0     C81163   5.163   5.397   0.549 -0.1899  0.7222 -0.2014
  589MOL0     C81164   5.233   5.270   0.601  0.2153  0.9329  0.4574
  589MOL0     C81165   5.316   5.190   0.496 -0.3424 -0.2756  0.0409
  589MOL0     C81166   5.437   5.116   0.562  0.5534 -0.1958 -0.0229
  589MOL0     C81167   5.458   4.974   0.502  0.1136 -0.2325  0.4882
  589MOL0     O81168   5.544   4.884   0.572 -0.6485  0.4100  0.3591
  589MOL0     C81169   5.651   4.836   0.499 -0.2288  1.0927  0.7510
  589MOL0     C81170   5.667   4.696   0.503  0.2281  0.2263 -0.6743
  589MOL0     C81171   5.769   4.627   0.440  0.1749 -0.2830 -0.4860
  589MOL0     C81172   5.781   4.478   0.462  0.6970 -0.3698  0.4816
  589MOL0     C81173   5.863   4.716   0.368  0.7299  0.3399 -0.4747
  589MOL0     C81174   5.982   4.655   0.297 -0.1095 -0.7161 -0.5574
  589MOL0     O81175   6.067   4.758   0.254  0.1978 -0.1480  0.4710
  589MOL0     C81176   6.185   4.720   0.189 -0.3189  0.5085 -0.0261
  589MOL0     C81177   6.310   4.722   0.255  0.7526  0.5352  0.6105
  589MOL0     C81178   6.418   4.682   0.182  0.6590  1.0307 -0.2870
  589MOL0     C81179   6.420   4.650   0.039 -0.0011  0.3974  0.5940
  589MOL0     O81180   6.529   4.612  -0.045  0.6609 -0.4828 -0.2427
  589MOL0     C81181   6.658   4.633   0.007  0.2480  0.1827  0.0016
  589MOL0     C81182   6.738   4.503   0.044 -0.5147  0.9147  0.5440
  589MOL0     C81183   6.801   4.423  -0.077 -0.6276  0.2648  0.8604
  589MOL0     C81184   6.914   4.332  -0.038 -0.3828 -0.7067 -0.2441
  589MOL0     C81185   6.864   4.199   0.022 -1.3414  0.6103 -0.4462
  589MOL0     C81186   6.975   4.117   0.084 -0.2885  0.2058 -0.4823
  589MOL0     C81187   7.083   4.071  -0.017  0.3055  0.3758 -0.3703
  589MOL0     C81188   7.170   3.958   0.030  0.9127 -0.3210  0.6849
  589MOL0    Cl81189   7.258   4.006   0.180  0.2147  0.3910  0.1413
  589MOL0     C81190   6.287   4.652  -0.020  0.8707 -0.3605  0.4792
  589MOL0     C81191   6.176   4.693   0.051  0.0760  0.3997 -0.6009
  589MOL0     O81192   5.991   4.532   0.279  0.3537 -0.4015  0.2059
  589MOL0     C81193   5.836   4.856   0.358 -0.3814 -0.3260  0.2047
  589MOL0     C81194   5.727   4.920   0.419 -0.5387  0.7669  1.0922
  589MOL0     N81195   5.061   5.399   0.463  0.6503  0.1076 -0.0165
  589MOL0     N81196   5.023   5.520   0.432 -0.2147 -0.7574 -0.3134
  589MOL0     C81197   5.380   6.316   0.860  0.4127 -0.4640  1.4109
  589MOL0     C81198   5.488   6.311   0.951  0.2971  0.2559 -0.7912
  589MOL0     C81199   5.900   6.363   1.103  0.4279 -0.0130  0.5189
  589MOL0     C81200   5.917   6.486   1.169 -0.2625 -0.6964  0.1066
  589MOL0     C81201   6.034   6.519   1.241  0.6618  0.5882 -0.1394
  589MOL0     C81202   6.129   6.427   1.260 -0.9911  0.0464  0.1108
  589MOL0     O81203   6.232   6.457   1.348  0.0650  0.0053  0.0751
  589MOL0     C81204   6.321   6.362   1.422 -0.5376  0.1418  0.3590
  589MOL0     C81205   6.457   6.426   1.451 -0.1314  0.2505 -0.3100
  589MOL0     C81206   6.479   6.429   1.603 -0.5923  0.2287 -0.1089
  589MOL0     C81207   6.611   6.489   1.644 -0.7092 -0.2257 -0.2440
  589MOL0     C81208   6.637   6.626   1.602 -0.3552  0.2801  0.1516
  589MOL0     C81209   6.662   6.733   1.556 -0.9190  0.0954 -0.4846
  589MOL0     C81210   6.112   6.302   1.205  0.5983  1.3405 -0.4382
  589MOL0     C81211   6.005   6.266   1.127 -0.1684 -0.0103  0.1301
  589MOL0     C81212   5.995   6.119   1.070 -0.8120 -0.4591 -0.5127
  589MOL0     H81213   5.620   6.613   0.855 -1.2242  0.4791 -0.9188
  589MOL0     H81214   5.434   6.615   0.714 -0.4831  0.3118  2.0750
  589MOL0     H81215   5.310   6.568   0.553  5.0910 -0.6085 -2.9696
  589MOL0     H81216   5.199   6.439   0.496  0.2024 -1.5061 -0.5277
  589MOL0     H81217   5.439   6.476   0.406 -0.1395  1.0195  2.0069
  589MOL0     H81218   5.501   6.385   0.543  0.5193 -1.9146 -0.5443
  589MOL0     H81219   5.351   6.268   0.310 -1.0868 -0.7942  0.1040
  589MOL0     H81220   5.479   6.201   0.428  0.2678  2.3490  0.6572
  589MOL0     H81221   5.285   6.189   0.602  1.8263  1.1230  0.4397
  589MOL0     H81222   5.177   6.223   0.461  0.4088 -0.3810 -0.6455
  589MOL0     H81223   5.366   5.984   0.480  0.0019 -1.3153 -1.6991
  589MOL0     H81224   5.247   6.026   0.358  0.8324  1.1220  0.6590
  589MOL0     H81225   5.195   5.972   0.654 -0.4909  0.1149  0.3254
  589MOL0     H81226   5.065   6.019   0.527 -0.1312 -1.0210 -1.6469
  589MOL0     H81227   5.262   5.776   0.518  2.1743  4.4751  0.2319
  589MOL0     H81228   5.148   5.818   0.389 -0.9497 -1.7333 -0.5763
  589MOL0     H81229   5.066   5.743   0.675 -0.8244  3.6203 -0.6027
  589MOL0     H81230   4.960   5.750   0.546 -1.3155  0.1954  0.2864
  589MOL0     H81231   5.244   5.546   0.683  0.7121 -1.1776  0.4454
  589MOL0     H81232   5.162   5.200   0.646 -0.0958  1.5332  0.8987
  589MOL0     H81233   5.297   5.308   0.680  1.0633 -1.6219  1.0854
  589MOL0     H81234   5.248   5.130   0.434 -0.5438 -1.0579  0.9985
  589MOL0     H81235   5.356   5.267   0.429  0.1586  0.3281  1.0071
  589MOL0     H81236   5.522   5.184   0.549 -0.2677  0.8715  0.0436
  589MOL0     H81237   5.422   5.097   0.669 -1.8699 -3.8952 -0.8405
  589MOL0     H81238   5.354   4.939   0.501 -0.9146  2.5152  1.2716
  589MOL0     H81239   5.482   4.967   0.395  1.4260 -1.2176  0.8260
  589MOL0     H81240   5.589   4.648   0.561  0.2519 -0.1657 -0.9665
  589MOL0     H81241   5.700   4.439   0.524 -0.7090  1.7915  0.0999
  589MOL0     H81242   5.878   4.449   0.504  2.2264  0.7061 -2.0308
  589MOL0     H81243   5.773   4.443   0.358  0.3051  1.7399 -0.2358
  589MOL0     H81244   6.307   4.758   0.358 -0.7346  0.0152  0.7730
  589MOL0     H81245   6.508   4.672   0.243  2.0036 -2.8570 -2.5393
  589MOL0     H81246   6.718   4.690  -0.064  0.1619 -1.4917 -1.4996
  589MOL0     H81247   6.661   4.694   0.097  3.7183  0.3155 -0.0631
  589MOL0     H81248   6.831   4.544   0.085  1.3067 -1.7121 -0.6860
  589MOL0     H81249   6.681   4.427   0.098 -2.6944  0.3631 -2.2946
  589MOL0     H81250   6.838   4.501  -0.144 -0.5865 -0.7470 -0.3283
  589MOL0     H81251   6.728   4.363  -0.131  1.0747  0.8541 -2.3426
  589MOL0     H81252   6.970   4.385   0.040 -1.3188  1.3326 -0.8750
  589MOL0     H81253   6.970   4.315  -0.130 -2.0548  0.2300 -1.4737
  589MOL0     H81254   6.778   4.207   0.089 -3.1506 -0.4747 -2.4972
  589MOL0     H81255   6.835   4.143  -0.068  2.9831 -2.0346 -0.4896
  589MOL0     H81256   6.925   4.027   0.121 -0.6383 -0.9304 -3.4286
  589MOL0     H81257   7.013   4.167   0.174 -1.1412 -1.5667  0.9176
  589MOL0     H81258   7.156   4.146  -0.047  2.0585 -1.5506 -1.2059
  589MOL0     H81259   7.037   4.022  -0.104  0.5171  0.7754 -0.7086
  589MOL0     H81260   7.240   3.940  -0.052  0.4787 -2.8001  0.7867
  589MOL0     H81261   7.107   3.869   0.036  0.8083 -0.1688  2.2004
  589MOL0     H81262   6.274   4.642  -0.128 -0.5019  0.5779  0.5347
  589MOL0     H81263   6.075   4.703   0.013  0.6660  2.0074 -1.8533
  589MOL0     H81264   5.914   4.912   0.306 -0.6162  1.7662  1.9672
  589MOL0     H81265   5.725   5.028   0.418  3.6073  0.9869 -0.2169
  589MOL0     H81266   5.302   6.241   0.861 -0.0623 -0.0156 -0.0304
  589MOL0     H81267   5.493   6.226   1.019 -2.9947 -0.2631 -1.0378
  589MOL0     H81268   5.837   6.560   1.172 -1.3671 -1.8538  0.1582
  589MOL0     H81269   6.047   6.614   1.292  2.5468 -1.0656  2.7793
  589MOL0     H81270   6.275   6.338   1.518 -1.6967  0.8304 -0.0083
  589MOL0     H81271   6.347   6.271   1.367  0.8504  1.8715 -2.0130
  589MOL0     H81272   6.457   6.531   1.420 -2.5748  0.8431  1.3855
  589MOL0     H81273   6.546   6.377   1.410  1.2540  1.4557  1.1327
  589MOL0     H81274   6.402   6.496   1.643 -0.0831  1.5752 -1.2894
  589MOL0     H81275   6.461   6.331   1.649  1.2677  0.0031  0.2011
  589MOL0     H81276   6.687   6.423   1.602 -2.7607 -1.1660 -2.7334
  589MOL0     H81277   6.623   6.478   1.752  1.4070  1.3662 -0.2504
  589MOL0     H81278   6.677   6.836   1.532 -0.8588  0.2079  0.0359
  589MOL0     H81279   6.182   6.223   1.232 -1.2328 -0.1354  0.2501
  589MOL0     H81280   6.068   6.050   1.114  0.1813  0.8615 -0.0197
  589MOL0     H81281   5.901   6.074   1.103 -0.9552 -1.7588 -2.5927
  589MOL0     H81282   6.004   6.119   0.961  1.1399  0.9819 -0.4004
  590MOL0     O81283  11.259   6.908   8.537 -0.5647  0.2261 -0.1147
  590MOL0     C81284  11.260   6.789   8.548  0.1551  0.1623 -0.1573
  590MOL0     O81285  11.331   6.701   8.473 -0.2196 -0.0754 -0.2837
  590MOL0     C81286  11.455   6.740   8.431 -0.5850  0.7712 -0.0447
  590MOL0     C81287  11.514   6.660   8.327  0.4150 -0.1898 -0.0285
  590MOL0     C81288  11.646   6.675   8.282  0.8817  0.1944  0.0125
  590MOL0     C81289  11.728   6.775   8.328  1.6204  0.6647 -0.1874
  590MOL0     O81290  11.848   6.805   8.273 -1.1272  0.0489  0.3977
  590MOL0     C81291  11.920   6.723   8.181  0.4783 -0.1223  0.2033
  590MOL0     C81292  12.054   6.783   8.129  0.4955 -0.6180 -0.6615
  590MOL0     C81293  12.153   6.806   8.243 -0.0041 -0.4434  0.2834
  590MOL0     C81294  12.290   6.865   8.185 -0.3552  0.2667  0.7063
  590MOL0     C81295  12.382   6.935   8.293  0.8889  0.5115  0.4717
  590MOL0     C81296  12.524   6.955   8.235  0.0405 -0.0514 -0.2418
  590MOL0     C81297  12.613   7.039   8.323  0.4949  0.2820  0.2725
  590MOL0     C81298  12.674   6.967   8.443  0.8613  0.1894  0.1966
  590MOL0     N81299  12.787   6.877   8.412  0.2294  0.2572  0.2277
  590MOL0     C81300  12.903   6.932   8.368  0.4829 -1.2423 -0.2878
  590MOL0     C81301  12.963   6.817   8.347 -0.9844  0.1074  0.9365
  590MOL0     C81302  13.104   6.813   8.301  0.8465 -0.2704 -0.2339
  590MOL0     C81303  13.146   6.671   8.261  0.1912  0.4704 -0.0779
  590MOL0     C81304  13.282   6.692   8.182 -0.3398 -0.2308 -0.4395
  590MOL0     C81305  13.403   6.732   8.272  0.0541  0.8791  1.2037
  590MOL0     O81306  13.527   6.739   8.197  0.4056 -0.4977 -0.1053
  590MOL0     C81307  13.638   6.754   8.273 -0.3429 -0.0202  0.0773
  590MOL0     C81308  13.642   6.798   8.412 -0.9130  0.0631  0.1316
  590MOL0     C81309  13.770   6.801   8.478 -0.8585  0.0898 -0.4108
  590MOL0     C81310  13.771   6.824   8.626 -0.2293 -0.7935 -0.0408
  590MOL0     C81311  13.888   6.794   8.403  0.1149  0.3848  0.1106
  590MOL0     C81312  14.027   6.809   8.459 -0.9034 -0.0836  0.7836
  590MOL0     O81313  14.127   6.753   8.390 -0.1756  0.1172 -0.2835
  590MOL0     C81314  14.260   6.754   8.432 -0.1081 -0.7652 -0.2545
  590MOL0     C81315  14.319   6.833   8.536  1.5217 -0.0934  0.1893
  590MOL0     C81316  14.455   6.823   8.572 -0.6516  0.3328 -0.7404
  590MOL0     C81317  14.537   6.737   8.500  0.1894 -0.3902 -0.1991
  590MOL0     O81318  14.669   6.727   8.540  0.0067 -0.5694 -0.0360
  590MOL0     C81319  14.762   6.643   8.470 -0.2735 -0.0170 -0.0611
  590MOL0     C81320  14.908   6.665   8.523  0.0655 -0.2172  0.1797
  590MOL0     C81321  14.939   6.598   8.658  0.2247  0.5080  0.8606
  590MOL0     C81322  15.085   6.623   8.705 -0.3847  0.2931  0.2575
  590MOL0     C81323  15.109   6.611   8.855  0.2632 -0.4855 -0.5884
  590MOL0     C81324  15.100   6.470   8.898  0.0476 -0.7354 -0.1783
  590MOL0     C81325  15.144   6.449   9.043  0.7625 -0.6908 -0.4445
  590MOL0     C81326  15.299   6.452   9.059 -0.0725 -0.0104  0.4390
  590MOL0    Cl81327  15.326   6.453   9.233  0.6261 -0.1234  0.0371
  590MOL0     C81328  14.478   6.657   8.395  0.2915  0.2373  0.0277
  590MOL0     C81329  14.349   6.675   8.363 -0.1485  0.1519  0.5648
  590MOL0     O81330  14.047   6.883   8.551  0.1879 -0.1173 -0.1716
  590MOL0     C81331  13.877   6.765   8.262 -0.7038  0.0393 -0.4800
  590MOL0     C81332  13.760   6.741   8.203  0.0606 -0.0317 -0.5586
  590MOL0     N81333  12.888   6.701   8.383  0.0021  0.1126  0.4214
  590MOL0     N81334  12.770   6.737   8.420 -0.0828 -0.2453  0.1011
  590MOL0     C81335  11.671   6.866   8.428 -0.2203 -0.9519  0.3829
  590MOL0     C81336  11.535   6.850   8.463 -0.8729 -0.2984 -0.7537
  590MOL0     C81337  11.184   6.736   8.666  0.1861  0.4659 -0.6987
  590MOL0     C81338  11.090   6.637   8.650  0.2210  0.3146 -0.3583
  590MOL0     C81339  11.017   6.584   8.753  0.0529 -0.6382 -0.7184
  590MOL0     C81340  11.037   6.636   8.881  0.1643  0.1786 -0.8611
  590MOL0     O81341  10.958   6.585   8.983 -1.0815 -0.2260 -0.5182
  590MOL0     C81342  11.022   6.546   9.097  0.3583 -0.6405 -0.5534
  590MOL0     C81343  10.941   6.601   9.213  0.0349 -0.2381  0.0829
  590MOL0     C81344  11.006   6.550   9.352 -0.0136  0.0977  0.0793
  590MOL0     C81345  10.920   6.565   9.474  0.2383  0.1744  0.0720
  590MOL0     C81346  10.961   6.478   9.578 -0.7469 -0.8354  0.3016
  590MOL0     C81347  11.004   6.399   9.665  0.6095 -0.1307 -0.7606
  590MOL0     C81348  11.133   6.742   8.904 -0.5133  0.1350  0.5573
  590MOL0     C81349  11.210   6.791   8.794 -0.0056  0.5698  0.2292
  590MOL0     C81350  11.319   6.887   8.830 -0.9798 -0.1940  0.0779
  590MOL0     H81351  11.458   6.574   8.294  1.7537 -1.1696  0.1742
  590MOL0     H81352  11.691   6.608   8.209  2.0609 -1.7836  2.3711
  590MOL0     H81353  11.848   6.709   8.100 -0.1789 -1.3651  0.9725
  590MOL0     H81354  11.942   6.625   8.224 -3.6613 -1.1974  0.3218
  590MOL0     H81355  12.092   6.717   8.051 -1.7555 -2.0800 -0.6267
  590MOL0     H81356  12.033   6.876   8.076 -3.2427 -0.8364  0.1633
  590MOL0     H81357  12.116   6.871   8.323 -4.5357 -0.4254 -1.5158
  590MOL0     H81358  12.174   6.709   8.291  2.6498  0.5068  1.2116
  590MOL0     H81359  12.348   6.787   8.135 -1.1069  0.9987 -1.4407
  590MOL0     H81360  12.284   6.944   8.109  1.6972  0.7202  0.9448
  590MOL0     H81361  12.396   6.866   8.376  1.6658 -0.0153 -0.0894
  590MOL0     H81362  12.332   7.028   8.323  0.4306  0.2141  0.6423
  590MOL0     H81363  12.575   6.859   8.224  2.6253  0.9533  2.0020
  590MOL0     H81364  12.513   6.993   8.132 -0.5308  0.4265 -0.0116
  590MOL0     H81365  12.545   7.117   8.360 -0.5284 -1.0651  1.3566
  590MOL0     H81366  12.696   7.095   8.280  1.4200  0.8098  2.5675
  590MOL0     H81367  12.697   7.048   8.512 -1.0885  1.1997 -0.2648
  590MOL0     H81368  12.601   6.904   8.495  0.1260  2.5850  2.2227
  590MOL0     H81369  12.935   7.035   8.358 -0.3310 -0.8021  1.3390
  590MOL0     H81370  13.174   6.845   8.378  1.2083  2.1235 -1.4717
  590MOL0     H81371  13.098   6.880   8.215 -5.0426 -1.1316 -0.9525
  590MOL0     H81372  13.156   6.603   8.346 -0.8856 -2.2570 -1.9806
  590MOL0     H81373  13.071   6.631   8.192  0.8859  1.0205 -1.1866
  590MOL0     H81374  13.314   6.598   8.136 -0.9931 -0.7320  0.1006
  590MOL0     H81375  13.266   6.762   8.100 -2.1556  0.1467  0.1904
  590MOL0     H81376  13.373   6.835   8.292  0.9418  1.5151 -0.5321
  590MOL0     H81377  13.403   6.654   8.349 -1.8999 -0.8518 -0.4248
  590MOL0     H81378  13.552   6.815   8.470 -1.0147 -0.0616  0.0104
  590MOL0     H81379  13.799   6.926   8.651  1.3756 -1.5049  1.2350
  590MOL0     H81380  13.841   6.755   8.674  0.9382  0.7911  0.6276
  590MOL0     H81381  13.668   6.803   8.658  0.2587 -1.2772  1.2968
  590MOL0     H81382  14.259   6.905   8.591  0.4273  0.7835 -2.0436
  590MOL0     H81383  14.494   6.881   8.655 -0.4156  0.8269 -1.1880
  590MOL0     H81384  14.726   6.540   8.477  0.3444 -0.4855 -2.8222
  590MOL0     H81385  14.761   6.663   8.363 -2.2827 -1.5435 -0.3879
  590MOL0     H81386  14.975   6.620   8.449  0.8113  2.8885 -1.2022
  590MOL0     H81387  14.937   6.770   8.519  1.8396 -0.7087 -3.2575
  590MOL0     H81388  14.923   6.490   8.652 -1.4625  0.6965  1.3446
  590MOL0     H81389  14.863   6.634   8.729  0.4003 -0.5875  1.6341
  590MOL0     H81390  15.127   6.718   8.668  2.3785 -1.7538 -2.3367
  590MOL0     H81391  15.157   6.551   8.664 -0.0497  2.2599 -3.0310
  590MOL0     H81392  15.205   6.654   8.886  0.6623  0.1342 -2.5121
  590MOL0     H81393  15.024   6.660   8.903  2.4213  0.2097  2.8854
  590MOL0     H81394  15.165   6.416   8.828  0.4263  0.7927 -1.0543
  590MOL0     H81395  14.996   6.441   8.882 -0.5818  1.2803 -0.0333
  590MOL0     H81396  15.107   6.351   9.075  2.4546 -1.0923  0.3842
  590MOL0     H81397  15.114   6.529   9.112  1.4596  0.1527 -1.0958
  590MOL0     H81398  15.346   6.533   9.002 -1.3249 -1.2578 -2.5963
  590MOL0     H81399  15.343   6.360   9.020  0.4677 -0.2900  1.6505
  590MOL0     H81400  14.535   6.577   8.349 -1.2022 -1.0473  0.3037
  590MOL0     H81401  14.308   6.629   8.273  1.9171 -1.7324  0.5219
  590MOL0     H81402  13.967   6.751   8.203 -0.3340 -0.4645  0.1944
  590MOL0     H81403  13.752   6.700   8.102 -1.2225 -0.3863 -0.3340
  590MOL0     H81404  11.714   6.951   8.482  0.1895 -0.2007 -1.0512
  590MOL0     H81405  11.516   6.924   8.540  0.1431 -2.0752  1.3398
  590MOL0     H81406  11.078   6.593   8.551 -0.3347  1.9228 -1.0260
  590MOL0     H81407  10.934   6.516   8.735 -3.6135  3.9082 -3.4479
  590MOL0     H81408  11.014   6.437   9.107  0.4646 -0.5710  0.4301
  590MOL0     H81409  11.129   6.567   9.108  0.0475  0.9806 -0.4952
  590MOL0     H81410  10.835   6.576   9.206  0.2157 -0.5400 -2.7082
  590MOL0     H81411  10.952   6.709   9.209  3.3947 -0.4755 -0.3551
  590MOL0     H81412  11.022   6.443   9.338 -1.5573  0.1242 -2.4666
  590MOL0     H81413  11.098   6.608   9.362 -1.0071  1.6956  0.3594
  590MOL0     H81414  10.824   6.528   9.436  1.8992 -1.9542 -2.4143
  590MOL0     H81415  10.913   6.669   9.508  2.8499  0.6798 -0.7036
  590MOL0     H81416  11.049   6.333   9.737  0.7407  1.2808  0.4983
  590MOL0     H81417  11.153   6.775   9.005 -0.7095  0.2582  0.5576
  590MOL0     H81418  11.417   6.849   8.798 -1.5997 -0.6483 -1.4090
  590MOL0     H81419  11.304   6.985   8.785  0.3128 -0.0511 -0.0770
  590MOL0     H81420  11.319   6.899   8.938 -1.4874  0.2272  0.0288
  591MOL0     O81421   6.655   5.723   3.478  0.7331  0.3777 -0.0188
  591MOL0     C81422   6.607   5.666   3.382  0.4395  0.1382 -0.7603
  591MOL0     O81423   6.666   5.581   3.295 -0.4970 -0.0983  1.3108
  591MOL0     C81424   6.787   5.518   3.319  0.0194  0.3087 -0.8328
  591MOL0     C81425   6.843   5.466   3.203 -0.4835 -0.5959  0.2231
  591MOL0     C81426   6.951   5.384   3.191 -0.5616 -0.1654 -0.1189
  591MOL0     C81427   7.022   5.358   3.309  0.2703  0.3442 -0.5037
  591MOL0     O81428   7.138   5.281   3.315  0.6217  0.4759  0.0830
  591MOL0     C81429   7.102   5.134   3.307  0.7904 -0.1015  0.2720
  591MOL0     C81430   7.197   5.041   3.376 -0.1265  0.2267 -0.2796
  591MOL0     C81431   7.303   4.974   3.268  1.2853 -0.1913 -0.0845
  591MOL0     C81432   7.393   5.064   3.194 -0.2932  0.1111 -0.3331
  591MOL0     C81433   7.382   5.051   3.038  0.5086  0.1487  0.0696
  591MOL0     C81434   7.448   4.919   2.993  1.0619  0.9206 -0.7481
  591MOL0     C81435   7.446   4.887   2.839  0.1081  1.1277 -0.0809
  591MOL0     C81436   7.502   5.004   2.756  0.0769 -0.3418  0.4438
  591MOL0     N81437   7.641   5.026   2.788  0.1420  0.2600 -0.2610
  591MOL0     C81438   7.743   4.945   2.754 -0.1637  0.6218  0.2762
  591MOL0     C81439   7.851   5.018   2.757  0.0418 -0.2605  0.7212
  591MOL0     C81440   7.995   4.977   2.733 -0.3306  0.2711 -0.8400
  591MOL0     C81441   8.064   5.075   2.637 -0.1403 -0.2265  0.0815
  591MOL0     C81442   8.214   5.040   2.614 -0.4690 -0.2413 -0.1402
  591MOL0     C81443   8.231   4.936   2.496 -0.0787 -0.0672  0.1005
  591MOL0     O81444   8.202   4.802   2.536  0.0779 -0.5406  0.1941
  591MOL0     C81445   8.183   4.705   2.446  1.0281 -0.0597 -1.1803
  591MOL0     C81446   8.176   4.578   2.498  0.2872  0.2625  0.4113
  591MOL0     C81447   8.163   4.465   2.410  0.9400 -0.3978 -0.8880
  591MOL0     C81448   8.212   4.340   2.479 -0.8546 -0.3118 -0.1894
  591MOL0     C81449   8.162   4.482   2.271 -0.1627 -0.6061 -0.5526
  591MOL0     C81450   8.143   4.373   2.172  0.2948  0.2816 -1.1527
  591MOL0     O81451   8.059   4.267   2.199 -0.3195 -0.0065  0.4077
  591MOL0     C81452   8.032   4.193   2.086  0.3661  0.1735 -0.6820
  591MOL0     C81453   8.059   4.054   2.077  0.2356 -0.2320  0.4626
  591MOL0     C81454   8.024   3.984   1.954 -0.2142 -0.1707  0.0578
  591MOL0     C81455   7.970   4.061   1.844  1.2337  0.7978 -0.8065
  591MOL0     O81456   7.945   4.003   1.718 -0.4751 -0.3743 -0.0542
  591MOL0     C81457   7.944   3.851   1.702  0.4445 -0.5751  0.0483
  591MOL0     C81458   7.848   3.820   1.587 -0.2415  0.6378  0.6074
  591MOL0     C81459   7.838   3.670   1.561 -0.3977 -0.0216 -0.2630
  591MOL0     C81460   7.750   3.639   1.439  0.6364  0.4162  0.5553
  591MOL0     C81461   7.734   3.494   1.413 -0.2666 -0.1126  1.8610
  591MOL0     C81462   7.634   3.426   1.504 -0.2345  0.1032  0.0694
  591MOL0     C81463   7.615   3.274   1.479 -1.3668 -0.0904 -0.6208
  591MOL0     C81464   7.469   3.232   1.496 -0.9104  0.2942 -0.3967
  591MOL0    Cl81465   7.377   3.223   1.339 -0.2756  0.0606 -0.3633
  591MOL0     C81466   7.935   4.190   1.863  0.1562  0.5007 -0.1272
  591MOL0     C81467   7.969   4.257   1.980 -0.9070 -0.3460  0.3737
  591MOL0     O81468   8.209   4.381   2.069 -0.6729 -0.8215 -0.3414
  591MOL0     C81469   8.156   4.611   2.225  0.6488 -0.3915  0.0118
  591MOL0     C81470   8.171   4.719   2.311 -0.2163 -0.2798  0.6822
  591MOL0     N81471   7.812   5.153   2.784  0.8070  0.6855  0.5799
  591MOL0     N81472   7.684   5.153   2.813  0.0388  0.4820  0.4113
  591MOL0     C81473   6.972   5.416   3.431 -0.2954  0.1387  0.5031
  591MOL0     C81474   6.852   5.488   3.438 -0.8591 -0.6002 -0.2248
  591MOL0     C81475   6.465   5.695   3.359 -0.2389 -0.9218  1.1403
  591MOL0     C81476   6.379   5.593   3.309  0.2283  0.2862  0.0524
  591MOL0     C81477   6.251   5.626   3.267 -0.3729  1.0584 -0.2878
  591MOL0     C81478   6.206   5.754   3.276 -1.1639  0.2558 -0.1502
  591MOL0     O81479   6.089   5.805   3.228 -0.2393  0.7908  0.5545
  591MOL0     C81480   6.028   5.731   3.119  0.1669 -1.2197  0.1098
  591MOL0     C81481   5.917   5.824   3.060  0.2136  0.1344 -0.0072
  591MOL0     C81482   5.851   5.765   2.945 -0.3482  0.3665 -0.4216
  591MOL0     C81483   5.774   5.874   2.859  0.5156  0.2728 -0.3957
  591MOL0     C81484   5.647   5.904   2.931 -0.3804 -1.1133  0.0303
  591MOL0     C81485   5.560   5.932   3.008 -0.5148 -0.9775 -0.0906
  591MOL0     C81486   6.278   5.851   3.342  1.0837 -0.3854 -0.2145
  591MOL0     C81487   6.414   5.830   3.377  0.4285  0.1418 -0.2922
  591MOL0     C81488   6.491   5.950   3.433  0.9198 -0.4431 -0.1778
  591MOL0     H81489   6.798   5.490   3.107  1.6284 -0.2746 -0.7284
  591MOL0     H81490   6.991   5.345   3.098 -1.2424  0.4098 -0.6597
  591MOL0     H81491   7.089   5.105   3.202 -0.4275 -2.1904  0.9403
  591MOL0     H81492   7.003   5.134   3.354  1.3569  0.1536  1.4852
  591MOL0     H81493   7.256   5.086   3.457 -0.8649 -1.9379  1.5627
  591MOL0     H81494   7.132   4.961   3.412  0.1230 -0.9473 -2.3270
  591MOL0     H81495   7.375   4.911   3.321  2.5284  0.4743 -0.9017
  591MOL0     H81496   7.248   4.913   3.195  1.3380  0.0010 -0.2869
  591MOL0     H81497   7.370   5.170   3.211 -0.5706  0.1868 -1.1287
  591MOL0     H81498   7.497   5.053   3.225 -0.6434  2.5005  2.0401
  591MOL0     H81499   7.441   5.136   3.002  3.5021 -0.5725  2.7952
  591MOL0     H81500   7.283   5.049   2.992  1.6372 -0.9734 -2.5130
  591MOL0     H81501   7.550   4.947   3.019  1.4138  1.5251 -2.6323
  591MOL0     H81502   7.415   4.829   3.047  0.9247  0.1899 -1.9966
  591MOL0     H81503   7.345   4.867   2.802  1.1313 -2.4014 -1.3722
  591MOL0     H81504   7.481   4.789   2.806 -4.1518  0.1640 -2.5198
  591MOL0     H81505   7.481   4.959   2.658 -1.4667  2.2988 -0.5426
  591MOL0     H81506   7.439   5.093   2.767  2.0298  1.0003  1.1720
  591MOL0     H81507   7.745   4.840   2.727  0.5794  0.3721  1.2225
  591MOL0     H81508   7.999   4.870   2.709 -2.3535 -0.4374  1.5713
  591MOL0     H81509   8.028   4.981   2.837 -0.5501  0.4742 -0.7780
  591MOL0     H81510   8.016   5.078   2.539 -0.0274 -1.0313 -0.0023
  591MOL0     H81511   8.063   5.176   2.680  0.6474  0.4433 -1.4084
  591MOL0     H81512   8.278   5.126   2.591  3.7770 -1.5764  4.6514
  591MOL0     H81513   8.271   5.008   2.702 -0.4516 -1.3784 -0.5414
  591MOL0     H81514   8.171   4.974   2.414 -0.5207  4.6821  2.2894
  591MOL0     H81515   8.335   4.933   2.462  0.5236 -3.6067  1.7255
  591MOL0     H81516   8.191   4.567   2.605  0.5579  0.2965  0.3784
  591MOL0     H81517   8.303   4.371   2.531  0.2279  0.3438 -2.3437
  591MOL0     H81518   8.237   4.256   2.413  0.7936  1.2452 -1.6705
  591MOL0     H81519   8.137   4.310   2.552 -0.1715  0.6521  0.9480
  591MOL0     H81520   8.079   3.995   2.166 -1.8030 -1.3156  0.2703
  591MOL0     H81521   8.039   3.877   1.952  1.4934  0.0419 -0.8846
  591MOL0     H81522   8.041   3.810   1.672  0.6524  0.0825 -0.1935
  591MOL0     H81523   7.908   3.803   1.793 -0.4003  0.8028  0.4754
  591MOL0     H81524   7.755   3.871   1.611 -0.5527 -0.5328  2.0641
  591MOL0     H81525   7.879   3.868   1.494  1.3039 -0.8591  0.2880
  591MOL0     H81526   7.792   3.621   1.647  0.2994  1.0117  0.7255
  591MOL0     H81527   7.930   3.614   1.542 -0.1369  0.6469 -1.0462
  591MOL0     H81528   7.802   3.672   1.349 -1.7664 -1.6212 -1.7040
  591MOL0     H81529   7.654   3.691   1.445  0.0374 -0.2700 -2.1253
  591MOL0     H81530   7.697   3.487   1.310 -0.1587  1.8580  1.6643
  591MOL0     H81531   7.834   3.448   1.415  0.7210  1.9560  2.8632
  591MOL0     H81532   7.536   3.464   1.473  0.9935  3.2235 -0.2998
  591MOL0     H81533   7.642   3.453   1.610 -2.3769  3.5515 -0.5153
  591MOL0     H81534   7.675   3.220   1.553 -0.4432  1.9720  0.2131
  591MOL0     H81535   7.651   3.245   1.380  3.1589  1.1639  0.4176
  591MOL0     H81536   7.422   3.302   1.565 -1.9648 -0.2647 -0.5236
  591MOL0     H81537   7.453   3.133   1.539 -2.0628  0.4253 -0.4985
  591MOL0     H81538   7.897   4.247   1.779  2.8769  2.3618 -0.2242
  591MOL0     H81539   7.944   4.362   1.992 -0.2147  0.0387 -1.2547
  591MOL0     H81540   8.147   4.635   2.120  1.3357  2.0777  0.4757
  591MOL0     H81541   8.178   4.819   2.269  1.3121 -0.9864 -0.8992
  591MOL0     H81542   7.041   5.385   3.510  1.2053 -2.8011 -1.7411
  591MOL0     H81543   6.822   5.514   3.539  0.1978  0.4709 -0.1680
  591MOL0     H81544   6.417   5.492   3.309 -1.6092 -0.4738  1.5960
  591MOL0     H81545   6.183   5.545   3.241 -0.5204  0.0953  2.6904
  591MOL0     H81546   6.099   5.715   3.038  1.0554  4.1124 -0.5434
  591MOL0     H81547   5.975   5.651   3.171  0.7698 -1.0551  0.9885
  591MOL0     H81548   5.965   5.919   3.036 -2.0139  0.8192 -2.1569
  591MOL0     H81549   5.846   5.834   3.142 -0.0194  0.0969 -0.2022
  591MOL0     H81550   5.907   5.689   2.890  0.1097 -1.9381  2.9906
  591MOL0     H81551   5.771   5.707   2.992  0.4697  0.8558  1.6889
  591MOL0     H81552   5.757   5.846   2.754 -2.4227  1.0453 -0.1875
  591MOL0     H81553   5.839   5.962   2.855  0.7440  0.0706 -1.6293
  591MOL0     H81554   5.476   5.954   3.070 -0.4306 -0.1323 -0.2657
  591MOL0     H81555   6.245   5.953   3.361  3.7835  0.3901  0.8158
  591MOL0     H81556   6.598   5.962   3.416  0.4623  3.6088 -1.1961
  591MOL0     H81557   6.454   6.049   3.408  0.8353 -0.1993  0.8887
  591MOL0     H81558   6.472   5.933   3.539 -2.7587 -1.4875 -0.8462
  592MOL0     O81559   7.535   6.957  11.230  0.2521  0.3592 -0.1784
  592MOL0     C81560   7.557   7.014  11.125  0.2661 -0.2144 -0.1228
  592MOL0     O81561   7.582   6.955  11.006 -0.4362  0.3629  0.4666
  592MOL0     C81562   7.607   6.823  10.997 -0.3892 -0.1319  0.2653
  592MOL0     C81563   7.508   6.728  10.968  0.4523  0.1510  0.7096
  592MOL0     C81564   7.536   6.591  10.958 -1.2459  0.0342  0.1454
  592MOL0     C81565   7.673   6.549  10.973  0.6603  0.4415 -0.1697
  592MOL0     O81566   7.710   6.414  10.949 -0.0467  0.7055 -0.0267
  592MOL0     C81567   7.635   6.337  10.854 -0.3159 -0.2648 -0.1426
  592MOL0     C81568   7.720   6.248  10.763 -0.2687  0.4679 -0.1617
  592MOL0     C81569   7.640   6.138  10.692  0.5507 -0.0280  0.1024
  592MOL0     C81570   7.735   6.049  10.606  0.5494  0.0289  0.3705
  592MOL0     C81571   7.665   5.935  10.523  0.7226  1.1320  0.1058
  592MOL0     C81572   7.588   5.824  10.604 -0.3349 -0.2730 -1.1582
  592MOL0     C81573   7.676   5.761  10.707  0.6140  1.0094 -0.1139
  592MOL0     C81574   7.789   5.664  10.656  0.1722  0.4308 -0.4618
  592MOL0     N81575   7.876   5.616  10.759 -0.6863 -0.1031  0.2749
  592MOL0     C81576   7.859   5.504  10.827  0.2940  1.2404  0.2755
  592MOL0     C81577   7.982   5.469  10.872  0.8003 -0.2262 -0.2839
  592MOL0     C81578   8.011   5.334  10.944 -0.3623 -0.7538  1.1942
  592MOL0     C81579   7.882   5.265  11.003 -0.8325 -0.5226  0.1993
  592MOL0     C81580   7.907   5.157  11.096  0.0581  0.9213  0.3309
  592MOL0     C81581   7.930   5.210  11.244 -0.4284  0.1401  0.4567
  592MOL0     O81582   8.070   5.245  11.278  0.5011 -0.3511 -0.0520
  592MOL0     C81583   8.166   5.147  11.269  0.0039  0.9122  0.0346
  592MOL0     C81584   8.295   5.174  11.221  0.0352  0.0278  0.7816
  592MOL0     C81585   8.387   5.072  11.212 -0.0071  1.4073 -0.6920
  592MOL0     C81586   8.523   5.111  11.167 -0.2739 -1.0352  0.1215
  592MOL0     C81587   8.354   4.936  11.248  0.8199  1.0550  0.1712
  592MOL0     C81588   8.441   4.816  11.228 -0.0051  0.3960 -0.3894
  592MOL0     O81589   8.552   4.824  11.155 -0.8489  0.7055  0.8560
  592MOL0     C81590   8.655   4.738  11.150  0.9376 -0.1864  0.7518
  592MOL0     C81591   8.679   4.632  11.244 -0.2397 -0.1405 -0.5141
  592MOL0     C81592   8.783   4.549  11.222  0.1199  0.0806  0.0654
  592MOL0     C81593   8.868   4.552  11.116 -0.3245 -0.6677 -0.2127
  592MOL0     O81594   8.981   4.470  11.114 -0.2915 -0.3304  0.0646
  592MOL0     C81595   9.082   4.502  11.012 -0.6624 -0.9996 -0.3138
  592MOL0     C81596   9.196   4.405  11.034 -0.0027 -0.9112 -0.9255
  592MOL0     C81597   9.284   4.445  11.150 -0.0639 -0.2389  0.6257
  592MOL0     C81598   9.407   4.352  11.143  0.0598 -0.5929  0.6497
  592MOL0     C81599   9.500   4.369  11.264 -0.4909  0.3519  0.6492
  592MOL0     C81600   9.589   4.492  11.257  0.6464  0.1631  0.6580
  592MOL0     C81601   9.718   4.485  11.343 -0.4940 -0.3646 -1.0711
  592MOL0     C81602   9.804   4.616  11.337 -0.3156 -0.3127  0.1703
  592MOL0    Cl81603   9.886   4.608  11.176 -0.0001 -0.3538 -0.6544
  592MOL0     C81604   8.847   4.656  11.026  0.1255  0.3729  0.1511
  592MOL0     C81605   8.741   4.751  11.041  0.8151 -0.0418 -0.2785
  592MOL0     O81606   8.400   4.714  11.287  0.5407 -0.5256 -0.3380
  592MOL0     C81607   8.227   4.919  11.302  0.1674  0.3120 -0.2411
  592MOL0     C81608   8.132   5.018  11.313  0.3836  0.2933 -0.1961
  592MOL0     N81609   8.073   5.572  10.838  0.2364 -0.0032 -0.3394
  592MOL0     N81610   8.007   5.654  10.764 -0.3771 -0.4374  0.1754
  592MOL0     C81611   7.770   6.640  11.005 -0.5192  0.2048  0.6960
  592MOL0     C81612   7.742   6.778  11.008  1.0417 -0.2359  0.1518
  592MOL0     C81613   7.559   7.162  11.115  0.0918  0.1894 -0.3164
  592MOL0     C81614   7.672   7.232  11.156  0.2814 -0.1655 -0.2177
  592MOL0     C81615   7.673   7.370  11.134 -0.1938 -1.0006 -0.3969
  592MOL0     C81616   7.569   7.437  11.072  0.2061 -0.3474  0.5746
  592MOL0     O81617   7.581   7.573  11.065  0.1299  0.5188  0.0858
  592MOL0     C81618   7.462   7.644  11.028 -0.0930 -0.3543  0.5312
  592MOL0     C81619   7.481   7.790  11.065  0.1281  0.0426 -0.4529
  592MOL0     C81620   7.352   7.858  11.087 -0.0306  0.4624  0.2142
  592MOL0     C81621   7.270   7.901  10.960 -0.2239 -0.3202  0.2633
  592MOL0     C81622   7.215   7.788  10.884 -0.5015  0.3460  0.3828
  592MOL0     C81623   7.192   7.673  10.845 -0.4173 -0.0567 -0.5625
  592MOL0     C81624   7.460   7.359  11.023 -0.1143 -0.6588  0.0672
  592MOL0     C81625   7.449   7.223  11.046  0.3840 -0.4500 -0.0626
  592MOL0     C81626   7.331   7.136  10.994  0.4929 -0.7955  0.5494
  592MOL0     H81627   7.406   6.764  10.959  0.4577  0.1459  0.6276
  592MOL0     H81628   7.465   6.513  10.931  0.5286 -1.5715 -0.0614
  592MOL0     H81629   7.571   6.396  10.788 -1.5230  0.7436  1.8404
  592MOL0     H81630   7.566   6.276  10.913  0.4280 -1.7184 -0.7125
  592MOL0     H81631   7.761   6.320  10.692 -1.4386  1.7746  0.4317
  592MOL0     H81632   7.796   6.193  10.818 -1.0689 -0.0246  0.4902
  592MOL0     H81633   7.577   6.077  10.757  1.9446 -1.2282  0.3690
  592MOL0     H81634   7.578   6.188  10.617  0.6668  0.2233  0.1702
  592MOL0     H81635   7.783   6.117  10.534 -1.2757  1.6580  0.5976
  592MOL0     H81636   7.815   6.012  10.670 -0.1602 -1.7336  0.2909
  592MOL0     H81637   7.753   5.889  10.477 -0.9832 -0.4269 -1.8128
  592MOL0     H81638   7.598   5.972  10.446 -0.6639  0.0402  0.7289
  592MOL0     H81639   7.502   5.870  10.654 -0.6785 -0.0655 -1.9193
  592MOL0     H81640   7.557   5.742  10.539 -1.1489 -0.9155 -0.0032
  592MOL0     H81641   7.615   5.694  10.769  0.8802 -0.4860 -1.4048
  592MOL0     H81642   7.727   5.829  10.775  0.0435 -0.3904  1.8218
  592MOL0     H81643   7.743   5.581  10.602  0.6793  0.8687 -1.5971
  592MOL0     H81644   7.841   5.716  10.575  0.5177 -0.8450 -1.0760
  592MOL0     H81645   7.770   5.442  10.824  1.4094 -0.4405  0.5674
  592MOL0     H81646   8.076   5.345  11.032 -3.4165  2.7467  3.3049
  592MOL0     H81647   8.048   5.264  10.869 -1.2676  0.5236 -0.4901
  592MOL0     H81648   7.820   5.344  11.046 -0.8029  0.2866 -1.2122
  592MOL0     H81649   7.817   5.227  10.925  1.9033 -1.7292 -1.6267
  592MOL0     H81650   7.818   5.094  11.103  1.7285 -1.5341  0.7268
  592MOL0     H81651   7.995   5.113  11.048 -0.2015  3.1515 -2.5274
  592MOL0     H81652   7.863   5.293  11.267  1.1007  1.8282 -0.9097
  592MOL0     H81653   7.898   5.132  11.315 -1.4226  0.1761  0.0679
  592MOL0     H81654   8.322   5.275  11.195 -0.6893 -0.3276 -1.5538
  592MOL0     H81655   8.555   5.062  11.075  0.2476 -0.9808  0.2735
  592MOL0     H81656   8.594   5.090  11.247 -1.0457 -0.3052  1.0165
  592MOL0     H81657   8.533   5.219  11.158 -1.3561 -0.7778  1.6759
  592MOL0     H81658   8.608   4.632  11.326 -0.5751  1.8782 -0.7525
  592MOL0     H81659   8.802   4.473  11.297  1.3304 -0.3721 -0.6701
  592MOL0     H81660   9.040   4.487  10.912  0.2339 -0.6070 -0.7572
  592MOL0     H81661   9.112   4.606  11.030 -1.3148 -0.9196  0.3805
  592MOL0     H81662   9.147   4.308  11.049 -0.6566 -1.0494 -3.4810
  592MOL0     H81663   9.243   4.392  10.936 -1.9360 -4.0501 -1.5716
  592MOL0     H81664   9.237   4.438  11.249  0.1523  0.5216  0.7967
  592MOL0     H81665   9.320   4.547  11.134  1.0428 -0.9337 -1.6667
  592MOL0     H81666   9.462   4.392  11.057  2.3558  0.3309  2.4240
  592MOL0     H81667   9.391   4.245  11.132  0.4625 -0.8475  2.2759
  592MOL0     H81668   9.443   4.367  11.358  1.0837  0.6093  1.6527
  592MOL0     H81669   9.566   4.283  11.274 -2.5710 -1.2392  1.4575
  592MOL0     H81670   9.532   4.574  11.301  1.6062  1.4891 -0.5032
  592MOL0     H81671   9.618   4.520  11.155  0.5283  2.7878  1.2738
  592MOL0     H81672   9.790   4.405  11.327  0.4526  0.1691  0.3736
  592MOL0     H81673   9.690   4.460  11.445  1.1417 -0.5531 -0.6428
  592MOL0     H81674   9.881   4.615  11.415  0.3548  0.2041 -0.4838
  592MOL0     H81675   9.733   4.696  11.359  1.1683  1.7235 -2.0835
  592MOL0     H81676   8.913   4.681  10.943 -0.1415 -2.2779 -0.9715
  592MOL0     H81677   8.734   4.846  10.989  0.6255 -0.1162 -0.3887
  592MOL0     H81678   8.196   4.818  11.324  1.1650 -0.1188 -0.7712
  592MOL0     H81679   8.037   4.994  11.361  0.7450  0.4147  0.5966
  592MOL0     H81680   7.870   6.599  11.006 -1.2687 -1.9632 -2.0374
  592MOL0     H81681   7.811   6.859  11.028  0.7819 -0.5090  2.4528
  592MOL0     H81682   7.758   7.190  11.206 -1.5359  0.3634  3.7139
  592MOL0     H81683   7.757   7.433  11.160 -0.9059  0.4438 -1.4480
  592MOL0     H81684   7.452   7.648  10.919  1.7849  1.3363  0.3514
  592MOL0     H81685   7.378   7.596  11.079  0.9312 -0.0323  2.6380
  592MOL0     H81686   7.531   7.844  10.984 -2.3894  0.2094 -2.0212
  592MOL0     H81687   7.539   7.794  11.157 -0.3785  2.3258 -0.1714
  592MOL0     H81688   7.290   7.801  11.156  0.9047 -1.1715 -0.2331
  592MOL0     H81689   7.375   7.950  11.141 -2.2283 -0.0076  2.1206
  592MOL0     H81690   7.333   7.963  10.895  1.1670 -1.7021  0.2379
  592MOL0     H81691   7.186   7.962  10.995  0.5376  1.1983 -0.4248
  592MOL0     H81692   7.205   7.570  10.818  6.6957  0.5750 -1.5003
  592MOL0     H81693   7.383   7.410  10.965  0.0776  0.4828  0.7759
  592MOL0     H81694   7.266   7.187  10.922  2.5292  0.4215 -0.4976
  592MOL0     H81695   7.357   7.038  10.954  1.2261 -0.5781  0.4763
  592MOL0     H81696   7.267   7.110  11.079 -0.4277  1.9740  0.8028
  593MOL0     O81697   9.908   5.618  10.798  0.2111 -0.6759 -0.4161
  593MOL0     C81698   9.885   5.498  10.807 -0.1283 -0.1564 -0.2375
  593MOL0     O81699   9.948   5.397  10.737 -0.8260 -0.0095  0.1009
  593MOL0     C81700  10.049   5.441  10.663 -0.8071 -1.0606 -0.1122
  593MOL0     C81701  10.029   5.466  10.527 -0.6531  0.2415  0.4292
  593MOL0     C81702  10.135   5.506  10.441 -0.0551  0.4711 -0.6753
  593MOL0     C81703  10.264   5.514  10.485 -0.4795 -0.3643 -0.8528
  593MOL0     O81704  10.359   5.546  10.392 -0.6025  0.3686 -0.3994
  593MOL0     C81705  10.477   5.613  10.438 -0.1087  0.1203 -0.3187
  593MOL0     C81706  10.529   5.696  10.318  0.1948 -0.4905 -0.0780
  593MOL0     C81707  10.651   5.776  10.346 -0.5041  1.0717 -0.4755
  593MOL0     C81708  10.670   5.885  10.243  0.1938  0.3055 -0.2196
  593MOL0     C81709  10.790   5.971  10.270 -0.0854 -0.3836  0.5633
  593MOL0     C81710  10.865   6.038  10.156 -0.5499 -0.6925  0.4849
  593MOL0     C81711  10.785   6.163  10.097 -0.7710  0.0050 -0.4775
  593MOL0     C81712  10.848   6.219   9.972 -0.6417  0.4519  0.8037
  593MOL0     N81713  10.991   6.249   9.991 -0.3897  0.8970  0.3800
  593MOL0     C81714  11.049   6.370  10.027  1.1638 -0.2195  0.1765
  593MOL0     C81715  11.174   6.360   9.987 -0.9234  1.0267 -0.1089
  593MOL0     C81716  11.289   6.454   9.987  0.2649 -0.7460 -0.6228
  593MOL0     C81717  11.309   6.521   9.848 -0.4136  0.7643  0.0491
  593MOL0     C81718  11.365   6.426   9.748 -0.0667 -0.2131 -0.2494
  593MOL0     C81719  11.377   6.497   9.608  0.1134  0.5673 -0.5850
  593MOL0     O81720  11.468   6.411   9.531 -0.3798  0.1478 -0.0029
  593MOL0     C81721  11.604   6.445   9.515  0.9194  0.6068  0.1012
  593MOL0     C81722  11.680   6.357   9.437  0.0965  0.5387  0.9085
  593MOL0     C81723  11.816   6.359   9.428  0.1882 -0.0423 -0.5705
  593MOL0     C81724  11.884   6.255   9.339  0.8198 -0.0255  0.2427
  593MOL0     C81725  11.885   6.465   9.493  0.1032  0.5966  0.1126
  593MOL0     C81726  12.028   6.482   9.481  0.2042  0.8629 -0.5145
  593MOL0     O81727  12.074   6.558   9.581  0.4032 -0.4803 -0.6230
  593MOL0     C81728  12.210   6.581   9.578  0.8661 -0.3608 -0.6308
  593MOL0     C81729  12.286   6.523   9.677 -0.0325 -0.1737  0.2643
  593MOL0     C81730  12.431   6.537   9.677 -0.5977  0.5563 -1.0759
  593MOL0     C81731  12.498   6.622   9.588 -0.1589  0.6035  0.1443
  593MOL0     O81732  12.636   6.644   9.579  0.0612 -0.0680 -0.0346
  593MOL0     C81733  12.725   6.590   9.683  0.6886  0.1080 -0.4826
  593MOL0     C81734  12.743   6.437   9.670 -0.4586 -0.4318  0.6460
  593MOL0     C81735  12.801   6.382   9.797  0.0742 -0.1274 -0.1040
  593MOL0     C81736  12.690   6.323   9.889 -0.2236 -0.1580  0.6416
  593MOL0     C81737  12.741   6.281  10.025 -0.2870 -0.1722 -0.5321
  593MOL0     C81738  12.631   6.204  10.105 -0.6074 -0.2715 -0.2015
  593MOL0     C81739  12.681   6.149  10.230 -0.1231 -0.1704 -0.2062
  593MOL0     C81740  12.585   6.048  10.296  0.1594 -0.0214  0.0603
  593MOL0    Cl81741  12.629   6.039  10.462  0.3603 -0.0280  0.0999
  593MOL0     C81742  12.410   6.698   9.505 -0.5007 -0.5576 -0.2136
  593MOL0     C81743  12.269   6.671   9.493 -0.3051  0.6096 -0.2749
  593MOL0     O81744  12.094   6.440   9.383 -0.4080  0.1026 -0.6270
  593MOL0     C81745  11.808   6.555   9.576 -0.2315  0.2064  0.7195
  593MOL0     C81746  11.673   6.545   9.585  0.1975  0.2953 -0.4793
  593MOL0     N81747  11.190   6.229   9.948 -0.9158 -0.3626 -0.1766
  593MOL0     N81748  11.085   6.169   9.938 -0.3565  1.0042 -0.9151
  593MOL0     C81749  10.290   5.487  10.619 -0.0334 -0.0239 -0.2573
  593MOL0     C81750  10.186   5.451  10.705  0.0158  1.7042 -0.0485
  593MOL0     C81751   9.779   5.454  10.902  0.4643  0.6246 -0.4946
  593MOL0     C81752   9.780   5.319  10.944 -0.2099  0.3789  0.1923
  593MOL0     C81753   9.685   5.269  11.035  0.5466 -0.8245  0.3829
  593MOL0     C81754   9.581   5.352  11.077 -0.3443 -0.7264  0.7294
  593MOL0     O81755   9.478   5.316  11.160 -0.3805 -0.0331 -0.6234
  593MOL0     C81756   9.466   5.179  11.203  0.3309 -0.0478 -0.2008
  593MOL0     C81757   9.327   5.179  11.270  0.0956 -0.3444 -0.5935
  593MOL0     C81758   9.267   5.039  11.277  0.0999  0.6545  0.5475
  593MOL0     C81759   9.110   5.039  11.284 -0.3326  0.3892 -0.0793
  593MOL0     C81760   9.063   4.914  11.347  0.7657  0.4873 -0.2261
  593MOL0     C81761   9.030   4.822  11.412  0.0009  0.0400 -0.0063
  593MOL0     C81762   9.564   5.478  11.021  0.0865  0.1452  0.5931
  593MOL0     C81763   9.660   5.527  10.937 -0.2407 -0.1778  0.0942
  593MOL0     C81764   9.641   5.667  10.885 -0.0040 -0.4670  0.4504
  593MOL0     H81765   9.927   5.482  10.493 -1.5951  2.7816  3.8840
  593MOL0     H81766  10.107   5.545  10.344  1.0714  1.5926 -0.5832
  593MOL0     H81767  10.555   5.545  10.474 -0.9641 -1.3475 -1.1415
  593MOL0     H81768  10.450   5.683  10.517  2.1131 -1.3615  1.9085
  593MOL0     H81769  10.556   5.639  10.229  0.2805  0.6213 -0.7964
  593MOL0     H81770  10.446   5.763  10.290  0.9629  0.6668  0.3432
  593MOL0     H81771  10.655   5.829  10.442 -2.5963 -0.7452  0.7014
  593MOL0     H81772  10.728   5.700  10.328 -1.7277 -0.1876 -0.5671
  593MOL0     H81773  10.678   5.839  10.144 -0.8401  0.1161 -0.2237
  593MOL0     H81774  10.579   5.946  10.240  0.6124  0.9571  0.0744
  593MOL0     H81775  10.854   5.920  10.343 -0.1027  2.7570  2.9774
  593MOL0     H81776  10.748   6.043  10.340 -0.5546 -1.4858  1.4477
  593MOL0     H81777  10.962   6.063  10.200 -1.6016  1.6721  1.6888
  593MOL0     H81778  10.887   5.967  10.076 -0.0673  2.1114 -2.0404
  593MOL0     H81779  10.787   6.246  10.168 -1.8688  1.8342 -2.4530
  593MOL0     H81780  10.678   6.153  10.078 -1.2082 -1.0846  2.0863
  593MOL0     H81781  10.841   6.153   9.885  3.6896  0.4165  0.2580
  593MOL0     H81782  10.788   6.306   9.945 -0.4632  1.2693  2.8126
  593MOL0     H81783  11.001   6.460  10.065  0.2993 -1.0790  1.1746
  593MOL0     H81784  11.383   6.410  10.023 -0.4289 -1.6398  0.1294
  593MOL0     H81785  11.268   6.530  10.064 -0.7156 -1.9536  0.3398
  593MOL0     H81786  11.210   6.551   9.812 -1.2810  0.9502  2.3620
  593MOL0     H81787  11.379   6.605   9.854  1.7665 -0.8680 -1.2022
  593MOL0     H81788  11.461   6.393   9.790  0.3967 -0.6695 -1.6136
  593MOL0     H81789  11.305   6.336   9.732 -0.6335  0.3863 -1.5807
  593MOL0     H81790  11.279   6.495   9.560  1.2564 -2.5330 -3.1836
  593MOL0     H81791  11.416   6.598   9.624 -1.4949  0.8924  1.9421
  593MOL0     H81792  11.630   6.272   9.392  0.1177 -0.0228  1.9160
  593MOL0     H81793  11.910   6.292   9.239  0.7275 -1.6962 -0.4229
  593MOL0     H81794  11.826   6.163   9.339 -0.7412  0.9020  1.6823
  593MOL0     H81795  11.981   6.234   9.385  1.2978  1.5845  0.0683
  593MOL0     H81796  12.235   6.462   9.751 -0.5653 -0.1189 -0.0491
  593MOL0     H81797  12.492   6.476   9.743  1.2072  1.8460 -1.4769
  593MOL0     H81798  12.825   6.634   9.673  1.2560 -0.9157  0.3715
  593MOL0     H81799  12.685   6.614   9.782 -0.0323 -0.5962 -0.5967
  593MOL0     H81800  12.654   6.383   9.636 -1.2585  1.2984 -0.0849
  593MOL0     H81801  12.800   6.417   9.578 -2.1551 -0.2337 -0.4969
  593MOL0     H81802  12.855   6.447   9.866 -1.0318 -1.2924  1.9490
  593MOL0     H81803  12.873   6.306   9.767 -0.2945  0.2603 -2.1156
  593MOL0     H81804  12.638   6.239   9.842  0.5669 -2.1542  3.0588
  593MOL0     H81805  12.624   6.407   9.913 -0.5341  1.1386 -3.8771
  593MOL0     H81806  12.816   6.201  10.017 -2.9154 -2.8544 -0.1494
  593MOL0     H81807  12.776   6.370  10.079 -2.7865  0.3151  0.4254
  593MOL0     H81808  12.593   6.122  10.043 -1.0899 -1.3622  1.4619
  593MOL0     H81809  12.555   6.282  10.116  1.2445  1.8259 -1.3546
  593MOL0     H81810  12.694   6.234  10.297 -0.3933 -0.3409  0.0661
  593MOL0     H81811  12.783   6.110  10.224  0.1799  0.5578  0.1120
  593MOL0     H81812  12.598   5.954  10.242  0.1909  1.2237 -2.2463
  593MOL0     H81813  12.482   6.084  10.292  0.1034 -0.2421 -0.9422
  593MOL0     H81814  12.459   6.777   9.449  0.6215  0.8009  2.4669
  593MOL0     H81815  12.203   6.723   9.424 -1.8795 -3.7690 -2.4394
  593MOL0     H81816  11.858   6.641   9.620 -0.6745  1.7991 -1.6916
  593MOL0     H81817  11.608   6.606   9.647 -2.1513  1.1483 -3.5269
  593MOL0     H81818  10.386   5.496  10.667 -0.6325 -2.4420  1.5623
  593MOL0     H81819  10.205   5.422  10.807 -1.8143  1.9741  0.3966
  593MOL0     H81820   9.855   5.249  10.909 -0.9233  0.5581 -1.8493
  593MOL0     H81821   9.708   5.172  11.080 -1.6497 -1.3988  0.3968
  593MOL0     H81822   9.475   5.119  11.112  3.3430  1.5021 -1.0954
  593MOL0     H81823   9.545   5.151  11.273 -0.8552 -0.7557  0.8969
  593MOL0     H81824   9.259   5.229  11.201 -0.3532  0.7887  0.6165
  593MOL0     H81825   9.318   5.236  11.363  0.4020 -0.0129 -0.7665
  593MOL0     H81826   9.289   5.000  11.177 -0.6526  1.2365  0.1457
  593MOL0     H81827   9.304   4.972  11.355 -0.6204  2.4098  2.4815
  593MOL0     H81828   9.076   5.026  11.181 -1.2723 -2.0627  0.4606
  593MOL0     H81829   9.061   5.126  11.329 -2.6589 -0.0808 -1.5584
  593MOL0     H81830   9.018   4.744  11.485  0.7946  0.0723  0.1621
  593MOL0     H81831   9.476   5.532  11.052 -2.4565 -2.2715 -1.7851
  593MOL0     H81832   9.715   5.736  10.928  0.2979 -1.3411  1.3725
  593MOL0     H81833   9.650   5.682  10.777  0.9738  2.2061  0.8212
  593MOL0     H81834   9.545   5.707  10.918 -0.1327 -0.8676  0.5681
  594MOL0     O81835   9.003   2.716   0.595 -0.0707 -0.4898 -0.0582
  594MOL0     C81836   8.912   2.725   0.680  0.6743  0.4102  0.1688
  594MOL0     O81837   8.931   2.744   0.813  0.3613 -0.2986 -0.0653
  594MOL0     C81838   9.034   2.692   0.882  0.8667  0.0754  0.1035
  594MOL0     C81839   9.106   2.578   0.841 -1.1987  0.1828 -0.3691
  594MOL0     C81840   9.195   2.521   0.939  0.7510 -0.5854  0.0743
  594MOL0     C81841   9.218   2.591   1.058  0.3322  0.0340  0.9592
  594MOL0     O81842   9.321   2.540   1.128 -0.5521  0.0083  0.5295
  594MOL0     C81843   9.345   2.572   1.267 -1.0953 -0.4622 -0.5086
  594MOL0     C81844   9.486   2.580   1.284  0.1721  0.1351 -0.2681
  594MOL0     C81845   9.525   2.633   1.421  0.1055 -1.0554 -0.2040
  594MOL0     C81846   9.635   2.555   1.494 -0.2102  0.4175 -0.3475
  594MOL0     C81847   9.686   2.622   1.626 -0.5832  0.1501  0.3546
  594MOL0     C81848   9.830   2.616   1.642  0.3664  0.0537 -1.0004
  594MOL0     C81849   9.883   2.660   1.778  0.9806 -0.2154  0.7491
  594MOL0     C81850   9.842   2.804   1.821 -0.2021  0.6218  0.3892
  594MOL0     N81851   9.935   2.895   1.750 -0.2141 -0.4005  0.5042
  594MOL0     C81852  10.071   2.898   1.783 -0.4323  0.1666  0.7139
  594MOL0     C81853  10.119   2.997   1.694  0.8210  0.1963 -0.2461
  594MOL0     C81854  10.266   3.035   1.678 -0.6162  0.2849  0.0761
  594MOL0     C81855  10.304   3.156   1.754 -0.1582  0.3699  0.4695
  594MOL0     C81856  10.215   3.277   1.717 -0.8983 -0.2828  0.6922
  594MOL0     C81857  10.243   3.405   1.779 -0.1315  0.3017 -0.1408
  594MOL0     O81858  10.352   3.467   1.711  0.5168 -0.0226 -0.3825
  594MOL0     C81859  10.383   3.590   1.760 -1.0867 -0.1702  0.3467
  594MOL0     C81860  10.464   3.669   1.672 -0.9233  0.3557 -0.4749
  594MOL0     C81861  10.512   3.793   1.697 -0.0253 -0.3312  0.2024
  594MOL0     C81862  10.607   3.857   1.593 -0.4292 -0.6327  0.1296
  594MOL0     C81863  10.480   3.851   1.824 -0.7718 -0.7218 -0.1087
  594MOL0     C81864  10.520   3.975   1.877  0.4708  0.2807 -0.2086
  594MOL0     O81865  10.535   4.090   1.798 -0.4655  0.5236  0.7077
  594MOL0     C81866  10.564   4.206   1.855  0.5011 -0.2793 -0.7119
  594MOL0     C81867  10.479   4.291   1.919  0.6869  0.2203 -0.0909
  594MOL0     C81868  10.516   4.421   1.956  0.1404  0.0778 -0.8066
  594MOL0     C81869  10.649   4.456   1.933 -0.5675 -0.8848  0.4189
  594MOL0     O81870  10.710   4.571   1.987  0.7928  0.0618 -0.1046
  594MOL0     C81871  10.640   4.646   2.086  0.5411 -0.2321 -0.0340
  594MOL0     C81872  10.687   4.795   2.091 -0.0854 -0.7397  0.2784
  594MOL0     C81873  10.632   4.867   1.967  0.1022 -0.9731 -0.2145
  594MOL0     C81874  10.709   5.002   1.963 -0.0141 -0.1430 -1.1225
  594MOL0     C81875  10.684   5.084   1.832  0.5037  0.3191  0.0385
  594MOL0     C81876  10.741   5.234   1.837 -0.0550  0.7977 -0.8075
  594MOL0     C81877  10.659   5.326   1.935  0.4034  0.4707 -0.5491
  594MOL0     C81878  10.524   5.331   1.872  0.1627  1.1831 -0.0704
  594MOL0    Cl81879  10.430   5.476   1.930 -0.0597  0.3033  0.2026
  594MOL0     C81880  10.740   4.374   1.859 -0.0759 -0.3093  0.2382
  594MOL0     C81881  10.695   4.252   1.813 -0.1020  0.0288 -0.6089
  594MOL0     O81882  10.534   3.979   1.998 -0.2650 -0.0633  0.3398
  594MOL0     C81883  10.401   3.769   1.912  0.0337  0.3110 -0.1785
  594MOL0     C81884  10.359   3.636   1.888 -1.3360  0.6965  0.6326
  594MOL0     N81885  10.012   3.054   1.622 -0.3936  0.1913 -0.4215
  594MOL0     N81886   9.915   2.989   1.652 -0.9784  0.4029  0.4577
  594MOL0     C81887   9.145   2.699   1.093  0.1725  0.3744 -0.0496
  594MOL0     C81888   9.041   2.744   1.007 -0.8126  0.6769 -0.7721
  594MOL0     C81889   8.779   2.742   0.620 -0.1355  0.9757  0.8731
  594MOL0     C81890   8.759   2.687   0.488 -0.1577  0.1175 -0.1805
  594MOL0     C81891   8.629   2.683   0.426  0.0355 -0.8761  0.7523
  594MOL0     C81892   8.524   2.749   0.498 -0.3479  0.7667  0.0780
  594MOL0     O81893   8.404   2.758   0.425 -0.1051  0.0197 -0.4594
  594MOL0     C81894   8.301   2.855   0.473 -0.2144 -0.1639  0.3129
  594MOL0     C81895   8.331   2.999   0.433 -0.3591  0.7286 -0.3547
  594MOL0     C81896   8.322   3.025   0.279 -0.4549  0.3847  0.4320
  594MOL0     C81897   8.457   3.016   0.214  0.8178 -0.3542  0.1523
  594MOL0     C81898   8.446   3.025   0.063  0.3720  1.3214 -0.4391
  594MOL0     C81899   8.444   3.035  -0.061 -0.4118 -0.2917 -0.3954
  594MOL0     C81900   8.543   2.804   0.628 -0.0010 -0.3455 -0.2713
  594MOL0     C81901   8.667   2.788   0.694  0.3011 -0.1293 -1.1045
  594MOL0     C81902   8.676   2.840   0.836  0.7417 -0.2291  0.2956
  594MOL0     H81903   9.105   2.538   0.740 -2.2545  3.4887 -1.8148
  594MOL0     H81904   9.252   2.433   0.911 -2.2123 -2.7045  0.1976
  594MOL0     H81905   9.320   2.495   1.340  2.5208 -0.6274  0.7406
  594MOL0     H81906   9.291   2.661   1.301  0.2798  0.4863 -0.7578
  594MOL0     H81907   9.524   2.479   1.267 -4.5483 -1.3123 -4.9263
  594MOL0     H81908   9.532   2.646   1.210  1.1035 -0.9274 -0.6686
  594MOL0     H81909   9.556   2.736   1.399 -2.3477 -0.0782  0.5935
  594MOL0     H81910   9.429   2.642   1.472 -0.0139  0.6481 -0.6413
  594MOL0     H81911   9.595   2.459   1.530  1.5875 -0.1010  0.3954
  594MOL0     H81912   9.724   2.543   1.431  2.4964  3.5769  2.5041
  594MOL0     H81913   9.630   2.587   1.713 -1.0297  1.3914  0.5863
  594MOL0     H81914   9.645   2.723   1.619 -2.5079 -0.6604 -0.5982
  594MOL0     H81915   9.865   2.514   1.624  0.0782  0.1269 -2.0356
  594MOL0     H81916   9.879   2.693   1.581  0.7133  1.3165  0.7575
  594MOL0     H81917   9.989   2.638   1.786  0.7560 -1.5248  0.2840
  594MOL0     H81918   9.842   2.597   1.858 -1.5050  1.1914  0.7195
  594MOL0     H81919   9.738   2.830   1.798 -0.4659  1.2441  2.1571
  594MOL0     H81920   9.853   2.804   1.929  2.1702 -0.0555  0.2055
  594MOL0     H81921  10.135   2.842   1.850  1.0733 -0.7509 -1.4089
  594MOL0     H81922  10.284   3.046   1.570  1.6967  2.5655  0.5939
  594MOL0     H81923  10.336   2.955   1.699 -0.6062  0.0565 -0.7812
  594MOL0     H81924  10.285   3.138   1.860 -1.5389 -1.2218  0.0020
  594MOL0     H81925  10.409   3.185   1.746 -0.7468  2.0360 -2.8629
  594MOL0     H81926  10.223   3.293   1.609 -0.4408 -1.6124  0.5135
  594MOL0     H81927  10.114   3.249   1.750 -0.4005  0.5644  3.1489
  594MOL0     H81928  10.154   3.467   1.764  0.6427  1.0390 -2.1287
  594MOL0     H81929  10.260   3.396   1.886 -0.1231  0.5814 -0.1182
  594MOL0     H81930  10.507   3.608   1.594  0.2659 -0.4895  0.7895
  594MOL0     H81931  10.703   3.882   1.640  0.7234 -2.0991 -1.3213
  594MOL0     H81932  10.552   3.933   1.537 -2.4252 -0.0877  2.6321
  594MOL0     H81933  10.640   3.789   1.513  0.9173  1.0644 -0.8265
  594MOL0     H81934  10.373   4.266   1.926  0.3396  1.8420  1.0082
  594MOL0     H81935  10.452   4.496   2.001  1.0328 -0.5768  1.7438
  594MOL0     H81936  10.531   4.656   2.080  0.4629 -1.1897 -0.4838
  594MOL0     H81937  10.666   4.608   2.185  1.9170 -1.1672 -0.7214
  594MOL0     H81938  10.633   4.829   2.179 -0.9985 -3.9112  1.0873
  594MOL0     H81939  10.793   4.817   2.109 -0.3720  0.5019  0.5393
  594MOL0     H81940  10.528   4.901   1.964  0.3162 -0.2112  0.4875
  594MOL0     H81941  10.659   4.813   1.876  1.8952  2.6292 -2.0105
  594MOL0     H81942  10.816   4.984   1.955  0.5181 -0.4527  3.9005
  594MOL0     H81943  10.677   5.057   2.052 -0.5781  1.2419 -2.1362
  594MOL0     H81944  10.749   5.046   1.753  1.5393 -1.1307  1.5376
  594MOL0     H81945  10.581   5.074   1.797  0.5787 -1.3425  0.2030
  594MOL0     H81946  10.728   5.271   1.735 -0.6586  3.0529  0.0275
  594MOL0     H81947  10.848   5.235   1.860 -0.2428 -1.5145  0.4578
  594MOL0     H81948  10.696   5.429   1.931 -0.3650  0.7360 -0.9650
  594MOL0     H81949  10.667   5.285   2.037  0.2658 -0.1127 -0.7700
  594MOL0     H81950  10.473   5.237   1.898 -0.2102  1.6301  0.8535
  594MOL0     H81951  10.534   5.347   1.764 -1.2450  1.0714 -0.2457
  594MOL0     H81952  10.837   4.416   1.833 -1.0690  0.7365 -2.0615
  594MOL0     H81953  10.753   4.192   1.744 -0.4237  0.5225 -1.3140
  594MOL0     H81954  10.392   3.804   2.014 -1.0554  0.4141 -0.2925
  594MOL0     H81955  10.302   3.594   1.970 -2.1196 -2.4561 -1.3299
  594MOL0     H81956   9.165   2.759   1.181  4.2488 -1.5312  0.5619
  594MOL0     H81957   8.974   2.823   1.041 -1.9217 -0.6825  0.2875
  594MOL0     H81958   8.846   2.652   0.433  2.2674  1.4623  2.5334
  594MOL0     H81959   8.617   2.649   0.324  0.1502  0.2899  0.3364
  594MOL0     H81960   8.199   2.830   0.441 -0.1558  0.8695 -0.7380
  594MOL0     H81961   8.299   2.875   0.581 -2.5380 -0.6163  0.4045
  594MOL0     H81962   8.432   3.010   0.472 -0.4094 -1.8373  0.6606
  594MOL0     H81963   8.263   3.062   0.492  0.3746 -0.6652  2.1529
  594MOL0     H81964   8.255   2.951   0.234  0.9118 -0.0316 -0.9847
  594MOL0     H81965   8.278   3.125   0.272 -1.9641 -0.1960  1.1889
  594MOL0     H81966   8.504   2.920   0.236  1.8178 -0.1325 -0.9231
  594MOL0     H81967   8.502   3.107   0.254  1.0396 -0.9363  1.2810
  594MOL0     H81968   8.451   3.026  -0.168 -2.0148  1.3334 -0.6942
  594MOL0     H81969   8.462   2.856   0.677  0.5136  0.6964 -0.5115
  594MOL0     H81970   8.692   2.761   0.909  0.9001 -1.0840 -0.6511
  594MOL0     H81971   8.751   2.920   0.837  0.1951  0.2834  0.5507
  594MOL0     H81972   8.582   2.894   0.852  0.4760 -0.9588  1.2443
  595MOL0     O81973   4.295   4.268  11.021  0.6666 -1.2186 -0.6639
  595MOL0     C81974   4.213   4.296  10.939  1.0525  0.4872  0.0928
  595MOL0     O81975   4.107   4.224  10.914 -0.3944  0.2189  0.9933
  595MOL0     C81976   4.110   4.086  10.904  0.1980 -0.8763 -0.5949
  595MOL0     C81977   4.226   4.021  10.859 -0.3526  0.3700  0.4021
  595MOL0     C81978   4.232   3.878  10.857 -0.0920  0.2386 -0.1764
  595MOL0     C81979   4.128   3.810  10.905  0.6668  0.4493  0.6839
  595MOL0     O81980   4.142   3.677  10.924  1.4373  0.0588 -0.4432
  595MOL0     C81981   4.050   3.582  10.857  0.7888 -0.7225  1.1162
  595MOL0     C81982   4.109   3.543  10.723 -0.0408  0.6258 -0.7264
  595MOL0     C81983   4.219   3.440  10.741  0.0014  0.2871  0.3583
  595MOL0     C81984   4.274   3.400  10.604  0.1648  0.0704  0.2522
  595MOL0     C81985   4.377   3.288  10.635  0.2935  1.0537  0.5669
  595MOL0     C81986   4.471   3.274  10.507 -0.3395 -0.8039 -0.7148
  595MOL0     C81987   4.610   3.203  10.536  0.0653  0.2723  0.2902
  595MOL0     C81988   4.718   3.228  10.428  0.5527 -0.3585 -0.0153
  595MOL0     N81989   4.849   3.218  10.487  0.1778  0.2521  0.2637
  595MOL0     C81990   4.913   3.311  10.565 -0.8240  0.0264 -0.0928
  595MOL0     C81991   5.030   3.248  10.599 -0.1038  0.8883 -0.0412
  595MOL0     C81992   5.153   3.306  10.664  0.3105 -0.0866 -0.2001
  595MOL0     C81993   5.224   3.205  10.742 -0.1567 -1.1104  0.9719
  595MOL0     C81994   5.310   3.266  10.855 -0.4839  0.8024  0.8629
  595MOL0     C81995   5.429   3.180  10.912  0.0585  0.3551 -1.1026
  595MOL0     O81996   5.400   3.060  10.978 -0.0373 -0.0206  0.2767
  595MOL0     C81997   5.503   2.971  11.004 -0.3325  0.3986  0.2266
  595MOL0     C81998   5.463   2.834  11.012  0.7373 -0.5832  0.9949
  595MOL0     C81999   5.566   2.738  11.009 -0.5935 -0.2794  0.5587
  595MOL0     C82000   5.521   2.595  10.982  0.3074  0.5385  0.5977
  595MOL0     C82001   5.701   2.770  11.026  0.5696  0.7617 -0.3061
  595MOL0     C82002   5.804   2.668  11.057  0.4660 -1.1621 -0.3430
  595MOL0     O82003   5.782   2.564  11.139 -0.1527 -0.3937 -0.4065
  595MOL0     C82004   5.877   2.468  11.157  0.0520  0.8729 -0.0915
  595MOL0     C82005   5.846   2.342  11.114 -0.3550  0.6211  0.9271
  595MOL0     C82006   5.935   2.229  11.127 -0.0623  0.2267  1.1665
  595MOL0     C82007   6.060   2.254  11.193 -0.4287 -0.5604 -0.6338
  595MOL0     O82008   6.137   2.148  11.196  0.6051 -1.0473 -0.2476
  595MOL0     C82009   6.219   2.124  11.080  0.6641  0.0427 -0.1959
  595MOL0     C82010   6.296   2.000  11.084 -0.3921 -0.2662  0.1373
  595MOL0     C82011   6.357   1.964  11.221 -0.0148 -0.2865 -0.5420
  595MOL0     C82012   6.448   1.846  11.203  0.6363 -0.2829  0.3925
  595MOL0     C82013   6.567   1.835  11.307 -0.6123  0.1612 -0.6458
  595MOL0     C82014   6.677   1.741  11.260  0.0144  0.2463 -0.2398
  595MOL0     C82015   6.807   1.759  11.356  0.8129 -0.4006 -0.3228
  595MOL0     C82016   6.934   1.727  11.282 -1.1106 -0.4976  0.2872
  595MOL0    Cl82017   7.074   1.732  11.402  0.1864  0.1100  0.1545
  595MOL0     C82018   6.085   2.387  11.249 -0.4027 -0.2418  0.1620
  595MOL0     C82019   5.991   2.488  11.227 -0.7917  0.3206 -0.1100
  595MOL0     O82020   5.914   2.690  11.002  0.0361  0.2959 -0.7902
  595MOL0     C82021   5.729   2.907  11.033 -0.1703  0.2170  0.0098
  595MOL0     C82022   5.635   3.006  11.020 -0.1418 -0.2636  0.2824
  595MOL0     N82023   5.030   3.127  10.535  0.3893  1.1462  1.1029
  595MOL0     N82024   4.921   3.100  10.480  0.3921 -0.9999  0.2823
  595MOL0     C82025   4.008   3.871  10.951 -0.3404 -0.8587  0.1953
  595MOL0     C82026   4.001   4.009  10.957  0.6223  1.1305 -0.2450
  595MOL0     C82027   4.233   4.419  10.868  0.6378 -0.2273  0.8835
  595MOL0     C82028   4.118   4.506  10.845 -0.0247  0.4168 -0.0920
  595MOL0     C82029   4.126   4.606  10.748 -0.4844 -0.3081 -0.4762
  595MOL0     C82030   4.243   4.640  10.688  0.0461 -0.8910 -0.0585
  595MOL0     O82031   4.250   4.723  10.576  0.0940  0.4193 -0.4908
  595MOL0     C82032   4.138   4.793  10.524  0.1568 -0.1216  0.3571
  595MOL0     C82033   4.184   4.910  10.436 -0.1448 -0.1643  0.1131
  595MOL0     C82034   4.254   4.866  10.302  0.2972 -0.7019  0.6272
  595MOL0     C82035   4.297   4.991  10.235  0.1344 -0.0559 -0.5473
  595MOL0     C82036   4.413   5.055  10.299 -0.1400  0.5174 -0.0234
  595MOL0     C82037   4.510   5.113  10.348 -0.5129 -0.3538 -0.8872
  595MOL0     C82038   4.349   4.556  10.709 -0.4255 -0.7548  0.6557
  595MOL0     C82039   4.352   4.446  10.789  0.6496 -0.4553  0.7026
  595MOL0     C82040   4.487   4.379  10.787  0.2931 -0.0417 -0.6396
  595MOL0     H82041   4.305   4.087  10.823  0.7331 -2.1237 -2.2204
  595MOL0     H82042   4.322   3.827  10.826 -0.4010 -1.6408  1.7616
  595MOL0     H82043   3.958   3.632  10.827  2.3164 -0.4587 -4.1834
  595MOL0     H82044   4.030   3.491  10.915 -0.3592 -1.0877  0.1830
  595MOL0     H82045   4.032   3.499  10.658  0.1833 -1.1381  0.1419
  595MOL0     H82046   4.148   3.635  10.680  0.5826  1.9969  2.4566
  595MOL0     H82047   4.306   3.477  10.796  3.3107 -2.4052 -2.6469
  595MOL0     H82048   4.175   3.353  10.790 -0.9210 -1.7332 -3.6431
  595MOL0     H82049   4.193   3.380  10.534  1.5903  2.8983 -2.4409
  595MOL0     H82050   4.328   3.481  10.554  2.2883 -1.0948  0.5366
  595MOL0     H82051   4.333   3.191  10.660 -0.5635  1.7419  1.8420
  595MOL0     H82052   4.443   3.322  10.716  0.1979 -0.8152  1.4815
  595MOL0     H82053   4.426   3.211  10.430  1.1927  0.6128 -2.9110
  595MOL0     H82054   4.492   3.374  10.466 -1.6343 -0.0665  0.3572
  595MOL0     H82055   4.596   3.097  10.559  1.2951 -1.6437 -5.8362
  595MOL0     H82056   4.639   3.256  10.627  0.7974  1.9540 -0.8648
  595MOL0     H82057   4.699   3.148  10.356 -0.2513 -1.5876  1.4977
  595MOL0     H82058   4.705   3.330  10.389  1.6572 -0.3004 -0.2853
  595MOL0     H82059   4.887   3.413  10.590  0.3213  0.3064  0.0403
  595MOL0     H82060   5.134   3.398  10.720  0.2723 -0.4092  0.3262
  595MOL0     H82061   5.223   3.338  10.586 -1.4701  1.3598 -1.2846
  595MOL0     H82062   5.149   3.140  10.787  0.3803 -1.5685  1.2219
  595MOL0     H82063   5.294   3.147  10.681 -2.0996 -1.2343 -1.2805
  595MOL0     H82064   5.350   3.357  10.810 -1.5646  0.9753  0.2184
  595MOL0     H82065   5.238   3.289  10.935 -0.6309 -1.8705  1.5929
  595MOL0     H82066   5.479   3.143  10.822 -1.7474  1.7897 -2.7785
  595MOL0     H82067   5.479   3.249  10.980 -0.9272 -0.1243  0.1703
  595MOL0     H82068   5.360   2.802  11.018  0.3720  0.5762  1.2419
  595MOL0     H82069   5.421   2.603  10.939 -0.0530 -1.3968  0.9715
  595MOL0     H82070   5.519   2.539  11.076  0.1121  1.9241  1.4463
  595MOL0     H82071   5.585   2.540  10.912 -1.1888  0.6233 -0.8862
  595MOL0     H82072   5.754   2.330  11.057  1.8683 -2.0998 -2.5251
  595MOL0     H82073   5.904   2.130  11.095  0.6941  0.5496 -0.6678
  595MOL0     H82074   6.157   2.129  10.991 -0.4876 -1.8156  0.4523
  595MOL0     H82075   6.291   2.206  11.075  0.7469 -0.1061 -2.2619
  595MOL0     H82076   6.235   1.914  11.056  0.7475 -1.1608  0.3550
  595MOL0     H82077   6.370   2.005  11.004  1.4710 -1.2764  1.7264
  595MOL0     H82078   6.281   1.943  11.298  1.1469 -1.5642  0.3072
  595MOL0     H82079   6.418   2.044  11.264 -0.0950 -0.7716  0.5134
  595MOL0     H82080   6.482   1.841  11.099  2.6223  1.3044  0.8991
  595MOL0     H82081   6.370   1.772  11.222  0.9330 -0.6656  0.1398
  595MOL0     H82082   6.611   1.935  11.304  1.2069 -0.5635  0.3073
  595MOL0     H82083   6.540   1.813  11.411  0.4106  0.8569 -0.2097
  595MOL0     H82084   6.709   1.753  11.156  2.4545 -0.8488  0.3054
  595MOL0     H82085   6.637   1.640  11.263  1.5403 -0.6491 -4.1682
  595MOL0     H82086   6.791   1.695  11.443  0.0758  0.7847  0.4265
  595MOL0     H82087   6.806   1.860  11.397 -1.4606 -0.8031  0.7311
  595MOL0     H82088   6.960   1.795  11.201 -0.8855  1.3634  1.8710
  595MOL0     H82089   6.926   1.628  11.237  2.4817 -0.9297  0.2988
  595MOL0     H82090   6.183   2.402  11.294 -0.3693  2.0329 -0.5605
  595MOL0     H82091   6.004   2.593  11.250  0.0458  0.5045 -1.3064
  595MOL0     H82092   5.830   2.943  11.051  0.1220 -0.0160 -1.0723
  595MOL0     H82093   5.673   3.107  11.011 -1.4332  0.4124  2.0033
  595MOL0     H82094   3.924   3.807  10.978 -0.8286  0.1837  1.2284
  595MOL0     H82095   3.917   4.063  11.001  0.0209 -0.4773  0.6675
  595MOL0     H82096   4.019   4.495  10.887 -1.1337  1.0507 -2.3724
  595MOL0     H82097   4.037   4.661  10.722  1.2703  2.0708 -1.8619
  595MOL0     H82098   4.070   4.724  10.475 -1.0964  0.7398  0.8366
  595MOL0     H82099   4.076   4.842  10.599 -0.4393 -0.2048 -0.0775
  595MOL0     H82100   4.253   4.977  10.487  0.0646  0.2288 -0.6742
  595MOL0     H82101   4.097   4.974  10.420 -0.0928 -0.1886 -0.2779
  595MOL0     H82102   4.334   4.792  10.316  0.7335 -0.9016 -2.2169
  595MOL0     H82103   4.184   4.816  10.234 -1.0079  1.6194  0.1657
  595MOL0     H82104   4.216   5.062  10.217 -1.4121 -2.3902 -3.5901
  595MOL0     H82105   4.340   4.967  10.137 -0.7998  1.2415 -1.3077
  595MOL0     H82106   4.598   5.164  10.381 -0.5070 -1.2163  0.4969
  595MOL0     H82107   4.436   4.580  10.650 -2.1694  0.0409 -1.7422
  595MOL0     H82108   4.488   4.308  10.869 -2.2911 -0.1901 -0.6293
  595MOL0     H82109   4.498   4.312  10.701 -0.6585 -2.3612  0.9792
  595MOL0     H82110   4.576   4.441  10.801  0.6680 -0.0709 -2.5940
  596MOL0     O82111   8.822   7.799   8.903 -0.1343 -0.6228  0.0988
  596MOL0     C82112   8.786   7.914   8.933 -0.4015 -0.0657  0.7037
  596MOL0     O82113   8.866   8.025   8.953  0.4495 -0.3042 -0.1259
  596MOL0     C82114   8.997   8.017   8.927 -0.1433  0.2350 -0.0591
  596MOL0     C82115   9.048   8.037   8.791 -0.0017 -1.1758 -0.8807
  596MOL0     C82116   9.183   8.019   8.754 -0.6698  0.0146  0.0003
  596MOL0     C82117   9.271   7.962   8.850 -0.5555 -0.6940 -0.0703
  596MOL0     O82118   9.399   7.936   8.808 -0.2543 -0.4343  0.1593
  596MOL0     C82119   9.487   7.849   8.879  0.3741  0.1836  0.8209
  596MOL0     C82120   9.631   7.849   8.815  0.3532  0.0101  1.0461
  596MOL0     C82121   9.695   7.985   8.827 -0.2867 -0.2474  0.1635
  596MOL0     C82122   9.845   7.978   8.830  0.1536 -0.2474  0.2877
  596MOL0     C82123   9.922   8.108   8.783  1.1822 -0.0436 -0.4258
  596MOL0     C82124  10.079   8.096   8.809  0.2014 -1.4549  0.2821
  596MOL0     C82125  10.147   7.975   8.737 -0.2041 -0.1945  0.7519
  596MOL0     C82126  10.109   7.960   8.590  0.7610  1.0779  0.3036
  596MOL0     N82127  10.147   8.074   8.515 -0.0190 -0.1002  0.7062
  596MOL0     C82128  10.268   8.108   8.463  0.0797  0.9340  0.0446
  596MOL0     C82129  10.260   8.227   8.402 -0.0500 -0.1329 -0.4060
  596MOL0     C82130  10.377   8.291   8.331 -0.8128  0.0330 -0.3808
  596MOL0     C82131  10.388   8.442   8.367  0.1269  0.6565 -0.4651
  596MOL0     C82132  10.492   8.514   8.269 -0.2663  0.5234 -0.2343
  596MOL0     C82133  10.488   8.659   8.296  0.1610 -0.8523 -0.6415
  596MOL0     O82134  10.366   8.713   8.246  0.0704  0.4881 -0.5792
  596MOL0     C82135  10.298   8.811   8.318  0.4175 -0.0062 -0.5872
  596MOL0     C82136  10.367   8.906   8.385 -0.2953  0.5670  0.6879
  596MOL0     C82137  10.299   8.995   8.466 -1.0560  0.1182  0.1054
  596MOL0     C82138  10.381   9.094   8.545  0.0928 -0.8666  0.3548
  596MOL0     C82139  10.159   8.994   8.461 -0.1490 -0.8337 -0.7145
  596MOL0     C82140  10.067   9.095   8.518 -0.1681 -0.7775  0.6770
  596MOL0     O82141   9.967   9.068   8.606  0.3016 -0.2163  0.2254
  596MOL0     C82142   9.880   9.168   8.631  0.2746 -0.4975  0.7956
  596MOL0     C82143   9.845   9.197   8.761  0.1081 -0.0468  0.4694
  596MOL0     C82144   9.744   9.290   8.778  0.6692 -0.1879 -0.1579
  596MOL0     C82145   9.675   9.347   8.670  0.2514  0.2908  0.9387
  596MOL0     O82146   9.575   9.430   8.704  0.0412  0.2781 -0.1039
  596MOL0     C82147   9.598   9.571   8.680  0.8850  0.5993  1.0741
  596MOL0     C82148   9.505   9.646   8.774  0.6200 -0.3529  0.0572
  596MOL0     C82149   9.355   9.623   8.769 -0.3520  0.1211 -0.3467
  596MOL0     C82150   9.300   9.723   8.869 -0.3713  0.3573  0.6889
  596MOL0     C82151   9.140   9.710   8.867 -0.4665 -1.1243 -0.0954
  596MOL0     C82152   9.067   9.794   8.968  0.2350  0.2041  0.2585
  596MOL0     C82153   8.914   9.790   8.971 -0.7401 -0.5822 -0.0751
  596MOL0     C82154   8.858   9.677   9.045  0.9714 -0.4389 -0.1762
  596MOL0    Cl82155   8.677   9.690   9.060  0.4569 -0.3222 -0.2700
  596MOL0     C82156   9.702   9.309   8.536  0.1649  0.3362  0.5269
  596MOL0     C82157   9.808   9.224   8.521  0.2087  0.1679 -0.0678
  596MOL0     O82158  10.097   9.210   8.484 -0.7558 -0.0656  0.2642
  596MOL0     C82159  10.093   8.904   8.383 -0.6095 -0.4637 -0.3778
  596MOL0     C82160  10.158   8.805   8.313  0.0260 -0.7013  0.3591
  596MOL0     N82161  10.128   8.268   8.418  0.0090  0.4199  0.1780
  596MOL0     N82162  10.063   8.172   8.472  0.2814  1.0092 -0.7698
  596MOL0     C82163   9.222   7.935   8.979 -0.3632 -0.6107 -0.8533
  596MOL0     C82164   9.093   7.972   9.014  0.9300 -0.4187  1.1366
  596MOL0     C82165   8.642   7.937   8.958 -0.2898 -0.4083 -0.8323
  596MOL0     C82166   8.574   7.862   9.058 -0.3187 -1.1005  0.5051
  596MOL0     C82167   8.440   7.884   9.083 -0.0251  0.4181 -0.0734
  596MOL0     C82168   8.378   8.002   9.027 -0.1680 -0.6420  0.0510
  596MOL0     O82169   8.249   8.039   9.045  0.3096 -0.1980  0.7566
  596MOL0     C82170   8.182   8.001   9.166 -0.6674  0.3803  0.4144
  596MOL0     C82171   8.256   8.079   9.280  0.4250  0.7090 -0.1961
  596MOL0     C82172   8.278   8.230   9.271 -0.1777  0.7810 -0.4772
  596MOL0     C82173   8.153   8.311   9.245 -0.0358 -0.3721  0.0297
  596MOL0     C82174   8.108   8.300   9.104  0.1783  0.7270 -0.6698
  596MOL0     C82175   8.048   8.312   9.000  0.4732  0.4888 -0.4601
  596MOL0     C82176   8.454   8.088   8.944 -0.4150 -0.6186  0.4984
  596MOL0     C82177   8.578   8.045   8.895 -0.1585 -0.1919 -0.2153
  596MOL0     C82178   8.644   8.123   8.781  0.8331 -0.4381 -0.1466
  596MOL0     H82179   8.986   8.053   8.704  0.8788 -3.3146 -1.9757
  596MOL0     H82180   9.221   8.036   8.654  0.6527  3.5991  0.9504
  596MOL0     H82181   9.444   7.748   8.879  1.0953 -0.1351  0.4644
  596MOL0     H82182   9.496   7.877   8.984  0.6775  1.0420  0.5689
  596MOL0     H82183   9.687   7.783   8.883 -1.8884 -0.0006  2.9918
  596MOL0     H82184   9.622   7.816   8.711 -1.1518  1.6547  0.6108
  596MOL0     H82185   9.673   8.040   8.735  1.0588 -2.3024 -1.4937
  596MOL0     H82186   9.647   8.041   8.907 -1.1143  0.0775 -0.5357
  596MOL0     H82187   9.886   7.951   8.927 -2.3396  1.8462  2.0824
  596MOL0     H82188   9.867   7.896   8.762 -1.9048  1.1477 -2.2862
  596MOL0     H82189   9.874   8.193   8.831 -0.7009 -0.1254 -2.0476
  596MOL0     H82190   9.906   8.125   8.677 -0.8070  2.7643  0.2190
  596MOL0     H82191  10.123   8.188   8.770 -2.8586  0.2076  0.4624
  596MOL0     H82192  10.095   8.096   8.917  3.9460  1.0561 -0.0794
  596MOL0     H82193  10.137   7.880   8.789  2.7497 -0.7358  0.5455
  596MOL0     H82194  10.255   7.992   8.739 -0.5722  3.4865 -1.5025
  596MOL0     H82195  10.152   7.868   8.549 -0.4915  2.1903 -3.9717
  596MOL0     H82196  10.001   7.957   8.577  0.7580  2.4120 -0.1635
  596MOL0     H82197  10.357   8.046   8.460 -2.3610 -2.8864  0.2369
  596MOL0     H82198  10.369   8.262   8.226 -1.1305 -0.8072 -0.1349
  596MOL0     H82199  10.469   8.255   8.377 -0.4168 -0.0029 -1.1811
  596MOL0     H82200  10.294   8.497   8.355  0.7827  2.1314  0.9660
  596MOL0     H82201  10.428   8.444   8.468  1.4395 -0.0243 -0.9548
  596MOL0     H82202  10.593   8.473   8.282 -0.4664 -1.3785 -3.5320
  596MOL0     H82203  10.478   8.490   8.164  1.5750  1.3612 -0.7154
  596MOL0     H82204  10.503   8.685   8.401  0.1189  3.4904 -1.5384
  596MOL0     H82205  10.568   8.710   8.242 -2.8329  0.5739 -4.1769
  596MOL0     H82206  10.475   8.907   8.398 -0.0986 -0.8559 -0.5484
  596MOL0     H82207  10.321   9.182   8.571 -2.5037 -1.6925 -2.2992
  596MOL0     H82208  10.470   9.135   8.496  0.9198 -0.0208  2.4412
  596MOL0     H82209  10.413   9.050   8.640  1.7549 -0.5681 -0.0271
  596MOL0     H82210   9.900   9.146   8.840  1.9815 -3.2584 -2.6076
  596MOL0     H82211   9.698   9.300   8.875  0.3311 -1.5817 -0.1621
  596MOL0     H82212   9.702   9.604   8.689  0.0981  4.0187 -0.8485
  596MOL0     H82213   9.564   9.595   8.579 -1.4792  0.9150  1.8784
  596MOL0     H82214   9.545   9.621   8.873  0.6347  0.3138  0.2272
  596MOL0     H82215   9.524   9.751   8.754  0.1590  0.3960  3.0506
  596MOL0     H82216   9.349   9.519   8.804 -0.3262  0.3213  0.2765
  596MOL0     H82217   9.319   9.627   8.666  1.4712  1.1702 -0.9930
  596MOL0     H82218   9.339   9.825   8.867  0.0504  0.1881  0.2402
  596MOL0     H82219   9.339   9.698   8.969 -2.4582  3.6061  2.4937
  596MOL0     H82220   9.108   9.728   8.764 -0.2678  0.9230  0.1475
  596MOL0     H82221   9.122   9.604   8.887  0.3896 -1.1786  0.4322
  596MOL0     H82222   9.088   9.899   8.948 -0.9270  0.4172  0.0700
  596MOL0     H82223   9.107   9.779   9.069  0.9249 -0.1991 -0.0679
  596MOL0     H82224   8.871   9.797   8.870 -1.4272 -1.9256  0.1001
  596MOL0     H82225   8.884   9.886   9.013  2.0669 -0.1821  1.2653
  596MOL0     H82226   8.902   9.676   9.145 -2.5427 -1.7692  1.5192
  596MOL0     H82227   8.896   9.580   9.012 -0.5734 -0.7417 -1.1559
  596MOL0     H82228   9.649   9.348   8.450  1.1175 -0.7472 -0.5824
  596MOL0     H82229   9.833   9.195   8.419  4.2295 -1.8174  1.2719
  596MOL0     H82230   9.986   8.888   8.381 -0.7019  0.1175 -2.7242
  596MOL0     H82231  10.112   8.718   8.268  1.3309 -0.1403 -2.2938
  596MOL0     H82232   9.286   7.890   9.054 -2.3413 -3.6858 -0.8526
  596MOL0     H82233   9.067   7.959   9.118 -0.8218  0.0567  0.7893
  596MOL0     H82234   8.626   7.781   9.109  1.9617  1.3326  2.3284
  596MOL0     H82235   8.399   7.809   9.151 -1.0016  0.4983 -0.5609
  596MOL0     H82236   8.078   8.036   9.166  0.6686  5.1694  0.9632
  596MOL0     H82237   8.192   7.893   9.171  0.7991  0.4963  0.3601
  596MOL0     H82238   8.354   8.033   9.299  0.4491  0.4011 -1.0420
  596MOL0     H82239   8.209   8.050   9.374  0.6674 -1.9658 -0.8129
  596MOL0     H82240   8.314   8.260   9.370  2.3654  0.5734 -1.2610
  596MOL0     H82241   8.359   8.262   9.205  1.0227  0.7015  0.9131
  596MOL0     H82242   8.169   8.416   9.271  2.6841 -1.3305  2.8548
  596MOL0     H82243   8.085   8.265   9.318 -0.4561 -0.5793 -0.4827
  596MOL0     H82244   7.980   8.317   8.918  0.8043  0.0711 -0.7646
  596MOL0     H82245   8.411   8.170   8.888 -0.6008 -2.0304 -1.5104
  596MOL0     H82246   8.564   8.167   8.720  3.7283  1.9180 -2.5452
  596MOL0     H82247   8.707   8.209   8.804 -1.6593  1.3194  0.5735
  596MOL0     H82248   8.703   8.058   8.715  3.0195 -0.9543  2.1768
  597MOL0     O82249   8.604   4.195   3.907 -0.2321 -0.0100  0.0768
  597MOL0     C82250   8.600   4.087   3.845 -0.6566 -0.8330 -0.1523
  597MOL0     O82251   8.701   4.008   3.819  0.1543  0.7656  0.2400
  597MOL0     C82252   8.830   4.032   3.841  0.4172 -0.8993 -0.3876
  597MOL0     C82253   8.919   3.923   3.805  0.5441 -0.3386  0.1831
  597MOL0     C82254   9.052   3.922   3.826 -1.1881 -0.6641  0.7185
  597MOL0     C82255   9.115   4.025   3.892 -0.1336 -0.5337  0.1724
  597MOL0     O82256   9.248   4.046   3.923  0.3333  0.2905 -0.4046
  597MOL0     C82257   9.346   3.990   3.840  0.8544 -0.2748  0.4957
  597MOL0     C82258   9.367   3.847   3.875 -0.0423  0.3933  0.2744
  597MOL0     C82259   9.456   3.782   3.772 -0.8839 -0.0271  0.5469
  597MOL0     C82260   9.463   3.630   3.806 -0.0974 -0.6041 -0.2229
  597MOL0     C82261   9.549   3.555   3.701  0.4623 -0.4908 -0.6907
  597MOL0     C82262   9.514   3.404   3.722  0.0165 -0.4548  0.6455
  597MOL0     C82263   9.604   3.320   3.626 -0.0898 -0.0473  0.0762
  597MOL0     C82264   9.568   3.168   3.636  0.5796 -0.0911 -0.4235
  597MOL0     N82265   9.551   3.132   3.781 -0.1295 -0.5079  1.3344
  597MOL0     C82266   9.660   3.132   3.869 -0.5575 -0.0592 -0.4611
  597MOL0     C82267   9.611   3.113   3.989  0.8044  0.6074 -0.7657
  597MOL0     C82268   9.681   3.135   4.123 -0.3004  0.1592 -0.0411
  597MOL0     C82269   9.824   3.094   4.130 -0.0673 -0.7009 -0.0278
  597MOL0     C82270   9.841   2.947   4.144 -0.1680 -0.1083 -0.7657
  597MOL0     C82271   9.986   2.907   4.132  0.2115 -0.7201  0.5120
  597MOL0     O82272  10.064   2.952   4.245 -0.1605  0.2110 -0.0304
  597MOL0     C82273  10.200   2.925   4.250  0.3909  0.6862  0.1561
  597MOL0     C82274  10.280   2.998   4.333 -0.2177 -0.0569 -0.8626
  597MOL0     C82275  10.415   2.958   4.352 -0.7896 -0.8003 -0.7427
  597MOL0     C82276  10.495   3.048   4.450 -0.6309  0.2738  0.0758
  597MOL0     C82277  10.469   2.850   4.275 -0.1758  0.2667 -1.1087
  597MOL0     C82278  10.617   2.813   4.288 -0.1891  0.7398 -0.6356
  597MOL0     O82279  10.644   2.680   4.313  0.6296  0.2465 -0.7468
  597MOL0     C82280  10.773   2.648   4.345 -0.2979  0.6494  0.0429
  597MOL0     C82281  10.856   2.636   4.233 -0.2257 -0.6386 -0.8013
  597MOL0     C82282  10.990   2.605   4.254 -0.3386  0.2830 -0.4718
  597MOL0     C82283  11.040   2.580   4.393 -0.4910  0.4526  0.5725
  597MOL0     O82284  11.163   2.534   4.429 -0.4817 -0.0782 -0.7262
  597MOL0     C82285  11.268   2.503   4.333 -0.1276  0.5909  0.0146
  597MOL0     C82286  11.403   2.487   4.410 -0.4693 -0.0292 -0.1910
  597MOL0     C82287  11.509   2.453   4.300 -0.4572 -0.1689 -0.4910
  597MOL0     C82288  11.626   2.376   4.367  0.4496  0.1511 -0.0954
  597MOL0     C82289  11.734   2.348   4.259 -0.0894  0.3872 -0.2122
  597MOL0     C82290  11.863   2.290   4.318  0.1375 -0.4797 -0.0553
  597MOL0     C82291  11.852   2.150   4.378 -0.1610  0.2876  0.2077
  597MOL0     C82292  11.942   2.053   4.317  0.0003  0.1609 -0.1809
  597MOL0    Cl82293  12.108   2.085   4.366  0.1774 -0.0854 -0.4831
  597MOL0     C82294  10.947   2.584   4.496  0.1258  0.5101 -0.6118
  597MOL0     C82295  10.814   2.619   4.478  0.0395 -0.4670  0.5905
  597MOL0     O82296  10.695   2.906   4.293 -0.3980 -0.3542  0.2905
  597MOL0     C82297  10.378   2.777   4.194 -0.9146 -0.2835  0.1109
  597MOL0     C82298  10.247   2.817   4.177  0.6282 -0.9315 -0.0270
  597MOL0     N82299   9.473   3.108   3.978  0.3824 -0.4953  0.5487
  597MOL0     N82300   9.438   3.111   3.854 -0.6399 -0.0461  0.3017
  597MOL0     C82301   9.034   4.139   3.923  0.7766  0.2322  0.1818
  597MOL0     C82302   8.891   4.136   3.911 -0.0106  0.0176 -0.0308
  597MOL0     C82303   8.468   4.030   3.811  0.9402  1.1261 -0.4268
  597MOL0     C82304   8.459   3.937   3.708  0.0565  0.2254  0.2403
  597MOL0     C82305   8.333   3.874   3.674  0.6491 -0.1936  0.1340
  597MOL0     C82306   8.221   3.914   3.732  0.6779  0.0661  0.0261
  597MOL0     O82307   8.109   3.865   3.673 -0.9431  0.8824 -0.6112
  597MOL0     C82308   7.973   3.912   3.696  0.2429 -0.9545 -0.2979
  597MOL0     C82309   7.898   3.826   3.793  0.4636 -0.9529  0.5566
  597MOL0     C82310   7.947   3.851   3.931 -0.0511  0.7214  0.0924
  597MOL0     C82311   7.887   3.755   4.032  0.2854  0.1497  0.6196
  597MOL0     C82312   7.944   3.790   4.168  0.1857  0.2473 -0.2760
  597MOL0     C82313   7.981   3.834   4.274 -0.5216  0.2102  0.3616
  597MOL0     C82314   8.226   4.006   3.833 -0.5605  0.3398  0.9147
  597MOL0     C82315   8.345   4.061   3.870  0.1292  0.1108 -0.3696
  597MOL0     C82316   8.330   4.150   3.986 -0.1063  0.3106 -0.4411
  597MOL0     H82317   8.866   3.835   3.768  0.5593 -0.5001  0.5463
  597MOL0     H82318   9.097   3.831   3.787 -0.1214  0.3059 -0.4062
  597MOL0     H82319   9.439   4.046   3.851  0.7005  0.3061 -0.8676
  597MOL0     H82320   9.315   3.991   3.735  0.1497 -1.0883  0.6860
  597MOL0     H82321   9.419   3.838   3.972  0.1882  0.8038  0.1923
  597MOL0     H82322   9.279   3.785   3.896  1.4345 -1.8709  0.1364
  597MOL0     H82323   9.410   3.794   3.674 -0.8233  1.1783  0.6407
  597MOL0     H82324   9.559   3.819   3.762 -1.5799  1.7086 -0.8253
  597MOL0     H82325   9.503   3.623   3.907 -2.4851  0.7261  0.9047
  597MOL0     H82326   9.361   3.590   3.801 -0.1575 -0.3000 -2.1584
  597MOL0     H82327   9.655   3.581   3.709  0.8475 -1.4824 -2.1546
  597MOL0     H82328   9.519   3.574   3.597  0.8498 -0.7671 -0.8560
  597MOL0     H82329   9.534   3.378   3.826 -2.3219 -0.3376  1.1719
  597MOL0     H82330   9.408   3.388   3.701  0.1973 -0.9647  0.1247
  597MOL0     H82331   9.709   3.332   3.655 -0.2080 -2.1121  1.6504
  597MOL0     H82332   9.604   3.351   3.521  2.1842  1.7491  0.5327
  597MOL0     H82333   9.471   3.158   3.586  1.0149 -0.2121 -1.2673
  597MOL0     H82334   9.642   3.107   3.584  0.2578  1.4855 -2.9092
  597MOL0     H82335   9.765   3.142   3.845 -0.7410  2.4948 -0.4989
  597MOL0     H82336   9.619   3.093   4.203  3.5663 -0.8737  2.7110
  597MOL0     H82337   9.687   3.244   4.134  0.8166  0.4037 -2.5659
  597MOL0     H82338   9.872   3.135   4.041 -0.4384 -0.1678  0.0047
  597MOL0     H82339   9.881   3.148   4.206 -2.4066 -0.3361  1.5877
  597MOL0     H82340   9.805   2.918   4.243  0.8783 -3.9037 -1.3492
  597MOL0     H82341   9.788   2.898   4.062  0.2970 -2.4179  0.2597
  597MOL0     H82342   9.980   2.798   4.126 -0.4822 -0.8591  2.6056
  597MOL0     H82343  10.033   2.945   4.041 -1.0369  0.5086  0.3404
  597MOL0     H82344  10.247   3.075   4.403  3.4724 -0.5723  1.7152
  597MOL0     H82345  10.582   2.992   4.486 -3.8044 -3.3066  3.0339
  597MOL0     H82346  10.428   3.078   4.530  0.8877 -0.3955  1.6659
  597MOL0     H82347  10.542   3.135   4.403  2.1830  0.0943  2.2412
  597MOL0     H82348  10.802   2.653   4.141 -0.0791  1.2205 -0.5744
  597MOL0     H82349  11.063   2.608   4.173  1.1733  2.0173  0.8851
  597MOL0     H82350  11.241   2.409   4.285 -2.3429  1.0241  0.3461
  597MOL0     H82351  11.281   2.593   4.272 -0.1220  2.0423  2.0456
  597MOL0     H82352  11.434   2.574   4.468  0.4197  0.5954 -1.5482
  597MOL0     H82353  11.403   2.408   4.485 -0.2228 -0.9645 -1.1514
  597MOL0     H82354  11.552   2.545   4.262 -0.6478  0.3243  0.4508
  597MOL0     H82355  11.465   2.400   4.215  0.2344  1.8501 -2.1553
  597MOL0     H82356  11.586   2.284   4.411  3.1941 -0.8778  0.4212
  597MOL0     H82357  11.663   2.435   4.452  3.9040 -1.4979 -0.3002
  597MOL0     H82358  11.687   2.290   4.178  2.1134  0.5215 -1.6582
  597MOL0     H82359  11.765   2.443   4.214 -0.8446 -0.2370 -2.1614
  597MOL0     H82360  11.902   2.363   4.390 -0.6554  1.1411 -1.1949
  597MOL0     H82361  11.928   2.282   4.230 -3.4370  0.7554 -3.0473
  597MOL0     H82362  11.750   2.111   4.375 -0.5416 -0.0986  6.0238
  597MOL0     H82363  11.868   2.149   4.486 -0.8760 -0.2084  0.3202
  597MOL0     H82364  11.930   2.043   4.209  2.6114 -1.8116 -0.4079
  597MOL0     H82365  11.921   1.954   4.360 -0.5938  1.3308  2.3747
  597MOL0     H82366  10.984   2.563   4.596  0.8833  3.3072 -0.1970
  597MOL0     H82367  10.740   2.622   4.558  1.0226 -0.9793  1.5514
  597MOL0     H82368  10.405   2.688   4.139 -0.5866 -0.8137  1.1091
  597MOL0     H82369  10.198   2.766   4.095  1.4045 -0.5979 -0.7202
  597MOL0     H82370   9.077   4.223   3.977 -1.4648  1.4409  0.2036
  597MOL0     H82371   8.831   4.213   3.958 -0.1390 -0.6224  0.8577
  597MOL0     H82372   8.540   3.911   3.642  0.5200 -0.1329  0.9344
  597MOL0     H82373   8.318   3.807   3.590  1.3090 -2.5396  1.7881
  597MOL0     H82374   7.968   4.019   3.715  3.1100 -1.0772  1.9683
  597MOL0     H82375   7.921   3.905   3.600 -1.0962 -1.0088  0.4143
  597MOL0     H82376   7.898   3.721   3.762 -2.8564 -0.5440 -1.2814
  597MOL0     H82377   7.793   3.856   3.787  1.2184  1.8343 -0.1700
  597MOL0     H82378   8.055   3.833   3.929 -0.3951 -1.4934 -1.2872
  597MOL0     H82379   7.922   3.952   3.967 -2.2537  1.3919 -2.9080
  597MOL0     H82380   7.912   3.653   4.002 -0.9414  0.2323 -0.8325
  597MOL0     H82381   7.777   3.752   4.035  0.2071  0.2577 -1.0695
  597MOL0     H82382   8.020   3.878   4.364  4.0207 -1.4627 -0.5462
  597MOL0     H82383   8.145   4.044   3.893 -0.6960 -1.2193  1.7909
  597MOL0     H82384   8.398   4.120   4.066 -0.7833  2.9931  1.3077
  597MOL0     H82385   8.342   4.254   3.954 -0.0421  0.5742  0.4106
  597MOL0     H82386   8.235   4.151   4.040 -1.0073 -2.1768 -1.8142
  598MOL0     O82387   2.531   0.653   9.444 -0.2100 -0.8045  0.1760
  598MOL0     C82388   2.490   0.701   9.336  0.1281 -0.0191  0.0790
  598MOL0     O82389   2.563   0.709   9.219 -0.4780  0.2737  0.6206
  598MOL0     C82390   2.693   0.662   9.219  0.2752  0.0449  0.3714
  598MOL0     C82391   2.720   0.521   9.228 -0.3325 -0.3060  1.1617
  598MOL0     C82392   2.851   0.479   9.239 -0.2913 -0.0521 -0.1380
  598MOL0     C82393   2.959   0.578   9.253  0.8198  1.0680 -0.1624
  598MOL0     O82394   3.087   0.527   9.266  0.2586  0.1002  0.0940
  598MOL0     C82395   3.195   0.616   9.306  1.0451  0.2177 -0.5699
  598MOL0     C82396   3.326   0.542   9.285  0.4485 -0.1819 -0.1313
  598MOL0     C82397   3.447   0.611   9.343 -0.3043  0.1673  0.1157
  598MOL0     C82398   3.566   0.525   9.327 -1.1352 -0.6084 -0.3311
  598MOL0     C82399   3.705   0.591   9.381 -0.2836 -0.3561 -0.6268
  598MOL0     C82400   3.796   0.473   9.398 -0.3735  0.3934 -0.1276
  598MOL0     C82401   3.937   0.514   9.429 -0.1674  0.2901 -0.1197
  598MOL0     C82402   4.012   0.391   9.475 -0.2339 -0.5381 -0.2614
  598MOL0     N82403   4.157   0.414   9.470  0.2300  0.1513  0.5118
  598MOL0     C82404   4.227   0.417   9.356  0.4521 -0.5159  1.0620
  598MOL0     C82405   4.342   0.474   9.391  0.6263  0.3619 -0.9099
  598MOL0     C82406   4.463   0.497   9.303  0.6851 -0.9048 -0.6944
  598MOL0     C82407   4.555   0.378   9.317  0.5982  0.5244  0.2490
  598MOL0     C82408   4.685   0.408   9.250  0.9433  0.5396  0.0529
  598MOL0     C82409   4.769   0.289   9.241  0.0546 -0.1042 -0.3939
  598MOL0     O82410   4.893   0.339   9.187  0.3578 -0.0826 -0.2563
  598MOL0     C82411   4.999   0.336   9.268  0.1230  0.0462  0.1344
  598MOL0     C82412   5.119   0.322   9.208 -1.1067  0.7171 -0.1019
  598MOL0     C82413   5.243   0.330   9.273 -0.1757 -0.2434 -1.6415
  598MOL0     C82414   5.367   0.322   9.192  0.5702 -0.2428  0.0759
  598MOL0     C82415   5.235   0.351   9.412 -0.5177  0.0525  0.2846
  598MOL0     C82416   5.364   0.374   9.497 -0.8340  0.2470  0.4283
  598MOL0     O82417   5.343   0.411   9.624 -0.1262  0.3996 -0.6601
  598MOL0     C82418   5.455   0.423   9.716 -0.2965 -0.6352  0.4721
  598MOL0     C82419   5.456   0.523   9.814 -0.2115 -0.3603  0.4217
  598MOL0     C82420   5.556   0.551   9.898 -0.0562 -0.1546 -0.2920
  598MOL0     C82421   5.664   0.466   9.907  0.2633 -0.5813  0.1507
  598MOL0     O82422   5.768   0.487   9.997  0.0046 -0.0047  0.3729
  598MOL0     C82423   5.833   0.611   9.983 -0.3299 -0.4664  0.1682
  598MOL0     C82424   5.980   0.596  10.001  0.2917 -0.0331  0.0791
  598MOL0     C82425   6.052   0.723   9.970 -0.1288  0.3149 -0.1317
  598MOL0     C82426   6.194   0.701  10.012 -0.2584  0.8120  0.0783
  598MOL0     C82427   6.288   0.806   9.959  0.7374 -0.0375 -0.4868
  598MOL0     C82428   6.434   0.760   9.955  0.6638  0.0394 -0.3880
  598MOL0     C82429   6.528   0.870   9.898 -0.1682  0.2261  0.9011
  598MOL0     C82430   6.680   0.831   9.896 -0.5787 -0.3453 -0.1294
  598MOL0    Cl82431   6.722   0.698   9.788 -0.4221  0.4875 -0.0672
  598MOL0     C82432   5.668   0.356   9.820  0.4489  0.7642  0.0183
  598MOL0     C82433   5.568   0.336   9.721  0.1247 -0.4399  0.2191
  598MOL0     O82434   5.475   0.374   9.445 -0.4020 -0.2647  0.2696
  598MOL0     C82435   5.113   0.361   9.478  0.0417  0.4860  0.0058
  598MOL0     C82436   4.989   0.348   9.408 -1.1068 -0.1589  0.5337
  598MOL0     N82437   4.337   0.516   9.522  0.6884 -0.3039  0.3897
  598MOL0     N82438   4.224   0.481   9.565 -0.1034 -0.4152  0.9441
  598MOL0     C82439   2.929   0.712   9.247 -0.6047  0.3492 -0.0289
  598MOL0     C82440   2.798   0.750   9.224 -0.2198  0.1387  0.6361
  598MOL0     C82441   2.345   0.725   9.335 -0.3782 -0.3721 -0.1363
  598MOL0     C82442   2.299   0.808   9.435  0.1209  0.4994  0.0785
  598MOL0     C82443   2.166   0.856   9.426 -0.1271 -1.4355 -0.5429
  598MOL0     C82444   2.092   0.808   9.317  0.5376  0.2275 -0.1456
  598MOL0     O82445   1.961   0.835   9.311  0.2340 -0.8136  0.4928
  598MOL0     C82446   1.876   0.883   9.426 -0.1579 -0.1441  0.6670
  598MOL0     C82447   1.850   0.762   9.513 -0.6062 -1.9521 -0.3642
  598MOL0     C82448   1.748   0.689   9.430  0.6569  0.2273  0.2211
  598MOL0     C82449   1.693   0.573   9.510  0.9307 -0.2114  0.4751
  598MOL0     C82450   1.566   0.515   9.476 -0.3347  0.6970 -0.3235
  598MOL0     C82451   1.473   0.462   9.423 -0.0718  0.3534 -0.2027
  598MOL0     C82452   2.128   0.717   9.223  0.6605 -0.1523 -0.1099
  598MOL0     C82453   2.261   0.681   9.230 -0.5832 -0.1615 -0.0790
  598MOL0     C82454   2.306   0.569   9.129  0.0364 -0.8002 -0.2748
  598MOL0     H82455   2.637   0.450   9.227  0.8287 -1.8349 -2.3715
  598MOL0     H82456   2.869   0.373   9.257 -0.4404 -0.1782 -0.7096
  598MOL0     H82457   3.170   0.631   9.411  0.6871 -0.3944 -0.5651
  598MOL0     H82458   3.188   0.719   9.268 -1.3333  1.0409  1.7990
  598MOL0     H82459   3.324   0.443   9.332  2.9068  0.5718  1.7679
  598MOL0     H82460   3.343   0.517   9.180  1.6418  2.1423 -0.5555
  598MOL0     H82461   3.451   0.704   9.287  0.2726 -0.3253 -0.6828
  598MOL0     H82462   3.440   0.610   9.452  2.6373 -2.2711  0.4045
  598MOL0     H82463   3.550   0.429   9.376  0.7919 -0.2798  1.0597
  598MOL0     H82464   3.583   0.498   9.222  3.8903 -1.3777  0.4230
  598MOL0     H82465   3.680   0.650   9.470 -0.9847 -2.6834  0.7963
  598MOL0     H82466   3.755   0.659   9.311 -0.0027  0.6390  0.5189
  598MOL0     H82467   3.766   0.407   9.480  0.6687 -0.4868 -0.4370
  598MOL0     H82468   3.801   0.408   9.310  0.1942  0.9041 -0.4856
  598MOL0     H82469   3.938   0.591   9.507  0.2887 -2.0292  2.2888
  598MOL0     H82470   3.989   0.558   9.343  1.0600 -2.1244 -0.6994
  598MOL0     H82471   3.979   0.373   9.578 -0.9481 -0.0792 -0.4064
  598MOL0     H82472   3.978   0.308   9.413 -2.1812 -2.1405  2.7141
  598MOL0     H82473   4.208   0.369   9.260  0.3564  0.8758  0.3654
  598MOL0     H82474   4.510   0.594   9.321 -0.9269 -0.1620 -0.3258
  598MOL0     H82475   4.416   0.495   9.205 -0.1018  7.5938 -1.2877
  598MOL0     H82476   4.561   0.367   9.426  2.5429 -2.0611 -0.0287
  598MOL0     H82477   4.501   0.294   9.271 -3.6377  3.3796 -0.5739
  598MOL0     H82478   4.651   0.443   9.152  0.6572  0.3050  0.0647
  598MOL0     H82479   4.731   0.494   9.299 -2.2788  3.0743 -0.9606
  598MOL0     H82480   4.783   0.236   9.335  0.2409  2.3463  1.0432
  598MOL0     H82481   4.723   0.214   9.175 -2.9966  1.4793 -0.2457
  598MOL0     H82482   5.126   0.312   9.100 -0.0821 -1.3398  0.1093
  598MOL0     H82483   5.425   0.413   9.208 -3.6736  2.4086  2.3879
  598MOL0     H82484   5.346   0.319   9.085  1.6125  2.4657 -0.2651
  598MOL0     H82485   5.427   0.235   9.223 -1.7264 -1.3246  1.7778
  598MOL0     H82486   5.373   0.593   9.817 -0.4160 -0.6374  1.7496
  598MOL0     H82487   5.560   0.645   9.952  1.2754 -0.3035 -0.0965
  598MOL0     H82488   5.800   0.633   9.880 -1.2382 -1.6035  0.1879
  598MOL0     H82489   5.787   0.675  10.059  0.6029 -1.6502  1.7877
  598MOL0     H82490   6.007   0.576  10.106  0.9054  1.7092  0.2833
  598MOL0     H82491   6.016   0.516   9.936 -1.3827  0.2202 -1.2016
  598MOL0     H82492   6.000   0.801  10.027 -0.8300 -0.6390  0.5880
  598MOL0     H82493   6.055   0.742   9.863  0.6755 -0.3999 -0.2503
  598MOL0     H82494   6.236   0.613   9.963 -2.1147 -0.5960  0.9089
  598MOL0     H82495   6.198   0.689  10.120 -1.0401 -4.0962 -0.2182
  598MOL0     H82496   6.256   0.822   9.856 -0.5955 -1.0108 -0.2581
  598MOL0     H82497   6.281   0.894  10.024 -1.7829 -1.2902  1.0981
  598MOL0     H82498   6.439   0.680   9.880  1.7826 -1.0335  0.7811
  598MOL0     H82499   6.467   0.723  10.052 -0.8002  0.2152  0.1977
  598MOL0     H82500   6.524   0.969   9.946  0.4079  0.1898  1.0283
  598MOL0     H82501   6.497   0.889   9.795  1.9690 -1.0374 -0.0515
  598MOL0     H82502   6.717   0.812   9.997  2.0230 -1.5287 -1.2284
  598MOL0     H82503   6.729   0.925   9.868 -1.6425  1.5212  3.5835
  598MOL0     H82504   5.739   0.274   9.834 -0.9941 -0.5436 -0.0366
  598MOL0     H82505   5.572   0.250   9.655  0.0241 -1.8437  1.9497
  598MOL0     H82506   5.114   0.387   9.583 -0.7308  1.4949 -0.2196
  598MOL0     H82507   4.888   0.357   9.448 -1.8883 -3.1373 -0.4626
  598MOL0     H82508   3.005   0.790   9.244  0.1349 -0.2937  1.1210
  598MOL0     H82509   2.771   0.855   9.216  0.4314  0.2965  0.4400
  598MOL0     H82510   2.355   0.839   9.522  0.2512  1.1178 -0.2236
  598MOL0     H82511   2.124   0.919   9.505  0.4831  1.6674 -2.5261
  598MOL0     H82512   1.918   0.967   9.482  0.8750 -1.6539  2.2688
  598MOL0     H82513   1.779   0.924   9.396 -0.4764 -0.3165  1.4409
  598MOL0     H82514   1.814   0.793   9.612 -0.1301 -1.5130 -0.3239
  598MOL0     H82515   1.936   0.696   9.522 -0.7576 -2.1494 -0.3406
  598MOL0     H82516   1.661   0.752   9.409 -3.4038 -5.1234 -1.2454
  598MOL0     H82517   1.796   0.662   9.335 -1.8281 -0.5919 -0.8964
  598MOL0     H82518   1.700   0.607   9.613  1.7944  2.4758 -0.3733
  598MOL0     H82519   1.764   0.491   9.503 -0.9717 -1.8187 -1.5011
  598MOL0     H82520   1.381   0.423   9.383  0.1353 -0.9177  0.4974
  598MOL0     H82521   2.054   0.682   9.152 -2.0322  1.6823  1.6403
  598MOL0     H82522   2.363   0.496   9.186 -0.0008 -2.5062 -2.3095
  598MOL0     H82523   2.217   0.518   9.089 -0.3952  0.4004 -0.9027
  598MOL0     H82524   2.369   0.612   9.050 -1.7521  3.3936  0.2672
  599MOL0     O82525   4.105   6.257   8.254  0.4090 -0.1029 -0.4858
  599MOL0     C82526   4.222   6.237   8.299  0.2222  0.5840 -0.4502
  599MOL0     O82527   4.283   6.316   8.398 -0.4610 -0.6722 -0.0190
  599MOL0     C82528   4.217   6.411   8.478  0.0499  0.4892  0.4681
  599MOL0     C82529   4.230   6.389   8.615  0.0923  0.6516 -0.2253
  599MOL0     C82530   4.168   6.466   8.699 -0.4575 -0.2633  0.4928
  599MOL0     C82531   4.106   6.582   8.648  0.2379  0.3499  0.0253
  599MOL0     O82532   4.053   6.662   8.736  0.2741 -0.2263  0.2442
  599MOL0     C82533   4.119   6.790   8.747  0.1916  0.2339 -0.4908
  599MOL0     C82534   4.068   6.874   8.859 -0.5307  0.5817 -0.5518
  599MOL0     C82535   3.918   6.903   8.839  0.5536  0.6191 -0.0413
  599MOL0     C82536   3.894   7.045   8.801  0.2576 -0.4616  0.0552
  599MOL0     C82537   3.745   7.081   8.820 -0.1609  0.7119 -0.6552
  599MOL0     C82538   3.725   7.219   8.747  0.8333 -0.3140  0.6014
  599MOL0     C82539   3.595   7.285   8.793  0.4092  0.1239  0.4432
  599MOL0     C82540   3.477   7.206   8.736 -0.3560 -1.0391  0.2885
  599MOL0     N82541   3.476   7.192   8.587 -0.4135  0.8749 -0.7649
  599MOL0     C82542   3.432   7.288   8.499 -0.6236 -0.2591  0.9101
  599MOL0     C82543   3.470   7.248   8.378  0.3108  0.5537  0.4151
  599MOL0     C82544   3.460   7.316   8.245  0.2923 -0.4927 -0.1402
  599MOL0     C82545   3.579   7.408   8.196  0.2712 -1.0355 -0.0929
  599MOL0     C82546   3.707   7.326   8.173 -0.0700  0.0992  0.4314
  599MOL0     C82547   3.826   7.424   8.161 -0.2712 -0.6531  0.5207
  599MOL0     O82548   3.836   7.496   8.281  0.1979 -0.3626 -0.9444
  599MOL0     C82549   3.962   7.503   8.335  0.1626  0.1127 -0.0681
  599MOL0     C82550   3.987   7.490   8.476  0.6359  0.6979  0.4472
  599MOL0     C82551   4.114   7.481   8.536 -0.4659  0.8303  0.1159
  599MOL0     C82552   4.117   7.459   8.682 -0.7468  0.3842  0.8873
  599MOL0     C82553   4.227   7.502   8.453  0.2960  0.9028 -0.5693
  599MOL0     C82554   4.370   7.477   8.497 -0.0616  0.6780 -0.1109
  599MOL0     O82555   4.462   7.539   8.422  0.6162 -0.0100 -0.5652
  599MOL0     C82556   4.595   7.504   8.416  0.0728 -0.9408 -0.4416
  599MOL0     C82557   4.687   7.549   8.510 -0.8507  0.3261  0.2212
  599MOL0     C82558   4.817   7.498   8.503 -0.5463 -0.2616 -0.5107
  599MOL0     C82559   4.865   7.415   8.399  0.7799  0.3931  0.1628
  599MOL0     O82560   5.004   7.399   8.387 -0.6027  0.5599 -0.6689
  599MOL0     C82561   5.061   7.388   8.260 -1.3212 -0.4010 -0.2077
  599MOL0     C82562   5.211   7.397   8.263  1.3784 -0.4403 -0.3866
  599MOL0     C82563   5.270   7.381   8.126 -0.4600  0.3835  0.1129
  599MOL0     C82564   5.428   7.356   8.143  0.1728 -0.6741 -0.2906
  599MOL0     C82565   5.509   7.346   8.021  0.0400 -0.9096  0.3001
  599MOL0     C82566   5.646   7.311   8.063  0.5769 -0.2766  0.2803
  599MOL0     C82567   5.757   7.321   7.959  0.2687  0.0216  0.4766
  599MOL0     C82568   5.777   7.453   7.887  0.4823 -1.2338  0.2409
  599MOL0    Cl82569   5.934   7.473   7.823 -0.1118  0.0210 -0.2897
  599MOL0     C82570   4.776   7.380   8.298 -0.8499  0.4914  0.0944
  599MOL0     C82571   4.640   7.422   8.310 -0.5069 -0.4428 -0.0796
  599MOL0     O82572   4.403   7.400   8.590 -0.2514 -0.2661 -0.6586
  599MOL0     C82573   4.200   7.531   8.313 -0.5937 -1.0207 -1.3301
  599MOL0     C82574   4.074   7.539   8.262  0.1498 -0.3750 -0.3245
  599MOL0     N82575   3.536   7.127   8.394 -0.0547 -0.3309 -0.0140
  599MOL0     N82576   3.538   7.084   8.518 -0.1294 -0.0812  0.5586
  599MOL0     C82577   4.080   6.598   8.510 -0.0177 -0.0945 -0.5161
  599MOL0     C82578   4.139   6.509   8.422 -0.2568  0.7358 -0.3137
  599MOL0     C82579   4.293   6.123   8.254 -0.0449  0.5133  0.4023
  599MOL0     C82580   4.247   6.045   8.147  1.3590 -0.3252  0.0427
  599MOL0     C82581   4.298   5.926   8.109  0.2151 -0.1762  0.2595
  599MOL0     C82582   4.412   5.870   8.164 -0.0487  0.0171  0.2500
  599MOL0     O82583   4.464   5.750   8.125  0.0924 -0.4621  0.5762
  599MOL0     C82584   4.610   5.733   8.115 -0.8071 -0.2648  0.3596
  599MOL0     C82585   4.648   5.638   7.993 -0.9335  0.0025  0.1714
  599MOL0     C82586   4.615   5.715   7.864 -0.1921 -0.7199  0.2775
  599MOL0     C82587   4.655   5.630   7.751  0.6476  0.0802 -0.5346
  599MOL0     C82588   4.797   5.657   7.727  0.7637 -0.2498 -0.2711
  599MOL0     C82589   4.908   5.688   7.683 -0.3913 -0.0484  0.1766
  599MOL0     C82590   4.471   5.936   8.273  0.6918 -0.1808  0.2675
  599MOL0     C82591   4.407   6.061   8.318 -0.0605  0.8310  0.2913
  599MOL0     C82592   4.476   6.113   8.439 -0.6054  0.1849 -0.0954
  599MOL0     H82593   4.293   6.312   8.658 -1.5872 -0.3928  0.4424
  599MOL0     H82594   4.179   6.459   8.807  1.5335  3.0306  0.6258
  599MOL0     H82595   4.104   6.842   8.652 -1.4589  1.0278  0.1688
  599MOL0     H82596   4.227   6.780   8.766 -0.0458  1.0546  1.5098
  599MOL0     H82597   4.097   6.823   8.952  1.0983  0.2398 -1.2109
  599MOL0     H82598   4.120   6.971   8.860 -1.2515  1.1289  3.5143
  599MOL0     H82599   3.868   6.837   8.767 -2.5972  0.6124  1.9566
  599MOL0     H82600   3.871   6.888   8.936  1.2928  0.8608  0.3657
  599MOL0     H82601   3.960   7.101   8.867  0.0876 -0.5374  0.2923
  599MOL0     H82602   3.914   7.066   8.696 -4.0271  2.3797 -0.4328
  599MOL0     H82603   3.704   7.083   8.921  0.2566 -1.0832 -0.4099
  599MOL0     H82604   3.680   7.013   8.764 -0.8705  0.9916 -0.1846
  599MOL0     H82605   3.801   7.291   8.781  0.9753  0.0012 -0.3520
  599MOL0     H82606   3.722   7.216   8.638 -0.6172  0.5168  0.5970
  599MOL0     H82607   3.593   7.386   8.749 -1.0786 -0.1278 -0.1223
  599MOL0     H82608   3.582   7.304   8.900  1.7489 -1.9955  1.0444
  599MOL0     H82609   3.469   7.108   8.786 -1.3221 -0.6530  0.9035
  599MOL0     H82610   3.388   7.264   8.757 -1.6786 -3.3271  1.4306
  599MOL0     H82611   3.382   7.381   8.522 -2.8814 -1.5866  1.6749
  599MOL0     H82612   3.370   7.375   8.266  2.5190  2.2528  2.5375
  599MOL0     H82613   3.440   7.249   8.160  1.8796  2.0391 -2.7046
  599MOL0     H82614   3.549   7.459   8.104 -2.3059 -3.0083 -0.4917
  599MOL0     H82615   3.594   7.481   8.276 -1.6291 -1.5998  0.8387
  599MOL0     H82616   3.731   7.258   8.255  1.5888  0.8491  0.6036
  599MOL0     H82617   3.703   7.267   8.081  0.7835  0.7921 -0.0590
  599MOL0     H82618   3.917   7.368   8.138 -0.0013 -0.7370  1.7313
  599MOL0     H82619   3.826   7.499   8.082  1.7339 -0.9091  0.2252
  599MOL0     H82620   3.905   7.455   8.538  0.5297 -0.8979 -0.5448
  599MOL0     H82621   4.187   7.529   8.727 -0.7701 -0.0808  1.6564
  599MOL0     H82622   4.157   7.359   8.699  0.6659  0.8065  0.2076
  599MOL0     H82623   4.025   7.465   8.741 -0.5138 -2.7921  1.7375
  599MOL0     H82624   4.658   7.625   8.582 -2.6773 -1.3810  1.3941
  599MOL0     H82625   4.882   7.541   8.578 -1.4501 -0.7126  0.5406
  599MOL0     H82626   5.039   7.300   8.198  0.0668 -0.9532  0.0453
  599MOL0     H82627   5.035   7.480   8.207  1.3332  2.3599  2.8074
  599MOL0     H82628   5.235   7.499   8.296  0.9193 -1.0534  2.0615
  599MOL0     H82629   5.249   7.328   8.338  1.9762 -0.5664 -0.7966
  599MOL0     H82630   5.268   7.478   8.076  1.3472 -0.5792 -1.9876
  599MOL0     H82631   5.224   7.299   8.070 -0.5219  0.8777 -0.5736
  599MOL0     H82632   5.437   7.266   8.204  0.4019  0.7409  1.8790
  599MOL0     H82633   5.460   7.444   8.201  0.4578 -1.3308  0.5752
  599MOL0     H82634   5.464   7.267   7.961 -0.2703  1.2608 -2.5496
  599MOL0     H82635   5.508   7.440   7.964 -0.8309 -0.4205  1.1117
  599MOL0     H82636   5.652   7.209   8.102 -0.7744 -1.3010 -1.9996
  599MOL0     H82637   5.686   7.377   8.140 -0.1762  1.6980 -0.9347
  599MOL0     H82638   5.735   7.247   7.881  1.3998  0.3978 -0.2156
  599MOL0     H82639   5.855   7.292   7.997  1.6880  2.9621 -0.6754
  599MOL0     H82640   5.760   7.534   7.958 -1.9998 -3.2212  2.1087
  599MOL0     H82641   5.703   7.459   7.807  0.6921  0.9439  0.1500
  599MOL0     H82642   4.817   7.340   8.206  1.1647  0.7944  0.8028
  599MOL0     H82643   4.562   7.401   8.237  0.4189 -0.0018 -1.2168
  599MOL0     H82644   4.283   7.545   8.244  0.9104  0.1762  0.6312
  599MOL0     H82645   4.073   7.542   8.154 -0.5026  2.2275 -0.3274
  599MOL0     H82646   4.036   6.691   8.475  0.0978  0.7102  1.3568
  599MOL0     H82647   4.130   6.515   8.314  2.0183 -1.6604 -0.7239
  599MOL0     H82648   4.154   6.085   8.107 -0.9809 -0.1834  4.9109
  599MOL0     H82649   4.236   5.867   8.043 -1.0034 -2.4369  3.1825
  599MOL0     H82650   4.651   5.832   8.093 -2.9337  0.0791 -2.7089
  599MOL0     H82651   4.662   5.698   8.204  0.8156  1.8817  0.3441
  599MOL0     H82652   4.584   5.550   7.998  1.0658 -1.6845 -1.8189
  599MOL0     H82653   4.753   5.611   8.001 -1.4048 -1.9560  0.3886
  599MOL0     H82654   4.507   5.733   7.863 -0.3402 -1.2196  2.4181
  599MOL0     H82655   4.647   5.820   7.869 -0.7932 -0.6025  3.1003
  599MOL0     H82656   4.600   5.659   7.661 -0.8094 -2.1142 -0.4219
  599MOL0     H82657   4.626   5.525   7.763 -3.1394  1.1427  1.2316
  599MOL0     H82658   4.989   5.721   7.622 -1.6099 -1.1507 -2.1535
  599MOL0     H82659   4.547   5.885   8.332  2.3363  0.6648 -1.0155
  599MOL0     H82660   4.518   6.214   8.429  0.7917 -0.3639 -0.0840
  599MOL0     H82661   4.404   6.122   8.520  2.3880  1.2555  2.6716
  599MOL0     H82662   4.547   6.038   8.476  0.5663  1.1854 -0.2530
  600MOL0     O82663   9.617   1.808   7.484 -0.0624 -0.3148  0.9311
  600MOL0     C82664   9.641   1.767   7.373  0.2347 -0.2922  0.0719
  600MOL0     O82665   9.551   1.756   7.269  0.5962  0.0475 -0.3162
  600MOL0     C82666   9.419   1.798   7.300 -0.6912 -0.0204 -0.6453
  600MOL0     C82667   9.324   1.708   7.360 -0.7151 -0.0222  0.2917
  600MOL0     C82668   9.201   1.747   7.389  0.1745 -0.7341  0.2241
  600MOL0     C82669   9.155   1.875   7.369  0.0666  0.6474 -0.3852
  600MOL0     O82670   9.032   1.905   7.414  0.2922  0.6360  0.1893
  600MOL0     C82671   8.966   2.008   7.343 -0.1352 -0.4420  0.3410
  600MOL0     C82672   8.959   1.999   7.192  0.0879  0.6509  0.2098
  600MOL0     C82673   8.877   1.874   7.146  0.4868  0.4367 -0.5073
  600MOL0     C82674   8.722   1.884   7.165 -0.5615  0.4251 -0.5253
  600MOL0     C82675   8.665   1.742   7.193  0.8935 -0.7149 -0.6075
  600MOL0     C82676   8.722   1.629   7.102  1.0610 -0.1100  0.0911
  600MOL0     C82677   8.650   1.500   7.131 -0.2296  0.4173 -0.5058
  600MOL0     C82678   8.737   1.386   7.098  0.5616  0.1614 -0.7310
  600MOL0     N82679   8.694   1.267   7.170  0.2767  0.0989 -0.2628
  600MOL0     C82680   8.771   1.207   7.262 -0.5946 -0.6144 -1.0541
  600MOL0     C82681   8.720   1.084   7.282  0.0463 -0.1276  0.8252
  600MOL0     C82682   8.781   0.977   7.372  0.0214 -0.5703  0.5707
  600MOL0     C82683   8.933   0.983   7.388  0.3834 -1.1158 -0.1196
  600MOL0     C82684   8.982   0.887   7.499  0.0178 -0.8394 -0.5840
  600MOL0     C82685   9.136   0.878   7.500  0.0970 -0.3744  0.3966
  600MOL0     O82686   9.179   0.767   7.579  0.2423  0.1837  0.3804
  600MOL0     C82687   9.302   0.725   7.565 -0.3726  0.9530  0.3741
  600MOL0     C82688   9.328   0.604   7.632 -0.2248 -0.4074 -0.1989
  600MOL0     C82689   9.447   0.535   7.618 -0.1195  0.3261 -0.0030
  600MOL0     C82690   9.459   0.408   7.689 -0.0444  0.4533 -0.8219
  600MOL0     C82691   9.558   0.574   7.536  0.1928 -0.0717 -0.1901
  600MOL0     C82692   9.682   0.501   7.509  0.2059 -0.4273 -0.4288
  600MOL0     O82693   9.715   0.468   7.379  0.2967  0.0879 -0.5730
  600MOL0     C82694   9.847   0.475   7.335 -1.1664 -0.4008  0.0941
  600MOL0     C82695   9.942   0.554   7.403  0.2009 -0.2513 -0.5279
  600MOL0     C82696  10.064   0.584   7.343 -0.1313  0.3923 -0.0536
  600MOL0     C82697  10.095   0.529   7.221  0.3110 -0.5777 -0.5085
  600MOL0     O82698  10.203   0.559   7.152  0.2727  0.2463  0.1795
  600MOL0     C82699  10.323   0.566   7.221 -0.1230 -0.4867  0.6387
  600MOL0     C82700  10.431   0.595   7.123 -0.4569  1.0806  0.2166
  600MOL0     C82701  10.562   0.612   7.195 -0.4965 -0.7583 -0.2293
  600MOL0     C82702  10.686   0.611   7.106  0.8195 -0.1023 -0.8232
  600MOL0     C82703  10.823   0.614   7.169  0.9640 -0.2671  0.1707
  600MOL0     C82704  10.918   0.539   7.076 -0.6686 -0.6177 -0.0263
  600MOL0     C82705  11.062   0.561   7.132  0.8256  0.4694  0.1922
  600MOL0     C82706  11.173   0.520   7.026  0.1333  0.6578  1.2289
  600MOL0    Cl82707  11.336   0.571   7.096 -0.4275 -0.1381 -0.5379
  600MOL0     C82708  10.009   0.438   7.164  0.0358 -0.3834  0.1971
  600MOL0     C82709   9.878   0.419   7.216 -0.1568  0.4303  0.1732
  600MOL0     O82710   9.742   0.474   7.605  0.3940  0.4938 -1.0211
  600MOL0     C82711   9.535   0.702   7.470 -0.6843  0.5957 -0.0306
  600MOL0     C82712   9.409   0.769   7.481  0.0180 -0.3588 -0.3167
  600MOL0     N82713   8.606   1.071   7.197  0.1767 -1.4719 -0.6190
  600MOL0     N82714   8.596   1.183   7.133 -0.3586  0.2635 -0.1654
  600MOL0     C82715   9.245   1.971   7.323  0.3394 -0.0258  0.6237
  600MOL0     C82716   9.376   1.934   7.294  0.4258  0.0357  0.0007
  600MOL0     C82717   9.765   1.682   7.337  0.0171  0.1275 -0.0781
  600MOL0     C82718   9.753   1.585   7.238  0.8728 -0.2334 -0.8551
  600MOL0     C82719   9.855   1.509   7.191 -0.2332  1.1791  0.1506
  600MOL0     C82720   9.985   1.512   7.253  0.2281 -0.0932 -0.3916
  600MOL0     O82721  10.083   1.425   7.209 -0.3240  0.4783 -0.4303
  600MOL0     C82722  10.170   1.382   7.310  0.3382 -0.4351 -0.0137
  600MOL0     C82723  10.199   1.235   7.288  0.1050  0.2831 -0.6997
  600MOL0     C82724  10.302   1.192   7.392  0.4107  0.8757  0.4492
  600MOL0     C82725  10.339   1.038   7.376  0.7451  0.0534 -0.4705
  600MOL0     C82726  10.403   1.014   7.252 -0.3198  0.2002  0.6438
  600MOL0     C82727  10.446   1.008   7.135 -0.4413  0.0230 -0.8883
  600MOL0     C82728   9.998   1.613   7.350 -1.4989 -0.3202  0.3626
  600MOL0     C82729   9.898   1.697   7.390 -0.1315  0.6816  0.6178
  600MOL0     C82730   9.937   1.804   7.486  0.6193  0.1369 -0.3546
  600MOL0     H82731   9.362   1.610   7.387 -1.4185  0.3505  2.8232
  600MOL0     H82732   9.146   1.674   7.447 -1.2144  0.6817  0.7648
  600MOL0     H82733   9.012   2.103   7.372  2.2494 -1.0240 -1.2781
  600MOL0     H82734   8.861   2.011   7.374 -0.2722 -2.8832  0.3008
  600MOL0     H82735   8.908   2.092   7.162  0.1495  0.4320 -0.5936
  600MOL0     H82736   9.053   2.003   7.136 -1.0352 -0.4146 -1.8746
  600MOL0     H82737   8.891   1.858   7.039 -0.1922 -0.8180 -0.4229
  600MOL0     H82738   8.918   1.786   7.198 -1.8227  0.6391  1.8872
  600MOL0     H82739   8.698   1.960   7.240  2.8459  2.8955 -1.6939
  600MOL0     H82740   8.668   1.919   7.077 -2.2907  0.2596  0.4087
  600MOL0     H82741   8.559   1.727   7.170  0.9685 -2.0043 -0.1786
  600MOL0     H82742   8.673   1.730   7.302 -3.0341  2.5379  0.2904
  600MOL0     H82743   8.710   1.657   6.997 -0.4822  2.3094  0.8177
  600MOL0     H82744   8.826   1.610   7.130  1.1908  0.6750  0.1849
  600MOL0     H82745   8.561   1.491   7.068 -1.4511  0.3674  1.1605
  600MOL0     H82746   8.618   1.489   7.235  2.9141 -1.0324  0.4080
  600MOL0     H82747   8.732   1.363   6.991  3.9671 -0.9271 -0.7917
  600MOL0     H82748   8.843   1.396   7.123  0.7882 -1.7863 -0.6986
  600MOL0     H82749   8.857   1.255   7.309 -0.3516 -0.1421 -1.9650
  600MOL0     H82750   8.753   0.875   7.345 -1.5565  0.3325 -1.4781
  600MOL0     H82751   8.736   0.991   7.471 -0.1528 -1.8391  0.6863
  600MOL0     H82752   8.966   0.957   7.287 -1.6156 -1.2634 -0.7802
  600MOL0     H82753   8.973   1.081   7.414  2.5410 -2.5284  2.4306
  600MOL0     H82754   8.948   0.912   7.600 -0.4465 -6.3610  0.9523
  600MOL0     H82755   8.952   0.784   7.479  6.2705 -3.0090 -0.8706
  600MOL0     H82756   9.178   0.873   7.400 -0.7174 -1.2645  0.0851
  600MOL0     H82757   9.180   0.967   7.545  1.9693 -0.8213 -0.4603
  600MOL0     H82758   9.253   0.561   7.698  0.3470 -0.2881  0.5428
  600MOL0     H82759   9.559   0.398   7.732  0.2776  0.2523 -1.6122
  600MOL0     H82760   9.445   0.323   7.622 -0.9235  0.3910 -0.5731
  600MOL0     H82761   9.392   0.402   7.776 -1.7311  0.6077 -2.0706
  600MOL0     H82762   9.916   0.590   7.502  2.4795 -0.5622  0.2323
  600MOL0     H82763  10.124   0.666   7.381 -0.1961  1.1204 -1.4328
  600MOL0     H82764  10.325   0.650   7.290  1.3889 -0.2013  0.2913
  600MOL0     H82765  10.357   0.470   7.261  1.0392 -0.2239  0.3309
  600MOL0     H82766  10.439   0.509   7.055 -2.6662  1.4806 -0.6192
  600MOL0     H82767  10.432   0.688   7.065 -0.0643  2.3521  2.1862
  600MOL0     H82768  10.584   0.545   7.279  0.7904  1.2912  1.1614
  600MOL0     H82769  10.559   0.710   7.243  0.4479 -1.7478  2.0089
  600MOL0     H82770  10.672   0.699   7.042  2.2120 -0.1885 -1.2832
  600MOL0     H82771  10.675   0.516   7.053 -0.5004 -0.3264 -0.1954
  600MOL0     H82772  10.852   0.719   7.184 -1.2213  1.2088 -4.2787
  600MOL0     H82773  10.833   0.567   7.267  0.0224 -1.6488 -0.3601
  600MOL0     H82774  10.917   0.572   6.972 -0.2407 -2.5921 -0.6880
  600MOL0     H82775  10.905   0.430   7.075 -1.0807 -0.5657 -1.0101
  600MOL0     H82776  11.064   0.513   7.230 -0.7739  2.5676  1.3460
  600MOL0     H82777  11.070   0.669   7.148 -2.5946  1.0846 -1.3036
  600MOL0     H82778  11.157   0.566   6.928  1.2281  1.7232  1.5224
  600MOL0     H82779  11.170   0.412   7.011 -1.9462  0.6533  1.3552
  600MOL0     H82780  10.036   0.410   7.063 -0.2935  0.6913 -0.1945
  600MOL0     H82781   9.809   0.356   7.162 -0.0540 -0.0017  0.5447
  600MOL0     H82782   9.615   0.735   7.404 -0.7606  0.0643 -0.4053
  600MOL0     H82783   9.388   0.855   7.417 -0.0280  0.2899  0.5566
  600MOL0     H82784   9.219   2.076   7.333  1.3139  0.2621  0.2912
  600MOL0     H82785   9.441   2.016   7.265  2.5508 -1.6365 -0.2130
  600MOL0     H82786   9.658   1.583   7.187 -0.7147 -0.0793  1.8962
  600MOL0     H82787   9.830   1.437   7.113  1.2608  0.0753  0.6386
  600MOL0     H82788  10.258   1.446   7.320  0.1434 -0.4774  2.7260
  600MOL0     H82789  10.127   1.390   7.410  0.8553 -0.3394  0.2080
  600MOL0     H82790  10.235   1.215   7.186  0.9045 -1.7515 -0.0616
  600MOL0     H82791  10.112   1.176   7.317  2.2348 -2.0257  1.4553
  600MOL0     H82792  10.396   1.249   7.389 -0.1769  1.9622  1.8680
  600MOL0     H82793  10.266   1.214   7.493  0.2950  2.5485  0.0760
  600MOL0     H82794  10.250   0.974   7.376 -0.7130  1.9767 -1.2202
  600MOL0     H82795  10.410   1.001   7.451  0.6512 -0.1191 -0.4642
  600MOL0     H82796  10.490   1.007   7.037  1.2728 -1.7467 -0.1819
  600MOL0     H82797  10.100   1.631   7.381 -0.9820  0.2320 -1.5366
  600MOL0     H82798   9.938   1.767   7.589  1.4054  2.9462  0.7271
  600MOL0     H82799  10.038   1.844   7.475 -0.5212  3.4367 -0.1988
  600MOL0     H82800   9.874   1.891   7.463  0.0190  0.0168  0.7834
  601MOL0     O82801   3.708   4.376   5.852  0.6239 -0.1260 -0.4392
  601MOL0     C82802   3.610   4.438   5.814  0.0636  0.2047 -0.0087
  601MOL0     O82803   3.597   4.571   5.803  0.0558 -0.6444  0.2100
  601MOL0     C82804   3.714   4.642   5.788 -0.1726  0.2932  0.5478
  601MOL0     C82805   3.751   4.740   5.878  0.1982  0.8634 -0.0860
  601MOL0     C82806   3.886   4.775   5.894  0.8453  0.1320 -0.0263
  601MOL0     C82807   3.986   4.718   5.817  0.2180 -0.6936  0.5188
  601MOL0     O82808   4.122   4.741   5.829  0.3531 -0.8299 -0.4889
  601MOL0     C82809   4.167   4.787   5.957 -0.8684  0.4094  0.5762
  601MOL0     C82810   4.321   4.804   5.943 -0.0464 -0.1877  0.0352
  601MOL0     C82811   4.390   4.661   5.922 -0.1054 -0.6201  0.3695
  601MOL0     C82812   4.509   4.677   5.849 -0.2613  0.3307 -0.1729
  601MOL0     C82813   4.567   4.543   5.792 -0.5391  0.7274 -0.4368
  601MOL0     C82814   4.692   4.562   5.711 -0.4304 -0.1101  0.2672
  601MOL0     C82815   4.752   4.432   5.679  1.1922  0.3146  0.1002
  601MOL0     C82816   4.831   4.362   5.791  0.7400 -0.6196 -0.2294
  601MOL0     N82817   4.954   4.445   5.818  0.1353  0.6798 -0.0595
  601MOL0     C82818   5.046   4.501   5.735  0.0625  0.0449 -0.3372
  601MOL0     C82819   5.134   4.573   5.808  0.4298 -0.2356  0.0814
  601MOL0     C82820   5.256   4.647   5.761 -0.3239 -0.1037 -0.0185
  601MOL0     C82821   5.391   4.578   5.772 -0.0867 -0.1557 -0.3134
  601MOL0     C82822   5.438   4.568   5.925  0.1027 -0.3495  0.0816
  601MOL0     C82823   5.564   4.487   5.921 -0.6787 -0.3508  0.2365
  601MOL0     O82824   5.586   4.433   6.058 -0.6313 -0.3757  0.0780
  601MOL0     C82825   5.681   4.335   6.087  0.5680  0.4468  1.2516
  601MOL0     C82826   5.670   4.264   6.201  0.7148 -0.2115  0.8773
  601MOL0     C82827   5.770   4.177   6.242  0.7807  0.2787 -0.5016
  601MOL0     C82828   5.748   4.126   6.384 -0.4754  0.8103  1.0415
  601MOL0     C82829   5.879   4.144   6.159 -0.2152  0.1209 -0.2965
  601MOL0     C82830   5.993   4.057   6.201  0.7071  0.0324  0.1536
  601MOL0     O82831   6.009   4.021   6.334 -0.1743  0.2983 -0.6608
  601MOL0     C82832   6.110   3.925   6.370  0.6187 -1.2096  0.6820
  601MOL0     C82833   6.128   3.808   6.308  0.2634  0.1455  0.4872
  601MOL0     C82834   6.218   3.712   6.350 -0.6510 -0.3157  0.3035
  601MOL0     C82835   6.309   3.747   6.450  0.1988 -0.0547  0.0455
  601MOL0     O82836   6.405   3.659   6.496 -0.5839 -0.0512  0.1813
  601MOL0     C82837   6.444   3.664   6.635 -0.3291  0.1608  0.8331
  601MOL0     C82838   6.580   3.730   6.665 -0.2065 -1.0175 -0.1733
  601MOL0     C82839   6.688   3.694   6.559 -0.3582 -0.1230 -0.1328
  601MOL0     C82840   6.824   3.772   6.585 -0.1907 -0.5922  0.5031
  601MOL0     C82841   6.932   3.738   6.483  0.0596  0.6687 -0.8470
  601MOL0     C82842   7.065   3.794   6.514  0.0966  0.2910 -1.4518
  601MOL0     C82843   7.182   3.732   6.438 -0.4013 -0.4290 -0.6042
  601MOL0     C82844   7.272   3.652   6.533 -0.1164  1.0216 -0.2837
  601MOL0    Cl82845   7.194   3.503   6.585 -0.3762  0.2293  0.1145
  601MOL0     C82846   6.295   3.879   6.506 -0.2970  0.4966  0.6912
  601MOL0     C82847   6.196   3.960   6.472  0.1303 -0.0829 -0.4892
  601MOL0     O82848   6.067   4.025   6.113  0.2569 -0.0456 -0.4640
  601MOL0     C82849   5.874   4.201   6.021  0.5578 -0.8283 -0.5233
  601MOL0     C82850   5.779   4.299   5.992 -0.3838 -0.4419  0.5759
  601MOL0     N82851   5.087   4.578   5.935  0.2811  0.6714 -0.0474
  601MOL0     N82852   4.978   4.504   5.937 -0.6917  0.3672 -0.5211
  601MOL0     C82853   3.948   4.635   5.711  0.0297 -0.2812  0.7835
  601MOL0     C82854   3.815   4.594   5.698 -0.0698 -0.1632  0.2937
  601MOL0     C82855   3.476   4.365   5.803 -1.1972 -0.7024  0.9115
  601MOL0     C82856   3.357   4.431   5.834 -0.0476 -0.0655 -0.8614
  601MOL0     C82857   3.224   4.380   5.806 -0.3163 -0.1293  0.9322
  601MOL0     C82858   3.216   4.252   5.753  0.4366  0.2230 -0.4322
  601MOL0     O82859   3.086   4.201   5.742 -1.0735 -0.7275  0.1328
  601MOL0     C82860   3.067   4.059   5.719 -0.1451 -0.2854 -0.7644
  601MOL0     C82861   2.917   4.024   5.733  0.0124 -0.0076  0.6014
  601MOL0     C82862   2.830   4.076   5.622  0.1363  0.3041  0.5544
  601MOL0     C82863   2.721   3.978   5.574 -0.0465  0.2143  0.1571
  601MOL0     C82864   2.630   3.933   5.682  0.6412 -0.2607 -0.4674
  601MOL0     C82865   2.550   3.895   5.769  0.5780 -0.7309 -0.3289
  601MOL0     C82866   3.334   4.182   5.729  0.3560  0.0887  0.4093
  601MOL0     C82867   3.462   4.236   5.750 -0.3816  0.2619  0.3602
  601MOL0     C82868   3.584   4.161   5.704 -0.0081 -0.1466 -0.3528
  601MOL0     H82869   3.686   4.784   5.952 -1.9861 -0.7730 -0.9225
  601MOL0     H82870   3.906   4.855   5.965 -2.2451  1.0757 -0.1053
  601MOL0     H82871   4.139   4.711   6.029 -0.4246  0.3600  0.6978
  601MOL0     H82872   4.122   4.884   5.980 -2.6700 -0.9062  3.0607
  601MOL0     H82873   4.342   4.879   5.865  0.8835  0.7723  1.1632
  601MOL0     H82874   4.372   4.845   6.031  3.1235  2.2837 -2.6816
  601MOL0     H82875   4.417   4.608   6.014  2.4050 -1.2147 -0.6354
  601MOL0     H82876   4.326   4.602   5.856 -2.2011 -0.8565  2.4768
  601MOL0     H82877   4.486   4.735   5.760 -2.4627  2.5875  1.7237
  601MOL0     H82878   4.583   4.737   5.902  1.2284 -1.4446 -0.1406
  601MOL0     H82879   4.489   4.491   5.737 -0.4255 -0.1720  0.2189
  601MOL0     H82880   4.596   4.476   5.873  0.4008 -0.4877 -1.7414
  601MOL0     H82881   4.673   4.614   5.616  0.4225 -0.4841 -0.1225
  601MOL0     H82882   4.767   4.630   5.753  1.6877 -1.4074 -1.1531
  601MOL0     H82883   4.820   4.441   5.594  0.9112 -1.8025 -0.4059
  601MOL0     H82884   4.668   4.372   5.643  2.1044 -2.3499  2.0767
  601MOL0     H82885   4.780   4.355   5.888  2.8124  2.0981  1.2104
  601MOL0     H82886   4.854   4.258   5.768  1.5308 -0.2915 -1.0012
  601MOL0     H82887   5.062   4.478   5.630 -2.1205  4.0077 -1.7413
  601MOL0     H82888   5.266   4.747   5.803  1.8483  0.2628 -1.2983
  601MOL0     H82889   5.245   4.661   5.653  0.8490 -1.7685 -0.3920
  601MOL0     H82890   5.384   4.480   5.723  0.3342  0.5818 -1.9014
  601MOL0     H82891   5.463   4.633   5.712  0.0336 -0.0616 -0.0795
  601MOL0     H82892   5.457   4.664   5.972  0.4716  1.3552 -3.2468
  601MOL0     H82893   5.364   4.502   5.972 -0.9376  0.2768 -0.6246
  601MOL0     H82894   5.554   4.410   5.844  5.1284 -0.2051 -1.1059
  601MOL0     H82895   5.655   4.540   5.891  1.1724 -0.4315  4.9006
  601MOL0     H82896   5.577   4.281   6.254  0.1134  0.3662 -0.3290
  601MOL0     H82897   5.730   4.019   6.375  2.3142  0.2993  0.8227
  601MOL0     H82898   5.664   4.180   6.428 -1.8931  1.8326 -2.5137
  601MOL0     H82899   5.840   4.140   6.440 -0.1903 -2.9013  1.7104
  601MOL0     H82900   6.069   3.784   6.220 -1.6442  3.4029  0.7025
  601MOL0     H82901   6.226   3.625   6.286 -2.2723  0.1739 -0.6386
  601MOL0     H82902   6.369   3.717   6.694  0.4152  2.6480 -0.3232
  601MOL0     H82903   6.458   3.563   6.676  2.3130  0.7159  1.4722
  601MOL0     H82904   6.554   3.835   6.680 -3.0131 -1.5685 -0.4924
  601MOL0     H82905   6.608   3.695   6.765 -1.0129 -2.3017 -0.3669
  601MOL0     H82906   6.655   3.719   6.458 -0.4294 -2.5934 -0.7636
  601MOL0     H82907   6.700   3.586   6.560 -0.8507 -0.1850 -0.7825
  601MOL0     H82908   6.863   3.766   6.687 -0.8495 -0.6203  0.7586
  601MOL0     H82909   6.793   3.872   6.553 -1.8534 -1.4975 -0.8791
  601MOL0     H82910   6.948   3.630   6.487  0.8744  0.8250  0.7965
  601MOL0     H82911   6.912   3.772   6.381  1.8468 -0.5520 -1.6648
  601MOL0     H82912   7.083   3.798   6.622  0.9019 -0.5010 -1.5428
  601MOL0     H82913   7.052   3.901   6.497  1.9528  1.0780  1.3357
  601MOL0     H82914   7.255   3.806   6.403  0.6065 -1.4738 -0.7814
  601MOL0     H82915   7.151   3.671   6.353  2.0883 -1.0837 -1.1240
  601MOL0     H82916   7.282   3.723   6.615  0.6501  0.6478 -0.0355
  601MOL0     H82917   7.372   3.631   6.494  0.2336  0.2808  0.9598
  601MOL0     H82918   6.368   3.918   6.576 -0.0864 -3.1686  2.7448
  601MOL0     H82919   6.185   4.056   6.522 -0.1979  0.1308 -0.9602
  601MOL0     H82920   5.957   4.177   5.956  1.4590  1.7753 -0.4319
  601MOL0     H82921   5.787   4.341   5.892 -0.7307  1.3617  1.2744
  601MOL0     H82922   4.017   4.588   5.642 -1.0395  0.4368 -0.8326
  601MOL0     H82923   3.784   4.516   5.630 -1.4811 -1.6058  2.4619
  601MOL0     H82924   3.352   4.535   5.866  0.8290 -0.4065  0.4740
  601MOL0     H82925   3.131   4.431   5.829 -0.1419  0.4657  0.3416
  601MOL0     H82926   3.089   4.037   5.614 -0.7315 -0.5267 -0.8431
  601MOL0     H82927   3.125   3.992   5.783  1.0579 -1.1877 -2.7157
  601MOL0     H82928   2.878   4.058   5.830  1.1605  0.6888  0.8271
  601MOL0     H82929   2.914   3.915   5.748 -1.3245  0.1033  1.3607
  601MOL0     H82930   2.791   4.173   5.652  0.5046  1.6680 -2.8744
  601MOL0     H82931   2.897   4.097   5.538 -0.2013  4.2200  1.0844
  601MOL0     H82932   2.771   3.898   5.519  0.8184  0.5396  0.4605
  601MOL0     H82933   2.657   4.029   5.501  0.6536 -2.3986 -2.4437
  601MOL0     H82934   2.471   3.890   5.840 -0.7112  2.9858 -1.2724
  601MOL0     H82935   3.330   4.079   5.693 -0.7680  0.2446  0.0729
  601MOL0     H82936   3.638   4.122   5.791 -2.6184 -1.6370  0.7220
  601MOL0     H82937   3.549   4.074   5.648 -2.0228 -0.5683  1.4300
  601MOL0     H82938   3.645   4.228   5.642 -1.3738  0.7026 -0.8204
  602MOL0     O82939   0.343   7.314  11.071  0.5588 -0.6079 -0.5174
  602MOL0     C82940   0.392   7.207  11.077 -0.5023  0.0376  1.0306
  602MOL0     O82941   0.526   7.186  11.112 -0.0728 -0.5698  1.0454
  602MOL0     C82942   0.621   7.290  11.123 -0.7792 -0.5192  0.1794
  602MOL0     C82943   0.741   7.291  11.047  0.5009  0.2166 -0.0875
  602MOL0     C82944   0.831   7.399  11.054 -0.0164  0.2902  0.0441
  602MOL0     C82945   0.805   7.507  11.138 -0.6054  0.0084  0.0199
  602MOL0     O82946   0.896   7.610  11.141 -0.0481  0.0966  0.0284
  602MOL0     C82947   0.864   7.724  11.231 -0.4148  0.1135  0.3676
  602MOL0     C82948   0.947   7.841  11.177 -0.1466  0.7167 -0.6052
  602MOL0     C82949   1.094   7.803  11.180 -0.2474  0.5073 -0.0506
  602MOL0     C82950   1.159   7.749  11.049  0.6169 -0.4307 -0.3781
  602MOL0     C82951   1.299   7.703  11.064  0.3236 -0.6496 -0.0340
  602MOL0     C82952   1.403   7.817  11.075  0.0811 -1.0276  0.2054
  602MOL0     C82953   1.533   7.764  11.138 -0.0267  0.1277 -0.5624
  602MOL0     C82954   1.646   7.869  11.118  0.5193  1.5064  0.0352
  602MOL0     N82955   1.783   7.822  11.170  0.4054  0.3790 -0.3713
  602MOL0     C82956   1.806   7.768  11.290 -0.3939 -0.4114 -0.5176
  602MOL0     C82957   1.944   7.736  11.294  0.0185  0.3924 -0.2861
  602MOL0     C82958   2.036   7.669  11.395  1.1019  0.2225  0.5526
  602MOL0     C82959   2.041   7.520  11.362  0.0890  0.6537 -0.0124
  602MOL0     C82960   2.125   7.455  11.472  0.1426  0.1362 -0.3236
  602MOL0     C82961   2.031   7.387  11.571  0.5014 -0.4810 -0.2257
  602MOL0     O82962   1.939   7.482  11.639  0.5991 -0.5051 -0.4626
  602MOL0     C82963   1.985   7.572  11.737 -0.9397  0.4041  0.8372
  602MOL0     C82964   1.892   7.649  11.798 -0.1537 -0.2021 -0.2384
  602MOL0     C82965   1.913   7.747  11.894 -0.1585  0.8855  0.3889
  602MOL0     C82966   1.801   7.833  11.946  0.2078 -0.0029  0.2143
  602MOL0     C82967   2.054   7.767  11.925  0.0018 -0.1772  1.1894
  602MOL0     C82968   2.089   7.860  12.025 -0.3507 -0.0267 -0.7923
  602MOL0     O82969   2.057   7.840  12.156  0.0473 -0.5583  1.3338
  602MOL0     C82970   2.084   7.947  12.243  0.5477  0.2229 -0.7450
  602MOL0     C82971   2.216   7.997  12.276 -0.3026  1.5198 -1.0740
  602MOL0     C82972   2.220   8.101  12.361 -0.8147 -0.3296 -0.0817
  602MOL0     C82973   2.098   8.179  12.390 -0.2321  1.2355 -0.2126
  602MOL0     O82974   2.101   8.297  12.451 -0.5242 -0.8000 -0.0242
  602MOL0     C82975   2.224   8.369  12.470  0.0963  0.5163 -0.4789
  602MOL0     C82976   2.204   8.511  12.486 -0.0789 -1.5634  0.4025
  602MOL0     C82977   2.208   8.551  12.638  0.0645  0.8659  0.0236
  602MOL0     C82978   2.212   8.706  12.664  0.5561  0.6486  0.4491
  602MOL0     C82979   2.219   8.740  12.812  0.8990 -0.5629  0.4948
  602MOL0     C82980   2.265   8.889  12.834  0.3544  0.1395  0.0300
  602MOL0     C82981   2.422   8.912  12.810  1.1024 -0.0394 -0.0316
  602MOL0     C82982   2.473   9.048  12.840  0.5089  0.4613 -0.3478
  602MOL0    Cl82983   2.644   9.054  12.765  0.4077  0.0680  0.0426
  602MOL0     C82984   1.972   8.126  12.375  0.6248  0.1214  0.2684
  602MOL0     C82985   1.969   8.007  12.298  0.4676 -0.4493 -0.2306
  602MOL0     O82986   2.169   7.948  11.985 -0.2966  0.3690 -0.6740
  602MOL0     C82987   2.151   7.680  11.867 -0.4714  0.8488  0.5841
  602MOL0     C82988   2.121   7.584  11.772 -0.1887  0.3272  0.9682
  602MOL0     N82989   1.998   7.783  11.173 -0.2516  0.2316 -1.2272
  602MOL0     N82990   1.901   7.836  11.105  0.5421  0.4795 -0.6372
  602MOL0     C82991   0.694   7.496  11.222 -0.1406  0.1703 -0.5842
  602MOL0     C82992   0.601   7.395  11.213 -0.1434 -0.0088  1.1395
  602MOL0     C82993   0.320   7.087  11.034  0.0695  0.1637  0.3240
  602MOL0     C82994   0.384   6.960  11.027  0.2430 -0.8675  0.1590
  602MOL0     C82995   0.318   6.845  10.986 -0.9125 -0.5301  1.2397
  602MOL0     C82996   0.192   6.852  10.933 -0.1476  0.4260 -0.8357
  602MOL0     O82997   0.134   6.732  10.889 -0.2047 -0.4010 -0.4407
  602MOL0     C82998  -0.003   6.718  10.935  0.4884 -0.2824 -0.2405
  602MOL0     C82999  -0.063   6.592  10.879  0.0943 -0.4442  0.8951
  602MOL0     C83000  -0.213   6.602  10.861 -0.0536  0.4882 -0.5532
  602MOL0     C83001  -0.280   6.479  10.795  0.8759 -0.0514 -0.1707
  602MOL0     C83002  -0.424   6.513  10.767 -0.8886  0.1444 -0.1773
  602MOL0     C83003  -0.539   6.528  10.738  0.2246  0.0807  0.2596
  602MOL0     C83004   0.128   6.974  10.935 -0.4049  0.3993  0.2479
  602MOL0     C83005   0.193   7.095  10.976 -0.0139 -0.0864 -0.1952
  602MOL0     C83006   0.117   7.224  10.945  0.3062 -0.1645 -0.0664
  602MOL0     H83007   0.763   7.207  10.981 -0.5508 -0.0929 -0.0588
  602MOL0     H83008   0.907   7.389  10.978 -0.7873  2.0678 -1.0406
  602MOL0     H83009   0.879   7.708  11.338 -3.4017 -0.2034  0.8369
  602MOL0     H83010   0.757   7.745  11.217 -0.4990 -1.9943 -3.5278
  602MOL0     H83011   0.916   7.864  11.075  3.3126 -0.1100 -1.9661
  602MOL0     H83012   0.930   7.922  11.249 -1.7108  2.0586 -2.4049
  602MOL0     H83013   1.149   7.890  11.217  2.7183 -0.8497 -0.9203
  602MOL0     H83014   1.107   7.725  11.256 -4.1961 -0.8730 -0.5800
  602MOL0     H83015   1.090   7.669  11.020 -2.4968  2.0134 -0.3414
  602MOL0     H83016   1.161   7.820  10.966 -0.5849  0.7949  0.5824
  602MOL0     H83017   1.338   7.641  10.983  2.3764  0.2636  0.2009
  602MOL0     H83018   1.301   7.647  11.158 -1.0744  2.3764  1.9788
  602MOL0     H83019   1.425   7.870  10.982 -1.4668  0.6627  0.7569
  602MOL0     H83020   1.366   7.893  11.143 -0.6575 -1.3141  0.1357
  602MOL0     H83021   1.567   7.669  11.094  0.1807  0.5865 -1.4307
  602MOL0     H83022   1.517   7.742  11.244 -0.3408  0.5644 -0.5197
  602MOL0     H83023   1.658   7.886  11.011  0.8727  4.2443  0.4314
  602MOL0     H83024   1.609   7.958  11.169 -3.4104  0.5952 -0.8943
  602MOL0     H83025   1.736   7.737  11.367 -0.2706  2.9546  1.1230
  602MOL0     H83026   1.986   7.680  11.491  0.2904  1.1548  0.0460
  602MOL0     H83027   2.135   7.714  11.400  2.8382 -2.9800 -1.3978
  602MOL0     H83028   1.947   7.470  11.335  1.9846 -2.4494 -1.5347
  602MOL0     H83029   2.092   7.505  11.266 -0.4386  0.2569 -0.2377
  602MOL0     H83030   2.191   7.378  11.429  1.1120  0.4189  0.6155
  602MOL0     H83031   2.187   7.528  11.525 -1.7451  1.4131  0.2318
  602MOL0     H83032   1.967   7.310  11.525  1.2642 -1.4561  0.2975
  602MOL0     H83033   2.087   7.338  11.651 -1.3221 -1.7426  0.3579
  602MOL0     H83034   1.791   7.644  11.759 -0.3763 -0.1798  0.3254
  602MOL0     H83035   1.744   7.864  11.858  1.6668  0.3396 -0.6542
  602MOL0     H83036   1.830   7.934  11.977  2.5338  0.5086 -3.0158
  602MOL0     H83037   1.741   7.795  12.029 -1.7092  4.0889  0.9265
  602MOL0     H83038   2.309   7.947  12.249 -0.3357  1.1093 -0.4542
  602MOL0     H83039   2.321   8.133  12.383 -0.0551 -1.2552 -1.9952
  602MOL0     H83040   2.283   8.330  12.553  0.7524  1.8764 -0.2712
  602MOL0     H83041   2.290   8.353  12.385  1.0337  1.0097  0.1313
  602MOL0     H83042   2.281   8.570  12.436 -3.5736  0.1779 -3.5152
  602MOL0     H83043   2.110   8.534  12.436 -1.3114 -3.7502  1.5397
  602MOL0     H83044   2.300   8.515  12.684 -0.4871 -0.2040  0.3092
  602MOL0     H83045   2.123   8.506  12.689 -1.1125  1.5137 -1.3039
  602MOL0     H83046   2.119   8.745  12.622  1.1555 -1.2693 -3.1538
  602MOL0     H83047   2.295   8.749  12.607  1.6851 -0.7328  1.0024
  602MOL0     H83048   2.119   8.714  12.847 -0.0509 -1.1952 -2.4306
  602MOL0     H83049   2.278   8.674  12.877  1.2573  0.0027  0.7448
  602MOL0     H83050   2.243   8.908  12.939 -1.0786 -3.3770  0.4774
  602MOL0     H83051   2.201   8.954  12.773 -1.0266 -1.1185  0.0798
  602MOL0     H83052   2.451   8.887  12.707  2.4822 -1.6776  0.7040
  602MOL0     H83053   2.477   8.835  12.865 -0.4738 -0.6018  0.7932
  602MOL0     H83054   2.472   9.074  12.947 -1.6352  2.0260 -0.6666
  602MOL0     H83055   2.411   9.119  12.784 -0.8327 -0.0429  0.4495
  602MOL0     H83056   1.871   8.162  12.392  0.5123 -0.2129  0.3279
  602MOL0     H83057   1.867   7.983  12.269  0.4612 -1.7416  0.8014
  602MOL0     H83058   2.252   7.689  11.907 -0.6159  0.6942  0.9866
  602MOL0     H83059   2.204   7.525  11.735  0.3217  1.6930 -0.1533
  602MOL0     H83060   0.673   7.569  11.299 -2.1553 -0.8308 -0.1134
  602MOL0     H83061   0.509   7.397  11.271  0.4299  3.3695  2.1297
  602MOL0     H83062   0.484   6.946  11.068  0.2331  0.4212  0.6454
  602MOL0     H83063   0.379   6.756  10.977  1.5609  1.0575  1.4274
  602MOL0     H83064  -0.005   6.722  11.044 -0.5612  1.4829 -0.2883
  602MOL0     H83065  -0.066   6.801  10.902 -0.2195 -1.0775 -0.9429
  602MOL0     H83066  -0.024   6.512  10.944  0.3057 -1.9884 -1.0493
  602MOL0     H83067  -0.017   6.580  10.780 -1.7641  1.8474 -0.3254
  602MOL0     H83068  -0.260   6.614  10.959  0.6843 -0.0558 -0.1249
  602MOL0     H83069  -0.248   6.686  10.801 -5.5503  0.6934  2.2787
  602MOL0     H83070  -0.272   6.395  10.865  3.3907  0.4652  0.2428
  602MOL0     H83071  -0.221   6.459  10.705  1.6605 -1.2058  0.5706
  602MOL0     H83072  -0.630   6.538  10.682  1.7377  1.3326 -2.1825
  602MOL0     H83073   0.027   6.981  10.895 -0.4569  1.0476  0.4903
  602MOL0     H83074   0.172   7.288  10.875  0.9102  0.7716  1.2419
  602MOL0     H83075   0.020   7.192  10.905 -0.3262 -0.7872  1.8725
  602MOL0     H83076   0.105   7.273  11.042 -0.5331  1.9292 -1.1518
  603MOL0     O83077   5.332   8.440   6.158 -0.0303 -0.4604  0.2355
  603MOL0     C83078   5.246   8.410   6.236 -0.1574 -0.2540 -0.2680
  603MOL0     O83079   5.263   8.376   6.369 -0.0665  0.2616 -0.0042
  603MOL0     C83080   5.393   8.369   6.417  0.3188  0.3830  0.2938
  603MOL0     C83081   5.498   8.306   6.344  0.2367  0.7356  0.2893
  603MOL0     C83082   5.625   8.284   6.389  0.2843 -0.5671 -0.1553
  603MOL0     C83083   5.651   8.313   6.526 -0.5138 -0.3245 -0.3642
  603MOL0     O83084   5.773   8.272   6.589 -0.2236 -0.1705  0.1343
  603MOL0     C83085   5.876   8.211   6.511 -0.2968  0.2036  0.2515
  603MOL0     C83086   5.986   8.176   6.610  0.1252 -0.2545 -0.4383
  603MOL0     C83087   6.111   8.133   6.549 -0.3131 -0.2872 -0.4499
  603MOL0     C83088   6.213   8.083   6.654  0.3667 -0.6193 -0.3125
  603MOL0     C83089   6.322   8.005   6.578 -0.2982  0.8233  0.6977
  603MOL0     C83090   6.320   7.865   6.627 -0.2156 -0.0956 -0.9394
  603MOL0     C83091   6.423   7.782   6.558 -0.4896 -0.4255  0.4781
  603MOL0     C83092   6.569   7.824   6.581  0.3806 -0.1288 -0.1091
  603MOL0     N83093   6.645   7.703   6.572  0.2705 -0.2464  0.5763
  603MOL0     C83094   6.698   7.657   6.454 -0.6267  0.6180 -0.7502
  603MOL0     C83095   6.773   7.547   6.499  0.2414  0.0947  0.6400
  603MOL0     C83096   6.855   7.465   6.408  0.0462  0.0758 -0.1676
  603MOL0     C83097   6.886   7.321   6.440 -0.3412 -0.5731  0.3244
  603MOL0     C83098   6.957   7.254   6.321  0.2911  0.1653 -0.1857
  603MOL0     C83099   7.020   7.116   6.363 -0.0388 -0.1901  0.4869
  603MOL0     O83100   6.941   7.013   6.424 -0.2167  0.4486  0.5478
  603MOL0     C83101   6.808   7.015   6.393  0.0040  0.2144  0.2627
  603MOL0     C83102   6.718   7.001   6.494 -0.5450  0.0042 -1.0122
  603MOL0     C83103   6.584   7.004   6.473  0.2807  0.1774 -0.8555
  603MOL0     C83104   6.499   6.996   6.603 -0.6689 -0.4292  0.6781
  603MOL0     C83105   6.533   7.007   6.340  0.5108 -0.2398  0.7929
  603MOL0     C83106   6.389   7.003   6.301  0.2101  0.0481  0.2097
  603MOL0     O83107   6.348   7.062   6.183  0.0200 -0.1337 -1.0264
  603MOL0     C83108   6.211   7.059   6.149  0.4381  0.8612  0.1043
  603MOL0     C83109   6.122   7.163   6.181  0.0065  0.3638  0.8911
  603MOL0     C83110   5.998   7.154   6.116 -0.0442 -0.4162 -0.4658
  603MOL0     C83111   5.950   7.047   6.048 -0.2799  0.0241 -0.0012
  603MOL0     O83112   5.830   7.045   5.983  0.4484 -0.9576  0.1378
  603MOL0     C83113   5.786   7.167   5.918  0.2815  0.0264  0.1956
  603MOL0     C83114   5.795   7.156   5.774 -0.4055 -0.6915  0.1827
  603MOL0     C83115   5.929   7.187   5.724 -0.1374  0.3363  0.4230
  603MOL0     C83116   5.923   7.219   5.571  0.2617  0.2746 -0.8129
  603MOL0     C83117   6.067   7.258   5.517 -0.0264 -0.2058 -0.3779
  603MOL0     C83118   6.073   7.355   5.397 -0.2813 -0.2092  0.2104
  603MOL0     C83119   6.216   7.376   5.352  0.7078  0.2547  0.3015
  603MOL0     C83120   6.216   7.456   5.226  0.3014 -0.2745  0.1782
  603MOL0    Cl83121   6.100   7.414   5.101  0.1287 -0.6081  0.3878
  603MOL0     C83122   6.039   6.938   6.014 -0.8349 -0.2752  0.4018
  603MOL0     C83123   6.169   6.945   6.070 -0.2148  0.2771  0.0866
  603MOL0     O83124   6.309   6.945   6.371  0.4966  0.4413 -0.5727
  603MOL0     C83125   6.625   7.007   6.235  0.2158 -0.0856 -0.1026
  603MOL0     C83126   6.763   7.015   6.262  0.7700  0.8378  0.6361
  603MOL0     N83127   6.757   7.535   6.635 -0.1970  0.6009 -0.0801
  603MOL0     N83128   6.687   7.624   6.669  0.4601  0.9694 -0.8512
  603MOL0     C83129   5.549   8.375   6.602  0.0824  0.3109  0.9553
  603MOL0     C83130   5.422   8.405   6.548  0.0529  0.0875  0.7098
  603MOL0     C83131   5.098   8.421   6.189 -0.0633  0.2872  1.2650
  603MOL0     C83132   5.013   8.330   6.247 -0.3669 -0.0894  0.3046
  603MOL0     C83133   4.876   8.335   6.233  0.9532  0.1393  0.2454
  603MOL0     C83134   4.822   8.429   6.148 -0.4462 -0.0952 -0.8761
  603MOL0     O83135   4.687   8.429   6.101 -0.4187  0.3265 -0.0816
  603MOL0     C83136   4.581   8.361   6.173  0.5971 -0.1637  0.5108
  603MOL0     C83137   4.453   8.412   6.101 -0.0738 -0.9004 -0.6776
  603MOL0     C83138   4.336   8.421   6.199  0.2515  0.5567  1.2614
  603MOL0     C83139   4.216   8.495   6.130  0.0554  1.1388  0.3537
  603MOL0     C83140   4.091   8.468   6.203 -0.3292 -0.3886 -0.1118
  603MOL0     C83141   3.987   8.455   6.270  0.5872  0.0070  0.3682
  603MOL0     C83142   4.910   8.517   6.080  0.8763 -0.2683 -0.3158
  603MOL0     C83143   5.050   8.520   6.104 -0.3192 -0.0312 -0.5474
  603MOL0     C83144   5.136   8.621   6.043 -0.4231 -0.0778 -0.9577
  603MOL0     H83145   5.466   8.266   6.248  0.0339  0.4175  0.4836
  603MOL0     H83146   5.693   8.224   6.330  0.7823 -1.6003  1.3922
  603MOL0     H83147   5.917   8.266   6.426 -0.7581 -1.3034 -1.0011
  603MOL0     H83148   5.843   8.114   6.471  0.6688  0.2527 -0.7152
  603MOL0     H83149   6.011   8.267   6.664  0.6569 -0.5356 -0.2056
  603MOL0     H83150   5.953   8.091   6.669 -1.5576 -0.2706 -1.3490
  603MOL0     H83151   6.089   8.055   6.476  0.3027 -0.3062 -0.6215
  603MOL0     H83152   6.154   8.216   6.493 -0.5576  0.1487  0.0013
  603MOL0     H83153   6.252   8.167   6.713  1.7315  0.1633 -2.2084
  603MOL0     H83154   6.164   8.018   6.727  0.9913 -0.4848  0.2348
  603MOL0     H83155   6.421   8.051   6.590 -0.0265 -0.0516  2.0119
  603MOL0     H83156   6.300   8.000   6.471 -0.9151  2.5678  0.7196
  603MOL0     H83157   6.351   7.866   6.732  1.2501 -0.9907 -1.3372
  603MOL0     H83158   6.220   7.822   6.622  0.2732 -1.0871 -2.9084
  603MOL0     H83159   6.402   7.780   6.450 -0.7548  0.4487  0.5005
  603MOL0     H83160   6.411   7.679   6.592 -0.5798  0.1641  2.3267
  603MOL0     H83161   6.604   7.899   6.510 -1.7607 -1.0480 -2.2477
  603MOL0     H83162   6.589   7.860   6.683  1.0814 -1.2064  0.1456
  603MOL0     H83163   6.702   7.709   6.359  3.6572  3.2821  0.5836
  603MOL0     H83164   6.954   7.512   6.397  0.4144 -1.0073 -2.0911
  603MOL0     H83165   6.808   7.461   6.309 -2.1325  0.1041  0.8275
  603MOL0     H83166   6.951   7.322   6.529 -2.5508 -0.3421  2.0239
  603MOL0     H83167   6.792   7.267   6.453 -1.6000  0.8944 -1.9633
  603MOL0     H83168   6.887   7.235   6.240  1.3513 -0.3123 -1.0003
  603MOL0     H83169   7.036   7.319   6.282  2.4142 -1.4362  1.1502
  603MOL0     H83170   7.057   7.080   6.266 -1.3155 -0.3220  0.0340
  603MOL0     H83171   7.106   7.133   6.428  0.7054 -0.6903 -0.3528
  603MOL0     H83172   6.751   6.993   6.597  0.4737  2.3709 -1.0738
  603MOL0     H83173   6.554   7.048   6.681 -1.2304  0.7222  0.3178
  603MOL0     H83174   6.495   6.893   6.642  0.8227 -1.2425 -1.1424
  603MOL0     H83175   6.396   7.025   6.582 -0.5793 -0.4694  0.1731
  603MOL0     H83176   6.142   7.248   6.245 -0.8174  2.5710 -1.5933
  603MOL0     H83177   5.920   7.224   6.142 -0.2659 -1.4065  1.7338
  603MOL0     H83178   5.678   7.174   5.935 -0.1214 -1.7642 -1.3162
  603MOL0     H83179   5.837   7.253   5.963  2.2168 -0.6528 -0.6149
  603MOL0     H83180   5.761   7.061   5.732 -0.9333 -0.4979  0.1652
  603MOL0     H83181   5.730   7.234   5.733 -1.6450 -0.7902  1.8660
  603MOL0     H83182   5.983   7.095   5.746 -1.4482  0.1772  3.6895
  603MOL0     H83183   5.968   7.266   5.790  0.1339 -0.1159  0.8095
  603MOL0     H83184   5.858   7.307   5.560 -1.0449 -0.7480 -1.5433
  603MOL0     H83185   5.882   7.138   5.511  1.6191 -0.5970 -0.6058
  603MOL0     H83186   6.136   7.292   5.594  0.2510 -1.0996 -0.2097
  603MOL0     H83187   6.124   7.172   5.478  2.0794  1.3190 -0.8006
  603MOL0     H83188   6.038   7.456   5.423 -0.2739 -0.1089 -0.1683
  603MOL0     H83189   6.011   7.313   5.318 -1.5162 -0.6989  1.3941
  603MOL0     H83190   6.272   7.284   5.333  1.8006  0.5561  1.8815
  603MOL0     H83191   6.275   7.423   5.431  1.2792 -0.3800  0.2698
  603MOL0     H83192   6.312   7.475   5.176 -0.4893  0.4951 -1.1233
  603MOL0     H83193   6.179   7.558   5.241 -0.8202 -0.2979 -2.0041
  603MOL0     H83194   6.015   6.857   5.945  0.1990 -0.3790  0.1550
  603MOL0     H83195   6.250   6.873   6.063 -0.1827  0.1752  1.3313
  603MOL0     H83196   6.590   7.008   6.132  0.2451 -3.0570 -0.2353
  603MOL0     H83197   6.833   7.015   6.178  3.1797  0.0459  2.5060
  603MOL0     H83198   5.553   8.381   6.710 -0.7845  0.4353  0.9881
  603MOL0     H83199   5.350   8.444   6.620  1.2758  0.1553  1.9503
  603MOL0     H83200   5.056   8.252   6.310 -2.2086 -2.5995 -1.3727
  603MOL0     H83201   4.802   8.273   6.282  0.0923  0.0603 -1.1353
  603MOL0     H83202   4.598   8.253   6.166  1.3733 -0.0938  1.0916
  603MOL0     H83203   4.583   8.388   6.279 -0.0572 -0.3558  0.5765
  603MOL0     H83204   4.430   8.346   6.017  0.3556 -0.3741 -1.2152
  603MOL0     H83205   4.468   8.512   6.060 -4.5040  0.4917  0.6172
  603MOL0     H83206   4.316   8.314   6.213  5.0166 -1.0262 -1.7208
  603MOL0     H83207   4.368   8.463   6.295  1.3318 -1.8513  2.0258
  603MOL0     H83208   4.206   8.453   6.029 -1.4870  0.6175  0.6995
  603MOL0     H83209   4.238   8.601   6.115  1.0003  0.9197  0.0932
  603MOL0     H83210   3.894   8.456   6.324 -1.6511  1.1540 -3.1809
  603MOL0     H83211   4.873   8.580   6.000 -0.2475  0.4074  0.7027
  603MOL0     H83212   5.168   8.707   6.101 -1.4501  0.3913 -1.0567
  603MOL0     H83213   5.223   8.578   5.993  3.0656 -0.1550  4.3475
  603MOL0     H83214   5.068   8.659   5.966 -1.1754 -1.6731 -1.1393
  604MOL0     O83215   4.585   2.282   5.587 -0.0155 -0.2037  0.5717
  604MOL0     C83216   4.598   2.164   5.626  0.5921  0.0334 -0.4892
  604MOL0     O83217   4.709   2.120   5.679 -0.1580  0.7413  0.2019
  604MOL0     C83218   4.831   2.191   5.670  0.4965 -1.4928 -0.1102
  604MOL0     C83219   4.870   2.286   5.572  0.4025  0.9119 -0.8740
  604MOL0     C83220   4.993   2.348   5.574  0.4428  0.2263  0.4820
  604MOL0     C83221   5.089   2.311   5.676  0.3353  0.2856 -0.1057
  604MOL0     O83222   5.212   2.360   5.678 -0.1141 -0.3039  0.0403
  604MOL0     C83223   5.284   2.376   5.556 -0.5739  0.7372 -0.0813
  604MOL0     C83224   5.430   2.418   5.585  0.0610  0.6843 -0.3772
  604MOL0     C83225   5.500   2.325   5.687  1.3507  0.1648 -0.7552
  604MOL0     C83226   5.528   2.185   5.632  1.1379 -1.2400 -0.4997
  604MOL0     C83227   5.605   2.099   5.733  0.1995  0.0246 -0.2120
  604MOL0     C83228   5.656   1.983   5.660 -0.6767 -0.5181 -0.2730
  604MOL0     C83229   5.720   1.884   5.754  0.5168  0.9257  0.4563
  604MOL0     C83230   5.771   1.757   5.674  0.1424 -0.3830  0.6191
  604MOL0     N83231   5.858   1.782   5.561 -0.1825  0.1288  0.6703
  604MOL0     C83232   5.807   1.759   5.434 -0.7958  0.8684  0.2601
  604MOL0     C83233   5.901   1.791   5.343 -0.2199  0.5090 -0.4577
  604MOL0     C83234   5.898   1.771   5.195 -0.1005 -0.3328 -1.0782
  604MOL0     C83235   5.973   1.646   5.158 -0.6523 -0.2323 -0.0008
  604MOL0     C83236   6.013   1.646   5.017  0.6961 -0.1943  0.3222
  604MOL0     C83237   6.084   1.511   4.993  0.2420 -0.1191 -0.3286
  604MOL0     O83238   6.220   1.533   5.035  0.3582  0.6296  0.6006
  604MOL0     C83239   6.304   1.429   5.015 -0.6960  0.2375 -0.2482
  604MOL0     C83240   6.434   1.441   5.069 -0.8872  0.0320  0.6093
  604MOL0     C83241   6.533   1.339   5.051 -0.1072 -0.4734 -1.0220
  604MOL0     C83242   6.681   1.365   5.098  0.2276 -0.2518  0.6936
  604MOL0     C83243   6.498   1.215   4.994  1.0760 -0.2103 -0.1999
  604MOL0     C83244   6.595   1.106   4.972  0.4851  0.2180  0.3969
  604MOL0     O83245   6.720   1.135   4.938 -0.1109  0.1091 -0.1274
  604MOL0     C83246   6.813   1.041   4.955 -0.5854  0.4787  0.0612
  604MOL0     C83247   6.829   0.965   5.075 -0.0327 -0.3378 -0.6381
  604MOL0     C83248   6.920   0.858   5.081  0.4092  0.1197 -0.3388
  604MOL0     C83249   6.997   0.834   4.968 -0.2896  0.1927 -0.1170
  604MOL0     O83250   7.074   0.717   4.963 -0.6870  0.7149 -0.1564
  604MOL0     C83251   7.207   0.726   4.918  0.3528 -0.2259 -0.3494
  604MOL0     C83252   7.226   0.639   4.795 -0.2144  0.2394  0.3374
  604MOL0     C83253   7.180   0.489   4.804 -0.3190  0.3999 -0.0226
  604MOL0     C83254   7.231   0.395   4.687  0.4940  0.7121  0.8237
  604MOL0     C83255   7.204   0.249   4.738  0.2910  0.2045  1.0839
  604MOL0     C83256   7.229   0.159   4.616 -0.0686 -0.5966  0.6336
  604MOL0     C83257   7.206   0.011   4.655  0.3969 -0.3596  0.0213
  604MOL0     C83258   7.238  -0.085   4.538  0.3142  0.4124  0.9629
  604MOL0    Cl83259   7.129  -0.069   4.395 -0.0985 -0.7264  0.2451
  604MOL0     C83260   6.996   0.921   4.860 -0.1418  1.0639 -0.4721
  604MOL0     C83261   6.902   1.020   4.852  0.0455 -0.4337  0.3455
  604MOL0     O83262   6.550   0.995   4.988 -0.0466 -0.8005 -0.1985
  604MOL0     C83263   6.367   1.191   4.960  0.0050 -0.4579 -0.4796
  604MOL0     C83264   6.274   1.296   4.975  0.8467  0.7234 -0.1728
  604MOL0     N83265   6.017   1.819   5.417 -0.4385  0.1462 -0.4851
  604MOL0     N83266   5.991   1.808   5.545 -0.9077 -0.7575  0.5279
  604MOL0     C83267   5.044   2.235   5.785  1.0974  0.0883 -0.5589
  604MOL0     C83268   4.916   2.178   5.782  0.9486  0.6649 -0.7935
  604MOL0     C83269   4.484   2.064   5.614 -0.5730 -0.1516 -0.2077
  604MOL0     C83270   4.519   1.934   5.627  0.4574 -0.1734 -0.5652
  604MOL0     C83271   4.424   1.832   5.605  0.2477  0.0699  0.1358
  604MOL0     C83272   4.285   1.868   5.574 -0.9011  0.4030  0.0067
  604MOL0     O83273   4.182   1.771   5.573  0.1344  0.1073  0.4086
  604MOL0     C83274   4.172   1.709   5.704 -0.5598 -1.1102  0.1904
  604MOL0     C83275   4.042   1.628   5.718 -0.1119 -0.4926  0.5663
  604MOL0     C83276   4.046   1.543   5.844 -0.5097  0.5193  0.7329
  604MOL0     C83277   3.907   1.481   5.874 -0.0122  0.0234  0.2836
  604MOL0     C83278   3.851   1.416   5.751 -0.2282  0.0657 -0.3836
  604MOL0     C83279   3.797   1.358   5.656  0.7681 -0.5121 -0.7614
  604MOL0     C83280   4.253   1.996   5.569  0.1200  0.2640  0.0017
  604MOL0     C83281   4.351   2.102   5.582 -0.0252  0.9056  0.5550
  604MOL0     C83282   4.304   2.241   5.565 -0.5065  0.3101 -0.3579
  604MOL0     H83283   4.808   2.302   5.485 -1.1048  0.9384  0.1591
  604MOL0     H83284   5.024   2.410   5.491  1.2900 -1.1343 -0.2307
  604MOL0     H83285   5.233   2.443   5.487 -0.2874  0.0802 -0.9637
  604MOL0     H83286   5.284   2.278   5.507 -0.4134  0.5626  0.2567
  604MOL0     H83287   5.490   2.417   5.493  1.4939 -2.9624  0.4230
  604MOL0     H83288   5.426   2.524   5.614  4.0730  1.2258 -1.1670
  604MOL0     H83289   5.596   2.365   5.723  0.3293  0.3543  2.0139
  604MOL0     H83290   5.431   2.301   5.769  1.7051  2.3450  0.2401
  604MOL0     H83291   5.429   2.142   5.610 -0.9812  2.8122  0.0552
  604MOL0     H83292   5.578   2.212   5.539 -4.4028 -0.0014 -3.6099
  604MOL0     H83293   5.532   2.058   5.804 -0.5764 -2.0172 -2.0920
  604MOL0     H83294   5.684   2.149   5.790 -0.6175  1.8666 -0.6388
  604MOL0     H83295   5.577   1.927   5.609  0.2342 -1.6339 -0.5133
  604MOL0     H83296   5.723   2.016   5.580  0.3879 -2.2020 -0.1228
  604MOL0     H83297   5.639   1.846   5.817  0.4189 -0.7730 -0.6077
  604MOL0     H83298   5.798   1.922   5.820  1.3791  2.5681 -1.4328
  604MOL0     H83299   5.822   1.684   5.737  0.6789  0.2380  0.9132
  604MOL0     H83300   5.681   1.720   5.624 -0.0974  2.6539 -1.4784
  604MOL0     H83301   5.706   1.725   5.411 -0.3708  1.0989 -2.1659
  604MOL0     H83302   5.955   1.854   5.153  2.1540 -1.8012 -1.0749
  604MOL0     H83303   5.796   1.769   5.153  0.6794  2.3606 -3.4366
  604MOL0     H83304   6.066   1.642   5.216 -0.3767  1.6983 -0.2458
  604MOL0     H83305   5.914   1.557   5.180 -0.3283 -1.0924 -2.3417
  604MOL0     H83306   5.924   1.646   4.954  1.5224 -2.0968 -0.9451
  604MOL0     H83307   6.081   1.726   4.987 -1.8086  2.0027  0.1415
  604MOL0     H83308   6.047   1.430   5.057  0.6154 -1.2577 -1.5199
  604MOL0     H83309   6.070   1.482   4.888 -0.7707 -0.8507 -0.0115
  604MOL0     H83310   6.457   1.532   5.123  0.1519  1.0298 -1.4242
  604MOL0     H83311   6.737   1.363   5.004 -1.0628  1.0397 -0.1355
  604MOL0     H83312   6.717   1.286   5.166  2.3111  1.3422  1.5623
  604MOL0     H83313   6.686   1.458   5.154 -0.8031 -0.7868  1.7228
  604MOL0     H83314   6.782   1.007   5.164  1.0549 -3.0563  1.3371
  604MOL0     H83315   6.927   0.787   5.162 -0.4773  0.1753 -0.2035
  604MOL0     H83316   7.246   0.826   4.898  1.5178 -0.3037  1.2845
  604MOL0     H83317   7.274   0.693   4.999  0.9923  0.4850 -0.5805
  604MOL0     H83318   7.175   0.692   4.715  0.5818 -0.3719 -0.5904
  604MOL0     H83319   7.333   0.636   4.775 -0.3896 -2.1607 -0.4965
  604MOL0     H83320   7.072   0.474   4.816 -0.0049 -1.1646  1.1735
  604MOL0     H83321   7.230   0.450   4.893 -2.0085 -0.6501  0.5169
  604MOL0     H83322   7.338   0.411   4.671  0.4727 -0.4167 -0.7672
  604MOL0     H83323   7.181   0.411   4.591 -1.8519 -1.2706  1.6173
  604MOL0     H83324   7.263   0.227   4.828 -0.0627 -2.9526  0.6584
  604MOL0     H83325   7.098   0.238   4.763  0.5932 -5.2167  1.1123
  604MOL0     H83326   7.329   0.178   4.576 -0.9026  2.1689 -0.3602
  604MOL0     H83327   7.160   0.187   4.536  0.9985  1.0304  0.2395
  604MOL0     H83328   7.104   0.007   4.693  0.7092  4.2182  2.0589
  604MOL0     H83329   7.276  -0.023   4.732 -0.0565  0.5239  0.8532
  604MOL0     H83330   7.233  -0.185   4.583 -1.0498  0.2425  0.4864
  604MOL0     H83331   7.338  -0.078   4.494 -1.1282  2.4685 -2.4039
  604MOL0     H83332   7.047   0.897   4.768 -2.1728 -1.1702 -1.1206
  604MOL0     H83333   6.888   1.077   4.761  0.9637 -2.2045 -0.9691
  604MOL0     H83334   6.341   1.098   4.910 -0.3003  0.5102 -2.2235
  604MOL0     H83335   6.172   1.275   4.945  1.3259  1.0687 -2.1751
  604MOL0     H83336   5.118   2.227   5.864 -0.1698  3.0510  1.1041
  604MOL0     H83337   4.870   2.110   5.854 -0.5754 -0.3614 -2.6435
  604MOL0     H83338   4.621   1.904   5.647  0.9411  1.4159 -0.4919
  604MOL0     H83339   4.450   1.727   5.614 -2.6604 -0.8703 -1.0921
  604MOL0     H83340   4.253   1.638   5.726  0.4005  0.2277  1.1591
  604MOL0     H83341   4.177   1.787   5.779  2.3342 -0.0452 -0.9362
  604MOL0     H83342   4.023   1.564   5.631  1.6696  0.4185 -0.5629
  604MOL0     H83343   3.965   1.706   5.715  1.4172  1.0633 -0.4395
  604MOL0     H83344   4.123   1.468   5.823 -0.3412  0.7688  0.4564
  604MOL0     H83345   4.079   1.619   5.915 -2.0616  1.2968  0.6670
  604MOL0     H83346   3.832   1.552   5.913 -2.3758 -0.1445 -3.4745
  604MOL0     H83347   3.927   1.400   5.945 -3.5245  0.4353  1.9632
  604MOL0     H83348   3.767   1.310   5.564 -1.9998 -2.0792  0.8163
  604MOL0     H83349   4.153   2.031   5.544  0.4615  2.2475  1.1257
  604MOL0     H83350   4.301   2.262   5.458  3.4066  3.2647 -0.1034
  604MOL0     H83351   4.200   2.238   5.601 -0.5273 -2.1461 -0.4542
  604MOL0     H83352   4.360   2.324   5.609 -1.3604  1.5637 -1.5544
  605MOL0     O83353   9.779   9.254   7.590  0.2361  0.3440 -0.6534
  605MOL0     C83354   9.805   9.366   7.611  0.2923 -0.8629 -0.1856
  605MOL0     O83355   9.928   9.426   7.585  0.1538  0.4549  0.6178
  605MOL0     C83356  10.032   9.334   7.552 -0.4905 -0.0690  0.7062
  605MOL0     C83357  10.111   9.271   7.650 -0.1186  0.1984  0.5651
  605MOL0     C83358  10.217   9.183   7.608 -1.4550 -0.7587  0.7418
  605MOL0     C83359  10.238   9.149   7.473  1.0509  0.3808 -0.4264
  605MOL0     O83360  10.321   9.054   7.428 -0.2580 -0.1332  0.0069
  605MOL0     C83361  10.426   9.021   7.516 -0.1406  0.1084  0.2328
  605MOL0     C83362  10.524   9.141   7.540 -0.9089 -0.3426 -0.5350
  605MOL0     C83363  10.567   9.221   7.413  0.3985 -0.6472 -0.6158
  605MOL0     C83364  10.693   9.310   7.451  0.2546  0.5351 -0.3019
  605MOL0     C83365  10.748   9.371   7.331 -0.5694 -0.0028  0.2365
  605MOL0     C83366  10.870   9.458   7.378  0.1899 -0.2317 -0.7309
  605MOL0     C83367  10.938   9.516   7.264 -0.1569  0.3060  0.6775
  605MOL0     C83368  11.077   9.588   7.297 -0.8429 -0.2470  1.0291
  605MOL0     N83369  11.187   9.518   7.226 -0.0430 -0.5046 -0.2105
  605MOL0     C83370  11.221   9.385   7.238 -0.6063  0.1488  0.0233
  605MOL0     C83371  11.318   9.359   7.153  0.8001 -1.1538  0.4651
  605MOL0     C83372  11.396   9.234   7.143 -0.2449 -1.0228 -0.2246
  605MOL0     C83373  11.541   9.241   7.202  0.2333 -0.0980  0.1106
  605MOL0     C83374  11.642   9.131   7.163  0.3410  0.0097  0.8195
  605MOL0     C83375  11.692   9.156   7.017 -0.8749 -0.2017 -0.0593
  605MOL0     O83376  11.768   9.042   6.974 -0.2330 -0.6757 -0.4976
  605MOL0     C83377  11.903   9.030   6.971 -0.0133  0.0445  0.6778
  605MOL0     C83378  11.960   8.959   6.857 -0.0343 -0.5780  0.4473
  605MOL0     C83379  12.098   8.938   6.849 -0.1492  0.0315  0.3219
  605MOL0     C83380  12.143   8.854   6.733  0.3945 -0.6146 -0.1731
  605MOL0     C83381  12.184   8.982   6.955 -0.5500  0.0897  0.0005
  605MOL0     C83382  12.336   8.953   6.948 -0.2204 -0.2854  0.0559
  605MOL0     O83383  12.380   8.880   6.845  0.1483 -0.6338 -0.1086
  605MOL0     C83384  12.519   8.888   6.831  0.6464 -0.0606  0.2622
  605MOL0     C83385  12.594   8.831   6.933 -0.9910  0.3052  0.6833
  605MOL0     C83386  12.725   8.819   6.920  0.4628  0.4613  0.5646
  605MOL0     C83387  12.793   8.866   6.805 -0.2119  0.1989  0.1716
  605MOL0     O83388  12.928   8.852   6.782 -0.4413 -0.6009  0.7483
  605MOL0     C83389  13.009   8.780   6.878  0.2497  0.2029  0.4845
  605MOL0     C83390  13.149   8.773   6.826 -0.5504 -0.6257  0.0047
  605MOL0     C83391  13.231   8.649   6.871  0.1738 -0.6489  0.1825
  605MOL0     C83392  13.373   8.649   6.804 -0.7384  0.5257 -0.2271
  605MOL0     C83393  13.460   8.521   6.821  0.1589 -0.0233  0.1410
  605MOL0     C83394  13.404   8.394   6.752  0.1949 -0.0092 -0.1742
  605MOL0     C83395  13.482   8.284   6.822 -0.8266  0.7869 -0.9025
  605MOL0     C83396  13.430   8.144   6.778  0.1913  0.9202  0.4914
  605MOL0    Cl83397  13.435   8.151   6.591  0.2122  0.4696  0.7077
  605MOL0     C83398  12.722   8.928   6.699  0.2151 -0.0224  0.4421
  605MOL0     C83399  12.579   8.946   6.720  0.4061  0.1279 -0.6848
  605MOL0     O83400  12.400   8.996   7.040  0.8811 -0.6396 -0.5422
  605MOL0     C83401  12.122   9.053   7.064  0.0010 -0.0898  0.9548
  605MOL0     C83402  11.986   9.086   7.063 -1.2609  0.0327  0.1843
  605MOL0     N83403  11.344   9.475   7.080 -0.4657 -0.8394 -0.3469
  605MOL0     N83404  11.255   9.562   7.119 -0.2235 -0.4671  0.1726
  605MOL0     C83405  10.145   9.209   7.382 -0.3398  0.1012  0.1118
  605MOL0     C83406  10.049   9.300   7.423  0.5386 -0.0066  0.4067
  605MOL0     C83407   9.702   9.450   7.680  0.0132  0.5056 -0.1792
  605MOL0     C83408   9.566   9.439   7.654  0.3252 -0.2379  0.4968
  605MOL0     C83409   9.469   9.513   7.705  0.5604 -0.0220  0.5110
  605MOL0     C83410   9.498   9.608   7.794 -0.0946 -0.4136 -1.7857
  605MOL0     O83411   9.399   9.695   7.827  0.9481 -0.0950  0.3653
  605MOL0     C83412   9.418   9.826   7.882  1.0671 -0.3667  0.0631
  605MOL0     C83413   9.292   9.908   7.898 -0.0395 -0.2826 -1.5595
  605MOL0     C83414   9.195   9.865   8.003  0.3763  0.7153 -0.2037
  605MOL0     C83415   9.052   9.851   7.941 -0.6551  1.0910 -0.4098
  605MOL0     C83416   8.975   9.972   7.903  0.0582 -0.1110 -0.3808
  605MOL0     C83417   8.915  10.070   7.887  0.5464 -0.5155 -0.2297
  605MOL0     C83418   9.635   9.628   7.831  0.2522  0.3538 -0.4453
  605MOL0     C83419   9.742   9.552   7.774 -0.1248 -0.1817  0.5609
  605MOL0     C83420   9.875   9.592   7.819 -0.3224  0.1335 -0.4712
  605MOL0     H83421  10.090   9.305   7.751 -0.2960 -1.5864  1.1521
  605MOL0     H83422  10.280   9.151   7.691 -0.1817  1.0745  0.5599
  605MOL0     H83423  10.496   8.944   7.483  2.9206  1.4032  3.1762
  605MOL0     H83424  10.381   8.979   7.606  0.3053 -0.7671  0.0614
  605MOL0     H83425  10.478   9.220   7.601  1.6523  1.8957 -1.2913
  605MOL0     H83426  10.606   9.099   7.598 -0.0308 -0.4894 -1.8534
  605MOL0     H83427  10.595   9.149   7.335  3.9057 -0.1497 -0.0135
  605MOL0     H83428  10.488   9.292   7.388  1.4118  0.8496  0.2514
  605MOL0     H83429  10.666   9.389   7.522 -0.8564  0.1325 -0.2495
  605MOL0     H83430  10.766   9.240   7.493 -1.6061 -0.1317  2.0873
  605MOL0     H83431  10.682   9.435   7.273 -1.2562  0.1696  1.1946
  605MOL0     H83432  10.783   9.289   7.268  2.0231  0.8497  0.4256
  605MOL0     H83433  10.832   9.534   7.446  0.3550 -2.1002  1.5815
  605MOL0     H83434  10.947   9.402   7.433 -1.1850 -0.9215  0.5652
  605MOL0     H83435  10.871   9.586   7.213  0.2580 -1.2889 -2.3080
  605MOL0     H83436  10.954   9.446   7.181  0.7108 -0.1996  1.2485
  605MOL0     H83437  11.070   9.689   7.255  4.1647  0.7542  1.8700
  605MOL0     H83438  11.091   9.607   7.404  4.2507 -0.5176  0.6622
  605MOL0     H83439  11.175   9.313   7.305 -3.3802  2.1785  0.4768
  605MOL0     H83440  11.401   9.204   7.038  0.6052  0.2568 -0.5802
  605MOL0     H83441  11.346   9.158   7.204  1.8637 -0.2439  2.7345
  605MOL0     H83442  11.579   9.342   7.185 -1.4466  0.7659  1.1836
  605MOL0     H83443  11.522   9.233   7.309 -1.0728  0.0749 -0.0872
  605MOL0     H83444  11.723   9.117   7.235  0.7192  0.0784  0.4083
  605MOL0     H83445  11.585   9.037   7.165  2.1908 -1.1884 -0.0557
  605MOL0     H83446  11.624   9.191   6.938  1.9447  1.5793 -1.8965
  605MOL0     H83447  11.765   9.237   7.026 -1.6551  0.3499  1.6752
  605MOL0     H83448  11.890   8.926   6.781  0.7107  3.7186 -2.4598
  605MOL0     H83449  12.223   8.905   6.680  0.9002  0.1297  1.2635
  605MOL0     H83450  12.058   8.843   6.664  1.5481 -0.4521 -1.6632
  605MOL0     H83451  12.161   8.752   6.769 -0.3024 -0.8969 -0.5951
  605MOL0     H83452  12.548   8.795   7.025 -2.9141  3.7544  1.2479
  605MOL0     H83453  12.778   8.764   6.998 -1.1793 -2.5265 -0.2818
  605MOL0     H83454  13.013   8.833   6.974 -0.7386  2.4565 -0.6247
  605MOL0     H83455  12.969   8.679   6.881  1.3384 -0.4160 -2.3218
  605MOL0     H83456  13.144   8.765   6.717 -2.3372 -0.8356  0.0676
  605MOL0     H83457  13.196   8.867   6.854  0.5607 -0.7550 -1.3045
  605MOL0     H83458  13.179   8.555   6.850  2.2673 -1.3245 -2.6174
  605MOL0     H83459  13.243   8.651   6.979  2.1938 -1.7128  0.0268
  605MOL0     H83460  13.436   8.722   6.855 -0.6773  0.5178 -0.2930
  605MOL0     H83461  13.348   8.662   6.698 -0.7639 -5.0110 -1.2182
  605MOL0     H83462  13.562   8.536   6.784 -0.5240  0.5703 -1.5692
  605MOL0     H83463  13.475   8.507   6.929  1.7243 -0.0073 -0.0487
  605MOL0     H83464  13.432   8.402   6.647 -0.6296 -1.0826 -0.5011
  605MOL0     H83465  13.296   8.385   6.765  0.4456 -0.0757  2.5724
  605MOL0     H83466  13.480   8.292   6.932  1.1100  0.9628 -0.8482
  605MOL0     H83467  13.586   8.288   6.788  0.0256  0.6696  1.4383
  605MOL0     H83468  13.328   8.119   6.809 -0.0176  1.1041 -0.0364
  605MOL0     H83469  13.500   8.063   6.801 -1.2475 -0.4392  0.2795
  605MOL0     H83470  12.770   8.964   6.608 -1.8850 -1.3371 -1.2897
  605MOL0     H83471  12.525   9.002   6.645 -0.8913 -1.8441 -1.3007
  605MOL0     H83472  12.180   9.082   7.151 -1.2161 -0.4506  1.9044
  605MOL0     H83473  11.941   9.149   7.139  1.1944 -1.5005  3.0739
  605MOL0     H83474  10.160   9.186   7.277 -1.7756  0.6697 -0.2460
  605MOL0     H83475   9.975   9.338   7.353  2.1788  1.1704 -0.7582
  605MOL0     H83476   9.525   9.375   7.575 -1.4668 -0.0678  1.2368
  605MOL0     H83477   9.365   9.507   7.675  0.0160  3.2346  1.4076
  605MOL0     H83478   9.466   9.821   7.981  2.2105  0.3072 -0.4312
  605MOL0     H83479   9.485   9.888   7.821 -0.2154  2.6881  1.5310
  605MOL0     H83480   9.243   9.921   7.801 -0.0670  0.3430 -1.4615
  605MOL0     H83481   9.331  10.009   7.913  0.1686 -0.5168 -0.4895
  605MOL0     H83482   9.232   9.770   8.045  0.0264  1.7173  2.6337
  605MOL0     H83483   9.195   9.939   8.084  1.2844  0.7807 -0.2556
  605MOL0     H83484   8.984   9.793   8.005  0.9813  0.2482  0.6105
  605MOL0     H83485   9.058   9.793   7.849 -0.7363  2.3422 -1.2259
  605MOL0     H83486   8.861  10.162   7.889 -0.3770 -1.0078  2.7163
  605MOL0     H83487   9.646   9.711   7.900 -4.0652  1.8932 -1.3299
  605MOL0     H83488   9.916   9.645   7.732  1.8818  0.6552  0.7978
  605MOL0     H83489   9.859   9.660   7.903 -0.3444  0.2917 -0.6039
  605MOL0     H83490   9.942   9.511   7.851  0.2280  0.9772  0.5798
  606MOL0     O83491   8.829  10.035   4.364  0.0654 -0.5569 -0.3360
  606MOL0     C83492   8.783  10.142   4.337  0.4457 -0.1606 -0.1450
  606MOL0     O83493   8.839  10.236   4.258 -0.4602 -0.4128  0.0469
  606MOL0     C83494   8.961  10.232   4.186  0.1221  0.3535 -0.0488
  606MOL0     C83495   9.053  10.120   4.169  0.1597 -0.0323 -0.2086
  606MOL0     C83496   9.169  10.146   4.095  0.0633  0.1686  0.0781
  606MOL0     C83497   9.204  10.273   4.050  1.1313 -0.4948 -0.1500
  606MOL0     O83498   9.330  10.279   3.995  0.2322 -0.1289 -0.0526
  606MOL0     C83499   9.378  10.400   3.932  0.6924  0.3668  0.2648
  606MOL0     C83500   9.526  10.388   3.905 -0.0390  0.5515  1.0571
  606MOL0     C83501   9.541  10.276   3.799 -0.0479 -1.0303 -0.2125
  606MOL0     C83502   9.687  10.277   3.737  0.3604  0.2584  0.3250
  606MOL0     C83503   9.695  10.191   3.609 -0.3363  0.2966  0.6557
  606MOL0     C83504   9.742  10.048   3.621 -0.3677 -0.0743  0.1871
  606MOL0     C83505   9.895  10.038   3.645  0.6706  0.4271 -0.0225
  606MOL0     C83506   9.974  10.025   3.517  1.1907 -0.2633 -0.4453
  606MOL0     N83507  10.116  10.012   3.541  0.1226 -0.1476  0.9737
  606MOL0     C83508  10.212  10.084   3.492 -0.2916 -0.3092 -0.2157
  606MOL0     C83509  10.322  10.055   3.554  0.2614  1.1135  0.6069
  606MOL0     C83510  10.459  10.109   3.528  0.0033  0.3729  0.0564
  606MOL0     C83511  10.560  10.001   3.482 -0.7335  0.3547  0.8076
  606MOL0     C83512  10.685  10.070   3.422 -0.9296 -0.4647  0.3387
  606MOL0     C83513  10.803   9.976   3.396 -0.4712  0.3767 -0.4958
  606MOL0     O83514  10.865   9.933   3.521  0.0159 -0.2009  0.0688
  606MOL0     C83515  11.002   9.909   3.512  0.0386 -0.0643  0.3207
  606MOL0     C83516  11.060   9.835   3.418  0.0031 -0.0820 -0.0371
  606MOL0     C83517  11.199   9.821   3.401  1.1798 -0.5138 -0.8113
  606MOL0     C83518  11.246   9.763   3.269  0.7836  0.4984 -0.2881
  606MOL0     C83519  11.281   9.877   3.499  0.4801 -0.0343 -0.5885
  606MOL0     C83520  11.428   9.877   3.492  0.0965 -0.7011 -0.3307
  606MOL0     O83521  11.493   9.995   3.529 -0.1072 -0.1059 -0.1950
  606MOL0     C83522  11.628   9.980   3.558 -0.6521 -0.1321  0.3705
  606MOL0     C83523  11.683   9.968   3.684 -0.6451  0.1272  0.0249
  606MOL0     C83524  11.823   9.971   3.708  0.2537 -0.0612  0.0006
  606MOL0     C83525  11.908   9.988   3.592  0.1874 -0.0505  0.0757
  606MOL0     O83526  12.045   9.986   3.605 -0.1575 -0.5276 -0.6473
  606MOL0     C83527  12.131   9.968   3.495  0.0111  0.1825 -0.4745
  606MOL0     C83528  12.268   9.963   3.565  0.8783  0.4037 -0.5932
  606MOL0     C83529  12.387  10.001   3.473  0.3375  0.1672  0.0957
  606MOL0     C83530  12.511  10.016   3.566  0.6249 -0.6595  0.4716
  606MOL0     C83531  12.640  10.040   3.488  0.1679 -1.1934 -0.1704
  606MOL0     C83532  12.685   9.914   3.411  0.2037  0.4200  0.0396
  606MOL0     C83533  12.741   9.791   3.489 -0.9941  0.2413 -0.4870
  606MOL0     C83534  12.891   9.806   3.513 -0.7587 -0.4651  0.1870
  606MOL0    Cl83535  13.001   9.791   3.366  0.4680  0.4469  0.4066
  606MOL0     C83536  11.849   9.998   3.464 -0.4015  0.1410 -0.4799
  606MOL0     C83537  11.714   9.988   3.447 -0.4701 -1.0838  0.1614
  606MOL0     O83538  11.482   9.766   3.463  0.4854  0.2059 -0.0558
  606MOL0     C83539  11.226   9.946   3.605  0.4105  0.0362 -0.1488
  606MOL0     C83540  11.087   9.963   3.609  0.2489  0.0374 -0.4637
  606MOL0     N83541  10.294   9.950   3.645 -1.3618  0.1607  0.0090
  606MOL0     N83542  10.169   9.934   3.641  0.4173  0.3067 -0.2481
  606MOL0     C83543   9.110  10.374   4.062  0.7701 -1.3095 -0.3609
  606MOL0     C83544   8.985  10.351   4.120 -0.1331 -0.3516  0.4424
  606MOL0     C83545   8.642  10.169   4.386 -0.1503 -0.3120  0.5893
  606MOL0     C83546   8.571  10.283   4.349 -0.7823 -0.1139  0.0504
  606MOL0     C83547   8.449  10.310   4.412 -0.6795 -0.2886  0.5784
  606MOL0     C83548   8.377  10.231   4.496  0.6395  0.4818  0.5953
  606MOL0     O83549   8.257  10.277   4.547 -0.5691 -0.2135 -0.1968
  606MOL0     C83550   8.179  10.192   4.621 -0.4101  0.0507 -0.2462
  606MOL0     C83551   8.048  10.258   4.659  0.1335  0.4490  0.0979
  606MOL0     C83552   7.957  10.283   4.533 -0.0406  0.5875  0.0691
  606MOL0     C83553   7.819  10.222   4.537  0.3645  0.1298  0.4138
  606MOL0     C83554   7.744  10.280   4.432  0.9493 -0.7915 -0.0059
  606MOL0     C83555   7.675  10.319   4.336 -0.1855  0.2885  0.7841
  606MOL0     C83556   8.438  10.118   4.530  0.3840 -0.2004  0.1263
  606MOL0     C83557   8.570  10.085   4.489  0.2092  0.3060 -0.1015
  606MOL0     C83558   8.627   9.955   4.546  0.1728 -0.0967  0.2536
  606MOL0     H83559   9.026  10.028   4.220 -1.8646  1.3826  1.4578
  606MOL0     H83560   9.243  10.068   4.078  0.6564 -0.1451  3.3490
  606MOL0     H83561   9.371  10.481   4.005 -1.9572 -0.6855  1.3180
  606MOL0     H83562   9.324  10.423   3.839  1.5514  1.9183  0.1169
  606MOL0     H83563   9.573  10.478   3.866 -0.1060 -0.5222 -1.6969
  606MOL0     H83564   9.575  10.346   3.993  0.0570 -2.3562 -0.2558
  606MOL0     H83565   9.515  10.185   3.853 -0.7927 -1.1354 -0.7301
  606MOL0     H83566   9.466  10.287   3.719 -0.9556  3.8450  0.9528
  606MOL0     H83567   9.713  10.379   3.708  2.8860 -0.0128  1.3279
  606MOL0     H83568   9.757  10.246   3.815 -2.5413 -0.7862  2.7061
  606MOL0     H83569   9.768  10.245   3.548  0.9918  0.6985  2.5073
  606MOL0     H83570   9.603  10.198   3.551  0.0636 -2.2784 -0.3838
  606MOL0     H83571   9.680  10.000   3.697  0.2920 -2.0617 -0.4880
  606MOL0     H83572   9.723   9.996   3.527 -0.8753 -0.5138  0.5288
  606MOL0     H83573   9.905   9.956   3.717  0.1159  1.6754  1.5321
  606MOL0     H83574   9.923  10.129   3.698 -0.1412 -0.0478  1.2539
  606MOL0     H83575   9.957   9.925   3.475  2.2182 -0.1048 -1.2945
  606MOL0     H83576   9.942  10.108   3.453  0.6692  0.1772  0.3809
  606MOL0     H83577  10.192  10.155   3.413 -1.4329 -0.3599  0.0073
  606MOL0     H83578  10.494  10.161   3.618  1.5667  1.5779 -1.1641
  606MOL0     H83579  10.447  10.199   3.467  0.7522  0.8837  0.6424
  606MOL0     H83580  10.590   9.939   3.568  1.3120 -0.8843 -0.7197
  606MOL0     H83581  10.511   9.934   3.412  1.7879 -0.7249 -0.0440
  606MOL0     H83582  10.662  10.116   3.326 -0.8297 -1.2060 -0.0431
  606MOL0     H83583  10.730  10.142   3.492 -1.1419  0.3699 -0.3694
  606MOL0     H83584  10.768   9.885   3.346 -3.5822  0.0063  2.0094
  606MOL0     H83585  10.867  10.040   3.335 -1.4097  2.3452  0.5041
  606MOL0     H83586  10.984   9.800   3.348 -0.2723  2.8000 -1.3378
  606MOL0     H83587  11.282   9.843   3.205  0.1175  0.6633 -0.4654
  606MOL0     H83588  11.160   9.713   3.223  1.0247 -0.6885  0.4910
  606MOL0     H83589  11.320   9.683   3.281  0.4119  0.1648 -0.1817
  606MOL0     H83590  11.621   9.951   3.771  1.3868 -1.5809  1.2386
  606MOL0     H83591  11.865   9.965   3.807  1.3451  0.6098 -0.4085
  606MOL0     H83592  12.106   9.878   3.438  2.7477 -0.4173 -0.8901
  606MOL0     H83593  12.131  10.054   3.427  2.0579 -1.1115 -2.2405
  606MOL0     H83594  12.264  10.042   3.641 -0.6248  2.4874 -2.6922
  606MOL0     H83595  12.285   9.867   3.615 -0.7215  0.2774 -0.2607
  606MOL0     H83596  12.364  10.093   3.419 -0.5131  1.3438  2.3057
  606MOL0     H83597  12.404   9.920   3.402  0.8918 -0.6382  1.1282
  606MOL0     H83598  12.520   9.941   3.645 -1.5312 -0.1416  1.2726
  606MOL0     H83599  12.489  10.107   3.623  0.3316  0.7235 -1.7184
  606MOL0     H83600  12.636  10.128   3.424  0.6891  0.5071  1.9960
  606MOL0     H83601  12.718  10.059   3.562  1.5276 -3.7805 -0.7894
  606MOL0     H83602  12.756   9.956   3.340 -1.2195 -0.2132 -1.8473
  606MOL0     H83603  12.602   9.869   3.355 -0.0788 -0.8599  1.4165
  606MOL0     H83604  12.732   9.702   3.426  3.8962  0.1955 -1.4752
  606MOL0     H83605  12.689   9.785   3.585  3.1111  3.9941  2.3937
  606MOL0     H83606  12.929   9.726   3.578  0.0461  1.1090  1.7374
  606MOL0     H83607  12.912   9.900   3.563  1.1257  0.5616 -2.3149
  606MOL0     H83608  11.900  10.018   3.371 -1.2344  0.8252 -0.8016
  606MOL0     H83609  11.670  10.006   3.349 -1.4277  1.3633  0.9561
  606MOL0     H83610  11.279   9.991   3.689  0.7153  1.2784 -0.9639
  606MOL0     H83611  11.051  10.011   3.700 -2.9985 -3.2938  0.2698
  606MOL0     H83612   9.119  10.477   4.030 -1.2055 -0.2236  2.2210
  606MOL0     H83613   8.917  10.435   4.132  0.2469 -0.1313  1.0810
  606MOL0     H83614   8.618  10.353   4.280 -0.1855 -0.8108 -0.2601
  606MOL0     H83615   8.397  10.404   4.397  2.1536  0.9184 -3.2122
  606MOL0     H83616   8.151  10.100   4.569  0.4408 -1.3375  1.6438
  606MOL0     H83617   8.234  10.156   4.708 -1.3145 -1.5598 -0.3032
  606MOL0     H83618   8.056  10.355   4.710 -2.7354  1.4103 -1.0427
  606MOL0     H83619   8.007  10.194   4.737  1.0036 -2.2113 -1.5024
  606MOL0     H83620   7.935  10.387   4.509 -1.9933  0.3058  0.5075
  606MOL0     H83621   7.999  10.240   4.441 -0.3373  0.3159  0.0585
  606MOL0     H83622   7.774  10.258   4.630  1.7296  1.1361  0.7167
  606MOL0     H83623   7.806  10.114   4.530 -2.5072  0.2308  2.3091
  606MOL0     H83624   7.625  10.360   4.251 -1.2847 -0.0923  1.2272
  606MOL0     H83625   8.399  10.053   4.608  2.2925 -0.2187  1.1350
  606MOL0     H83626   8.580   9.925   4.640  1.3761 -2.0241  0.3071
  606MOL0     H83627   8.635   9.878   4.469  4.9007  1.6869 -1.3827
  606MOL0     H83628   8.732   9.980   4.567 -0.6223  2.2816  1.7745
  607MOL0     O83629   0.426  10.965   0.926 -0.4689  0.5603  1.0356
  607MOL0     C83630   0.335  10.947   1.003 -0.0476 -0.4229 -0.1266
  607MOL0     O83631   0.264  11.044   1.065  0.6067  0.8814 -0.0181
  607MOL0     C83632   0.245  11.171   1.010  0.9698  0.3495 -0.2383
  607MOL0     C83633   0.257  11.205   0.872 -0.1463 -0.1377  0.1030
  607MOL0     C83634   0.240  11.327   0.826  0.5980 -0.4596 -0.4004
  607MOL0     C83635   0.223  11.437   0.907 -0.0816  0.3883 -0.8612
  607MOL0     O83636   0.197  11.558   0.848  0.3606 -0.0965  0.6972
  607MOL0     C83637   0.315  11.605   0.781 -0.2684 -0.1350 -0.7942
  607MOL0     C83638   0.417  11.662   0.885 -1.0691 -0.4051 -0.1988
  607MOL0     C83639   0.542  11.732   0.828 -0.0251  0.3527 -0.3217
  607MOL0     C83640   0.618  11.831   0.914  0.4257  0.7049 -1.1046
  607MOL0     C83641   0.716  11.899   0.809 -0.5911  0.4104 -0.4512
  607MOL0     C83642   0.806  12.004   0.872  0.5695 -0.4479 -0.1441
  607MOL0     C83643   0.884  12.083   0.781 -0.7565 -1.7856 -0.7014
  607MOL0     C83644   0.994  12.163   0.855 -0.2918  0.3292 -0.1076
  607MOL0     N83645   1.039  12.270   0.766  0.0453 -0.1986  0.2251
  607MOL0     C83646   1.091  12.260   0.639  0.7898 -0.8594  0.3843
  607MOL0     C83647   1.138  12.382   0.606 -0.1095 -0.6169  0.4342
  607MOL0     C83648   1.229  12.421   0.485  0.5256  0.5851 -0.6432
  607MOL0     C83649   1.373  12.392   0.528  0.3301 -0.6052 -0.1903
  607MOL0     C83650   1.471  12.460   0.429 -0.6234  0.8529 -0.3703
  607MOL0     C83651   1.626  12.437   0.450 -0.1119 -0.3578  0.3842
  607MOL0     O83652   1.652  12.302   0.494  0.3978  0.3296 -0.2336
  607MOL0     C83653   1.775  12.285   0.533 -0.0633 -0.3086  0.2305
  607MOL0     C83654   1.880  12.242   0.442 -0.8749 -0.4976 -0.5443
  607MOL0     C83655   2.016  12.223   0.471  0.1661  0.8004  0.3498
  607MOL0     C83656   2.111  12.159   0.371 -0.2411 -0.3737 -0.8766
  607MOL0     C83657   2.044  12.253   0.610  0.0563 -0.0285  0.3878
  607MOL0     C83658   2.186  12.262   0.651  1.2490  0.0267  0.0513
  607MOL0     O83659   2.293  12.288   0.560  0.0281  0.2307 -0.1121
  607MOL0     C83660   2.427  12.279   0.592 -0.0890  1.0262 -0.3992
  607MOL0     C83661   2.486  12.195   0.693 -0.0016  0.3522  0.3124
  607MOL0     C83662   2.621  12.172   0.713 -0.1639  0.0685 -0.5696
  607MOL0     C83663   2.710  12.239   0.634  0.1008  0.0526  0.8238
  607MOL0     O83664   2.843  12.219   0.638  0.0117  0.3504  0.1913
  607MOL0     C83665   2.894  12.086   0.654 -0.3416 -0.5367  0.2335
  607MOL0     C83666   2.990  12.091   0.773  0.1448 -0.0095 -0.4450
  607MOL0     C83667   3.130  12.117   0.729 -0.2973 -0.2571 -0.6684
  607MOL0     C83668   3.222  12.108   0.856  0.4228  0.6094  0.3165
  607MOL0     C83669   3.359  12.161   0.814 -0.0770 -0.0122  0.0903
  607MOL0     C83670   3.474  12.154   0.923 -0.0014 -0.3709  0.0060
  607MOL0     C83671   3.493  12.045   1.018 -0.3567  0.4816 -0.5391
  607MOL0     C83672   3.606  12.080   1.119 -0.4822 -0.7334 -0.1673
  607MOL0    Cl83673   3.650  11.942   1.220 -0.1214  0.2320  0.2729
  607MOL0     C83674   2.666  12.330   0.545  0.7213  0.1233  0.0939
  607MOL0     C83675   2.521  12.354   0.528  0.0422  0.4722  1.8035
  607MOL0     O83676   2.195  12.244   0.773 -0.9667  0.2880  0.3694
  607MOL0     C83677   1.935  12.275   0.704 -0.3464 -0.6660  0.1425
  607MOL0     C83678   1.808  12.307   0.663  0.6107  0.6738  0.5078
  607MOL0     N83679   1.104  12.471   0.711  0.5959  0.3249  0.3312
  607MOL0     N83680   1.054  12.404   0.805 -0.5093  0.0689  0.0356
  607MOL0     C83681   0.224  11.403   1.052 -0.0043  0.1839  0.6459
  607MOL0     C83682   0.226  11.273   1.097  0.5965  0.0569 -0.6217
  607MOL0     C83683   0.321  10.818   1.073  0.2576 -0.2093  0.6899
  607MOL0     C83684   0.430  10.755   1.145  0.0865 -0.0577  0.0111
  607MOL0     C83685   0.420  10.634   1.210 -0.0832 -0.0671 -0.1563
  607MOL0     C83686   0.289  10.572   1.208 -0.4975 -0.0093 -0.0965
  607MOL0     O83687   0.265  10.452   1.272  0.6109  0.6813  0.0721
  607MOL0     C83688   0.323  10.428   1.402 -0.6526  0.0807 -0.2508
  607MOL0     C83689   0.296  10.289   1.452 -0.1114 -0.2621  0.0862
  607MOL0     C83690   0.369  10.273   1.593 -0.8256 -0.2476  0.3223
  607MOL0     C83691   0.281  10.316   1.719 -0.2222 -0.0337  0.7217
  607MOL0     C83692   0.158  10.236   1.723  0.2372 -0.1727  0.7774
  607MOL0     C83693   0.056  10.177   1.729  0.9555 -0.3500  0.1810
  607MOL0     C83694   0.180  10.634   1.156 -0.6839 -0.5537  0.9391
  607MOL0     C83695   0.197  10.754   1.083  0.2766  0.9205  0.2451
  607MOL0     C83696   0.067  10.823   1.036  0.8158  0.4418 -0.4305
  607MOL0     H83697   0.266  11.127   0.797 -0.4623  1.8604 -2.1492
  607MOL0     H83698   0.250  11.345   0.720 -0.5101  0.9012 -0.3045
  607MOL0     H83699   0.278  11.693   0.726  0.9378  0.3014 -0.9311
  607MOL0     H83700   0.351  11.536   0.704  0.2702  0.3591 -0.9902
  607MOL0     H83701   0.363  11.744   0.933 -0.5274  0.9936 -1.8492
  607MOL0     H83702   0.458  11.596   0.962 -1.3870 -0.0695  0.2609
  607MOL0     H83703   0.618  11.655   0.815  0.5138  0.2913  2.4821
  607MOL0     H83704   0.511  11.777   0.733  3.9469 -0.0948 -2.0404
  607MOL0     H83705   0.559  11.915   0.951  0.5232 -0.0440  0.8706
  607MOL0     H83706   0.670  11.773   0.992  1.4095 -0.4176 -2.5484
  607MOL0     H83707   0.659  11.953   0.732  1.0501  0.2841 -1.8204
  607MOL0     H83708   0.779  11.826   0.757 -0.7013 -1.0876  1.4353
  607MOL0     H83709   0.749  12.075   0.932 -0.6399 -0.2565 -1.4416
  607MOL0     H83710   0.873  11.942   0.931  1.9305 -1.4547 -2.5900
  607MOL0     H83711   0.825  12.153   0.721  2.3157 -1.2458 -3.3998
  607MOL0     H83712   0.935  12.020   0.708  0.3134 -2.0555  0.2466
  607MOL0     H83713   0.951  12.209   0.944  1.4353  3.9902 -0.9616
  607MOL0     H83714   1.078  12.099   0.881 -0.1509  0.7781  0.5498
  607MOL0     H83715   1.112  12.172   0.579  2.1709  0.3283 -0.9375
  607MOL0     H83716   1.223  12.525   0.453  3.0129  0.2914 -2.3311
  607MOL0     H83717   1.210  12.360   0.396 -2.5686  0.3443  0.0759
  607MOL0     H83718   1.399  12.428   0.628 -1.1703 -1.6486  0.5988
  607MOL0     H83719   1.397  12.285   0.530  3.1647 -0.0706 -0.5413
  607MOL0     H83720   1.444  12.433   0.326 -1.6551  0.4922 -0.0217
  607MOL0     H83721   1.454  12.567   0.438 -1.5166  0.9929 -2.9093
  607MOL0     H83722   1.676  12.455   0.355  0.1306  0.5110  0.6627
  607MOL0     H83723   1.665  12.511   0.521  0.2503 -1.4731  1.3722
  607MOL0     H83724   1.847  12.223   0.341 -1.9864  1.0812 -0.5295
  607MOL0     H83725   2.058  12.119   0.285  2.8865  0.2300 -3.2829
  607MOL0     H83726   2.155  12.067   0.410 -4.2271 -1.6889  1.0855
  607MOL0     H83727   2.187  12.231   0.337 -0.3023 -0.2658 -0.7888
  607MOL0     H83728   2.418  12.148   0.764  0.8178  0.6663  1.3240
  607MOL0     H83729   2.660  12.100   0.785 -2.4830 -1.8715 -1.1300
  607MOL0     H83730   2.805  12.024   0.672 -1.6061  1.6064  1.8713
  607MOL0     H83731   2.946  12.057   0.562 -2.3215 -0.9061 -0.8389
  607MOL0     H83732   2.947  12.160   0.846  0.7642  1.8547 -1.7705
  607MOL0     H83733   2.976  11.999   0.830 -1.8872  0.4869 -0.0775
  607MOL0     H83734   3.138  12.220   0.695  0.9544 -0.4095 -0.8868
  607MOL0     H83735   3.161  12.051   0.648 -4.3298 -0.2418 -2.4487
  607MOL0     H83736   3.220  12.005   0.893  1.0352  0.6740  0.5282
  607MOL0     H83737   3.192  12.175   0.937  1.5252  2.3163 -0.6207
  607MOL0     H83738   3.391  12.092   0.735  0.2657  0.4967 -0.2230
  607MOL0     H83739   3.353  12.258   0.764  2.7783  0.7781  1.0666
  607MOL0     H83740   3.460  12.243   0.985  1.4100  0.2146 -0.4913
  607MOL0     H83741   3.572  12.163   0.876  2.3220 -0.7378  4.3600
  607MOL0     H83742   3.529  11.953   0.971 -0.5646  0.9671 -1.6922
  607MOL0     H83743   3.401  12.031   1.075 -0.8610  0.4784 -1.3375
  607MOL0     H83744   3.575  12.161   1.186 -0.7488 -0.9457 -0.0341
  607MOL0     H83745   3.689  12.121   1.060  2.5472 -1.2886  3.2955
  607MOL0     H83746   2.739  12.386   0.489  2.2933 -0.2593  1.6617
  607MOL0     H83747   2.481  12.411   0.445  0.4785  1.3792  2.2086
  607MOL0     H83748   1.966  12.284   0.808 -0.2627  2.5258 -0.0566
  607MOL0     H83749   1.734  12.343   0.735  0.0312  0.9231 -0.2024
  607MOL0     H83750   0.208  11.475   1.132  0.1238  0.9007  0.0427
  607MOL0     H83751   0.211  11.238   1.199 -2.8453 -0.4487 -1.1824
  607MOL0     H83752   0.527  10.802   1.139  0.5365 -0.6945  1.7436
  607MOL0     H83753   0.507  10.609   1.271 -1.0553  0.5018  1.5113
  607MOL0     H83754   0.429  10.453   1.391 -0.6979  0.1181 -0.6269
  607MOL0     H83755   0.297  10.495   1.485  3.7061 -0.0530  1.4860
  607MOL0     H83756   0.338  10.221   1.377  0.9432 -0.6127  0.9639
  607MOL0     H83757   0.193  10.254   1.454  0.7681 -3.1250 -0.2826
  607MOL0     H83758   0.409  10.172   1.605 -1.8756 -0.8159 -0.7705
  607MOL0     H83759   0.461  10.333   1.593  0.5934 -1.9845 -4.4769
  607MOL0     H83760   0.266  10.424   1.718  0.1838  0.0333  1.4004
  607MOL0     H83761   0.336  10.303   1.812 -0.2423 -1.0787  0.6047
  607MOL0     H83762  -0.028  10.113   1.744  2.5182 -2.7836 -0.8352
  607MOL0     H83763   0.084  10.585   1.168 -0.3243 -0.8085  3.2178
  607MOL0     H83764   0.060  10.925   1.074 -1.2920 -0.2663  1.2956
  607MOL0     H83765   0.069  10.826   0.927 -1.3205  0.1794 -0.5226
  607MOL0     H83766  -0.021  10.770   1.073 -0.3890  2.1221 -0.7829
  608MOL0     O83767   2.861   3.048   7.665 -0.1643  0.0236 -0.2051
  608MOL0     C83768   2.807   2.952   7.603  0.2052 -0.5119  0.3083
  608MOL0     O83769   2.866   2.831   7.579 -0.5600 -0.1037  0.3164
  608MOL0     C83770   2.995   2.823   7.611  0.1268 -0.9326 -0.5416
  608MOL0     C83771   3.093   2.817   7.507  0.1285 -0.4188  0.5872
  608MOL0     C83772   3.226   2.801   7.535  0.3063  0.1120  0.2213
  608MOL0     C83773   3.268   2.794   7.664 -0.8513 -0.4533 -0.1268
  608MOL0     O83774   3.399   2.785   7.711  0.0063  0.2148 -0.2229
  608MOL0     C83775   3.510   2.805   7.622 -0.1168  0.3028 -0.3738
  608MOL0     C83776   3.583   2.937   7.651  0.9021  0.4082  0.7208
  608MOL0     C83777   3.514   3.068   7.614 -0.1661  0.2510  0.8622
  608MOL0     C83778   3.505   3.089   7.462 -0.3231  0.0552  1.0278
  608MOL0     C83779   3.441   3.218   7.415 -0.6174  0.4681  0.4044
  608MOL0     C83780   3.301   3.254   7.467  0.0238  0.7946  0.0317
  608MOL0     C83781   3.205   3.166   7.384 -0.0482 -0.2252 -0.2071
  608MOL0     C83782   3.058   3.182   7.439 -0.1769 -0.1408 -1.0729
  608MOL0     N83783   2.965   3.153   7.327  0.6012  0.2952  0.7717
  608MOL0     C83784   2.917   3.248   7.239 -1.0590  0.0033  0.1505
  608MOL0     C83785   2.861   3.180   7.132  0.1157 -0.1922 -0.7421
  608MOL0     C83786   2.804   3.227   6.999 -0.6237  0.2663 -0.4606
  608MOL0     C83787   2.904   3.290   6.908  0.1509 -0.8806 -1.0475
  608MOL0     C83788   3.021   3.191   6.884 -0.4806 -0.2734  0.1141
  608MOL0     C83789   3.147   3.262   6.817  0.3827 -0.0396 -0.1428
  608MOL0     O83790   3.173   3.374   6.898  0.4095  0.2479  0.4592
  608MOL0     C83791   3.293   3.428   6.896 -0.3904  0.1468  0.7098
  608MOL0     C83792   3.344   3.455   7.019 -1.0617  0.5893 -0.0593
  608MOL0     C83793   3.471   3.519   7.029  0.2536  0.0676  0.2354
  608MOL0     C83794   3.506   3.538   7.178  0.2632  0.2798 -0.9495
  608MOL0     C83795   3.542   3.559   6.914  0.4339 -0.2874  0.5937
  608MOL0     C83796   3.659   3.646   6.912 -1.0577 -0.3610 -0.2623
  608MOL0     O83797   3.696   3.710   6.795  0.5815  0.0454  0.8275
  608MOL0     C83798   3.807   3.780   6.804 -0.2473 -0.6713  0.4395
  608MOL0     C83799   3.926   3.734   6.760 -0.1145 -0.2599  0.4316
  608MOL0     C83800   4.056   3.797   6.775  0.7555 -0.5276 -0.3775
  608MOL0     C83801   4.047   3.928   6.829  0.0726 -0.5932 -0.3340
  608MOL0     O83802   4.159   3.998   6.854  0.3208  0.1220 -0.6150
  608MOL0     C83803   4.236   4.033   6.740 -0.0548  0.2311  0.2315
  608MOL0     C83804   4.350   4.122   6.793  0.7496 -0.0537 -0.5092
  608MOL0     C83805   4.445   4.172   6.688  0.1956 -0.5059  0.7395
  608MOL0     C83806   4.536   4.057   6.644 -0.3694  0.0283  0.9739
  608MOL0     C83807   4.642   4.106   6.550  0.3992 -0.1775  0.0453
  608MOL0     C83808   4.732   3.981   6.519 -0.2476 -1.0710  0.1892
  608MOL0     C83809   4.864   4.028   6.446  0.1837  0.1281  0.1421
  608MOL0     C83810   4.954   4.110   6.529  0.4993  0.0428  0.4251
  608MOL0    Cl83811   5.011   4.018   6.676 -0.1760 -0.0447 -0.3223
  608MOL0     C83812   3.920   3.975   6.878  0.5656 -0.8188  0.4861
  608MOL0     C83813   3.803   3.913   6.853  1.0531 -0.1878 -0.2670
  608MOL0     O83814   3.732   3.628   7.006 -0.5792  0.5365 -0.2282
  608MOL0     C83815   3.484   3.532   6.795 -0.0256 -1.2145 -0.0664
  608MOL0     C83816   3.361   3.470   6.780  0.0136 -1.0586  0.9869
  608MOL0     N83817   2.870   3.048   7.161  0.0982  0.9111 -0.0722
  608MOL0     N83818   2.928   3.029   7.276 -0.0555  0.6064 -1.3378
  608MOL0     C83819   3.174   2.808   7.766  0.1705  0.4837 -0.2458
  608MOL0     C83820   3.035   2.816   7.744 -0.3482  0.1155 -0.6842
  608MOL0     C83821   2.674   2.971   7.546  0.4412  0.1221  0.3229
  608MOL0     C83822   2.618   2.861   7.489  0.3446 -0.0507  0.2654
  608MOL0     C83823   2.494   2.859   7.421  0.4342 -0.1895  0.5476
  608MOL0     C83824   2.416   2.975   7.411 -1.0084  0.0457  0.4909
  608MOL0     O83825   2.306   2.994   7.334 -0.1117 -0.1001 -0.1732
  608MOL0     C83826   2.256   2.885   7.253  0.8121  1.2559  0.1347
  608MOL0     C83827   2.114   2.896   7.223  1.6019  0.2685  0.2830
  608MOL0     C83828   2.066   2.774   7.138  0.6032 -0.0107  0.6250
  608MOL0     C83829   1.918   2.803   7.092 -0.9172  0.3443  0.3759
  608MOL0     C83830   1.907   2.796   6.950  1.0354 -0.4978  1.2373
  608MOL0     C83831   1.888   2.794   6.828  0.1035  0.5752 -0.4931
  608MOL0     C83832   2.467   3.085   7.471  0.0338  0.9450 -0.5422
  608MOL0     C83833   2.593   3.083   7.531 -0.3344  0.2177 -0.3204
  608MOL0     C83834   2.636   3.210   7.594  0.3637  0.0963 -0.1524
  608MOL0     H83835   3.060   2.829   7.404 -1.0651  2.0019  1.1777
  608MOL0     H83836   3.294   2.782   7.453  0.9403  1.3289  0.4463
  608MOL0     H83837   3.489   2.795   7.515  0.7977 -1.6809 -0.4134
  608MOL0     H83838   3.579   2.727   7.655  1.2433  0.7600 -2.0008
  608MOL0     H83839   3.616   2.943   7.755 -0.3259  1.2610  1.0934
  608MOL0     H83840   3.670   2.933   7.586 -0.0285  3.6362 -0.9709
  608MOL0     H83841   3.413   3.064   7.655  0.3582 -1.0403  2.1171
  608MOL0     H83842   3.579   3.142   7.661  0.5061 -0.4657  1.0862
  608MOL0     H83843   3.604   3.075   7.417 -0.5055 -1.3945  1.0329
  608MOL0     H83844   3.452   2.997   7.438 -1.8188  0.8731  1.1016
  608MOL0     H83845   3.437   3.224   7.306  2.1743 -3.5468 -0.1550
  608MOL0     H83846   3.515   3.291   7.448  0.6458  0.0300 -1.3439
  608MOL0     H83847   3.278   3.233   7.572 -2.6336 -1.6016 -0.8801
  608MOL0     H83848   3.282   3.360   7.453  1.0152  0.9463 -0.2450
  608MOL0     H83849   3.244   3.065   7.391  1.7760  0.4156 -0.6476
  608MOL0     H83850   3.208   3.197   7.279 -0.7009  4.7458  0.9942
  608MOL0     H83851   3.054   3.101   7.512  1.4164 -0.1172 -0.9139
  608MOL0     H83852   3.040   3.283   7.477 -1.5135 -0.9586  0.6078
  608MOL0     H83853   2.925   3.356   7.250 -2.6413  0.1569 -0.0209
  608MOL0     H83854   2.733   3.309   7.018 -0.2878  0.1430  1.5777
  608MOL0     H83855   2.750   3.147   6.949 -2.2972  1.8298 -1.2869
  608MOL0     H83856   2.855   3.315   6.813 -3.0634 -0.2212  0.6504
  608MOL0     H83857   2.947   3.382   6.948  1.0273 -0.9966 -1.6970
  608MOL0     H83858   3.059   3.152   6.979  0.7806  2.5609  0.8808
  608MOL0     H83859   2.981   3.106   6.828 -0.5509 -1.0436  1.2947
  608MOL0     H83860   3.231   3.193   6.827 -0.4199 -0.8661  1.1877
  608MOL0     H83861   3.135   3.288   6.711  0.1785  0.9495  0.1068
  608MOL0     H83862   3.300   3.411   7.109  1.6950 -0.4137  0.9071
  608MOL0     H83863   3.551   3.637   7.191  0.7152  0.2856 -2.3532
  608MOL0     H83864   3.572   3.459   7.216  0.1828  0.8687  0.4677
  608MOL0     H83865   3.419   3.536   7.243  0.5886 -3.7816 -0.3602
  608MOL0     H83866   3.920   3.629   6.733 -2.0303  0.5616 -2.7890
  608MOL0     H83867   4.151   3.764   6.736  1.3841  0.7334  0.0217
  608MOL0     H83868   4.292   3.946   6.703  0.4988 -0.6933  2.9714
  608MOL0     H83869   4.164   4.079   6.672 -3.5082 -1.7810  2.2203
  608MOL0     H83870   4.312   4.210   6.847  2.2594  2.4643 -3.2509
  608MOL0     H83871   4.396   4.072   6.879  1.3018 -4.7993 -3.2593
  608MOL0     H83872   4.501   4.255   6.731 -2.7882  1.6280  0.8480
  608MOL0     H83873   4.395   4.211   6.599  0.3603 -2.7658 -0.4184
  608MOL0     H83874   4.483   3.974   6.597  2.1761 -0.2482 -1.6984
  608MOL0     H83875   4.596   4.026   6.730  4.3597 -0.1885 -1.9934
  608MOL0     H83876   4.599   4.142   6.456 -0.3806  1.4877  0.9734
  608MOL0     H83877   4.693   4.188   6.602  2.0309 -0.5978 -0.8474
  608MOL0     H83878   4.676   3.917   6.451 -1.5015 -1.8765  1.9116
  608MOL0     H83879   4.763   3.928   6.609  0.5346 -2.7536 -1.0235
  608MOL0     H83880   4.841   4.090   6.359 -1.5377  0.9679  1.1540
  608MOL0     H83881   4.923   3.947   6.401  2.1320  2.0784 -0.9741
  608MOL0     H83882   4.918   4.210   6.554  1.0406  0.3964 -0.1466
  608MOL0     H83883   5.048   4.128   6.475  0.6254 -1.8340 -0.0523
  608MOL0     H83884   3.910   4.073   6.923 -0.5887 -2.1864  3.4558
  608MOL0     H83885   3.707   3.961   6.870 -1.3554 -4.4143 -0.5232
  608MOL0     H83886   3.532   3.573   6.706  0.0848 -1.1342  0.0293
  608MOL0     H83887   3.334   3.459   6.675  0.1118  3.2343  0.3269
  608MOL0     H83888   3.216   2.805   7.866  0.0439  2.9628 -0.0365
  608MOL0     H83889   2.961   2.820   7.823 -1.2908  0.6423 -1.5668
  608MOL0     H83890   2.666   2.764   7.488  0.6644  0.0617  1.8718
  608MOL0     H83891   2.456   2.763   7.386  0.5084 -1.3656  3.3952
  608MOL0     H83892   2.301   2.883   7.153 -2.1998  2.9555 -1.4158
  608MOL0     H83893   2.268   2.794   7.312 -3.9661  0.9285  0.9942
  608MOL0     H83894   2.093   2.985   7.163 -0.2272 -0.3643 -0.0957
  608MOL0     H83895   2.057   2.895   7.316  1.8043 -3.2103  0.4957
  608MOL0     H83896   2.127   2.768   7.048  0.6558 -1.0566  0.7143
  608MOL0     H83897   2.075   2.677   7.187  3.6456  0.4378  1.1458
  608MOL0     H83898   1.889   2.905   7.117 -0.4918  0.8165 -0.9814
  608MOL0     H83899   1.855   2.736   7.152 -1.0616 -0.8595 -1.0549
  608MOL0     H83900   1.868   2.798   6.723  1.2496 -0.3326 -0.7691
  608MOL0     H83901   2.409   3.176   7.471 -0.7795  0.4351 -1.0957
  608MOL0     H83902   2.656   3.193   7.700 -2.5723 -0.8200  0.3560
  608MOL0     H83903   2.728   3.237   7.542  0.6333 -0.6339 -0.0731
  608MOL0     H83904   2.563   3.291   7.592 -2.1103 -1.7723  3.2089
  609MOL0     O83905   2.731  10.823   0.606 -1.0622 -0.2352  0.2621
  609MOL0     C83906   2.713  10.778   0.719 -0.7995  0.9202  0.0155
  609MOL0     O83907   2.807  10.693   0.785  0.1506 -0.5675 -0.0808
  609MOL0     C83908   2.938  10.685   0.739 -1.0499  0.5788 -0.2682
  609MOL0     C83909   3.012  10.567   0.748  0.2775 -0.1773 -0.8036
  609MOL0     C83910   3.150  10.572   0.732  0.7870  0.4128 -0.0085
  609MOL0     C83911   3.218  10.678   0.677 -0.1138 -0.2357  1.0089
  609MOL0     O83912   3.354  10.675   0.647 -0.9889  0.4879 -0.6102
  609MOL0     C83913   3.448  10.639   0.750  0.3540  0.4942  0.6421
  609MOL0     C83914   3.575  10.612   0.666 -0.1513 -0.1093  0.0528
  609MOL0     C83915   3.634  10.744   0.615 -0.0173 -1.2306  0.0880
  609MOL0     C83916   3.760  10.709   0.535 -0.2566 -0.2201 -0.3251
  609MOL0     C83917   3.826  10.816   0.470  0.0677  0.5283 -0.3084
  609MOL0     C83918   3.961  10.770   0.405  0.1974  0.1416  0.6938
  609MOL0     C83919   4.026  10.881   0.316  0.0400  0.2774 -0.8327
  609MOL0     C83920   4.175  10.899   0.314  1.0372 -1.1771 -0.3016
  609MOL0     N83921   4.252  10.777   0.288  0.2990  0.0936  0.2529
  609MOL0     C83922   4.328  10.762   0.177  0.2523 -0.1537  0.2124
  609MOL0     C83923   4.424  10.672   0.203 -0.3479 -0.2500 -0.8483
  609MOL0     C83924   4.522  10.603   0.115 -0.4056  0.0058  0.2301
  609MOL0     C83925   4.666  10.658   0.134 -0.6263  0.5657  0.8615
  609MOL0     C83926   4.686  10.810   0.132  0.2684  0.1962  0.6036
  609MOL0     C83927   4.832  10.854   0.138 -0.1469  0.5814 -0.3350
  609MOL0     O83928   4.897  10.833   0.264 -0.5103  0.1420  0.5057
  609MOL0     C83929   5.036  10.852   0.278  0.2281 -0.0137  0.0280
  609MOL0     C83930   5.109  10.895   0.168  0.5750 -0.3551 -0.1590
  609MOL0     C83931   5.247  10.917   0.185  0.3506 -0.3370 -0.1780
  609MOL0     C83932   5.325  10.963   0.059  0.0559  0.0844 -0.9196
  609MOL0     C83933   5.308  10.898   0.312 -0.5714 -0.4181 -0.4332
  609MOL0     C83934   5.451  10.899   0.323 -0.5574 -0.4807  0.4010
  609MOL0     O83935   5.510  10.794   0.395  0.6999  0.2296 -0.0376
  609MOL0     C83936   5.648  10.795   0.390 -0.0763 -0.3005  0.0443
  609MOL0     C83937   5.715  10.767   0.278  0.1683  0.5158 -0.2528
  609MOL0     C83938   5.858  10.769   0.277 -0.5030  0.4771 -0.0804
  609MOL0     C83939   5.935  10.787   0.398  1.0761  0.0945 -0.8157
  609MOL0     O83940   6.070  10.793   0.410 -0.1382  0.5315  0.2747
  609MOL0     C83941   6.137  10.872   0.314  0.2657  0.5055 -0.1980
  609MOL0     C83942   6.289  10.851   0.332  0.0226  0.1723  0.6739
  609MOL0     C83943   6.343  10.711   0.292 -0.9154 -0.0122 -0.7376
  609MOL0     C83944   6.494  10.708   0.269 -0.4883 -0.1879  0.3139
  609MOL0     C83945   6.566  10.809   0.363 -0.8497  0.3349 -0.9405
  609MOL0     C83946   6.724  10.803   0.355  0.4356  0.7797  0.2364
  609MOL0     C83947   6.767  10.655   0.372 -0.1525 -1.2108 -0.7862
  609MOL0     C83948   6.912  10.642   0.398  0.2246 -0.3608 -0.0520
  609MOL0    Cl83949   7.002  10.714   0.265 -0.0502 -0.5081  0.3496
  609MOL0     C83950   5.861  10.800   0.515 -0.1689  0.0877  1.0656
  609MOL0     C83951   5.718  10.802   0.511 -1.1928  0.4624  0.2639
  609MOL0     O83952   5.509  11.002   0.294 -0.5798 -0.1574 -0.2387
  609MOL0     C83953   5.229  10.852   0.418  0.3763 -0.1564 -0.2971
  609MOL0     C83954   5.090  10.828   0.402 -0.7195 -0.4190  0.1272
  609MOL0     N83955   4.410  10.633   0.338  0.1032 -0.0442  0.7553
  609MOL0     N83956   4.310  10.703   0.385  0.0583 -0.5330  0.6723
  609MOL0     C83957   3.151  10.803   0.667 -0.0478 -0.6740 -0.3202
  609MOL0     C83958   3.007  10.805   0.706 -0.2426 -0.3633  1.2374
  609MOL0     C83959   2.592  10.813   0.795  0.3091  0.0103 -0.8611
  609MOL0     C83960   2.575  10.760   0.924  0.2150 -0.1371  0.0089
  609MOL0     C83961   2.457  10.785   1.002  0.2226 -0.5913 -0.1447
  609MOL0     C83962   2.353  10.857   0.956 -0.2058 -0.3583 -0.8897
  609MOL0     O83963   2.244  10.873   1.045  0.1548  0.2693 -1.2796
  609MOL0     C83964   2.115  10.905   0.983  0.5339  0.9808  0.0985
  609MOL0     C83965   2.002  10.899   1.092 -0.3178 -0.3234  0.6056
  609MOL0     C83966   1.864  10.908   1.033  0.2374  0.0062  0.2227
  609MOL0     C83967   1.827  11.056   1.016  0.5588 -0.1890 -0.0194
  609MOL0     C83968   1.680  11.060   0.998  0.6441  0.5887  1.1022
  609MOL0     C83969   1.562  11.059   0.979 -0.2991 -1.3360  0.9035
  609MOL0     C83970   2.364  10.909   0.825 -0.2671 -0.3299 -0.6058
  609MOL0     C83971   2.479  10.882   0.743 -0.7651  0.0434  0.6451
  609MOL0     C83972   2.487  10.969   0.619 -0.1398  0.0258  0.3910
  609MOL0     H83973   2.972  10.478   0.795  1.9065 -0.0775  0.9044
  609MOL0     H83974   3.196  10.481   0.769  1.4447  0.5169 -0.5544
  609MOL0     H83975   3.417  10.553   0.810 -1.3482 -1.9532 -3.3128
  609MOL0     H83976   3.466  10.727   0.813 -0.4380  1.2991 -0.2095
  609MOL0     H83977   3.654  10.575   0.733 -1.5405  1.8431  2.9888
  609MOL0     H83978   3.551  10.546   0.582  2.5972  1.2973 -1.9986
  609MOL0     H83979   3.566  10.796   0.547  0.8404 -1.6025 -1.1076
  609MOL0     H83980   3.662  10.816   0.692  2.4174  1.6775 -3.1948
  609MOL0     H83981   3.833  10.668   0.606  0.9557  1.4425 -0.5435
  609MOL0     H83982   3.739  10.629   0.463  1.6673 -0.3898 -0.7608
  609MOL0     H83983   3.850  10.899   0.538 -0.1450  2.7326 -2.7672
  609MOL0     H83984   3.755  10.857   0.398 -2.1245 -1.6109  0.4864
  609MOL0     H83985   4.036  10.731   0.474 -0.1526 -2.0613 -0.1093
  609MOL0     H83986   3.938  10.687   0.338 -1.4847  0.8796  0.3055
  609MOL0     H83987   3.978  10.979   0.330  1.3982  1.0210 -1.2237
  609MOL0     H83988   3.992  10.847   0.217 -2.0163  0.1189 -0.1246
  609MOL0     H83989   4.187  10.976   0.236 -3.1371  0.9324  0.8104
  609MOL0     H83990   4.203  10.939   0.412 -1.8031 -2.0942  0.9733
  609MOL0     H83991   4.302  10.825   0.092  0.5848  1.7218  1.4246
  609MOL0     H83992   4.495  10.611   0.009 -0.4634  1.0437  0.3074
  609MOL0     H83993   4.519  10.497   0.141  1.1595 -0.1115  0.0487
  609MOL0     H83994   4.722  10.611   0.215  0.3407 -0.5176 -0.3895
  609MOL0     H83995   4.710  10.616   0.042 -0.5390 -2.2167  2.0770
  609MOL0     H83996   4.639  10.851   0.042 -0.5300 -1.4308  0.2505
  609MOL0     H83997   4.629  10.857   0.213 -1.5421  2.0571 -1.5916
  609MOL0     H83998   4.896  10.807   0.062 -0.1052 -0.5772  0.3825
  609MOL0     H83999   4.833  10.958   0.104  0.0999  0.5087 -0.5606
  609MOL0     H84000   5.070  10.913   0.068 -0.4562  0.9887  0.4526
  609MOL0     H84001   5.337  11.071   0.061  1.5423 -0.0618  0.8051
  609MOL0     H84002   5.275  10.936  -0.035  1.5132  0.6533 -1.8926
  609MOL0     H84003   5.425  10.920   0.070 -0.0168  0.2095  0.4430
  609MOL0     H84004   5.659  10.760   0.185 -0.5034  2.4322 -0.0418
  609MOL0     H84005   5.912  10.760   0.184  2.7510 -0.9761  1.7729
  609MOL0     H84006   6.127  10.844   0.208  3.2990 -0.5735 -0.3043
  609MOL0     H84007   6.102  10.975   0.323  2.8303  1.5996 -1.7185
  609MOL0     H84008   6.343  10.934   0.283  1.1965 -2.0666 -2.1087
  609MOL0     H84009   6.315  10.872   0.436  0.8735 -1.2525  0.7754
  609MOL0     H84010   6.299  10.683   0.196  1.1500  0.7786 -1.9938
  609MOL0     H84011   6.319  10.646   0.376  0.0598  0.9509  0.3188
  609MOL0     H84012   6.520  10.736   0.166 -2.4240  0.2717 -0.0976
  609MOL0     H84013   6.524  10.607   0.296 -0.3860  0.0837  1.2350
  609MOL0     H84014   6.545  10.915   0.349  2.7127  1.3899  0.5337
  609MOL0     H84015   6.537  10.782   0.465  0.5773  0.6996 -0.4010
  609MOL0     H84016   6.773  10.858   0.436  1.0854  0.9026 -0.2339
  609MOL0     H84017   6.755  10.834   0.255  0.9501 -1.8895 -0.5273
  609MOL0     H84018   6.744  10.586   0.289 -0.9820 -0.7749 -0.9319
  609MOL0     H84019   6.708  10.621   0.458 -0.9209 -2.9304 -1.9286
  609MOL0     H84020   6.950  10.541   0.422  1.6820  0.7466  2.8211
  609MOL0     H84021   6.935  10.700   0.487 -2.4764 -1.0540  1.2055
  609MOL0     H84022   5.916  10.796   0.609  3.3917  3.5047 -0.5899
  609MOL0     H84023   5.661  10.811   0.603  0.6533  0.8152  1.4214
  609MOL0     H84024   5.266  10.827   0.517 -0.1900  1.1000  0.2587
  609MOL0     H84025   5.026  10.788   0.481 -0.7231 -1.9790 -0.6138
  609MOL0     H84026   3.207  10.889   0.633 -0.0742 -1.3733 -2.2769
  609MOL0     H84027   2.947  10.895   0.698  4.9684  3.7252  2.4058
  609MOL0     H84028   2.653  10.701   0.971 -0.8132 -0.2334  1.6541
  609MOL0     H84029   2.452  10.750   1.105  0.8927 -2.9256 -0.8415
  609MOL0     H84030   2.120  11.006   0.940  0.5592  0.6371 -0.7365
  609MOL0     H84031   2.093  10.831   0.905 -0.0918 -0.8745  1.9547
  609MOL0     H84032   2.016  10.979   1.165  2.6733  1.4847 -1.7128
  609MOL0     H84033   2.005  10.802   1.143 -0.8264 -1.6471 -1.7745
  609MOL0     H84034   1.850  10.855   0.939  1.6302 -1.0692  0.5939
  609MOL0     H84035   1.794  10.862   1.103  1.8174  1.6607  3.0721
  609MOL0     H84036   1.888  11.091   0.932  2.3447  2.8599  2.3050
  609MOL0     H84037   1.853  11.117   1.104  0.3595 -1.9604  1.3153
  609MOL0     H84038   1.459  11.055   0.949 -0.0129  0.5773 -0.5475
  609MOL0     H84039   2.279  10.968   0.793  1.1077  3.0836  1.4306
  609MOL0     H84040   2.535  10.914   0.538  2.2614 -0.3027  1.9394
  609MOL0     H84041   2.385  10.996   0.588 -0.0278  1.1237  0.9421
  609MOL0     H84042   2.548  11.057   0.641 -0.5359  0.4425 -0.1283
  610MOL0     O84043   6.859   6.554   9.944  0.8473  0.0400 -0.2581
  610MOL0     C84044   6.805   6.510   9.838 -0.2863 -0.1634 -1.2177
  610MOL0     O84045   6.872   6.472   9.725  0.6507  0.2665 -0.2839
  610MOL0     C84046   6.999   6.513   9.707  0.1804 -0.0116  0.0501
  610MOL0     C84047   7.090   6.418   9.661 -0.4107  0.3326 -0.2120
  610MOL0     C84048   7.227   6.460   9.635  0.7322  0.2653  0.3285
  610MOL0     C84049   7.270   6.591   9.646  0.4676 -0.0302 -0.4745
  610MOL0     O84050   7.395   6.630   9.610  0.3482 -0.0580 -0.8759
  610MOL0     C84051   7.415   6.773   9.597  0.4801 -0.4851  0.2845
  610MOL0     C84052   7.546   6.807   9.539  0.1229  0.0573 -0.1821
  610MOL0     C84053   7.560   6.962   9.537  0.0052  0.1485 -0.0190
  610MOL0     C84054   7.686   6.995   9.446  0.8261  0.6210 -0.0014
  610MOL0     C84055   7.709   7.141   9.430  0.2854 -0.7461  0.6907
  610MOL0     C84056   7.833   7.168   9.337 -0.0787  0.0402 -0.0953
  610MOL0     C84057   7.961   7.096   9.391  0.4672 -0.0669 -0.1978
  610MOL0     C84058   8.092   7.115   9.314  0.6769 -0.4377 -0.2857
  610MOL0     N84059   8.210   7.140   9.392  0.0506  0.5853 -0.6729
  610MOL0     C84060   8.243   7.052   9.485  0.2982  0.3655 -0.3582
  610MOL0     C84061   8.356   7.112   9.544 -0.0649 -0.3886 -0.2227
  610MOL0     C84062   8.435   7.059   9.661 -0.7027  0.9129  0.3639
  610MOL0     C84063   8.515   7.179   9.724  0.6615  0.5925 -0.7306
  610MOL0     C84064   8.567   7.147   9.865 -0.2856  0.5827 -0.5000
  610MOL0     C84065   8.605   7.273   9.942 -0.6712  0.3960  0.9334
  610MOL0     O84066   8.682   7.362   9.868  0.0647 -0.3906  0.4181
  610MOL0     C84067   8.820   7.354   9.893 -0.9819 -0.3771 -0.5390
  610MOL0     C84068   8.866   7.384  10.019 -0.5491 -0.2284 -0.0373
  610MOL0     C84069   9.009   7.390  10.049  0.6188  0.8985  0.5083
  610MOL0     C84070   9.060   7.435  10.184 -0.2224 -0.1167 -0.1677
  610MOL0     C84071   9.104   7.357   9.940 -0.9719  0.3867  0.0354
  610MOL0     C84072   9.256   7.355   9.956  1.0679 -0.5473  0.8070
  610MOL0     O84073   9.313   7.325   9.838 -0.1274 -0.4978  0.2330
  610MOL0     C84074   9.446   7.328   9.837 -1.0591 -0.1980  0.2812
  610MOL0     C84075   9.520   7.217   9.866  0.0948 -0.5861  0.5607
  610MOL0     C84076   9.660   7.208   9.866  0.5373 -0.3946 -0.0572
  610MOL0     C84077   9.725   7.332   9.825  0.0286 -0.4768 -0.0314
  610MOL0     O84078   9.856   7.340   9.792  0.1917 -0.0553 -0.2057
  610MOL0     C84079   9.943   7.239   9.846  0.3955 -0.4231  0.4301
  610MOL0     C84080  10.085   7.286   9.817 -0.0249 -0.6969  0.5120
  610MOL0     C84081  10.119   7.436   9.844 -0.2253  0.2835  0.1875
  610MOL0     C84082  10.128   7.489   9.991 -0.4204 -0.0925  0.6251
  610MOL0     C84083  10.142   7.641  10.010  0.6302 -0.1727 -0.7962
  610MOL0     C84084  10.278   7.694   9.962  0.0484 -0.2501  0.2948
  610MOL0     C84085  10.379   7.724  10.071  1.0429  0.4007 -0.1892
  610MOL0     C84086  10.500   7.753   9.988 -0.7335  0.1439 -1.3228
  610MOL0    Cl84087  10.572   7.599   9.935 -0.2868  0.1680  0.0841
  610MOL0     C84088   9.655   7.452   9.800  0.7949  0.0962 -0.0025
  610MOL0     C84089   9.516   7.447   9.800  0.0296  0.0454  0.2037
  610MOL0     O84090   9.309   7.389  10.058 -0.2424 -0.1136 -0.1189
  610MOL0     C84091   9.044   7.323   9.813 -0.0839  0.7464 -0.0931
  610MOL0     C84092   8.908   7.318   9.791 -0.0217 -0.6937 -0.0370
  610MOL0     N84093   8.380   7.228   9.486  0.3554 -0.5206 -0.3611
  610MOL0     N84094   8.287   7.255   9.405  0.0103  0.4830  0.1012
  610MOL0     C84095   7.171   6.684   9.699 -0.0913  1.1893 -0.1770
  610MOL0     C84096   7.037   6.643   9.726 -0.5128 -0.8816 -0.4386
  610MOL0     C84097   6.659   6.490   9.844  0.3801  0.2686  0.6518
  610MOL0     C84098   6.597   6.493   9.968  0.1557 -0.5062 -0.4915
  610MOL0     C84099   6.469   6.443   9.995 -0.1682  0.6613 -0.0824
  610MOL0     C84100   6.393   6.418   9.884  0.2273 -0.2746  0.9859
  610MOL0     O84101   6.259   6.385   9.905 -0.3996 -0.4830 -0.0014
  610MOL0     C84102   6.184   6.307   9.803 -0.2592 -0.2379  0.3798
  610MOL0     C84103   6.046   6.262   9.868  0.2449  0.6172  1.1576
  610MOL0     C84104   6.068   6.173   9.995  0.3604  0.1723  0.1717
  610MOL0     C84105   5.940   6.158  10.082 -0.7256  0.0511 -0.2538
  610MOL0     C84106   5.844   6.067  10.018  0.8090 -0.1272 -1.0452
  610MOL0     C84107   5.766   5.990   9.970  0.5201 -0.1444 -0.4456
  610MOL0     C84108   6.443   6.425   9.756 -0.7934 -0.0201 -0.4431
  610MOL0     C84109   6.573   6.451   9.733 -0.0794  0.8334  0.0316
  610MOL0     C84110   6.624   6.429   9.591  0.1971 -0.2893 -0.1011
  610MOL0     H84111   7.057   6.316   9.647  2.8364 -0.7490 -0.9284
  610MOL0     H84112   7.301   6.389   9.600 -0.5693 -0.5590 -0.8939
  610MOL0     H84113   7.412   6.825   9.693  1.0888  0.9841 -0.4570
  610MOL0     H84114   7.335   6.821   9.538  0.9889  0.1971  0.1408
  610MOL0     H84115   7.616   6.764   9.611 -0.3063 -0.0228  0.1988
  610MOL0     H84116   7.546   6.759   9.441  1.9169  1.6366 -0.9923
  610MOL0     H84117   7.468   7.010   9.503  0.1111 -0.9681 -2.0496
  610MOL0     H84118   7.581   6.992   9.640  0.1390 -2.4684  0.8044
  610MOL0     H84119   7.766   6.952   9.506  0.1029  1.8249  1.9208
  610MOL0     H84120   7.677   6.950   9.346  2.0940 -2.0058  0.9782
  610MOL0     H84121   7.720   7.191   9.526 -2.7594  1.5266  0.0163
  610MOL0     H84122   7.620   7.182   9.381 -0.4755 -1.5374  1.3903
  610MOL0     H84123   7.815   7.123   9.240 -2.5674 -1.4677  0.9832
  610MOL0     H84124   7.840   7.277   9.329 -0.3508 -0.0156 -1.1729
  610MOL0     H84125   7.944   6.991   9.416 -0.4740 -0.7978 -3.4573
  610MOL0     H84126   7.971   7.153   9.484 -2.2235 -0.6524  0.5459
  610MOL0     H84127   8.120   7.020   9.268 -0.6552 -1.8753  1.6856
  610MOL0     H84128   8.092   7.192   9.237 -2.2653 -0.5196 -0.4896
  610MOL0     H84129   8.202   6.956   9.512  2.5131 -0.3813  0.5786
  610MOL0     H84130   8.511   6.987   9.628 -1.3545  1.1772 -1.9100
  610MOL0     H84131   8.382   7.011   9.744  1.2498 -2.3257 -0.0690
  610MOL0     H84132   8.598   7.209   9.659 -0.0110  3.6325 -0.3697
  610MOL0     H84133   8.457   7.272   9.718  0.3622  0.3633 -1.4999
  610MOL0     H84134   8.504   7.085   9.930 -0.4305  0.4535 -0.7623
  610MOL0     H84135   8.659   7.091   9.844 -0.4399  0.4896 -0.9398
  610MOL0     H84136   8.508   7.320   9.960 -1.0161 -0.3146  0.9379
  610MOL0     H84137   8.648   7.242  10.037 -2.8055 -2.3293  1.1270
  610MOL0     H84138   8.785   7.413  10.084 -1.3475  0.8689 -1.4743
  610MOL0     H84139   8.976   7.451  10.252  0.5729  1.7396  0.4481
  610MOL0     H84140   9.096   7.538  10.175 -3.0726  1.1329  1.4405
  610MOL0     H84141   9.122   7.364  10.240 -2.9349 -2.4190  0.1620
  610MOL0     H84142   9.471   7.128   9.905  2.1887 -1.9767  0.2132
  610MOL0     H84143   9.714   7.119   9.897  0.8543 -0.7845 -1.6428
  610MOL0     H84144   9.934   7.236   9.955 -0.6509 -0.9065  0.3448
  610MOL0     H84145   9.928   7.138   9.808  1.0921 -0.5685  0.5296
  610MOL0     H84146  10.152   7.228   9.881 -0.6886  0.4504  2.3235
  610MOL0     H84147  10.116   7.274   9.713  3.5192  0.1410  1.3374
  610MOL0     H84148  10.041   7.495   9.794 -0.7506 -1.0485 -0.6552
  610MOL0     H84149  10.207   7.471   9.789 -0.0888  2.1843  1.5290
  610MOL0     H84150  10.211   7.432  10.035 -1.9606 -1.6429  1.6497
  610MOL0     H84151  10.035   7.468  10.045  1.1371  4.0584  5.8932
  610MOL0     H84152  10.064   7.686   9.947 -1.1138 -0.0908  1.2714
  610MOL0     H84153  10.117   7.682  10.109 -0.0239  1.7036 -1.6797
  610MOL0     H84154  10.260   7.796   9.928  1.5197 -0.5184 -1.4105
  610MOL0     H84155  10.312   7.625   9.884 -0.6097  1.1435 -1.2741
  610MOL0     H84156  10.388   7.642  10.143 -1.0918 -1.9569 -2.4018
  610MOL0     H84157  10.341   7.809  10.128  1.1913 -1.2516  2.5541
  610MOL0     H84158  10.574   7.810  10.045 -0.5579 -1.2747 -0.0748
  610MOL0     H84159  10.482   7.804   9.893  0.0046  0.2302 -1.4227
  610MOL0     H84160   9.708   7.543   9.773  0.1632  0.9140  1.4087
  610MOL0     H84161   9.463   7.541   9.783  0.3550  0.1192 -0.4185
  610MOL0     H84162   9.106   7.301   9.726  1.1132 -0.8412  1.1099
  610MOL0     H84163   8.841   7.307   9.707 -1.7669  0.7426  1.0939
  610MOL0     H84164   7.198   6.786   9.722  0.0180  1.0653  0.2644
  610MOL0     H84165   6.963   6.718   9.752 -0.1116 -0.0847 -1.4981
  610MOL0     H84166   6.653   6.522  10.056 -2.1560  0.1573  0.8133
  610MOL0     H84167   6.448   6.430  10.101  0.8809 -0.0323  0.0496
  610MOL0     H84168   6.167   6.358   9.708  0.7788 -0.2584  0.1655
  610MOL0     H84169   6.244   6.218   9.780 -2.1461 -1.8598  1.4549
  610MOL0     H84170   6.001   6.203   9.787 -0.4239  1.9660  0.5037
  610MOL0     H84171   5.978   6.344   9.893 -1.0294  0.2184 -0.7737
  610MOL0     H84172   6.106   6.074   9.969  0.7113  0.3537 -0.0150
  610MOL0     H84173   6.147   6.216  10.056 -1.6899  0.5928  2.7304
  610MOL0     H84174   5.893   6.256  10.093 -0.0507  1.0475 -4.5274
  610MOL0     H84175   5.973   6.117  10.178 -3.4419 -3.0406 -0.4670
  610MOL0     H84176   5.694   5.915   9.944 -0.0663  0.5936 -0.9958
  610MOL0     H84177   6.377   6.395   9.676 -2.0025  2.5228 -0.4966
  610MOL0     H84178   6.544   6.388   9.529  0.2900  1.2416 -1.2874
  610MOL0     H84179   6.652   6.525   9.546 -1.5523  1.1546  1.6748
  610MOL0     H84180   6.702   6.353   9.587  1.3705  0.9157 -0.6064
  611MOL0     O84181   1.271   3.990   1.069  0.3568 -0.2165  0.4393
  611MOL0     C84182   1.264   3.877   1.122  0.7319 -0.4912  0.5877
  611MOL0     O84183   1.144   3.817   1.167 -0.1441 -0.1649 -0.1233
  611MOL0     C84184   1.036   3.906   1.179 -0.8769  0.1578 -0.4102
  611MOL0     C84185   1.016   3.976   1.304  0.3743  0.3493 -0.1727
  611MOL0     C84186   0.904   4.062   1.304 -0.0459 -0.4973 -0.0433
  611MOL0     C84187   0.825   4.087   1.192  0.5962  0.6599  0.2297
  611MOL0     O84188   0.714   4.176   1.195 -0.6589 -0.2088 -0.4130
  611MOL0     C84189   0.643   4.208   1.319 -0.1217 -0.5514  0.3033
  611MOL0     C84190   0.490   4.244   1.280  0.2750 -0.3015 -0.0318
  611MOL0     C84191   0.481   4.377   1.206 -0.2143 -0.0697  0.3992
  611MOL0     C84192   0.340   4.399   1.160 -0.2903 -1.2520 -0.9704
  611MOL0     C84193   0.335   4.543   1.111 -0.1360 -0.2482 -0.7519
  611MOL0     C84194   0.186   4.592   1.087  0.3627  0.0808 -0.5083
  611MOL0     C84195   0.161   4.729   1.030 -0.7069 -0.4217 -0.0744
  611MOL0     C84196   0.012   4.753   1.023 -0.1137 -0.0351 -0.1881
  611MOL0     N84197  -0.053   4.747   1.155  1.1028  0.5117 -0.0303
  611MOL0     C84198  -0.120   4.636   1.204 -0.0773  0.1102  0.2523
  611MOL0     C84199  -0.154   4.667   1.335  0.0350  0.2861 -0.5145
  611MOL0     C84200  -0.246   4.572   1.416 -0.6132 -0.4984 -0.7362
  611MOL0     C84201  -0.194   4.431   1.422 -0.6769  0.4184 -0.4844
  611MOL0     C84202  -0.278   4.343   1.518  0.6175  1.0294 -0.1035
  611MOL0     C84203  -0.425   4.313   1.467 -0.3744  0.3992 -0.0522
  611MOL0     O84204  -0.428   4.279   1.328  0.3462 -0.1474  1.0556
  611MOL0     C84205  -0.361   4.173   1.269 -0.8940 -0.0686 -0.4171
  611MOL0     C84206  -0.366   4.167   1.129  0.7247  0.2217 -0.0850
  611MOL0     C84207  -0.311   4.068   1.045 -0.0884 -0.7086  0.6355
  611MOL0     C84208  -0.330   4.080   0.898 -1.0188 -0.0564 -0.0095
  611MOL0     C84209  -0.231   3.964   1.114  0.5330  0.2204  0.1284
  611MOL0     C84210  -0.166   3.854   1.039 -0.3991  1.9928 -0.4344
  611MOL0     O84211  -0.074   3.777   1.108  0.0649 -0.5855 -0.1583
  611MOL0     C84212   0.004   3.688   1.042 -0.3816 -0.6011 -0.1292
  611MOL0     C84213   0.091   3.730   0.948 -0.3087  0.5131 -0.4789
  611MOL0     C84214   0.169   3.637   0.879  0.1412  0.3850  0.9227
  611MOL0     C84215   0.154   3.492   0.906 -0.7348 -0.2875 -0.4099
  611MOL0     O84216   0.230   3.388   0.854  0.0962  0.7769  0.8329
  611MOL0     C84217   0.349   3.426   0.787 -0.4967 -0.5646 -0.3355
  611MOL0     C84218   0.417   3.295   0.742 -0.2455  0.7088 -0.2646
  611MOL0     C84219   0.458   3.209   0.862 -0.0504 -0.2606  0.3750
  611MOL0     C84220   0.563   3.107   0.821  0.4766  0.2684 -0.1268
  611MOL0     C84221   0.589   3.008   0.932 -0.6322  0.0973 -0.2812
  611MOL0     C84222   0.697   2.903   0.904  0.5054 -0.3876 -0.3590
  611MOL0     C84223   0.665   2.785   1.002 -0.0849  0.5919  0.4584
  611MOL0     C84224   0.770   2.674   0.973  0.1910 -1.1578 -0.6103
  611MOL0    Cl84225   0.749   2.532   1.073 -0.3103 -0.1282  0.1573
  611MOL0     C84226   0.074   3.457   1.013 -0.1116 -0.3501  0.3381
  611MOL0     C84227  -0.000   3.557   1.082  0.2030  0.6508  0.2616
  611MOL0     O84228  -0.211   3.819   0.928  0.0106 -0.0128  0.1982
  611MOL0     C84229  -0.219   3.967   1.257 -0.9544 -0.0423  0.0202
  611MOL0     C84230  -0.285   4.068   1.333  0.5024  0.2243  0.6283
  611MOL0     N84231  -0.120   4.794   1.354 -0.3956  0.0553  0.4593
  611MOL0     N84232  -0.048   4.844   1.250  0.2677  1.4375 -0.0744
  611MOL0     C84233   0.853   4.022   1.072  0.1811  1.0934  0.2185
  611MOL0     C84234   0.953   3.930   1.070  0.4860  0.6014 -0.4043
  611MOL0     C84235   1.397   3.801   1.131  0.7655 -0.0973  0.8186
  611MOL0     C84236   1.407   3.680   1.204 -0.3844  0.3058 -1.0971
  611MOL0     C84237   1.529   3.611   1.216  0.2279  0.1192  0.0934
  611MOL0     C84238   1.642   3.664   1.152  0.4585 -0.2420  0.2131
  611MOL0     O84239   1.771   3.623   1.152  0.0085  0.0708  0.4559
  611MOL0     C84240   1.823   3.496   1.200  0.3754 -0.3065 -0.3338
  611MOL0     C84241   1.968   3.488   1.166 -1.2605 -0.9446  0.3272
  611MOL0     C84242   2.045   3.612   1.221  0.2416 -0.7491  0.8392
  611MOL0     C84243   2.174   3.657   1.143 -0.2254 -0.4083  0.3853
  611MOL0     C84244   2.148   3.724   1.009  1.1887  0.1681  0.5112
  611MOL0     C84245   2.111   3.767   0.903  0.0044  0.7095 -0.4733
  611MOL0     C84246   1.641   3.786   1.091  0.0076  0.5962 -0.1066
  611MOL0     C84247   1.520   3.850   1.075 -0.1070  0.0499 -0.1352
  611MOL0     C84248   1.543   3.974   0.995 -0.1841  0.3963 -0.3546
  611MOL0     H84249   1.072   3.964   1.396  1.3710  4.5393 -0.0172
  611MOL0     H84250   0.877   4.115   1.395  5.2801 -1.4272  2.4674
  611MOL0     H84251   0.690   4.293   1.369  0.0948 -1.2040  1.2358
  611MOL0     H84252   0.642   4.133   1.398 -1.4267 -0.7275  0.1390
  611MOL0     H84253   0.434   4.160   1.237 -1.2040 -0.3267  1.8526
  611MOL0     H84254   0.446   4.251   1.379 -2.1510 -1.7434 -0.9193
  611MOL0     H84255   0.510   4.458   1.274 -0.3785  0.7769 -0.5189
  611MOL0     H84256   0.555   4.378   1.126 -0.7108  0.2387 -0.0632
  611MOL0     H84257   0.316   4.329   1.079 -0.6294 -1.5411 -0.6216
  611MOL0     H84258   0.259   4.390   1.233  1.2061  2.5513  1.4096
  611MOL0     H84259   0.380   4.543   1.011 -1.0759 -2.6529 -1.2400
  611MOL0     H84260   0.394   4.612   1.173  1.1084 -0.6080 -1.4931
  611MOL0     H84261   0.140   4.528   1.012 -0.7154 -1.3293  1.2653
  611MOL0     H84262   0.133   4.567   1.179  1.7737 -0.7037  0.1340
  611MOL0     H84263   0.204   4.731   0.929  2.1028  0.3834  1.0541
  611MOL0     H84264   0.208   4.806   1.092  3.4772 -4.0777  1.9380
  611MOL0     H84265  -0.016   4.842   0.966  0.3854 -1.8114 -3.4653
  611MOL0     H84266  -0.037   4.671   0.971  1.4452 -1.5524  0.6349
  611MOL0     H84267  -0.138   4.557   1.132  1.6723  0.4886 -0.6673
  611MOL0     H84268  -0.345   4.579   1.369  0.3831  1.1849 -2.7815
  611MOL0     H84269  -0.268   4.624   1.509  1.3357 -1.3389  0.2397
  611MOL0     H84270  -0.187   4.388   1.322  0.8372  0.9539 -0.6418
  611MOL0     H84271  -0.090   4.443   1.456 -0.1022  0.9596 -2.3363
  611MOL0     H84272  -0.229   4.245   1.520  0.7765  1.0546 -1.5839
  611MOL0     H84273  -0.284   4.380   1.621 -4.4247 -0.7315  0.5216
  611MOL0     H84274  -0.461   4.232   1.530  1.4722 -0.4467 -0.0318
  611MOL0     H84275  -0.491   4.400   1.472 -1.8286 -0.5024 -2.0178
  611MOL0     H84276  -0.428   4.237   1.074 -0.8548 -2.2275 -1.5626
  611MOL0     H84277  -0.231   4.099   0.854  0.2976 -1.9633  1.9006
  611MOL0     H84278  -0.407   4.152   0.869  0.1872  1.6544  0.8219
  611MOL0     H84279  -0.361   3.989   0.846 -1.3277  0.4618 -0.7379
  611MOL0     H84280   0.077   3.835   0.925 -3.2782  0.6218  1.2157
  611MOL0     H84281   0.228   3.673   0.795  0.3278 -3.5226 -0.8297
  611MOL0     H84282   0.333   3.484   0.696  3.4219 -0.7825 -1.3499
  611MOL0     H84283   0.413   3.483   0.856  1.9839 -0.5197 -2.5287
  611MOL0     H84284   0.369   3.230   0.668 -0.7894 -0.2914  0.9311
  611MOL0     H84285   0.509   3.323   0.689 -0.0782 -0.1121 -0.4132
  611MOL0     H84286   0.367   3.157   0.892 -1.3078  0.8430 -1.3747
  611MOL0     H84287   0.509   3.264   0.942  2.4870 -0.3378 -1.0636
  611MOL0     H84288   0.660   3.152   0.798 -0.1373  1.3986 -0.5406
  611MOL0     H84289   0.514   3.047   0.743 -0.6062 -1.0944  1.5350
  611MOL0     H84290   0.626   3.068   1.016  1.9992  0.4597 -1.5818
  611MOL0     H84291   0.502   2.949   0.960  1.2556 -2.8556 -0.1484
  611MOL0     H84292   0.795   2.952   0.915  0.2364  0.8006 -2.6283
  611MOL0     H84293   0.679   2.863   0.804 -2.0048 -2.8109  0.9463
  611MOL0     H84294   0.568   2.742   0.975 -0.0156  1.2550 -0.9497
  611MOL0     H84295   0.661   2.812   1.108 -0.1019  1.2983  0.2861
  611MOL0     H84296   0.865   2.718   1.007  0.6860  0.7945 -4.0698
  611MOL0     H84297   0.768   2.641   0.869  0.5413 -0.1373 -0.9526
  611MOL0     H84298   0.085   3.355   1.047 -0.4192 -1.0210 -1.4682
  611MOL0     H84299  -0.056   3.536   1.173 -2.8356  2.9767 -0.8848
  611MOL0     H84300  -0.159   3.897   1.315  1.4477  2.0392  0.1825
  611MOL0     H84301  -0.300   4.057   1.440  2.5283  0.8839  1.0393
  611MOL0     H84302   0.791   4.042   0.985  0.9063  2.6147  0.0372
  611MOL0     H84303   0.977   3.865   0.987 -0.1601 -1.3989  0.8859
  611MOL0     H84304   1.317   3.645   1.253 -1.4145  2.7192 -1.1306
  611MOL0     H84305   1.530   3.516   1.268 -0.2147 -0.8689 -1.6108
  611MOL0     H84306   1.825   3.490   1.309 -0.4994  2.8759 -0.0278
  611MOL0     H84307   1.756   3.419   1.161 -0.9558  2.3374 -3.8617
  611MOL0     H84308   1.977   3.482   1.057 -0.1187 -0.4408  0.3753
  611MOL0     H84309   2.003   3.396   1.214  0.1246  0.1424  1.4815
  611MOL0     H84310   1.985   3.703   1.217  0.8368 -0.3757 -0.4614
  611MOL0     H84311   2.080   3.604   1.325 -0.2243  1.0849  1.1655
  611MOL0     H84312   2.243   3.573   1.130  0.8574  0.0191  2.8147
  611MOL0     H84313   2.228   3.732   1.202 -1.9677  1.4221 -0.2245
  611MOL0     H84314   2.052   3.787   0.816 -1.5646  0.7129  0.5575
  611MOL0     H84315   1.732   3.817   1.040  1.7366 -3.2020  0.2814
  611MOL0     H84316   1.536   4.055   1.068  0.4646 -1.5101  1.9411
  611MOL0     H84317   1.639   3.991   0.946  0.9356 -1.8152  0.8966
  611MOL0     H84318   1.469   3.975   0.914 -1.0167 -0.7458  0.3624
  612MOL0     O84319   0.565   4.900   6.673  0.4559 -0.3241  0.3409
  612MOL0     C84320   0.561   5.020   6.676 -0.0313 -0.2629  0.1255
  612MOL0     O84321   0.672   5.099   6.700  0.1876  0.7347  0.6631
  612MOL0     C84322   0.793   5.056   6.718 -0.1718 -0.1363 -0.4568
  612MOL0     C84323   0.894   5.114   6.646  0.0218 -0.2872  0.1165
  612MOL0     C84324   1.032   5.081   6.671 -0.0925  0.9634 -0.8963
  612MOL0     C84325   1.055   4.965   6.750 -0.6263  0.2822 -0.8316
  612MOL0     O84326   1.174   4.901   6.761  0.2139  0.9583 -0.2092
  612MOL0     C84327   1.289   4.968   6.808  0.3150 -0.7501 -0.1783
  612MOL0     C84328   1.401   4.867   6.810 -0.2583  0.3910 -0.7541
  612MOL0     C84329   1.362   4.730   6.866 -0.1952 -0.2285 -0.5115
  612MOL0     C84330   1.480   4.638   6.916  0.1008 -0.5631  0.2568
  612MOL0     C84331   1.429   4.518   6.985 -0.4818  0.4993 -0.7427
  612MOL0     C84332   1.297   4.459   6.932 -0.4005  0.0036 -0.5435
  612MOL0     C84333   1.279   4.322   7.005 -0.3786 -0.8349  0.4586
  612MOL0     C84334   1.142   4.258   6.966 -0.0950  0.1735 -0.4342
  612MOL0     N84335   1.131   4.221   6.826  0.1944  0.6296  0.7672
  612MOL0     C84336   1.127   4.092   6.778  0.2575  0.3239  0.3706
  612MOL0     C84337   1.142   4.104   6.645 -0.5946  0.4246  0.3548
  612MOL0     C84338   1.163   4.003   6.545  0.1670  0.8094  0.0079
  612MOL0     C84339   1.299   4.003   6.472  0.2250  0.2995  0.0291
  612MOL0     C84340   1.418   3.992   6.571  0.3835 -0.1787 -0.5181
  612MOL0     C84341   1.559   3.951   6.501  0.7504  0.0900 -0.9250
  612MOL0     O84342   1.608   4.073   6.428  1.0480 -0.3130  0.1029
  612MOL0     C84343   1.721   4.063   6.353  0.0921  0.1150  0.0020
  612MOL0     C84344   1.796   3.945   6.326  0.0802  0.6940 -0.3659
  612MOL0     C84345   1.903   3.948   6.232 -0.4149 -0.6391  0.2084
  612MOL0     C84346   1.964   3.819   6.197 -0.0800 -0.0198  0.0665
  612MOL0     C84347   1.948   4.080   6.181 -0.1367 -0.7230 -0.2925
  612MOL0     C84348   2.059   4.096   6.087 -0.7231  0.7354  0.3697
  612MOL0     O84349   2.054   4.207   6.005 -0.4378 -0.1703 -0.0554
  612MOL0     C84350   2.127   4.209   5.891 -0.3503  0.1746 -0.1671
  612MOL0     C84351   2.067   4.202   5.766  0.6428  0.2930  0.3134
  612MOL0     C84352   2.135   4.220   5.642  0.8843 -0.9630 -0.3102
  612MOL0     C84353   2.274   4.244   5.649 -0.2820  0.1806 -0.8071
  612MOL0     O84354   2.361   4.273   5.541 -0.8433  0.2878  0.7842
  612MOL0     C84355   2.294   4.271   5.417  0.4752  0.9411 -0.0162
  612MOL0     C84356   2.390   4.287   5.300 -0.2887  0.5381  1.0454
  612MOL0     C84357   2.513   4.196   5.294  0.4415 -0.4321  0.6630
  612MOL0     C84358   2.611   4.243   5.189 -0.7620 -0.4307  0.3415
  612MOL0     C84359   2.659   4.122   5.120 -0.2915  0.3919 -0.5592
  612MOL0     C84360   2.767   4.054   5.202 -0.1776 -0.1924 -0.4613
  612MOL0     C84361   2.874   3.986   5.105  0.5402 -0.3924  0.0745
  612MOL0     C84362   2.991   3.929   5.193 -0.0599 -0.6180  1.1607
  612MOL0    Cl84363   2.962   3.768   5.273 -0.2310 -0.1627 -0.2122
  612MOL0     C84364   2.339   4.235   5.769  0.0134 -0.3090  0.5880
  612MOL0     C84365   2.263   4.228   5.884  0.4891  0.2014 -0.3129
  612MOL0     O84366   2.152   4.019   6.093 -0.2238  0.0872  0.7996
  612MOL0     C84367   1.866   4.191   6.206 -0.2179 -0.4707  0.4070
  612MOL0     C84368   1.756   4.183   6.293 -0.1042 -0.6034 -0.2685
  612MOL0     N84369   1.134   4.236   6.619 -0.3730 -0.9141 -1.0591
  612MOL0     N84370   1.123   4.308   6.727 -0.5408 -0.7808  0.6061
  612MOL0     C84371   0.946   4.906   6.822  0.6139 -0.6683  0.7187
  612MOL0     C84372   0.814   4.959   6.818 -1.1931 -0.2300 -0.3505
  612MOL0     C84373   0.431   5.080   6.638 -0.8266 -0.4135 -0.1810
  612MOL0     C84374   0.310   5.010   6.650 -0.0098  0.1579 -0.2636
  612MOL0     C84375   0.184   5.054   6.612  0.6278 -0.8495  0.5649
  612MOL0     C84376   0.173   5.184   6.559 -1.2113  0.5871 -0.0036
  612MOL0     O84377   0.054   5.224   6.505 -0.4795  0.5136 -0.2263
  612MOL0     C84378   0.009   5.353   6.541  0.0326 -0.3458  0.3274
  612MOL0     C84379  -0.133   5.377   6.501 -0.0106  0.0095 -0.1200
  612MOL0     C84380  -0.229   5.260   6.523 -0.2101 -0.3624 -0.7553
  612MOL0     C84381  -0.378   5.305   6.510  0.4945  0.1726 -0.7031
  612MOL0     C84382  -0.469   5.192   6.497  0.0449 -0.5250  1.1354
  612MOL0     C84383  -0.542   5.098   6.464  0.8855 -0.4472 -0.2727
  612MOL0     C84384   0.293   5.259   6.541  0.3677  0.8499 -0.0058
  612MOL0     C84385   0.417   5.205   6.579 -0.1880  0.4408  0.2329
  612MOL0     C84386   0.534   5.293   6.535 -0.0901  0.0410 -0.5305
  612MOL0     H84387   0.866   5.193   6.577 -0.1377 -1.1563 -0.8468
  612MOL0     H84388   1.116   5.126   6.618 -2.2932  2.6264 -3.2435
  612MOL0     H84389   1.277   4.985   6.915  0.0095 -0.2659 -0.2854
  612MOL0     H84390   1.317   5.065   6.765  5.6317 -0.9904  1.9062
  612MOL0     H84391   1.436   4.853   6.707 -0.0021 -0.2637 -0.5826
  612MOL0     H84392   1.477   4.910   6.876  0.0299  1.4217 -1.7336
  612MOL0     H84393   1.290   4.752   6.946  0.3736 -0.8093  0.1774
  612MOL0     H84394   1.309   4.678   6.787  1.2451  1.0016 -2.3928
  612MOL0     H84395   1.541   4.619   6.827 -2.0833  3.5914 -2.5017
  612MOL0     H84396   1.531   4.699   6.991 -1.7543  1.2943  0.0923
  612MOL0     H84397   1.417   4.538   7.092 -0.4823 -0.1594 -0.6201
  612MOL0     H84398   1.512   4.449   6.978 -0.2563  0.5962  0.6574
  612MOL0     H84399   1.218   4.533   6.953  1.1189  2.2380 -2.2036
  612MOL0     H84400   1.311   4.429   6.828  1.3132 -1.4226  0.0626
  612MOL0     H84401   1.274   4.345   7.112  0.5955  1.0494  0.1510
  612MOL0     H84402   1.362   4.255   6.980 -0.5923 -1.8628  2.3254
  612MOL0     H84403   1.104   4.185   7.037  1.6090  1.8346  2.3772
  612MOL0     H84404   1.083   4.349   6.979  3.1158  2.0261  3.4786
  612MOL0     H84405   1.132   3.998   6.831 -1.5878 -0.7547 -1.2671
  612MOL0     H84406   1.093   4.022   6.463  1.2362 -0.6678 -1.3026
  612MOL0     H84407   1.137   3.903   6.581 -1.7228  1.9447  2.0296
  612MOL0     H84408   1.293   3.934   6.388 -0.8547  1.2005 -0.6769
  612MOL0     H84409   1.299   4.102   6.426 -2.7026 -0.4300 -1.8334
  612MOL0     H84410   1.426   4.091   6.616 -1.0569 -0.6363  0.8374
  612MOL0     H84411   1.396   3.910   6.640 -0.6835 -0.6348 -1.3719
  612MOL0     H84412   1.620   3.938   6.591 -0.9843 -2.1641  0.0368
  612MOL0     H84413   1.552   3.856   6.447 -1.4704 -0.2775 -0.1222
  612MOL0     H84414   1.773   3.848   6.369  0.7984  0.0729 -1.3679
  612MOL0     H84415   1.969   3.792   6.091 -0.3146  2.6442 -0.6981
  612MOL0     H84416   1.907   3.740   6.246 -0.3119 -0.6901 -1.2276
  612MOL0     H84417   2.066   3.824   6.236  0.0148 -0.1835 -0.1559
  612MOL0     H84418   1.960   4.187   5.765  0.9301 -1.9973 -0.8566
  612MOL0     H84419   2.073   4.199   5.555 -0.3516  0.7109  0.1122
  612MOL0     H84420   2.236   4.178   5.410  0.6627  0.6887  1.3498
  612MOL0     H84421   2.229   4.359   5.409  0.7415  1.0682 -0.8651
  612MOL0     H84422   2.326   4.284   5.211  1.4295  1.2084 -0.2634
  612MOL0     H84423   2.418   4.392   5.308 -0.3068  0.4088  3.7532
  612MOL0     H84424   2.472   4.096   5.279 -1.5335  0.2172  1.5063
  612MOL0     H84425   2.563   4.205   5.391  0.3506 -3.9026  1.1389
  612MOL0     H84426   2.677   4.313   5.241  0.3364  0.9160 -2.6417
  612MOL0     H84427   2.563   4.309   5.117  0.1288 -0.7468 -0.5650
  612MOL0     H84428   2.579   4.051   5.098  0.3493 -0.5217  0.0059
  612MOL0     H84429   2.702   4.148   5.023 -1.3101  1.0016 -0.8626
  612MOL0     H84430   2.720   3.976   5.263  2.1950 -4.2520 -3.3204
  612MOL0     H84431   2.833   4.122   5.257  0.2636  0.4501 -1.7328
  612MOL0     H84432   2.920   4.070   5.053 -0.7531  0.8359  0.8415
  612MOL0     H84433   2.843   3.913   5.030  1.0320  0.9392 -1.4656
  612MOL0     H84434   3.010   3.999   5.275 -2.2616  0.4908  0.7756
  612MOL0     H84435   3.082   3.920   5.132  0.7198  2.3686  1.7402
  612MOL0     H84436   2.446   4.247   5.780  0.0436 -0.5199  0.5386
  612MOL0     H84437   2.321   4.250   5.974  0.0327  2.4575 -0.5079
  612MOL0     H84438   1.881   4.292   6.167 -1.6828 -0.4186 -0.0655
  612MOL0     H84439   1.688   4.267   6.300  0.1560 -0.4712  0.8662
  612MOL0     H84440   0.960   4.815   6.878 -0.4589 -2.1878 -1.3483
  612MOL0     H84441   0.743   4.920   6.890  1.0148 -2.9769  0.5506
  612MOL0     H84442   0.309   4.905   6.678 -1.2393 -0.1387 -1.3411
  612MOL0     H84443   0.095   4.995   6.631 -0.1020  0.4528  1.3286
  612MOL0     H84444   0.027   5.358   6.649  0.7081 -0.0676  0.2080
  612MOL0     H84445   0.072   5.436   6.510 -1.3392  1.5261  2.2485
  612MOL0     H84446  -0.135   5.401   6.394  0.3869  1.3894  0.1623
  612MOL0     H84447  -0.167   5.464   6.557 -1.0191 -0.1112 -0.5316
  612MOL0     H84448  -0.201   5.170   6.467 -0.6341 -1.5311  0.8410
  612MOL0     H84449  -0.210   5.249   6.630  1.2504  2.7670 -0.5724
  612MOL0     H84450  -0.386   5.377   6.428  0.5702  1.5645  0.4869
  612MOL0     H84451  -0.386   5.359   6.605  0.6108 -3.3531  1.4950
  612MOL0     H84452  -0.601   5.012   6.440 -2.3396  0.8997  2.1577
  612MOL0     H84453   0.289   5.352   6.486  4.1780  1.5578  0.6656
  612MOL0     H84454   0.625   5.238   6.509 -0.0721  0.0450 -0.4760
  612MOL0     H84455   0.509   5.348   6.444  0.2126  2.3714  0.7238
  612MOL0     H84456   0.558   5.369   6.609  0.5881 -1.4011  0.7892
  613MOL0     O84457   5.309   1.928   4.660  0.4278 -0.0044  0.1370
  613MOL0     C84458   5.313   1.937   4.533  0.9093  0.4438  0.9239
  613MOL0     O84459   5.399   1.880   4.460 -0.3630  0.9652  0.3601
  613MOL0     C84460   5.530   1.839   4.496  0.7777 -0.6926  0.1053
  613MOL0     C84461   5.595   1.766   4.388  0.1415  0.2892  0.3758
  613MOL0     C84462   5.722   1.719   4.410 -0.2029  0.4342 -0.1414
  613MOL0     C84463   5.786   1.734   4.534  0.8291 -0.0045 -0.5158
  613MOL0     O84464   5.909   1.698   4.573 -0.1670 -0.4487  0.6280
  613MOL0     C84465   6.006   1.760   4.484 -0.4176 -0.1995 -0.6429
  613MOL0     C84466   6.141   1.728   4.537 -0.1311 -0.3255 -0.2249
  613MOL0     C84467   6.171   1.577   4.524 -0.3580  0.1014  0.9129
  613MOL0     C84468   6.296   1.537   4.593 -0.7437 -0.2630 -0.5616
  613MOL0     C84469   6.336   1.397   4.583 -0.2011  0.0080  0.0139
  613MOL0     C84470   6.486   1.378   4.609  0.6378  0.0651 -0.1120
  613MOL0     C84471   6.530   1.238   4.572 -0.1181 -0.1347 -0.4127
  613MOL0     C84472   6.677   1.239   4.545  0.8287  0.2928  0.1196
  613MOL0     N84473   6.736   1.107   4.509 -0.5506 -0.3348  0.3683
  613MOL0     C84474   6.690   0.982   4.544  0.1790 -0.4334 -0.3720
  613MOL0     C84475   6.781   0.896   4.501  0.1696 -0.0848  1.3116
  613MOL0     C84476   6.752   0.746   4.491  0.5957  0.2810  0.0086
  613MOL0     C84477   6.861   0.666   4.410  0.0004  0.0091 -0.7832
  613MOL0     C84478   6.853   0.516   4.437  0.0943 -0.3479 -0.0270
  613MOL0     C84479   6.853   0.482   4.588  0.7022  0.1857 -0.2944
  613MOL0     O84480   6.885   0.338   4.600  0.1199  0.2357  0.5609
  613MOL0     C84481   6.774   0.250   4.580 -0.7469 -0.7419  1.3362
  613MOL0     C84482   6.809   0.114   4.570 -0.7127 -0.5614 -0.0467
  613MOL0     C84483   6.722   0.013   4.540  0.1920  1.0077  0.0042
  613MOL0     C84484   6.770  -0.125   4.546 -1.1806 -0.3971  0.5011
  613MOL0     C84485   6.587   0.045   4.510  0.1060 -0.5884 -1.0863
  613MOL0     C84486   6.490  -0.059   4.472  1.1416  0.9351  0.3892
  613MOL0     O84487   6.358  -0.020   4.492  0.5686 -0.2837 -0.5899
  613MOL0     C84488   6.256  -0.109   4.457 -0.2787  0.4160  0.1260
  613MOL0     C84489   6.163  -0.082   4.362 -0.3448 -0.4116 -0.0323
  613MOL0     C84490   6.072  -0.180   4.328 -0.4875 -0.4982  1.2676
  613MOL0     C84491   6.064  -0.305   4.389 -0.0194  0.3142  0.1434
  613MOL0     O84492   5.963  -0.393   4.347  0.9058 -0.6695 -0.7032
  613MOL0     C84493   5.934  -0.506   4.432  1.3860 -0.3900 -0.2846
  613MOL0     C84494   5.834  -0.603   4.375  0.1199  0.2738  0.6175
  613MOL0     C84495   5.833  -0.731   4.461  0.9631 -0.3230  0.4192
  613MOL0     C84496   5.733  -0.830   4.402 -0.5473 -0.6992 -0.1138
  613MOL0     C84497   5.734  -0.965   4.473 -0.1766 -0.3441  0.5671
  613MOL0     C84498   5.677  -1.072   4.384 -0.7176  0.5728  1.0964
  613MOL0     C84499   5.669  -1.193   4.464  0.8234  0.7287  0.1331
  613MOL0     C84500   5.664  -1.323   4.381 -0.0791 -0.2767  0.5086
  613MOL0    Cl84501   5.626  -1.454   4.494  0.2846  0.4297  0.3230
  613MOL0     C84502   6.157  -0.329   4.490  0.2084 -0.5891 -0.2907
  613MOL0     C84503   6.249  -0.226   4.526 -0.0433  0.0662  0.5985
  613MOL0     O84504   6.527  -0.157   4.418 -0.7843 -0.5070  0.1622
  613MOL0     C84505   6.550   0.185   4.524  0.1866  1.4124  0.2290
  613MOL0     C84506   6.645   0.283   4.562 -0.2515 -0.2250  0.4447
  613MOL0     N84507   6.875   0.961   4.429  0.2104 -0.4754  0.2806
  613MOL0     N84508   6.855   1.095   4.437  0.5837  0.1492 -0.5641
  613MOL0     C84509   5.714   1.804   4.627  0.5161 -0.6985 -1.3407
  613MOL0     C84510   5.591   1.858   4.614  1.0678  0.6928 -0.0081
  613MOL0     C84511   5.193   1.999   4.463  0.6636  0.3592  0.2903
  613MOL0     C84512   5.068   1.943   4.490  0.5802 -0.3785  0.5774
  613MOL0     C84513   4.953   1.984   4.419 -0.6118  0.6624  0.5998
  613MOL0     C84514   4.962   2.079   4.316  0.2028  0.0545 -0.4861
  613MOL0     O84515   4.853   2.100   4.237 -0.2705  0.7062 -0.0236
  613MOL0     C84516   4.719   2.077   4.280  0.4594  0.7487 -0.3099
  613MOL0     C84517   4.608   2.137   4.188  0.1218  0.1510  0.0369
  613MOL0     C84518   4.610   2.283   4.170  0.7405  0.0031 -0.0011
  613MOL0     C84519   4.549   2.319   4.037  0.8611 -0.6295 -0.2554
  613MOL0     C84520   4.560   2.468   4.011  0.6076 -0.5780  0.2728
  613MOL0     C84521   4.590   2.586   3.980  0.5858  0.3379 -0.9305
  613MOL0     C84522   5.091   2.121   4.276  0.9467 -0.9021 -0.1329
  613MOL0     C84523   5.201   2.085   4.352 -0.8038 -0.4764 -0.7030
  613MOL0     C84524   5.329   2.149   4.309  0.3145  0.2762  0.2428
  613MOL0     H84525   5.548   1.741   4.294 -0.2799 -0.1099  0.6893
  613MOL0     H84526   5.774   1.664   4.332  0.4023  0.0542  0.5117
  613MOL0     H84527   5.981   1.866   4.475 -1.4001 -0.4778 -1.5365
  613MOL0     H84528   5.997   1.720   4.382 -0.3840 -2.9080  0.3313
  613MOL0     H84529   6.216   1.793   4.492  0.9800 -1.2366  0.2830
  613MOL0     H84530   6.136   1.754   4.643  3.4023  1.5739 -0.3907
  613MOL0     H84531   6.095   1.512   4.568  1.1946 -0.8849  2.2777
  613MOL0     H84532   6.181   1.558   4.417 -1.1431 -1.1365  1.0404
  613MOL0     H84533   6.363   1.602   4.537  0.1143 -1.3611 -0.8427
  613MOL0     H84534   6.292   1.559   4.701  0.8759 -0.8986 -0.3479
  613MOL0     H84535   6.315   1.358   4.483  0.4369  0.5232 -0.3248
  613MOL0     H84536   6.279   1.331   4.650 -0.3665 -0.5534 -0.6644
  613MOL0     H84537   6.543   1.442   4.542  0.3028 -0.8482 -1.3273
  613MOL0     H84538   6.517   1.416   4.707 -1.0574  1.9966 -0.2712
  613MOL0     H84539   6.482   1.202   4.481  1.1481  1.0166 -1.5768
  613MOL0     H84540   6.505   1.168   4.653 -1.1042 -0.0679 -0.6459
  613MOL0     H84541   6.698   1.302   4.459 -1.5267 -1.8998 -2.2530
  613MOL0     H84542   6.733   1.271   4.634  2.1339  1.7616 -1.1728
  613MOL0     H84543   6.596   0.959   4.594  0.0904 -2.7806 -1.4647
  613MOL0     H84544   6.652   0.727   4.450  1.2127 -1.9933 -0.5732
  613MOL0     H84545   6.755   0.707   4.593  1.7380 -1.2477 -0.5637
  613MOL0     H84546   6.847   0.678   4.302 -0.7126 -0.7592 -0.7868
  613MOL0     H84547   6.961   0.707   4.427 -0.2309  0.3702 -0.2530
  613MOL0     H84548   6.762   0.478   4.389 -0.4749 -0.0722  0.8080
  613MOL0     H84549   6.940   0.463   4.397 -0.4067 -0.0023 -1.6238
  613MOL0     H84550   6.931   0.533   4.645 -0.4989 -0.4615  2.0398
  613MOL0     H84551   6.757   0.496   4.639  0.8788  0.7942 -0.1308
  613MOL0     H84552   6.916   0.101   4.587 -0.4382  1.0212 -0.4349
  613MOL0     H84553   6.766  -0.173   4.448  0.2647  3.5680 -1.7464
  613MOL0     H84554   6.710  -0.179   4.620 -0.0819 -0.7011  1.2031
  613MOL0     H84555   6.872  -0.124   4.587 -0.8734 -1.6449 -0.1781
  613MOL0     H84556   6.159   0.015   4.314 -1.6115 -0.7183 -0.5712
  613MOL0     H84557   5.992  -0.155   4.260 -0.2841 -0.2638  1.1125
  613MOL0     H84558   6.024  -0.565   4.448  1.0600 -1.6979 -2.6975
  613MOL0     H84559   5.899  -0.469   4.529  1.2445 -0.4982 -0.2937
  613MOL0     H84560   5.733  -0.560   4.365 -0.4018 -0.8748  0.7848
  613MOL0     H84561   5.879  -0.641   4.283  0.9060  1.3980  0.5247
  613MOL0     H84562   5.800  -0.709   4.563  1.1384  0.7336  0.2544
  613MOL0     H84563   5.930  -0.779   4.445  2.2748  2.7012 -1.4895
  613MOL0     H84564   5.755  -0.844   4.296  0.5232 -3.7347  0.4165
  613MOL0     H84565   5.633  -0.784   4.407  0.0753  0.5883  1.4448
  613MOL0     H84566   5.837  -0.994   4.495  0.2768 -0.3397 -1.3676
  613MOL0     H84567   5.680  -0.965   4.567 -0.9957  0.0948  0.1076
  613MOL0     H84568   5.739  -1.096   4.297 -1.2272  0.3490  0.7888
  613MOL0     H84569   5.577  -1.048   4.347 -1.2422 -0.4421  1.8049
  613MOL0     H84570   5.580  -1.199   4.528  0.3361  0.9057 -0.5129
  613MOL0     H84571   5.747  -1.200   4.540 -0.5853 -1.3376  1.5080
  613MOL0     H84572   5.754  -1.327   4.319  0.2023  0.5613  0.8387
  613MOL0     H84573   5.579  -1.314   4.314  1.1548 -0.0232 -1.0673
  613MOL0     H84574   6.156  -0.416   4.554 -1.2155  0.2011  0.8206
  613MOL0     H84575   6.311  -0.243   4.614  0.9933 -1.6789 -0.4239
  613MOL0     H84576   6.446   0.205   4.502 -0.8194  0.3091  3.3270
  613MOL0     H84577   6.592   0.377   4.553 -0.6064 -0.5673 -1.3412
  613MOL0     H84578   5.742   1.822   4.731  0.4482 -1.6471 -1.1519
  613MOL0     H84579   5.546   1.892   4.707  1.5289  1.9254 -0.2195
  613MOL0     H84580   5.058   1.862   4.562  3.0009 -0.9046  0.4391
  613MOL0     H84581   4.864   1.927   4.439 -0.9851  1.3043  0.8042
  613MOL0     H84582   4.691   1.971   4.274 -0.5594  1.0716 -1.7001
  613MOL0     H84583   4.706   2.121   4.379 -4.0024 -1.5136  0.3860
  613MOL0     H84584   4.508   2.112   4.225  0.0687 -1.9245 -1.3015
  613MOL0     H84585   4.612   2.092   4.088  0.5818  0.9135 -0.3015
  613MOL0     H84586   4.553   2.338   4.245  0.5795 -0.7903  0.4755
  613MOL0     H84587   4.712   2.323   4.173  1.0223 -0.6453 -0.6406
  613MOL0     H84588   4.442   2.297   4.039  0.6269  0.5143  1.0677
  613MOL0     H84589   4.609   2.271   3.959  1.4970 -0.7764  0.3209
  613MOL0     H84590   4.606   2.686   3.946  0.2146  1.5311  2.1240
  613MOL0     H84591   5.102   2.167   4.178 -2.3056  0.6063  0.0850
  613MOL0     H84592   5.420   2.091   4.326  1.5942  2.0609 -0.1911
  613MOL0     H84593   5.317   2.176   4.204 -5.5053 -0.6974  0.3310
  613MOL0     H84594   5.344   2.239   4.371 -1.3452  1.6875 -1.2711
  614MOL0     O84595   2.829   5.959   4.481  0.1151  0.1932 -0.3262
  614MOL0     C84596   2.799   6.050   4.562 -0.9889  0.4814  0.8038
  614MOL0     O84597   2.872   6.158   4.598  1.2613  0.3893  0.0662
  614MOL0     C84598   2.993   6.192   4.547  0.7060 -0.1508  0.0777
  614MOL0     C84599   3.077   6.277   4.623 -0.3284  1.0821  0.7790
  614MOL0     C84600   3.200   6.315   4.571 -0.6686  0.4463 -0.1560
  614MOL0     C84601   3.250   6.266   4.452 -0.1078 -0.3691  1.4041
  614MOL0     O84602   3.367   6.296   4.389 -0.0427  0.3544 -0.7451
  614MOL0     C84603   3.429   6.417   4.419  0.2667 -0.6721 -0.0756
  614MOL0     C84604   3.517   6.460   4.302 -0.6758 -0.2991 -0.0772
  614MOL0     C84605   3.614   6.352   4.261  1.4523  0.0210 -0.6449
  614MOL0     C84606   3.713   6.299   4.366 -0.0881 -0.1507 -0.1060
  614MOL0     C84607   3.800   6.191   4.302  0.1536 -0.3704  0.1010
  614MOL0     C84608   3.890   6.127   4.410 -0.3614 -0.3787  0.7356
  614MOL0     C84609   4.027   6.194   4.443 -0.6035 -0.4308  0.3886
  614MOL0     C84610   4.108   6.103   4.541  0.8886  0.6226 -0.0143
  614MOL0     N84611   4.232   6.177   4.583  0.2528 -0.0971 -0.1786
  614MOL0     C84612   4.350   6.186   4.513  0.3815  0.3008  0.2666
  614MOL0     C84613   4.443   6.234   4.595 -0.2180  0.7677  0.2921
  614MOL0     C84614   4.587   6.256   4.562  0.5127  0.1785  0.4899
  614MOL0     C84615   4.666   6.137   4.608 -0.1168 -0.3046  0.9128
  614MOL0     C84616   4.817   6.144   4.568 -0.6512  0.0574  0.1546
  614MOL0     C84617   4.902   6.033   4.610 -0.9709  0.4689 -0.8005
  614MOL0     O84618   4.941   6.045   4.749 -0.7232  0.2757  0.2618
  614MOL0     C84619   5.022   5.948   4.797 -0.3476  0.1948  0.2859
  614MOL0     C84620   5.013   5.935   4.937 -0.1001  0.5136  0.0391
  614MOL0     C84621   5.086   5.844   5.013  0.3772  0.4455 -0.0254
  614MOL0     C84622   5.054   5.837   5.155  0.4871 -0.9140  0.5625
  614MOL0     C84623   5.179   5.767   4.944  0.8476 -0.2639 -0.2995
  614MOL0     C84624   5.253   5.651   5.006 -0.3218 -0.0162  0.3260
  614MOL0     O84625   5.385   5.630   4.965 -0.1323  0.8134  0.5429
  614MOL0     C84626   5.452   5.523   5.010 -0.6418  0.4219  0.0503
  614MOL0     C84627   5.451   5.400   4.934 -0.0826 -0.5200 -0.4760
  614MOL0     C84628   5.520   5.291   4.989  0.8487 -0.3697 -0.5524
  614MOL0     C84629   5.587   5.290   5.113 -0.3975 -0.8077 -0.3874
  614MOL0     O84630   5.661   5.179   5.156 -0.5383 -0.1123 -0.5191
  614MOL0     C84631   5.752   5.205   5.259  0.1625  0.3793  0.4453
  614MOL0     C84632   5.815   5.075   5.301 -0.6363  0.7216  0.2434
  614MOL0     C84633   5.941   5.117   5.381 -0.4917 -0.1512 -0.3904
  614MOL0     C84634   5.995   4.992   5.445 -0.1410  0.1642 -0.3483
  614MOL0     C84635   6.126   5.031   5.529 -0.0923  0.5362  0.0048
  614MOL0     C84636   6.137   4.959   5.666  0.1787 -0.5118 -0.9793
  614MOL0     C84637   6.076   5.060   5.770  0.3092  0.5288 -0.0304
  614MOL0     C84638   6.067   5.001   5.916  0.4306  0.1004 -0.2255
  614MOL0    Cl84639   6.230   4.976   5.969 -0.5975 -0.0285 -0.3751
  614MOL0     C84640   5.572   5.413   5.187 -0.5155  0.6185  0.0718
  614MOL0     C84641   5.510   5.521   5.137  0.3815  0.1637 -0.3348
  614MOL0     O84642   5.198   5.579   5.092 -0.4090 -0.6797  0.0699
  614MOL0     C84643   5.185   5.776   4.798 -0.2691  0.3049 -0.5620
  614MOL0     C84644   5.105   5.858   4.730 -0.5964  0.6533  0.5269
  614MOL0     N84645   4.384   6.246   4.718  0.0112  0.2062 -0.3575
  614MOL0     N84646   4.265   6.200   4.719  1.0587  0.5685  0.3181
  614MOL0     C84647   3.168   6.178   4.378 -0.0338  0.2703  0.1638
  614MOL0     C84648   3.049   6.141   4.419  1.7953 -0.5883 -1.0860
  614MOL0     C84649   2.655   6.056   4.603 -0.6062 -0.1441  0.5717
  614MOL0     C84650   2.592   5.932   4.610 -0.2406  0.7202 -0.6826
  614MOL0     C84651   2.460   5.929   4.635  0.4039  0.2013  0.0506
  614MOL0     C84652   2.386   6.042   4.663 -0.0583 -1.0093 -0.6707
  614MOL0     O84653   2.249   6.053   4.679 -0.4964  0.7965 -0.2584
  614MOL0     C84654   2.183   5.930   4.711  0.3212 -0.3260  0.1480
  614MOL0     C84655   2.032   5.941   4.739  0.6778 -0.7028 -0.2134
  614MOL0     C84656   1.964   5.802   4.751 -0.3906  0.2437 -0.8222
  614MOL0     C84657   1.811   5.801   4.735 -0.4158 -0.7170  0.0370
  614MOL0     C84658   1.741   5.892   4.828 -1.2758  0.4154  0.0695
  614MOL0     C84659   1.681   5.962   4.909 -0.1435  0.4652  0.0377
  614MOL0     C84660   2.447   6.172   4.654  0.0704 -0.3466 -0.6558
  614MOL0     C84661   2.583   6.179   4.623  0.2293  0.4081  0.4749
  614MOL0     C84662   2.637   6.313   4.593  0.6761 -0.5488 -0.6478
  614MOL0     H84663   3.040   6.308   4.721  4.1206  3.3531  2.0220
  614MOL0     H84664   3.264   6.384   4.624  1.4917  0.2604 -2.3156
  614MOL0     H84665   3.480   6.424   4.516 -1.4653 -0.2528  0.8344
  614MOL0     H84666   3.358   6.496   4.445  0.8132 -0.2849  0.2943
  614MOL0     H84667   3.463   6.489   4.212 -0.8058  0.9072  0.3622
  614MOL0     H84668   3.562   6.553   4.338 -3.3197  0.4239  1.6756
  614MOL0     H84669   3.550   6.271   4.223 -1.6685  2.0580 -0.0837
  614MOL0     H84670   3.668   6.395   4.176 -0.3519  2.2950 -0.7253
  614MOL0     H84671   3.778   6.383   4.393 -0.2578  0.0036 -0.1764
  614MOL0     H84672   3.655   6.279   4.456 -2.9379  3.0240 -1.0370
  614MOL0     H84673   3.856   6.235   4.219 -0.5091  2.7970  1.1895
  614MOL0     H84674   3.743   6.107   4.263 -0.1175 -0.5450  0.8575
  614MOL0     H84675   3.836   6.111   4.504 -0.7441 -1.7423  0.3003
  614MOL0     H84676   3.906   6.023   4.382  0.0171 -0.4357  1.1552
  614MOL0     H84677   3.994   6.287   4.490 -2.3187 -1.1698  0.7162
  614MOL0     H84678   4.067   6.214   4.343 -1.6478  4.5829  0.7069
  614MOL0     H84679   4.046   6.074   4.626  0.2487  1.5081 -0.1655
  614MOL0     H84680   4.125   6.005   4.496  0.8072 -0.4809  2.2174
  614MOL0     H84681   4.380   6.159   4.412  2.1940 -0.6299  1.0152
  614MOL0     H84682   4.614   6.343   4.623  0.2506 -0.2529  1.2398
  614MOL0     H84683   4.604   6.274   4.455 -0.0590  0.8063  0.5009
  614MOL0     H84684   4.657   6.133   4.717  0.1623  0.2151  0.9567
  614MOL0     H84685   4.619   6.041   4.583  2.8720 -1.3317 -1.2854
  614MOL0     H84686   4.834   6.176   4.465  0.7676  1.0029  0.6420
  614MOL0     H84687   4.859   6.229   4.623  1.5184  0.1705 -1.5218
  614MOL0     H84688   4.865   5.933   4.586  2.6224 -1.3761  0.6744
  614MOL0     H84689   4.996   6.031   4.554 -0.2154 -3.4996  0.3334
  614MOL0     H84690   4.954   6.005   4.995  0.7270 -0.7141  2.5004
  614MOL0     H84691   5.014   5.740   5.187 -0.6105 -0.8775 -0.5908
  614MOL0     H84692   4.991   5.921   5.186 -2.0834 -2.3710 -0.3292
  614MOL0     H84693   5.152   5.843   5.203 -0.7784  1.8674  3.1223
  614MOL0     H84694   5.396   5.396   4.840 -1.2407 -0.4086  0.1740
  614MOL0     H84695   5.531   5.200   4.931  0.6178 -0.4956 -0.4006
  614MOL0     H84696   5.830   5.279   5.238 -0.2396  0.1197 -2.3589
  614MOL0     H84697   5.701   5.239   5.349  1.4914  0.5430  1.1687
  614MOL0     H84698   5.741   5.020   5.361 -1.5570  0.4059 -1.1163
  614MOL0     H84699   5.832   5.020   5.208 -1.0191 -0.5343  0.8966
  614MOL0     H84700   5.916   5.193   5.456  2.4433 -0.5600  1.1521
  614MOL0     H84701   6.019   5.161   5.318 -0.5758  0.5832  0.0116
  614MOL0     H84702   6.027   4.927   5.363  1.0783  0.5029 -0.1569
  614MOL0     H84703   5.921   4.929   5.496 -1.5059  0.5865 -1.7575
  614MOL0     H84704   6.216   5.004   5.473 -1.9727 -1.0321 -2.4960
  614MOL0     H84705   6.143   5.138   5.544  1.5434  0.0711  1.7984
  614MOL0     H84706   6.237   4.928   5.697 -0.7408 -2.3658  0.3485
  614MOL0     H84707   6.076   4.869   5.676 -0.8157  0.3837  2.1212
  614MOL0     H84708   5.972   5.088   5.751  0.4575  0.4846 -0.9561
  614MOL0     H84709   6.134   5.152   5.762  0.5228  0.3862 -0.1351
  614MOL0     H84710   6.011   4.908   5.905  1.5788 -0.6787  0.2530
  614MOL0     H84711   6.025   5.084   5.974  2.6307 -0.1875  1.9615
  614MOL0     H84712   5.614   5.417   5.287 -1.4458 -1.4886  0.6166
  614MOL0     H84713   5.503   5.618   5.186  1.8534  0.4239 -0.6083
  614MOL0     H84714   5.247   5.704   4.746  3.5448  2.6472  0.3575
  614MOL0     H84715   5.119   5.853   4.623  1.1537  0.6841  0.7250
  614MOL0     H84716   3.212   6.133   4.290 -3.7484 -2.7845 -0.3958
  614MOL0     H84717   3.001   6.076   4.347  1.7718 -0.8770 -0.8137
  614MOL0     H84718   2.636   5.834   4.595 -2.3372 -1.0007  3.0764
  614MOL0     H84719   2.415   5.830   4.635  1.2033 -0.1934 -1.9181
  614MOL0     H84720   2.192   5.861   4.627 -0.0038  0.6554 -0.6983
  614MOL0     H84721   2.235   5.884   4.797 -1.8647 -1.9788  0.6641
  614MOL0     H84722   1.980   5.980   4.651  2.9764 -0.0053 -1.3651
  614MOL0     H84723   2.007   5.989   4.834 -0.3598 -3.2211  0.8774
  614MOL0     H84724   2.009   5.745   4.669  0.8664 -0.7465  0.4947
  614MOL0     H84725   1.995   5.757   4.846 -0.6332 -0.0368 -0.8729
  614MOL0     H84726   1.769   5.704   4.764  1.9069 -1.1302  2.3607
  614MOL0     H84727   1.786   5.813   4.630 -1.8523  0.2675  0.4631
  614MOL0     H84728   1.636   6.033   4.976 -1.3257  0.4217 -0.7022
  614MOL0     H84729   2.394   6.266   4.662 -1.9311 -1.3693 -1.0952
  614MOL0     H84730   2.708   6.314   4.509  0.4641  4.1797 -1.0281
  614MOL0     H84731   2.560   6.388   4.574  0.5892  0.2409  2.2924
  614MOL0     H84732   2.698   6.339   4.681  0.6902 -2.2609 -0.1204
  615MOL0     O84733   3.654   5.559   3.512 -0.4237  0.2017  0.7211
  615MOL0     C84734   3.583   5.505   3.435  0.4410  0.0167  0.3590
  615MOL0     O84735   3.622   5.430   3.332 -1.5323  0.2353  0.2932
  615MOL0     C84736   3.750   5.370   3.351 -1.1244 -1.1010 -0.4963
  615MOL0     C84737   3.866   5.451   3.367  0.1365  0.5623  0.2050
  615MOL0     C84738   3.991   5.386   3.383 -0.0087 -0.3544 -0.6138
  615MOL0     C84739   4.008   5.248   3.381  0.2115  0.4486  0.4037
  615MOL0     O84740   4.133   5.212   3.402 -0.1253  0.2887  0.3151
  615MOL0     C84741   4.169   5.090   3.349 -0.3767  0.9014 -0.2651
  615MOL0     C84742   4.139   4.994   3.470 -0.0557 -0.0032  0.4689
  615MOL0     C84743   4.205   4.855   3.449  0.1236 -0.7148  0.7640
  615MOL0     C84744   4.127   4.766   3.345  0.3236 -0.3799  0.4235
  615MOL0     C84745   4.191   4.635   3.343 -0.5673  0.0522  0.2338
  615MOL0     C84746   4.130   4.536   3.234  0.2350 -0.3216  0.1492
  615MOL0     C84747   4.164   4.396   3.287 -0.2392  0.0981 -0.2176
  615MOL0     C84748   4.140   4.293   3.173  0.4120 -1.0787 -0.1701
  615MOL0     N84749   4.260   4.254   3.096 -0.1823 -0.2730  0.4751
  615MOL0     C84750   4.313   4.339   3.004 -0.7791  0.0085 -0.7086
  615MOL0     C84751   4.420   4.265   2.950  0.4205  0.4668  0.3603
  615MOL0     C84752   4.507   4.328   2.842  0.2232  0.1338 -0.4257
  615MOL0     C84753   4.650   4.277   2.860 -0.5848 -0.6016 -0.2478
  615MOL0     C84754   4.736   4.311   2.733 -0.3209  0.1597 -0.1962
  615MOL0     C84755   4.878   4.255   2.747  0.6860 -0.0028  0.0024
  615MOL0     O84756   4.968   4.297   2.643  0.2110  0.7464 -0.4458
  615MOL0     C84757   5.102   4.306   2.675 -0.9875 -0.4800  0.8310
  615MOL0     C84758   5.180   4.360   2.575  0.4626  0.1722 -0.8602
  615MOL0     C84759   5.326   4.371   2.597  0.2406 -0.7372  0.3757
  615MOL0     C84760   5.399   4.442   2.483 -0.3871  0.2186 -0.0621
  615MOL0     C84761   5.386   4.309   2.704  0.2850 -0.2366  0.1982
  615MOL0     C84762   5.531   4.297   2.714 -0.3760  1.0266 -0.4210
  615MOL0     O84763   5.576   4.270   2.840 -0.3046 -0.4642 -0.3642
  615MOL0     C84764   5.708   4.225   2.854  0.1760  0.3551  0.6370
  615MOL0     C84765   5.800   4.298   2.921 -0.0397 -0.9868 -0.7846
  615MOL0     C84766   5.938   4.267   2.921  0.4422 -0.8520 -0.6734
  615MOL0     C84767   5.984   4.153   2.858  0.6001 -0.2645 -0.2925
  615MOL0     O84768   6.114   4.125   2.853 -0.7395 -0.6499 -0.9777
  615MOL0     C84769   6.159   4.068   2.725  0.1622 -0.3887 -0.2302
  615MOL0     C84770   6.312   4.082   2.723  0.2373  0.3682 -0.2542
  615MOL0     C84771   6.396   4.013   2.825  0.2475  0.1414  0.6223
  615MOL0     C84772   6.541   4.039   2.785 -0.3352 -0.4156 -0.0538
  615MOL0     C84773   6.636   3.981   2.888  0.7556 -0.2387  0.4358
  615MOL0     C84774   6.771   4.052   2.880  0.1593  0.5728  0.1625
  615MOL0     C84775   6.881   3.952   2.919 -0.2071 -0.1954  0.0270
  615MOL0     C84776   7.016   4.016   2.939 -0.9561  0.0815  0.1451
  615MOL0    Cl84777   7.089   4.085   2.795 -0.6461  0.0020 -0.0716
  615MOL0     C84778   5.891   4.068   2.795  0.1045  0.7951 -0.3244
  615MOL0     C84779   5.752   4.098   2.804 -0.2264 -0.6454  0.1176
  615MOL0     O84780   5.606   4.307   2.618  0.4938 -0.1795  0.5472
  615MOL0     C84781   5.306   4.259   2.800 -0.7981 -1.4152 -0.8117
  615MOL0     C84782   5.166   4.254   2.789 -0.1452 -0.1011 -0.4167
  615MOL0     N84783   4.409   4.135   2.993 -0.4853  0.0634 -0.7164
  615MOL0     N84784   4.314   4.127   3.084 -0.4163 -0.4665  0.5634
  615MOL0     C84785   3.893   5.170   3.342  0.6529 -0.7219  0.0052
  615MOL0     C84786   3.762   5.229   3.341 -0.2280  0.6868  0.3165
  615MOL0     C84787   3.437   5.520   3.439  0.9370  0.0107 -0.8539
  615MOL0     C84788   3.360   5.458   3.338 -0.5152 -0.0352  0.3404
  615MOL0     C84789   3.222   5.464   3.335  1.0688 -0.5847 -0.1791
  615MOL0     C84790   3.144   5.518   3.447 -0.3887 -0.3791  0.5824
  615MOL0     O84791   3.006   5.507   3.466 -0.3210 -0.5370 -0.3622
  615MOL0     C84792   2.920   5.463   3.353 -0.1510 -0.8539 -1.2157
  615MOL0     C84793   2.885   5.310   3.364 -0.0377 -0.2005  0.4509
  615MOL0     C84794   2.992   5.230   3.442  1.1073  0.4610 -0.2094
  615MOL0     C84795   2.949   5.084   3.439 -0.8315 -0.2086  0.5859
  615MOL0     C84796   3.044   5.012   3.533 -0.4103 -0.3432 -0.2559
  615MOL0     C84797   3.117   4.927   3.582 -0.2735  0.0260 -1.1082
  615MOL0     C84798   3.219   5.583   3.543 -0.5916  0.9716 -0.0204
  615MOL0     C84799   3.359   5.589   3.544 -1.0764  0.0119  0.6144
  615MOL0     C84800   3.421   5.659   3.662 -0.5754 -0.9737  0.6933
  615MOL0     H84801   3.855   5.559   3.363  0.8029  0.6979  1.3660
  615MOL0     H84802   4.079   5.448   3.395 -1.6156  1.8284  0.6720
  615MOL0     H84803   4.270   5.083   3.310 -1.1970 -1.4703 -2.2277
  615MOL0     H84804   4.100   5.068   3.266 -0.3856 -0.5092  0.0825
  615MOL0     H84805   4.159   5.028   3.572  0.8718  1.2381 -0.1029
  615MOL0     H84806   4.032   4.972   3.480 -0.2740  0.3492 -0.8942
  615MOL0     H84807   4.307   4.865   3.412 -0.6723  1.1358 -1.1439
  615MOL0     H84808   4.215   4.811   3.548 -1.9060  1.1285  1.8872
  615MOL0     H84809   4.025   4.748   3.380  0.1021 -0.2692 -0.1691
  615MOL0     H84810   4.128   4.818   3.249  0.9814 -0.9437  0.1186
  615MOL0     H84811   4.181   4.583   3.438 -1.5508 -1.2146 -0.5176
  615MOL0     H84812   4.299   4.650   3.333 -0.6830  2.1193  1.5176
  615MOL0     H84813   4.024   4.560   3.218  0.0557 -1.8055 -1.1040
  615MOL0     H84814   4.181   4.550   3.139 -2.7065 -0.9412 -1.6403
  615MOL0     H84815   4.094   4.376   3.370 -0.0382 -0.1655 -0.1086
  615MOL0     H84816   4.265   4.379   3.325 -1.0622 -3.7693  0.7488
  615MOL0     H84817   4.113   4.196   3.217 -0.0749 -0.8691  0.0037
  615MOL0     H84818   4.054   4.320   3.111  0.5007  0.9124  0.5000
  615MOL0     H84819   4.301   4.440   2.967  3.0369  0.5331 -0.8354
  615MOL0     H84820   4.499   4.436   2.854 -3.0688  0.2049 -1.9959
  615MOL0     H84821   4.461   4.317   2.743 -1.4257  1.1235  0.1925
  615MOL0     H84822   4.694   4.318   2.951  1.0378 -2.3460 -0.1777
  615MOL0     H84823   4.650   4.168   2.869 -0.8268 -0.5558  0.3705
  615MOL0     H84824   4.686   4.277   2.642 -2.0415 -1.9995  1.4395
  615MOL0     H84825   4.741   4.420   2.724 -1.5832  0.1367 -1.6418
  615MOL0     H84826   4.928   4.289   2.838 -0.1249 -0.8786  0.8040
  615MOL0     H84827   4.872   4.146   2.754  0.2717  0.0897  1.3289
  615MOL0     H84828   5.115   4.391   2.493 -1.0827 -1.8197 -0.4532
  615MOL0     H84829   5.478   4.498   2.533  1.0165 -1.8317  0.1486
  615MOL0     H84830   5.338   4.515   2.428  0.7515  2.7784  1.8414
  615MOL0     H84831   5.442   4.368   2.414  0.5602  1.1154 -0.4610
  615MOL0     H84832   5.757   4.389   2.963 -0.6459 -0.2151 -2.9440
  615MOL0     H84833   6.016   4.327   2.968 -1.3497  0.0894  1.3007
  615MOL0     H84834   6.134   3.963   2.707  3.1267 -1.3155  0.4240
  615MOL0     H84835   6.117   4.129   2.644  0.3942  0.3729  0.2206
  615MOL0     H84836   6.335   4.046   2.622 -4.2461 -0.2791 -1.2355
  615MOL0     H84837   6.334   4.189   2.724  0.2080  0.4619  3.6273
  615MOL0     H84838   6.374   3.906   2.813  1.1690  0.0706 -0.7306
  615MOL0     H84839   6.375   4.054   2.924 -1.3341  0.3200  0.2389
  615MOL0     H84840   6.564   4.146   2.784  1.5638 -0.7502  1.8576
  615MOL0     H84841   6.569   4.009   2.683  3.5986 -2.0933  1.3351
  615MOL0     H84842   6.596   3.993   2.989 -1.0918  1.8107 -0.4694
  615MOL0     H84843   6.636   3.872   2.876 -1.1479 -0.6021  2.9676
  615MOL0     H84844   6.782   4.144   2.937  2.8207 -0.4856  1.5404
  615MOL0     H84845   6.781   4.082   2.775 -4.6327  2.1179 -0.0566
  615MOL0     H84846   6.894   3.870   2.848 -0.0563 -1.1396  1.1191
  615MOL0     H84847   6.850   3.897   3.008 -0.2193  1.9954  1.4494
  615MOL0     H84848   7.081   3.936   2.975 -0.2137  1.6759  2.5610
  615MOL0     H84849   7.009   4.085   3.023 -0.5109 -0.0710  0.3129
  615MOL0     H84850   5.906   3.970   2.752  0.0408  0.0528  1.2831
  615MOL0     H84851   5.678   4.024   2.774 -1.4130  0.6004 -0.1446
  615MOL0     H84852   5.362   4.210   2.880 -0.9252  1.1776  1.0093
  615MOL0     H84853   5.105   4.197   2.859 -0.2106 -1.7259 -1.7155
  615MOL0     H84854   3.883   5.062   3.335  0.1288 -0.7159  0.5864
  615MOL0     H84855   3.682   5.157   3.330  2.2435 -2.3700  0.7470
  615MOL0     H84856   3.412   5.407   3.258  0.5383  0.4254  0.7051
  615MOL0     H84857   3.180   5.418   3.246  2.4527  1.6749 -2.1176
  615MOL0     H84858   2.829   5.524   3.343 -1.0143 -1.5585  1.4319
  615MOL0     H84859   2.975   5.489   3.262  2.2291  0.8268  0.5809
  615MOL0     H84860   2.870   5.276   3.261 -1.1646 -0.6058  0.7306
  615MOL0     H84861   2.793   5.296   3.421  1.2077  1.2497  2.9821
  615MOL0     H84862   3.083   5.255   3.387 -0.2607 -0.2628 -2.9860
  615MOL0     H84863   2.992   5.268   3.545  0.9530  0.1783 -0.1042
  615MOL0     H84864   2.973   5.061   3.335 -0.6410  1.0972  0.3176
  615MOL0     H84865   2.846   5.071   3.473 -0.1373 -1.6493  2.2868
  615MOL0     H84866   3.169   4.859   3.645 -0.5918  1.6312  1.0175
  615MOL0     H84867   3.166   5.626   3.627 -0.2172 -0.4579  0.9699
  615MOL0     H84868   3.530   5.661   3.664 -0.4971  2.2930 -1.0269
  615MOL0     H84869   3.389   5.761   3.639  1.2191 -0.7106 -0.8270
  615MOL0     H84870   3.374   5.620   3.754 -1.3415  1.2424  1.3035
  616MOL0     O84871   5.438   5.633   6.193 -0.2325 -0.6846  0.1293
  616MOL0     C84872   5.345   5.596   6.268 -0.2957 -0.1882 -0.3190
  616MOL0     O84873   5.354   5.493   6.364 -0.3919  0.1074 -0.1038
  616MOL0     C84874   5.471   5.426   6.383 -0.4486 -0.6971  0.0232
  616MOL0     C84875   5.527   5.353   6.273 -0.0112  0.8116  0.2124
  616MOL0     C84876   5.643   5.281   6.288  0.0345  0.1367  0.0189
  616MOL0     C84877   5.717   5.290   6.403 -0.6511  0.8923 -0.0484
  616MOL0     O84878   5.829   5.223   6.399 -0.6810  0.7747  0.9764
  616MOL0     C84879   5.946   5.299   6.434 -0.3708 -0.3155  0.5244
  616MOL0     C84880   6.063   5.233   6.355  0.0615 -0.4668 -0.9873
  616MOL0     C84881   6.085   5.093   6.418  0.5524 -0.7384  0.7081
  616MOL0     C84882   6.215   5.031   6.371 -0.1040 -0.9128  0.3753
  616MOL0     C84883   6.209   4.882   6.421  0.2479  0.7159  0.0915
  616MOL0     C84884   6.341   4.826   6.440 -0.5331 -0.1918  0.5620
  616MOL0     C84885   6.443   4.837   6.323 -0.2089 -0.0077 -0.2259
  616MOL0     C84886   6.577   4.764   6.346  0.7797 -0.2728 -0.5518
  616MOL0     N84887   6.664   4.786   6.224 -0.3043  0.5121 -0.1971
  616MOL0     C84888   6.731   4.897   6.181 -1.0179  0.5053  0.5385
  616MOL0     C84889   6.785   4.871   6.063 -0.6980 -0.4073  0.1172
  616MOL0     C84890   6.837   4.980   5.981  0.1817  0.0553 -0.0926
  616MOL0     C84891   6.986   5.011   6.027  0.2230 -0.1066 -0.6643
  616MOL0     C84892   7.071   5.071   5.911 -0.0044 -0.3307  0.3601
  616MOL0     C84893   7.208   5.132   5.961  0.7686  0.3272  0.4142
  616MOL0     O84894   7.201   5.255   6.027 -0.0870 -0.0822  0.1421
  616MOL0     C84895   7.322   5.318   6.043 -0.1952  0.7693  0.7368
  616MOL0     C84896   7.444   5.255   6.085  0.4768 -0.3713  0.0787
  616MOL0     C84897   7.568   5.325   6.088  1.6293  0.3955 -0.6340
  616MOL0     C84898   7.695   5.239   6.105 -0.2112  0.3807 -0.0546
  616MOL0     C84899   7.572   5.462   6.071 -0.6919  0.6317  0.7870
  616MOL0     C84900   7.703   5.539   6.075 -0.4096  1.2045 -0.4895
  616MOL0     O84901   7.790   5.497   6.180 -0.5204 -0.6796  0.9193
  616MOL0     C84902   7.921   5.536   6.172  0.0558 -1.2959 -1.0589
  616MOL0     C84903   8.016   5.435   6.181  0.2395 -0.9419  0.4089
  616MOL0     C84904   8.150   5.466   6.204  0.2654  0.4780 -0.3816
  616MOL0     C84905   8.195   5.597   6.210  0.1935  0.2469 -0.2184
  616MOL0     O84906   8.325   5.631   6.243  0.6677  0.1648  0.1441
  616MOL0     C84907   8.380   5.553   6.357  0.2755  0.2154 -0.3808
  616MOL0     C84908   8.494   5.632   6.414 -0.7512  0.8075  0.7444
  616MOL0     C84909   8.446   5.726   6.519 -0.2953 -0.4124  0.0231
  616MOL0     C84910   8.561   5.781   6.589 -0.4333 -0.1411 -0.2991
  616MOL0     C84911   8.525   5.891   6.693 -0.0136 -1.0105  0.1714
  616MOL0     C84912   8.645   5.912   6.787 -0.0058 -0.2440 -1.3556
  616MOL0     C84913   8.604   5.992   6.910  0.1293 -0.6587 -0.3477
  616MOL0     C84914   8.721   6.046   6.988 -0.7222 -0.2675  0.1947
  616MOL0    Cl84915   8.826   5.918   7.054  0.4797  0.7253  0.1553
  616MOL0     C84916   8.102   5.698   6.199 -0.3610 -0.4730 -0.3980
  616MOL0     C84917   7.967   5.670   6.177  0.0337  0.3535  0.2165
  616MOL0     O84918   7.720   5.634   5.996  0.5132  0.0885 -0.3053
  616MOL0     C84919   7.461   5.529   6.031  0.6417  0.6300  0.6429
  616MOL0     C84920   7.339   5.450   6.010  0.5337 -0.2873  1.3080
  616MOL0     N84921   6.753   4.739   6.031  0.2523  0.0928  0.5643
  616MOL0     N84922   6.679   4.692   6.128  0.5292 -0.0435 -0.9483
  616MOL0     C84923   5.670   5.365   6.509 -0.1559 -0.0451 -0.2907
  616MOL0     C84924   5.541   5.429   6.507 -0.4807  0.6949 -0.1728
  616MOL0     C84925   5.205   5.669   6.270 -0.3611  0.4886  0.2367
  616MOL0     C84926   5.095   5.617   6.340  0.2780  0.0513 -0.6671
  616MOL0     C84927   4.977   5.691   6.363  0.8175  0.0408  0.7946
  616MOL0     C84928   4.969   5.821   6.327  0.0672 -0.6549  0.0260
  616MOL0     O84929   4.857   5.898   6.353  0.6532  0.4762 -1.0616
  616MOL0     C84930   4.763   5.856   6.462 -0.1435 -0.5193  0.7896
  616MOL0     C84931   4.676   5.979   6.468  0.6603 -0.1212 -0.2275
  616MOL0     C84932   4.596   5.984   6.598  0.0952  0.3377  0.3156
  616MOL0     C84933   4.460   5.913   6.589  0.6171  0.3439  0.3738
  616MOL0     C84934   4.417   5.871   6.722 -0.3441 -0.4044 -0.3137
  616MOL0     C84935   4.422   5.839   6.841 -0.7553 -0.4923  0.2567
  616MOL0     C84936   5.066   5.872   6.250 -0.3306  0.5459  0.3748
  616MOL0     C84937   5.190   5.805   6.223 -0.2219  0.3822 -0.2324
  616MOL0     C84938   5.292   5.874   6.138  0.0974  0.0065  0.9435
  616MOL0     H84939   5.471   5.352   6.180  2.2545 -2.4855 -1.2927
  616MOL0     H84940   5.673   5.226   6.200  0.4841 -1.5330  1.1492
  616MOL0     H84941   5.963   5.306   6.542 -2.3535 -0.1231  0.8541
  616MOL0     H84942   5.948   5.402   6.399  2.0006 -0.4313  0.1304
  616MOL0     H84943   6.043   5.243   6.248 -2.5627 -1.0697 -0.6263
  616MOL0     H84944   6.156   5.290   6.366  1.4257 -2.6210 -0.8111
  616MOL0     H84945   6.093   5.107   6.526 -4.9963  3.1167  1.0380
  616MOL0     H84946   6.011   5.020   6.384  1.3838 -0.4262 -1.9657
  616MOL0     H84947   6.236   5.046   6.264  0.7083  3.4519  0.9530
  616MOL0     H84948   6.295   5.092   6.412 -0.4133 -0.2691  0.0429
  616MOL0     H84949   6.166   4.818   6.343  3.0774 -0.1022 -0.9161
  616MOL0     H84950   6.151   4.883   6.514  1.5648  1.9602  0.9413
  616MOL0     H84951   6.377   4.872   6.532  1.3028  0.5774 -0.4759
  616MOL0     H84952   6.329   4.719   6.460 -0.2132 -0.1668  0.8924
  616MOL0     H84953   6.474   4.942   6.318  1.8567 -0.5373  0.4408
  616MOL0     H84954   6.396   4.812   6.228 -1.4216 -0.4269  0.4589
  616MOL0     H84955   6.625   4.799   6.438  0.8973  1.1113 -1.1225
  616MOL0     H84956   6.553   4.658   6.363 -0.0932 -0.1222 -0.8087
  616MOL0     H84957   6.741   4.987   6.240 -0.5633  0.7638  0.0839
  616MOL0     H84958   6.779   5.072   5.972 -0.3872 -0.1651  1.1373
  616MOL0     H84959   6.832   4.946   5.877 -0.3399  1.0324 -0.3976
  616MOL0     H84960   6.976   5.090   6.102  1.5796 -1.5823  1.1652
  616MOL0     H84961   7.027   4.926   6.083 -0.3042  1.3105  2.0534
  616MOL0     H84962   7.089   4.996   5.834 -0.5729 -0.3217  0.2110
  616MOL0     H84963   7.015   5.157   5.873  0.1028 -1.1383 -1.7261
  616MOL0     H84964   7.245   5.056   6.031 -4.3619 -1.1410  1.9857
  616MOL0     H84965   7.263   5.146   5.868 -0.5624 -0.3187 -0.5077
  616MOL0     H84966   7.425   5.151   6.107 -6.7279 -0.3499 -2.9250
  616MOL0     H84967   7.740   5.239   6.204  1.6182 -1.3476 -0.8034
  616MOL0     H84968   7.776   5.277   6.042 -1.2055 -1.1457 -2.4300
  616MOL0     H84969   7.681   5.130   6.095  4.7844 -0.6536  1.4454
  616MOL0     H84970   7.995   5.329   6.168  0.7147 -0.8188 -1.9618
  616MOL0     H84971   8.214   5.384   6.233 -1.5234 -0.5319  0.9492
  616MOL0     H84972   8.297   5.531   6.425 -0.2903 -1.0805 -1.4278
  616MOL0     H84973   8.420   5.455   6.329 -1.4751 -0.7731  0.3710
  616MOL0     H84974   8.565   5.564   6.462  1.8001  1.5249 -1.7519
  616MOL0     H84975   8.549   5.683   6.335  0.9326  0.2569  1.5073
  616MOL0     H84976   8.377   5.682   6.592 -0.5750 -1.4260 -0.8397
  616MOL0     H84977   8.389   5.804   6.468  1.1535  0.2452 -0.6500
  616MOL0     H84978   8.628   5.820   6.512 -0.3455 -1.9684 -1.1988
  616MOL0     H84979   8.606   5.696   6.641 -1.5478 -0.3083  0.4287
  616MOL0     H84980   8.494   5.984   6.645  2.5781  0.5097  1.2424
  616MOL0     H84981   8.440   5.860   6.755  0.5268 -0.8982  0.9913
  616MOL0     H84982   8.722   5.964   6.730  0.8392 -1.1185 -1.0437
  616MOL0     H84983   8.680   5.813   6.819  2.1412  0.3496 -1.6859
  616MOL0     H84984   8.541   5.932   6.976  0.1971  2.0970  2.4497
  616MOL0     H84985   8.544   6.080   6.884  0.0451 -0.2276  1.2157
  616MOL0     H84986   8.691   6.103   7.076  1.8007  2.1751 -0.3850
  616MOL0     H84987   8.784   6.114   6.930  1.0162 -2.1741 -0.3078
  616MOL0     H84988   8.140   5.799   6.214 -0.5455 -0.2282 -1.4723
  616MOL0     H84989   7.889   5.743   6.159 -1.1653 -0.6813  1.0664
  616MOL0     H84990   7.474   5.631   5.994 -0.1063 -0.0075 -1.5481
  616MOL0     H84991   7.263   5.502   5.953  0.9290  0.2180  1.2321
  616MOL0     H84992   5.735   5.376   6.595 -0.4010  0.6327 -0.1808
  616MOL0     H84993   5.510   5.473   6.601 -0.8540 -1.5858  0.8301
  616MOL0     H84994   5.099   5.522   6.392 -1.7185 -0.6553 -1.6794
  616MOL0     H84995   4.898   5.638   6.415 -2.7964  1.8764 -2.3457
  616MOL0     H84996   4.716   5.762   6.430  1.4307 -1.0966  0.0679
  616MOL0     H84997   4.816   5.843   6.556  0.1627  1.0491  0.8594
  616MOL0     H84998   4.613   5.999   6.381  2.0254  1.4434 -0.9076
  616MOL0     H84999   4.747   6.062   6.481 -1.5550  1.8752 -0.2961
  616MOL0     H85000   4.642   5.940   6.687 -1.6380 -0.7775  0.6985
  616MOL0     H85001   4.579   6.089   6.625 -1.9297 -0.2871  1.7728
  616MOL0     H85002   4.463   5.833   6.515  1.9885 -1.2463  2.0480
  616MOL0     H85003   4.378   5.978   6.558 -1.9553 -4.5283 -4.9121
  616MOL0     H85004   4.421   5.809   6.944  3.0530 -3.8976 -0.4634
  616MOL0     H85005   5.057   5.977   6.225 -2.7518  0.5086  0.8630
  616MOL0     H85006   5.302   5.820   6.044 -1.6036  0.2053  0.6127
  616MOL0     H85007   5.247   5.972   6.117  1.1080  0.6063  1.4612
  616MOL0     H85008   5.384   5.881   6.197  1.1189  0.8231 -0.6898
  617MOL0     O85009   5.868   0.004   6.516 -0.5181 -0.1772 -0.0213
  617MOL0     C85010   5.860   0.024   6.639  0.1300 -0.2823  0.7501
  617MOL0     O85011   5.964   0.042   6.726  0.2143  0.0507  0.9940
  617MOL0     C85012   6.096   0.042   6.687  0.2226  0.3451  0.7142
  617MOL0     C85013   6.197  -0.005   6.774 -0.2020 -0.3495  0.3721
  617MOL0     C85014   6.335  -0.002   6.731  0.6946  0.7085  0.0641
  617MOL0     C85015   6.380   0.064   6.617 -0.4882 -0.0055  0.0264
  617MOL0     O85016   6.513   0.085   6.584 -0.0976 -0.3964  0.0038
  617MOL0     C85017   6.591  -0.033   6.584 -0.3901 -0.1297 -0.4131
  617MOL0     C85018   6.714  -0.008   6.504 -0.9222 -0.1182  0.1812
  617MOL0     C85019   6.820   0.089   6.577 -0.3993 -0.0554 -0.2251
  617MOL0     C85020   6.955   0.086   6.505  0.5479 -0.1175 -1.2489
  617MOL0     C85021   7.047   0.190   6.562  0.7406  0.0170 -0.4859
  617MOL0     C85022   7.162   0.223   6.467  0.1377  0.0655  0.5420
  617MOL0     C85023   7.129   0.349   6.393 -0.1155  0.3726  0.1284
  617MOL0     C85024   7.242   0.385   6.303 -0.7363 -0.5115  0.2391
  617MOL0     N85025   7.258   0.312   6.176 -0.2691 -0.1269 -0.5249
  617MOL0     C85026   7.343   0.351   6.074 -0.4065  0.2322 -0.2364
  617MOL0     C85027   7.319   0.256   5.977 -0.3104 -1.5878  0.2388
  617MOL0     C85028   7.385   0.258   5.842  0.4250  0.4007  0.0985
  617MOL0     C85029   7.363   0.377   5.759  0.3484 -0.2466  0.1426
  617MOL0     C85030   7.411   0.342   5.616  0.6624 -0.6294  1.0182
  617MOL0     C85031   7.385   0.458   5.512 -0.9051 -0.6667  0.6885
  617MOL0     O85032   7.258   0.504   5.522  0.1625 -1.0682 -0.1567
  617MOL0     C85033   7.227   0.624   5.455 -0.4387 -0.2265  0.4991
  617MOL0     C85034   7.324   0.700   5.382 -0.1813  0.8230  0.3419
  617MOL0     C85035   7.288   0.818   5.316 -0.7343  0.6777  0.7678
  617MOL0     C85036   7.393   0.882   5.218 -0.8507  0.0129 -0.3973
  617MOL0     C85037   7.157   0.873   5.342  0.6707 -0.5213  0.3164
  617MOL0     C85038   7.122   1.011   5.295 -0.1547 -0.0803 -0.0482
  617MOL0     O85039   7.193   1.062   5.194 -0.2845 -0.7733  0.0572
  617MOL0     C85040   7.164   1.195   5.153 -0.0301  0.5076  0.4234
  617MOL0     C85041   7.193   1.312   5.231  0.1519  0.2653 -0.2569
  617MOL0     C85042   7.191   1.438   5.167 -0.0524  0.4126  0.0186
  617MOL0     C85043   7.156   1.459   5.023 -0.4539  0.2421 -0.3446
  617MOL0     O85044   7.136   1.583   4.960 -0.1813  0.4975 -0.6316
  617MOL0     C85045   7.157   1.702   5.051  0.5922  1.0847  0.1223
  617MOL0     C85046   7.098   1.822   4.975 -0.2703 -0.4273 -0.0491
  617MOL0     C85047   7.149   1.828   4.828 -0.4737  0.4421  0.2229
  617MOL0     C85048   7.098   1.946   4.742 -0.5797 -0.0194 -0.2006
  617MOL0     C85049   7.139   1.937   4.594  0.0118  0.1366  0.6066
  617MOL0     C85050   7.283   1.934   4.552 -0.0558  0.2101 -0.2164
  617MOL0     C85051   7.311   1.961   4.409  0.2770 -0.2038  0.2235
  617MOL0     C85052   7.460   1.931   4.380 -0.0305  0.1714  0.4438
  617MOL0    Cl85053   7.581   2.030   4.483  0.0166 -0.2760  0.0677
  617MOL0     C85054   7.130   1.344   4.951 -0.0120 -0.2805  0.8676
  617MOL0     C85055   7.140   1.219   5.016 -0.0207  0.1343 -0.0808
  617MOL0     O85056   7.044   1.070   5.370 -0.0004 -0.2536  0.3934
  617MOL0     C85057   7.064   0.802   5.419 -1.0200  0.3469  0.4097
  617MOL0     C85058   7.097   0.676   5.467 -0.8093  0.0074 -0.2309
  617MOL0     N85059   7.215   0.176   6.011  0.3803  0.1113 -0.3631
  617MOL0     N85060   7.177   0.209   6.136  0.2473  0.3621  0.1499
  617MOL0     C85061   6.284   0.107   6.533  0.0510  0.7201  0.6828
  617MOL0     C85062   6.144   0.100   6.571  0.1624  0.6995  0.4319
  617MOL0     C85063   5.723   0.055   6.690 -0.2074  0.6948  0.3573
  617MOL0     C85064   5.717   0.148   6.796  0.6563  0.0027 -0.7677
  617MOL0     C85065   5.599   0.203   6.843 -0.0106  0.0868 -0.1576
  617MOL0     C85066   5.477   0.159   6.795  0.1633  0.0731 -0.2516
  617MOL0     O85067   5.373   0.223   6.860  0.5056  0.6426  0.4130
  617MOL0     C85068   5.243   0.215   6.803  0.6578  0.0387 -0.2247
  617MOL0     C85069   5.149   0.320   6.872  0.1252  0.5190 -0.6972
  617MOL0     C85070   5.209   0.466   6.882  0.3004  0.1235  0.2901
  617MOL0     C85071   5.100   0.559   6.938  0.2564 -0.4192 -0.2428
  617MOL0     C85072   5.040   0.511   7.059 -0.8561  0.1936 -0.3854
  617MOL0     C85073   4.997   0.449   7.153  0.0445 -0.2692  0.7173
  617MOL0     C85074   5.478   0.062   6.690 -0.5091 -1.6165  0.0811
  617MOL0     C85075   5.601   0.005   6.645 -0.2599 -0.7596  0.1149
  617MOL0     C85076   5.589  -0.101   6.548 -0.0193 -0.6664  1.4310
  617MOL0     H85077   6.160  -0.048   6.866 -0.8674  0.4682  0.4986
  617MOL0     H85078   6.404  -0.035   6.808  0.5180 -0.7780 -0.3768
  617MOL0     H85079   6.531  -0.115   6.544  0.6025 -1.3118  0.4440
  617MOL0     H85080   6.610  -0.073   6.684  1.2689  0.4638 -0.4545
  617MOL0     H85081   6.775  -0.098   6.490  0.0671 -0.0777  3.4462
  617MOL0     H85082   6.688   0.037   6.407  0.2785  0.4834  0.1232
  617MOL0     H85083   6.780   0.191   6.574  0.4665  0.3565  1.2102
  617MOL0     H85084   6.838   0.055   6.679  0.0669 -0.8737 -0.5762
  617MOL0     H85085   7.011  -0.008   6.514  0.1940 -0.1956  0.6538
  617MOL0     H85086   6.948   0.114   6.400  3.5459  0.1205 -1.4636
  617MOL0     H85087   7.095   0.157   6.654  0.0294 -1.8926 -0.7610
  617MOL0     H85088   6.988   0.281   6.573  0.6050  0.1157 -1.8599
  617MOL0     H85089   7.253   0.241   6.524  0.8280  1.8781 -1.0324
  617MOL0     H85090   7.186   0.139   6.401 -2.0730 -0.3133  0.1346
  617MOL0     H85091   7.115   0.424   6.472 -1.6826 -0.8497  1.0738
  617MOL0     H85092   7.038   0.360   6.334 -1.1372  0.8874  1.7384
  617MOL0     H85093   7.228   0.491   6.281  0.0694 -0.0217  1.9314
  617MOL0     H85094   7.338   0.374   6.356 -0.7479  2.3518  1.0135
  617MOL0     H85095   7.406   0.439   6.070 -1.2623  0.8182 -1.1207
  617MOL0     H85096   7.341   0.179   5.779 -1.2590  4.0298 -3.7385
  617MOL0     H85097   7.492   0.235   5.853  0.3419  0.7527  1.9574
  617MOL0     H85098   7.256   0.396   5.745  0.2436 -0.0540  1.1765
  617MOL0     H85099   7.414   0.464   5.802 -1.5229  0.6932  0.5751
  617MOL0     H85100   7.519   0.326   5.618  0.5465 -1.4131  1.1754
  617MOL0     H85101   7.364   0.252   5.576 -0.2481  0.4305 -0.4095
  617MOL0     H85102   7.455   0.540   5.528 -1.9115  0.2934  0.2609
  617MOL0     H85103   7.405   0.424   5.410  0.1071  0.9965  0.3082
  617MOL0     H85104   7.426   0.667   5.365 -0.2891  0.2747  0.7310
  617MOL0     H85105   7.402   0.991   5.228  0.6617  0.1055 -2.0830
  617MOL0     H85106   7.357   0.867   5.116 -0.2972  0.2785 -0.6402
  617MOL0     H85107   7.499   0.854   5.223 -1.2227 -1.2915  0.8313
  617MOL0     H85108   7.224   1.306   5.335 -0.3835  0.8586 -0.0624
  617MOL0     H85109   7.208   1.524   5.231  0.0414 -0.3759  1.0711
  617MOL0     H85110   7.095   1.680   5.139  1.6076  0.5319  0.7106
  617MOL0     H85111   7.259   1.732   5.077  0.7943 -0.6504  1.5264
  617MOL0     H85112   6.989   1.826   4.979 -0.2509  2.8407 -0.3171
  617MOL0     H85113   7.141   1.901   5.036  0.8612 -1.6059  0.7485
  617MOL0     H85114   7.124   1.738   4.770 -1.5679  1.5905 -1.1637
  617MOL0     H85115   7.258   1.837   4.828 -0.3441 -0.5336 -1.9111
  617MOL0     H85116   7.141   2.037   4.784  2.1106 -0.6693 -1.3217
  617MOL0     H85117   6.989   1.954   4.747 -0.4598  2.7218 -0.5530
  617MOL0     H85118   7.080   1.859   4.545  1.3425 -0.8741  0.5853
  617MOL0     H85119   7.098   2.034   4.565 -1.0962 -0.7633 -0.9698
  617MOL0     H85120   7.330   1.839   4.580  0.4763  0.2237 -1.0159
  617MOL0     H85121   7.339   2.013   4.603  0.1829  0.3574 -0.6930
  617MOL0     H85122   7.295   2.069   4.398  1.1542 -0.2636 -2.2158
  617MOL0     H85123   7.244   1.919   4.333  0.0466  2.0684 -0.9287
  617MOL0     H85124   7.493   1.941   4.276 -0.0052  0.1948  0.4542
  617MOL0     H85125   7.482   1.826   4.401 -0.5826 -0.2578 -0.9814
  617MOL0     H85126   7.126   1.335   4.843  4.1338 -1.0013  0.6475
  617MOL0     H85127   7.138   1.134   4.948  2.1443 -1.1299  1.2836
  617MOL0     H85128   6.963   0.834   5.442 -1.4154 -0.1811 -0.5260
  617MOL0     H85129   7.018   0.635   5.530 -1.9625 -0.7821 -2.1105
  617MOL0     H85130   6.315   0.129   6.432  0.9553 -1.4837  0.4179
  617MOL0     H85131   6.075   0.128   6.492 -0.5231 -0.6859  0.5222
  617MOL0     H85132   5.807   0.200   6.829 -0.6957  0.3792  2.6839
  617MOL0     H85133   5.598   0.278   6.922  0.4283 -0.6076  0.5137
  617MOL0     H85134   5.254   0.238   6.697 -1.5872  0.0189 -0.4938
  617MOL0     H85135   5.196   0.117   6.813  1.1710 -0.3474 -1.4213
  617MOL0     H85136   5.138   0.273   6.970  1.3792  1.2856 -0.1730
  617MOL0     H85137   5.053   0.325   6.821  1.5633  0.4970 -3.6146
  617MOL0     H85138   5.288   0.470   6.958 -0.6199 -0.1537  1.2769
  617MOL0     H85139   5.249   0.498   6.785 -1.9797  0.9379 -0.4473
  617MOL0     H85140   5.014   0.567   6.871  1.6248  4.1389 -1.8730
  617MOL0     H85141   5.137   0.662   6.940 -1.7078  0.3325 -0.3241
  617MOL0     H85142   4.951   0.390   7.230 -1.4351  1.7453  1.4683
  617MOL0     H85143   5.381   0.025   6.656 -1.0892  0.2388 -0.3925
  617MOL0     H85144   5.679  -0.163   6.544  0.9575  0.6754  1.8449
  617MOL0     H85145   5.508  -0.164   6.584  0.0971 -0.6699  1.6939
  617MOL0     H85146   5.562  -0.066   6.448 -0.7098 -0.0175  1.8338
  618MOL0     O85147   6.970   8.183   8.499 -0.1284 -0.2673 -0.2508
  618MOL0     C85148   6.863   8.128   8.466 -0.2767 -0.4039 -0.8654
  618MOL0     O85149   6.849   7.991   8.439  0.2952  0.2866  0.0452
  618MOL0     C85150   6.970   7.926   8.440 -1.1255  0.1434 -0.2996
  618MOL0     C85151   7.033   7.894   8.317  0.0125 -0.4920 -1.1812
  618MOL0     C85152   7.148   7.827   8.318 -0.0082  0.6415  0.2241
  618MOL0     C85153   7.208   7.776   8.434  0.9583  0.1227 -0.8720
  618MOL0     O85154   7.310   7.693   8.410 -0.2567 -0.6652  0.1546
  618MOL0     C85155   7.402   7.677   8.527  0.6684 -0.0979  1.2728
  618MOL0     C85156   7.536   7.621   8.478  0.5945 -0.1122 -0.2593
  618MOL0     C85157   7.610   7.702   8.379  0.2201  0.3662  0.7286
  618MOL0     C85158   7.698   7.599   8.300 -1.0000  0.2759 -0.2414
  618MOL0     C85159   7.820   7.670   8.222  0.1047  0.5264  0.6072
  618MOL0     C85160   7.917   7.736   8.322  0.7115  0.2369  0.0341
  618MOL0     C85161   8.039   7.782   8.251 -1.2607  0.4066  0.3368
  618MOL0     C85162   8.146   7.675   8.252  0.5186 -0.1006  0.2964
  618MOL0     N85163   8.222   7.672   8.122  0.1899 -0.1147 -0.8025
  618MOL0     C85164   8.248   7.559   8.050  0.2894  0.7506 -0.4253
  618MOL0     C85165   8.333   7.591   7.953 -0.5139 -0.2103  0.2956
  618MOL0     C85166   8.392   7.492   7.853  0.4932  0.4324  0.1771
  618MOL0     C85167   8.452   7.551   7.727  0.0103 -0.0931  0.3738
  618MOL0     C85168   8.486   7.444   7.617  0.7145  1.0188  0.7064
  618MOL0     C85169   8.516   7.513   7.484 -0.4679  0.3342  0.1676
  618MOL0     O85170   8.530   7.416   7.383 -0.5277 -0.8627 -0.0498
  618MOL0     C85171   8.575   7.478   7.267 -0.1884  0.1134 -0.3203
  618MOL0     C85172   8.531   7.606   7.226 -0.8985  1.0078 -0.0043
  618MOL0     C85173   8.562   7.655   7.101 -0.0947 -1.0218 -0.8578
  618MOL0     C85174   8.503   7.792   7.056 -0.7578 -0.3785 -0.7289
  618MOL0     C85175   8.653   7.571   7.025 -0.3440 -0.6299  0.0191
  618MOL0     C85176   8.729   7.624   6.904  0.8734  0.5227  0.2868
  618MOL0     O85177   8.717   7.754   6.892 -0.7641 -0.2790  0.4679
  618MOL0     C85178   8.835   7.820   6.848  0.2124  0.3106 -0.2814
  618MOL0     C85179   8.953   7.792   6.914  1.2247 -0.5329  0.6361
  618MOL0     C85180   9.070   7.858   6.894 -0.2678  0.2379  0.1811
  618MOL0     C85181   9.084   7.950   6.785 -0.2512 -0.8573 -0.0106
  618MOL0     O85182   9.195   8.024   6.738  0.1835 -0.8618  0.6106
  618MOL0     C85183   9.322   7.972   6.752 -0.0845 -0.4342  0.2145
  618MOL0     C85184   9.392   7.989   6.889 -0.4712 -0.0405 -0.9103
  618MOL0     C85185   9.538   7.964   6.877  0.9767  0.0150  0.1076
  618MOL0     C85186   9.627   7.965   7.003  0.6184  0.1883 -1.0310
  618MOL0     C85187   9.776   7.955   6.991 -1.0465 -0.0650 -0.0572
  618MOL0     C85188   9.856   7.995   7.113 -0.2781  0.4028 -0.1553
  618MOL0     C85189  10.007   7.982   7.083  0.1012 -1.1131 -0.0173
  618MOL0     C85190  10.079   8.103   7.024 -0.0609  0.6139  0.6652
  618MOL0    Cl85191  10.023   8.267   7.087 -0.0372  0.3183 -0.0620
  618MOL0     C85192   8.963   7.975   6.713  0.0465  0.1949 -0.5748
  618MOL0     C85193   8.841   7.916   6.747 -0.5491  0.0632  0.1121
  618MOL0     O85194   8.808   7.548   6.841 -0.0587 -0.4744  0.3974
  618MOL0     C85195   8.683   7.440   7.067  0.3468 -0.4689 -0.5068
  618MOL0     C85196   8.647   7.401   7.190  0.8045  1.2750  0.6882
  618MOL0     N85197   8.338   7.728   7.949 -0.4962  0.3814  0.0022
  618MOL0     N85198   8.285   7.777   8.043 -0.6384  0.8030  0.8916
  618MOL0     C85199   7.147   7.797   8.556  0.2422 -0.6315 -0.1054
  618MOL0     C85200   7.034   7.875   8.557  0.4821 -0.5358  0.0591
  618MOL0     C85201   6.752   8.220   8.463  0.5479  0.0046 -0.1234
  618MOL0     C85202   6.670   8.211   8.353 -1.0499 -0.5112  0.3880
  618MOL0     C85203   6.558   8.289   8.345 -0.1980 -0.2843  0.4745
  618MOL0     C85204   6.512   8.374   8.450 -0.7350  0.6174 -0.3837
  618MOL0     O85205   6.404   8.452   8.463 -0.0907 -0.5798  0.4471
  618MOL0     C85206   6.289   8.417   8.382  0.2382  0.1023 -0.3625
  618MOL0     C85207   6.198   8.354   8.488  1.0663 -0.5109  1.3081
  618MOL0     C85208   6.067   8.313   8.416  0.2955 -0.0187 -0.0416
  618MOL0     C85209   5.955   8.261   8.515 -0.6509  0.0972  0.0705
  618MOL0     C85210   5.859   8.188   8.437  0.2450 -0.2414 -0.1605
  618MOL0     C85211   5.779   8.139   8.364  0.2737  0.6562  0.4697
  618MOL0     C85212   6.593   8.365   8.569 -0.2956 -0.2302 -0.1382
  618MOL0     C85213   6.716   8.297   8.575  0.3310  0.4319  0.0142
  618MOL0     C85214   6.800   8.313   8.705 -0.1115 -0.2329  0.2761
  618MOL0     H85215   6.974   7.930   8.233 -0.4867  0.1073 -0.5842
  618MOL0     H85216   7.193   7.805   8.222 -1.3089  0.1290 -0.2819
  618MOL0     H85217   7.358   7.608   8.600  1.5087 -0.1900  1.7040
  618MOL0     H85218   7.427   7.772   8.576 -0.8898  1.3288 -0.5269
  618MOL0     H85219   7.592   7.612   8.571 -2.0008 -0.5372  1.3629
  618MOL0     H85220   7.521   7.517   8.444 -0.9645  0.2370 -0.7417
  618MOL0     H85221   7.544   7.757   8.310 -0.1315 -1.9208 -0.8781
  618MOL0     H85222   7.674   7.777   8.425  1.3702  0.4668 -0.9660
  618MOL0     H85223   7.743   7.527   8.369 -0.9180  0.9346  0.4121
  618MOL0     H85224   7.641   7.540   8.228  0.5885 -0.6473 -0.7807
  618MOL0     H85225   7.776   7.745   8.156 -1.6560 -1.5273 -0.6759
  618MOL0     H85226   7.864   7.584   8.171  1.2211 -0.9207  3.7621
  618MOL0     H85227   7.870   7.819   8.375  0.1156  0.8385 -1.3897
  618MOL0     H85228   7.955   7.662   8.393 -0.2384 -1.6150 -1.2962
  618MOL0     H85229   8.074   7.881   8.279  1.4808 -0.1964 -0.6532
  618MOL0     H85230   8.014   7.797   8.145 -2.0618 -0.1429  0.4333
  618MOL0     H85231   8.211   7.685   8.339  1.5692 -1.1827 -0.3276
  618MOL0     H85232   8.108   7.574   8.268  3.6457 -1.0841  2.3229
  618MOL0     H85233   8.211   7.460   8.075 -0.8993  0.8185 -1.7959
  618MOL0     H85234   8.298   7.441   7.830 -0.6485  0.9684  3.2066
  618MOL0     H85235   8.458   7.418   7.901  1.3907 -0.8799 -2.8361
  618MOL0     H85236   8.379   7.624   7.692 -0.7878 -2.0845 -2.4162
  618MOL0     H85237   8.552   7.593   7.745  1.8287 -3.9404  0.3567
  618MOL0     H85238   8.575   7.385   7.641  0.0668 -0.6693 -0.7526
  618MOL0     H85239   8.395   7.383   7.610  1.8825 -0.6458 -1.1843
  618MOL0     H85240   8.431   7.580   7.469 -1.3995 -0.8046  0.1656
  618MOL0     H85241   8.612   7.565   7.495 -0.6104  0.3330  1.4591
  618MOL0     H85242   8.461   7.667   7.282  0.3472  1.8337  0.6993
  618MOL0     H85243   8.433   7.820   7.135  1.0311  1.4716  0.2855
  618MOL0     H85244   8.456   7.787   6.958 -2.8282  1.8608  0.0527
  618MOL0     H85245   8.578   7.871   7.049 -0.8216  0.2082  2.9588
  618MOL0     H85246   8.953   7.724   6.998 -0.7074  0.9268  1.9261
  618MOL0     H85247   9.155   7.815   6.946  0.0098  0.6695  0.0878
  618MOL0     H85248   9.316   7.863   6.743  0.0641 -0.5784  1.5704
  618MOL0     H85249   9.383   8.004   6.668  1.7033 -3.2323  0.3006
  618MOL0     H85250   9.393   8.088   6.937 -0.8419 -1.3142  1.9355
  618MOL0     H85251   9.341   7.922   6.959  4.8503 -2.8320  0.9001
  618MOL0     H85252   9.576   8.031   6.799 -3.9289  1.0263 -1.7745
  618MOL0     H85253   9.546   7.859   6.847  1.1639  0.0212  0.1372
  618MOL0     H85254   9.590   7.898   7.081 -2.1402  3.0458  0.3500
  618MOL0     H85255   9.608   8.065   7.043  1.0796  0.3376 -1.1857
  618MOL0     H85256   9.814   7.857   6.962  2.9857  1.4687 -0.6481
  618MOL0     H85257   9.813   8.023   6.914  0.1116 -0.9865 -0.3424
  618MOL0     H85258   9.835   7.917   7.187 -1.1968 -2.0029 -2.7679
  618MOL0     H85259   9.830   8.092   7.156 -1.6356 -0.3819  0.8841
  618MOL0     H85260  10.016   7.894   7.018 -0.4214 -2.4000  1.5784
  618MOL0     H85261  10.053   7.962   7.181  0.8308  0.7267  0.0575
  618MOL0     H85262  10.041   8.109   6.921 -1.1690  4.4033  1.1556
  618MOL0     H85263  10.188   8.096   7.020 -0.1130  0.3157 -0.8761
  618MOL0     H85264   8.971   8.049   6.634 -3.1667  0.3436 -0.8724
  618MOL0     H85265   8.749   7.931   6.692 -0.0743 -0.0166 -0.7204
  618MOL0     H85266   8.753   7.374   7.015 -0.8105 -1.2582 -1.1197
  618MOL0     H85267   8.671   7.299   7.220 -0.1125  0.7018 -0.4323
  618MOL0     H85268   7.186   7.765   8.652 -2.4144 -0.6184  1.0610
  618MOL0     H85269   6.987   7.893   8.653  0.3851  0.1464 -0.1074
  618MOL0     H85270   6.708   8.147   8.274  3.3207 -1.1369  2.6897
  618MOL0     H85271   6.497   8.273   8.257 -1.7383  0.7230  1.2992
  618MOL0     H85272   6.256   8.511   8.337 -2.5596 -1.1018 -1.0710
  618MOL0     H85273   6.313   8.352   8.297  2.5944  0.8814 -0.3641
  618MOL0     H85274   6.176   8.432   8.561  0.0756 -1.8404  2.4867
  618MOL0     H85275   6.242   8.262   8.527  0.3332 -1.4997 -0.0658
  618MOL0     H85276   6.010   8.385   8.356 -1.8514 -1.2908  0.3562
  618MOL0     H85277   6.094   8.231   8.349 -0.3129 -0.4381  0.2139
  618MOL0     H85278   5.912   8.345   8.572  2.2222  1.1626  0.8666
  618MOL0     H85279   6.001   8.196   8.590 -2.2376  0.6705  1.6350
  618MOL0     H85280   5.703   8.092   8.304  2.0435 -0.4136 -1.0242
  618MOL0     H85281   6.566   8.439   8.644  0.7790  0.8929 -0.8187
  618MOL0     H85282   6.736   8.360   8.781 -0.5407 -1.0479  0.4287
  618MOL0     H85283   6.824   8.212   8.741  0.4975 -0.3684 -0.4959
  618MOL0     H85284   6.893   8.369   8.695  0.4379 -1.2172 -0.1957
  619MOL0     O85285  10.398   7.804   3.804  0.0654 -0.3311 -0.0884
  619MOL0     C85286  10.342   7.851   3.710  0.0516 -0.3659 -0.6407
  619MOL0     O85287  10.383   7.958   3.635 -0.2027  0.1717  0.1568
  619MOL0     C85288  10.502   8.012   3.668 -0.3325  0.6754  0.3344
  619MOL0     C85289  10.502   8.117   3.767 -0.0642  0.3604 -0.3307
  619MOL0     C85290  10.620   8.176   3.809 -0.2511  0.3170  0.8118
  619MOL0     C85291  10.740   8.129   3.750  0.7482 -0.5147 -0.0330
  619MOL0     O85292  10.860   8.183   3.790  0.2405 -0.3873 -0.7633
  619MOL0     C85293  10.862   8.325   3.787  0.2904 -0.6257 -0.4263
  619MOL0     C85294  10.982   8.375   3.695  0.1903  0.2575 -0.4288
  619MOL0     C85295  11.109   8.392   3.775 -0.1540 -0.2468 -0.8405
  619MOL0     C85296  11.231   8.386   3.677 -0.0421  0.6340 -0.4231
  619MOL0     C85297  11.363   8.422   3.744  0.0430  0.2104  0.5849
  619MOL0     C85298  11.391   8.337   3.860 -1.2307  0.3828 -0.1525
  619MOL0     C85299  11.530   8.363   3.916 -0.4949  0.5643 -0.1730
  619MOL0     C85300  11.564   8.303   4.053  0.0985  0.3918 -0.3444
  619MOL0     N85301  11.538   8.163   4.057 -0.8640 -0.6407  0.5185
  619MOL0     C85302  11.439   8.102   4.137 -0.4491 -0.4754 -0.5062
  619MOL0     C85303  11.442   7.974   4.096 -0.2908 -0.1718 -0.1403
  619MOL0     C85304  11.334   7.876   4.130 -0.3100  0.8092  0.7328
  619MOL0     C85305  11.374   7.730   4.092 -0.1711  0.2735  0.0109
  619MOL0     C85306  11.275   7.620   4.109 -0.2828  0.1653  0.1110
  619MOL0     C85307  11.164   7.669   4.203 -0.1072 -0.4092 -0.1444
  619MOL0     O85308  11.069   7.570   4.251 -0.5453  0.1906  0.3807
  619MOL0     C85309  10.997   7.537   4.143  0.6041 -0.3553 -0.3153
  619MOL0     C85310  10.888   7.614   4.096  0.5297 -0.0981 -0.4441
  619MOL0     C85311  10.807   7.586   3.980 -0.8754  1.0479 -0.3394
  619MOL0     C85312  10.700   7.682   3.942 -0.0358  0.7715 -0.5864
  619MOL0     C85313  10.839   7.468   3.912 -0.1398  0.4528  0.5260
  619MOL0     C85314  10.772   7.417   3.791  0.0169 -0.7771  0.3115
  619MOL0     O85315  10.635   7.436   3.781  0.3822  0.8650 -0.4355
  619MOL0     C85316  10.588   7.427   3.654  0.7528  0.5022  0.3190
  619MOL0     C85317  10.580   7.535   3.567  0.2361  0.0128  0.6028
  619MOL0     C85318  10.526   7.525   3.440  0.2968 -1.2246  0.0687
  619MOL0     C85319  10.473   7.403   3.394 -0.2028 -0.0112 -1.1151
  619MOL0     O85320  10.446   7.388   3.263  0.5062  0.0540  0.3135
  619MOL0     C85321  10.337   7.475   3.228 -0.3426 -0.2814 -0.5311
  619MOL0     C85322  10.303   7.435   3.085 -0.1539  0.5497  0.2581
  619MOL0     C85323  10.153   7.450   3.058  0.3746 -0.1088  0.3853
  619MOL0     C85324  10.120   7.602   3.070 -0.5021  1.1816  0.0650
  619MOL0     C85325   9.978   7.642   3.032  0.1649  0.2522  0.1537
  619MOL0     C85326   9.871   7.558   3.115 -0.2267  0.5711  0.6525
  619MOL0     C85327   9.736   7.602   3.084  0.7857  0.5903  0.5453
  619MOL0     C85328   9.643   7.503   3.165 -0.6562 -0.1497 -0.9839
  619MOL0    Cl85329   9.488   7.590   3.160 -0.0164  0.2293  0.1824
  619MOL0     C85330  10.464   7.291   3.486 -0.4864  0.2019  0.4035
  619MOL0     C85331  10.528   7.311   3.614 -0.8824  1.1555  0.2320
  619MOL0     O85332  10.848   7.359   3.709  0.4078  0.3177  0.0179
  619MOL0     C85333  10.945   7.386   3.960  0.8235 -1.0659  0.5104
  619MOL0     C85334  11.023   7.418   4.068  0.1556 -0.4681  0.7045
  619MOL0     N85335  11.544   7.955   4.006  0.4890 -0.4532  1.0125
  619MOL0     N85336  11.597   8.063   3.986 -0.3077 -0.4377  0.7777
  619MOL0     C85337  10.735   8.037   3.650  0.1461  0.8223 -0.3701
  619MOL0     C85338  10.621   7.965   3.610  0.6194  0.0728 -0.1854
  619MOL0     C85339  10.232   7.766   3.654 -0.3140  0.4223  0.6145
  619MOL0     C85340  10.253   7.624   3.646 -0.2223 -0.8815  0.1781
  619MOL0     C85341  10.168   7.530   3.591 -0.2027  0.0581 -0.3793
  619MOL0     C85342  10.065   7.574   3.508  0.4572 -0.3147  0.0625
  619MOL0     O85343   9.972   7.502   3.433  0.1140 -0.2191  0.1758
  619MOL0     C85344   9.910   7.389   3.498 -0.5244  0.4641  0.1730
  619MOL0     C85345   9.980   7.270   3.434 -0.4779  0.1161 -0.0178
  619MOL0     C85346   9.901   7.137   3.453  0.9514  0.3262 -0.3586
  619MOL0     C85347   9.917   7.061   3.591 -0.0205 -0.4056 -0.2745
  619MOL0     C85348  10.056   7.036   3.622 -1.3571  0.5334  0.0245
  619MOL0     C85349  10.180   7.035   3.637  0.3760 -0.0182  0.0472
  619MOL0     C85350  10.055   7.713   3.488 -0.1067  0.3203  0.7550
  619MOL0     C85351  10.130   7.806   3.559 -0.8290 -0.4886 -0.8217
  619MOL0     C85352  10.100   7.945   3.528 -0.5273 -0.2614 -0.2355
  619MOL0     H85353  10.409   8.142   3.816 -1.2901 -0.6810 -2.0316
  619MOL0     H85354  10.605   8.244   3.891 -3.0465 -0.5246  1.0975
  619MOL0     H85355  10.870   8.374   3.885  1.1948 -3.4105  0.9994
  619MOL0     H85356  10.774   8.367   3.738 -0.6034  0.6586  2.0647
  619MOL0     H85357  10.982   8.292   3.624 -0.8501 -0.1544  0.0206
  619MOL0     H85358  10.948   8.464   3.642  0.2784  2.7074  3.3035
  619MOL0     H85359  11.104   8.487   3.829 -1.6953 -1.5347  1.4840
  619MOL0     H85360  11.111   8.319   3.857 -0.3165 -0.8205 -1.3412
  619MOL0     H85361  11.229   8.283   3.641 -2.5375 -0.2242  1.8406
  619MOL0     H85362  11.203   8.458   3.600 -1.1765  2.1456  1.3275
  619MOL0     H85363  11.362   8.527   3.774 -1.6895  0.7864 -1.2415
  619MOL0     H85364  11.438   8.411   3.665 -1.3636  1.5881 -1.0312
  619MOL0     H85365  11.318   8.365   3.937 -2.1064 -0.5797 -0.6142
  619MOL0     H85366  11.385   8.233   3.828  2.2561  0.6937 -2.3741
  619MOL0     H85367  11.552   8.469   3.930 -0.1117  0.3378  1.1582
  619MOL0     H85368  11.603   8.320   3.847  0.3397  0.0385  0.9947
  619MOL0     H85369  11.669   8.312   4.080 -0.8790  0.3895  4.1567
  619MOL0     H85370  11.505   8.361   4.125  1.0832  1.5718 -0.4605
  619MOL0     H85371  11.365   8.137   4.208  2.0126 -0.0371  2.0422
  619MOL0     H85372  11.240   7.904   4.081 -1.0389 -2.8801 -0.3312
  619MOL0     H85373  11.329   7.884   4.239  2.4244  1.4833  0.8690
  619MOL0     H85374  11.424   7.732   3.995  3.3531 -4.4027  1.3936
  619MOL0     H85375  11.451   7.697   4.162 -2.4696 -0.1122  2.5387
  619MOL0     H85376  11.237   7.600   4.009  1.0857 -3.4414  0.1490
  619MOL0     H85377  11.329   7.530   4.142 -0.9129  0.0288  0.8144
  619MOL0     H85378  11.207   7.703   4.298 -0.7224 -2.7336  1.0440
  619MOL0     H85379  11.113   7.752   4.154  3.6930  1.6345 -1.0223
  619MOL0     H85380  10.858   7.702   4.151 -1.2947 -0.3200 -1.0031
  619MOL0     H85381  10.605   7.649   3.985  0.3869 -0.0215 -0.2218
  619MOL0     H85382  10.692   7.687   3.833 -1.3414  2.1886 -0.4548
  619MOL0     H85383  10.720   7.782   3.982  2.1604 -0.1546  0.8628
  619MOL0     H85384  10.624   7.627   3.602  0.5652  0.3134 -0.5487
  619MOL0     H85385  10.536   7.610   3.373  2.6655 -2.8034 -1.7255
  619MOL0     H85386  10.257   7.473   3.302  1.2307 -0.5759  1.2525
  619MOL0     H85387  10.373   7.579   3.227 -0.6129 -0.1878 -1.8139
  619MOL0     H85388  10.360   7.495   3.013 -1.5446  0.1833 -1.2089
  619MOL0     H85389  10.334   7.334   3.059 -2.0074  0.5817 -2.5151
  619MOL0     H85390  10.091   7.394   3.129 -0.7409  3.1234  2.1536
  619MOL0     H85391  10.124   7.405   2.962  1.3485 -0.0611  0.0622
  619MOL0     H85392  10.189   7.659   3.007 -0.5510  1.2640  0.0867
  619MOL0     H85393  10.131   7.633   3.174 -2.5882  0.5248  0.5147
  619MOL0     H85394   9.956   7.747   3.056  0.6895  0.4545 -0.2189
  619MOL0     H85395   9.962   7.619   2.926  0.4377 -1.0257  0.3765
  619MOL0     H85396   9.894   7.564   3.222 -0.4480  0.5886  0.6981
  619MOL0     H85397   9.879   7.451   3.095  0.4736  0.7810 -0.2816
  619MOL0     H85398   9.710   7.592   2.978 -0.5745 -2.9148  1.0627
  619MOL0     H85399   9.716   7.701   3.126  0.9154  0.7097  0.3244
  619MOL0     H85400   9.686   7.485   3.264  0.5281 -0.0521 -1.4578
  619MOL0     H85401   9.620   7.410   3.111 -1.2730 -0.7789  0.3088
  619MOL0     H85402  10.412   7.198   3.464  0.7941 -0.2243 -0.9889
  619MOL0     H85403  10.529   7.227   3.682 -2.1545  0.8030 -0.1636
  619MOL0     H85404  10.974   7.298   3.904  1.2541  0.3653 -1.6730
  619MOL0     H85405  11.098   7.342   4.090 -0.1766 -0.6714  1.1623
  619MOL0     H85406  10.820   7.990   3.603  1.2566  0.6433  1.7178
  619MOL0     H85407  10.607   7.882   3.542 -0.3457 -0.1090  0.2289
  619MOL0     H85408  10.342   7.591   3.698  0.5959  1.6869  0.5402
  619MOL0     H85409  10.198   7.429   3.616 -3.1513 -0.2970  2.4568
  619MOL0     H85410   9.921   7.382   3.607 -0.1257 -1.7797  0.0403
  619MOL0     H85411   9.808   7.386   3.459 -0.1491  1.0368 -0.8830
  619MOL0     H85412  10.083   7.255   3.469 -0.9763  0.6229  1.7864
  619MOL0     H85413   9.981   7.293   3.327 -0.5278 -0.3613 -0.1212
  619MOL0     H85414   9.793   7.150   3.436  0.3377 -2.4133  0.9239
  619MOL0     H85415   9.930   7.063   3.379  2.4591 -1.4585  1.8777
  619MOL0     H85416   9.863   6.965   3.587  1.1751 -1.2378  2.0651
  619MOL0     H85417   9.873   7.118   3.673  2.0444  3.0170 -1.3748
  619MOL0     H85418  10.285   7.016   3.630  0.4924  1.0786 -2.9290
  619MOL0     H85419   9.981   7.745   3.416  2.2080  2.5084 -0.8346
  619MOL0     H85420  10.133   8.014   3.606  3.6335 -0.6447 -1.4532
  619MOL0     H85421  10.160   7.971   3.441  0.3971 -1.9446 -0.1428
  619MOL0     H85422   9.997   7.962   3.495 -1.8094 -1.4412  2.7839
  620MOL0     O85423   4.636   9.144  10.734 -0.5358 -0.0347 -0.7251
  620MOL0     C85424   4.647   9.257  10.673 -0.4641  0.3798  0.1825
  620MOL0     O85425   4.762   9.316  10.625  0.3445 -0.2677 -0.3220
  620MOL0     C85426   4.887   9.289  10.668 -0.5860 -0.3190 -0.3162
  620MOL0     C85427   4.925   9.333  10.791 -1.1462  0.3321 -0.0269
  620MOL0     C85428   5.051   9.309  10.833 -0.2721 -0.0399 -0.0680
  620MOL0     C85429   5.143   9.254  10.746 -0.5092  0.8789 -0.1450
  620MOL0     O85430   5.277   9.231  10.783 -0.3281 -0.9530  0.2840
  620MOL0     C85431   5.336   9.334  10.867  0.1493  0.9413 -0.7170
  620MOL0     C85432   5.481   9.293  10.898 -0.2129 -0.1890  0.1454
  620MOL0     C85433   5.538   9.383  11.004 -0.3965  0.1927 -0.9604
  620MOL0     C85434   5.691   9.396  10.973 -0.2132 -0.4524  0.5033
  620MOL0     C85435   5.757   9.516  11.056 -0.5043 -0.3099  0.5922
  620MOL0     C85436   5.904   9.551  11.021  0.1647  0.6249  0.3582
  620MOL0     C85437   5.958   9.668  11.107  0.1922  0.2488 -0.1377
  620MOL0     C85438   6.100   9.713  11.083 -2.0705  0.5121 -0.3850
  620MOL0     N85439   6.198   9.601  11.112 -0.0722  0.2209  0.2865
  620MOL0     C85440   6.206   9.513  11.221 -0.2535 -0.8606 -0.1183
  620MOL0     C85441   6.303   9.417  11.196  0.3443 -0.8674 -0.2361
  620MOL0     C85442   6.347   9.301  11.277  0.0058 -0.0265  0.5068
  620MOL0     C85443   6.327   9.326  11.422  0.3123  0.0603 -0.2188
  620MOL0     C85444   6.426   9.438  11.469 -0.4303  0.1749  0.5949
  620MOL0     C85445   6.460   9.432  11.617 -1.2381 -0.1189  0.0742
  620MOL0     O85446   6.553   9.325  11.653  0.0136  0.1258  0.1729
  620MOL0     C85447   6.690   9.328  11.614  0.3998 -0.2250  0.0212
  620MOL0     C85448   6.756   9.208  11.625  0.1390 -0.6696 -1.0140
  620MOL0     C85449   6.897   9.198  11.612 -0.2330  0.1208 -0.4374
  620MOL0     C85450   6.955   9.065  11.659 -0.4527 -0.4474  0.4694
  620MOL0     C85451   6.960   9.300  11.543 -1.2093 -0.6276 -0.2724
  620MOL0     C85452   7.097   9.291  11.504  0.3400  0.2267  0.2973
  620MOL0     O85453   7.140   9.165  11.457 -0.5943 -0.5238 -0.1781
  620MOL0     C85454   7.276   9.150  11.444 -0.2383 -0.3401  0.9024
  620MOL0     C85455   7.330   9.119  11.315  0.3873  0.7253  0.7227
  620MOL0     C85456   7.464   9.093  11.304  0.0989 -0.2883  0.2731
  620MOL0     C85457   7.554   9.107  11.415  0.0713 -0.2190  1.2833
  620MOL0     O85458   7.682   9.094  11.387 -0.3001  0.5401 -0.4595
  620MOL0     C85459   7.794   9.116  11.479 -0.4295  0.0003  0.6052
  620MOL0     C85460   7.931   9.089  11.410  0.2029  0.4182 -0.0007
  620MOL0     C85461   8.013   9.218  11.397 -0.0350 -0.7556  0.4208
  620MOL0     C85462   7.946   9.327  11.309 -0.1485 -0.7267  0.2136
  620MOL0     C85463   8.044   9.438  11.273  0.4348  0.6032  0.1683
  620MOL0     C85464   7.993   9.543  11.175  1.1976 -0.2653  0.3470
  620MOL0     C85465   7.863   9.600  11.222 -0.2103 -0.7988  0.3016
  620MOL0     C85466   7.822   9.730  11.154  0.0469 -1.0743  0.9729
  620MOL0    Cl85467   7.781   9.692  10.981  0.1052 -0.5746 -0.2660
  620MOL0     C85468   7.500   9.132  11.542 -0.0547 -1.2224  0.2740
  620MOL0     C85469   7.359   9.138  11.558 -0.7837 -0.0091 -0.8226
  620MOL0     O85470   7.161   9.393  11.504 -0.1048  0.5011  0.2078
  620MOL0     C85471   6.893   9.421  11.529  0.0207 -0.3472  0.4147
  620MOL0     C85472   6.763   9.434  11.565 -0.0799  0.2962 -0.7600
  620MOL0     N85473   6.365   9.457  11.081 -0.2654 -0.0625 -0.3663
  620MOL0     N85474   6.290   9.554  11.027 -0.4309 -0.1990  0.4417
  620MOL0     C85475   5.103   9.223  10.618 -0.8801  0.1516 -0.3284
  620MOL0     C85476   4.976   9.243  10.579 -0.1326 -0.5712 -0.3897
  620MOL0     C85477   4.519   9.330  10.624  0.3505  0.4908 -0.0578
  620MOL0     C85478   4.532   9.425  10.517 -0.1720 -0.0690 -0.4188
  620MOL0     C85479   4.416   9.501  10.476  0.0719  0.4369 -0.5528
  620MOL0     C85480   4.297   9.481  10.533  0.5207 -0.6385 -0.2747
  620MOL0     O85481   4.191   9.559  10.492  0.1691  0.0107 -0.6052
  620MOL0     C85482   4.061   9.517  10.512  0.1950 -0.7563 -0.5538
  620MOL0     C85483   3.969   9.608  10.438 -0.0256  0.3126  0.8212
  620MOL0     C85484   3.822   9.576  10.456 -0.4068 -0.3479 -0.1784
  620MOL0     C85485   3.772   9.450  10.399 -0.2942 -0.1418  0.6466
  620MOL0     C85486   3.628   9.460  10.376  0.1993  0.0478 -0.0297
  620MOL0     C85487   3.505   9.470  10.352 -0.0467 -0.3040  0.6495
  620MOL0     C85488   4.288   9.387  10.627  1.8360 -0.8721 -0.5989
  620MOL0     C85489   4.392   9.309  10.673  1.1700  0.2779  0.2060
  620MOL0     C85490   4.349   9.217  10.782  0.6143 -0.1484 -0.1141
  620MOL0     H85491   4.861   9.388  10.859  1.2134  2.7888  0.4118
  620MOL0     H85492   5.074   9.336  10.935 -0.3786 -0.3499  0.0410
  620MOL0     H85493   5.287   9.332  10.965 -3.1067 -0.8089 -2.2177
  620MOL0     H85494   5.331   9.435  10.824 -0.3969  1.3538  0.2538
  620MOL0     H85495   5.493   9.185  10.913 -0.6075 -0.3888 -0.8660
  620MOL0     H85496   5.527   9.306  10.799 -3.2780 -0.4873 -1.4339
  620MOL0     H85497   5.495   9.483  10.998 -1.1848 -0.1229 -0.6669
  620MOL0     H85498   5.517   9.340  11.103 -2.5392 -1.0549 -1.8773
  620MOL0     H85499   5.740   9.298  10.977  1.4710  0.1168 -2.7848
  620MOL0     H85500   5.712   9.421  10.869  2.1971 -1.1254  0.7652
  620MOL0     H85501   5.750   9.483  11.160 -1.0220 -2.4909 -0.0911
  620MOL0     H85502   5.700   9.609  11.044  1.5914  0.7801 -2.2496
  620MOL0     H85503   5.975   9.471  11.045  0.0614  0.2993 -0.3838
  620MOL0     H85504   5.919   9.553  10.912  2.4907 -3.9904  0.3688
  620MOL0     H85505   5.947   9.641  11.212 -2.6680  2.8523  0.3758
  620MOL0     H85506   5.891   9.751  11.082  1.5882  1.0947 -1.1575
  620MOL0     H85507   6.111   9.740  10.977  0.7350 -1.5879 -0.7579
  620MOL0     H85508   6.130   9.795  11.148 -0.9459 -0.8818  0.9329
  620MOL0     H85509   6.150   9.528  11.313 -2.9139 -1.3457 -1.5668
  620MOL0     H85510   6.452   9.286  11.251 -0.7931  0.0793 -3.5702
  620MOL0     H85511   6.290   9.216  11.238 -2.2599  1.8377 -0.5318
  620MOL0     H85512   6.224   9.360  11.440  1.1166  2.1813  0.8070
  620MOL0     H85513   6.331   9.230  11.473  0.6045  0.7903  1.2008
  620MOL0     H85514   6.514   9.436  11.403 -1.0464  2.8276 -0.4243
  620MOL0     H85515   6.384   9.536  11.447 -1.6019 -0.4500 -0.0514
  620MOL0     H85516   6.502   9.528  11.648 -1.1606 -0.1885  0.1845
  620MOL0     H85517   6.368   9.420  11.676 -1.1887  2.0567  0.6792
  620MOL0     H85518   6.694   9.126  11.660  0.0415  0.3617  1.4262
  620MOL0     H85519   6.914   9.037  11.756  2.3364 -1.7463  1.3947
  620MOL0     H85520   7.061   9.080  11.682 -0.3921 -0.6834  0.3454
  620MOL0     H85521   6.936   8.988  11.584 -0.5011 -0.2348  0.2641
  620MOL0     H85522   7.269   9.096  11.228  1.3598  0.3372  0.1236
  620MOL0     H85523   7.497   9.049  11.210 -1.5275 -0.6396 -0.1740
  620MOL0     H85524   7.794   9.218  11.521  1.7223  0.7929 -1.1394
  620MOL0     H85525   7.779   9.051  11.566  4.2201 -1.4068  0.5736
  620MOL0     H85526   7.986   9.017  11.471 -2.2653 -1.5192  0.1249
  620MOL0     H85527   7.911   9.046  11.311 -1.4736 -1.2311  0.9779
  620MOL0     H85528   8.109   9.181  11.361 -0.3393 -1.3486  0.2067
  620MOL0     H85529   8.029   9.252  11.500  0.0505 -1.7196  0.7365
  620MOL0     H85530   7.875   9.375  11.377  0.9442  0.8897  0.2756
  620MOL0     H85531   7.900   9.292  11.216  0.3784 -0.0042 -0.3320
  620MOL0     H85532   8.071   9.489  11.366 -0.5703 -1.0724  1.4139
  620MOL0     H85533   8.133   9.388  11.232  1.0175  1.8953 -0.2353
  620MOL0     H85534   7.981   9.503  11.074  0.7267 -1.8368  1.0049
  620MOL0     H85535   8.068   9.623  11.172 -0.4417  1.3853  1.1506
  620MOL0     H85536   7.879   9.610  11.330 -0.1210 -0.7546  0.2844
  620MOL0     H85537   7.778   9.534  11.208  0.6017 -1.8203  0.0295
  620MOL0     H85538   7.906   9.800  11.156 -0.0390 -0.6074 -3.1296
  620MOL0     H85539   7.734   9.771  11.204 -0.6700 -1.0016 -0.2954
  620MOL0     H85540   7.558   9.140  11.633 -0.6194  1.8440  0.4476
  620MOL0     H85541   7.328   9.156  11.661 -2.4796 -0.8921 -1.1332
  620MOL0     H85542   6.936   9.503  11.471  0.9635 -1.4304 -0.4650
  620MOL0     H85543   6.717   9.533  11.557 -0.3963  0.1410 -0.8793
  620MOL0     H85544   5.186   9.191  10.556  0.1682  1.9128  0.0851
  620MOL0     H85545   4.942   9.225  10.478  3.0095  2.3452 -2.1425
  620MOL0     H85546   4.628   9.424  10.467  0.7649 -3.2441  1.2120
  620MOL0     H85547   4.423   9.563  10.387 -2.4825 -0.3735 -1.4243
  620MOL0     H85548   4.041   9.416  10.476 -2.1626 -0.4600 -0.2336
  620MOL0     H85549   4.045   9.527  10.620  1.4784  2.8496 -0.5658
  620MOL0     H85550   3.997   9.605  10.332 -0.0596  2.2471  0.7350
  620MOL0     H85551   3.996   9.706  10.477  0.7676  0.4697 -0.0853
  620MOL0     H85552   3.797   9.581  10.563 -2.4559  1.7694 -0.6874
  620MOL0     H85553   3.781   9.665  10.408  1.6561  0.9921  0.4128
  620MOL0     H85554   3.781   9.372  10.476  2.9957  0.1882  0.7101
  620MOL0     H85555   3.829   9.419  10.311 -0.8399 -1.8432  0.8565
  620MOL0     H85556   3.399   9.483  10.346  0.1416  1.5969  0.8862
  620MOL0     H85557   4.186   9.368  10.658  1.6045 -0.4047 -1.0649
  620MOL0     H85558   4.343   9.116  10.742  0.2135 -0.6038  1.0422
  620MOL0     H85559   4.414   9.224  10.870 -0.2434 -0.4772  0.5636
  620MOL0     H85560   4.252   9.242  10.827 -0.0283 -1.9507 -0.4402
  621MOL0     O85561   1.591   7.364   1.608 -0.5349  0.4917 -0.6891
  621MOL0     C85562   1.565   7.466   1.545  0.0850  0.4179 -0.0902
  621MOL0     O85563   1.440   7.514   1.516  0.6381 -0.0460  0.1142
  621MOL0     C85564   1.342   7.454   1.585  0.2835 -0.1070 -0.5386
  621MOL0     C85565   1.291   7.518   1.703 -0.4585  1.5797  0.2187
  621MOL0     C85566   1.190   7.449   1.777  1.7471 -0.2050 -0.3623
  621MOL0     C85567   1.144   7.324   1.744  0.2296  0.0437  0.2568
  621MOL0     O85568   1.044   7.248   1.804 -0.5290 -0.0575 -0.6198
  621MOL0     C85569   0.943   7.320   1.877 -0.6545  0.2700 -0.1578
  621MOL0     C85570   0.845   7.219   1.921 -0.4313 -0.7831  0.8211
  621MOL0     C85571   0.753   7.277   2.031 -0.0527 -0.4648 -0.2309
  621MOL0     C85572   0.624   7.201   2.059 -0.3516  1.0935 -0.1376
  621MOL0     C85573   0.652   7.068   2.134 -0.5079 -0.3252 -0.3105
  621MOL0     C85574   0.524   6.981   2.155 -0.1929  0.6099  0.5138
  621MOL0     C85575   0.405   7.051   2.223 -0.0978 -0.0900 -0.3823
  621MOL0     C85576   0.283   6.960   2.204 -0.1840  0.3768 -0.5521
  621MOL0     N85577   0.161   6.999   2.282  1.1734 -0.2166  0.4563
  621MOL0     C85578   0.034   6.966   2.226 -0.8726  0.1602  1.5503
  621MOL0     C85579  -0.052   6.973   2.328  0.4729  0.2629 -0.9138
  621MOL0     C85580  -0.200   6.952   2.316  0.2689 -0.1404  0.3036
  621MOL0     C85581  -0.289   7.060   2.384 -1.2575 -0.1504 -0.5843
  621MOL0     C85582  -0.254   7.207   2.350  0.1363 -0.0397  0.9006
  621MOL0     C85583  -0.286   7.241   2.202 -0.7460 -1.1066  0.4307
  621MOL0     O85584  -0.265   7.383   2.183  0.7686  0.0133  0.0986
  621MOL0     C85585  -0.153   7.412   2.107  0.1221  0.1059 -0.9303
  621MOL0     C85586  -0.167   7.507   2.011  0.1704 -0.7959 -0.2727
  621MOL0     C85587  -0.058   7.530   1.925  0.1410  0.5373  0.0377
  621MOL0     C85588  -0.098   7.636   1.814 -0.1033 -0.0658 -0.6748
  621MOL0     C85589   0.072   7.468   1.943 -0.1861  0.2619 -0.2610
  621MOL0     C85590   0.187   7.498   1.862  0.0204  0.1106  0.7028
  621MOL0     O85591   0.315   7.475   1.908  0.0955 -0.4603 -0.2372
  621MOL0     C85592   0.422   7.509   1.830  0.7199  0.2909  0.3308
  621MOL0     C85593   0.484   7.409   1.766  0.0629  1.3792  0.4287
  621MOL0     C85594   0.595   7.434   1.688  0.0703 -0.2830 -0.5446
  621MOL0     C85595   0.654   7.557   1.676 -0.4504 -0.0474  0.1382
  621MOL0     O85596   0.761   7.593   1.598  0.4906  0.1040 -0.1312
  621MOL0     C85597   0.831   7.494   1.525  0.0013  0.4089  1.2386
  621MOL0     C85598   0.939   7.553   1.431  0.0435  0.7282  0.9375
  621MOL0     C85599   1.003   7.440   1.342 -0.1397  0.5867 -0.0237
  621MOL0     C85600   1.126   7.499   1.265  0.6664  0.3782 -0.5066
  621MOL0     C85601   1.172   7.418   1.146  1.0557  0.2390 -0.1237
  621MOL0     C85602   1.298   7.478   1.084  0.4171  0.2139  0.1042
  621MOL0     C85603   1.415   7.426   1.171  0.2543 -0.4654  0.2212
  621MOL0     C85604   1.549   7.448   1.124 -0.0623  0.2814  0.5691
  621MOL0    Cl85605   1.580   7.385   0.962 -0.2699  0.0075 -0.3551
  621MOL0     C85606   0.595   7.651   1.763 -0.0568  0.6257  0.4211
  621MOL0     C85607   0.482   7.631   1.838  0.2814 -0.3050  0.6944
  621MOL0     O85608   0.160   7.556   1.756 -0.1718 -0.0410 -0.0141
  621MOL0     C85609   0.082   7.370   2.030 -0.1753  0.5078 -0.4704
  621MOL0     C85610  -0.031   7.335   2.114  0.1732 -0.4162  0.8923
  621MOL0     N85611   0.012   6.977   2.449  0.6781  0.4844  0.1087
  621MOL0     N85612   0.135   6.991   2.421 -0.0786 -0.0726  0.6424
  621MOL0     C85613   1.193   7.271   1.627 -0.6099  0.5374 -0.9853
  621MOL0     C85614   1.291   7.333   1.551  0.0576  0.1466 -0.1603
  621MOL0     C85615   1.687   7.546   1.490  0.0066 -0.0160  0.1714
  621MOL0     C85616   1.663   7.637   1.395  0.4136 -0.9088  0.0248
  621MOL0     C85617   1.759   7.719   1.335 -1.3477  0.0816 -0.1897
  621MOL0     C85618   1.887   7.697   1.365  0.1844  0.6513  1.5267
  621MOL0     O85619   1.981   7.758   1.292 -0.0401  0.2301  0.6071
  621MOL0     C85620   2.048   7.851   1.379 -0.8891  0.2082 -0.1312
  621MOL0     C85621   2.104   7.952   1.279 -0.5341  0.6054 -0.0087
  621MOL0     C85622   2.196   8.065   1.338 -0.7123  0.1736 -0.2924
  621MOL0     C85623   2.330   8.006   1.379 -0.2880  0.4453 -0.0504
  621MOL0     C85624   2.427   8.107   1.404 -0.4588  0.2003  0.5366
  621MOL0     C85625   2.516   8.174   1.442 -0.1872 -0.4514 -0.3355
  621MOL0     C85626   1.923   7.589   1.449  0.5940 -0.1818  0.2608
  621MOL0     C85627   1.826   7.518   1.520  0.7163  0.1080 -0.1225
  621MOL0     C85628   1.859   7.415   1.619  0.6397  0.4866 -0.1959
  621MOL0     H85629   1.329   7.614   1.735  0.2912  2.4804 -2.9645
  621MOL0     H85630   1.146   7.498   1.863 -1.1531  1.5173 -2.6146
  621MOL0     H85631   0.895   7.394   1.812 -4.3182  0.1997  2.1840
  621MOL0     H85632   1.000   7.373   1.954  0.2743 -0.0239 -0.6279
  621MOL0     H85633   0.790   7.194   1.830 -1.2811  0.1591  1.0530
  621MOL0     H85634   0.894   7.132   1.965  1.3557 -0.0115  0.4425
  621MOL0     H85635   0.805   7.286   2.126  2.0310 -0.5698 -1.3209
  621MOL0     H85636   0.735   7.377   1.992  0.1123 -0.9017 -1.4809
  621MOL0     H85637   0.572   7.275   2.120  3.1208  3.3635  0.3771
  621MOL0     H85638   0.558   7.173   1.977 -2.5222  1.7154  1.3217
  621MOL0     H85639   0.691   7.096   2.232 -0.6251 -1.4667  0.0819
  621MOL0     H85640   0.730   7.016   2.079  0.1841 -1.1083  1.3372
  621MOL0     H85641   0.505   6.934   2.058  0.0133 -0.4628  0.9802
  621MOL0     H85642   0.563   6.898   2.214  1.6798  0.7267 -0.4897
  621MOL0     H85643   0.393   7.150   2.178  0.2525 -0.8755 -2.3045
  621MOL0     H85644   0.430   7.067   2.328 -0.6902  0.8902 -0.3740
  621MOL0     H85645   0.273   6.944   2.096  1.4871  0.9176 -0.8259
  621MOL0     H85646   0.311   6.859   2.234  4.1524  1.6654  0.4440
  621MOL0     H85647   0.020   6.959   2.118  3.7303  1.1434  0.6437
  621MOL0     H85648  -0.222   6.862   2.374  2.1290 -1.2743 -0.6627
  621MOL0     H85649  -0.226   6.940   2.210  0.4580  2.1319 -0.0523
  621MOL0     H85650  -0.394   7.034   2.365 -0.5274 -4.0085 -0.0340
  621MOL0     H85651  -0.260   7.044   2.488  3.0316  0.2575 -1.5460
  621MOL0     H85652  -0.324   7.264   2.413  1.2093  0.8371  1.3330
  621MOL0     H85653  -0.147   7.227   2.360  0.1896  0.0148  0.2766
  621MOL0     H85654  -0.229   7.178   2.134 -1.5016 -1.9037  0.5177
  621MOL0     H85655  -0.390   7.224   2.171 -1.1539 -0.6579  1.5134
  621MOL0     H85656  -0.267   7.550   2.009 -0.1419 -1.5182 -0.6729
  621MOL0     H85657  -0.195   7.679   1.839 -0.8768 -1.6850 -0.7769
  621MOL0     H85658  -0.093   7.583   1.719  1.2767  0.0701 -0.7011
  621MOL0     H85659  -0.024   7.717   1.810 -0.7285  0.4618 -1.8133
  621MOL0     H85660   0.440   7.312   1.786  0.4846  1.7676  4.0555
  621MOL0     H85661   0.637   7.347   1.637 -0.9340 -0.0228 -1.8675
  621MOL0     H85662   0.882   7.428   1.596  0.8945 -0.1070  0.1437
  621MOL0     H85663   0.760   7.431   1.471  0.4748 -0.2088  1.3384
  621MOL0     H85664   0.892   7.612   1.351  2.4092 -0.7276 -1.7059
  621MOL0     H85665   1.008   7.620   1.482  1.2327 -0.2051  0.5791
  621MOL0     H85666   0.926   7.404   1.274  2.0779 -3.3355 -0.7842
  621MOL0     H85667   1.034   7.357   1.407 -0.7993  0.9192  0.7284
  621MOL0     H85668   1.206   7.512   1.338 -0.4554 -0.6957  0.9923
  621MOL0     H85669   1.100   7.599   1.230 -3.4222 -0.4217 -0.3346
  621MOL0     H85670   1.182   7.310   1.166  4.4162  0.5326  0.3691
  621MOL0     H85671   1.097   7.424   1.067  0.4530  0.7335  0.4733
  621MOL0     H85672   1.296   7.587   1.071  1.3379 -0.0376 -2.8408
  621MOL0     H85673   1.302   7.446   0.980  3.6810 -1.1640  0.5140
  621MOL0     H85674   1.396   7.319   1.184 -0.1010 -0.3033  1.1102
  621MOL0     H85675   1.403   7.472   1.270 -3.5603 -0.7197  0.0239
  621MOL0     H85676   1.626   7.405   1.189 -1.9853 -1.7352  1.6411
  621MOL0     H85677   1.571   7.554   1.108  1.6471  0.0519  1.1664
  621MOL0     H85678   0.636   7.751   1.758 -2.5761  1.6635 -1.7077
  621MOL0     H85679   0.435   7.706   1.901  3.0899  2.3932 -0.1897
  621MOL0     H85680   0.177   7.323   2.055 -1.6998 -1.8814  1.3467
  621MOL0     H85681  -0.016   7.241   2.165  0.8795 -1.0512 -0.4550
  621MOL0     H85682   1.150   7.176   1.593 -0.0327 -0.0050 -0.2283
  621MOL0     H85683   1.329   7.293   1.458 -2.3245 -2.1433 -0.2666
  621MOL0     H85684   1.559   7.650   1.369  0.2622  1.4614  1.5195
  621MOL0     H85685   1.736   7.795   1.260 -1.1302 -1.1669 -1.5731
  621MOL0     H85686   1.983   7.894   1.456  0.9884 -0.5701  1.9947
  621MOL0     H85687   2.128   7.799   1.432 -0.6601 -0.4308 -1.0906
  621MOL0     H85688   2.021   7.996   1.223 -0.7711  1.3489  0.9033
  621MOL0     H85689   2.165   7.898   1.206  1.8359 -1.0122  2.9969
  621MOL0     H85690   2.203   8.155   1.276  0.8016  0.3402  0.0661
  621MOL0     H85691   2.146   8.098   1.429 -3.2170 -0.1008 -1.4908
  621MOL0     H85692   2.374   7.943   1.300  1.5740  0.3369  1.0233
  621MOL0     H85693   2.331   7.941   1.467  0.2930  2.9890  1.9344
  621MOL0     H85694   2.601   8.234   1.466 -0.8742  1.0007 -1.3610
  621MOL0     H85695   2.024   7.549   1.457  0.5269 -0.1388  1.5802
  621MOL0     H85696   1.952   7.452   1.662  1.0711  0.4679 -1.1046
  621MOL0     H85697   1.783   7.411   1.698  0.2038 -0.0381 -0.6276
  621MOL0     H85698   1.876   7.319   1.570 -0.1349  0.8624 -1.2410
  622MOL0     O85699   7.536   9.955   6.784 -0.7062 -0.5042 -0.0625
  622MOL0     C85700   7.447  10.014   6.844  0.0475 -0.2939  0.3885
  622MOL0     O85701   7.470  10.117   6.919 -0.3405 -0.3539  0.2460
  622MOL0     C85702   7.595  10.167   6.928 -0.2177 -0.2811  0.2695
  622MOL0     C85703   7.657  10.234   6.823 -0.0996 -0.7996 -0.3737
  622MOL0     C85704   7.785  10.285   6.837 -0.3118 -0.7226 -0.4857
  622MOL0     C85705   7.860  10.250   6.961  0.1735  0.8787 -0.0103
  622MOL0     O85706   7.989  10.307   6.971  0.3623 -0.3143 -0.5894
  622MOL0     C85707   8.067  10.274   7.080  0.6747 -0.4173 -0.0622
  622MOL0     C85708   8.195  10.350   7.079 -0.3998  0.9524 -0.2990
  622MOL0     C85709   8.270  10.317   7.210  0.2330 -0.1684 -0.0159
  622MOL0     C85710   8.422  10.354   7.190  0.0762  0.1779  0.7708
  622MOL0     C85711   8.513  10.327   7.306 -0.0749  0.0376 -0.0243
  622MOL0     C85712   8.510  10.450   7.401 -0.1663  0.2191 -0.4512
  622MOL0     C85713   8.529  10.409   7.547 -0.5594 -0.3522 -0.3129
  622MOL0     C85714   8.532  10.521   7.656  0.4590  0.6182  0.5453
  622MOL0     N85715   8.561  10.458   7.788 -0.2633  0.2713  0.0128
  622MOL0     C85716   8.498  10.347   7.834 -0.1230  0.2491  0.3186
  622MOL0     C85717   8.589  10.282   7.913 -0.4088 -0.0835 -0.1245
  622MOL0     C85718   8.555  10.146   7.955  0.3000 -0.0055 -1.0348
  622MOL0     C85719   8.455  10.140   8.071 -0.2141 -0.0107 -0.0874
  622MOL0     C85720   8.441  10.000   8.127  0.5816  1.2847  0.1828
  622MOL0     C85721   8.346   9.917   8.041 -0.5589  0.0288  0.8364
  622MOL0     O85722   8.398   9.879   7.910 -0.1051  0.1425  0.2958
  622MOL0     C85723   8.481   9.772   7.889  0.1972  0.2026 -0.3961
  622MOL0     C85724   8.429   9.643   7.879  0.4347  0.3906  0.2188
  622MOL0     C85725   8.499   9.528   7.847  0.0397  0.0677  0.6467
  622MOL0     C85726   8.421   9.396   7.840  0.0355  0.5541 -0.6936
  622MOL0     C85727   8.645   9.551   7.816  0.7744 -0.4990 -0.1629
  622MOL0     C85728   8.743   9.444   7.776  0.5993 -0.1328  0.0607
  622MOL0     O85729   8.853   9.474   7.709 -0.4658  0.3252  0.1353
  622MOL0     C85730   8.949   9.377   7.696  0.0984 -0.6109 -0.5667
  622MOL0     C85731   9.071   9.395   7.766  0.1857  0.1827  0.4721
  622MOL0     C85732   9.169   9.300   7.765 -0.3178  0.4671  0.0672
  622MOL0     C85733   9.153   9.186   7.689 -0.3280 -0.0285  0.4606
  622MOL0     O85734   9.266   9.105   7.659 -0.0819  0.1380 -0.7711
  622MOL0     C85735   9.249   8.972   7.610  0.3143  0.3412 -0.1515
  622MOL0     C85736   9.389   8.905   7.619  0.0242  0.2216  0.1767
  622MOL0     C85737   9.491   8.975   7.530 -1.1444 -0.0226 -0.2857
  622MOL0     C85738   9.607   8.887   7.490 -0.7333 -0.6167 -0.8088
  622MOL0     C85739   9.686   8.958   7.382  0.2504 -0.6266  0.2293
  622MOL0     C85740   9.814   8.875   7.357 -0.0945  0.6662 -0.0442
  622MOL0     C85741   9.889   8.947   7.248 -0.7265 -0.2104  0.4689
  622MOL0     C85742  10.039   8.911   7.243 -0.3762 -0.4786 -0.9116
  622MOL0    Cl85743  10.111   9.002   7.100  0.2986 -0.2463  0.6440
  622MOL0     C85744   9.032   9.175   7.613 -0.8604  0.0803 -0.6935
  622MOL0     C85745   8.937   9.268   7.617  0.1164  0.4170  0.0608
  622MOL0     O85746   8.717   9.333   7.815 -0.1963 -0.2117  0.3689
  622MOL0     C85747   8.692   9.689   7.826 -0.2962  0.8673 -0.4943
  622MOL0     C85748   8.613   9.797   7.862 -0.3031  0.0166 -0.4304
  622MOL0     N85749   8.702  10.365   7.931  0.1359 -0.0474 -0.2638
  622MOL0     N85750   8.675  10.465   7.856 -0.0093 -0.7911 -0.4341
  622MOL0     C85751   7.798  10.169   7.063 -1.1556  0.8606 -0.7504
  622MOL0     C85752   7.664  10.143   7.050 -1.2764  0.2170 -0.9927
  622MOL0     C85753   7.300   9.976   6.821 -1.0270 -0.2430  0.0524
  622MOL0     C85754   7.201  10.064   6.857 -0.1793 -0.0664 -0.5084
  622MOL0     C85755   7.069  10.041   6.831 -0.0610 -0.9663 -0.0952
  622MOL0     C85756   7.034   9.918   6.771  0.1276  0.4328 -0.3534
  622MOL0     O85757   6.911   9.872   6.748  0.4005  0.6551 -0.0598
  622MOL0     C85758   6.809   9.968   6.754 -0.2722  0.2831  0.5037
  622MOL0     C85759   6.668   9.920   6.697  0.6927  0.2417 -0.8002
  622MOL0     C85760   6.557  10.028   6.707 -0.4161 -0.1285  0.6070
  622MOL0     C85761   6.455   9.992   6.598  0.4523  0.7318 -0.7168
  622MOL0     C85762   6.348  10.096   6.591 -0.0790 -0.4200 -0.0343
  622MOL0     C85763   6.270  10.187   6.586 -0.0331 -0.9937  1.2840
  622MOL0     C85764   7.135   9.822   6.734  0.2485  0.3846  0.2629
  622MOL0     C85765   7.269   9.848   6.764 -0.1638  0.3814 -0.0381
  622MOL0     C85766   7.367   9.738   6.734 -0.4490  0.4326 -0.0407
  622MOL0     H85767   7.597  10.256   6.735  0.6315 -1.7022 -1.1077
  622MOL0     H85768   7.824  10.361   6.769 -0.4315  0.8891  1.1567
  622MOL0     H85769   8.082  10.165   7.087  0.8780 -0.3667  0.2823
  622MOL0     H85770   8.020  10.304   7.174  3.2359 -0.1675  1.2447
  622MOL0     H85771   8.247  10.319   6.987  0.3403  2.2747 -0.3597
  622MOL0     H85772   8.170  10.456   7.091 -0.7012  0.7119  1.4457
  622MOL0     H85773   8.229  10.383   7.287  0.5321 -1.8649  1.6822
  622MOL0     H85774   8.256  10.216   7.249 -0.3862  0.8148  2.5085
  622MOL0     H85775   8.452  10.297   7.103 -0.2176  1.9370 -0.5420
  622MOL0     H85776   8.431  10.457   7.154 -3.6470 -0.0850 -1.3952
  622MOL0     H85777   8.617  10.318   7.272  0.1499  0.2932  0.5907
  622MOL0     H85778   8.478  10.236   7.356 -2.9125  1.5278  0.8962
  622MOL0     H85779   8.590  10.516   7.366 -0.9467  0.1154 -2.5395
  622MOL0     H85780   8.411  10.494   7.392  0.2253  0.8334 -2.2445
  622MOL0     H85781   8.623  10.356   7.564  0.0795  0.4001 -1.3770
  622MOL0     H85782   8.448  10.337   7.565 -0.1626 -1.6272 -3.1991
  622MOL0     H85783   8.611  10.590   7.622 -0.5067  0.8514 -1.3694
  622MOL0     H85784   8.438  10.576   7.650 -0.1755 -0.4659  0.3984
  622MOL0     H85785   8.400  10.312   7.804 -0.0175 -0.1024  0.3700
  622MOL0     H85786   8.648  10.096   7.984 -1.6076 -3.5104 -0.3723
  622MOL0     H85787   8.513  10.102   7.864  1.0805 -1.6179 -0.6515
  622MOL0     H85788   8.491  10.206   8.150 -0.0215  3.2322 -2.6450
  622MOL0     H85789   8.362  10.189   8.039 -0.5544  0.6881  1.8508
  622MOL0     H85790   8.542   9.964   8.150 -0.3613 -1.2446  0.6965
  622MOL0     H85791   8.393  10.004   8.225 -1.5933  1.0842 -0.8169
  622MOL0     H85792   8.339   9.821   8.094 -0.3888 -1.0032 -0.9246
  622MOL0     H85793   8.245   9.959   8.031  0.2096  1.2736 -3.4448
  622MOL0     H85794   8.321   9.639   7.891  0.5740  1.0955  2.1865
  622MOL0     H85795   8.321   9.400   7.885  1.4308  0.1489  2.8047
  622MOL0     H85796   8.477   9.320   7.896 -1.6027  1.5806  2.6342
  622MOL0     H85797   8.418   9.366   7.735 -1.9449 -1.0756 -0.2397
  622MOL0     H85798   9.074   9.488   7.823 -1.8595 -1.4794  3.5943
  622MOL0     H85799   9.261   9.323   7.818  0.1859 -1.7554  0.2785
  622MOL0     H85800   9.165   8.915   7.652  0.5407 -0.4254 -0.7210
  622MOL0     H85801   9.215   8.978   7.506 -0.4922  1.3026  0.1490
  622MOL0     H85802   9.430   8.907   7.720  2.2212 -0.5685 -0.6303
  622MOL0     H85803   9.379   8.802   7.584 -0.1413  1.0397 -2.4056
  622MOL0     H85804   9.530   9.053   7.595  1.4070 -1.9532  0.6882
  622MOL0     H85805   9.446   9.011   7.437 -1.5526 -2.6694 -1.1967
  622MOL0     H85806   9.564   8.791   7.459 -1.4526 -1.4475  2.4224
  622MOL0     H85807   9.666   8.870   7.580 -3.2443  1.6131  1.4333
  622MOL0     H85808   9.625   8.962   7.292  0.2575 -1.7786  0.1613
  622MOL0     H85809   9.719   9.059   7.406 -0.5889 -0.3219  0.1477
  622MOL0     H85810   9.797   8.769   7.336  1.5102  0.3051  0.2882
  622MOL0     H85811   9.872   8.885   7.450  1.4359  2.5702 -1.1456
  622MOL0     H85812   9.878   9.055   7.255 -0.0185 -0.1427  0.5821
  622MOL0     H85813   9.846   8.917   7.152  0.6704  0.0186 -0.2511
  622MOL0     H85814  10.060   8.805   7.231 -1.0808 -0.6382 -0.8081
  622MOL0     H85815  10.082   8.943   7.338 -0.2350 -2.7326 -0.1579
  622MOL0     H85816   9.008   9.089   7.552  0.3345 -1.1510  0.5271
  622MOL0     H85817   8.844   9.251   7.563  0.6008  1.9346 -1.3197
  622MOL0     H85818   8.797   9.708   7.806 -0.1944  0.4619 -0.3411
  622MOL0     H85819   8.661   9.894   7.855 -0.9261  0.2754 -1.4069
  622MOL0     H85820   7.858  10.137   7.148  0.4375 -0.2687 -2.2437
  622MOL0     H85821   7.629  10.083   7.133 -0.0709  0.4091 -0.3190
  622MOL0     H85822   7.221  10.159   6.905  1.2910 -0.3795 -0.4430
  622MOL0     H85823   6.992  10.106   6.872 -0.3661 -1.7373  0.5976
  622MOL0     H85824   6.794  10.002   6.857 -3.7518 -0.9371  0.5393
  622MOL0     H85825   6.833  10.056   6.695 -1.5421 -0.1558 -0.7142
  622MOL0     H85826   6.644   9.836   6.763  1.0919  1.5533  1.0790
  622MOL0     H85827   6.676   9.872   6.599  1.9462 -2.2883  0.4770
  622MOL0     H85828   6.510  10.036   6.806 -2.4918 -0.5692 -0.2863
  622MOL0     H85829   6.602  10.125   6.681  1.8213 -1.3470 -0.3458
  622MOL0     H85830   6.419   9.890   6.618 -2.9024  1.9151 -0.0816
  622MOL0     H85831   6.513   9.977   6.506  0.3246 -1.6853 -0.4629
  622MOL0     H85832   6.198  10.266   6.592  0.2376 -0.6768  0.5248
  622MOL0     H85833   7.098   9.731   6.686 -2.0499  1.4935 -0.2116
  622MOL0     H85834   7.446   9.761   6.662 -0.0045 -1.8415 -0.3327
  622MOL0     H85835   7.423   9.717   6.826  0.7419  0.9221 -0.6382
  622MOL0     H85836   7.321   9.649   6.692  1.3780  0.1472 -1.5635
  623MOL0     O85837   2.154   8.402   7.626  0.2537 -0.0678 -0.5868
  623MOL0     C85838   2.152   8.465   7.736  0.4816  0.1074  0.0730
  623MOL0     O85839   2.241   8.542   7.782  0.8724 -0.5561  0.5435
  623MOL0     C85840   2.354   8.576   7.712 -0.0569 -0.3161 -0.4476
  623MOL0     C85841   2.424   8.481   7.635 -0.6888  0.0688 -0.3664
  623MOL0     C85842   2.526   8.520   7.549  0.3909  0.2084 -0.1503
  623MOL0     C85843   2.568   8.646   7.523  0.1490 -0.1519 -0.3111
  623MOL0     O85844   2.672   8.686   7.442  0.1218 -0.5784  0.3487
  623MOL0     C85845   2.713   8.599   7.333 -0.1198 -1.3922  0.0997
  623MOL0     C85846   2.845   8.660   7.275  0.3696 -0.7741  0.2418
  623MOL0     C85847   2.895   8.567   7.168  0.0008  0.8167  1.0184
  623MOL0     C85848   3.022   8.602   7.100  0.6775  0.4266  0.4013
  623MOL0     C85849   3.031   8.746   7.049  0.0862  0.3542  0.2723
  623MOL0     C85850   3.144   8.755   6.947 -0.1233 -0.9404  0.0344
  623MOL0     C85851   3.192   8.908   6.932 -0.0810  0.3627  0.0023
  623MOL0     C85852   3.094   8.984   6.850  0.4772 -0.0463  0.4554
  623MOL0     N85853   3.145   9.119   6.817  0.0133 -0.4513  0.1083
  623MOL0     C85854   3.224   9.142   6.705 -0.0227 -0.4219 -0.4510
  623MOL0     C85855   3.230   9.276   6.706  0.3961 -0.1639  0.3830
  623MOL0     C85856   3.286   9.373   6.602  0.6054 -0.2880 -1.0058
  623MOL0     C85857   3.369   9.482   6.675 -0.5680 -0.5337 -0.1960
  623MOL0     C85858   3.456   9.563   6.580  0.7587 -0.2619  0.0488
  623MOL0     C85859   3.554   9.639   6.663 -0.0342 -0.3826  0.4839
  623MOL0     O85860   3.619   9.736   6.572  0.4420  0.0115 -0.3172
  623MOL0     C85861   3.740   9.704   6.511  1.0661  0.6063  0.9288
  623MOL0     C85862   3.777   9.580   6.467  0.0305  0.7719  0.4419
  623MOL0     C85863   3.895   9.562   6.382 -0.7718 -0.0545 -0.8287
  623MOL0     C85864   3.916   9.418   6.332 -0.1478  0.4289  0.3043
  623MOL0     C85865   3.989   9.670   6.369  0.3915  0.4510 -0.1517
  623MOL0     C85866   4.125   9.668   6.297 -0.3240  0.2960 -0.1421
  623MOL0     O85867   4.192   9.790   6.284 -0.0443  0.2853 -0.2190
  623MOL0     C85868   4.314   9.789   6.223 -0.2732 -0.3020  0.0320
  623MOL0     C85869   4.411   9.865   6.290 -0.2206  0.4893 -0.1550
  623MOL0     C85870   4.538   9.870   6.240  0.4524  0.2952  0.1828
  623MOL0     C85871   4.576   9.815   6.111  0.8257 -0.2287  0.1815
  623MOL0     O85872   4.708   9.831   6.077 -0.1243 -0.0421  0.0273
  623MOL0     C85873   4.741   9.803   5.937 -0.2322 -0.1544  0.0430
  623MOL0     C85874   4.875   9.874   5.912  0.2811  0.2973 -0.7354
  623MOL0     C85875   4.994   9.800   5.968 -0.2268  0.2140  0.1441
  623MOL0     C85876   5.126   9.871   5.926 -0.9728 -0.3003  0.0204
  623MOL0     C85877   5.254   9.806   5.972  0.2573 -0.6756 -0.4171
  623MOL0     C85878   5.366   9.917   5.946 -1.0945  0.6335 -0.2348
  623MOL0     C85879   5.500   9.851   5.994  0.0333 -0.0350 -0.9211
  623MOL0     C85880   5.613   9.953   6.025 -0.3362  0.1786 -0.1121
  623MOL0    Cl85881   5.670  10.011   5.864  0.5889  0.5017  0.0831
  623MOL0     C85882   4.477   9.745   6.046 -0.4691 -0.3127 -0.4370
  623MOL0     C85883   4.349   9.735   6.099  0.5204  0.2716  0.5194
  623MOL0     O85884   4.170   9.567   6.255 -0.3308  0.6270  0.3200
  623MOL0     C85885   3.947   9.791   6.431 -0.6766 -0.2198  0.5096
  623MOL0     C85886   3.822   9.812   6.488 -0.0258  0.2145 -0.0869
  623MOL0     N85887   3.165   9.325   6.817  0.3270 -0.4497 -0.2004
  623MOL0     N85888   3.111   9.232   6.879  0.5615  0.3704  0.0002
  623MOL0     C85889   2.506   8.744   7.608 -0.0270 -0.1230 -0.2979
  623MOL0     C85890   2.409   8.712   7.705  0.9076  0.4545  0.0536
  623MOL0     C85891   2.028   8.459   7.819 -0.0199  0.1034  0.3813
  623MOL0     C85892   2.035   8.478   7.953  0.3303  0.0848  0.1461
  623MOL0     C85893   1.929   8.479   8.046 -0.2585  0.1957  0.4458
  623MOL0     C85894   1.798   8.469   7.996  0.3587 -0.0490 -1.2794
  623MOL0     O85895   1.702   8.492   8.103 -0.6180  0.3746  0.7219
  623MOL0     C85896   1.566   8.496   8.062 -0.2859 -0.3003  1.2078
  623MOL0     C85897   1.481   8.513   8.182  0.2964  0.7667  0.7678
  623MOL0     C85898   1.482   8.661   8.232  0.4156  1.2309  0.5878
  623MOL0     C85899   1.389   8.685   8.353  0.8410  0.2499 -0.1472
  623MOL0     C85900   1.439   8.632   8.488 -0.3457  0.2485 -0.3921
  623MOL0     C85901   1.472   8.593   8.599  0.5553 -0.4415  0.6473
  623MOL0     C85902   1.788   8.448   7.860  0.3743 -0.1099 -0.7285
  623MOL0     C85903   1.897   8.442   7.774  0.5047  0.1429  0.4242
  623MOL0     C85904   1.862   8.416   7.634 -1.0970  0.2404  0.7869
  623MOL0     H85905   2.409   8.375   7.652 -1.3192 -0.0173 -1.4219
  623MOL0     H85906   2.577   8.433   7.509 -0.2761  0.6510 -2.0983
  623MOL0     H85907   2.630   8.607   7.262 -1.2272  0.4987  1.5250
  623MOL0     H85908   2.745   8.495   7.350  1.4675 -1.0458 -0.5741
  623MOL0     H85909   2.833   8.760   7.232 -1.7167 -0.4377  1.4432
  623MOL0     H85910   2.916   8.655   7.358  2.6101  1.0155 -1.4240
  623MOL0     H85911   2.897   8.463   7.202  0.5124  0.7062  0.6631
  623MOL0     H85912   2.820   8.564   7.088  0.7880  1.5554  0.2364
  623MOL0     H85913   3.091   8.597   7.184 -1.5109 -2.6907  2.2606
  623MOL0     H85914   3.044   8.526   7.025 -0.8389 -1.7986  2.0621
  623MOL0     H85915   3.055   8.805   7.139  0.5669 -0.5884  0.7738
  623MOL0     H85916   2.943   8.783   6.996 -0.4745  0.8721  1.5203
  623MOL0     H85917   3.228   8.699   6.989  0.6421 -0.9320 -1.4053
  623MOL0     H85918   3.113   8.727   6.845  1.5938 -2.6753 -0.0766
  623MOL0     H85919   3.283   8.903   6.872 -1.1085  1.1008 -1.6989
  623MOL0     H85920   3.206   8.953   7.031 -2.2175 -0.8689  0.9623
  623MOL0     H85921   3.074   8.923   6.761 -0.7085  1.0113 -0.0347
  623MOL0     H85922   3.006   9.020   6.905  2.5189  4.3510  1.2470
  623MOL0     H85923   3.269   9.070   6.638  2.5019  0.9703 -0.4036
  623MOL0     H85924   3.206   9.415   6.541  1.0412  1.2747 -0.5551
  623MOL0     H85925   3.350   9.320   6.531  0.0899 -1.9227 -0.2964
  623MOL0     H85926   3.301   9.548   6.730  2.0553  0.0468  2.7048
  623MOL0     H85927   3.432   9.446   6.757 -0.3895  1.2812  0.5118
  623MOL0     H85928   3.503   9.490   6.513 -0.1527 -0.5297 -0.3109
  623MOL0     H85929   3.393   9.626   6.517  1.9685 -0.4477 -1.3986
  623MOL0     H85930   3.508   9.701   6.741 -0.9787  3.0462 -2.5617
  623MOL0     H85931   3.630   9.570   6.703  2.3357  1.4203 -0.6537
  623MOL0     H85932   3.710   9.502   6.500  0.1656  0.9817  1.2239
  623MOL0     H85933   3.952   9.421   6.229  0.5818  0.5977  0.5556
  623MOL0     H85934   3.826   9.358   6.346 -1.0559  0.6828 -3.3698
  623MOL0     H85935   4.001   9.386   6.393  0.6764 -0.7441 -1.3936
  623MOL0     H85936   4.397   9.906   6.389 -1.5726  0.6990 -0.4137
  623MOL0     H85937   4.610   9.924   6.302  0.2722 -1.7681  2.3532
  623MOL0     H85938   4.761   9.696   5.928  3.9559  0.1730  2.7901
  623MOL0     H85939   4.661   9.842   5.874 -2.2454 -1.8843  1.4036
  623MOL0     H85940   4.905   9.871   5.806  3.5980 -0.4324  0.0937
  623MOL0     H85941   4.866   9.977   5.946 -1.0772 -0.3179  0.8789
  623MOL0     H85942   4.997   9.702   5.921 -1.9937  0.0654  0.2889
  623MOL0     H85943   5.000   9.781   6.076  0.7211 -1.1080 -0.1175
  623MOL0     H85944   5.126   9.958   5.992 -1.1649  0.4280 -0.9153
  623MOL0     H85945   5.138   9.901   5.822  1.1472  1.5172  0.7085
  623MOL0     H85946   5.259   9.776   6.077 -0.2248  3.5406  0.9864
  623MOL0     H85947   5.258   9.714   5.913 -1.4948 -2.0349  1.4409
  623MOL0     H85948   5.349  10.008   6.004  0.1791  1.2965 -0.8686
  623MOL0     H85949   5.365   9.948   5.841 -0.6213  2.2802  0.2178
  623MOL0     H85950   5.532   9.774   5.923  0.3923 -2.4827  1.7208
  623MOL0     H85951   5.470   9.803   6.088  0.2244  0.3248 -0.6777
  623MOL0     H85952   5.699   9.904   6.071  1.0228  1.5658 -1.0916
  623MOL0     H85953   5.576  10.036   6.087  1.1785  2.5072 -2.1376
  623MOL0     H85954   4.502   9.691   5.955  0.7571  0.2631 -0.4698
  623MOL0     H85955   4.268   9.685   6.048  1.0338  1.0457 -1.1072
  623MOL0     H85956   4.013   9.877   6.426 -0.0908 -0.7134 -0.7759
  623MOL0     H85957   3.805   9.907   6.537  0.7731 -0.4748  1.6381
  623MOL0     H85958   2.546   8.844   7.593 -0.2896  0.2647  1.4078
  623MOL0     H85959   2.359   8.786   7.766  0.5391  0.0940  0.1972
  623MOL0     H85960   2.133   8.496   7.996  0.1276  1.4003  0.1133
  623MOL0     H85961   1.941   8.502   8.151 -0.6598  0.2572  0.4797
  623MOL0     H85962   1.545   8.577   7.991  1.1074 -1.5441 -0.7172
  623MOL0     H85963   1.547   8.400   8.013 -2.0201 -0.2958  1.7861
  623MOL0     H85964   1.506   8.444   8.263 -1.0449  0.1473  0.6785
  623MOL0     H85965   1.380   8.483   8.153  0.3616 -0.9376  2.1538
  623MOL0     H85966   1.581   8.687   8.270 -0.4240  2.9943  1.6688
  623MOL0     H85967   1.455   8.723   8.146 -0.9814 -0.9799 -0.6933
  623MOL0     H85968   1.290   8.643   8.330  0.1013  0.7988  1.8076
  623MOL0     H85969   1.368   8.790   8.372 -0.4912 -0.3055  1.8284
  623MOL0     H85970   1.495   8.551   8.695  0.9979  0.1878  0.8299
  623MOL0     H85971   1.686   8.449   7.824  1.1853  2.4181 -3.3701
  623MOL0     H85972   1.782   8.341   7.632  0.2094 -1.2322 -1.7897
  623MOL0     H85973   1.835   8.498   7.566  2.1778 -1.8062 -3.5128
  623MOL0     H85974   1.937   8.370   7.569 -0.2935  2.2859  0.1832
  624MOL0     O85975   1.906   5.874   0.036  0.2331  0.0078 -0.4358
  624MOL0     C85976   1.807   5.801   0.059 -0.5309 -0.0365 -0.1155
  624MOL0     O85977   1.690   5.850   0.115 -0.4132  0.2994  0.1747
  624MOL0     C85978   1.698   5.974   0.182  0.1123  0.6479  0.3585
  624MOL0     C85979   1.636   5.980   0.306 -0.2123  0.9705 -0.3002
  624MOL0     C85980   1.625   6.103   0.371 -0.5094 -0.0418 -0.5069
  624MOL0     C85981   1.673   6.216   0.315 -0.5332 -0.1666  0.1814
  624MOL0     O85982   1.668   6.339   0.378  0.1045 -0.0286  0.3043
  624MOL0     C85983   1.574   6.340   0.485  0.8607 -0.1956 -0.4703
  624MOL0     C85984   1.532   6.486   0.503 -0.1788  0.5166  0.2502
  624MOL0     C85985   1.458   6.550   0.385  0.6309  0.1906  0.5915
  624MOL0     C85986   1.314   6.589   0.422  0.6152 -0.6024 -0.1101
  624MOL0     C85987   1.230   6.569   0.294  1.4644  0.4835  0.1963
  624MOL0     C85988   1.077   6.601   0.321  0.7722  0.4353  0.2360
  624MOL0     C85989   0.990   6.597   0.191 -0.5291 -0.6127 -0.5550
  624MOL0     C85990   0.859   6.663   0.214 -0.1904  0.3645 -0.3014
  624MOL0     N85991   0.761   6.581   0.291 -0.3930  0.4512  0.1714
  624MOL0     C85992   0.753   6.441   0.276 -0.4919  0.3607  0.6285
  624MOL0     C85993   0.646   6.401   0.361 -0.9943  0.6864 -0.1844
  624MOL0     C85994   0.607   6.257   0.376  0.3201  0.5751 -0.3031
  624MOL0     C85995   0.479   6.219   0.302  0.0655 -0.4204  0.1230
  624MOL0     C85996   0.460   6.068   0.314  0.0599 -0.4551 -0.7269
  624MOL0     C85997   0.322   6.013   0.263 -0.2069  0.2603 -0.1609
  624MOL0     O85998   0.328   5.872   0.272  0.2327 -0.6933  0.7350
  624MOL0     C85999   0.217   5.787   0.260  0.1679 -0.1663  1.0719
  624MOL0     C86000   0.092   5.843   0.229 -0.1183  0.3800 -0.1231
  624MOL0     C86001  -0.022   5.755   0.220  0.2162  0.6911  0.0855
  624MOL0     C86002  -0.152   5.827   0.176 -0.7728 -0.5564 -0.1022
  624MOL0     C86003  -0.004   5.614   0.248  0.6356  0.2258 -0.1605
  624MOL0     C86004  -0.126   5.521   0.243 -0.4067  0.1768  0.9195
  624MOL0     O86005  -0.095   5.387   0.236  0.0359  0.5442 -0.0201
  624MOL0     C86006  -0.200   5.302   0.211 -0.3965 -0.8401  0.3628
  624MOL0     C86007  -0.200   5.189   0.293 -0.7431 -1.1533 -0.4898
  624MOL0     C86008  -0.301   5.086   0.272  0.0286 -0.4299 -0.1917
  624MOL0     C86009  -0.403   5.103   0.166  0.2676  0.5190  0.5652
  624MOL0     O86010  -0.499   5.001   0.151 -0.0168 -0.9502  0.4829
  624MOL0     C86011  -0.629   5.020   0.088 -0.7157 -0.1273  0.4835
  624MOL0     C86012  -0.674   4.875   0.063  0.8832  0.6922  1.0828
  624MOL0     C86013  -0.824   4.868   0.033 -0.3934 -0.0955 -0.2143
  624MOL0     C86014  -0.887   4.729   0.050 -0.1957 -0.0488 -0.4587
  624MOL0     C86015  -1.038   4.725   0.051  0.0362  1.0321  0.3412
  624MOL0     C86016  -1.122   4.788   0.160 -0.7496 -0.0881 -0.2722
  624MOL0     C86017  -1.261   4.821   0.104  0.2466 -0.2798 -0.7232
  624MOL0     C86018  -1.364   4.860   0.204  0.6629 -0.3351  0.7050
  624MOL0    Cl86019  -1.356   4.744   0.340 -0.4578 -0.4614 -0.0954
  624MOL0     C86020  -0.394   5.220   0.090  0.6061  0.3725 -0.8226
  624MOL0     C86021  -0.300   5.319   0.119 -0.3356  0.3511 -0.1568
  624MOL0     O86022  -0.238   5.566   0.256  0.2292 -0.5836 -0.0472
  624MOL0     C86023   0.127   5.561   0.263  0.2045  0.3260  1.4901
  624MOL0     C86024   0.233   5.648   0.265  0.5281 -0.4928  0.1299
  624MOL0     N86025   0.587   6.509   0.417 -0.2427  0.4914 -0.2073
  624MOL0     N86026   0.660   6.613   0.383  0.5914  0.9949  0.4151
  624MOL0     C86027   1.730   6.207   0.191  0.2268 -0.3211 -0.3412
  624MOL0     C86028   1.753   6.091   0.127 -0.3083 -0.5536  0.7349
  624MOL0     C86029   1.834   5.658   0.017  0.1887  0.4478 -0.4391
  624MOL0     C86030   1.947   5.610  -0.054  0.0781 -0.7748  0.1882
  624MOL0     C86031   1.976   5.479  -0.078 -0.0747 -0.5506 -0.2642
  624MOL0     C86032   1.891   5.378  -0.035 -0.4943  0.4350  0.4619
  624MOL0     O86033   1.918   5.243  -0.057  0.2213  0.8528  0.1717
  624MOL0     C86034   1.858   5.141   0.022 -0.1408  0.2075  0.3304
  624MOL0     C86035   1.906   5.006  -0.041 -0.7244  0.0126 -0.9155
  624MOL0     C86036   1.810   4.902  -0.001  0.4574 -0.8313 -0.4493
  624MOL0     C86037   1.862   4.766  -0.047 -0.9999 -0.4767 -0.4677
  624MOL0     C86038   1.797   4.657   0.033 -0.4256  0.1882 -0.6816
  624MOL0     C86039   1.751   4.567   0.100 -0.9197  0.8073  0.4204
  624MOL0     C86040   1.779   5.418   0.037  0.3594  0.0167 -0.3906
  624MOL0     C86041   1.751   5.557   0.063 -0.0090  0.4685  0.1411
  624MOL0     C86042   1.622   5.588   0.133 -0.3777  0.2727 -0.4106
  624MOL0     H86043   1.594   5.888   0.346 -0.4561  0.3503 -1.9030
  624MOL0     H86044   1.585   6.094   0.472  0.2250 -0.2372 -0.2220
  624MOL0     H86045   1.604   6.302   0.583  2.7790  1.3431 -0.3937
  624MOL0     H86046   1.477   6.294   0.468  0.3473  0.4789  0.5066
  624MOL0     H86047   1.478   6.504   0.596  0.5298 -0.6441  0.9148
  624MOL0     H86048   1.625   6.541   0.518  0.4063 -0.5149  0.5533
  624MOL0     H86049   1.510   6.639   0.348  2.2556  0.4876  3.2953
  624MOL0     H86050   1.453   6.473   0.307  1.6300  0.2347  0.4621
  624MOL0     H86051   1.273   6.533   0.507  1.1062  0.9721  1.2308
  624MOL0     H86052   1.339   6.692   0.448  0.8561 -0.4724 -0.8584
  624MOL0     H86053   1.246   6.467   0.257  0.3263  1.0565 -2.0488
  624MOL0     H86054   1.280   6.635   0.223  0.3694  0.1731 -0.8971
  624MOL0     H86055   1.038   6.520   0.384 -0.3097  2.2159  1.9936
  624MOL0     H86056   1.062   6.696   0.374  0.3306 -0.2965  1.4628
  624MOL0     H86057   0.971   6.493   0.164 -1.0540 -0.8874  0.7725
  624MOL0     H86058   1.042   6.645   0.108 -0.6970 -0.7889 -0.7596
  624MOL0     H86059   0.876   6.763   0.256  1.8390 -0.3333  0.6912
  624MOL0     H86060   0.822   6.688   0.114  2.1823  2.4056 -0.7696
  624MOL0     H86061   0.801   6.369   0.210  0.2309  0.7648  0.7069
  624MOL0     H86062   0.604   6.224   0.480  0.1604  3.4225  0.6715
  624MOL0     H86063   0.690   6.198   0.336 -0.9274  0.7108 -3.3860
  624MOL0     H86064   0.396   6.277   0.342  0.6109  0.5413 -0.1008
  624MOL0     H86065   0.492   6.249   0.198 -2.0781 -0.6159 -0.2352
  624MOL0     H86066   0.551   6.019   0.279  0.0575  0.5395 -2.2193
  624MOL0     H86067   0.461   6.049   0.422 -1.2394 -4.3029 -1.2408
  624MOL0     H86068   0.243   6.054   0.326  2.3657  1.4584  2.5678
  624MOL0     H86069   0.310   6.044   0.159  2.4841 -3.2932 -1.7654
  624MOL0     H86070   0.083   5.948   0.203  4.7479  0.7376 -1.2136
  624MOL0     H86071  -0.188   5.780   0.083  0.1654 -2.7625  0.5882
  624MOL0     H86072  -0.133   5.930   0.144 -1.4582  0.5133  2.6975
  624MOL0     H86073  -0.231   5.816   0.251 -0.5709  0.1786  0.2236
  624MOL0     H86074  -0.123   5.175   0.368 -2.2246 -0.9715  1.1323
  624MOL0     H86075  -0.298   5.002   0.340  0.7396  0.2888  0.6940
  624MOL0     H86076  -0.698   5.068   0.158 -1.0003 -1.4789  1.1620
  624MOL0     H86077  -0.623   5.079  -0.004 -1.3595  0.2449  0.6718
  624MOL0     H86078  -0.617   4.836  -0.023 -0.8200  0.7072 -0.0969
  624MOL0     H86079  -0.662   4.811   0.151 -2.3163 -2.1719 -0.3267
  624MOL0     H86080  -0.837   4.899  -0.071 -2.2984  2.1117  0.5990
  624MOL0     H86081  -0.878   4.938   0.097 -1.7948 -0.6056 -0.7951
  624MOL0     H86082  -0.850   4.667   0.131 -3.4484 -2.8703 -0.8875
  624MOL0     H86083  -0.859   4.673  -0.040  1.6834 -0.3067  0.2449
  624MOL0     H86084  -1.072   4.770  -0.042  1.2247  0.7329 -0.2534
  624MOL0     H86085  -1.075   4.622   0.046  0.6954  0.8528 -3.0611
  624MOL0     H86086  -1.073   4.878   0.197  0.9349 -1.6502  1.5291
  624MOL0     H86087  -1.116   4.718   0.244 -0.7256  1.1254  0.7611
  624MOL0     H86088  -1.301   4.733   0.055 -1.3064 -0.0621  0.0952
  624MOL0     H86089  -1.252   4.895   0.024 -0.1136 -0.5143 -0.9810
  624MOL0     H86090  -1.462   4.860   0.155  1.2723  0.5559 -0.5811
  624MOL0     H86091  -1.331   4.960   0.235 -0.5885 -0.2789  1.9405
  624MOL0     H86092  -0.468   5.243   0.015  0.8866  2.2025 -0.5985
  624MOL0     H86093  -0.292   5.409   0.060  1.1143  2.0787  2.4678
  624MOL0     H86094   0.156   5.458   0.279  2.0285  0.3821 -0.8922
  624MOL0     H86095   0.337   5.623   0.285  1.5070  0.5085 -3.0974
  624MOL0     H86096   1.776   6.300   0.158  1.4007  0.3755  2.9450
  624MOL0     H86097   1.807   6.093   0.033  0.3656  2.4256  1.0939
  624MOL0     H86098   2.016   5.690  -0.075  0.2594 -0.6357  1.2669
  624MOL0     H86099   2.070   5.448  -0.123  0.8785  0.6065  0.8480
  624MOL0     H86100   1.897   5.146   0.124 -1.3968 -1.8179  0.9803
  624MOL0     H86101   1.749   5.142   0.031 -0.1881 -3.7190  2.7297
  624MOL0     H86102   2.006   4.991  -0.001 -0.4843 -2.7755 -2.3211
  624MOL0     H86103   1.906   5.021  -0.150  2.3953  3.7285 -0.6215
  624MOL0     H86104   1.790   4.898   0.107 -1.7846  3.3409 -0.5043
  624MOL0     H86105   1.715   4.930  -0.046  0.8463  0.0590 -0.7567
  624MOL0     H86106   1.970   4.766  -0.037 -0.7664  1.1323 -2.3400
  624MOL0     H86107   1.842   4.757  -0.155 -0.9808  1.7670 -0.7049
  624MOL0     H86108   1.697   4.493   0.156  1.6777 -1.4464  0.2027
  624MOL0     H86109   1.707   5.348   0.077  0.4333 -0.4226 -1.0062
  624MOL0     H86110   1.578   5.495   0.169 -0.1831  0.3827  0.1275
  624MOL0     H86111   1.633   5.651   0.222  0.5851  0.3244 -0.5613
  624MOL0     H86112   1.551   5.640   0.068  0.2409  1.3508 -0.2590
  625MOL0     O86113  11.144   8.660   9.050 -0.9589 -0.2536  0.1955
  625MOL0     C86114  11.071   8.727   9.124 -0.3377 -0.3666  0.5118
  625MOL0     O86115  11.111   8.816   9.223 -0.3810  0.6437  0.6564
  625MOL0     C86116  11.242   8.840   9.243  0.4138  0.1990  0.6668
  625MOL0     C86117  11.292   8.969   9.241  0.0674  0.3919 -0.1570
  625MOL0     C86118  11.432   8.989   9.265  0.5703 -0.3296 -0.1952
  625MOL0     C86119  11.517   8.883   9.291 -1.0493 -0.0431  0.1502
  625MOL0     O86120  11.648   8.899   9.296 -1.1648  0.4400  0.3582
  625MOL0     C86121  11.719   8.980   9.200  0.5021  0.3881  0.1898
  625MOL0     C86122  11.868   8.993   9.240  0.1566  0.3124 -0.4188
  625MOL0     C86123  11.929   9.111   9.153  0.0148  0.0378 -0.0335
  625MOL0     C86124  12.084   9.140   9.174  0.1574 -0.5040  0.5080
  625MOL0     C86125  12.133   9.268   9.108  0.2140  0.5020 -0.3305
  625MOL0     C86126  12.279   9.302   9.154  0.2387 -0.7150  0.4028
  625MOL0     C86127  12.311   9.446   9.111  0.1432 -0.1300 -0.3279
  625MOL0     C86128  12.461   9.466   9.132  0.2658  0.2397 -0.6078
  625MOL0     N86129  12.495   9.605   9.077  0.1130 -0.0895  0.5490
  625MOL0     C86130  12.529   9.632   8.945  0.2487 -0.2658 -0.6281
  625MOL0     C86131  12.537   9.769   8.946  0.7832 -0.5934 -0.6269
  625MOL0     C86132  12.572   9.848   8.818 -0.4478 -0.2981  0.4116
  625MOL0     C86133  12.715   9.897   8.811 -0.1008  0.2626  0.4466
  625MOL0     C86134  12.823   9.789   8.776  0.0030  0.5022  0.1953
  625MOL0     C86135  12.944   9.859   8.729  0.3309 -0.4534  0.6348
  625MOL0     O86136  13.049   9.763   8.731 -0.6664 -0.6260 -0.1027
  625MOL0     C86137  13.167   9.781   8.660  0.5465  0.1792 -0.5305
  625MOL0     C86138  13.210   9.912   8.626 -1.2815 -0.2948 -0.4050
  625MOL0     C86139  13.327   9.926   8.547 -0.7835 -1.1683 -0.5612
  625MOL0     C86140  13.353  10.071   8.500  0.1344 -0.5262 -0.5990
  625MOL0     C86141  13.421   9.822   8.526 -0.2732  0.4243  0.1765
  625MOL0     C86142  13.557   9.831   8.464 -0.1399  0.4186 -0.3936
  625MOL0     O86143  13.650   9.737   8.516 -0.3108  0.4983  0.0046
  625MOL0     C86144  13.773   9.733   8.455 -0.3710 -0.0069  0.9995
  625MOL0     C86145  13.862   9.837   8.456 -0.2741  0.6004  0.2642
  625MOL0     C86146  13.984   9.834   8.379  0.0306 -0.9452  0.0564
  625MOL0     C86147  14.011   9.714   8.306  0.2491 -0.6266 -0.1842
  625MOL0     O86148  14.118   9.704   8.220  0.6344 -0.1107  0.2683
  625MOL0     C86149  14.199   9.809   8.174 -0.7976  0.0539  0.0872
  625MOL0     C86150  14.306   9.820   8.276 -0.5116  0.0604 -0.4472
  625MOL0     C86151  14.379   9.680   8.279  0.0543  0.5744  0.3510
  625MOL0     C86152  14.455   9.668   8.414 -0.2034 -0.8082  0.1292
  625MOL0     C86153  14.599   9.599   8.407  1.1072 -0.0895 -0.4160
  625MOL0     C86154  14.696   9.668   8.311  0.1720  0.1176 -0.2262
  625MOL0     C86155  14.843   9.642   8.338 -0.2369  0.3180  0.4183
  625MOL0     C86156  14.911   9.592   8.206  0.0829 -1.1581 -0.8295
  625MOL0    Cl86157  15.085   9.603   8.222 -0.0196 -0.1751  0.1368
  625MOL0     C86158  13.923   9.613   8.320  0.7234  1.0641  1.0040
  625MOL0     C86159  13.804   9.614   8.392 -0.0132  0.2055  0.2575
  625MOL0     O86160  13.586   9.917   8.385  0.2372 -0.5094  0.1587
  625MOL0     C86161  13.375   9.695   8.567  0.0599 -0.3999  0.6990
  625MOL0     C86162  13.247   9.674   8.626  0.6764 -0.0952  0.5686
  625MOL0     N86163  12.524   9.825   9.072 -0.0285  0.5639 -0.1618
  625MOL0     N86164  12.494   9.724   9.148 -0.1934 -0.3418  0.5321
  625MOL0     C86165  11.465   8.758   9.314 -0.4319  0.0715 -0.1560
  625MOL0     C86166  11.337   8.737   9.281 -0.7543  0.6538  0.0984
  625MOL0     C86167  10.940   8.680   9.144  0.1694 -0.1258 -0.0877
  625MOL0     C86168  10.876   8.687   9.276  0.1670  0.1430  0.0678
  625MOL0     C86169  10.744   8.643   9.293  0.5442  0.8567  0.2439
  625MOL0     C86170  10.673   8.582   9.193 -0.1528 -0.0620  0.5461
  625MOL0     O86171  10.548   8.547   9.224 -0.0848  0.1778 -0.4616
  625MOL0     C86172  10.491   8.431   9.157 -0.8442  0.2917  0.6168
  625MOL0     C86173  10.360   8.377   9.220 -0.2277 -0.0038  0.9205
  625MOL0     C86174  10.284   8.275   9.136 -0.4269  0.5876 -0.5860
  625MOL0     C86175  10.142   8.248   9.181  0.9505 -0.4054 -0.2725
  625MOL0     C86176  10.044   8.335   9.109  0.7535  0.6703 -0.1855
  625MOL0     C86177   9.960   8.403   9.056  0.7438  0.7971 -0.1265
  625MOL0     C86178  10.737   8.555   9.066  0.0837  0.1470 -0.5688
  625MOL0     C86179  10.864   8.615   9.041 -0.3283  0.3222 -1.6283
  625MOL0     C86180  10.914   8.599   8.894  0.7426  0.4704 -0.9228
  625MOL0     H86181  11.234   9.054   9.206  0.5599 -0.1637 -2.4609
  625MOL0     H86182  11.470   9.090   9.259  0.9649 -0.5727 -2.6011
  625MOL0     H86183  11.670   9.073   9.172  1.7759  0.3757 -2.4127
  625MOL0     H86184  11.717   8.926   9.105 -2.4013 -1.2397  1.0679
  625MOL0     H86185  11.883   9.005   9.348  1.6133 -0.1436 -0.5426
  625MOL0     H86186  11.921   8.901   9.215 -2.2492 -0.6304 -2.4849
  625MOL0     H86187  11.926   9.096   9.045  3.0908  0.8856 -0.3231
  625MOL0     H86188  11.869   9.202   9.164 -0.0344 -0.0220  0.2077
  625MOL0     H86189  12.095   9.146   9.282  0.1962 -0.9367  0.5288
  625MOL0     H86190  12.135   9.055   9.127 -0.7748 -0.4197 -0.7263
  625MOL0     H86191  12.069   9.346   9.150 -1.6787 -0.8410 -0.5628
  625MOL0     H86192  12.129   9.263   8.999 -4.0532 -0.7546 -0.2770
  625MOL0     H86193  12.291   9.291   9.262  2.0623  0.2683  0.3343
  625MOL0     H86194  12.355   9.234   9.115  0.3252 -0.2942 -0.1791
  625MOL0     H86195  12.252   9.519   9.166  3.0304  0.2459  2.5644
  625MOL0     H86196  12.283   9.459   9.006 -4.3709 -1.4599  0.4771
  625MOL0     H86197  12.490   9.451   9.237 -2.6507 -0.3434  0.2042
  625MOL0     H86198  12.509   9.388   9.074 -0.9592 -1.2140  0.2753
  625MOL0     H86199  12.543   9.562   8.863 -1.5905 -1.0681 -0.3261
  625MOL0     H86200  12.517   9.942   8.820  0.6709  0.3791  1.8849
  625MOL0     H86201  12.545   9.790   8.730 -1.7996  2.3200 -1.0222
  625MOL0     H86202  12.712   9.969   8.729  6.1178  0.6329  0.1293
  625MOL0     H86203  12.743   9.950   8.902  0.8337  1.8551 -0.7307
  625MOL0     H86204  12.857   9.727   8.859  0.9202  0.4268 -0.2215
  625MOL0     H86205  12.777   9.727   8.698  0.3960 -2.0965  1.8932
  625MOL0     H86206  12.925   9.891   8.626 -0.7042 -2.8288  0.0121
  625MOL0     H86207  12.975   9.943   8.791  0.3038  1.6703 -2.0393
  625MOL0     H86208  13.157  10.003   8.652  0.0449  0.9408 -1.8325
  625MOL0     H86209  13.457  10.096   8.479 -0.2000  1.1491 -0.4003
  625MOL0     H86210  13.312  10.139   8.576 -1.6208  0.0308 -1.9531
  625MOL0     H86211  13.306  10.087   8.403 -1.0123 -0.9259 -0.1331
  625MOL0     H86212  13.826   9.925   8.509  0.3227  1.7890 -1.2204
  625MOL0     H86213  14.044   9.923   8.395 -0.0560 -0.2040 -3.1520
  625MOL0     H86214  14.247   9.792   8.077 -1.3949 -0.1718 -0.1725
  625MOL0     H86215  14.133   9.896   8.172 -6.0384 -3.4575 -0.1621
  625MOL0     H86216  14.367   9.904   8.245  1.8839 -0.0756  3.2815
  625MOL0     H86217  14.250   9.844   8.367 -1.7568 -1.6993 -0.6774
  625MOL0     H86218  14.456   9.678   8.201  0.7091  3.9832  0.7555
  625MOL0     H86219  14.311   9.598   8.254 -2.4560  3.0258 -1.6192
  625MOL0     H86220  14.387   9.620   8.486 -3.3206  0.1356 -1.9592
  625MOL0     H86221  14.476   9.768   8.453 -1.2193 -1.0230  1.3076
  625MOL0     H86222  14.640   9.598   8.509 -2.0586 -0.2555  0.9511
  625MOL0     H86223  14.590   9.497   8.368 -0.3374  0.1205 -0.6630
  625MOL0     H86224  14.675   9.775   8.317  1.2886  0.3286  0.1407
  625MOL0     H86225  14.659   9.642   8.211  0.7754  3.0516 -1.3258
  625MOL0     H86226  14.853   9.582   8.428  0.7225  0.5731  0.4989
  625MOL0     H86227  14.894   9.737   8.358  0.4846  0.5279 -2.0068
  625MOL0     H86228  14.876   9.663   8.131  0.0103 -0.1287  0.1554
  625MOL0     H86229  14.876   9.492   8.179 -4.5867  0.0957 -0.3209
  625MOL0     H86230  13.943   9.515   8.278  0.0542  2.0540 -1.8191
  625MOL0     H86231  13.746   9.522   8.381  3.7388 -2.2823 -0.6853
  625MOL0     H86232  13.434   9.608   8.539 -0.9667 -1.4689  1.7738
  625MOL0     H86233  13.197   9.582   8.656 -0.9385  1.1583  1.9399
  625MOL0     H86234  11.528   8.672   9.332  1.6037  1.5319 -0.0377
  625MOL0     H86235  11.308   8.632   9.277  1.1649  0.0885 -0.1041
  625MOL0     H86236  10.926   8.716   9.368  0.8383 -4.6752  1.4960
  625MOL0     H86237  10.693   8.638   9.389 -1.1132  1.7312 -0.5463
  625MOL0     H86238  10.464   8.458   9.055 -3.1112 -2.2971  0.4179
  625MOL0     H86239  10.562   8.349   9.151 -0.9175  0.3198 -0.9826
  625MOL0     H86240  10.295   8.460   9.249  1.2590  0.4903  3.1060
  625MOL0     H86241  10.386   8.333   9.317  1.1495 -0.9841  0.1395
  625MOL0     H86242  10.280   8.300   9.030 -0.3394  0.3851 -0.6363
  625MOL0     H86243  10.342   8.183   9.145 -1.9797 -0.4952 -1.3044
  625MOL0     H86244  10.135   8.266   9.289 -0.2940 -1.3404 -0.1878
  625MOL0     H86245  10.119   8.142   9.170 -1.8721 -0.4426  3.7553
  625MOL0     H86246   9.883   8.461   9.009 -0.2907  0.7633  1.4579
  625MOL0     H86247  10.690   8.495   8.989  0.4221  0.6973 -1.2075
  625MOL0     H86248  10.976   8.686   8.875  0.1004  1.9023  2.6697
  625MOL0     H86249  10.969   8.505   8.879 -0.4190  0.0021 -2.5256
  625MOL0     H86250  10.828   8.594   8.826 -0.5225  0.5513  0.6078
  626MOL0     O86251   5.542   5.369   9.796  0.1937 -0.5252 -0.6231
  626MOL0     C86252   5.456   5.394   9.891 -0.2584  0.1595 -0.3826
  626MOL0     O86253   5.474   5.479  10.002  0.3451 -0.4339 -0.1368
  626MOL0     C86254   5.598   5.533  10.044  0.2160 -0.2077  0.2935
  626MOL0     C86255   5.591   5.645  10.128 -0.0250  0.2140 -0.2196
  626MOL0     C86256   5.704   5.695  10.198  0.4308  0.5922 -0.1588
  626MOL0     C86257   5.819   5.627  10.197 -0.9624 -0.3090 -0.5875
  626MOL0     O86258   5.926   5.668  10.272  0.4253 -0.0997 -0.3630
  626MOL0     C86259   5.990   5.785  10.234 -0.4012  0.0321 -0.3537
  626MOL0     C86260   6.145   5.771  10.268 -0.2996  0.7862  0.2520
  626MOL0     C86261   6.218   5.903  10.253 -0.2272 -0.6482  0.1358
  626MOL0     C86262   6.371   5.887  10.255 -0.0898  0.0193  0.0514
  626MOL0     C86263   6.437   6.033  10.281  1.1828  0.0316  0.5920
  626MOL0     C86264   6.592   6.031  10.277  0.1005  0.1171  0.8150
  626MOL0     C86265   6.630   6.175  10.285 -0.6259 -0.2078 -0.2761
  626MOL0     C86266   6.776   6.190  10.321  0.4690  0.0866  0.6452
  626MOL0     N86267   6.874   6.154  10.215 -0.5351  0.0379  0.4962
  626MOL0     C86268   6.908   6.226  10.104 -1.0509 -0.2450 -0.3521
  626MOL0     C86269   6.989   6.144  10.030 -0.7901 -0.9213 -0.0581
  626MOL0     C86270   7.065   6.188   9.908  0.1228  0.8255 -0.6391
  626MOL0     C86271   7.203   6.254   9.937 -0.2667  0.0476  0.3744
  626MOL0     C86272   7.289   6.183  10.042  0.3467 -1.3311 -0.4028
  626MOL0     C86273   7.314   6.268  10.163 -0.1328  0.5148 -0.1227
  626MOL0     O86274   7.441   6.253  10.232  0.0012  0.4069  1.0640
  626MOL0     C86275   7.496   6.358  10.290  0.4777 -0.1587 -0.1374
  626MOL0     C86276   7.434   6.468  10.352 -0.3864 -0.5867 -0.4448
  626MOL0     C86277   7.505   6.582  10.400  0.4037  0.7768  0.8230
  626MOL0     C86278   7.412   6.689  10.437 -0.5110 -0.7549 -0.4997
  626MOL0     C86279   7.649   6.569  10.406  0.0026  0.0583  0.3453
  626MOL0     C86280   7.735   6.654  10.483 -0.4226 -0.6774 -0.7031
  626MOL0     O86281   7.865   6.654  10.443 -0.4140 -0.2471 -0.1248
  626MOL0     C86282   7.960   6.728  10.506 -0.1310  0.7999  0.0817
  626MOL0     C86283   8.057   6.800  10.434 -0.8134 -0.1830 -0.4342
  626MOL0     C86284   8.141   6.897  10.484  0.0022 -0.8695 -0.2874
  626MOL0     C86285   8.134   6.925  10.624 -0.3233 -0.6315 -0.5660
  626MOL0     O86286   8.227   6.998  10.696  0.0583 -0.4006 -0.4369
  626MOL0     C86287   8.349   7.019  10.617 -0.2351  0.1724  0.1470
  626MOL0     C86288   8.461   7.081  10.700 -0.0416  0.0909 -0.4348
  626MOL0     C86289   8.598   7.087  10.626 -0.2492 -0.5750  0.3103
  626MOL0     C86290   8.619   7.197  10.524  0.1465  0.3130 -0.0414
  626MOL0     C86291   8.762   7.218  10.495  0.0915  0.0349  0.5895
  626MOL0     C86292   8.839   7.107  10.412 -0.1957 -0.1119 -0.4431
  626MOL0     C86293   8.762   7.077  10.281 -0.2229 -0.3459 -0.0898
  626MOL0     C86294   8.854   7.007  10.176 -0.5429 -0.2033 -0.3040
  626MOL0    Cl86295   8.782   6.900  10.053 -0.3104 -0.1118 -0.2171
  626MOL0     C86296   8.044   6.853  10.699  0.3817 -0.3286 -0.7656
  626MOL0     C86297   7.960   6.762  10.641 -0.8678  0.1187 -0.9295
  626MOL0     O86298   7.687   6.722  10.570 -0.7653  0.3633  0.1203
  626MOL0     C86299   7.706   6.453  10.351  0.4570 -0.8951 -0.1425
  626MOL0     C86300   7.635   6.356  10.286 -0.0394  0.5214 -0.6639
  626MOL0     N86301   7.001   6.030  10.107 -0.7031 -0.3282 -0.2683
  626MOL0     N86302   6.939   6.034  10.220 -0.2987 -0.1881  0.4628
  626MOL0     C86303   5.836   5.527  10.105  0.7291  0.6217 -0.1493
  626MOL0     C86304   5.728   5.486  10.021  0.8117 -0.2012 -0.2693
  626MOL0     C86305   5.323   5.337   9.873 -0.7459  0.2915 -0.3025
  626MOL0     C86306   5.213   5.420   9.875  0.0882 -0.7535  1.2178
  626MOL0     C86307   5.091   5.367   9.832  1.0458  0.1198  0.1857
  626MOL0     C86308   5.079   5.232   9.792 -0.1795  0.7879 -0.3880
  626MOL0     O86309   4.951   5.195   9.755  0.1353  0.2944 -0.5168
  626MOL0     C86310   4.898   5.069   9.799 -0.3266 -0.8365  0.0322
  626MOL0     C86311   4.898   4.965   9.685  0.0902 -0.0979 -0.2368
  626MOL0     C86312   4.803   5.011   9.582 -0.3275 -0.4266 -0.5373
  626MOL0     C86313   4.783   4.900   9.472  0.0129 -0.0957  0.6507
  626MOL0     C86314   4.726   4.954   9.341 -0.0309 -0.6057 -1.4757
  626MOL0     C86315   4.689   5.001   9.235  0.3347 -0.7217  0.8131
  626MOL0     C86316   5.192   5.146   9.796  0.4134  0.6828  0.9772
  626MOL0     C86317   5.316   5.202   9.827  0.1684  0.3856 -0.1146
  626MOL0     C86318   5.425   5.107   9.813 -0.8785  0.2918 -0.2292
  626MOL0     H86319   5.492   5.690  10.136  0.0680  0.2793  0.7059
  626MOL0     H86320   5.693   5.774  10.272 -2.6974  0.3901 -0.2441
  626MOL0     H86321   5.955   5.866  10.299 -0.1348  0.5452 -0.8358
  626MOL0     H86322   5.976   5.798  10.127 -1.7966  0.1648 -0.1660
  626MOL0     H86323   6.156   5.730  10.369 -2.3571 -0.5807 -0.0191
  626MOL0     H86324   6.178   5.712  10.182 -1.0069  2.7873 -1.4894
  626MOL0     H86325   6.199   5.959  10.162 -2.3979  0.8707  1.4462
  626MOL0     H86326   6.181   5.968  10.333  0.0823 -2.6219  2.0049
  626MOL0     H86327   6.396   5.817  10.335 -1.9530  0.6895  1.2790
  626MOL0     H86328   6.398   5.839  10.160 -1.2064  0.4589 -0.5021
  626MOL0     H86329   6.409   6.055  10.385  0.1446 -1.5616  0.6985
  626MOL0     H86330   6.387   6.100  10.210 -1.0214 -0.3335  1.6958
  626MOL0     H86331   6.642   5.973  10.355  1.6049  0.3761  0.0899
  626MOL0     H86332   6.620   5.997  10.177  2.1214 -1.0086  1.7060
  626MOL0     H86333   6.575   6.215  10.371 -1.6123 -2.7049  0.3409
  626MOL0     H86334   6.608   6.240  10.200  1.5824  0.0671 -0.7046
  626MOL0     H86335   6.800   6.295  10.344  0.2112  0.5611 -1.0847
  626MOL0     H86336   6.799   6.130  10.410  2.5745 -0.4115 -0.1739
  626MOL0     H86337   6.891   6.333  10.094 -1.3790  0.4881  4.8318
  626MOL0     H86338   7.000   6.258   9.855  0.3748  1.5842  0.0323
  626MOL0     H86339   7.080   6.106   9.837  3.3480 -1.0392  1.9180
  626MOL0     H86340   7.255   6.241   9.842 -1.1296 -1.3120  0.0599
  626MOL0     H86341   7.184   6.361   9.952 -3.8054 -0.3266 -0.4655
  626MOL0     H86342   7.241   6.088  10.066 -0.9802 -1.0064 -1.6382
  626MOL0     H86343   7.388   6.160   9.999  2.1731  0.6702  2.3701
  626MOL0     H86344   7.299   6.374  10.141 -1.0639  0.9304  2.1889
  626MOL0     H86345   7.237   6.264  10.240 -2.5391  0.1429 -2.4205
  626MOL0     H86346   7.326   6.476  10.357 -0.1932  2.2661  0.8009
  626MOL0     H86347   7.333   6.698  10.361 -0.1974 -0.0533 -0.7532
  626MOL0     H86348   7.458   6.788  10.438  0.7775 -1.3375 -0.4868
  626MOL0     H86349   7.367   6.663  10.533  2.1275 -0.4972  0.8941
  626MOL0     H86350   8.076   6.785  10.329  2.9935 -1.1906  0.2663
  626MOL0     H86351   8.217   6.947  10.425 -0.1412  1.4875  1.3932
  626MOL0     H86352   8.385   6.923  10.581  0.9248  0.5017  0.3962
  626MOL0     H86353   8.332   7.094  10.539  2.4272  2.6126  1.7075
  626MOL0     H86354   8.440   7.186  10.723  1.2247  0.7465 -1.9741
  626MOL0     H86355   8.485   7.029  10.793  4.6122  2.1580 -0.1605
  626MOL0     H86356   8.630   6.990  10.585 -0.9483 -1.6164  2.1287
  626MOL0     H86357   8.666   7.120  10.704  0.2196  3.8025 -1.6202
  626MOL0     H86358   8.576   7.289  10.566 -0.3313 -0.5855  1.4800
  626MOL0     H86359   8.557   7.178  10.436 -2.2821  3.3503  0.7975
  626MOL0     H86360   8.769   7.312  10.440 -2.8740 -0.3744 -0.6978
  626MOL0     H86361   8.815   7.227  10.590  0.1056  0.6504  0.5239
  626MOL0     H86362   8.838   7.019  10.478  1.5497 -1.1259 -1.6780
  626MOL0     H86363   8.940   7.144  10.391  0.4148 -0.1208  2.0967
  626MOL0     H86364   8.726   7.173  10.243  1.4297  0.8794  1.3236
  626MOL0     H86365   8.676   7.017  10.314  1.2032 -1.6448  1.4446
  626MOL0     H86366   8.918   6.942  10.235 -0.6865  1.1661  1.4598
  626MOL0     H86367   8.923   7.081  10.135  1.1638 -1.2164  0.6549
  626MOL0     H86368   8.015   6.859  10.804 -0.8745  0.0579 -1.1186
  626MOL0     H86369   7.891   6.710  10.705 -2.4792  2.1867 -0.8923
  626MOL0     H86370   7.811   6.424  10.354  0.2881 -1.4407  3.0274
  626MOL0     H86371   7.694   6.275  10.245  0.7544 -0.7350  2.6554
  626MOL0     H86372   5.929   5.472  10.107  1.7467  2.2545 -0.8062
  626MOL0     H86373   5.736   5.406   9.949  2.0569 -1.0308  0.7572
  626MOL0     H86374   5.224   5.526   9.895  3.6818 -0.6718 -0.3974
  626MOL0     H86375   4.996   5.419   9.828  0.3470 -1.0462  1.2283
  626MOL0     H86376   4.958   5.033   9.884  2.2957  0.1479 -1.3043
  626MOL0     H86377   4.804   5.099   9.846  0.0450 -2.1814  1.7614
  626MOL0     H86378   4.854   4.873   9.725  0.2975 -0.8076 -1.6004
  626MOL0     H86379   4.999   4.944   9.650  1.1202  2.2150  1.0636
  626MOL0     H86380   4.708   5.037   9.629  0.7475  0.3834  1.3029
  626MOL0     H86381   4.847   5.100   9.538 -2.1006  0.8289  0.1096
  626MOL0     H86382   4.710   4.823   9.499 -1.3023  1.6696  2.4290
  626MOL0     H86383   4.882   4.861   9.448 -0.9321 -0.8439 -2.3995
  626MOL0     H86384   4.665   5.036   9.137  1.6864 -1.9312  0.0272
  626MOL0     H86385   5.171   5.046   9.757 -1.4737  0.7653  1.6836
  626MOL0     H86386   5.492   5.127   9.898  0.3621 -1.7798 -0.6475
  626MOL0     H86387   5.393   5.004   9.831 -0.9473  0.3759  0.1417
  626MOL0     H86388   5.468   5.110   9.713 -2.5294 -1.1184 -1.0284
  627MOL0     O86389  10.111   1.105   3.296 -0.1486 -0.0821  0.8568
  627MOL0     C86390  10.125   1.022   3.383  0.0179  0.0670 -0.4697
  627MOL0     O86391  10.234   1.012   3.457  0.0969 -0.3843 -0.3436
  627MOL0     C86392  10.336   1.104   3.450  0.1246  0.2035 -0.4625
  627MOL0     C86393  10.407   1.124   3.568 -0.4272  0.3413 -1.3254
  627MOL0     C86394  10.508   1.225   3.575  0.5523 -0.4875 -0.0251
  627MOL0     C86395  10.549   1.292   3.460 -0.0477  0.0273  0.7456
  627MOL0     O86396  10.667   1.360   3.469  0.1091  0.1099  0.7185
  627MOL0     C86397  10.786   1.270   3.471  0.7897  0.4671  0.3867
  627MOL0     C86398  10.839   1.221   3.332  0.2015  0.2954 -0.3278
  627MOL0     C86399  10.968   1.140   3.352 -0.4508 -0.3512  0.6656
  627MOL0     C86400  11.031   1.096   3.219  0.2899 -0.1211 -0.6249
  627MOL0     C86401  11.084   0.958   3.225  0.6764  0.0595 -0.0008
  627MOL0     C86402  11.223   0.969   3.301  0.3406  0.4673 -0.0690
  627MOL0     C86403  11.350   1.031   3.226 -0.3491 -0.2613 -0.4029
  627MOL0     C86404  11.492   0.978   3.285  0.7259  0.9120  0.0994
  627MOL0     N86405  11.610   1.020   3.210 -0.0397 -0.6617 -0.1399
  627MOL0     C86406  11.618   1.033   3.074 -0.3624  0.0235 -0.9034
  627MOL0     C86407  11.743   1.079   3.049  0.5691  0.1434 -0.7064
  627MOL0     C86408  11.801   1.093   2.911  0.3837  0.8926 -0.4560
  627MOL0     C86409  11.952   1.093   2.923  0.1190 -0.2155 -0.0544
  627MOL0     C86410  12.019   1.107   2.794 -0.1224  0.3615  0.0647
  627MOL0     C86411  12.175   1.093   2.813  0.9882  0.6551 -0.0300
  627MOL0     O86412  12.247   1.109   2.689  0.0757 -0.5809  0.6058
  627MOL0     C86413  12.382   1.125   2.699 -0.7359  0.2328 -0.4756
  627MOL0     C86414  12.462   1.110   2.814  0.8721 -0.8522 -0.0115
  627MOL0     C86415  12.599   1.145   2.806  0.2736 -0.0081  0.5856
  627MOL0     C86416  12.674   1.115   2.937  0.7652 -0.6936 -0.4699
  627MOL0     C86417  12.661   1.204   2.695 -0.1928  0.4829 -0.5449
  627MOL0     C86418  12.808   1.244   2.679 -0.8000 -0.8657 -0.0184
  627MOL0     O86419  12.861   1.276   2.550 -0.2156  0.1120  0.5957
  627MOL0     C86420  12.996   1.321   2.560 -0.3827 -0.9107 -0.5730
  627MOL0     C86421  13.033   1.431   2.640  0.6396  0.2338 -0.1547
  627MOL0     C86422  13.160   1.483   2.630  0.2439  0.8277 -0.1548
  627MOL0     C86423  13.256   1.413   2.547 -0.1653 -0.1155 -0.6768
  627MOL0     O86424  13.391   1.453   2.547  0.4088 -0.3717 -0.6600
  627MOL0     C86425  13.425   1.593   2.582  0.3016  0.4382  0.1492
  627MOL0     C86426  13.575   1.606   2.561 -0.0763  0.7698 -0.5116
  627MOL0     C86427  13.640   1.739   2.541  0.5943 -0.5548 -0.6138
  627MOL0     C86428  13.796   1.727   2.531  0.4023  0.2488  0.0155
  627MOL0     C86429  13.843   1.674   2.397 -0.5337 -0.3703  0.2767
  627MOL0     C86430  13.992   1.648   2.367 -0.2312  0.0585 -0.2467
  627MOL0     C86431  14.074   1.779   2.360  0.5165 -0.5563  0.3748
  627MOL0     C86432  14.207   1.745   2.301 -0.0749  0.0104 -0.5378
  627MOL0    Cl86433  14.290   1.611   2.386 -0.3335  0.2419 -0.2456
  627MOL0     C86434  13.219   1.305   2.471 -0.0882  0.0125  0.9373
  627MOL0     C86435  13.090   1.264   2.470  0.5485 -0.7696 -1.1586
  627MOL0     O86436  12.878   1.242   2.782  0.0628  0.3696 -0.4763
  627MOL0     C86437  12.575   1.221   2.583  0.2615  0.7910 -0.9846
  627MOL0     C86438  12.443   1.177   2.584  0.4447  0.3555 -0.4687
  627MOL0     N86439  11.808   1.082   3.176  0.0695 -0.5839  0.1426
  627MOL0     N86440  11.728   1.058   3.270 -0.5507  0.4141  0.2055
  627MOL0     C86441  10.491   1.264   3.336  0.0026  1.2243 -0.7746
  627MOL0     C86442  10.376   1.179   3.333 -0.1203 -0.1385 -0.0109
  627MOL0     C86443  10.022   0.904   3.393  0.2270 -0.2493 -0.8787
  627MOL0     C86444   9.925   0.884   3.293  0.6517  0.4110 -0.6057
  627MOL0     C86445   9.840   0.777   3.298 -0.0605  0.5806 -0.2871
  627MOL0     C86446   9.842   0.688   3.403  0.3562  0.0192 -0.9090
  627MOL0     O86447   9.745   0.587   3.402 -0.1616 -0.5375 -0.3584
  627MOL0     C86448   9.777   0.467   3.467  0.7253 -0.0360 -0.2611
  627MOL0     C86449   9.655   0.375   3.462  0.3529  0.3268  0.7002
  627MOL0     C86450   9.617   0.340   3.311 -0.2182  0.5913 -0.5470
  627MOL0     C86451   9.507   0.433   3.255  1.4306  1.0194 -0.5103
  627MOL0     C86452   9.461   0.375   3.133 -0.4163 -0.4546 -0.0146
  627MOL0     C86453   9.440   0.334   3.019  0.6854 -0.6297 -0.0556
  627MOL0     C86454   9.933   0.712   3.513  0.8075 -0.1111 -0.1988
  627MOL0     C86455  10.021   0.820   3.507  0.8125  0.3121 -0.2644
  627MOL0     C86456  10.109   0.826   3.627  0.5279 -0.0959 -0.3423
  627MOL0     H86457  10.380   1.069   3.657  0.3942  0.6972 -0.8428
  627MOL0     H86458  10.563   1.222   3.668  1.4410  0.3089 -0.5096
  627MOL0     H86459  10.753   1.182   3.526 -0.9378  0.5558 -0.4414
  627MOL0     H86460  10.864   1.323   3.527  2.8364 -0.6074 -1.2935
  627MOL0     H86461  10.769   1.166   3.268 -0.4788  0.1375  0.5447
  627MOL0     H86462  10.857   1.306   3.266 -1.2916  1.5721  0.8600
  627MOL0     H86463  11.048   1.201   3.394  1.0801 -1.6239 -0.3047
  627MOL0     H86464  10.945   1.059   3.422  2.5415 -3.5486 -1.6768
  627MOL0     H86465  10.947   1.089   3.150  0.5051  1.3582 -1.0805
  627MOL0     H86466  11.098   1.175   3.184  0.0696 -0.0275 -0.8350
  627MOL0     H86467  11.103   0.918   3.124  0.2928  3.1650 -1.4196
  627MOL0     H86468  11.009   0.904   3.283  1.8759  1.0365  2.6046
  627MOL0     H86469  11.214   1.027   3.393  1.9090  0.0423  0.3701
  627MOL0     H86470  11.246   0.866   3.328  2.4675  0.3491 -2.0547
  627MOL0     H86471  11.352   1.141   3.232 -0.2989 -0.3061  0.4653
  627MOL0     H86472  11.346   1.002   3.120 -0.2913  3.3640 -1.5506
  627MOL0     H86473  11.496   1.008   3.391 -0.6096  1.1165  0.1154
  627MOL0     H86474  11.484   0.869   3.288 -1.8008  1.0344  0.5370
  627MOL0     H86475  11.541   1.019   2.999 -1.3595  0.9057 -0.0760
  627MOL0     H86476  11.750   1.182   2.873 -0.7872 -0.3027 -1.8075
  627MOL0     H86477  11.757   1.015   2.849  0.7810 -0.9217  1.4280
  627MOL0     H86478  11.982   1.176   2.988 -1.8848  1.7514 -1.4857
  627MOL0     H86479  11.990   1.000   2.967  2.5802 -1.7773 -4.8187
  627MOL0     H86480  11.986   1.041   2.714  0.1257  2.7510 -2.1169
  627MOL0     H86481  11.991   1.209   2.769  0.2232  0.0103 -1.9474
  627MOL0     H86482  12.198   1.171   2.885 -1.0115 -0.0686  1.4666
  627MOL0     H86483  12.185   0.996   2.862 -2.2382 -1.3613 -2.8866
  627MOL0     H86484  12.417   1.068   2.903  1.2012  0.8788  1.0049
  627MOL0     H86485  12.719   1.202   2.985  2.9224 -3.0090  2.0245
  627MOL0     H86486  12.758   1.046   2.926 -0.0261 -1.5674 -1.1135
  627MOL0     H86487  12.602   1.078   3.011 -0.4094  2.0670 -0.1023
  627MOL0     H86488  12.964   1.480   2.708 -0.8981 -3.6087  1.3123
  627MOL0     H86489  13.185   1.576   2.679 -0.5402  1.7976 -1.5242
  627MOL0     H86490  13.373   1.668   2.521 -1.0163  1.9888  2.9354
  627MOL0     H86491  13.391   1.603   2.686 -0.3848 -0.6495  0.0475
  627MOL0     H86492  13.622   1.576   2.655  1.7174 -0.3915 -1.7102
  627MOL0     H86493  13.602   1.532   2.486 -0.5318  1.3601 -1.2690
  627MOL0     H86494  13.623   1.808   2.625  1.1388 -0.0961 -0.8766
  627MOL0     H86495  13.586   1.785   2.457 -0.0490  0.0041  0.0853
  627MOL0     H86496  13.834   1.652   2.601  1.3588  0.5373 -0.1792
  627MOL0     H86497  13.838   1.825   2.557 -1.4243  1.1244 -0.1752
  627MOL0     H86498  13.801   1.578   2.365  3.5608 -2.0369 -0.6652
  627MOL0     H86499  13.812   1.748   2.323 -1.7461 -0.0079  1.1064
  627MOL0     H86500  13.989   1.592   2.273 -1.4966 -1.2098  0.5119
  627MOL0     H86501  14.040   1.593   2.449  1.5828  1.2088 -0.4734
  627MOL0     H86502  14.085   1.822   2.460  0.6806 -0.2993  0.2455
  627MOL0     H86503  14.037   1.853   2.290  2.6400 -0.7857 -1.0960
  627MOL0     H86504  14.275   1.830   2.307  0.3546 -0.0788 -3.2346
  627MOL0     H86505  14.185   1.725   2.196 -0.0302 -0.8080 -0.3988
  627MOL0     H86506  13.291   1.264   2.401  0.8654  1.5499  0.9522
  627MOL0     H86507  13.059   1.191   2.396 -0.3183 -2.1494  0.5073
  627MOL0     H86508  12.613   1.281   2.501  1.5304 -1.4634 -2.1621
  627MOL0     H86509  12.383   1.195   2.495  0.5649 -1.2433 -0.9006
  627MOL0     H86510  10.538   1.307   3.248  0.1925 -1.9190 -2.3507
  627MOL0     H86511  10.326   1.166   3.238 -0.9667  1.5094  0.1746
  627MOL0     H86512   9.929   0.958   3.215  1.7113  1.3162  0.2766
  627MOL0     H86513   9.767   0.760   3.220 -1.5145  0.4081  1.0859
  627MOL0     H86514   9.871   0.419   3.442 -1.2124 -3.8092 -0.9951
  627MOL0     H86515   9.792   0.501   3.570 -0.4385  2.4609 -0.8325
  627MOL0     H86516   9.566   0.405   3.518 -0.5095  2.5585 -1.6459
  627MOL0     H86517   9.692   0.289   3.519 -1.1815 -2.2878 -1.9943
  627MOL0     H86518   9.703   0.339   3.243  0.7692  1.3365  0.6451
  627MOL0     H86519   9.578   0.238   3.318  0.8776 -0.0202 -2.4994
  627MOL0     H86520   9.541   0.537   3.250  0.3792  1.5341  1.7124
  627MOL0     H86521   9.425   0.433   3.328  1.5448 -0.2839 -0.3517
  627MOL0     H86522   9.427   0.291   2.922 -0.9820  0.6766 -0.4672
  627MOL0     H86523   9.923   0.657   3.606  2.8634  0.2601  0.2839
  627MOL0     H86524  10.106   0.930   3.661  0.1758 -0.3174  0.3152
  627MOL0     H86525  10.080   0.766   3.714  1.7067 -1.7126 -1.0227
  627MOL0     H86526  10.211   0.800   3.596  1.1657  2.3208 -0.4965
  628MOL0     O86527   9.842   3.304   2.322 -0.0418  0.0811  0.0145
  628MOL0     C86528   9.874   3.325   2.210 -0.7536  0.6573 -0.5476
  628MOL0     O86529   9.845   3.239   2.105 -0.5573 -0.4942 -0.1081
  628MOL0     C86530   9.756   3.139   2.114 -0.0153  0.1035 -0.2228
  628MOL0     C86531   9.630   3.158   2.056  0.0026  0.3413  0.5034
  628MOL0     C86532   9.533   3.057   2.039 -0.7139  0.8099 -0.5744
  628MOL0     C86533   9.562   2.937   2.103 -0.4039  0.2963  0.0842
  628MOL0     O86534   9.465   2.838   2.099 -0.0651  0.4024  0.5801
  628MOL0     C86535   9.507   2.707   2.038  0.0059 -0.2048 -0.3255
  628MOL0     C86536   9.403   2.622   1.974  0.3018 -0.4113  0.4599
  628MOL0     C86537   9.325   2.683   1.856 -0.1626 -1.0069  0.1114
  628MOL0     C86538   9.172   2.664   1.887 -0.5561  0.2369 -0.2847
  628MOL0     C86539   9.121   2.740   2.010 -1.0891  0.0949  0.5013
  628MOL0     C86540   8.980   2.684   2.040 -0.3337 -0.5899 -0.2006
  628MOL0     C86541   8.923   2.745   2.167  0.9182  0.2277  0.6967
  628MOL0     C86542   8.773   2.698   2.188 -0.5646  0.0291  0.1030
  628MOL0     N86543   8.763   2.557   2.234 -0.1376 -0.0515 -0.1093
  628MOL0     C86544   8.803   2.505   2.351  0.0125 -1.1451  0.1403
  628MOL0     C86545   8.741   2.390   2.366 -0.4535  0.1733 -0.9323
  628MOL0     C86546   8.761   2.301   2.493  0.1655 -0.3595 -0.4180
  628MOL0     C86547   8.887   2.213   2.465 -0.5746  0.9921 -0.4644
  628MOL0     C86548   8.909   2.096   2.570  0.0852  0.7908  0.3249
  628MOL0     C86549   9.055   2.087   2.609  0.0433 -0.0965  0.2440
  628MOL0     O86550   9.130   2.059   2.491 -0.1264  0.8844 -0.3086
  628MOL0     C86551   9.267   2.063   2.503  0.3958  0.4297  0.6690
  628MOL0     C86552   9.350   2.077   2.391 -0.1988 -0.0161  0.6460
  628MOL0     C86553   9.486   2.091   2.396  0.0459 -0.1090  0.7664
  628MOL0     C86554   9.554   2.116   2.263  0.7221  0.1116  0.0789
  628MOL0     C86555   9.549   2.085   2.522  0.0740 -0.5744  0.6833
  628MOL0     C86556   9.696   2.093   2.546  0.9055 -0.5706 -0.6990
  628MOL0     O86557   9.737   2.117   2.680 -0.2310 -0.1726 -0.3114
  628MOL0     C86558   9.867   2.139   2.711 -0.7957 -0.0213 -0.1504
  628MOL0     C86559   9.964   2.046   2.683  0.3051 -0.6807  0.5349
  628MOL0     C86560  10.098   2.059   2.721  0.4784  0.2603 -1.0691
  628MOL0     C86561  10.134   2.171   2.797  0.2752 -0.0132  0.7290
  628MOL0     O86562  10.256   2.171   2.850  0.2629  0.3006 -0.1907
  628MOL0     C86563  10.318   2.289   2.917 -0.0907  0.0119  0.4245
  628MOL0     C86564  10.366   2.390   2.817  0.2438 -0.3573 -0.3237
  628MOL0     C86565  10.416   2.516   2.903 -1.0577  1.2115 -0.0718
  628MOL0     C86566  10.552   2.483   2.975 -0.1602 -0.6913  0.5907
  628MOL0     C86567  10.628   2.619   3.020  0.2737  0.8775  0.5480
  628MOL0     C86568  10.781   2.607   3.037 -0.5505 -0.4107  0.7233
  628MOL0     C86569  10.821   2.502   3.146  0.2827 -0.5668 -0.2121
  628MOL0     C86570  10.971   2.487   3.157  0.0145 -0.3922 -0.1721
  628MOL0    Cl86571  11.039   2.624   3.238 -0.6038 -0.0772 -0.1573
  628MOL0     C86572  10.036   2.270   2.813 -0.1470 -0.1759 -0.4042
  628MOL0     C86573   9.900   2.249   2.781  0.1423 -0.3206 -0.6744
  628MOL0     O86574   9.776   2.075   2.452  0.8479 -0.2553 -0.0971
  628MOL0     C86575   9.462   2.086   2.636 -0.3982  0.7024  0.3351
  628MOL0     C86576   9.326   2.075   2.626 -0.6797  1.1358  0.1444
  628MOL0     N86577   8.667   2.374   2.256  0.3016  0.9435  0.1706
  628MOL0     N86578   8.686   2.471   2.162 -0.6465 -0.9156 -0.4709
  628MOL0     C86579   9.682   2.923   2.174 -1.1706 -0.2795  0.0493
  628MOL0     C86580   9.777   3.021   2.175  0.0421 -0.2037  0.3208
  628MOL0     C86581   9.955   3.449   2.174  0.4028  0.8257 -0.2599
  628MOL0     C86582   9.923   3.508   2.056  0.7681  1.2323  1.0221
  628MOL0     C86583   9.980   3.626   2.009  0.4627  0.3464 -1.2471
  628MOL0     C86584  10.082   3.684   2.087 -0.2370 -0.1009 -1.0101
  628MOL0     O86585  10.145   3.798   2.054 -0.2954  0.6703 -1.3854
  628MOL0     C86586  10.106   3.878   1.941  0.5454 -0.6224  1.1429
  628MOL0     C86587   9.972   3.960   1.957  0.0408  1.0578 -0.5373
  628MOL0     C86588   9.959   4.098   1.895 -0.5425 -0.3539 -1.1738
  628MOL0     C86589   9.968   4.099   1.743  1.0309 -0.5225  0.0629
  628MOL0     C86590  10.106   4.098   1.699 -0.5725  0.5752  0.1257
  628MOL0     C86591  10.229   4.112   1.679  0.5109  0.9494  0.1602
  628MOL0     C86592  10.116   3.625   2.211 -0.6070 -0.0771  0.4700
  628MOL0     C86593  10.058   3.510   2.256 -0.5189  0.0678  0.0577
  628MOL0     C86594  10.115   3.447   2.371  0.1267  0.4591 -0.2400
  628MOL0     H86595   9.598   3.254   2.016 -1.2406  0.1868  1.0905
  628MOL0     H86596   9.440   3.081   1.989 -0.7953  3.5688  0.6866
  628MOL0     H86597   9.552   2.648   2.119 -2.3547 -2.0685 -0.2847
  628MOL0     H86598   9.584   2.726   1.963  0.3198 -0.0619  0.0235
  628MOL0     H86599   9.463   2.539   1.934  0.6745  0.8999 -1.9321
  628MOL0     H86600   9.356   2.582   2.064  3.0560  0.5082  2.4485
  628MOL0     H86601   9.354   2.788   1.844 -1.5978 -0.6085 -0.1269
  628MOL0     H86602   9.356   2.626   1.769  1.0636 -1.0216  0.5463
  628MOL0     H86603   9.130   2.686   1.788 -0.6321  1.3292 -0.0304
  628MOL0     H86604   9.151   2.558   1.906  0.6561  0.3672  2.1032
  628MOL0     H86605   9.118   2.846   1.983  2.0575 -0.2515 -1.8236
  628MOL0     H86606   9.185   2.735   2.099 -1.8611  0.5707  1.0985
  628MOL0     H86607   8.903   2.696   1.964  0.8232 -0.9485 -1.4757
  628MOL0     H86608   8.983   2.575   2.051  1.0660 -0.3196  4.0738
  628MOL0     H86609   8.922   2.853   2.153  1.2853 -0.0589 -2.4275
  628MOL0     H86610   8.995   2.715   2.244  1.4287 -2.0590 -0.5603
  628MOL0     H86611   8.734   2.760   2.269 -0.6580  0.4108 -0.2340
  628MOL0     H86612   8.709   2.714   2.101 -0.6512 -0.8687 -0.0173
  628MOL0     H86613   8.876   2.556   2.413  1.1905 -0.1959 -1.9140
  628MOL0     H86614   8.675   2.236   2.513  0.6361 -0.4804  1.3292
  628MOL0     H86615   8.779   2.371   2.575 -1.8578 -0.2258 -0.0391
  628MOL0     H86616   8.881   2.161   2.369  0.2284  0.3781 -0.2002
  628MOL0     H86617   8.981   2.269   2.465  0.6876 -1.0065  0.6367
  628MOL0     H86618   8.850   2.118   2.659 -1.3865  2.6804 -1.0258
  628MOL0     H86619   8.876   2.001   2.526  0.5318  1.0327 -0.5646
  628MOL0     H86620   9.087   2.188   2.634 -2.7158  1.7848 -2.9595
  628MOL0     H86621   9.067   2.010   2.686  0.7089  0.7371  0.9966
  628MOL0     H86622   9.300   2.089   2.295  0.9248  0.7356  0.1309
  628MOL0     H86623   9.602   2.023   2.232  0.4893  0.5615 -1.7896
  628MOL0     H86624   9.626   2.198   2.269  2.4279 -1.1562 -1.6721
  628MOL0     H86625   9.479   2.149   2.190 -2.2585  1.1610  3.3194
  628MOL0     H86626   9.923   1.957   2.636  1.9116 -2.8799  2.9347
  628MOL0     H86627  10.176   1.984   2.714 -0.9580 -1.3775 -0.2786
  628MOL0     H86628  10.240   2.326   2.984 -1.3121  0.1939 -1.0460
  628MOL0     H86629  10.402   2.251   2.976 -0.3795 -1.1519  0.1120
  628MOL0     H86630  10.446   2.375   2.745 -1.2037  1.3072 -2.3946
  628MOL0     H86631  10.278   2.418   2.759  0.8062  1.7962 -0.2065
  628MOL0     H86632  10.332   2.542   2.967 -0.3531  1.8795  0.6136
  628MOL0     H86633  10.428   2.609   2.845  1.4718  1.0545  0.0856
  628MOL0     H86634  10.614   2.434   2.900 -0.6358 -0.0356 -0.2537
  628MOL0     H86635  10.556   2.421   3.064  1.3559 -0.2673  0.8372
  628MOL0     H86636  10.616   2.699   2.946  1.5965  1.2375  0.7000
  628MOL0     H86637  10.595   2.652   3.118 -2.5744 -3.0035  1.1396
  628MOL0     H86638  10.825   2.704   3.062 -0.3561 -0.1056 -0.7145
  628MOL0     H86639  10.816   2.563   2.943 -1.6555 -2.6597  1.2902
  628MOL0     H86640  10.778   2.402   3.138 -0.6215 -0.3001  1.0512
  628MOL0     H86641  10.795   2.556   3.237  0.8669  0.8259 -0.8337
  628MOL0     H86642  11.025   2.469   3.063  2.7413 -0.3900  1.2884
  628MOL0     H86643  11.006   2.401   3.215  2.5865 -0.2291 -1.3303
  628MOL0     H86644  10.065   2.361   2.865  1.2552 -0.6307 -0.3554
  628MOL0     H86645   9.819   2.317   2.804  3.1831  3.5510 -0.5502
  628MOL0     H86646   9.496   2.090   2.739  1.2878 -0.3217 -0.1314
  628MOL0     H86647   9.268   2.086   2.717 -1.0110  0.9897 -0.0446
  628MOL0     H86648   9.698   2.827   2.223 -1.2749 -0.3985 -0.1488
  628MOL0     H86649   9.866   3.024   2.237 -0.7607  2.5545  1.4963
  628MOL0     H86650   9.840   3.472   1.996 -0.4207  3.1452  1.4391
  628MOL0     H86651   9.955   3.679   1.918 -0.9184  2.2473  0.1525
  628MOL0     H86652  10.189   3.942   1.911 -0.8928 -0.7609 -4.3508
  628MOL0     H86653  10.097   3.816   1.850 -0.6892  2.8295 -1.3024
  628MOL0     H86654   9.952   3.968   2.064  0.1312 -1.6524 -0.2512
  628MOL0     H86655   9.890   3.898   1.918  0.9297 -0.4616 -0.0582
  628MOL0     H86656   9.867   4.150   1.925  0.0308  0.4226 -0.6969
  628MOL0     H86657  10.032   4.172   1.931  0.2934 -1.7059  0.0557
  628MOL0     H86658   9.938   4.200   1.714  2.1400  0.3777  1.8949
  628MOL0     H86659   9.905   4.023   1.696 -0.4495  1.7458 -1.8855
  628MOL0     H86660  10.336   4.118   1.676  0.8959 -3.4353 -1.9934
  628MOL0     H86661  10.190   3.684   2.265 -1.4748 -0.8132  2.5716
  628MOL0     H86662  10.050   3.462   2.458 -1.5640 -1.2020 -1.1248
  628MOL0     H86663  10.129   3.339   2.364 -0.6832  0.4313 -2.1928
  628MOL0     H86664  10.213   3.493   2.382  0.5781 -0.4444 -0.4041
  629MOL0     O86665   7.903   2.986   3.859 -0.2221 -0.7641 -0.8012
  629MOL0     C86666   7.878   3.052   3.767  0.4594  0.8672 -0.0566
  629MOL0     O86667   7.935   3.171   3.734  0.7485 -0.1125  0.3665
  629MOL0     C86668   8.023   3.245   3.809 -0.4281 -0.8577 -0.1666
  629MOL0     C86669   8.030   3.378   3.770 -0.9219 -0.2575 -0.0804
  629MOL0     C86670   8.110   3.471   3.844  0.3755  1.4107  0.6020
  629MOL0     C86671   8.193   3.433   3.941  0.2367  0.4022 -0.0212
  629MOL0     O86672   8.289   3.516   4.005  0.5202  0.5293 -0.0276
  629MOL0     C86673   8.258   3.650   3.998 -0.2523 -0.1424  1.3091
  629MOL0     C86674   8.354   3.734   4.081  0.2037 -0.7538 -0.5630
  629MOL0     C86675   8.493   3.695   4.038 -1.3136  0.1680 -0.3825
  629MOL0     C86676   8.604   3.789   4.098 -0.0286  0.7464 -0.6791
  629MOL0     C86677   8.638   3.733   4.242  0.0555  0.4811  0.3350
  629MOL0     C86678   8.690   3.842   4.339  0.9713 -0.7056 -0.4713
  629MOL0     C86679   8.831   3.890   4.298 -0.1798 -0.7387  0.4815
  629MOL0     C86680   8.844   3.992   4.191  0.0170  0.2649  0.0092
  629MOL0     N86681   8.966   4.074   4.226  0.1693  0.1002  0.0267
  629MOL0     C86682   9.090   4.039   4.198 -0.4465 -0.1561  0.6373
  629MOL0     C86683   9.167   4.132   4.262 -0.6157  0.9482  0.0379
  629MOL0     C86684   9.310   4.130   4.282 -0.5641 -0.3831 -0.2107
  629MOL0     C86685   9.372   4.252   4.226  0.2167 -1.1057 -0.1375
  629MOL0     C86686   9.518   4.235   4.172 -0.5890 -0.4924 -0.4503
  629MOL0     C86687   9.630   4.200   4.281  1.3971 -0.1850  0.1213
  629MOL0     O86688   9.752   4.188   4.210 -0.0788 -0.1852  0.3685
  629MOL0     C86689   9.867   4.220   4.285  0.1156 -0.2152  1.2242
  629MOL0     C86690   9.876   4.236   4.420  0.4544 -0.3154 -0.1640
  629MOL0     C86691   9.998   4.273   4.486 -0.7226 -0.1451  1.3581
  629MOL0     C86692  10.008   4.287   4.633  0.0804  0.2173 -0.1110
  629MOL0     C86693  10.109   4.309   4.411  0.6082  0.3819  0.1787
  629MOL0     C86694  10.240   4.346   4.465 -0.4464 -0.1765  0.1901
  629MOL0     O86695  10.288   4.274   4.569 -0.7037  0.3035  0.3120
  629MOL0     C86696  10.399   4.326   4.637  0.0810  0.5340 -0.6541
  629MOL0     C86697  10.533   4.300   4.606  0.3307 -0.0733 -0.5069
  629MOL0     C86698  10.637   4.354   4.677 -0.2026  0.1286  1.0577
  629MOL0     C86699  10.608   4.453   4.783  0.2719  0.5715 -0.0314
  629MOL0     O86700  10.718   4.514   4.839 -0.0700  0.3253 -0.3282
  629MOL0     C86701  10.696   4.601   4.951  0.0724  0.6194  0.0772
  629MOL0     C86702  10.812   4.695   4.982  0.4300  0.2333 -0.2629
  629MOL0     C86703  10.950   4.631   5.015  0.3903  0.7845  0.0509
  629MOL0     C86704  11.060   4.747   4.987 -0.2236  0.0195  0.3030
  629MOL0     C86705  11.193   4.681   4.971 -0.3897  0.3774 -0.1889
  629MOL0     C86706  11.321   4.767   4.957 -0.0641  0.3608 -0.8404
  629MOL0     C86707  11.452   4.698   5.011  0.4610  0.0196  0.6518
  629MOL0     C86708  11.566   4.803   4.995 -1.0334  1.3918  0.6472
  629MOL0    Cl86709  11.604   4.850   4.825 -0.4146 -0.1336  0.1128
  629MOL0     C86710  10.474   4.474   4.821  0.5455 -0.0802  0.6570
  629MOL0     C86711  10.374   4.420   4.738  0.3282  0.3503 -0.0072
  629MOL0     O86712  10.300   4.438   4.407 -0.2489 -0.6206  0.2694
  629MOL0     C86713  10.099   4.301   4.272  0.9530  0.3498 -0.4178
  629MOL0     C86714   9.978   4.253   4.209  0.5611  0.4778 -0.2641
  629MOL0     N86715   9.075   4.225   4.304  0.0303  0.1242  0.2642
  629MOL0     N86716   8.957   4.196   4.272  0.5535 -1.3430  0.1371
  629MOL0     C86717   8.190   3.294   3.975 -0.6692  0.5281  0.5353
  629MOL0     C86718   8.107   3.203   3.911  0.2626  0.0063 -0.7819
  629MOL0     C86719   7.769   3.007   3.680 -0.2257  0.4134  0.9535
  629MOL0     C86720   7.719   3.088   3.581 -0.1382 -0.3618 -0.0310
  629MOL0     C86721   7.620   3.049   3.491  0.0106  0.4359 -0.6837
  629MOL0     C86722   7.562   2.923   3.506 -0.3945 -0.0634  1.2530
  629MOL0     O86723   7.463   2.883   3.417 -0.0250 -0.2417  0.1255
  629MOL0     C86724   7.353   2.967   3.398 -0.5005  0.6578 -0.0961
  629MOL0     C86725   7.259   2.933   3.510  0.2006 -0.7702  0.3298
  629MOL0     C86726   7.180   2.802   3.508  0.3544  0.0751 -0.1827
  629MOL0     C86727   7.111   2.771   3.637 -0.8726 -0.1501  0.8388
  629MOL0     C86728   7.009   2.874   3.677 -0.0312  0.0263 -0.2710
  629MOL0     C86729   6.911   2.952   3.693 -0.0113  0.0960 -0.3091
  629MOL0     C86730   7.610   2.837   3.601 -0.4847 -0.1062  0.3609
  629MOL0     C86731   7.706   2.883   3.693  0.3164  0.7173 -0.2262
  629MOL0     C86732   7.733   2.789   3.808 -0.3924  0.0508 -0.2018
  629MOL0     H86733   7.962   3.419   3.697  0.5147  1.8528 -0.3304
  629MOL0     H86734   8.093   3.575   3.819 -0.3909  2.0927  3.6186
  629MOL0     H86735   8.154   3.664   4.030 -0.0079 -0.5411  2.3171
  629MOL0     H86736   8.268   3.679   3.893  0.9586 -0.6606  1.2567
  629MOL0     H86737   8.341   3.839   4.050  0.4625 -1.0619 -1.7890
  629MOL0     H86738   8.333   3.729   4.188  1.7303 -0.9488 -0.2419
  629MOL0     H86739   8.514   3.592   4.068 -2.4414 -0.7167 -2.4009
  629MOL0     H86740   8.494   3.700   3.929  3.9681  1.6652 -0.5338
  629MOL0     H86741   8.686   3.781   4.025  0.6940  0.8426  0.1143
  629MOL0     H86742   8.576   3.894   4.100 -2.7119  0.1413 -1.4880
  629MOL0     H86743   8.707   3.648   4.244  1.4630  1.4627 -2.3235
  629MOL0     H86744   8.549   3.691   4.289 -0.6018  2.2976  0.8119
  629MOL0     H86745   8.614   3.920   4.348  0.8206 -1.0292  1.4289
  629MOL0     H86746   8.686   3.804   4.441  1.2915  2.5639  0.8693
  629MOL0     H86747   8.912   3.818   4.286  1.7685  1.6158 -1.6261
  629MOL0     H86748   8.856   3.946   4.389 -0.9794  0.9425 -0.2858
  629MOL0     H86749   8.853   3.943   4.093 -1.7334 -1.0754  0.4844
  629MOL0     H86750   8.752   4.051   4.187  0.1462  0.5101  0.6166
  629MOL0     H86751   9.126   3.953   4.143 -0.9931  0.1710 -0.2506
  629MOL0     H86752   9.350   4.037   4.241  0.5137  0.1008 -0.2853
  629MOL0     H86753   9.329   4.128   4.389 -0.4884 -1.6778 -0.2305
  629MOL0     H86754   9.312   4.289   4.142  1.8139  0.7172 -0.5554
  629MOL0     H86755   9.370   4.330   4.303  0.6100 -1.4615  0.2389
  629MOL0     H86756   9.513   4.157   4.096 -3.1426  0.5846 -1.5078
  629MOL0     H86757   9.564   4.323   4.126  2.2449 -2.0270 -0.7694
  629MOL0     H86758   9.642   4.283   4.351 -0.1253 -1.0572  1.4886
  629MOL0     H86759   9.603   4.114   4.343 -0.4394  0.6810  0.6145
  629MOL0     H86760   9.789   4.219   4.483  0.4168  0.0155 -0.1272
  629MOL0     H86761  10.049   4.194   4.673  1.6063  1.1852  0.6948
  629MOL0     H86762   9.905   4.297   4.667 -0.2497 -5.6448  1.6530
  629MOL0     H86763  10.067   4.374   4.662 -1.0830  1.0115 -0.0612
  629MOL0     H86764  10.536   4.235   4.520  1.3921 -0.2142 -0.3795
  629MOL0     H86765  10.740   4.346   4.643 -0.8578 -2.6140 -0.5718
  629MOL0     H86766  10.607   4.661   4.932 -2.1828 -1.8743  1.8977
  629MOL0     H86767  10.674   4.524   5.026  1.4917  1.2479  1.1742
  629MOL0     H86768  10.818   4.764   4.897  1.1476  0.0662 -0.3596
  629MOL0     H86769  10.779   4.754   5.067 -2.4095  0.3274 -1.3347
  629MOL0     H86770  10.975   4.555   4.941 -2.3982 -0.8072  0.6000
  629MOL0     H86771  10.965   4.587   5.114  2.2376  0.6378 -0.2736
  629MOL0     H86772  11.062   4.815   5.072  0.3181  0.9237 -0.4083
  629MOL0     H86773  11.049   4.814   4.901  5.6979  1.1951  0.0987
  629MOL0     H86774  11.211   4.617   5.058  0.0587 -1.4632 -1.5673
  629MOL0     H86775  11.185   4.616   4.883  1.3522 -0.7182  0.4043
  629MOL0     H86776  11.305   4.863   5.008  3.3444  0.0353  1.1511
  629MOL0     H86777  11.337   4.779   4.850 -0.7827 -1.1292 -1.1396
  629MOL0     H86778  11.469   4.614   4.943 -0.3810 -1.1430  1.8054
  629MOL0     H86779  11.431   4.657   5.110 -3.2053  1.0603  0.4714
  629MOL0     H86780  11.661   4.759   5.027  0.0721  3.0257 -0.2477
  629MOL0     H86781  11.553   4.888   5.064  0.8530 -0.6704  3.7982
  629MOL0     H86782  10.445   4.532   4.909 -2.3671  0.1928 -0.3823
  629MOL0     H86783  10.269   4.430   4.764  0.0417  1.9129 -1.6039
  629MOL0     H86784  10.179   4.322   4.202  1.2595  1.5939  0.2690
  629MOL0     H86785   9.972   4.256   4.100 -1.3547 -0.4802 -0.2220
  629MOL0     H86786   8.252   3.266   4.059  0.0559 -1.2978 -0.5489
  629MOL0     H86787   8.112   3.098   3.939 -2.0553  0.0357 -0.0257
  629MOL0     H86788   7.752   3.191   3.571 -1.4940  0.2044  0.8908
  629MOL0     H86789   7.583   3.110   3.409  1.4263 -2.3245 -3.5768
  629MOL0     H86790   7.381   3.073   3.399 -1.1036  0.8156  0.0248
  629MOL0     H86791   7.305   2.946   3.302  2.3262  0.3850 -1.5775
  629MOL0     H86792   7.174   3.002   3.506  0.2251 -0.7662 -0.1365
  629MOL0     H86793   7.309   2.937   3.607  0.7216 -0.5698  0.0571
  629MOL0     H86794   7.108   2.797   3.426 -0.6954  0.1114  0.7064
  629MOL0     H86795   7.251   2.725   3.477  1.9650  1.6541 -0.5216
  629MOL0     H86796   7.182   2.775   3.720  0.5536  0.6742 -0.3696
  629MOL0     H86797   7.068   2.671   3.635 -1.6476  0.1226  2.3065
  629MOL0     H86798   6.819   3.001   3.716 -0.5246 -0.2708 -1.4712
  629MOL0     H86799   7.569   2.738   3.614 -0.3486 -0.0571  1.2264
  629MOL0     H86800   7.839   2.760   3.803 -0.6426 -0.8244 -0.7234
  629MOL0     H86801   7.706   2.839   3.901 -0.2525 -2.0974  1.0390
  629MOL0     H86802   7.679   2.694   3.799 -0.9599 -0.1522  3.6828
  630MOL0     O86803   9.449   3.826   6.254  0.1901 -0.3703 -0.1880
  630MOL0     C86804   9.526   3.739   6.205  0.0332 -0.2644  0.7196
  630MOL0     O86805   9.665   3.744   6.216  0.6104  0.1308  0.1586
  630MOL0     C86806   9.736   3.824   6.304 -0.0476  0.2601 -0.1520
  630MOL0     C86807   9.741   3.967   6.282  0.6350  0.0439 -0.6164
  630MOL0     C86808   9.833   4.049   6.351  0.8779 -0.4597  0.2306
  630MOL0     C86809   9.922   3.994   6.443 -0.4381  0.1229 -1.4735
  630MOL0     O86810  10.004   4.091   6.503  0.6255  0.3467 -0.7091
  630MOL0     C86811  10.080   4.054   6.622  0.4262  0.0952  0.4741
  630MOL0     C86812  10.191   4.156   6.631  0.0200 -0.5748 -0.3443
  630MOL0     C86813  10.256   4.155   6.767 -0.1820  0.7936  0.2378
  630MOL0     C86814  10.328   4.020   6.804 -0.1089 -0.5105 -0.4339
  630MOL0     C86815  10.363   4.023   6.947 -0.3726  0.3692 -0.1048
  630MOL0     C86816  10.464   4.136   6.992 -0.3265  0.6404 -0.6780
  630MOL0     C86817  10.509   4.102   7.133 -0.0575  0.0840 -0.4061
  630MOL0     C86818  10.583   4.226   7.201 -1.0736 -0.0906  0.0939
  630MOL0     N86819  10.720   4.237   7.148 -0.2466  0.2555  0.3345
  630MOL0     C86820  10.831   4.227   7.221  0.8187  0.5620  0.3463
  630MOL0     C86821  10.925   4.214   7.132 -0.1080  0.0471  0.5984
  630MOL0     C86822  11.074   4.194   7.176  0.5930 -0.3034  0.9604
  630MOL0     C86823  11.094   4.134   7.315 -0.3432 -0.8772 -0.1687
  630MOL0     C86824  11.054   3.987   7.315 -0.3214 -0.1164 -0.3712
  630MOL0     C86825  11.066   3.928   7.462  0.3377  1.2163 -0.0970
  630MOL0     O86826  10.991   4.014   7.553  0.1092 -0.3972 -0.2668
  630MOL0     C86827  10.853   4.037   7.558 -0.2254  0.0074  0.6886
  630MOL0     C86828  10.807   4.147   7.619  0.6468 -0.2520  0.6175
  630MOL0     C86829  10.670   4.180   7.623 -0.1489 -0.1653  0.1810
  630MOL0     C86830  10.633   4.308   7.699  0.2350  0.9619 -0.2747
  630MOL0     C86831  10.573   4.096   7.558  0.4684  0.5509 -0.1237
  630MOL0     C86832  10.426   4.128   7.543  0.2208 -0.5578 -0.1560
  630MOL0     O86833  10.364   4.041   7.469 -0.0202  0.1907  0.8080
  630MOL0     C86834  10.232   4.061   7.440  0.9784 -0.0329  0.4129
  630MOL0     C86835  10.140   3.969   7.493  0.0307  0.6963  0.7335
  630MOL0     C86836  10.008   3.978   7.461  0.1684  0.2134 -0.1090
  630MOL0     C86837   9.957   4.077   7.375 -0.1168 -1.1026 -0.3675
  630MOL0     O86838   9.826   4.100   7.351 -0.0641  0.8393 -0.2960
  630MOL0     C86839   9.734   3.982   7.343 -0.0911  0.1695 -0.0463
  630MOL0     C86840   9.660   3.963   7.472 -0.5631 -0.8090 -0.0977
  630MOL0     C86841   9.582   3.836   7.462 -0.2607 -0.2603 -0.1688
  630MOL0     C86842   9.480   3.827   7.585  0.1022 -0.3538 -0.5587
  630MOL0     C86843   9.381   3.705   7.584 -0.6754 -0.9687  0.6452
  630MOL0     C86844   9.286   3.681   7.458 -0.8734  0.6325  0.9156
  630MOL0     C86845   9.205   3.560   7.486 -0.3284 -0.1691 -0.2322
  630MOL0     C86846   9.090   3.554   7.391  0.6797 -0.7045 -0.2610
  630MOL0    Cl86847   8.991   3.420   7.441 -0.5236  0.0171 -0.6409
  630MOL0     C86848  10.049   4.173   7.323  0.9775  0.4253  0.6128
  630MOL0     C86849  10.179   4.170   7.364 -0.6955 -0.9555  0.1091
  630MOL0     O86850  10.365   4.211   7.616 -0.6008 -0.1584  0.1371
  630MOL0     C86851  10.615   3.977   7.499  0.2933 -0.3702  0.6262
  630MOL0     C86852  10.757   3.947   7.497 -0.9226 -1.1564  0.6667
  630MOL0     N86853  10.878   4.255   7.008  0.1929 -0.1341 -0.1281
  630MOL0     N86854  10.753   4.270   7.023 -0.4419  0.0400  0.2639
  630MOL0     C86855   9.906   3.859   6.472 -0.8715  0.3468  0.9753
  630MOL0     C86856   9.814   3.774   6.411  0.5663  0.5499  0.6575
  630MOL0     C86857   9.463   3.634   6.118  0.0659 -0.8283  0.2104
  630MOL0     C86858   9.548   3.526   6.084  0.0639 -0.5364  1.2684
  630MOL0     C86859   9.498   3.416   6.012 -0.1490 -0.0466  0.4596
  630MOL0     C86860   9.363   3.405   5.969  0.1793  0.3113  0.1148
  630MOL0     O86861   9.321   3.280   5.914  0.0172  0.2206  0.4173
  630MOL0     C86862   9.183   3.255   5.916 -0.3867 -0.2746  0.3472
  630MOL0     C86863   9.144   3.121   5.849 -0.7317  0.2307 -1.0880
  630MOL0     C86864   9.174   3.010   5.942  0.0304 -0.3243  0.0747
  630MOL0     C86865   9.157   2.868   5.877 -0.1980  0.3503  0.7488
  630MOL0     C86866   9.121   2.767   5.988 -0.5534  0.0223 -1.0648
  630MOL0     C86867   9.091   2.690   6.074 -0.4482  0.6053 -0.1074
  630MOL0     C86868   9.278   3.517   6.006  1.1160  0.0157  0.0498
  630MOL0     C86869   9.328   3.634   6.069  0.2088 -0.3716  1.0993
  630MOL0     C86870   9.229   3.750   6.094  1.1695 -0.2689 -0.6084
  630MOL0     H86871   9.670   4.010   6.212  0.5319 -0.0051 -0.5430
  630MOL0     H86872   9.844   4.155   6.327 -1.5561  0.2352  1.7693
  630MOL0     H86873  10.132   3.959   6.608 -1.6244 -1.5640  3.2441
  630MOL0     H86874  10.011   4.032   6.704 -3.1665  2.2575 -1.6967
  630MOL0     H86875  10.264   4.156   6.549  2.1615  1.0787  1.4354
  630MOL0     H86876  10.133   4.248   6.635  2.7971  1.2872  0.1615
  630MOL0     H86877  10.326   4.238   6.773 -0.5778  1.2121 -0.7015
  630MOL0     H86878  10.181   4.174   6.844  1.4858  0.8451  1.9312
  630MOL0     H86879  10.277   3.926   6.781 -0.7032 -0.7945  1.7896
  630MOL0     H86880  10.423   4.023   6.750  0.7659  0.5469  1.0841
  630MOL0     H86881  10.414   3.927   6.955 -2.3601 -0.9936 -2.2791
  630MOL0     H86882  10.273   4.023   7.011 -0.0560 -0.9394  0.3622
  630MOL0     H86883  10.552   4.132   6.928  0.2082 -0.4782  0.1085
  630MOL0     H86884  10.421   4.237   6.981  1.4955  1.3567 -1.7619
  630MOL0     H86885  10.578   4.017   7.134  3.1627  2.2304  4.8535
  630MOL0     H86886  10.428   4.079   7.202 -1.9463  0.2029 -2.4740
  630MOL0     H86887  10.524   4.316   7.182  1.3131  1.3993 -0.7080
  630MOL0     H86888  10.583   4.223   7.311 -2.1960  3.9579  0.3433
  630MOL0     H86889  10.850   4.215   7.327 -0.3092 -1.4120  0.3873
  630MOL0     H86890  11.125   4.291   7.176  2.3456 -1.1974  0.4348
  630MOL0     H86891  11.115   4.127   7.100 -0.5907 -0.1650  0.1762
  630MOL0     H86892  11.195   4.155   7.353 -0.7180  1.0507 -0.1667
  630MOL0     H86893  11.031   4.194   7.381  0.1750  0.4807 -0.8588
  630MOL0     H86894  10.951   3.973   7.281 -0.4148 -0.8956  0.1963
  630MOL0     H86895  11.125   3.931   7.253  1.3893  2.4957 -0.9238
  630MOL0     H86896  11.034   3.824   7.458  2.9391  0.2409  1.7124
  630MOL0     H86897  11.169   3.934   7.500  0.8038 -2.2589 -0.4848
  630MOL0     H86898  10.884   4.207   7.668  0.6372 -0.7059  1.1960
  630MOL0     H86899  10.631   4.389   7.625  2.1355  1.6329  0.3399
  630MOL0     H86900  10.718   4.332   7.763  0.6142 -0.5046 -0.1987
  630MOL0     H86901  10.541   4.297   7.758  0.5213 -2.0531 -0.2386
  630MOL0     H86902  10.188   3.898   7.560  2.8526 -0.9763 -2.7464
  630MOL0     H86903   9.941   3.898   7.494  0.0257  0.1592 -0.5265
  630MOL0     H86904   9.667   3.998   7.258 -0.9137 -1.0276  0.3563
  630MOL0     H86905   9.787   3.889   7.324 -2.6561 -1.4791  0.3143
  630MOL0     H86906   9.716   3.967   7.566 -2.1694  0.6303  0.8716
  630MOL0     H86907   9.598   4.054   7.469  0.4815 -0.0697  0.2896
  630MOL0     H86908   9.647   3.750   7.476 -0.8909 -0.6684  0.3139
  630MOL0     H86909   9.521   3.824   7.372  1.3478 -3.9990 -0.9481
  630MOL0     H86910   9.414   3.914   7.579  1.9595  1.2090  0.4376
  630MOL0     H86911   9.538   3.831   7.678 -2.1950 -0.3525  0.9535
  630MOL0     H86912   9.447   3.618   7.590  0.9749 -0.0419 -2.2064
  630MOL0     H86913   9.318   3.719   7.672 -4.5983  1.9212 -2.2608
  630MOL0     H86914   9.356   3.662   7.377 -2.1661 -0.4886  0.0045
  630MOL0     H86915   9.238   3.778   7.446  0.0043  1.0323  0.5959
  630MOL0     H86916   9.165   3.569   7.588  0.4705  2.2732 -0.0648
  630MOL0     H86917   9.263   3.468   7.481  0.3177  0.1725  0.7513
  630MOL0     H86918   9.121   3.551   7.286 -1.0208 -2.4623 -0.7706
  630MOL0     H86919   9.026   3.641   7.404 -1.1115 -1.1276 -4.4495
  630MOL0     H86920   9.990   4.235   7.256 -1.0405 -1.6877  0.3084
  630MOL0     H86921  10.249   4.247   7.334 -0.3705  0.9859  5.0290
  630MOL0     H86922  10.541   3.905   7.466 -0.3903  0.6696 -0.1291
  630MOL0     H86923  10.791   3.861   7.440 -0.0794  0.2206 -1.0284
  630MOL0     H86924   9.963   3.816   6.554  1.5800  2.5443  0.5412
  630MOL0     H86925   9.810   3.669   6.438 -1.6880 -0.0155 -1.5469
  630MOL0     H86926   9.655   3.526   6.104  0.0148 -2.4118  1.6610
  630MOL0     H86927   9.566   3.332   5.998 -1.7100 -1.6220  1.8325
  630MOL0     H86928   9.148   3.254   6.020 -0.9181 -0.2807  0.1702
  630MOL0     H86929   9.132   3.332   5.858  0.8463  0.8541  0.7173
  630MOL0     H86930   9.204   3.122   5.758  3.3249  0.5929  1.3515
  630MOL0     H86931   9.037   3.123   5.825 -1.2481  1.8245  1.0284
  630MOL0     H86932   9.275   3.030   5.980 -1.8260  1.3187  4.8288
  630MOL0     H86933   9.122   3.024   6.037  1.9298  1.1292  0.9713
  630MOL0     H86934   9.251   2.828   5.838  1.2580  0.8650  3.5262
  630MOL0     H86935   9.074   2.864   5.805 -1.9736 -1.5036  2.7641
  630MOL0     H86936   9.091   2.629   6.162  0.5695 -1.5216 -1.5159
  630MOL0     H86937   9.174   3.504   5.980  1.3175 -0.3697 -0.5901
  630MOL0     H86938   9.250   3.837   6.031  1.1798 -0.1614 -0.4576
  630MOL0     H86939   9.133   3.708   6.067  0.8115 -0.0878  0.3264
  630MOL0     H86940   9.231   3.784   6.199 -0.8318  2.5339 -1.3604
  631MOL0     O86941   2.042   3.957   5.120 -0.0702 -0.3726 -0.1514
  631MOL0     C86942   2.082   4.071   5.099 -0.4356 -0.4009 -0.5951
  631MOL0     O86943   2.043   4.183   5.169 -0.3628  0.9538  0.0258
  631MOL0     C86944   1.926   4.167   5.243  0.2404  0.4195 -0.1359
  631MOL0     C86945   1.824   4.251   5.196 -1.0434 -0.1214 -0.6424
  631MOL0     C86946   1.722   4.279   5.282  0.0351  0.1453 -0.1757
  631MOL0     C86947   1.698   4.211   5.397  0.2065  0.5271 -0.1074
  631MOL0     O86948   1.586   4.252   5.469  0.7245  0.1924  0.3535
  631MOL0     C86949   1.531   4.150   5.551  1.0895  0.0451  0.3807
  631MOL0     C86950   1.386   4.186   5.574 -0.2809  0.2951  1.3523
  631MOL0     C86951   1.292   4.068   5.559 -0.1507  0.5263 -0.1269
  631MOL0     C86952   1.252   4.039   5.416 -0.1544  0.1707  0.7707
  631MOL0     C86953   1.159   3.913   5.410 -0.1832  0.2850  0.1373
  631MOL0     C86954   1.015   3.950   5.457  0.0072 -0.9794 -0.2691
  631MOL0     C86955   0.918   3.828   5.451  0.3589  0.9233 -0.2742
  631MOL0     C86956   0.774   3.863   5.509 -0.2520  0.0399  0.3985
  631MOL0     N86957   0.759   3.859   5.656 -0.4424  0.1200  0.8652
  631MOL0     C86958   0.639   3.824   5.710 -0.1009 -0.0437  0.7223
  631MOL0     C86959   0.663   3.796   5.835 -0.4515 -0.8851  0.0219
  631MOL0     C86960   0.550   3.757   5.935 -0.5772  0.3792 -0.0489
  631MOL0     C86961   0.477   3.888   5.967 -0.7028 -0.7317  0.2463
  631MOL0     C86962   0.347   3.892   6.051 -0.2271 -0.5682  0.2063
  631MOL0     C86963   0.362   3.827   6.193 -0.7457  0.6257 -0.4772
  631MOL0     O86964   0.237   3.836   6.252  0.1657 -0.1966 -0.1036
  631MOL0     C86965   0.213   3.747   6.352  0.1487 -0.8490 -1.0639
  631MOL0     C86966   0.314   3.693   6.429  1.2199 -0.0866  0.2872
  631MOL0     C86967   0.279   3.620   6.542  0.2124  0.1311  0.0656
  631MOL0     C86968   0.398   3.558   6.605 -0.3763  0.3541 -1.2353
  631MOL0     C86969   0.149   3.591   6.575 -0.0703 -0.5404 -0.6823
  631MOL0     C86970   0.098   3.522   6.699 -0.8172 -0.0418  0.2083
  631MOL0     O86971  -0.025   3.475   6.695  0.0146 -0.0375  0.0031
  631MOL0     C86972  -0.068   3.409   6.810 -0.9815  1.2695 -0.6267
  631MOL0     C86973  -0.121   3.472   6.919  0.8287 -0.1913  0.0063
  631MOL0     C86974  -0.167   3.399   7.033 -0.3644  0.4021 -0.0156
  631MOL0     C86975  -0.142   3.256   7.043 -1.1451 -0.6364 -0.2308
  631MOL0     O86976  -0.165   3.182   7.149 -0.2569  0.3637 -0.2832
  631MOL0     C86977  -0.046   3.150   7.227 -0.8702 -0.7649 -0.7977
  631MOL0     C86978  -0.085   3.086   7.369 -0.2788 -0.0920  0.5488
  631MOL0     C86979  -0.190   3.162   7.448  0.0371 -0.4087 -0.8272
  631MOL0     C86980  -0.267   3.073   7.541  0.3853 -0.7434  1.0633
  631MOL0     C86981  -0.375   3.158   7.615  0.3434  0.4514 -0.8575
  631MOL0     C86982  -0.491   3.074   7.681 -0.1450 -0.6113  0.1399
  631MOL0     C86983  -0.576   2.992   7.580 -0.1337 -0.6104  1.1760
  631MOL0     C86984  -0.712   2.949   7.628 -0.2569 -0.5506 -0.6285
  631MOL0    Cl86985  -0.711   2.897   7.802  0.1468 -0.5166  0.1495
  631MOL0     C86986  -0.087   3.191   6.933 -0.3387 -1.1927 -0.7575
  631MOL0     C86987  -0.063   3.268   6.812 -0.2679 -0.3618  0.0777
  631MOL0     O86988   0.168   3.526   6.804  0.0155 -0.7446 -0.9743
  631MOL0     C86989   0.046   3.651   6.499  0.5220 -0.0406 -0.2724
  631MOL0     C86990   0.078   3.724   6.384 -0.1289  0.6740 -0.8695
  631MOL0     N86991   0.794   3.826   5.862 -0.2174 -0.7895 -0.4299
  631MOL0     N86992   0.853   3.861   5.755 -0.1800  0.3749  0.1679
  631MOL0     C86993   1.797   4.110   5.439  0.4768 -0.1996 -0.1248
  631MOL0     C86994   1.915   4.109   5.367  0.3794  0.3883  0.0153
  631MOL0     C86995   2.179   4.098   4.983  0.4412 -0.4664  0.6727
  631MOL0     C86996   2.153   4.218   4.907  0.5300  0.1819 -0.2958
  631MOL0     C86997   2.245   4.255   4.812 -0.2106  0.7832  1.1347
  631MOL0     C86998   2.364   4.185   4.777 -0.7306 -0.0158 -0.3236
  631MOL0     O86999   2.466   4.245   4.704 -0.0218  0.1733  0.3074
  631MOL0     C87000   2.571   4.162   4.663 -0.9026  0.1365  0.3716
  631MOL0     C87001   2.673   4.242   4.594  0.6292 -0.0960  0.4485
  631MOL0     C87002   2.813   4.191   4.631  0.2627  0.2852 -0.5798
  631MOL0     C87003   2.929   4.249   4.555  0.4046 -0.1269 -0.1891
  631MOL0     C87004   3.051   4.246   4.634  0.6065 -0.0129 -0.0711
  631MOL0     C87005   3.150   4.229   4.707 -0.0392  0.4429 -0.0525
  631MOL0     C87006   2.383   4.067   4.853 -0.9878  0.1530 -0.0018
  631MOL0     C87007   2.298   4.029   4.952 -0.0617  0.4802 -0.2566
  631MOL0     C87008   2.327   3.912   5.044 -0.4534 -0.1584 -0.4023
  631MOL0     H87009   1.853   4.317   5.114 -0.7820  3.1535  1.8885
  631MOL0     H87010   1.651   4.353   5.248 -0.4409 -1.5304 -3.1399
  631MOL0     H87011   1.579   4.147   5.649  1.5963  2.3243  0.2726
  631MOL0     H87012   1.551   4.054   5.504 -1.2457  1.2228 -3.5641
  631MOL0     H87013   1.386   4.237   5.671  1.2904  3.1559 -0.0383
  631MOL0     H87014   1.355   4.265   5.505 -1.1799 -1.9823 -1.0022
  631MOL0     H87015   1.338   3.981   5.607  1.3375  0.7640 -1.0804
  631MOL0     H87016   1.194   4.079   5.607 -0.5623  1.1094 -1.0654
  631MOL0     H87017   1.202   4.129   5.377  0.2771  0.2922  0.4846
  631MOL0     H87018   1.346   4.015   5.366 -0.9240 -1.4634  0.0221
  631MOL0     H87019   1.200   3.832   5.471  1.2705 -0.6188 -1.9462
  631MOL0     H87020   1.150   3.883   5.305  0.5104 -2.2013  0.7311
  631MOL0     H87021   1.015   3.981   5.562  0.7291 -0.2135 -0.4856
  631MOL0     H87022   0.981   4.035   5.397  1.1848  0.5505  1.1285
  631MOL0     H87023   0.956   3.752   5.520 -0.4902 -0.6316 -1.4746
  631MOL0     H87024   0.915   3.788   5.350 -0.5737  5.5157 -2.3361
  631MOL0     H87025   0.740   3.960   5.471 -2.3654 -2.0398 -3.7332
  631MOL0     H87026   0.712   3.783   5.468 -2.2442 -0.1154  3.4456
  631MOL0     H87027   0.543   3.802   5.664  0.2981 -1.8235  0.6672
  631MOL0     H87028   0.585   3.705   6.025 -3.6936 -1.4692  0.2253
  631MOL0     H87029   0.490   3.679   5.887  0.0541 -0.8091  1.0224
  631MOL0     H87030   0.555   3.950   6.011 -0.9850 -0.8750  0.9499
  631MOL0     H87031   0.455   3.932   5.869  3.9989  1.5730 -0.0619
  631MOL0     H87032   0.313   3.996   6.057 -1.0507 -0.8309  0.2671
  631MOL0     H87033   0.265   3.837   6.003 -0.0673 -0.0881 -0.6143
  631MOL0     H87034   0.397   3.725   6.173  0.7680  1.7178 -4.3705
  631MOL0     H87035   0.431   3.886   6.254  1.5841 -1.1814 -1.2065
  631MOL0     H87036   0.416   3.730   6.422  0.6327  1.4343 -0.8336
  631MOL0     H87037   0.489   3.617   6.586 -0.5793  0.3880 -2.1534
  631MOL0     H87038   0.402   3.458   6.562  0.4884 -0.4051  0.5141
  631MOL0     H87039   0.386   3.547   6.713 -3.8747  2.0022 -1.3380
  631MOL0     H87040  -0.146   3.578   6.920  0.2130 -0.2709 -2.2725
  631MOL0     H87041  -0.209   3.442   7.122 -0.2993 -1.3946  0.9389
  631MOL0     H87042   0.018   3.084   7.168  1.1434  0.8577 -0.5577
  631MOL0     H87043   0.005   3.246   7.235 -4.0739  0.9901  0.6853
  631MOL0     H87044  -0.116   2.982   7.352 -1.4745  0.2694  0.4320
  631MOL0     H87045   0.008   3.082   7.426 -0.1987 -2.0008  0.3455
  631MOL0     H87046  -0.266   3.200   7.379  0.5881  1.0216 -0.6807
  631MOL0     H87047  -0.162   3.255   7.497 -1.5681 -2.0506  3.7113
  631MOL0     H87048  -0.200   3.022   7.612 -0.8269 -1.7041  1.5631
  631MOL0     H87049  -0.314   2.997   7.478  0.5209  0.4427 -0.5072
  631MOL0     H87050  -0.334   3.227   7.689  4.2780 -4.0174  1.6469
  631MOL0     H87051  -0.428   3.223   7.544 -1.5395  0.8738  0.8281
  631MOL0     H87052  -0.563   3.125   7.745 -1.8569 -1.2540 -1.1740
  631MOL0     H87053  -0.436   2.999   7.739 -2.6411 -1.0360  2.1204
  631MOL0     H87054  -0.511   2.905   7.572  0.5321 -0.4000  3.6310
  631MOL0     H87055  -0.577   3.027   7.476  1.7769 -2.4202  0.4708
  631MOL0     H87056  -0.737   2.866   7.561  0.7924 -0.1378 -1.5596
  631MOL0     H87057  -0.781   3.031   7.606 -0.6520 -0.9913 -1.0506
  631MOL0     H87058  -0.064   3.085   6.937  0.9042 -0.9464 -0.8410
  631MOL0     H87059  -0.042   3.223   6.716  0.7380 -1.2406  0.6873
  631MOL0     H87060  -0.058   3.626   6.513 -0.2843  1.9053 -2.2651
  631MOL0     H87061  -0.003   3.770   6.328 -1.1091  0.3498  0.2433
  631MOL0     H87062   1.793   4.053   5.532 -1.5095 -2.4169 -1.4465
  631MOL0     H87063   2.006   4.052   5.385  0.7265  1.0876  0.4880
  631MOL0     H87064   2.058   4.268   4.923 -2.3612 -3.4905 -3.8232
  631MOL0     H87065   2.235   4.347   4.756  0.2388 -0.7809 -1.7007
  631MOL0     H87066   2.621   4.114   4.749  1.4735 -1.7830 -1.9040
  631MOL0     H87067   2.539   4.074   4.607 -1.3271 -1.5328  3.0669
  631MOL0     H87068   2.658   4.349   4.612  1.2332  0.1260 -0.3068
  631MOL0     H87069   2.657   4.236   4.486  0.7680  1.0003  0.3625
  631MOL0     H87070   2.824   4.202   4.739 -2.5162 -1.8087  0.0375
  631MOL0     H87071   2.817   4.082   4.622  2.3464  0.3921 -1.6561
  631MOL0     H87072   2.899   4.352   4.530  1.8397  0.4957  0.5188
  631MOL0     H87073   2.942   4.189   4.465 -2.1870 -0.0628 -0.6819
  631MOL0     H87074   3.228   4.203   4.775 -1.6918  0.2335  1.8517
  631MOL0     H87075   2.471   4.003   4.852  1.2574  3.0277 -1.5590
  631MOL0     H87076   2.292   3.925   5.147 -0.7547 -1.0864 -0.3800
  631MOL0     H87077   2.292   3.820   4.996 -0.9158 -1.6392  2.5728
  631MOL0     H87078   2.434   3.891   5.055 -1.2639 -3.6225  2.3007
  632MOL0     O87079  10.316   6.020  10.365 -0.5160 -0.0830  0.1748
  632MOL0     C87080  10.314   6.106  10.452 -0.5011 -0.4206  0.3485
  632MOL0     O87081  10.396   6.213  10.457  0.5773 -0.1283  0.1265
  632MOL0     C87082  10.390   6.298  10.350 -0.1121  0.0879 -0.1365
  632MOL0     C87083  10.287   6.317  10.256 -1.1075 -0.5094 -0.2245
  632MOL0     C87084  10.309   6.398  10.150  0.2752 -0.6214 -0.5389
  632MOL0     C87085  10.427   6.469  10.136 -0.3974  0.7792  0.8816
  632MOL0     O87086  10.443   6.567  10.036 -0.1810  1.0243 -0.1827
  632MOL0     C87087  10.405   6.511   9.913  0.8713 -0.6681  0.1337
  632MOL0     C87088  10.445   6.614   9.809  0.2855 -0.2476 -0.2968
  632MOL0     C87089  10.599   6.607   9.792 -0.1688 -0.0171  0.2376
  632MOL0     C87090  10.683   6.718   9.873  0.1492 -0.2949 -0.3227
  632MOL0     C87091  10.829   6.704   9.855 -0.6567 -0.3837 -0.5385
  632MOL0     C87092  10.897   6.817   9.938 -0.3378 -0.3267  0.0001
  632MOL0     C87093  11.052   6.817   9.914  0.6606  1.0386 -0.3708
  632MOL0     C87094  11.088   6.876   9.776  0.0003 -0.3385  0.4917
  632MOL0     N87095  11.234   6.881   9.756  0.0333 -0.0279 -0.8117
  632MOL0     C87096  11.321   6.907   9.859 -1.0327  0.0975  0.7660
  632MOL0     C87097  11.438   6.896   9.804 -0.8250  0.6819 -0.1576
  632MOL0     C87098  11.570   6.911   9.875 -0.0398  0.3336  0.4605
  632MOL0     C87099  11.651   6.788   9.888 -1.2380 -0.5349 -0.3118
  632MOL0     C87100  11.731   6.760  10.016 -0.2005 -0.3514 -0.8654
  632MOL0     C87101  11.868   6.692   9.979  0.0049 -1.2146 -0.1041
  632MOL0     O87102  11.956   6.784   9.909 -0.4588  0.2659 -0.7808
  632MOL0     C87103  12.091   6.782   9.918  1.0248 -0.2071 -0.0108
  632MOL0     C87104  12.162   6.859   9.832 -0.4213 -0.5980 -0.4031
  632MOL0     C87105  12.300   6.857   9.835 -0.1827 -0.1699 -0.0436
  632MOL0     C87106  12.371   6.951   9.732 -0.3881 -0.4343 -0.3428
  632MOL0     C87107  12.372   6.768   9.919  0.8086  0.1215 -0.3024
  632MOL0     C87108  12.517   6.774   9.957 -0.3674 -0.4338  0.4087
  632MOL0     O87109  12.583   6.896   9.928 -0.3982  0.6161  0.1688
  632MOL0     C87110  12.711   6.910   9.962  0.3295  0.1271 -0.4069
  632MOL0     C87111  12.801   6.909   9.854  0.4719  0.9977 -0.3594
  632MOL0     C87112  12.933   6.941   9.880 -1.0973 -0.6751 -0.4757
  632MOL0     C87113  12.978   6.972  10.006  0.4399 -0.1313 -0.1605
  632MOL0     O87114  13.111   6.994  10.027  0.2967 -0.2286 -0.0824
  632MOL0     C87115  13.165   7.086   9.937  0.0900 -0.9003  0.3974
  632MOL0     C87116  13.276   7.150  10.010  0.3729 -0.7253  0.0043
  632MOL0     C87117  13.401   7.068  10.055 -1.0047 -0.7361  0.2695
  632MOL0     C87118  13.515   7.169  10.070 -0.2305 -0.6083 -0.3321
  632MOL0     C87119  13.642   7.101  10.116 -0.4208  0.0840  0.4415
  632MOL0     C87120  13.644   7.019  10.250  0.3040 -0.5865 -0.0983
  632MOL0     C87121  13.626   7.106  10.369 -1.3951 -0.0436 -0.3095
  632MOL0     C87122  13.756   7.137  10.440 -0.0339 -0.2869  0.8302
  632MOL0    Cl87123  13.737   7.291  10.544  0.2051  0.3876  0.2872
  632MOL0     C87124  12.893   6.954  10.116 -0.3067  0.6900 -0.0884
  632MOL0     C87125  12.755   6.931  10.094 -0.6248 -0.0921 -0.4443
  632MOL0     O87126  12.571   6.669   9.998  0.3221  0.5963  0.7834
  632MOL0     C87127  12.294   6.673   9.991 -0.7398  0.1126 -0.0632
  632MOL0     C87128  12.154   6.680   9.990 -0.0583 -0.2298 -0.0450
  632MOL0     N87129  11.425   6.828   9.685  0.1539  0.2045  0.3144
  632MOL0     N87130  11.300   6.826   9.649  0.0310  0.3230  0.1003
  632MOL0     C87131  10.527   6.453  10.228 -0.7102 -0.1407  0.0138
  632MOL0     C87132  10.512   6.364  10.329 -0.4520  0.7114 -0.3638
  632MOL0     C87133  10.206   6.091  10.551  0.4887  0.1994 -0.5057
  632MOL0     C87134  10.163   6.211  10.615  0.6033 -0.2673 -0.0765
  632MOL0     C87135  10.052   6.214  10.704  0.4896  0.2048 -0.5428
  632MOL0     C87136   9.974   6.098  10.732 -1.1902  0.5682  0.6790
  632MOL0     O87137   9.868   6.108  10.810  0.6136 -0.6687 -0.6238
  632MOL0     C87138   9.790   5.998  10.843  0.9501 -0.7118  0.0440
  632MOL0     C87139   9.654   6.060  10.912  0.5209 -0.0742  0.4038
  632MOL0     C87140   9.685   6.111  11.058 -0.2463  0.8138 -0.2616
  632MOL0     C87141   9.574   6.193  11.121 -0.1715 -0.4839 -0.0577
  632MOL0     C87142   9.464   6.112  11.162  0.2731 -0.4308  0.3234
  632MOL0     C87143   9.383   6.039  11.201 -0.1724 -0.9772 -0.3436
  632MOL0     C87144  10.025   5.978  10.679  0.5208  0.8847 -0.0911
  632MOL0     C87145  10.141   5.971  10.588  0.1455 -0.2106  0.2315
  632MOL0     C87146  10.190   5.840  10.535  0.1943 -0.3540  0.4745
  632MOL0     H87147  10.190   6.268  10.258 -0.5759 -1.6967 -1.7913
  632MOL0     H87148  10.228   6.417  10.079  0.6498 -0.4845 -0.9344
  632MOL0     H87149  10.297   6.496   9.904  0.9851 -0.8847 -1.1766
  632MOL0     H87150  10.455   6.415   9.896 -1.6776 -2.0940  0.0870
  632MOL0     H87151  10.400   6.599   9.711  0.1927 -0.8420 -0.1683
  632MOL0     H87152  10.429   6.719   9.835  0.6176 -0.3744  0.4490
  632MOL0     H87153  10.635   6.507   9.818  1.3162  1.4198  4.6255
  632MOL0     H87154  10.624   6.632   9.689  3.2073  1.4970  1.2900
  632MOL0     H87155  10.655   6.819   9.842  2.8926  0.3414 -0.9241
  632MOL0     H87156  10.659   6.701   9.979  1.3887 -0.7366 -0.0955
  632MOL0     H87157  10.850   6.705   9.747 -0.1250 -3.1206 -0.5417
  632MOL0     H87158  10.861   6.603   9.884 -1.2205 -0.9278 -1.7066
  632MOL0     H87159  10.845   6.911   9.920 -0.6790  0.4003  3.8666
  632MOL0     H87160  10.884   6.787  10.043 -1.1155  0.4687  0.1388
  632MOL0     H87161  11.094   6.717   9.924  2.5991  1.8891  0.6347
  632MOL0     H87162  11.106   6.883   9.983  3.1258 -0.4037 -0.8240
  632MOL0     H87163  11.048   6.821   9.690 -1.2705  0.5218  0.5028
  632MOL0     H87164  11.054   6.979   9.765 -1.5601 -0.9579 -0.8927
  632MOL0     H87165  11.302   6.941   9.961 -0.4836  1.6052  0.3987
  632MOL0     H87166  11.540   6.951   9.973 -0.5484  0.1181  0.3956
  632MOL0     H87167  11.634   6.984   9.824 -0.6684  0.4242 -0.1990
  632MOL0     H87168  11.592   6.702   9.856 -0.2792 -0.3493 -2.8545
  632MOL0     H87169  11.722   6.789   9.805  1.5274  0.3422  1.8855
  632MOL0     H87170  11.753   6.849  10.076 -2.7411  0.4068 -0.9705
  632MOL0     H87171  11.671   6.690  10.075 -2.3309 -1.1917 -3.8351
  632MOL0     H87172  11.909   6.668  10.077  1.5175  4.1874  0.9227
  632MOL0     H87173  11.852   6.601   9.920  6.3186 -2.0440 -1.1538
  632MOL0     H87174  12.108   6.932   9.773 -2.6523 -2.7562 -1.2170
  632MOL0     H87175  12.478   6.930   9.722  0.5329  0.3788  4.9577
  632MOL0     H87176  12.366   7.057   9.760  2.0930 -0.4357  0.3194
  632MOL0     H87177  12.319   6.936   9.637  1.0893  3.2910 -1.9245
  632MOL0     H87178  12.762   6.883   9.756  0.4402 -1.8801  0.3457
  632MOL0     H87179  12.996   6.949   9.792  0.6090  0.8068  0.8352
  632MOL0     H87180  13.211   7.035   9.852  0.5706  0.3899 -0.1290
  632MOL0     H87181  13.097   7.162   9.898  0.5342 -1.2325 -1.0898
  632MOL0     H87182  13.316   7.207   9.925  2.8184 -3.0225 -0.5012
  632MOL0     H87183  13.252   7.223  10.089  4.2038  1.2456 -0.4085
  632MOL0     H87184  13.426   6.985   9.988  1.0381 -1.0358  1.3604
  632MOL0     H87185  13.388   7.024  10.154  1.2295  0.4092  1.1313
  632MOL0     H87186  13.476   7.244  10.139 -0.2842 -2.0785  1.3066
  632MOL0     H87187  13.534   7.217   9.974 -5.1072  3.4490  0.3362
  632MOL0     H87188  13.661   7.033  10.032 -4.1384  0.9518 -1.3335
  632MOL0     H87189  13.719   7.179  10.119 -0.6023  0.2336  2.3391
  632MOL0     H87190  13.742   6.973  10.265 -0.1399 -0.7666  2.6950
  632MOL0     H87191  13.562   6.947  10.248 -0.8527  0.6234  1.4686
  632MOL0     H87192  13.554   7.056  10.435 -0.8247 -2.7649 -1.5824
  632MOL0     H87193  13.583   7.197  10.326 -0.8778  0.1152 -0.4949
  632MOL0     H87194  13.847   7.152  10.380 -0.0450  0.4084  0.9808
  632MOL0     H87195  13.769   7.051  10.505 -2.7464 -1.8065 -0.4572
  632MOL0     H87196  12.937   6.969  10.214 -1.5881  3.9084  0.1051
  632MOL0     H87197  12.680   6.948  10.171 -0.8927 -0.5646 -0.6016
  632MOL0     H87198  12.346   6.597  10.049  0.5316  0.6384 -0.4967
  632MOL0     H87199  12.092   6.606  10.039 -3.1316  1.0650 -1.7081
  632MOL0     H87200  10.614   6.517  10.217 -2.2732  1.8762 -1.2307
  632MOL0     H87201  10.592   6.372  10.402 -1.6457  3.2856  0.7994
  632MOL0     H87202  10.215   6.304  10.594  2.2154 -1.6535 -2.8140
  632MOL0     H87203  10.021   6.308  10.749  0.3242 -0.4854  0.8325
  632MOL0     H87204   9.783   5.933  10.756  1.8470 -0.8976  0.1007
  632MOL0     H87205   9.838   5.937  10.920 -1.9742 -0.6071  2.1663
  632MOL0     H87206   9.564   5.998  10.913 -0.6913  1.3727 -3.1027
  632MOL0     H87207   9.632   6.151  10.855  1.6685 -0.7493 -1.2202
  632MOL0     H87208   9.717   6.020  11.110  0.3272 -1.4665 -4.1709
  632MOL0     H87209   9.767   6.183  11.056 -1.0425  1.7275 -0.9525
  632MOL0     H87210   9.551   6.272  11.049 -2.8662 -0.9969  0.1309
  632MOL0     H87211   9.613   6.245  11.209 -1.5480  1.6783 -0.6720
  632MOL0     H87212   9.317   5.963  11.239 -1.6310  1.1507  1.6946
  632MOL0     H87213   9.972   5.887  10.706  0.5932  1.4464  2.1117
  632MOL0     H87214  10.157   5.758  10.600 -1.6762 -0.1546 -0.1609
  632MOL0     H87215  10.147   5.820  10.437 -0.2364  3.4207 -0.2527
  632MOL0     H87216  10.299   5.833  10.532  0.1095 -1.4262 -0.5506
  633MOL0     O87217  11.193  11.346   1.665 -0.3074  0.0543 -0.2625
  633MOL0     C87218  11.138  11.315   1.557  0.4951 -0.5304  0.2948
  633MOL0     O87219  11.184  11.329   1.433 -0.5446  0.6412  0.4279
  633MOL0     C87220  11.312  11.368   1.419 -0.1797  0.3311  0.2155
  633MOL0     C87221  11.419  11.276   1.439 -0.2774  0.3564 -0.0785
  633MOL0     C87222  11.551  11.331   1.432 -0.4463  0.1196  0.1634
  633MOL0     C87223  11.576  11.461   1.401 -0.2575  0.3944 -0.5692
  633MOL0     O87224  11.713  11.483   1.385  0.9369  0.0572  0.1005
  633MOL0     C87225  11.760  11.620   1.397  0.3047  1.1570  0.7317
  633MOL0     C87226  11.898  11.634   1.319  0.5068  0.9880  0.0235
  633MOL0     C87227  11.930  11.767   1.280 -0.3317 -1.0560 -0.8868
  633MOL0     C87228  11.952  11.849   1.404  0.1857 -0.3708 -0.0095
  633MOL0     C87229  11.993  11.988   1.364  0.3532 -0.3915  0.2733
  633MOL0     C87230  12.103  12.011   1.256 -0.2640 -0.6702 -0.2481
  633MOL0     C87231  12.155  12.162   1.254 -0.4995  0.0332  0.4066
  633MOL0     C87232  12.053  12.274   1.221 -0.6204 -0.0153 -0.0779
  633MOL0     N87233  12.037  12.288   1.072 -0.3460 -0.1337 -0.1947
  633MOL0     C87234  12.111  12.372   0.985  0.4174  0.1818 -0.4625
  633MOL0     C87235  12.057  12.350   0.866  0.7468  0.2315  0.7174
  633MOL0     C87236  12.104  12.426   0.745 -0.2634  0.1714 -0.7085
  633MOL0     C87237  12.098  12.579   0.772 -0.3146  0.1223 -0.3185
  633MOL0     C87238  12.137  12.666   0.650 -0.2633  0.2032  0.1235
  633MOL0     C87239  12.289  12.703   0.649 -0.5657 -0.8229 -0.2632
  633MOL0     O87240  12.298  12.828   0.569  0.0909  0.8503 -0.6542
  633MOL0     C87241  12.426  12.880   0.559 -0.4774 -0.1625  0.4804
  633MOL0     C87242  12.548  12.815   0.601 -0.1659 -0.1287  0.0127
  633MOL0     C87243  12.674  12.869   0.573  0.4490  0.3937 -0.3544
  633MOL0     C87244  12.799  12.800   0.632 -0.5184  0.7792  0.1157
  633MOL0     C87245  12.685  12.990   0.494 -1.0153  0.3208  0.1056
  633MOL0     C87246  12.812  13.064   0.471  0.6902  0.3546 -0.0388
  633MOL0     O87247  12.926  12.999   0.468  0.0546  0.7618 -0.4736
  633MOL0     C87248  13.039  13.061   0.423 -0.2806 -0.4541 -0.4546
  633MOL0     C87249  13.044  13.142   0.308 -0.5576  0.8266  0.2299
  633MOL0     C87250  13.165  13.198   0.267  0.9262 -0.1824  0.6088
  633MOL0     C87251  13.278  13.169   0.336 -0.0226 -0.3105  0.5140
  633MOL0     O87252  13.402  13.219   0.288  0.9231  0.0298 -0.0495
  633MOL0     C87253  13.427  13.174   0.145 -0.1884 -0.3215  0.2711
  633MOL0     C87254  13.575  13.193   0.103  0.1327 -0.1793 -0.0327
  633MOL0     C87255  13.673  13.113   0.180  0.2509 -0.1415  0.4717
  633MOL0     C87256  13.663  13.134   0.336 -0.4110 -0.2118  0.2506
  633MOL0     C87257  13.790  13.099   0.404  0.0914 -0.1047 -0.1424
  633MOL0     C87258  13.817  12.949   0.398  0.1624 -0.4530 -0.4792
  633MOL0     C87259  13.956  12.927   0.448 -1.0951  0.6606 -0.5166
  633MOL0     C87260  14.021  12.786   0.438 -0.4504  1.3800 -0.4268
  633MOL0    Cl87261  14.018  12.723   0.268 -0.1710  0.1926 -0.5429
  633MOL0     C87262  13.284  13.097   0.449  0.3811  0.2216 -0.0603
  633MOL0     C87263  13.159  13.039   0.494  0.4546 -0.2194  0.4872
  633MOL0     O87264  12.799  13.186   0.452 -0.1413  0.7175  0.6805
  633MOL0     C87265  12.565  13.046   0.451  0.2481  0.4401 -0.6977
  633MOL0     C87266  12.443  12.990   0.474 -0.1824  0.1744 -0.0481
  633MOL0     N87267  11.967  12.247   0.871 -0.1811 -0.3865 -0.2307
  633MOL0     N87268  11.945  12.221   0.994  0.2620 -0.0515  0.3456
  633MOL0     C87269  11.466  11.548   1.373 -0.4039  0.5921 -0.3571
  633MOL0     C87270  11.340  11.499   1.392 -0.9033  0.2279  0.7882
  633MOL0     C87271  11.003  11.244   1.572  0.4004 -0.7718  0.3472
  633MOL0     C87272  10.982  11.171   1.692 -0.4136 -0.4140  0.1674
  633MOL0     C87273  10.871  11.095   1.722 -0.0252 -0.5186 -0.6501
  633MOL0     C87274  10.767  11.100   1.628  1.0791  0.2473 -1.0028
  633MOL0     O87275  10.644  11.056   1.673 -1.7218 -0.4759 -0.0358
  633MOL0     C87276  10.563  10.999   1.579 -0.6914 -1.0786  0.3650
  633MOL0     C87277  10.459  10.918   1.638  0.1095  1.8152 -0.1251
  633MOL0     C87278  10.507  10.789   1.719 -0.8273  0.6071 -0.1561
  633MOL0     C87279  10.408  10.697   1.796 -0.3595 -0.6354  0.6277
  633MOL0     C87280  10.314  10.774   1.867 -0.2768 -0.3299 -0.2522
  633MOL0     C87281  10.223  10.829   1.927  0.8513  0.3672 -0.0549
  633MOL0     C87282  10.782  11.176   1.504  0.8626  0.4146 -0.2337
  633MOL0     C87283  10.909  11.231   1.468  0.2869 -0.5369  0.0308
  633MOL0     C87284  10.926  11.305   1.339  0.3558 -0.9863  0.0929
  633MOL0     H87285  11.394  11.171   1.449 -1.7346  0.4895 -1.7022
  633MOL0     H87286  11.628  11.255   1.436 -0.3674  0.1485 -0.5992
  633MOL0     H87287  11.791  11.630   1.502  0.3525 -2.0655  1.1241
  633MOL0     H87288  11.690  11.697   1.362  0.6188  1.8897  1.6449
  633MOL0     H87289  11.981  11.587   1.372  1.5603  1.1902 -1.3971
  633MOL0     H87290  11.892  11.572   1.230 -0.9698  1.6651 -0.3879
  633MOL0     H87291  12.019  11.756   1.217 -1.5087 -1.0392 -2.6121
  633MOL0     H87292  11.852  11.813   1.218 -1.0319 -1.2087 -0.1313
  633MOL0     H87293  11.868  11.853   1.473  1.9117  2.1358  2.1773
  633MOL0     H87294  12.037  11.805   1.458 -0.1000 -0.3303  0.4784
  633MOL0     H87295  12.009  12.042   1.457 -0.5486 -2.5373  1.7608
  633MOL0     H87296  11.909  12.031   1.309  0.8445 -2.0334 -1.9233
  633MOL0     H87297  12.198  11.965   1.285  0.5003  0.7340 -0.3973
  633MOL0     H87298  12.078  11.976   1.155  0.5044  1.7393 -1.3458
  633MOL0     H87299  12.233  12.155   1.178 -0.4131 -0.5970  0.5525
  633MOL0     H87300  12.202  12.181   1.351  2.2010  3.4894 -1.3643
  633MOL0     H87301  11.952  12.242   1.247 -0.4030 -2.4249 -1.8579
  633MOL0     H87302  12.087  12.368   1.264 -0.9592 -0.4978  1.2890
  633MOL0     H87303  12.191  12.434   1.026 -0.7320 -0.1765  2.6165
  633MOL0     H87304  12.030  12.400   0.669 -2.4884  0.4936  1.2229
  633MOL0     H87305  12.199  12.384   0.711  1.3979  2.0783  1.2826
  633MOL0     H87306  11.992  12.593   0.794 -0.7278 -0.8878 -1.4953
  633MOL0     H87307  12.159  12.613   0.856 -1.2009  1.1447 -0.0709
  633MOL0     H87308  12.112  12.619   0.554 -3.3557 -2.0269  1.8378
  633MOL0     H87309  12.083  12.761   0.652  1.1434  1.2328 -3.0964
  633MOL0     H87310  12.318  12.725   0.752  0.2238  2.7946 -1.0998
  633MOL0     H87311  12.355  12.624   0.612 -0.5144 -0.6908 -0.4548
  633MOL0     H87312  12.547  12.723   0.658 -1.2479  0.1240  0.4336
  633MOL0     H87313  12.865  12.868   0.686  2.4548 -2.5170  1.0213
  633MOL0     H87314  12.858  12.746   0.557  0.9052 -1.2129  2.5000
  633MOL0     H87315  12.770  12.722   0.703  2.1702  0.5159  1.0194
  633MOL0     H87316  12.953  13.158   0.252  0.7435  0.4520 -2.1101
  633MOL0     H87317  13.155  13.265   0.182  1.2475  1.0021  1.4661
  633MOL0     H87318  13.405  13.067   0.142 -0.2568 -0.3546 -4.1337
  633MOL0     H87319  13.362  13.217   0.068  1.7529  1.1214 -0.6441
  633MOL0     H87320  13.597  13.169  -0.001 -1.0054  2.1005 -0.8721
  633MOL0     H87321  13.602  13.299   0.106 -1.0201  0.1112  1.4885
  633MOL0     H87322  13.772  13.142   0.145  0.2047 -0.2884  0.2168
  633MOL0     H87323  13.639  13.010   0.164 -2.9148  0.7734  0.5320
  633MOL0     H87324  13.592  13.060   0.374  1.7553 -2.9500 -0.6620
  633MOL0     H87325  13.660  13.240   0.361  2.1996 -0.5560  2.5788
  633MOL0     H87326  13.875  13.155   0.364  1.2501 -0.6746  1.3988
  633MOL0     H87327  13.776  13.132   0.507  1.5205  2.7327 -0.7744
  633MOL0     H87328  13.822  12.916   0.294  1.9978  2.2703 -1.3493
  633MOL0     H87329  13.743  12.885   0.448 -1.2229  1.6488  0.2871
  633MOL0     H87330  13.968  12.976   0.545  1.1275  0.9090 -0.8474
  633MOL0     H87331  14.015  12.993   0.383  1.0263 -0.8089 -0.2171
  633MOL0     H87332  13.973  12.723   0.513  1.4691 -0.4148 -0.6105
  633MOL0     H87333  14.126  12.790   0.471 -0.6316 -0.8339  0.5675
  633MOL0     H87334  13.379  13.079   0.500  0.3752  0.3515 -0.0029
  633MOL0     H87335  13.130  12.980   0.580 -2.3997 -0.6791 -0.6830
  633MOL0     H87336  12.553  13.140   0.398  0.0959  0.7744 -0.0681
  633MOL0     H87337  12.353  13.027   0.427 -0.5154 -1.2572 -0.5757
  633MOL0     H87338  11.470  11.653   1.344  2.0102  1.0118  1.1642
  633MOL0     H87339  11.260  11.572   1.385 -1.6601 -0.7157 -1.0815
  633MOL0     H87340  11.055  11.160   1.771 -3.6859 -0.6287  3.4279
  633MOL0     H87341  10.870  11.043   1.817  0.0990  0.8849  0.1419
  633MOL0     H87342  10.515  11.081   1.525  2.3535  1.1008  0.7122
  633MOL0     H87343  10.616  10.940   1.503  0.3125 -1.0007  0.9898
  633MOL0     H87344  10.395  10.890   1.554  0.7285  2.5420 -0.8533
  633MOL0     H87345  10.398  10.987   1.698 -1.6765  1.3207 -1.2821
  633MOL0     H87346  10.562  10.724   1.650  2.1214  1.3303  1.3102
  633MOL0     H87347  10.586  10.818   1.789 -2.1164 -0.9915  2.0625
  633MOL0     H87348  10.460  10.628   1.864 -1.2946 -0.5503  1.4545
  633MOL0     H87349  10.341  10.635   1.736 -1.5843 -0.4582  1.7858
  633MOL0     H87350  10.131  10.859   1.973 -0.2664  0.0221 -1.9722
  633MOL0     H87351  10.712  11.193   1.423  2.4809 -0.7825 -1.9841
  633MOL0     H87352  10.833  11.355   1.312  1.2458  2.7016  2.8579
  633MOL0     H87353  10.990  11.394   1.348  1.6808 -1.9971  1.0599
  633MOL0     H87354  10.960  11.235   1.262 -1.2664 -1.8091  0.0967
  634MOL0     O87355  10.986   7.406  10.284  0.6107  0.0663  0.7891
  634MOL0     C87356  10.891   7.377  10.207 -0.1026  0.3730 -0.3542
  634MOL0     O87357  10.892   7.343  10.076 -0.2096  0.3894 -0.2906
  634MOL0     C87358  11.003   7.365  10.008  0.1525  0.0973  1.1116
  634MOL0     C87359  11.075   7.484  10.014  0.3029  0.0930  0.3335
  634MOL0     C87360  11.205   7.499   9.955  0.6831 -0.6370  0.3543
  634MOL0     C87361  11.258   7.391   9.880 -0.4672  0.2236  0.3769
  634MOL0     O87362  11.375   7.413   9.803  0.0445  0.0310 -0.5780
  634MOL0     C87363  11.446   7.303   9.749  0.5582 -0.2694  0.3201
  634MOL0     C87364  11.440   7.275   9.596 -0.3722 -0.0405  0.5358
  634MOL0     C87365  11.448   7.395   9.508  0.2549 -0.1860  1.0456
  634MOL0     C87366  11.592   7.416   9.474  0.6640  0.0518 -0.1169
  634MOL0     C87367  11.608   7.520   9.366 -0.6050  0.2258  0.3277
  634MOL0     C87368  11.580   7.666   9.411 -0.2674  0.5767  0.4542
  634MOL0     C87369  11.571   7.757   9.293 -0.5108 -0.5194  0.3678
  634MOL0     C87370  11.577   7.904   9.340  0.2258  0.3525 -0.3473
  634MOL0     N87371  11.540   8.012   9.249 -0.6541  0.0196  0.4732
  634MOL0     C87372  11.419   8.049   9.208  0.8803 -0.6016 -0.5951
  634MOL0     C87373  11.445   8.156   9.128  0.0015  0.1030 -0.2315
  634MOL0     C87374  11.349   8.249   9.066  0.8339 -0.6339 -0.3356
  634MOL0     C87375  11.207   8.192   9.031  0.6147 -0.1924 -0.5524
  634MOL0     C87376  11.125   8.297   8.950 -0.0654  0.2469  0.3011
  634MOL0     C87377  11.173   8.309   8.805  0.3596  0.1995  0.3980
  634MOL0     O87378  11.191   8.171   8.751  0.1296  0.1986 -0.1562
  634MOL0     C87379  11.259   8.156   8.637 -0.5085 -0.3064 -0.5026
  634MOL0     C87380  11.349   8.046   8.623 -0.5987 -1.0941  1.0115
  634MOL0     C87381  11.423   8.030   8.505  0.2978 -0.3550  0.5280
  634MOL0     C87382  11.533   7.921   8.520  0.1910  0.0261  0.4492
  634MOL0     C87383  11.414   8.119   8.395  0.3436  0.6281  0.2213
  634MOL0     C87384  11.490   8.104   8.268  0.1989 -0.3685  0.4270
  634MOL0     O87385  11.437   8.186   8.167  0.0086 -0.6279 -0.7694
  634MOL0     C87386  11.511   8.192   8.051 -0.3424 -0.2971 -0.0673
  634MOL0     C87387  11.647   8.230   8.061 -0.1956 -0.1247  0.1877
  634MOL0     C87388  11.733   8.208   7.948  0.2347  0.1729 -1.6149
  634MOL0     C87389  11.675   8.162   7.832  0.5105 -0.1853 -1.1672
  634MOL0     O87390  11.751   8.123   7.724 -0.6927  0.2355 -0.3624
  634MOL0     C87391  11.728   8.181   7.593 -0.7185 -0.2309 -0.4878
  634MOL0     C87392  11.795   8.319   7.561 -0.1665 -0.4708  0.3198
  634MOL0     C87393  11.942   8.287   7.541 -0.3836 -0.6732  0.4891
  634MOL0     C87394  12.020   8.388   7.459 -0.3367  0.8511 -1.0783
  634MOL0     C87395  12.013   8.534   7.508 -0.3597  0.3606  0.6525
  634MOL0     C87396  12.079   8.625   7.419  0.2146 -0.4891  1.0909
  634MOL0     C87397  12.092   8.770   7.473  0.0766  0.7711  0.0648
  634MOL0     C87398  12.175   8.871   7.380  0.1936  0.0252 -1.1765
  634MOL0    Cl87399  12.335   8.826   7.325  0.1037  0.2786  0.2385
  634MOL0     C87400  11.537   8.142   7.819  0.3083 -0.5404 -0.5426
  634MOL0     C87401  11.459   8.163   7.930  0.5662  0.4767  0.1284
  634MOL0     O87402  11.584   8.021   8.255  0.4681  0.9038 -0.2587
  634MOL0     C87403  11.317   8.222   8.411 -0.6065  0.6598 -0.0067
  634MOL0     C87404  11.251   8.247   8.529 -0.3278  0.0377  0.1302
  634MOL0     N87405  11.582   8.174   9.122 -0.0880 -0.2097 -0.0062
  634MOL0     N87406  11.640   8.087   9.194 -0.0923 -0.8788  0.4794
  634MOL0     C87407  11.179   7.273   9.860  1.1044 -0.6305  0.3627
  634MOL0     C87408  11.054   7.262   9.923 -0.1327 -0.3970  0.5562
  634MOL0     C87409  10.746   7.383  10.257  0.0650 -0.2945 -0.4808
  634MOL0     C87410  10.636   7.378  10.168  1.5058  0.0805 -0.3697
  634MOL0     C87411  10.498   7.375  10.201 -0.3800  0.6801 -0.0044
  634MOL0     C87412  10.466   7.373  10.336 -0.1071 -0.0987 -0.1312
  634MOL0     O87413  10.336   7.365  10.388  0.0220 -0.0649 -0.4301
  634MOL0     C87414  10.226   7.343  10.302 -0.5644 -0.5775 -0.2788
  634MOL0     C87415  10.110   7.290  10.388  0.1983 -0.7021  0.2939
  634MOL0     C87416  10.167   7.161  10.456 -0.5889 -0.1524  0.2020
  634MOL0     C87417  10.057   7.080  10.520  0.0300  0.4227  0.6493
  634MOL0     C87418   9.968   7.016  10.414 -0.4740 -0.2393 -0.3437
  634MOL0     C87419   9.901   6.968  10.329 -0.8934  0.6164  0.4916
  634MOL0     C87420  10.564   7.381  10.431 -0.1548 -1.1642 -0.5674
  634MOL0     C87421  10.709   7.400  10.396  0.8489  0.1863  0.5919
  634MOL0     C87422  10.808   7.415  10.506 -0.5118 -0.1223 -0.5134
  634MOL0     H87423  11.041   7.571  10.071 -0.7499  0.1489 -0.3670
  634MOL0     H87424  11.250   7.598   9.949  0.4732 -0.5400  0.3857
  634MOL0     H87425  11.418   7.214   9.807  1.6223 -2.0833 -1.7738
  634MOL0     H87426  11.552   7.320   9.774  0.2576  2.5662  0.0149
  634MOL0     H87427  11.519   7.205   9.566 -0.3303  1.1577 -2.5017
  634MOL0     H87428  11.347   7.220   9.577 -0.0231 -0.8683  1.1738
  634MOL0     H87429  11.391   7.370   9.418  1.3724  1.3899 -0.1698
  634MOL0     H87430  11.410   7.486   9.555 -2.8268 -1.1193  0.5686
  634MOL0     H87431  11.637   7.446   9.569  0.3618  0.9210 -0.2351
  634MOL0     H87432  11.638   7.325   9.436 -0.4541  0.3099 -2.2458
  634MOL0     H87433  11.528   7.493   9.296  0.0573 -1.7149  0.2377
  634MOL0     H87434  11.711   7.523   9.328 -1.0235  0.5248 -0.8375
  634MOL0     H87435  11.493   7.668   9.477  0.6013 -3.2405  1.9625
  634MOL0     H87436  11.667   7.691   9.472  0.2271 -0.1903  0.0872
  634MOL0     H87437  11.475   7.735   9.246 -0.3565 -0.7261  0.1480
  634MOL0     H87438  11.654   7.740   9.223  0.5433 -0.0867  1.4568
  634MOL0     H87439  11.509   7.908   9.426  0.3632  1.1698 -0.2683
  634MOL0     H87440  11.678   7.922   9.378 -0.0398 -1.3207  1.2707
  634MOL0     H87441  11.327   7.996   9.233 -0.5436  1.9825  0.0552
  634MOL0     H87442  11.394   8.282   8.972 -0.3736 -0.1481 -0.7547
  634MOL0     H87443  11.336   8.334   9.134 -2.6524 -1.1739 -0.1480
  634MOL0     H87444  11.195   8.088   8.996 -3.7576  0.7695 -2.7147
  634MOL0     H87445  11.149   8.175   9.122 -0.7944 -2.4079 -1.7530
  634MOL0     H87446  11.024   8.254   8.954  0.2496 -0.4339  1.2964
  634MOL0     H87447  11.117   8.389   9.007 -3.8909 -1.4919  3.0329
  634MOL0     H87448  11.103   8.369   8.745  1.7859 -0.0284 -1.5830
  634MOL0     H87449  11.268   8.363   8.807  0.8330 -0.6359  2.4729
  634MOL0     H87450  11.362   7.985   8.711  1.4559 -2.2154  0.0229
  634MOL0     H87451  11.541   7.883   8.622  1.3673  1.1856  0.8200
  634MOL0     H87452  11.634   7.953   8.493  0.5686 -0.9576  0.6815
  634MOL0     H87453  11.499   7.842   8.452  0.3999  0.6644 -0.4201
  634MOL0     H87454  11.688   8.269   8.154  1.2352  1.2388 -0.9603
  634MOL0     H87455  11.834   8.245   7.962  0.0118  0.1086  0.5706
  634MOL0     H87456  11.771   8.107   7.526  2.7006  0.2423  1.0094
  634MOL0     H87457  11.619   8.191   7.580 -0.9694 -0.0723  1.3810
  634MOL0     H87458  11.751   8.360   7.469  2.5347 -0.3309 -1.0015
  634MOL0     H87459  11.789   8.392   7.642 -1.6740 -0.8987  0.6144
  634MOL0     H87460  11.953   8.185   7.502  0.5872 -1.4262  2.5632
  634MOL0     H87461  11.991   8.286   7.638  1.2759 -0.5906 -0.3227
  634MOL0     H87462  11.976   8.387   7.359  0.8803  1.4056 -1.6428
  634MOL0     H87463  12.122   8.350   7.446 -1.0877 -2.8695  2.0035
  634MOL0     H87464  11.914   8.582   7.507  0.3395  2.0091 -2.8299
  634MOL0     H87465  12.052   8.551   7.609 -2.2168 -1.2856  1.7178
  634MOL0     H87466  12.043   8.621   7.316 -1.4154 -0.1338  1.6212
  634MOL0     H87467  12.176   8.573   7.417 -0.6329 -2.1644 -1.3511
  634MOL0     H87468  12.140   8.750   7.569  0.3873 -0.0404 -0.2509
  634MOL0     H87469  11.992   8.807   7.500 -1.4540 -1.5866 -1.9637
  634MOL0     H87470  12.195   8.967   7.429  0.2806 -0.2071 -0.7590
  634MOL0     H87471  12.114   8.895   7.292 -0.5783  0.2592 -0.5956
  634MOL0     H87472  11.493   8.106   7.727  0.6794 -0.2712 -0.8293
  634MOL0     H87473  11.351   8.155   7.920  0.8445 -2.2389 -2.1367
  634MOL0     H87474  11.302   8.282   8.322 -2.8626 -2.4664 -1.9229
  634MOL0     H87475  11.190   8.337   8.529 -0.0205  0.3046 -2.1097
  634MOL0     H87476  11.206   7.211   9.776 -0.7768  2.3634 -2.7322
  634MOL0     H87477  10.989   7.177   9.902 -0.7059  0.5344 -1.6508
  634MOL0     H87478  10.660   7.346  10.068  0.7752 -2.2367  0.1305
  634MOL0     H87479  10.427   7.381  10.120  0.3328  2.4014 -0.5469
  634MOL0     H87480  10.196   7.440  10.261  0.6000  0.3216  0.9079
  634MOL0     H87481  10.243   7.280  10.215 -0.0726 -2.0678  0.8520
  634MOL0     H87482  10.022   7.275  10.325  0.9290 -0.1210 -0.8937
  634MOL0     H87483  10.077   7.368  10.458 -2.4161  1.6856 -3.2496
  634MOL0     H87484  10.232   7.100  10.392  0.2951 -0.0135  0.9369
  634MOL0     H87485  10.227   7.200  10.539 -0.1171  0.3510 -0.3631
  634MOL0     H87486  10.003   7.146  10.588  2.3492  1.7166  1.3408
  634MOL0     H87487  10.099   7.008  10.591  1.9711  1.0130  0.1629
  634MOL0     H87488   9.851   6.927  10.243  2.5533 -1.4309 -0.7605
  634MOL0     H87489  10.541   7.387  10.536  1.6979 -2.6827 -0.0029
  634MOL0     H87490  10.886   7.339  10.495  1.1387  1.6293 -1.4460
  634MOL0     H87491  10.847   7.517  10.506  0.9331 -0.4749  3.7975
  634MOL0     H87492  10.751   7.405  10.598 -1.1977 -1.0891 -1.0181
  635MOL0     O87493  10.073   8.114   4.357  0.1067 -0.1971 -0.5569
  635MOL0     C87494  10.088   8.043   4.452 -0.3389  0.0477  0.0882
  635MOL0     O87495  10.190   8.056   4.554 -0.2576 -0.3205  0.0522
  635MOL0     C87496  10.284   8.154   4.538 -0.3189 -0.3966 -0.0608
  635MOL0     C87497  10.388   8.148   4.445 -0.9830 -0.1354  0.1535
  635MOL0     C87498  10.496   8.242   4.462 -0.0956 -0.4247 -0.9446
  635MOL0     C87499  10.487   8.347   4.560 -0.0947  0.0401 -0.0270
  635MOL0     O87500  10.594   8.427   4.583  0.2194  0.1383 -0.5758
  635MOL0     C87501  10.627   8.511   4.475 -0.8877 -0.0432 -0.4151
  635MOL0     C87502  10.724   8.626   4.524 -0.1902 -0.2887  0.0572
  635MOL0     C87503  10.646   8.707   4.629  0.1375  1.0100 -0.5412
  635MOL0     C87504  10.711   8.848   4.654 -0.4383 -0.4372  0.0996
  635MOL0     C87505  10.864   8.841   4.665 -0.1067  0.0131  0.4909
  635MOL0     C87506  10.926   8.969   4.718  0.1052 -1.0730  0.1090
  635MOL0     C87507  11.078   8.957   4.712 -0.6196 -0.4058  0.0474
  635MOL0     C87508  11.136   8.859   4.823  0.2313 -0.1427 -0.1165
  635MOL0     N87509  11.279   8.842   4.796  0.3531 -0.3791 -0.4928
  635MOL0     C87510  11.369   8.942   4.805 -0.0536  0.2141  0.1500
  635MOL0     C87511  11.481   8.905   4.749 -0.3719 -0.3142  0.6582
  635MOL0     C87512  11.618   8.978   4.738 -0.4229 -0.8440  0.2838
  635MOL0     C87513  11.607   9.118   4.675  0.7545  0.0712  0.2366
  635MOL0     C87514  11.620   9.130   4.521 -0.5348 -0.2464  0.2001
  635MOL0     C87515  11.503   9.078   4.430 -0.2830  0.5987  0.7108
  635MOL0     O87516  11.385   9.147   4.479 -0.0839 -0.2251 -0.4332
  635MOL0     C87517  11.257   9.114   4.439 -0.0248 -0.4270  0.4821
  635MOL0     C87518  11.225   9.001   4.363  0.5498  0.5257  0.3925
  635MOL0     C87519  11.089   8.988   4.310 -0.3893  0.3336 -0.6238
  635MOL0     C87520  11.070   8.861   4.235 -0.0996  0.1956 -0.4350
  635MOL0     C87521  10.984   9.086   4.335 -0.3183  0.3250  0.7788
  635MOL0     C87522  10.844   9.075   4.305  0.8063  0.7226 -0.2354
  635MOL0     O87523  10.766   9.172   4.353  0.1736  0.6209 -0.4420
  635MOL0     C87524  10.632   9.170   4.324 -0.4910  0.2674  0.1448
  635MOL0     C87525  10.583   9.219   4.207  0.1617 -0.9184 -0.3907
  635MOL0     C87526  10.442   9.241   4.188  0.0600  0.1891 -0.1953
  635MOL0     C87527  10.349   9.223   4.291  0.6514  0.0960 -0.5011
  635MOL0     O87528  10.211   9.243   4.294 -0.2201  0.6042  0.7387
  635MOL0     C87529  10.141   9.186   4.174 -0.0611 -0.4570  0.6763
  635MOL0     C87530   9.988   9.214   4.198  0.0671 -0.6550 -0.7446
  635MOL0     C87531   9.914   9.234   4.060  0.0309  0.4338 -0.4391
  635MOL0     C87532   9.766   9.217   4.069 -0.6121 -0.9393 -0.0300
  635MOL0     C87533   9.691   9.234   3.938 -0.8282  0.0931 -0.1807
  635MOL0     C87534   9.539   9.254   3.946 -0.1060  1.3466 -0.3085
  635MOL0     C87535   9.477   9.147   4.040 -0.7586  0.6000  0.4180
  635MOL0     C87536   9.331   9.151   4.038  0.5774  0.3028  0.3353
  635MOL0    Cl87537   9.271   9.006   4.131 -0.4857 -0.1137  0.0188
  635MOL0     C87538  10.409   9.184   4.414  0.5380  0.7410  0.8926
  635MOL0     C87539  10.545   9.152   4.431 -0.1857 -0.6172 -0.4634
  635MOL0     O87540  10.811   8.990   4.221 -0.1888 -0.6301  0.1055
  635MOL0     C87541  11.024   9.194   4.412  0.0597 -0.1823 -0.4403
  635MOL0     C87542  11.155   9.204   4.466 -0.3361  0.9414 -0.1811
  635MOL0     N87543  11.460   8.778   4.698 -0.6365 -0.3227  0.0234
  635MOL0     N87544  11.338   8.731   4.734  0.2655 -0.4027  0.1322
  635MOL0     C87545  10.378   8.362   4.643  0.9188  0.1411 -0.0835
  635MOL0     C87546  10.279   8.264   4.626  0.0811  0.7655  0.2844
  635MOL0     C87547   9.998   7.930   4.485  0.4870  0.3475 -0.5796
  635MOL0     C87548  10.042   7.837   4.579 -0.5140  0.6561  0.5082
  635MOL0     C87549   9.960   7.737   4.624  0.0998 -0.5024 -0.2597
  635MOL0     C87550   9.830   7.726   4.579  0.3435 -0.8554  0.0668
  635MOL0     O87551   9.749   7.630   4.630 -0.8321  0.2308 -0.7017
  635MOL0     C87552   9.676   7.534   4.547 -0.8045 -0.0858  0.7626
  635MOL0     C87553   9.619   7.418   4.632 -0.3374  1.0352  0.3612
  635MOL0     C87554   9.499   7.462   4.711 -0.9447 -0.0352  0.6781
  635MOL0     C87555   9.438   7.340   4.774 -0.5540 -0.2785  0.3685
  635MOL0     C87556   9.517   7.287   4.886 -0.2265  0.1482 -0.2737
  635MOL0     C87557   9.601   7.259   4.968 -0.7643  0.0366  0.3621
  635MOL0     C87558   9.782   7.811   4.481 -0.3991 -1.2145  0.0716
  635MOL0     C87559   9.862   7.914   4.431  0.6091  0.3909  0.0457
  635MOL0     C87560   9.799   8.008   4.329 -0.4590 -0.3593 -0.6504
  635MOL0     H87561  10.406   8.063   4.379 -2.8298 -0.7354  0.3600
  635MOL0     H87562  10.595   8.224   4.421  2.3330 -1.6027  4.5216
  635MOL0     H87563  10.535   8.564   4.448 -2.3307 -3.2254 -2.4502
  635MOL0     H87564  10.661   8.449   4.392 -0.6966  0.3461 -0.6321
  635MOL0     H87565  10.812   8.585   4.575 -0.1195  0.0017  0.1689
  635MOL0     H87566  10.772   8.688   4.448  0.5773 -1.3956 -0.3894
  635MOL0     H87567  10.548   8.737   4.591 -0.0505  3.4827  1.5623
  635MOL0     H87568  10.636   8.662   4.728  3.5971 -0.0829 -0.5644
  635MOL0     H87569  10.688   8.918   4.573 -0.5517  0.1935  0.6654
  635MOL0     H87570  10.671   8.879   4.751  1.0065 -4.6103  2.2365
  635MOL0     H87571  10.905   8.821   4.565  0.6140  0.6158  0.6557
  635MOL0     H87572  10.888   8.760   4.734  0.7085 -0.2717 -0.1232
  635MOL0     H87573  10.904   9.058   4.657 -1.1997 -0.5170  1.3238
  635MOL0     H87574  10.891   8.980   4.821 -0.5546  0.6155 -0.2619
  635MOL0     H87575  11.118   9.059   4.717 -0.1012 -0.6130  0.1470
  635MOL0     H87576  11.111   8.933   4.611 -1.5009  0.6726 -0.5193
  635MOL0     H87577  11.109   8.897   4.922 -2.2312 -3.6753  0.7876
  635MOL0     H87578  11.085   8.762   4.823  0.1461 -0.1438 -2.1477
  635MOL0     H87579  11.358   9.040   4.849 -1.2552  1.5749 -2.9098
  635MOL0     H87580  11.678   8.918   4.670 -0.7183 -1.2633  0.3891
  635MOL0     H87581  11.665   8.976   4.837  1.7407  1.4186 -0.5903
  635MOL0     H87582  11.506   9.154   4.695 -0.2776 -1.9630 -1.0846
  635MOL0     H87583  11.686   9.172   4.730  1.0579 -1.2860  1.1816
  635MOL0     H87584  11.626   9.237   4.501  0.4925 -0.4835 -0.8895
  635MOL0     H87585  11.715   9.083   4.494  0.0034  0.7871  0.2529
  635MOL0     H87586  11.519   9.102   4.324  0.8114  1.7789  1.1162
  635MOL0     H87587  11.489   8.969   4.431 -1.1832  0.6896 -0.1390
  635MOL0     H87588  11.296   8.921   4.348 -0.7617 -0.6075  0.0214
  635MOL0     H87589  10.967   8.825   4.243 -0.4188  0.3125 -3.0853
  635MOL0     H87590  11.144   8.789   4.270  1.1327  2.1116  1.1957
  635MOL0     H87591  11.091   8.883   4.130 -0.2147  3.9334  0.1718
  635MOL0     H87592  10.658   9.229   4.130  2.1612 -3.0588  1.1307
  635MOL0     H87593  10.404   9.268   4.090 -0.4218  1.1994  0.2547
  635MOL0     H87594  10.185   9.237   4.088  1.2963  2.2167  2.7738
  635MOL0     H87595  10.162   9.080   4.158  0.8507 -0.0667 -0.8561
  635MOL0     H87596   9.951   9.119   4.238 -0.2206 -0.8026 -1.3561
  635MOL0     H87597   9.956   9.302   4.255 -2.1085 -1.9679  0.1906
  635MOL0     H87598   9.956   9.165   3.986 -2.8530  0.2129 -2.0031
  635MOL0     H87599   9.937   9.334   4.023 -0.0557 -0.0007 -1.6831
  635MOL0     H87600   9.742   9.304   4.131 -1.9521  0.7807 -2.7910
  635MOL0     H87601   9.746   9.126   4.128  0.0574 -1.8597 -1.1755
  635MOL0     H87602   9.737   9.318   3.887 -0.9023  0.9854  1.1695
  635MOL0     H87603   9.717   9.148   3.876  2.2728  1.7506 -1.3849
  635MOL0     H87604   9.503   9.242   3.844  1.1889 -0.5315 -0.6000
  635MOL0     H87605   9.509   9.356   3.975 -1.0288  0.7149  1.1002
  635MOL0     H87606   9.513   9.151   4.143  0.6201  0.4704 -0.0382
  635MOL0     H87607   9.489   9.047   3.997 -0.2961  0.8517 -0.0386
  635MOL0     H87608   9.301   9.151   3.932  2.0220  0.2860 -0.0985
  635MOL0     H87609   9.296   9.246   4.080  0.4732  1.7415 -2.7228
  635MOL0     H87610  10.340   9.159   4.494 -0.1083 -3.1866 -0.6586
  635MOL0     H87611  10.588   9.113   4.522  1.2640  0.4723 -0.6319
  635MOL0     H87612  10.959   9.281   4.421 -3.2565 -2.3077 -1.7866
  635MOL0     H87613  11.184   9.300   4.507 -1.2877  2.3825 -2.6709
  635MOL0     H87614  10.378   8.428   4.729 -2.8137 -0.8531  0.8541
  635MOL0     H87615  10.193   8.266   4.693  0.2283 -1.9923  0.6850
  635MOL0     H87616  10.139   7.842   4.626  0.8777  3.1502 -2.2574
  635MOL0     H87617   9.995   7.667   4.699  1.2555  1.4879  1.1691
  635MOL0     H87618   9.597   7.593   4.501 -0.8932  0.5462  1.6930
  635MOL0     H87619   9.734   7.484   4.469 -3.7773  0.7723 -2.2083
  635MOL0     H87620   9.704   7.390   4.696 -1.5858  1.5097  2.3184
  635MOL0     H87621   9.598   7.337   4.562  0.6059 -0.1182  1.3774
  635MOL0     H87622   9.530   7.545   4.775  1.8222 -0.6817  0.2842
  635MOL0     H87623   9.429   7.508   4.640  0.7378 -1.3250 -1.9822
  635MOL0     H87624   9.427   7.257   4.702  2.6053 -0.4044 -0.1248
  635MOL0     H87625   9.343   7.369   4.819 -0.1098  2.8838 -0.5480
  635MOL0     H87626   9.677   7.250   5.042 -0.4301  2.7215  0.4599
  635MOL0     H87627   9.681   7.790   4.447 -0.2819 -2.2949  0.3436
  635MOL0     H87628   9.705   7.978   4.283  0.1464 -1.3059 -1.3097
  635MOL0     H87629   9.776   8.104   4.375 -3.0345 -1.4570  0.5354
  635MOL0     H87630   9.871   8.009   4.246  0.8791 -1.9986  0.4211
  636MOL0     O87631   1.786   0.197   6.234  0.0083  0.3266 -0.2103
  636MOL0     C87632   1.890   0.139   6.197  0.7410  0.7381 -0.0764
  636MOL0     O87633   1.899   0.063   6.081 -0.1966  0.8561  0.1537
  636MOL0     C87634   1.799   0.037   5.997  0.8765  0.1828  0.7877
  636MOL0     C87635   1.840  -0.013   5.870  0.0169 -0.2267 -0.1156
  636MOL0     C87636   1.756  -0.068   5.782  0.4664  0.9882 -0.2509
  636MOL0     C87637   1.613  -0.077   5.802 -0.5271 -0.6856 -0.3033
  636MOL0     O87638   1.534  -0.140   5.706  0.6529 -0.6037  0.0602
  636MOL0     C87639   1.526  -0.078   5.580  0.0536  0.0834  0.7820
  636MOL0     C87640   1.394   0.007   5.570  0.1060  0.1449  0.7379
  636MOL0     C87641   1.405   0.150   5.625  0.1580 -0.6626  0.1716
  636MOL0     C87642   1.490   0.232   5.533 -0.4497 -0.3485  0.2086
  636MOL0     C87643   1.543   0.372   5.581 -0.3803 -0.2465 -0.0921
  636MOL0     C87644   1.625   0.369   5.711 -0.1385 -0.3472 -0.2503
  636MOL0     C87645   1.744   0.270   5.708 -0.2573 -0.0767  0.0355
  636MOL0     C87646   1.853   0.301   5.604 -1.3979 -0.3887 -0.1478
  636MOL0     N87647   1.988   0.264   5.644 -0.5328  0.7187 -0.5636
  636MOL0     C87648   2.048   0.308   5.758  0.5667  0.2320 -0.2772
  636MOL0     C87649   2.164   0.240   5.765  0.6668  0.3349  0.7119
  636MOL0     C87650   2.263   0.237   5.883 -0.0115  1.0305  0.2782
  636MOL0     C87651   2.372   0.341   5.855  0.4759 -0.6671 -0.3899
  636MOL0     C87652   2.341   0.462   5.942  0.6595  0.7851  0.7669
  636MOL0     C87653   2.430   0.586   5.895  1.1706  1.0711  0.4106
  636MOL0     O87654   2.563   0.544   5.906  0.2902 -0.5883  0.5353
  636MOL0     C87655   2.664   0.623   5.867  0.1772  0.5735 -0.2801
  636MOL0     C87656   2.796   0.578   5.889  0.2622  0.9384 -0.7567
  636MOL0     C87657   2.908   0.657   5.849  0.2585  0.7004 -0.3030
  636MOL0     C87658   3.051   0.612   5.857 -0.6882 -0.2251 -0.5921
  636MOL0     C87659   2.887   0.781   5.777 -0.8293 -0.1125 -0.7934
  636MOL0     C87660   2.990   0.884   5.753 -0.9250  0.7673 -0.6005
  636MOL0     O87661   3.110   0.887   5.827  0.0142 -0.5464  0.0314
  636MOL0     C87662   3.183   0.998   5.822 -0.3271 -0.5053  0.4404
  636MOL0     C87663   3.315   0.985   5.781 -1.1490  0.1953 -0.0307
  636MOL0     C87664   3.398   1.102   5.777  0.0783 -0.0743  0.3754
  636MOL0     C87665   3.353   1.226   5.830 -0.2725 -0.7284 -0.4370
  636MOL0     O87666   3.426   1.342   5.800  0.1689  0.1743  0.0201
  636MOL0     C87667   3.366   1.462   5.856 -0.1013 -0.3047  0.2846
  636MOL0     C87668   3.468   1.579   5.842 -0.4730  0.4747  0.4368
  636MOL0     C87669   3.468   1.615   5.687 -0.7797 -0.1763  0.6133
  636MOL0     C87670   3.573   1.720   5.679  0.4329  0.7238  1.4347
  636MOL0     C87671   3.599   1.759   5.531 -0.7121  0.2907 -0.0684
  636MOL0     C87672   3.737   1.825   5.524  0.3940  0.0625  0.4597
  636MOL0     C87673   3.775   1.874   5.379  0.0753  0.1620  0.2598
  636MOL0     C87674   3.916   1.948   5.378  0.6285  0.4025  0.4429
  636MOL0    Cl87675   3.955   1.990   5.213  0.0532 -0.1180  0.3280
  636MOL0     C87676   3.224   1.230   5.876 -0.2054 -1.2844  0.1643
  636MOL0     C87677   3.134   1.122   5.865  0.2235 -0.4039 -0.5005
  636MOL0     O87678   2.961   0.966   5.668  0.0134  1.0367 -0.3403
  636MOL0     C87679   2.758   0.816   5.746  0.6891  0.3028  0.4462
  636MOL0     C87680   2.652   0.744   5.804  0.0267  0.6532 -0.8648
  636MOL0     N87681   2.163   0.145   5.672  0.5948 -0.2063 -0.0686
  636MOL0     N87682   2.065   0.163   5.598 -0.1081  0.8881 -0.0195
  636MOL0     C87683   1.571  -0.022   5.929  0.4196  0.2060  1.0733
  636MOL0     C87684   1.659   0.028   6.021  0.3593  0.8129  0.3930
  636MOL0     C87685   2.017   0.146   6.281 -0.3678  0.6631  0.0253
  636MOL0     C87686   2.138   0.110   6.223 -0.2353  0.4664 -0.3098
  636MOL0     C87687   2.257   0.133   6.293  0.3212  0.1054  0.5322
  636MOL0     C87688   2.261   0.176   6.421  0.3608  0.2350 -0.1887
  636MOL0     O87689   2.364   0.179   6.508  0.5738 -0.6875  0.5307
  636MOL0     C87690   2.483   0.116   6.463  1.2633 -0.2485 -0.9171
  636MOL0     C87691   2.567   0.205   6.369  0.0687 -0.3513  0.3215
  636MOL0     C87692   2.694   0.117   6.335 -0.2031  0.9483 -0.0995
  636MOL0     C87693   2.757   0.128   6.194 -0.5090  0.0845  0.3129
  636MOL0     C87694   2.661   0.081   6.094 -0.6301  0.5246 -0.0112
  636MOL0     C87695   2.574   0.062   6.012 -0.2227  0.7776  0.2462
  636MOL0     C87696   2.139   0.212   6.481  0.8037  0.3094 -0.1241
  636MOL0     C87697   2.017   0.202   6.409 -0.3422  1.2577 -0.1126
  636MOL0     C87698   1.904   0.265   6.479 -0.2603  0.5663  0.3427
  636MOL0     H87699   1.946  -0.017   5.847  0.0981 -1.2970  0.3673
  636MOL0     H87700   1.797  -0.101   5.687  1.0043  0.0795  0.2822
  636MOL0     H87701   1.518  -0.157   5.504 -1.7667 -1.1521  2.1725
  636MOL0     H87702   1.620  -0.028   5.554  1.0391 -0.3763  3.2503
  636MOL0     H87703   1.375   0.015   5.462  3.1453  2.2907  0.2456
  636MOL0     H87704   1.316  -0.043   5.628 -4.1298  1.2874 -3.2912
  636MOL0     H87705   1.303   0.189   5.614 -0.1410 -1.4342  0.1329
  636MOL0     H87706   1.437   0.142   5.730  2.5738 -3.4744 -0.6582
  636MOL0     H87707   1.572   0.168   5.499 -0.8943  0.5632 -2.8426
  636MOL0     H87708   1.426   0.246   5.445 -1.5254 -2.1058  0.6501
  636MOL0     H87709   1.452   0.434   5.586 -1.7656 -1.8203 -3.0117
  636MOL0     H87710   1.616   0.404   5.506  1.1901 -0.5796  1.2383
  636MOL0     H87711   1.667   0.469   5.725 -1.5704 -0.0254  2.5718
  636MOL0     H87712   1.556   0.353   5.795 -0.7595 -0.2944 -0.7435
  636MOL0     H87713   1.697   0.172   5.695 -0.5192 -0.1367  1.3700
  636MOL0     H87714   1.788   0.272   5.808 -2.8782 -1.7049  1.3162
  636MOL0     H87715   1.833   0.256   5.506 -3.1973  0.5824 -0.2816
  636MOL0     H87716   1.864   0.410   5.597 -0.8666 -0.4112  0.2886
  636MOL0     H87717   2.019   0.377   5.836  1.6823  1.0548 -0.5551
  636MOL0     H87718   2.299   0.135   5.896  0.0439  0.9396 -0.5330
  636MOL0     H87719   2.211   0.262   5.976 -0.4180  1.1914  0.0132
  636MOL0     H87720   2.469   0.302   5.889 -0.7763 -2.7607  0.9859
  636MOL0     H87721   2.383   0.366   5.749  1.5468 -2.1094 -0.6480
  636MOL0     H87722   2.236   0.493   5.930  0.9419  1.7187  0.6498
  636MOL0     H87723   2.350   0.440   6.048 -0.9626  3.3358  1.5242
  636MOL0     H87724   2.393   0.632   5.803 -2.9325 -0.3520  1.0917
  636MOL0     H87725   2.419   0.663   5.972  1.2685  0.7086  0.7915
  636MOL0     H87726   2.825   0.480   5.925  2.2128  0.8307 -2.4372
  636MOL0     H87727   3.104   0.661   5.940 -2.0938 -0.7609  0.6638
  636MOL0     H87728   3.096   0.654   5.766 -2.4825  0.2924 -1.2666
  636MOL0     H87729   3.059   0.505   5.878 -0.3211 -0.0658  0.1074
  636MOL0     H87730   3.351   0.891   5.740  0.1023  2.1450 -3.7589
  636MOL0     H87731   3.498   1.083   5.738  1.7934  3.1969  2.6494
  636MOL0     H87732   3.276   1.499   5.806  1.8518  4.3138 -0.4075
  636MOL0     H87733   3.361   1.446   5.964 -0.8598  0.8587  0.4397
  636MOL0     H87734   3.431   1.661   5.903 -1.0854  0.4349  0.1216
  636MOL0     H87735   3.565   1.551   5.886 -0.3416 -0.5481 -0.4697
  636MOL0     H87736   3.382   1.663   5.641  0.0071 -0.9230 -1.7538
  636MOL0     H87737   3.507   1.528   5.633 -0.0703 -1.1249  2.5534
  636MOL0     H87738   3.665   1.698   5.734 -0.0555 -0.5170  1.8087
  636MOL0     H87739   3.527   1.809   5.723 -0.8249  1.0045 -0.3095
  636MOL0     H87740   3.600   1.664   5.477 -1.1908  1.3584 -2.0503
  636MOL0     H87741   3.522   1.824   5.489  1.5987  1.1394 -3.3686
  636MOL0     H87742   3.818   1.761   5.560  1.2424  0.3671 -0.8596
  636MOL0     H87743   3.741   1.916   5.585 -1.4921  0.6510 -0.2072
  636MOL0     H87744   3.710   1.954   5.343  0.5932 -0.0840 -1.2753
  636MOL0     H87745   3.783   1.789   5.310  1.5640  1.9316 -1.8879
  636MOL0     H87746   3.999   1.898   5.429 -2.0303 -2.3439  2.4433
  636MOL0     H87747   3.912   2.040   5.437 -0.0377 -0.7226  2.2367
  636MOL0     H87748   3.182   1.329   5.878  0.4056 -0.8664 -3.1721
  636MOL0     H87749   3.029   1.132   5.889  0.2757  1.4326 -0.9064
  636MOL0     H87750   2.738   0.909   5.694  0.1591 -0.6404 -1.1239
  636MOL0     H87751   2.556   0.793   5.791  0.7220  1.8040 -1.8433
  636MOL0     H87752   1.467  -0.017   5.960  0.4715  2.7152  1.0180
  636MOL0     H87753   1.615   0.088   6.100 -2.2045 -0.4056 -0.0213
  636MOL0     H87754   2.144   0.061   6.126  0.2849 -3.4988  1.4993
  636MOL0     H87755   2.352   0.105   6.248  0.9532 -2.5245  3.2030
  636MOL0     H87756   2.531   0.086   6.557 -0.2377  1.4070  0.4646
  636MOL0     H87757   2.456   0.020   6.419 -2.0803 -0.7212  1.7642
  636MOL0     H87758   2.605   0.294   6.419 -2.4604  0.4988  0.8500
  636MOL0     H87759   2.516   0.231   6.277  2.5983  1.8593 -0.5990
  636MOL0     H87760   2.775   0.160   6.396  0.2386 -1.9102  1.5045
  636MOL0     H87761   2.687   0.009   6.348 -0.5849  0.5638 -2.8327
  636MOL0     H87762   2.855   0.081   6.189  0.3466  1.8457 -4.4853
  636MOL0     H87763   2.778   0.235   6.178  1.0765  0.0266  1.7493
  636MOL0     H87764   2.491   0.048   5.946  0.2717 -0.8750 -0.0719
  636MOL0     H87765   2.146   0.247   6.583  2.4398 -1.6237  0.5102
  636MOL0     H87766   1.877   0.343   6.406 -1.2726 -0.9435 -0.9567
  636MOL0     H87767   1.819   0.199   6.495 -0.5033  1.1348  1.5074
  636MOL0     H87768   1.937   0.324   6.565  0.3952  0.1415  0.3853
  637MOL0     O87769   0.642   9.471   5.256 -0.3261  0.6995 -0.4009
  637MOL0     C87770   0.559   9.531   5.190  0.7504 -1.2166  0.5968
  637MOL0     O87771   0.573   9.606   5.070 -0.2870  0.4269 -0.3066
  637MOL0     C87772   0.701   9.641   5.024  0.9821 -0.3437 -0.2738
  637MOL0     C87773   0.813   9.561   5.030  0.9383  0.2130  0.2514
  637MOL0     C87774   0.932   9.609   4.981 -0.3732  0.5618 -0.0743
  637MOL0     C87775   0.938   9.723   4.910  0.1438 -0.4878  0.2019
  637MOL0     O87776   1.051   9.754   4.845 -0.8281 -0.1088  0.0916
  637MOL0     C87777   1.071   9.886   4.796 -0.6337 -0.3570 -0.1394
  637MOL0     C87778   1.211   9.907   4.737  0.2574  0.7864 -0.0536
  637MOL0     C87779   1.237  10.037   4.671 -0.3560  0.1317 -0.0520
  637MOL0     C87780   1.385  10.065   4.637  0.7651  0.1357  0.8647
  637MOL0     C87781   1.425  10.220   4.666  0.2014  0.1259 -0.4367
  637MOL0     C87782   1.570  10.244   4.632 -0.8461  0.2790  0.4391
  637MOL0     C87783   1.640  10.382   4.666 -0.2528 -0.1647  0.4380
  637MOL0     C87784   1.669  10.393   4.816 -0.7983  0.4921 -0.5540
  637MOL0     N87785   1.724  10.529   4.824 -0.0325  0.3682 -0.2140
  637MOL0     C87786   1.657  10.646   4.843  0.2895  0.5061 -0.0646
  637MOL0     C87787   1.756  10.735   4.837 -0.1787  0.4270 -1.0336
  637MOL0     C87788   1.731  10.878   4.862  0.9775 -1.0073 -0.1600
  637MOL0     C87789   1.766  10.957   4.733  0.2144 -0.5076 -0.2815
  637MOL0     C87790   1.745  11.113   4.737 -0.1858 -0.1043  0.7843
  637MOL0     C87791   1.596  11.141   4.724 -0.7470  0.8820 -0.3354
  637MOL0     O87792   1.583  11.283   4.729 -0.1695 -0.0285 -0.0793
  637MOL0     C87793   1.452  11.329   4.757  0.1556  0.3154  0.4063
  637MOL0     C87794   1.441  11.470   4.774 -0.0169  0.0477  0.1926
  637MOL0     C87795   1.313  11.525   4.813 -1.3296  1.0475 -0.8425
  637MOL0     C87796   1.305  11.673   4.834  0.2055  0.4058  0.4265
  637MOL0     C87797   1.199  11.441   4.830  0.3460  0.1229 -0.0668
  637MOL0     C87798   1.069  11.499   4.867 -0.1146  0.0527  0.3945
  637MOL0     O87799   0.955  11.455   4.798 -0.0007  0.2336  0.0830
  637MOL0     C87800   0.831  11.505   4.819  0.3289 -0.0866  0.0837
  637MOL0     C87801   0.796  11.639   4.821 -0.5063 -0.4747 -1.1729
  637MOL0     C87802   0.671  11.684   4.859  0.1453  0.0583  0.2859
  637MOL0     C87803   0.570  11.589   4.873 -0.0318 -0.1434  0.0809
  637MOL0     O87804   0.452  11.643   4.896  0.1788  0.7293  0.7363
  637MOL0     C87805   0.385  11.584   5.006  0.7872  0.0422  0.4027
  637MOL0     C87806   0.300  11.692   5.077 -0.4181  0.0715  0.3420
  637MOL0     C87807   0.162  11.716   5.011 -0.4022 -0.9270  0.0050
  637MOL0     C87808   0.074  11.793   5.111 -0.9252  0.1893  1.9333
  637MOL0     C87809  -0.071  11.827   5.058 -0.0169  0.1026  0.3955
  637MOL0     C87810  -0.142  11.908   5.167  0.2648 -0.1841 -0.5287
  637MOL0     C87811  -0.195  11.814   5.276  0.1225  0.8567  0.7680
  637MOL0     C87812  -0.258  11.884   5.392  0.4694 -0.1195  0.3925
  637MOL0    Cl87813  -0.407  11.960   5.340 -0.5380 -0.0276  0.7311
  637MOL0     C87814   0.597  11.444   4.858  0.0550  0.3854 -0.0685
  637MOL0     C87815   0.730  11.407   4.836 -0.7611 -0.5498  0.4409
  637MOL0     O87816   1.073  11.574   4.966  0.1251 -0.2960  0.0871
  637MOL0     C87817   1.211  11.299   4.822 -0.2777 -0.4115  0.7534
  637MOL0     C87818   1.337  11.249   4.786  0.9206  0.0763  0.7272
  637MOL0     N87819   1.878  10.663   4.821 -0.8055 -0.4402 -0.2507
  637MOL0     N87820   1.857  10.549   4.815  0.5542  1.0490  0.0905
  637MOL0     C87821   0.827   9.805   4.903 -1.2193 -0.3847 -0.2352
  637MOL0     C87822   0.711   9.767   4.963  0.4222  0.2013 -0.3255
  637MOL0     C87823   0.419   9.531   5.245 -0.1646  1.1319 -0.8521
  637MOL0     C87824   0.400   9.479   5.378 -0.3436  0.1623 -0.3210
  637MOL0     C87825   0.280   9.480   5.448 -0.2037  0.3769  0.1336
  637MOL0     C87826   0.163   9.538   5.399  0.6114  0.0082  0.0326
  637MOL0     O87827   0.058   9.524   5.477  0.2485 -0.2733  0.5545
  637MOL0     C87828  -0.071   9.549   5.409 -0.2098 -0.1926  0.0313
  637MOL0     C87829  -0.204   9.524   5.489  0.4409  0.8640 -0.8225
  637MOL0     C87830  -0.173   9.543   5.639  0.8554 -0.4770  0.2817
  637MOL0     C87831  -0.292   9.547   5.736  0.0173  0.1639  0.3118
  637MOL0     C87832  -0.380   9.668   5.722  0.1351 -0.0710 -0.3064
  637MOL0     C87833  -0.460   9.761   5.701  0.7651  0.9550 -0.2796
  637MOL0     C87834   0.178   9.599   5.271  0.7953  0.3903  0.2503
  637MOL0     C87835   0.298   9.589   5.191  0.4633 -0.0448 -0.0048
  637MOL0     C87836   0.287   9.640   5.048 -0.7862  0.0874  0.6560
  637MOL0     H87837   0.806   9.464   5.079  1.8554 -0.2248 -0.4733
  637MOL0     H87838   1.022   9.547   4.974 -1.8351 -1.5345 -1.6814
  637MOL0     H87839   1.054   9.960   4.874  1.3854 -0.3246  0.3204
  637MOL0     H87840   0.997   9.903   4.717 -1.3867  2.2588  1.0366
  637MOL0     H87841   1.284   9.885   4.815  1.0720  0.6875 -0.8248
  637MOL0     H87842   1.206   9.830   4.659 -3.6142  3.3956 -2.7583
  637MOL0     H87843   1.175  10.060   4.584  1.6833 -1.7266 -2.1443
  637MOL0     H87844   1.216  10.121   4.738 -1.4545  0.5124 -0.8488
  637MOL0     H87845   1.449   9.994   4.689  1.2362 -0.4920 -0.5337
  637MOL0     H87846   1.397  10.047   4.530 -1.8982 -0.4262  0.6026
  637MOL0     H87847   1.393  10.233   4.770 -1.0625 -4.3282 -0.0661
  637MOL0     H87848   1.358  10.276   4.600 -0.2998 -1.0420 -0.9501
  637MOL0     H87849   1.623  10.169   4.691  0.6088 -1.6379 -2.9712
  637MOL0     H87850   1.577  10.226   4.524  0.4199  0.6479  0.4437
  637MOL0     H87851   1.567  10.451   4.624  0.2103 -0.8768 -1.6695
  637MOL0     H87852   1.736  10.384   4.615 -0.2122 -0.6525  0.4854
  637MOL0     H87853   1.577  10.386   4.874 -0.4682 -0.6485 -0.1293
  637MOL0     H87854   1.744  10.323   4.853  0.3484  2.4530  1.0165
  637MOL0     H87855   1.550  10.651   4.861 -0.4058 -1.7228 -2.9455
  637MOL0     H87856   1.782  10.905   4.955 -0.4695 -2.9407  1.2785
  637MOL0     H87857   1.625  10.889   4.886  1.3476  2.3444  0.4102
  637MOL0     H87858   1.872  10.931   4.718  0.0673 -1.6234  0.5148
  637MOL0     H87859   1.709  10.917   4.649  0.0694  1.0427 -0.9594
  637MOL0     H87860   1.779  11.155   4.832  1.0839  0.0181  0.2814
  637MOL0     H87861   1.811  11.150   4.659 -0.0864  0.4761  1.1392
  637MOL0     H87862   1.550  11.094   4.636 -0.0875 -2.6301  1.0201
  637MOL0     H87863   1.546  11.093   4.809 -1.1125 -0.7405 -1.4147
  637MOL0     H87864   1.533  11.526   4.759  2.8155 -3.2372  3.4149
  637MOL0     H87865   1.404  11.707   4.800  0.3178 -1.5383 -1.4288
  637MOL0     H87866   1.288  11.682   4.942  0.7328  0.6367  0.4941
  637MOL0     H87867   1.225  11.714   4.772 -0.6353  2.6082  2.7769
  637MOL0     H87868   0.878  11.709   4.832  1.0596 -2.4671  0.6860
  637MOL0     H87869   0.643  11.788   4.875 -2.9993 -0.9813  2.8215
  637MOL0     H87870   0.313  11.515   4.961 -0.2184  1.2019  0.1836
  637MOL0     H87871   0.448  11.524   5.073  1.3933 -1.1780 -1.1851
  637MOL0     H87872   0.295  11.656   5.180  0.1926  0.5989  0.5597
  637MOL0     H87873   0.349  11.789   5.075 -3.4594  1.7683  1.0331
  637MOL0     H87874   0.112  11.620   4.989 -0.4766 -0.7433 -0.6508
  637MOL0     H87875   0.175  11.760   4.912  2.1404 -0.5034  0.4746
  637MOL0     H87876   0.128  11.886   5.131 -2.3234  1.7340 -0.9501
  637MOL0     H87877   0.078  11.737   5.204  1.8987  0.4401  2.0380
  637MOL0     H87878  -0.064  11.889   4.968 -0.4803 -0.9911 -0.4168
  637MOL0     H87879  -0.136  11.742   5.034  0.9559 -0.5587  0.0489
  637MOL0     H87880  -0.219  11.975   5.128 -0.7718 -0.5363  0.8428
  637MOL0     H87881  -0.060  11.961   5.216  0.7175 -1.5367  0.2238
  637MOL0     H87882  -0.112  11.752   5.310  1.1359  1.7556  0.0342
  637MOL0     H87883  -0.271  11.745   5.240 -1.0977  1.1441  2.6548
  637MOL0     H87884  -0.190  11.962   5.427 -0.4993  0.9655 -0.0873
  637MOL0     H87885  -0.279  11.821   5.478 -0.1013 -1.4826 -0.7042
  637MOL0     H87886   0.519  11.369   4.866 -0.2409  0.7983  1.2830
  637MOL0     H87887   0.748  11.300   4.831 -0.2495 -0.4738  0.6085
  637MOL0     H87888   1.120  11.246   4.847  1.2536 -2.0363  3.3542
  637MOL0     H87889   1.346  11.142   4.770 -0.2797 -0.6939  4.2443
  637MOL0     H87890   0.831   9.897   4.845 -1.9295  0.0586  0.4038
  637MOL0     H87891   0.626   9.834   4.969 -1.4254 -2.0261 -0.1349
  637MOL0     H87892   0.481   9.438   5.437 -2.4998 -1.1698  1.9058
  637MOL0     H87893   0.273   9.415   5.535 -4.2013 -0.8026 -0.8421
  637MOL0     H87894  -0.079   9.655   5.385  1.4345 -0.0292  0.0948
  637MOL0     H87895  -0.073   9.493   5.315  0.0523  2.8848 -1.9611
  637MOL0     H87896  -0.229   9.418   5.475  1.8053 -0.0513  2.6842
  637MOL0     H87897  -0.287   9.590   5.462 -0.1482  1.3147  1.8238
  637MOL0     H87898  -0.110   9.456   5.664 -0.3516 -1.0121  1.5715
  637MOL0     H87899  -0.117   9.637   5.645 -1.5689  1.0106  1.0013
  637MOL0     H87900  -0.263   9.537   5.841 -0.0485 -2.9366  0.1305
  637MOL0     H87901  -0.351   9.458   5.714 -1.0156  0.7618  0.5639
  637MOL0     H87902  -0.526   9.842   5.680 -0.1917 -0.4186 -3.0611
  637MOL0     H87903   0.095   9.648   5.222  2.0305  4.6245  1.9224
  637MOL0     H87904   0.190   9.676   5.011 -2.3341 -1.0474  3.3394
  637MOL0     H87905   0.361   9.719   5.032  0.8008 -1.5120 -0.3113
  637MOL0     H87906   0.307   9.555   4.982  0.9856  1.0190 -0.0569
  638MOL0     O87907  10.663   8.275   2.971  0.3612  0.0492  0.7010
  638MOL0     C87908  10.593   8.227   2.886  0.5542 -0.0497  0.1434
  638MOL0     O87909  10.635   8.148   2.780 -0.3542  0.9913  0.1809
  638MOL0     C87910  10.769   8.120   2.765 -1.2175  0.4765  0.5224
  638MOL0     C87911  10.839   8.204   2.687 -0.2809 -0.8900 -0.0106
  638MOL0     C87912  10.975   8.176   2.669 -0.5156  0.1430  0.2073
  638MOL0     C87913  11.041   8.060   2.727  0.1974 -0.3886  0.4428
  638MOL0     O87914  11.177   8.048   2.693  0.2333  0.7485  0.1253
  638MOL0     C87915  11.254   7.957   2.782  0.3946 -0.4394 -0.1386
  638MOL0     C87916  11.399   7.973   2.750 -0.9207  0.2128  0.2581
  638MOL0     C87917  11.440   8.114   2.785 -0.0105  0.3822  0.0727
  638MOL0     C87918  11.593   8.123   2.788 -0.5874 -0.7583 -0.2693
  638MOL0     C87919  11.666   8.257   2.754  0.0670  0.0006 -0.4963
  638MOL0     C87920  11.661   8.344   2.875  0.2068  0.0703  0.6283
  638MOL0     C87921  11.718   8.486   2.828  0.3183 -0.3656 -0.6759
  638MOL0     C87922  11.697   8.594   2.944  0.1727  0.9415 -0.0264
  638MOL0     N87923  11.796   8.702   2.945 -0.2641 -0.2410  0.8658
  638MOL0     C87924  11.932   8.688   2.970  0.2809 -0.5166  0.3906
  638MOL0     C87925  11.978   8.814   2.978 -1.0992 -0.2303  0.1101
  638MOL0     C87926  12.118   8.871   3.010  0.4540  0.0198 -0.1801
  638MOL0     C87927  12.186   8.960   2.905 -0.4979 -0.0824  0.2179
  638MOL0     C87928  12.234   8.889   2.781  0.7020 -0.8761  0.5677
  638MOL0     C87929  12.302   8.985   2.667  0.2289 -0.7921  0.1750
  638MOL0     O87930  12.353   9.101   2.729  0.0506  0.3420  0.2388
  638MOL0     C87931  12.468   9.087   2.810  0.0997  0.5813  0.1734
  638MOL0     C87932  12.495   9.185   2.909  1.0543  0.0842 -0.1497
  638MOL0     C87933  12.610   9.185   2.992  1.0017  0.2484  0.3795
  638MOL0     C87934  12.606   9.308   3.079  0.7655  0.7521 -0.1932
  638MOL0     C87935  12.702   9.075   2.996  0.8748 -0.6654  0.3758
  638MOL0     C87936  12.815   9.058   3.082 -0.9750  0.4466  0.3759
  638MOL0     O87937  12.855   8.932   3.103 -0.2114 -0.6486 -0.6002
  638MOL0     C87938  12.969   8.923   3.171  0.0891 -0.0106  0.6362
  638MOL0     C87939  12.992   8.965   3.305 -0.5049 -0.4525  0.8728
  638MOL0     C87940  13.118   8.934   3.369  0.0796 -0.1657 -0.7351
  638MOL0     C87941  13.208   8.845   3.302  0.0532 -0.6451 -0.2015
  638MOL0     O87942  13.325   8.803   3.352 -0.7310  0.4762  0.5537
  638MOL0     C87943  13.362   8.841   3.489  0.4517 -0.3703 -0.6241
  638MOL0     C87944  13.504   8.798   3.507 -0.4806 -0.6198  0.3503
  638MOL0     C87945  13.518   8.659   3.565 -0.3408 -1.0821  0.2985
  638MOL0     C87946  13.498   8.554   3.458 -0.1301 -0.2059  0.6504
  638MOL0     C87947  13.552   8.429   3.523  0.1531  0.1244  0.4555
  638MOL0     C87948  13.478   8.307   3.462 -0.4899  0.4583  0.3465
  638MOL0     C87949  13.479   8.302   3.304 -0.7849 -0.3898 -1.6625
  638MOL0     C87950  13.464   8.154   3.253  0.2268  0.3621 -0.0717
  638MOL0    Cl87951  13.294   8.102   3.255 -0.4005  0.4763 -0.0878
  638MOL0     C87952  13.172   8.797   3.169 -0.7397 -0.3120 -0.2629
  638MOL0     C87953  13.060   8.844   3.106 -0.0722  1.0704 -0.2526
  638MOL0     O87954  12.868   9.165   3.116  0.1672  0.0000  0.1045
  638MOL0     C87955  12.659   8.974   2.904  0.9004  0.4761 -0.0267
  638MOL0     C87956  12.550   8.977   2.813  0.1898 -0.4795 -0.5176
  638MOL0     N87957  11.879   8.901   2.952  0.5118 -0.4897  0.4437
  638MOL0     N87958  11.773   8.835   2.923  0.3235 -0.0265  0.6876
  638MOL0     C87959  10.959   7.980   2.808 -0.6209 -0.0006 -0.9096
  638MOL0     C87960  10.821   8.003   2.825  0.8111 -0.1174 -0.2254
  638MOL0     C87961  10.443   8.253   2.884 -0.1652 -0.4583  0.7190
  638MOL0     C87962  10.364   8.204   2.778  0.1985  1.0402 -0.4927
  638MOL0     C87963  10.227   8.232   2.759 -0.6152 -0.1082  0.1684
  638MOL0     C87964  10.156   8.298   2.854  0.4546 -0.9708  0.2353
  638MOL0     O87965  10.023   8.314   2.825  0.8755  0.3927  0.5506
  638MOL0     C87966   9.951   8.398   2.914 -0.2953 -0.2465  0.4133
  638MOL0     C87967   9.798   8.424   2.868  0.1800  0.0184 -0.2618
  638MOL0     C87968   9.713   8.477   2.995 -0.1991  0.0387  0.5575
  638MOL0     C87969   9.579   8.521   2.939 -0.0571  0.1660 -0.5298
  638MOL0     C87970   9.487   8.414   2.940 -0.1591  0.6560  0.3388
  638MOL0     C87971   9.407   8.331   2.927 -0.3605  0.2574  0.9207
  638MOL0     C87972  10.230   8.345   2.962 -0.3964  0.4263 -1.0944
  638MOL0     C87973  10.368   8.318   2.981  0.1213  0.1747  0.6202
  638MOL0     C87974  10.427   8.365   3.112  0.3694 -0.5603  0.7401
  638MOL0     H87975  10.795   8.290   2.638 -1.6146 -2.3305 -1.4679
  638MOL0     H87976  11.014   8.247   2.597  0.7157  0.0949  0.8033
  638MOL0     H87977  11.229   7.852   2.764  0.2174 -0.1732 -1.5455
  638MOL0     H87978  11.229   7.959   2.888 -0.9194 -3.5498 -0.2812
  638MOL0     H87979  11.461   7.903   2.808  0.7591  1.3939 -0.0540
  638MOL0     H87980  11.422   7.951   2.645 -0.6514 -1.8734  0.6925
  638MOL0     H87981  11.398   8.179   2.707  0.4307  1.1634  0.4782
  638MOL0     H87982  11.414   8.148   2.886  0.1064 -0.2250  0.3117
  638MOL0     H87983  11.633   8.092   2.885  0.9450  1.1332 -0.2258
  638MOL0     H87984  11.627   8.047   2.718  1.1525  1.4715 -2.0085
  638MOL0     H87985  11.619   8.309   2.670  0.3218  3.1760  1.1565
  638MOL0     H87986  11.770   8.239   2.726  0.2664  1.3601 -0.7266
  638MOL0     H87987  11.555   8.351   2.900  0.4881 -1.4081  2.4188
  638MOL0     H87988  11.708   8.304   2.964 -1.3305 -0.0821  1.4044
  638MOL0     H87989  11.665   8.521   2.739  0.0003  0.1097 -0.3082
  638MOL0     H87990  11.825   8.479   2.807  1.0891  0.3246  2.4523
  638MOL0     H87991  11.595   8.635   2.941  0.6503  2.1263 -0.8920
  638MOL0     H87992  11.705   8.530   3.032 -1.0442 -0.4533 -0.8950
  638MOL0     H87993  11.980   8.593   2.987 -1.3496 -1.8939 -2.0665
  638MOL0     H87994  12.186   8.788   3.030  1.2822  0.8891  0.6983
  638MOL0     H87995  12.096   8.928   3.101 -1.5458  1.7921 -1.6533
  638MOL0     H87996  12.126   9.049   2.886  1.0774  0.4245 -3.1525
  638MOL0     H87997  12.272   8.993   2.964 -1.1783 -0.3291  1.3689
  638MOL0     H87998  12.305   8.812   2.814  2.1070  0.3877  0.6019
  638MOL0     H87999  12.146   8.841   2.739 -0.5790  0.8201  1.2071
  638MOL0     H88000  12.379   8.924   2.619  0.7118 -0.3131  0.3329
  638MOL0     H88001  12.234   9.010   2.585  2.3441  0.7099 -1.2121
  638MOL0     H88002  12.425   9.268   2.908  2.1151  1.1348  2.9351
  638MOL0     H88003  12.611   9.281   3.185  0.6452  1.5424  0.0210
  638MOL0     H88004  12.522   9.373   3.055  0.4237  1.4555  2.5440
  638MOL0     H88005  12.696   9.367   3.063  1.0723  0.4480  0.3623
  638MOL0     H88006  12.917   9.017   3.363 -0.3791  0.6775  0.0598
  638MOL0     H88007  13.136   8.985   3.463  4.1340 -0.0834 -1.3846
  638MOL0     H88008  13.357   8.949   3.506 -3.1001 -0.1980 -1.8544
  638MOL0     H88009  13.307   8.789   3.568  0.3461 -0.0812 -0.5057
  638MOL0     H88010  13.557   8.801   3.411  0.3042 -1.2450  0.7454
  638MOL0     H88011  13.552   8.882   3.557 -2.2985  0.2157  0.7614
  638MOL0     H88012  13.447   8.645   3.648 -1.7162  1.4843 -0.3477
  638MOL0     H88013  13.619   8.659   3.607  0.2124 -2.8585 -0.9472
  638MOL0     H88014  13.561   8.584   3.374 -2.7496 -0.5593 -1.5602
  638MOL0     H88015  13.391   8.551   3.435 -0.0965  0.8048  0.3055
  638MOL0     H88016  13.660   8.414   3.514 -0.1986 -1.3330 -2.8726
  638MOL0     H88017  13.529   8.425   3.630  1.4252 -0.4133  0.7284
  638MOL0     H88018  13.375   8.302   3.497 -0.9571 -0.6351 -1.0910
  638MOL0     H88019  13.524   8.214   3.497  1.0844  0.3796 -1.6887
  638MOL0     H88020  13.576   8.335   3.266  0.7122 -2.6422 -0.0841
  638MOL0     H88021  13.400   8.362   3.259 -0.5482  0.7067 -0.6483
  638MOL0     H88022  13.533   8.092   3.311  0.9975  0.2256 -1.1054
  638MOL0     H88023  13.509   8.148   3.153  3.4228 -0.9321  1.3104
  638MOL0     H88024  13.243   8.729   3.123 -1.4152  2.0304 -5.4053
  638MOL0     H88025  13.034   8.804   3.008  3.2964 -2.3620  0.0162
  638MOL0     H88026  12.718   8.885   2.885 -0.2179  0.4443 -4.1377
  638MOL0     H88027  12.537   8.888   2.752 -0.9486 -0.4677 -0.3109
  638MOL0     H88028  10.998   7.896   2.864  0.8911  1.3504  0.1716
  638MOL0     H88029  10.756   7.939   2.883 -0.0685  1.0814  0.1583
  638MOL0     H88030  10.407   8.148   2.695 -3.0772 -1.2606 -0.8198
  638MOL0     H88031  10.171   8.193   2.674 -1.7643 -0.4727  1.0599
  638MOL0     H88032   9.948   8.366   3.019 -1.4660 -2.9250 -0.3252
  638MOL0     H88033  10.003   8.493   2.907  0.0930 -0.5356 -0.9078
  638MOL0     H88034   9.756   8.329   2.834  1.5681 -0.7291  0.0044
  638MOL0     H88035   9.797   8.503   2.793  1.3139  2.2404  1.9078
  638MOL0     H88036   9.707   8.402   3.074  2.1608 -1.3111 -0.4269
  638MOL0     H88037   9.761   8.564   3.039 -0.1039  0.0459  0.4414
  638MOL0     H88038   9.589   8.559   2.837  0.5134  2.0754  0.1983
  638MOL0     H88039   9.554   8.609   2.999  2.1700  1.3022 -1.1549
  638MOL0     H88040   9.321   8.270   2.910 -1.0695  1.5336 -0.2741
  638MOL0     H88041  10.167   8.400   3.031 -3.9325 -4.1918 -0.1690
  638MOL0     H88042  10.497   8.446   3.092  1.4299 -1.9396 -1.5162
  638MOL0     H88043  10.354   8.402   3.185  0.7207 -3.5056  2.7700
  638MOL0     H88044  10.478   8.280   3.159  2.8492 -0.0038 -0.7729
  639MOL0     O88045   2.329   1.840   1.215  0.4826 -0.0636  0.2582
  639MOL0     C88046   2.330   1.963   1.240 -0.5218 -0.4921  0.0818
  639MOL0     O88047   2.376   2.058   1.151  0.5364 -0.7046  0.2373
  639MOL0     C88048   2.472   2.015   1.059 -0.6770  0.3986  0.1240
  639MOL0     C88049   2.606   2.002   1.100 -0.3676 -0.0861  0.6737
  639MOL0     C88050   2.705   1.954   1.014 -0.1129 -0.5344  0.1382
  639MOL0     C88051   2.666   1.939   0.880 -0.3373 -0.1111  0.5013
  639MOL0     O88052   2.758   1.890   0.792  0.0283  0.7212 -0.0266
  639MOL0     C88053   2.813   1.991   0.712  0.6639 -0.4276 -0.1836
  639MOL0     C88054   2.931   2.064   0.781 -0.7489 -0.8965  0.2856
  639MOL0     C88055   3.004   2.160   0.690  0.5066 -0.1621  0.7935
  639MOL0     C88056   3.098   2.087   0.603 -0.4452  0.0138  0.7070
  639MOL0     C88057   3.227   2.168   0.588 -0.4685  0.6442  0.4006
  639MOL0     C88058   3.323   2.101   0.490 -0.3410 -0.5790  0.6145
  639MOL0     C88059   3.470   2.171   0.481 -0.0633  0.1709 -0.0202
  639MOL0     C88060   3.558   2.119   0.361  0.2085  0.0522 -0.9010
  639MOL0     N88061   3.645   2.001   0.406  1.3430 -0.5477  0.9483
  639MOL0     C88062   3.705   1.978   0.522 -0.2256 -1.2856 -1.2039
  639MOL0     C88063   3.767   1.861   0.514 -0.5999 -0.4017  0.0504
  639MOL0     C88064   3.849   1.791   0.613 -0.6851  0.3892 -0.0510
  639MOL0     C88065   3.988   1.767   0.561 -0.0462 -0.1640 -0.4626
  639MOL0     C88066   4.062   1.703   0.679 -0.7376  0.3380 -0.3921
  639MOL0     C88067   4.212   1.681   0.637 -0.2823 -0.0312  1.1726
  639MOL0     O88068   4.300   1.635   0.743  0.2454 -0.0751 -0.3367
  639MOL0     C88069   4.429   1.598   0.719 -0.6115 -0.8486 -0.6981
  639MOL0     C88070   4.481   1.570   0.593 -0.5113 -0.3759  0.1951
  639MOL0     C88071   4.620   1.522   0.581 -1.0404 -1.1264 -0.6613
  639MOL0     C88072   4.661   1.478   0.442 -0.3116 -0.7620  0.1896
  639MOL0     C88073   4.710   1.535   0.690  0.4669 -0.5978  0.7607
  639MOL0     C88074   4.859   1.497   0.690  0.4017 -0.0027 -0.3816
  639MOL0     O88075   4.924   1.513   0.817 -0.0023  0.1979  0.1035
  639MOL0     C88076   5.058   1.500   0.813 -0.4498 -0.3362 -0.2719
  639MOL0     C88077   5.122   1.377   0.841 -0.5756 -0.0789 -0.5732
  639MOL0     C88078   5.259   1.374   0.834 -0.4512  0.5313  1.1581
  639MOL0     C88079   5.335   1.480   0.800  0.5042  0.0002  0.3912
  639MOL0     O88080   5.475   1.465   0.812 -0.6313  0.6248 -0.7219
  639MOL0     C88081   5.555   1.584   0.831  0.4716  0.5830  0.3288
  639MOL0     C88082   5.688   1.572   0.907 -0.3634 -0.4747 -0.9841
  639MOL0     C88083   5.670   1.524   1.052  0.1636 -1.2681  0.2167
  639MOL0     C88084   5.799   1.464   1.104  0.7795 -0.5642  0.4165
  639MOL0     C88085   5.902   1.577   1.134  0.7566  0.2433 -0.4551
  639MOL0     C88086   6.030   1.543   1.202  1.2343  0.5849 -0.2969
  639MOL0     C88087   6.005   1.484   1.340 -1.0666  0.4201 -0.6848
  639MOL0     C88088   6.137   1.465   1.428  0.4502 -0.2008 -0.0833
  639MOL0    Cl88089   6.107   1.388   1.585  0.1917  0.3192 -0.3717
  639MOL0     C88090   5.266   1.595   0.758  0.2822  0.5952 -0.6937
  639MOL0     C88091   5.131   1.608   0.761 -0.3437  0.3844  0.2745
  639MOL0     O88092   4.923   1.480   0.588 -0.2391 -0.7417 -0.2209
  639MOL0     C88093   4.656   1.581   0.807 -0.5938  0.5728 -0.0523
  639MOL0     C88094   4.523   1.606   0.827 -0.2142 -0.6960  0.1840
  639MOL0     N88095   3.736   1.807   0.388 -0.1692  0.0289 -1.0320
  639MOL0     N88096   3.668   1.894   0.318  0.0787  0.0911 -0.0816
  639MOL0     C88097   2.535   1.957   0.831 -0.5199 -0.1615 -0.3498
  639MOL0     C88098   2.440   1.995   0.920 -0.3294  0.4614 -0.7853
  639MOL0     C88099   2.256   1.999   1.371  0.1930  0.5578  0.0009
  639MOL0     C88100   2.209   1.889   1.455 -0.7292  0.6673  0.0179
  639MOL0     C88101   2.142   1.916   1.571  0.2377  0.4380  0.0306
  639MOL0     C88102   2.128   2.045   1.623 -0.1282 -0.6362 -0.4949
  639MOL0     O88103   2.079   2.070   1.747 -0.0403  0.6050 -0.0934
  639MOL0     C88104   1.948   2.128   1.749 -0.0986  0.8586 -0.0900
  639MOL0     C88105   1.844   2.031   1.819 -0.3624 -0.1488  0.4590
  639MOL0     C88106   1.888   1.997   1.957 -0.7057  0.1543  0.0168
  639MOL0     C88107   1.815   1.873   2.007 -0.1052  0.3565 -0.4138
  639MOL0     C88108   1.879   1.799   2.125  0.1600  0.1331  0.2832
  639MOL0     C88109   1.933   1.734   2.211  0.6062  0.0731 -0.8028
  639MOL0     C88110   2.190   2.152   1.546  0.1393  0.5005 -0.0176
  639MOL0     C88111   2.241   2.129   1.417 -0.3556 -0.0375 -0.1247
  639MOL0     C88112   2.288   2.255   1.345 -0.1299  0.9309  0.3177
  639MOL0     H88113   2.629   2.021   1.205  3.2879  0.0283 -0.0048
  639MOL0     H88114   2.810   1.940   1.036 -0.4617 -0.2216  2.1834
  639MOL0     H88115   2.741   2.069   0.685  1.7166  0.6961  0.1142
  639MOL0     H88116   2.835   1.948   0.614 -0.1718  0.4145 -0.7609
  639MOL0     H88117   2.890   2.123   0.863 -1.8470 -0.6181 -0.4358
  639MOL0     H88118   3.002   1.996   0.829 -0.2944 -0.6824 -0.0708
  639MOL0     H88119   2.935   2.214   0.625  2.9956 -1.1023 -2.9615
  639MOL0     H88120   3.058   2.235   0.748  0.3235  1.1499 -0.6613
  639MOL0     H88121   3.122   1.988   0.645  2.2779  1.3468  2.5662
  639MOL0     H88122   3.053   2.077   0.503  1.2456  2.9612 -0.4760
  639MOL0     H88123   3.267   2.170   0.690 -2.6973  1.9386  1.3311
  639MOL0     H88124   3.203   2.273   0.568 -0.9187  0.2991 -0.9589
  639MOL0     H88125   3.328   1.994   0.512 -2.7151 -0.7650  0.4751
  639MOL0     H88126   3.276   2.090   0.392  0.7796 -3.1653  0.2743
  639MOL0     H88127   3.531   2.167   0.571  2.3262 -1.2663 -1.5860
  639MOL0     H88128   3.443   2.277   0.468 -1.6601 -0.2489 -0.2920
  639MOL0     H88129   3.490   2.087   0.282  1.5570  2.6345 -3.2837
  639MOL0     H88130   3.603   2.213   0.331 -2.1636  2.0745  1.3821
  639MOL0     H88131   3.711   2.043   0.609  4.3393 -1.7246 -0.9198
  639MOL0     H88132   3.809   1.691   0.633 -0.2827  0.1387 -0.4781
  639MOL0     H88133   3.842   1.854   0.702 -1.8666 -0.4367  0.4723
  639MOL0     H88134   3.986   1.690   0.483  1.7214  0.3688 -1.1000
  639MOL0     H88135   4.040   1.850   0.512  0.7863 -0.4759 -0.1420
  639MOL0     H88136   4.056   1.746   0.780  3.7038 -4.2352  2.3048
  639MOL0     H88137   4.020   1.603   0.682  0.1567 -0.2622 -3.8584
  639MOL0     H88138   4.210   1.610   0.553 -4.0793  0.8564  0.3526
  639MOL0     H88139   4.251   1.779   0.607 -0.6593 -0.2174 -0.0075
  639MOL0     H88140   4.419   1.581   0.505  2.5873 -0.8765 -2.2334
  639MOL0     H88141   4.591   1.519   0.369  1.1307 -1.9068 -1.9362
  639MOL0     H88142   4.675   1.371   0.428  3.7466 -0.2743 -0.6966
  639MOL0     H88143   4.748   1.535   0.408 -0.6630  0.3412  1.0962
  639MOL0     H88144   5.070   1.292   0.884  1.7868 -1.3912 -0.1941
  639MOL0     H88145   5.312   1.285   0.867 -0.3982 -0.8004 -2.1136
  639MOL0     H88146   5.576   1.630   0.734  2.2184 -1.6264 -0.4495
  639MOL0     H88147   5.489   1.656   0.880  0.5915  1.2009 -0.4088
  639MOL0     H88148   5.753   1.508   0.846  0.0979 -2.2458  1.2429
  639MOL0     H88149   5.736   1.670   0.903 -1.5028  0.0736 -4.1689
  639MOL0     H88150   5.591   1.449   1.059 -0.2456 -0.8374  0.2587
  639MOL0     H88151   5.631   1.604   1.116 -3.6627 -1.9800 -0.9818
  639MOL0     H88152   5.836   1.394   1.029 -1.1260  1.5937 -2.7915
  639MOL0     H88153   5.775   1.412   1.197  1.1903 -0.7607  0.4140
  639MOL0     H88154   5.933   1.615   1.036 -0.4542 -3.0843 -2.2863
  639MOL0     H88155   5.850   1.656   1.189 -1.0797 -2.3577  1.8483
  639MOL0     H88156   6.080   1.640   1.216  0.5954  1.2279 -2.1690
  639MOL0     H88157   6.086   1.482   1.130  1.9522  0.3476  0.4445
  639MOL0     H88158   5.957   1.386   1.340 -0.1206 -0.0875  0.6831
  639MOL0     H88159   5.946   1.556   1.397 -1.1522 -1.1735  1.3876
  639MOL0     H88160   6.159   1.571   1.441 -1.4248  0.1051  0.9415
  639MOL0     H88161   6.208   1.406   1.370  1.0136 -1.3323  1.6783
  639MOL0     H88162   5.328   1.679   0.728  2.1543 -0.8606 -1.0815
  639MOL0     H88163   5.078   1.700   0.736 -1.0037  0.1907  0.9485
  639MOL0     H88164   4.721   1.600   0.892  2.4377 -0.4133 -1.9888
  639MOL0     H88165   4.494   1.642   0.926  1.3236 -0.2377  0.5008
  639MOL0     H88166   2.518   1.945   0.724  0.1748 -0.4815 -0.4350
  639MOL0     H88167   2.338   2.018   0.891 -0.2746  0.6569 -0.8286
  639MOL0     H88168   2.237   1.791   1.419 -1.1468  1.4131 -2.5565
  639MOL0     H88169   2.108   1.824   1.619  1.4832  0.6636  1.4072
  639MOL0     H88170   1.950   2.220   1.808 -0.6367  0.1556  1.0682
  639MOL0     H88171   1.918   2.174   1.655  2.0796 -0.1973 -1.3729
  639MOL0     H88172   1.854   1.936   1.766  2.3094  0.2746  0.0969
  639MOL0     H88173   1.740   2.063   1.803 -0.1359 -0.7425 -3.1616
  639MOL0     H88174   1.995   1.974   1.958 -0.8881 -0.9453 -1.8889
  639MOL0     H88175   1.868   2.076   2.030  1.5431 -1.6354  2.7641
  639MOL0     H88176   1.803   1.800   1.926  1.9907  1.4345 -1.7913
  639MOL0     H88177   1.713   1.900   2.036 -0.5429 -1.7174  0.1768
  639MOL0     H88178   1.969   1.688   2.301 -0.7915 -0.8401 -0.6708
  639MOL0     H88179   2.179   2.249   1.592  0.3969 -0.1223  1.4212
  639MOL0     H88180   2.297   2.335   1.419  1.1294 -1.4427  2.8891
  639MOL0     H88181   2.385   2.235   1.300 -1.3295 -2.4496 -1.1207
  639MOL0     H88182   2.218   2.289   1.268  1.4136  0.7189 -1.2326
  640MOL0     O88183   5.650   5.266   0.193  0.0791  0.1316  0.9662
  640MOL0     C88184   5.734   5.182   0.158  0.3881 -0.2619 -0.1010
  640MOL0     O88185   5.873   5.208   0.157 -0.0513  0.4524  0.4174
  640MOL0     C88186   5.917   5.334   0.180 -0.1195  0.6152 -0.1120
  640MOL0     C88187   6.054   5.345   0.226 -0.0765 -0.7797 -0.5897
  640MOL0     C88188   6.115   5.466   0.238  0.0149 -0.0196 -0.3903
  640MOL0     C88189   6.050   5.585   0.196 -0.5044 -0.2358 -0.3745
  640MOL0     O88190   6.108   5.714   0.213  0.8888 -0.0626 -0.2213
  640MOL0     C88191   6.236   5.734   0.267 -0.6017  0.0468  0.1245
  640MOL0     C88192   6.244   5.883   0.269 -0.2918 -0.4379  0.2674
  640MOL0     C88193   6.250   5.950   0.131  0.2481  0.2985 -0.2103
  640MOL0     C88194   6.351   6.064   0.138  0.1385 -0.7074  0.7465
  640MOL0     C88195   6.495   6.012   0.104  0.0402  0.0055  0.0439
  640MOL0     C88196   6.596   6.116   0.161 -0.3200  0.4412 -0.4086
  640MOL0     C88197   6.741   6.083   0.130  0.0119  0.1252  0.8961
  640MOL0     C88198   6.841   6.195   0.171  0.3780 -0.3392  0.1209
  640MOL0     N88199   6.971   6.126   0.191 -0.4653 -0.2458 -0.3587
  640MOL0     C88200   7.041   6.115   0.314  0.1159  0.3266  0.7578
  640MOL0     C88201   7.175   6.086   0.280  0.3638  0.3755 -0.1073
  640MOL0     C88202   7.296   6.070   0.367  0.5718  0.0338 -0.0229
  640MOL0     C88203   7.282   5.936   0.448 -0.9124 -0.5649 -0.1497
  640MOL0     C88204   7.406   5.932   0.540 -0.7349  0.9185  1.2103
  640MOL0     C88205   7.396   5.821   0.635  0.1783  0.1659  0.3580
  640MOL0     O88206   7.461   5.839   0.761 -0.0842 -0.1809 -0.1131
  640MOL0     C88207   7.602   5.825   0.772  1.0157 -0.6335 -0.3562
  640MOL0     C88208   7.657   5.815   0.902  0.8945 -0.8940  0.1183
  640MOL0     C88209   7.792   5.804   0.926  0.5444 -0.1261 -0.1615
  640MOL0     C88210   7.840   5.824   1.074  0.4479 -0.5590 -0.3908
  640MOL0     C88211   7.885   5.785   0.821  0.0665  0.3233 -0.4438
  640MOL0     C88212   8.021   5.721   0.821  0.6326  0.3665 -0.4889
  640MOL0     O88213   8.102   5.735   0.708  0.2539  0.2733 -0.0113
  640MOL0     C88214   8.244   5.710   0.725 -0.0593 -0.3357  0.4069
  640MOL0     C88215   8.301   5.588   0.759 -0.4388 -0.0735  0.1084
  640MOL0     C88216   8.437   5.585   0.779 -0.8507  0.5351  0.0559
  640MOL0     C88217   8.522   5.700   0.765  0.6184  0.0817  0.2392
  640MOL0     O88218   8.653   5.693   0.795  0.2794 -0.2144 -0.5252
  640MOL0     C88219   8.676   5.665   0.934 -0.7854  0.3340  0.8666
  640MOL0     C88220   8.824   5.692   0.963 -0.7258  0.1606 -0.1050
  640MOL0     C88221   8.857   5.839   0.940  0.2418  0.3785 -0.4318
  640MOL0     C88222   8.909   5.874   0.801  0.2489 -0.9038  0.2274
  640MOL0     C88223   8.912   6.027   0.810  0.3630 -0.4415 -0.1984
  640MOL0     C88224   8.953   6.087   0.684 -0.1392 -0.0012  0.7016
  640MOL0     C88225   9.101   6.062   0.646  0.0498  0.4561  0.3421
  640MOL0     C88226   9.167   6.174   0.563  0.8154  0.3247 -0.4588
  640MOL0    Cl88227   9.333   6.123   0.518 -0.2034  0.0385  0.2438
  640MOL0     C88228   8.461   5.817   0.720  0.2808  0.1164 -0.5357
  640MOL0     C88229   8.325   5.819   0.678  0.1117  0.6081 -0.0446
  640MOL0     O88230   8.042   5.657   0.921  0.4185  0.1584  0.6560
  640MOL0     C88231   7.827   5.805   0.692  1.2871  0.6187  0.9352
  640MOL0     C88232   7.691   5.824   0.665  0.9796  0.0039 -0.5552
  640MOL0     N88233   7.181   6.083   0.152  0.5064 -0.5547 -0.1574
  640MOL0     N88234   7.066   6.093   0.098 -0.0557  0.1475  0.3585
  640MOL0     C88235   5.921   5.580   0.148  0.2563  0.1609  0.6342
  640MOL0     C88236   5.858   5.457   0.131  0.0706  0.0268 -0.7215
  640MOL0     C88237   5.681   5.053   0.105 -0.6200 -0.0516  0.3973
  640MOL0     C88238   5.778   4.964   0.066 -0.4709 -0.1820 -0.1970
  640MOL0     C88239   5.749   4.833   0.026 -0.1097 -0.4493  0.4005
  640MOL0     C88240   5.618   4.800   0.010 -0.5482  0.1272 -0.2023
  640MOL0     O88241   5.572   4.677  -0.028 -0.4199  0.2014 -0.5294
  640MOL0     C88242   5.668   4.573  -0.063 -0.1737  0.3926 -0.2036
  640MOL0     C88243   5.730   4.609  -0.196 -0.4799 -0.3543  0.9570
  640MOL0     C88244   5.814   4.491  -0.253 -0.1633  0.2645 -0.3639
  640MOL0     C88245   5.870   4.514  -0.398  0.8661  0.0827 -0.8353
  640MOL0     C88246   5.998   4.590  -0.381 -0.6286  0.5907 -1.2086
  640MOL0     C88247   6.097   4.653  -0.354  0.3757 -1.0540  0.2300
  640MOL0     C88248   5.524   4.903   0.014  0.5400  0.5427 -0.1604
  640MOL0     C88249   5.548   5.019   0.077 -0.0237  0.1437  0.3895
  640MOL0     C88250   5.434   5.120   0.098 -0.3524  0.7352 -0.2316
  640MOL0     H88251   6.112   5.263   0.268 -0.2340 -1.5752 -1.8548
  640MOL0     H88252   6.209   5.478   0.291 -0.0688  0.5228 -0.3618
  640MOL0     H88253   6.318   5.693   0.207 -1.5637 -3.8777  1.1729
  640MOL0     H88254   6.235   5.695   0.369 -0.4098  1.4008  0.6496
  640MOL0     H88255   6.150   5.924   0.305 -0.6719 -1.0034 -0.0631
  640MOL0     H88256   6.328   5.912   0.333 -0.2701  1.6374 -0.6197
  640MOL0     H88257   6.280   5.866   0.067  1.1708 -2.2777  3.3002
  640MOL0     H88258   6.157   5.999   0.101 -0.4520 -0.2739  0.9530
  640MOL0     H88259   6.335   6.147   0.068 -0.9495 -0.7284  0.9502
  640MOL0     H88260   6.343   6.113   0.236  1.7848  0.7406  0.2092
  640MOL0     H88261   6.500   5.997  -0.004  0.5108 -0.9085  0.1761
  640MOL0     H88262   6.511   5.917   0.156 -1.3367  1.4856  3.4591
  640MOL0     H88263   6.559   6.211   0.121 -0.5877  0.4712 -0.0993
  640MOL0     H88264   6.577   6.130   0.268  0.0812 -3.2354  0.2683
  640MOL0     H88265   6.759   6.059   0.025 -0.4482  0.5119  0.7272
  640MOL0     H88266   6.761   5.991   0.186  1.6220  0.4288  0.8694
  640MOL0     H88267   6.845   6.281   0.104  2.3095 -2.5704 -2.9087
  640MOL0     H88268   6.819   6.244   0.266  3.8432 -0.3401  1.0670
  640MOL0     H88269   6.993   6.118   0.412  0.3384  1.6464  0.8504
  640MOL0     H88270   7.306   6.152   0.439  2.3381 -2.1020  2.3798
  640MOL0     H88271   7.388   6.078   0.307  0.2188 -1.7624 -0.8733
  640MOL0     H88272   7.186   5.932   0.500 -0.9400  1.0532 -0.0220
  640MOL0     H88273   7.291   5.853   0.376 -0.9601 -0.7661  0.0767
  640MOL0     H88274   7.495   5.931   0.478 -1.6776  0.7524 -0.1883
  640MOL0     H88275   7.391   6.026   0.594  0.5783  3.3696 -2.3258
  640MOL0     H88276   7.291   5.820   0.666  0.3754  0.7690  1.0660
  640MOL0     H88277   7.409   5.722   0.590 -0.7300  0.4361 -0.5397
  640MOL0     H88278   7.583   5.821   0.981 -3.0141 -0.8512 -3.2241
  640MOL0     H88279   7.946   5.849   1.082 -0.1788  1.7671  2.2502
  640MOL0     H88280   7.812   5.734   1.129 -0.0772 -0.3329 -0.2865
  640MOL0     H88281   7.800   5.914   1.122  2.0755  0.1909 -0.3624
  640MOL0     H88282   8.235   5.504   0.781  0.2398 -1.7465 -3.5664
  640MOL0     H88283   8.478   5.488   0.805  0.3575  0.6522 -1.2533
  640MOL0     H88284   8.610   5.721   1.000 -1.6665  0.0333  0.2601
  640MOL0     H88285   8.667   5.558   0.955 -2.9610  0.5065  1.0418
  640MOL0     H88286   8.836   5.670   1.069 -3.0806 -1.2612 -0.0775
  640MOL0     H88287   8.884   5.621   0.905 -1.0978  1.5278 -2.2977
  640MOL0     H88288   8.944   5.855   1.004 -0.3573 -0.6630  0.7039
  640MOL0     H88289   8.771   5.902   0.968 -0.0576  0.0889 -0.6898
  640MOL0     H88290   8.841   5.847   0.719 -0.7847 -0.4560  0.9186
  640MOL0     H88291   9.008   5.831   0.784  2.3007  2.7102  1.8232
  640MOL0     H88292   8.818   6.074   0.839  0.4911  1.8562 -2.9661
  640MOL0     H88293   8.983   6.060   0.886 -0.6051  0.4742  0.3426
  640MOL0     H88294   8.940   6.195   0.695 -0.9516  0.3621 -2.6491
  640MOL0     H88295   8.888   6.058   0.601 -0.8438 -0.6908  1.4751
  640MOL0     H88296   9.103   5.966   0.593 -2.6434  0.6262 -0.2362
  640MOL0     H88297   9.162   6.053   0.737 -0.6208  2.7172  1.0879
  640MOL0     H88298   9.168   6.268   0.617  0.1835  2.2708 -3.5575
  640MOL0     H88299   9.116   6.193   0.468  3.2616  0.5897 -1.7886
  640MOL0     H88300   8.516   5.908   0.699 -0.2063  0.0615 -2.1496
  640MOL0     H88301   8.284   5.909   0.633 -1.4711  0.0908  0.3189
  640MOL0     H88302   7.875   5.809   0.595 -1.3336 -0.6316 -0.5129
  640MOL0     H88303   7.669   5.843   0.560 -2.3979  2.5140  0.4461
  640MOL0     H88304   5.880   5.674   0.110 -0.9591  0.3585  2.3468
  640MOL0     H88305   5.768   5.449   0.072  0.1831 -2.6084 -0.6590
  640MOL0     H88306   5.882   4.995   0.073 -0.0054 -1.8083  0.7461
  640MOL0     H88307   5.839   4.774   0.020  0.4595  0.1160  2.6481
  640MOL0     H88308   5.749   4.567   0.009  0.5126 -0.0207 -0.9942
  640MOL0     H88309   5.615   4.477  -0.069 -2.0807  1.2855  1.3265
  640MOL0     H88310   5.804   4.688  -0.180  0.5613 -1.0419 -0.2847
  640MOL0     H88311   5.660   4.647  -0.270  1.4934  0.4726 -0.5755
  640MOL0     H88312   5.896   4.462  -0.188 -0.4169 -1.2036 -0.6581
  640MOL0     H88313   5.751   4.402  -0.258  1.8167 -1.1319 -3.6002
  640MOL0     H88314   5.802   4.567  -0.465 -0.9986 -0.0449  0.8729
  640MOL0     H88315   5.888   4.421  -0.453  0.8352  0.5442 -1.6448
  640MOL0     H88316   6.178   4.721  -0.334  1.1032 -2.2056  1.3560
  640MOL0     H88317   5.420   4.873   0.003  0.7307 -0.9187  1.5728
  640MOL0     H88318   5.425   5.151   0.202 -1.1389 -0.1923 -0.0152
  640MOL0     H88319   5.442   5.208   0.034  1.3543  1.9244  1.5108
  640MOL0     H88320   5.339   5.071   0.076  0.7313 -1.3346 -0.5269
  641MOL0     O88321   4.567   2.023   4.692 -0.2071 -0.2117  0.2446
  641MOL0     C88322   4.558   2.145   4.707 -0.0804 -0.1705  0.0933
  641MOL0     O88323   4.627   2.214   4.802 -0.0103  0.4310 -0.1250
  641MOL0     C88324   4.734   2.146   4.863 -0.5849 -0.4743 -0.0201
  641MOL0     C88325   4.832   2.073   4.787  0.6561 -0.9991  0.4548
  641MOL0     C88326   4.954   2.029   4.848  0.1950 -0.6672  0.5459
  641MOL0     C88327   4.986   2.070   4.974  0.0110 -0.4291  0.5859
  641MOL0     O88328   5.101   2.041   5.028 -0.0138  0.3545 -0.4352
  641MOL0     C88329   5.122   1.903   5.064 -0.1965  0.1543 -0.6386
  641MOL0     C88330   5.249   1.848   4.998  0.6693 -0.0942 -0.9941
  641MOL0     C88331   5.277   1.700   5.047  0.0566 -0.6704 -0.5641
  641MOL0     C88332   5.412   1.663   4.981 -0.1293  0.4764  0.1290
  641MOL0     C88333   5.439   1.518   4.999  0.6053  0.2728 -0.0201
  641MOL0     C88334   5.595   1.493   4.989  0.8308 -0.1225  0.2470
  641MOL0     C88335   5.659   1.359   5.042 -0.2301  0.2494 -0.2877
  641MOL0     C88336   5.609   1.224   4.991 -0.2169 -0.4844 -0.5555
  641MOL0     N88337   5.679   1.122   5.073  0.4243 -0.5121 -0.0498
  641MOL0     C88338   5.818   1.092   5.071  0.0055 -0.1475  0.2376
  641MOL0     C88339   5.840   1.026   5.180 -0.3469 -0.0134 -0.4056
  641MOL0     C88340   5.979   1.000   5.225 -0.3751  0.2922 -0.6928
  641MOL0     C88341   6.058   1.127   5.258  0.0560 -0.4360  0.2259
  641MOL0     C88342   6.201   1.096   5.307 -0.1436  0.1749 -0.2418
  641MOL0     C88343   6.283   1.212   5.353 -0.5480  0.4624  0.0401
  641MOL0     O88344   6.414   1.161   5.398 -0.2068 -0.1969  0.0552
  641MOL0     C88345   6.508   1.258   5.419  0.0064  0.6175  0.1052
  641MOL0     C88346   6.490   1.399   5.425  0.8068  0.3012  0.2945
  641MOL0     C88347   6.596   1.494   5.435 -0.3859  0.1102  0.0162
  641MOL0     C88348   6.560   1.641   5.420  0.0599 -0.0634  0.0555
  641MOL0     C88349   6.728   1.446   5.468 -0.3527 -0.1402 -0.0668
  641MOL0     C88350   6.843   1.530   5.500  0.5308 -0.4316  0.0965
  641MOL0     O88351   6.971   1.483   5.487  1.0558  0.0383 -0.1485
  641MOL0     C88352   7.069   1.561   5.541 -1.2417 -0.4755 -0.6844
  641MOL0     C88353   7.164   1.641   5.474  0.5720 -0.6217 -0.7125
  641MOL0     C88354   7.286   1.686   5.535 -0.2856 -0.0521 -0.4333
  641MOL0     C88355   7.301   1.656   5.668  1.0092 -0.6964  0.4344
  641MOL0     O88356   7.413   1.695   5.734  0.5105 -0.2667  0.4958
  641MOL0     C88357   7.536   1.637   5.675  0.5970  0.1334 -0.1786
  641MOL0     C88358   7.659   1.693   5.741  0.4785 -0.7567  0.7670
  641MOL0     C88359   7.788   1.642   5.680 -0.1702  0.4270 -0.1746
  641MOL0     C88360   7.916   1.701   5.741  0.1076 -0.1046  0.2197
  641MOL0     C88361   8.028   1.602   5.716  0.2084 -1.0041  0.0926
  641MOL0     C88362   8.167   1.668   5.757  1.2384  0.0568 -0.7400
  641MOL0     C88363   8.288   1.570   5.735  0.3781  0.9157  0.2524
  641MOL0     C88364   8.421   1.615   5.787 -0.6591 -0.1333 -0.1917
  641MOL0    Cl88365   8.403   1.768   5.886 -0.0339 -0.1892 -0.1946
  641MOL0     C88366   7.203   1.598   5.750  0.5789  0.4169  0.8341
  641MOL0     C88367   7.092   1.548   5.678  0.4309 -0.0109  0.2096
  641MOL0     O88368   6.821   1.642   5.544 -0.3910  0.2093 -0.2879
  641MOL0     C88369   6.746   1.306   5.473 -0.0525  0.1523  0.2192
  641MOL0     C88370   6.641   1.217   5.447  0.3192 -0.3107  0.0477
  641MOL0     N88371   5.715   0.996   5.243 -0.1745  0.0136  0.4138
  641MOL0     N88372   5.620   1.051   5.177  0.2885  0.7090 -0.2664
  641MOL0     C88373   4.889   2.136   5.049 -0.0386 -0.4818 -0.3234
  641MOL0     C88374   4.765   2.170   4.998  0.2159 -0.7954  0.4653
  641MOL0     C88375   4.455   2.224   4.629  0.0348 -0.4695 -0.2099
  641MOL0     C88376   4.359   2.153   4.554  0.3778  0.5809 -0.1094
  641MOL0     C88377   4.268   2.200   4.470 -0.2966  0.2422  0.5279
  641MOL0     C88378   4.257   2.340   4.469  0.3902 -0.9718 -0.3129
  641MOL0     O88379   4.173   2.405   4.377 -0.1681  0.2898  1.0196
  641MOL0     C88380   4.147   2.325   4.256 -0.3614  0.1865 -0.5134
  641MOL0     C88381   4.090   2.412   4.146 -0.2786 -0.1310 -0.9392
  641MOL0     C88382   3.951   2.468   4.164  0.0148 -0.3647  0.1422
  641MOL0     C88383   3.846   2.376   4.114  0.2036  0.3630 -0.6025
  641MOL0     C88384   3.824   2.374   3.970 -0.7553 -1.0365 -0.6286
  641MOL0     C88385   3.789   2.388   3.855  0.1586 -0.5005 -0.2714
  641MOL0     C88386   4.344   2.416   4.550  0.6109 -0.5012 -0.0484
  641MOL0     C88387   4.442   2.371   4.628 -0.1988  0.6438  0.8969
  641MOL0     C88388   4.511   2.472   4.717 -0.3677 -0.0460 -0.6981
  641MOL0     H88389   4.826   2.053   4.681  3.1593 -0.1254  0.0733
  641MOL0     H88390   5.026   1.964   4.799 -1.0016 -1.2172 -0.5444
  641MOL0     H88391   5.036   1.849   5.021  1.6486 -0.7899 -3.4603
  641MOL0     H88392   5.127   1.879   5.170 -1.3513 -2.0464 -1.0114
  641MOL0     H88393   5.236   1.849   4.890 -0.1049  3.7935 -1.0259
  641MOL0     H88394   5.333   1.915   5.023  1.5976 -1.1156 -1.3138
  641MOL0     H88395   5.277   1.688   5.156  1.8756  1.8973 -0.1981
  641MOL0     H88396   5.200   1.631   5.013 -1.2399 -0.2503  1.3585
  641MOL0     H88397   5.410   1.681   4.873 -4.8765  2.0188  0.2245
  641MOL0     H88398   5.496   1.727   5.010  0.7537 -0.0948 -1.0434
  641MOL0     H88399   5.389   1.459   4.922  2.3619 -0.8311 -0.3728
  641MOL0     H88400   5.418   1.495   5.104  0.7717 -0.6289 -0.1720
  641MOL0     H88401   5.625   1.513   4.886 -1.4807  1.4763 -0.1968
  641MOL0     H88402   5.648   1.563   5.055 -1.1987  2.8037 -0.9611
  641MOL0     H88403   5.668   1.353   5.151 -0.7848 -2.4713 -0.3256
  641MOL0     H88404   5.763   1.367   5.009 -0.1612  1.7623  0.2272
  641MOL0     H88405   5.503   1.227   5.018  0.0354 -1.3461  0.6088
  641MOL0     H88406   5.621   1.208   4.884  0.4449 -0.6990 -0.4570
  641MOL0     H88407   5.894   1.132   5.005 -1.7893  0.6083 -1.4918
  641MOL0     H88408   6.037   0.944   5.151  0.2379  2.7301 -2.1792
  641MOL0     H88409   5.976   0.934   5.312  0.9000 -0.6467 -1.3236
  641MOL0     H88410   6.054   1.188   5.167 -1.6211 -1.3109 -0.3290
  641MOL0     H88411   6.001   1.171   5.341 -0.4367  2.0155 -1.3023
  641MOL0     H88412   6.197   1.031   5.395 -0.7966  1.3419  0.6163
  641MOL0     H88413   6.247   1.044   5.223 -1.3957  0.2244 -0.9811
  641MOL0     H88414   6.297   1.291   5.278  0.8036 -0.7032 -1.0010
  641MOL0     H88415   6.234   1.255   5.440  1.8171  3.1420  0.2299
  641MOL0     H88416   6.389   1.436   5.413  0.7107 -0.3755 -1.1612
  641MOL0     H88417   6.473   1.667   5.358  1.0628 -0.3486 -1.5251
  641MOL0     H88418   6.649   1.678   5.369 -0.3304  2.2585  0.9401
  641MOL0     H88419   6.557   1.686   5.519  2.6861  0.4404 -0.0449
  641MOL0     H88420   7.140   1.676   5.374 -1.0259 -0.4408 -0.2879
  641MOL0     H88421   7.368   1.722   5.473 -1.6217 -1.1709 -3.0064
  641MOL0     H88422   7.527   1.528   5.672 -1.1083  0.2564 -0.7595
  641MOL0     H88423   7.544   1.674   5.572 -0.1412 -1.2205 -0.7535
  641MOL0     H88424   7.660   1.800   5.720 -0.9332 -0.4416  2.1441
  641MOL0     H88425   7.659   1.668   5.847 -1.1454 -2.2201  0.4607
  641MOL0     H88426   7.793   1.650   5.571  0.8383  1.3108 -0.0751
  641MOL0     H88427   7.791   1.534   5.700  0.0842  0.4086 -0.3101
  641MOL0     H88428   7.904   1.724   5.847  1.2186 -1.0526  0.5705
  641MOL0     H88429   7.935   1.798   5.693 -1.4778 -0.0330 -0.3280
  641MOL0     H88430   8.011   1.513   5.778 -5.8415  0.0412  0.4963
  641MOL0     H88431   8.019   1.569   5.612  2.5269 -0.0993 -0.4553
  641MOL0     H88432   8.168   1.701   5.862 -1.9351 -0.0868 -0.5660
  641MOL0     H88433   8.174   1.759   5.696 -0.2379  1.0573  0.4993
  641MOL0     H88434   8.298   1.544   5.629 -2.1136  0.7228  0.0069
  641MOL0     H88435   8.267   1.472   5.778 -0.2030 -0.2095 -2.4028
  641MOL0     H88436   8.497   1.645   5.715  2.5287 -1.2965  2.4149
  641MOL0     H88437   8.477   1.536   5.839 -0.1464 -0.6434 -1.4922
  641MOL0     H88438   7.225   1.573   5.853  2.9397  3.6616  1.2621
  641MOL0     H88439   7.021   1.474   5.715 -0.4791  0.1667 -1.1255
  641MOL0     H88440   6.840   1.257   5.498  1.4831  0.8892 -3.4138
  641MOL0     H88441   6.660   1.110   5.443  0.9677 -0.1472 -1.9768
  641MOL0     H88442   4.907   2.178   5.148 -0.1642  0.8245 -0.8437
  641MOL0     H88443   4.686   2.215   5.057  0.0157 -0.6121  0.0628
  641MOL0     H88444   4.348   2.046   4.563 -1.3667  0.8086  0.9859
  641MOL0     H88445   4.209   2.125   4.418  0.9659 -0.3684 -0.0860
  641MOL0     H88446   4.238   2.271   4.227  0.0890 -0.0034  1.1696
  641MOL0     H88447   4.068   2.253   4.278  0.0233  0.1600  0.8835
  641MOL0     H88448   4.093   2.355   4.052  0.0029 -0.7664 -0.5562
  641MOL0     H88449   4.158   2.492   4.116  0.2878 -0.0231  0.5824
  641MOL0     H88450   3.935   2.487   4.270  0.1204  2.6136 -0.2994
  641MOL0     H88451   3.942   2.564   4.112 -0.5843 -0.7486 -0.4840
  641MOL0     H88452   3.751   2.399   4.163  0.8883 -2.0789  2.1508
  641MOL0     H88453   3.877   2.276   4.148 -0.5635  0.5208  0.5945
  641MOL0     H88454   3.753   2.421   3.760  1.6038  3.2977  0.3176
  641MOL0     H88455   4.334   2.523   4.534 -2.5332 -0.8879 -1.2854
  641MOL0     H88456   4.613   2.501   4.688 -0.8155  1.0973 -1.1576
  641MOL0     H88457   4.449   2.562   4.721 -2.0703 -1.0943 -2.1482
  641MOL0     H88458   4.526   2.428   4.817  1.1807 -2.9711 -2.0771
  642MOL0     O88459   2.208   7.471   4.020 -0.9519  0.6007  0.4983
  642MOL0     C88460   2.261   7.366   3.973  0.2191 -0.8152  1.0621
  642MOL0     O88461   2.196   7.284   3.877 -0.7383  0.2305  0.2617
  642MOL0     C88462   2.068   7.306   3.853 -0.1864 -0.1010  0.1131
  642MOL0     C88463   1.964   7.244   3.923  0.0521 -0.2519  0.2371
  642MOL0     C88464   1.824   7.268   3.889  0.2172 -0.8949  0.5441
  642MOL0     C88465   1.796   7.350   3.772  0.8184  0.6575  0.7653
  642MOL0     O88466   1.675   7.402   3.719 -0.6117 -0.6797 -0.8179
  642MOL0     C88467   1.565   7.377   3.802 -0.6000  0.2119 -0.2884
  642MOL0     C88468   1.439   7.410   3.727  0.4738 -0.3083  0.1379
  642MOL0     C88469   1.318   7.393   3.808 -0.3887 -0.2393  0.3313
  642MOL0     C88470   1.281   7.517   3.891  0.3338 -0.0474  0.3175
  642MOL0     C88471   1.148   7.500   3.979 -0.1555 -0.1520 -0.6150
  642MOL0     C88472   1.174   7.421   4.109  1.1389 -0.0923  0.4198
  642MOL0     C88473   1.052   7.342   4.151  0.6978 -0.7992  0.0196
  642MOL0     C88474   1.054   7.211   4.078 -0.0433 -0.1986  0.3712
  642MOL0     N88475   0.951   7.124   4.126 -0.1360  0.8066 -0.0611
  642MOL0     C88476   0.939   6.995   4.090 -0.2301  1.0950  0.2907
  642MOL0     C88477   0.831   6.952   4.157  0.0547 -0.2978  0.0079
  642MOL0     C88478   0.780   6.807   4.139 -0.1183 -0.0167  0.4064
  642MOL0     C88479   0.715   6.731   4.260  0.0109 -0.1282 -0.1507
  642MOL0     C88480   0.825   6.715   4.361 -0.4357 -0.1122  0.5939
  642MOL0     C88481   0.767   6.664   4.488  0.8031 -0.2020 -1.0105
  642MOL0     O88482   0.728   6.522   4.490 -0.0585 -0.1928 -0.5375
  642MOL0     C88483   0.842   6.440   4.507  0.8427  0.4428  0.0077
  642MOL0     C88484   0.916   6.435   4.621  0.4127 -1.7241 -0.0963
  642MOL0     C88485   1.037   6.361   4.632 -0.7349  0.1591 -0.2672
  642MOL0     C88486   1.106   6.351   4.774  0.8702  1.2023  0.4545
  642MOL0     C88487   1.087   6.295   4.509  0.4782 -0.3655  0.5302
  642MOL0     C88488   1.217   6.228   4.510  0.2967  0.6715  0.5064
  642MOL0     O88489   1.239   6.146   4.397  0.1770  0.1619  0.0762
  642MOL0     C88490   1.368   6.103   4.383  0.3180  0.0817 -0.3904
  642MOL0     C88491   1.441   6.036   4.482  0.6076  0.4428 -0.2001
  642MOL0     C88492   1.570   5.993   4.461 -0.2506 -1.0956  0.5844
  642MOL0     C88493   1.632   6.010   4.338 -0.7089  0.9880  0.2708
  642MOL0     O88494   1.764   5.960   4.324  0.5146 -0.4396  0.2394
  642MOL0     C88495   1.810   5.952   4.190 -0.2923 -0.3618 -0.1567
  642MOL0     C88496   1.953   5.901   4.201  0.4991  0.5140  0.6712
  642MOL0     C88497   2.018   5.926   4.068 -0.7385 -0.2046  0.3705
  642MOL0     C88498   2.124   5.819   4.036 -0.4288  0.1818  0.1428
  642MOL0     C88499   2.162   5.801   3.885  0.4370  0.5678 -0.3760
  642MOL0     C88500   2.061   5.737   3.786 -0.0916 -0.2519 -0.2938
  642MOL0     C88501   2.137   5.708   3.654 -0.2617  0.0427  0.9372
  642MOL0     C88502   2.055   5.637   3.548 -0.1695  0.1665  0.5523
  642MOL0    Cl88503   2.158   5.554   3.421  0.0395  0.5075  0.1275
  642MOL0     C88504   1.562   6.081   4.237 -0.4538  0.4307 -0.5584
  642MOL0     C88505   1.433   6.132   4.259  0.3134  0.8218 -0.5365
  642MOL0     O88506   1.294   6.245   4.600 -0.3557  0.3843 -0.5072
  642MOL0     C88507   1.005   6.296   4.396 -0.2926 -0.8188  0.1719
  642MOL0     C88508   0.891   6.362   4.398  0.2167  0.0471 -0.2504
  642MOL0     N88509   0.779   7.047   4.237 -0.1585  0.7887 -0.3306
  642MOL0     N88510   0.847   7.150   4.214 -0.6607  0.1882  0.7842
  642MOL0     C88511   1.900   7.414   3.715 -0.0926  0.1070 -0.2063
  642MOL0     C88512   2.031   7.389   3.748  0.0007  1.1875 -0.6938
  642MOL0     C88513   2.397   7.325   4.037 -0.5029 -0.0911  0.4677
  642MOL0     C88514   2.418   7.382   4.159 -0.4050  0.3206 -1.1949
  642MOL0     C88515   2.531   7.343   4.231 -0.0667 -0.3171  0.5827
  642MOL0     C88516   2.615   7.240   4.194  0.6324  0.4797  0.2964
  642MOL0     O88517   2.724   7.187   4.265  0.1851 -0.8273 -0.3865
  642MOL0     C88518   2.739   7.235   4.401 -0.1591 -0.6878  0.2133
  642MOL0     C88519   2.822   7.362   4.399 -0.4963 -0.0249 -0.4550
  642MOL0     C88520   2.966   7.360   4.327 -0.3461 -0.0612 -0.4970
  642MOL0     C88521   3.051   7.243   4.372  0.1952  0.3677  0.4536
  642MOL0     C88522   3.194   7.262   4.348 -0.4334 -0.5723 -0.7284
  642MOL0     C88523   3.310   7.292   4.353 -0.2647 -0.4095  0.2026
  642MOL0     C88524   2.594   7.186   4.062  0.3292 -0.0350  0.2910
  642MOL0     C88525   2.485   7.229   3.982 -0.0745  0.1976  0.3917
  642MOL0     C88526   2.473   7.165   3.848  0.4893 -0.8264  0.2696
  642MOL0     H88527   1.976   7.174   4.005 -0.3474  1.3015  1.6734
  642MOL0     H88528   1.744   7.227   3.950 -1.2668  0.3723 -0.4723
  642MOL0     H88529   1.561   7.434   3.895 -1.5113 -0.6475  0.2180
  642MOL0     H88530   1.550   7.272   3.829 -5.2631  1.4378  3.3364
  642MOL0     H88531   1.440   7.513   3.690 -3.5306 -0.1550 -0.0687
  642MOL0     H88532   1.427   7.347   3.638  1.2017 -0.5202  0.1823
  642MOL0     H88533   1.243   7.362   3.734  0.6440 -0.9535 -0.4580
  642MOL0     H88534   1.341   7.315   3.880  3.0718  1.8252  1.7111
  642MOL0     H88535   1.358   7.555   3.960 -1.3162  2.6261  0.8488
  642MOL0     H88536   1.279   7.602   3.822  1.1927 -0.7288 -0.5691
  642MOL0     H88537   1.077   7.448   3.915  0.2749  0.1561 -1.3464
  642MOL0     H88538   1.117   7.602   4.003 -0.6384 -0.8154  1.8476
  642MOL0     H88539   1.262   7.360   4.086  0.1766 -0.5263 -2.5087
  642MOL0     H88540   1.209   7.494   4.183 -0.5943  0.7325  0.4669
  642MOL0     H88541   0.964   7.398   4.120 -0.0211 -1.7283  0.3078
  642MOL0     H88542   1.051   7.333   4.260  0.2227  1.3216  0.2189
  642MOL0     H88543   1.042   7.237   3.972  2.2928  0.3152  0.1996
  642MOL0     H88544   1.148   7.160   4.099  1.8855  2.1800 -1.8980
  642MOL0     H88545   1.010   6.939   4.030  0.1226 -1.9334  3.2474
  642MOL0     H88546   0.871   6.749   4.116 -0.6130 -0.3329 -0.8565
  642MOL0     H88547   0.724   6.786   4.047  1.3766 -1.6392 -0.2028
  642MOL0     H88548   0.634   6.792   4.303  0.0462  0.0297 -0.3061
  642MOL0     H88549   0.676   6.633   4.233  2.2065 -1.1142  0.0457
  642MOL0     H88550   0.902   6.647   4.322  2.4096  2.3913  1.4807
  642MOL0     H88551   0.875   6.812   4.372 -1.3914  0.2149  2.4613
  642MOL0     H88552   0.828   6.685   4.576 -1.2907  2.2511 -0.0162
  642MOL0     H88553   0.679   6.726   4.506  2.1045  1.0719  1.6153
  642MOL0     H88554   0.882   6.498   4.703 -1.1001 -1.9838 -0.4905
  642MOL0     H88555   1.025   6.356   4.847  1.7443  1.2882  1.4398
  642MOL0     H88556   1.180   6.429   4.796  3.0818 -0.8638  0.6806
  642MOL0     H88557   1.149   6.251   4.785  0.2883  0.0358 -5.0179
  642MOL0     H88558   1.391   6.008   4.574  0.2510  0.1032 -0.4903
  642MOL0     H88559   1.619   5.937   4.540  1.9282  0.7291  0.6242
  642MOL0     H88560   1.743   5.880   4.143 -0.7214  0.1463 -0.3319
  642MOL0     H88561   1.798   6.040   4.126  0.5958 -1.6854 -2.2242
  642MOL0     H88562   2.009   5.954   4.279  3.4088 -0.9133 -0.2978
  642MOL0     H88563   1.942   5.795   4.226  0.2480  0.4916  0.4674
  642MOL0     H88564   2.066   6.023   4.084 -4.3640  1.6955  0.7324
  642MOL0     H88565   1.943   5.925   3.988  0.2925  2.8257 -0.8224
  642MOL0     H88566   2.096   5.720   4.073 -1.6753 -0.4172 -2.1982
  642MOL0     H88567   2.214   5.847   4.092  0.1071 -1.1486 -0.0042
  642MOL0     H88568   2.181   5.905   3.854  0.3361  1.8833  3.5032
  642MOL0     H88569   2.254   5.742   3.894 -0.0056  0.0198  0.6412
  642MOL0     H88570   1.975   5.804   3.780 -0.5996 -0.8652 -0.0233
  642MOL0     H88571   2.040   5.638   3.828  1.8452 -1.3830 -1.8738
  642MOL0     H88572   2.227   5.651   3.680 -0.4123 -0.0288  1.3061
  642MOL0     H88573   2.158   5.802   3.601  0.6850  0.4215  1.9322
  642MOL0     H88574   1.990   5.708   3.497  3.7618  1.7527 -2.8270
  642MOL0     H88575   1.987   5.570   3.601 -1.6406  1.0598 -0.1543
  642MOL0     H88576   1.607   6.103   4.141 -0.4037 -1.0311 -0.8858
  642MOL0     H88577   1.381   6.185   4.181 -0.0024 -1.0082 -1.6223
  642MOL0     H88578   1.045   6.253   4.305 -0.6555  0.4552 -0.6084
  642MOL0     H88579   0.830   6.359   4.308 -0.8759 -1.0421  0.4801
  642MOL0     H88580   1.890   7.476   3.626  0.5144  0.9710  0.3150
  642MOL0     H88581   2.117   7.430   3.695  0.5833 -0.0365 -0.7382
  642MOL0     H88582   2.373   7.469   4.206 -2.1155 -1.3617  0.4492
  642MOL0     H88583   2.564   7.397   4.319  4.1160 -0.5500 -0.6368
  642MOL0     H88584   2.642   7.253   4.448 -0.3367  2.9701 -1.1558
  642MOL0     H88585   2.786   7.150   4.450 -0.3151 -1.7545 -1.4094
  642MOL0     H88586   2.835   7.387   4.505 -0.1672 -0.7442 -0.3227
  642MOL0     H88587   2.767   7.442   4.349  0.6382 -0.7581 -3.0283
  642MOL0     H88588   2.946   7.353   4.219  3.6840 -1.7181 -1.3236
  642MOL0     H88589   3.028   7.450   4.316  2.4029 -1.7145  0.5752
  642MOL0     H88590   3.013   7.170   4.300 -0.8290  2.7477 -1.5680
  642MOL0     H88591   3.031   7.216   4.476  1.3595  0.8429  0.8161
  642MOL0     H88592   3.416   7.307   4.359 -0.1889 -0.9476  0.3048
  642MOL0     H88593   2.658   7.112   4.016  0.6783 -1.6363  3.1104
  642MOL0     H88594   2.461   7.232   3.763  4.1695  0.3639  0.5363
  642MOL0     H88595   2.570   7.121   3.823  0.0044 -1.4828 -0.4979
  642MOL0     H88596   2.385   7.099   3.847 -0.2301  0.1254 -0.4323
  643MOL0     O88597   5.883   7.612   2.082  0.0819 -0.2690  0.0860
  643MOL0     C88598   5.899   7.507   2.024 -0.0779 -0.0540  0.4710
  643MOL0     O88599   5.835   7.467   1.907  0.4351 -0.3337 -1.0556
  643MOL0     C88600   5.737   7.533   1.839 -0.2310  0.8279 -0.4757
  643MOL0     C88601   5.719   7.474   1.709 -0.6719 -0.1413  0.0167
  643MOL0     C88602   5.641   7.543   1.613 -0.5275 -0.3662 -0.8129
  643MOL0     C88603   5.579   7.671   1.648 -0.0355  0.4061  1.4838
  643MOL0     O88604   5.510   7.755   1.567  0.1684 -0.0444 -0.2463
  643MOL0     C88605   5.510   7.752   1.427 -0.0757 -0.1914 -0.1074
  643MOL0     C88606   5.470   7.888   1.359  0.3010  1.4051  0.7643
  643MOL0     C88607   5.587   7.975   1.331 -0.6283  1.0728  0.4095
  643MOL0     C88608   5.534   8.099   1.267 -0.5578 -0.3398  1.0290
  643MOL0     C88609   5.604   8.218   1.316  0.1306  0.0643 -0.5576
  643MOL0     C88610   5.737   8.236   1.237 -0.5392 -0.9728 -0.8677
  643MOL0     C88611   5.825   8.355   1.288 -0.2439 -0.6929 -0.3060
  643MOL0     C88612   5.880   8.342   1.429 -0.3287  0.4036 -0.2114
  643MOL0     N88613   5.992   8.244   1.449  0.7792 -0.3519 -0.6232
  643MOL0     C88614   6.107   8.226   1.381  0.3512 -0.0396  0.5870
  643MOL0     C88615   6.164   8.115   1.425  0.2375  0.2588 -0.0901
  643MOL0     C88616   6.293   8.074   1.360 -0.5002  0.8045 -1.1554
  643MOL0     C88617   6.387   8.009   1.478  1.2696 -0.2606 -0.6669
  643MOL0     C88618   6.483   7.915   1.410  0.1245  0.6686  0.2360
  643MOL0     C88619   6.585   7.844   1.496  0.6094 -0.6793 -0.7149
  643MOL0     O88620   6.533   7.733   1.559  0.1677 -0.8820 -0.2565
  643MOL0     C88621   6.610   7.640   1.626 -0.0619 -0.8756  0.1362
  643MOL0     C88622   6.749   7.655   1.651  0.1771  0.4789  0.1859
  643MOL0     C88623   6.829   7.555   1.706 -0.5897 -0.2478  0.2296
  643MOL0     C88624   6.983   7.580   1.726 -0.3855  0.0698  0.1043
  643MOL0     C88625   6.761   7.437   1.749 -0.9730  0.4950 -0.5326
  643MOL0     C88626   6.835   7.309   1.785 -1.1154 -0.8307  0.8677
  643MOL0     O88627   6.767   7.209   1.841  0.7536  0.3337  0.2699
  643MOL0     C88628   6.837   7.092   1.858 -1.0806  0.9073  0.3034
  643MOL0     C88629   6.923   7.064   1.972 -0.0578 -0.2804  0.1944
  643MOL0     C88630   6.988   6.937   1.986  0.4278 -0.1769 -0.4004
  643MOL0     C88631   6.980   6.843   1.877  0.5465 -0.1150 -0.5740
  643MOL0     O88632   7.056   6.722   1.880 -0.0546  0.0528  0.2250
  643MOL0     C88633   6.992   6.595   1.857 -0.1008  0.1607  0.7945
  643MOL0     C88634   6.999   6.503   1.980 -0.1486  0.6258 -0.2805
  643MOL0     C88635   6.919   6.377   1.971 -0.1068  0.6157  0.4296
  643MOL0     C88636   6.771   6.395   2.010 -0.3050 -0.4660  0.1776
  643MOL0     C88637   6.738   6.389   2.166 -0.3389  0.8210  0.1027
  643MOL0     C88638   6.753   6.249   2.233 -0.0620 -0.3921  0.0734
  643MOL0     C88639   6.771   6.263   2.384  0.3397 -0.2145  0.7287
  643MOL0     C88640   6.795   6.138   2.460  0.1752 -0.1045  0.4229
  643MOL0    Cl88641   6.870   6.187   2.626 -0.1488  0.5165 -0.4536
  643MOL0     C88642   6.904   6.870   1.762 -0.3113 -0.3216  0.5057
  643MOL0     C88643   6.830   6.995   1.756 -0.1174  0.0564  0.2713
  643MOL0     O88644   6.951   7.301   1.745  0.5115 -0.3755 -0.2672
  643MOL0     C88645   6.622   7.430   1.721 -0.3613  0.5442 -0.3716
  643MOL0     C88646   6.550   7.530   1.664 -0.7531  0.2268 -0.4559
  643MOL0     N88647   6.088   8.067   1.533 -0.3817  0.2147  0.6031
  643MOL0     N88648   5.988   8.138   1.537  0.5607 -0.1019 -0.8038
  643MOL0     C88649   5.603   7.728   1.772 -0.3775 -0.1523 -0.6475
  643MOL0     C88650   5.677   7.658   1.872  0.6730 -0.4493  0.5764
  643MOL0     C88651   5.980   7.407   2.098 -0.0893  0.3760  0.2932
  643MOL0     C88652   5.943   7.269   2.090  0.3195 -0.4241 -0.9403
  643MOL0     C88653   6.004   7.165   2.159  0.3530  0.2468 -0.0002
  643MOL0     C88654   6.109   7.198   2.243 -0.0877 -0.5168  0.7758
  643MOL0     O88655   6.195   7.098   2.291  0.1898 -0.3248  0.8668
  643MOL0     C88656   6.165   6.951   2.293  0.2144  0.2599  0.7362
  643MOL0     C88657   6.237   6.877   2.409 -0.2435 -0.4592  0.1997
  643MOL0     C88658   6.179   6.740   2.438 -0.4097 -0.1131  0.4990
  643MOL0     C88659   6.166   6.646   2.319  0.4957 -0.2184 -0.0411
  643MOL0     C88660   6.041   6.660   2.245 -0.2278 -0.1174  0.0625
  643MOL0     C88661   5.944   6.665   2.179  0.3517 -0.4163  0.7243
  643MOL0     C88662   6.146   7.331   2.262 -0.2060 -0.6857 -0.1075
  643MOL0     C88663   6.084   7.436   2.184  0.2613  0.5780  0.0691
  643MOL0     C88664   6.123   7.570   2.211 -0.2628 -0.4306  0.1057
  643MOL0     H88665   5.775   7.386   1.679 -0.8714 -1.3762  2.8863
  643MOL0     H88666   5.641   7.508   1.510  1.7168  0.4207 -1.1414
  643MOL0     H88667   5.444   7.671   1.394  0.0875  0.1628 -1.3438
  643MOL0     H88668   5.611   7.728   1.393 -0.2490  1.2603 -1.7954
  643MOL0     H88669   5.414   7.872   1.266  1.6399  1.7946 -0.1493
  643MOL0     H88670   5.405   7.935   1.432 -2.1293 -0.6853  0.0852
  643MOL0     H88671   5.635   7.992   1.427 -0.7724 -2.8378  1.3730
  643MOL0     H88672   5.664   7.933   1.265 -0.5762 -1.9165  2.1703
  643MOL0     H88673   5.535   8.099   1.158 -0.9965 -0.6833  1.0252
  643MOL0     H88674   5.429   8.113   1.294 -0.7607  0.0566  0.0584
  643MOL0     H88675   5.611   8.202   1.424 -1.7571  1.4719 -0.1672
  643MOL0     H88676   5.538   8.305   1.305 -0.5073  0.3768  3.9908
  643MOL0     H88677   5.805   8.151   1.235  0.3801 -0.2752 -0.1327
  643MOL0     H88678   5.709   8.258   1.133 -0.3319  0.5425 -0.6380
  643MOL0     H88679   5.770   8.449   1.275  1.8709  0.6270 -0.2446
  643MOL0     H88680   5.911   8.370   1.221  1.4741 -0.1716  1.8988
  643MOL0     H88681   5.897   8.443   1.466 -1.1270  0.2084  0.7307
  643MOL0     H88682   5.802   8.297   1.491  1.0841 -3.4738 -0.9811
  643MOL0     H88683   6.143   8.288   1.299  0.1806 -1.2177 -0.4092
  643MOL0     H88684   6.344   8.162   1.319  1.8160 -0.1161 -0.4336
  643MOL0     H88685   6.270   8.005   1.278 -2.9770 -0.9553  0.8745
  643MOL0     H88686   6.428   8.091   1.538 -0.8568  0.7808 -0.5215
  643MOL0     H88687   6.314   7.950   1.534 -2.3556  3.8545 -0.4812
  643MOL0     H88688   6.431   7.838   1.352  2.1887 -1.5132  1.1110
  643MOL0     H88689   6.544   7.973   1.339  3.5871 -0.3103  2.1459
  643MOL0     H88690   6.683   7.819   1.457  0.5470 -0.9186 -0.7155
  643MOL0     H88691   6.602   7.909   1.583  0.2322 -0.9913 -0.4027
  643MOL0     H88692   6.807   7.742   1.621  0.2501  1.0372  1.8854
  643MOL0     H88693   6.994   7.571   1.834 -3.3023 -2.7461  0.2876
  643MOL0     H88694   7.001   7.680   1.686  3.2219 -0.2535  0.5463
  643MOL0     H88695   7.040   7.509   1.664 -1.5807 -0.1557 -0.7639
  643MOL0     H88696   6.929   7.137   2.052  0.4349 -0.5432  0.4021
  643MOL0     H88697   7.055   6.936   2.072 -1.5770  1.1737  1.2762
  643MOL0     H88698   6.889   6.607   1.822  0.8575 -0.6926 -2.7460
  643MOL0     H88699   7.046   6.541   1.779  2.0447 -0.1090  2.3752
  643MOL0     H88700   7.103   6.481   2.006  0.1912  0.2976 -1.8397
  643MOL0     H88701   6.961   6.576   2.053 -3.0688  0.3612 -1.4001
  643MOL0     H88702   6.960   6.301   2.038  0.5642  0.1018 -0.5411
  643MOL0     H88703   6.922   6.337   1.870  2.8970 -0.2641  0.7676
  643MOL0     H88704   6.710   6.319   1.961 -0.0234 -0.0403 -0.8458
  643MOL0     H88705   6.740   6.492   1.970  1.4065  1.1268  2.4281
  643MOL0     H88706   6.793   6.468   2.216 -0.3283  0.1661  1.1573
  643MOL0     H88707   6.634   6.423   2.176  0.1294  2.2865  0.1545
  643MOL0     H88708   6.843   6.197   2.198  0.2540  0.3736 -0.2600
  643MOL0     H88709   6.666   6.188   2.206  0.7278 -2.6530  2.2023
  643MOL0     H88710   6.692   6.322   2.431  1.3670 -0.8105  3.3765
  643MOL0     H88711   6.860   6.326   2.386  1.2620 -1.3366 -1.2834
  643MOL0     H88712   6.863   6.071   2.407  0.2889 -0.1590  0.6341
  643MOL0     H88713   6.700   6.086   2.477  0.4327 -1.5847 -2.1498
  643MOL0     H88714   6.895   6.805   1.675 -0.0722 -0.4856  0.6028
  643MOL0     H88715   6.761   7.022   1.676 -3.5535 -0.1957  2.9437
  643MOL0     H88716   6.564   7.341   1.742  0.3020 -0.4174 -2.3620
  643MOL0     H88717   6.442   7.531   1.664 -0.7735  1.9073 -0.3065
  643MOL0     H88718   5.562   7.823   1.805 -0.3416 -0.5656  0.6385
  643MOL0     H88719   5.695   7.693   1.973  3.9154 -1.8212  0.6002
  643MOL0     H88720   5.859   7.253   2.023  1.8575  0.2803 -3.1261
  643MOL0     H88721   5.968   7.066   2.133 -1.9190  1.4548 -1.8402
  643MOL0     H88722   6.057   6.942   2.303  0.1318  1.0310  0.6173
  643MOL0     H88723   6.196   6.901   2.201  2.2384 -0.4342  1.7176
  643MOL0     H88724   6.234   6.939   2.500  2.6378  1.7260 -1.0142
  643MOL0     H88725   6.346   6.872   2.398  0.2317 -0.9149  3.7144
  643MOL0     H88726   6.257   6.701   2.504  0.1232  0.4465  0.2154
  643MOL0     H88727   6.079   6.761   2.476  0.0728  0.8007  1.3375
  643MOL0     H88728   6.168   6.546   2.363  0.1339 -0.3613 -0.3391
  643MOL0     H88729   6.245   6.658   2.244 -1.6413 -0.5234 -2.5139
  643MOL0     H88730   5.860   6.680   2.114  0.7619 -1.0012  0.0399
  643MOL0     H88731   6.228   7.360   2.327 -1.1210  0.3442  0.6310
  643MOL0     H88732   6.227   7.565   2.245  0.2677 -0.1038 -1.4004
  643MOL0     H88733   6.131   7.634   2.123 -0.9994  0.1843  0.4672
  643MOL0     H88734   6.050   7.620   2.275  0.7268  0.0297  0.8913
  644MOL0     O88735   9.339   3.074   8.238 -0.0437  0.0117  0.6731
  644MOL0     C88736   9.395   3.092   8.341 -0.8122 -0.0895  0.5702
  644MOL0     O88737   9.330   3.115   8.459 -0.2510  0.0632 -0.0344
  644MOL0     C88738   9.197   3.115   8.456 -0.2262  0.0610  0.2490
  644MOL0     C88739   9.136   3.234   8.439 -0.5477  0.7579  0.5958
  644MOL0     C88740   8.996   3.235   8.445 -0.4038 -0.0119 -0.1211
  644MOL0     C88741   8.918   3.120   8.461  0.0237  0.4481 -0.9029
  644MOL0     O88742   8.779   3.116   8.466  0.4016 -0.1318  0.2027
  644MOL0     C88743   8.712   3.239   8.468 -0.2675  0.7024 -0.4160
  644MOL0     C88744   8.560   3.228   8.469 -1.0123 -0.2183  0.4072
  644MOL0     C88745   8.520   3.377   8.459 -0.3003 -0.3362 -0.0130
  644MOL0     C88746   8.367   3.399   8.476  0.4405  0.2221 -0.0133
  644MOL0     C88747   8.316   3.537   8.458  0.0542 -0.2769 -0.4883
  644MOL0     C88748   8.160   3.553   8.459  0.5395 -0.1763 -0.1521
  644MOL0     C88749   8.089   3.460   8.361 -0.5271  0.0384  0.4971
  644MOL0     C88750   7.940   3.486   8.369 -0.1434  0.3172 -0.1707
  644MOL0     N88751   7.862   3.430   8.256 -0.1664  0.4948  0.0426
  644MOL0     C88752   7.793   3.317   8.249 -0.2510 -0.2503  0.3583
  644MOL0     C88753   7.711   3.332   8.143 -1.1136  0.4745 -0.6339
  644MOL0     C88754   7.603   3.241   8.080 -0.4589  0.6331 -0.1820
  644MOL0     C88755   7.663   3.129   7.992 -0.4652 -0.0569  0.3707
  644MOL0     C88756   7.743   3.187   7.873  0.4296 -0.4397  0.3374
  644MOL0     C88757   7.807   3.092   7.782 -0.0881  0.7370 -0.3354
  644MOL0     O88758   7.898   3.013   7.855  0.0375 -0.0322 -0.3463
  644MOL0     C88759   8.028   3.068   7.867 -0.2955 -0.6553 -0.1170
  644MOL0     C88760   8.073   3.108   7.994  0.4998 -0.2620  0.7052
  644MOL0     C88761   8.202   3.156   8.017  0.2893 -0.3341 -0.0637
  644MOL0     C88762   8.251   3.192   8.154 -0.4740  0.4175 -0.8813
  644MOL0     C88763   8.287   3.164   7.906 -0.6741  0.6245  0.6617
  644MOL0     C88764   8.425   3.154   7.928 -0.4361 -0.0338  0.1821
  644MOL0     O88765   8.468   3.046   8.008  0.5891  0.0057  0.4833
  644MOL0     C88766   8.596   3.017   8.007 -0.3130 -0.8498 -0.1131
  644MOL0     C88767   8.657   2.928   7.911  0.2836 -0.3124  0.3379
  644MOL0     C88768   8.793   2.894   7.925 -0.5818  0.0357 -0.0076
  644MOL0     C88769   8.873   2.937   8.033 -0.6420  0.3407 -0.8294
  644MOL0     O88770   8.999   2.881   8.067  0.1728 -0.0182  0.7920
  644MOL0     C88771   9.092   2.930   7.963  0.0417  0.1936  0.4572
  644MOL0     C88772   9.228   2.854   7.965 -0.0058 -0.0012 -0.4177
  644MOL0     C88773   9.207   2.700   7.944 -0.0538  0.2376  0.0237
  644MOL0     C88774   9.350   2.636   7.942 -0.0323 -0.7984  0.2268
  644MOL0     C88775   9.338   2.482   7.943 -0.0719 -0.6438 -0.0160
  644MOL0     C88776   9.461   2.400   7.935 -0.0636 -0.5187 -0.3686
  644MOL0     C88777   9.567   2.445   8.026 -0.0788 -0.0453 -0.4156
  644MOL0     C88778   9.676   2.333   8.037  0.0518 -0.4460 -0.1270
  644MOL0    Cl88779   9.803   2.372   7.915 -0.2481  0.1471 -0.0229
  644MOL0     C88780   8.814   3.026   8.123  0.4049 -0.1095  0.1203
  644MOL0     C88781   8.678   3.065   8.110 -0.5810  0.7487  0.1057
  644MOL0     O88782   8.502   3.223   7.863 -0.0597  0.5052 -0.0610
  644MOL0     C88783   8.239   3.141   7.779 -0.5565  0.3501  0.1221
  644MOL0     C88784   8.113   3.092   7.755  0.0335  0.4503  0.0629
  644MOL0     N88785   7.743   3.448   8.079 -0.7950 -0.2382  0.2615
  644MOL0     N88786   7.834   3.507   8.146 -0.0421 -0.7895 -0.2434
  644MOL0     C88787   8.989   2.999   8.480 -0.0058  0.3316  0.1311
  644MOL0     C88788   9.126   2.996   8.471  0.3594  0.9966 -0.4685
  644MOL0     C88789   9.554   3.095   8.346  0.4960 -0.5941  0.4020
  644MOL0     C88790   9.619   3.156   8.454 -0.8527 -0.6461 -0.0585
  644MOL0     C88791   9.758   3.161   8.465  0.0519  1.3575  0.0349
  644MOL0     C88792   9.842   3.101   8.367  0.0143  1.0958 -0.5215
  644MOL0     O88793   9.978   3.100   8.385 -0.2381  0.1242 -0.3196
  644MOL0     C88794  10.068   3.057   8.279 -0.4096  0.6745 -0.1829
  644MOL0     C88795  10.211   3.062   8.323  0.2551  0.1078  0.1716
  644MOL0     C88796  10.313   3.093   8.216  0.4965  0.6305  0.4588
  644MOL0     C88797  10.305   3.004   8.093  0.6521  0.2583  0.8616
  644MOL0     C88798  10.358   2.869   8.116  0.3276  0.3283  0.8350
  644MOL0     C88799  10.390   2.765   8.170  0.3210 -0.3964  0.4415
  644MOL0     C88800   9.778   3.033   8.265  0.3028  0.4240  0.0290
  644MOL0     C88801   9.635   3.020   8.257  0.6663 -0.5003  0.1158
  644MOL0     C88802   9.574   2.942   8.136  0.1417 -0.0976  0.1017
  644MOL0     H88803   9.196   3.320   8.411 -2.5315  1.4770 -1.8430
  644MOL0     H88804   8.955   3.334   8.432  1.6994  0.9790  0.3036
  644MOL0     H88805   8.732   3.293   8.375 -2.4922  1.1242 -0.7178
  644MOL0     H88806   8.752   3.296   8.552 -0.1884  1.3382 -0.8787
  644MOL0     H88807   8.520   3.161   8.393 -1.7026 -1.7225  2.0545
  644MOL0     H88808   8.511   3.196   8.561 -2.5506  0.6856 -0.0513
  644MOL0     H88809   8.575   3.432   8.536 -0.3215 -1.4604  0.8425
  644MOL0     H88810   8.546   3.414   8.360 -1.9946 -0.3057 -0.4848
  644MOL0     H88811   8.332   3.325   8.403 -0.9766 -0.0793  0.9245
  644MOL0     H88812   8.328   3.357   8.569 -0.2432 -0.2206 -0.4941
  644MOL0     H88813   8.367   3.583   8.373  1.1395  1.0894  0.8464
  644MOL0     H88814   8.351   3.595   8.545 -0.8071 -0.1553 -0.2213
  644MOL0     H88815   8.122   3.527   8.558 -1.3454  2.8433  0.0656
  644MOL0     H88816   8.141   3.660   8.444  2.0225  0.0997 -0.2212
  644MOL0     H88817   8.107   3.356   8.389  2.8395  0.0325 -1.0692
  644MOL0     H88818   8.124   3.480   8.259  0.3724  0.6047  0.8933
  644MOL0     H88819   7.894   3.467   8.466 -1.5861  2.2250 -0.4108
  644MOL0     H88820   7.914   3.591   8.352  1.0426  0.4924 -0.9807
  644MOL0     H88821   7.788   3.239   8.324 -3.0528 -0.8348 -0.3028
  644MOL0     H88822   7.541   3.303   8.014 -0.5954  0.7095  0.0175
  644MOL0     H88823   7.543   3.209   8.165  2.7826  2.3784  3.0215
  644MOL0     H88824   7.730   3.066   8.050 -1.2784 -0.8295  0.4896
  644MOL0     H88825   7.585   3.062   7.954  0.5646  0.2843 -2.6161
  644MOL0     H88826   7.675   3.244   7.808 -0.5565 -1.8001  0.1494
  644MOL0     H88827   7.824   3.252   7.909  0.6346  0.4488 -1.5573
  644MOL0     H88828   7.731   3.025   7.741 -0.7900 -0.7209  3.0492
  644MOL0     H88829   7.850   3.138   7.692 -1.6441  1.2271 -0.8575
  644MOL0     H88830   7.998   3.109   8.072 -1.4783  1.1991 -1.0950
  644MOL0     H88831   8.159   3.197   8.213 -0.2510 -3.0605 -0.0239
  644MOL0     H88832   8.302   3.289   8.156  0.1744  0.0681  0.6931
  644MOL0     H88833   8.324   3.124   8.198  0.2669  0.5380 -1.8879
  644MOL0     H88834   8.596   2.888   7.831  0.2677 -2.5852  1.4265
  644MOL0     H88835   8.825   2.819   7.853  2.2207  0.6020  0.5424
  644MOL0     H88836   9.048   2.921   7.864  1.1343 -0.9973  0.0633
  644MOL0     H88837   9.114   3.034   7.989  0.8289  0.0249  0.4853
  644MOL0     H88838   9.307   2.888   7.898 -1.2813  2.6221 -0.7013
  644MOL0     H88839   9.268   2.863   8.066 -0.8498  1.0011 -0.1595
  644MOL0     H88840   9.153   2.682   7.850 -0.9417 -0.2244  0.6101
  644MOL0     H88841   9.154   2.662   8.032  1.8170  1.7338  1.9067
  644MOL0     H88842   9.411   2.676   8.024 -0.6273  0.3982  0.0963
  644MOL0     H88843   9.397   2.673   7.851 -0.8256 -1.1663 -0.3449
  644MOL0     H88844   9.301   2.444   8.039  1.0907  1.1026  1.1928
  644MOL0     H88845   9.271   2.457   7.861 -0.3013 -2.9091  0.7882
  644MOL0     H88846   9.491   2.421   7.831  0.3068  1.5660  0.1023
  644MOL0     H88847   9.433   2.296   7.952  0.6081 -1.0721 -2.3551
  644MOL0     H88848   9.522   2.463   8.125  0.4666  0.4493 -0.2517
  644MOL0     H88849   9.612   2.538   7.993 -1.2047  0.7923  0.3249
  644MOL0     H88850   9.622   2.239   8.021 -3.2352  0.6527  3.1149
  644MOL0     H88851   9.729   2.326   8.133 -0.3288 -0.1156  0.1103
  644MOL0     H88852   8.876   3.063   8.203 -2.2555 -1.3065  2.9514
  644MOL0     H88853   8.647   3.133   8.189  0.9586  1.3229  0.2391
  644MOL0     H88854   8.314   3.144   7.700  0.6022 -0.7451  1.1333
  644MOL0     H88855   8.079   3.054   7.659  1.1289 -2.0220  0.5832
  644MOL0     H88856   8.944   2.902   8.500  0.3076 -0.3059 -2.0399
  644MOL0     H88857   9.183   2.904   8.465  0.2020  0.9924 -2.8790
  644MOL0     H88858   9.552   3.206   8.523  0.4047  1.9515 -0.5903
  644MOL0     H88859   9.811   3.204   8.549  0.4528 -0.8531  0.9815
  644MOL0     H88860  10.043   2.955   8.250  1.9059  0.3844 -1.4514
  644MOL0     H88861  10.062   3.124   8.192  5.0964  0.3915 -1.1419
  644MOL0     H88862  10.241   2.973   8.378  1.3626  0.9070  0.8978
  644MOL0     H88863  10.223   3.136   8.402 -1.4339 -1.0391  1.5768
  644MOL0     H88864  10.299   3.196   8.181 -3.8275 -0.8236 -2.9381
  644MOL0     H88865  10.411   3.084   8.264 -0.0314  3.3663  2.3493
  644MOL0     H88866  10.353   3.048   8.005 -1.0094 -3.8336 -2.4204
  644MOL0     H88867  10.203   2.990   8.057  0.9045 -1.6741  0.7525
  644MOL0     H88868  10.418   2.669   8.207  0.3715 -1.0329 -1.1784
  644MOL0     H88869   9.840   2.986   8.189  1.3683 -1.1798  1.7819
  644MOL0     H88870   9.492   2.887   8.183  0.3169  1.8268  2.9620
  644MOL0     H88871   9.537   3.016   8.065  3.2578  0.7140 -0.8391
  644MOL0     H88872   9.645   2.872   8.091  0.2670 -1.3583  2.1263
  645MOL0     O88873   2.249   4.251   0.539 -0.0187 -0.4966 -0.0626
  645MOL0     C88874   2.268   4.258   0.661  0.1456 -0.5422 -0.4234
  645MOL0     O88875   2.391   4.269   0.712 -0.6126 -0.4166  0.6159
  645MOL0     C88876   2.502   4.307   0.631  0.1584  1.5531 -0.7694
  645MOL0     C88877   2.500   4.374   0.505  0.1854  0.0300 -0.6901
  645MOL0     C88878   2.616   4.370   0.431  0.6503 -0.5334  0.2490
  645MOL0     C88879   2.731   4.324   0.483 -0.2905 -0.3627  0.2736
  645MOL0     O88880   2.851   4.309   0.411 -0.6810  0.1879 -0.5605
  645MOL0     C88881   2.874   4.406   0.298  0.8179  1.0945 -0.9320
  645MOL0     C88882   3.024   4.395   0.268  0.8755 -0.3378 -0.2877
  645MOL0     C88883   3.103   4.519   0.222  0.5102  0.1165 -0.5525
  645MOL0     C88884   3.117   4.617   0.332  0.2978  0.1530 -0.3635
  645MOL0     C88885   3.180   4.753   0.295 -0.2847  0.5066  0.3969
  645MOL0     C88886   3.333   4.732   0.279  0.2191 -0.2665  0.3064
  645MOL0     C88887   3.405   4.873   0.284 -0.1092  0.6134 -0.1002
  645MOL0     C88888   3.553   4.862   0.238  0.5133 -0.2726 -0.1030
  645MOL0     N88889   3.613   4.996   0.247  0.3466  0.1148  0.1456
  645MOL0     C88890   3.592   5.089   0.155  0.7764 -0.5749 -0.7093
  645MOL0     C88891   3.653   5.203   0.198 -0.2669  0.2758 -0.0395
  645MOL0     C88892   3.638   5.342   0.135  0.6798  0.3551 -0.4017
  645MOL0     C88893   3.761   5.386   0.048 -0.3030  0.4227 -0.7697
  645MOL0     C88894   3.780   5.307  -0.083 -0.4765  0.1127  0.8563
  645MOL0     C88895   3.662   5.312  -0.177  0.4680  0.0101 -0.2214
  645MOL0     O88896   3.707   5.348  -0.313 -0.0177 -0.6292  0.4753
  645MOL0     C88897   3.625   5.432  -0.384 -0.3701 -0.2069 -0.1420
  645MOL0     C88898   3.548   5.387  -0.497 -0.5853 -0.0728  0.2822
  645MOL0     C88899   3.469   5.467  -0.575  0.0558  0.2654 -0.6930
  645MOL0     C88900   3.402   5.407  -0.696 -0.1483 -0.1061  0.3925
  645MOL0     C88901   3.448   5.598  -0.529 -0.2812 -0.2210 -0.6310
  645MOL0     C88902   3.375   5.706  -0.598 -0.1673  0.5471 -0.1526
  645MOL0     O88903   3.364   5.827  -0.531  0.0669  0.0833  0.1667
  645MOL0     C88904   3.263   5.916  -0.562  0.4940  0.1041  0.8896
  645MOL0     C88905   3.291   6.051  -0.585  0.2716  0.2744 -0.6090
  645MOL0     C88906   3.194   6.144  -0.620 -0.4247 -0.2005  0.0799
  645MOL0     C88907   3.061   6.117  -0.616  0.2841 -0.0754  0.8854
  645MOL0     O88908   2.973   6.215  -0.661 -0.0893 -0.1350 -0.0183
  645MOL0     C88909   2.846   6.208  -0.600  1.5673  0.1117 -0.1479
  645MOL0     C88910   2.759   6.324  -0.652 -0.9813  0.5750 -0.2495
  645MOL0     C88911   2.626   6.328  -0.567 -0.4743  0.4236 -0.2313
  645MOL0     C88912   2.532   6.435  -0.626 -0.0174  0.6597  0.6604
  645MOL0     C88913   2.405   6.436  -0.542 -0.1873 -0.7589 -0.6516
  645MOL0     C88914   2.293   6.483  -0.626  0.3584 -0.6133 -0.0414
  645MOL0     C88915   2.162   6.481  -0.552  0.3141 -0.2473 -0.2156
  645MOL0     C88916   2.041   6.502  -0.641  0.4338  0.7407 -0.3742
  645MOL0    Cl88917   1.895   6.451  -0.552 -0.0257  0.1562  0.2920
  645MOL0     C88918   3.025   5.988  -0.587 -0.6212  0.3861 -0.7154
  645MOL0     C88919   3.123   5.886  -0.556 -0.1892  0.5608  0.9305
  645MOL0     O88920   3.317   5.679  -0.704 -0.1217 -0.1910 -0.3751
  645MOL0     C88921   3.507   5.635  -0.406  0.6315 -0.3034 -0.3616
  645MOL0     C88922   3.599   5.555  -0.340  0.1323 -0.2798 -0.4020
  645MOL0     N88923   3.712   5.165   0.323 -0.1809  0.1303 -0.0874
  645MOL0     N88924   3.688   5.042   0.351 -0.0502 -0.3699 -0.0872
  645MOL0     C88925   2.741   4.284   0.615 -0.4461  0.1721  0.1132
  645MOL0     C88926   2.627   4.283   0.692  1.0332 -0.5956 -0.7242
  645MOL0     C88927   2.152   4.242   0.754 -1.0097 -0.5015 -0.7961
  645MOL0     C88928   2.182   4.220   0.890 -0.5376  0.4585 -0.4830
  645MOL0     C88929   2.079   4.200   0.988 -0.1004  0.5445 -0.2380
  645MOL0     C88930   1.949   4.197   0.957 -0.3016  0.1529  0.7886
  645MOL0     O88931   1.858   4.186   1.065 -0.0676 -0.4615  0.1327
  645MOL0     C88932   1.749   4.275   1.082  0.0744  0.4068  0.6072
  645MOL0     C88933   1.790   4.415   1.103  0.5999 -0.0197 -1.2420
  645MOL0     C88934   1.830   4.448   1.246  0.8972  0.3383 -0.1500
  645MOL0     C88935   1.967   4.378   1.283  0.2939  0.3028 -0.5079
  645MOL0     C88936   2.078   4.437   1.208  0.4236  0.4221 -0.7099
  645MOL0     C88937   2.160   4.498   1.150  0.3636  0.4796  0.0248
  645MOL0     C88938   1.918   4.227   0.827  0.7217  0.2192  0.6278
  645MOL0     C88939   2.014   4.245   0.721 -0.6181  0.7103  0.5288
  645MOL0     C88940   1.964   4.273   0.577 -0.1513 -0.3393 -0.2829
  645MOL0     H88941   2.413   4.430   0.472  0.0534 -0.0868 -0.5374
  645MOL0     H88942   2.612   4.414   0.332 -2.2536 -1.2850 -0.0480
  645MOL0     H88943   2.850   4.506   0.335  0.0377 -0.5072  3.5979
  645MOL0     H88944   2.813   4.386   0.209  0.5737  1.1298 -0.7752
  645MOL0     H88945   3.070   4.362   0.362  0.6510  1.9500  0.6969
  645MOL0     H88946   3.048   4.306   0.209 -0.6637 -1.6716  0.9719
  645MOL0     H88947   3.205   4.485   0.206  0.8972  1.4223 -1.0168
  645MOL0     H88948   3.056   4.567   0.135  1.2847 -0.6464 -1.4146
  645MOL0     H88949   3.021   4.653   0.370  0.7830  0.4252  0.6650
  645MOL0     H88950   3.172   4.568   0.413 -0.0976 -0.8387 -0.6827
  645MOL0     H88951   3.159   4.820   0.379  2.4298  2.9760 -0.7147
  645MOL0     H88952   3.125   4.785   0.206 -3.2220 -2.5247  0.9111
  645MOL0     H88953   3.363   4.676   0.368  0.3964 -0.5937  0.0444
  645MOL0     H88954   3.359   4.678   0.187  1.7086 -0.5782  0.8875
  645MOL0     H88955   3.404   4.911   0.387  0.1018 -1.1185  0.5872
  645MOL0     H88956   3.352   4.951   0.229 -0.8119  0.9857  1.0678
  645MOL0     H88957   3.607   4.797   0.307 -1.4294 -0.5473  1.2295
  645MOL0     H88958   3.563   4.813   0.141  0.5054  0.9219 -0.7240
  645MOL0     H88959   3.530   5.086   0.065  2.8002  0.9020 -2.2556
  645MOL0     H88960   3.625   5.411   0.219  0.9173 -0.4330  0.2934
  645MOL0     H88961   3.546   5.360   0.078 -1.2125  1.2225  2.6352
  645MOL0     H88962   3.742   5.488   0.015 -3.3046  0.7642  1.5846
  645MOL0     H88963   3.853   5.377   0.107 -0.8584 -0.4589 -0.0033
  645MOL0     H88964   3.864   5.353  -0.137 -2.2097  0.8535 -1.3408
  645MOL0     H88965   3.799   5.203  -0.057 -0.7335  0.0644  0.8493
  645MOL0     H88966   3.613   5.215  -0.167  0.8167 -0.0505  1.1937
  645MOL0     H88967   3.586   5.386  -0.150  0.3004  0.2437 -1.2859
  645MOL0     H88968   3.552   5.279  -0.513 -1.0722  0.0857 -0.9880
  645MOL0     H88969   3.299   5.384  -0.668 -0.8251  1.2392 -0.8601
  645MOL0     H88970   3.456   5.316  -0.725 -1.0769 -0.4920 -0.1960
  645MOL0     H88971   3.400   5.477  -0.780 -0.5151 -0.3660  0.1783
  645MOL0     H88972   3.395   6.082  -0.581  0.2766  0.3881 -1.4969
  645MOL0     H88973   3.231   6.244  -0.640  1.2173 -0.9277 -0.7117
  645MOL0     H88974   2.799   6.113  -0.626 -0.0616  0.8434 -0.0228
  645MOL0     H88975   2.849   6.209  -0.490 -1.6339 -0.0947  0.0370
  645MOL0     H88976   2.819   6.412  -0.628  0.9822 -0.0198 -2.5554
  645MOL0     H88977   2.748   6.315  -0.760  2.0088  1.6470 -0.7183
  645MOL0     H88978   2.635   6.345  -0.460 -0.8177 -2.2616  0.2999
  645MOL0     H88979   2.587   6.226  -0.574  0.5495  0.0725 -1.1660
  645MOL0     H88980   2.510   6.393  -0.725  5.5936 -3.2595  0.5596
  645MOL0     H88981   2.574   6.536  -0.630 -0.6899  1.0191 -4.2476
  645MOL0     H88982   2.377   6.337  -0.505 -1.5285 -1.1254 -2.5280
  645MOL0     H88983   2.420   6.502  -0.456 -0.2951  1.6016 -2.3576
  645MOL0     H88984   2.275   6.422  -0.715  0.0201 -0.1269 -0.3102
  645MOL0     H88985   2.319   6.583  -0.662 -0.9495  0.2454  1.2990
  645MOL0     H88986   2.174   6.559  -0.476 -0.3289  1.0025 -1.3691
  645MOL0     H88987   2.158   6.387  -0.496  1.1089 -0.4346 -0.4536
  645MOL0     H88988   2.044   6.443  -0.733  0.2349  0.6860 -0.3452
  645MOL0     H88989   2.044   6.603  -0.682 -0.0474  0.1964 -1.8015
  645MOL0     H88990   2.919   5.966  -0.582 -1.0979  2.4386 -0.8609
  645MOL0     H88991   3.090   5.785  -0.532  2.9000 -0.9163 -0.4882
  645MOL0     H88992   3.496   5.733  -0.361 -1.1712 -0.3600 -0.5923
  645MOL0     H88993   3.653   5.593  -0.254  0.1400  0.6380 -0.8121
  645MOL0     H88994   2.840   4.255   0.651 -0.1690  1.5344  0.4905
  645MOL0     H88995   2.626   4.264   0.798 -1.7209  1.3701 -0.2984
  645MOL0     H88996   2.287   4.219   0.920 -0.4931 -1.6881 -0.5114
  645MOL0     H88997   2.113   4.188   1.090  1.8388  4.7510 -0.1880
  645MOL0     H88998   1.691   4.273   0.989 -1.1353  1.4047  1.3024
  645MOL0     H88999   1.696   4.227   1.165 -0.1011 -2.3026 -0.9680
  645MOL0     H89000   1.707   4.486   1.090  0.9414  0.5519 -0.3681
  645MOL0     H89001   1.873   4.444   1.038  0.1513  1.7054 -1.1079
  645MOL0     H89002   1.836   4.556   1.261 -2.1099  0.5257  0.2622
  645MOL0     H89003   1.760   4.414   1.323  1.2551  2.4771  1.2169
  645MOL0     H89004   1.966   4.270   1.272 -0.7405 -0.0749  2.2668
  645MOL0     H89005   1.989   4.397   1.389 -0.1413  2.2969 -0.7224
  645MOL0     H89006   2.243   4.555   1.115 -0.3062  0.7439 -1.1769
  645MOL0     H89007   1.814   4.234   0.796  0.6935 -3.2962 -0.4856
  645MOL0     H89008   1.996   4.192   0.511  1.9310 -0.4336  0.7427
  645MOL0     H89009   1.856   4.290   0.570  0.1531  1.4401 -1.0453
  645MOL0     H89010   2.001   4.371   0.546  0.2121  0.9347  3.6413
  646MOL0     O89011   1.290   4.225   6.090 -0.0967  0.2543 -0.8178
  646MOL0     C89012   1.260   4.107   6.081 -0.5793  0.1779 -0.1341
  646MOL0     O89013   1.153   4.043   6.125  0.3525  0.5989  0.4556
  646MOL0     C89014   1.039   4.109   6.168 -0.3212  0.8700 -1.1803
  646MOL0     C89015   0.922   4.076   6.105 -0.4415 -0.3102  0.7025
  646MOL0     C89016   0.800   4.128   6.144  0.0799 -0.7055  1.2021
  646MOL0     C89017   0.790   4.217   6.250  0.9808  0.1220  0.2225
  646MOL0     O89018   0.668   4.262   6.290  0.0709 -0.5563  0.0381
  646MOL0     C89019   0.620   4.368   6.203  0.1003  0.1693  0.1388
  646MOL0     C89020   0.472   4.343   6.178 -0.2285 -0.8751 -0.1075
  646MOL0     C89021   0.392   4.336   6.315  0.0221 -0.6196  1.2355
  646MOL0     C89022   0.240   4.331   6.304 -0.4833 -0.2478 -0.8886
  646MOL0     C89023   0.184   4.196   6.311  0.1633  0.8395  0.1985
  646MOL0     C89024   0.036   4.203   6.281  0.5621  0.6824 -0.1155
  646MOL0     C89025  -0.029   4.067   6.338  0.2195 -0.1212  0.4965
  646MOL0     C89026  -0.187   4.059   6.322 -0.6536 -0.0506  0.3821
  646MOL0     N89027  -0.239   3.947   6.399  0.3219 -0.1129  0.1213
  646MOL0     C89028  -0.261   3.949   6.535 -0.0283 -0.5230  0.3801
  646MOL0     C89029  -0.288   3.832   6.572 -0.2823  0.2618  0.2346
  646MOL0     C89030  -0.296   3.762   6.707 -0.4046 -0.0017 -0.1551
  646MOL0     C89031  -0.363   3.842   6.813  0.4742  0.5496  0.1204
  646MOL0     C89032  -0.514   3.862   6.777 -0.6011  0.9248  0.1477
  646MOL0     C89033  -0.566   3.937   6.894 -0.3969 -0.2288  0.4681
  646MOL0     O89034  -0.546   3.874   7.028 -0.4245  0.3768  0.5000
  646MOL0     C89035  -0.603   3.760   7.057 -0.7986  0.4282  0.0274
  646MOL0     C89036  -0.550   3.694   7.170  0.3647 -0.3180 -0.0114
  646MOL0     C89037  -0.574   3.560   7.193  0.5332 -0.8596 -0.4810
  646MOL0     C89038  -0.502   3.489   7.300 -0.6238  0.6708  1.0897
  646MOL0     C89039  -0.665   3.492   7.110 -0.2319  0.1744  1.2049
  646MOL0     C89040  -0.716   3.357   7.139  0.2517  0.7125 -0.1002
  646MOL0     O89041  -0.697   3.303   7.261  0.4440  0.3623  0.1032
  646MOL0     C89042  -0.752   3.180   7.272 -0.8937 -0.2440 -0.1495
  646MOL0     C89043  -0.879   3.166   7.333  0.5625 -0.3333 -1.3513
  646MOL0     C89044  -0.930   3.033   7.344  0.6814 -0.6231  0.0272
  646MOL0     C89045  -0.858   2.921   7.317 -0.3652  0.3823 -0.1598
  646MOL0     O89046  -0.926   2.805   7.335  0.4766  0.3926 -0.2743
  646MOL0     C89047  -0.861   2.681   7.367 -0.1672  0.3782 -0.0615
  646MOL0     C89048  -0.907   2.641   7.504  0.3033 -0.9317  0.1536
  646MOL0     C89049  -1.059   2.604   7.524 -0.5470  0.1739  0.3669
  646MOL0     C89050  -1.093   2.566   7.669 -0.7001  0.2976  0.4487
  646MOL0     C89051  -1.230   2.488   7.682 -0.3264  0.7778  1.1117
  646MOL0     C89052  -1.356   2.576   7.691  0.5869 -0.7505 -0.4937
  646MOL0     C89053  -1.363   2.661   7.825  0.4788 -0.1585  0.0553
  646MOL0     C89054  -1.505   2.723   7.864 -0.3919  0.7208  0.1256
  646MOL0    Cl89055  -1.522   2.715   8.038  0.2166 -0.0944 -0.0150
  646MOL0     C89056  -0.734   2.938   7.253  0.0013  0.7421  0.0176
  646MOL0     C89057  -0.680   3.061   7.231  0.4862  0.4702 -0.0379
  646MOL0     O89058  -0.791   3.308   7.051  0.7641  0.6445  0.5537
  646MOL0     C89059  -0.741   3.568   7.016 -0.3260  0.1705 -0.6900
  646MOL0     C89060  -0.703   3.689   6.979  0.5050  0.0500  0.1906
  646MOL0     N89061  -0.285   3.746   6.460  0.3855 -0.3825 -0.4087
  646MOL0     N89062  -0.257   3.818   6.350  1.2357  0.2057 -0.8916
  646MOL0     C89063   0.909   4.247   6.321  0.2305 -1.1472  0.2491
  646MOL0     C89064   1.031   4.196   6.274  0.2255  0.4537 -0.2852
  646MOL0     C89065   1.360   4.028   6.005 -0.1961  0.4293  0.7543
  646MOL0     C89066   1.496   4.050   6.010 -0.6388  0.3137  0.2762
  646MOL0     C89067   1.596   3.973   5.942  0.0049  0.3592  0.2282
  646MOL0     C89068   1.549   3.870   5.850 -0.0231 -0.5347 -0.6314
  646MOL0     O89069   1.633   3.792   5.780  0.2306  1.1006  0.1709
  646MOL0     C89070   1.703   3.698   5.853  0.3488  0.2066  0.2689
  646MOL0     C89071   1.834   3.670   5.775  0.4860  0.0656  0.1497
  646MOL0     C89072   1.890   3.803   5.734  0.0781 -0.3646  0.0566
  646MOL0     C89073   2.037   3.791   5.689 -0.0362 -0.5890  0.5437
  646MOL0     C89074   2.129   3.767   5.804 -0.2567 -0.8880 -0.7731
  646MOL0     C89075   2.208   3.754   5.899 -0.1915  0.5608  0.8785
  646MOL0     C89076   1.411   3.858   5.838 -0.6005 -0.4820  0.8266
  646MOL0     C89077   1.320   3.932   5.906  0.8509 -0.5303  0.1553
  646MOL0     C89078   1.170   3.917   5.857  0.3177 -0.3772 -0.4299
  646MOL0     H89079   0.915   4.003   6.025  1.1306  0.2511  0.0236
  646MOL0     H89080   0.720   4.096   6.078 -0.0572  0.4760  0.7739
  646MOL0     H89081   0.673   4.367   6.108 -1.3040 -3.3327 -0.7552
  646MOL0     H89082   0.628   4.463   6.257  1.5220  0.1793 -0.0639
  646MOL0     H89083   0.442   4.430   6.119  2.3651  1.2162  1.4519
  646MOL0     H89084   0.449   4.254   6.118  0.0419  0.1585 -1.8024
  646MOL0     H89085   0.423   4.267   6.394  1.3853 -0.7032  0.6515
  646MOL0     H89086   0.398   4.433   6.365  1.6058 -0.8764  1.5859
  646MOL0     H89087   0.190   4.388   6.384 -2.9268  1.0110 -3.1592
  646MOL0     H89088   0.208   4.379   6.211 -1.2962 -3.6645 -2.5061
  646MOL0     H89089   0.200   4.145   6.407  2.5358 -0.5104 -0.8426
  646MOL0     H89090   0.235   4.131   6.240  2.1724  1.7371  0.7410
  646MOL0     H89091  -0.014   4.287   6.330 -0.6352  1.0214 -1.8273
  646MOL0     H89092   0.011   4.217   6.176 -0.9706 -1.4296 -0.0996
  646MOL0     H89093  -0.003   4.064   6.445  3.4887  0.5618 -0.1711
  646MOL0     H89094   0.017   3.991   6.276  0.3500  0.0764  0.3501
  646MOL0     H89095  -0.227   4.151   6.365  1.8903  0.3524  2.0804
  646MOL0     H89096  -0.210   4.054   6.215 -0.5718  1.2958  0.2911
  646MOL0     H89097  -0.244   4.028   6.608 -0.2145 -0.0551 -0.0728
  646MOL0     H89098  -0.191   3.744   6.731  0.9341  2.4265 -3.3668
  646MOL0     H89099  -0.345   3.666   6.690 -1.2519  0.6269 -1.4222
  646MOL0     H89100  -0.349   3.797   6.912 -0.0367  0.3033  0.0810
  646MOL0     H89101  -0.320   3.942   6.803  4.2530 -1.1220 -3.8387
  646MOL0     H89102  -0.524   3.917   6.683 -0.9163  1.6066  0.5718
  646MOL0     H89103  -0.566   3.766   6.769  2.3564 -0.9372  1.4595
  646MOL0     H89104  -0.504   4.026   6.907 -0.3695 -0.5226  2.8014
  646MOL0     H89105  -0.666   3.979   6.878 -0.4717 -1.1815 -2.1049
  646MOL0     H89106  -0.485   3.753   7.234  0.8806  1.4622 -2.0293
  646MOL0     H89107  -0.569   3.472   7.384 -2.3671  2.4904  0.1425
  646MOL0     H89108  -0.420   3.552   7.336 -2.0922  2.7146  0.9682
  646MOL0     H89109  -0.471   3.393   7.256  0.6096  1.7936 -0.6104
  646MOL0     H89110  -0.942   3.247   7.366 -1.4916 -0.6451 -4.2155
  646MOL0     H89111  -1.029   3.019   7.387  0.3332  2.6336  0.5959
  646MOL0     H89112  -0.899   2.602   7.302  4.0286 -2.8531  0.9230
  646MOL0     H89113  -0.752   2.680   7.356 -0.1732 -0.7316 -0.1929
  646MOL0     H89114  -0.851   2.557   7.547  0.9643  0.5879  2.4687
  646MOL0     H89115  -0.894   2.733   7.561 -1.3176 -0.5673 -0.0256
  646MOL0     H89116  -1.087   2.533   7.446  0.5620  0.6566 -0.4996
  646MOL0     H89117  -1.113   2.695   7.499  0.2177  0.1810 -1.3699
  646MOL0     H89118  -1.092   2.649   7.740  0.1022  3.1068 -2.5887
  646MOL0     H89119  -1.007   2.508   7.702 -0.8390 -0.6479 -0.7559
  646MOL0     H89120  -1.235   2.424   7.594 -0.2782 -0.0520  1.7061
  646MOL0     H89121  -1.214   2.427   7.771  3.1117 -0.4716 -0.2024
  646MOL0     H89122  -1.448   2.517   7.693 -1.6035  2.4275  1.2311
  646MOL0     H89123  -1.367   2.639   7.602  0.3709 -0.8940 -0.5709
  646MOL0     H89124  -1.288   2.741   7.819  0.4896 -0.2882 -2.2506
  646MOL0     H89125  -1.330   2.598   7.908  2.4794  0.1643 -0.4190
  646MOL0     H89126  -1.581   2.663   7.813  0.0948 -0.3501  0.6294
  646MOL0     H89127  -1.512   2.826   7.829 -1.5476  0.1681 -1.4163
  646MOL0     H89128  -0.670   2.862   7.211  1.6307  1.3840  1.2499
  646MOL0     H89129  -0.583   3.080   7.187  0.7185 -1.5279 -0.4821
  646MOL0     H89130  -0.816   3.516   6.956  1.4579 -1.3067 -1.7806
  646MOL0     H89131  -0.754   3.755   6.909  0.8613  0.7794  0.6114
  646MOL0     H89132   0.906   4.304   6.413  0.6279  0.0204 -0.4487
  646MOL0     H89133   1.120   4.213   6.334  0.9764 -3.1985 -0.1499
  646MOL0     H89134   1.532   4.132   6.071 -0.8481 -0.2893  1.2198
  646MOL0     H89135   1.703   3.990   5.940  0.0500  0.0384 -0.4626
  646MOL0     H89136   1.711   3.734   5.956 -3.7805  3.4421 -0.2989
  646MOL0     H89137   1.652   3.602   5.862 -0.8327  1.0046  3.2034
  646MOL0     H89138   1.824   3.600   5.692  0.4208 -2.5446  2.2135
  646MOL0     H89139   1.896   3.618   5.849 -0.8713  2.3608  3.1278
  646MOL0     H89140   1.830   3.844   5.652  0.8458  0.5009 -0.0881
  646MOL0     H89141   1.882   3.883   5.809 -2.5696  1.1253 -1.6451
  646MOL0     H89142   2.068   3.885   5.644  1.5563 -0.5357  1.6872
  646MOL0     H89143   2.041   3.715   5.610  0.9634  1.8740 -1.9106
  646MOL0     H89144   2.280   3.754   5.978 -0.5004 -1.8145  1.2281
  646MOL0     H89145   1.372   3.791   5.762 -6.1339  1.7860  1.1765
  646MOL0     H89146   1.162   3.879   5.755  3.2384 -1.1049 -0.5058
  646MOL0     H89147   1.119   3.850   5.926 -1.3598 -0.0611 -1.3280
  646MOL0     H89148   1.121   4.014   5.860 -0.9037 -0.9990  0.7989
  647MOL0     O89149   3.911  11.068   0.809  0.4310  0.3091  0.4009
  647MOL0     C89150   3.882  11.131   0.709  0.0144  0.1624  0.3853
  647MOL0     O89151   3.964  11.167   0.609  0.3031  0.0201  0.3085
  647MOL0     C89152   4.101  11.135   0.617 -0.4315 -0.1874 -1.1446
  647MOL0     C89153   4.182  11.039   0.691  0.3248 -0.7154  0.0613
  647MOL0     C89154   4.318  11.023   0.661  0.1971  0.1115 -0.3771
  647MOL0     C89155   4.382  11.100   0.568 -0.6131 -0.7005  0.1212
  647MOL0     O89156   4.513  11.085   0.531  0.9412 -0.1422  0.8084
  647MOL0     C89157   4.591  11.201   0.532 -1.1609 -0.4328  0.0820
  647MOL0     C89158   4.720  11.147   0.585 -0.3594 -0.8416 -0.9730
  647MOL0     C89159   4.818  11.263   0.607 -0.0649  0.1478  0.6526
  647MOL0     C89160   4.954  11.227   0.669 -0.3784  0.5218 -0.0610
  647MOL0     C89161   4.945  11.217   0.820  0.2962 -0.9265 -0.1439
  647MOL0     C89162   5.091  11.208   0.878 -0.1673 -0.0305 -1.0170
  647MOL0     C89163   5.095  11.224   1.028 -0.6465 -0.5136 -0.7445
  647MOL0     C89164   5.046  11.096   1.094  0.3778  0.6097 -0.4609
  647MOL0     N89165   5.090  11.080   1.236 -0.5926  1.3668  0.3707
  647MOL0     C89166   5.134  11.179   1.318  0.0258 -0.5897 -0.1322
  647MOL0     C89167   5.181  11.117   1.428  0.1886  0.7627 -0.4099
  647MOL0     C89168   5.256  11.170   1.540  0.4549 -0.7129 -0.3865
  647MOL0     C89169   5.401  11.132   1.521  0.2217  0.6395 -0.2611
  647MOL0     C89170   5.491  11.200   1.624 -0.7058 -0.8479 -0.0315
  647MOL0     C89171   5.644  11.168   1.616  0.0323  0.2912 -0.3749
  647MOL0     O89172   5.647  11.024   1.635  0.4316  0.4175  0.1178
  647MOL0     C89173   5.770  10.963   1.618  0.7097 -0.5148 -0.3544
  647MOL0     C89174   5.895  11.016   1.666 -0.8121  0.7070 -0.4131
  647MOL0     C89175   6.021  10.949   1.644 -0.3318  0.1302  0.2061
  647MOL0     C89176   6.137  11.020   1.705  0.6282  0.4606 -0.8135
  647MOL0     C89177   6.022  10.830   1.563 -0.0386  0.3022 -0.2550
  647MOL0     C89178   6.145  10.750   1.529  0.0044  0.8807 -0.5052
  647MOL0     O89179   6.125  10.630   1.470 -0.0023 -0.4365  0.0866
  647MOL0     C89180   6.214  10.533   1.461  0.0028 -0.0225  0.0362
  647MOL0     C89181   6.349  10.532   1.500  0.1925  0.3146 -0.4481
  647MOL0     C89182   6.427  10.415   1.500  0.5124  0.3472 -0.2107
  647MOL0     C89183   6.377  10.289   1.459 -0.4077  0.6481  0.3333
  647MOL0     O89184   6.454  10.173   1.461  0.5331  0.5701 -0.8567
  647MOL0     C89185   6.405  10.066   1.542 -0.2983  0.3743  0.0620
  647MOL0     C89186   6.537   9.988   1.582 -0.1032  0.9343  0.3416
  647MOL0     C89187   6.647  10.073   1.655 -0.0290  0.7761  0.4578
  647MOL0     C89188   6.783   9.995   1.658  0.3866 -0.4768 -0.0338
  647MOL0     C89189   6.899  10.081   1.718 -0.2716  0.6372  0.5979
  647MOL0     C89190   6.916  10.057   1.861  1.0556 -0.7275  0.0737
  647MOL0     C89191   7.009  10.159   1.919 -0.0506 -0.1209 -0.0859
  647MOL0     C89192   7.153  10.136   1.888  0.0382  0.0696 -0.4811
  647MOL0    Cl89193   7.257  10.279   1.926 -0.1098  0.3146 -0.0527
  647MOL0     C89194   6.249  10.293   1.410 -0.1355 -0.5135 -0.2845
  647MOL0     C89195   6.167  10.411   1.412 -0.0368 -0.9903  0.1361
  647MOL0     O89196   6.252  10.793   1.569  0.8261  0.5710  0.6836
  647MOL0     C89197   5.897  10.776   1.531  0.3854 -0.6071  0.1255
  647MOL0     C89198   5.774  10.845   1.561  0.1167 -0.4652  0.2740
  647MOL0     N89199   5.162  10.979   1.409 -0.1658  0.2869  0.1179
  647MOL0     N89200   5.115  10.957   1.296  0.1010 -0.2420  0.3101
  647MOL0     C89201   4.306  11.200   0.504 -0.2993  0.1883  0.3113
  647MOL0     C89202   4.170  11.214   0.527 -0.5001  0.0819  0.8199
  647MOL0     C89203   3.745  11.180   0.689  0.0702  0.7924 -0.1515
  647MOL0     C89204   3.646  11.103   0.734  0.3663  0.3177  0.7212
  647MOL0     C89205   3.510  11.129   0.707 -0.4332 -0.6472 -0.6467
  647MOL0     C89206   3.478  11.238   0.625  0.3568  0.4929 -0.3081
  647MOL0     O89207   3.342  11.264   0.621  0.0918  0.8233  0.1736
  647MOL0     C89208   3.282  11.271   0.485 -0.0619 -0.6860  0.0751
  647MOL0     C89209   3.139  11.217   0.496  0.4173 -0.1135 -0.1371
  647MOL0     C89210   3.047  11.281   0.602 -0.1501  0.1237  0.7363
  647MOL0     C89211   2.905  11.215   0.590  1.3701  0.1759  0.3354
  647MOL0     C89212   2.801  11.292   0.657 -0.2686 -0.4657  0.3748
  647MOL0     C89213   2.720  11.366   0.710 -0.2376 -0.8810  0.8930
  647MOL0     C89214   3.574  11.316   0.572 -1.1809 -1.1719  0.4680
  647MOL0     C89215   3.710  11.302   0.617  0.3246  0.2842 -0.6819
  647MOL0     C89216   3.806  11.411   0.579  0.4373 -0.7095 -0.6486
  647MOL0     H89217   4.133  10.980   0.767 -0.2396 -0.7658 -0.3321
  647MOL0     H89218   4.381  10.957   0.719  2.5226  2.3898 -0.1431
  647MOL0     H89219   4.540  11.273   0.597 -2.0074  0.8137 -1.8653
  647MOL0     H89220   4.612  11.248   0.436  2.0957 -0.0963  0.8335
  647MOL0     H89221   4.707  11.098   0.682  3.5024  3.1704  1.9991
  647MOL0     H89222   4.771  11.081   0.515 -0.0466 -0.7110 -0.8679
  647MOL0     H89223   4.837  11.307   0.509 -3.3724  0.0191 -0.1547
  647MOL0     H89224   4.775  11.343   0.667  2.5404  1.0038  1.5437
  647MOL0     H89225   4.988  11.136   0.619 -2.7408 -2.0305  2.5785
  647MOL0     H89226   5.013  11.316   0.643 -1.4999  0.5215 -3.0174
  647MOL0     H89227   4.880  11.134   0.851 -1.3651  1.1566  2.4411
  647MOL0     H89228   4.892  11.300   0.868 -0.2491 -2.1061  1.3590
  647MOL0     H89229   5.127  11.106   0.865 -0.7483 -0.7183  1.9063
  647MOL0     H89230   5.156  11.270   0.816  0.3069  0.1806 -0.3248
  647MOL0     H89231   5.038  11.306   1.073  1.7490  1.7164 -1.4982
  647MOL0     H89232   5.199  11.228   1.063 -1.7708  0.8062  3.0100
  647MOL0     H89233   4.938  11.098   1.109  0.5997 -0.6381  1.8643
  647MOL0     H89234   5.066  11.001   1.044 -2.3648 -1.3640  1.8561
  647MOL0     H89235   5.146  11.284   1.294  0.9744 -0.7659 -0.4612
  647MOL0     H89236   5.231  11.145   1.644 -0.5613 -0.4515 -0.5590
  647MOL0     H89237   5.241  11.279   1.536 -1.0048 -0.8384  0.7391
  647MOL0     H89238   5.410  11.023   1.519  3.2815  0.8264 -1.2389
  647MOL0     H89239   5.445  11.165   1.426  2.3033  1.4798  0.9461
  647MOL0     H89240   5.473  11.305   1.602  3.7480 -0.3063 -2.1370
  647MOL0     H89241   5.481  11.167   1.728  2.2844  0.9872  0.9843
  647MOL0     H89242   5.684  11.199   1.519  1.1311  2.5739  0.7391
  647MOL0     H89243   5.701  11.233   1.683 -0.7812  0.9534 -0.3148
  647MOL0     H89244   5.891  11.109   1.722  0.0981 -0.2398  1.3065
  647MOL0     H89245   6.203  11.062   1.628  2.4619 -1.6292 -0.4962
  647MOL0     H89246   6.188  10.958   1.779  1.7078  2.8121  0.4986
  647MOL0     H89247   6.092  11.097   1.769 -2.8263 -2.0635  0.1322
  647MOL0     H89248   6.399  10.621   1.538 -1.9839  1.2314  0.4338
  647MOL0     H89249   6.528  10.412   1.541  0.9763 -1.1324 -1.3313
  647MOL0     H89250   6.349  10.106   1.627 -0.1166  1.1202 -0.1611
  647MOL0     H89251   6.334  10.005   1.486 -0.6376  1.3483 -0.6106
  647MOL0     H89252   6.512   9.909   1.652 -1.2700  2.0979  1.2886
  647MOL0     H89253   6.572   9.952   1.485  1.0421 -0.4620  1.2354
  647MOL0     H89254   6.613  10.095   1.756 -0.2359  0.4182  0.4664
  647MOL0     H89255   6.665  10.165   1.598  2.1966 -0.4176 -0.9440
  647MOL0     H89256   6.816   9.962   1.559  2.2029 -2.6078  1.2008
  647MOL0     H89257   6.770   9.911   1.728  0.4939  1.4404  2.4233
  647MOL0     H89258   6.994  10.057   1.670 -0.9245  0.6187 -0.7548
  647MOL0     H89259   6.875  10.186   1.700 -1.4459  0.4714  1.0998
  647MOL0     H89260   6.941   9.953   1.883  0.0504 -0.4933  2.6245
  647MOL0     H89261   6.814  10.067   1.901  1.3635 -3.2808  1.7182
  647MOL0     H89262   6.998  10.167   2.028  2.2417 -2.1192  0.3669
  647MOL0     H89263   6.989  10.262   1.886 -0.5832 -0.1644  0.0836
  647MOL0     H89264   7.165  10.103   1.784 -0.0734 -0.6364 -0.2779
  647MOL0     H89265   7.178  10.048   1.949 -0.3999 -0.6355 -1.2889
  647MOL0     H89266   6.212  10.198   1.373 -0.2260 -0.8259  0.5851
  647MOL0     H89267   6.069  10.410   1.365 -0.1440  5.0743 -0.6214
  647MOL0     H89268   5.896  10.674   1.494  0.3899  0.0970 -1.9220
  647MOL0     H89269   5.680  10.797   1.536 -1.1664  2.4293 -0.9327
  647MOL0     H89270   4.345  11.262   0.424  0.2835 -1.2263 -0.5467
  647MOL0     H89271   4.115  11.291   0.474  0.2992  0.7736  0.9634
  647MOL0     H89272   3.675  11.020   0.798 -2.4686 -0.8218  0.6944
  647MOL0     H89273   3.427  11.070   0.745 -0.9475 -0.7010 -1.8098
  647MOL0     H89274   3.282  11.371   0.442  1.5929 -0.5470  0.3259
  647MOL0     H89275   3.334  11.197   0.423 -2.3696 -2.0619 -0.3515
  647MOL0     H89276   3.163  11.116   0.532  1.1422  1.5954  4.9411
  647MOL0     H89277   3.094  11.224   0.397 -0.4275  1.5677  0.3313
  647MOL0     H89278   3.101  11.266   0.696  1.7669  5.4246  0.8359
  647MOL0     H89279   3.041  11.389   0.586  2.7929  0.2881  0.0811
  647MOL0     H89280   2.899  11.119   0.642 -1.6980  0.6478  1.0033
  647MOL0     H89281   2.871  11.220   0.486 -0.6537  3.5699  1.0069
  647MOL0     H89282   2.641  11.435   0.731 -0.2807  0.9938 -3.9971
  647MOL0     H89283   3.547  11.389   0.496 -0.3355 -0.2781  1.0005
  647MOL0     H89284   3.867  11.437   0.666 -0.5259 -0.8745  0.1004
  647MOL0     H89285   3.858  11.377   0.489 -0.1842  2.0761 -2.1819
  647MOL0     H89286   3.748  11.502   0.562 -1.4833 -2.1861 -2.5428
  648MOL0     O89287   3.058   6.931  10.011  0.9696 -0.4996  0.4207
  648MOL0     C89288   3.041   6.993  10.116 -0.0894  0.1152  0.4302
  648MOL0     O89289   3.129   7.010  10.217  0.3794  0.0049  0.5288
  648MOL0     C89290   3.234   6.912  10.227  0.6381 -0.3877 -1.0560
  648MOL0     C89291   3.216   6.779  10.282 -0.2275  0.0091  0.3151
  648MOL0     C89292   3.313   6.686  10.293 -0.4831 -0.6472  0.0406
  648MOL0     C89293   3.429   6.712  10.223  0.1807  0.6051  0.3312
  648MOL0     O89294   3.534   6.630  10.224  0.7264  0.4385 -0.0182
  648MOL0     C89295   3.586   6.594  10.359  0.6744  0.9180 -0.0973
  648MOL0     C89296   3.679   6.470  10.360 -0.1916 -0.2756  0.6022
  648MOL0     C89297   3.822   6.502  10.321  0.8003 -0.0640 -0.4592
  648MOL0     C89298   3.827   6.522  10.164 -0.6810 -0.5915 -0.0076
  648MOL0     C89299   3.971   6.539  10.117  0.2790 -0.0334 -0.4931
  648MOL0     C89300   3.980   6.551   9.960  0.2414  0.3066 -0.3732
  648MOL0     C89301   4.129   6.584   9.920  1.1580  0.6450 -0.4305
  648MOL0     C89302   4.138   6.611   9.773  0.1019 -0.2942 -0.1269
  648MOL0     N89303   4.280   6.629   9.745  0.6216  0.2003  0.3932
  648MOL0     C89304   4.360   6.516   9.725  0.3915  0.4749 -0.3187
  648MOL0     C89305   4.476   6.577   9.688 -0.0419 -0.2699  0.1392
  648MOL0     C89306   4.600   6.504   9.638  0.8023  0.5275 -0.0268
  648MOL0     C89307   4.684   6.474   9.768 -0.3973  0.6825 -0.2237
  648MOL0     C89308   4.752   6.611   9.805 -0.0603 -0.6966  0.3293
  648MOL0     C89309   4.888   6.584   9.882  1.2056  0.3692 -0.1415
  648MOL0     O89310   4.988   6.531   9.793 -0.3735  0.4691 -0.3489
  648MOL0     C89311   5.100   6.481   9.848 -0.4003  0.7014 -0.3240
  648MOL0     C89312   5.156   6.523   9.969  0.4967 -0.2276  0.2401
  648MOL0     C89313   5.274   6.474  10.016  0.1428 -0.3522  0.3070
  648MOL0     C89314   5.350   6.541  10.130 -0.7465  0.4888  0.3806
  648MOL0     C89315   5.346   6.372   9.950  0.5033 -0.6623  0.7261
  648MOL0     C89316   5.457   6.307  10.023 -0.3356  0.4375  0.2486
  648MOL0     O89317   5.431   6.225  10.128  0.1133  0.5709  0.0923
  648MOL0     C89318   5.526   6.175  10.218  0.3563 -0.6060  0.7123
  648MOL0     C89319   5.509   6.052  10.268  0.6116 -0.1405 -0.2561
  648MOL0     C89320   5.597   5.999  10.358  0.3221  0.1150 -0.3820
  648MOL0     C89321   5.703   6.068  10.407 -0.1571  0.5310 -0.9085
  648MOL0     O89322   5.794   6.025  10.501 -0.4514  0.1554  1.2957
  648MOL0     C89323   5.775   5.900  10.573  0.8192  0.9131 -0.5856
  648MOL0     C89324   5.889   5.884  10.673 -0.7188 -0.1081 -0.3432
  648MOL0     C89325   6.023   5.894  10.619 -0.3100 -0.7938  0.0682
  648MOL0     C89326   6.122   5.902  10.736  0.2606  0.8821  0.3366
  648MOL0     C89327   6.273   5.917  10.698  1.1675 -0.7693  0.0955
  648MOL0     C89328   6.322   6.060  10.664 -0.2049  0.4888  0.2056
  648MOL0     C89329   6.476   6.066  10.670  0.9677  0.6860  0.3030
  648MOL0     C89330   6.526   6.209  10.658 -0.6907  0.3670 -0.0785
  648MOL0    Cl89331   6.713   6.208  10.670 -0.0848  0.3049  0.2259
  648MOL0     C89332   5.720   6.197  10.354 -0.1421  0.1568 -0.4794
  648MOL0     C89333   5.631   6.253  10.260 -0.2833  0.5974 -1.0150
  648MOL0     O89334   5.569   6.319   9.967 -0.0899  0.2937 -0.5291
  648MOL0     C89335   5.298   6.323   9.823  0.2955  0.3947 -0.4548
  648MOL0     C89336   5.183   6.389   9.775 -1.3400 -0.3966 -0.4064
  648MOL0     N89337   4.461   6.710   9.685 -0.2452 -0.6418  0.5761
  648MOL0     N89338   4.342   6.748   9.720  0.0873  0.7197 -0.8366
  648MOL0     C89339   3.456   6.834  10.169 -0.5376 -0.4598  0.0490
  648MOL0     C89340   3.354   6.937  10.183 -0.2546 -0.6117  0.5753
  648MOL0     C89341   2.913   7.072  10.134  0.3791  0.0664  0.2134
  648MOL0     C89342   2.908   7.189  10.214 -0.4467 -0.0511 -0.1430
  648MOL0     C89343   2.799   7.267  10.231 -0.4219  0.1358 -0.3531
  648MOL0     C89344   2.670   7.220  10.178 -0.1253 -0.2496 -0.5715
  648MOL0     O89345   2.548   7.281  10.183 -0.3345  0.2541 -1.3470
  648MOL0     C89346   2.538   7.403  10.262  0.2739  0.8213  0.5564
  648MOL0     C89347   2.400   7.464  10.242  0.3846  0.2128  0.7924
  648MOL0     C89348   2.383   7.597  10.324 -0.8049  0.6684  0.4142
  648MOL0     C89349   2.235   7.644  10.307 -0.5374 -0.3994 -0.2952
  648MOL0     C89350   2.213   7.775  10.378  0.1710  0.4770  0.3946
  648MOL0     C89351   2.183   7.884  10.424 -0.2620  0.4656 -0.0597
  648MOL0     C89352   2.671   7.097  10.111 -0.9059  0.1891 -0.3742
  648MOL0     C89353   2.787   7.021  10.087 -0.5278 -0.5457 -0.5788
  648MOL0     C89354   2.766   6.882  10.028 -0.3775  0.7329  0.8420
  648MOL0     H89355   3.121   6.756  10.329 -0.7682 -0.4218 -0.9511
  648MOL0     H89356   3.286   6.597  10.348 -4.3740  0.5682  0.3624
  648MOL0     H89357   3.513   6.593  10.441  3.1001 -0.0882  2.1613
  648MOL0     H89358   3.645   6.682  10.387  0.6042  0.8363  0.3149
  648MOL0     H89359   3.684   6.431  10.462 -0.4375 -0.3705  0.5791
  648MOL0     H89360   3.638   6.395  10.292  2.1358 -1.6711  0.6466
  648MOL0     H89361   3.861   6.587  10.377 -0.7188  0.6424 -0.4382
  648MOL0     H89362   3.878   6.413  10.352 -1.3646 -1.2659  0.1864
  648MOL0     H89363   3.777   6.443  10.107 -1.4763  1.3057 -2.1187
  648MOL0     H89364   3.778   6.616  10.136  0.5498 -0.8331 -3.5420
  648MOL0     H89365   4.033   6.454  10.147 -0.0188  0.4604  1.6611
  648MOL0     H89366   4.014   6.628  10.163  1.0449 -1.3876  1.5875
  648MOL0     H89367   3.944   6.456   9.920 -2.9336  1.5450 -0.7403
  648MOL0     H89368   3.922   6.638   9.928  2.1389  1.5661 -0.6058
  648MOL0     H89369   4.192   6.499   9.946 -0.0449 -0.2081 -0.2410
  648MOL0     H89370   4.171   6.659   9.988  0.5210 -0.9228  1.7972
  648MOL0     H89371   4.096   6.535   9.708  2.9196 -1.8441 -0.2762
  648MOL0     H89372   4.087   6.706   9.754 -0.0207 -0.4690 -0.6714
  648MOL0     H89373   4.332   6.411   9.726  2.1617 -0.0188 -0.4819
  648MOL0     H89374   4.646   6.564   9.560 -1.1166  1.8474 -0.1929
  648MOL0     H89375   4.576   6.406   9.596 -0.1943 -0.1656  1.9721
  648MOL0     H89376   4.625   6.441   9.854 -0.2376 -1.5043 -0.8934
  648MOL0     H89377   4.758   6.396   9.747 -0.0852  1.3752 -1.9017
  648MOL0     H89378   4.775   6.673   9.719  3.0336 -2.5477 -0.3442
  648MOL0     H89379   4.689   6.665   9.876  0.4265 -0.5874  0.6836
  648MOL0     H89380   4.937   6.665   9.937  4.1608 -0.5858 -1.1650
  648MOL0     H89381   4.854   6.513   9.958 -2.6509 -1.4443 -3.2335
  648MOL0     H89382   5.115   6.595  10.039 -0.8314 -1.7324  1.0762
  648MOL0     H89383   5.336   6.480  10.219  0.6084  1.1522  1.0874
  648MOL0     H89384   5.304   6.638  10.148  1.7274  1.6431  0.8847
  648MOL0     H89385   5.458   6.550  10.115 -1.1414  0.5232 -3.5784
  648MOL0     H89386   5.419   5.993  10.248 -1.1957  2.4677 -0.3229
  648MOL0     H89387   5.580   5.900  10.401  2.4742 -0.4336 -0.6811
  648MOL0     H89388   5.676   5.893  10.619  2.5838  2.1766  4.0227
  648MOL0     H89389   5.780   5.818  10.501  0.4071 -1.4556  1.9201
  648MOL0     H89390   5.885   5.964  10.748  1.2457 -1.3293  1.1893
  648MOL0     H89391   5.879   5.788  10.724  1.4216  0.9418  2.2978
  648MOL0     H89392   6.028   5.995  10.576 -3.8560  0.1068  1.3544
  648MOL0     H89393   6.047   5.822  10.540 -1.6475  0.7620 -1.8894
  648MOL0     H89394   6.115   5.808  10.791  0.5763 -1.1023 -2.7158
  648MOL0     H89395   6.093   5.975  10.811  0.9751  0.5634  0.9355
  648MOL0     H89396   6.321   5.881  10.790 -0.7336  0.3154  1.6067
  648MOL0     H89397   6.291   5.854  10.611 -1.7366 -1.2581 -0.2720
  648MOL0     H89398   6.278   6.136  10.730  1.7774 -0.1686  2.4430
  648MOL0     H89399   6.286   6.069  10.561 -0.7979 -2.9253 -0.0138
  648MOL0     H89400   6.516   5.999  10.594  1.0646 -0.6801  1.4999
  648MOL0     H89401   6.509   6.027  10.767  0.7626 -0.1146  0.0625
  648MOL0     H89402   6.483   6.281  10.729  1.1821  2.1453 -0.6646
  648MOL0     H89403   6.505   6.249  10.559 -0.2107  1.2459  0.1696
  648MOL0     H89404   5.804   6.260  10.384  1.2601 -1.4217 -0.9264
  648MOL0     H89405   5.640   6.356  10.227 -2.9727  0.3770 -2.7549
  648MOL0     H89406   5.357   6.249   9.770  0.1508 -2.2118  2.6526
  648MOL0     H89407   5.151   6.358   9.676  0.4929 -1.7845 -0.6195
  648MOL0     H89408   3.554   6.835  10.122 -0.0701 -4.3526  0.6395
  648MOL0     H89409   3.378   7.034  10.139  2.9962 -2.0447 -1.2091
  648MOL0     H89410   2.993   7.234  10.265 -2.7197  2.1836  1.9365
  648MOL0     H89411   2.802   7.358  10.289 -2.6966 -0.2487  0.5013
  648MOL0     H89412   2.533   7.367  10.365 -3.1825  0.7797  0.4670
  648MOL0     H89413   2.623   7.472  10.254  1.6524 -0.8907 -0.1579
  648MOL0     H89414   2.327   7.387  10.266 -0.3979  0.8803  0.6060
  648MOL0     H89415   2.382   7.494  10.138  2.1683 -0.7997  0.1409
  648MOL0     H89416   2.414   7.572  10.426  0.3994  1.8755  0.3771
  648MOL0     H89417   2.441   7.685  10.293 -0.3851  0.2409 -0.0276
  648MOL0     H89418   2.185   7.559  10.354 -0.6158 -0.0663  0.2395
  648MOL0     H89419   2.198   7.660  10.205  2.3288  0.6205 -1.2640
  648MOL0     H89420   2.147   7.978  10.460 -0.4530  0.1901  0.4771
  648MOL0     H89421   2.582   7.065  10.058  0.7133 -0.6692 -2.7782
  648MOL0     H89422   2.671   6.882   9.975  2.2530 -0.1281 -4.5430
  648MOL0     H89423   2.835   6.870   9.944  0.2711 -0.7143  1.5397
  648MOL0     H89424   2.781   6.801  10.100 -0.4569  0.0777  0.1364
  649MOL0     O89425   6.650   8.484   7.706 -0.6923 -0.1677  0.0962
  649MOL0     C89426   6.578   8.580   7.735  0.3435  0.2389  0.5187
  649MOL0     O89427   6.613   8.689   7.803 -0.7779  0.0713  0.2614
  649MOL0     C89428   6.754   8.707   7.805 -0.2950 -0.1088  0.3675
  649MOL0     C89429   6.837   8.652   7.905  0.2336 -0.3649 -0.7629
  649MOL0     C89430   6.971   8.691   7.908 -0.0388  0.0412 -0.5648
  649MOL0     C89431   7.029   8.762   7.804 -0.4479  0.4059 -0.6093
  649MOL0     O89432   7.167   8.791   7.803 -0.0605  0.2141 -0.1878
  649MOL0     C89433   7.225   8.741   7.680 -1.0856  0.2330  0.5129
  649MOL0     C89434   7.377   8.760   7.671  0.1866 -0.7274 -0.1455
  649MOL0     C89435   7.410   8.914   7.668 -0.3383  1.4199 -0.4090
  649MOL0     C89436   7.557   8.934   7.725 -0.5081 -0.7904 -0.3549
  649MOL0     C89437   7.674   8.923   7.617  0.2315  0.2781 -0.0737
  649MOL0     C89438   7.705   8.781   7.575 -0.6097 -0.4851 -0.1284
  649MOL0     C89439   7.833   8.781   7.489 -0.1133  0.4332 -0.0796
  649MOL0     C89440   7.817   8.869   7.364  0.8304 -0.6498  0.2762
  649MOL0     N89441   7.908   8.832   7.253 -1.2879 -0.9148 -0.2133
  649MOL0     C89442   8.043   8.857   7.252 -0.3550 -0.3377 -0.6321
  649MOL0     C89443   8.092   8.809   7.136  0.5169  0.5342 -0.1403
  649MOL0     C89444   8.225   8.827   7.069  0.3660  0.6040 -0.2996
  649MOL0     C89445   8.323   8.734   7.132  0.6699 -0.1482 -0.3471
  649MOL0     C89446   8.460   8.728   7.067 -0.0522 -0.0089 -0.4090
  649MOL0     C89447   8.559   8.628   7.125 -0.0453 -0.5921 -0.2479
  649MOL0     O89448   8.559   8.641   7.269 -0.1840  0.3175 -0.0164
  649MOL0     C89449   8.639   8.557   7.341  0.2414  0.0846 -0.3319
  649MOL0     C89450   8.598   8.545   7.477 -0.1629 -0.2256 -0.0885
  649MOL0     C89451   8.662   8.459   7.561 -1.1623 -0.8304  0.4162
  649MOL0     C89452   8.600   8.439   7.699 -0.6289  0.1735 -0.9666
  649MOL0     C89453   8.776   8.388   7.519 -0.4641  0.4869 -0.3260
  649MOL0     C89454   8.860   8.299   7.605 -0.0985  0.2530 -0.5208
  649MOL0     O89455   8.871   8.340   7.740  0.3832 -0.6238 -0.2869
  649MOL0     C89456   8.981   8.307   7.814 -1.2104 -0.6768 -0.6279
  649MOL0     C89457   8.984   8.342   7.949  0.5762  0.2795 -0.3057
  649MOL0     C89458   9.099   8.344   8.029 -0.5694 -0.2347  0.4821
  649MOL0     C89459   9.223   8.301   7.976  0.4973  0.5793  0.2856
  649MOL0     O89460   9.330   8.322   8.060  0.0842  0.4570 -0.4898
  649MOL0     C89461   9.462   8.326   8.002  0.3497 -0.0470  1.2971
  649MOL0     C89462   9.490   8.443   7.911  0.3741 -0.2192  0.7083
  649MOL0     C89463   9.501   8.584   7.975  0.1182 -0.1130 -0.4105
  649MOL0     C89464   9.371   8.620   8.046  0.4335 -0.1469  0.4540
  649MOL0     C89465   9.365   8.771   8.049 -0.5075 -0.5272 -0.4396
  649MOL0     C89466   9.226   8.807   8.015  0.0049 -0.8251  0.3292
  649MOL0     C89467   9.189   8.950   8.045  0.6749  0.2965  0.7137
  649MOL0     C89468   9.050   8.990   8.001 -0.0502  0.7612 -1.0790
  649MOL0    Cl89469   8.926   8.858   8.032  0.1359 -0.0225 -0.0325
  649MOL0     C89470   9.220   8.255   7.841 -0.6197  0.2123 -0.2110
  649MOL0     C89471   9.106   8.269   7.766  0.7583  0.4772  0.0020
  649MOL0     O89472   8.896   8.196   7.559  0.4529 -0.3716  0.5554
  649MOL0     C89473   8.821   8.408   7.386  0.1505  0.4501  0.3121
  649MOL0     C89474   8.752   8.483   7.294 -0.2200  0.7861  0.6946
  649MOL0     N89475   7.988   8.743   7.075  0.2511 -0.6753 -0.3350
  649MOL0     N89476   7.880   8.761   7.142 -0.5295 -0.4907 -0.5277
  649MOL0     C89477   6.944   8.818   7.710 -0.0812  0.9043 -0.1040
  649MOL0     C89478   6.801   8.790   7.710 -0.7013  0.8986  0.1220
  649MOL0     C89479   6.429   8.560   7.697 -0.4194 -0.2080  0.5472
  649MOL0     C89480   6.385   8.431   7.651  0.5878  0.1818 -0.8133
  649MOL0     C89481   6.255   8.409   7.604 -0.2233  0.2135  0.3949
  649MOL0     C89482   6.176   8.520   7.581 -0.8441  0.0812  0.1751
  649MOL0     O89483   6.058   8.499   7.520 -0.1819  0.2066  0.0709
  649MOL0     C89484   6.056   8.533   7.382 -0.7426  0.2189 -0.0967
  649MOL0     C89485   5.918   8.575   7.329  0.3292 -0.3263 -0.7767
  649MOL0     C89486   5.867   8.708   7.391  0.2990 -0.7065 -0.1380
  649MOL0     C89487   5.730   8.736   7.340  1.2320 -0.4932  0.0186
  649MOL0     C89488   5.713   8.751   7.197 -0.0381 -0.2468 -0.5201
  649MOL0     C89489   5.683   8.792   7.084 -0.3164 -0.1344  0.7760
  649MOL0     C89490   6.220   8.644   7.629 -0.4775 -0.0905 -0.2547
  649MOL0     C89491   6.340   8.667   7.702 -1.0762  0.0585 -0.4162
  649MOL0     C89492   6.362   8.809   7.737  0.3269 -0.6289 -0.1395
  649MOL0     H89493   6.798   8.589   7.984  4.3509  0.4275  2.2809
  649MOL0     H89494   7.041   8.674   7.988  1.0763  1.9305 -1.0857
  649MOL0     H89495   7.177   8.787   7.593 -0.0155  0.5400  0.0702
  649MOL0     H89496   7.212   8.634   7.660  3.0244 -0.4024  0.3987
  649MOL0     H89497   7.434   8.707   7.747 -2.0096 -3.1845 -0.0609
  649MOL0     H89498   7.407   8.722   7.573 -2.1111 -1.7571 -0.5076
  649MOL0     H89499   7.409   8.947   7.564  1.1752 -2.2219 -1.7555
  649MOL0     H89500   7.340   8.972   7.730  0.9994  2.1580  0.4782
  649MOL0     H89501   7.563   9.039   7.757  1.1345 -1.5802  2.3460
  649MOL0     H89502   7.585   8.864   7.805  0.2468  2.8416  2.9002
  649MOL0     H89503   7.766   8.954   7.667  0.1290 -0.8376  0.8461
  649MOL0     H89504   7.653   8.981   7.527 -0.0730 -0.9423 -0.8179
  649MOL0     H89505   7.719   8.707   7.655  4.4614 -0.5470 -0.7277
  649MOL0     H89506   7.621   8.741   7.518 -0.8229 -0.6664  0.3032
  649MOL0     H89507   7.858   8.679   7.460 -0.1394  0.1735  0.7773
  649MOL0     H89508   7.920   8.819   7.543  1.9124 -2.9469 -0.7037
  649MOL0     H89509   7.720   8.850   7.319  1.4705 -0.1303 -1.4009
  649MOL0     H89510   7.831   8.975   7.388  2.0803 -0.5486 -0.7576
  649MOL0     H89511   8.095   8.915   7.327  1.1775 -0.3318 -1.6478
  649MOL0     H89512   8.258   8.931   7.083 -0.2697  0.7614  0.1029
  649MOL0     H89513   8.209   8.810   6.963 -2.5261 -0.4723  0.2338
  649MOL0     H89514   8.335   8.746   7.240  2.4927  0.2377 -0.5510
  649MOL0     H89515   8.276   8.638   7.108 -2.4411  0.4760  2.5116
  649MOL0     H89516   8.467   8.718   6.958 -0.5286 -2.7690 -0.2501
  649MOL0     H89517   8.504   8.827   7.086  0.0274 -0.4108  1.7482
  649MOL0     H89518   8.522   8.526   7.112  1.4951 -1.4405  1.4914
  649MOL0     H89519   8.658   8.640   7.081 -0.3448  0.3022 -0.7005
  649MOL0     H89520   8.518   8.616   7.499  0.5953  0.7241 -0.3144
  649MOL0     H89521   8.596   8.332   7.722  3.4535  0.1768  0.6005
  649MOL0     H89522   8.501   8.485   7.705 -0.3024  0.6935  1.0524
  649MOL0     H89523   8.665   8.479   7.778  1.5045 -0.4554 -2.3074
  649MOL0     H89524   8.893   8.379   7.995 -0.5078 -1.6302 -0.8015
  649MOL0     H89525   9.087   8.396   8.123 -3.9402  0.2023 -0.0455
  649MOL0     H89526   9.545   8.318   8.073  2.0528 -3.5106 -0.7846
  649MOL0     H89527   9.463   8.234   7.943 -0.0024  1.4819 -1.2838
  649MOL0     H89528   9.588   8.439   7.862 -0.7022  1.8601 -1.8750
  649MOL0     H89529   9.413   8.448   7.833  3.1913  0.0009 -2.2957
  649MOL0     H89530   9.524   8.657   7.897  1.8790 -0.3768 -0.1783
  649MOL0     H89531   9.578   8.596   8.052 -1.1447 -1.5625  1.1668
  649MOL0     H89532   9.373   8.575   8.146  0.2896  2.2224  1.5855
  649MOL0     H89533   9.282   8.590   7.990 -1.3148  0.5139  2.7265
  649MOL0     H89534   9.389   8.800   8.152 -1.0816  2.3522 -1.0106
  649MOL0     H89535   9.437   8.827   7.989 -1.7880 -0.5976 -2.1065
  649MOL0     H89536   9.159   8.739   8.068 -0.0562 -0.7296  0.3727
  649MOL0     H89537   9.224   8.795   7.906 -0.9624 -0.6752  0.3230
  649MOL0     H89538   9.261   9.015   7.994  1.6016 -1.1111  0.1522
  649MOL0     H89539   9.186   8.972   8.152 -2.0201  1.7185  0.4211
  649MOL0     H89540   9.044   9.015   7.895 -1.6947  0.1409 -1.1664
  649MOL0     H89541   9.014   9.076   8.058 -0.4955 -0.0434 -0.1105
  649MOL0     H89542   9.301   8.218   7.780 -0.3213 -2.3208  1.5723
  649MOL0     H89543   9.119   8.260   7.658  1.3889  3.9215 -0.3287
  649MOL0     H89544   8.893   8.346   7.335 -1.6932  0.0345 -1.9470
  649MOL0     H89545   8.784   8.481   7.190  0.2124  2.8259  0.7411
  649MOL0     H89546   6.979   8.890   7.637  0.1990  0.6715 -0.2035
  649MOL0     H89547   6.740   8.832   7.630 -0.6154  1.3090  0.2697
  649MOL0     H89548   6.452   8.346   7.656 -0.0180 -0.2422  0.8080
  649MOL0     H89549   6.212   8.320   7.559 -3.6138  1.9410 -0.1668
  649MOL0     H89550   6.131   8.610   7.360  1.5663 -1.4380  1.4516
  649MOL0     H89551   6.090   8.447   7.323  0.0482  0.6934 -0.3514
  649MOL0     H89552   5.838   8.501   7.337  0.6261 -1.7734 -6.4877
  649MOL0     H89553   5.938   8.582   7.222 -5.0957 -1.6574 -2.1665
  649MOL0     H89554   5.862   8.713   7.500  4.5222  2.0258  0.1635
  649MOL0     H89555   5.927   8.791   7.353 -1.8744  0.2071 -1.7627
  649MOL0     H89556   5.695   8.829   7.387  0.1519 -1.6771  1.7025
  649MOL0     H89557   5.662   8.655   7.369 -3.9725  2.9659 -1.2154
  649MOL0     H89558   5.649   8.825   6.988  0.1623 -2.5973 -0.3285
  649MOL0     H89559   6.162   8.734   7.613  0.2147  0.6978  1.4217
  649MOL0     H89560   6.266   8.860   7.751 -1.6733 -3.7472 -1.3417
  649MOL0     H89561   6.407   8.816   7.836  1.4911  1.1073 -0.7490
  649MOL0     H89562   6.429   8.849   7.661 -1.0422 -1.4509 -1.8475
  650MOL0     O89563   8.322   5.598   6.860 -0.1899 -0.2207 -0.0663
  650MOL0     C89564   8.263   5.493   6.850 -0.1755 -0.3238  0.0833
  650MOL0     O89565   8.142   5.478   6.786 -0.0465  0.5152 -0.3226
  650MOL0     C89566   8.087   5.575   6.716  0.1991  0.6298 -0.2289
  650MOL0     C89567   8.099   5.715   6.731 -0.4962  0.3390  0.1293
  650MOL0     C89568   8.019   5.799   6.658  0.1831  0.1028 -0.4559
  650MOL0     C89569   7.932   5.749   6.565 -0.4274  0.0679  0.4063
  650MOL0     O89570   7.881   5.854   6.489 -0.7969  0.0909 -0.0882
  650MOL0     C89571   7.750   5.831   6.436  0.6124 -0.1681 -0.0471
  650MOL0     C89572   7.713   5.931   6.335 -0.1187  0.1585 -0.7118
  650MOL0     C89573   7.567   5.925   6.285 -1.0676  0.2700  0.0763
  650MOL0     C89574   7.555   6.018   6.159 -0.3342  0.0719 -0.1357
  650MOL0     C89575   7.574   6.171   6.193  0.3035  0.2511  0.1749
  650MOL0     C89576   7.480   6.261   6.113 -0.2723  0.7420 -0.6257
  650MOL0     C89577   7.510   6.409   6.153  0.3113 -0.6413 -0.4096
  650MOL0     C89578   7.392   6.490   6.100 -0.0298  0.6211  0.4316
  650MOL0     N89579   7.371   6.491   5.951  0.5634  0.4224 -0.3134
  650MOL0     C89580   7.470   6.476   5.850  0.2586 -0.7169 -0.1880
  650MOL0     C89581   7.403   6.474   5.731 -0.4346  0.6086  0.1044
  650MOL0     C89582   7.460   6.491   5.595  0.8500 -0.4524 -0.6260
  650MOL0     C89583   7.451   6.358   5.524 -0.0539  0.9636  0.5323
  650MOL0     C89584   7.552   6.332   5.410 -0.5707  0.1172  0.3391
  650MOL0     C89585   7.554   6.443   5.305  0.2025  0.5046  0.9357
  650MOL0     O89586   7.612   6.394   5.190  0.3807 -0.0845  0.6524
  650MOL0     C89587   7.753   6.379   5.188  0.2522 -0.1275  0.1302
  650MOL0     C89588   7.848   6.454   5.264  0.3515 -0.3416 -0.4288
  650MOL0     C89589   7.987   6.441   5.258  0.5324  0.7764  0.6406
  650MOL0     C89590   8.080   6.565   5.296  0.5136 -0.6069 -0.2150
  650MOL0     C89591   8.034   6.332   5.185 -0.5664 -0.0155  0.2513
  650MOL0     C89592   8.182   6.296   5.185 -0.1472  0.0174  0.3623
  650MOL0     O89593   8.223   6.196   5.095  0.0551  0.2228 -0.2929
  650MOL0     C89594   8.356   6.161   5.112 -0.3160  0.1429  0.1817
  650MOL0     C89595   8.382   6.037   5.178  1.0472  0.0756  0.5948
  650MOL0     C89596   8.509   5.996   5.194  0.1400  0.1069 -0.2206
  650MOL0     C89597   8.619   6.067   5.147  0.7411 -0.3087  0.2573
  650MOL0     O89598   8.752   6.043   5.168  0.1714 -0.1684 -0.2314
  650MOL0     C89599   8.795   5.919   5.237  0.2680  0.4842 -0.2376
  650MOL0     C89600   8.938   5.931   5.210  0.2613 -0.7563 -0.5414
  650MOL0     C89601   8.997   6.057   5.295 -0.1056 -0.2796  0.0799
  650MOL0     C89602   9.149   6.062   5.288 -1.1350  0.1192  0.3734
  650MOL0     C89603   9.211   6.041   5.146  0.4660  0.1111  0.4002
  650MOL0     C89604   9.369   6.038   5.143  1.1545  0.6420 -0.3844
  650MOL0     C89605   9.432   6.176   5.177 -0.5249 -0.7623 -0.0862
  650MOL0     C89606   9.578   6.202   5.148  1.0207  1.3135  0.1875
  650MOL0    Cl89607   9.614   6.377   5.181  0.2166 -0.3454  0.1311
  650MOL0     C89608   8.583   6.190   5.079 -0.1500  0.2196 -0.5802
  650MOL0     C89609   8.457   6.238   5.054 -1.0620  0.3131  0.4146
  650MOL0     O89610   8.244   6.336   5.282 -0.2092 -0.4753  0.1737
  650MOL0     C89611   7.943   6.236   5.121 -0.2479  0.0451  0.4030
  650MOL0     C89612   7.806   6.267   5.118 -0.5371 -0.1264  0.2902
  650MOL0     N89613   7.266   6.481   5.760  0.2863  0.0285  0.2450
  650MOL0     N89614   7.248   6.493   5.888  0.1985  1.3220  0.2620
  650MOL0     C89615   7.921   5.615   6.546  0.1385  0.4666  0.5128
  650MOL0     C89616   7.996   5.529   6.618 -0.4716  0.5827 -0.2660
  650MOL0     C89617   8.334   5.372   6.900 -0.3155 -0.0480 -0.2717
  650MOL0     C89618   8.251   5.270   6.962 -0.8056 -0.4575  0.3339
  650MOL0     C89619   8.302   5.147   6.996 -0.5351 -0.2263 -0.3117
  650MOL0     C89620   8.440   5.123   6.990  0.0919  1.2193 -0.3135
  650MOL0     O89621   8.474   4.993   7.025 -0.2033 -0.2948  0.0576
  650MOL0     C89622   8.589   4.994   7.116 -0.0735  0.2370 -0.3144
  650MOL0     C89623   8.668   4.857   7.115  0.3589  0.1283  0.7165
  650MOL0     C89624   8.584   4.751   7.179  0.6046  0.3923  0.0035
  650MOL0     C89625   8.650   4.613   7.158 -0.7554  0.5057  0.3576
  650MOL0     C89626   8.570   4.516   7.237  0.0755 -0.1602  0.5716
  650MOL0     C89627   8.491   4.457   7.311  0.4173 -0.9586  0.9334
  650MOL0     C89628   8.519   5.220   6.936 -0.8873 -0.9284  0.3874
  650MOL0     C89629   8.473   5.343   6.888  0.3175 -0.0268 -0.1391
  650MOL0     C89630   8.567   5.439   6.816 -0.1601  0.4243  0.2388
  650MOL0     H89631   8.167   5.751   6.808  1.6398 -2.4904 -0.2790
  650MOL0     H89632   8.026   5.906   6.673 -1.4373  0.3368 -1.2209
  650MOL0     H89633   7.674   5.850   6.512  0.4971 -1.2628  0.1348
  650MOL0     H89634   7.740   5.730   6.395 -1.9615  0.5832 -1.5131
  650MOL0     H89635   7.695   6.024   6.389 -0.7416  1.1568 -2.5425
  650MOL0     H89636   7.784   5.943   6.252  1.5462  0.3076  0.6848
  650MOL0     H89637   7.526   5.828   6.259  0.2892 -0.6124  1.0896
  650MOL0     H89638   7.512   5.973   6.366  1.3530  0.7342  1.5695
  650MOL0     H89639   7.636   5.995   6.089 -0.2378 -1.2001  0.3524
  650MOL0     H89640   7.462   5.993   6.107 -0.5209 -0.3275  0.3783
  650MOL0     H89641   7.679   6.200   6.178 -0.0858  1.3503 -0.5800
  650MOL0     H89642   7.554   6.172   6.300 -1.5581 -0.6922 -0.1180
  650MOL0     H89643   7.481   6.240   6.006 -2.9408 -1.9225 -0.2658
  650MOL0     H89644   7.375   6.246   6.141  0.0586  0.6769  0.6301
  650MOL0     H89645   7.604   6.446   6.113 -2.1537  4.0379 -2.6476
  650MOL0     H89646   7.515   6.413   6.262 -1.8186  1.6776 -0.3008
  650MOL0     H89647   7.302   6.454   6.150  1.6521 -0.3189  2.9775
  650MOL0     H89648   7.400   6.596   6.123  1.2802  0.3664  1.2832
  650MOL0     H89649   7.576   6.488   5.871  0.7187 -1.7948 -1.7158
  650MOL0     H89650   7.566   6.516   5.605  0.5235  0.1427  2.3940
  650MOL0     H89651   7.412   6.567   5.533  1.7721 -0.6359 -1.5851
  650MOL0     H89652   7.474   6.279   5.596 -0.2227  1.7962  1.5291
  650MOL0     H89653   7.351   6.346   5.481  0.6881  0.9657 -1.2725
  650MOL0     H89654   7.656   6.325   5.445 -1.1726  0.0465  2.1887
  650MOL0     H89655   7.534   6.240   5.353  2.8057  0.4729 -1.6224
  650MOL0     H89656   7.453   6.467   5.273  1.0782 -0.3004 -2.8659
  650MOL0     H89657   7.594   6.537   5.344 -1.6397  1.4044  0.7297
  650MOL0     H89658   7.804   6.536   5.320 -0.0562 -0.0113 -1.2277
  650MOL0     H89659   8.169   6.578   5.234 -0.0716 -0.9932 -1.1462
  650MOL0     H89660   8.105   6.547   5.401 -1.2608  1.3580  0.6003
  650MOL0     H89661   8.023   6.658   5.290  2.1797  0.4356 -0.4555
  650MOL0     H89662   8.289   5.994   5.212 -1.0700  2.6306 -1.5133
  650MOL0     H89663   8.541   5.903   5.239  1.2622  1.5971  2.2786
  650MOL0     H89664   8.786   5.914   5.346  1.9805  1.2867 -0.0207
  650MOL0     H89665   8.748   5.831   5.192 -1.2060  0.2913  1.5809
  650MOL0     H89666   8.990   5.839   5.236  0.8037 -0.6462 -1.2185
  650MOL0     H89667   8.953   5.941   5.102 -1.3153  1.7692 -0.6284
  650MOL0     H89668   8.969   6.045   5.400  1.8943 -1.3536  0.5451
  650MOL0     H89669   8.962   6.155   5.260  2.1905 -0.4013 -2.8959
  650MOL0     H89670   9.197   5.984   5.348  1.8087  1.1448 -0.4811
  650MOL0     H89671   9.184   6.162   5.317  0.2212 -0.6800  1.7186
  650MOL0     H89672   9.160   5.953   5.107 -0.8518  0.1580  1.9328
  650MOL0     H89673   9.165   6.110   5.076  0.5510 -1.3471 -1.1544
  650MOL0     H89674   9.403   5.992   5.050  1.1464 -0.4593  0.1314
  650MOL0     H89675   9.399   5.961   5.214 -0.2563 -2.0566 -2.5016
  650MOL0     H89676   9.430   6.204   5.283 -1.1072  0.5940 -0.4210
  650MOL0     H89677   9.380   6.257   5.123  0.7573 -0.3737 -0.7612
  650MOL0     H89678   9.597   6.189   5.041 -0.6546 -0.2544  0.0492
  650MOL0     H89679   9.646   6.133   5.201 -0.2650 -1.9576 -2.1275
  650MOL0     H89680   8.664   6.242   5.029  0.3375 -0.9759 -1.0835
  650MOL0     H89681   8.433   6.325   4.993  0.8618  0.6467  0.0603
  650MOL0     H89682   7.977   6.138   5.089 -0.8469 -1.0306  2.8632
  650MOL0     H89683   7.738   6.195   5.073 -3.2693  0.8504  2.5275
  650MOL0     H89684   7.851   5.566   6.478  1.3524 -0.8341  0.1596
  650MOL0     H89685   7.987   5.421   6.607 -1.5713  0.4995  1.1638
  650MOL0     H89686   8.143   5.277   6.970 -0.9731 -1.7088 -0.4609
  650MOL0     H89687   8.234   5.079   7.047  0.8129  1.2452  3.8563
  650MOL0     H89688   8.661   5.075   7.098  0.4808 -0.4127 -1.0769
  650MOL0     H89689   8.553   5.020   7.216  0.1760  1.5526 -0.5422
  650MOL0     H89690   8.765   4.859   7.164  0.3730 -2.0433  0.8728
  650MOL0     H89691   8.689   4.823   7.013 -0.8124  0.9047  0.1871
  650MOL0     H89692   8.554   4.775   7.282 -4.8347  1.2298 -1.4535
  650MOL0     H89693   8.489   4.753   7.125  2.1784 -1.6004 -3.1768
  650MOL0     H89694   8.752   4.601   7.193 -1.0372  1.5440  1.6181
  650MOL0     H89695   8.656   4.578   7.054 -3.0751  1.1689 -0.0763
  650MOL0     H89696   8.422   4.412   7.380  0.8879  1.1118  2.8675
  650MOL0     H89697   8.625   5.216   6.915 -0.9223  0.8359 -0.3238
  650MOL0     H89698   8.671   5.409   6.802 -0.2132  0.5174 -0.3909
  650MOL0     H89699   8.534   5.448   6.711  0.2636 -3.2389 -0.3279
  650MOL0     H89700   8.565   5.539   6.861  0.5664  0.6833 -0.2814
  651MOL0     O89701   1.350   4.767   5.722 -0.1815 -0.6846  0.2126
  651MOL0     C89702   1.352   4.644   5.725  0.4162 -0.0708 -0.1915
  651MOL0     O89703   1.467   4.568   5.735 -0.0387  0.5900 -0.5046
  651MOL0     C89704   1.595   4.613   5.735 -0.1202  0.1290 -0.5009
  651MOL0     C89705   1.691   4.515   5.742 -0.7514 -0.1950 -0.3612
  651MOL0     C89706   1.831   4.550   5.749  0.1916 -0.1974 -1.0458
  651MOL0     C89707   1.874   4.679   5.725 -0.4742  0.2283 -0.5150
  651MOL0     O89708   2.008   4.711   5.739 -0.5430  0.5769 -0.0121
  651MOL0     C89709   2.092   4.615   5.821  0.0645  0.4788 -0.9890
  651MOL0     C89710   2.229   4.672   5.832 -0.2751  0.4861 -1.1494
  651MOL0     C89711   2.304   4.695   5.700 -0.2520  0.1931 -0.4047
  651MOL0     C89712   2.445   4.756   5.742  0.2005 -0.0288 -0.6942
  651MOL0     C89713   2.535   4.763   5.620 -0.8218 -0.5172 -0.4759
  651MOL0     C89714   2.565   4.628   5.558  0.4848  0.2419  0.0425
  651MOL0     C89715   2.596   4.507   5.640 -0.1914 -0.2378 -0.2613
  651MOL0     C89716   2.732   4.514   5.714  0.1389 -0.2889 -0.7456
  651MOL0     N89717   2.835   4.505   5.613 -1.4622 -0.2601  0.0509
  651MOL0     C89718   2.854   4.412   5.505  0.0684  0.4702  0.8393
  651MOL0     C89719   2.981   4.437   5.449 -0.1873 -0.1514  0.0341
  651MOL0     C89720   3.043   4.377   5.327  0.6245 -0.2460 -0.9123
  651MOL0     C89721   3.132   4.256   5.364  0.5033  0.1321  0.4694
  651MOL0     C89722   3.219   4.217   5.243  1.0684  0.1988  0.8978
  651MOL0     C89723   3.323   4.108   5.280  0.1317  0.5755  0.1927
  651MOL0     O89724   3.356   4.011   5.174  0.0414 -0.6023 -0.0063
  651MOL0     C89725   3.417   4.064   5.071  0.2726 -0.1991 -0.0324
  651MOL0     C89726   3.421   3.986   4.959  0.5942  0.6858  0.7337
  651MOL0     C89727   3.470   4.028   4.834  0.2353  0.0517  1.1935
  651MOL0     C89728   3.466   3.922   4.720  0.6579 -0.4094 -0.9219
  651MOL0     C89729   3.535   4.151   4.820  0.2119 -0.4703  0.2954
  651MOL0     C89730   3.599   4.195   4.705 -0.3215 -0.3801 -0.3780
  651MOL0     O89731   3.611   4.116   4.593  0.3446 -0.0108  0.5277
  651MOL0     C89732   3.652   4.149   4.467  1.0161 -1.2084 -0.1474
  651MOL0     C89733   3.586   4.099   4.354 -0.4552  0.8129  0.5533
  651MOL0     C89734   3.621   4.134   4.226 -0.3635 -1.4599 -0.0383
  651MOL0     C89735   3.722   4.230   4.195  0.6110 -0.6009 -0.3627
  651MOL0     O89736   3.746   4.266   4.071  0.1779  0.2578 -0.1416
  651MOL0     C89737   3.804   4.392   4.045 -0.0461 -0.4814 -0.2264
  651MOL0     C89738   3.795   4.434   3.899 -0.3026  0.0215 -0.1548
  651MOL0     C89739   3.880   4.339   3.809 -0.1239 -0.7774 -0.3776
  651MOL0     C89740   3.913   4.415   3.682 -0.7759  0.1975 -0.6279
  651MOL0     C89741   3.798   4.446   3.590  0.2916  0.0233 -0.3650
  651MOL0     C89742   3.768   4.321   3.500  0.6341 -0.6826 -0.2622
  651MOL0     C89743   3.652   4.353   3.412 -0.0749  0.0542 -0.4172
  651MOL0     C89744   3.694   4.430   3.287 -0.5100 -0.1453 -0.7589
  651MOL0    Cl89745   3.779   4.332   3.175  0.1495  0.5071  0.2196
  651MOL0     C89746   3.794   4.279   4.308  0.6477  0.5119 -0.4594
  651MOL0     C89747   3.756   4.240   4.435  0.3829 -0.4476 -0.4232
  651MOL0     O89748   3.658   4.304   4.717 -0.1809 -0.3993  0.0656
  651MOL0     C89749   3.529   4.233   4.937  0.0615  0.2453  0.4369
  651MOL0     C89750   3.476   4.190   5.068  0.4505  0.3935  1.5731
  651MOL0     N89751   3.036   4.532   5.533  0.7784 -0.5253  0.7581
  651MOL0     N89752   2.951   4.574   5.617 -0.2704  0.1577  0.3547
  651MOL0     C89753   1.780   4.778   5.708 -0.4272  0.1963 -0.6312
  651MOL0     C89754   1.645   4.747   5.716 -0.4206 -0.8939  0.2965
  651MOL0     C89755   1.230   4.571   5.714 -0.3627  0.3640 -0.3639
  651MOL0     C89756   1.224   4.444   5.779  0.5584  0.4109  0.5033
  651MOL0     C89757   1.114   4.368   5.757 -0.0054  0.0271 -0.4065
  651MOL0     C89758   1.000   4.407   5.684 -0.0418 -0.4163  0.7883
  651MOL0     O89759   0.897   4.326   5.658  0.3004  0.1481  0.1337
  651MOL0     C89760   0.872   4.219   5.750  0.4571  0.1497 -0.5481
  651MOL0     C89761   0.724   4.187   5.736 -0.3844  0.9358 -0.2915
  651MOL0     C89762   0.623   4.268   5.818 -0.7254  0.1645  0.4225
  651MOL0     C89763   0.642   4.421   5.799  0.0743  0.1586 -0.0887
  651MOL0     C89764   0.517   4.483   5.823 -0.5185 -0.2326  0.2845
  651MOL0     C89765   0.414   4.539   5.838  0.1317 -0.3388  0.2544
  651MOL0     C89766   1.001   4.532   5.629 -0.6645 -0.2015  0.1719
  651MOL0     C89767   1.120   4.611   5.638  0.2890 -0.5881 -0.8730
  651MOL0     C89768   1.120   4.750   5.569 -0.1814 -0.3188  0.4179
  651MOL0     H89769   1.648   4.417   5.764  3.5063 -1.4708  3.9884
  651MOL0     H89770   1.903   4.470   5.759  0.4699  0.3526  2.3090
  651MOL0     H89771   2.101   4.515   5.777  1.6611 -1.9740  4.1541
  651MOL0     H89772   2.047   4.604   5.920  1.8940 -2.8211 -0.3715
  651MOL0     H89773   2.225   4.770   5.880  0.1577  1.1775 -2.4603
  651MOL0     H89774   2.286   4.599   5.890 -3.3260  0.1159  1.6826
  651MOL0     H89775   2.307   4.601   5.644 -0.3576  1.3614 -2.4750
  651MOL0     H89776   2.248   4.757   5.629 -0.5371  1.2108  0.6702
  651MOL0     H89777   2.433   4.858   5.781  0.4024 -0.0775 -0.5029
  651MOL0     H89778   2.501   4.693   5.811  1.1274  1.0057 -0.4733
  651MOL0     H89779   2.629   4.815   5.639 -1.4473 -0.0580  1.5505
  651MOL0     H89780   2.489   4.841   5.558  1.9673  1.7942  0.1330
  651MOL0     H89781   2.481   4.598   5.493  0.9817  0.4568 -0.7131
  651MOL0     H89782   2.657   4.633   5.499  2.4227  1.9560  2.9929
  651MOL0     H89783   2.587   4.424   5.569 -2.3384  0.4131 -0.8389
  651MOL0     H89784   2.527   4.491   5.724  1.1135 -1.5793  0.6068
  651MOL0     H89785   2.758   4.608   5.764 -0.2734 -0.5218 -0.0773
  651MOL0     H89786   2.748   4.435   5.788  4.7651  1.9847  1.1482
  651MOL0     H89787   2.789   4.339   5.459  0.0815  1.7896 -1.4584
  651MOL0     H89788   3.106   4.449   5.274 -0.1978  0.5674 -0.8088
  651MOL0     H89789   2.969   4.341   5.255  0.5605 -0.9791 -0.4933
  651MOL0     H89790   3.188   4.274   5.456  0.1939 -0.1675  0.7206
  651MOL0     H89791   3.065   4.172   5.387 -0.3016  0.5458 -0.2944
  651MOL0     H89792   3.153   4.165   5.173  1.3889  0.1408  0.6369
  651MOL0     H89793   3.268   4.300   5.191 -1.6251  0.5583 -1.2903
  651MOL0     H89794   3.408   4.158   5.327  1.1195  0.1757 -1.1246
  651MOL0     H89795   3.283   4.041   5.357  1.7148  0.2590  0.7842
  651MOL0     H89796   3.378   3.887   4.974  0.4951  0.2482 -1.8884
  651MOL0     H89797   3.404   3.963   4.640 -0.4876  0.3170  0.2982
  651MOL0     H89798   3.423   3.824   4.746  0.5896 -0.4950 -1.3565
  651MOL0     H89799   3.566   3.903   4.681  0.9532 -1.7913  0.3961
  651MOL0     H89800   3.496   4.038   4.365  0.0059 -0.0997 -0.5281
  651MOL0     H89801   3.563   4.101   4.141 -2.0219  1.5715 -0.1899
  651MOL0     H89802   3.767   4.481   4.096  0.4221  0.8273 -2.0984
  651MOL0     H89803   3.912   4.380   4.064  0.0587  0.4975 -0.1639
  651MOL0     H89804   3.687   4.435   3.882 -0.8461  3.2404  2.3566
  651MOL0     H89805   3.825   4.539   3.888 -1.7751  0.2733 -2.3165
  651MOL0     H89806   3.824   4.251   3.774 -1.5417  0.4195 -1.2294
  651MOL0     H89807   3.979   4.309   3.844  0.9669 -1.8310 -3.9873
  651MOL0     H89808   3.976   4.348   3.623  0.0370  1.0956 -0.7970
  651MOL0     H89809   3.979   4.500   3.700 -2.1185  1.5892 -1.9621
  651MOL0     H89810   3.709   4.478   3.645  2.0111 -0.1091  2.6932
  651MOL0     H89811   3.815   4.519   3.510  0.7242  0.6472  0.2930
  651MOL0     H89812   3.754   4.226   3.551 -0.3216 -0.7945 -0.7104
  651MOL0     H89813   3.860   4.305   3.442  1.8099  4.0907 -0.1433
  651MOL0     H89814   3.563   4.399   3.456 -0.3903 -0.7725 -0.1659
  651MOL0     H89815   3.614   4.258   3.373 -1.2598 -0.0630  0.9518
  651MOL0     H89816   3.752   4.516   3.320 -1.3897 -0.9493  3.3980
  651MOL0     H89817   3.597   4.468   3.251 -0.6804 -1.4269 -1.7496
  651MOL0     H89818   3.886   4.336   4.305  0.6847  0.6610  1.8827
  651MOL0     H89819   3.830   4.264   4.512  0.8581  1.0014 -1.2789
  651MOL0     H89820   3.581   4.328   4.930  0.8851 -0.2862 -1.0955
  651MOL0     H89821   3.489   4.257   5.152  0.4457  1.9988  0.3374
  651MOL0     H89822   1.814   4.881   5.700  2.2285 -0.3994  1.6284
  651MOL0     H89823   1.574   4.828   5.703  0.0953 -0.3506  0.8237
  651MOL0     H89824   1.303   4.404   5.841  1.3852  1.0284 -0.1221
  651MOL0     H89825   1.112   4.272   5.808 -3.7289 -1.3067 -2.6338
  651MOL0     H89826   0.930   4.129   5.728 -0.9836 -1.4134  1.6073
  651MOL0     H89827   0.892   4.245   5.854  0.8508  0.0479 -0.5946
  651MOL0     H89828   0.715   4.084   5.773  1.8679  0.6012 -0.5619
  651MOL0     H89829   0.690   4.202   5.633  2.8717 -0.7158 -1.7511
  651MOL0     H89830   0.522   4.240   5.785 -1.3935  1.0089  1.6640
  651MOL0     H89831   0.628   4.251   5.925 -3.0429  0.6043  0.6491
  651MOL0     H89832   0.672   4.445   5.697  0.5862  0.0968  0.0479
  651MOL0     H89833   0.698   4.469   5.880  0.3548 -1.2034  0.5559
  651MOL0     H89834   0.319   4.587   5.850  0.2723  0.1255 -0.3846
  651MOL0     H89835   0.916   4.576   5.578  1.9185  2.5767 -2.1108
  651MOL0     H89836   1.217   4.785   5.531 -1.5507  2.1212 -1.1488
  651MOL0     H89837   1.061   4.756   5.477  0.9038  1.9266 -0.1952
  651MOL0     H89838   1.076   4.827   5.633  1.9746  0.4333  1.0813
  652MOL0     O89839   2.059   5.186  10.847  0.3035 -0.5402 -0.5549
  652MOL0     C89840   2.011   5.216  10.958  0.1224 -0.3336 -0.4152
  652MOL0     O89841   2.054   5.315  11.052  0.5148 -0.0919  0.0015
  652MOL0     C89842   2.164   5.379  11.019  1.0310  0.0728 -0.0335
  652MOL0     C89843   2.298   5.330  11.045  0.8934 -1.2556 -0.0129
  652MOL0     C89844   2.401   5.401  11.003  1.2301 -0.0366  0.2426
  652MOL0     C89845   2.390   5.525  10.939  0.0429 -0.1018 -0.1085
  652MOL0     O89846   2.512   5.590  10.921 -0.2913  0.1043  0.2249
  652MOL0     C89847   2.507   5.709  10.846  0.7002  0.5756  0.7818
  652MOL0     C89848   2.642   5.768  10.864 -0.4222  0.0537  0.5577
  652MOL0     C89849   2.741   5.718  10.761 -0.8141 -0.0397  0.4381
  652MOL0     C89850   2.706   5.792  10.623 -0.1679 -0.3421 -0.6246
  652MOL0     C89851   2.810   5.758  10.512  0.1738 -0.6183 -0.7816
  652MOL0     C89852   2.950   5.821  10.545  0.1560  0.2141  0.3445
  652MOL0     C89853   3.046   5.833  10.430 -0.2950 -0.7404 -0.3700
  652MOL0     C89854   3.192   5.868  10.483  0.2561  0.6125 -0.2122
  652MOL0     N89855   3.290   5.871  10.371  0.2862  0.0182  0.6872
  652MOL0     C89856   3.290   5.788  10.259  0.0354 -0.2123  0.6166
  652MOL0     C89857   3.363   5.853  10.167  0.2381  0.0644  0.7152
  652MOL0     C89858   3.410   5.788  10.038 -0.4748 -0.9458 -0.5803
  652MOL0     C89859   3.469   5.895   9.943  0.2650 -0.2137  0.6062
  652MOL0     C89860   3.475   5.831   9.806  0.2509  0.5374 -0.0531
  652MOL0     C89861   3.501   5.928   9.692 -0.0725 -0.4485  0.5649
  652MOL0     O89862   3.404   6.029   9.707 -0.1922  0.1805  0.0324
  652MOL0     C89863   3.360   6.108   9.595 -0.4587 -1.2911  1.2745
  652MOL0     C89864   3.242   6.183   9.602  0.1267 -0.0405 -0.7318
  652MOL0     C89865   3.188   6.260   9.496 -0.3363  0.4791  0.2990
  652MOL0     C89866   3.052   6.317   9.516 -0.2431  0.9569 -0.5833
  652MOL0     C89867   3.255   6.270   9.375  0.2152  1.0120  0.3574
  652MOL0     C89868   3.193   6.344   9.259 -1.1023  0.3235 -0.7027
  652MOL0     O89869   3.236   6.305   9.148 -1.2342  0.1197  0.2534
  652MOL0     C89870   3.166   6.316   9.031 -0.2744  0.3596  0.0919
  652MOL0     C89871   3.032   6.334   9.019 -0.5418  0.7214 -0.0709
  652MOL0     C89872   2.967   6.344   8.893 -0.2113  0.7691 -0.3618
  652MOL0     C89873   3.047   6.344   8.774  0.2284 -0.2196  0.2512
  652MOL0     O89874   2.999   6.345   8.643  0.2682 -0.1491 -0.2943
  652MOL0     C89875   2.865   6.297   8.606 -0.2989  0.1425  0.0416
  652MOL0     C89876   2.837   6.321   8.464  0.1766 -0.0273  0.3407
  652MOL0     C89877   2.937   6.240   8.385  0.4551  1.1086 -0.1184
  652MOL0     C89878   2.933   6.266   8.231 -0.0882 -0.3485 -0.1761
  652MOL0     C89879   3.050   6.211   8.164  0.5351 -0.2454  0.0657
  652MOL0     C89880   3.088   6.257   8.028  0.2539  0.9781  0.2391
  652MOL0     C89881   3.224   6.208   8.000 -0.0857  0.8394  0.3806
  652MOL0     C89882   3.241   6.207   7.848 -0.5032 -0.7652  0.3483
  652MOL0    Cl89883   3.128   6.084   7.758 -0.0550  0.1054 -0.0000
  652MOL0     C89884   3.185   6.342   8.789  0.2337  0.0397  0.0256
  652MOL0     C89885   3.246   6.318   8.913  0.0654  1.0463  0.0730
  652MOL0     O89886   3.138   6.451   9.273  0.2346 -0.0955  0.1797
  652MOL0     C89887   3.377   6.205   9.374  0.4025 -0.0591 -0.4705
  652MOL0     C89888   3.428   6.122   9.474  0.4205  1.1346 -0.0272
  652MOL0     N89889   3.411   5.967  10.228  0.3688  0.4265  0.1438
  652MOL0     N89890   3.365   5.977  10.347 -0.0142 -0.0630  0.3987
  652MOL0     C89891   2.260   5.571  10.921  0.1414  0.0122 -0.3285
  652MOL0     C89892   2.147   5.496  10.950  0.5825  0.2528  0.2654
  652MOL0     C89893   1.885   5.141  10.987  0.6928  0.7869 -0.0414
  652MOL0     C89894   1.782   5.222  11.041 -0.0880 -0.9438 -0.2849
  652MOL0     C89895   1.656   5.164  11.069 -0.1658  0.4157 -1.1981
  652MOL0     C89896   1.626   5.027  11.068 -0.9880 -0.2860 -0.0211
  652MOL0     O89897   1.499   4.977  11.101 -0.7198 -0.3158  0.1311
  652MOL0     C89898   1.468   4.838  11.078 -0.6023  0.1267  0.5595
  652MOL0     C89899   1.332   4.792  11.125 -0.0288 -0.3113 -0.2048
  652MOL0     C89900   1.223   4.854  11.032 -0.5768 -0.6430  0.4650
  652MOL0     C89901   1.084   4.816  11.075  1.0048 -0.5023  0.0637
  652MOL0     C89902   1.060   4.675  11.126  0.5388  0.2756 -0.0863
  652MOL0     C89903   1.047   4.564  11.166  0.8092  0.2585  0.5488
  652MOL0     C89904   1.730   4.943  11.016  0.0224 -0.5335  0.0855
  652MOL0     C89905   1.858   4.996  10.969 -0.2102 -0.7701  0.7602
  652MOL0     C89906   1.970   4.911  10.930  0.0654  0.0070 -0.2385
  652MOL0     H89907   2.308   5.253  11.121 -2.9802  1.3517  3.6346
  652MOL0     H89908   2.501   5.363  11.022  1.1016 -1.8426 -2.2197
  652MOL0     H89909   2.438   5.787  10.877  0.1144  0.3737  0.0205
  652MOL0     H89910   2.490   5.673  10.744  1.8081 -1.9432  1.3944
  652MOL0     H89911   2.643   5.877  10.875  2.0024  0.0825  0.5082
  652MOL0     H89912   2.680   5.735  10.961  1.5740  0.4637 -0.0319
  652MOL0     H89913   2.844   5.737  10.791  0.1608  0.7777 -3.0101
  652MOL0     H89914   2.740   5.612  10.734  4.5924 -0.2152 -0.1633
  652MOL0     H89915   2.609   5.769  10.579 -0.7321  1.3624 -0.3647
  652MOL0     H89916   2.710   5.899  10.648  4.3097 -0.6306  0.8777
  652MOL0     H89917   2.779   5.811  10.421  2.4773  1.3951 -0.5081
  652MOL0     H89918   2.818   5.654  10.479 -1.4705 -0.3945 -2.0471
  652MOL0     H89919   2.924   5.918  10.588 -2.4603 -0.4602  0.4554
  652MOL0     H89920   2.998   5.774  10.631  2.4963  0.8820 -0.5141
  652MOL0     H89921   3.021   5.919  10.368  0.7936  0.1997  0.4629
  652MOL0     H89922   3.046   5.748  10.360  2.6347 -0.0518 -1.3633
  652MOL0     H89923   3.186   5.947  10.559 -3.2185 -1.9734  2.5656
  652MOL0     H89924   3.215   5.774  10.534 -4.6565 -0.4185  0.5452
  652MOL0     H89925   3.246   5.689  10.245 -1.7651  0.6189  0.0718
  652MOL0     H89926   3.330   5.737   9.983  1.0064 -1.8196 -1.9783
  652MOL0     H89927   3.479   5.709  10.068  0.7693 -0.0369 -1.0095
  652MOL0     H89928   3.405   5.984   9.946  0.2112 -0.2506  0.5652
  652MOL0     H89929   3.564   5.932   9.982 -0.9750  2.2877  1.4578
  652MOL0     H89930   3.561   5.764   9.801  1.9290  2.5190  0.7485
  652MOL0     H89931   3.390   5.769   9.777  1.2071 -1.6706  1.6539
  652MOL0     H89932   3.592   5.988   9.700 -1.6002  2.4103 -1.6483
  652MOL0     H89933   3.485   5.887   9.592 -1.6788 -1.9447  1.3910
  652MOL0     H89934   3.192   6.187   9.698  1.6536  1.4869  0.0511
  652MOL0     H89935   2.992   6.286   9.429  1.2723 -2.7298 -0.4782
  652MOL0     H89936   3.072   6.422   9.537  0.5618  0.7381 -0.2363
  652MOL0     H89937   2.995   6.274   9.599 -0.9118 -0.1522 -1.5766
  652MOL0     H89938   2.971   6.338   9.109 -3.6979 -1.0534 -1.9462
  652MOL0     H89939   2.860   6.365   8.887  0.2952  3.4833 -0.8907
  652MOL0     H89940   2.853   6.190   8.627 -1.9377  0.6043  1.7709
  652MOL0     H89941   2.783   6.349   8.657 -1.5313  0.4794 -2.1581
  652MOL0     H89942   2.732   6.302   8.442  0.2449  0.1114 -0.1127
  652MOL0     H89943   2.850   6.429   8.447  1.3951 -0.5657 -2.7692
  652MOL0     H89944   2.924   6.132   8.390  4.2298  0.2210 -3.9245
  652MOL0     H89945   3.035   6.264   8.427 -0.7705  3.5257  1.6433
  652MOL0     H89946   2.930   6.374   8.214 -2.5918 -0.4434 -0.7531
  652MOL0     H89947   2.840   6.234   8.182 -0.7387  1.9118 -0.5311
  652MOL0     H89948   3.139   6.224   8.225 -0.1894 -0.1901  1.1308
  652MOL0     H89949   3.047   6.102   8.159 -0.0163 -0.1986 -1.0828
  652MOL0     H89950   3.087   6.366   8.022 -1.4608  1.0577  1.3286
  652MOL0     H89951   3.015   6.223   7.954  2.1281 -3.2206 -0.0016
  652MOL0     H89952   3.224   6.103   8.029 -1.0901  1.0687  1.2440
  652MOL0     H89953   3.299   6.266   8.054  1.3465 -0.8974  0.3339
  652MOL0     H89954   3.341   6.187   7.811 -1.1574 -2.1709 -0.7281
  652MOL0     H89955   3.224   6.309   7.810  1.8694 -1.3427 -2.6450
  652MOL0     H89956   3.233   6.344   8.692 -2.0789  0.7069 -1.1948
  652MOL0     H89957   3.347   6.284   8.927 -1.2319 -3.0136  0.7557
  652MOL0     H89958   3.446   6.202   9.290  0.4026 -1.2487 -0.4484
  652MOL0     H89959   3.528   6.085   9.457  1.3421  2.8026  1.4278
  652MOL0     H89960   2.235   5.666  10.874  1.7563  0.8338  0.4126
  652MOL0     H89961   2.046   5.529  10.929  0.5544  0.2108  0.3366
  652MOL0     H89962   1.806   5.327  11.037  0.5357 -1.1175 -1.9350
  652MOL0     H89963   1.574   5.226  11.101 -0.2698 -0.8330  1.1629
  652MOL0     H89964   1.475   4.818  10.971 -2.5058 -1.2585  0.6349
  652MOL0     H89965   1.549   4.785  11.128  0.0510  0.5653 -0.0217
  652MOL0     H89966   1.310   4.814  11.230  5.0129 -0.9135  1.2440
  652MOL0     H89967   1.334   4.683  11.118  0.1696 -0.4347  1.4697
  652MOL0     H89968   1.234   4.962  11.023  0.5719 -0.7689  0.2277
  652MOL0     H89969   1.236   4.816  10.930 -0.4332  1.0562 -0.1761
  652MOL0     H89970   1.027   4.829  10.982  1.7572  3.1874 -0.0550
  652MOL0     H89971   1.048   4.887  11.150  1.0042 -0.9347  0.4781
  652MOL0     H89972   1.042   4.467  11.210  1.4660 -0.3650 -0.6996
  652MOL0     H89973   1.719   4.835  11.009  2.4866 -0.8083 -0.8229
  652MOL0     H89974   1.944   4.805  10.925 -1.9374  0.4851 -1.4108
  652MOL0     H89975   2.003   4.929  10.827  1.5899 -0.9748  0.0598
  652MOL0     H89976   2.052   4.920  11.001 -0.8388 -1.5961  1.0732
  653MOL0     O89977   6.207  10.300   0.505  0.4302 -0.4727 -0.2419
  653MOL0     C89978   6.117  10.356   0.572  0.4074  0.2526  0.2727
  653MOL0     O89979   6.135  10.468   0.647 -0.3774 -0.4373 -1.2017
  653MOL0     C89980   6.256  10.527   0.673 -0.1109  0.7963 -0.0096
  653MOL0     C89981   6.384  10.464   0.708  0.5404  0.3200 -0.0933
  653MOL0     C89982   6.504  10.538   0.727  0.3140 -0.5173 -0.2555
  653MOL0     C89983   6.503  10.682   0.721  0.0350  0.5595 -0.3759
  653MOL0     O89984   6.616  10.756   0.739 -0.1533 -0.2444  0.0303
  653MOL0     C89985   6.612  10.900   0.756  1.4830  0.2498 -0.5565
  653MOL0     C89986   6.745  10.942   0.796  0.9325  0.4892  0.2270
  653MOL0     C89987   6.775  10.887   0.934  0.2207 -0.3387 -0.0499
  653MOL0     C89988   6.768  11.006   1.035  1.0305 -0.3956 -0.7218
  653MOL0     C89989   6.767  10.960   1.182  0.4286 -0.4865  0.6742
  653MOL0     C89990   6.889  10.886   1.222  1.2428  0.4267 -0.5903
  653MOL0     C89991   7.009  10.979   1.232 -0.9640  0.0500 -0.6561
  653MOL0     C89992   7.138  10.900   1.269  0.0695  0.5498  0.4705
  653MOL0     N89993   7.179  10.790   1.177 -0.0848  0.3903 -0.2299
  653MOL0     C89994   7.153  10.781   1.041  0.2260  0.1416  0.1557
  653MOL0     C89995   7.191  10.655   1.003 -0.2210 -0.9957 -0.0726
  653MOL0     C89996   7.151  10.585   0.873 -0.3449 -0.7398 -0.1716
  653MOL0     C89997   7.222  10.663   0.757 -0.0255 -0.0509  0.3951
  653MOL0     C89998   7.170  10.606   0.621  0.3974  0.3416 -0.2773
  653MOL0     C89999   7.221  10.477   0.587  0.4655 -0.2773 -0.0257
  653MOL0     O90000   7.365  10.475   0.591 -0.4520 -0.6581 -0.3430
  653MOL0     C90001   7.441  10.360   0.575 -0.5051  0.2735  0.9087
  653MOL0     C90002   7.374  10.236   0.573 -0.0854  0.0187 -0.3118
  653MOL0     C90003   7.440  10.113   0.555  1.1154 -0.0989 -0.2126
  653MOL0     C90004   7.349   9.981   0.541  0.1573 -0.3650  0.2992
  653MOL0     C90005   7.582  10.115   0.543 -0.7773 -0.5688  0.5741
  653MOL0     C90006   7.670  10.008   0.503 -0.0369  0.2696  0.1691
  653MOL0     O90007   7.806  10.018   0.478  0.3517  0.5393 -0.4693
  653MOL0     C90008   7.872   9.928   0.395 -0.3607 -0.6275  0.0855
  653MOL0     C90009   7.890   9.936   0.263  0.3709 -0.6914 -0.4575
  653MOL0     C90010   7.959   9.850   0.181  0.5658  0.1506 -0.8221
  653MOL0     C90011   8.015   9.739   0.241 -0.3390  1.3383  1.1414
  653MOL0     O90012   8.092   9.644   0.175 -0.3910  0.1460 -0.1674
  653MOL0     C90013   8.228   9.641   0.226 -0.1762 -0.1000 -0.1473
  653MOL0     C90014   8.313   9.541   0.141  0.5593 -0.1244 -0.1064
  653MOL0     C90015   8.331   9.608  -0.005  0.0281  0.2574 -0.1870
  653MOL0     C90016   8.396   9.504  -0.097  0.4269 -0.6057  0.0285
  653MOL0     C90017   8.404   9.554  -0.245 -0.9713 -0.3539 -0.2471
  653MOL0     C90018   8.498   9.669  -0.273 -0.8204  0.4403 -0.0081
  653MOL0     C90019   8.547   9.663  -0.420 -0.3990  0.8656 -0.3356
  653MOL0     C90020   8.666   9.753  -0.437 -0.3779 -0.0791 -0.4152
  653MOL0    Cl90021   8.611   9.926  -0.440 -0.5093 -0.6471 -0.3405
  653MOL0     C90022   7.992   9.714   0.378  0.6869 -0.3066  0.3543
  653MOL0     C90023   7.919   9.809   0.454  0.2525  0.9788 -0.9631
  653MOL0     O90024   7.607   9.903   0.484 -0.0729  0.2078  0.1523
  653MOL0     C90025   7.644  10.242   0.560 -0.6271  0.7897  0.0540
  653MOL0     C90026   7.582  10.360   0.572 -0.1711  0.0856 -0.5776
  653MOL0     N90027   7.244  10.595   1.114 -0.1236 -0.2854  0.2327
  653MOL0     N90028   7.229  10.672   1.218  0.7739 -0.8277  0.1705
  653MOL0     C90029   6.375  10.736   0.682 -0.9040 -0.2824 -0.0739
  653MOL0     C90030   6.260  10.666   0.660 -0.1214 -0.3373 -0.1031
  653MOL0     C90031   5.974  10.319   0.558 -0.7934  0.7538  0.1115
  653MOL0     C90032   5.884  10.428   0.571 -0.3535 -0.4831 -0.5110
  653MOL0     C90033   5.749  10.412   0.529  0.5797  0.0552 -0.1251
  653MOL0     C90034   5.695  10.291   0.495 -0.5254 -0.3414  0.4578
  653MOL0     O90035   5.568  10.281   0.459 -0.1351 -0.9657 -0.2262
  653MOL0     C90036   5.514  10.156   0.395 -0.4152 -0.4439 -0.0968
  653MOL0     C90037   5.371  10.200   0.382  0.1391 -0.0639 -0.5472
  653MOL0     C90038   5.271  10.098   0.333 -0.3078 -0.0961 -0.0860
  653MOL0     C90039   5.311  10.027   0.201  0.6166  0.4791  0.1911
  653MOL0     C90040   5.206   9.929   0.159 -0.3179 -1.6512  0.1030
  653MOL0     C90041   5.115   9.844   0.142  0.3623 -0.6123  0.3461
  653MOL0     C90042   5.783  10.182   0.486 -0.3559 -0.1148  0.3743
  653MOL0     C90043   5.925  10.195   0.509 -0.7741  0.2461  1.2401
  653MOL0     C90044   6.008  10.075   0.469 -0.0774 -0.3077  0.8498
  653MOL0     H90045   6.383  10.355   0.710  0.1667  0.2830 -1.3242
  653MOL0     H90046   6.602  10.496   0.746 -0.2578 -1.9252 -0.3328
  653MOL0     H90047   6.542  10.934   0.833  1.5800 -3.1598  1.2619
  653MOL0     H90048   6.584  10.945   0.660  1.9420  0.3819 -0.6301
  653MOL0     H90049   6.815  10.897   0.724  3.0557 -1.1000  3.0913
  653MOL0     H90050   6.757  11.051   0.790 -0.0551  0.7221  1.8777
  653MOL0     H90051   6.704  10.808   0.961  0.4686 -1.0751 -1.4520
  653MOL0     H90052   6.872  10.836   0.934 -0.6929 -2.1644  0.4581
  653MOL0     H90053   6.855  11.066   1.008  0.3380  0.3051 -1.4687
  653MOL0     H90054   6.681  11.068   1.009  1.3445 -0.0570 -0.9717
  653MOL0     H90055   6.678  10.899   1.197 -0.2652  0.5929  1.0569
  653MOL0     H90056   6.760  11.053   1.238  2.9834  0.7568 -0.8640
  653MOL0     H90057   6.869  10.843   1.321  1.7230  1.3938 -0.0582
  653MOL0     H90058   6.908  10.798   1.160  5.2717 -1.1620  2.4313
  653MOL0     H90059   6.979  11.049   1.310 -1.7763  0.7290 -1.5609
  653MOL0     H90060   7.027  11.027   1.135  1.2788  0.3946 -0.1356
  653MOL0     H90061   7.225  10.967   1.269  0.7445 -0.2957 -0.5226
  653MOL0     H90062   7.121  10.852   1.366 -0.5016 -1.7091 -0.7001
  653MOL0     H90063   7.106  10.860   0.983 -0.1064 -1.5616 -2.0152
  653MOL0     H90064   7.043  10.602   0.862 -0.1746  0.3498 -0.3129
  653MOL0     H90065   7.176  10.479   0.870  1.4410 -0.3888  0.5953
  653MOL0     H90066   7.189  10.766   0.775 -0.3949 -0.2286  0.7431
  653MOL0     H90067   7.331  10.664   0.764  0.1519  0.8721 -1.7956
  653MOL0     H90068   7.062  10.601   0.639  0.4247 -3.3180 -0.3997
  653MOL0     H90069   7.188  10.673   0.536 -1.1027  0.3763 -0.6063
  653MOL0     H90070   7.171  10.398   0.644  2.3439 -0.7710  1.0260
  653MOL0     H90071   7.191  10.456   0.484 -1.5792  0.9485  0.2790
  653MOL0     H90072   7.266  10.235   0.584  0.0870  1.1788  2.2384
  653MOL0     H90073   7.363   9.939   0.441  1.2496  0.1311  0.2306
  653MOL0     H90074   7.241   9.999   0.552  0.0835  0.6714 -1.6951
  653MOL0     H90075   7.389   9.908   0.613  1.6398 -2.8797 -2.8284
  653MOL0     H90076   7.848  10.025   0.219  0.5813 -0.8968 -1.0903
  653MOL0     H90077   7.965   9.873   0.075 -2.0382 -0.9979 -1.2961
  653MOL0     H90078   8.268   9.743   0.216 -0.9704  0.1989 -0.3509
  653MOL0     H90079   8.226   9.608   0.330  0.6605  0.4928  0.0670
  653MOL0     H90080   8.409   9.508   0.182 -0.4093  0.2558  2.6287
  653MOL0     H90081   8.253   9.450   0.136 -1.5169  1.2280 -2.6484
  653MOL0     H90082   8.382   9.705  -0.005  0.4911  0.0230 -1.0796
  653MOL0     H90083   8.233   9.636  -0.044 -0.8516 -2.6497 -0.3230
  653MOL0     H90084   8.333   9.415  -0.102 -0.5573 -0.0106  1.2611
  653MOL0     H90085   8.496   9.474  -0.063  0.1981  0.4165  1.7425
  653MOL0     H90086   8.424   9.463  -0.303 -0.7417 -0.3768 -0.1314
  653MOL0     H90087   8.305   9.589  -0.277 -1.2299 -0.4281  0.4542
  653MOL0     H90088   8.590   9.657  -0.216  0.4415  2.2917 -1.5638
  653MOL0     H90089   8.449   9.763  -0.247 -2.7600  0.3121 -2.7852
  653MOL0     H90090   8.461   9.692  -0.482 -2.3567 -0.0205  1.7969
  653MOL0     H90091   8.563   9.558  -0.447 -2.2370  0.9189 -1.8109
  653MOL0     H90092   8.710   9.737  -0.536  0.6232 -0.0295  0.0105
  653MOL0     H90093   8.736   9.740  -0.354  0.8827  0.0910 -1.4087
  653MOL0     H90094   8.027   9.622   0.425 -0.6582 -0.8221  0.3938
  653MOL0     H90095   7.907   9.793   0.561 -2.0499  0.7114 -1.2072
  653MOL0     H90096   7.749  10.249   0.586  0.0708  0.8634 -2.5142
  653MOL0     H90097   7.633  10.454   0.589 -0.1644  0.3270 -1.8259
  653MOL0     H90098   6.370  10.844   0.675  0.2064 -0.2283 -0.1241
  653MOL0     H90099   6.173  10.718   0.623  0.6435 -1.4357 -3.9069
  653MOL0     H90100   5.925  10.520   0.613  0.5484 -0.4157 -1.4892
  653MOL0     H90101   5.681  10.496   0.538 -0.1855  0.0640 -4.0953
  653MOL0     H90102   5.563  10.127   0.302 -2.5984 -1.4566 -0.9968
  653MOL0     H90103   5.526  10.082   0.475 -0.7505 -0.9848 -0.5439
  653MOL0     H90104   5.362  10.281   0.309  1.2317  0.3948 -0.1878
  653MOL0     H90105   5.330  10.230   0.479 -0.7357 -1.3591 -0.4942
  653MOL0     H90106   5.262  10.011   0.399  0.3299 -1.3570 -1.5903
  653MOL0     H90107   5.168  10.135   0.332 -1.4219 -2.9418  0.0835
  653MOL0     H90108   5.398   9.963   0.217 -0.9687 -1.9444 -0.4038
  653MOL0     H90109   5.333  10.100   0.122  1.1298  0.6233  0.4617
  653MOL0     H90110   5.036   9.773   0.124 -2.7618  2.3893  1.0416
  653MOL0     H90111   5.747  10.084   0.458 -1.8328  0.6108 -0.4129
  653MOL0     H90112   5.950   9.992   0.428  0.4146 -0.7773  1.0943
  653MOL0     H90113   6.084  10.099   0.394  1.5239 -2.0531  1.8185
  653MOL0     H90114   6.067  10.041   0.555  0.4891  0.5102  0.7998
  654MOL0     O90115   3.353   7.261   1.212  0.2593  0.0544 -0.0411
  654MOL0     C90116   3.323   7.172   1.291  0.0897  0.2498 -0.0076
  654MOL0     O90117   3.415   7.116   1.367  0.2465 -0.1585 -0.3702
  654MOL0     C90118   3.548   7.147   1.341  0.1326  0.2377 -0.4270
  654MOL0     C90119   3.619   7.058   1.255  0.2537 -0.3509  0.1539
  654MOL0     C90120   3.750   7.075   1.234  0.2028 -0.3044  0.9989
  654MOL0     C90121   3.823   7.189   1.288  0.2267  0.0426  0.3795
  654MOL0     O90122   3.954   7.205   1.255 -0.3178 -0.7174  0.5022
  654MOL0     C90123   4.034   7.093   1.214  0.3299  0.1421  1.1870
  654MOL0     C90124   4.179   7.114   1.247  0.3740  0.5165  0.7820
  654MOL0     C90125   4.250   7.194   1.143  0.4070 -0.1986  0.8893
  654MOL0     C90126   4.392   7.217   1.198 -0.0027  0.0252 -0.4499
  654MOL0     C90127   4.464   7.329   1.119  0.1720  0.5370  0.5382
  654MOL0     C90128   4.504   7.278   0.988  0.0799 -1.1682 -0.0426
  654MOL0     C90129   4.562   7.394   0.901 -0.6839  0.1414 -0.4191
  654MOL0     C90130   4.601   7.348   0.767 -0.4871 -0.1308  0.8712
  654MOL0     N90131   4.659   7.458   0.698 -0.3123  0.1741  0.8795
  654MOL0     C90132   4.747   7.552   0.749 -0.4276 -0.0916 -0.2106
  654MOL0     C90133   4.726   7.654   0.661  0.7339 -0.6124  0.5915
  654MOL0     C90134   4.800   7.785   0.670 -0.2979 -0.6631 -0.2686
  654MOL0     C90135   4.889   7.795   0.539  0.1824 -0.3500 -0.6196
  654MOL0     C90136   4.965   7.936   0.533 -0.2283  0.3880  0.6152
  654MOL0     C90137   5.064   7.930   0.411  0.7610 -0.1853 -0.1336
  654MOL0     O90138   5.161   7.824   0.404  0.4317 -0.1230  0.1222
  654MOL0     C90139   5.272   7.836   0.316 -0.0058 -0.2483 -0.6660
  654MOL0     C90140   5.293   7.940   0.231  0.7449 -0.3198 -0.8045
  654MOL0     C90141   5.405   7.956   0.153 -0.4405 -0.3697  0.1598
  654MOL0     C90142   5.409   8.079   0.072 -0.2797 -0.2474  0.5058
  654MOL0     C90143   5.500   7.848   0.147  0.6347 -0.9600 -0.7962
  654MOL0     C90144   5.625   7.852   0.063  0.2533  0.3460 -0.8284
  654MOL0     O90145   5.723   7.755   0.070  1.0709  0.0928  0.1115
  654MOL0     C90146   5.825   7.769  -0.020  0.3949 -0.3908 -0.3493
  654MOL0     C90147   5.947   7.821   0.028  0.5263  0.4794 -0.4358
  654MOL0     C90148   6.051   7.855  -0.069  0.1431 -0.1417 -0.7820
  654MOL0     C90149   6.032   7.803  -0.204  0.2389 -0.7597 -0.4336
  654MOL0     O90150   6.127   7.794  -0.303  0.1678 -0.7101  0.1106
  654MOL0     C90151   6.203   7.921  -0.324 -0.0038  0.0333  0.2082
  654MOL0     C90152   6.297   7.899  -0.452  0.0552  0.0454 -0.8996
  654MOL0     C90153   6.418   7.803  -0.425 -0.2173  0.7519 -0.5272
  654MOL0     C90154   6.522   7.841  -0.321 -0.0400  0.1048 -0.7224
  654MOL0     C90155   6.636   7.744  -0.323 -0.6442  0.4288  0.4667
  654MOL0     C90156   6.729   7.766  -0.203  0.1079  0.4216 -0.3112
  654MOL0     C90157   6.855   7.683  -0.222 -0.1935 -0.5085  0.0434
  654MOL0     C90158   6.972   7.759  -0.293  0.1312  0.5629  0.6292
  654MOL0    Cl90159   7.041   7.889  -0.192 -0.3304  0.2770 -0.2247
  654MOL0     C90160   5.916   7.750  -0.241 -0.3325 -0.7837 -1.2895
  654MOL0     C90161   5.809   7.740  -0.156 -0.3040  0.3831 -0.0439
  654MOL0     O90162   5.626   7.937  -0.022  0.4404  0.1203 -0.3716
  654MOL0     C90163   5.483   7.745   0.240 -0.3231  0.4150  0.4177
  654MOL0     C90164   5.377   7.740   0.324  0.8722 -0.4896 -0.3030
  654MOL0     N90165   4.634   7.630   0.569  0.8820  0.8729  0.5760
  654MOL0     N90166   4.604   7.501   0.578 -0.2947  0.2911 -0.8039
  654MOL0     C90167   3.743   7.278   1.367 -0.0527 -0.9912  0.2288
  654MOL0     C90168   3.607   7.259   1.397 -0.0717  0.1545  0.0537
  654MOL0     C90169   3.183   7.130   1.295 -0.1723 -0.1080 -0.4341
  654MOL0     C90170   3.150   7.015   1.371  0.2725  0.5482  0.3640
  654MOL0     C90171   3.019   6.977   1.399 -0.3022 -0.0081  0.1294
  654MOL0     C90172   2.914   7.049   1.344  0.5676 -0.2155 -0.4398
  654MOL0     O90173   2.778   7.015   1.358 -0.4273 -0.0732 -0.0757
  654MOL0     C90174   2.745   6.888   1.413  0.4346  0.4394  0.4182
  654MOL0     C90175   2.725   6.876   1.563  0.7508 -0.3533 -0.3756
  654MOL0     C90176   2.630   6.984   1.612 -0.2008  0.0713 -0.4006
  654MOL0     C90177   2.559   6.953   1.740  0.2029  0.3896 -0.2787
  654MOL0     C90178   2.459   6.853   1.719  0.9219  0.3094 -0.3140
  654MOL0     C90179   2.388   6.753   1.718  0.0050 -0.5771 -0.3777
  654MOL0     C90180   2.942   7.161   1.269 -0.4410  0.1045 -0.1744
  654MOL0     C90181   3.076   7.211   1.245 -0.7978  0.1680 -0.1032
  654MOL0     C90182   3.094   7.349   1.187  0.6514 -0.5352 -0.0432
  654MOL0     H90183   3.573   6.965   1.222 -2.1200  0.9374 -0.4045
  654MOL0     H90184   3.804   6.991   1.191 -1.7539 -0.8827 -0.4696
  654MOL0     H90185   4.028   7.073   1.106  3.7994 -0.2998  0.9507
  654MOL0     H90186   4.001   6.996   1.254  0.2177 -0.8371 -1.0924
  654MOL0     H90187   4.178   7.166   1.343 -0.1187 -0.4837  1.3301
  654MOL0     H90188   4.221   7.014   1.262 -2.0273 -0.2125  3.3990
  654MOL0     H90189   4.251   7.129   1.055  0.2095  1.0850 -0.0972
  654MOL0     H90190   4.198   7.285   1.113  1.0682 -0.9790 -3.2201
  654MOL0     H90191   4.381   7.256   1.300 -0.0819 -1.9503  0.3529
  654MOL0     H90192   4.461   7.132   1.195 -0.1010 -0.1519  1.1861
  654MOL0     H90193   4.555   7.350   1.175  0.3151 -1.1052  0.9641
  654MOL0     H90194   4.392   7.411   1.109  2.7881  2.7687 -1.4804
  654MOL0     H90195   4.580   7.201   1.002  1.2305 -0.3325 -1.3874
  654MOL0     H90196   4.419   7.236   0.934 -0.0802  1.5285 -2.1146
  654MOL0     H90197   4.652   7.431   0.951  1.3107 -0.7263 -3.1900
  654MOL0     H90198   4.497   7.481   0.885 -0.2530  0.2318 -1.7399
  654MOL0     H90199   4.652   7.250   0.766 -4.5931 -2.7072 -3.8191
  654MOL0     H90200   4.516   7.313   0.708 -1.7278  2.0255  1.2762
  654MOL0     H90201   4.813   7.526   0.831 -2.5641 -1.4062  1.1855
  654MOL0     H90202   4.856   7.795   0.763  0.4013  1.5776 -0.8720
  654MOL0     H90203   4.733   7.871   0.676  2.6677  1.7225  2.3734
  654MOL0     H90204   4.970   7.721   0.538  1.8331  1.3367  0.6271
  654MOL0     H90205   4.827   7.787   0.449  0.1913 -1.0217 -0.5681
  654MOL0     H90206   4.894   8.019   0.535  0.3011  0.8366  0.9275
  654MOL0     H90207   5.022   7.951   0.625  1.5836  2.1835 -0.7135
  654MOL0     H90208   5.004   7.928   0.319  0.6019 -0.8668 -0.0228
  654MOL0     H90209   5.113   8.027   0.420 -0.1986  0.4825 -1.6141
  654MOL0     H90210   5.223   8.024   0.228  0.0597 -0.8492 -3.8459
  654MOL0     H90211   5.496   8.145   0.080 -0.0320 -0.3276 -1.1498
  654MOL0     H90212   5.319   8.140   0.083  0.4382  0.8558  0.4109
  654MOL0     H90213   5.401   8.049  -0.033  0.8443 -1.2626  0.6825
  654MOL0     H90214   5.963   7.856   0.130  3.4353  4.1863 -1.9043
  654MOL0     H90215   6.142   7.901  -0.032 -0.2193 -0.1329  0.1367
  654MOL0     H90216   6.133   8.002  -0.347  0.0130 -0.0339 -0.0891
  654MOL0     H90217   6.258   7.970  -0.243 -0.0881  2.4026 -1.0788
  654MOL0     H90218   6.237   7.852  -0.531 -0.7671 -0.2268 -0.1356
  654MOL0     H90219   6.325   7.997  -0.492 -0.0172  0.2087 -0.5516
  654MOL0     H90220   6.473   7.804  -0.519  0.8618 -0.4452  0.0538
  654MOL0     H90221   6.386   7.701  -0.404  0.8548  0.5835  0.3702
  654MOL0     H90222   6.495   7.853  -0.216  2.4582 -1.7987  0.2282
  654MOL0     H90223   6.561   7.937  -0.357 -1.3410  0.7801 -0.4090
  654MOL0     H90224   6.597   7.641  -0.323 -0.6488  0.3813 -1.5607
  654MOL0     H90225   6.693   7.764  -0.414 -3.3777  1.9834 -1.0239
  654MOL0     H90226   6.674   7.746  -0.111 -1.6575  1.9997 -0.9667
  654MOL0     H90227   6.760   7.871  -0.194 -1.2994  0.6630  3.4715
  654MOL0     H90228   6.830   7.599  -0.288  1.4995  0.9266 -2.5815
  654MOL0     H90229   6.893   7.645  -0.127  2.4220 -0.2016 -0.8140
  654MOL0     H90230   6.925   7.812  -0.377 -1.4599  0.1488  1.2167
  654MOL0     H90231   7.041   7.683  -0.331 -0.6371  0.4410 -0.5950
  654MOL0     H90232   5.903   7.724  -0.346 -0.9280 -1.8153 -0.9846
  654MOL0     H90233   5.714   7.699  -0.189 -0.4130 -0.6018  1.4302
  654MOL0     H90234   5.568   7.678   0.230  0.4328  1.4117  0.0278
  654MOL0     H90235   5.359   7.654   0.388  1.0951  1.0637  1.9725
  654MOL0     H90236   3.789   7.365   1.413 -1.8908  1.7279 -2.6103
  654MOL0     H90237   3.549   7.323   1.463  1.3399  2.6434 -0.9994
  654MOL0     H90238   3.214   6.955   1.435  0.1218  1.4653  1.4165
  654MOL0     H90239   3.004   6.887   1.457  1.0263 -0.8050 -0.7177
  654MOL0     H90240   2.649   6.866   1.364  1.1361 -0.6002 -0.5178
  654MOL0     H90241   2.810   6.814   1.368 -0.3605 -1.3711  2.1104
  654MOL0     H90242   2.821   6.876   1.615  1.1706 -1.1933 -1.1282
  654MOL0     H90243   2.686   6.776   1.585 -0.2502 -0.3362 -1.9184
  654MOL0     H90244   2.678   7.083   1.611  0.9430 -0.4684 -0.3121
  654MOL0     H90245   2.552   7.009   1.539 -1.3804  1.0507  1.1208
  654MOL0     H90246   2.505   7.040   1.778  1.8817 -0.1800  4.0259
  654MOL0     H90247   2.634   6.925   1.814 -0.7356 -1.7309 -0.0516
  654MOL0     H90248   2.334   6.660   1.716  1.6217 -1.6390  1.8990
  654MOL0     H90249   2.859   7.223   1.237 -1.8610 -0.9304  1.3531
  654MOL0     H90250   2.997   7.392   1.158  0.3140 -0.6129  0.9326
  654MOL0     H90251   3.153   7.405   1.260  2.9098  0.9439 -2.8022
  654MOL0     H90252   3.151   7.350   1.094  0.7877  0.2337  0.0376
  655MOL0     O90253   0.312   2.816   0.213  0.5820  0.1795 -0.4152
  655MOL0     C90254   0.234   2.809   0.117 -0.0564  0.0171  0.1854
  655MOL0     O90255   0.267   2.838  -0.008  0.7892 -0.0648 -0.1294
  655MOL0     C90256   0.396   2.857  -0.053  0.2992 -0.1050  0.9260
  655MOL0     C90257   0.420   2.957  -0.145 -0.4736 -0.1207 -0.2345
  655MOL0     C90258   0.551   2.984  -0.180  0.3073 -0.0109  0.1124
  655MOL0     C90259   0.657   2.908  -0.141  0.1031  0.1212 -0.3467
  655MOL0     O90260   0.777   2.961  -0.174  0.1676  0.9310 -0.3409
  655MOL0     C90261   0.898   2.901  -0.122 -0.2693 -0.4910  1.3248
  655MOL0     C90262   0.957   2.810  -0.231 -0.3733  0.1269  0.1509
  655MOL0     C90263   1.107   2.801  -0.211  0.5982  0.1395  0.4390
  655MOL0     C90264   1.166   2.698  -0.313  1.1543  0.1928 -0.1974
  655MOL0     C90265   1.309   2.664  -0.272  0.3363  0.2038  0.2427
  655MOL0     C90266   1.411   2.773  -0.295 -0.2566  0.3000 -0.4175
  655MOL0     C90267   1.460   2.795  -0.439 -0.3539  0.2438  0.3349
  655MOL0     C90268   1.373   2.893  -0.521  0.0150  0.5107 -0.6151
  655MOL0     N90269   1.305   3.003  -0.448  0.3472  0.2500 -0.3453
  655MOL0     C90270   1.370   3.094  -0.375 -0.0341 -0.4006  0.4031
  655MOL0     C90271   1.270   3.161  -0.310  0.2146 -0.4133 -0.1000
  655MOL0     C90272   1.298   3.275  -0.220  0.3103 -1.2740  0.0405
  655MOL0     C90273   1.424   3.256  -0.143  0.9599 -0.1742 -0.5533
  655MOL0     C90274   1.426   3.125  -0.057 -0.4317  0.2945 -0.0914
  655MOL0     C90275   1.569   3.098  -0.008 -0.5685  0.1035  0.1682
  655MOL0     O90276   1.643   3.061  -0.122 -0.6050  0.7586  0.2767
  655MOL0     C90277   1.752   2.994  -0.092 -0.1367  0.4871 -0.3693
  655MOL0     C90278   1.804   2.926  -0.204 -0.1086 -0.2080  0.1594
  655MOL0     C90279   1.936   2.873  -0.202 -0.1717 -0.2677  0.4753
  655MOL0     C90280   1.982   2.835  -0.341 -0.6053 -0.4399 -0.4890
  655MOL0     C90281   2.017   2.883  -0.090 -0.3176  0.4582 -0.5822
  655MOL0     C90282   2.161   2.833  -0.081  0.1265  0.0641 -0.6618
  655MOL0     O90283   2.227   2.805  -0.199 -0.3817 -0.2991  0.4294
  655MOL0     C90284   2.357   2.767  -0.190 -0.5808 -0.2611  0.0714
  655MOL0     C90285   2.449   2.865  -0.156 -1.1564 -0.3121  0.5180
  655MOL0     C90286   2.587   2.840  -0.157 -0.5085 -0.2732  0.1018
  655MOL0     C90287   2.634   2.711  -0.197  0.5543  0.2436  0.4125
  655MOL0     O90288   2.773   2.688  -0.180 -0.0371 -0.1021 -0.1080
  655MOL0     C90289   2.821   2.551  -0.150 -0.2004 -0.2006 -0.3332
  655MOL0     C90290   2.970   2.555  -0.132  0.0739 -0.0847 -0.4467
  655MOL0     C90291   3.053   2.550  -0.262 -0.6655 -0.2681 -0.7804
  655MOL0     C90292   3.204   2.559  -0.227 -0.2206 -0.1518  1.4099
  655MOL0     C90293   3.273   2.444  -0.153  0.6083  0.0990 -1.0492
  655MOL0     C90294   3.418   2.466  -0.138  0.0183  0.3714 -0.1194
  655MOL0     C90295   3.486   2.347  -0.073 -1.3253  1.2707  0.1400
  655MOL0     C90296   3.488   2.352   0.078 -1.2389 -0.4576 -0.4904
  655MOL0    Cl90297   3.336   2.297   0.160 -0.8116 -0.0515  0.0360
  655MOL0     C90298   2.537   2.614  -0.233  0.4599 -0.3153 -1.1665
  655MOL0     C90299   2.392   2.635  -0.222 -0.1442  0.7953 -0.3740
  655MOL0     O90300   2.207   2.823   0.031  0.2378  0.2414  0.9291
  655MOL0     C90301   1.967   2.939   0.022  0.3029  0.2508 -0.7213
  655MOL0     C90302   1.833   2.992   0.027 -1.2192 -1.2881  0.5443
  655MOL0     N90303   1.149   3.112  -0.359 -0.0270  0.2838  0.1443
  655MOL0     N90304   1.176   3.023  -0.449 -0.0088 -0.0460 -0.1126
  655MOL0     C90305   0.629   2.800  -0.059 -0.9757 -0.2995  0.9147
  655MOL0     C90306   0.501   2.771  -0.008 -0.8077  0.0063  1.3732
  655MOL0     C90307   0.104   2.788   0.148  0.0920 -0.5262 -0.0713
  655MOL0     C90308   0.044   2.869   0.256  0.8452  0.0890  0.0114
  655MOL0     C90309  -0.093   2.855   0.281  0.6447  0.0506  0.4835
  655MOL0     C90310  -0.175   2.769   0.203 -0.0468 -0.0735 -0.3691
  655MOL0     O90311  -0.311   2.770   0.230  0.1121  0.5932 -0.4916
  655MOL0     C90312  -0.402   2.699   0.153  0.0853  0.0443  0.2150
  655MOL0     C90313  -0.519   2.644   0.243 -0.6941  0.0306  0.1799
  655MOL0     C90314  -0.655   2.647   0.161 -0.6790  0.0961 -0.5928
  655MOL0     C90315  -0.761   2.557   0.223  0.6821 -0.4906 -0.8947
  655MOL0     C90316  -0.847   2.498   0.127  0.3561 -0.9278 -0.0735
  655MOL0     C90317  -0.918   2.458   0.034 -0.6759 -0.6081 -0.1670
  655MOL0     C90318  -0.115   2.690   0.103 -0.3360 -0.9087  0.5014
  655MOL0     C90319   0.023   2.709   0.069  0.0151  0.3711  0.2703
  655MOL0     C90320   0.075   2.636  -0.050 -0.3243  0.1841 -0.0012
  655MOL0     H90321   0.337   3.020  -0.176 -1.3837 -1.6703 -1.1023
  655MOL0     H90322   0.577   3.074  -0.235 -1.4988  0.1402 -0.5788
  655MOL0     H90323   0.896   2.839  -0.032 -2.5722 -3.0155 -0.3080
  655MOL0     H90324   0.971   2.981  -0.108  1.2605 -1.9374  2.0273
  655MOL0     H90325   0.921   2.707  -0.230  0.2047 -0.0729  1.0095
  655MOL0     H90326   0.929   2.859  -0.325 -2.3739 -0.7453  0.2464
  655MOL0     H90327   1.156   2.895  -0.238  4.0210 -2.2971 -3.0052
  655MOL0     H90328   1.119   2.767  -0.108  0.5647  1.0345  0.7491
  655MOL0     H90329   1.114   2.602  -0.302  3.7034 -1.3563 -0.7778
  655MOL0     H90330   1.162   2.734  -0.416 -1.1152  0.9320  0.0837
  655MOL0     H90331   1.342   2.568  -0.313  0.5767  0.7499 -0.8705
  655MOL0     H90332   1.316   2.648  -0.164 -0.3864 -0.2974  0.2246
  655MOL0     H90333   1.374   2.862  -0.243 -0.8888 -1.0406  1.5600
  655MOL0     H90334   1.497   2.748  -0.231 -0.1380 -1.0036 -1.0544
  655MOL0     H90335   1.466   2.699  -0.491 -0.6867 -0.1137  0.9425
  655MOL0     H90336   1.565   2.823  -0.428 -0.4398 -0.0418  2.3096
  655MOL0     H90337   1.441   2.940  -0.593  0.1016  0.5578 -0.5046
  655MOL0     H90338   1.303   2.847  -0.591  0.2944 -2.9460  1.1323
  655MOL0     H90339   1.478   3.099  -0.364 -0.1430 -0.7949  1.8256
  655MOL0     H90340   1.213   3.291  -0.153  0.7351  1.6318  0.0082
  655MOL0     H90341   1.307   3.367  -0.278  0.1101 -2.4843 -2.0065
  655MOL0     H90342   1.510   3.249  -0.211  0.6888 -2.2661 -0.7411
  655MOL0     H90343   1.442   3.349  -0.088 -1.8881 -1.7695  3.5337
  655MOL0     H90344   1.378   3.140   0.040  1.3528  1.3271  0.6800
  655MOL0     H90345   1.388   3.040  -0.114  0.2553  0.1968 -0.4217
  655MOL0     H90346   1.603   3.191   0.038  0.6409 -0.1587 -0.1424
  655MOL0     H90347   1.567   3.008   0.054  0.7990 -2.4990 -3.2410
  655MOL0     H90348   1.738   2.935  -0.290  0.4650  0.5107 -0.2108
  655MOL0     H90349   2.056   2.906  -0.378 -2.6348  1.8321 -0.4058
  655MOL0     H90350   1.897   2.837  -0.409 -0.5348 -3.1619 -0.7831
  655MOL0     H90351   2.020   2.734  -0.358 -2.5887 -1.3459  0.1949
  655MOL0     H90352   2.434   2.969  -0.130 -0.1136 -0.3043  1.1458
  655MOL0     H90353   2.666   2.907  -0.126  0.8034 -2.3839  1.6568
  655MOL0     H90354   2.774   2.533  -0.053 -1.1951 -0.9998 -0.9476
  655MOL0     H90355   2.797   2.471  -0.220 -0.2704  0.7825 -1.4684
  655MOL0     H90356   2.985   2.640  -0.064 -4.7363  0.6148  0.1046
  655MOL0     H90357   2.992   2.465  -0.073 -2.5665  0.5133  1.6625
  655MOL0     H90358   3.019   2.637  -0.319 -1.7433 -0.2184 -0.0970
  655MOL0     H90359   3.030   2.460  -0.320  1.7109 -0.6053 -1.2612
  655MOL0     H90360   3.230   2.650  -0.171  2.7290  0.3838 -0.5916
  655MOL0     H90361   3.248   2.555  -0.327 -1.8483 -4.0837  0.6634
  655MOL0     H90362   3.223   2.441  -0.055 -1.7262 -1.5654 -2.2029
  655MOL0     H90363   3.256   2.348  -0.201  2.6977 -0.5778 -0.5328
  655MOL0     H90364   3.436   2.554  -0.077  0.1884 -0.1515  0.5944
  655MOL0     H90365   3.461   2.493  -0.235  0.0290  3.9008  0.7297
  655MOL0     H90366   3.593   2.352  -0.097 -1.2413  1.7674  0.6022
  655MOL0     H90367   3.440   2.256  -0.111  0.0641  0.3482  0.5919
  655MOL0     H90368   3.507   2.455   0.110 -0.5354 -1.7694  4.1500
  655MOL0     H90369   3.573   2.291   0.112 -0.3983  0.6718 -0.5106
  655MOL0     H90370   2.569   2.514  -0.259  1.3106  0.0191 -1.4278
  655MOL0     H90371   2.329   2.549  -0.239  2.6645 -1.5221  0.1353
  655MOL0     H90372   2.024   2.946   0.114  0.6054  0.3895 -0.9196
  655MOL0     H90373   1.802   3.053   0.111 -1.3089  1.8273 -1.6031
  655MOL0     H90374   0.713   2.740  -0.025  3.2548  4.8507  0.8765
  655MOL0     H90375   0.488   2.681   0.051  0.2591 -0.8616  0.3315
  655MOL0     H90376   0.098   2.936   0.321 -0.7049 -0.0047  1.4690
  655MOL0     H90377  -0.141   2.904   0.365  0.8664  0.0499  0.6112
  655MOL0     H90378  -0.442   2.755   0.068 -0.8247  1.7938  1.7537
  655MOL0     H90379  -0.354   2.609   0.112 -1.7213 -1.1127  0.5097
  655MOL0     H90380  -0.527   2.698   0.338  1.5551  4.2371 -1.7702
  655MOL0     H90381  -0.493   2.541   0.271 -0.2837 -0.4668 -1.8691
  655MOL0     H90382  -0.687   2.751   0.173  2.4733  1.0813  0.3319
  655MOL0     H90383  -0.646   2.632   0.053  0.4537  4.3741 -1.3130
  655MOL0     H90384  -0.825   2.622   0.283 -0.8815 -1.5855 -1.3092
  655MOL0     H90385  -0.710   2.481   0.283  2.1455  2.0255  1.2711
  655MOL0     H90386  -0.973   2.406  -0.042  0.3288 -1.3911 -0.3859
  655MOL0     H90387  -0.165   2.613   0.046 -0.1514 -0.9112  0.3412
  655MOL0     H90388   0.176   2.598  -0.034 -0.4676 -0.9767 -1.6510
  655MOL0     H90389   0.007   2.557  -0.083  2.4684 -2.3783 -0.0444
  655MOL0     H90390   0.092   2.697  -0.139 -1.9194 -0.3785 -0.7181
  656MOL0     O90391   1.987   9.441   0.604 -0.4364 -0.1100  0.1936
  656MOL0     C90392   1.976   9.340   0.538 -0.8058  0.6317 -1.2638
  656MOL0     O90393   2.057   9.306   0.431 -0.0639 -0.8333  0.4930
  656MOL0     C90394   2.146   9.395   0.382 -0.2176 -0.0379 -0.1895
  656MOL0     C90395   2.213   9.500   0.454 -0.7350 -0.1988 -0.4368
  656MOL0     C90396   2.304   9.583   0.383  0.4617  0.0762 -0.7743
  656MOL0     C90397   2.323   9.580   0.246  0.7610 -0.2877  0.5603
  656MOL0     O90398   2.396   9.672   0.174  0.0017 -0.7948  0.2633
  656MOL0     C90399   2.450   9.798   0.232  0.8080  1.5695 -0.0485
  656MOL0     C90400   2.590   9.791   0.282 -0.3725  0.2848 -0.7263
  656MOL0     C90401   2.641   9.908   0.364 -0.7176 -1.1793 -0.8843
  656MOL0     C90402   2.789   9.867   0.411  0.4425 -1.1503  0.6289
  656MOL0     C90403   2.861   9.981   0.497 -1.0684 -0.6525  0.5740
  656MOL0     C90404   2.867  10.118   0.426 -0.2573 -0.8434  0.4215
  656MOL0     C90405   2.880  10.233   0.526  0.5235  0.3182 -0.4563
  656MOL0     C90406   2.847  10.376   0.468 -0.1269  0.8440 -0.4599
  656MOL0     N90407   2.954  10.422   0.384  0.1192  0.3890  0.6447
  656MOL0     C90408   3.088  10.424   0.417 -0.2588  0.1719  0.2392
  656MOL0     C90409   3.148  10.491   0.318  0.2121 -0.1190  1.1131
  656MOL0     C90410   3.291  10.491   0.281 -0.0391 -0.2878 -0.0083
  656MOL0     C90411   3.368  10.381   0.354 -0.0026  1.0952  0.3471
  656MOL0     C90412   3.518  10.398   0.321  0.2131  1.0759  0.9150
  656MOL0     C90413   3.596  10.295   0.402  1.1134  0.0904 -0.2488
  656MOL0     O90414   3.728  10.332   0.392  0.2524  0.0386 -0.1783
  656MOL0     C90415   3.822  10.290   0.482 -0.3087 -0.0848  0.1405
  656MOL0     C90416   3.947  10.340   0.465 -0.9377  0.8694  0.1914
  656MOL0     C90417   4.060  10.296   0.536 -0.5920  0.0963 -0.2319
  656MOL0     C90418   4.195  10.374   0.498  0.5207  0.2194  0.0104
  656MOL0     C90419   4.041  10.197   0.638 -0.3024  0.3899  0.6228
  656MOL0     C90420   4.150  10.164   0.732  0.2221  0.1374 -0.3629
  656MOL0     O90421   4.258  10.236   0.715 -0.1720  0.8435 -0.3199
  656MOL0     C90422   4.360  10.237   0.812 -0.4864  0.3148 -0.1309
  656MOL0     C90423   4.333  10.234   0.952 -0.0662  0.2428  0.2608
  656MOL0     C90424   4.429  10.268   1.040 -0.6711 -0.1349 -0.4266
  656MOL0     C90425   4.560  10.318   0.998 -0.2565 -0.1808 -1.5635
  656MOL0     O90426   4.662  10.362   1.075 -1.1746 -0.7117  0.4723
  656MOL0     C90427   4.708  10.281   1.185  0.1821 -0.3161  0.2124
  656MOL0     C90428   4.643  10.331   1.315  0.5487  0.4455  0.3459
  656MOL0     C90429   4.647  10.226   1.421  0.0679  0.5882 -0.1516
  656MOL0     C90430   4.539  10.125   1.413  0.5724  0.4985  0.3453
  656MOL0     C90431   4.578  10.010   1.513  0.3093 -0.8533  0.3878
  656MOL0     C90432   4.487   9.888   1.488 -1.1424 -0.7611 -0.4165
  656MOL0     C90433   4.562   9.754   1.454  0.1160 -0.0516  0.2250
  656MOL0     C90434   4.483   9.642   1.513 -0.2418 -0.0419 -0.4641
  656MOL0    Cl90435   4.312   9.655   1.468 -0.1471 -0.2727  0.2837
  656MOL0     C90436   4.584  10.319   0.861 -0.6179 -0.7781 -0.1242
  656MOL0     C90437   4.485  10.272   0.771  0.2144  0.3512 -0.1536
  656MOL0     O90438   4.138  10.073   0.815 -0.2651  0.3812 -0.5827
  656MOL0     C90439   3.910  10.142   0.649  0.6868  0.0522 -0.6920
  656MOL0     C90440   3.798  10.188   0.574  0.1402 -0.4911 -0.4383
  656MOL0     N90441   3.052  10.550   0.234  0.3287  0.1612  0.8139
  656MOL0     N90442   2.942  10.524   0.288 -0.1848  0.0492  0.5154
  656MOL0     C90443   2.259   9.479   0.185 -0.6685  0.0402 -0.0260
  656MOL0     C90444   2.178   9.389   0.244  0.6303  0.7440 -0.2050
  656MOL0     C90445   1.867   9.252   0.591  0.0704 -0.5030 -0.0174
  656MOL0     C90446   1.778   9.190   0.501 -0.0467 -0.5980 -0.2129
  656MOL0     C90447   1.671   9.122   0.544 -0.1783  0.0763  0.7356
  656MOL0     C90448   1.641   9.105   0.670  0.7606 -0.5392 -0.6300
  656MOL0     O90449   1.518   9.037   0.695 -0.1576 -0.1244  0.0230
  656MOL0     C90450   1.485   9.036   0.833 -0.2433  0.9278  0.0910
  656MOL0     C90451   1.349   8.948   0.865 -0.1941  0.6343  0.3292
  656MOL0     C90452   1.219   9.014   0.824 -0.1542 -0.0294 -0.4777
  656MOL0     C90453   1.167   9.121   0.925  1.0336  0.2916  0.3889
  656MOL0     C90454   1.062   9.213   0.873 -0.3223  0.2882  0.3535
  656MOL0     C90455   0.986   9.291   0.817 -0.4072 -0.6153 -0.4160
  656MOL0     C90456   1.735   9.155   0.765 -0.3095  0.4336 -0.0547
  656MOL0     C90457   1.846   9.229   0.725 -0.1016 -0.0246  0.7839
  656MOL0     C90458   1.966   9.270   0.821 -0.1914  0.3970  1.0533
  656MOL0     H90459   2.211   9.499   0.562  0.9659 -1.5498 -0.3715
  656MOL0     H90460   2.364   9.646   0.447  0.7277 -0.3124 -0.6356
  656MOL0     H90461   2.381   9.827   0.311  0.1048 -4.2232  1.9656
  656MOL0     H90462   2.444   9.873   0.152 -1.5631 -0.0883 -1.5776
  656MOL0     H90463   2.597   9.708   0.352  0.0640  0.6804 -0.2894
  656MOL0     H90464   2.655   9.774   0.195 -0.9752 -1.3733 -0.8928
  656MOL0     H90465   2.638  10.002   0.308 -0.6436  1.0235  2.4771
  656MOL0     H90466   2.576   9.927   0.450 -0.0064  0.0759 -0.5809
  656MOL0     H90467   2.786   9.768   0.456 -0.2244 -0.2804  2.6209
  656MOL0     H90468   2.846   9.855   0.318 -1.5292 -0.4874 -0.7376
  656MOL0     H90469   2.967   9.958   0.515 -0.7695 -1.3283 -1.7340
  656MOL0     H90470   2.820   9.994   0.598 -0.3191  1.6210  0.6403
  656MOL0     H90471   2.948  10.123   0.353  0.8963  2.1933  1.7838
  656MOL0     H90472   2.769  10.137   0.381 -1.9791 -3.8190  2.5392
  656MOL0     H90473   2.980  10.233   0.570  1.1545  1.4525 -1.8089
  656MOL0     H90474   2.807  10.217   0.606  1.5802 -3.4717 -0.0581
  656MOL0     H90475   2.756  10.371   0.406  1.6459 -2.2650 -3.1175
  656MOL0     H90476   2.823  10.450   0.545 -0.5829  0.6637 -0.4254
  656MOL0     H90477   3.139  10.378   0.501 -0.0309  0.0997  0.0622
  656MOL0     H90478   3.322  10.592   0.307 -0.2374 -0.4763  0.9996
  656MOL0     H90479   3.298  10.481   0.173  2.4392  0.5867  0.0247
  656MOL0     H90480   3.364  10.382   0.463 -0.7930  4.4549  0.3883
  656MOL0     H90481   3.333  10.284   0.317 -0.0396  0.5966  1.6434
  656MOL0     H90482   3.535  10.383   0.213 -0.4165  2.5311  0.5918
  656MOL0     H90483   3.561  10.495   0.347  1.3608  2.1439 -3.9057
  656MOL0     H90484   3.566  10.303   0.507  0.1502 -0.4510 -0.4707
  656MOL0     H90485   3.574  10.194   0.367 -0.7692  0.7128 -0.9995
  656MOL0     H90486   3.960  10.403   0.378 -3.5092  1.2436 -0.0028
  656MOL0     H90487   4.216  10.444   0.579 -1.9984  3.9881 -2.2651
  656MOL0     H90488   4.182  10.434   0.408 -0.7754 -1.6208 -1.0983
  656MOL0     H90489   4.270  10.298   0.475 -0.6014 -0.8579 -0.2206
  656MOL0     H90490   4.237  10.196   0.985 -0.5969  0.8588 -0.5345
  656MOL0     H90491   4.417  10.251   1.147  3.0707 -0.9004 -0.0060
  656MOL0     H90492   4.675  10.176   1.179  1.9620 -0.9033  0.2620
  656MOL0     H90493   4.816  10.280   1.197 -0.0747 -0.3523  3.8271
  656MOL0     H90494   4.693  10.422   1.349  1.7328  0.4573 -1.2777
  656MOL0     H90495   4.540  10.366   1.305  0.7660  1.3036  1.0171
  656MOL0     H90496   4.630  10.278   1.516  0.8935 -0.0956  0.3795
  656MOL0     H90497   4.748  10.184   1.412 -0.9893 -2.1432 -0.2360
  656MOL0     H90498   4.540  10.090   1.310 -0.2962  3.6780 -0.8591
  656MOL0     H90499   4.444  10.170   1.443  0.4054  0.3742  0.0010
  656MOL0     H90500   4.679   9.976   1.490  0.1288 -0.3891 -1.2312
  656MOL0     H90501   4.560  10.046   1.614 -1.9261  0.8566 -0.5252
  656MOL0     H90502   4.424   9.908   1.401  0.1869  4.2499 -0.5584
  656MOL0     H90503   4.414   9.878   1.569 -2.5687  1.3050 -1.3671
  656MOL0     H90504   4.667   9.754   1.486  0.7510 -1.4540 -1.6727
  656MOL0     H90505   4.571   9.757   1.345 -1.5729  1.8873  0.0964
  656MOL0     H90506   4.499   9.647   1.621 -0.7975 -0.5384 -0.3491
  656MOL0     H90507   4.514   9.541   1.484 -2.3210 -1.0036  0.4611
  656MOL0     H90508   4.680  10.356   0.827 -0.7424  0.1891  0.5094
  656MOL0     H90509   4.493  10.272   0.663 -0.1784  1.2002 -0.1901
  656MOL0     H90510   3.890  10.068   0.726 -0.2221 -0.1562 -1.1208
  656MOL0     H90511   3.700  10.144   0.588  0.9991 -2.6839 -0.8797
  656MOL0     H90512   2.280   9.476   0.079 -0.9579 -0.1947 -0.0779
  656MOL0     H90513   2.146   9.299   0.193  2.5296 -1.1832  1.7545
  656MOL0     H90514   1.799   9.208   0.396 -1.2784 -1.3960 -0.6232
  656MOL0     H90515   1.599   9.085   0.471  1.0490 -0.9932  0.0222
  656MOL0     H90516   1.566   8.997   0.896  0.0910  0.8265 -0.3915
  656MOL0     H90517   1.473   9.139   0.868  0.3957  1.1716 -0.3942
  656MOL0     H90518   1.344   8.927   0.972  2.2458  1.1368  0.6072
  656MOL0     H90519   1.351   8.855   0.809  0.5913 -0.1197  1.5614
  656MOL0     H90520   1.239   9.063   0.729 -1.1740 -1.2973 -1.3812
  656MOL0     H90521   1.138   8.941   0.811 -0.7794  0.8188 -1.4356
  656MOL0     H90522   1.253   9.185   0.949 -1.3364  3.5797  0.7842
  656MOL0     H90523   1.121   9.088   1.019  0.2996  5.2437  2.0537
  656MOL0     H90524   0.916   9.354   0.765 -1.4866 -1.5075 -0.0970
  656MOL0     H90525   1.723   9.132   0.870 -4.1428  1.5723 -0.0651
  656MOL0     H90526   2.054   9.237   0.765 -0.1836  2.4751 -0.2949
  656MOL0     H90527   1.964   9.379   0.828 -3.5418  0.4942  0.4807
  656MOL0     H90528   1.958   9.230   0.923  1.2654  0.1726  1.1060
  657MOL0     O90529   2.030  10.977   8.009 -0.2537  1.2687 -0.2506
  657MOL0     C90530   2.114  10.900   8.050 -0.7203  0.5946 -0.8357
  657MOL0     O90531   2.122  10.856   8.175  0.2403 -0.5819 -0.7159
  657MOL0     C90532   2.015  10.869   8.261 -0.7035  0.0242  0.1443
  657MOL0     C90533   1.890  10.828   8.220  0.0517 -0.1761  0.3059
  657MOL0     C90534   1.777  10.845   8.294 -0.1064 -0.0692 -0.3742
  657MOL0     C90535   1.790  10.896   8.428  0.3342  0.4110  0.2504
  657MOL0     O90536   1.679  10.919   8.509  0.0477 -1.0283 -0.2695
  657MOL0     C90537   1.551  10.921   8.442 -0.6098  0.1698 -0.1930
  657MOL0     C90538   1.462  11.004   8.527 -0.0642 -0.1445 -0.8389
  657MOL0     C90539   1.455  10.942   8.670  0.1163  0.2514  0.4610
  657MOL0     C90540   1.335  10.999   8.749 -0.8856 -0.3223 -0.6328
  657MOL0     C90541   1.378  11.010   8.903 -0.3468 -0.0060  0.2678
  657MOL0     C90542   1.487  11.116   8.932 -0.5433 -0.3341  0.5402
  657MOL0     C90543   1.490  11.139   9.083  0.3613  0.2822  0.4170
  657MOL0     C90544   1.579  11.254   9.136  0.6110  0.1512 -0.1489
  657MOL0     N90545   1.718  11.252   9.078 -0.1765 -0.5485  0.1786
  657MOL0     C90546   1.805  11.140   9.064  1.1180 -0.5511 -0.7898
  657MOL0     C90547   1.912  11.188   8.997  0.4719  0.5113  1.0650
  657MOL0     C90548   2.021  11.095   8.943  0.0854  0.3644  0.7463
  657MOL0     C90549   2.139  11.179   8.882  0.0779  0.3965 -0.5201
  657MOL0     C90550   2.246  11.106   8.808  0.0011 -0.0105 -0.2211
  657MOL0     C90551   2.338  11.208   8.742 -0.1616  0.0389  0.3838
  657MOL0     O90552   2.440  11.264   8.827 -0.5313 -0.0443  0.2760
  657MOL0     C90553   2.560  11.296   8.767 -0.7106  0.4563 -0.7589
  657MOL0     C90554   2.585  11.293   8.633  0.2821  0.4805  0.6504
  657MOL0     C90555   2.718  11.293   8.580  0.0967 -0.5901  0.6600
  657MOL0     C90556   2.730  11.257   8.428  0.2526 -0.4288  1.3169
  657MOL0     C90557   2.831  11.324   8.665  0.6514 -0.5172 -0.4937
  657MOL0     C90558   2.971  11.304   8.621 -0.7955 -0.5855 -1.1616
  657MOL0     O90559   3.003  11.283   8.491 -0.3996  0.2889 -0.1647
  657MOL0     C90560   3.135  11.268   8.461 -0.0634 -0.4049 -0.3189
  657MOL0     C90561   3.220  11.377   8.470 -0.4647  0.1579  0.3353
  657MOL0     C90562   3.348  11.375   8.417  0.2166  0.8661 -0.4176
  657MOL0     C90563   3.394  11.252   8.365 -0.6365 -0.1598  0.0932
  657MOL0     O90564   3.526  11.241   8.324  0.3480  0.6165  1.0324
  657MOL0     C90565   3.544  11.218   8.178  0.5540 -0.8565  0.0066
  657MOL0     C90566   3.670  11.290   8.145  0.3833 -0.6635  0.9020
  657MOL0     C90567   3.699  11.276   8.006  0.6228 -0.1186  0.6298
  657MOL0     C90568   3.793  11.373   7.933 -0.5293  0.8037 -0.5637
  657MOL0     C90569   3.751  11.397   7.792  0.2783 -0.8210 -0.3634
  657MOL0     C90570   3.872  11.447   7.707  0.2861  0.0670  0.3670
  657MOL0     C90571   3.830  11.467   7.561  0.1300  0.3749  0.5969
  657MOL0     C90572   3.949  11.515   7.474 -0.1452  1.3588 -0.1464
  657MOL0    Cl90573   3.895  11.618   7.346  0.0360 -0.4087  0.4548
  657MOL0     C90574   3.310  11.144   8.362  0.1497 -0.3443 -1.0684
  657MOL0     C90575   3.179  11.153   8.402  0.6041 -0.2913 -0.1306
  657MOL0     O90576   3.052  11.294   8.713  0.1749 -0.2412  0.4752
  657MOL0     C90577   2.803  11.357   8.797 -0.0791  0.7452  0.3337
  657MOL0     C90578   2.671  11.319   8.853 -0.5033  0.3132 -0.1991
  657MOL0     N90579   1.886  11.319   8.979  0.2770 -0.4216  0.9371
  657MOL0     N90580   1.773  11.360   9.017 -0.5361 -0.5212 -0.5101
  657MOL0     C90581   1.907  10.940   8.468  0.1899  0.3313  1.7262
  657MOL0     C90582   2.017  10.930   8.384 -1.1439  0.0170  0.9899
  657MOL0     C90583   2.203  10.837   7.940 -0.5990  0.4297  0.1589
  657MOL0     C90584   2.212  10.910   7.816 -0.6559  0.6656  0.0036
  657MOL0     C90585   2.296  10.859   7.713  0.0942 -0.6053 -0.2285
  657MOL0     C90586   2.371  10.740   7.733 -0.2065  0.1190  0.5969
  657MOL0     O90587   2.441  10.673   7.639  0.3797 -0.1649 -0.1429
  657MOL0     C90588   2.409  10.682   7.494  0.3220  0.2080  0.0644
  657MOL0     C90589   2.513  10.614   7.411 -1.3327  0.0920 -1.5084
  657MOL0     C90590   2.499  10.658   7.264 -0.1952  1.2047 -0.3830
  657MOL0     C90591   2.556  10.803   7.240 -0.9835 -0.5380  0.4605
  657MOL0     C90592   2.700  10.826   7.270  1.0487 -0.4067 -0.0738
  657MOL0     C90593   2.811  10.848   7.312  0.2335  0.1187 -0.4329
  657MOL0     C90594   2.355  10.672   7.855  0.0606 -0.0307 -0.3083
  657MOL0     C90595   2.277  10.715   7.962 -0.1359  0.2141 -0.7819
  657MOL0     C90596   2.257  10.629   8.079 -0.6874 -0.8126 -0.3096
  657MOL0     H90597   1.888  10.762   8.134  0.5988 -2.8051  2.1855
  657MOL0     H90598   1.685  10.811   8.247 -1.2092 -1.5694  2.5813
  657MOL0     H90599   1.519  10.817   8.435  1.8298 -0.9268  2.8215
  657MOL0     H90600   1.557  10.971   8.344 -1.0595  2.8217  1.0477
  657MOL0     H90601   1.500  11.106   8.524  0.5455 -0.3815 -1.9091
  657MOL0     H90602   1.360  11.011   8.488 -0.4105  1.3927  0.2631
  657MOL0     H90603   1.443  10.834   8.667  0.0347  0.2706  0.0478
  657MOL0     H90604   1.553  10.948   8.717 -0.1156 -1.9171  1.3208
  657MOL0     H90605   1.311  11.099   8.714  0.4592  0.2177 -0.0639
  657MOL0     H90606   1.254  10.925   8.747 -0.9360 -0.2588 -3.1445
  657MOL0     H90607   1.417  10.913   8.935 -1.5178 -1.3349 -2.0845
  657MOL0     H90608   1.288  11.034   8.961  0.7668  1.7795  1.3437
  657MOL0     H90609   1.587  11.082   8.904 -0.1063  0.6389  0.8613
  657MOL0     H90610   1.462  11.207   8.876 -1.2886 -1.0820 -0.3949
  657MOL0     H90611   1.530  11.055   9.140 -0.2585  1.6918  3.0804
  657MOL0     H90612   1.387  11.165   9.109  0.3001  2.1889 -1.4770
  657MOL0     H90613   1.525  11.346   9.110 -0.3669 -0.7211 -1.3647
  657MOL0     H90614   1.584  11.252   9.245 -0.8115 -1.1241 -0.0714
  657MOL0     H90615   1.792  11.036   9.091  0.5915 -0.5057 -0.8431
  657MOL0     H90616   1.987  11.033   8.861  1.6273  0.4965 -0.0285
  657MOL0     H90617   2.060  11.028   9.020  1.2698 -1.3749 -1.2886
  657MOL0     H90618   2.084  11.242   8.812 -1.4103 -1.0550 -0.7164
  657MOL0     H90619   2.183  11.247   8.955  0.7454  0.6047 -1.1031
  657MOL0     H90620   2.308  11.053   8.881 -1.3723 -0.8260  0.3812
  657MOL0     H90621   2.211  11.037   8.731  2.5498 -0.9142 -0.6877
  657MOL0     H90622   2.383  11.149   8.662  2.2525  1.8088  0.3217
  657MOL0     H90623   2.271  11.286   8.705  0.9777  0.9940  0.2791
  657MOL0     H90624   2.507  11.282   8.558 -0.0524 -0.6138  1.1354
  657MOL0     H90625   2.790  11.167   8.408 -0.0366 -0.0932 -1.4867
  657MOL0     H90626   2.761  11.338   8.361 -1.6639 -1.0192 -0.3868
  657MOL0     H90627   2.632  11.231   8.389  0.3857  0.6730  0.1244
  657MOL0     H90628   3.195  11.470   8.521  0.5591  0.9006 -0.4765
  657MOL0     H90629   3.420  11.457   8.414 -0.8352  1.8812  0.9762
  657MOL0     H90630   3.554  11.111   8.158 -0.4377 -1.0422  0.4614
  657MOL0     H90631   3.454  11.246   8.124  0.1073 -2.0083  0.1297
  657MOL0     H90632   3.661  11.399   8.157  7.2887  0.4088  0.1923
  657MOL0     H90633   3.754  11.267   8.211 -0.0350  0.6971  1.9694
  657MOL0     H90634   3.600  11.280   7.958  0.3160  2.6007  1.3278
  657MOL0     H90635   3.744  11.177   8.000  0.1222 -0.3829  1.1765
  657MOL0     H90636   3.893  11.328   7.926  0.7473  3.3654  0.0182
  657MOL0     H90637   3.790  11.474   7.976 -1.2671 -0.0018  1.3919
  657MOL0     H90638   3.705  11.304   7.759 -3.1416  1.1881 -1.8035
  657MOL0     H90639   3.668  11.468   7.782 -0.4334 -1.7184 -0.9204
  657MOL0     H90640   3.957  11.378   7.710 -0.4011 -1.1515 -3.1759
  657MOL0     H90641   3.896  11.549   7.739 -0.4918 -0.1039  1.5541
  657MOL0     H90642   3.758  11.550   7.558  0.9923  1.1275 -2.0162
  657MOL0     H90643   3.792  11.373   7.523  0.2842  1.0966 -1.4751
  657MOL0     H90644   3.998  11.423   7.440 -1.4256 -0.3783  2.3908
  657MOL0     H90645   4.008  11.584   7.535 -0.5342  1.6321 -0.0771
  657MOL0     H90646   3.353  11.055   8.317 -1.3834 -1.6695 -0.0106
  657MOL0     H90647   3.105  11.073   8.400 -0.1311  0.3892 -0.8740
  657MOL0     H90648   2.886  11.384   8.861  1.7682 -1.6693 -0.8549
  657MOL0     H90649   2.653  11.317   8.960  0.6076  0.1583 -0.0050
  657MOL0     H90650   1.907  10.989   8.565  0.5471  0.2763  1.7521
  657MOL0     H90651   2.119  10.951   8.417  0.0482  2.7094 -3.5750
  657MOL0     H90652   2.149  10.995   7.792 -0.6486  0.1860 -1.9219
  657MOL0     H90653   2.295  10.915   7.620  1.2945 -0.8527 -0.4145
  657MOL0     H90654   2.315  10.636   7.462  1.1948 -1.0207 -0.8538
  657MOL0     H90655   2.400  10.787   7.467 -0.5948 -1.0955 -6.1602
  657MOL0     H90656   2.503  10.508   7.433 -3.9224  0.4436 -0.6286
  657MOL0     H90657   2.613  10.638   7.449 -1.2445  0.2980 -1.8694
  657MOL0     H90658   2.558  10.588   7.204 -2.5133 -1.0865 -0.1345
  657MOL0     H90659   2.395  10.649   7.229 -0.2487  0.9938 -0.1702
  657MOL0     H90660   2.504  10.872   7.307 -1.2749  0.7538 -1.0245
  657MOL0     H90661   2.539  10.838   7.138  0.4371  0.2541  0.4593
  657MOL0     H90662   2.917  10.849   7.330  0.1080 -1.1433  0.5676
  657MOL0     H90663   2.393  10.572   7.872 -0.0215 -0.6750 -3.3994
  657MOL0     H90664   2.150  10.639   8.101 -0.2897 -0.2851  1.5586
  657MOL0     H90665   2.274  10.521   8.073 -3.5554 -1.4434  1.2606
  657MOL0     H90666   2.305  10.676   8.165  0.7976 -1.3559 -0.8071
  658MOL0     O90667   5.002   7.703  11.338 -0.2289 -0.5148  0.2778
  658MOL0     C90668   4.968   7.608  11.270  0.8433  0.0434  0.6136
  658MOL0     O90669   4.909   7.616  11.144 -0.0845  0.6254  0.1373
  658MOL0     C90670   4.905   7.740  11.096 -0.0267  0.3869  0.5749
  658MOL0     C90671   4.968   7.745  10.973  0.5488  1.0682  0.6167
  658MOL0     C90672   4.981   7.861  10.893 -1.0093  0.2337 -0.7352
  658MOL0     C90673   4.917   7.976  10.933  0.6092 -0.2295 -0.0604
  658MOL0     O90674   4.902   8.096  10.860 -0.0479 -0.2445 -0.0191
  658MOL0     C90675   4.979   8.105  10.743  0.5767  0.0252  0.7243
  658MOL0     C90676   4.998   8.256  10.708 -0.1323  0.5109 -0.9460
  658MOL0     C90677   5.118   8.298  10.631 -0.2651 -0.3206  0.0605
  658MOL0     C90678   5.252   8.312  10.716 -0.1606  0.0764  0.2509
  658MOL0     C90679   5.343   8.395  10.629 -0.5918  0.6830  0.4738
  658MOL0     C90680   5.483   8.388  10.699  0.1412  0.0292  0.2883
  658MOL0     C90681   5.601   8.462  10.630  0.4156 -0.0522 -0.2001
  658MOL0     C90682   5.741   8.405  10.662 -0.0994 -0.1052 -0.2269
  658MOL0     N90683   5.853   8.481  10.592  0.2410 -0.3736 -0.1408
  658MOL0     C90684   5.912   8.439  10.480  0.4221  0.2089 -0.1535
  658MOL0     C90685   5.982   8.551  10.430 -1.0861  0.4448  0.5913
  658MOL0     C90686   6.044   8.561  10.295 -0.5951 -0.1618 -0.0862
  658MOL0     C90687   6.173   8.479  10.302 -0.0488 -0.3036  0.4360
  658MOL0     C90688   6.244   8.455  10.164  0.4373  0.0831 -0.5051
  658MOL0     C90689   6.255   8.581  10.068 -0.2098 -0.4749  0.2500
  658MOL0     O90690   6.297   8.534   9.941  0.6108 -0.1428  0.2805
  658MOL0     C90691   6.420   8.485   9.913 -0.4664 -0.6469  0.7696
  658MOL0     C90692   6.424   8.401   9.801 -0.2949 -0.1841 -0.3045
  658MOL0     C90693   6.543   8.349   9.751  0.2011 -0.1622 -0.1891
  658MOL0     C90694   6.523   8.248   9.634 -0.9764 -0.1344 -0.7109
  658MOL0     C90695   6.669   8.377   9.817 -0.6767  0.6763  0.3494
  658MOL0     C90696   6.800   8.317   9.788  0.3559 -0.2172  0.2854
  658MOL0     O90697   6.899   8.316   9.888  0.5194  0.1973  0.0744
  658MOL0     C90698   7.018   8.246   9.868  0.1841  0.7081  0.2376
  658MOL0     C90699   7.136   8.306   9.891  0.0010 -0.0650 -0.1800
  658MOL0     C90700   7.255   8.233   9.874  0.4094 -0.2280  0.4027
  658MOL0     C90701   7.260   8.107   9.822 -0.1439  0.3667  0.0814
  658MOL0     O90702   7.377   8.047   9.804 -0.3942  0.1013  0.3444
  658MOL0     C90703   7.383   7.903   9.772  0.3510  0.0990  0.4307
  658MOL0     C90704   7.509   7.867   9.697  0.6350  0.5304  0.1541
  658MOL0     C90705   7.523   7.712   9.690  0.1026 -0.2859  0.1258
  658MOL0     C90706   7.431   7.654   9.575 -0.4668 -0.3141 -0.8476
  658MOL0     C90707   7.411   7.507   9.602 -0.5820 -0.6625  0.0743
  658MOL0     C90708   7.349   7.437   9.489 -0.3028 -0.2274  0.5661
  658MOL0     C90709   7.334   7.290   9.512  1.0337 -0.8600 -0.7042
  658MOL0     C90710   7.233   7.243   9.637 -0.4728 -0.3766  1.5868
  658MOL0    Cl90711   7.239   7.066   9.669  0.1013  0.3475  0.4528
  658MOL0     C90712   7.136   8.045   9.808  0.2981  0.5328 -0.0271
  658MOL0     C90713   7.015   8.115   9.831 -0.6143  0.5380  1.1421
  658MOL0     O90714   6.823   8.283   9.667  0.7141  1.2848  0.2946
  658MOL0     C90715   6.653   8.459   9.932 -0.5539 -0.2678 -0.0103
  658MOL0     C90716   6.531   8.518   9.985 -0.0676 -0.1906  0.5689
  658MOL0     N90717   5.969   8.654  10.518  0.0864 -0.4992 -0.7979
  658MOL0     N90718   5.888   8.611  10.619 -1.2758 -1.2945  0.6741
  658MOL0     C90719   4.853   7.971  11.055 -0.4013  0.5332 -0.0347
  658MOL0     C90720   4.849   7.862  11.144 -0.9043 -0.6435  0.2378
  658MOL0     C90721   4.985   7.478  11.328  0.8544  0.9425 -0.1971
  658MOL0     C90722   4.994   7.364  11.236  0.1865  0.1859 -0.3008
  658MOL0     C90723   5.045   7.239  11.285  0.9437 -0.7093  0.4365
  658MOL0     C90724   5.059   7.212  11.417 -0.4019 -1.1480 -0.4300
  658MOL0     O90725   5.081   7.094  11.489  0.1803  0.1080  0.4160
  658MOL0     C90726   5.090   6.970  11.410  0.5541  0.2399  0.1948
  658MOL0     C90727   4.947   6.914  11.387 -0.0711 -0.7823 -0.0448
  658MOL0     C90728   4.954   6.772  11.342 -0.7145  0.4038 -0.1609
  658MOL0     C90729   4.817   6.701  11.360  0.1313 -0.3910 -0.2443
  658MOL0     C90730   4.705   6.750  11.283  0.5514 -0.4049 -1.0451
  658MOL0     C90731   4.614   6.813  11.227 -0.2837  0.4381  0.3584
  658MOL0     C90732   5.042   7.324  11.505  0.2700 -0.3877 -0.1716
  658MOL0     C90733   5.006   7.454  11.464 -0.2222  0.0978 -0.8147
  658MOL0     C90734   4.973   7.550  11.574 -0.5795 -0.1020 -0.9189
  658MOL0     H90735   5.026   7.659  10.937 -1.3163  0.8973 -2.3013
  658MOL0     H90736   5.054   7.852  10.812 -0.0957 -2.6671  0.3027
  658MOL0     H90737   4.936   8.054  10.657  0.3289  0.9460  0.2966
  658MOL0     H90738   5.083   8.071  10.756 -0.1955 -2.2974  1.2426
  658MOL0     H90739   4.914   8.269  10.639  0.1984  0.5017 -1.3590
  658MOL0     H90740   4.978   8.323  10.791 -4.0955  0.7161 -1.9004
  658MOL0     H90741   5.120   8.231  10.544 -1.3087 -2.2872  1.4751
  658MOL0     H90742   5.109   8.400  10.594  0.1158 -0.6068 -0.8549
  658MOL0     H90743   5.235   8.360  10.813 -0.1801 -0.2766  0.4238
  658MOL0     H90744   5.289   8.209  10.724  1.3997  0.1703 -3.5853
  658MOL0     H90745   5.311   8.499  10.618  0.5407  0.9622 -0.3038
  658MOL0     H90746   5.354   8.346  10.532  0.1769  0.0995  0.8441
  658MOL0     H90747   5.471   8.436  10.796  0.2679 -0.2722  0.4532
  658MOL0     H90748   5.519   8.285  10.699  0.7612  0.2219 -1.3665
  658MOL0     H90749   5.604   8.567  10.660  3.1693  0.4381 -1.8577
  658MOL0     H90750   5.578   8.453  10.524 -1.4933 -1.0289  0.2538
  658MOL0     H90751   5.758   8.417  10.769  0.7414 -0.4764 -0.3159
  658MOL0     H90752   5.743   8.303  10.622  0.5000  0.6118 -2.0911
  658MOL0     H90753   5.897   8.346  10.426 -1.6556  0.4205 -0.0062
  658MOL0     H90754   6.050   8.670  10.282 -0.4233  0.0111  1.3182
  658MOL0     H90755   5.973   8.516  10.225 -2.6571  0.5958  1.4245
  658MOL0     H90756   6.244   8.520  10.374  3.4858 -2.6438 -1.3908
  658MOL0     H90757   6.158   8.375  10.332  3.6219 -1.4060 -0.9165
  658MOL0     H90758   6.345   8.418  10.181  0.9650  2.1597  1.1942
  658MOL0     H90759   6.200   8.376  10.101  1.1572 -1.0355  0.3619
  658MOL0     H90760   6.159   8.632  10.061  1.5253  2.8150 -2.6191
  658MOL0     H90761   6.320   8.651  10.123  2.3907 -1.7190 -1.0429
  658MOL0     H90762   6.326   8.386   9.758 -1.0025  0.2569  1.0972
  658MOL0     H90763   6.416   8.235   9.616 -0.8396 -0.2261 -1.4933
  658MOL0     H90764   6.563   8.150   9.662 -3.4922 -0.5027  2.1492
  658MOL0     H90765   6.563   8.302   9.547 -2.3356  1.5446 -0.3487
  658MOL0     H90766   7.134   8.403   9.940 -1.3404  0.1190 -0.5656
  658MOL0     H90767   7.354   8.277   9.888  1.1409 -2.1348  1.6257
  658MOL0     H90768   7.383   7.844   9.863  2.1497 -0.1410  0.3233
  658MOL0     H90769   7.299   7.875   9.708 -0.0443  0.9868  0.5443
  658MOL0     H90770   7.508   7.922   9.602  0.9221 -0.0897 -0.2149
  658MOL0     H90771   7.594   7.910   9.751  0.4443 -0.4013  1.2268
  658MOL0     H90772   7.499   7.666   9.787 -1.6911 -1.9831 -1.0442
  658MOL0     H90773   7.628   7.685   9.671  1.2744  5.4976 -4.6430
  658MOL0     H90774   7.484   7.665   9.480 -0.7674 -0.8658 -1.0881
  658MOL0     H90775   7.330   7.697   9.571 -1.4956 -2.3827  0.7515
  658MOL0     H90776   7.504   7.460   9.636 -0.3284 -0.1626  0.0888
  658MOL0     H90777   7.350   7.497   9.692  0.0424  0.1516  0.6101
  658MOL0     H90778   7.413   7.449   9.401 -1.2399 -2.6418 -0.5470
  658MOL0     H90779   7.255   7.487   9.468  1.0811  1.7221 -1.4398
  658MOL0     H90780   7.431   7.242   9.527  1.1766  0.1796  2.3030
  658MOL0     H90781   7.291   7.245   9.422 -1.7673  1.7195 -0.8011
  658MOL0     H90782   7.133   7.276   9.607 -0.1043 -0.2467  0.4296
  658MOL0     H90783   7.262   7.286   9.733  0.1931  0.0239  1.2117
  658MOL0     H90784   7.128   7.938   9.797  0.6097  0.2204  2.2330
  658MOL0     H90785   6.919   8.065   9.824  1.2139 -3.3089  0.9098
  658MOL0     H90786   6.738   8.476   9.998 -0.5716  0.1017 -0.0835
  658MOL0     H90787   6.531   8.593  10.064 -1.0396  1.8777 -1.2737
  658MOL0     H90788   4.808   8.062  11.094 -0.3386  0.5107  0.0900
  658MOL0     H90789   4.785   7.850  11.232 -1.4804  0.6982  0.0275
  658MOL0     H90790   4.981   7.373  11.128  1.8091  1.2064 -0.4440
  658MOL0     H90791   5.073   7.173  11.203  1.8075  1.1683 -0.8516
  658MOL0     H90792   5.137   6.985  11.313 -0.2477  0.7352 -0.1266
  658MOL0     H90793   5.155   6.894  11.455  0.7282  0.6220  0.6042
  658MOL0     H90794   4.888   6.973  11.317 -1.3412 -0.8378  0.9419
  658MOL0     H90795   4.898   6.911  11.485 -0.6677  1.3691 -0.2364
  658MOL0     H90796   4.977   6.751  11.237  0.6496 -0.3458  0.2771
  658MOL0     H90797   5.025   6.723  11.408 -0.0396  0.7545 -0.6085
  658MOL0     H90798   4.787   6.695  11.465 -1.8261 -1.7488 -0.8238
  658MOL0     H90799   4.831   6.595  11.338  3.6003  0.0127 -0.4588
  658MOL0     H90800   4.532   6.854  11.172 -0.8827 -0.4333  0.5890
  658MOL0     H90801   5.059   7.306  11.611 -0.0575  1.4236  0.2321
  658MOL0     H90802   5.060   7.604  11.612 -1.9879  1.1738  0.6857
  658MOL0     H90803   4.907   7.632  11.543  0.7444  0.7999 -1.4474
  658MOL0     H90804   4.934   7.494  11.659  0.0396  3.4972  1.9777
  659MOL0     O90805   9.548   8.440   1.847  0.4737  0.0126  0.1154
  659MOL0     C90806   9.542   8.549   1.899  0.6814  0.3583 -0.0613
  659MOL0     O90807   9.630   8.651   1.880  0.2928  0.1491 -0.4394
  659MOL0     C90808   9.716   8.636   1.770  0.5461  0.5682 -0.2783
  659MOL0     C90809   9.675   8.611   1.636 -0.4043 -1.7540 -0.8274
  659MOL0     C90810   9.766   8.577   1.537  0.9549  0.1752 -0.8525
  659MOL0     C90811   9.905   8.578   1.562  0.5602 -0.1277  0.3674
  659MOL0     O90812   9.993   8.550   1.464 -0.1304  0.5602  0.4592
  659MOL0     C90813   9.982   8.609   1.335  0.3573  0.5681 -0.2802
  659MOL0     C90814  10.125   8.609   1.290  0.0387 -0.1440  0.1356
  659MOL0     C90815  10.204   8.485   1.292 -0.8406  0.0672  0.2557
  659MOL0     C90816  10.351   8.528   1.341 -0.0598 -0.6299 -0.4380
  659MOL0     C90817  10.437   8.398   1.353 -0.0335 -0.6177  0.1018
  659MOL0     C90818  10.590   8.420   1.344 -0.0501  0.3399 -0.5961
  659MOL0     C90819  10.645   8.274   1.348  0.1958 -0.6074  0.5151
  659MOL0     C90820  10.798   8.261   1.343  0.1504 -0.6201 -0.2682
  659MOL0     N90821  10.844   8.124   1.310  1.5952 -0.7808 -0.2476
  659MOL0     C90822  10.853   8.013   1.395 -0.1823  0.9675 -0.7482
  659MOL0     C90823  10.918   7.925   1.323 -0.0441  0.2713 -0.3170
  659MOL0     C90824  10.951   7.787   1.370 -0.9750  0.4103 -1.6948
  659MOL0     C90825  11.103   7.769   1.388  0.4437 -0.1940  1.1428
  659MOL0     C90826  11.163   7.856   1.502 -0.3631 -0.8018  0.0149
  659MOL0     C90827  11.313   7.831   1.506  0.5575  0.6499  0.2496
  659MOL0     O90828  11.364   7.854   1.377  0.0399 -0.1730 -0.0393
  659MOL0     C90829  11.487   7.801   1.350  0.0670  0.1968  0.5057
  659MOL0     C90830  11.581   7.752   1.444  0.4731  0.2570 -0.6031
  659MOL0     C90831  11.700   7.694   1.405 -0.0036 -0.0047 -1.2108
  659MOL0     C90832  11.792   7.649   1.515  0.5838 -0.5484  0.2550
  659MOL0     C90833  11.736   7.690   1.271  0.0507 -0.4644  0.3947
  659MOL0     C90834  11.864   7.641   1.216  0.6533  0.1142  0.0139
  659MOL0     O90835  11.870   7.585   1.092 -0.1536 -0.1262 -0.3292
  659MOL0     C90836  11.988   7.542   1.037 -0.2836  0.3796  0.2577
  659MOL0     C90837  12.062   7.441   1.106 -0.0307  0.2983  0.9413
  659MOL0     C90838  12.182   7.398   1.049 -0.7492  0.1484  0.0766
  659MOL0     C90839  12.223   7.447   0.920 -0.4593 -0.4398 -1.0274
  659MOL0     O90840  12.349   7.423   0.878  0.0883  0.0063  0.0171
  659MOL0     C90841  12.388   7.430   0.739  0.2736 -0.9127 -0.0300
  659MOL0     C90842  12.488   7.540   0.704  0.2200 -0.7727  0.4927
  659MOL0     C90843  12.459   7.685   0.748 -0.7299  0.4106  0.7006
  659MOL0     C90844  12.544   7.706   0.878 -0.5156 -0.2486 -0.5600
  659MOL0     C90845  12.489   7.824   0.950  0.2477  0.1891  0.4273
  659MOL0     C90846  12.511   7.960   0.881 -0.1719 -0.1357  0.6741
  659MOL0     C90847  12.453   8.078   0.969 -0.0453  0.1189 -0.6583
  659MOL0     C90848  12.485   8.204   0.887  0.4744  0.5657  0.2770
  659MOL0    Cl90849  12.434   8.355   0.963 -0.1077  0.1141  0.3612
  659MOL0     C90850  12.125   7.524   0.840  0.4721 -0.3523 -0.0110
  659MOL0     C90851  12.013   7.574   0.902 -0.1817  0.6453  0.6232
  659MOL0     O90852  11.959   7.673   1.284 -1.2347  0.7485  0.2737
  659MOL0     C90853  11.656   7.753   1.175  0.5507 -0.7685  0.1340
  659MOL0     C90854  11.534   7.798   1.213  0.4929 -0.3926 -0.1459
  659MOL0     N90855  10.964   7.989   1.212  0.1269 -0.1079 -0.1475
  659MOL0     N90856  10.921   8.105   1.202  0.6977 -0.2696 -1.0144
  659MOL0     C90857   9.952   8.597   1.687  0.4157  0.5138 -0.9205
  659MOL0     C90858   9.861   8.619   1.793  0.4999  0.8195  0.2939
  659MOL0     C90859   9.422   8.566   1.989  0.3221 -0.0846 -0.1777
  659MOL0     C90860   9.415   8.675   2.073  0.2599 -0.8975  0.3287
  659MOL0     C90861   9.309   8.707   2.156  0.5107 -1.0058 -0.8441
  659MOL0     C90862   9.188   8.628   2.168  0.5998 -0.2748 -0.7978
  659MOL0     O90863   9.095   8.666   2.258  0.3639 -0.3808 -0.6586
  659MOL0     C90864   8.983   8.572   2.283  0.2806 -0.7812 -0.1139
  659MOL0     C90865   8.919   8.601   2.416  0.6309  1.2761  0.8760
  659MOL0     C90866   8.801   8.706   2.415  0.8889  0.0595 -0.4118
  659MOL0     C90867   8.678   8.679   2.327  0.3376 -0.3627 -0.1504
  659MOL0     C90868   8.607   8.567   2.398 -1.2359  0.1009 -1.3364
  659MOL0     C90869   8.544   8.471   2.436  0.4229 -0.7383 -0.0180
  659MOL0     C90870   9.195   8.517   2.081 -0.3966 -0.5456 -0.5923
  659MOL0     C90871   9.309   8.486   2.004  0.6441  0.3066 -0.3653
  659MOL0     C90872   9.285   8.361   1.923  0.2846 -0.1625 -0.0844
  659MOL0     H90873   9.570   8.617   1.612  0.2808 -1.0790 -4.0391
  659MOL0     H90874   9.716   8.554   1.443 -2.5578 -0.3561  1.0010
  659MOL0     H90875   9.944   8.712   1.335  0.2923  0.5442 -0.4698
  659MOL0     H90876   9.936   8.545   1.260  4.2397 -0.6452 -1.8719
  659MOL0     H90877  10.133   8.635   1.184  2.3512  0.4794  0.3950
  659MOL0     H90878  10.185   8.687   1.340 -0.1521 -0.1888  0.4405
  659MOL0     H90879  10.160   8.400   1.345 -1.6162 -0.6808 -1.4844
  659MOL0     H90880  10.205   8.449   1.188 -3.1448  0.1068  0.1787
  659MOL0     H90881  10.389   8.601   1.268 -0.7408  1.4180  1.1685
  659MOL0     H90882  10.352   8.577   1.439  1.9301  1.3752 -1.3661
  659MOL0     H90883  10.416   8.329   1.271  3.5733 -2.9860  0.9055
  659MOL0     H90884  10.416   8.342   1.445  0.1960  1.2487  1.3323
  659MOL0     H90885  10.597   8.463   1.244 -0.3747  0.0100 -0.7636
  659MOL0     H90886  10.644   8.481   1.417  0.9687 -0.6405 -0.5195
  659MOL0     H90887  10.604   8.223   1.260 -2.3076 -0.2070  1.3670
  659MOL0     H90888  10.598   8.231   1.437 -2.6235  0.2346 -0.4511
  659MOL0     H90889  10.837   8.337   1.274  1.7238  0.0947  1.3034
  659MOL0     H90890  10.837   8.288   1.442  1.4143 -1.5591 -0.4900
  659MOL0     H90891  10.815   8.023   1.496  0.7788  1.6136 -0.4245
  659MOL0     H90892  10.914   7.707   1.305 -1.1958  0.1620 -1.2665
  659MOL0     H90893  10.895   7.774   1.463 -2.9856  1.8963 -2.6286
  659MOL0     H90894  11.123   7.664   1.414 -2.5780 -0.6439  1.9605
  659MOL0     H90895  11.152   7.797   1.294  1.6967  1.6931  2.2788
  659MOL0     H90896  11.159   7.964   1.486 -0.7565 -0.2315  3.2721
  659MOL0     H90897  11.121   7.830   1.600  1.0717  1.2668  1.2453
  659MOL0     H90898  11.365   7.890   1.583  1.3552  2.5812 -1.6806
  659MOL0     H90899  11.320   7.723   1.524 -4.6292 -0.2153 -1.4719
  659MOL0     H90900  11.557   7.771   1.548  0.2200  1.8276 -0.9288
  659MOL0     H90901  11.744   7.664   1.612 -0.4198  1.1662 -0.4524
  659MOL0     H90902  11.885   7.706   1.524  0.3449 -0.2595  0.9568
  659MOL0     H90903  11.811   7.542   1.512  0.8903 -0.5763  2.0778
  659MOL0     H90904  12.041   7.411   1.208  0.3996 -0.6088  0.7724
  659MOL0     H90905  12.250   7.325   1.093 -0.5227 -0.0051 -0.5232
  659MOL0     H90906  12.435   7.331   0.737 -2.4550 -2.5328  3.8788
  659MOL0     H90907  12.302   7.434   0.672 -1.4797 -1.6614  2.0778
  659MOL0     H90908  12.579   7.503   0.752  0.6188  0.4870  0.7460
  659MOL0     H90909  12.522   7.543   0.600  1.3521 -0.0742  0.8667
  659MOL0     H90910  12.350   7.697   0.757 -0.7804  0.2516  0.3295
  659MOL0     H90911  12.501   7.754   0.674 -0.3321 -0.3003  0.2562
  659MOL0     H90912  12.651   7.712   0.852  0.3216  0.3943  2.6596
  659MOL0     H90913  12.537   7.618   0.942  2.4641  0.1890  0.5499
  659MOL0     H90914  12.380   7.819   0.957  0.2863 -0.0913  0.8997
  659MOL0     H90915  12.520   7.822   1.055  0.2559  0.0953  0.4234
  659MOL0     H90916  12.461   7.960   0.784  1.7891  0.4472 -0.4127
  659MOL0     H90917  12.619   7.976   0.870  0.3020 -1.5070  2.7761
  659MOL0     H90918  12.497   8.079   1.070 -0.0586 -0.6305 -0.6369
  659MOL0     H90919  12.347   8.054   0.978  0.2163 -2.7651 -3.6894
  659MOL0     H90920  12.434   8.199   0.790 -0.8866  1.7383  0.9067
  659MOL0     H90921  12.594   8.211   0.886  0.5210  0.7759  2.7958
  659MOL0     H90922  12.146   7.551   0.737 -0.9241  0.1872 -0.1666
  659MOL0     H90923  11.944   7.625   0.836  0.5877 -3.2982 -3.6768
  659MOL0     H90924  11.698   7.762   1.075 -0.9047 -2.4772 -0.6830
  659MOL0     H90925  11.468   7.835   1.136  0.0822 -0.5367  0.1313
  659MOL0     H90926  10.059   8.602   1.702  0.3188  1.2175 -0.4326
  659MOL0     H90927   9.897   8.639   1.893 -1.8191  1.5870  1.0359
  659MOL0     H90928   9.499   8.744   2.064 -0.2110 -0.3323  0.2171
  659MOL0     H90929   9.317   8.799   2.214  0.3927 -2.0468  0.8751
  659MOL0     H90930   8.913   8.563   2.199  1.0686  1.5509 -1.0920
  659MOL0     H90931   9.034   8.475   2.293  2.4757  0.3480  0.0812
  659MOL0     H90932   9.002   8.615   2.487  1.1744 -0.9662  0.7393
  659MOL0     H90933   8.877   8.504   2.442  3.3913 -0.2081  0.2025
  659MOL0     H90934   8.763   8.715   2.517  1.5538  0.5039 -0.1921
  659MOL0     H90935   8.844   8.801   2.380 -0.2795  0.1168 -1.7526
  659MOL0     H90936   8.695   8.657   2.221 -0.9512 -1.9589 -0.0659
  659MOL0     H90937   8.614   8.768   2.325  1.6808  0.7392  2.2338
  659MOL0     H90938   8.477   8.398   2.477 -0.6083  1.2217  2.0889
  659MOL0     H90939   9.107   8.454   2.082  0.6207 -2.0644  1.8327
  659MOL0     H90940   9.352   8.283   1.960 -0.5788 -1.5513 -1.3314
  659MOL0     H90941   9.181   8.327   1.927  0.0334  0.3911 -1.2592
  659MOL0     H90942   9.310   8.378   1.818  0.0895  2.7983  0.2398
  660MOL0     O90943   5.513   9.458   9.439  0.0570  0.2295 -0.2797
  660MOL0     C90944   5.437   9.448   9.343 -1.2671 -0.1206  0.4729
  660MOL0     O90945   5.474   9.378   9.238 -1.0514  0.7017  0.4524
  660MOL0     C90946   5.603   9.330   9.226 -1.0262 -0.6330  0.3054
  660MOL0     C90947   5.662   9.241   9.318 -0.2961 -0.3901  1.0673
  660MOL0     C90948   5.799   9.214   9.311  0.4246 -0.5557  0.3927
  660MOL0     C90949   5.881   9.279   9.215  1.0987  0.0848  0.0516
  660MOL0     O90950   6.015   9.247   9.235 -0.5089 -0.5291  0.3718
  660MOL0     C90951   6.107   9.319   9.162 -0.1770 -0.0257  0.1569
  660MOL0     C90952   6.243   9.283   9.191 -0.8469  0.1179 -0.6792
  660MOL0     C90953   6.338   9.351   9.089 -0.6751 -0.3106  1.0270
  660MOL0     C90954   6.471   9.364   9.158  0.0403  0.0149 -0.0538
  660MOL0     C90955   6.560   9.430   9.058  0.2381 -0.1184 -0.5249
  660MOL0     C90956   6.713   9.422   9.096  0.7967  0.1656 -0.7991
  660MOL0     C90957   6.752   9.523   9.204 -0.0436 -0.1070  0.9757
  660MOL0     C90958   6.906   9.512   9.225  0.7534  0.6720 -0.8226
  660MOL0     N90959   6.937   9.579   9.352  0.2457  0.2532 -0.6689
  660MOL0     C90960   6.885   9.543   9.476 -0.3766  0.1712  0.0335
  660MOL0     C90961   6.936   9.638   9.564 -0.2145  1.1872  0.1169
  660MOL0     C90962   6.893   9.644   9.708 -0.2196  0.1016 -0.0247
  660MOL0     C90963   6.974   9.532   9.780  1.2213  0.5595  0.6169
  660MOL0     C90964   6.979   9.559   9.927 -0.1333  0.1095  0.1446
  660MOL0     C90965   7.075   9.452   9.992 -0.1959 -0.4397  0.2963
  660MOL0     O90966   7.207   9.452   9.941  0.0833  0.4352 -0.0864
  660MOL0     C90967   7.306   9.529  10.002  1.1764  0.3718 -0.3882
  660MOL0     C90968   7.443   9.506   9.981 -0.6595  0.1564 -0.4114
  660MOL0     C90969   7.550   9.577  10.047  0.3202  0.1160 -0.2594
  660MOL0     C90970   7.690   9.533  10.011  0.4053 -0.3977  0.0786
  660MOL0     C90971   7.509   9.671  10.149  0.3202  0.3152  0.8160
  660MOL0     C90972   7.606   9.754  10.232  0.2372 -0.8009 -0.3858
  660MOL0     O90973   7.554   9.860  10.312 -0.0215  0.6373  0.3617
  660MOL0     C90974   7.602   9.910  10.430 -0.4626 -0.6582 -0.1169
  660MOL0     C90975   7.547  10.032  10.472  0.7698 -0.2641  0.1113
  660MOL0     C90976   7.584  10.085  10.594 -0.2623  0.3376 -0.0048
  660MOL0     C90977   7.653  10.020  10.688 -0.3084 -0.0814 -0.3550
  660MOL0     O90978   7.689  10.100  10.798  0.7942  0.5172 -0.5392
  660MOL0     C90979   7.756  10.041  10.914  0.3977  0.1867  0.2495
  660MOL0     C90980   7.799  10.156  11.005 -0.2778  0.1028 -0.0834
  660MOL0     C90981   7.832  10.119  11.148  0.0415  0.0221  0.0218
  660MOL0     C90982   7.698  10.136  11.236 -0.1014 -0.8630  0.3888
  660MOL0     C90983   7.720  10.107  11.385  0.8759 -0.5131  0.1280
  660MOL0     C90984   7.641   9.985  11.428  0.2342  0.3267  0.4733
  660MOL0     C90985   7.486   9.985  11.421 -0.6592  0.7258 -1.0511
  660MOL0     C90986   7.431   9.966  11.566 -0.0144 -0.6083  1.1271
  660MOL0    Cl90987   7.251   9.959  11.567 -0.4896 -0.7268 -0.4995
  660MOL0     C90988   7.706   9.897  10.654 -0.1973 -0.3321  0.4039
  660MOL0     C90989   7.688   9.837  10.526  0.4006  0.7975  0.5656
  660MOL0     O90990   7.709   9.695  10.266  0.5497  0.3450  0.0246
  660MOL0     C90991   7.369   9.694  10.173  0.3601 -0.1316  0.2089
  660MOL0     C90992   7.273   9.631  10.095  0.4776 -0.4230  0.6768
  660MOL0     N90993   7.008   9.725   9.482  0.0122 -0.3342  1.0449
  660MOL0     N90994   7.014   9.686   9.363  0.3470  0.0277  0.5858
  660MOL0     C90995   5.825   9.358   9.115  0.3445 -0.5628  0.1037
  660MOL0     C90996   5.685   9.374   9.115  0.5904 -0.4512  0.0140
  660MOL0     C90997   5.303   9.500   9.348 -0.0127 -0.1798 -0.2196
  660MOL0     C90998   5.213   9.431   9.255  0.0703  0.4780 -0.4700
  660MOL0     C90999   5.075   9.471   9.256 -0.4439  0.7390 -0.3186
  660MOL0     C91000   5.031   9.565   9.348  0.1265  0.4583  0.3206
  660MOL0     O91001   4.904   9.614   9.347 -0.4647  0.6569 -0.1888
  660MOL0     C91002   4.813   9.602   9.230 -0.2168 -0.7751 -0.2951
  660MOL0     C91003   4.682   9.685   9.271 -0.3968 -0.1090  0.6023
  660MOL0     C91004   4.625   9.763   9.151 -0.5671  0.3784  0.5494
  660MOL0     C91005   4.483   9.814   9.186  0.2173  0.7694 -0.1041
  660MOL0     C91006   4.490   9.924   9.279 -0.1387  0.0571  0.1675
  660MOL0     C91007   4.503  10.023   9.347  0.1880 -0.2472  0.0586
  660MOL0     C91008   5.113   9.626   9.440 -0.9614  0.9329 -0.4119
  660MOL0     C91009   5.258   9.596   9.435  0.3754 -0.8584  0.5938
  660MOL0     C91010   5.340   9.669   9.535 -0.2301  0.6147 -0.6334
  660MOL0     H91011   5.604   9.182   9.389 -1.9930 -2.3121 -1.7336
  660MOL0     H91012   5.838   9.147   9.387  3.7198  3.3774  2.4978
  660MOL0     H91013   6.098   9.425   9.187 -2.5599  0.1112 -1.0174
  660MOL0     H91014   6.097   9.310   9.053  0.3004  2.6318 -0.1820
  660MOL0     H91015   6.261   9.312   9.295 -3.8492 -1.6515  0.4782
  660MOL0     H91016   6.264   9.176   9.200  2.0117  0.7626  1.7537
  660MOL0     H91017   6.351   9.281   9.006  0.0417 -1.5083  2.1119
  660MOL0     H91018   6.298   9.443   9.046  0.3894 -0.3415 -0.0646
  660MOL0     H91019   6.453   9.415   9.254 -2.7957 -2.0402  0.6455
  660MOL0     H91020   6.500   9.262   9.185 -0.6453 -0.1436  0.1124
  660MOL0     H91021   6.530   9.535   9.048  1.7168  0.6792  2.4777
  660MOL0     H91022   6.546   9.380   8.961 -0.6952 -3.2134  1.1015
  660MOL0     H91023   6.742   9.318   9.112  0.4736  0.2051  0.0889
  660MOL0     H91024   6.782   9.451   9.017  2.0632 -3.2937 -1.1124
  660MOL0     H91025   6.692   9.502   9.294 -0.2616  1.0592  1.1147
  660MOL0     H91026   6.732   9.629   9.189  0.4977  0.2361  2.4803
  660MOL0     H91027   6.935   9.408   9.241  0.9725  0.6171 -1.5349
  660MOL0     H91028   6.964   9.560   9.145 -0.2510 -0.0151 -2.0022
  660MOL0     H91029   6.811   9.466   9.498  1.3322 -0.4635  4.6020
  660MOL0     H91030   6.784   9.641   9.719 -0.8477  2.6462 -3.5154
  660MOL0     H91031   6.922   9.747   9.732  1.5313 -0.8129  2.1176
  660MOL0     H91032   6.917   9.442   9.754  0.0854  0.9272  1.7320
  660MOL0     H91033   7.076   9.546   9.744  0.3082  1.0689 -2.0267
  660MOL0     H91034   7.005   9.663   9.947 -0.0977  0.0582  0.3727
  660MOL0     H91035   6.875   9.555   9.963 -1.2571  3.7228 -2.1614
  660MOL0     H91036   7.072   9.463  10.101 -1.0691 -2.9860  0.5988
  660MOL0     H91037   7.025   9.356   9.977 -2.2916  0.4052  1.3677
  660MOL0     H91038   7.470   9.421   9.920  0.5695 -0.6866  1.2267
  660MOL0     H91039   7.694   9.488   9.911 -0.5984 -0.3487  0.0031
  660MOL0     H91040   7.728   9.460  10.083  1.5111 -1.0605 -1.1444
  660MOL0     H91041   7.741   9.629  10.013 -1.8160  0.9025 -1.0016
  660MOL0     H91042   7.491  10.086  10.396  1.3524  2.0149  1.2237
  660MOL0     H91043   7.541  10.183  10.614 -0.9728 -0.2210  1.3722
  660MOL0     H91044   7.683   9.976  10.964 -1.5831  0.3107 -2.2896
  660MOL0     H91045   7.852   9.995  10.891 -0.3447 -0.7602 -1.0994
  660MOL0     H91046   7.889  10.198  10.961  1.3771 -4.6890 -1.9093
  660MOL0     H91047   7.725  10.237  11.007  0.7973  1.2008 -1.9805
  660MOL0     H91048   7.915  10.174  11.194 -1.7394  1.0521  2.1939
  660MOL0     H91049   7.855  10.012  11.148 -2.6092 -0.7087 -3.2414
  660MOL0     H91050   7.615  10.076  11.199  1.3337 -1.4908 -2.0572
  660MOL0     H91051   7.658  10.238  11.237  2.3002  0.1590  2.0335
  660MOL0     H91052   7.822  10.073  11.404  0.2551 -3.0867 -0.7233
  660MOL0     H91053   7.682  10.193  11.442  0.7432 -1.1520  1.0330
  660MOL0     H91054   7.666   9.968  11.534  1.3457 -2.3279 -0.1178
  660MOL0     H91055   7.681   9.907  11.363 -2.5388  1.5524 -3.0189
  660MOL0     H91056   7.449   9.911  11.350 -0.1579 -1.9750  1.2976
  660MOL0     H91057   7.461  10.087  11.390 -3.1933  1.0851  1.7340
  660MOL0     H91058   7.455  10.055  11.625 -0.5201  0.5340 -0.2917
  660MOL0     H91059   7.482   9.884  11.616  0.1363 -1.7706 -0.8101
  660MOL0     H91060   7.771   9.836  10.716 -2.0074 -3.0790 -0.1841
  660MOL0     H91061   7.731   9.743  10.492 -1.8010  0.2933 -0.9916
  660MOL0     H91062   7.336   9.766  10.247  0.1492  0.8240 -0.7955
  660MOL0     H91063   7.179   9.664  10.136  0.6413  0.5238  0.3028
  660MOL0     H91064   5.879   9.395   9.029 -2.7756 -0.0191 -1.7877
  660MOL0     H91065   5.635   9.432   9.038 -1.6775 -0.6333  1.2715
  660MOL0     H91066   5.228   9.349   9.186 -1.6116 -1.7011  1.5409
  660MOL0     H91067   5.007   9.428   9.182  0.9306 -2.4102  0.0791
  660MOL0     H91068   4.865   9.636   9.140  0.4573 -2.1110 -0.4221
  660MOL0     H91069   4.791   9.497   9.215  0.5044 -0.7237 -1.9859
  660MOL0     H91070   4.722   9.751   9.348  2.8822 -1.8616  0.5625
  660MOL0     H91071   4.603   9.630   9.323 -2.4872  1.2271 -1.0136
  660MOL0     H91072   4.685   9.852   9.133 -2.7564  1.4917 -1.9004
  660MOL0     H91073   4.622   9.691   9.069  2.6505 -1.6093  2.0038
  660MOL0     H91074   4.428   9.730   9.229 -0.9199  1.4525 -0.1573
  660MOL0     H91075   4.434   9.838   9.091  2.4224 -0.0760 -1.5177
  660MOL0     H91076   4.525  10.101   9.416 -2.3365 -0.4850  1.2672
  660MOL0     H91077   5.073   9.713   9.491 -0.2281  1.0276  0.0338
  660MOL0     H91078   5.292   9.766   9.554 -0.6842 -0.1765  2.9244
  660MOL0     H91079   5.332   9.610   9.626 -1.0710  1.0578 -0.4058
  660MOL0     H91080   5.439   9.688   9.493 -0.0327  1.6965  0.2778
  661MOL0     O91081   5.313   0.757   4.756 -0.3451  0.4061  0.0883
  661MOL0     C91082   5.400   0.835   4.719 -0.7502  0.5290 -0.8407
  661MOL0     O91083   5.378   0.970   4.720 -0.3378 -0.6957  0.0227
  661MOL0     C91084   5.255   1.023   4.749  0.6955 -0.7849 -0.4387
  661MOL0     C91085   5.185   1.006   4.871  0.4326 -0.3284  0.4815
  661MOL0     C91086   5.064   1.080   4.900 -0.6332  0.0195 -0.3484
  661MOL0     C91087   5.007   1.160   4.800  0.1508  0.4524  0.2319
  661MOL0     O91088   4.879   1.219   4.817  0.2091  0.6601  0.0785
  661MOL0     C91089   4.883   1.360   4.774 -0.4358  0.2280 -0.1663
  661MOL0     C91090   4.783   1.445   4.849  0.7532 -0.1164  0.3905
  661MOL0     C91091   4.639   1.444   4.788  0.0106  0.1552 -0.1453
  661MOL0     C91092   4.551   1.563   4.849 -1.6211 -0.0089 -0.3448
  661MOL0     C91093   4.417   1.576   4.778  0.0431 -0.1323  0.9038
  661MOL0     C91094   4.338   1.697   4.839  0.4633  0.4269 -0.0836
  661MOL0     C91095   4.189   1.712   4.784  0.4809  0.0820  0.2830
  661MOL0     C91096   4.137   1.855   4.786 -0.1721 -0.8448  0.8191
  661MOL0     N91097   3.991   1.873   4.793 -0.5408 -0.1625 -0.7673
  661MOL0     C91098   3.916   1.944   4.881 -0.2471  0.7755 -0.2491
  661MOL0     C91099   3.786   1.921   4.835 -0.3919 -0.5183  0.1807
  661MOL0     C91100   3.669   1.984   4.895  1.1396  0.7802 -0.4706
  661MOL0     C91101   3.632   1.917   5.027 -0.5989 -0.2092 -0.1679
  661MOL0     C91102   3.485   1.937   5.065  0.1346  0.8001  0.4908
  661MOL0     C91103   3.448   1.821   5.172 -0.3627 -0.7518  0.1536
  661MOL0     O91104   3.349   1.873   5.264 -0.5780  0.2994  0.3008
  661MOL0     C91105   3.253   1.786   5.318 -0.4709 -0.0467 -0.7377
  661MOL0     C91106   3.198   1.834   5.441  0.4646 -0.7475  0.6438
  661MOL0     C91107   3.102   1.766   5.506 -0.2410 -0.2744 -1.1068
  661MOL0     C91108   3.031   1.816   5.638  0.0482 -0.2900  0.1973
  661MOL0     C91109   3.060   1.639   5.457  1.1711 -0.3881  0.2044
  661MOL0     C91110   2.963   1.535   5.521  0.3117 -0.6030  0.6637
  661MOL0     O91111   2.936   1.542   5.656  0.4014  0.4484  0.2111
  661MOL0     C91112   2.850   1.465   5.729  0.0209  1.2907 -0.0606
  661MOL0     C91113   2.855   1.327   5.711 -0.6495 -0.1592  0.2006
  661MOL0     C91114   2.784   1.239   5.794  0.8486 -0.2963 -0.1087
  661MOL0     C91115   2.701   1.290   5.897  0.6787 -0.6472  0.0348
  661MOL0     O91116   2.629   1.200   5.975 -0.6217 -0.5004  0.3478
  661MOL0     C91117   2.506   1.168   5.915  0.1186  0.2800 -0.4221
  661MOL0     C91118   2.424   1.074   5.997 -0.1221  0.7174  0.0136
  661MOL0     C91119   2.380   1.117   6.134  0.4302 -0.0240 -0.1439
  661MOL0     C91120   2.305   1.005   6.198  1.3194 -0.3562 -0.6250
  661MOL0     C91121   2.241   1.043   6.335  0.0902  0.2322  0.2399
  661MOL0     C91122   2.329   1.122   6.430  0.0059  0.4696  0.4282
  661MOL0     C91123   2.251   1.155   6.561  0.0745 -0.2146  0.4845
  661MOL0     C91124   2.125   1.246   6.535 -0.5958  0.0245 -1.0823
  661MOL0    Cl91125   2.144   1.370   6.409 -0.1600 -0.0786  0.4787
  661MOL0     C91126   2.698   1.427   5.910  0.2802 -0.3514  0.1716
  661MOL0     C91127   2.765   1.517   5.827 -1.5659 -0.1455  0.1551
  661MOL0     O91128   2.924   1.438   5.453 -0.2856  0.0638 -0.3221
  661MOL0     C91129   3.112   1.600   5.337  0.5137 -0.4176 -0.1548
  661MOL0     C91130   3.206   1.667   5.260 -0.1722  0.2807 -0.7695
  661MOL0     N91131   3.796   1.826   4.742 -0.3096 -0.1646 -0.3648
  661MOL0     N91132   3.919   1.805   4.704  1.1065  0.2499 -0.0883
  661MOL0     C91133   5.077   1.167   4.678  0.2987  0.7004  0.1744
  661MOL0     C91134   5.197   1.095   4.654 -0.3253 -0.2489  0.8755
  661MOL0     C91135   5.543   0.785   4.723 -0.1114  0.0465 -0.1532
  661MOL0     C91136   5.643   0.891   4.743 -0.6107 -0.1628  0.3051
  661MOL0     C91137   5.778   0.848   4.746  0.6131 -0.1526  0.8331
  661MOL0     C91138   5.806   0.708   4.746  0.6110 -0.9924  0.4215
  661MOL0     O91139   5.928   0.657   4.759 -0.2219  0.6201 -0.0416
  661MOL0     C91140   5.994   0.708   4.872  0.7830 -0.4468 -0.6530
  661MOL0     C91141   5.959   0.654   5.011  0.0081  0.4175 -0.2758
  661MOL0     C91142   5.806   0.657   5.044 -0.3445  0.2386 -0.6645
  661MOL0     C91143   5.762   0.630   5.190  0.2888 -0.1467  0.6608
  661MOL0     C91144   5.610   0.591   5.199  0.1173 -0.1596 -0.4044
  661MOL0     C91145   5.495   0.548   5.203 -1.0329  0.4306 -0.5466
  661MOL0     C91146   5.705   0.615   4.715 -0.4311  0.3319 -1.2950
  661MOL0     C91147   5.570   0.646   4.712  0.1404  0.2550  0.9413
  661MOL0     C91148   5.475   0.527   4.705 -0.7886 -0.1388  0.5080
  661MOL0     H91149   5.225   0.945   4.951  1.6902 -0.2745 -0.0970
  661MOL0     H91150   5.010   1.063   4.992  0.2087 -3.1478 -0.3135
  661MOL0     H91151   4.869   1.373   4.667 -1.2965  0.3220 -0.0461
  661MOL0     H91152   4.975   1.404   4.815 -1.1063 -1.8185  4.1396
  661MOL0     H91153   4.772   1.414   4.954  2.4916 -1.2682  0.2672
  661MOL0     H91154   4.822   1.546   4.867  1.0216 -0.5971  3.0274
  661MOL0     H91155   4.653   1.449   4.680  0.3059 -0.9685 -0.1780
  661MOL0     H91156   4.584   1.351   4.810 -1.6377  0.6068 -2.0966
  661MOL0     H91157   4.537   1.554   4.957 -2.3454  0.7754 -0.3650
  661MOL0     H91158   4.605   1.656   4.827 -2.3023  0.2881 -0.8047
  661MOL0     H91159   4.360   1.483   4.791  0.9016 -0.9246 -0.6703
  661MOL0     H91160   4.438   1.585   4.671  0.8650  2.8105  1.2139
  661MOL0     H91161   4.329   1.693   4.948 -0.1450  2.3204 -0.0267
  661MOL0     H91162   4.390   1.792   4.821 -1.1769  1.4765  0.5106
  661MOL0     H91163   4.122   1.645   4.838 -0.1499  1.2726  1.0321
  661MOL0     H91164   4.193   1.676   4.681 -1.6866  0.5607 -0.0099
  661MOL0     H91165   4.195   1.904   4.864  0.8724 -0.2419 -0.3114
  661MOL0     H91166   4.168   1.905   4.694 -2.0627  0.0452  0.6039
  661MOL0     H91167   3.948   2.014   4.957 -1.7977  0.2770  0.9310
  661MOL0     H91168   3.584   1.969   4.828  1.4090 -1.1818 -0.4423
  661MOL0     H91169   3.683   2.091   4.908  2.5746  0.9245 -2.6518
  661MOL0     H91170   3.658   1.810   5.023 -1.9117 -0.5049 -2.0468
  661MOL0     H91171   3.698   1.963   5.101  0.7048 -1.0100 -0.7812
  661MOL0     H91172   3.453   2.039   5.090  1.9261  1.6768 -0.5669
  661MOL0     H91173   3.415   1.922   4.982  1.9701 -0.6443 -0.8690
  661MOL0     H91174   3.406   1.731   5.126  0.7568 -1.3402  0.2723
  661MOL0     H91175   3.533   1.786   5.231  2.0569  0.1741 -2.5524
  661MOL0     H91176   3.233   1.926   5.489 -3.4537  0.6288  1.2044
  661MOL0     H91177   2.926   1.784   5.644 -0.7508  1.8835 -1.0062
  661MOL0     H91178   3.034   1.924   5.655  1.0746 -0.2947  0.0694
  661MOL0     H91179   3.073   1.772   5.728  2.2341  1.1429 -0.0377
  661MOL0     H91180   2.923   1.291   5.633  2.4185  2.5150  1.4338
  661MOL0     H91181   2.807   1.133   5.786  0.2937 -0.3081 -1.9155
  661MOL0     H91182   2.446   1.259   5.899 -1.6290 -0.9453 -1.1588
  661MOL0     H91183   2.528   1.123   5.818  1.6679  1.0720 -0.4635
  661MOL0     H91184   2.336   1.043   5.940  0.2140 -2.0385  0.8464
  661MOL0     H91185   2.486   0.984   6.006 -4.9439 -2.7772  2.3610
  661MOL0     H91186   2.313   1.203   6.125 -0.5180 -0.6150  1.0324
  661MOL0     H91187   2.466   1.144   6.195  0.5541 -2.7006  1.0206
  661MOL0     H91188   2.377   0.925   6.216  0.3223 -0.9002  1.2309
  661MOL0     H91189   2.225   0.961   6.137  1.3089 -2.8570  1.0453
  661MOL0     H91190   2.157   1.109   6.310  0.9190  0.3236 -2.6777
  661MOL0     H91191   2.200   0.951   6.376  1.4950 -0.8136 -0.6145
  661MOL0     H91192   2.366   1.211   6.379 -0.3270 -0.3812 -1.3680
  661MOL0     H91193   2.422   1.074   6.461  1.2730  3.3425  1.4473
  661MOL0     H91194   2.321   1.196   6.634  1.9293  0.3660 -1.5104
  661MOL0     H91195   2.207   1.061   6.597 -0.3457 -0.5101 -0.7476
  661MOL0     H91196   2.095   1.299   6.627 -0.0005 -0.0670 -0.8288
  661MOL0     H91197   2.041   1.184   6.504 -2.2431  1.1476  0.8492
  661MOL0     H91198   2.632   1.481   5.978 -2.7672  0.2550 -2.9813
  661MOL0     H91199   2.760   1.626   5.827 -0.2838 -0.0676 -0.4025
  661MOL0     H91200   3.092   1.500   5.300 -0.3182 -1.4581  2.8342
  661MOL0     H91201   3.248   1.617   5.174  0.7067  0.5576 -0.5224
  661MOL0     H91202   5.027   1.214   4.593  2.6843  1.3474 -0.9725
  661MOL0     H91203   5.248   1.108   4.559 -1.9660  0.7092  0.0698
  661MOL0     H91204   5.614   0.996   4.745 -0.8737 -0.0181 -3.3376
  661MOL0     H91205   5.847   0.931   4.758  0.8643 -0.2963  0.3990
  661MOL0     H91206   6.100   0.690   4.851  1.2101  1.1515 -0.0680
  661MOL0     H91207   5.989   0.816   4.893  0.2823 -0.4344 -0.8263
  661MOL0     H91208   6.007   0.721   5.084 -0.9587  2.2284 -1.2281
  661MOL0     H91209   5.996   0.551   5.017 -0.7284  0.1073 -0.9834
  661MOL0     H91210   5.762   0.752   5.013 -0.3073  0.6508  0.4940
  661MOL0     H91211   5.761   0.580   4.981  0.1376 -1.9751  1.5148
  661MOL0     H91212   5.768   0.717   5.257 -2.5025 -0.9834  2.1777
  661MOL0     H91213   5.821   0.543   5.219 -0.3639 -1.1354 -0.8518
  661MOL0     H91214   5.395   0.509   5.202 -2.0690  2.8761  0.2102
  661MOL0     H91215   5.750   0.516   4.720 -0.2206  0.4671  2.9099
  661MOL0     H91216   5.413   0.521   4.794  1.5734  1.2002  2.3490
  661MOL0     H91217   5.406   0.528   4.619  1.8394 -0.7390 -1.7625
  661MOL0     H91218   5.537   0.439   4.687  0.4561  0.5944  1.0716
  662MOL0     O91219   7.944   0.364   4.549  0.3971 -0.0190 -0.1011
  662MOL0     C91220   7.993   0.304   4.454 -0.6246  0.1715 -0.1200
  662MOL0     O91221   7.929   0.275   4.341  0.2257 -0.4106 -0.0718
  662MOL0     C91222   7.788   0.297   4.348 -0.8044 -0.5568  0.4015
  662MOL0     C91223   7.701   0.189   4.357  0.9386 -0.9119 -0.5984
  662MOL0     C91224   7.561   0.215   4.357  0.0138 -0.1716  0.4555
  662MOL0     C91225   7.510   0.342   4.327 -1.2211  0.3283 -0.5281
  662MOL0     O91226   7.373   0.348   4.334 -0.2910 -0.2758 -0.2557
  662MOL0     C91227   7.304   0.452   4.261 -0.3181  0.5028  0.3473
  662MOL0     C91228   7.283   0.570   4.360 -0.7676 -0.4927  0.5245
  662MOL0     C91229   7.275   0.708   4.283  0.2830  0.3142  0.1156
  662MOL0     C91230   7.246   0.833   4.368  0.6614 -0.2654  0.2762
  662MOL0     C91231   7.350   0.874   4.463  0.0384  0.0190  0.1110
  662MOL0     C91232   7.326   0.998   4.547  1.0880  0.8750  0.3135
  662MOL0     C91233   7.438   1.008   4.657  1.1159  0.6575 -0.5680
  662MOL0     C91234   7.416   1.116   4.749  0.3855 -0.3126  0.1850
  662MOL0     N91235   7.546   1.139   4.813  0.1321 -0.2426 -0.0460
  662MOL0     C91236   7.601   1.070   4.919  0.4428 -0.7102 -0.9498
  662MOL0     C91237   7.721   1.126   4.942 -0.7368 -0.4411  0.8153
  662MOL0     C91238   7.810   1.092   5.060  0.9310  0.0218 -0.2569
  662MOL0     C91239   7.944   1.038   5.012 -0.5045  0.3010 -0.7026
  662MOL0     C91240   8.053   1.054   5.115  0.6248 -0.0356  0.4654
  662MOL0     C91241   8.168   0.974   5.072  0.6778  0.1505  0.2948
  662MOL0     O91242   8.145   0.832   5.084  0.2998 -0.2899  0.3030
  662MOL0     C91243   8.243   0.749   5.030  0.5385 -0.6089  0.6775
  662MOL0     C91244   8.367   0.792   4.992 -0.0666 -0.4095 -0.6242
  662MOL0     C91245   8.470   0.706   4.959 -0.1994  0.5307  0.1574
  662MOL0     C91246   8.602   0.766   4.923  0.0983  0.6457  1.1781
  662MOL0     C91247   8.440   0.568   4.961  0.0028  1.0788 -0.8925
  662MOL0     C91248   8.533   0.469   4.919  1.5751  0.1584 -0.1682
  662MOL0     O91249   8.663   0.477   4.942  0.2843  0.3315  0.2957
  662MOL0     C91250   8.744   0.375   4.908 -0.5755 -0.2739  1.3093
  662MOL0     C91251   8.711   0.242   4.910  0.7437  0.3588 -0.5878
  662MOL0     C91252   8.800   0.145   4.875  0.1821  0.7163  0.0767
  662MOL0     C91253   8.925   0.188   4.833 -0.7299  0.3848  0.7718
  662MOL0     O91254   9.021   0.102   4.794  0.1978  0.2489 -0.0432
  662MOL0     C91255   9.003  -0.035   4.810 -0.3083 -0.0332 -0.0573
  662MOL0     C91256   9.147  -0.101   4.791  1.2090  0.1463 -0.1763
  662MOL0     C91257   9.136  -0.254   4.754  0.5892  0.4911 -0.5371
  662MOL0     C91258   9.276  -0.309   4.783  0.7301 -0.6034  0.0984
  662MOL0     C91259   9.278  -0.460   4.770 -0.4611  0.2724  0.5625
  662MOL0     C91260   9.378  -0.528   4.863  0.5699  0.1460  0.2616
  662MOL0     C91261   9.526  -0.535   4.822  0.0465 -0.3729  1.0778
  662MOL0     C91262   9.613  -0.572   4.938 -0.2137 -0.2216  0.9607
  662MOL0    Cl91263   9.621  -0.748   4.952 -0.1082  0.0649 -0.1630
  662MOL0     C91264   8.962   0.324   4.820 -0.0546  0.4373 -0.5505
  662MOL0     C91265   8.869   0.421   4.868 -0.0017  1.0095  0.0283
  662MOL0     O91266   8.478   0.380   4.846  0.3820 -0.1436 -0.3103
  662MOL0     C91267   8.316   0.523   5.000 -0.0146  0.1863  0.7902
  662MOL0     C91268   8.217   0.615   5.041  0.6546  0.2341  0.8005
  662MOL0     N91269   7.740   1.226   4.850 -0.5802  0.0919  0.5270
  662MOL0     N91270   7.633   1.235   4.775 -0.2861  0.1066  0.4799
  662MOL0     C91271   7.597   0.444   4.297 -0.8095 -0.5812 -0.6148
  662MOL0     C91272   7.740   0.428   4.315  0.1479  0.2672 -0.5513
  662MOL0     C91273   8.137   0.245   4.472  1.0211  0.0208 -0.0438
  662MOL0     C91274   8.157   0.119   4.417 -0.6372 -0.0569 -0.4503
  662MOL0     C91275   8.285   0.061   4.424 -0.0634  0.2165  0.1881
  662MOL0     C91276   8.394   0.128   4.494 -0.0643  0.1567 -0.4334
  662MOL0     O91277   8.518   0.075   4.498 -0.1771 -0.5796  0.0180
  662MOL0     C91278   8.632   0.166   4.512 -0.6220 -0.2062 -0.0803
  662MOL0     C91279   8.765   0.082   4.490  0.2575  0.2009 -0.0102
  662MOL0     C91280   8.767   0.004   4.356  0.7048  0.0888 -0.3556
  662MOL0     C91281   8.723   0.092   4.237 -0.3744  0.3819  0.5100
  662MOL0     C91282   8.761   0.026   4.109 -0.0155  0.4567  0.0376
  662MOL0     C91283   8.805  -0.008   3.999 -0.1172 -0.1898 -0.7616
  662MOL0     C91284   8.365   0.248   4.562  0.0998 -0.2479 -0.5287
  662MOL0     C91285   8.243   0.309   4.556  0.7889  0.6995 -0.3257
  662MOL0     C91286   8.228   0.446   4.621  0.8153 -0.3610 -0.1448
  662MOL0     H91287   7.737   0.088   4.370  4.3232  0.2283 -0.0601
  662MOL0     H91288   7.493   0.135   4.385  0.1923 -0.0135  1.3485
  662MOL0     H91289   7.207   0.418   4.221 -0.4923  1.1679  0.1925
  662MOL0     H91290   7.359   0.480   4.171 -0.4174 -1.3887 -0.3452
  662MOL0     H91291   7.187   0.576   4.411 -1.8648  0.2353 -1.4982
  662MOL0     H91292   7.353   0.568   4.444  2.0936  4.0492 -1.3545
  662MOL0     H91293   7.355   0.727   4.210 -0.2863 -0.2237 -0.6650
  662MOL0     H91294   7.183   0.699   4.225 -0.1310  0.6732  0.7078
  662MOL0     H91295   7.237   0.906   4.287 -1.7494 -1.9249 -1.0592
  662MOL0     H91296   7.157   0.821   4.430  0.6539 -1.6018  0.0519
  662MOL0     H91297   7.449   0.879   4.416 -1.0343 -1.4544 -2.5830
  662MOL0     H91298   7.352   0.788   4.530  1.9521  0.2879  0.4708
  662MOL0     H91299   7.326   1.090   4.488 -2.4756  1.2791  0.7533
  662MOL0     H91300   7.227   0.994   4.593 -0.5495  1.5876 -2.8724
  662MOL0     H91301   7.528   1.014   4.595  0.6005 -0.2871 -1.4412
  662MOL0     H91302   7.437   0.916   4.716 -4.1637 -1.2272 -2.9625
  662MOL0     H91303   7.391   1.213   4.705  2.6108  0.6787  0.9560
  662MOL0     H91304   7.341   1.096   4.825  1.2340 -0.5601  0.9759
  662MOL0     H91305   7.564   0.983   4.973 -2.5708 -0.4656 -2.4576
  662MOL0     H91306   7.759   1.023   5.128  1.7782 -0.4560 -0.0898
  662MOL0     H91307   7.837   1.179   5.120  1.7051 -0.3532 -0.0493
  662MOL0     H91308   7.943   0.931   4.987  3.3067 -0.2430  0.7352
  662MOL0     H91309   7.981   1.096   4.926  0.6191  3.4990  1.7465
  662MOL0     H91310   8.074   1.162   5.115 -3.9606  1.1138  2.5082
  662MOL0     H91311   8.017   1.023   5.213 -0.7542 -0.3023 -0.1150
  662MOL0     H91312   8.208   1.004   4.975 -0.5934  3.1091  0.5655
  662MOL0     H91313   8.250   0.988   5.142  0.8643  0.6733 -0.0222
  662MOL0     H91314   8.392   0.898   4.991  3.1478 -0.9038  2.9620
  662MOL0     H91315   8.594   0.867   4.883  0.5049 -0.3023 -1.4812
  662MOL0     H91316   8.635   0.702   4.840  0.9046  1.1525  1.1046
  662MOL0     H91317   8.673   0.753   5.005 -0.4654 -0.7873  1.4755
  662MOL0     H91318   8.612   0.206   4.937  0.6359 -0.4457 -1.9408
  662MOL0     H91319   8.775   0.039   4.874  0.0531  0.7461 -1.0446
  662MOL0     H91320   8.974  -0.065   4.911 -0.8924  0.2071 -0.1497
  662MOL0     H91321   8.935  -0.077   4.736  1.8911 -0.5586 -1.9037
  662MOL0     H91322   9.216  -0.049   4.724  0.8668  0.4309 -0.3095
  662MOL0     H91323   9.204  -0.083   4.883  0.8985  3.4647 -0.5068
  662MOL0     H91324   9.111  -0.263   4.648 -3.5860 -0.8692  0.3746
  662MOL0     H91325   9.054  -0.298   4.812  0.7457  1.6498  0.6082
  662MOL0     H91326   9.304  -0.285   4.886  2.6275  0.0672 -0.5311
  662MOL0     H91327   9.354  -0.254   4.730 -0.0956  2.7644  2.0384
  662MOL0     H91328   9.177  -0.491   4.797 -2.3735  3.5123 -2.0770
  662MOL0     H91329   9.289  -0.483   4.664 -3.4033 -1.2871  0.5001
  662MOL0     H91330   9.335  -0.629   4.856 -1.2650  0.8979  0.1003
  662MOL0     H91331   9.365  -0.489   4.964 -1.2378  1.0330 -0.2875
  662MOL0     H91332   9.553  -0.433   4.790 -0.4398 -1.0876 -1.9753
  662MOL0     H91333   9.543  -0.601   4.737  0.3526 -0.9730  1.6039
  662MOL0     H91334   9.571  -0.531   5.030  2.4001  1.1287  1.6464
  662MOL0     H91335   9.714  -0.532   4.925 -0.4893 -0.4250 -3.0161
  662MOL0     H91336   9.053   0.350   4.766  0.4956 -0.1753  0.0553
  662MOL0     H91337   8.911   0.518   4.891  1.3259  0.3973  0.2673
  662MOL0     H91338   8.285   0.420   4.990  0.4259  0.1948 -1.1322
  662MOL0     H91339   8.115   0.578   5.052  0.0897  1.3008 -0.6454
  662MOL0     H91340   7.558   0.535   4.251  1.3769  0.1845 -1.1100
  662MOL0     H91341   7.814   0.493   4.269  2.0234 -0.7834  0.8468
  662MOL0     H91342   8.071   0.068   4.373 -0.5738 -0.1037 -0.5193
  662MOL0     H91343   8.299  -0.039   4.386 -0.5996  0.3865 -0.4632
  662MOL0     H91344   8.620   0.243   4.435  0.2712 -1.8189 -1.9510
  662MOL0     H91345   8.646   0.201   4.614  0.7617 -1.6115  0.2625
  662MOL0     H91346   8.795   0.004   4.561 -1.6712 -0.4120  0.1922
  662MOL0     H91347   8.855   0.143   4.483  0.0858  0.5660  0.8262
  662MOL0     H91348   8.865  -0.043   4.351  0.3979 -1.0470  2.3383
  662MOL0     H91349   8.696  -0.079   4.361 -0.4737  1.0853  0.1216
  662MOL0     H91350   8.764   0.192   4.250 -0.7074  0.0983  5.6909
  662MOL0     H91351   8.614   0.095   4.226 -0.1701  1.1359 -1.9999
  662MOL0     H91352   8.845  -0.023   3.901 -0.8021 -1.2006 -0.8965
  662MOL0     H91353   8.441   0.291   4.626  0.4473  0.9177 -1.6801
  662MOL0     H91354   8.301   0.519   4.585  0.7798 -2.0538 -4.1696
  662MOL0     H91355   8.134   0.498   4.602  2.5036  2.8109 -0.4569
  662MOL0     H91356   8.243   0.432   4.729  0.9753 -0.4587 -0.1786
  663MOL0     O91357   7.731   0.195   0.924 -0.1180 -0.4900  0.6551
  663MOL0     C91358   7.672   0.115   0.850 -0.4655  0.5349 -0.0129
  663MOL0     O91359   7.717  -0.012   0.824  0.3600  1.0714  0.1113
  663MOL0     C91360   7.850  -0.034   0.830  0.2159  0.2535  0.2415
  663MOL0     C91361   7.952   0.063   0.818 -0.1571  0.2106 -0.4539
  663MOL0     C91362   8.088   0.024   0.821  0.2769 -0.0923  0.1987
  663MOL0     C91363   8.125  -0.109   0.844 -0.5164 -0.1783  0.0709
  663MOL0     O91364   8.265  -0.137   0.867  0.4268 -0.2293  0.5700
  663MOL0     C91365   8.305  -0.269   0.914 -0.2542 -0.3067  0.2614
  663MOL0     C91366   8.458  -0.276   0.923  0.2501 -0.3493  0.2831
  663MOL0     C91367   8.525  -0.395   1.002  0.0257 -0.0674  0.2168
  663MOL0     C91368   8.534  -0.514   0.925 -0.2222 -0.0741 -1.1803
  663MOL0     C91369   8.559  -0.639   1.017  0.0540 -0.1703 -0.6723
  663MOL0     C91370   8.549  -0.758   0.929 -0.3904  0.2835 -0.3096
  663MOL0     C91371   8.596  -0.870   1.031 -0.1577  0.5483  1.3129
  663MOL0     C91372   8.559  -1.008   0.981 -0.8975 -0.7601 -0.6049
  663MOL0     N91373   8.660  -1.066   0.895 -0.5213  0.0442  0.0522
  663MOL0     C91374   8.776  -1.133   0.937 -0.0350 -0.1011  0.0021
  663MOL0     C91375   8.808  -1.210   0.826  0.6870  0.3332  0.1171
  663MOL0     C91376   8.923  -1.317   0.816  0.8675 -0.9905  0.4086
  663MOL0     C91377   8.900  -1.414   0.703 -0.0435  0.2656  0.2773
  663MOL0     C91378   8.849  -1.554   0.741  0.3273 -0.6668 -0.3970
  663MOL0     C91379   8.818  -1.644   0.623 -1.0867 -0.0028  0.6132
  663MOL0     O91380   8.940  -1.680   0.549 -0.0246  0.4652  0.5110
  663MOL0     C91381   8.934  -1.747   0.426  0.7876  0.4047  0.9562
  663MOL0     C91382   8.824  -1.774   0.345  0.1984 -0.7185  0.4271
  663MOL0     C91383   8.834  -1.811   0.205  0.1792  0.3565 -0.2874
  663MOL0     C91384   8.703  -1.835   0.128 -0.5611 -0.4617  0.2394
  663MOL0     C91385   8.961  -1.836   0.151  0.1905  0.9680 -0.8355
  663MOL0     C91386   8.987  -1.875   0.008 -0.0786  0.1238 -0.2385
  663MOL0     O91387   8.885  -1.849  -0.088 -0.2299 -1.2078  0.6230
  663MOL0     C91388   8.907  -1.873  -0.223  0.1904  0.3441 -0.4024
  663MOL0     C91389   8.844  -1.972  -0.293 -0.2666  0.3899  0.5439
  663MOL0     C91390   8.860  -1.984  -0.434 -0.5188 -0.4164  0.4559
  663MOL0     C91391   8.924  -1.889  -0.506 -0.3726 -0.1647 -0.1568
  663MOL0     O91392   8.927  -1.896  -0.648 -0.0760  0.2807 -0.3070
  663MOL0     C91393   9.031  -1.824  -0.702 -0.2783  0.5102 -0.1083
  663MOL0     C91394   9.041  -1.856  -0.845  0.0856 -1.2633 -1.2201
  663MOL0     C91395   9.171  -1.821  -0.907  0.6168 -0.3207 -0.0730
  663MOL0     C91396   9.217  -1.670  -0.890  0.2254  0.7721 -0.4456
  663MOL0     C91397   9.328  -1.633  -0.997 -0.4927  0.3884  1.3641
  663MOL0     C91398   9.381  -1.484  -0.991  0.1726  0.2651  0.0251
  663MOL0     C91399   9.430  -1.452  -0.848  0.0011  0.1795  0.4543
  663MOL0     C91400   9.508  -1.317  -0.837  0.6890  0.2182  0.4697
  663MOL0    Cl91401   9.394  -1.182  -0.828  0.2490 -0.0740  0.1660
  663MOL0     C91402   8.990  -1.789  -0.429  1.2593  0.4459  0.3701
  663MOL0     C91403   8.986  -1.779  -0.290  0.2032 -0.3490  0.2622
  663MOL0     O91404   9.087  -1.944  -0.018 -0.5969  0.5570 -0.6203
  663MOL0     C91405   9.070  -1.827   0.242 -0.0096  1.4264 -1.2041
  663MOL0     C91406   9.056  -1.778   0.372  0.4250  0.3176 -0.0497
  663MOL0     N91407   8.735  -1.163   0.721 -0.0902 -0.3505  0.2402
  663MOL0     N91408   8.648  -1.080   0.758 -0.1831 -0.3686  0.5790
  663MOL0     C91409   8.028  -0.206   0.845 -0.8743  0.3061  0.9017
  663MOL0     C91410   7.894  -0.168   0.849  0.0726  1.7288  0.1337
  663MOL0     C91411   7.536   0.151   0.816  0.5451 -0.3979  0.7720
  663MOL0     C91412   7.481   0.098   0.692  0.4608 -0.5507 -0.3091
  663MOL0     C91413   7.358   0.131   0.641 -0.1533 -0.3933  0.6395
  663MOL0     C91414   7.280   0.229   0.702 -0.2511  0.0732 -0.5403
  663MOL0     O91415   7.158   0.273   0.659 -1.1789 -0.0278 -0.0937
  663MOL0     C91416   7.106   0.205   0.546  0.6295 -0.4876  0.6610
  663MOL0     C91417   6.979   0.281   0.496  0.6419 -0.4391 -0.4347
  663MOL0     C91418   6.926   0.208   0.378  0.2446 -1.4438 -0.6149
  663MOL0     C91419   6.810   0.278   0.292 -0.0341  0.6997 -0.4214
  663MOL0     C91420   6.696   0.296   0.379  0.8475  0.4141 -0.1312
  663MOL0     C91421   6.603   0.315   0.458 -0.4559  0.1895 -0.7141
  663MOL0     C91422   7.337   0.284   0.818  0.1826 -0.7017 -1.1893
  663MOL0     C91423   7.457   0.247   0.881 -0.1592  0.1395  0.3635
  663MOL0     C91424   7.491   0.308   1.014  0.4868  0.8773 -0.4911
  663MOL0     H91425   7.922   0.164   0.792 -1.3289 -0.3741 -1.5313
  663MOL0     H91426   8.169   0.093   0.797 -0.1995 -0.4919 -2.9373
  663MOL0     H91427   8.282  -0.350   0.843 -2.2240  1.5308 -1.3422
  663MOL0     H91428   8.257  -0.281   1.012  1.2782 -1.6641  0.8810
  663MOL0     H91429   8.489  -0.277   0.818 -1.5051  0.8887 -0.3049
  663MOL0     H91430   8.500  -0.186   0.969  0.5536 -0.0610 -0.5415
  663MOL0     H91431   8.623  -0.350   1.018  0.9499 -2.3959  1.5672
  663MOL0     H91432   8.466  -0.405   1.094  3.9577 -3.1073  2.6907
  663MOL0     H91433   8.444  -0.523   0.864 -1.4693  0.7618  0.4454
  663MOL0     H91434   8.621  -0.519   0.859  1.3654 -2.3763  0.8649
  663MOL0     H91435   8.481  -0.654   1.091  1.0944  0.6276  0.6456
  663MOL0     H91436   8.658  -0.642   1.063 -0.6913 -1.1374  0.9124
  663MOL0     H91437   8.444  -0.773   0.903  0.1377 -1.7409 -1.4369
  663MOL0     H91438   8.623  -0.756   0.849 -0.3932  0.2951 -0.3115
  663MOL0     H91439   8.572  -0.868   1.138 -2.2994  0.6367  0.8810
  663MOL0     H91440   8.704  -0.860   1.041 -0.0411  1.6578 -0.6317
  663MOL0     H91441   8.547  -1.074   1.068  1.5563  1.2852  1.4318
  663MOL0     H91442   8.463  -1.011   0.929 -1.0373 -1.7044 -0.3235
  663MOL0     H91443   8.831  -1.132   1.030  2.0052  0.6248 -1.1425
  663MOL0     H91444   8.939  -1.375   0.908  1.7851  1.6442  2.0383
  663MOL0     H91445   9.020  -1.269   0.802  0.6608 -0.9451 -0.9221
  663MOL0     H91446   8.838  -1.366   0.627  1.6574  0.2469 -1.1719
  663MOL0     H91447   8.998  -1.412   0.656  0.2818  4.4683  0.7848
  663MOL0     H91448   8.918  -1.613   0.803 -0.8768  1.2180  2.9380
  663MOL0     H91449   8.758  -1.554   0.800  0.3991 -3.3858 -0.1415
  663MOL0     H91450   8.771  -1.740   0.649 -0.5983 -1.0456 -2.0460
  663MOL0     H91451   8.758  -1.595   0.546  0.9737  0.4425 -0.7868
  663MOL0     H91452   8.726  -1.744   0.380  1.3070  1.2545  2.0536
  663MOL0     H91453   8.681  -1.745   0.070  1.2497  1.2655  2.0551
  663MOL0     H91454   8.617  -1.843   0.194 -2.3210 -1.3156 -2.0168
  663MOL0     H91455   8.704  -1.924   0.064 -0.7575 -1.5963  1.7607
  663MOL0     H91456   8.780  -2.043  -0.241 -0.7737  1.1172  0.9408
  663MOL0     H91457   8.796  -2.059  -0.477  0.6172 -0.0543 -2.0001
  663MOL0     H91458   9.030  -1.716  -0.686 -0.0284  0.5250 -0.1897
  663MOL0     H91459   9.122  -1.864  -0.657 -0.7257  0.4579  0.7680
  663MOL0     H91460   9.027  -1.964  -0.853  3.0590 -1.9336  0.9336
  663MOL0     H91461   8.959  -1.807  -0.898  0.1344 -0.2471 -0.3977
  663MOL0     H91462   9.186  -1.843  -1.013 -0.8732 -3.0234  0.1802
  663MOL0     H91463   9.244  -1.878  -0.848  0.0328 -0.8624  0.1394
  663MOL0     H91464   9.244  -1.652  -0.785  0.8275  1.1121 -0.6577
  663MOL0     H91465   9.136  -1.599  -0.904 -1.6526 -1.4154 -1.3856
  663MOL0     H91466   9.409  -1.706  -0.991 -1.4467 -0.9944 -1.0447
  663MOL0     H91467   9.274  -1.635  -1.093  0.7677 -1.1696  0.6510
  663MOL0     H91468   9.311  -1.404  -1.017 -1.1624 -0.7697  0.3490
  663MOL0     H91469   9.473  -1.488  -1.050  0.8729 -0.2684  1.1123
  663MOL0     H91470   9.491  -1.532  -0.805  0.5364  1.1459  1.5576
  663MOL0     H91471   9.343  -1.440  -0.783  1.0009 -0.9484  2.0882
  663MOL0     H91472   9.571  -1.310  -0.926  1.7857 -0.3389  1.1888
  663MOL0     H91473   9.564  -1.308  -0.744 -0.7242  1.8749  1.2292
  663MOL0     H91474   9.037  -1.705  -0.480  2.9160 -1.5113 -1.5005
  663MOL0     H91475   9.030  -1.697  -0.235 -1.0387 -0.4900  1.5225
  663MOL0     H91476   9.171  -1.851   0.209  0.3838  4.1913 -2.2904
  663MOL0     H91477   9.143  -1.757   0.433 -0.3318  1.0418  0.7938
  663MOL0     H91478   8.055  -0.311   0.853 -2.0791 -0.1633 -0.6354
  663MOL0     H91479   7.820  -0.248   0.848 -0.1489  1.9315  0.3682
  663MOL0     H91480   7.532   0.022   0.633 -1.7324 -1.7910 -0.7398
  663MOL0     H91481   7.337   0.082   0.547 -0.7313  3.1199 -1.2485
  663MOL0     H91482   7.177   0.203   0.463 -1.6905 -0.2619 -1.4437
  663MOL0     H91483   7.084   0.102   0.575 -0.0041 -0.8843 -1.0849
  663MOL0     H91484   7.006   0.386   0.484 -0.2829  0.1760  2.2135
  663MOL0     H91485   6.892   0.285   0.563 -1.3521 -3.3176 -2.5714
  663MOL0     H91486   7.003   0.191   0.303  1.4317  1.4685 -0.1774
  663MOL0     H91487   6.894   0.107   0.405  0.3133 -1.5038 -0.7566
  663MOL0     H91488   6.774   0.215   0.210  2.0790  0.9957 -1.6672
  663MOL0     H91489   6.842   0.375   0.251  1.6556  1.2417  1.9380
  663MOL0     H91490   6.518   0.338   0.519  0.8512 -0.5106  1.5342
  663MOL0     H91491   7.286   0.365   0.869  2.1116 -2.3659  3.9690
  663MOL0     H91492   7.566   0.387   1.005  0.0596  1.5435  1.3350
  663MOL0     H91493   7.402   0.346   1.066 -0.7601  1.9419 -3.2066
  663MOL0     H91494   7.532   0.233   1.082  0.3908  2.0885  0.9599
  664MOL0     O91495   1.803   5.482   9.469  0.2365  0.0910  0.7652
  664MOL0     C91496   1.737   5.396   9.411  0.3527 -0.7977 -0.1811
  664MOL0     O91497   1.797   5.303   9.332 -0.1641  0.2196  0.9385
  664MOL0     C91498   1.928   5.321   9.291  0.1594 -0.0809 -0.1070
  664MOL0     C91499   2.030   5.234   9.323  0.5642  0.5546 -0.2274
  664MOL0     C91500   2.158   5.261   9.294  0.7562 -1.1795  0.4252
  664MOL0     C91501   2.187   5.384   9.225  0.0602  0.0139 -0.5904
  664MOL0     O91502   2.320   5.401   9.203 -0.5725 -0.1448  0.1759
  664MOL0     C91503   2.363   5.484   9.093 -0.0022 -0.1200 -0.4566
  664MOL0     C91504   2.521   5.482   9.079  1.2426  0.1850  0.7259
  664MOL0     C91505   2.584   5.548   9.201 -0.3887  0.5903  0.1140
  664MOL0     C91506   2.736   5.522   9.192  0.2729 -0.4988  0.7871
  664MOL0     C91507   2.798   5.550   9.328 -0.5854  0.1007 -0.4514
  664MOL0     C91508   2.947   5.512   9.329 -0.0307  0.4316 -0.1552
  664MOL0     C91509   3.028   5.553   9.458 -0.0893 -0.4855 -1.1880
  664MOL0     C91510   3.072   5.704   9.475 -0.1339  0.5447  0.1898
  664MOL0     N91511   3.210   5.719   9.424  0.5375  0.2694 -0.1605
  664MOL0     C91512   3.241   5.778   9.311 -0.2811  0.2806  0.9807
  664MOL0     C91513   3.377   5.777   9.312  0.1197 -1.0551  0.1730
  664MOL0     C91514   3.454   5.852   9.208 -0.6108 -0.7245 -0.9113
  664MOL0     C91515   3.604   5.843   9.246 -0.0466  0.3534 -0.2595
  664MOL0     C91516   3.694   5.895   9.135 -1.0213  0.1617 -0.1840
  664MOL0     C91517   3.670   6.045   9.109 -0.8034  1.5973  0.4512
  664MOL0     O91518   3.698   6.124   9.229 -0.3524 -0.2341  0.2862
  664MOL0     C91519   3.833   6.139   9.268  0.6320 -0.5871 -0.0628
  664MOL0     C91520   3.853   6.173   9.399  0.2444 -0.0628  0.1966
  664MOL0     C91521   3.980   6.190   9.465 -0.0319 -1.0125  0.2781
  664MOL0     C91522   3.988   6.244   9.601 -0.1819  0.2338  0.0588
  664MOL0     C91523   4.095   6.158   9.391  0.3506 -0.1992  0.0869
  664MOL0     C91524   4.232   6.171   9.440 -1.1517  0.6367 -0.3451
  664MOL0     O91525   4.326   6.105   9.367  0.0744 -0.0578 -0.0740
  664MOL0     C91526   4.463   6.115   9.404  0.6694 -0.9535 -1.2049
  664MOL0     C91527   4.522   6.008   9.469  0.1877  0.4005 -0.0035
  664MOL0     C91528   4.657   6.023   9.502  0.5251 -0.8115 -0.4225
  664MOL0     C91529   4.730   6.140   9.483 -0.0256 -0.3435 -0.2915
  664MOL0     O91530   4.849   6.180   9.537 -0.3021  0.4218  0.2616
  664MOL0     C91531   4.908   6.113   9.652 -0.3660  0.2553  0.6968
  664MOL0     C91532   5.006   6.014   9.608  0.0796 -0.2779  0.4191
  664MOL0     C91533   4.946   5.877   9.582 -0.1938  0.1039  0.0733
  664MOL0     C91534   5.062   5.768   9.582  0.4965 -0.0438 -0.0915
  664MOL0     C91535   5.011   5.623   9.564 -0.0897  0.2607  1.0002
  664MOL0     C91536   5.005   5.592   9.409 -0.1971  0.4376  0.0063
  664MOL0     C91537   4.935   5.461   9.382 -0.0518 -0.9125 -1.2856
  664MOL0     C91538   4.816   5.471   9.289 -0.5512  0.2915 -0.3273
  664MOL0    Cl91539   4.684   5.562   9.357  0.7619  0.0119 -0.1504
  664MOL0     C91540   4.665   6.235   9.407 -0.3687 -0.3036 -0.5049
  664MOL0     C91541   4.534   6.231   9.363  0.6148 -0.0774 -0.7951
  664MOL0     O91542   4.263   6.237   9.542 -0.8861  0.1286  0.1765
  664MOL0     C91543   4.075   6.130   9.250  0.3400 -0.1426  0.6190
  664MOL0     C91544   3.948   6.117   9.188 -0.5739 -0.4109 -0.5248
  664MOL0     N91545   3.424   5.700   9.418  0.0518 -0.0566  0.0037
  664MOL0     N91546   3.319   5.670   9.489 -0.1184 -0.0561  0.8843
  664MOL0     C91547   2.087   5.466   9.182 -0.5790 -0.2589 -0.0703
  664MOL0     C91548   1.963   5.434   9.215  0.3355  0.1041 -0.4461
  664MOL0     C91549   1.590   5.424   9.405 -0.4313 -0.2338  0.1602
  664MOL0     C91550   1.524   5.343   9.309 -0.0828  0.3620  0.5180
  664MOL0     C91551   1.384   5.348   9.289 -0.2603 -0.1531  0.0733
  664MOL0     C91552   1.310   5.446   9.356 -0.1629  0.6354 -0.4917
  664MOL0     O91553   1.179   5.455   9.319  0.0682  0.0732  0.8248
  664MOL0     C91554   1.103   5.575   9.355 -0.0009  0.7849  0.4968
  664MOL0     C91555   1.048   5.581   9.500 -0.0258 -0.8136  0.5763
  664MOL0     C91556   0.938   5.492   9.534  0.6271  0.1985  0.3463
  664MOL0     C91557   0.809   5.514   9.458  0.6571 -0.5154 -0.1878
  664MOL0     C91558   0.709   5.416   9.489  0.7575 -0.5638 -0.4587
  664MOL0     C91559   0.628   5.338   9.535  0.3505  0.6071 -0.7809
  664MOL0     C91560   1.370   5.537   9.450  0.2697  0.0730  0.0488
  664MOL0     C91561   1.510   5.519   9.476  0.5479 -1.2232 -0.6273
  664MOL0     C91562   1.573   5.607   9.591 -0.6202  0.4846  0.6317
  664MOL0     H91563   2.011   5.145   9.382 -0.5516  2.0326  1.7678
  664MOL0     H91564   2.238   5.195   9.324 -0.4041 -1.5994  2.8276
  664MOL0     H91565   2.329   5.588   9.097  0.4469  0.0233 -0.2529
  664MOL0     H91566   2.328   5.448   8.996  1.4892 -1.4493 -0.5612
  664MOL0     H91567   2.553   5.377   9.080 -0.4344 -0.3649  0.3100
  664MOL0     H91568   2.532   5.533   8.983 -2.3825  0.5130  0.3678
  664MOL0     H91569   2.562   5.655   9.207  3.1174  1.3960  0.6781
  664MOL0     H91570   2.557   5.496   9.294  3.4337 -1.4185  0.3043
  664MOL0     H91571   2.765   5.421   9.163  0.7685 -0.3449  0.7427
  664MOL0     H91572   2.779   5.588   9.116  0.1743 -0.4753  0.7515
  664MOL0     H91573   2.743   5.485   9.396  0.2811 -0.1618  0.0151
  664MOL0     H91574   2.790   5.655   9.360 -1.1330  0.2133 -0.9499
  664MOL0     H91575   2.951   5.405   9.308 -0.9828  0.4644 -0.5256
  664MOL0     H91576   2.988   5.568   9.244 -1.3702  1.2388 -0.2969
  664MOL0     H91577   3.111   5.484   9.471 -0.6225 -1.0029 -0.4462
  664MOL0     H91578   2.964   5.539   9.545  0.5452  3.1009  0.0502
  664MOL0     H91579   3.010   5.773   9.417  2.0685  2.4964  0.0122
  664MOL0     H91580   3.060   5.732   9.580  1.1649 -2.2251  1.1674
  664MOL0     H91581   3.178   5.830   9.239  0.9605  0.4525 -0.0090
  664MOL0     H91582   3.418   5.955   9.212  0.4054 -0.3703 -0.6160
  664MOL0     H91583   3.429   5.816   9.108 -0.6038 -1.3494 -0.6940
  664MOL0     H91584   3.621   5.900   9.338 -0.5583  0.8333 -0.4570
  664MOL0     H91585   3.627   5.737   9.263 -1.6271 -0.2304 -1.5368
  664MOL0     H91586   3.794   5.879   9.177 -1.1394 -1.1551 -0.3375
  664MOL0     H91587   3.681   5.827   9.050 -2.7923  2.8952 -2.2383
  664MOL0     H91588   3.728   6.080   9.023 -1.8158  1.2228 -0.4076
  664MOL0     H91589   3.564   6.050   9.082 -0.3955 -0.8992 -2.1710
  664MOL0     H91590   3.764   6.192   9.459  0.0616 -2.0109  0.6162
  664MOL0     H91591   4.044   6.174   9.663 -1.7586 -2.1846 -1.0669
  664MOL0     H91592   3.886   6.256   9.640  0.3288  2.8162  0.7978
  664MOL0     H91593   4.038   6.341   9.604  0.1739  0.0630 -0.1948
  664MOL0     H91594   4.462   5.920   9.491  0.6693 -0.1420 -0.7687
  664MOL0     H91595   4.689   5.937   9.561 -1.2091 -0.5425  1.0235
  664MOL0     H91596   4.939   6.190   9.723  1.2008 -0.2898  0.6444
  664MOL0     H91597   4.823   6.074   9.709 -2.2212  4.2971  1.0199
  664MOL0     H91598   5.057   6.060   9.522 -1.9294  0.9605 -0.1918
  664MOL0     H91599   5.090   6.004   9.677  0.7628 -0.1406 -0.3658
  664MOL0     H91600   4.906   5.889   9.481 -0.2391  1.1868  0.2113
  664MOL0     H91601   4.867   5.850   9.654  0.7050  1.6946  1.7420
  664MOL0     H91602   5.115   5.775   9.677  0.1369  5.0164 -0.0034
  664MOL0     H91603   5.123   5.798   9.496 -0.0935 -1.0135 -0.8627
  664MOL0     H91604   5.077   5.553   9.616  0.9550  0.3501 -0.1444
  664MOL0     H91605   4.911   5.622   9.607 -0.9434 -0.2207 -0.8871
  664MOL0     H91606   5.107   5.573   9.375 -0.9137  1.2055 -2.8164
  664MOL0     H91607   4.959   5.673   9.352 -0.7524  1.5442  1.9108
  664MOL0     H91608   4.882   5.425   9.471 -0.7697 -2.1353 -2.1843
  664MOL0     H91609   5.008   5.384   9.354  0.2499 -0.7852 -0.8611
  664MOL0     H91610   4.783   5.367   9.277  2.1399 -0.8518  1.2627
  664MOL0     H91611   4.859   5.502   9.194  1.4014  2.9760  1.2892
  664MOL0     H91612   4.720   6.320   9.368 -1.0071 -0.9238 -2.8928
  664MOL0     H91613   4.499   6.320   9.310  2.9632  1.6122  0.2881
  664MOL0     H91614   4.158   6.093   9.192  2.6142 -1.1469  4.1858
  664MOL0     H91615   3.956   6.095   9.082  1.9433 -2.0324 -0.0871
  664MOL0     H91616   2.109   5.548   9.113 -1.6395 -1.0889 -1.4479
  664MOL0     H91617   1.883   5.499   9.180 -0.6189 -0.2986  0.8658
  664MOL0     H91618   1.582   5.272   9.251 -0.8453 -1.0896  1.4671
  664MOL0     H91619   1.333   5.290   9.213 -0.9709  1.0341 -0.3794
  664MOL0     H91620   1.168   5.663   9.347  1.7367 -0.6077 -2.5396
  664MOL0     H91621   1.025   5.583   9.279  0.8477 -0.9579 -0.6258
  664MOL0     H91622   1.020   5.686   9.510  3.2079  0.0386  2.0710
  664MOL0     H91623   1.126   5.558   9.574  0.8613 -1.7866 -0.6073
  664MOL0     H91624   0.978   5.392   9.513  1.2245  0.3687  0.6751
  664MOL0     H91625   0.922   5.506   9.641 -1.6977  2.4304 -0.1901
  664MOL0     H91626   0.823   5.510   9.349 -1.2685  0.5426 -0.5307
  664MOL0     H91627   0.761   5.608   9.489  4.4497  0.1717  4.9378
  664MOL0     H91628   0.542   5.285   9.572  0.4616  0.3494 -0.8865
  664MOL0     H91629   1.318   5.605   9.516 -1.4571 -1.2167  0.0927
  664MOL0     H91630   1.659   5.662   9.551 -1.1500  0.8830  0.0205
  664MOL0     H91631   1.495   5.674   9.630  0.1035  0.8713  1.4551
  664MOL0     H91632   1.603   5.544   9.675 -0.6747  0.3188  0.5267
  665MOL0     O91633   2.770  10.759   5.366  0.1519  0.6720  0.4210
  665MOL0     C91634   2.775  10.838   5.273  0.0055  0.1053  0.2583
  665MOL0     O91635   2.890  10.885   5.211 -0.0634 -0.0983  0.1848
  665MOL0     C91636   3.012  10.843   5.258  0.4244  0.2023  0.1485
  665MOL0     C91637   3.110  10.934   5.294 -0.8073 -0.6322 -0.1769
  665MOL0     C91638   3.247  10.904   5.322 -0.1405  0.0187  0.5473
  665MOL0     C91639   3.290  10.775   5.316 -0.1663  0.1566  0.9566
  665MOL0     O91640   3.423  10.750   5.341 -0.3437  0.2900 -0.2200
  665MOL0     C91641   3.451  10.689   5.473 -0.1652  1.1137  0.3636
  665MOL0     C91642   3.451  10.783   5.586 -0.1714  0.8398  0.0098
  665MOL0     C91643   3.572  10.883   5.581  0.2673 -0.1953  0.1593
  665MOL0     C91644   3.709  10.828   5.622  0.0990 -0.1255 -0.2164
  665MOL0     C91645   3.831  10.915   5.579 -0.4446  1.1172 -1.2065
  665MOL0     C91646   3.959  10.862   5.646 -0.1778 -0.1064 -0.4330
  665MOL0     C91647   4.081  10.946   5.599 -0.2038  0.4498  0.1071
  665MOL0     C91648   4.195  10.852   5.624 -0.1707  0.2997 -1.6024
  665MOL0     N91649   4.324  10.915   5.604 -0.5341 -0.4061 -0.9316
  665MOL0     C91650   4.382  11.000   5.696  0.0549  0.2735  0.2899
  665MOL0     C91651   4.489  11.054   5.637 -0.8625  0.4843  0.2524
  665MOL0     C91652   4.586  11.147   5.692  0.2273 -0.4614 -0.3201
  665MOL0     C91653   4.665  11.095   5.804  0.3722 -0.7897 -0.1572
  665MOL0     C91654   4.729  11.213   5.871 -0.1533  0.1496 -0.4117
  665MOL0     C91655   4.842  11.274   5.778 -0.4850 -0.0237  0.3590
  665MOL0     O91656   4.922  11.359   5.860 -0.1603 -0.1179 -0.7055
  665MOL0     C91657   5.037  11.394   5.801 -0.2181  0.1696 -0.1410
  665MOL0     C91658   5.034  11.508   5.716 -0.3140  0.4376 -0.8466
  665MOL0     C91659   5.156  11.568   5.688 -1.0015  0.7439 -0.2353
  665MOL0     C91660   5.151  11.704   5.635  0.2208 -0.7680 -0.8588
  665MOL0     C91661   5.277  11.501   5.721 -0.0270  0.3087 -0.6553
  665MOL0     C91662   5.401  11.569   5.691 -0.0741  0.1990 -0.4013
  665MOL0     O91663   5.425  11.573   5.554  0.2779  0.4636  0.0054
  665MOL0     C91664   5.553  11.605   5.511  0.5566 -0.2171  0.5030
  665MOL0     C91665   5.588  11.734   5.480 -0.3949 -0.1540 -1.0539
  665MOL0     C91666   5.722  11.773   5.458 -0.2725  0.4290 -0.2322
  665MOL0     C91667   5.820  11.678   5.461  0.3903  0.9420 -0.7024
  665MOL0     O91668   5.956  11.707   5.447  0.4308  0.8057 -0.0011
  665MOL0     C91669   6.036  11.609   5.367  0.8559 -0.5162  0.1779
  665MOL0     C91670   6.174  11.660   5.360  0.3867 -0.5636  0.7017
  665MOL0     C91671   6.190  11.787   5.278 -0.7142 -1.2241  0.0620
  665MOL0     C91672   6.317  11.857   5.273 -0.1579  0.6913  0.8008
  665MOL0     C91673   6.311  11.976   5.170  0.2336  0.5706  0.2183
  665MOL0     C91674   6.418  12.074   5.195  0.6613 -0.7087 -0.5087
  665MOL0     C91675   6.405  12.141   5.333  1.0223  0.5643  0.1378
  665MOL0     C91676   6.488  12.270   5.338 -0.0210 -0.0133  0.1043
  665MOL0    Cl91677   6.663  12.235   5.323  0.0411 -0.0338 -0.3420
  665MOL0     C91678   5.784  11.543   5.481 -0.3575 -0.2730 -0.4247
  665MOL0     C91679   5.653  11.509   5.507  0.3093  0.0840  0.3246
  665MOL0     O91680   5.485  11.599   5.781  0.5519 -0.1951  0.3938
  665MOL0     C91681   5.276  11.375   5.786  0.1576 -1.2711 -0.9167
  665MOL0     C91682   5.154  11.323   5.831  0.5310  0.0481  0.4887
  665MOL0     N91683   4.496  10.999   5.509  0.7021  0.1463  0.6283
  665MOL0     N91684   4.393  10.911   5.489  0.4758 -0.5023 -0.3416
  665MOL0     C91685   3.194  10.677   5.283  0.3282  1.0127  0.0779
  665MOL0     C91686   3.056  10.705   5.245 -0.4669 -0.4679 -0.7059
  665MOL0     C91687   2.637  10.883   5.214 -0.0460  0.7943  0.1480
  665MOL0     C91688   2.638  10.952   5.086 -0.3287 -0.2225 -1.2923
  665MOL0     C91689   2.516  10.985   5.030  0.1860 -0.4731  0.2326
  665MOL0     C91690   2.393  10.959   5.092 -0.1202  0.3299  0.7887
  665MOL0     O91691   2.277  10.995   5.033 -0.1079 -0.6879  0.5476
  665MOL0     C91692   2.253  10.957   4.897  0.5766  0.1256 -0.5761
  665MOL0     C91693   2.187  11.068   4.818  0.3330 -0.3131  0.5107
  665MOL0     C91694   2.272  11.201   4.818  0.0991  0.3825  0.0522
  665MOL0     C91695   2.219  11.302   4.719  0.1610 -0.1487 -0.0090
  665MOL0     C91696   2.082  11.337   4.754 -0.3680  0.0156  0.0611
  665MOL0     C91697   1.965  11.370   4.772 -0.6647  0.1001 -0.2387
  665MOL0     C91698   2.396  10.891   5.213 -0.9017  0.3695 -0.8568
  665MOL0     C91699   2.516  10.852   5.273 -0.3406 -0.2282 -0.4473
  665MOL0     C91700   2.495  10.766   5.398 -0.2717  0.1710 -0.1618
  665MOL0     H91701   3.085  11.038   5.309  1.0898 -0.4932  2.9337
  665MOL0     H91702   3.324  10.976   5.349 -0.2559 -0.4370  2.1831
  665MOL0     H91703   3.541  10.627   5.479 -3.1421 -3.6028  3.4660
  665MOL0     H91704   3.367  10.620   5.483 -1.1784  2.2299 -0.2239
  665MOL0     H91705   3.362  10.846   5.581  0.4624  1.7060 -0.6557
  665MOL0     H91706   3.441  10.731   5.681 -4.1554  0.1101 -0.6024
  665MOL0     H91707   3.579  10.913   5.476 -2.2128  0.2936  0.0753
  665MOL0     H91708   3.544  10.975   5.632 -1.7402  0.4352 -1.9334
  665MOL0     H91709   3.700  10.828   5.731  0.3942  1.1100 -0.1751
  665MOL0     H91710   3.716  10.726   5.583 -1.2813  0.7405 -2.9950
  665MOL0     H91711   3.815  11.021   5.596  1.8314  1.5003 -1.1248
  665MOL0     H91712   3.840  10.902   5.470 -4.3985 -0.3212 -1.5184
  665MOL0     H91713   3.956  10.860   5.755  0.1167 -0.1609 -0.4259
  665MOL0     H91714   3.964  10.756   5.617 -2.0796 -1.3809  3.2294
  665MOL0     H91715   4.089  11.040   5.656 -1.2666  0.0078  1.0431
  665MOL0     H91716   4.091  10.966   5.492  0.6466  2.1650  0.4672
  665MOL0     H91717   4.181  10.811   5.724 -2.8419 -0.0188 -2.0370
  665MOL0     H91718   4.191  10.762   5.563 -0.7864 -0.8869  0.1228
  665MOL0     H91719   4.337  11.025   5.791  0.3836  1.6721  0.0904
  665MOL0     H91720   4.513  11.223   5.723  2.5242  1.7623 -0.1179
  665MOL0     H91721   4.662  11.185   5.624 -0.5541  0.3164 -0.7845
  665MOL0     H91722   4.593  11.049   5.872 -0.8292 -2.0546 -2.1747
  665MOL0     H91723   4.739  11.028   5.759 -0.0737 -1.6737  0.3930
  665MOL0     H91724   4.654  11.289   5.896 -0.4198 -0.4617  0.6845
  665MOL0     H91725   4.778  11.186   5.965 -0.0795  0.3957 -0.3805
  665MOL0     H91726   4.894  11.193   5.725  0.5476  1.2515 -0.6424
  665MOL0     H91727   4.800  11.339   5.701  1.7639  0.6748 -0.3387
  665MOL0     H91728   4.943  11.563   5.692  0.1084  1.1946 -0.7384
  665MOL0     H91729   5.193  11.717   5.535  1.8533  3.9621  0.1988
  665MOL0     H91730   5.208  11.763   5.707 -1.0745 -1.9276  1.2159
  665MOL0     H91731   5.051  11.747   5.638  0.8688  0.8299  3.0656
  665MOL0     H91732   5.513  11.812   5.479  0.9077  1.1820  0.0496
  665MOL0     H91733   5.732  11.874   5.418  2.0902  0.3247 -0.0596
  665MOL0     H91734   6.044  11.516   5.424 -2.2602  0.0609  1.8063
  665MOL0     H91735   5.981  11.589   5.274  0.8558  3.3464 -0.8536
  665MOL0     H91736   6.201  11.683   5.464  0.7829 -0.5470  0.5969
  665MOL0     H91737   6.239  11.578   5.327 -1.4008 -2.2915  1.2560
  665MOL0     H91738   6.121  11.859   5.323  2.0991  1.7653 -0.0234
  665MOL0     H91739   6.160  11.763   5.175  0.3070 -3.3516  0.2018
  665MOL0     H91740   6.393  11.791   5.231 -3.4072 -2.1982 -0.9878
  665MOL0     H91741   6.339  11.889   5.376  0.0039  0.5558  0.8081
  665MOL0     H91742   6.313  11.938   5.067  0.1766 -4.2013  1.7544
  665MOL0     H91743   6.218  12.033   5.172  0.3376  0.8980 -1.8495
  665MOL0     H91744   6.402  12.160   5.129 -3.6655 -2.1649 -1.7027
  665MOL0     H91745   6.516  12.027   5.180  0.4555 -2.4985  2.8207
  665MOL0     H91746   6.437  12.082   5.419 -1.9635  1.1545  1.7775
  665MOL0     H91747   6.299  12.161   5.348  0.5463  0.1466 -2.2121
  665MOL0     H91748   6.468  12.332   5.426  1.7112  0.7995 -0.0408
  665MOL0     H91749   6.460  12.333   5.253  2.2042 -1.1968 -1.6205
  665MOL0     H91750   5.861  11.467   5.492 -1.4893 -1.5168 -0.8113
  665MOL0     H91751   5.636  11.401   5.510  0.5070 -0.2148 -3.8278
  665MOL0     H91752   5.364  11.315   5.808 -1.5534 -2.8230  2.4450
  665MOL0     H91753   5.156  11.230   5.887 -2.8608 -1.4812 -1.6303
  665MOL0     H91754   3.226  10.573   5.276 -0.2028  0.9093 -0.9245
  665MOL0     H91755   2.981  10.630   5.223 -1.7589  1.4724 -3.4868
  665MOL0     H91756   2.729  10.983   5.036 -0.2900  0.8487 -0.6028
  665MOL0     H91757   2.509  11.027   4.931  1.8954 -1.6885 -0.4541
  665MOL0     H91758   2.334  10.910   4.841 -0.8410 -3.3958  0.0537
  665MOL0     H91759   2.176  10.880   4.901  0.1566  0.5735  1.8454
  665MOL0     H91760   2.089  11.087   4.862  0.3915  2.6909 -0.4370
  665MOL0     H91761   2.176  11.035   4.715  0.5518 -3.0621  1.2875
  665MOL0     H91762   2.296  11.236   4.919  3.1092 -0.6071 -0.2118
  665MOL0     H91763   2.372  11.162   4.795 -0.4898 -0.5149 -1.0461
  665MOL0     H91764   2.219  11.266   4.616  0.6021 -1.5665  0.4661
  665MOL0     H91765   2.280  11.393   4.718 -2.3533  1.6810  1.1605
  665MOL0     H91766   1.866  11.390   4.809 -1.1913 -1.4583 -0.7090
  665MOL0     H91767   2.295  10.861   5.239 -0.9015 -0.4489 -1.7313
  665MOL0     H91768   2.390  10.737   5.401 -0.5282  1.1047  0.0287
  665MOL0     H91769   2.551  10.672   5.392 -1.1191 -0.4624  1.1772
  665MOL0     H91770   2.528  10.817   5.489  1.9503 -1.4695  0.0317
  666MOL0     O91771   1.412   9.077   0.275 -0.1049  0.1331 -0.5628
  666MOL0     C91772   1.330   9.154   0.321  0.5663  0.8388 -0.1663
  666MOL0     O91773   1.341   9.288   0.326 -0.0260 -0.3700 -0.1492
  666MOL0     C91774   1.456   9.346   0.283 -0.3149 -0.4764  0.1995
  666MOL0     C91775   1.536   9.399   0.390  0.8252 -0.4056 -0.2689
  666MOL0     C91776   1.649   9.463   0.361 -0.4451  0.0054  0.2882
  666MOL0     C91777   1.686   9.501   0.229 -0.3797  0.4711 -0.5030
  666MOL0     O91778   1.798   9.571   0.194 -0.1804  0.1071  0.4380
  666MOL0     C91779   1.882   9.634   0.304 -0.2968  0.2025  0.1405
  666MOL0     C91780   1.986   9.734   0.251  0.1881 -0.3372 -0.2330
  666MOL0     C91781   1.916   9.858   0.205  0.0822 -0.2245  0.2031
  666MOL0     C91782   2.002   9.959   0.136  0.2387  0.1812  0.5898
  666MOL0     C91783   2.110   9.987   0.229 -1.5066 -0.4587  1.2031
  666MOL0     C91784   2.159  10.148   0.219  0.3975  0.0746 -0.3449
  666MOL0     C91785   2.286  10.175   0.294 -0.2771  0.4748  0.6112
  666MOL0     C91786   2.298  10.108   0.432 -0.4745  1.0072 -0.2858
  666MOL0     N91787   2.386  10.203   0.501 -0.5024 -1.0328  0.0259
  666MOL0     C91788   2.365  10.256   0.629  0.8029  0.0185  0.5799
  666MOL0     C91789   2.461  10.352   0.637  0.1861 -0.1998  0.0893
  666MOL0     C91790   2.500  10.426   0.762 -0.2007  0.2892 -0.4632
  666MOL0     C91791   2.635  10.382   0.828 -0.7545 -0.0337  0.9364
  666MOL0     C91792   2.623  10.254   0.909  0.7374 -0.0481  0.0224
  666MOL0     C91793   2.762  10.185   0.924  0.4873  0.0964 -0.4206
  666MOL0     O91794   2.839  10.253   1.026  0.1374  0.1816 -0.2275
  666MOL0     C91795   2.976  10.276   1.001 -0.8932  0.3021 -1.1189
  666MOL0     C91796   3.056  10.220   0.900 -0.4323 -0.5335 -0.3658
  666MOL0     C91797   3.195  10.229   0.897 -0.0487 -0.4699  0.0675
  666MOL0     C91798   3.272  10.128   0.814 -0.3890 -0.8429  0.2118
  666MOL0     C91799   3.260  10.328   0.976  1.0721 -0.2877 -0.5705
  666MOL0     C91800   3.408  10.345   0.985 -0.9854  0.1403  0.2836
  666MOL0     O91801   3.455  10.420   1.083 -0.5222  0.3091  0.0597
  666MOL0     C91802   3.570  10.484   1.070 -0.3126 -0.2525  0.1959
  666MOL0     C91803   3.690  10.410   1.060  0.0046  0.1710  0.2055
  666MOL0     C91804   3.818  10.476   1.052  0.0132  0.0079 -0.7782
  666MOL0     C91805   3.825  10.612   1.033 -0.0758  0.4644  0.3198
  666MOL0     O91806   3.949  10.666   1.044  0.9615  0.3911 -0.5251
  666MOL0     C91807   4.004  10.770   0.959 -0.2876  0.7480  0.0370
  666MOL0     C91808   4.039  10.690   0.831  0.6531 -0.5108 -0.6063
  666MOL0     C91809   4.173  10.608   0.833 -0.6910 -0.2434  0.4404
  666MOL0     C91810   4.285  10.690   0.767  0.8569 -0.3283 -0.5494
  666MOL0     C91811   4.413  10.612   0.764  0.7307  0.1560  0.2656
  666MOL0     C91812   4.520  10.693   0.696  0.7774 -0.4884 -0.4230
  666MOL0     C91813   4.645  10.607   0.666  0.1057 -0.3055 -0.9634
  666MOL0     C91814   4.716  10.646   0.544  0.2052 -0.3193 -0.4357
  666MOL0    Cl91815   4.858  10.543   0.511  0.0858 -0.3104 -0.4309
  666MOL0     C91816   3.707  10.684   1.026 -0.6987 -0.9467  1.3254
  666MOL0     C91817   3.583  10.619   1.047 -0.1975 -0.6792  1.0464
  666MOL0     O91818   3.480  10.302   0.892 -0.1083 -0.6954  0.1474
  666MOL0     C91819   3.176  10.400   1.063  0.1686  0.2699  0.1606
  666MOL0     C91820   3.039  10.371   1.080 -0.8442 -0.3220  0.6234
  666MOL0     N91821   2.531  10.352   0.522 -0.4221 -0.3143  0.2862
  666MOL0     N91822   2.497  10.261   0.448  0.0376  0.2023  0.2746
  666MOL0     C91823   1.606   9.466   0.123 -0.2167  0.8109 -0.1439
  666MOL0     C91824   1.492   9.380   0.152  0.9236 -0.2154 -0.4232
  666MOL0     C91825   1.201   9.097   0.370  0.6490  0.2920  0.3824
  666MOL0     C91826   1.171   8.964   0.344  0.2593  0.1344 -0.4128
  666MOL0     C91827   1.053   8.897   0.388 -0.5336 -1.6234  0.4241
  666MOL0     C91828   0.947   8.972   0.439  0.5939  0.1550 -0.8692
  666MOL0     O91829   0.821   8.920   0.482 -0.7082  0.2295  0.0299
  666MOL0     C91830   0.778   8.810   0.401  0.0008  0.0266  0.2937
  666MOL0     C91831   0.635   8.781   0.426 -0.4493 -0.2382 -0.0344
  666MOL0     C91832   0.540   8.852   0.328  0.5263 -0.6620  0.4355
  666MOL0     C91833   0.393   8.829   0.371 -0.4198  0.2215  0.1428
  666MOL0     C91834   0.289   8.865   0.276 -0.8588 -0.1448 -0.8285
  666MOL0     C91835   0.205   8.895   0.199 -0.3521  0.4956  0.2724
  666MOL0     C91836   0.972   9.109   0.466  0.3714 -0.1641  0.8922
  666MOL0     C91837   1.101   9.170   0.434  0.6327 -0.4371  0.1706
  666MOL0     C91838   1.127   9.316   0.484  0.7265 -0.1703  0.1962
  666MOL0     H91839   1.497   9.396   0.491 -2.4886 -1.2063 -1.4345
  666MOL0     H91840   1.703   9.504   0.446 -1.5557  0.8699  0.5933
  666MOL0     H91841   1.932   9.552   0.357  1.5052  1.1747  0.0151
  666MOL0     H91842   1.820   9.692   0.373 -1.1741  0.5326 -0.9100
  666MOL0     H91843   2.056   9.753   0.333 -1.1296  0.0535  0.8557
  666MOL0     H91844   2.035   9.691   0.164 -0.4237 -0.3935 -0.5572
  666MOL0     H91845   1.843   9.821   0.132 -1.5192 -2.2031  2.6735
  666MOL0     H91846   1.859   9.908   0.283 -2.5913  0.1321 -1.8369
  666MOL0     H91847   2.044   9.921   0.042 -0.4080  1.5028 -0.2768
  666MOL0     H91848   1.942  10.044   0.102 -0.1151 -0.4600 -0.4625
  666MOL0     H91849   2.200   9.934   0.198  0.3036  3.8862 -2.1568
  666MOL0     H91850   2.082   9.975   0.334  0.5215  0.1203  1.8515
  666MOL0     H91851   2.179  10.172   0.115  0.6515 -1.9396 -0.8000
  666MOL0     H91852   2.083  10.218   0.257  1.3424  0.7430  0.3655
  666MOL0     H91853   2.308  10.282   0.285 -1.4864  0.6205 -1.0601
  666MOL0     H91854   2.375  10.137   0.243  0.4985  1.3767  1.2540
  666MOL0     H91855   2.208  10.114   0.493 -1.0233 -0.9894 -0.8204
  666MOL0     H91856   2.335  10.005   0.439 -0.3611  1.1600  2.4868
  666MOL0     H91857   2.289  10.230   0.702 -0.6900  1.7134 -0.2795
  666MOL0     H91858   2.416  10.414   0.831 -0.8286 -1.5046 -1.4694
  666MOL0     H91859   2.511  10.533   0.742 -0.7156 -0.2171 -4.2510
  666MOL0     H91860   2.711  10.377   0.749 -1.7573 -0.5049 -0.0164
  666MOL0     H91861   2.678  10.448   0.904  1.8400 -1.1768  0.5653
  666MOL0     H91862   2.580  10.266   1.009  2.8423  0.1653  0.9471
  666MOL0     H91863   2.549  10.197   0.851 -1.3404  1.3939  1.1511
  666MOL0     H91864   2.744  10.080   0.947  2.4714  0.0979  1.5226
  666MOL0     H91865   2.809  10.182   0.825  0.8564 -1.0126 -0.2242
  666MOL0     H91866   3.006  10.156   0.828 -2.1598 -0.1880  0.4609
  666MOL0     H91867   3.340  10.169   0.739  2.4115 -1.5656  2.1835
  666MOL0     H91868   3.202  10.058   0.768  0.0079 -3.1094  2.7574
  666MOL0     H91869   3.339  10.081   0.887 -0.0831  1.1166  1.2594
  666MOL0     H91870   3.676  10.302   1.056  4.2067 -0.5312 -0.8716
  666MOL0     H91871   3.908  10.417   1.038 -0.2046 -0.0290 -2.1710
  666MOL0     H91872   3.930  10.841   0.921 -2.8687 -3.0091 -2.7522
  666MOL0     H91873   4.084  10.830   1.003  2.0815 -0.7675 -1.9343
  666MOL0     H91874   3.949  10.637   0.799 -2.2238  4.7007 -2.3607
  666MOL0     H91875   4.028  10.760   0.748 -0.9911 -2.7515 -2.4214
  666MOL0     H91876   4.156  10.514   0.780 -0.4160  0.8210 -1.6392
  666MOL0     H91877   4.204  10.581   0.934 -1.6187 -0.5525  0.6504
  666MOL0     H91878   4.299  10.781   0.826  1.0457  0.1516 -1.3192
  666MOL0     H91879   4.244  10.719   0.670 -2.0627 -0.8548  0.4043
  666MOL0     H91880   4.442  10.573   0.862  2.1149  1.6629  0.4962
  666MOL0     H91881   4.393  10.521   0.707 -1.3000 -0.5128  1.9118
  666MOL0     H91882   4.558  10.780   0.751 -2.7471  1.7598 -1.2091
  666MOL0     H91883   4.490  10.733   0.599 -0.0657 -1.2815 -0.4935
  666MOL0     H91884   4.620  10.500   0.664  1.4337 -0.6632  0.0531
  666MOL0     H91885   4.705  10.622   0.756 -3.8581 -2.1129  2.3596
  666MOL0     H91886   4.749  10.748   0.569 -0.2735  0.3801 -2.4956
  666MOL0     H91887   4.650  10.642   0.457 -0.4969 -0.9347  0.1076
  666MOL0     H91888   3.715  10.791   1.011 -1.4943 -1.0264  0.2555
  666MOL0     H91889   3.494  10.681   1.057 -0.9103 -2.0612  4.3121
  666MOL0     H91890   3.224  10.475   1.125  1.9107  0.1091 -0.9153
  666MOL0     H91891   2.988  10.429   1.156 -0.1477 -0.7252  1.4228
  666MOL0     H91892   1.640   9.506   0.028  1.1936  2.1507  0.8853
  666MOL0     H91893   1.418   9.357   0.076 -1.3790  2.9086  0.6554
  666MOL0     H91894   1.255   8.915   0.296 -1.1438 -0.7218 -2.1578
  666MOL0     H91895   1.039   8.791   0.368 -1.6462 -1.7965  1.9545
  666MOL0     H91896   0.793   8.832   0.294 -1.8495  0.4655  0.0996
  666MOL0     H91897   0.836   8.721   0.426 -1.5556 -1.4337 -1.0605
  666MOL0     H91898   0.615   8.803   0.531  2.0837 -1.1560  0.7211
  666MOL0     H91899   0.626   8.674   0.408 -3.5068 -0.0968  0.2465
  666MOL0     H91900   0.560   8.960   0.328  2.3723 -0.9822  0.0244
  666MOL0     H91901   0.554   8.832   0.221  0.0805 -0.2980  0.3009
  666MOL0     H91902   0.387   8.893   0.459 -0.4280  1.2908 -0.6123
  666MOL0     H91903   0.380   8.727   0.407 -0.5677 -0.2023 -1.0386
  666MOL0     H91904   0.127   8.925   0.132 -0.7972 -2.2838 -0.5880
  666MOL0     H91905   0.893   9.176   0.499  1.3560  2.0749 -1.0320
  666MOL0     H91906   1.206   9.318   0.559  1.3229 -2.1264 -0.3297
  666MOL0     H91907   1.146   9.391   0.406  0.0373  0.0785  0.2571
  666MOL0     H91908   1.033   9.350   0.530  0.1703  0.3529 -1.2847
  667MOL0     O91909  10.894   7.023  10.414  0.0154  0.3367 -0.2281
  667MOL0     C91910  10.866   6.952  10.508 -0.8004  0.5376 -0.3671
  667MOL0     O91911  10.951   6.928  10.616 -0.2230  0.0835 -0.8027
  667MOL0     C91912  11.084   6.960  10.611 -0.0309  0.7496  0.6681
  667MOL0     C91913  11.129   7.091  10.601  0.1920  0.2553 -0.9206
  667MOL0     C91914  11.264   7.119  10.593  0.6764 -0.3199  0.1424
  667MOL0     C91915  11.360   7.020  10.592 -1.0354 -0.1164 -0.0357
  667MOL0     O91916  11.497   7.053  10.599 -0.0681  0.5884  0.1269
  667MOL0     C91917  11.599   6.965  10.548 -0.0444 -0.5670  0.3122
  667MOL0     C91918  11.731   6.986  10.611 -0.2671 -0.2440 -0.6124
  667MOL0     C91919  11.790   7.121  10.584  0.6079 -0.4263 -0.4177
  667MOL0     C91920  11.916   7.156  10.662  0.3595  0.4996 -0.5672
  667MOL0     C91921  11.998   7.288  10.605 -0.4781 -0.7279 -0.0024
  667MOL0     C91922  11.930   7.428  10.601  0.4035  0.3893 -0.6077
  667MOL0     C91923  11.895   7.473  10.737 -1.0209  0.5716  0.1354
  667MOL0     C91924  12.002   7.505  10.839 -0.0600  0.0594 -0.1369
  667MOL0     N91925  12.103   7.612  10.800  0.4599 -0.0075 -0.2630
  667MOL0     C91926  12.072   7.749  10.808 -0.0302  0.3607  0.6387
  667MOL0     C91927  12.169   7.805  10.738 -0.5065  0.1944  0.2264
  667MOL0     C91928  12.199   7.950  10.717  0.4344 -0.1505 -0.0900
  667MOL0     C91929  12.338   7.995  10.740 -0.4585  0.2759  0.7713
  667MOL0     C91930  12.352   8.148  10.690 -0.4552 -0.6330  0.4955
  667MOL0     C91931  12.490   8.174  10.638 -0.1137 -0.9077  0.0837
  667MOL0     O91932  12.585   8.141  10.741 -0.4013  0.2208 -0.4955
  667MOL0     C91933  12.718   8.122  10.696  0.0637 -0.0836 -0.3281
  667MOL0     C91934  12.762   8.113  10.564 -0.3181 -1.0570  0.1212
  667MOL0     C91935  12.899   8.096  10.540  0.6073 -0.6310  0.3815
  667MOL0     C91936  12.944   8.099  10.387  0.1647 -0.2225  0.2807
  667MOL0     C91937  12.982   8.075  10.653  0.0599 -0.1356 -0.4321
  667MOL0     C91938  13.131   8.074  10.648  0.3392  0.0196 -0.0470
  667MOL0     O91939  13.205   8.111  10.759 -0.1253  0.0931 -0.8392
  667MOL0     C91940  13.336   8.121  10.759 -0.9732  0.6858  0.1550
  667MOL0     C91941  13.404   8.237  10.700  0.2174 -0.2445 -0.7938
  667MOL0     C91942  13.545   8.234  10.693 -1.2847 -0.1083  0.4248
  667MOL0     C91943  13.626   8.132  10.752  0.7641  0.5645  0.5800
  667MOL0     O91944  13.764   8.129  10.751 -1.2597 -0.0673 -0.2263
  667MOL0     C91945  13.834   8.234  10.683 -0.4445 -0.3408 -0.4858
  667MOL0     C91946  13.820   8.370  10.756  0.6700  0.3858 -0.4207
  667MOL0     C91947  13.931   8.466  10.729 -0.2979  0.3160  0.0101
  667MOL0     C91948  13.948   8.508  10.583  0.1404 -0.6243  0.2276
  667MOL0     C91949  14.061   8.609  10.569  0.2503  0.7358  0.2964
  667MOL0     C91950  14.081   8.655  10.423 -0.1866  0.6825  0.3754
  667MOL0     C91951  14.225   8.714  10.430 -0.1483  0.3341 -0.0437
  667MOL0     C91952  14.229   8.851  10.511 -0.3513 -0.1915 -0.5650
  667MOL0    Cl91953  14.350   8.969  10.480 -0.5782  0.4555 -0.3450
  667MOL0     C91954  13.554   8.036  10.826 -0.1803 -0.3400 -0.2190
  667MOL0     C91955  13.419   8.030  10.830 -0.1213 -0.4547 -0.0263
  667MOL0     O91956  13.184   8.015  10.553  0.3416 -0.5113  0.3488
  667MOL0     C91957  12.928   8.078  10.777 -0.2497  0.3145 -0.0489
  667MOL0     C91958  12.800   8.092  10.798 -0.5516 -0.1038  0.0792
  667MOL0     N91959  12.269   7.710  10.703  0.2992  0.2875 -0.9191
  667MOL0     N91960  12.227   7.593  10.747  0.4615  0.3259 -0.2057
  667MOL0     C91961  11.314   6.891  10.597 -1.2691  0.8295  0.4011
  667MOL0     C91962  11.178   6.858  10.609 -0.1608 -0.7714  0.1106
  667MOL0     C91963  10.733   6.886  10.515  0.2707  0.4260 -0.9838
  667MOL0     C91964  10.657   6.889  10.636  0.0255  0.4343 -0.3152
  667MOL0     C91965  10.527   6.836  10.642 -0.8835  0.0534  0.6740
  667MOL0     C91966  10.469   6.777  10.537 -0.1212  0.2913  0.5005
  667MOL0     O91967  10.331   6.749  10.541 -0.5223 -0.1313 -0.0512
  667MOL0     C91968  10.272   6.698  10.424  0.1834  0.3675  0.1335
  667MOL0     C91969  10.133   6.659  10.453  0.7618 -0.0789 -0.6004
  667MOL0     C91970  10.043   6.634  10.328  0.4183 -0.4371 -1.3778
  667MOL0     C91971   9.921   6.553  10.358  0.6033 -0.3524  0.1680
  667MOL0     C91972   9.942   6.413  10.399 -0.7214 -1.5291  0.2928
  667MOL0     C91973   9.949   6.297  10.426 -0.1340  0.3661 -0.1187
  667MOL0     C91974  10.546   6.770  10.416  0.0420 -0.3218 -0.1275
  667MOL0     C91975  10.669   6.825  10.403 -0.1842  0.6016 -0.5106
  667MOL0     C91976  10.733   6.810  10.274 -0.5274  0.2136  0.2458
  667MOL0     H91977  11.049   7.164  10.612 -0.5725 -0.9373  2.8452
  667MOL0     H91978  11.298   7.221  10.583  1.2655 -0.7133 -3.4565
  667MOL0     H91979  11.616   6.985  10.442  3.2500  0.1793  0.8606
  667MOL0     H91980  11.573   6.859  10.555 -1.6921 -0.0938  2.4069
  667MOL0     H91981  11.720   6.972  10.719 -3.3526  0.8328 -0.7075
  667MOL0     H91982  11.801   6.916  10.564  0.7650 -0.0302  0.5437
  667MOL0     H91983  11.803   7.143  10.478  1.7829 -0.3404 -0.2685
  667MOL0     H91984  11.719   7.199  10.615 -0.3143 -1.0245 -0.9957
  667MOL0     H91985  11.885   7.180  10.764 -0.0332  2.1440 -1.0484
  667MOL0     H91986  11.981   7.069  10.676  0.6923  0.8511  0.2044
  667MOL0     H91987  12.039   7.265  10.506  0.3772  1.0710 -0.0982
  667MOL0     H91988  12.094   7.297  10.657  0.9621 -1.9215 -2.2903
  667MOL0     H91989  11.996   7.500  10.552 -0.3247  2.1573  0.8737
  667MOL0     H91990  11.842   7.427  10.537  0.4464  0.3648 -0.6661
  667MOL0     H91991  11.820   7.406  10.781 -0.1788  0.2904  1.1853
  667MOL0     H91992  11.843   7.569  10.732  0.3001  1.2553 -1.8898
  667MOL0     H91993  11.951   7.534  10.932 -1.9014  1.5245 -1.5315
  667MOL0     H91994  12.060   7.414  10.854 -0.3614  0.0037  0.7455
  667MOL0     H91995  11.987   7.791  10.862 -0.7242  0.3588 -0.4139
  667MOL0     H91996  12.146   8.007  10.794  1.7253 -0.1435  0.8373
  667MOL0     H91997  12.168   7.985  10.619 -2.6270 -1.2382  0.3695
  667MOL0     H91998  12.367   7.988  10.845 -1.6731  1.0121  1.1777
  667MOL0     H91999  12.410   7.926  10.696 -0.3723  0.5025  0.5606
  667MOL0     H92000  12.296   8.170  10.599 -1.0497 -0.7800  0.8264
  667MOL0     H92001  12.328   8.209  10.777 -0.4247 -3.6053  2.7448
  667MOL0     H92002  12.502   8.134  10.537 -1.4446  0.4783 -0.6534
  667MOL0     H92003  12.499   8.281  10.614  0.6557 -0.3787  2.4336
  667MOL0     H92004  12.710   8.139  10.473 -0.4662  1.4649  0.8560
  667MOL0     H92005  12.866   8.130  10.317 -1.9787 -1.8562  1.7867
  667MOL0     H92006  12.976   8.002  10.347  0.8821 -0.4552  1.3541
  667MOL0     H92007  13.032   8.161  10.372 -0.9928  1.3109 -0.3857
  667MOL0     H92008  13.351   8.324  10.664  2.8346  1.8069 -0.0117
  667MOL0     H92009  13.592   8.312  10.633  0.2659 -2.1302 -1.1543
  667MOL0     H92010  13.936   8.196  10.700 -1.5287 -3.0459  0.6952
  667MOL0     H92011  13.810   8.227  10.577  0.3965 -3.3278 -0.5934
  667MOL0     H92012  13.728   8.420  10.726 -0.8565  0.0038  3.1120
  667MOL0     H92013  13.802   8.356  10.863  1.8069  1.4936 -0.0539
  667MOL0     H92014  14.021   8.413  10.761 -0.9209 -1.2357 -0.7170
  667MOL0     H92015  13.919   8.549  10.800 -1.0036 -0.9694  1.4512
  667MOL0     H92016  13.851   8.540  10.544 -0.0571  0.0065  1.2225
  667MOL0     H92017  13.988   8.425  10.523  3.1239  0.7288  0.1959
  667MOL0     H92018  14.042   8.694  10.636 -0.3574  0.8803 -0.0443
  667MOL0     H92019  14.152   8.558  10.599 -1.6463 -0.9349  3.8360
  667MOL0     H92020  14.008   8.727  10.385  0.4486 -0.1000 -2.5570
  667MOL0     H92021  14.078   8.570  10.355 -0.4524  0.4729  0.6427
  667MOL0     H92022  14.261   8.730  10.327 -0.5382  2.2587  0.0820
  667MOL0     H92023  14.297   8.641  10.468 -0.3046  0.9029  1.3874
  667MOL0     H92024  14.247   8.821  10.615 -1.0592  0.1133 -0.3453
  667MOL0     H92025  14.128   8.893  10.503 -0.0174  0.4494 -1.5760
  667MOL0     H92026  13.599   7.966  10.895  0.3471 -2.3022 -2.4182
  667MOL0     H92027  13.361   7.956  10.885 -1.0468  2.4814  3.3753
  667MOL0     H92028  12.976   8.071  10.874 -2.1715  0.8374  0.9977
  667MOL0     H92029  12.762   8.101  10.899  0.2524  1.0557  0.3035
  667MOL0     H92030  11.387   6.812  10.612 -1.3120  0.7146  0.0174
  667MOL0     H92031  11.127   6.762  10.608 -2.1762  0.2368 -1.4921
  667MOL0     H92032  10.699   6.938  10.724 -2.1154  2.6642 -0.4456
  667MOL0     H92033  10.474   6.850  10.736  0.2765  2.9256  1.0141
  667MOL0     H92034  10.272   6.777  10.349 -2.3506  0.7644  0.4644
  667MOL0     H92035  10.328   6.609  10.394  0.5753  0.4512  0.5910
  667MOL0     H92036  10.084   6.738  10.509 -0.6111  0.0895 -1.9741
  667MOL0     H92037  10.135   6.569  10.515 -0.9234 -1.4012 -2.3266
  667MOL0     H92038  10.026   6.728  10.275  2.1528  0.0051 -1.1843
  667MOL0     H92039  10.109   6.579  10.260  2.6205  1.9508 -1.3133
  667MOL0     H92040   9.860   6.543  10.268  2.0651 -1.2013 -0.7645
  667MOL0     H92041   9.862   6.607  10.433 -0.1392 -0.1715 -0.5267
  667MOL0     H92042   9.958   6.192  10.447  1.1668  0.3007 -0.8902
  667MOL0     H92043  10.506   6.729  10.324  1.4305 -0.5650 -0.6560
  667MOL0     H92044  10.726   6.713  10.224  1.4557  1.5722 -3.0210
  667MOL0     H92045  10.677   6.875  10.206 -1.7507 -3.0335 -2.1098
  667MOL0     H92046  10.838   6.839  10.264 -0.8443  1.8214  1.1803
  668MOL0     O92047   5.481   6.663   4.367  0.1329 -0.6835  0.3450
  668MOL0     C92048   5.513   6.647   4.248  0.7669 -0.3101  0.4790
  668MOL0     O92049   5.633   6.632   4.202  0.9330 -0.3330 -0.2140
  668MOL0     C92050   5.745   6.664   4.281  0.1070  0.7548  0.2964
  668MOL0     C92051   5.852   6.689   4.200  0.1508  0.1967  0.4351
  668MOL0     C92052   5.979   6.696   4.261  0.9523  0.4414  0.2923
  668MOL0     C92053   5.999   6.695   4.400 -0.6606  0.1838  0.4187
  668MOL0     O92054   6.131   6.680   4.428  0.3597 -0.3431 -0.3576
  668MOL0     C92055   6.172   6.679   4.567 -0.0154 -0.4771 -0.0542
  668MOL0     C92056   6.320   6.706   4.570  0.7301  0.0850  0.2618
  668MOL0     C92057   6.370   6.846   4.536 -0.6757  0.4947  0.0532
  668MOL0     C92058   6.516   6.848   4.471  0.3314  0.2904 -0.1314
  668MOL0     C92059   6.544   6.982   4.412  0.0754 -0.3180 -0.6067
  668MOL0     C92060   6.672   6.992   4.337 -0.3938 -0.3017  0.7757
  668MOL0     C92061   6.680   7.125   4.274  0.0564 -1.0045 -0.4757
  668MOL0     C92062   6.806   7.136   4.201  0.4896 -0.1050  0.0864
  668MOL0     N92063   6.928   7.157   4.279 -0.4140 -0.6742 -0.0815
  668MOL0     C92064   7.006   7.062   4.340 -1.2205 -0.2548 -1.2617
  668MOL0     C92065   7.118   7.130   4.380 -0.4659  0.6460 -0.4210
  668MOL0     C92066   7.236   7.068   4.455  0.2878 -0.7942  0.3190
  668MOL0     C92067   7.356   7.115   4.372  0.1890  0.1106  0.5585
  668MOL0     C92068   7.485   7.047   4.433  0.6250 -0.2883 -0.0366
  668MOL0     C92069   7.624   7.082   4.370  0.3727 -0.7722 -0.4206
  668MOL0     O92070   7.644   7.021   4.238 -0.1712 -0.2037  0.1547
  668MOL0     C92071   7.773   7.022   4.191  0.9979 -0.2473 -0.5540
  668MOL0     C92072   7.875   7.110   4.238  0.1156  0.0442  0.1962
  668MOL0     C92073   7.994   7.119   4.171  0.2755  1.0665 -0.2068
  668MOL0     C92074   8.095   7.212   4.223 -0.0684 -0.0397  0.3898
  668MOL0     C92075   8.019   7.041   4.052  0.2478 -0.5074  0.3830
  668MOL0     C92076   8.150   7.033   3.980  0.9714 -0.0927  0.4086
  668MOL0     O92077   8.266   7.042   4.046 -0.1363 -0.2664  0.6529
  668MOL0     C92078   8.373   7.070   3.966 -0.1160 -0.2758  0.6061
  668MOL0     C92079   8.451   6.977   3.910  0.2454  0.6412  0.0536
  668MOL0     C92080   8.554   7.014   3.826 -0.2041  0.0332  0.2620
  668MOL0     C92081   8.580   7.143   3.791 -0.3226  0.2395  0.1947
  668MOL0     O92082   8.668   7.186   3.693 -0.1699 -0.0504  0.1816
  668MOL0     C92083   8.782   7.107   3.656 -0.4356 -0.1602  0.4603
  668MOL0     C92084   8.879   7.194   3.575 -0.1559 -0.2575 -0.2437
  668MOL0     C92085   8.943   7.299   3.662  0.1750  0.0708  0.2521
  668MOL0     C92086   9.043   7.243   3.765 -0.1087 -0.1219  0.5126
  668MOL0     C92087   9.080   7.357   3.859  0.2791 -0.1067 -0.2050
  668MOL0     C92088   9.178   7.309   3.967 -0.5171 -0.6942 -0.3219
  668MOL0     C92089   9.223   7.423   4.068  0.1733 -0.2737  0.2702
  668MOL0     C92090   9.320   7.381   4.178  0.0294  0.0667  0.7554
  668MOL0    Cl92091   9.479   7.322   4.110 -0.2785  0.1593 -0.3504
  668MOL0     C92092   8.503   7.241   3.848  0.3890  0.4622 -0.2710
  668MOL0     C92093   8.397   7.207   3.937  0.4945 -0.1800  0.4096
  668MOL0     O92094   8.137   7.023   3.856  0.4223 -0.4841  1.0441
  668MOL0     C92095   7.910   6.955   4.008  0.0052 -0.0319  0.0628
  668MOL0     C92096   7.792   6.947   4.081  0.5075  0.5180  0.6963
  668MOL0     N92097   7.096   7.263   4.346 -0.3000  0.2805 -0.6772
  668MOL0     N92098   6.984   7.277   4.297 -0.0004  0.2201  0.0282
  668MOL0     C92099   5.891   6.679   4.477  0.7136 -1.0772  0.1163
  668MOL0     C92100   5.760   6.668   4.423  0.3229 -0.0428  0.0074
  668MOL0     C92101   5.407   6.627   4.151 -1.1724 -1.2115  0.2535
  668MOL0     C92102   5.291   6.554   4.187  0.0260  1.0329  0.3968
  668MOL0     C92103   5.195   6.524   4.092 -0.4891 -0.4395 -1.2718
  668MOL0     C92104   5.214   6.562   3.956  0.1931 -1.0563  0.1360
  668MOL0     O92105   5.116   6.545   3.857 -0.1699 -0.8383 -0.3178
  668MOL0     C92106   5.161   6.480   3.739  0.1458  0.0457  0.8033
  668MOL0     C92107   5.054   6.392   3.672  0.0196 -0.0230 -0.5648
  668MOL0     C92108   5.016   6.269   3.754 -0.4296  0.2129 -0.0161
  668MOL0     C92109   4.890   6.208   3.694 -0.2873 -0.6428 -0.1441
  668MOL0     C92110   4.916   6.135   3.571  0.2374  0.4517 -0.0932
  668MOL0     C92111   4.931   6.083   3.464  0.0112 -0.1176  0.0123
  668MOL0     C92112   5.329   6.634   3.925  0.2830 -0.6394  0.7434
  668MOL0     C92113   5.428   6.665   4.016 -0.4549  0.1845  0.6382
  668MOL0     C92114   5.540   6.757   3.956 -0.1813 -0.0278 -0.2831
  668MOL0     H92115   5.841   6.711   4.095  1.4477 -0.1980  0.1988
  668MOL0     H92116   6.067   6.715   4.200 -1.5460  0.6194 -3.5697
  668MOL0     H92117   6.154   6.579   4.608 -0.9750 -0.7522 -1.1049
  668MOL0     H92118   6.108   6.745   4.627  0.4796  0.8728 -0.9612
  668MOL0     H92119   6.357   6.688   4.671 -4.9821  1.0130  2.8964
  668MOL0     H92120   6.355   6.635   4.494 -2.7038 -3.2161  1.4453
  668MOL0     H92121   6.303   6.889   4.461 -0.5476  0.9783  0.2119
  668MOL0     H92122   6.362   6.901   4.630 -1.8486 -0.8664  0.7879
  668MOL0     H92123   6.584   6.813   4.549  0.2297 -1.0615 -0.6250
  668MOL0     H92124   6.525   6.782   4.384  0.7141  1.7886 -1.2673
  668MOL0     H92125   6.554   7.051   4.496  1.8950  0.7920 -1.6728
  668MOL0     H92126   6.464   7.018   4.347 -0.4858 -1.7552 -0.7578
  668MOL0     H92127   6.753   6.974   4.408  0.3750  0.6958  0.1712
  668MOL0     H92128   6.670   6.910   4.264 -1.3908  0.3437  0.0624
  668MOL0     H92129   6.671   7.206   4.347  0.8684 -1.3959  0.0702
  668MOL0     H92130   6.599   7.137   4.201 -2.3220 -3.1907  1.5915
  668MOL0     H92131   6.815   7.045   4.141 -0.5464 -2.0101  2.6191
  668MOL0     H92132   6.798   7.225   4.138  1.1319 -0.8417 -1.0757
  668MOL0     H92133   6.985   6.956   4.354 -1.6329 -0.0568 -0.2366
  668MOL0     H92134   7.234   6.959   4.461 -0.6041 -0.6939  2.6017
  668MOL0     H92135   7.237   7.111   4.555 -2.0658 -1.4487  0.6951
  668MOL0     H92136   7.343   7.073   4.271  0.5656 -0.2474  0.6572
  668MOL0     H92137   7.365   7.224   4.369  0.0061  0.1982  2.3229
  668MOL0     H92138   7.483   7.085   4.535 -2.3476  1.5785 -0.6584
  668MOL0     H92139   7.464   6.940   4.428 -0.2368 -0.0691 -2.6177
  668MOL0     H92140   7.628   7.191   4.357 -0.3593 -0.8444 -1.3263
  668MOL0     H92141   7.705   7.067   4.442 -0.5962  0.8963  1.0958
  668MOL0     H92142   7.862   7.167   4.330 -0.9242 -0.6761  0.5152
  668MOL0     H92143   8.130   7.267   4.135 -0.6750  1.7021  1.2038
  668MOL0     H92144   8.181   7.157   4.261 -0.8512 -2.9646 -1.7163
  668MOL0     H92145   8.062   7.272   4.308 -0.3260  0.3976 -0.0121
  668MOL0     H92146   8.423   6.873   3.922  0.7353  0.5189  0.1933
  668MOL0     H92147   8.614   6.935   3.782 -1.3136 -0.9208  0.4307
  668MOL0     H92148   8.842   7.063   3.736 -1.2371 -1.2960  0.4472
  668MOL0     H92149   8.750   7.024   3.593 -0.5332 -1.6778  2.4079
  668MOL0     H92150   8.956   7.128   3.533  0.8233  0.1874  0.7943
  668MOL0     H92151   8.823   7.241   3.494  0.5586  2.1500  0.5856
  668MOL0     H92152   8.860   7.348   3.714 -0.1502  2.9897 -2.6704
  668MOL0     H92153   8.989   7.369   3.591 -0.8854 -0.0694 -0.6014
  668MOL0     H92154   9.122   7.180   3.724 -2.8680 -2.1805 -2.0756
  668MOL0     H92155   8.987   7.171   3.824 -1.8949 -1.3058 -2.4143
  668MOL0     H92156   9.129   7.438   3.804 -0.4245 -0.9692 -2.2008
  668MOL0     H92157   8.989   7.403   3.899  1.7324  1.0936  1.9476
  668MOL0     H92158   9.270   7.263   3.931 -0.3358 -2.0992  1.7893
  668MOL0     H92159   9.132   7.240   4.038  1.9699  0.5644  2.7794
  668MOL0     H92160   9.138   7.455   4.128  0.8104 -0.4994  1.3097
  668MOL0     H92161   9.273   7.502   4.011  0.2594  0.2931  1.1301
  668MOL0     H92162   9.274   7.308   4.244  0.4684 -1.6249 -0.7221
  668MOL0     H92163   9.338   7.479   4.223 -2.7072  1.5844 -1.1719
  668MOL0     H92164   8.508   7.341   3.806  2.0585 -0.1442 -1.5963
  668MOL0     H92165   8.324   7.276   3.976  0.9415  0.1725  0.6315
  668MOL0     H92166   7.915   6.889   3.922  0.1087  0.2700 -0.1694
  668MOL0     H92167   7.716   6.887   4.031  1.8435 -0.5401 -0.1341
  668MOL0     H92168   5.899   6.684   4.585  0.1049  0.3995  0.1204
  668MOL0     H92169   5.673   6.649   4.486  0.0926  1.4886  0.1730
  668MOL0     H92170   5.270   6.521   4.288 -0.0202 -1.6684 -0.4099
  668MOL0     H92171   5.104   6.475   4.125 -0.1971 -0.2503 -0.1455
  668MOL0     H92172   5.181   6.566   3.674  0.7601  1.5561  2.8566
  668MOL0     H92173   5.249   6.416   3.748  0.4800  0.3233 -0.3328
  668MOL0     H92174   5.091   6.353   3.576  1.2838 -0.2519 -0.0126
  668MOL0     H92175   4.970   6.461   3.657  0.3787  1.0337  1.7794
  668MOL0     H92176   5.098   6.198   3.762  0.7890  1.7930  3.1030
  668MOL0     H92177   4.984   6.314   3.848  2.9421  1.0555  0.8585
  668MOL0     H92178   4.806   6.275   3.674 -0.2025 -1.0110 -1.9676
  668MOL0     H92179   4.852   6.135   3.765  1.4374  0.5675  2.1532
  668MOL0     H92180   4.950   6.019   3.380  0.1410  2.3525 -1.9549
  668MOL0     H92181   5.333   6.674   3.824  1.1042  1.1960  1.4662
  668MOL0     H92182   5.505   6.808   3.866 -1.4158  1.7486  1.1195
  668MOL0     H92183   5.553   6.840   4.026 -2.8914  0.2702 -0.0129
  668MOL0     H92184   5.636   6.707   3.940  0.3941  0.2418  1.9897
  669MOL0     O92185   4.265   8.427   7.249 -0.8502  0.4366  0.2798
  669MOL0     C92186   4.337   8.424   7.150 -0.4675 -0.0209 -0.4510
  669MOL0     O92187   4.358   8.533   7.066 -0.3112 -0.3543 -0.1563
  669MOL0     C92188   4.308   8.658   7.077  0.7831  0.3345  0.5114
  669MOL0     C92189   4.364   8.761   7.005 -0.4317  0.9289  0.5199
  669MOL0     C92190   4.306   8.889   7.008 -0.0953  0.2693 -0.5057
  669MOL0     C92191   4.187   8.919   7.079  0.2581 -0.1652  0.2697
  669MOL0     O92192   4.140   9.048   7.065  0.1007 -0.6698  0.0640
  669MOL0     C92193   4.050   9.102   7.161 -0.1131 -0.6252  0.7394
  669MOL0     C92194   4.042   9.258   7.137  0.1826 -0.9309 -0.3902
  669MOL0     C92195   4.168   9.323   7.180 -0.1674 -0.1494  0.5598
  669MOL0     C92196   4.140   9.482   7.182  0.4711 -0.1851 -0.5021
  669MOL0     C92197   4.277   9.551   7.161 -0.0967 -0.4510 -0.2616
  669MOL0     C92198   4.372   9.515   7.277  0.0442  0.4623 -0.4640
  669MOL0     C92199   4.502   9.585   7.273 -0.8707 -0.6705 -0.2251
  669MOL0     C92200   4.577   9.581   7.412 -0.4600 -0.2376 -0.4729
  669MOL0     N92201   4.707   9.658   7.423  0.8258 -0.4246 -0.3285
  669MOL0     C92202   4.721   9.795   7.434  0.5794  0.7873 -0.5053
  669MOL0     C92203   4.853   9.812   7.434  0.3105  0.1422 -0.2243
  669MOL0     C92204   4.929   9.937   7.421  0.0715 -0.1957 -0.4241
  669MOL0     C92205   4.900  10.036   7.541 -0.1596 -0.0364 -0.8058
  669MOL0     C92206   4.911   9.968   7.677  0.4206  0.5365  0.4494
  669MOL0     C92207   5.047   9.901   7.693 -0.3465  0.2497  0.1581
  669MOL0     O92208   5.162   9.984   7.683 -0.6028 -0.2786 -0.2216
  669MOL0     C92209   5.197  10.069   7.784  0.6463  0.2310 -0.1621
  669MOL0     C92210   5.298  10.163   7.751 -0.0608  0.7867 -0.2245
  669MOL0     C92211   5.345  10.254   7.849  0.4964 -0.0129  0.3997
  669MOL0     C92212   5.458  10.341   7.798 -0.2900  0.9365  0.1983
  669MOL0     C92213   5.291  10.249   7.981 -0.1577  0.1842 -0.7925
  669MOL0     C92214   5.348  10.339   8.090 -1.2377  0.1106 -0.3746
  669MOL0     O92215   5.273  10.340   8.202  0.8247 -0.3043 -0.9582
  669MOL0     C92216   5.302  10.402   8.317 -0.2822  0.2758  0.0059
  669MOL0     C92217   5.250  10.527   8.331 -0.1116  0.4848 -0.1412
  669MOL0     C92218   5.283  10.586   8.454  0.0001  0.4457 -0.6640
  669MOL0     C92219   5.370  10.540   8.548 -0.2657  0.1089 -0.0791
  669MOL0     O92220   5.394  10.622   8.658 -0.0334 -0.1811  0.4573
  669MOL0     C92221   5.516  10.598   8.731 -0.5332  0.1905 -0.6833
  669MOL0     C92222   5.543  10.697   8.850 -0.5218 -0.6659  0.2451
  669MOL0     C92223   5.573  10.836   8.799  0.5225  0.3132 -0.1712
  669MOL0     C92224   5.569  10.943   8.907  0.0463  0.3210 -0.2881
  669MOL0     C92225   5.666  11.067   8.889 -0.4838 -0.0078  0.5631
  669MOL0     C92226   5.623  11.188   8.967  0.2407  0.5734  0.0041
  669MOL0     C92227   5.527  11.288   8.882 -0.0856  0.1889 -0.6426
  669MOL0     C92228   5.570  11.436   8.885  0.1846  0.0366  0.5030
  669MOL0    Cl92229   5.565  11.494   9.053  0.0944  0.1527  0.2596
  669MOL0     C92230   5.430  10.413   8.522 -0.2328 -1.0583  0.3947
  669MOL0     C92231   5.389  10.335   8.414 -0.3030 -0.2241 -0.6239
  669MOL0     O92232   5.454  10.411   8.082 -0.1190  0.3159  0.5857
  669MOL0     C92233   5.190  10.163   8.010  0.1158  0.7009  0.9130
  669MOL0     C92234   5.139  10.071   7.917 -0.3691  0.3105 -0.9717
  669MOL0     N92235   4.917   9.691   7.422  0.0949  0.0194  0.0069
  669MOL0     N92236   4.830   9.601   7.421 -0.3073 -0.6355 -0.3838
  669MOL0     C92237   4.136   8.814   7.160  0.1436 -0.1718 -0.4693
  669MOL0     C92238   4.193   8.684   7.154  0.1632  0.1394  0.8432
  669MOL0     C92239   4.406   8.294   7.112 -0.6295 -0.2382 -0.2665
  669MOL0     C92240   4.354   8.170   7.173 -0.3722 -0.5508  0.0941
  669MOL0     C92241   4.405   8.053   7.112  0.0167  0.3167  0.3500
  669MOL0     C92242   4.511   8.040   7.029 -0.3547 -0.8575  0.6528
  669MOL0     O92243   4.553   7.915   6.997 -0.0209 -0.4905 -0.1249
  669MOL0     C92244   4.591   7.898   6.855  0.3492  1.0474  0.0718
  669MOL0     C92245   4.610   7.751   6.816 -0.2946 -0.3060  0.3474
  669MOL0     C92246   4.698   7.678   6.920  0.0648  0.0941 -1.0269
  669MOL0     C92247   4.729   7.530   6.866  0.0496  0.0135 -0.3614
  669MOL0     C92248   4.843   7.519   6.774  0.2567 -0.4404 -0.3031
  669MOL0     C92249   4.940   7.522   6.702 -0.0423  0.3467 -0.4066
  669MOL0     C92250   4.571   8.160   6.988 -0.4994 -1.2249  0.0589
  669MOL0     C92251   4.521   8.284   7.025  0.4873 -0.5689 -0.2615
  669MOL0     C92252   4.598   8.403   6.971  0.8328  0.7173  0.1123
  669MOL0     H92253   4.452   8.752   6.943 -1.0309 -1.2487 -0.0645
  669MOL0     H92254   4.350   8.970   6.951 -0.9228  1.0935 -0.0012
  669MOL0     H92255   4.079   9.083   7.265 -0.0532  0.1288  0.8685
  669MOL0     H92256   3.950   9.059   7.153  0.8333 -2.6811 -1.0226
  669MOL0     H92257   4.020   9.283   7.033 -3.2985  1.0427  0.6583
  669MOL0     H92258   3.952   9.295   7.187 -0.4999 -0.8336 -1.6750
  669MOL0     H92259   4.202   9.298   7.281  0.7983 -1.2943 -0.0263
  669MOL0     H92260   4.249   9.302   7.110 -0.1771 -0.6627  0.6982
  669MOL0     H92261   4.073   9.513   7.102 -1.1711 -0.1734  0.8287
  669MOL0     H92262   4.090   9.504   7.277 -0.8682 -1.2532 -0.9387
  669MOL0     H92263   4.254   9.658   7.162  2.4388  0.2348  3.0622
  669MOL0     H92264   4.321   9.534   7.063 -0.5307  0.8090 -0.6995
  669MOL0     H92265   4.326   9.522   7.376 -1.1051  0.9037 -1.0222
  669MOL0     H92266   4.398   9.409   7.271  1.8521  0.8268  0.2694
  669MOL0     H92267   4.490   9.691   7.248 -0.4130 -0.8415 -1.1964
  669MOL0     H92268   4.564   9.544   7.193 -0.4184  0.0632 -0.2666
  669MOL0     H92269   4.510   9.623   7.487  1.3092 -0.9516  1.6157
  669MOL0     H92270   4.602   9.480   7.448  2.0849 -0.3256 -2.1667
  669MOL0     H92271   4.639   9.866   7.427  0.2010  0.2186 -2.1729
  669MOL0     H92272   4.901   9.987   7.327 -0.2669 -1.5752 -1.0764
  669MOL0     H92273   5.036   9.920   7.426 -0.1875 -1.8375  0.0252
  669MOL0     H92274   4.962  10.125   7.545  0.9074 -0.8272  0.7746
  669MOL0     H92275   4.796  10.069   7.531  0.2343  1.9807  1.0596
  669MOL0     H92276   4.888  10.040   7.756  1.2535  2.2393 -0.7831
  669MOL0     H92277   4.842   9.884   7.684 -0.2888  1.0681  0.0721
  669MOL0     H92278   5.046   9.853   7.791 -0.5431 -1.9906 -0.8850
  669MOL0     H92279   5.062   9.824   7.618 -1.1214  1.1188 -0.9311
  669MOL0     H92280   5.338  10.167   7.650  1.3865  2.5573  0.3722
  669MOL0     H92281   5.540  10.309   7.863 -1.9543  0.0003  1.9317
  669MOL0     H92282   5.446  10.448   7.821  1.2670  2.3264 -4.3033
  669MOL0     H92283   5.484  10.333   7.692 -2.5700 -1.8627 -0.2854
  669MOL0     H92284   5.176  10.571   8.265 -0.0865  0.4114 -0.2177
  669MOL0     H92285   5.232  10.678   8.482  3.3176  1.5950  2.4755
  669MOL0     H92286   5.510  10.494   8.764 -4.6718  0.4755 -0.0293
  669MOL0     H92287   5.603  10.611   8.666  1.4509  0.6107  1.8799
  669MOL0     H92288   5.462  10.708   8.923 -1.7212  3.8097 -1.4477
  669MOL0     H92289   5.630  10.656   8.903 -2.2958 -2.8584  1.6728
  669MOL0     H92290   5.504  10.883   8.729 -0.2889  0.5695  0.7742
  669MOL0     H92291   5.672  10.835   8.753  0.3212 -1.0097 -0.6084
  669MOL0     H92292   5.598  10.887   8.997  1.9211  0.5133 -0.7396
  669MOL0     H92293   5.466  10.978   8.920  0.7305  1.3322  3.4701
  669MOL0     H92294   5.761  11.027   8.926 -0.0195 -1.0702 -1.5891
  669MOL0     H92295   5.679  11.097   8.785 -1.3941 -1.4075  0.0013
  669MOL0     H92296   5.713  11.248   8.982 -0.7791  2.8361 -2.1412
  669MOL0     H92297   5.581  11.156   9.063  0.8721 -0.5295 -0.0766
  669MOL0     H92298   5.431  11.279   8.934  1.0493  1.8066  1.9559
  669MOL0     H92299   5.515  11.262   8.777 -1.9365  0.4527 -0.5212
  669MOL0     H92300   5.499  11.500   8.831 -0.3305 -0.4014  0.6545
  669MOL0     H92301   5.671  11.443   8.843 -0.6159  2.6039 -1.2406
  669MOL0     H92302   5.506  10.363   8.581  0.6957 -0.7942 -0.5433
  669MOL0     H92303   5.441  10.241   8.405  1.5472  0.1043  4.0062
  669MOL0     H92304   5.146  10.144   8.108  1.4923  2.1762  1.8584
  669MOL0     H92305   5.065  10.001   7.955  0.2775  0.3900  0.5356
  669MOL0     H92306   4.048   8.830   7.221 -1.0041 -1.7570 -1.6185
  669MOL0     H92307   4.142   8.606   7.209  2.1642 -1.2528  0.8559
  669MOL0     H92308   4.268   8.160   7.238 -0.0837 -1.9988  0.2866
  669MOL0     H92309   4.363   7.961   7.152  0.6787 -0.4535 -0.6592
  669MOL0     H92310   4.507   7.938   6.798 -1.9836 -3.2605  0.0727
  669MOL0     H92311   4.687   7.946   6.832  0.2813  0.9153 -0.4877
  669MOL0     H92312   4.663   7.736   6.722  0.1627  1.2844  0.3375
  669MOL0     H92313   4.509   7.709   6.805 -0.2434 -0.7222  1.3024
  669MOL0     H92314   4.787   7.735   6.949 -0.1139 -0.2077  0.1529
  669MOL0     H92315   4.635   7.671   7.009  1.3841 -1.5639 -0.1802
  669MOL0     H92316   4.635   7.500   6.819 -0.5703 -1.3126  1.5790
  669MOL0     H92317   4.742   7.476   6.961  1.8728 -0.6573 -0.9623
  669MOL0     H92318   5.019   7.517   6.629 -0.3150 -0.2446 -0.6645
  669MOL0     H92319   4.661   8.147   6.929 -0.4838 -1.0089  0.0335
  669MOL0     H92320   4.680   8.378   6.903  2.1134  0.5371  1.6691
  669MOL0     H92321   4.525   8.457   6.909 -0.4654  0.1584  1.0975
  669MOL0     H92322   4.644   8.462   7.050 -1.9548 -1.3851  3.6408
  670MOL0     O92323   6.829   4.276   1.525 -0.9231 -0.0944  0.3014
  670MOL0     C92324   6.855   4.158   1.560 -1.2686  0.7899  0.3214
  670MOL0     O92325   6.924   4.123   1.680  0.2304  0.8602  0.4694
  670MOL0     C92326   6.911   4.218   1.771 -0.4987 -0.1378 -0.4503
  670MOL0     C92327   6.814   4.214   1.866  0.2292  0.2711 -0.1812
  670MOL0     C92328   6.800   4.305   1.972  0.1270  0.9005  0.1913
  670MOL0     C92329   6.891   4.409   1.971  0.1830 -0.4134 -0.0696
  670MOL0     O92330   6.883   4.521   2.060 -0.4612 -0.4260  0.9740
  670MOL0     C92331   6.766   4.555   2.136  0.6715 -0.3280 -0.0202
  670MOL0     C92332   6.782   4.690   2.207 -0.0116  0.6003 -0.5571
  670MOL0     C92333   6.882   4.677   2.326 -0.2664 -0.0919 -0.2678
  670MOL0     C92334   6.908   4.815   2.388 -0.4667  0.1695 -0.3381
  670MOL0     C92335   6.989   4.807   2.515 -0.2983 -0.4471  0.0307
  670MOL0     C92336   6.998   4.938   2.588 -0.0749  0.4841 -0.9325
  670MOL0     C92337   7.062   5.053   2.517 -0.0345  0.0118 -0.5696
  670MOL0     C92338   7.130   5.157   2.609  0.3580 -0.5406  0.5350
  670MOL0     N92339   7.026   5.210   2.697  0.1200 -0.4485 -0.2750
  670MOL0     C92340   6.926   5.303   2.668 -1.2032 -0.2996  0.4679
  670MOL0     C92341   6.856   5.328   2.778  0.6246 -0.0280  0.5402
  670MOL0     C92342   6.756   5.440   2.795  0.0599 -0.1008 -0.7456
  670MOL0     C92343   6.629   5.414   2.728  1.2375  0.5801  0.7970
  670MOL0     C92344   6.543   5.541   2.741 -0.3727 -0.1997 -0.2396
  670MOL0     C92345   6.404   5.523   2.689  0.0904  0.3325  0.2526
  670MOL0     O92346   6.407   5.481   2.557 -0.3444  0.1710  0.0557
  670MOL0     C92347   6.289   5.449   2.487 -0.4787 -0.0833 -0.1449
  670MOL0     C92348   6.317   5.403   2.355  0.4413  0.9355  0.7761
  670MOL0     C92349   6.213   5.353   2.269 -1.0276  0.5061  0.2707
  670MOL0     C92350   6.248   5.301   2.130  0.3348 -0.0280  0.2403
  670MOL0     C92351   6.080   5.360   2.312 -0.0127 -0.0057  0.0562
  670MOL0     C92352   5.968   5.336   2.234  0.1630  0.4886 -0.2423
  670MOL0     O92353   5.867   5.279   2.293  0.1491  0.5217 -0.3038
  670MOL0     C92354   5.746   5.290   2.236 -0.0805  0.1868 -0.0117
  670MOL0     C92355   5.669   5.404   2.239  0.2976 -0.3508  0.3031
  670MOL0     C92356   5.541   5.399   2.179  0.0359 -0.6109 -0.1316
  670MOL0     C92357   5.492   5.289   2.106 -0.1205  0.2163 -0.1574
  670MOL0     O92358   5.366   5.267   2.055  0.7002  0.1932 -0.2199
  670MOL0     C92359   5.249   5.276   2.132 -0.9283  0.1142  0.6301
  670MOL0     C92360   5.178   5.408   2.083 -0.0520  0.2629 -0.1181
  670MOL0     C92361   5.101   5.473   2.204 -0.4302 -0.2613  0.3087
  670MOL0     C92362   4.986   5.543   2.138 -0.0759  0.1282 -0.5291
  670MOL0     C92363   4.906   5.626   2.252  0.0209 -0.2707  0.1429
  670MOL0     C92364   4.827   5.738   2.190  0.7579  0.1090 -0.7852
  670MOL0     C92365   4.786   5.853   2.289 -0.0260  0.4186 -0.1737
  670MOL0     C92366   4.686   5.946   2.217 -0.7633 -0.3740  0.1751
  670MOL0    Cl92367   4.516   5.898   2.223 -0.2083  0.3910  0.0172
  670MOL0     C92368   5.571   5.177   2.095 -0.5395  0.5775 -0.4482
  670MOL0     C92369   5.704   5.180   2.155  0.5046  0.0395  0.5873
  670MOL0     O92370   5.964   5.363   2.115 -0.5288  0.1716 -0.0189
  670MOL0     C92371   6.056   5.416   2.441  0.4029  0.6704 -0.6830
  670MOL0     C92372   6.151   5.455   2.533  0.5705 -0.2405  0.2178
  670MOL0     N92373   6.907   5.244   2.880  0.3378  0.3112  0.2137
  670MOL0     N92374   7.015   5.183   2.833  0.3758 -0.6133  1.1535
  670MOL0     C92375   7.002   4.400   1.885 -0.2487  0.0231  0.8734
  670MOL0     C92376   7.010   4.306   1.779  0.9145  0.2541 -0.4844
  670MOL0     C92377   6.826   4.049   1.466  0.2936 -0.0259 -0.0798
  670MOL0     C92378   6.820   3.914   1.525 -0.1444 -0.7952 -0.5012
  670MOL0     C92379   6.801   3.796   1.457  0.4753  0.5845  0.6935
  670MOL0     C92380   6.784   3.804   1.316  0.6429 -0.2848 -0.0820
  670MOL0     O92381   6.773   3.698   1.230  0.0407 -0.7655 -0.2440
  670MOL0     C92382   6.732   3.569   1.271 -0.0755  0.6035  0.2549
  670MOL0     C92383   6.794   3.459   1.177 -0.5988 -0.2983  0.4346
  670MOL0     C92384   6.949   3.468   1.186 -0.8065  0.0251 -0.8708
  670MOL0     C92385   7.010   3.332   1.153  0.3478  0.6898  0.5135
  670MOL0     C92386   6.962   3.270   1.033  0.1139 -0.2825  0.6348
  670MOL0     C92387   6.930   3.227   0.924  0.6257  0.4795  0.6884
  670MOL0     C92388   6.801   3.927   1.254  0.4149 -0.3021  0.9063
  670MOL0     C92389   6.813   4.045   1.326  0.0456  0.4913  0.2686
  670MOL0     C92390   6.842   4.177   1.239 -1.2539  0.3926 -0.4024
  670MOL0     H92391   6.755   4.124   1.857  1.2011 -0.3867 -0.1592
  670MOL0     H92392   6.720   4.279   2.041  0.2683 -1.1373 -0.3650
  670MOL0     H92393   6.734   4.477   2.205  1.4800  0.0602  0.8105
  670MOL0     H92394   6.683   4.577   2.068  0.7801  0.8144  0.1916
  670MOL0     H92395   6.800   4.771   2.136 -2.4558  1.8763  0.1708
  670MOL0     H92396   6.688   4.710   2.259  0.7150  2.2167  0.2016
  670MOL0     H92397   6.860   4.600   2.402 -3.5235 -0.0824 -1.0702
  670MOL0     H92398   6.985   4.648   2.301  1.4706  3.7050  1.5434
  670MOL0     H92399   6.954   4.882   2.315 -2.2179  0.8627 -0.8560
  670MOL0     H92400   6.814   4.860   2.419 -0.4459 -1.1124  1.7609
  670MOL0     H92401   7.088   4.778   2.478 -1.4220 -2.2077 -1.7874
  670MOL0     H92402   6.948   4.734   2.584  0.5231 -1.5933 -0.6624
  670MOL0     H92403   6.898   4.971   2.615  1.0197  2.4575  1.0439
  670MOL0     H92404   7.058   4.906   2.674  0.9446  0.6963 -1.5370
  670MOL0     H92405   6.975   5.092   2.463 -1.1189  0.7018  1.5722
  670MOL0     H92406   7.132   5.012   2.443  0.8401 -2.0311  1.2802
  670MOL0     H92407   7.203   5.096   2.663 -1.9508 -1.6275  2.5991
  670MOL0     H92408   7.172   5.236   2.546 -0.9687 -0.1764  0.0881
  670MOL0     H92409   6.920   5.347   2.569 -0.7960 -0.8456  0.1959
  670MOL0     H92410   6.792   5.532   2.747  0.1169  0.7643  0.8556
  670MOL0     H92411   6.736   5.464   2.900 -0.0993 -0.0755 -0.7825
  670MOL0     H92412   6.630   5.383   2.623 -1.0876 -1.0348  1.1713
  670MOL0     H92413   6.572   5.326   2.761  1.5203  0.2942  0.5318
  670MOL0     H92414   6.530   5.565   2.847 -0.5093 -0.0325 -0.2930
  670MOL0     H92415   6.579   5.625   2.680 -1.9787  0.2347 -0.6415
  670MOL0     H92416   6.357   5.440   2.743  1.0392  0.3073  1.0901
  670MOL0     H92417   6.353   5.616   2.715 -0.8304 -0.3552  0.9959
  670MOL0     H92418   6.423   5.398   2.330 -0.0668 -0.8274 -1.4066
  670MOL0     H92419   6.225   5.194   2.126  1.8955 -0.3641 -2.4552
  670MOL0     H92420   6.356   5.315   2.121  0.7940 -1.3812  2.6981
  670MOL0     H92421   6.206   5.345   2.039  0.5307  1.3020  0.7758
  670MOL0     H92422   5.711   5.486   2.297  1.1397 -0.7175  0.2209
  670MOL0     H92423   5.482   5.488   2.197  2.5209  0.7936  1.6783
  670MOL0     H92424   5.188   5.186   2.126  1.8224 -1.8389  0.0250
  670MOL0     H92425   5.276   5.271   2.238  0.1874 -0.3726  0.3445
  670MOL0     H92426   5.242   5.477   2.027  0.8252 -1.7157 -1.7119
  670MOL0     H92427   5.111   5.368   2.006  0.1883 -1.7574  0.6444
  670MOL0     H92428   5.170   5.535   2.263  1.9591 -2.4361 -0.0091
  670MOL0     H92429   5.060   5.397   2.271 -1.6740 -0.0839 -0.2386
  670MOL0     H92430   4.926   5.460   2.099 -0.3866  0.6708 -1.2228
  670MOL0     H92431   5.014   5.603   2.051 -0.0334  2.8359  1.2329
  670MOL0     H92432   4.831   5.552   2.282 -1.0147  0.8874  0.4794
  670MOL0     H92433   4.971   5.661   2.332 -1.9218  2.2141  0.7379
  670MOL0     H92434   4.732   5.697   2.154 -0.7205 -0.9253  3.6977
  670MOL0     H92435   4.883   5.784   2.108  1.2442 -0.5434 -0.8357
  670MOL0     H92436   4.876   5.904   2.325 -0.5918  0.2816  1.5464
  670MOL0     H92437   4.736   5.817   2.380 -0.2596 -0.0965 -0.5032
  670MOL0     H92438   4.714   5.965   2.113  0.1625 -0.9558  0.3085
  670MOL0     H92439   4.694   6.039   2.274  3.9199  1.2017 -2.5201
  670MOL0     H92440   5.528   5.098   2.035 -0.9571  0.0542  0.5217
  670MOL0     H92441   5.761   5.087   2.152  0.3253 -0.3486  4.1200
  670MOL0     H92442   5.953   5.440   2.467  0.0709 -0.4331 -0.9186
  670MOL0     H92443   6.126   5.499   2.629 -0.1728  1.3791 -0.6580
  670MOL0     H92444   7.082   4.474   1.882  0.3251 -0.6280 -0.8091
  670MOL0     H92445   7.097   4.312   1.714  1.3593  1.8298  0.1978
  670MOL0     H92446   6.835   3.913   1.632  2.1205  1.0021 -0.7169
  670MOL0     H92447   6.801   3.700   1.508 -0.4634  0.1349 -0.1267
  670MOL0     H92448   6.767   3.544   1.371  1.1260  0.5421 -0.1645
  670MOL0     H92449   6.623   3.560   1.264 -0.1659  0.7345  1.3197
  670MOL0     H92450   6.762   3.478   1.074 -1.1320  0.0873  0.6590
  670MOL0     H92451   6.760   3.361   1.210  0.5439 -0.7889  0.1885
  670MOL0     H92452   6.992   3.536   1.113  0.1167  1.3237  0.8180
  670MOL0     H92453   6.983   3.506   1.282 -1.4588 -2.8054  0.6054
  670MOL0     H92454   6.994   3.262   1.236  2.5115 -2.0057 -1.1522
  670MOL0     H92455   7.118   3.346   1.147  0.3604  0.2244 -0.5054
  670MOL0     H92456   6.895   3.197   0.828  0.5451 -0.3577  0.9677
  670MOL0     H92457   6.798   3.932   1.146  0.5156  1.3013  0.9477
  670MOL0     H92458   6.762   4.249   1.254  0.1896  1.7545  1.2674
  670MOL0     H92459   6.932   4.232   1.270 -0.4938 -0.9064 -0.1977
  670MOL0     H92460   6.837   4.162   1.131  0.7100  0.9942 -0.6287
  671MOL0     O92461   8.428   5.149   6.191 -0.3815 -0.2795 -0.1783
  671MOL0     C92462   8.378   5.182   6.084 -0.6345 -0.1794  0.7060
  671MOL0     O92463   8.448   5.242   5.979  0.2626  0.6220 -0.1020
  671MOL0     C92464   8.559   5.316   6.008 -0.2551 -0.3884  0.1274
  671MOL0     C92465   8.536   5.453   6.039 -0.1942 -0.7974  0.0425
  671MOL0     C92466   8.650   5.536   6.058  0.7676  0.4955 -0.6078
  671MOL0     C92467   8.776   5.480   6.051  1.4473  0.2212  0.4354
  671MOL0     O92468   8.889   5.550   6.084  0.0363 -0.8304 -0.4150
  671MOL0     C92469   8.886   5.694   6.118 -0.0594  0.4067 -0.3600
  671MOL0     C92470   9.037   5.744   6.125 -0.5414 -0.0850  0.2308
  671MOL0     C92471   9.122   5.664   6.222 -0.7644 -0.2098 -0.5418
  671MOL0     C92472   9.260   5.728   6.255  0.9383  0.3694 -0.3245
  671MOL0     C92473   9.317   5.681   6.383 -0.3238 -0.1055 -0.1713
  671MOL0     C92474   9.443   5.748   6.432  0.1049  0.1478 -0.0907
  671MOL0     C92475   9.486   5.703   6.569 -0.9518  0.0559  0.3234
  671MOL0     C92476   9.576   5.578   6.569 -0.9733 -0.2630 -0.5473
  671MOL0     N92477   9.716   5.612   6.539  1.2314  0.3979 -1.5407
  671MOL0     C92478   9.796   5.690   6.624  0.8944  0.5904 -0.4571
  671MOL0     C92479   9.891   5.736   6.542  0.2136  0.0416 -0.5836
  671MOL0     C92480  10.008   5.819   6.589  0.5369  0.2623 -0.0280
  671MOL0     C92481  10.097   5.862   6.473  0.7511 -0.2843  0.8066
  671MOL0     C92482  10.209   5.958   6.529 -0.2218  0.2505 -0.4010
  671MOL0     C92483  10.302   6.015   6.418 -0.7682 -0.0549  0.0983
  671MOL0     O92484  10.417   6.082   6.463  0.2438  0.2277 -0.4332
  671MOL0     C92485  10.536   6.015   6.487  0.1849  0.3911  0.1293
  671MOL0     C92486  10.560   5.877   6.483 -0.5667  1.0471 -0.8282
  671MOL0     C92487  10.691   5.830   6.520  0.2541 -0.0113 -0.1843
  671MOL0     C92488  10.700   5.681   6.551 -0.4794  0.0549 -0.0576
  671MOL0     C92489  10.796   5.918   6.532 -0.3998 -0.6666  0.0899
  671MOL0     C92490  10.939   5.877   6.548  0.3760 -0.7000  0.5146
  671MOL0     O92491  11.023   5.953   6.481 -0.4575  0.7789  0.2794
  671MOL0     C92492  11.159   5.961   6.511  0.7367  0.5914  0.2830
  671MOL0     C92493  11.199   5.948   6.642 -0.5799 -1.0202 -0.2056
  671MOL0     C92494  11.335   5.953   6.679 -0.0890  0.3399  0.0863
  671MOL0     C92495  11.428   5.978   6.582 -0.4828 -0.6838  0.3224
  671MOL0     O92496  11.563   5.988   6.628 -0.1975 -0.0674  0.1727
  671MOL0     C92497  11.656   6.077   6.570  0.4118  0.6118 -0.0285
  671MOL0     C92498  11.806   6.026   6.580  0.9379 -0.2444 -0.2453
  671MOL0     C92499  11.856   6.026   6.725 -0.1155  0.6725  0.2820
  671MOL0     C92500  12.008   5.987   6.732 -0.1486  0.2786  0.5581
  671MOL0     C92501  12.060   5.991   6.877 -0.2340 -0.4209 -0.2882
  671MOL0     C92502  12.192   5.912   6.892  0.2924 -0.1938 -0.4029
  671MOL0     C92503  12.231   5.920   7.042  0.7944  0.3941 -0.2070
  671MOL0     C92504  12.368   5.863   7.086  0.0354 -0.0151  0.5211
  671MOL0    Cl92505  12.416   5.736   6.959  0.2239 -0.3645 -0.4282
  671MOL0     C92506  11.390   6.005   6.448  0.2648  0.2424 -0.0168
  671MOL0     C92507  11.248   5.986   6.410 -0.4671 -0.0814  1.3355
  671MOL0     O92508  10.968   5.786   6.633  0.4978 -0.0571  1.0224
  671MOL0     C92509  10.770   6.057   6.519 -0.2507 -0.0412 -0.8824
  671MOL0     C92510  10.638   6.093   6.518  0.6776 -0.3883  0.5313
  671MOL0     N92511   9.869   5.679   6.419 -0.1286 -0.8923 -0.0657
  671MOL0     N92512   9.764   5.606   6.417 -0.5216 -0.5580 -0.0789
  671MOL0     C92513   8.798   5.339   6.024  0.8501  0.7613  0.6658
  671MOL0     C92514   8.683   5.262   5.996  0.2935 -0.6520  1.2952
  671MOL0     C92515   8.246   5.130   6.045 -0.1288 -0.5280 -0.2396
  671MOL0     C92516   8.198   5.142   5.909 -0.4224 -0.6776 -0.1738
  671MOL0     C92517   8.075   5.092   5.874 -0.3240 -0.0496 -1.3901
  671MOL0     C92518   7.982   5.052   5.971  0.4841  0.2600  0.0052
  671MOL0     O92519   7.851   5.020   5.936  1.0610 -0.3077 -0.0131
  671MOL0     C92520   7.806   4.891   5.987 -0.4995  0.2643 -0.4745
  671MOL0     C92521   7.672   4.860   5.927  0.2655 -0.4789  0.1883
  671MOL0     C92522   7.665   4.883   5.778  0.3324 -0.5146  0.2581
  671MOL0     C92523   7.755   4.787   5.694 -0.8008 -0.2193 -0.0662
  671MOL0     C92524   7.735   4.644   5.722 -0.0074 -0.2780 -0.3197
  671MOL0     C92525   7.723   4.533   5.768 -0.5922  0.2040 -0.9495
  671MOL0     C92526   8.027   5.037   6.103  0.4551  0.2275 -0.1056
  671MOL0     C92527   8.159   5.064   6.143 -0.0303  0.7736  0.0841
  671MOL0     C92528   8.188   5.047   6.295 -1.0117 -0.5049  0.3621
  671MOL0     H92529   8.431   5.473   6.053 -0.5413 -2.8995  0.8585
  671MOL0     H92530   8.634   5.639   6.088 -1.8791 -0.7480  3.0383
  671MOL0     H92531   8.828   5.706   6.211 -1.2081 -1.8727 -0.7032
  671MOL0     H92532   8.832   5.749   6.041 -0.4378 -1.0826 -1.1869
  671MOL0     H92533   9.077   5.739   6.024  1.7507  0.8998  1.0088
  671MOL0     H92534   9.046   5.850   6.150 -0.6817 -0.2605  1.0734
  671MOL0     H92535   9.057   5.655   6.309 -1.9516 -0.1460 -1.3940
  671MOL0     H92536   9.132   5.557   6.199  1.4900 -0.4283  1.1919
  671MOL0     H92537   9.336   5.722   6.176 -1.0464 -0.4309 -2.2673
  671MOL0     H92538   9.251   5.836   6.271 -0.6014  0.5689 -2.2064
  671MOL0     H92539   9.318   5.571   6.384  0.0015 -0.1020 -0.2519
  671MOL0     H92540   9.241   5.701   6.460 -0.2322  0.2853 -0.1813
  671MOL0     H92541   9.519   5.730   6.356  0.0087  1.3549 -0.4887
  671MOL0     H92542   9.434   5.857   6.433 -0.8860  0.1022 -1.6722
  671MOL0     H92543   9.393   5.677   6.621 -0.8093 -2.0136 -0.3630
  671MOL0     H92544   9.542   5.786   6.614 -0.4386  0.5895 -1.2306
  671MOL0     H92545   9.574   5.527   6.666  1.5260  2.6182  1.1772
  671MOL0     H92546   9.544   5.506   6.493 -1.5475 -2.5865  1.7217
  671MOL0     H92547   9.788   5.713   6.730  0.3118  3.0545 -0.9543
  671MOL0     H92548  10.065   5.760   6.661  1.1874  0.7127 -0.1619
  671MOL0     H92549   9.957   5.901   6.641 -1.7392 -0.1824 -1.3898
  671MOL0     H92550  10.134   5.767   6.434  0.5583 -1.1972  2.7310
  671MOL0     H92551  10.043   5.913   6.392  2.0269 -1.6728 -1.0194
  671MOL0     H92552  10.158   6.039   6.583  1.6543  1.0986  0.1660
  671MOL0     H92553  10.275   5.917   6.605 -0.9684  1.8146  1.1699
  671MOL0     H92554  10.322   5.928   6.354 -3.1267 -1.7699  1.5149
  671MOL0     H92555  10.247   6.093   6.364 -0.3614  0.3008  0.1963
  671MOL0     H92556  10.476   5.816   6.453 -0.2129 -0.2210  0.6813
  671MOL0     H92557  10.644   5.629   6.472 -1.2007 -0.8010  0.9912
  671MOL0     H92558  10.650   5.656   6.645 -1.7926  1.7814 -0.2422
  671MOL0     H92559  10.800   5.636   6.551 -1.2107 -1.6710  0.5224
  671MOL0     H92560  11.127   5.923   6.720  0.6883 -2.1564  0.6676
  671MOL0     H92561  11.364   5.922   6.779  3.0321  1.2613 -0.4468
  671MOL0     H92562  11.637   6.087   6.463  1.4972 -0.5189 -0.3459
  671MOL0     H92563  11.646   6.178   6.610 -1.8894  0.0761  0.9725
  671MOL0     H92564  11.809   5.923   6.543 -1.0864  0.2447 -1.9447
  671MOL0     H92565  11.877   6.089   6.525  0.2506  0.8282  0.0706
  671MOL0     H92566  11.791   5.951   6.772  0.0332  0.0006 -0.5550
  671MOL0     H92567  11.849   6.123   6.775  1.2382 -0.1764  2.2546
  671MOL0     H92568  12.073   6.038   6.661 -1.3314  1.9778  0.6500
  671MOL0     H92569  12.013   5.883   6.695  1.9040  0.7853 -0.7521
  671MOL0     H92570  12.089   6.090   6.914 -0.7270 -0.8281  1.2840
  671MOL0     H92571  11.981   5.957   6.944  1.1147  0.6825  1.9898
  671MOL0     H92572  12.267   5.944   6.820  0.1513  0.2898 -0.3366
  671MOL0     H92573  12.180   5.805   6.874 -0.9383 -0.0639 -0.4809
  671MOL0     H92574  12.148   5.866   7.089  0.2448  1.5812  0.2512
  671MOL0     H92575  12.223   6.022   7.082 -1.5296 -0.4965  1.8242
  671MOL0     H92576  12.360   5.823   7.187 -0.3341  0.8410  0.8375
  671MOL0     H92577  12.453   5.933   7.085  0.7571 -0.8689  0.8214
  671MOL0     H92578  11.473   6.022   6.380  1.3151 -3.1907  0.2279
  671MOL0     H92579  11.219   5.976   6.305  2.1905 -0.1458  0.5364
  671MOL0     H92580  10.854   6.125   6.522  1.0989 -1.6556  0.9780
  671MOL0     H92581  10.615   6.199   6.518 -2.3214 -0.9520  0.0381
  671MOL0     H92582   8.902   5.310   6.020  0.4961 -1.3478  3.5177
  671MOL0     H92583   8.679   5.159   5.961  2.5606 -1.0789  2.1685
  671MOL0     H92584   8.266   5.168   5.829 -0.0547 -1.2587 -0.0617
  671MOL0     H92585   8.040   5.086   5.771 -1.8494 -0.7570 -0.8594
  671MOL0     H92586   7.879   4.812   5.970 -0.3378 -0.0565  1.4941
  671MOL0     H92587   7.785   4.899   6.094 -0.6947  3.0504 -0.6575
  671MOL0     H92588   7.597   4.920   5.980  0.7156 -2.1216  2.8326
  671MOL0     H92589   7.636   4.759   5.947  0.6058 -0.3507  1.5437
  671MOL0     H92590   7.567   4.863   5.733 -0.1297  1.8019  0.1068
  671MOL0     H92591   7.689   4.989   5.761  1.2776 -0.4279  1.9821
  671MOL0     H92592   7.860   4.810   5.714 -1.1248  1.9524 -0.5792
  671MOL0     H92593   7.734   4.816   5.591 -2.0610  0.8209  0.4497
  671MOL0     H92594   7.731   4.430   5.798 -2.1056  0.9032  2.4185
  671MOL0     H92595   7.953   5.011   6.178  1.1944  0.9159  0.8839
  671MOL0     H92596   8.286   4.999   6.310 -1.3369 -0.7800  1.7412
  671MOL0     H92597   8.185   5.136   6.359 -1.2135 -1.4058  1.6441
  671MOL0     H92598   8.117   4.973   6.332 -0.2257 -1.1253  0.6673
  672MOL0     O92599  10.593  11.143   2.354 -0.4352 -0.7868  0.0536
  672MOL0     C92600  10.565  11.161   2.236 -0.3652 -0.7101  0.0509
  672MOL0     O92601  10.655  11.201   2.135 -0.2437  0.5522  0.5810
  672MOL0     C92602  10.770  11.272   2.152  0.8059 -0.7747 -0.1437
  672MOL0     C92603  10.848  11.293   2.040 -0.1624 -0.5012  0.2584
  672MOL0     C92604  10.950  11.386   2.051  1.0205 -0.6716  0.0737
  672MOL0     C92605  10.989  11.447   2.174 -0.9567  0.0611 -0.8554
  672MOL0     O92606  11.105  11.517   2.196 -0.0672 -0.0340  0.2739
  672MOL0     C92607  11.194  11.546   2.088 -0.2083  0.1250 -0.0828
  672MOL0     C92608  11.306  11.632   2.136 -0.0189 -0.4628  0.7119
  672MOL0     C92609  11.417  11.548   2.217 -0.1723 -0.1897 -0.1566
  672MOL0     C92610  11.546  11.627   2.242 -0.5116  0.0169  0.4428
  672MOL0     C92611  11.654  11.553   2.317 -0.2929  0.6912 -0.0578
  672MOL0     C92612  11.763  11.648   2.373  0.1884  0.7728  0.9432
  672MOL0     C92613  11.909  11.602   2.393  0.3839  0.4027  0.4202
  672MOL0     C92614  11.977  11.610   2.250 -0.5796  0.5263  0.5608
  672MOL0     N92615  12.121  11.596   2.252  0.8461 -0.1490  0.3124
  672MOL0     C92616  12.210  11.697   2.279  0.1448 -0.2095 -0.0019
  672MOL0     C92617  12.334  11.647   2.264 -0.1017 -0.9258  0.0662
  672MOL0     C92618  12.472  11.705   2.288 -0.9442  0.5377  0.3820
  672MOL0     C92619  12.503  11.792   2.170 -0.1413 -0.7242 -0.7306
  672MOL0     C92620  12.627  11.874   2.196  0.7917 -0.2139 -1.0393
  672MOL0     C92621  12.667  11.945   2.068  0.0703  0.2427  0.7018
  672MOL0     O92622  12.773  12.036   2.095  0.3559  0.5350  0.1494
  672MOL0     C92623  12.739  12.169   2.095  0.7252 -0.7823  0.5244
  672MOL0     C92624  12.606  12.222   2.110 -0.9681 -0.5152 -0.1462
  672MOL0     C92625  12.596  12.367   2.114 -0.7717 -0.0688  0.8740
  672MOL0     C92626  12.461  12.408   2.148  0.5662 -0.6445 -0.3216
  672MOL0     C92627  12.705  12.459   2.088 -0.4480 -0.1141  0.2177
  672MOL0     C92628  12.698  12.604   2.092 -0.1102 -0.2129 -0.2533
  672MOL0     O92629  12.813  12.672   2.058 -0.0890 -0.1873 -0.4168
  672MOL0     C92630  12.818  12.811   2.088  0.2708 -0.4956  0.0547
  672MOL0     C92631  12.708  12.898   2.068  0.1500  0.9552  0.2894
  672MOL0     C92632  12.726  13.034   2.092  0.7119  0.5341 -0.3213
  672MOL0     C92633  12.842  13.094   2.127  0.1681 -0.0306 -0.9751
  672MOL0     O92634  12.869  13.223   2.147  0.7061  0.0129  0.0394
  672MOL0     C92635  12.771  13.311   2.099  0.3317 -0.3337  0.1472
  672MOL0     C92636  12.797  13.448   2.164 -0.4282 -0.6060  0.5333
  672MOL0     C92637  12.932  13.516   2.111  0.7156  0.5882  0.4885
  672MOL0     C92638  12.922  13.661   2.129 -0.3058 -1.1261  0.1171
  672MOL0     C92639  13.043  13.737   2.058 -0.1571 -0.1074  0.9669
  672MOL0     C92640  13.162  13.757   2.156 -0.1910  0.2989  0.6975
  672MOL0     C92641  13.258  13.851   2.076 -0.4006  0.5652 -0.1359
  672MOL0     C92642  13.388  13.886   2.158 -0.5934  0.7133 -0.4659
  672MOL0    Cl92643  13.469  13.733   2.205  0.0749 -0.1537 -0.3928
  672MOL0     C92644  12.951  13.001   2.146 -0.3258 -0.9643 -0.3704
  672MOL0     C92645  12.939  12.869   2.129 -0.4201  0.6470 -0.1479
  672MOL0     O92646  12.594  12.651   2.134  0.1794  0.0387 -0.0430
  672MOL0     C92647  12.824  12.399   2.050 -0.3689 -0.4051  0.6668
  672MOL0     C92648  12.842  12.258   2.055  0.3064 -0.8347 -0.4746
  672MOL0     N92649  12.316  11.510   2.237  0.9847 -0.5289 -0.5204
  672MOL0     N92650  12.191  11.484   2.228  0.1708 -0.2180  0.3290
  672MOL0     C92651  10.912  11.416   2.285  0.3793  0.1821 -0.8698
  672MOL0     C92652  10.802  11.337   2.274 -0.0419  0.3891 -0.0817
  672MOL0     C92653  10.422  11.127   2.198  0.0890 -0.1574 -0.6995
  672MOL0     C92654  10.328  11.076   2.298  0.2149 -0.0774 -0.3464
  672MOL0     C92655  10.196  11.055   2.275 -0.0953  0.7763 -0.2254
  672MOL0     C92656  10.138  11.081   2.150 -0.2111  0.7806  0.3737
  672MOL0     O92657  10.006  11.059   2.124 -1.1200  0.1583 -0.2955
  672MOL0     C92658   9.910  11.010   2.218 -0.3293 -0.1844  0.1197
  672MOL0     C92659   9.865  11.127   2.309  0.8724 -0.7344 -0.2714
  672MOL0     C92660   9.787  11.076   2.433  0.0550  0.3751 -0.4290
  672MOL0     C92661   9.723  11.188   2.521  0.5255 -0.0919  0.5731
  672MOL0     C92662   9.834  11.280   2.563 -0.2142  0.1925 -0.3663
  672MOL0     C92663   9.916  11.358   2.600 -0.4297 -0.0051 -0.6365
  672MOL0     C92664  10.220  11.132   2.050 -0.3508  0.5152  0.1378
  672MOL0     C92665  10.364  11.152   2.074  0.8531  0.3921 -0.1405
  672MOL0     C92666  10.439  11.210   1.956  0.0597 -0.2955  1.1277
  672MOL0     H92667  10.835  11.242   1.945 -0.4066 -2.1606  1.1629
  672MOL0     H92668  11.004  11.410   1.961 -3.5443  4.6332 -1.8096
  672MOL0     H92669  11.144  11.599   2.007 -1.0789  0.3982  0.6194
  672MOL0     H92670  11.235  11.456   2.042  1.3068  0.9938 -0.4959
  672MOL0     H92671  11.362  11.676   2.054  0.1917 -1.7931  0.1186
  672MOL0     H92672  11.271  11.704   2.210 -2.3266  0.3962 -1.1114
  672MOL0     H92673  11.373  11.542   2.318 -1.4968 -0.7374 -0.7437
  672MOL0     H92674  11.429  11.450   2.171  1.4699 -0.6877  1.2117
  672MOL0     H92675  11.586  11.666   2.148 -0.8589 -1.8145 -0.5204
  672MOL0     H92676  11.522  11.713   2.306 -0.3830  0.7497 -0.4685
  672MOL0     H92677  11.705  11.489   2.244  0.4356  0.9371  0.2275
  672MOL0     H92678  11.612  11.491   2.397 -0.7429  1.1769  0.0895
  672MOL0     H92679  11.757  11.745   2.324 -1.0555  0.6933  0.9082
  672MOL0     H92680  11.724  11.674   2.471 -1.6204  3.4369 -0.3642
  672MOL0     H92681  11.895  11.495   2.408  0.6495 -0.5542 -4.4944
  672MOL0     H92682  11.966  11.653   2.472 -1.0625  0.7829  1.2570
  672MOL0     H92683  11.945  11.527   2.185  0.3662  0.5926 -0.0032
  672MOL0     H92684  11.956  11.706   2.202  3.9455  1.6374  0.4175
  672MOL0     H92685  12.186  11.800   2.305 -2.0277 -0.4669 -0.7485
  672MOL0     H92686  12.541  11.621   2.290 -2.2547 -0.5768  2.3586
  672MOL0     H92687  12.467  11.759   2.383 -0.0743  1.8807 -0.3149
  672MOL0     H92688  12.520  11.717   2.092 -2.7848 -1.5555 -0.5907
  672MOL0     H92689  12.420  11.859   2.148 -0.2885  0.5364  2.9923
  672MOL0     H92690  12.588  11.941   2.273  2.4253 -1.5384  1.0218
  672MOL0     H92691  12.713  11.817   2.232  2.1069  0.4838 -2.9154
  672MOL0     H92692  12.701  11.870   1.996  1.4239  1.0190  0.5010
  672MOL0     H92693  12.586  11.997   2.016  0.1448 -1.2680 -1.0373
  672MOL0     H92694  12.532  12.155   2.153 -1.4397 -0.0140 -0.1535
  672MOL0     H92695  12.479  12.450   2.247  2.5301  1.4261 -1.4731
  672MOL0     H92696  12.387  12.330   2.170 -1.0920  0.2670 -2.3629
  672MOL0     H92697  12.417  12.492   2.094  1.1635 -0.1774 -0.0965
  672MOL0     H92698  12.622  12.868   2.009  0.4837 -3.0261  1.4993
  672MOL0     H92699  12.629  13.081   2.086 -1.3256 -3.2969 -0.4226
  672MOL0     H92700  12.774  13.318   1.990 -0.3918 -1.0634  0.0745
  672MOL0     H92701  12.673  13.280   2.134 -1.0953 -0.5298 -3.6043
  672MOL0     H92702  12.709  13.505   2.136  0.7298  1.5469  1.0641
  672MOL0     H92703  12.805  13.436   2.273 -0.6453  0.6677  0.7023
  672MOL0     H92704  12.951  13.494   2.006  3.7835 -1.6610  1.3751
  672MOL0     H92705  13.018  13.472   2.162 -1.0808 -2.5213  1.1247
  672MOL0     H92706  12.932  13.684   2.235 -1.8670  2.1768 -0.3432
  672MOL0     H92707  12.821  13.690   2.100 -0.3946 -3.2838 -2.1256
  672MOL0     H92708  13.073  13.672   1.976 -0.3800  2.5304 -1.3683
  672MOL0     H92709  13.002  13.828   2.013  0.0201 -0.5314 -0.0670
  672MOL0     H92710  13.216  13.663   2.173 -2.7655 -1.5274 -0.5943
  672MOL0     H92711  13.133  13.794   2.255  2.1897  0.3223  1.4503
  672MOL0     H92712  13.219  13.950   2.051  0.3128  1.0773  0.7186
  672MOL0     H92713  13.289  13.807   1.981  1.5654 -0.9805  1.1407
  672MOL0     H92714  13.360  13.947   2.244  0.7739 -0.2568  0.7092
  672MOL0     H92715  13.455  13.943   2.093  0.6931 -0.9402 -0.6595
  672MOL0     H92716  13.052  13.035   2.168  0.3451 -2.9336 -0.1504
  672MOL0     H92717  13.022  12.800   2.119 -1.6571 -0.7054 -1.8957
  672MOL0     H92718  12.904  12.465   2.018 -0.9004  0.6691  1.4903
  672MOL0     H92719  12.939  12.214   2.034  0.1608 -2.5185  1.8939
  672MOL0     H92720  10.946  11.451   2.382 -0.1607 -0.9807 -0.2429
  672MOL0     H92721  10.747  11.314   2.365 -1.6850  3.3594 -0.2272
  672MOL0     H92722  10.361  11.058   2.400  1.6381 -4.1355 -1.3414
  672MOL0     H92723  10.127  11.011   2.347 -1.2241  3.4954  0.4841
  672MOL0     H92724   9.824  10.969   2.164 -0.1217  0.7134 -0.9362
  672MOL0     H92725   9.950  10.931   2.283  1.5031 -1.7770 -2.7155
  672MOL0     H92726   9.793  11.192   2.259  3.2794  1.8278 -0.6118
  672MOL0     H92727   9.951  11.191   2.331  1.5111 -1.4895 -0.5105
  672MOL0     H92728   9.717  10.997   2.404 -0.6663  0.3509  1.2945
  672MOL0     H92729   9.870  11.029   2.487  1.3897 -0.0068 -2.6770
  672MOL0     H92730   9.664  11.152   2.606 -1.5422  0.7187 -0.4425
  672MOL0     H92731   9.659  11.247   2.455  1.1507 -1.5867 -1.4883
  672MOL0     H92732   9.993  11.430   2.620 -1.0714  0.8082 -1.0234
  672MOL0     H92733  10.185  11.163   1.953  0.4764  3.2504  0.6383
  672MOL0     H92734  10.471  11.313   1.974  0.6418 -0.2363 -0.1765
  672MOL0     H92735  10.530  11.157   1.926 -0.4011 -2.0236  2.6176
  672MOL0     H92736  10.379  11.209   1.864  1.4537  2.5071  0.0680
  673MOL0     O92737   2.124  10.942   2.546  0.2606  0.7071  0.4057
  673MOL0     C92738   2.221  10.883   2.592  0.0147 -0.8174 -0.0312
  673MOL0     O92739   2.233  10.749   2.618 -0.6115  0.4913 -0.4654
  673MOL0     C92740   2.126  10.658   2.602  0.4039 -0.2839 -0.0252
  673MOL0     C92741   2.157  10.535   2.549  0.5529 -0.9199  1.0364
  673MOL0     C92742   2.057  10.444   2.536 -0.3557  0.6335 -0.6164
  673MOL0     C92743   1.927  10.460   2.576  0.1305 -0.4665  0.5047
  673MOL0     O92744   1.829  10.364   2.579 -0.6449 -0.3601  0.2355
  673MOL0     C92745   1.840  10.242   2.506  0.3132 -0.4885  0.5951
  673MOL0     C92746   1.890  10.136   2.600  0.5159 -0.2111  0.8156
  673MOL0     C92747   2.006  10.176   2.693 -0.6852  0.7226  0.2646
  673MOL0     C92748   2.031  10.050   2.780 -0.1267 -0.1438 -0.7356
  673MOL0     C92749   2.141  10.073   2.890  0.0851  0.7173 -0.5765
  673MOL0     C92750   2.188   9.940   2.962  0.1102  0.7908  0.1800
  673MOL0     C92751   2.095   9.898   3.077  0.1310  1.0181  0.8821
  673MOL0     C92752   2.165   9.808   3.181  0.0366  0.7082  0.1311
  673MOL0     N92753   2.233   9.681   3.134  0.0234 -0.0683  0.4009
  673MOL0     C92754   2.345   9.668   3.057 -0.8641 -0.5215  0.5222
  673MOL0     C92755   2.346   9.544   3.004 -0.2010  0.2795 -0.4389
  673MOL0     C92756   2.459   9.484   2.929 -0.0771 -0.6116  0.1629
  673MOL0     C92757   2.586   9.447   3.005 -0.3863  0.0764  0.4339
  673MOL0     C92758   2.578   9.318   3.083  0.3706 -0.3630  0.2459
  673MOL0     C92759   2.697   9.286   3.181 -0.6492  0.6257 -0.2184
  673MOL0     O92760   2.820   9.304   3.103 -0.0760  0.9944 -0.0301
  673MOL0     C92761   2.946   9.301   3.172  1.1525  0.0192 -0.5039
  673MOL0     C92762   3.065   9.277   3.100 -0.1617 -0.6950  0.1537
  673MOL0     C92763   3.191   9.280   3.158 -0.1203  0.3115  1.2008
  673MOL0     C92764   3.303   9.263   3.057  0.4962  1.2177  0.8672
  673MOL0     C92765   3.207   9.309   3.293  0.5996 -0.3062 -0.6062
  673MOL0     C92766   3.342   9.326   3.359  0.1150 -0.0359 -0.2299
  673MOL0     O92767   3.343   9.360   3.492  0.9092 -0.2969  0.0338
  673MOL0     C92768   3.452   9.350   3.568 -0.7814  0.3026  0.8800
  673MOL0     C92769   3.506   9.463   3.630  0.8262  0.2651  0.2154
  673MOL0     C92770   3.619   9.451   3.720 -0.4104 -0.1483  0.7552
  673MOL0     C92771   3.687   9.331   3.740 -0.1383 -0.0400  0.2821
  673MOL0     O92772   3.805   9.331   3.808  0.1506  0.1858  0.2520
  673MOL0     C92773   3.920   9.254   3.760  0.0251  0.1919  0.0737
  673MOL0     C92774   4.017   9.232   3.878  0.4800  0.2323  0.3835
  673MOL0     C92775   4.158   9.208   3.823 -0.1620  0.5850 -0.7206
  673MOL0     C92776   4.256   9.176   3.934  0.0455  0.6652 -0.0408
  673MOL0     C92777   4.373   9.115   3.849  0.0542 -0.2508  0.0103
  673MOL0     C92778   4.503   9.081   3.938  0.0520 -0.2549 -0.0603
  673MOL0     C92779   4.586   9.205   3.993  0.1177 -0.5555  0.3320
  673MOL0     C92780   4.705   9.155   4.071 -0.0677  0.1553 -0.2763
  673MOL0    Cl92781   4.640   9.074   4.214 -0.1266 -0.0482  0.1932
  673MOL0     C92782   3.631   9.219   3.664  0.4901 -0.4010 -0.1159
  673MOL0     C92783   3.521   9.231   3.578  0.4339  0.8901 -0.2636
  673MOL0     O92784   3.449   9.302   3.299  0.0017  0.1920  0.2834
  673MOL0     C92785   3.087   9.331   3.374  0.1328 -0.8392  0.5501
  673MOL0     C92786   2.955   9.320   3.319  0.4430 -0.0851  0.3791
  673MOL0     N92787   2.239   9.477   3.066 -0.9457 -0.1821 -0.2045
  673MOL0     N92788   2.169   9.562   3.131 -0.1755 -0.0687 -0.2355
  673MOL0     C92789   1.893  10.586   2.623 -0.1362 -0.7607 -0.2545
  673MOL0     C92790   1.991  10.690   2.635  0.5550  0.6215  0.6441
  673MOL0     C92791   2.342  10.973   2.612 -0.2326  0.0009  0.6024
  673MOL0     C92792   2.463  10.917   2.662  0.3870  1.1888  0.0189
  673MOL0     C92793   2.585  10.987   2.682  0.3149  0.3115  0.3335
  673MOL0     C92794   2.599  11.121   2.649  0.6854  1.1639  0.7505
  673MOL0     O92795   2.715  11.179   2.664  0.2788 -0.2081 -0.2027
  673MOL0     C92796   2.720  11.264   2.784 -0.6691 -0.5853 -1.0995
  673MOL0     C92797   2.810  11.228   2.901  0.0510  0.3895  0.0797
  673MOL0     C92798   2.957  11.221   2.868 -0.9794  0.3773 -0.4056
  673MOL0     C92799   3.053  11.198   2.991 -0.3480  0.1808 -0.1917
  673MOL0     C92800   3.192  11.237   2.957 -0.6358 -0.0295 -0.7840
  673MOL0     C92801   3.304  11.282   2.928  0.1073  0.7033 -0.0095
  673MOL0     C92802   2.482  11.187   2.616  0.1170 -1.1741 -1.0364
  673MOL0     C92803   2.358  11.116   2.593  0.4062  0.2841  0.2837
  673MOL0     C92804   2.257  11.207   2.544  0.9673 -0.2965  0.4112
  673MOL0     H92805   2.263  10.521   2.526  0.9165  0.0621  2.0164
  673MOL0     H92806   2.076  10.350   2.485 -2.7487  0.9492 -2.2941
  673MOL0     H92807   1.909  10.254   2.422 -2.0088 -1.0052 -1.5174
  673MOL0     H92808   1.739  10.213   2.475  0.4863 -0.0200 -0.4633
  673MOL0     H92809   1.803  10.099   2.654 -2.0688  2.2059 -1.3719
  673MOL0     H92810   1.919  10.045   2.548 -1.1897  0.3206 -1.2054
  673MOL0     H92811   2.095  10.205   2.637 -1.0500 -0.6551 -1.1229
  673MOL0     H92812   1.981  10.261   2.756  3.5354  1.8112  0.7667
  673MOL0     H92813   1.938  10.023   2.830  0.2015  0.2885  0.1131
  673MOL0     H92814   2.061   9.967   2.715  1.0573  0.6745 -1.2633
  673MOL0     H92815   2.113  10.144   2.969  1.4443  2.2377 -1.4081
  673MOL0     H92816   2.220  10.117   2.829 -1.5751  1.1068 -2.5391
  673MOL0     H92817   2.203   9.856   2.893  0.7297 -0.4472  1.7547
  673MOL0     H92818   2.286   9.963   3.005  1.5036 -2.0464 -1.1725
  673MOL0     H92819   2.010   9.840   3.040  1.6015 -1.9134  1.7247
  673MOL0     H92820   2.044   9.988   3.114  0.1593  2.6254 -2.5791
  673MOL0     H92821   2.243   9.873   3.221  0.0743  1.0080 -0.4131
  673MOL0     H92822   2.099   9.775   3.261  2.3110 -2.6151  0.8578
  673MOL0     H92823   2.414   9.750   3.039  0.4591 -0.9464  3.1794
  673MOL0     H92824   2.499   9.550   2.852 -0.6881 -0.7001 -0.2330
  673MOL0     H92825   2.438   9.397   2.865 -1.7478  0.3805 -0.6946
  673MOL0     H92826   2.664   9.421   2.933  0.6066 -0.0695  1.5245
  673MOL0     H92827   2.618   9.529   3.070  4.0142 -1.4210  0.5127
  673MOL0     H92828   2.484   9.314   3.139 -0.8704  1.1268 -1.5914
  673MOL0     H92829   2.573   9.232   3.014 -2.5435  0.6563 -0.9881
  673MOL0     H92830   2.698   9.354   3.267  0.9847  3.6795 -2.4492
  673MOL0     H92831   2.681   9.181   3.210 -0.1711 -0.0723 -2.2937
  673MOL0     H92832   3.049   9.266   2.993  0.2796  1.9999 -0.2562
  673MOL0     H92833   3.349   9.362   3.053 -1.6473  2.1932 -1.7489
  673MOL0     H92834   3.260   9.245   2.958 -0.4707  0.9361  1.3279
  673MOL0     H92835   3.370   9.178   3.075 -1.9142 -1.0380 -0.1755
  673MOL0     H92836   3.464   9.558   3.602  2.4364  0.9412 -0.0312
  673MOL0     H92837   3.655   9.545   3.760  0.4995 -0.0535 -0.2483
  673MOL0     H92838   3.889   9.153   3.732  0.5463  0.2774 -0.8241
  673MOL0     H92839   3.972   9.309   3.682 -0.8871 -1.2139 -1.5892
  673MOL0     H92840   4.028   9.318   3.945 -0.9321 -1.3227  2.7710
  673MOL0     H92841   3.982   9.149   3.939  0.7538  0.3736  0.7399
  673MOL0     H92842   4.186   9.304   3.779 -3.7713  3.8796  3.2880
  673MOL0     H92843   4.154   9.133   3.743  3.1954 -1.2670  0.6378
  673MOL0     H92844   4.224   9.102   4.007  0.7661  0.6720  0.2891
  673MOL0     H92845   4.296   9.267   3.980  0.2898 -0.0695  1.2350
  673MOL0     H92846   4.341   9.028   3.792 -1.7806  1.5267 -1.8364
  673MOL0     H92847   4.407   9.198   3.786 -2.0110  1.0872  0.5693
  673MOL0     H92848   4.559   9.019   3.867 -1.1794 -2.0931  0.5057
  673MOL0     H92849   4.467   9.018   4.020  0.2779 -1.8698 -1.1558
  673MOL0     H92850   4.517   9.260   4.058 -2.0121 -1.6444 -0.9052
  673MOL0     H92851   4.615   9.266   3.907 -0.2203 -0.5339  0.2301
  673MOL0     H92852   4.781   9.231   4.092  1.2800 -0.9348 -1.0253
  673MOL0     H92853   4.749   9.074   4.012 -1.4314 -0.9943  0.2227
  673MOL0     H92854   3.684   9.124   3.670  0.2349 -0.5356  0.0273
  673MOL0     H92855   3.482   9.138   3.539  2.1786  0.1128 -0.2261
  673MOL0     H92856   3.102   9.369   3.475 -5.0181  2.6828  0.3859
  673MOL0     H92857   2.874   9.353   3.384  0.9770 -1.2386  1.6679
  673MOL0     H92858   1.787  10.601   2.644  0.1787 -0.9051  1.6670
  673MOL0     H92859   1.961  10.792   2.656 -0.8453  0.6608 -1.2385
  673MOL0     H92860   2.468  10.810   2.676  0.5722  1.3448  1.3591
  673MOL0     H92861   2.666  10.916   2.686 -0.5884 -0.7462  0.4366
  673MOL0     H92862   2.757  11.362   2.751 -0.5235 -0.4891 -0.6504
  673MOL0     H92863   2.620  11.292   2.819  0.7968  1.1047  2.2088
  673MOL0     H92864   2.772  11.132   2.939  1.8343  0.7283  3.0892
  673MOL0     H92865   2.787  11.303   2.978 -0.0942  1.3409 -0.8689
  673MOL0     H92866   2.986  11.141   2.800  0.8773  0.5759  0.0942
  673MOL0     H92867   2.990  11.306   2.808 -0.1257 -1.0234 -1.9895
  673MOL0     H92868   3.047  11.092   3.016  2.1640 -0.7803 -3.1255
  673MOL0     H92869   3.014  11.260   3.073  0.4011  0.6843 -0.2090
  673MOL0     H92870   3.403  11.321   2.915  0.0933 -0.0841 -3.1841
  673MOL0     H92871   2.484  11.295   2.615  1.7893 -0.9058  4.0112
  673MOL0     H92872   2.282  11.309   2.513 -0.6151 -0.6794 -2.4194
  673MOL0     H92873   2.205  11.163   2.459 -1.5598 -1.7322  2.5196
  673MOL0     H92874   2.184  11.212   2.626 -0.9357  1.3318 -1.2877
  674MOL0     O92875   2.483   3.880  10.821  0.3404 -0.2414  0.4154
  674MOL0     C92876   2.503   3.973  10.898  0.6290 -0.7764 -0.4936
  674MOL0     O92877   2.615   3.997  10.966 -0.6459  0.7608 -0.2493
  674MOL0     C92878   2.738   3.953  10.937 -0.6247  0.6957  0.2358
  674MOL0     C92879   2.754   3.813  10.897 -1.2133  0.2087 -0.0728
  674MOL0     C92880   2.887   3.768  10.864 -0.3187 -0.6870 -0.2576
  674MOL0     C92881   2.989   3.860  10.857  1.5981 -0.4917  0.8896
  674MOL0     O92882   3.117   3.825  10.819  0.1594 -0.0262 -0.5721
  674MOL0     C92883   3.157   3.692  10.780  0.6384  0.0755  0.3545
  674MOL0     C92884   3.190   3.687  10.620 -0.3886  0.2579  0.2976
  674MOL0     C92885   3.335   3.724  10.582 -0.5768  0.0148 -0.4966
  674MOL0     C92886   3.356   3.698  10.435  1.1277  0.4848 -0.7407
  674MOL0     C92887   3.505   3.704  10.413  0.5912 -0.1918 -0.6042
  674MOL0     C92888   3.546   3.652  10.269  0.2296  0.2100  0.3010
  674MOL0     C92889   3.688   3.698  10.215  0.2202 -0.3024  0.9861
  674MOL0     C92890   3.809   3.636  10.296  0.9340 -0.2636  0.4081
  674MOL0     N92891   3.943   3.681  10.252  0.1227  0.2878  0.1072
  674MOL0     C92892   3.980   3.761  10.144 -0.0081 -0.7837 -0.4026
  674MOL0     C92893   4.114   3.750  10.128 -0.2816  0.5458 -0.7386
  674MOL0     C92894   4.196   3.815  10.027 -0.7496  0.1173  0.7326
  674MOL0     C92895   4.290   3.714   9.952 -0.4791 -0.0128 -0.1463
  674MOL0     C92896   4.339   3.776   9.809 -0.5881 -0.3922 -0.5711
  674MOL0     C92897   4.416   3.914   9.827 -0.5483  0.3270 -0.7087
  674MOL0     O92898   4.508   3.901   9.933 -0.0747 -1.2929  0.3014
  674MOL0     C92899   4.539   4.022   9.992  0.4650  0.7451  1.1313
  674MOL0     C92900   4.528   4.149   9.925  0.7619  0.4376  0.1598
  674MOL0     C92901   4.543   4.274   9.984 -0.5205 -0.0298 -0.2426
  674MOL0     C92902   4.512   4.396   9.897  0.3668  0.2253  0.3891
  674MOL0     C92903   4.590   4.283  10.115  0.2276  1.0886  0.2413
  674MOL0     C92904   4.622   4.411  10.186  0.0075  0.9923 -0.1056
  674MOL0     O92905   4.622   4.398  10.319  0.4570 -0.8820  0.0871
  674MOL0     C92906   4.636   4.503  10.406 -0.1506  0.7306  0.3371
  674MOL0     C92907   4.723   4.495  10.511  0.2259 -0.1915  0.8317
  674MOL0     C92908   4.743   4.604  10.595 -0.1677 -0.1845  0.4280
  674MOL0     C92909   4.663   4.716  10.576  0.6034  0.7512  0.0145
  674MOL0     O92910   4.698   4.806  10.671 -0.3092 -0.2592  0.7391
  674MOL0     C92911   4.623   4.932  10.679 -0.3961  0.1584 -0.0574
  674MOL0     C92912   4.482   4.933  10.734  0.3297  0.2754  0.2943
  674MOL0     C92913   4.447   5.060  10.807 -0.0096  0.8497  0.8626
  674MOL0     C92914   4.429   5.163  10.691  0.7778  0.5635  0.1443
  674MOL0     C92915   4.374   5.292  10.748 -0.6137 -0.7503  0.0692
  674MOL0     C92916   4.242   5.287  10.827  0.4114 -0.9751 -0.3841
  674MOL0     C92917   4.199   5.429  10.882  0.2061 -0.8871 -0.7734
  674MOL0     C92918   4.064   5.423  10.960  0.6641  0.0078 -0.6891
  674MOL0    Cl92919   4.060   5.321  11.108  0.2001  0.2474  0.1234
  674MOL0     C92920   4.574   4.731  10.472  0.0676  0.0393 -0.5680
  674MOL0     C92921   4.566   4.618  10.385  0.0745 -0.4569  0.1542
  674MOL0     O92922   4.669   4.507  10.126 -0.3861 -0.3693 -0.7973
  674MOL0     C92923   4.603   4.163  10.189  0.3533  0.2126  0.2217
  674MOL0     C92924   4.579   4.041  10.122  0.2485 -0.7343  0.6074
  674MOL0     N92925   4.168   3.653  10.219  0.1023  0.3126 -0.0059
  674MOL0     N92926   4.060   3.618  10.295  0.3817  0.1094  0.7629
  674MOL0     C92927   2.968   3.990  10.887  0.3436  0.1073  0.4933
  674MOL0     C92928   2.842   4.045  10.929 -0.3887  0.3470 -0.3962
  674MOL0     C92929   2.391   4.065  10.934  0.8316  0.0518 -1.0963
  674MOL0     C92930   2.406   4.151  11.045  0.3343 -0.6294 -0.3248
  674MOL0     C92931   2.305   4.245  11.079  0.8643  0.1643 -0.1353
  674MOL0     C92932   2.189   4.246  11.013  1.3286 -0.5123  0.8207
  674MOL0     O92933   2.077   4.312  11.054 -0.4938 -0.5469  0.3887
  674MOL0     C92934   2.095   4.425  11.135 -0.4250  0.2439 -0.1483
  674MOL0     C92935   1.982   4.528  11.110  0.6325 -0.2767  0.3844
  674MOL0     C92936   1.839   4.472  11.141  0.4977 -0.2650  0.1157
  674MOL0     C92937   1.755   4.469  11.015 -0.3820  0.7515 -0.1789
  674MOL0     C92938   1.804   4.372  10.909  1.3803  0.3029 -0.3716
  674MOL0     C92939   1.822   4.281  10.838  0.6736 -0.0311 -0.1687
  674MOL0     C92940   2.176   4.172  10.894  0.9193 -0.4724 -1.4617
  674MOL0     C92941   2.265   4.073  10.861  1.2902  0.6559 -0.3674
  674MOL0     C92942   2.243   3.993  10.733  0.0182 -0.5335 -0.5503
  674MOL0     H92943   2.676   3.738  10.908 -0.5256 -0.3579  1.2945
  674MOL0     H92944   2.898   3.662  10.840 -0.7936 -0.6493 -0.6657
  674MOL0     H92945   3.081   3.615  10.798 -2.2842  2.4144 -1.0144
  674MOL0     H92946   3.249   3.669  10.834  1.1278  2.1612  0.4993
  674MOL0     H92947   3.164   3.586  10.587 -1.7213  0.3736  0.8927
  674MOL0     H92948   3.112   3.746  10.570  1.0424 -0.4058 -2.9480
  674MOL0     H92949   3.355   3.831  10.593  0.2085  0.1803 -2.8484
  674MOL0     H92950   3.408   3.668  10.641 -1.2787 -1.1633 -0.7078
  674MOL0     H92951   3.317   3.601  10.401 -2.6405  1.8363 -0.8163
  674MOL0     H92952   3.294   3.770  10.380 -2.5793 -0.7103  1.4635
  674MOL0     H92953   3.558   3.640  10.484 -0.0193 -0.5107 -0.4290
  674MOL0     H92954   3.531   3.810  10.418 -0.8315  0.2596 -1.9048
  674MOL0     H92955   3.534   3.544  10.263  0.7534  0.0032  2.3119
  674MOL0     H92956   3.473   3.694  10.199  0.3061  0.8731  0.6063
  674MOL0     H92957   3.697   3.806  10.227  0.3634 -0.1603 -0.2882
  674MOL0     H92958   3.703   3.677  10.109  0.6046 -0.6467  1.1051
  674MOL0     H92959   3.786   3.661  10.400 -3.6345  0.0050 -0.4343
  674MOL0     H92960   3.816   3.527  10.296  0.4703 -0.3349 -1.3439
  674MOL0     H92961   3.903   3.824  10.100 -0.1314 -0.1272  0.7102
  674MOL0     H92962   4.268   3.876  10.083 -0.8255  1.0072 -0.1020
  674MOL0     H92963   4.136   3.873   9.956 -0.7844  0.0226  0.6840
  674MOL0     H92964   4.380   3.690  10.010 -0.4926  1.8533  0.7026
  674MOL0     H92965   4.234   3.620   9.941 -0.2072 -0.5974  2.7041
  674MOL0     H92966   4.414   3.706   9.771 -0.5312 -1.2655  1.0912
  674MOL0     H92967   4.257   3.788   9.737  0.2652  1.3345 -1.3193
  674MOL0     H92968   4.470   3.930   9.733 -2.5220 -1.0071 -2.1685
  674MOL0     H92969   4.342   3.994   9.835  1.1655  1.9640 -0.4227
  674MOL0     H92970   4.509   4.156   9.818  1.5185  2.9693  0.1312
  674MOL0     H92971   4.602   4.434   9.846  0.0654  0.5114  0.0625
  674MOL0     H92972   4.473   4.481   9.953  1.6340  1.6446 -0.7998
  674MOL0     H92973   4.440   4.376   9.817 -1.1652 -0.6951  1.9418
  674MOL0     H92974   4.786   4.407  10.520  2.3771  1.3006  1.4488
  674MOL0     H92975   4.823   4.605  10.669 -0.2674 -0.4185  0.5405
  674MOL0     H92976   4.677   4.987  10.757 -3.3930  0.6667  1.8241
  674MOL0     H92977   4.641   4.991  10.588  3.5515  1.6287  1.4297
  674MOL0     H92978   4.403   4.927  10.657 -1.0236  0.3998  1.6264
  674MOL0     H92979   4.477   4.850  10.805 -0.4331 -1.8874 -2.1199
  674MOL0     H92980   4.530   5.084  10.875  2.2338 -0.9533 -1.0493
  674MOL0     H92981   4.354   5.038  10.859 -1.1375  1.6384 -0.7517
  674MOL0     H92982   4.359   5.131  10.614  3.0777 -0.1913 -1.7573
  674MOL0     H92983   4.527   5.185  10.647  0.9902 -0.8750 -0.1515
  674MOL0     H92984   4.453   5.342  10.804 -3.6559  2.0361  2.2542
  674MOL0     H92985   4.345   5.361  10.669 -1.1927  0.8363  1.5919
  674MOL0     H92986   4.263   5.220  10.911 -1.0207 -1.7222 -0.5788
  674MOL0     H92987   4.161   5.251  10.762 -3.0249  1.7758  1.9352
  674MOL0     H92988   4.193   5.496  10.796  0.2399  1.6458  1.0867
  674MOL0     H92989   4.277   5.471  10.945  0.6982 -0.5565 -1.5967
  674MOL0     H92990   3.992   5.390  10.884 -0.9917 -0.1437  0.8800
  674MOL0     H92991   4.047   5.525  10.995  4.0555  0.0184  1.3551
  674MOL0     H92992   4.523   4.826  10.465 -0.5745 -0.1290  1.2558
  674MOL0     H92993   4.496   4.625  10.301  0.3262 -1.7481 -0.1847
  674MOL0     H92994   4.636   4.162  10.292 -0.2870  1.5926  0.4643
  674MOL0     H92995   4.584   3.958  10.192 -1.2753  0.3133  2.0361
  674MOL0     H92996   3.056   4.054  10.886  0.3551  0.1679  2.2169
  674MOL0     H92997   2.818   4.147  10.959  0.0814  0.7290 -1.3084
  674MOL0     H92998   2.496   4.152  11.104 -0.3079  0.5517  0.6623
  674MOL0     H92999   2.325   4.318  11.157  0.6752 -0.4105  0.4558
  674MOL0     H93000   2.092   4.385  11.237  0.4787 -0.2117 -0.2930
  674MOL0     H93001   2.190   4.474  11.114 -0.4944  1.1408  1.4637
  674MOL0     H93002   1.985   4.561  11.006  0.5027 -0.8382  0.2029
  674MOL0     H93003   1.991   4.617  11.174 -0.5189  1.2792 -1.5164
  674MOL0     H93004   1.848   4.373  11.187 -0.5072  0.3002  1.6171
  674MOL0     H93005   1.790   4.523  11.225 -0.3742 -3.7377  1.9068
  674MOL0     H93006   1.761   4.569  10.971 -1.4459  1.2440  0.7145
  674MOL0     H93007   1.650   4.448  11.040 -0.3387  2.6597  1.9599
  674MOL0     H93008   1.844   4.208  10.764 -2.1400 -0.5531 -0.5932
  674MOL0     H93009   2.081   4.169  10.841 -1.3552 -1.4327  2.3312
  674MOL0     H93010   2.138   4.002  10.705 -0.7279 -1.1161  1.7876
  674MOL0     H93011   2.308   4.032  10.654  0.7359 -2.1065 -0.7814
  674MOL0     H93012   2.257   3.885  10.746 -4.3829 -1.0934  1.1663
  675MOL0     O93013   7.323   2.364   5.729 -0.8378  0.7624  0.0397
  675MOL0     C93014   7.279   2.468   5.780 -0.9778  0.1887  0.0264
  675MOL0     O93015   7.361   2.568   5.829 -0.0719 -0.5399  0.0663
  675MOL0     C93016   7.492   2.534   5.866 -0.3674  0.2098 -0.6471
  675MOL0     C93017   7.516   2.458   5.987 -0.1338  0.1833  0.5188
  675MOL0     C93018   7.648   2.427   6.028  0.0038 -0.5318 -0.1105
  675MOL0     C93019   7.752   2.444   5.930 -0.3038 -0.2705 -0.3878
  675MOL0     O93020   7.881   2.400   5.963 -0.2196  0.0317  0.1441
  675MOL0     C93021   7.968   2.365   5.854  0.2917  0.3553  0.3269
  675MOL0     C93022   8.118   2.393   5.865 -0.8449  0.8007  0.3708
  675MOL0     C93023   8.144   2.540   5.901  0.1037  1.0043 -0.0249
  675MOL0     C93024   8.283   2.593   5.871  0.4748  0.2722  0.3124
  675MOL0     C93025   8.390   2.518   5.961 -0.4131  0.5245 -0.5058
  675MOL0     C93026   8.537   2.559   5.917  0.2654  0.8904 -0.3514
  675MOL0     C93027   8.642   2.493   5.995  0.3492  0.7179  0.0069
  675MOL0     C93028   8.770   2.490   5.917 -0.4585 -0.4992  0.2894
  675MOL0     N93029   8.868   2.386   5.962 -0.2480  0.1537  0.2320
  675MOL0     C93030   8.997   2.400   5.930  0.3865 -0.2785 -0.8042
  675MOL0     C93031   9.047   2.284   5.987 -0.3752 -0.2797 -0.9147
  675MOL0     C93032   9.190   2.244   5.978  0.3847  0.1841  0.0229
  675MOL0     C93033   9.302   2.347   6.026  0.0081  0.2633 -0.1504
  675MOL0     C93034   9.379   2.412   5.910  0.2784 -0.1131 -0.5571
  675MOL0     C93035   9.487   2.517   5.948 -0.8084 -0.9965 -0.7562
  675MOL0     O93036   9.426   2.639   5.983 -0.1924  0.0624 -0.0345
  675MOL0     C93037   9.500   2.752   5.982  0.9378  0.0572  0.7727
  675MOL0     C93038   9.599   2.783   5.887 -0.4372  0.1841  0.2067
  675MOL0     C93039   9.691   2.886   5.899  0.0579 -0.4332 -0.2401
  675MOL0     C93040   9.811   2.882   5.797 -0.0945  0.3022 -0.0369
  675MOL0     C93041   9.671   2.982   6.005  0.3419 -0.3197  0.3183
  675MOL0     C93042   9.763   3.093   6.036  0.2731  0.0919 -1.0530
  675MOL0     O93043   9.728   3.177   6.141  0.1479 -0.1184  0.5694
  675MOL0     C93044   9.822   3.264   6.194 -0.1014  1.0342 -0.0915
  675MOL0     C93045   9.882   3.367   6.111 -0.3840 -0.0961 -0.4596
  675MOL0     C93046   9.969   3.464   6.167 -0.5624  0.9405  1.6866
  675MOL0     C93047  10.007   3.458   6.307  0.3161 -0.5130 -0.0675
  675MOL0     O93048  10.096   3.541   6.364 -0.5678 -0.1390  0.8368
  675MOL0     C93049  10.168   3.638   6.278  0.6518  0.1421 -0.0287
  675MOL0     C93050  10.265   3.718   6.360  0.0147  0.3411 -0.2581
  675MOL0     C93051  10.290   3.850   6.298 -0.5113 -0.1889  0.7051
  675MOL0     C93052  10.396   3.935   6.365  0.7441 -0.5940 -0.0026
  675MOL0     C93053  10.420   4.075   6.299  0.7473  0.7322 -0.3948
  675MOL0     C93054  10.520   4.167   6.374 -0.5404  0.0740  0.2030
  675MOL0     C93055  10.645   4.079   6.401  0.0124  0.8394  0.5489
  675MOL0     C93056  10.753   4.170   6.465 -0.7121 -0.0368 -1.0942
  675MOL0    Cl93057  10.716   4.213   6.637  0.2054 -0.0035  0.3685
  675MOL0     C93058   9.938   3.361   6.383  0.1908  0.2419 -0.8457
  675MOL0     C93059   9.843   3.270   6.336 -0.1212 -0.8932  0.6161
  675MOL0     O93060   9.868   3.107   5.973  0.7966 -0.3408  0.2225
  675MOL0     C93061   9.558   2.956   6.093  0.1176  0.2495  0.1552
  675MOL0     C93062   9.484   2.839   6.081 -0.1325 -0.1862  0.3126
  675MOL0     N93063   8.956   2.218   6.067 -0.2422  0.0638 -0.1823
  675MOL0     N93064   8.849   2.289   6.054  0.5160 -0.5451  0.2604
  675MOL0     C93065   7.718   2.508   5.811  0.8893 -0.8842  0.6338
  675MOL0     C93066   7.588   2.548   5.774  0.1059 -1.0253  0.1785
  675MOL0     C93067   7.136   2.509   5.752 -0.4301 -0.2716 -0.2100
  675MOL0     C93068   7.077   2.451   5.645 -0.6814 -0.1491  0.9472
  675MOL0     C93069   6.939   2.469   5.611 -0.0451  0.2628 -0.2729
  675MOL0     C93070   6.849   2.545   5.696 -0.1705 -0.8407 -0.3075
  675MOL0     O93071   6.718   2.579   5.665  0.1928 -0.0683  0.0945
  675MOL0     C93072   6.665   2.543   5.532  0.2704 -0.4458 -0.0361
  675MOL0     C93073   6.534   2.614   5.502  0.4390 -0.1174 -0.1819
  675MOL0     C93074   6.544   2.766   5.505 -0.4084 -0.3524  0.1945
  675MOL0     C93075   6.402   2.826   5.490  0.4061 -0.9581 -0.5725
  675MOL0     C93076   6.411   2.972   5.476  0.2924  0.2198  0.7177
  675MOL0     C93077   6.429   3.091   5.460  0.0021  0.3683 -0.4701
  675MOL0     C93078   6.908   2.602   5.802 -0.0592  0.2286 -0.6074
  675MOL0     C93079   7.045   2.573   5.841 -0.1281  0.4349  0.0063
  675MOL0     C93080   7.099   2.629   5.967  0.0284 -0.1983  0.4050
  675MOL0     H93081   7.433   2.451   6.057 -0.4492 -2.5834 -0.0139
  675MOL0     H93082   7.675   2.401   6.130 -3.0732  0.6369  1.1337
  675MOL0     H93083   7.934   2.408   5.759 -0.0826 -1.3415 -0.3405
  675MOL0     H93084   7.948   2.259   5.836 -1.9088  0.8805 -0.7246
  675MOL0     H93085   8.172   2.329   5.934 -0.1024  1.2259  0.1910
  675MOL0     H93086   8.158   2.363   5.767  0.6764  2.2988  0.4826
  675MOL0     H93087   8.073   2.609   5.854 -0.4778 -0.9448 -2.1544
  675MOL0     H93088   8.132   2.551   6.009  2.0753  0.3131  0.3152
  675MOL0     H93089   8.304   2.576   5.765 -0.3793 -3.8849  0.6243
  675MOL0     H93090   8.278   2.699   5.895 -1.5752  0.6906 -1.5681
  675MOL0     H93091   8.385   2.410   5.950  2.8233 -0.4298  4.4553
  675MOL0     H93092   8.375   2.524   6.069  0.0403 -2.4077 -0.2041
  675MOL0     H93093   8.543   2.536   5.810  0.3570  0.7302 -0.3112
  675MOL0     H93094   8.552   2.668   5.925 -0.0416  0.8759  0.4571
  675MOL0     H93095   8.608   2.389   6.007 -0.3127  0.9281  0.0055
  675MOL0     H93096   8.649   2.533   6.097 -0.6070 -1.4616  0.9991
  675MOL0     H93097   8.756   2.480   5.809  1.5148  0.0866 -0.0713
  675MOL0     H93098   8.819   2.588   5.924  0.7826 -1.1610  1.5318
  675MOL0     H93099   9.042   2.473   5.862  1.3686 -0.7142 -0.6398
  675MOL0     H93100   9.203   2.221   5.872 -1.3261  0.0082 -0.1825
  675MOL0     H93101   9.197   2.149   6.032 -3.4530  0.5218  1.4771
  675MOL0     H93102   9.261   2.434   6.080 -0.1515 -0.4894  0.9884
  675MOL0     H93103   9.361   2.290   6.098 -1.6982 -0.3866  0.8014
  675MOL0     H93104   9.440   2.336   5.860 -1.0299 -2.1483  0.7871
  675MOL0     H93105   9.310   2.443   5.830  2.3387 -0.5015 -2.6066
  675MOL0     H93106   9.542   2.477   6.033 -0.7745 -0.0568 -0.3186
  675MOL0     H93107   9.559   2.513   5.866 -0.1416 -2.6233 -0.1257
  675MOL0     H93108   9.606   2.721   5.798  0.7993  1.4248 -0.6041
  675MOL0     H93109   9.783   2.831   5.705 -0.4749  3.1530 -1.6069
  675MOL0     H93110   9.902   2.825   5.820  0.2732  0.1343 -1.7741
  675MOL0     H93111   9.822   2.985   5.763 -2.2094  1.8318  3.2976
  675MOL0     H93112   9.862   3.362   6.004 -0.0376 -2.7823 -0.4839
  675MOL0     H93113  10.026   3.522   6.095 -2.2378  0.3988 -0.1555
  675MOL0     H93114  10.208   3.580   6.194  0.0021 -2.6033  1.4182
  675MOL0     H93115  10.091   3.708   6.245  2.1673  1.4625 -0.9102
  675MOL0     H93116  10.219   3.732   6.458 -1.2671 -2.3940 -0.3537
  675MOL0     H93117  10.359   3.663   6.371  1.2336  2.3069 -0.5305
  675MOL0     H93118  10.193   3.900   6.289 -1.6365 -2.4144 -0.3078
  675MOL0     H93119  10.335   3.832   6.200 -1.8467  0.6143 -0.0857
  675MOL0     H93120  10.487   3.874   6.364 -1.0026 -3.4082 -1.5147
  675MOL0     H93121  10.371   3.949   6.470  0.5269 -1.5399  0.0822
  675MOL0     H93122  10.446   4.050   6.196  0.2862 -1.2027 -0.0729
  675MOL0     H93123  10.327   4.132   6.289  0.4316  0.4876  0.9358
  675MOL0     H93124  10.486   4.219   6.465 -0.5860  2.0787 -0.9095
  675MOL0     H93125  10.541   4.254   6.312 -1.8168  0.3011  0.0550
  675MOL0     H93126  10.683   4.035   6.308 -1.0091  3.8670 -1.4742
  675MOL0     H93127  10.626   4.000   6.473  0.7463  0.6205  0.5136
  675MOL0     H93128  10.775   4.263   6.413 -0.6426  0.5186 -0.1022
  675MOL0     H93129  10.843   4.110   6.479 -0.4037  1.1358  3.3977
  675MOL0     H93130   9.952   3.366   6.491  1.4103  0.1999 -0.9847
  675MOL0     H93131   9.780   3.204   6.395 -2.8243  0.7542 -0.1992
  675MOL0     H93132   9.540   3.003   6.189  0.0353 -3.3895  2.1333
  675MOL0     H93133   9.409   2.829   6.160  0.7545  2.8340  1.6867
  675MOL0     H93134   7.783   2.522   5.725 -1.2320 -2.7669 -1.4361
  675MOL0     H93135   7.569   2.606   5.684 -0.7229 -3.6439 -1.4397
  675MOL0     H93136   7.140   2.392   5.579  2.4299  3.4471  0.3617
  675MOL0     H93137   6.900   2.415   5.526  1.4928 -0.0781 -0.8046
  675MOL0     H93138   6.739   2.572   5.456 -1.0626 -2.2906 -2.1693
  675MOL0     H93139   6.644   2.435   5.536 -2.4499  0.0229  0.4560
  675MOL0     H93140   6.469   2.565   5.575 -0.4317  0.6216 -0.4519
  675MOL0     H93141   6.511   2.575   5.402  4.2441  2.0618 -2.1669
  675MOL0     H93142   6.596   2.790   5.598  0.6655 -1.7111 -0.0163
  675MOL0     H93143   6.614   2.788   5.423  0.5323 -0.6521  0.9036
  675MOL0     H93144   6.331   2.799   5.569 -0.1395  1.8949  0.0428
  675MOL0     H93145   6.362   2.788   5.396 -1.2938 -0.5918 -0.0303
  675MOL0     H93146   6.446   3.196   5.447 -0.9072  0.9072  1.9732
  675MOL0     H93147   6.867   2.677   5.869  2.0386  0.5493  0.3864
  675MOL0     H93148   7.155   2.548   6.014  1.2820  0.8978  0.8574
  675MOL0     H93149   7.145   2.728   5.959 -2.2674  0.9659  0.4612
  675MOL0     H93150   7.012   2.644   6.032 -1.0662  1.4228 -1.3024
  676MOL0     O93151  11.138   6.189   0.105 -0.1941  0.0364  0.5841
  676MOL0     C93152  11.094   6.182  -0.015  0.1064  0.1183  0.5946
  676MOL0     O93153  11.173   6.183  -0.136  0.1053 -0.1950 -0.4202
  676MOL0     C93154  11.297   6.133  -0.131 -0.5209 -0.2446  0.3623
  676MOL0     C93155  11.411   6.197  -0.078  0.6632  0.8344  0.1666
  676MOL0     C93156  11.535   6.131  -0.083  0.0369 -0.4075  0.1302
  676MOL0     C93157  11.551   6.004  -0.137 -0.2077 -0.4056 -0.6054
  676MOL0     O93158  11.679   5.972  -0.139  0.8556 -0.0769  0.6354
  676MOL0     C93159  11.707   5.839  -0.187  0.2233 -0.6306 -0.8815
  676MOL0     C93160  11.855   5.814  -0.206  0.2306 -0.3141  1.7608
  676MOL0     C93161  11.916   5.798  -0.067 -0.6170  0.3661 -0.0144
  676MOL0     C93162  12.064   5.772  -0.067 -0.2212 -0.0939 -0.3300
  676MOL0     C93163  12.130   5.739   0.065  0.0311 -0.6072 -0.0332
  676MOL0     C93164  12.061   5.624   0.143 -0.3571 -0.3379 -0.4422
  676MOL0     C93165  12.153   5.576   0.261  0.2113 -0.2008  0.4186
  676MOL0     C93166  12.092   5.469   0.346  0.1725  0.2485 -0.1540
  676MOL0     N93167  12.207   5.412   0.422  0.1740 -0.4419  0.4809
  676MOL0     C93168  12.315   5.344   0.369  0.0039 -0.0581 -0.4086
  676MOL0     C93169  12.395   5.320   0.473 -0.9202 -0.5144 -0.0131
  676MOL0     C93170  12.526   5.239   0.463  0.4341 -0.0442 -0.3699
  676MOL0     C93171  12.654   5.288   0.528 -0.0619 -0.9009 -0.4331
  676MOL0     C93172  12.655   5.258   0.681  0.0941 -0.3685 -0.2948
  676MOL0     C93173  12.779   5.311   0.752 -0.3222 -0.5036 -0.5335
  676MOL0     O93174  12.897   5.251   0.691 -0.6022  0.4456  0.0514
  676MOL0     C93175  13.018   5.283   0.755 -0.1946  0.1796 -0.6195
  676MOL0     C93176  13.034   5.394   0.837  0.8400 -0.1768 -0.3588
  676MOL0     C93177  13.152   5.429   0.899 -0.7383 -1.3626  0.6317
  676MOL0     C93178  13.146   5.563   0.973 -0.2924  0.6312  0.1711
  676MOL0     C93179  13.270   5.358   0.867  0.3050  0.4410 -0.6797
  676MOL0     C93180  13.408   5.380   0.911 -0.8015 -0.1592 -0.4118
  676MOL0     O93181  13.506   5.300   0.854 -0.0144 -0.1566 -0.3666
  676MOL0     C93182  13.633   5.331   0.855 -1.3962  0.1659  0.0760
  676MOL0     C93183  13.685   5.465   0.837 -0.1966 -0.0410  0.5201
  676MOL0     C93184  13.817   5.485   0.814  0.0152  0.0378 -0.6936
  676MOL0     C93185  13.912   5.382   0.824 -0.4896  0.6625  0.3310
  676MOL0     O93186  14.050   5.416   0.810 -0.1134  0.1032  0.3620
  676MOL0     C93187  14.159   5.337   0.860  0.2255  0.0352  0.6432
  676MOL0     C93188  14.288   5.412   0.826  0.4633  0.1099  0.6338
  676MOL0     C93189  14.295   5.408   0.675  0.8724 -0.3157 -0.6746
  676MOL0     C93190  14.404   5.506   0.632 -0.6466 -0.0288  0.1384
  676MOL0     C93191  14.422   5.509   0.475 -0.0263 -0.2753  0.9409
  676MOL0     C93192  14.454   5.370   0.432  0.4859 -0.7513  0.9393
  676MOL0     C93193  14.545   5.361   0.313  1.0539  0.0851 -0.0368
  676MOL0     C93194  14.600   5.227   0.277 -0.0067  1.0357 -0.1711
  676MOL0    Cl93195  14.696   5.247   0.134 -0.2516 -0.1653 -0.2569
  676MOL0     C93196  13.869   5.247   0.846 -0.2408 -1.3911 -0.2123
  676MOL0     C93197  13.734   5.230   0.865  0.1865  0.1180  0.3017
  676MOL0     O93198  13.429   5.467   0.993  0.0172 -0.0271 -0.0651
  676MOL0     C93199  13.252   5.250   0.782 -0.9866  1.0698  0.3592
  676MOL0     C93200  13.137   5.207   0.723 -0.1411 -0.5093 -0.4413
  676MOL0     N93201  12.346   5.378   0.583 -0.5568 -0.3374 -0.2872
  676MOL0     N93202  12.234   5.431   0.555 -0.1515 -0.3350 -0.6248
  676MOL0     C93203  11.434   5.938  -0.178 -0.5288 -0.5059  0.1515
  676MOL0     C93204  11.309   6.001  -0.174  0.4776 -1.1619 -0.2943
  676MOL0     C93205  10.947   6.193  -0.033 -0.1513 -0.2489  0.4239
  676MOL0     C93206  10.890   6.274  -0.131  0.1605 -0.7358 -0.2493
  676MOL0     C93207  10.750   6.259  -0.161 -1.0157 -0.2494  0.7784
  676MOL0     C93208  10.661   6.172  -0.102  0.4362 -0.6797  0.0816
  676MOL0     O93209  10.527   6.154  -0.135  0.7056 -0.2195  0.6882
  676MOL0     C93210  10.435   6.066  -0.053  0.4916 -0.5639  0.5967
  676MOL0     C93211  10.282   6.104  -0.077 -0.2581  0.2557 -0.0774
  676MOL0     C93212  10.258   6.161  -0.219  0.4656  0.5976  0.5294
  676MOL0     C93213  10.109   6.181  -0.245  0.5381  0.5278 -0.3643
  676MOL0     C93214  10.045   6.055  -0.263 -0.3499  0.0694  0.5437
  676MOL0     C93215   9.985   5.951  -0.283 -0.1126  0.1581 -0.2239
  676MOL0     C93216  10.725   6.101   0.004  0.0986 -1.1304  0.0472
  676MOL0     C93217  10.855   6.115   0.046 -0.3524  0.3949 -0.5151
  676MOL0     C93218  10.897   6.015   0.150 -0.2535  0.5750 -0.2604
  676MOL0     H93219  11.410   6.296  -0.034  0.3063  0.2428  1.5463
  676MOL0     H93220  11.614   6.195  -0.044 -2.9446  3.3703  0.6059
  676MOL0     H93221  11.661   5.821  -0.285 -1.5727  0.6023 -0.3092
  676MOL0     H93222  11.669   5.765  -0.115  1.4333  0.0777  0.5302
  676MOL0     H93223  11.880   5.720  -0.256 -1.1027 -1.0281  2.3721
  676MOL0     H93224  11.894   5.897  -0.265 -0.8039  0.9846  2.8478
  676MOL0     H93225  11.894   5.894  -0.018 -1.6416  0.9547 -1.5580
  676MOL0     H93226  11.864   5.715  -0.018 -2.0577  0.6353 -1.0257
  676MOL0     H93227  12.090   5.696  -0.141  0.9060 -1.0026  0.9200
  676MOL0     H93228  12.106   5.867  -0.099  1.9792 -1.0048 -0.3590
  676MOL0     H93229  12.145   5.834   0.117  0.3457  0.5181 -2.0896
  676MOL0     H93230  12.232   5.709   0.041 -0.4658 -1.1432 -1.5735
  676MOL0     H93231  11.973   5.669   0.189  1.0186  0.4717  1.5833
  676MOL0     H93232  12.047   5.542   0.072  1.9983 -1.1739 -0.0489
  676MOL0     H93233  12.187   5.657   0.326 -1.7369  1.3416 -0.3545
  676MOL0     H93234  12.235   5.534   0.203 -1.0674 -0.9548 -0.9275
  676MOL0     H93235  12.011   5.519   0.401  0.0229 -0.2072  0.0463
  676MOL0     H93236  12.048   5.386   0.292  2.2290 -3.1675  2.9480
  676MOL0     H93237  12.334   5.308   0.269  1.3625  0.0660 -0.2095
  676MOL0     H93238  12.539   5.224   0.356 -0.3702 -1.9723 -0.2439
  676MOL0     H93239  12.499   5.138   0.496 -0.0904  0.0678 -0.4386
  676MOL0     H93240  12.737   5.239   0.476 -0.6881 -1.7412 -0.6605
  676MOL0     H93241  12.665   5.396   0.510 -1.7314 -0.5519  0.4179
  676MOL0     H93242  12.569   5.289   0.741  0.5237  2.3852 -0.9629
  676MOL0     H93243  12.654   5.148   0.681  2.5560 -0.4528  0.9984
  676MOL0     H93244  12.778   5.419   0.734  1.0980 -0.4299 -0.2949
  676MOL0     H93245  12.771   5.296   0.860  2.1012  0.1345 -0.2130
  676MOL0     H93246  12.944   5.447   0.867 -0.2609 -3.0659  2.0395
  676MOL0     H93247  13.147   5.647   0.903  0.8424  0.8624  0.4435
  676MOL0     H93248  13.232   5.575   1.039  0.2318 -1.0206 -0.1673
  676MOL0     H93249  13.063   5.567   1.043 -0.0831 -2.6855  0.7642
  676MOL0     H93250  13.616   5.548   0.822 -0.0692 -0.4533 -3.5361
  676MOL0     H93251  13.856   5.580   0.779  0.4726 -0.3800 -1.3475
  676MOL0     H93252  14.141   5.335   0.968  2.0232 -1.5581  0.9670
  676MOL0     H93253  14.169   5.241   0.809  0.4827  1.1178 -1.4480
  676MOL0     H93254  14.281   5.513   0.868  2.4018 -0.5890  2.8330
  676MOL0     H93255  14.367   5.351   0.873 -1.3949 -0.3507  3.3949
  676MOL0     H93256  14.212   5.443   0.613  1.4386  0.2130 -1.1470
  676MOL0     H93257  14.318   5.305   0.647  0.0779 -1.1433  1.4584
  676MOL0     H93258  14.504   5.490   0.674 -0.7480 -2.5635 -0.4296
  676MOL0     H93259  14.381   5.608   0.665 -1.2922  0.2526 -1.1310
  676MOL0     H93260  14.336   5.552   0.423 -0.2107 -2.7858 -1.0495
  676MOL0     H93261  14.513   5.565   0.448  0.3437 -1.5732 -0.6520
  676MOL0     H93262  14.369   5.303   0.421 -0.1220 -0.6253  3.9370
  676MOL0     H93263  14.517   5.324   0.508  3.3297 -0.3866 -1.0245
  676MOL0     H93264  14.629   5.427   0.335  1.8042  0.5201 -3.5971
  676MOL0     H93265  14.493   5.412   0.231 -0.4153 -0.0479  0.7662
  676MOL0     H93266  14.521   5.154   0.256  2.1844 -1.9362  1.1609
  676MOL0     H93267  14.658   5.178   0.356 -1.3507 -0.3709 -0.0112
  676MOL0     H93268  13.939   5.165   0.857  1.8344  0.5007  1.9536
  676MOL0     H93269  13.703   5.129   0.890 -2.1549  0.4712 -0.8864
  676MOL0     H93270  13.343   5.198   0.754 -0.7599  0.7870  1.5874
  676MOL0     H93271  13.148   5.134   0.643 -1.4775 -2.4079  1.0089
  676MOL0     H93272  11.440   5.834  -0.207 -0.2981 -0.2014 -0.9400
  676MOL0     H93273  11.227   5.951  -0.226  1.0893 -1.0743 -1.3649
  676MOL0     H93274  10.949   6.342  -0.192 -0.3609 -0.5706 -0.5761
  676MOL0     H93275  10.710   6.332  -0.231  0.8356  2.5201  2.4062
  676MOL0     H93276  10.435   5.962  -0.085 -1.3856  0.0818 -1.7839
  676MOL0     H93277  10.448   6.081   0.055 -2.5022 -2.4523  1.3334
  676MOL0     H93278  10.266   6.190  -0.011  2.5833  0.4221  0.5290
  676MOL0     H93279  10.222   6.016  -0.052  0.3991  0.2000  1.3905
  676MOL0     H93280  10.293   6.264  -0.234 -0.7781  0.9884  0.2243
  676MOL0     H93281  10.299   6.097  -0.298 -1.2210  1.6703 -1.2805
  676MOL0     H93282  10.088   6.254  -0.324 -1.2641  1.4292  0.9045
  676MOL0     H93283  10.059   6.220  -0.156 -1.0183 -1.0501 -0.5018
  676MOL0     H93284   9.937   5.858  -0.303  2.0615 -0.7925 -1.4158
  676MOL0     H93285  10.666   6.041   0.073 -1.7792 -1.1227 -1.4868
  676MOL0     H93286  10.837   5.926   0.172 -1.5663  1.8490  1.5319
  676MOL0     H93287  10.996   5.973   0.128  0.7541  0.5194  3.6053
  676MOL0     H93288  10.883   6.069   0.244 -1.4563  3.7729 -2.1306
  677MOL0     O93289   9.448   5.497   4.204 -0.3804  0.1914 -0.0463
  677MOL0     C93290   9.384   5.595   4.181 -0.1200 -0.4518  1.2558
  677MOL0     O93291   9.425   5.683   4.088  0.3681  0.7464 -0.4446
  677MOL0     C93292   9.532   5.669   4.009  0.3722 -0.1920  0.8606
  677MOL0     C93293   9.609   5.551   3.988 -0.3848 -0.3313  0.4218
  677MOL0     C93294   9.719   5.552   3.911  0.2054 -0.1225 -0.5684
  677MOL0     C93295   9.757   5.673   3.853 -0.2315  0.8937  0.3077
  677MOL0     O93296   9.869   5.674   3.776  0.8077  0.6975  0.0556
  677MOL0     C93297   9.973   5.589   3.821  0.3854  0.3565  0.4439
  677MOL0     C93298  10.098   5.646   3.739  0.0206  0.4302 -0.2683
  677MOL0     C93299  10.126   5.793   3.787 -0.3459 -0.3049 -0.5169
  677MOL0     C93300  10.227   5.862   3.706  0.4128 -0.1296  0.6373
  677MOL0     C93301  10.224   6.016   3.733  0.3308  0.0879  0.3148
  677MOL0     C93302  10.307   6.092   3.627 -0.0771 -0.0043  0.5006
  677MOL0     C93303  10.324   6.244   3.661 -0.5473  0.1891  0.5008
  677MOL0     C93304  10.411   6.316   3.555 -0.5309 -0.8996 -0.3352
  677MOL0     N93305  10.552   6.272   3.535  0.0581  0.2488  0.5344
  677MOL0     C93306  10.660   6.356   3.558  0.0706 -0.1742 -0.7273
  677MOL0     C93307  10.769   6.281   3.556 -0.0484 -0.1186 -0.3670
  677MOL0     C93308  10.910   6.331   3.584  0.5664 -0.5210  0.8669
  677MOL0     C93309  10.943   6.404   3.461  0.0280 -0.5313  0.5113
  677MOL0     C93310  11.086   6.441   3.441  0.1910 -0.0150  0.2301
  677MOL0     C93311  11.183   6.318   3.431  0.0444  0.2880  0.1903
  677MOL0     O93312  11.316   6.363   3.394  0.7253  0.2920  0.1963
  677MOL0     C93313  11.409   6.269   3.356 -0.3479 -1.2932  0.3082
  677MOL0     C93314  11.388   6.141   3.307  0.7374  0.7355 -0.0804
  677MOL0     C93315  11.490   6.065   3.253 -0.6304 -0.7372 -0.4887
  677MOL0     C93316  11.454   5.925   3.214  0.6119  0.2812 -0.1498
  677MOL0     C93317  11.624   6.122   3.237 -0.8368  1.0520 -0.3409
  677MOL0     C93318  11.746   6.037   3.192 -0.0293  0.2181  0.5722
  677MOL0     O93319  11.874   6.094   3.204 -1.0791  0.1687 -0.3133
  677MOL0     C93320  11.993   6.028   3.173  0.2530  0.4864  0.3198
  677MOL0     C93321  12.014   5.885   3.163  0.0286 -0.2819 -0.0870
  677MOL0     C93322  12.136   5.828   3.140 -0.1857 -0.2288 -0.5090
  677MOL0     C93323  12.242   5.914   3.101  0.4896  0.2448  0.6107
  677MOL0     O93324  12.364   5.869   3.073 -0.7716 -0.1204 -0.4559
  677MOL0     C93325  12.420   5.775   3.165  0.1894 -0.1867 -0.5786
  677MOL0     C93326  12.561   5.810   3.210 -0.2935  0.3242  0.2203
  677MOL0     C93327  12.664   5.793   3.089 -0.0151  0.2036  0.5997
  677MOL0     C93328  12.813   5.796   3.143 -0.4353 -0.2634 -0.4230
  677MOL0     C93329  12.909   5.759   3.020 -0.0135 -0.2567 -0.9798
  677MOL0     C93330  13.054   5.766   3.057 -0.4585  0.0717 -0.0229
  677MOL0     C93331  13.096   5.684   3.173 -0.2171  0.0735  0.6215
  677MOL0     C93332  13.241   5.707   3.209 -0.0516 -0.6314 -0.5234
  677MOL0    Cl93333  13.317   5.863   3.168 -0.1798  0.2287 -0.5002
  677MOL0     C93334  12.219   6.049   3.098  0.2068  0.0524 -0.6530
  677MOL0     C93335  12.105   6.107   3.138  0.1603 -0.0623 -0.4024
  677MOL0     O93336  11.724   5.935   3.129  0.0658  1.0365  0.2521
  677MOL0     C93337  11.641   6.249   3.296  0.0774 -0.3340  0.8852
  677MOL0     C93338  11.540   6.322   3.357  0.4670 -0.6206  0.7714
  677MOL0     N93339  10.737   6.153   3.522 -0.2631  0.5665  0.0067
  677MOL0     N93340  10.602   6.146   3.515  0.2287 -0.0956 -0.5455
  677MOL0     C93341   9.687   5.791   3.874 -0.4021 -0.4449  0.6131
  677MOL0     C93342   9.562   5.787   3.938 -0.7502  0.4030  0.2123
  677MOL0     C93343   9.265   5.618   4.261  0.1392  0.6757  0.7561
  677MOL0     C93344   9.221   5.754   4.270  0.5413  0.3406  0.9200
  677MOL0     C93345   9.115   5.792   4.348 -0.1964 -0.7212 -0.0642
  677MOL0     C93346   9.043   5.700   4.411 -0.0053 -0.6087 -0.6760
  677MOL0     O93347   8.947   5.728   4.501  0.4380 -0.0553  0.1373
  677MOL0     C93348   8.887   5.855   4.506  0.2464  0.0005 -1.2767
  677MOL0     C93349   8.769   5.850   4.414 -0.8233 -0.4098 -0.0657
  677MOL0     C93350   8.691   5.714   4.416  0.3365  0.1402 -0.7170
  677MOL0     C93351   8.550   5.737   4.353 -0.3846 -0.5495  0.0377
  677MOL0     C93352   8.445   5.796   4.433 -0.6122  0.0558 -1.4326
  677MOL0     C93353   8.374   5.844   4.520  0.2969 -0.0618  0.2722
  677MOL0     C93354   9.080   5.565   4.401  0.1310  0.8517 -0.2944
  677MOL0     C93355   9.193   5.516   4.324  0.1294 -0.3037 -0.1247
  677MOL0     C93356   9.222   5.367   4.294  0.4393 -1.0156  0.3130
  677MOL0     H93357   9.570   5.454   4.019 -0.1625 -1.1724 -1.7191
  677MOL0     H93358   9.776   5.461   3.896  0.6070  0.3083 -1.7713
  677MOL0     H93359   9.950   5.485   3.800  1.9171  0.0331  0.2754
  677MOL0     H93360   9.989   5.602   3.929 -0.3175  0.7752  0.5006
  677MOL0     H93361  10.188   5.589   3.764  0.9631  0.5163 -3.1079
  677MOL0     H93362  10.085   5.637   3.631  4.3894 -0.9306 -0.8671
  677MOL0     H93363  10.034   5.851   3.792 -0.6558 -0.6872 -1.6918
  677MOL0     H93364  10.155   5.792   3.893  0.8523  2.4429 -0.7340
  677MOL0     H93365  10.322   5.818   3.739  0.2927 -0.0159  1.1372
  677MOL0     H93366  10.207   5.838   3.601  1.6004  1.3677  0.0330
  677MOL0     H93367  10.267   6.039   3.831  0.7836 -2.8034  0.8877
  677MOL0     H93368  10.119   6.044   3.728 -0.3165 -2.2456 -0.3951
  677MOL0     H93369  10.411   6.057   3.636  0.4470  1.7360  1.7765
  677MOL0     H93370  10.271   6.079   3.525 -0.7802  2.6912  0.3454
  677MOL0     H93371  10.378   6.251   3.755 -0.3051  2.3917  0.2541
  677MOL0     H93372  10.229   6.298   3.661 -1.5309 -1.4888  1.0138
  677MOL0     H93373  10.361   6.317   3.457  0.1303  0.2921 -0.6851
  677MOL0     H93374  10.412   6.422   3.579  0.6786 -1.2650  1.4463
  677MOL0     H93375  10.655   6.462   3.583  0.4173 -0.3400  0.0737
  677MOL0     H93376  10.970   6.240   3.589 -2.7098 -2.9689 -0.3589
  677MOL0     H93377  10.911   6.397   3.670  1.2994 -0.3468  0.7287
  677MOL0     H93378  10.920   6.342   3.374  2.2496 -0.8440  0.0871
  677MOL0     H93379  10.881   6.494   3.457  1.3450  0.3949  0.2894
  677MOL0     H93380  11.087   6.494   3.345 -2.7164 -1.3605 -0.6417
  677MOL0     H93381  11.107   6.511   3.523 -2.3629  0.8418  0.2571
  677MOL0     H93382  11.198   6.258   3.520  2.7834 -3.0321 -2.2295
  677MOL0     H93383  11.142   6.255   3.352  2.1524 -0.8175 -0.0923
  677MOL0     H93384  11.289   6.097   3.305  0.6176  0.7521 -4.2037
  677MOL0     H93385  11.504   5.850   3.276 -2.9799 -2.9638 -0.7994
  677MOL0     H93386  11.466   5.898   3.108  1.3655 -0.4749  0.1178
  677MOL0     H93387  11.352   5.904   3.248  0.6006 -1.6229 -1.2017
  677MOL0     H93388  11.931   5.819   3.188  1.2635 -1.3446  1.3500
  677MOL0     H93389  12.155   5.724   3.164 -1.3079 -0.1992  0.5786
  677MOL0     H93390  12.360   5.759   3.256  0.2752 -0.1045 -0.5071
  677MOL0     H93391  12.419   5.673   3.125 -1.5259 -0.8732  1.0424
  677MOL0     H93392  12.561   5.915   3.240 -0.5108  0.8097 -1.3632
  677MOL0     H93393  12.587   5.742   3.291 -0.9862  1.7860  1.7374
  677MOL0     H93394  12.646   5.869   3.012 -1.7969 -0.6389  0.1257
  677MOL0     H93395  12.638   5.701   3.037 -0.7009  1.1668 -0.8429
  677MOL0     H93396  12.816   5.729   3.229 -3.8504 -0.0949 -0.0404
  677MOL0     H93397  12.830   5.892   3.191  0.3701 -1.6153  2.1883
  677MOL0     H93398  12.891   5.660   2.977  1.4342 -1.0539  0.1508
  677MOL0     H93399  12.885   5.828   2.938 -2.3084  1.6626  1.1666
  677MOL0     H93400  13.069   5.868   3.093  0.7055 -0.7650  1.9999
  677MOL0     H93401  13.127   5.736   2.981 -0.3850 -0.2754  0.1852
  677MOL0     H93402  13.073   5.578   3.158 -1.0408  0.3196  0.0705
  677MOL0     H93403  13.036   5.714   3.260 -2.0950  0.2429 -0.6689
  677MOL0     H93404  13.299   5.626   3.165 -1.2770 -1.2528 -1.0550
  677MOL0     H93405  13.240   5.686   3.317 -0.9428 -1.6371 -0.7038
  677MOL0     H93406  12.294   6.124   3.075 -0.0521  0.6739  0.4226
  677MOL0     H93407  12.098   6.215   3.135 -2.8947 -0.0377  2.2231
  677MOL0     H93408  11.739   6.295   3.301  0.9253 -2.1305  1.8741
  677MOL0     H93409  11.549   6.420   3.403  1.8671 -0.3241 -0.0789
  677MOL0     H93410   9.714   5.877   3.814  2.3829 -0.9786  0.9828
  677MOL0     H93411   9.495   5.872   3.948 -2.8878 -1.4053  2.6315
  677MOL0     H93412   9.277   5.826   4.210 -1.2078  0.2606 -0.9393
  677MOL0     H93413   9.096   5.899   4.354 -3.6692 -1.1058 -1.4227
  677MOL0     H93414   8.858   5.864   4.611  3.4260 -1.4910 -0.1224
  677MOL0     H93415   8.954   5.941   4.502 -0.2396  0.5973  1.3572
  677MOL0     H93416   8.796   5.880   4.312  0.1734 -0.2113  0.2445
  677MOL0     H93417   8.700   5.930   4.443 -0.0177  0.8338 -1.4402
  677MOL0     H93418   8.742   5.644   4.350  1.0162  2.1747 -2.4775
  677MOL0     H93419   8.666   5.667   4.512 -1.3757 -1.9890 -2.1406
  677MOL0     H93420   8.522   5.639   4.315  0.6976 -0.5118 -0.9014
  677MOL0     H93421   8.553   5.799   4.263  1.2410 -0.3684  0.1774
  677MOL0     H93422   8.317   5.882   4.602 -0.2901  0.6385 -0.4403
  677MOL0     H93423   9.010   5.497   4.448 -1.4935 -0.5194 -4.3002
  677MOL0     H93424   9.135   5.309   4.327 -1.4152  1.8262  0.8233
  677MOL0     H93425   9.245   5.343   4.190  3.6131 -0.2536  0.7343
  677MOL0     H93426   9.315   5.354   4.350 -0.0292 -2.4701  0.7833
  678MOL0     O93427   7.627   7.984   3.082  0.2491  0.2770 -0.0932
  678MOL0     C93428   7.595   7.886   3.014  1.0401 -0.4762  0.0256
  678MOL0     O93429   7.668   7.771   2.992 -0.0279 -0.7160 -0.2983
  678MOL0     C93430   7.805   7.757   3.000  0.1337 -0.4909 -0.5127
  678MOL0     C93431   7.899   7.863   3.031 -0.2671  1.8998 -0.8476
  678MOL0     C93432   8.032   7.824   3.071  0.7526  0.4530  0.1953
  678MOL0     C93433   8.077   7.692   3.059  1.1626  0.1752 -0.4678
  678MOL0     O93434   8.204   7.656   3.085 -0.0258  0.4917 -0.4855
  678MOL0     C93435   8.302   7.710   3.003 -0.1363 -0.1053  0.5300
  678MOL0     C93436   8.403   7.802   3.076 -0.0879 -0.3869  0.1117
  678MOL0     C93437   8.522   7.848   2.985 -0.3644  0.4556 -0.2059
  678MOL0     C93438   8.571   7.989   3.012 -0.3210 -0.5393  0.6920
  678MOL0     C93439   8.719   8.006   2.954 -0.3144  0.8139  0.0426
  678MOL0     C93440   8.714   8.102   2.831 -0.2284  0.1716 -0.6557
  678MOL0     C93441   8.856   8.119   2.767 -0.0922  0.1636  0.0796
  678MOL0     C93442   8.841   8.200   2.644  0.3163  0.9842  0.3371
  678MOL0     N93443   8.973   8.250   2.615 -0.0683  0.2157  1.3906
  678MOL0     C93444   9.028   8.362   2.656 -0.1599 -0.8284 -0.1968
  678MOL0     C93445   9.147   8.373   2.579  0.1790 -0.2553  0.7109
  678MOL0     C93446   9.240   8.485   2.583  0.0021 -0.5041  0.0127
  678MOL0     C93447   9.380   8.438   2.571  0.4250 -0.7578 -0.0104
  678MOL0     C93448   9.482   8.553   2.555  0.4214  0.7876  0.3523
  678MOL0     C93449   9.617   8.499   2.512 -0.0264  0.4427 -0.0708
  678MOL0     O93450   9.639   8.526   2.371  0.2002  0.5538 -0.5655
  678MOL0     C93451   9.765   8.502   2.324  0.9798 -0.2802  0.4223
  678MOL0     C93452   9.853   8.408   2.377  0.8967 -0.2052  0.5158
  678MOL0     C93453   9.982   8.396   2.341  0.4073 -0.4678  0.3079
  678MOL0     C93454  10.063   8.279   2.407  0.4084 -0.4227  0.4569
  678MOL0     C93455  10.035   8.484   2.243 -0.1003  0.4887 -0.5367
  678MOL0     C93456  10.185   8.494   2.221 -0.4517  0.0335 -0.2609
  678MOL0     O93457  10.270   8.393   2.272 -0.1724  0.2878  0.0660
  678MOL0     C93458  10.403   8.424   2.274  0.8777 -0.0601  0.0347
  678MOL0     C93459  10.492   8.469   2.173 -0.3733  0.6551  0.2017
  678MOL0     C93460  10.626   8.507   2.200 -0.2421  0.1664 -0.0248
  678MOL0     C93461  10.678   8.488   2.323  0.5302  0.0635 -0.1984
  678MOL0     O93462  10.809   8.510   2.362  0.5079 -0.4119 -0.5572
  678MOL0     C93463  10.913   8.518   2.271 -0.7536 -0.2342  0.1004
  678MOL0     C93464  11.031   8.588   2.333  0.9808 -0.2160 -0.1658
  678MOL0     C93465  11.100   8.500   2.444 -0.2710 -0.2220 -0.2404
  678MOL0     C93466  11.211   8.578   2.524 -0.1266 -0.3536  0.5622
  678MOL0     C93467  11.256   8.503   2.652  0.5374 -0.0395 -0.4688
  678MOL0     C93468  11.164   8.554   2.777  0.7014 -0.8150  0.3890
  678MOL0     C93469  11.198   8.511   2.912 -0.0941 -0.4276 -0.3201
  678MOL0     C93470  11.150   8.367   2.942 -0.0843 -0.3196  0.1395
  678MOL0    Cl93471  11.191   8.289   3.103 -0.2811  0.3583 -0.0093
  678MOL0     C93472  10.595   8.460   2.429  0.1372 -0.4293  0.6490
  678MOL0     C93473  10.455   8.426   2.405 -0.1933  0.4042 -0.5903
  678MOL0     O93474  10.224   8.593   2.159 -0.2400 -1.1968 -0.0972
  678MOL0     C93475   9.945   8.582   2.189 -0.0156 -0.5787  0.0447
  678MOL0     C93476   9.809   8.586   2.225 -0.6011  0.3671  0.1822
  678MOL0     N93477   9.151   8.265   2.494 -0.7501  0.4743  0.0486
  678MOL0     N93478   9.053   8.195   2.523 -0.1882 -0.8841  0.2768
  678MOL0     C93479   7.985   7.599   3.032 -0.6036  0.3670  0.4929
  678MOL0     C93480   7.854   7.623   2.999  0.2832 -0.0742  0.0810
  678MOL0     C93481   7.460   7.881   2.966  0.0812  0.3820  0.2326
  678MOL0     C93482   7.417   7.994   2.895 -0.6206  0.5281  0.2041
  678MOL0     C93483   7.294   7.993   2.829 -0.5678 -0.1044  0.7128
  678MOL0     C93484   7.223   7.879   2.813  0.2715  1.0843 -0.0101
  678MOL0     O93485   7.114   7.890   2.730 -0.0018  0.0807 -0.2914
  678MOL0     C93486   6.995   7.820   2.768 -0.2263 -0.1579  0.5017
  678MOL0     C93487   6.943   7.721   2.664  0.2761  0.2504 -0.6781
  678MOL0     C93488   6.834   7.638   2.723 -0.2581  0.4204  0.8529
  678MOL0     C93489   6.779   7.529   2.626  0.7559  0.2897 -0.6920
  678MOL0     C93490   6.699   7.588   2.521 -0.2880 -0.0353 -0.1131
  678MOL0     C93491   6.622   7.620   2.431  0.3001  0.6148  0.5953
  678MOL0     C93492   7.258   7.767   2.891 -1.0935  0.7292 -0.8523
  678MOL0     C93493   7.385   7.757   2.964  0.4597 -1.0442 -0.6005
  678MOL0     C93494   7.418   7.622   3.021 -0.6440  0.2559 -0.2113
  678MOL0     H93495   7.883   7.970   3.029 -1.6664  1.9555  3.2772
  678MOL0     H93496   8.099   7.897   3.116 -2.3486  2.4077  2.0348
  678MOL0     H93497   8.259   7.759   2.915 -2.2609  0.1587  1.6548
  678MOL0     H93498   8.357   7.624   2.965  0.1546 -0.3585  1.5009
  678MOL0     H93499   8.346   7.891   3.105  0.7465 -0.1157  0.9626
  678MOL0     H93500   8.436   7.748   3.165  1.7017 -0.6712 -0.6690
  678MOL0     H93501   8.594   7.767   2.996 -1.2623 -0.7530 -2.4955
  678MOL0     H93502   8.493   7.843   2.879 -0.6652 -0.0585 -0.1057
  678MOL0     H93503   8.499   8.069   2.989 -1.7850 -2.1436 -0.5211
  678MOL0     H93504   8.577   7.999   3.121  0.2416 -1.5292  0.7596
  678MOL0     H93505   8.751   7.906   2.922 -1.4254  0.0411  1.2512
  678MOL0     H93506   8.786   8.023   3.039 -0.5895 -0.9856  0.6583
  678MOL0     H93507   8.642   8.062   2.760  0.4686 -0.1413 -1.1995
  678MOL0     H93508   8.677   8.197   2.872 -0.1903  1.0455 -2.5525
  678MOL0     H93509   8.904   8.024   2.741  1.9080  1.4226 -1.1763
  678MOL0     H93510   8.918   8.162   2.846  0.2044 -1.8656  0.9972
  678MOL0     H93511   8.797   8.134   2.569  0.8686 -0.1159  0.9567
  678MOL0     H93512   8.766   8.279   2.656  0.4217  1.1696 -0.2215
  678MOL0     H93513   9.000   8.439   2.727  1.5230 -1.6734  1.4860
  678MOL0     H93514   9.215   8.546   2.670  1.3798  0.1198 -0.0027
  678MOL0     H93515   9.221   8.534   2.488 -3.6175  1.8638  1.7608
  678MOL0     H93516   9.397   8.367   2.653 -0.3166 -0.2235  0.6214
  678MOL0     H93517   9.382   8.381   2.478 -2.5564  1.2022 -1.4103
  678MOL0     H93518   9.453   8.622   2.474  1.4495  0.4112 -0.3501
  678MOL0     H93519   9.494   8.615   2.645  0.4644 -0.7358  1.4226
  678MOL0     H93520   9.695   8.534   2.580 -0.3585 -1.7004  1.4923
  678MOL0     H93521   9.619   8.393   2.538 -2.6608  0.2682 -0.3244
  678MOL0     H93522   9.805   8.351   2.455 -1.8761  2.5171  1.0256
  678MOL0     H93523   9.991   8.231   2.474 -1.9231  0.9457 -0.9587
  678MOL0     H93524  10.148   8.309   2.470  0.8065  0.5202 -0.5076
  678MOL0     H93525  10.092   8.202   2.335 -1.3440 -1.5444  0.8736
  678MOL0     H93526  10.458   8.473   2.070  0.2083  1.0777  0.0206
  678MOL0     H93527  10.691   8.523   2.115  0.5024  4.2641  1.1205
  678MOL0     H93528  10.954   8.420   2.244 -1.8963 -1.1202  1.4365
  678MOL0     H93529  10.894   8.565   2.174  0.1482 -1.8675 -0.9140
  678MOL0     H93530  11.110   8.624   2.267  3.7486 -0.6917  2.6566
  678MOL0     H93531  10.990   8.675   2.386 -0.3775  0.1241 -1.7065
  678MOL0     H93532  11.144   8.417   2.389  0.3911 -1.0376  1.4586
  678MOL0     H93533  11.023   8.467   2.514 -0.9339  1.0123 -0.3501
  678MOL0     H93534  11.162   8.674   2.544  1.7634  0.6886  0.4443
  678MOL0     H93535  11.298   8.605   2.463 -0.2240 -1.2856 -0.0102
  678MOL0     H93536  11.248   8.394   2.654  1.4706 -0.1138  1.0391
  678MOL0     H93537  11.360   8.531   2.671 -0.5529  2.9488  2.0666
  678MOL0     H93538  11.060   8.535   2.749  0.8831  0.3865 -1.2575
  678MOL0     H93539  11.173   8.663   2.785  3.3314 -1.0540  1.7123
  678MOL0     H93540  11.146   8.582   2.977  0.8057  2.1881 -2.2865
  678MOL0     H93541  11.307   8.515   2.925  0.1404 -0.6212 -1.9851
  678MOL0     H93542  11.197   8.303   2.866 -1.2622 -0.1608 -0.7445
  678MOL0     H93543  11.041   8.368   2.934 -0.2909 -0.0981  2.4640
  678MOL0     H93544  10.643   8.456   2.527  1.7728 -1.7581 -0.1668
  678MOL0     H93545  10.386   8.390   2.480  0.0915 -2.3242 -1.5099
  678MOL0     H93546   9.986   8.656   2.121  1.0988 -0.1681  1.1116
  678MOL0     H93547   9.742   8.665   2.193  0.1794  0.7224 -0.6547
  678MOL0     H93548   8.005   7.493   3.040 -2.4160  0.0523  1.4359
  678MOL0     H93549   7.790   7.543   2.965  1.6090 -1.0562 -0.1909
  678MOL0     H93550   7.483   8.080   2.894  4.2736 -2.8341 -1.0630
  678MOL0     H93551   7.253   8.074   2.770 -0.7152  0.0682  1.0544
  678MOL0     H93552   7.007   7.769   2.864  2.7519  3.2436  2.1584
  678MOL0     H93553   6.919   7.898   2.782 -0.2314  0.2416 -1.4388
  678MOL0     H93554   7.027   7.661   2.628  1.0312  0.3077  0.9236
  678MOL0     H93555   6.901   7.771   2.576  0.4001  1.7914  0.1156
  678MOL0     H93556   6.876   7.586   2.809 -0.3416 -2.2869 -0.6144
  678MOL0     H93557   6.761   7.709   2.762 -0.9974  0.3336 -0.3096
  678MOL0     H93558   6.709   7.464   2.679  1.4809 -1.2503 -1.5608
  678MOL0     H93559   6.858   7.463   2.587  0.2112  0.1527 -1.5849
  678MOL0     H93560   6.556   7.637   2.349  0.6949  2.5314  0.6399
  678MOL0     H93561   7.205   7.673   2.882  0.9033 -0.3002 -2.9294
  678MOL0     H93562   7.323   7.571   3.041 -0.1096 -0.8996 -0.5172
  678MOL0     H93563   7.476   7.562   2.951  0.8132 -1.6393  2.4434
  678MOL0     H93564   7.479   7.634   3.111  0.6070 -0.0965 -0.9949
  679MOL0     O93565   2.971   6.792   3.389  0.5795 -0.2927 -0.8550
  679MOL0     C93566   2.933   6.913   3.367 -0.2246  0.1972 -0.0193
  679MOL0     O93567   3.014   7.031   3.381 -0.2086  0.5344  0.3562
  679MOL0     C93568   3.144   7.022   3.424  1.0248  0.2408  0.4481
  679MOL0     C93569   3.186   7.093   3.534 -0.5121 -0.2667  0.3357
  679MOL0     C93570   3.318   7.088   3.586  1.0459 -0.1204 -0.2115
  679MOL0     C93571   3.408   7.004   3.520  0.5625 -0.3872  0.2867
  679MOL0     O93572   3.540   7.004   3.544 -0.0149  0.3728 -0.0084
  679MOL0     C93573   3.591   7.034   3.673 -0.5498  0.9061  0.2689
  679MOL0     C93574   3.740   7.078   3.668  0.4352  0.6297  0.0843
  679MOL0     C93575   3.827   6.950   3.626 -0.6655 -0.6876 -0.0768
  679MOL0     C93576   3.975   6.988   3.587 -0.4987  0.8213  0.6127
  679MOL0     C93577   4.043   6.855   3.545 -0.3745 -0.0982  0.7412
  679MOL0     C93578   4.192   6.870   3.515  0.4616 -0.4794 -0.3574
  679MOL0     C93579   4.266   6.732   3.489  0.4033  0.3841  0.1026
  679MOL0     C93580   4.199   6.645   3.386  0.0509  0.2385 -0.2739
  679MOL0     N93581   4.205   6.694   3.248  0.3448  0.0875 -0.0580
  679MOL0     C93582   4.319   6.685   3.172  0.0040  0.3213 -1.0955
  679MOL0     C93583   4.304   6.767   3.069  0.6064  0.0536  0.1228
  679MOL0     C93584   4.394   6.787   2.942  0.3551  0.4986  0.4116
  679MOL0     C93585   4.545   6.805   2.961 -0.4408 -0.6618 -0.3056
  679MOL0     C93586   4.639   6.784   2.836  0.2931 -0.7269 -0.1266
  679MOL0     C93587   4.640   6.643   2.788 -0.3702 -0.0525 -0.2938
  679MOL0     O93588   4.659   6.536   2.890 -0.4016 -0.9169 -0.4717
  679MOL0     C93589   4.781   6.532   2.954 -1.0000 -0.3161  0.3905
  679MOL0     C93590   4.804   6.463   3.077  0.2942  0.7919 -0.3420
  679MOL0     C93591   4.925   6.457   3.149 -0.8437  0.2189 -0.2115
  679MOL0     C93592   4.924   6.379   3.284  0.7511  0.0178  0.2572
  679MOL0     C93593   5.033   6.531   3.103  0.6789 -0.3688  0.3532
  679MOL0     C93594   5.164   6.560   3.177  0.3387 -1.1128  0.7141
  679MOL0     O93595   5.177   6.507   3.301  0.5237 -0.2243  0.6113
  679MOL0     C93596   5.289   6.547   3.371 -0.8130  0.0377 -0.2817
  679MOL0     C93597   5.402   6.467   3.378  0.1415  0.2330 -0.2829
  679MOL0     C93598   5.521   6.506   3.452 -0.1570  0.1573 -0.3724
  679MOL0     C93599   5.522   6.620   3.528 -0.0385  0.2582 -0.7856
  679MOL0     O93600   5.618   6.653   3.608  0.4417 -0.2269 -0.1381
  679MOL0     C93601   5.753   6.618   3.568  0.4027 -0.0515 -0.7140
  679MOL0     C93602   5.858   6.681   3.661  0.2622 -0.0141  1.0199
  679MOL0     C93603   6.000   6.640   3.610 -0.0104  0.0557  0.1157
  679MOL0     C93604   6.115   6.708   3.682 -0.6001 -0.2228  0.1401
  679MOL0     C93605   6.243   6.683   3.595 -0.0593  0.8131 -0.8603
  679MOL0     C93606   6.361   6.760   3.666  0.3133  0.3387  0.3075
  679MOL0     C93607   6.424   6.692   3.793 -0.0778  0.5698  0.3469
  679MOL0     C93608   6.547   6.760   3.857 -0.0996  0.0794 -0.3858
  679MOL0    Cl93609   6.499   6.928   3.918  0.1965  0.5024 -0.4419
  679MOL0     C93610   5.399   6.697   3.527 -0.1226  0.5995  0.2085
  679MOL0     C93611   5.289   6.661   3.451  0.3204  0.0680  1.0547
  679MOL0     O93612   5.242   6.644   3.130  0.4698 -0.5038  0.4952
  679MOL0     C93613   5.015   6.599   2.981 -0.2568 -0.4873 -0.5622
  679MOL0     C93614   4.896   6.600   2.906 -0.2337  0.4280 -1.3985
  679MOL0     N93615   4.180   6.823   3.080 -0.5344  0.1899  0.3855
  679MOL0     N93616   4.120   6.784   3.184 -1.0521  0.2751  0.2999
  679MOL0     C93617   3.366   6.933   3.409  0.4586  0.2708  0.3443
  679MOL0     C93618   3.234   6.944   3.358 -0.0552 -0.1957 -0.3203
  679MOL0     C93619   2.805   6.930   3.294 -0.4273  0.9774  0.3370
  679MOL0     C93620   2.779   6.842   3.188  0.4284 -0.6228  0.8278
  679MOL0     C93621   2.664   6.850   3.121 -0.6209  0.0089  0.6111
  679MOL0     C93622   2.562   6.926   3.164 -0.4169  0.3591 -0.2589
  679MOL0     O93623   2.436   6.936   3.101  0.2209  0.5539  0.8765
  679MOL0     C93624   2.405   6.839   2.996 -0.2730 -0.7041  0.7920
  679MOL0     C93625   2.267   6.869   2.942 -0.1718 -0.0427  0.0113
  679MOL0     C93626   2.161   6.827   3.035 -0.1238 -0.2922  0.0950
  679MOL0     C93627   2.134   6.903   3.164  0.1235  0.0520  0.7317
  679MOL0     C93628   2.001   6.864   3.219  0.2112  0.2166  0.3369
  679MOL0     C93629   1.904   6.820   3.272  0.0618 -0.6953  0.0326
  679MOL0     C93630   2.577   7.014   3.268  0.5987  0.4144  0.8868
  679MOL0     C93631   2.700   7.011   3.338  0.2285  0.1582  0.0942
  679MOL0     C93632   2.720   7.087   3.460  0.1487 -0.4900 -0.2222
  679MOL0     H93633   3.113   7.161   3.578  0.3290  0.1334  1.1522
  679MOL0     H93634   3.340   7.158   3.666  3.6906  0.1684 -1.0964
  679MOL0     H93635   3.583   6.945   3.735  0.4155 -0.3145 -1.2949
  679MOL0     H93636   3.536   7.101   3.741 -0.7354 -1.3984  2.5558
  679MOL0     H93637   3.736   7.161   3.596  2.9131 -0.5948 -1.6169
  679MOL0     H93638   3.775   7.123   3.761  1.5325 -1.8294  0.9528
  679MOL0     H93639   3.840   6.885   3.713 -0.0214 -0.8308 -0.2723
  679MOL0     H93640   3.782   6.901   3.539  1.4005 -1.1772 -0.9432
  679MOL0     H93641   3.980   7.062   3.506  1.5949  1.4108  1.2148
  679MOL0     H93642   4.018   7.038   3.674 -1.4474  1.8987  0.4881
  679MOL0     H93643   3.987   6.809   3.462 -0.5357  0.4834  0.5201
  679MOL0     H93644   4.037   6.786   3.629  0.8530 -2.8564 -1.2637
  679MOL0     H93645   4.204   6.932   3.426 -0.2362 -1.1849 -0.9532
  679MOL0     H93646   4.245   6.911   3.602  0.6340  0.7387 -1.0182
  679MOL0     H93647   4.255   6.680   3.585 -0.9168 -0.2223 -0.3483
  679MOL0     H93648   4.368   6.759   3.460 -0.1670  0.8337 -1.5949
  679MOL0     H93649   4.248   6.547   3.386  1.5843  0.9854 -0.7132
  679MOL0     H93650   4.097   6.614   3.409  0.8806 -2.9055 -0.3439
  679MOL0     H93651   4.401   6.624   3.209 -2.6638 -1.4935  2.5854
  679MOL0     H93652   4.351   6.876   2.895 -0.3151  0.5583  1.1184
  679MOL0     H93653   4.386   6.696   2.882 -1.2920  1.0708 -0.3062
  679MOL0     H93654   4.569   6.905   2.998  1.8188 -0.8792 -1.0242
  679MOL0     H93655   4.575   6.741   3.044 -0.0337  1.6830  1.4651
  679MOL0     H93656   4.612   6.857   2.759  0.6290  0.0907  0.5109
  679MOL0     H93657   4.739   6.807   2.874 -0.3094  0.1692  1.0078
  679MOL0     H93658   4.543   6.620   2.742 -0.1811  0.8432 -1.1557
  679MOL0     H93659   4.718   6.632   2.713 -0.5905 -1.7016 -0.3270
  679MOL0     H93660   4.723   6.417   3.131  1.3191  0.0787  0.6327
  679MOL0     H93661   4.907   6.437   3.375 -0.5900  0.7479 -0.4225
  679MOL0     H93662   5.017   6.323   3.290  2.8692  2.1697 -5.2937
  679MOL0     H93663   4.833   6.318   3.284  0.1001  0.9237 -0.9983
  679MOL0     H93664   5.416   6.370   3.332 -1.1958  1.2202 -2.9354
  679MOL0     H93665   5.605   6.438   3.442  0.5059  0.5565  1.8608
  679MOL0     H93666   5.765   6.510   3.570 -0.1914 -0.1145  1.0993
  679MOL0     H93667   5.777   6.662   3.470 -0.8222  1.6913 -0.2745
  679MOL0     H93668   5.848   6.789   3.646 -0.1448 -0.1488  0.2393
  679MOL0     H93669   5.852   6.651   3.766 -0.6966  0.3995  1.0964
  679MOL0     H93670   5.998   6.670   3.505 -1.0231 -0.5106 -0.0425
  679MOL0     H93671   5.999   6.530   3.617 -0.7379  0.0196 -0.4457
  679MOL0     H93672   6.126   6.672   3.784  1.0455  0.0292  0.0853
  679MOL0     H93673   6.094   6.814   3.699 -0.1161 -0.4384  2.4382
  679MOL0     H93674   6.262   6.577   3.576 -0.2741 -0.3040  3.9444
  679MOL0     H93675   6.231   6.729   3.496  2.2148  3.5340 -0.0225
  679MOL0     H93676   6.333   6.853   3.716  0.1719  0.2630  0.3707
  679MOL0     H93677   6.448   6.774   3.601  0.1472  1.6169  0.3472
  679MOL0     H93678   6.459   6.594   3.759 -0.3926  0.3060  0.7605
  679MOL0     H93679   6.343   6.680   3.866  0.1555  0.9096  0.6642
  679MOL0     H93680   6.626   6.771   3.782  0.0154 -0.4629 -0.3505
  679MOL0     H93681   6.579   6.697   3.941  0.9224  1.4773  0.3260
  679MOL0     H93682   5.400   6.794   3.577  2.4172  1.7949 -1.9465
  679MOL0     H93683   5.207   6.731   3.445  0.5062  0.4659  2.5984
  679MOL0     H93684   5.095   6.666   2.950 -1.2581  1.7860  1.4005
  679MOL0     H93685   4.894   6.662   2.817 -2.0658  2.9501  0.2329
  679MOL0     H93686   3.422   6.855   3.358 -2.3674  0.2998 -3.2938
  679MOL0     H93687   3.203   6.892   3.267  3.1374 -1.6958 -0.6946
  679MOL0     H93688   2.860   6.777   3.155  2.9758  1.8259  1.8674
  679MOL0     H93689   2.655   6.780   3.039  0.6456 -1.0223  1.3166
  679MOL0     H93690   2.462   6.854   2.904 -1.9927 -0.6874 -0.3108
  679MOL0     H93691   2.413   6.736   3.032 -1.4336 -1.5656 -1.2484
  679MOL0     H93692   2.237   6.819   2.849  0.8240  0.3125 -0.5203
  679MOL0     H93693   2.258   6.973   2.910 -2.8734 -0.2837 -0.3022
  679MOL0     H93694   2.067   6.828   2.978 -0.4210 -0.7950  0.5658
  679MOL0     H93695   2.178   6.720   3.049 -0.9542 -0.9291 -2.9124
  679MOL0     H93696   2.137   7.010   3.139  1.6441 -0.3439 -1.0313
  679MOL0     H93697   2.211   6.885   3.239  0.5902  0.3097  0.3251
  679MOL0     H93698   1.817   6.777   3.317 -1.1601  1.8301  0.2877
  679MOL0     H93699   2.502   7.081   3.308 -0.5312 -1.3685  1.8694
  679MOL0     H93700   2.646   7.167   3.460  1.7736  1.1074  1.3497
  679MOL0     H93701   2.694   7.032   3.551  2.5907 -0.9719  0.2451
  679MOL0     H93702   2.819   7.131   3.475  0.1815  0.2150 -2.2598
  680MOL0     O93703   5.659   7.128   7.671  0.0007  0.8400 -0.1197
  680MOL0     C93704   5.663   7.075   7.554  0.5992  0.4205 -0.0144
  680MOL0     O93705   5.751   6.974   7.522 -0.2598  0.1975 -0.0244
  680MOL0     C93706   5.853   6.939   7.609  0.4124  0.9638  0.4700
  680MOL0     C93707   5.928   7.035   7.682  0.4757 -0.2013 -0.2870
  680MOL0     C93708   6.025   6.993   7.777  0.1922 -0.4898 -0.1741
  680MOL0     C93709   6.067   6.865   7.783  0.9110 -0.5273 -0.2638
  680MOL0     O93710   6.170   6.835   7.869 -0.1330 -0.2245  0.1198
  680MOL0     C93711   6.249   6.724   7.847  0.0432 -0.1871  0.3160
  680MOL0     C93712   6.371   6.712   7.946  0.7400 -0.6838  0.7606
  680MOL0     C93713   6.477   6.617   7.874 -0.0577 -0.3367 -0.5042
  680MOL0     C93714   6.591   6.587   7.970  0.1407 -0.7940 -0.4836
  680MOL0     C93715   6.729   6.618   7.920  0.4157  0.0358 -0.6501
  680MOL0     C93716   6.834   6.597   8.035 -1.3092  1.0337 -0.9569
  680MOL0     C93717   6.954   6.679   8.004 -0.0762 -0.1127  0.3897
  680MOL0     C93718   7.079   6.664   8.098 -0.1234 -0.2271  0.5564
  680MOL0     N93719   7.189   6.747   8.038  0.0845 -0.1312 -0.2845
  680MOL0     C93720   7.271   6.734   7.926  0.7666 -0.5132  0.2138
  680MOL0     C93721   7.333   6.851   7.924 -0.5883 -0.2572 -0.0871
  680MOL0     C93722   7.444   6.881   7.830 -0.2640  0.3667  0.0510
  680MOL0     C93723   7.574   6.803   7.847 -0.3956 -0.6825 -0.3063
  680MOL0     C93724   7.637   6.817   7.988  0.3049 -0.3607 -0.0290
  680MOL0     C93725   7.776   6.752   8.002  0.6873 -0.1049 -0.2217
  680MOL0     O93726   7.813   6.766   8.132  0.4637  0.2974 -0.5913
  680MOL0     C93727   7.939   6.724   8.184 -0.3941 -0.5257 -0.1386
  680MOL0     C93728   8.016   6.631   8.111  0.0597 -0.1219  0.1470
  680MOL0     C93729   8.138   6.583   8.157 -0.4885  0.0911 -0.0862
  680MOL0     C93730   8.198   6.474   8.069 -0.7342 -0.3289 -0.3444
  680MOL0     C93731   8.185   6.630   8.282  0.6760 -0.1305  0.0637
  680MOL0     C93732   8.308   6.574   8.347  0.7355 -0.1342  0.4460
  680MOL0     O93733   8.342   6.625   8.475 -0.0389  0.9114 -0.1895
  680MOL0     C93734   8.460   6.590   8.541  0.3354 -0.8173  0.7188
  680MOL0     C93735   8.448   6.500   8.643 -0.6538  0.6380  0.2181
  680MOL0     C93736   8.564   6.444   8.704 -0.0107 -0.2021  0.5631
  680MOL0     C93737   8.686   6.510   8.683 -0.7306  0.1619  0.3437
  680MOL0     O93738   8.796   6.487   8.757  0.4564 -0.0761 -0.4609
  680MOL0     C93739   8.788   6.528   8.897 -0.6532 -0.5362  0.6612
  680MOL0     C93740   8.857   6.427   8.978 -0.4136  0.0261  0.1689
  680MOL0     C93741   8.910   6.488   9.113 -0.8908 -0.4916  0.0394
  680MOL0     C93742   8.993   6.391   9.193 -0.6335  0.1353 -0.2169
  680MOL0     C93743   9.027   6.454   9.335 -0.5130 -0.1073  0.4754
  680MOL0     C93744   9.081   6.357   9.435  0.0550  1.0246 -0.4917
  680MOL0     C93745   9.096   6.412   9.571 -0.8489  0.0367 -0.7391
  680MOL0     C93746   9.204   6.513   9.583 -0.5248 -0.0969 -0.8759
  680MOL0    Cl93747   9.367   6.456   9.538 -0.2806  0.0120  0.5505
  680MOL0     C93748   8.699   6.610   8.583 -0.7372  0.5790 -0.2042
  680MOL0     C93749   8.589   6.646   8.502  0.6439  0.3269  0.1583
  680MOL0     O93750   8.387   6.509   8.276  0.6793  0.5035 -0.0379
  680MOL0     C93751   8.114   6.730   8.347 -0.1395 -0.5479 -1.1890
  680MOL0     C93752   7.984   6.765   8.306 -1.0092  0.5316  0.4213
  680MOL0     N93753   7.300   6.932   8.026  0.0745  0.0259  0.8272
  680MOL0     N93754   7.207   6.867   8.093  0.5880  0.4530 -1.0494
  680MOL0     C93755   5.997   6.769   7.706  0.1451  0.8642 -0.2248
  680MOL0     C93756   5.894   6.799   7.619  0.4333 -0.4169 -0.1041
  680MOL0     C93757   5.565   7.114   7.445 -0.1600 -0.0592 -0.3101
  680MOL0     C93758   5.538   7.033   7.337 -0.4605  0.7586  0.6304
  680MOL0     C93759   5.453   7.073   7.241  0.3505 -0.0114 -0.6700
  680MOL0     C93760   5.377   7.195   7.252 -0.1521  0.0916  0.4142
  680MOL0     O93761   5.275   7.239   7.169 -0.2212  0.2688 -0.3186
  680MOL0     C93762   5.221   7.139   7.080 -0.4556 -0.8774 -0.5228
  680MOL0     C93763   5.123   7.208   6.984  0.0530 -0.0505 -0.4689
  680MOL0     C93764   5.166   7.339   6.912 -0.0050  0.3703  0.1696
  680MOL0     C93765   5.242   7.310   6.776  0.2557  0.2369  0.5530
  680MOL0     C93766   5.177   7.217   6.682  0.5389  0.2328 -0.3975
  680MOL0     C93767   5.131   7.147   6.588  0.0739 -0.6636  0.0134
  680MOL0     C93768   5.410   7.286   7.348  0.2207  0.1369  0.3551
  680MOL0     C93769   5.498   7.246   7.450  0.5521  0.0968  0.2183
  680MOL0     C93770   5.530   7.350   7.571  0.2301  0.3082  0.0890
  680MOL0     H93771   5.919   7.142   7.666  1.6169  0.4018  2.5102
  680MOL0     H93772   6.068   7.076   7.831 -0.3744  1.6207 -2.7492
  680MOL0     H93773   6.285   6.725   7.744 -0.1054  0.2978  0.2665
  680MOL0     H93774   6.193   6.631   7.861  0.7983 -0.7595 -0.3896
  680MOL0     H93775   6.413   6.813   7.957 -0.6514  0.3517 -2.2779
  680MOL0     H93776   6.336   6.672   8.041 -2.4344  1.8179  0.7887
  680MOL0     H93777   6.438   6.520   7.841 -1.9038  0.1154  0.1723
  680MOL0     H93778   6.508   6.670   7.784 -3.0356 -1.4532 -2.3415
  680MOL0     H93779   6.578   6.633   8.069  0.8503 -3.7001  1.0789
  680MOL0     H93780   6.578   6.480   7.991 -2.8123 -0.2781  0.8485
  680MOL0     H93781   6.724   6.724   7.893 -2.3199 -0.1463 -1.2019
  680MOL0     H93782   6.752   6.559   7.830 -1.1230  0.6514 -1.5000
  680MOL0     H93783   6.801   6.611   8.138  1.7511  0.2084  0.2235
  680MOL0     H93784   6.864   6.492   8.033 -2.0828  0.8111 -1.3748
  680MOL0     H93785   6.923   6.783   8.001 -2.2922 -0.7220 -2.9234
  680MOL0     H93786   6.985   6.647   7.904  0.3518  1.2630  0.0648
  680MOL0     H93787   7.067   6.688   8.204  0.5918 -1.5539  0.9601
  680MOL0     H93788   7.107   6.559   8.093 -0.6570 -0.3659  0.4019
  680MOL0     H93789   7.280   6.648   7.860 -0.5093 -1.2460  0.9673
  680MOL0     H93790   7.456   6.989   7.838 -2.8714  0.9416 -2.2275
  680MOL0     H93791   7.403   6.870   7.729  0.7677 -1.7260 -0.1933
  680MOL0     H93792   7.547   6.697   7.851  1.2950 -1.1499 -0.1992
  680MOL0     H93793   7.651   6.840   7.778 -0.7576  3.3409  1.2142
  680MOL0     H93794   7.640   6.925   8.007 -1.3244 -0.6088  1.8671
  680MOL0     H93795   7.561   6.776   8.055 -0.5728  0.1285 -0.7024
  680MOL0     H93796   7.761   6.648   7.974  0.3153 -0.1323  0.0854
  680MOL0     H93797   7.852   6.791   7.933  3.2292 -0.3922  2.2159
  680MOL0     H93798   7.971   6.598   8.018  0.2445  0.9198 -0.3268
  680MOL0     H93799   8.148   6.456   7.974 -0.3718  0.0879 -0.6158
  680MOL0     H93800   8.190   6.382   8.127 -0.9360 -0.6733 -0.9096
  680MOL0     H93801   8.303   6.492   8.047 -1.0439  0.7294 -1.0410
  680MOL0     H93802   8.348   6.472   8.671  0.3971 -3.6084  0.3903
  680MOL0     H93803   8.559   6.355   8.766  0.2817  0.2373  1.2246
  680MOL0     H93804   8.848   6.619   8.894 -1.4904  0.0148 -1.1687
  680MOL0     H93805   8.688   6.540   8.940  0.1837  2.1513  2.0609
  680MOL0     H93806   8.786   6.345   8.996 -0.2582  0.1399  1.3951
  680MOL0     H93807   8.942   6.384   8.923 -1.0582 -1.8218  0.5454
  680MOL0     H93808   8.823   6.515   9.173 -1.1183 -4.0660  1.5550
  680MOL0     H93809   8.967   6.578   9.088 -0.8397 -0.7970 -1.0208
  680MOL0     H93810   9.085   6.372   9.136 -2.4883 -1.7203 -2.7853
  680MOL0     H93811   8.949   6.292   9.205  1.6445 -0.7322  1.6871
  680MOL0     H93812   9.094   6.540   9.329 -1.3909  0.7623  2.3820
  680MOL0     H93813   8.935   6.490   9.381  0.7479 -0.3925  3.3830
  680MOL0     H93814   9.178   6.327   9.394 -0.3073 -0.4511 -0.3261
  680MOL0     H93815   9.015   6.269   9.435  0.3607  0.7918 -0.5580
  680MOL0     H93816   9.113   6.330   9.641 -0.3776 -0.6576 -1.6466
  680MOL0     H93817   9.000   6.457   9.598 -0.5789  0.0349  0.2496
  680MOL0     H93818   9.214   6.550   9.686  3.8834 -0.0515 -1.1277
  680MOL0     H93819   9.188   6.601   9.519 -2.3839  1.4964  1.6008
  680MOL0     H93820   8.798   6.651   8.566  0.6928 -2.3466  0.3511
  680MOL0     H93821   8.585   6.721   8.424 -4.2202  0.1969 -0.0023
  680MOL0     H93822   8.145   6.775   8.441 -0.8170  1.6733 -1.9553
  680MOL0     H93823   7.922   6.846   8.343 -0.2990  1.8992 -1.2231
  680MOL0     H93824   6.021   6.664   7.717 -1.0096  0.5054 -0.9651
  680MOL0     H93825   5.853   6.722   7.554  2.5389  0.3847 -2.5088
  680MOL0     H93826   5.586   6.936   7.326  0.7745  1.4677 -0.6135
  680MOL0     H93827   5.445   7.006   7.156 -1.2618  1.1827 -1.5256
  680MOL0     H93828   5.306   7.091   7.031 -0.2382 -2.2188  1.0802
  680MOL0     H93829   5.172   7.062   7.141  2.0949 -1.1146  1.4017
  680MOL0     H93830   5.033   7.222   7.045  0.5970  0.8635  0.1530
  680MOL0     H93831   5.093   7.142   6.902  0.7630  0.5705 -1.2283
  680MOL0     H93832   5.075   7.396   6.890 -0.3494  0.4559  1.6979
  680MOL0     H93833   5.219   7.406   6.981  1.5391  0.7570 -1.3238
  680MOL0     H93834   5.346   7.279   6.792  0.5494 -0.0947 -1.6487
  680MOL0     H93835   5.250   7.404   6.720 -1.8505  2.5747  3.7915
  680MOL0     H93836   5.102   7.083   6.507 -0.1778 -0.2397 -0.2338
  680MOL0     H93837   5.354   7.379   7.351  2.5326  1.7320 -1.8696
  680MOL0     H93838   5.461   7.435   7.561 -0.5948 -0.4212 -0.5060
  680MOL0     H93839   5.492   7.310   7.665  0.2963  2.3193  1.0417
  680MOL0     H93840   5.634   7.376   7.592 -0.8027  3.4995  1.9471
  681MOL0     O93841   9.303   1.578   2.373 -0.4703 -0.4663  0.6544
  681MOL0     C93842   9.375   1.651   2.301  0.3484  0.2574 -0.7805
  681MOL0     O93843   9.482   1.724   2.347  0.0325 -0.1859 -0.3166
  681MOL0     C93844   9.548   1.683   2.458  0.5267 -0.3402 -0.4512
  681MOL0     C93845   9.519   1.749   2.575  0.1789 -0.4360 -0.7479
  681MOL0     C93846   9.602   1.730   2.685  0.5375  0.0996  1.4493
  681MOL0     C93847   9.716   1.647   2.673 -0.5508 -0.3853 -0.4304
  681MOL0     O93848   9.795   1.634   2.789 -0.4084 -0.2455  0.4914
  681MOL0     C93849   9.929   1.587   2.770 -0.5009 -0.6235  0.3398
  681MOL0     C93850  10.011   1.586   2.900 -0.8727  0.7257  0.1589
  681MOL0     C93851  10.163   1.575   2.852 -0.2736 -0.5712  0.3496
  681MOL0     C93852  10.248   1.561   2.970 -0.8295  0.5450  0.2931
  681MOL0     C93853  10.398   1.550   2.928 -0.6874 -0.5105 -0.3456
  681MOL0     C93854  10.500   1.559   3.035 -0.5464  0.1482 -0.1146
  681MOL0     C93855  10.641   1.594   2.994 -0.5754 -0.1178  0.5017
  681MOL0     C93856  10.737   1.597   3.111  0.7461 -0.3202 -0.0731
  681MOL0     N93857  10.879   1.595   3.068 -0.3402  0.1158  0.2133
  681MOL0     C93858  10.927   1.663   2.960  0.4936 -0.7454  0.1493
  681MOL0     C93859  11.055   1.616   2.945 -0.2855  0.3644  0.3945
  681MOL0     C93860  11.151   1.655   2.834 -1.0538 -0.4035  0.9482
  681MOL0     C93861  11.309   1.671   2.854 -0.2075  0.1728 -0.3544
  681MOL0     C93862  11.356   1.826   2.872 -1.6175  0.1071 -0.4021
  681MOL0     C93863  11.284   1.896   2.986 -0.1935 -0.7231 -0.1309
  681MOL0     O93864  11.320   1.861   3.121 -0.9220 -0.2431  0.0443
  681MOL0     C93865  11.449   1.902   3.162  0.3047 -0.1748 -0.4825
  681MOL0     C93866  11.533   1.997   3.103  0.4747 -0.4582 -0.7505
  681MOL0     C93867  11.668   2.017   3.135  0.0987 -0.5972  0.5040
  681MOL0     C93868  11.742   2.122   3.051 -0.1441 -0.4386 -0.8900
  681MOL0     C93869  11.738   1.934   3.223 -0.1480 -0.6574  0.2292
  681MOL0     C93870  11.883   1.937   3.238  0.2029 -0.4711 -0.1242
  681MOL0     O93871  11.949   1.825   3.201 -0.0035  0.2183 -0.5293
  681MOL0     C93872  12.081   1.823   3.243 -0.4609  0.1299  0.7010
  681MOL0     C93873  12.115   1.755   3.359  0.4711 -0.4233 -0.2715
  681MOL0     C93874  12.251   1.746   3.397 -0.0778 -0.5426 -0.8014
  681MOL0     C93875  12.353   1.804   3.315  0.5713 -0.1961 -0.8595
  681MOL0     O93876  12.485   1.783   3.348  0.4653 -0.3062 -0.4343
  681MOL0     C93877  12.595   1.796   3.262  0.1932  0.6319 -0.0917
  681MOL0     C93878  12.636   1.944   3.264 -0.0936 -0.8623 -1.1287
  681MOL0     C93879  12.649   1.990   3.413  0.0298  0.1364 -0.1910
  681MOL0     C93880  12.725   2.124   3.418 -0.2600  0.5766 -0.0448
  681MOL0     C93881  12.731   2.163   3.562  0.3427 -0.1305  0.1957
  681MOL0     C93882  12.792   2.298   3.590 -0.0214  0.9274  0.4602
  681MOL0     C93883  12.844   2.304   3.736 -0.3527 -0.6918 -0.1845
  681MOL0     C93884  12.847   2.448   3.798 -0.2650  1.2368  0.1578
  681MOL0    Cl93885  12.947   2.438   3.953 -0.0527 -0.0207  0.4046
  681MOL0     C93886  12.312   1.882   3.204 -0.1578 -0.3584  0.1180
  681MOL0     C93887  12.179   1.892   3.165  0.9169 -0.5935 -0.1816
  681MOL0     O93888  11.933   2.044   3.272  0.0482  0.1625 -0.0441
  681MOL0     C93889  11.651   1.850   3.295 -0.7723 -0.4534 -0.3066
  681MOL0     C93890  11.511   1.835   3.273 -0.8561  0.0821  0.4681
  681MOL0     N93891  11.075   1.519   3.045 -1.5135  0.5734  0.5262
  681MOL0     N93892  10.974   1.514   3.121 -0.9130  0.1151 -0.2233
  681MOL0     C93893   9.743   1.581   2.551 -0.4741  0.0696 -0.1087
  681MOL0     C93894   9.652   1.597   2.452  0.0762 -0.4315  1.1139
  681MOL0     C93895   9.317   1.689   2.168 -0.4106 -0.5870  0.6419
  681MOL0     C93896   9.352   1.820   2.118 -1.2199  0.9367  0.5163
  681MOL0     C93897   9.290   1.861   1.995 -0.2011  0.6603  0.7606
  681MOL0     C93898   9.227   1.771   1.905  0.0171 -0.3007 -1.1345
  681MOL0     O93899   9.192   1.813   1.782 -0.3750 -0.2920  1.0642
  681MOL0     C93900   9.098   1.741   1.699 -0.5196 -0.3550 -0.6096
  681MOL0     C93901   9.123   1.777   1.556 -0.2069 -0.1899 -0.1289
  681MOL0     C93902   9.068   1.911   1.524  1.2194 -0.7852  0.1015
  681MOL0     C93903   9.105   1.963   1.386  0.3019  0.0922 -0.3006
  681MOL0     C93904   9.034   1.876   1.287 -0.3179 -0.5001  0.7727
  681MOL0     C93905   8.973   1.813   1.198 -0.5477 -0.0106 -0.4188
  681MOL0     C93906   9.216   1.643   1.950 -0.4686 -0.5124 -0.1475
  681MOL0     C93907   9.251   1.605   2.086 -1.0865 -0.4275 -0.1088
  681MOL0     C93908   9.236   1.454   2.119 -0.8936 -0.4268  0.6459
  681MOL0     H93909   9.436   1.818   2.574  0.4467 -0.0207  1.2202
  681MOL0     H93910   9.587   1.786   2.777 -0.1782 -1.3630  2.2697
  681MOL0     H93911   9.976   1.665   2.708 -1.7844 -1.4277 -1.7713
  681MOL0     H93912   9.935   1.488   2.724  0.7650  0.4031 -1.8570
  681MOL0     H93913   9.992   1.678   2.956 -1.7272 -0.0958  1.2554
  681MOL0     H93914   9.983   1.494   2.951 -2.7646  0.4715 -1.2300
  681MOL0     H93915  10.172   1.496   2.777  1.1328  1.7566 -2.0940
  681MOL0     H93916  10.183   1.670   2.803  1.6353 -0.1852  1.7516
  681MOL0     H93917  10.245   1.642   3.044  4.1708 -0.0983  1.5774
  681MOL0     H93918  10.224   1.469   3.025  0.1647  1.1880  1.8805
  681MOL0     H93919  10.415   1.632   2.857 -2.9016  0.6299  0.3626
  681MOL0     H93920  10.413   1.463   2.863  2.2382 -1.5707  1.5494
  681MOL0     H93921  10.463   1.631   3.109 -0.1990 -0.7577  0.9754
  681MOL0     H93922  10.518   1.462   3.083 -1.4805 -0.1444 -0.3166
  681MOL0     H93923  10.641   1.694   2.949  2.4174 -0.0726  0.4466
  681MOL0     H93924  10.671   1.517   2.922 -2.2233 -1.0294  0.7372
  681MOL0     H93925  10.719   1.679   3.181  0.5371  0.8494 -1.4476
  681MOL0     H93926  10.723   1.510   3.176 -1.8046  0.7049  0.8722
  681MOL0     H93927  10.875   1.742   2.907  0.2354 -1.2449 -0.3450
  681MOL0     H93928  11.107   1.746   2.791 -0.5205 -1.0430 -1.0471
  681MOL0     H93929  11.142   1.574   2.761  0.2838  0.9414 -0.7942
  681MOL0     H93930  11.344   1.618   2.943  0.7273  1.5223  0.1137
  681MOL0     H93931  11.360   1.629   2.767 -2.8762 -2.2471 -0.8717
  681MOL0     H93932  11.465   1.830   2.885 -1.9172 -0.6506  3.6048
  681MOL0     H93933  11.324   1.875   2.780  0.0413 -1.5810 -1.9648
  681MOL0     H93934  11.302   2.000   2.956  0.7742 -1.7862 -3.7900
  681MOL0     H93935  11.178   1.872   2.977 -0.9354  0.1627  4.1920
  681MOL0     H93936  11.488   2.063   3.030 -1.7052 -1.1676 -0.1397
  681MOL0     H93937  11.776   2.206   3.112  0.1875 -1.4757  0.3931
  681MOL0     H93938  11.675   2.152   2.970 -1.0006  0.6261  0.1686
  681MOL0     H93939  11.838   2.087   3.013 -0.2135 -1.3772 -0.2443
  681MOL0     H93940  12.045   1.701   3.422  0.9812 -1.9363 -0.9685
  681MOL0     H93941  12.278   1.679   3.477  0.7509  0.6209 -0.0901
  681MOL0     H93942  12.686   1.742   3.291 -0.4659  0.6900  2.2249
  681MOL0     H93943  12.566   1.754   3.165  1.0403  1.4737 -0.7365
  681MOL0     H93944  12.732   1.958   3.214 -0.5868  2.6638 -1.3312
  681MOL0     H93945  12.570   2.012   3.209 -1.2092  1.3953  2.6304
  681MOL0     H93946  12.713   1.913   3.456 -1.5761 -1.0783  0.1027
  681MOL0     H93947  12.557   1.998   3.471 -0.0206  0.7920 -0.3528
  681MOL0     H93948  12.673   2.199   3.358  1.7367  2.5683  0.5656
  681MOL0     H93949  12.821   2.105   3.369 -0.9662 -1.4503 -0.7454
  681MOL0     H93950  12.630   2.166   3.603  0.6730  0.3898  1.0115
  681MOL0     H93951  12.777   2.082   3.619  2.4256 -0.4260 -1.7640
  681MOL0     H93952  12.725   2.379   3.562  0.1570  0.4007 -1.6121
  681MOL0     H93953  12.879   2.318   3.526  0.0332 -0.8323 -0.0436
  681MOL0     H93954  12.938   2.252   3.755 -1.3597 -2.6212 -0.2212
  681MOL0     H93955  12.763   2.249   3.786 -2.9967  2.2936 -0.8247
  681MOL0     H93956  12.743   2.469   3.820 -1.2211  0.6277 -3.1705
  681MOL0     H93957  12.885   2.526   3.731 -0.7064  1.9481  0.7301
  681MOL0     H93958  12.387   1.936   3.147  0.1403 -1.3638 -0.4655
  681MOL0     H93959  12.155   1.958   3.082  3.9590 -0.0587 -0.7564
  681MOL0     H93960  11.687   1.786   3.375  0.3142  0.6625  0.1269
  681MOL0     H93961  11.464   1.767   3.344  0.6777 -0.3482  1.1015
  681MOL0     H93962   9.832   1.518   2.550 -0.6496 -0.2985  1.9898
  681MOL0     H93963   9.658   1.546   2.356 -4.9685 -1.0284  0.8474
  681MOL0     H93964   9.406   1.895   2.175  0.5558  1.1614 -1.3258
  681MOL0     H93965   9.308   1.961   1.959  0.5552  0.3924  0.3804
  681MOL0     H93966   9.115   1.633   1.708 -0.0189 -0.2014  0.5087
  681MOL0     H93967   8.998   1.762   1.738  0.5336  0.7525  1.6986
  681MOL0     H93968   9.078   1.701   1.491 -2.0754  0.9234 -0.2323
  681MOL0     H93969   9.232   1.778   1.543 -0.1727  0.4802  0.1862
  681MOL0     H93970   8.960   1.910   1.535  1.1823  3.0174  1.3372
  681MOL0     H93971   9.100   1.981   1.602  1.1090 -1.5509  0.8488
  681MOL0     H93972   9.212   1.983   1.375  0.4330 -0.5659 -0.2451
  681MOL0     H93973   9.055   2.060   1.376 -1.1445 -0.0644  3.5768
  681MOL0     H93974   8.920   1.740   1.139 -1.4150  2.0506 -2.3252
  681MOL0     H93975   9.189   1.559   1.886  1.9692 -0.6099 -1.1701
  681MOL0     H93976   9.212   1.399   2.028 -1.0729 -0.0677  0.4762
  681MOL0     H93977   9.336   1.419   2.148 -1.3309 -1.4940  0.9084
  681MOL0     H93978   9.157   1.426   2.188 -2.1499 -2.0703 -1.3593
  682MOL0     O93979   4.803   6.632   5.309 -0.0586 -0.1486 -0.1542
  682MOL0     C93980   4.842   6.708   5.395 -0.6486 -0.5711 -0.4720
  682MOL0     O93981   4.917   6.823   5.372  0.6583 -0.5790 -0.4289
  682MOL0     C93982   4.972   6.832   5.244 -0.0688 -0.0699 -1.1824
  682MOL0     C93983   4.923   6.927   5.153 -0.3948  1.0807  0.1779
  682MOL0     C93984   4.984   6.934   5.026  0.9875 -0.2612  0.0671
  682MOL0     C93985   5.095   6.854   4.987 -0.5787 -1.3497 -0.4874
  682MOL0     O93986   5.156   6.859   4.864  0.0597  0.0841 -0.2944
  682MOL0     C93987   5.127   6.963   4.773 -0.2326  0.1509  0.2582
  682MOL0     C93988   5.189   6.914   4.642  0.0458  0.2785  1.1286
  682MOL0     C93989   5.099   6.940   4.519  0.1499  0.1736  0.0381
  682MOL0     C93990   5.183   6.883   4.401 -0.0346 -0.2141 -0.4970
  682MOL0     C93991   5.117   6.884   4.266  0.1296 -0.0963 -0.8310
  682MOL0     C93992   5.045   7.012   4.211  0.2965 -0.1054  0.0992
  682MOL0     C93993   5.125   7.142   4.180 -0.4583  0.6896  0.3152
  682MOL0     C93994   5.028   7.256   4.146  0.1098 -0.8726  0.5838
  682MOL0     N93995   5.082   7.377   4.077  0.8520  0.8380 -0.2386
  682MOL0     C93996   5.152   7.364   3.959 -0.5182 -0.8207  0.3379
  682MOL0     C93997   5.214   7.485   3.949  1.3241 -0.5841 -0.3091
  682MOL0     C93998   5.318   7.507   3.850 -0.0942  0.4841 -0.1162
  682MOL0     C93999   5.439   7.568   3.916 -0.1018 -0.7586 -0.3907
  682MOL0     C94000   5.527   7.628   3.819  0.0879 -0.5836  0.0335
  682MOL0     C94001   5.590   7.535   3.712  0.5350  0.1441  0.8391
  682MOL0     O94002   5.691   7.604   3.640  0.5409 -0.8250  0.3027
  682MOL0     C94003   5.825   7.600   3.676 -0.0652 -0.4894  0.1509
  682MOL0     C94004   5.889   7.521   3.768 -0.3724  0.0457 -0.2725
  682MOL0     C94005   6.031   7.521   3.790  0.7236  0.1352  0.6238
  682MOL0     C94006   6.088   7.426   3.893  0.1655  0.4567  0.4462
  682MOL0     C94007   6.115   7.618   3.719 -0.9370  0.2512  0.0463
  682MOL0     C94008   6.260   7.642   3.745  0.2407  0.7486 -0.6317
  682MOL0     O94009   6.311   7.721   3.653 -0.3600 -0.6532 -0.0946
  682MOL0     C94010   6.448   7.757   3.673 -0.1879  0.6008 -0.4804
  682MOL0     C94011   6.492   7.875   3.725 -0.3239  0.7600  0.2093
  682MOL0     C94012   6.629   7.907   3.732  0.3587  0.3209 -0.1925
  682MOL0     C94013   6.728   7.824   3.684  0.5663  0.5072 -0.0587
  682MOL0     O94014   6.854   7.868   3.685 -0.1997 -0.0530  0.4579
  682MOL0     C94015   6.943   7.826   3.584 -0.0573 -0.7647  0.2695
  682MOL0     C94016   7.055   7.929   3.562 -0.4086  0.4650  0.1536
  682MOL0     C94017   7.122   7.981   3.691  0.3737  1.3597  1.1959
  682MOL0     C94018   7.217   7.889   3.758 -0.2882  0.9594 -0.9585
  682MOL0     C94019   7.242   7.955   3.909  0.7001 -0.0559  0.7071
  682MOL0     C94020   7.379   7.910   3.973  0.0433  0.3682 -0.2155
  682MOL0     C94021   7.370   7.755   4.011 -0.3741 -0.6702  0.7442
  682MOL0     C94022   7.515   7.700   3.994 -0.2687  0.6315  0.6216
  682MOL0    Cl94023   7.539   7.670   3.822 -0.2280 -0.0594  0.0033
  682MOL0     C94024   6.687   7.694   3.640 -0.3646  0.2353  0.3040
  682MOL0     C94025   6.551   7.664   3.641  0.6052 -0.9707  0.0361
  682MOL0     O94026   6.325   7.589   3.836 -0.8470 -0.9820  0.3470
  682MOL0     C94027   6.051   7.704   3.630  0.2495  0.7581  0.4472
  682MOL0     C94028   5.912   7.696   3.608 -0.2284  0.4373 -0.5965
  682MOL0     N94029   5.165   7.574   4.043 -0.0903 -0.1313  0.5693
  682MOL0     N94030   5.083   7.507   4.110 -0.0687  0.7292  0.1466
  682MOL0     C94031   5.144   6.760   5.086 -0.4686 -0.4275 -0.8406
  682MOL0     C94032   5.076   6.748   5.213  0.1848  0.1403 -0.0165
  682MOL0     C94033   4.798   6.674   5.539 -0.9281 -0.2440  0.8173
  682MOL0     C94034   4.806   6.780   5.631  0.0186  0.3893  0.4664
  682MOL0     C94035   4.756   6.770   5.762  0.2655 -0.3824 -0.0056
  682MOL0     C94036   4.706   6.651   5.809  0.8697 -0.3210  0.0993
  682MOL0     O94037   4.669   6.633   5.943 -0.0763 -0.8571 -0.0993
  682MOL0     C94038   4.707   6.725   6.045 -0.3167  0.0455 -0.1964
  682MOL0     C94039   4.587   6.815   6.087 -0.2629  0.4488 -0.1047
  682MOL0     C94040   4.477   6.738   6.167 -0.4895  0.0386  0.2518
  682MOL0     C94041   4.525   6.682   6.300  1.3311  0.7157  0.0262
  682MOL0     C94042   4.415   6.630   6.379 -0.1578 -0.2101 -0.0808
  682MOL0     C94043   4.323   6.573   6.439 -0.1703 -0.2731 -0.4648
  682MOL0     C94044   4.691   6.543   5.723 -1.0217 -0.4408  0.3545
  682MOL0     C94045   4.744   6.552   5.590 -0.3316 -0.1149 -0.5019
  682MOL0     C94046   4.727   6.429   5.501  0.0985 -0.4759  0.2780
  682MOL0     H94047   4.837   6.993   5.167 -1.5231 -0.3386  0.2057
  682MOL0     H94048   4.931   6.987   4.948 -0.6176  1.0577  1.9789
  682MOL0     H94049   5.176   7.060   4.784 -2.5606  1.3770  0.4964
  682MOL0     H94050   5.021   6.985   4.760 -0.0893 -0.5258 -2.9486
  682MOL0     H94051   5.272   6.981   4.616 -0.6941  1.3683  1.5039
  682MOL0     H94052   5.231   6.813   4.640 -0.0094  0.2609  0.7257
  682MOL0     H94053   5.000   6.896   4.511 -0.1616  0.9460 -0.6206
  682MOL0     H94054   5.083   7.049   4.515  2.1291  0.6215  2.3198
  682MOL0     H94055   5.270   6.949   4.391 -0.9105  1.1205  0.3731
  682MOL0     H94056   5.211   6.780   4.423 -0.3171 -0.4815 -1.3760
  682MOL0     H94057   5.047   6.799   4.267 -1.8139  1.4065 -1.7873
  682MOL0     H94058   5.197   6.860   4.195  1.3212  1.1284  0.0461
  682MOL0     H94059   4.989   6.964   4.130 -0.3016 -0.9697  0.9970
  682MOL0     H94060   4.972   7.046   4.284 -0.1466 -2.6785  0.9629
  682MOL0     H94061   5.190   7.113   4.097  1.0952 -0.0767  1.7522
  682MOL0     H94062   5.197   7.162   4.259 -0.1381  0.7582  0.0103
  682MOL0     H94063   4.948   7.222   4.081  1.0019  1.1771 -1.7386
  682MOL0     H94064   4.994   7.293   4.243 -0.1964 -0.3120  0.2663
  682MOL0     H94065   5.185   7.279   3.900  1.0451 -0.1110  0.1454
  682MOL0     H94066   5.272   7.563   3.767 -1.7161 -1.8452 -0.8913
  682MOL0     H94067   5.353   7.412   3.811  1.5362  1.5363 -1.3642
  682MOL0     H94068   5.418   7.642   3.993  2.3388 -0.1747 -0.2309
  682MOL0     H94069   5.489   7.487   3.971  2.1789  0.7921 -0.0678
  682MOL0     H94070   5.489   7.724   3.782  0.0773  0.3712  2.3402
  682MOL0     H94071   5.613   7.658   3.879 -1.0431  0.4608  1.1989
  682MOL0     H94072   5.623   7.438   3.751 -1.6330 -1.5195 -1.1875
  682MOL0     H94073   5.511   7.507   3.642 -0.2979  1.9527  0.9951
  682MOL0     H94074   5.826   7.450   3.819  1.4299 -2.0359 -0.7747
  682MOL0     H94075   6.008   7.361   3.931 -2.2195  2.7847 -0.2940
  682MOL0     H94076   6.123   7.488   3.976 -0.1887  2.0892 -0.5791
  682MOL0     H94077   6.175   7.382   3.844 -0.3184 -0.1658  0.1366
  682MOL0     H94078   6.416   7.949   3.751  0.6902  2.5416 -1.6240
  682MOL0     H94079   6.659   8.005   3.770 -1.0585  1.0649 -0.9275
  682MOL0     H94080   6.992   7.733   3.616  2.7138  1.2201  2.2985
  682MOL0     H94081   6.897   7.805   3.487 -0.1092  1.7130 -0.2992
  682MOL0     H94082   7.138   7.878   3.513 -0.0993 -0.8516  1.9394
  682MOL0     H94083   7.031   8.016   3.500  0.8062  0.9442  0.3221
  682MOL0     H94084   7.039   8.016   3.753 -3.0538 -1.1816 -1.5114
  682MOL0     H94085   7.181   8.070   3.667 -0.0056  0.9967 -1.3533
  682MOL0     H94086   7.314   7.877   3.708  0.3742 -1.0737  0.6412
  682MOL0     H94087   7.180   7.788   3.778  0.0128  1.0593  0.1955
  682MOL0     H94088   7.241   8.064   3.900 -0.8262  0.1294  2.6787
  682MOL0     H94089   7.160   7.934   3.977  0.8298 -1.4573  0.4617
  682MOL0     H94090   7.405   7.963   4.065 -0.8354 -1.2708  1.0336
  682MOL0     H94091   7.445   7.932   3.889 -2.4648 -0.9120 -2.6827
  682MOL0     H94092   7.294   7.700   3.955 -1.1172 -0.0360  1.1130
  682MOL0     H94093   7.338   7.746   4.116  0.7363  3.8241  1.6922
  682MOL0     H94094   7.505   7.607   4.050 -4.3283 -0.0006 -0.8008
  682MOL0     H94095   7.586   7.772   4.035  1.6603 -0.1445 -1.1655
  682MOL0     H94096   6.770   7.629   3.611 -3.0860 -2.8672 -1.2375
  682MOL0     H94097   6.518   7.562   3.623 -0.3316 -0.2855 -2.6960
  682MOL0     H94098   6.104   7.790   3.590 -2.9217  2.8221  0.3079
  682MOL0     H94099   5.858   7.765   3.545  0.8152  1.0976 -0.7767
  682MOL0     H94100   5.228   6.702   5.048 -0.9425 -1.9395  0.3095
  682MOL0     H94101   5.110   6.667   5.277 -1.0468 -1.9521 -1.8472
  682MOL0     H94102   4.840   6.878   5.598 -0.1340  0.2418 -0.1514
  682MOL0     H94103   4.752   6.858   5.825  0.0315 -0.4774  0.1133
  682MOL0     H94104   4.743   6.664   6.128  1.2232 -2.4289 -2.4946
  682MOL0     H94105   4.794   6.785   6.017 -0.8315  0.3684 -1.1904
  682MOL0     H94106   4.545   6.859   5.997 -0.1684  3.8166  1.3439
  682MOL0     H94107   4.631   6.891   6.152  1.3148  0.6676 -1.3520
  682MOL0     H94108   4.398   6.811   6.187 -2.7105 -2.5229  1.5471
  682MOL0     H94109   4.431   6.662   6.103  0.5337  0.7926 -1.4424
  682MOL0     H94110   4.565   6.759   6.367  0.6540 -0.4633  1.8590
  682MOL0     H94111   4.599   6.605   6.277  1.4845  0.7078  0.5314
  682MOL0     H94112   4.244   6.508   6.471 -0.3225  1.3136  2.7632
  682MOL0     H94113   4.634   6.462   5.767 -0.1964 -0.1368  2.0709
  682MOL0     H94114   4.805   6.426   5.424 -1.5607 -0.5394 -1.4550
  682MOL0     H94115   4.749   6.338   5.559  1.9751  0.1761  0.6651
  682MOL0     H94116   4.626   6.427   5.460  0.0408 -1.9119  0.4324
  683MOL0     O94117  11.205   0.890   3.669  0.2788 -0.9950  0.4124
  683MOL0     C94118  11.261   0.957   3.756 -0.1709 -0.1245  0.2537
  683MOL0     O94119  11.200   1.000   3.870  0.2466 -0.3867 -0.2059
  683MOL0     C94120  11.066   1.005   3.863 -0.3621 -0.4480  0.4285
  683MOL0     C94121  10.991   1.127   3.856  0.5972  0.3391 -0.1761
  683MOL0     C94122  10.854   1.138   3.867 -0.1418  1.5514  0.2337
  683MOL0     C94123  10.777   1.019   3.887  0.3654 -0.7817 -0.0608
  683MOL0     O94124  10.639   1.015   3.887  0.6784 -0.6879 -0.5332
  683MOL0     C94125  10.576   0.933   3.989  0.0811  0.2455 -0.2963
  683MOL0     C94126  10.423   0.953   3.995  0.6227 -0.6387 -0.1051
  683MOL0     C94127  10.346   0.854   4.092 -0.0865 -0.5347 -0.5422
  683MOL0     C94128  10.281   0.731   4.022 -0.2776 -0.0864  0.0253
  683MOL0     C94129  10.196   0.642   4.123  0.3422 -1.1278 -0.3323
  683MOL0     C94130  10.098   0.561   4.041 -0.5429 -0.3806  0.0105
  683MOL0     C94131  10.029   0.452   4.125 -0.2988  0.5791  0.2556
  683MOL0     C94132   9.887   0.396   4.073 -0.8820  0.8723 -0.4448
  683MOL0     N94133   9.894   0.330   3.937 -0.6621 -0.1156 -0.5086
  683MOL0     C94134   9.913   0.191   3.923 -0.0203  0.4550  0.4585
  683MOL0     C94135   9.860   0.167   3.798 -0.5697  0.4046 -0.4445
  683MOL0     C94136   9.857   0.037   3.717  0.8340 -0.2077  0.1258
  683MOL0     C94137   9.989   0.007   3.653  0.2437 -0.7801  0.6842
  683MOL0     C94138  10.001   0.080   3.527 -0.0840 -0.4541  0.3411
  683MOL0     C94139  10.122   0.042   3.441  0.2683  0.0366  0.3427
  683MOL0     O94140  10.086  -0.069   3.361 -0.0287  0.0402 -0.0839
  683MOL0     C94141  10.174  -0.094   3.255  0.4785  0.2630 -0.4195
  683MOL0     C94142  10.115  -0.134   3.141  0.4129  0.4332  0.1087
  683MOL0     C94143  10.192  -0.169   3.026 -0.2586  0.2902 -0.5473
  683MOL0     C94144  10.125  -0.171   2.891 -0.0281  0.2793 -0.5754
  683MOL0     C94145  10.336  -0.175   3.045 -0.1436  0.3714  0.7176
  683MOL0     C94146  10.431  -0.198   2.935  0.6638 -0.2594 -0.1858
  683MOL0     O94147  10.544  -0.275   2.952 -0.2252  0.2737  0.3045
  683MOL0     C94148  10.647  -0.263   2.863  0.7960  0.4999  0.2443
  683MOL0     C94149  10.758  -0.205   2.915  0.4549 -0.4350  0.3061
  683MOL0     C94150  10.867  -0.186   2.830 -0.6738 -0.4637 -0.0763
  683MOL0     C94151  10.870  -0.233   2.698 -0.2083 -0.2749 -0.0385
  683MOL0     O94152  10.983  -0.215   2.617 -0.0136  0.0075 -0.2097
  683MOL0     C94153  11.094  -0.121   2.656 -0.8194  0.6293  0.5829
  683MOL0     C94154  11.216  -0.136   2.564  0.4974 -0.5110 -1.1949
  683MOL0     C94155  11.336  -0.068   2.630  0.2449 -0.2779 -0.3048
  683MOL0     C94156  11.466  -0.110   2.569  0.4583 -0.1707 -0.1794
  683MOL0     C94157  11.591  -0.039   2.636 -0.6164  0.6588 -0.3389
  683MOL0     C94158  11.616  -0.058   2.781  0.0972 -0.6071 -0.4849
  683MOL0     C94159  11.724   0.029   2.850 -0.1491 -0.5153 -0.5127
  683MOL0     C94160  11.859   0.014   2.780  0.6866  0.1103  0.8637
  683MOL0    Cl94161  11.989   0.115   2.867 -0.3446  0.2705  0.3519
  683MOL0     C94162  10.755  -0.293   2.649  0.5973  0.0971  0.3122
  683MOL0     C94163  10.640  -0.312   2.730 -0.8160  1.0401  0.4784
  683MOL0     O94164  10.406  -0.133   2.835 -0.0518  0.0532 -0.1646
  683MOL0     C94165  10.387  -0.164   3.183  0.5227  0.3315 -0.5627
  683MOL0     C94166  10.307  -0.114   3.279 -0.1343 -0.4996  1.3381
  683MOL0     N94167   9.827   0.292   3.742  0.3964  0.8415  0.6067
  683MOL0     N94168   9.854   0.391   3.825 -0.1172  0.3908  0.0193
  683MOL0     C94169  10.848   0.901   3.908 -0.3585  0.5517 -0.2211
  683MOL0     C94170  10.988   0.896   3.888 -0.5916  0.3150 -0.4307
  683MOL0     C94171  11.400   1.008   3.724 -0.2368  0.4362  0.0145
  683MOL0     C94172  11.492   0.917   3.664  0.4950 -0.6737 -0.3398
  683MOL0     C94173  11.627   0.956   3.645 -1.2578 -0.0387  0.0082
  683MOL0     C94174  11.673   1.079   3.690 -0.2600  0.0079  0.4500
  683MOL0     O94175  11.803   1.122   3.670 -0.2465 -0.1917 -0.7620
  683MOL0     C94176  11.894   1.128   3.776  0.0805  0.0980 -0.3722
  683MOL0     C94177  11.919   0.996   3.853  0.1501  0.0401  1.1537
  683MOL0     C94178  12.029   1.007   3.955 -0.3428  0.1211  0.0750
  683MOL0     C94179  11.981   1.096   4.077  0.3042 -0.1748  0.2970
  683MOL0     C94180  12.097   1.084   4.170 -0.0594 -0.1635  0.0488
  683MOL0     C94181  12.205   1.086   4.234 -0.4657 -0.0484 -0.1681
  683MOL0     C94182  11.575   1.165   3.744  0.0038  0.4604 -1.1476
  683MOL0     C94183  11.445   1.137   3.767  0.1089  0.9623  0.2064
  683MOL0     C94184  11.349   1.244   3.808  0.7267  0.4105 -0.7600
  683MOL0     H94185  11.057   1.214   3.855  0.2652  0.6421  1.1328
  683MOL0     H94186  10.809   1.235   3.851 -1.3872  1.2513  1.6479
  683MOL0     H94187  10.614   0.939   4.091  1.2296  2.4275 -0.7926
  683MOL0     H94188  10.593   0.831   3.951 -0.5489  0.4305 -1.0866
  683MOL0     H94189  10.407   1.059   4.018  0.6022 -1.1026  2.3215
  683MOL0     H94190  10.378   0.948   3.896  0.5762 -0.0576 -0.1176
  683MOL0     H94191  10.414   0.824   4.173  1.3134 -1.2629 -1.9411
  683MOL0     H94192  10.264   0.907   4.141  0.2810 -1.1911  0.8293
  683MOL0     H94193  10.222   0.765   3.936 -1.1355 -0.8134  0.3125
  683MOL0     H94194  10.364   0.673   3.980  1.3370  2.3268 -0.2657
  683MOL0     H94195  10.147   0.709   4.195  2.1593  1.3545 -1.2578
  683MOL0     H94196  10.253   0.566   4.175 -0.4787 -1.4715  0.0886
  683MOL0     H94197  10.036   0.631   3.985  0.8584  0.5077 -0.4950
  683MOL0     H94198  10.156   0.509   3.963 -1.4110 -2.0656  0.4526
  683MOL0     H94199  10.005   0.491   4.225 -0.3197  0.7033  0.2023
  683MOL0     H94200  10.096   0.366   4.138 -0.6178  0.2767 -0.1040
  683MOL0     H94201   9.847   0.327   4.148 -1.8309  0.4128 -1.3581
  683MOL0     H94202   9.830   0.489   4.062 -1.4243  0.7472  1.1004
  683MOL0     H94203   9.951   0.120   3.995  0.5720 -0.2968 -0.5839
  683MOL0     H94204   9.789   0.064   3.636 -1.0446 -3.0995  0.5739
  683MOL0     H94205   9.815  -0.044   3.778 -0.6485  0.4967  0.0699
  683MOL0     H94206  10.061   0.031   3.731  0.3786 -0.7748  0.5570
  683MOL0     H94207   9.988  -0.101   3.633  2.1988 -0.6992 -0.1099
  683MOL0     H94208   9.916   0.064   3.461  1.5003 -1.2168 -1.6115
  683MOL0     H94209  10.006   0.189   3.541  0.2038 -0.4834  0.4832
  683MOL0     H94210  10.170   0.120   3.382  0.0198 -1.6216 -2.2244
  683MOL0     H94211  10.204   0.019   3.511  1.2016 -0.3581 -0.8340
  683MOL0     H94212  10.008  -0.127   3.127  0.0702 -0.9239  1.6953
  683MOL0     H94213  10.017  -0.156   2.902  0.0396  2.8395 -2.6104
  683MOL0     H94214  10.146  -0.267   2.843  3.4100  0.8904 -0.5437
  683MOL0     H94215  10.177  -0.097   2.831  2.3794  0.1437  1.2017
  683MOL0     H94216  10.757  -0.190   3.023  0.5930 -2.2701  0.5895
  683MOL0     H94217  10.959  -0.151   2.876  0.6974  0.3452 -3.1925
  683MOL0     H94218  11.058  -0.017   2.655 -1.0229  0.6715  3.6675
  683MOL0     H94219  11.125  -0.137   2.760  4.2220  0.3051 -0.7167
  683MOL0     H94220  11.246  -0.240   2.548  2.8618 -0.2324  0.8390
  683MOL0     H94221  11.193  -0.098   2.464 -1.2693 -0.7656 -0.9183
  683MOL0     H94222  11.346  -0.101   2.734 -0.0159  1.5423  0.3272
  683MOL0     H94223  11.337   0.041   2.620 -0.0434 -0.4433 -2.8113
  683MOL0     H94224  11.452  -0.071   2.468 -2.2456 -1.2817 -0.2952
  683MOL0     H94225  11.484  -0.218   2.568  2.5870  0.1151  1.0562
  683MOL0     H94226  11.678  -0.082   2.585  0.3594 -1.8320  3.0790
  683MOL0     H94227  11.583   0.066   2.609  0.2642  0.5797 -0.9596
  683MOL0     H94228  11.629  -0.166   2.790 -1.7546 -1.1965 -3.5609
  683MOL0     H94229  11.521  -0.029   2.826  1.2812  0.8351  1.2642
  683MOL0     H94230  11.746  -0.002   2.952  0.2584  0.1683 -0.3864
  683MOL0     H94231  11.703   0.136   2.844  0.0391 -0.3819  0.9890
  683MOL0     H94232  11.862   0.023   2.671  3.9365  0.2815  0.8722
  683MOL0     H94233  11.872  -0.094   2.797 -4.9929 -1.1281 -0.4512
  683MOL0     H94234  10.770  -0.320   2.545  1.3209  1.4877  0.0317
  683MOL0     H94235  10.556  -0.369   2.693 -0.1337  1.9719 -2.7666
  683MOL0     H94236  10.492  -0.177   3.210  0.3432 -1.8163 -0.7467
  683MOL0     H94237  10.352  -0.098   3.376  0.7368 -0.5990  0.9600
  683MOL0     H94238  10.803   0.804   3.927  0.1334 -0.6141 -4.0712
  683MOL0     H94239  11.043   0.805   3.909  0.7403  1.1414 -0.2188
  683MOL0     H94240  11.451   0.822   3.630  0.1876 -0.6926  0.0784
  683MOL0     H94241  11.696   0.886   3.599 -2.0494 -0.8497  0.0115
  683MOL0     H94242  11.994   1.161   3.747 -0.5733  0.8446 -1.8963
  683MOL0     H94243  11.850   1.204   3.842  1.1509 -0.9128  1.5912
  683MOL0     H94244  11.950   0.923   3.777 -0.7892 -1.2411  1.9716
  683MOL0     H94245  11.832   0.955   3.905 -1.8008  0.7921 -1.3134
  683MOL0     H94246  12.047   0.905   3.990 -2.9691 -1.7410 -3.3326
  683MOL0     H94247  12.120   1.050   3.913  0.6961  0.5631  2.6391
  683MOL0     H94248  11.881   1.062   4.107 -2.3490  2.1745 -4.5673
  683MOL0     H94249  11.966   1.201   4.049 -1.6892 -0.7318 -0.9970
  683MOL0     H94250  12.295   1.090   4.292 -1.4864  1.1953  1.4361
  683MOL0     H94251  11.611   1.257   3.789 -0.4155  1.0649 -2.0248
  683MOL0     H94252  11.310   1.217   3.907 -0.5467 -1.4876 -1.7121
  683MOL0     H94253  11.401   1.340   3.802  0.0070  0.7535 -1.8308
  683MOL0     H94254  11.263   1.260   3.742 -0.2103  0.9022  0.5319
  684MOL0     O94255  11.410   2.141   2.108 -0.4068  0.8219 -0.1675
  684MOL0     C94256  11.365   2.060   2.191 -1.0515  0.0908  1.0800
  684MOL0     O94257  11.439   1.954   2.235 -0.0595  0.3819  0.3271
  684MOL0     C94258  11.585   1.947   2.216 -0.1954  0.5089 -0.0810
  684MOL0     C94259  11.674   2.057   2.222 -0.6891 -0.6119 -1.1288
  684MOL0     C94260  11.818   2.049   2.207 -0.4564  0.4539 -0.0445
  684MOL0     C94261  11.875   1.924   2.187 -0.3960 -0.5012 -0.2243
  684MOL0     O94262  12.009   1.918   2.190  0.3423 -0.0553 -0.2920
  684MOL0     C94263  12.074   1.811   2.129 -0.2631 -1.1029 -0.0384
  684MOL0     C94264  12.207   1.802   2.200 -0.0837  0.3072  0.1065
  684MOL0     C94265  12.297   1.701   2.137 -0.5234  0.1931  0.5856
  684MOL0     C94266  12.349   1.734   1.991  0.6915  0.3979  0.4759
  684MOL0     C94267  12.276   1.655   1.881 -0.0423 -0.7972 -0.0626
  684MOL0     C94268  12.328   1.693   1.738  0.2825 -1.0659  0.2359
  684MOL0     C94269  12.259   1.606   1.630 -0.4622 -0.4644  1.0764
  684MOL0     C94270  12.323   1.643   1.496 -0.7355 -1.0304  0.1031
  684MOL0     N94271  12.249   1.749   1.421 -0.3630 -0.2429  0.3512
  684MOL0     C94272  12.286   1.885   1.430 -0.7756 -0.1734  0.7940
  684MOL0     C94273  12.165   1.953   1.402  0.0968 -0.0300 -0.2733
  684MOL0     C94274  12.136   2.103   1.389 -0.2440  0.0779  1.1969
  684MOL0     C94275  12.223   2.156   1.276 -0.5678 -0.0766 -0.4295
  684MOL0     C94276  12.218   2.079   1.143 -0.2848  0.3692  0.0555
  684MOL0     C94277  12.085   2.076   1.064 -0.1857  0.1341 -0.1776
  684MOL0     O94278  12.030   2.209   1.052  0.2030  0.0728  0.1750
  684MOL0     C94279  11.901   2.215   1.005 -0.4684  0.4187  1.3647
  684MOL0     C94280  11.839   2.343   0.995  0.1234  0.4024  0.3831
  684MOL0     C94281  11.711   2.360   0.955  0.0475 -0.5833  0.4420
  684MOL0     C94282  11.678   2.497   0.907 -0.3924  0.1742 -0.1029
  684MOL0     C94283  11.625   2.248   0.937 -0.2854 -0.0710 -0.2405
  684MOL0     C94284  11.480   2.258   0.882  0.6465 -0.3953 -0.0746
  684MOL0     O94285  11.429   2.137   0.841 -0.0197 -0.6259  0.0066
  684MOL0     C94286  11.295   2.133   0.823 -0.0546 -0.1129 -0.4426
  684MOL0     C94287  11.234   2.144   0.696  0.1971 -0.5660  0.6149
  684MOL0     C94288  11.095   2.130   0.688  1.3544 -0.1967  0.0861
  684MOL0     C94289  11.015   2.113   0.804  0.2004  0.2766 -0.1812
  684MOL0     O94290  10.883   2.100   0.807  0.5088 -0.1558 -0.4638
  684MOL0     C94291  10.818   2.125   0.676 -0.3159 -0.0587 -0.6627
  684MOL0     C94292  10.812   2.278   0.660  0.5287 -0.4385 -0.0275
  684MOL0     C94293  10.718   2.322   0.544 -0.3685  1.0316 -0.0887
  684MOL0     C94294  10.567   2.306   0.578  0.2099  0.1498 -0.5251
  684MOL0     C94295  10.482   2.355   0.466 -0.8264 -0.1960 -0.0868
  684MOL0     C94296  10.332   2.344   0.489  0.8364 -0.4151 -0.3874
  684MOL0     C94297  10.247   2.441   0.408 -0.4048  0.5264 -1.0195
  684MOL0     C94298  10.106   2.415   0.453 -0.9816 -0.0721 -0.6598
  684MOL0    Cl94299  10.068   2.489   0.613 -0.0841 -0.0764  0.0346
  684MOL0     C94300  11.081   2.113   0.931  0.2163 -1.0012  0.6208
  684MOL0     C94301  11.219   2.124   0.942 -0.5518 -0.6678  0.0949
  684MOL0     O94302  11.408   2.365   0.889 -0.3024  0.0779  0.5225
  684MOL0     C94303  11.677   2.114   0.946 -0.3350 -1.2510 -0.8163
  684MOL0     C94304  11.811   2.101   0.988 -0.5861  0.1039 -0.7279
  684MOL0     N94305  12.067   1.859   1.380 -0.0714  0.0005 -0.4213
  684MOL0     N94306  12.117   1.741   1.378  0.2015  0.2684 -0.3366
  684MOL0     C94307  11.787   1.811   2.197 -0.3218 -0.6444  0.5334
  684MOL0     C94308  11.645   1.825   2.205  0.0377  1.0773  0.9658
  684MOL0     C94309  11.223   2.054   2.227 -0.1935 -0.5193 -0.4975
  684MOL0     C94310  11.156   1.929   2.221 -0.0567 -0.1611  0.9328
  684MOL0     C94311  11.022   1.921   2.244  0.6042  0.0133 -0.1125
  684MOL0     C94312  10.950   2.036   2.274  0.0623 -0.4780 -0.0219
  684MOL0     O94313  10.821   2.008   2.317 -0.5852  0.0521 -0.0510
  684MOL0     C94314  10.746   2.119   2.365  0.9352 -0.1233 -0.4143
  684MOL0     C94315  10.624   2.045   2.435  0.2966  0.6715  0.3486
  684MOL0     C94316  10.543   1.945   2.346  0.3961 -0.2828  0.4972
  684MOL0     C94317  10.415   1.893   2.390  0.9813  0.1644  0.5748
  684MOL0     C94318  10.417   1.879   2.535  0.1750  0.6293 -1.1144
  684MOL0     C94319  10.417   1.859   2.658 -0.2410  0.2716  0.5171
  684MOL0     C94320  11.005   2.161   2.269  0.3984 -0.4989  0.8846
  684MOL0     C94321  11.149   2.177   2.251 -0.0374 -0.6704 -0.3051
  684MOL0     C94322  11.203   2.317   2.272  0.1155 -0.0698 -0.3943
  684MOL0     H94323  11.636   2.155   2.248 -4.5845 -1.9801 -1.0344
  684MOL0     H94324  11.882   2.137   2.216 -0.3399  0.7781 -3.0250
  684MOL0     H94325  12.090   1.829   2.023 -3.1146 -0.0306 -0.3927
  684MOL0     H94326  12.028   1.713   2.148  2.4362 -2.0404  2.4473
  684MOL0     H94327  12.257   1.899   2.196  0.0106  0.3556  1.7729
  684MOL0     H94328  12.194   1.782   2.307 -0.8452  0.0328 -0.0348
  684MOL0     H94329  12.387   1.684   2.197  1.1068  2.1139 -1.1591
  684MOL0     H94330  12.247   1.604   2.124  0.2894 -0.2424  0.6363
  684MOL0     H94331  12.340   1.837   1.957  1.1635  1.3210  2.9800
  684MOL0     H94332  12.456   1.712   1.990  0.7241  0.3926 -1.5973
  684MOL0     H94333  12.167   1.666   1.890  0.2887  2.3950  1.8605
  684MOL0     H94334  12.303   1.550   1.889 -1.5663 -1.2649 -0.6699
  684MOL0     H94335  12.307   1.800   1.723  0.9396 -1.3665 -3.9730
  684MOL0     H94336  12.436   1.676   1.735  0.0902 -2.3491  0.1358
  684MOL0     H94337  12.150   1.613   1.630 -0.6566 -2.4502 -0.7448
  684MOL0     H94338  12.286   1.503   1.651 -1.4194 -0.7652  0.8678
  684MOL0     H94339  12.423   1.678   1.523 -0.2971 -2.8989  1.0623
  684MOL0     H94340  12.326   1.558   1.428  0.5839 -0.6157 -0.3815
  684MOL0     H94341  12.383   1.933   1.440 -2.3890  3.8223 -0.4220
  684MOL0     H94342  12.151   2.160   1.481 -1.0171 -1.6110  2.4376
  684MOL0     H94343  12.033   2.109   1.353  0.7302 -2.5006 -2.5451
  684MOL0     H94344  12.200   2.263   1.269 -0.1472 -0.0637 -1.9422
  684MOL0     H94345  12.329   2.152   1.300 -0.5948 -0.5271 -0.3789
  684MOL0     H94346  12.289   2.131   1.078 -0.0963  1.4125  1.0695
  684MOL0     H94347  12.258   1.978   1.153 -1.4227 -0.0415  0.5484
  684MOL0     H94348  12.105   2.034   0.965  0.6664 -0.7378  0.3480
  684MOL0     H94349  12.013   2.022   1.126 -3.0018  4.1431  0.4506
  684MOL0     H94350  11.914   2.421   1.006  4.8520 -3.5661  0.0024
  684MOL0     H94351  11.628   2.548   0.989  2.9259  0.0815  2.1753
  684MOL0     H94352  11.616   2.503   0.817  0.5282  0.7132 -0.7176
  684MOL0     H94353  11.766   2.561   0.894  0.6098 -1.0715  0.3707
  684MOL0     H94354  11.295   2.147   0.606 -0.8680  0.3961 -0.1107
  684MOL0     H94355  11.066   2.116   0.585  2.5510  2.4658 -0.7125
  684MOL0     H94356  10.852   2.077   0.584 -3.9532 -0.5800 -1.8999
  684MOL0     H94357  10.715   2.088   0.680 -1.1351  2.0461 -1.2289
  684MOL0     H94358  10.756   2.313   0.748 -1.7844  3.5137 -2.7604
  684MOL0     H94359  10.913   2.318   0.646  1.0362 -1.9370 -0.8810
  684MOL0     H94360  10.743   2.267   0.453  0.5145 -2.1351  1.8962
  684MOL0     H94361  10.737   2.426   0.516  1.7501  0.5089 -0.8333
  684MOL0     H94362  10.549   2.364   0.669 -0.4030  0.0701 -0.5961
  684MOL0     H94363  10.543   2.202   0.605 -1.5837  0.4594 -0.8698
  684MOL0     H94364  10.516   2.459   0.462  2.3076 -1.0798  1.2538
  684MOL0     H94365  10.512   2.316   0.369  0.1730 -0.0591  0.1624
  684MOL0     H94366  10.304   2.363   0.593 -1.1699 -3.9558 -0.0945
  684MOL0     H94367  10.305   2.241   0.463 -0.6362  0.2545 -1.7042
  684MOL0     H94368  10.269   2.429   0.302  0.5694  2.0434 -1.0269
  684MOL0     H94369  10.275   2.544   0.432 -0.2492  0.2191  0.1790
  684MOL0     H94370  10.094   2.306   0.463 -0.8619  0.0863  1.9363
  684MOL0     H94371  10.042   2.459   0.377  1.1771 -0.6473 -2.9417
  684MOL0     H94372  11.012   2.129   1.014 -0.8819 -0.4591 -0.3555
  684MOL0     H94373  11.273   2.120   1.036 -0.3518 -1.7382 -0.0469
  684MOL0     H94374  11.616   2.026   0.926  0.0895 -1.5997 -0.5837
  684MOL0     H94375  11.833   1.995   0.989  0.7694  0.3623 -1.1335
  684MOL0     H94376  11.833   1.717   2.168  1.7328  0.0607  1.3229
  684MOL0     H94377  11.586   1.734   2.193  3.4935 -1.4169  1.3531
  684MOL0     H94378  11.211   1.839   2.194  0.8235 -0.4743  3.4292
  684MOL0     H94379  10.970   1.827   2.235  1.5084 -0.3892 -1.3138
  684MOL0     H94380  10.795   2.178   2.444  1.3001 -0.9643  0.0097
  684MOL0     H94381  10.712   2.193   2.292 -0.0188 -1.0901 -0.9714
  684MOL0     H94382  10.557   2.118   2.481 -0.4007 -0.2883  0.8692
  684MOL0     H94383  10.672   1.999   2.521  1.5629  2.1373  0.4748
  684MOL0     H94384  10.516   2.005   2.259 -1.0658 -0.5510  0.7439
  684MOL0     H94385  10.608   1.862   2.315  0.8599  0.4879 -0.6517
  684MOL0     H94386  10.404   1.793   2.347 -0.8575  0.3222  0.6191
  684MOL0     H94387  10.328   1.952   2.361  1.7709  1.3701  0.5746
  684MOL0     H94388  10.433   1.831   2.760 -2.0958  2.5738  1.5289
  684MOL0     H94389  10.954   2.254   2.291  1.7453  0.8270 -1.2761
  684MOL0     H94390  11.117   2.383   2.285 -0.0949 -0.2680 -0.7698
  684MOL0     H94391  11.267   2.319   2.361 -0.8016 -1.3645  0.3256
  684MOL0     H94392  11.252   2.358   2.183  4.1309 -1.9304  0.6947
  685MOL0     O94393   1.692   4.091   7.177 -0.4560  0.3843 -0.6932
  685MOL0     C94394   1.594   4.120   7.238 -0.2830 -0.4468  0.3786
  685MOL0     O94395   1.589   4.207   7.343  1.0298 -1.0324 -0.2048
  685MOL0     C94396   1.694   4.289   7.378 -0.1332  0.5603 -0.5768
  685MOL0     C94397   1.687   4.420   7.351  0.0075  1.6087  0.4634
  685MOL0     C94398   1.789   4.514   7.377  0.3602  0.3524 -0.1874
  685MOL0     C94399   1.907   4.461   7.437  0.4401 -0.2284  0.0911
  685MOL0     O94400   2.024   4.528   7.474 -0.3021 -0.4152  0.1603
  685MOL0     C94401   2.039   4.662   7.419  0.1923  0.0778 -0.5188
  685MOL0     C94402   2.136   4.717   7.526 -0.7690  0.3697  0.4301
  685MOL0     C94403   2.165   4.858   7.477 -0.3093  0.0128 -0.1747
  685MOL0     C94404   2.121   4.961   7.584  0.1514 -0.0006 -0.7821
  685MOL0     C94405   2.162   5.103   7.553 -0.3707 -0.4573 -0.7960
  685MOL0     C94406   2.095   5.215   7.627 -0.2746  0.0463 -0.5572
  685MOL0     C94407   2.155   5.352   7.615 -0.1800  0.0149  0.3581
  685MOL0     C94408   2.081   5.460   7.678  0.2561  0.7865 -0.0004
  685MOL0     N94409   2.158   5.587   7.663  0.2222 -0.2649 -0.1038
  685MOL0     C94410   2.091   5.706   7.689 -0.1918 -0.1418 -0.0038
  685MOL0     C94411   2.185   5.795   7.721 -0.5211  0.4230  0.9504
  685MOL0     C94412   2.153   5.938   7.760  0.0416 -0.1252 -0.5236
  685MOL0     C94413   2.263   6.048   7.749 -0.5815  0.3054 -0.2980
  685MOL0     C94414   2.309   6.067   7.602  0.6102  0.7484  0.0087
  685MOL0     C94415   2.416   6.173   7.605  0.7845 -0.3757 -0.2240
  685MOL0     O94416   2.357   6.298   7.651 -0.5189 -0.0620  0.4171
  685MOL0     C94417   2.434   6.411   7.623 -0.6312 -0.7135  0.2058
  685MOL0     C94418   2.367   6.528   7.577  0.3728  0.0674  0.0987
  685MOL0     C94419   2.433   6.636   7.519  0.6646 -0.2470  0.2866
  685MOL0     C94420   2.352   6.754   7.479  0.5564 -0.5744 -0.3444
  685MOL0     C94421   2.578   6.624   7.500  0.2826 -0.3413 -0.2057
  685MOL0     C94422   2.659   6.722   7.418  0.1439 -0.0623 -0.3136
  685MOL0     O94423   2.791   6.709   7.432  0.2315  0.0532  0.7794
  685MOL0     C94424   2.874   6.729   7.323 -0.2676 -0.3724 -0.3120
  685MOL0     C94425   3.011   6.752   7.358 -0.0852 -0.6244 -0.8017
  685MOL0     C94426   3.109   6.757   7.258  0.1927 -0.2557 -0.7332
  685MOL0     C94427   3.071   6.754   7.123  0.2160 -0.1233  0.4509
  685MOL0     O94428   3.151   6.761   7.009 -0.1732 -1.2630 -0.3561
  685MOL0     C94429   3.289   6.747   7.037  0.0943 -0.2405  0.0848
  685MOL0     C94430   3.356   6.689   6.915  0.5058 -0.1782 -0.3668
  685MOL0     C94431   3.507   6.706   6.927  0.9745 -0.1438  0.2475
  685MOL0     C94432   3.576   6.677   6.794 -0.3539 -0.3674 -0.0505
  685MOL0     C94433   3.729   6.660   6.811  0.3063 -0.5216  0.3555
  685MOL0     C94434   3.809   6.779   6.853 -0.4746  0.1589 -0.1944
  685MOL0     C94435   3.797   6.909   6.781 -0.1024 -0.0557  0.1010
  685MOL0     C94436   3.811   6.903   6.623 -0.2390 -0.4193 -0.1297
  685MOL0    Cl94437   3.738   7.061   6.556 -0.2973 -0.2010  0.5047
  685MOL0     C94438   2.939   6.745   7.095  0.6639  0.7331 -0.3921
  685MOL0     C94439   2.843   6.735   7.193 -1.3242 -0.2446  0.8306
  685MOL0     O94440   2.610   6.800   7.340  0.1338 -0.1782 -0.4576
  685MOL0     C94441   2.645   6.515   7.558  0.2048  0.3026  0.0381
  685MOL0     C94442   2.574   6.415   7.621 -0.2286  0.7838  0.6031
  685MOL0     N94443   2.307   5.733   7.719 -0.4256 -0.2885  0.7517
  685MOL0     N94444   2.294   5.616   7.677  0.5910  0.3425  0.0352
  685MOL0     C94445   1.911   4.319   7.482 -0.1365 -0.1959 -0.0174
  685MOL0     C94446   1.801   4.241   7.449  0.2465  1.1465 -0.9512
  685MOL0     C94447   1.462   4.059   7.203  0.2799  0.8372 -0.3143
  685MOL0     C94448   1.364   4.060   7.307 -0.1253 -0.2807  0.8903
  685MOL0     C94449   1.235   4.010   7.291 -0.4607  0.5801  0.6803
  685MOL0     C94450   1.208   3.943   7.176  0.1968 -0.4177  0.2975
  685MOL0     O94451   1.082   3.905   7.140 -0.2199  0.1787  0.1844
  685MOL0     C94452   0.994   3.843   7.244 -0.0946  0.6456 -0.2028
  685MOL0     C94453   0.864   3.792   7.171  0.3632 -0.3870  0.2875
  685MOL0     C94454   0.773   3.902   7.114 -1.0190 -0.7155  0.1145
  685MOL0     C94455   0.621   3.864   7.111 -0.4295 -0.1095  0.3410
  685MOL0     C94456   0.610   3.766   7.003 -0.4991 -0.3984  0.8486
  685MOL0     C94457   0.592   3.684   6.916  0.3244 -0.5319 -0.2433
  685MOL0     C94458   1.300   3.937   7.074  0.1618  0.3858  0.2540
  685MOL0     C94459   1.431   3.987   7.085 -0.1676 -0.1636 -0.1479
  685MOL0     C94460   1.527   3.962   6.978  0.9190 -0.4963  0.5180
  685MOL0     H94461   1.591   4.440   7.304 -0.1488 -0.2270 -0.0632
  685MOL0     H94462   1.772   4.619   7.355 -1.0441 -0.1842 -1.9037
  685MOL0     H94463   1.946   4.720   7.419  2.0630  3.5107  2.5590
  685MOL0     H94464   2.069   4.658   7.314 -2.2435 -0.3578 -1.2594
  685MOL0     H94465   2.097   4.715   7.628 -0.2117  1.4522  0.6801
  685MOL0     H94466   2.230   4.661   7.524 -0.6225  0.6164 -1.0206
  685MOL0     H94467   2.273   4.853   7.456 -0.1324 -1.8735  0.9016
  685MOL0     H94468   2.112   4.887   7.386  2.3641  0.5574 -1.6880
  685MOL0     H94469   2.012   4.966   7.585  0.2043  2.4989  1.0950
  685MOL0     H94470   2.154   4.948   7.687 -0.2732 -2.4690 -0.8999
  685MOL0     H94471   2.153   5.133   7.448  2.3622  0.4051 -0.8716
  685MOL0     H94472   2.269   5.113   7.575 -0.9555  0.3280  2.1851
  685MOL0     H94473   1.989   5.214   7.600 -0.7718  0.7198  1.1863
  685MOL0     H94474   2.083   5.193   7.734 -2.9913  0.2937 -0.7339
  685MOL0     H94475   2.174   5.373   7.509  1.8959 -2.3055  0.1531
  685MOL0     H94476   2.253   5.343   7.664  0.0141 -1.1506 -0.2157
  685MOL0     H94477   1.985   5.472   7.627 -0.5738  4.1362  1.9706
  685MOL0     H94478   2.069   5.425   7.781 -0.3193 -0.6763 -0.5524
  685MOL0     H94479   1.985   5.729   7.693 -0.2336 -0.1023  5.2425
  685MOL0     H94480   2.120   5.932   7.864 -0.1217  0.8930 -0.5048
  685MOL0     H94481   2.075   5.975   7.693 -0.2023  0.5778  0.1352
  685MOL0     H94482   2.226   6.140   7.796 -0.0149  1.7980 -2.5949
  685MOL0     H94483   2.352   6.026   7.809  0.4390  1.2637 -1.3997
  685MOL0     H94484   2.358   5.974   7.573 -0.9299  0.1161 -0.6445
  685MOL0     H94485   2.238   6.088   7.522 -0.7722 -1.9245  0.4171
  685MOL0     H94486   2.486   6.146   7.684  0.0275 -0.6388  0.3732
  685MOL0     H94487   2.465   6.182   7.507  3.3714 -1.7082  0.8624
  685MOL0     H94488   2.258   6.522   7.579  0.2423 -1.3411 -3.4738
  685MOL0     H94489   2.261   6.765   7.540  1.7560  1.6900  1.1893
  685MOL0     H94490   2.323   6.747   7.374  1.1581 -1.0539 -0.4842
  685MOL0     H94491   2.416   6.841   7.494  0.2851 -0.1840 -1.3401
  685MOL0     H94492   3.034   6.753   7.464 -1.0855 -0.8446 -0.5801
  685MOL0     H94493   3.211   6.777   7.290  0.5301  0.2699 -2.0343
  685MOL0     H94494   3.331   6.840   7.075 -0.1069 -0.4508  0.8509
  685MOL0     H94495   3.304   6.665   7.109  1.1310 -2.0792 -2.0889
  685MOL0     H94496   3.339   6.581   6.910  0.9568 -0.6096  3.8472
  685MOL0     H94497   3.326   6.744   6.825  0.1877  1.1796  0.5564
  685MOL0     H94498   3.548   6.637   7.002  2.8768 -1.9673 -2.2751
  685MOL0     H94499   3.524   6.807   6.967  2.5177 -0.2030 -0.1783
  685MOL0     H94500   3.547   6.749   6.717 -1.1359  0.1280  0.6875
  685MOL0     H94501   3.555   6.579   6.750  1.5433 -0.2238 -1.4124
  685MOL0     H94502   3.749   6.581   6.884  0.5054 -0.0913  0.7752
  685MOL0     H94503   3.762   6.625   6.713 -2.2823  0.3327 -0.9285
  685MOL0     H94504   3.914   6.748   6.848 -0.2629  0.8520 -0.1640
  685MOL0     H94505   3.781   6.793   6.958 -1.1000 -0.5931 -0.2509
  685MOL0     H94506   3.867   6.982   6.821 -2.4375  1.0386  2.4772
  685MOL0     H94507   3.699   6.949   6.808 -0.3842 -0.3920 -0.3992
  685MOL0     H94508   3.761   6.816   6.579  0.0757  0.5360 -2.5314
  685MOL0     H94509   3.918   6.894   6.601  0.0444  0.5802  0.7711
  685MOL0     H94510   2.894   6.718   7.000  0.7172 -0.9476  0.0258
  685MOL0     H94511   2.745   6.723   7.147  0.8519 -2.2615 -3.9699
  685MOL0     H94512   2.752   6.509   7.545  0.0458  0.0659 -1.3083
  685MOL0     H94513   2.619   6.325   7.660 -3.8247 -0.6045  2.0510
  685MOL0     H94514   1.992   4.273   7.539 -4.1095 -3.2577  3.9322
  685MOL0     H94515   1.797   4.137   7.479  1.7441  1.4699  0.5054
  685MOL0     H94516   1.391   4.110   7.400  2.1153 -0.7526  0.5694
  685MOL0     H94517   1.163   4.022   7.372 -1.7232 -1.5496 -0.0512
  685MOL0     H94518   1.040   3.764   7.304 -0.5833 -0.2660 -1.0067
  685MOL0     H94519   0.969   3.921   7.316  0.1010  0.6292 -0.1166
  685MOL0     H94520   0.814   3.738   7.252  1.8634 -0.6010  1.1108
  685MOL0     H94521   0.893   3.731   7.085 -1.6901 -1.1004  0.0364
  685MOL0     H94522   0.771   3.999   7.164 -3.4487 -1.0383  0.7799
  685MOL0     H94523   0.800   3.920   7.009 -3.1829  0.3067 -0.3262
  685MOL0     H94524   0.562   3.952   7.084  1.3645  0.7117 -1.1663
  685MOL0     H94525   0.587   3.830   7.209 -0.0874 -0.8781  0.1997
  685MOL0     H94526   0.579   3.607   6.843  1.5610 -1.0995  0.1065
  685MOL0     H94527   1.271   3.885   6.983  3.8892  1.1068 -1.5565
  685MOL0     H94528   1.631   3.996   6.983  0.1384  1.9987  1.1418
  685MOL0     H94529   1.526   3.853   6.973 -0.7661 -0.7240  3.4932
  685MOL0     H94530   1.473   3.999   6.891 -1.6089 -0.5147  1.9888
  686MOL0     O94531   7.973   7.384   8.465  0.2289 -1.2490  0.0466
  686MOL0     C94532   8.040   7.298   8.414 -0.6549  0.4833 -0.1724
  686MOL0     O94533   8.012   7.239   8.300  0.1578 -0.3074  0.3950
  686MOL0     C94534   7.880   7.250   8.250 -0.6308  1.1675 -0.6710
  686MOL0     C94535   7.858   7.294   8.120  0.0371 -0.1458  0.2469
  686MOL0     C94536   7.729   7.298   8.066 -0.3195  0.5984  0.3337
  686MOL0     C94537   7.614   7.259   8.133 -0.7347  0.0056  0.1101
  686MOL0     O94538   7.497   7.267   8.066  0.8601 -1.1843 -0.2438
  686MOL0     C94539   7.387   7.275   8.158  0.7399 -0.6425  0.7955
  686MOL0     C94540   7.260   7.327   8.085 -0.5969  0.5593  0.6938
  686MOL0     C94541   7.128   7.272   8.136 -0.3603  0.3013 -0.3774
  686MOL0     C94542   7.019   7.292   8.028 -0.3231 -0.5895 -0.2417
  686MOL0     C94543   6.877   7.273   8.089  0.3152  0.5505 -0.0794
  686MOL0     C94544   6.870   7.142   8.172 -0.0308 -0.3905  0.3806
  686MOL0     C94545   6.727   7.101   8.205 -0.1127  0.1341  0.6930
  686MOL0     C94546   6.655   7.006   8.104 -0.3504  0.1421  0.1732
  686MOL0     N94547   6.539   6.950   8.166 -0.8101 -1.2468  0.4059
  686MOL0     C94548   6.405   6.987   8.155 -0.8452  0.2609 -0.9853
  686MOL0     C94549   6.344   6.918   8.260  1.0934 -0.7404  0.5494
  686MOL0     C94550   6.190   6.921   8.293  0.1794 -0.2169 -0.8137
  686MOL0     C94551   6.099   6.943   8.174 -0.2421 -0.2220  0.0772
  686MOL0     C94552   5.950   6.961   8.225 -0.4795  0.2262  0.5388
  686MOL0     C94553   5.857   6.910   8.115 -0.2025  0.4844  0.2324
  686MOL0     O94554   5.728   6.959   8.147  0.5160  0.1678 -0.1010
  686MOL0     C94555   5.633   6.943   8.043  0.5755 -0.1388  0.3966
  686MOL0     C94556   5.503   6.988   8.075  1.3408 -0.2380 -0.4700
  686MOL0     C94557   5.400   6.977   7.979 -0.4458  0.3422  0.6453
  686MOL0     C94558   5.267   7.034   8.014  0.2085  0.2490 -0.7278
  686MOL0     C94559   5.422   6.927   7.850 -0.9063 -0.2935 -0.2130
  686MOL0     C94560   5.318   6.916   7.735  0.0603 -0.7781 -0.7044
  686MOL0     O94561   5.195   6.971   7.757 -0.1728  0.3244 -0.1374
  686MOL0     C94562   5.121   7.016   7.655  0.1615  0.2178 -0.0893
  686MOL0     C94563   4.984   7.010   7.669  0.2098  0.0778  0.8934
  686MOL0     C94564   4.905   7.066   7.573  0.3420  1.1726  0.5142
  686MOL0     C94565   4.953   7.119   7.455 -0.8921 -0.0148  0.4852
  686MOL0     O94566   4.867   7.175   7.362 -0.5437  0.0799 -0.5839
  686MOL0     C94567   4.830   7.070   7.266  1.1242 -0.6443  0.6121
  686MOL0     C94568   4.743   7.127   7.159  0.0366 -0.0841 -0.0224
  686MOL0     C94569   4.683   7.020   7.060  0.0945 -0.1134 -0.3350
  686MOL0     C94570   4.613   7.096   6.939  0.5494  0.3470 -0.7152
  686MOL0     C94571   4.711   7.142   6.827 -0.5121  0.8585  0.1361
  686MOL0     C94572   4.796   7.033   6.761 -0.4333  0.3859  0.2801
  686MOL0     C94573   4.728   6.895   6.737  0.9337  0.0488  0.6441
  686MOL0     C94574   4.788   6.821   6.612 -0.8225  0.3210  0.8111
  686MOL0    Cl94575   4.781   6.932   6.463 -0.0972 -0.2033  0.2150
  686MOL0     C94576   5.087   7.138   7.444  0.4908  0.8144  0.6012
  686MOL0     C94577   5.171   7.083   7.538 -0.2267 -0.6260  0.2821
  686MOL0     O94578   5.343   6.839   7.638 -0.4323  0.1438 -0.3285
  686MOL0     C94579   5.554   6.883   7.825 -0.3395 -0.1636  0.5249
  686MOL0     C94580   5.661   6.890   7.918  0.6986 -0.1553 -0.0636
  686MOL0     N94581   6.442   6.842   8.326  0.1996 -0.1364 -0.7057
  686MOL0     N94582   6.550   6.867   8.270 -0.3267  0.6555  0.1015
  686MOL0     C94583   7.636   7.216   8.273 -0.2048  0.0488  0.8473
  686MOL0     C94584   7.767   7.204   8.326 -0.0664  0.2710 -0.0909
  686MOL0     C94585   8.159   7.237   8.484  0.4028  0.8017 -0.3772
  686MOL0     C94586   8.192   7.101   8.458  0.4526  0.1630  0.6212
  686MOL0     C94587   8.305   7.037   8.529  0.3811  0.0904 -0.0392
  686MOL0     C94588   8.383   7.116   8.622  0.4336 -0.1913 -0.0355
  686MOL0     O94589   8.484   7.078   8.707  0.1181  0.5383 -0.2942
  686MOL0     C94590   8.521   6.942   8.686 -1.2106 -0.0239 -0.1743
  686MOL0     C94591   8.660   6.929   8.756 -0.6122  0.0584  0.4234
  686MOL0     C94592   8.777   6.998   8.672 -0.2787 -0.3206 -0.4944
  686MOL0     C94593   8.903   6.998   8.765  0.1411  0.1387 -0.0012
  686MOL0     C94594   9.009   7.082   8.700 -0.7533 -0.1331 -0.0911
  686MOL0     C94595   9.098   7.159   8.677 -0.3202 -0.7832  0.4283
  686MOL0     C94596   8.341   7.246   8.641 -0.0864  0.1744 -0.3646
  686MOL0     C94597   8.230   7.303   8.581 -0.1897 -0.1589  0.6149
  686MOL0     C94598   8.190   7.445   8.628 -0.6315 -0.6659  0.8041
  686MOL0     H94599   7.939   7.306   8.048  1.4857 -4.7915  0.7926
  686MOL0     H94600   7.720   7.326   7.962 -0.0654 -0.5876 -0.0256
  686MOL0     H94601   7.413   7.344   8.239  0.6326 -0.7900  0.9570
  686MOL0     H94602   7.364   7.175   8.195  2.1475 -2.0621 -1.9160
  686MOL0     H94603   7.264   7.436   8.100  2.2300  0.2715  2.9344
  686MOL0     H94604   7.271   7.298   7.981 -0.4159 -0.4678  0.9955
  686MOL0     H94605   7.140   7.171   8.175  1.6164  0.2220 -1.0635
  686MOL0     H94606   7.094   7.332   8.221  1.5673 -0.8243  1.2631
  686MOL0     H94607   7.024   7.396   7.995 -3.1042  1.0473  3.6450
  686MOL0     H94608   7.035   7.219   7.948 -1.9788 -2.7280  1.2277
  686MOL0     H94609   6.801   7.269   8.011 -2.2009 -3.6123  2.2262
  686MOL0     H94610   6.855   7.355   8.158  0.4925  0.4779  0.0639
  686MOL0     H94611   6.921   7.062   8.117  1.8740 -0.8486  2.6513
  686MOL0     H94612   6.919   7.160   8.268 -1.6325 -1.4835  1.4374
  686MOL0     H94613   6.677   7.193   8.237  1.3569  0.9310  0.7953
  686MOL0     H94614   6.741   7.036   8.292 -1.2073  1.1148  1.6415
  686MOL0     H94615   6.628   7.057   8.011 -0.9668  1.3956  1.0130
  686MOL0     H94616   6.711   6.914   8.086 -1.7183 -0.9115  1.0381
  686MOL0     H94617   6.355   7.063   8.095  0.1891  2.2922  0.6067
  686MOL0     H94618   6.178   7.008   8.358 -0.1663 -0.5728 -0.3952
  686MOL0     H94619   6.160   6.829   8.344  1.0167  0.6983  1.4141
  686MOL0     H94620   6.141   7.029   8.122 -0.0971 -0.3325  0.0077
  686MOL0     H94621   6.097   6.859   8.104 -1.2019 -0.8350  0.8108
  686MOL0     H94622   5.937   6.902   8.316  0.9748 -2.0611 -0.6653
  686MOL0     H94623   5.912   7.063   8.237 -1.3816 -0.0940  0.4892
  686MOL0     H94624   5.895   6.954   8.022  2.0068 -2.7111 -0.5536
  686MOL0     H94625   5.867   6.802   8.097  0.0321  0.3105  1.3127
  686MOL0     H94626   5.482   7.051   8.161  0.9566  1.1594 -1.5407
  686MOL0     H94627   5.179   6.969   8.012 -0.7296  1.4913 -1.9873
  686MOL0     H94628   5.242   7.123   7.955 -1.6830  0.0698 -0.2587
  686MOL0     H94629   5.261   7.059   8.120 -6.5737 -1.9801 -0.0806
  686MOL0     H94630   4.950   6.960   7.759  0.9399 -0.3709  0.9221
  686MOL0     H94631   4.797   7.065   7.587  0.1762  3.8521 -0.0273
  686MOL0     H94632   4.924   7.034   7.223  1.4698 -0.4908  1.2262
  686MOL0     H94633   4.770   6.989   7.308 -2.1275  0.9449 -0.6239
  686MOL0     H94634   4.657   7.171   7.209 -0.7646  0.1620 -1.5901
  686MOL0     H94635   4.799   7.206   7.108 -1.8061  1.1320 -0.2159
  686MOL0     H94636   4.614   6.960   7.120  0.6628  0.4065  0.8954
  686MOL0     H94637   4.769   6.961   7.030  0.5849  1.1785 -1.5608
  686MOL0     H94638   4.541   7.173   6.969  0.3781  0.3474 -1.1242
  686MOL0     H94639   4.548   7.015   6.905  2.7211 -1.6542 -0.3779
  686MOL0     H94640   4.657   7.200   6.751  0.1554  1.5199  0.1477
  686MOL0     H94641   4.785   7.207   6.875 -0.9839  1.0911  0.5523
  686MOL0     H94642   4.879   7.007   6.828  0.5706  1.9268 -0.3032
  686MOL0     H94643   4.835   7.071   6.666 -0.7220 -1.1100 -0.4783
  686MOL0     H94644   4.621   6.903   6.717  1.0319 -1.5047 -0.7097
  686MOL0     H94645   4.742   6.822   6.817  2.5422  0.7231  1.0167
  686MOL0     H94646   4.733   6.729   6.591 -0.2479 -0.5044  2.7680
  686MOL0     H94647   4.893   6.794   6.627 -0.3038  1.5679 -0.3526
  686MOL0     H94648   5.119   7.189   7.353 -2.4555 -1.9479 -2.2679
  686MOL0     H94649   5.278   7.098   7.526 -0.2053 -2.0158 -1.6162
  686MOL0     H94650   5.577   6.841   7.727  0.2056 -0.4006  0.7527
  686MOL0     H94651   5.756   6.854   7.879 -0.6935 -0.5418 -3.4407
  686MOL0     H94652   7.550   7.182   8.330 -0.7779  1.2654  0.7359
  686MOL0     H94653   7.781   7.170   8.428 -2.5253  2.4556  1.0925
  686MOL0     H94654   8.135   7.035   8.392  0.8693  0.0623  0.3596
  686MOL0     H94655   8.324   6.931   8.514 -2.6876 -0.3493 -1.6045
  686MOL0     H94656   8.447   6.874   8.729 -1.0067  0.1392  0.4474
  686MOL0     H94657   8.520   6.910   8.581 -0.8509 -0.1072 -0.1539
  686MOL0     H94658   8.680   6.823   8.770 -0.7651 -0.5300 -2.9970
  686MOL0     H94659   8.661   6.978   8.854 -1.1406 -0.6648  0.7977
  686MOL0     H94660   8.797   6.956   8.573  0.0430 -0.2106 -0.4787
  686MOL0     H94661   8.750   7.102   8.652  2.2818  0.8594  1.6062
  686MOL0     H94662   8.945   6.896   8.765  1.5044  0.6777  0.1092
  686MOL0     H94663   8.879   7.034   8.865 -5.3746  1.5838 -1.5035
  686MOL0     H94664   9.178   7.220   8.641 -1.7511  0.5469 -0.5854
  686MOL0     H94665   8.404   7.296   8.714  1.5098 -1.5606 -0.4559
  686MOL0     H94666   8.112   7.451   8.703  0.3298 -2.6513  2.0361
  686MOL0     H94667   8.278   7.495   8.670 -0.0403  0.4242 -1.5342
  686MOL0     H94668   8.165   7.502   8.538 -0.2693 -1.1781  0.3708
  687MOL0     O94669   3.423   0.083   9.296  1.2139  0.0910 -0.0826
  687MOL0     C94670   3.367   0.009   9.377  0.1147  0.0267 -0.6092
  687MOL0     O94671   3.425  -0.084   9.444  0.1938  0.3218 -0.2193
  687MOL0     C94672   3.562  -0.078   9.451 -0.0297  0.8061  0.1446
  687MOL0     C94673   3.618  -0.054   9.573  0.2507 -0.0073 -0.6150
  687MOL0     C94674   3.752  -0.050   9.597 -0.0708  0.4448  0.2325
  687MOL0     C94675   3.849  -0.077   9.502 -0.0127  0.2005 -0.0604
  687MOL0     O94676   3.982  -0.090   9.549 -0.2791  0.3157  0.4343
  687MOL0     C94677   4.062  -0.187   9.476 -0.1988  0.1738  0.3483
  687MOL0     C94678   4.199  -0.210   9.548  0.8661  0.3811  0.4381
  687MOL0     C94679   4.190  -0.260   9.693  0.4182 -0.5377  0.1830
  687MOL0     C94680   4.328  -0.305   9.756  0.3106 -0.2380 -0.7603
  687MOL0     C94681   4.296  -0.344   9.907 -0.7237 -0.4377  0.0207
  687MOL0     C94682   4.406  -0.451   9.945 -0.1760  0.3276  0.0366
  687MOL0     C94683   4.538  -0.392   9.988 -0.5203 -0.9078  0.0398
  687MOL0     C94684   4.604  -0.481  10.096 -0.4740  0.7214  0.2430
  687MOL0     N94685   4.746  -0.454  10.122 -0.4921 -0.3846 -0.3628
  687MOL0     C94686   4.835  -0.550  10.159 -0.4443  0.4723  0.1650
  687MOL0     C94687   4.951  -0.481  10.197 -0.3389 -1.3446  0.5387
  687MOL0     C94688   5.081  -0.535  10.267  1.1775 -1.3128  0.3905
  687MOL0     C94689   5.206  -0.458  10.249  0.2242 -0.0513  1.1514
  687MOL0     C94690   5.246  -0.439  10.101  0.7512 -0.6947  0.1593
  687MOL0     C94691   5.287  -0.568  10.026 -0.0197  0.1432  0.2368
  687MOL0     O94692   5.365  -0.532   9.913 -0.3073 -1.5284  0.3132
  687MOL0     C94693   5.493  -0.472   9.929 -0.3790 -0.3383  0.0449
  687MOL0     C94694   5.579  -0.507  10.031 -0.4017 -0.3128 -0.3056
  687MOL0     C94695   5.711  -0.467  10.038  0.5084  1.0641 -0.0745
  687MOL0     C94696   5.801  -0.524  10.150 -0.0550  0.7077 -0.2029
  687MOL0     C94697   5.769  -0.385   9.927 -0.3364  1.4068  0.5009
  687MOL0     C94698   5.907  -0.348   9.918  0.5291  0.8823  0.0162
  687MOL0     O94699   5.940  -0.291   9.801  1.1508 -0.5875  0.0064
  687MOL0     C94700   6.058  -0.246   9.764  0.0208 -0.3204 -0.1515
  687MOL0     C94701   6.061  -0.183   9.641  0.3439  0.2897  0.8694
  687MOL0     C94702   6.182  -0.141   9.592 -0.2314  0.0978 -0.1210
  687MOL0     C94703   6.298  -0.160   9.665  0.0187  0.6663 -0.0719
  687MOL0     O94704   6.418  -0.113   9.625 -0.3026  0.1577  0.3700
  687MOL0     C94705   6.432  -0.053   9.491 -0.2331 -0.2238 -0.3764
  687MOL0     C94706   6.582  -0.041   9.452  0.4531  0.5765  0.0633
  687MOL0     C94707   6.652  -0.179   9.452 -0.0496  0.3639  0.1830
  687MOL0     C94708   6.810  -0.158   9.433  1.1293  0.2457  0.4730
  687MOL0     C94709   6.874  -0.266   9.366 -0.3001  0.0693 -0.1605
  687MOL0     C94710   7.024  -0.272   9.398 -0.7649  0.9609  0.1253
  687MOL0     C94711   7.078  -0.412   9.352 -0.1101  0.4226  0.1127
  687MOL0     C94712   7.226  -0.447   9.383  1.5556 -0.4784  0.5507
  687MOL0    Cl94713   7.244  -0.510   9.542 -0.0938 -0.3018  0.0036
  687MOL0     C94714   6.299  -0.227   9.787  0.7448  0.6996  0.5531
  687MOL0     C94715   6.179  -0.279   9.832 -0.4776 -0.3335  0.1878
  687MOL0     O94716   5.972  -0.329  10.020  0.2456 -0.3794 -0.4557
  687MOL0     C94717   5.680  -0.350   9.827 -0.0573 -0.2144 -0.8562
  687MOL0     C94718   5.548  -0.390   9.828  0.0035 -0.7003 -0.3653
  687MOL0     N94719   4.928  -0.348  10.178 -0.3950 -0.1471  0.5251
  687MOL0     N94720   4.817  -0.338  10.121 -0.0211  0.4645 -0.8490
  687MOL0     C94721   3.800  -0.099   9.375 -0.4562 -0.0470  0.2343
  687MOL0     C94722   3.656  -0.098   9.351  0.2735  0.2285  0.9185
  687MOL0     C94723   3.223   0.033   9.415  0.1550 -0.6480  0.6752
  687MOL0     C94724   3.171  -0.037   9.527  0.5083 -0.8770  0.2718
  687MOL0     C94725   3.040  -0.023   9.568  0.1846  0.0584  0.3356
  687MOL0     C94726   2.951   0.049   9.482  1.0911  0.1739 -0.0107
  687MOL0     O94727   2.822   0.058   9.527  0.2284  0.1924  0.5708
  687MOL0     C94728   2.723  -0.012   9.453  0.3997 -0.0002  0.1311
  687MOL0     C94729   2.602  -0.033   9.535 -0.6691  0.0441  0.5077
  687MOL0     C94730   2.528   0.103   9.559  0.5184  0.6687 -0.1813
  687MOL0     C94731   2.466   0.159   9.428 -0.6949  1.6568  0.4296
  687MOL0     C94732   2.417   0.298   9.437  0.2447 -0.7842  0.5323
  687MOL0     C94733   2.358   0.404   9.442 -0.5376  0.1469  0.4979
  687MOL0     C94734   2.998   0.123   9.374 -1.0861  0.9659  0.0535
  687MOL0     C94735   3.131   0.110   9.331 -0.0765  0.5059  0.0956
  687MOL0     C94736   3.189   0.180   9.211 -0.0768 -0.3164  0.4577
  687MOL0     H94737   3.553  -0.046   9.660  1.4289 -3.9358  0.8525
  687MOL0     H94738   3.784  -0.030   9.699  2.7788  0.3778 -0.5449
  687MOL0     H94739   4.078  -0.144   9.377  0.5756 -0.4495  0.1948
  687MOL0     H94740   4.014  -0.284   9.457  0.3560  0.1664 -1.1753
  687MOL0     H94741   4.255  -0.290   9.498  0.3879 -0.6081  1.4396
  687MOL0     H94742   4.260  -0.120   9.542  1.7763 -0.1393  1.5235
  687MOL0     H94743   4.133  -0.187   9.751 -2.5408 -1.0337 -1.8864
  687MOL0     H94744   4.127  -0.349   9.702 -1.0308  0.6513  3.7977
  687MOL0     H94745   4.359  -0.395   9.702 -1.0820 -0.6340 -0.9606
  687MOL0     H94746   4.406  -0.229   9.747  1.0615 -0.6105  1.7829
  687MOL0     H94747   4.199  -0.393   9.922 -0.8447 -0.1282  0.2588
  687MOL0     H94748   4.309  -0.256   9.969 -0.2470 -0.4866 -0.0101
  687MOL0     H94749   4.369  -0.504  10.033  2.9899 -0.2827  1.1463
  687MOL0     H94750   4.412  -0.524   9.863 -1.5202 -1.8120  1.7528
  687MOL0     H94751   4.524  -0.290  10.027 -2.9427  0.4714 -3.8052
  687MOL0     H94752   4.606  -0.375   9.904 -2.3753 -2.1156 -1.8054
  687MOL0     H94753   4.541  -0.492  10.185 -1.5839 -0.9341 -0.6817
  687MOL0     H94754   4.595  -0.582  10.055  0.2201 -0.7607  3.3896
  687MOL0     H94755   4.830  -0.658  10.162  3.1895  0.1099 -1.1372
  687MOL0     H94756   5.102  -0.633  10.224 -0.0316 -0.1708 -3.2629
  687MOL0     H94757   5.057  -0.535  10.373  3.3197 -0.2528  0.9221
  687MOL0     H94758   5.197  -0.357  10.290  0.4624  0.5100 -0.1254
  687MOL0     H94759   5.286  -0.509  10.304  0.6376  1.3477  1.9116
  687MOL0     H94760   5.165  -0.402  10.038  1.4591  0.0312 -0.3469
  687MOL0     H94761   5.321  -0.359  10.099 -2.0442  2.4433  4.2504
  687MOL0     H94762   5.343  -0.641  10.085  1.4824 -1.8551 -3.3417
  687MOL0     H94763   5.194  -0.617   9.994  1.1515 -2.0965  0.0139
  687MOL0     H94764   5.540  -0.566  10.114  1.1184 -1.3384 -0.2776
  687MOL0     H94765   5.829  -0.438  10.211 -0.0277  0.7446 -0.2668
  687MOL0     H94766   5.893  -0.572  10.116 -0.4422 -1.8517  2.0265
  687MOL0     H94767   5.740  -0.595  10.208  1.9804  0.2393  1.4704
  687MOL0     H94768   5.969  -0.175   9.585  1.2704  0.0274 -0.7685
  687MOL0     H94769   6.174  -0.078   9.504 -1.0203 -0.2972 -0.3455
  687MOL0     H94770   6.379  -0.111   9.415 -1.9109  1.3341 -0.4642
  687MOL0     H94771   6.380   0.044   9.489 -0.9267 -0.4043  2.9004
  687MOL0     H94772   6.580  -0.006   9.348 -2.0939 -1.4091 -0.6526
  687MOL0     H94773   6.641   0.030   9.511  1.6402  0.8084 -1.3502
  687MOL0     H94774   6.611  -0.250   9.379 -0.9583  0.9600  0.0854
  687MOL0     H94775   6.649  -0.224   9.551 -0.5386 -1.6256 -0.6871
  687MOL0     H94776   6.848  -0.136   9.533 -1.9247 -0.9095  2.0091
  687MOL0     H94777   6.827  -0.063   9.380 -2.6584 -0.7690 -3.1380
  687MOL0     H94778   6.823  -0.356   9.400  0.3144 -0.0385  0.5155
  687MOL0     H94779   6.865  -0.250   9.258 -1.1786  2.5826  0.2310
  687MOL0     H94780   7.029  -0.275   9.508  1.5099  2.0099  0.1144
  687MOL0     H94781   7.091  -0.198   9.354  0.7403 -1.3898 -1.8414
  687MOL0     H94782   7.065  -0.417   9.243  2.4326  0.5617 -0.2520
  687MOL0     H94783   7.021  -0.500   9.381  0.3397 -0.0585 -0.4321
  687MOL0     H94784   7.295  -0.369   9.351 -0.7749  0.7275 -1.9598
  687MOL0     H94785   7.245  -0.529   9.312  5.1975  0.5660  0.0953
  687MOL0     H94786   6.387  -0.249   9.847  0.6135  0.2100  0.5718
  687MOL0     H94787   6.170  -0.347   9.917  0.2414 -0.4512  0.1746
  687MOL0     H94788   5.715  -0.290   9.743 -0.8779  0.8927 -0.4313
  687MOL0     H94789   5.471  -0.372   9.754  0.0060 -0.3769 -0.2906
  687MOL0     H94790   3.880  -0.137   9.312  0.7758  2.1505  0.3702
  687MOL0     H94791   3.621  -0.120   9.251 -2.7206  4.1518  0.8800
  687MOL0     H94792   3.244  -0.080   9.595 -0.8419 -0.1262  2.2824
  687MOL0     H94793   3.002  -0.071   9.657 -2.0192 -2.7575 -1.9132
  687MOL0     H94794   2.693   0.041   9.363 -1.9447 -0.3535  0.6446
  687MOL0     H94795   2.755  -0.112   9.422  1.4518  0.1038  0.8249
  687MOL0     H94796   2.641  -0.073   9.629  2.2126  0.9606 -0.2189
  687MOL0     H94797   2.529  -0.101   9.489 -0.8532  1.3304 -1.1947
  687MOL0     H94798   2.442   0.077   9.621  0.2846 -5.8421 -2.4937
  687MOL0     H94799   2.601   0.169   9.608  0.0599 -0.2256  1.8042
  687MOL0     H94800   2.387   0.093   9.390 -0.6724  1.5730  0.5274
  687MOL0     H94801   2.549   0.155   9.356  2.2352 -3.0874  3.4840
  687MOL0     H94802   2.322   0.505   9.442  0.5332  0.7286  4.8649
  687MOL0     H94803   2.928   0.190   9.326 -0.3562  0.9505 -1.0915
  687MOL0     H94804   3.111   0.238   9.161 -1.0254 -2.1094 -0.2006
  687MOL0     H94805   3.267   0.253   9.236 -1.6298  2.1446 -1.3215
  687MOL0     H94806   3.226   0.112   9.133  0.3639 -0.8104  1.0926
  688MOL0     O94807   4.020   3.198   4.754  0.6062 -0.0280  0.5200
  688MOL0     C94808   4.013   3.324   4.754  0.3621  1.2198 -0.0944
  688MOL0     O94809   4.116   3.412   4.739  0.1516  0.3326  0.0074
  688MOL0     C94810   4.244   3.371   4.700 -0.2671  0.2757  0.3388
  688MOL0     C94811   4.258   3.266   4.603 -0.5782 -0.7746 -0.0808
  688MOL0     C94812   4.390   3.242   4.561  0.4898  0.4334 -0.5470
  688MOL0     C94813   4.504   3.300   4.614  0.4964  0.4351 -0.1142
  688MOL0     O94814   4.629   3.267   4.563 -0.2269 -0.1279  0.1323
  688MOL0     C94815   4.748   3.323   4.619  0.2640  0.0689  0.3646
  688MOL0     C94816   4.865   3.260   4.552  0.5443  0.2545 -0.8502
  688MOL0     C94817   5.004   3.316   4.577  0.2056 -0.1515 -0.4756
  688MOL0     C94818   5.033   3.360   4.723  0.1549 -0.3185  0.3536
  688MOL0     C94819   5.168   3.426   4.754  0.1318  0.0231  0.1011
  688MOL0     C94820   5.284   3.349   4.698 -0.2857 -0.0936  0.0797
  688MOL0     C94821   5.408   3.398   4.771  0.1065 -0.1955  0.2121
  688MOL0     C94822   5.513   3.286   4.756 -0.3777  0.1190 -0.4554
  688MOL0     N94823   5.559   3.266   4.619 -0.6145  0.6839 -0.0500
  688MOL0     C94824   5.558   3.355   4.511  0.2343  0.1873 -0.4389
  688MOL0     C94825   5.609   3.289   4.407  0.0141  0.4016  0.5653
  688MOL0     C94826   5.614   3.340   4.265 -0.6317 -0.0994 -0.4481
  688MOL0     C94827   5.740   3.286   4.199 -0.5983 -0.4541 -0.0135
  688MOL0     C94828   5.725   3.140   4.152  0.0273 -0.7557  0.8597
  688MOL0     C94829   5.812   3.128   4.023 -0.0262 -0.1657  0.0600
  688MOL0     O94830   5.954   3.163   4.035 -0.3985 -0.2222  0.2607
  688MOL0     C94831   6.030   3.048   4.063  0.3014 -0.2109 -0.3585
  688MOL0     C94832   5.989   2.915   4.075  1.1073 -0.3823  0.2557
  688MOL0     C94833   6.079   2.811   4.117  0.5284  0.8824 -0.1279
  688MOL0     C94834   6.013   2.677   4.129  0.3088 -0.0053  0.2229
  688MOL0     C94835   6.206   2.844   4.167  0.4059 -0.2025 -0.1060
  688MOL0     C94836   6.301   2.748   4.233  0.1386  0.0051  0.5900
  688MOL0     O94837   6.436   2.769   4.223 -0.1058  0.3985 -0.1419
  688MOL0     C94838   6.519   2.678   4.280 -0.2133  0.3786  0.2634
  688MOL0     C94839   6.622   2.632   4.194 -0.1529 -0.2674  0.1865
  688MOL0     C94840   6.716   2.544   4.242 -0.9339 -0.1954 -0.0699
  688MOL0     C94841   6.719   2.494   4.372  0.0203 -0.1438  0.9187
  688MOL0     O94842   6.798   2.400   4.427  0.3001  0.8462 -0.0349
  688MOL0     C94843   6.914   2.362   4.353 -0.4745  0.6330 -0.3246
  688MOL0     C94844   7.013   2.294   4.448  0.0842  0.7220 -0.1754
  688MOL0     C94845   7.045   2.392   4.554 -0.7143  0.9491  0.2706
  688MOL0     C94846   7.151   2.338   4.657  0.5228 -0.4183 -0.2474
  688MOL0     C94847   7.156   2.412   4.793  0.9422  0.3839  0.3243
  688MOL0     C94848   7.169   2.568   4.781  0.4407  0.5259  0.2800
  688MOL0     C94849   7.205   2.641   4.912  0.2989 -0.9992  0.1378
  688MOL0     C94850   7.320   2.577   4.995 -0.0806  0.6792  1.1311
  688MOL0    Cl94851   7.466   2.595   4.890 -0.3055 -0.0309 -0.6473
  688MOL0     C94852   6.619   2.539   4.462  0.3392 -0.3294 -0.2912
  688MOL0     C94853   6.520   2.638   4.414 -1.1458  0.2077 -0.0421
  688MOL0     O94854   6.249   2.647   4.286  0.3702  0.6087 -0.2694
  688MOL0     C94855   6.247   2.971   4.140  0.0004 -0.0458 -0.3992
  688MOL0     C94856   6.161   3.070   4.100  0.4551 -0.6518  0.0923
  688MOL0     N94857   5.635   3.159   4.451  0.0852  0.4221 -0.2248
  688MOL0     N94858   5.603   3.144   4.573 -0.7521 -0.2546 -0.4245
  688MOL0     C94859   4.482   3.405   4.708 -0.4713 -0.1822  0.0862
  688MOL0     C94860   4.355   3.433   4.758  0.5020  0.8799 -1.1176
  688MOL0     C94861   3.871   3.382   4.741 -0.1034  0.2574 -0.5574
  688MOL0     C94862   3.841   3.514   4.782 -0.3106  0.6154  0.6614
  688MOL0     C94863   3.711   3.557   4.788 -0.4753  0.1721 -0.4704
  688MOL0     C94864   3.605   3.481   4.745  1.3440 -0.3069 -1.2112
  688MOL0     O94865   3.486   3.549   4.745  0.5070 -0.5444 -0.4519
  688MOL0     C94866   3.367   3.472   4.734 -0.4083  0.1979 -0.1926
  688MOL0     C94867   3.233   3.549   4.753  0.5026 -0.2184  0.6320
  688MOL0     C94868   3.219   3.589   4.895  0.3274 -0.1766  0.4906
  688MOL0     C94869   3.098   3.669   4.925 -0.3834  0.3082 -0.4870
  688MOL0     C94870   3.085   3.796   4.856 -0.4130  0.6126 -0.3365
  688MOL0     C94871   3.062   3.903   4.805  0.4127  1.0869  0.0812
  688MOL0     C94872   3.623   3.350   4.716  0.2780 -0.2101  0.5522
  688MOL0     C94873   3.754   3.301   4.712 -0.8574 -0.8699 -0.3909
  688MOL0     C94874   3.759   3.169   4.645 -0.0448 -0.0992 -1.3750
  688MOL0     H94875   4.175   3.205   4.570 -1.5878 -1.0624  2.7186
  688MOL0     H94876   4.405   3.157   4.495  0.0330 -0.9626  1.0857
  688MOL0     H94877   4.741   3.320   4.728 -3.9330 -0.2379  0.2658
  688MOL0     H94878   4.745   3.431   4.601 -0.6372  0.0870  0.5860
  688MOL0     H94879   4.871   3.153   4.572  0.4757 -0.5902 -4.6138
  688MOL0     H94880   4.858   3.257   4.443 -1.4373  0.9424 -0.7816
  688MOL0     H94881   5.077   3.240   4.547 -0.3097  0.3071 -3.0828
  688MOL0     H94882   5.022   3.408   4.521 -0.0427  0.7813  0.9168
  688MOL0     H94883   4.953   3.431   4.746 -1.5752 -2.1227  0.1251
  688MOL0     H94884   5.016   3.280   4.795  0.0388 -0.7392 -0.1346
  688MOL0     H94885   5.179   3.441   4.862 -1.5448  2.6223  0.0064
  688MOL0     H94886   5.183   3.527   4.714 -0.0786  0.1207  0.2619
  688MOL0     H94887   5.283   3.244   4.728  3.1412 -0.3291 -0.2456
  688MOL0     H94888   5.289   3.362   4.590 -2.8667  0.7045 -0.0100
  688MOL0     H94889   5.382   3.401   4.877 -2.0915 -0.2098 -0.2721
  688MOL0     H94890   5.435   3.497   4.732 -0.2289 -0.2869 -0.2665
  688MOL0     H94891   5.595   3.300   4.827  0.4239 -2.8487 -0.6322
  688MOL0     H94892   5.477   3.186   4.785  0.0538 -1.3511 -4.3874
  688MOL0     H94893   5.516   3.455   4.502  0.2594  0.3334  0.8171
  688MOL0     H94894   5.624   3.448   4.259 -0.8277 -0.0406  0.2190
  688MOL0     H94895   5.525   3.312   4.209  0.3461 -2.1889 -1.0731
  688MOL0     H94896   5.754   3.354   4.113 -1.7975  1.5432  1.2732
  688MOL0     H94897   5.827   3.310   4.261 -0.6319  1.6787 -0.6771
  688MOL0     H94898   5.767   3.086   4.237  0.7723  0.2070  1.1209
  688MOL0     H94899   5.619   3.123   4.132 -0.1549  0.3775  0.7537
  688MOL0     H94900   5.796   3.035   3.969 -3.9569  1.1047 -1.2532
  688MOL0     H94901   5.764   3.197   3.954  0.9343  0.5640  0.0966
  688MOL0     H94902   5.889   2.880   4.053  0.6820  0.6437  0.5207
  688MOL0     H94903   5.977   2.648   4.229 -2.4577  2.4634  0.0636
  688MOL0     H94904   6.079   2.597   4.096  0.5073 -0.0444  0.6982
  688MOL0     H94905   5.924   2.670   4.065 -1.1119 -0.7985  2.1676
  688MOL0     H94906   6.618   2.665   4.091  1.3237 -2.1343 -0.5439
  688MOL0     H94907   6.780   2.509   4.162  0.2553 -1.5717  1.3950
  688MOL0     H94908   6.892   2.296   4.269 -0.1517 -1.9890  1.5182
  688MOL0     H94909   6.961   2.448   4.303 -0.3534  1.3858  1.0266
  688MOL0     H94910   6.952   2.211   4.486 -2.8813  1.0521 -3.6783
  688MOL0     H94911   7.101   2.261   4.391  0.8033  0.5193  1.0168
  688MOL0     H94912   6.959   2.409   4.620  0.2544  1.1161  1.5013
  688MOL0     H94913   7.087   2.486   4.519  2.2424 -0.2086  0.4566
  688MOL0     H94914   7.252   2.358   4.620  0.3798 -0.1566 -0.4972
  688MOL0     H94915   7.138   2.231   4.673 -0.0645  0.0123  2.7215
  688MOL0     H94916   7.061   2.384   4.840 -2.2891  0.0035 -5.4559
  688MOL0     H94917   7.237   2.366   4.851 -1.0224 -2.0927  1.2499
  688MOL0     H94918   7.075   2.612   4.745  0.4811 -0.6876 -1.3751
  688MOL0     H94919   7.244   2.586   4.704 -0.5767  0.0675 -0.8495
  688MOL0     H94920   7.111   2.636   4.967 -0.0346 -0.5053 -0.3781
  688MOL0     H94921   7.222   2.749   4.900  4.4574 -1.3182  1.3169
  688MOL0     H94922   7.304   2.471   5.013  0.2533  1.0384  3.9107
  688MOL0     H94923   7.334   2.625   5.092 -1.4160 -3.3573  3.5217
  688MOL0     H94924   6.615   2.503   4.564  0.2031  0.8754  0.1538
  688MOL0     H94925   6.439   2.671   4.478 -1.1935 -0.3170  0.1739
  688MOL0     H94926   6.350   3.001   4.158 -0.1912  0.6253 -0.4211
  688MOL0     H94927   6.204   3.169   4.112 -2.3574  0.3661  3.5943
  688MOL0     H94928   4.567   3.460   4.749 -0.7092  0.9832 -0.9194
  688MOL0     H94929   4.338   3.511   4.831  1.0640  4.8953 -4.8266
  688MOL0     H94930   3.921   3.582   4.810  3.0425 -2.4805 -0.6473
  688MOL0     H94931   3.694   3.657   4.829  0.2120  0.3692 -0.6485
  688MOL0     H94932   3.358   3.435   4.632  1.7415 -1.1865  0.0558
  688MOL0     H94933   3.381   3.389   4.804  2.9642  2.0157  1.5328
  688MOL0     H94934   3.148   3.490   4.719 -0.2590  0.4438  1.3332
  688MOL0     H94935   3.242   3.638   4.689 -1.4491 -1.7500 -1.9357
  688MOL0     H94936   3.213   3.496   4.952  0.6247 -1.7325 -1.8992
  688MOL0     H94937   3.305   3.647   4.929 -2.0039  1.9529  3.3876
  688MOL0     H94938   3.110   3.708   5.027  1.0406 -2.2400  0.3935
  688MOL0     H94939   3.000   3.620   4.922  0.2030 -0.9714  0.3240
  688MOL0     H94940   3.024   3.996   4.770 -1.5484  0.3051  0.0158
  688MOL0     H94941   3.537   3.292   4.685  1.3208 -1.6894  0.3213
  688MOL0     H94942   3.794   3.094   4.717 -2.4672  0.0430  0.0577
  688MOL0     H94943   3.665   3.130   4.607 -1.2265 -0.5514  1.7015
  688MOL0     H94944   3.830   3.174   4.562  0.8147 -1.8776 -0.7900
  689MOL0     O94945   1.156   3.675   6.861 -0.1871 -0.4666 -0.4655
  689MOL0     C94946   1.105   3.569   6.898  0.0262 -0.2656  0.5663
  689MOL0     O94947   1.155   3.492   6.994 -0.3423  0.1318  0.7259
  689MOL0     C94948   1.289   3.502   7.027  0.1928  0.1839 -0.3524
  689MOL0     C94949   1.395   3.487   6.942 -0.3894 -0.4096 -0.5446
  689MOL0     C94950   1.524   3.508   6.991 -0.3071 -0.5694 -0.3069
  689MOL0     C94951   1.559   3.544   7.126  0.5622  0.7422  0.2782
  689MOL0     O94952   1.689   3.575   7.153  0.5369  0.0133 -0.2910
  689MOL0     C94953   1.730   3.669   7.257 -0.3969  0.2457  0.0792
  689MOL0     C94954   1.823   3.786   7.205  0.5307 -0.6543 -0.0072
  689MOL0     C94955   1.966   3.746   7.165 -0.4915  0.4245  0.5296
  689MOL0     C94956   2.054   3.876   7.137 -0.0088 -0.1273 -0.0861
  689MOL0     C94957   2.194   3.845   7.085 -0.1139 -0.0771 -0.1514
  689MOL0     C94958   2.286   3.965   7.069  0.6139  0.8277 -0.3916
  689MOL0     C94959   2.322   4.048   7.200 -0.6234  0.3965 -0.6052
  689MOL0     C94960   2.387   3.965   7.311  0.4672  0.1243  0.6656
  689MOL0     N94961   2.406   4.040   7.435  0.2996 -0.3697  0.1844
  689MOL0     C94962   2.511   4.121   7.465 -1.0966 -0.1536  0.1318
  689MOL0     C94963   2.484   4.165   7.593 -0.1435 -0.7630  1.5754
  689MOL0     C94964   2.566   4.261   7.676  0.6685 -0.4703  0.0359
  689MOL0     C94965   2.716   4.249   7.667 -0.8636 -0.6146 -0.4882
  689MOL0     C94966   2.765   4.132   7.755 -0.8167  0.6974  0.1479
  689MOL0     C94967   2.787   3.996   7.678 -0.2050 -0.6240  0.0810
  689MOL0     O94968   2.879   4.010   7.564  0.9698  0.3781  0.3087
  689MOL0     C94969   3.014   3.997   7.595 -0.0840 -0.0110  0.2935
  689MOL0     C94970   3.099   4.035   7.497 -0.1484 -0.0776  0.3437
  689MOL0     C94971   3.238   4.036   7.512  0.0872 -0.0204 -0.0859
  689MOL0     C94972   3.323   4.088   7.404  0.9376  0.3322  0.6461
  689MOL0     C94973   3.295   3.992   7.635  0.4733 -0.3800  0.4577
  689MOL0     C94974   3.439   3.988   7.668  0.3295 -1.3861 -0.4241
  689MOL0     O94975   3.471   3.997   7.800  0.5934 -0.3791 -0.3759
  689MOL0     C94976   3.583   3.928   7.833  0.3262 -0.3024  0.1214
  689MOL0     C94977   3.695   4.005   7.856 -0.2043 -0.6569 -1.0498
  689MOL0     C94978   3.818   3.943   7.864  0.2184  0.0677 -0.0422
  689MOL0     C94979   3.831   3.806   7.848  1.0315  0.4434 -0.3756
  689MOL0     O94980   3.948   3.738   7.867  0.7544 -0.2273  0.0481
  689MOL0     C94981   3.932   3.632   7.961 -0.0968 -0.0079  0.5756
  689MOL0     C94982   4.049   3.619   8.049 -0.4994 -0.2072  0.5557
  689MOL0     C94983   4.088   3.752   8.118 -0.5870  0.0047 -0.1590
  689MOL0     C94984   3.988   3.762   8.235  0.1342  0.3160  0.9128
  689MOL0     C94985   4.009   3.890   8.316  0.2015 -0.0220  0.7847
  689MOL0     C94986   3.932   3.858   8.445  0.7266  0.2545 -0.2605
  689MOL0     C94987   3.781   3.879   8.414 -0.1684 -0.0609  0.2897
  689MOL0     C94988   3.721   3.933   8.541 -0.2072 -0.6593  0.5954
  689MOL0    Cl94989   3.731   3.831   8.682 -0.0439  0.0599 -0.0795
  689MOL0     C94990   3.714   3.731   7.841  0.1875 -0.3418  0.1241
  689MOL0     C94991   3.580   3.796   7.846 -1.1076 -0.5406 -0.1103
  689MOL0     O94992   3.517   3.969   7.581  0.0824 -0.2501 -0.0851
  689MOL0     C94993   3.207   3.947   7.733 -0.3231  0.3858  0.8865
  689MOL0     C94994   3.068   3.949   7.719 -0.8749  0.2287  0.2005
  689MOL0     N94995   2.372   4.118   7.643 -0.1477  0.2244 -0.0728
  689MOL0     N94996   2.330   4.041   7.550  0.0038  0.4499 -0.2803
  689MOL0     C94997   1.451   3.567   7.211  0.0724  0.0499  0.8656
  689MOL0     C94998   1.320   3.552   7.160 -0.7258  0.1487  0.1908
  689MOL0     C94999   0.988   3.517   6.824  0.2248  0.1607 -0.5380
  689MOL0     C95000   0.968   3.377   6.832 -0.8153 -1.1267  0.6296
  689MOL0     C95001   0.856   3.323   6.782  0.4873 -0.0320 -0.0471
  689MOL0     C95002   0.767   3.398   6.707 -0.2624  0.0790 -0.0955
  689MOL0     O95003   0.657   3.351   6.643  0.8437 -0.1583 -0.3907
  689MOL0     C95004   0.594   3.226   6.689  0.4362 -0.4549  0.0323
  689MOL0     C95005   0.496   3.253   6.804 -0.4264  0.1158  0.6704
  689MOL0     C95006   0.430   3.114   6.833  0.0562  0.4493  0.2869
  689MOL0     C95007   0.311   3.134   6.929  0.2480 -0.3595 -0.0167
  689MOL0     C95008   0.359   3.190   7.061  0.9988  0.4293 -0.4155
  689MOL0     C95009   0.394   3.235   7.166  0.5291 -0.2996 -0.1810
  689MOL0     C95010   0.782   3.536   6.689 -1.1081  0.8142 -0.2192
  689MOL0     C95011   0.893   3.596   6.748 -0.9442 -0.1802 -1.1139
  689MOL0     C95012   0.897   3.743   6.734  0.1544 -1.2453  0.2239
  689MOL0     H95013   1.378   3.459   6.839  0.0870  0.2313 -0.8033
  689MOL0     H95014   1.610   3.507   6.924 -0.0941 -0.7931 -0.0282
  689MOL0     H95015   1.779   3.616   7.339 -0.8600 -2.2871 -1.1964
  689MOL0     H95016   1.637   3.715   7.293 -0.9137  1.9603 -3.1032
  689MOL0     H95017   1.782   3.833   7.115  0.2437  1.0084  0.9528
  689MOL0     H95018   1.815   3.862   7.283 -1.8094  2.0582 -2.6576
  689MOL0     H95019   2.018   3.695   7.246  0.0213  1.8220  1.1011
  689MOL0     H95020   1.967   3.671   7.086 -0.4920  0.2496  0.6953
  689MOL0     H95021   2.012   3.935   7.056  3.2010  1.0309 -1.0660
  689MOL0     H95022   2.077   3.929   7.230  0.8632  0.2818 -0.5192
  689MOL0     H95023   2.195   3.805   6.983  0.7957  4.9678 -2.3730
  689MOL0     H95024   2.234   3.774   7.159 -3.5847 -3.5052 -1.2342
  689MOL0     H95025   2.373   3.928   7.013  0.4125  0.7780 -0.6776
  689MOL0     H95026   2.240   4.039   7.003  2.3608  1.5042 -0.9059
  689MOL0     H95027   2.232   4.087   7.250 -0.1591 -0.2625  0.7932
  689MOL0     H95028   2.404   4.115   7.175  0.1062 -0.7762 -1.4716
  689MOL0     H95029   2.319   3.885   7.342  0.9623 -0.0446  1.3275
  689MOL0     H95030   2.481   3.922   7.274  0.6469  1.8163 -0.9871
  689MOL0     H95031   2.601   4.152   7.413 -1.4835 -0.5580 -0.8020
  689MOL0     H95032   2.533   4.236   7.778 -1.1543 -3.0301 -1.0742
  689MOL0     H95033   2.537   4.363   7.650 -2.9836 -1.4632 -0.4018
  689MOL0     H95034   2.764   4.254   7.569  1.8907  1.1694  0.8181
  689MOL0     H95035   2.757   4.345   7.700 -1.4619 -0.3779 -0.4127
  689MOL0     H95036   2.858   4.156   7.806 -0.5256 -0.2193  0.0462
  689MOL0     H95037   2.687   4.114   7.830 -2.5651 -1.9296 -2.1197
  689MOL0     H95038   2.811   3.918   7.752  1.8622  1.9332  2.2925
  689MOL0     H95039   2.686   3.965   7.649 -1.0253  1.1437  0.9029
  689MOL0     H95040   3.050   4.077   7.410 -0.8798 -1.2383  0.1861
  689MOL0     H95041   3.377   4.012   7.347 -0.8925 -0.5266 -0.0012
  689MOL0     H95042   3.396   4.154   7.451  0.4047  0.4289  1.3599
  689MOL0     H95043   3.258   4.149   7.341 -1.1514  0.9156  3.1891
  689MOL0     H95044   3.685   4.112   7.873  3.9035  0.0279 -1.8861
  689MOL0     H95045   3.911   3.999   7.879  0.1779 -0.1197  1.0226
  689MOL0     H95046   3.840   3.631   8.020  0.0869  1.0602  0.9161
  689MOL0     H95047   3.927   3.543   7.898 -0.8972  0.2479  0.2719
  689MOL0     H95048   4.044   3.534   8.117  1.1060  1.8048  3.4055
  689MOL0     H95049   4.139   3.605   7.988  0.6072  0.4428  1.9712
  689MOL0     H95050   4.084   3.841   8.054 -2.8290  1.9655  2.4756
  689MOL0     H95051   4.193   3.752   8.149  0.5181  2.8983 -3.3022
  689MOL0     H95052   3.999   3.672   8.296 -1.5464 -0.1274  0.6074
  689MOL0     H95053   3.886   3.750   8.198  0.3409 -0.7427  0.6546
  689MOL0     H95054   4.112   3.908   8.348  0.5288 -1.0775  0.3772
  689MOL0     H95055   3.977   3.982   8.267 -0.6264 -0.6114  0.1813
  689MOL0     H95056   3.963   3.925   8.526  0.4362 -0.2550  0.2737
  689MOL0     H95057   3.949   3.759   8.490  2.2285  0.4939 -0.2230
  689MOL0     H95058   3.726   3.794   8.373 -3.0508  2.8862 -2.6679
  689MOL0     H95059   3.770   3.955   8.335  3.0308  0.4865  0.2399
  689MOL0     H95060   3.617   3.952   8.511  0.3396 -0.1711 -1.1159
  689MOL0     H95061   3.768   4.027   8.571  2.0780 -1.7146  0.5283
  689MOL0     H95062   3.711   3.625   7.820  0.1518 -0.8654  2.5067
  689MOL0     H95063   3.490   3.736   7.835 -2.8820  2.1574 -1.1434
  689MOL0     H95064   3.245   3.915   7.829 -2.7893 -1.0957  1.4510
  689MOL0     H95065   3.013   3.923   7.808  0.8203  0.2001  1.2876
  689MOL0     H95066   1.454   3.594   7.316 -2.8205 -1.3811  1.4287
  689MOL0     H95067   1.228   3.581   7.209  0.1049 -0.5186  2.2309
  689MOL0     H95068   1.043   3.318   6.883  0.0638 -1.6591 -1.1961
  689MOL0     H95069   0.854   3.216   6.797 -3.7257 -0.3285 -1.4153
  689MOL0     H95070   0.537   3.181   6.607  1.6419 -2.4241  0.2064
  689MOL0     H95071   0.660   3.150   6.732 -0.2253 -1.6229 -0.9604
  689MOL0     H95072   0.423   3.329   6.773 -0.0206 -0.6073 -2.3437
  689MOL0     H95073   0.548   3.285   6.894  3.0880 -1.3107 -0.6749
  689MOL0     H95074   0.406   3.069   6.736 -0.2923  1.3383 -0.0529
  689MOL0     H95075   0.511   3.061   6.883  2.6601  3.4797 -0.4060
  689MOL0     H95076   0.255   3.042   6.946 -0.5498 -0.7378 -3.8117
  689MOL0     H95077   0.246   3.200   6.871  2.4217 -0.3466 -2.6534
  689MOL0     H95078   0.452   3.271   7.248 -2.3305  0.3555  1.6873
  689MOL0     H95079   0.698   3.588   6.644 -1.6158  2.1201  2.0672
  689MOL0     H95080   0.919   3.799   6.825 -2.6049  1.3919 -0.5904
  689MOL0     H95081   0.958   3.769   6.647 -0.5273 -1.4390 -0.3237
  689MOL0     H95082   0.796   3.784   6.730 -0.1326 -0.6737  5.8150
  690MOL0     O95083  10.345   0.254  10.437 -0.0868  0.1441  0.2001
  690MOL0     C95084  10.304   0.150  10.480 -0.3893 -1.2803 -0.9108
  690MOL0     O95085  10.361   0.091  10.597 -0.2468 -0.0557 -0.2097
  690MOL0     C95086  10.455   0.152  10.672 -0.5690 -1.4007  0.4228
  690MOL0     C95087  10.516   0.278  10.649  1.0079 -0.0815 -1.1126
  690MOL0     C95088  10.613   0.323  10.740 -0.7264 -0.9337  0.1053
  690MOL0     C95089  10.649   0.256  10.849  0.1880 -0.6951  0.2827
  690MOL0     O95090  10.759   0.302  10.917  0.1461  0.3674  0.4505
  690MOL0     C95091  10.814   0.216  11.015  0.1769 -0.2622  0.4335
  690MOL0     C95092  10.927   0.289  11.079  0.5900  0.4703  0.5278
  690MOL0     C95093  10.877   0.362  11.211 -0.6203  0.0721 -0.6200
  690MOL0     C95094  10.986   0.425  11.292  0.3908  0.0221 -0.5170
  690MOL0     C95095  10.931   0.512  11.405  0.4147  0.3977 -0.6491
  690MOL0     C95096  10.827   0.446  11.488  0.3794  0.5289 -0.4158
  690MOL0     C95097  10.789   0.541  11.608 -0.0518 -1.0499  0.2900
  690MOL0     C95098  10.873   0.496  11.723  0.4489 -0.5738 -0.0143
  690MOL0     N95099  10.858   0.585  11.844 -0.2828 -0.7548 -0.5856
  690MOL0     C95100  10.959   0.633  11.917 -0.8206  0.0868 -1.0575
  690MOL0     C95101  10.908   0.699  12.018 -0.0794 -0.6126 -0.1499
  690MOL0     C95102  10.979   0.777  12.130 -0.1650 -0.6793 -0.7639
  690MOL0     C95103  10.952   0.927  12.139  0.5064 -0.5281  0.0057
  690MOL0     C95104  11.040   1.007  12.238 -0.3981 -0.4738  0.1668
  690MOL0     C95105  11.190   1.013  12.225 -0.1945 -0.5891  1.2492
  690MOL0     O95106  11.220   1.068  12.097  0.8743 -0.3339 -0.2039
  690MOL0     C95107  11.349   1.112  12.069 -0.8571  0.3104 -0.0339
  690MOL0     C95108  11.471   1.062  12.127 -0.2920  0.2030  0.4374
  690MOL0     C95109  11.598   1.114  12.083  1.1112  0.3385 -0.2842
  690MOL0     C95110  11.718   1.033  12.122 -0.4964 -0.2829  0.5898
  690MOL0     C95111  11.602   1.221  11.995 -0.3784 -0.1133 -0.1037
  690MOL0     C95112  11.725   1.296  11.965 -0.2926 -0.0132 -0.4965
  690MOL0     O95113  11.715   1.415  11.897 -0.1463 -0.0454  0.6195
  690MOL0     C95114  11.825   1.491  11.861 -0.1118  0.7488  0.2309
  690MOL0     C95115  11.796   1.628  11.847  0.1093  0.7146 -0.0737
  690MOL0     C95116  11.893   1.722  11.810 -0.5587 -0.3839  0.8712
  690MOL0     C95117  12.025   1.672  11.790  0.2272 -0.1639  0.4015
  690MOL0     O95118  12.123   1.746  11.736 -0.6415  0.6248 -0.4857
  690MOL0     C95119  12.143   1.877  11.793  0.1442 -0.4477  0.4454
  690MOL0     C95120  12.277   1.920  11.741 -0.3516 -0.0699  0.4673
  690MOL0     C95121  12.301   2.077  11.768  0.8568  1.1106 -0.4622
  690MOL0     C95122  12.432   2.127  11.706 -0.3403  0.0100 -0.0541
  690MOL0     C95123  12.445   2.276  11.709 -0.1271 -0.6938  0.0339
  690MOL0     C95124  12.580   2.327  11.661  0.1228 -0.2377 -0.3805
  690MOL0     C95125  12.597   2.321  11.510  0.3450  0.8054 -0.2615
  690MOL0     C95126  12.696   2.415  11.444  0.1637 -0.2702 -0.9224
  690MOL0    Cl95127  12.854   2.425  11.512  0.4699  0.2122  0.3503
  690MOL0     C95128  12.051   1.541  11.807 -0.3631 -0.0172  0.6096
  690MOL0     C95129  11.959   1.452  11.840  0.0590 -0.6147 -0.0114
  690MOL0     O95130  11.830   1.240  11.975  0.1278 -0.4288  0.1090
  690MOL0     C95131  11.487   1.271  11.943  0.0115 -1.2974 -0.1199
  690MOL0     C95132  11.359   1.225  11.980 -0.2482  0.9325  0.4010
  690MOL0     N95133  10.773   0.699  12.005 -0.0517 -0.3363 -0.8761
  690MOL0     N95134  10.742   0.624  11.902 -0.8582 -0.0454  0.1097
  690MOL0     C95135  10.590   0.129  10.882 -0.1349 -0.3503 -0.8274
  690MOL0     C95136  10.493   0.085  10.790  0.0600 -0.0899  0.1534
  690MOL0     C95137  10.185   0.086  10.427  0.5325  0.1496 -0.3724
  690MOL0     C95138  10.150  -0.044  10.472  0.3386  0.3527  1.1293
  690MOL0     C95139  10.056  -0.108  10.396  0.2859  0.6124 -0.7014
  690MOL0     C95140   9.976  -0.058  10.293  0.8624 -0.7069 -0.6584
  690MOL0     O95141   9.877  -0.127  10.228 -0.4893  0.2613 -0.1616
  690MOL0     C95142   9.776  -0.071  10.150  0.1114  0.1037 -0.6409
  690MOL0     C95143   9.688  -0.191  10.105 -0.2241  0.2605  0.9448
  690MOL0     C95144   9.555  -0.205  10.186 -0.4003  0.6577 -0.5854
  690MOL0     C95145   9.592  -0.228  10.339  0.7260 -0.7606 -0.2872
  690MOL0     C95146   9.473  -0.208  10.422  0.2772  0.0096 -0.1656
  690MOL0     C95147   9.368  -0.173  10.478  0.0169 -0.1063  1.4624
  690MOL0     C95148  10.006   0.081  10.267  0.4641  0.6886  0.4124
  690MOL0     C95149  10.100   0.157  10.337 -0.1416  1.2832  0.1274
  690MOL0     C95150  10.107   0.303  10.322  0.3254 -1.0252  0.2809
  690MOL0     H95151  10.489   0.352  10.573  2.0711  0.6318 -0.8259
  690MOL0     H95152  10.660   0.419  10.721 -4.5064  0.8842 -0.9881
  690MOL0     H95153  10.836   0.122  10.963 -1.0563  1.2263 -3.1339
  690MOL0     H95154  10.738   0.192  11.091  0.5028 -0.2413  0.7661
  690MOL0     H95155  11.007   0.226  11.119 -0.2256 -0.5770  0.5340
  690MOL0     H95156  10.982   0.357  11.014 -1.0234  0.9220 -0.4135
  690MOL0     H95157  10.804   0.431  11.169 -0.6234  0.1108 -0.5515
  690MOL0     H95158  10.824   0.286  11.270  1.6479 -0.8252  0.4101
  690MOL0     H95159  11.051   0.344  11.326 -1.0907 -1.2486 -0.6603
  690MOL0     H95160  11.052   0.485  11.228  0.6770 -1.1593 -1.3580
  690MOL0     H95161  10.878   0.605  11.381 -0.0572  1.8584  4.7512
  690MOL0     H95162  11.016   0.545  11.465 -0.3652 -1.5168  1.6190
  690MOL0     H95163  10.731   0.441  11.435 -1.3803 -0.1105  2.5543
  690MOL0     H95164  10.854   0.345  11.518 -3.0677  0.3938  3.2287
  690MOL0     H95165  10.682   0.537  11.630 -0.3413  2.7982  0.2162
  690MOL0     H95166  10.818   0.644  11.587 -1.1701 -0.5100  1.3173
  690MOL0     H95167  10.851   0.393  11.754  2.5523 -1.2837 -0.7043
  690MOL0     H95168  10.977   0.512  11.694  0.2476  0.0253 -0.4235
  690MOL0     H95169  11.065   0.611  11.904 -1.3438 -0.8011 -4.7731
  690MOL0     H95170  11.087   0.773  12.109  0.0076  0.5100 -0.1880
  690MOL0     H95171  10.962   0.732  12.228  0.8804  0.6745  0.0803
  690MOL0     H95172  10.956   0.975  12.040 -0.9867 -2.3292 -1.0064
  690MOL0     H95173  10.850   0.949  12.172  0.3759 -2.0163  0.6672
  690MOL0     H95174  11.005   1.110  12.251  4.2215  1.2897  0.2688
  690MOL0     H95175  11.012   0.962  12.334 -2.0711  0.2753  0.0651
  690MOL0     H95176  11.243   1.069  12.302  0.8481  0.1542  0.0307
  690MOL0     H95177  11.239   0.915  12.228  2.4417  0.4771 -1.2644
  690MOL0     H95178  11.475   0.977  12.194 -0.9778 -0.0608  0.1497
  690MOL0     H95179  11.777   1.006  12.035 -1.7764  2.7295 -1.3867
  690MOL0     H95180  11.708   0.938  12.174  5.7483 -1.4080  0.4186
  690MOL0     H95181  11.770   1.092  12.198  0.3133  1.6102 -1.3473
  690MOL0     H95182  11.694   1.665  11.849 -0.3271 -0.4515  0.2641
  690MOL0     H95183  11.852   1.820  11.786  0.5410 -0.1482 -0.1214
  690MOL0     H95184  12.065   1.949  11.767  1.5027  1.7705  2.1334
  690MOL0     H95185  12.141   1.883  11.902 -0.7173 -0.2685  0.4259
  690MOL0     H95186  12.349   1.871  11.807 -1.0612 -0.2977  1.0928
  690MOL0     H95187  12.293   1.895  11.636 -0.3384  0.3201  0.3758
  690MOL0     H95188  12.301   2.078  11.877  0.8279 -2.0661 -0.3287
  690MOL0     H95189  12.220   2.129  11.717  0.5577 -1.4334 -2.8620
  690MOL0     H95190  12.441   2.094  11.602  0.0863 -0.6170  0.1723
  690MOL0     H95191  12.519   2.089  11.761  0.4002 -0.4874 -1.5142
  690MOL0     H95192  12.367   2.325  11.650  2.6089  2.3662 -1.4222
  690MOL0     H95193  12.431   2.312  11.812 -1.7135 -1.1033 -0.0250
  690MOL0     H95194  12.664   2.281  11.713  2.3237  0.8585 -2.7096
  690MOL0     H95195  12.576   2.433  11.688  1.0033 -0.6422  1.4533
  690MOL0     H95196  12.497   2.334  11.468 -1.6483 -0.1825  3.6541
  690MOL0     H95197  12.641   2.228  11.475 -2.3985  0.5247 -3.4113
  690MOL0     H95198  12.649   2.514  11.448  2.6227  0.9262  1.5480
  690MOL0     H95199  12.711   2.390  11.339 -1.4198 -0.3022 -1.1601
  690MOL0     H95200  12.157   1.517  11.808 -0.0537  1.2459  0.7846
  690MOL0     H95201  11.988   1.348  11.840 -0.1193 -0.6653  0.2463
  690MOL0     H95202  11.483   1.345  11.864  2.4879 -1.6749 -0.6897
  690MOL0     H95203  11.264   1.258  11.940 -0.1613 -0.5285 -1.1366
  690MOL0     H95204  10.615   0.065  10.966  0.2720  0.5969 -0.2105
  690MOL0     H95205  10.466  -0.019  10.801  0.9548 -0.3032  0.4554
  690MOL0     H95206  10.213  -0.087  10.549  4.0928  0.3189 -1.6285
  690MOL0     H95207  10.060  -0.216  10.410  0.9597  0.7815  0.4574
  690MOL0     H95208   9.719   0.004  10.205 -1.9286  0.8318 -3.4973
  690MOL0     H95209   9.822  -0.032  10.059  1.1616  1.9376  0.6217
  690MOL0     H95210   9.743  -0.285  10.113  3.1373  1.8475 -1.3402
  690MOL0     H95211   9.663  -0.187   9.999 -0.9956 -1.3303  1.0334
  690MOL0     H95212   9.499  -0.113  10.167 -1.5156 -0.5094 -3.4052
  690MOL0     H95213   9.500  -0.283  10.133 -1.3543 -0.4774  1.9312
  690MOL0     H95214   9.667  -0.156  10.372  1.3891 -1.5991  0.0747
  690MOL0     H95215   9.628  -0.331  10.352  2.1024  0.0004  2.7645
  690MOL0     H95216   9.271  -0.138  10.508 -1.0290 -0.0651 -1.5822
  690MOL0     H95217   9.956   0.137  10.188  1.0173  0.0058 -0.4556
  690MOL0     H95218  10.021   0.345  10.267  3.1295 -0.1878 -3.9045
  690MOL0     H95219  10.120   0.358  10.416 -0.9716 -0.6557  0.2724
  690MOL0     H95220  10.189   0.326  10.254 -0.0830  0.7259  0.3100
  691MOL0     O95221   1.985   2.619   2.453  0.3503 -0.2491  0.3904
  691MOL0     C95222   2.000   2.729   2.401 -0.4755 -0.9489  0.4912
  691MOL0     O95223   2.111   2.775   2.346  0.0351  0.2689  0.3076
  691MOL0     C95224   2.231   2.711   2.347  0.3134  0.4410 -0.0354
  691MOL0     C95225   2.279   2.652   2.228 -0.4604 -0.0007  0.2558
  691MOL0     C95226   2.400   2.586   2.233 -0.0915 -0.3815  0.0273
  691MOL0     C95227   2.474   2.583   2.350 -0.3829 -0.0647 -0.4033
  691MOL0     O95228   2.578   2.499   2.340 -0.5371 -0.5524  0.4283
  691MOL0     C95229   2.647   2.458   2.458 -0.1037  1.1268 -0.3074
  691MOL0     C95230   2.740   2.335   2.439 -0.2669  1.2988  0.5204
  691MOL0     C95231   2.776   2.313   2.291  0.1768 -0.1326  0.7510
  691MOL0     C95232   2.861   2.191   2.268  0.3042 -0.2118  0.4294
  691MOL0     C95233   2.894   2.170   2.120  0.2161 -0.3452  0.2305
  691MOL0     C95234   2.781   2.163   2.015 -0.0498  0.5860  0.2398
  691MOL0     C95235   2.828   2.105   1.883  0.1041 -0.5173  0.0131
  691MOL0     C95236   2.858   1.953   1.881 -0.1203  0.5124 -0.0738
  691MOL0     N95237   2.726   1.885   1.899 -0.5074  0.6481  0.4709
  691MOL0     C95238   2.628   1.876   1.800  0.2128 -0.2989  0.1176
  691MOL0     C95239   2.527   1.799   1.845 -0.0951  0.2329 -0.0796
  691MOL0     C95240   2.401   1.778   1.772 -0.2734 -0.4832 -0.7531
  691MOL0     C95241   2.313   1.671   1.831  0.7441 -0.2913  0.2169
  691MOL0     C95242   2.252   1.691   1.983 -0.2728  0.5179  0.2746
  691MOL0     C95243   2.211   1.557   2.049  0.5350 -0.1941  0.4675
  691MOL0     O95244   2.119   1.499   1.959 -0.2363  0.8780  0.3901
  691MOL0     C95245   2.049   1.388   2.000 -0.6466  0.2342 -0.3151
  691MOL0     C95246   1.935   1.357   1.927 -0.7905 -0.1379  0.1151
  691MOL0     C95247   1.855   1.243   1.952 -0.8186  0.0806  0.3983
  691MOL0     C95248   1.729   1.223   1.871 -0.1613 -0.1515  0.0675
  691MOL0     C95249   1.901   1.152   2.058 -0.0067  0.3660  1.1555
  691MOL0     C95250   1.832   1.028   2.092  0.1946 -0.0514  0.3968
  691MOL0     O95251   1.896   0.951   2.187  0.2916 -0.6406  0.5471
  691MOL0     C95252   1.833   0.857   2.260  0.3173 -0.5454 -0.5771
  691MOL0     C95253   1.696   0.847   2.274  0.9739  0.4962 -0.3993
  691MOL0     C95254   1.640   0.736   2.338 -0.5929  0.5829  0.0438
  691MOL0     C95255   1.729   0.645   2.390 -0.6151 -0.0197  0.8898
  691MOL0     O95256   1.687   0.524   2.435 -0.2210  0.4708 -0.3326
  691MOL0     C95257   1.559   0.482   2.427  0.1601  0.3533  0.1511
  691MOL0     C95258   1.557   0.348   2.498  0.7010  1.2873  0.3595
  691MOL0     C95259   1.418   0.284   2.529  0.1145  0.2410 -0.3192
  691MOL0     C95260   1.326   0.376   2.612 -0.2794 -0.1302 -0.0152
  691MOL0     C95261   1.208   0.282   2.637 -0.5960 -0.5670  0.1110
  691MOL0     C95262   1.103   0.337   2.725  0.4910  0.0928 -0.2142
  691MOL0     C95263   1.042   0.451   2.661 -0.0805 -0.1886 -0.3098
  691MOL0     C95264   0.900   0.478   2.705  0.0335 -0.1954  0.2852
  691MOL0    Cl95265   0.804   0.348   2.633 -0.0035 -0.3089 -0.0775
  691MOL0     C95266   1.865   0.656   2.387  0.6518  0.5595 -0.4447
  691MOL0     C95267   1.921   0.768   2.322  0.4004  0.3718  0.7294
  691MOL0     O95268   1.734   0.993   2.026  0.3068  0.2809 -0.0334
  691MOL0     C95269   2.027   1.184   2.121  0.3354 -0.7593 -0.8375
  691MOL0     C95270   2.096   1.301   2.094 -0.1790  0.0080 -0.4373
  691MOL0     N95271   2.570   1.753   1.968  0.7103  0.1711  0.0887
  691MOL0     N95272   2.681   1.800   2.000 -0.4979 -0.0717  0.3569
  691MOL0     C95273   2.428   2.629   2.471  0.5008 -0.6387  0.7565
  691MOL0     C95274   2.308   2.696   2.464  0.3896 -1.3708  0.2112
  691MOL0     C95275   1.876   2.814   2.387  0.0366 -0.3782 -0.3735
  691MOL0     C95276   1.906   2.947   2.355  0.4542 -0.1804 -0.3070
  691MOL0     C95277   1.798   3.033   2.334 -0.5288 -0.3811  0.1605
  691MOL0     C95278   1.665   2.996   2.345 -0.9910  0.2216  0.0075
  691MOL0     O95279   1.566   3.088   2.325 -0.3711 -0.1814  0.2915
  691MOL0     C95280   1.476   3.041   2.216 -0.1799 -0.7418 -0.7238
  691MOL0     C95281   1.540   3.042   2.081 -0.7743  0.2867 -0.4113
  691MOL0     C95282   1.487   2.939   1.982  0.6360  0.4379  0.7003
  691MOL0     C95283   1.524   2.794   2.010 -0.2187  0.0479  0.5549
  691MOL0     C95284   1.424   2.731   2.105  0.8668  0.4254  0.2013
  691MOL0     C95285   1.340   2.681   2.179 -0.1606  0.2660 -0.3446
  691MOL0     C95286   1.639   2.868   2.388  0.0323 -0.2871 -0.8243
  691MOL0     C95287   1.738   2.772   2.403 -0.0442  0.0476 -0.0412
  691MOL0     C95288   1.697   2.632   2.443 -0.0614 -0.7078 -0.1901
  691MOL0     H95289   2.219   2.668   2.139  1.6222  2.7840 -0.8225
  691MOL0     H95290   2.439   2.534   2.146  0.7738 -1.4194  1.0108
  691MOL0     H95291   2.577   2.424   2.534  0.2193 -0.4056 -0.6732
  691MOL0     H95292   2.714   2.534   2.501  2.1610 -0.3847 -0.9792
  691MOL0     H95293   2.835   2.359   2.488 -0.7304  0.9642  1.6094
  691MOL0     H95294   2.711   2.238   2.481 -0.5461  0.3836 -1.6943
  691MOL0     H95295   2.677   2.305   2.245 -0.2185 -2.8235  1.8974
  691MOL0     H95296   2.833   2.397   2.247  0.7415 -0.7233  0.3263
  691MOL0     H95297   2.949   2.190   2.332  1.4912 -1.6021 -1.1267
  691MOL0     H95298   2.801   2.109   2.309  2.2582 -0.6236  2.6584
  691MOL0     H95299   2.961   2.085   2.110 -1.5808 -2.0524  1.9364
  691MOL0     H95300   2.939   2.266   2.090 -1.8690  1.6202  2.8517
  691MOL0     H95301   2.709   2.091   2.055  0.7156 -1.5478 -1.9184
  691MOL0     H95302   2.728   2.257   1.999 -2.4985 -0.7344  0.2001
  691MOL0     H95303   2.916   2.162   1.854 -1.9513  1.7037 -2.3282
  691MOL0     H95304   2.750   2.122   1.809 -0.0997  1.3069  0.6069
  691MOL0     H95305   2.899   1.925   1.783 -0.4685  0.3507 -0.1753
  691MOL0     H95306   2.916   1.909   1.962  2.1831 -0.7381 -2.2554
  691MOL0     H95307   2.631   1.929   1.705  0.5476 -0.7074 -0.1034
  691MOL0     H95308   2.420   1.752   1.667 -1.5854  2.1568 -1.7582
  691MOL0     H95309   2.348   1.874   1.775  1.8480  0.7724 -1.1836
  691MOL0     H95310   2.220   1.662   1.774 -0.5731  0.9527  2.0608
  691MOL0     H95311   2.378   1.583   1.821 -0.8980 -1.4391 -1.1294
  691MOL0     H95312   2.333   1.713   2.054 -0.2700 -2.5796  1.3440
  691MOL0     H95313   2.182   1.772   2.008  0.1491  1.8038 -2.2746
  691MOL0     H95314   2.303   1.497   2.052  1.1275  0.6620  4.0462
  691MOL0     H95315   2.164   1.568   2.147 -0.3326 -1.3702  0.2147
  691MOL0     H95316   1.898   1.411   1.841 -1.2377 -1.9294 -0.8778
  691MOL0     H95317   1.714   1.308   1.803 -1.6747  0.8479  1.5598
  691MOL0     H95318   1.644   1.226   1.941 -0.2879  0.8693 -0.1144
  691MOL0     H95319   1.734   1.131   1.813 -0.2604 -0.7659  1.0214
  691MOL0     H95320   1.635   0.926   2.231  1.6984  0.7172 -1.0495
  691MOL0     H95321   1.537   0.704   2.328 -0.3917  0.3816 -1.8144
  691MOL0     H95322   1.495   0.549   2.486 -1.1190 -2.5678  2.3620
  691MOL0     H95323   1.523   0.475   2.324 -3.1585  1.0066  1.1284
  691MOL0     H95324   1.620   0.276   2.444  1.4128  2.4722 -0.4494
  691MOL0     H95325   1.604   0.365   2.595 -1.5830 -0.2885  1.8307
  691MOL0     H95326   1.428   0.185   2.574  1.8466  0.3932 -0.3009
  691MOL0     H95327   1.367   0.269   2.433 -0.5661 -1.2186  0.2492
  691MOL0     H95328   1.288   0.457   2.549 -0.0981 -0.6178 -0.7734
  691MOL0     H95329   1.375   0.411   2.703 -0.3563  0.7120 -0.2885
  691MOL0     H95330   1.170   0.244   2.542  1.9188 -0.6458 -0.9350
  691MOL0     H95331   1.240   0.188   2.683  2.3213  0.2907  0.0692
  691MOL0     H95332   1.146   0.367   2.821 -0.5953 -1.6186  0.8702
  691MOL0     H95333   1.027   0.259   2.739 -1.4213  1.6770 -1.2602
  691MOL0     H95334   1.065   0.450   2.554  0.8875  0.0588 -0.1186
  691MOL0     H95335   1.087   0.547   2.690 -1.7261  0.5934 -0.2489
  691MOL0     H95336   0.864   0.575   2.669  1.5425 -0.8105 -3.3642
  691MOL0     H95337   0.888   0.482   2.813 -1.1924  1.0419  0.1418
  691MOL0     H95338   1.933   0.585   2.432  0.0323 -1.4484 -2.4851
  691MOL0     H95339   2.029   0.775   2.309  0.2544 -0.3552 -1.3385
  691MOL0     H95340   2.071   1.125   2.201  2.2840  1.5903 -0.0239
  691MOL0     H95341   2.181   1.338   2.151  0.3699  0.7727 -1.7016
  691MOL0     H95342   2.483   2.627   2.565 -1.2246 -0.8475  1.8045
  691MOL0     H95343   2.272   2.737   2.558  0.2114  0.6393 -0.6897
  691MOL0     H95344   2.007   2.984   2.343  1.3079 -1.6932  1.6871
  691MOL0     H95345   1.818   3.132   2.294 -0.6180 -0.2096  0.5290
  691MOL0     H95346   1.430   2.946   2.243 -0.3740 -0.0693  1.5476
  691MOL0     H95347   1.383   3.100   2.213 -1.4289 -2.5609  0.3332
  691MOL0     H95348   1.646   3.016   2.092 -1.1799 -1.9872 -1.2100
  691MOL0     H95349   1.529   3.139   2.032 -2.5670  0.8430  0.9582
  691MOL0     H95350   1.378   2.942   1.975  0.6416  0.1131  0.4360
  691MOL0     H95351   1.525   2.965   1.883 -0.2304 -1.7232 -0.2584
  691MOL0     H95352   1.625   2.782   2.050 -1.3238  1.5611  4.2777
  691MOL0     H95353   1.522   2.738   1.916 -2.9838  0.6992  0.1314
  691MOL0     H95354   1.281   2.627   2.251 -2.9444  2.8494 -0.5296
  691MOL0     H95355   1.542   2.834   2.423  0.9047 -1.8091  0.2292
  691MOL0     H95356   1.599   2.607   2.401 -1.0962  0.6778  1.2933
  691MOL0     H95357   1.774   2.565   2.405  3.6820  3.2779 -0.3441
  691MOL0     H95358   1.674   2.620   2.550 -0.8734 -0.8568 -0.3690
  692MOL0     O95359   7.701   1.150   5.377 -0.1642 -0.0958  0.9336
  692MOL0     C95360   7.708   1.238   5.459 -1.1557 -0.7622  0.3484
  692MOL0     O95361   7.667   1.371   5.441 -0.5284 -0.6872 -0.4215
  692MOL0     C95362   7.615   1.419   5.323  0.4933  0.3168 -0.9164
  692MOL0     C95363   7.555   1.340   5.224 -0.3260  0.0589  0.5849
  692MOL0     C95364   7.513   1.397   5.099  0.6984 -0.2490  0.2843
  692MOL0     C95365   7.525   1.536   5.075 -0.0157  0.0900  0.4963
  692MOL0     O95366   7.492   1.607   4.960 -0.2819 -0.1956 -0.6186
  692MOL0     C95367   7.499   1.536   4.842 -0.3507 -0.4597  0.3092
  692MOL0     C95368   7.507   1.634   4.720  0.9580  0.0496 -0.5716
  692MOL0     C95369   7.464   1.567   4.589  0.1466 -0.1447 -0.2217
  692MOL0     C95370   7.321   1.535   4.573 -0.0783 -0.8641 -0.0062
  692MOL0     C95371   7.276   1.463   4.443 -0.7045 -0.1345 -1.4787
  692MOL0     C95372   7.125   1.464   4.453  0.0759  0.2861  0.1414
  692MOL0     C95373   7.062   1.375   4.337  0.3458  0.5261  0.1853
  692MOL0     C95374   7.043   1.451   4.208 -0.7568  0.1008 -0.6192
  692MOL0     N95375   6.927   1.541   4.224  0.1438  0.2263 -0.3127
  692MOL0     C95376   6.801   1.499   4.251 -0.3011  0.5169 -0.1908
  692MOL0     C95377   6.723   1.611   4.248 -0.1663  0.4565 -0.5813
  692MOL0     C95378   6.582   1.625   4.269 -0.5750  0.9954 -1.2102
  692MOL0     C95379   6.528   1.747   4.195 -0.8712 -0.0758 -0.0606
  692MOL0     C95380   6.375   1.742   4.192 -0.1881  0.5933  0.3321
  692MOL0     C95381   6.315   1.865   4.127  0.2545  0.2618 -0.5790
  692MOL0     O95382   6.175   1.851   4.137  0.6523  0.7547  0.0058
  692MOL0     C95383   6.092   1.905   4.035  0.0145  0.4653 -0.3945
  692MOL0     C95384   6.024   1.815   3.953 -0.9867  0.2062 -0.6898
  692MOL0     C95385   5.937   1.861   3.848  0.2009  0.9827 -0.3341
  692MOL0     C95386   5.847   1.764   3.776 -0.5362 -0.1553  0.7064
  692MOL0     C95387   5.931   2.005   3.827 -0.2166 -0.6041  0.2577
  692MOL0     C95388   5.842   2.075   3.728  0.0764  0.4462 -0.5038
  692MOL0     O95389   5.834   2.214   3.726  0.7410  0.2906 -0.9098
  692MOL0     C95390   5.759   2.268   3.631  0.1731 -0.4476 -0.0502
  692MOL0     C95391   5.819   2.298   3.507  0.4435 -0.1731 -0.2333
  692MOL0     C95392   5.746   2.346   3.403  0.4089  0.7291 -0.0938
  692MOL0     C95393   5.607   2.365   3.415 -0.1150 -0.2655 -0.0182
  692MOL0     O95394   5.536   2.392   3.300 -0.1557 -0.5477 -0.0548
  692MOL0     C95395   5.395   2.402   3.309 -0.7108  0.0054 -0.0884
  692MOL0     C95396   5.337   2.446   3.170  0.3972 -0.7299 -0.9548
  692MOL0     C95397   5.368   2.592   3.166 -0.2894  0.3726 -0.6213
  692MOL0     C95398   5.279   2.672   3.074 -0.8877  0.2031  0.5223
  692MOL0     C95399   5.322   2.817   3.069 -0.4941 -0.1549 -0.1985
  692MOL0     C95400   5.228   2.908   2.978 -0.3537 -0.1557  0.0944
  692MOL0     C95401   5.271   3.055   2.981  0.3059  0.8895  0.3458
  692MOL0     C95402   5.306   3.130   2.849 -0.3503  0.7527 -0.8759
  692MOL0    Cl95403   5.461   3.057   2.818 -0.2363 -0.2532  0.1566
  692MOL0     C95404   5.548   2.336   3.539  0.1372 -1.1091 -0.3203
  692MOL0     C95405   5.626   2.286   3.643 -0.2191 -0.6853  0.2462
  692MOL0     O95406   5.784   2.004   3.644  0.0966  0.4377 -0.3188
  692MOL0     C95407   6.006   2.090   3.907  0.5025  0.3034 -0.3531
  692MOL0     C95408   6.076   2.041   4.013  0.0583 -0.4912 -0.2563
  692MOL0     N95409   6.798   1.718   4.225  1.2604 -1.0535  0.1534
  692MOL0     N95410   6.918   1.677   4.213 -0.0021 -0.4919 -0.6378
  692MOL0     C95411   7.578   1.610   5.176 -0.9715 -0.3979 -0.4833
  692MOL0     C95412   7.637   1.551   5.290 -0.5410 -0.5636  0.0004
  692MOL0     C95413   7.751   1.203   5.595 -0.4379  0.3577  0.1969
  692MOL0     C95414   7.673   1.245   5.700  0.8456 -0.4841  0.1100
  692MOL0     C95415   7.700   1.220   5.838 -0.6214  0.2422 -0.1871
  692MOL0     C95416   7.807   1.139   5.860 -0.7145  0.3347 -0.5851
  692MOL0     O95417   7.842   1.094   5.982 -0.6177  0.0573  0.1927
  692MOL0     C95418   7.888   1.207   6.060  0.4500  0.0254 -0.2087
  692MOL0     C95419   8.037   1.221   6.067 -0.3478 -0.7557  0.0817
  692MOL0     C95420   8.104   1.088   6.105  0.3266  0.3962  0.5762
  692MOL0     C95421   8.234   1.108   6.180 -0.6649 -0.3582  0.4310
  692MOL0     C95422   8.331   1.163   6.077 -0.2556  0.7471  0.3151
  692MOL0     C95423   8.407   1.201   5.993 -0.2499  0.6714 -0.2890
  692MOL0     C95424   7.880   1.077   5.752 -1.0553 -0.2981  0.4561
  692MOL0     C95425   7.859   1.112   5.619 -0.1662 -0.1860 -0.8728
  692MOL0     C95426   7.946   1.051   5.514  0.0917 -0.0573  0.0740
  692MOL0     H95427   7.534   1.238   5.254  1.8688 -0.2579  1.2371
  692MOL0     H95428   7.474   1.339   5.015  0.0678  0.2110  0.2531
  692MOL0     H95429   7.407   1.478   4.829 -1.5568  1.1524  1.2540
  692MOL0     H95430   7.594   1.481   4.847  0.8879  1.4717 -0.8620
  692MOL0     H95431   7.441   1.721   4.729 -0.8624 -1.4751  1.7843
  692MOL0     H95432   7.610   1.670   4.710  0.6909  1.3561  0.8510
  692MOL0     H95433   7.482   1.639   4.508  2.2276 -2.7358 -2.2188
  692MOL0     H95434   7.521   1.474   4.580 -0.3166 -0.2923 -2.1593
  692MOL0     H95435   7.291   1.484   4.665  1.5845 -0.8043  0.5879
  692MOL0     H95436   7.275   1.634   4.567 -0.5729 -0.7770  3.3181
  692MOL0     H95437   7.318   1.362   4.443 -0.9830 -0.3597  1.5067
  692MOL0     H95438   7.313   1.515   4.354  0.7743  0.5019 -0.5349
  692MOL0     H95439   7.106   1.414   4.549 -2.2766 -0.7354 -0.7838
  692MOL0     H95440   7.079   1.563   4.458  2.9343  1.7324  0.0830
  692MOL0     H95441   6.970   1.332   4.378 -0.2737  1.7841  0.1745
  692MOL0     H95442   7.114   1.279   4.326 -2.3149 -1.1184  1.0088
  692MOL0     H95443   7.130   1.514   4.185 -1.8929  1.3411 -1.7618
  692MOL0     H95444   7.018   1.391   4.120  1.0237  0.4946 -1.4478
  692MOL0     H95445   6.757   1.402   4.273 -2.9993  1.9361  1.1252
  692MOL0     H95446   6.570   1.637   4.377  1.2332 -0.2837 -0.8195
  692MOL0     H95447   6.534   1.531   4.237  0.5013  1.2645 -3.9208
  692MOL0     H95448   6.558   1.835   4.253 -0.5430 -1.8796  2.7041
  692MOL0     H95449   6.573   1.746   4.096 -2.2420 -3.0366 -0.7608
  692MOL0     H95450   6.323   1.663   4.137 -1.7952 -0.5368  3.2672
  692MOL0     H95451   6.342   1.728   4.295 -0.5839  0.7950  0.2347
  692MOL0     H95452   6.345   1.958   4.177  0.8311 -0.2391  0.0289
  692MOL0     H95453   6.333   1.878   4.020  0.4118  0.3487 -0.5431
  692MOL0     H95454   6.052   1.713   3.980  1.7827  1.4489  1.6130
  692MOL0     H95455   5.742   1.782   3.799 -1.0993  1.0913 -2.3938
  692MOL0     H95456   5.868   1.661   3.807  2.6190 -0.2580 -1.2669
  692MOL0     H95457   5.878   1.771   3.671  3.0877  1.9822  1.7418
  692MOL0     H95458   5.926   2.307   3.492  0.6313  0.9568  1.5402
  692MOL0     H95459   5.787   2.358   3.304  0.0719 -0.6940 -0.4247
  692MOL0     H95460   5.354   2.304   3.335  3.0217 -1.7528 -0.2126
  692MOL0     H95461   5.364   2.471   3.388  0.9128 -2.4520  2.8816
  692MOL0     H95462   5.382   2.393   3.085  1.7286  0.3779 -0.9698
  692MOL0     H95463   5.229   2.435   3.168 -0.0611  1.8638  2.4715
  692MOL0     H95464   5.475   2.607   3.147 -0.0235 -0.1423  0.3788
  692MOL0     H95465   5.355   2.637   3.265  2.3511  1.6808 -0.7822
  692MOL0     H95466   5.176   2.668   3.111 -2.1753  2.7067 -2.3916
  692MOL0     H95467   5.274   2.640   2.970 -1.1829 -0.0996  0.6286
  692MOL0     H95468   5.331   2.854   3.172  1.0726 -2.3032  0.5069
  692MOL0     H95469   5.423   2.821   3.026 -0.5681 -0.4006 -0.3944
  692MOL0     H95470   5.123   2.894   3.006 -0.5642  2.1533  0.6768
  692MOL0     H95471   5.250   2.865   2.880  2.3973  1.2414  0.0235
  692MOL0     H95472   5.355   3.076   3.049  2.1564  0.8434 -1.7961
  692MOL0     H95473   5.178   3.101   3.016 -0.6027  2.3719 -3.4609
  692MOL0     H95474   5.320   3.234   2.878  0.5862  0.0205  1.5510
  692MOL0     H95475   5.231   3.130   2.770 -2.1821  3.8145  0.6843
  692MOL0     H95476   5.443   2.340   3.565  0.4646 -0.8128  1.0585
  692MOL0     H95477   5.583   2.249   3.736 -0.8897  0.3118  0.3438
  692MOL0     H95478   6.004   2.198   3.895  2.1456  0.3588 -0.3329
  692MOL0     H95479   6.132   2.111   4.074  1.7650  0.4627 -2.7465
  692MOL0     H95480   7.599   1.712   5.145  0.1225 -1.2644 -2.8169
  692MOL0     H95481   7.689   1.609   5.365 -0.5930  0.5479 -0.7987
  692MOL0     H95482   7.578   1.294   5.682 -1.0449 -4.1841 -1.1877
  692MOL0     H95483   7.637   1.246   5.922 -0.5695  0.2306 -0.1439
  692MOL0     H95484   7.847   1.304   6.030 -2.3191 -0.5706  1.2565
  692MOL0     H95485   7.859   1.182   6.162  2.3820 -1.4450  0.0335
  692MOL0     H95486   8.060   1.301   6.137 -0.2159  0.8859 -1.7540
  692MOL0     H95487   8.078   1.244   5.968  1.2783 -2.1992  0.3774
  692MOL0     H95488   8.035   1.028   6.165 -1.4403  1.1185 -0.6395
  692MOL0     H95489   8.126   1.035   6.011  0.2578  1.6063 -0.1362
  692MOL0     H95490   8.277   1.013   6.212  0.0333 -0.0577  0.4104
  692MOL0     H95491   8.222   1.172   6.268  1.8636 -0.6625  1.0793
  692MOL0     H95492   8.465   1.226   5.907  1.5722 -1.9480  0.0934
  692MOL0     H95493   7.956   1.003   5.776  0.1612  0.9811  0.6655
  692MOL0     H95494   7.884   0.979   5.458 -0.8231  0.7006  0.0829
  692MOL0     H95495   7.966   1.122   5.434  0.6642  0.2092  0.4513
  692MOL0     H95496   8.044   1.020   5.549  0.1839  2.5124  2.3886
  693MOL0     O95497   4.707   6.419   6.133 -0.3561 -0.8156  0.0715
  693MOL0     C95498   4.713   6.298   6.112 -0.4051 -0.9058 -0.3034
  693MOL0     O95499   4.829   6.238   6.062  0.2261 -0.1351  0.9270
  693MOL0     C95500   4.923   6.319   6.016  0.7533 -0.0915 -0.9084
  693MOL0     C95501   4.920   6.388   5.890  0.2805 -0.3513 -0.7096
  693MOL0     C95502   5.017   6.476   5.839  0.3719 -0.2854 -0.4689
  693MOL0     C95503   5.125   6.500   5.928  0.5465 -0.2243  0.4482
  693MOL0     O95504   5.229   6.586   5.906 -0.6951  0.1000  0.2204
  693MOL0     C95505   5.264   6.605   5.768 -0.1127  0.2665  0.0141
  693MOL0     C95506   5.399   6.669   5.767 -0.7835 -0.5260  0.1337
  693MOL0     C95507   5.441   6.670   5.621 -0.5555  0.1890 -0.7141
  693MOL0     C95508   5.578   6.729   5.602 -0.1083 -0.3621  0.4028
  693MOL0     C95509   5.628   6.731   5.452  0.5552  0.7954  0.0556
  693MOL0     C95510   5.663   6.596   5.394 -0.2018  0.2082  0.5687
  693MOL0     C95511   5.681   6.612   5.239 -0.3546  0.5293 -0.2120
  693MOL0     C95512   5.822   6.648   5.194  1.2567 -0.4296  0.2301
  693MOL0     N95513   5.921   6.551   5.240  0.3521  0.5567  0.0870
  693MOL0     C95514   6.054   6.582   5.278 -1.1024 -0.7199 -0.4451
  693MOL0     C95515   6.118   6.465   5.305 -0.1590  0.4292  0.6014
  693MOL0     C95516   6.251   6.440   5.372  0.3129  0.0473  0.3380
  693MOL0     C95517   6.349   6.404   5.262 -0.4716  0.0104 -0.5537
  693MOL0     C95518   6.399   6.528   5.185 -0.4701  0.1897 -0.1628
  693MOL0     C95519   6.493   6.615   5.262 -0.4395 -0.4069 -0.9645
  693MOL0     O95520   6.524   6.734   5.183  0.1750  0.3008 -1.1223
  693MOL0     C95521   6.605   6.691   5.074  0.8526 -0.0612  0.3202
  693MOL0     C95522   6.744   6.655   5.089  0.9669  0.0110  0.5163
  693MOL0     C95523   6.819   6.621   4.975 -0.5134  0.3453  0.4244
  693MOL0     C95524   6.961   6.551   5.001 -0.4415  0.5211 -0.1990
  693MOL0     C95525   6.766   6.638   4.840  0.5050  0.3093 -0.4663
  693MOL0     C95526   6.827   6.602   4.711  0.3790  0.4211  0.5813
  693MOL0     O95527   6.819   6.690   4.610  0.3006 -0.1372  0.2378
  693MOL0     C95528   6.893   6.677   4.503 -0.0149  0.0189  0.9544
  693MOL0     C95529   6.838   6.670   4.378 -0.6483 -0.4104 -0.2093
  693MOL0     C95530   6.923   6.663   4.270  0.4925 -0.6323  0.5141
  693MOL0     C95531   7.056   6.675   4.285  0.5112  0.1722 -0.5368
  693MOL0     O95532   7.148   6.653   4.183 -0.7464 -0.2238 -0.2832
  693MOL0     C95533   7.118   6.550   4.089  0.1314  0.1408  0.3271
  693MOL0     C95534   7.243   6.458   4.049  0.5494 -0.7050 -0.2084
  693MOL0     C95535   7.366   6.537   3.996 -0.3779  0.2746  0.0175
  693MOL0     C95536   7.491   6.446   4.012 -0.1457  0.4776  0.4731
  693MOL0     C95537   7.615   6.521   3.951 -0.2664  0.3658  0.5471
  693MOL0     C95538   7.733   6.416   3.937  0.5163 -0.3104  0.6175
  693MOL0     C95539   7.815   6.452   3.812  0.3723 -0.3046  0.9191
  693MOL0     C95540   7.926   6.348   3.787 -0.6728  0.7971  0.7123
  693MOL0    Cl95541   8.031   6.380   3.637  0.3632  0.2547 -0.0231
  693MOL0     C95542   7.110   6.701   4.409  0.5566 -0.3707  0.3449
  693MOL0     C95543   7.029   6.697   4.521  0.4192 -0.1210  0.7521
  693MOL0     O95544   6.882   6.493   4.699 -0.2350 -0.4785 -0.0223
  693MOL0     C95545   6.628   6.674   4.831 -0.6292 -0.2979  0.0709
  693MOL0     C95546   6.562   6.701   4.937  0.1592  0.1692  0.0143
  693MOL0     N95547   6.027   6.363   5.276  0.7892  0.1007 -0.5087
  693MOL0     N95548   5.908   6.415   5.252  0.1956 -0.9780 -0.8385
  693MOL0     C95549   5.124   6.438   6.051  0.3689  0.8046  0.1089
  693MOL0     C95550   5.026   6.345   6.091 -0.1845  0.2454  0.4896
  693MOL0     C95551   4.591   6.226   6.160  0.2169  0.5131  0.0395
  693MOL0     C95552   4.480   6.290   6.216  0.2893 -1.0959  0.0545
  693MOL0     C95553   4.363   6.229   6.253  0.1512  0.0859  0.3151
  693MOL0     C95554   4.333   6.097   6.222 -0.0667  0.4316  0.1329
  693MOL0     O95555   4.216   6.038   6.271 -0.5639  0.8220  0.0074
  693MOL0     C95556   4.216   5.896   6.289 -0.4240 -0.8394  0.1055
  693MOL0     C95557   4.123   5.877   6.415 -0.6093  0.0957  0.4774
  693MOL0     C95558   3.986   5.941   6.404 -0.1774  0.9869 -0.0143
  693MOL0     C95559   3.899   5.894   6.291  0.6206  0.1818  0.1608
  693MOL0     C95560   3.870   5.745   6.295  0.6587 -0.6746  0.7531
  693MOL0     C95561   3.865   5.626   6.302 -0.1138 -0.2113 -0.1404
  693MOL0     C95562   4.438   6.028   6.166 -0.4460  0.8130 -0.8692
  693MOL0     C95563   4.565   6.081   6.140  0.4197  0.0981 -0.9590
  693MOL0     C95564   4.678   5.985   6.111  1.4088 -0.2818 -0.4138
  693MOL0     H95565   4.843   6.357   5.821 -0.9533 -0.2374  0.5772
  693MOL0     H95566   5.010   6.526   5.743 -1.9140 -0.4884 -0.4665
  693MOL0     H95567   5.197   6.676   5.719 -0.3009  0.6019  0.7349
  693MOL0     H95568   5.277   6.511   5.715  1.2005  1.5395 -2.0833
  693MOL0     H95569   5.390   6.771   5.806  2.4659  0.5838 -1.6009
  693MOL0     H95570   5.471   6.614   5.830 -3.2472 -1.4771  2.3064
  693MOL0     H95571   5.428   6.574   5.570  0.7679  1.0661 -2.8697
  693MOL0     H95572   5.377   6.743   5.570 -0.5181  1.0178  0.3849
  693MOL0     H95573   5.592   6.826   5.650  0.3825  0.2913 -1.0056
  693MOL0     H95574   5.651   6.659   5.644 -0.9213 -0.9666  0.8639
  693MOL0     H95575   5.725   6.780   5.440  2.2556 -2.2006  0.6833
  693MOL0     H95576   5.556   6.784   5.387 -0.8969  0.0911  1.0381
  693MOL0     H95577   5.756   6.558   5.438 -0.1401 -0.8166 -0.3929
  693MOL0     H95578   5.587   6.520   5.417  0.2350 -1.0552 -1.7899
  693MOL0     H95579   5.606   6.682   5.201 -2.3180 -0.6570  1.2922
  693MOL0     H95580   5.657   6.509   5.213  0.5758 -1.0379  4.2211
  693MOL0     H95581   5.815   6.656   5.086 -2.3941  0.8231  0.4001
  693MOL0     H95582   5.845   6.746   5.236 -0.3586 -0.2664  0.8404
  693MOL0     H95583   6.099   6.678   5.301 -0.7357 -1.0516  0.2525
  693MOL0     H95584   6.256   6.364   5.450  0.4259 -0.8478 -0.5145
  693MOL0     H95585   6.281   6.530   5.426  2.1131  0.6109 -1.4784
  693MOL0     H95586   6.438   6.364   5.311  0.4532  3.4467  0.7829
  693MOL0     H95587   6.308   6.329   5.193  2.7917 -2.0791 -0.4351
  693MOL0     H95588   6.450   6.494   5.095 -1.3079 -1.8426  0.0885
  693MOL0     H95589   6.310   6.583   5.154  0.3221  2.4060  1.1915
  693MOL0     H95590   6.444   6.642   5.356  1.8645 -2.7769  1.0661
  693MOL0     H95591   6.587   6.575   5.301 -0.0780  2.3822  1.3898
  693MOL0     H95592   6.793   6.651   5.185 -3.5122  1.7033  3.2139
  693MOL0     H95593   7.038   6.598   4.939  2.7203 -7.1879 -3.3755
  693MOL0     H95594   6.943   6.451   4.959  1.5639  0.3194 -0.6557
  693MOL0     H95595   7.000   6.547   5.103  0.7539 -0.4690 -0.6733
  693MOL0     H95596   6.731   6.681   4.363 -0.2189  1.1000 -2.9084
  693MOL0     H95597   6.879   6.662   4.171 -2.7402 -0.7592  1.8197
  693MOL0     H95598   7.040   6.481   4.122  0.8767 -2.2682 -2.5281
  693MOL0     H95599   7.097   6.590   3.989 -0.1203 -1.8717 -0.4699
  693MOL0     H95600   7.279   6.405   4.138  1.1907 -2.8131 -1.6368
  693MOL0     H95601   7.216   6.383   3.974 -2.8712  0.6839 -0.5054
  693MOL0     H95602   7.368   6.629   4.055  1.4189 -0.0162  0.4623
  693MOL0     H95603   7.354   6.554   3.888  2.3846 -0.9779 -0.5770
  693MOL0     H95604   7.474   6.357   3.950  1.5853  1.3520 -1.3733
  693MOL0     H95605   7.512   6.409   4.113  0.4193 -0.4234  0.0391
  693MOL0     H95606   7.583   6.552   3.851  0.5938  1.8544  0.7133
  693MOL0     H95607   7.656   6.601   4.013  2.2349 -0.9369  0.6906
  693MOL0     H95608   7.697   6.316   3.915  3.8731 -1.0281 -2.5759
  693MOL0     H95609   7.798   6.410   4.025  1.8771  1.6445 -0.1817
  693MOL0     H95610   7.861   6.550   3.824 -0.4475  0.0996  0.8078
  693MOL0     H95611   7.751   6.458   3.724 -0.3103 -1.3990  1.3167
  693MOL0     H95612   7.887   6.248   3.765  1.3943 -0.1825  1.2942
  693MOL0     H95613   7.978   6.327   3.881  1.0480 -4.0517 -1.0093
  693MOL0     H95614   7.217   6.706   4.425 -0.0873  0.7982  6.9292
  693MOL0     H95615   7.062   6.692   4.624 -1.0619 -0.4490  1.2287
  693MOL0     H95616   6.577   6.691   4.737  0.8314 -0.5239 -0.8009
  693MOL0     H95617   6.467   6.753   4.921  0.6207  1.4571  1.3029
  693MOL0     H95618   5.200   6.450   6.127  0.3484 -2.9694  0.9223
  693MOL0     H95619   5.031   6.291   6.185 -2.5978  0.4831  0.8178
  693MOL0     H95620   4.479   6.395   6.244 -3.3813 -0.8814 -0.4004
  693MOL0     H95621   4.279   6.281   6.299  1.8141  1.2715  2.2058
  693MOL0     H95622   4.180   5.855   6.195 -1.4041 -0.3785  0.2735
  693MOL0     H95623   4.319   5.859   6.301 -0.1647  0.1219  1.0773
  693MOL0     H95624   4.178   5.913   6.502 -1.6218 -0.6093  1.4435
  693MOL0     H95625   4.100   5.771   6.428 -2.3766  0.1429 -1.5987
  693MOL0     H95626   3.930   5.916   6.495 -1.5526 -2.5615 -1.6546
  693MOL0     H95627   3.999   6.049   6.386 -1.3372  0.6162 -4.1603
  693MOL0     H95628   3.930   5.923   6.190  0.8229 -0.5160  0.0164
  693MOL0     H95629   3.805   5.949   6.301  1.9413  2.5169  0.6386
  693MOL0     H95630   3.850   5.522   6.321 -2.0710 -0.0532 -0.5861
  693MOL0     H95631   4.431   5.920   6.163 -0.9265  0.8159  0.0746
  693MOL0     H95632   4.690   5.960   6.005  2.7203 -0.2036 -0.2983
  693MOL0     H95633   4.774   6.024   6.147  1.1050 -1.4207  1.8225
  693MOL0     H95634   4.657   5.886   6.153 -3.1971  0.4424 -0.4098
  694MOL0     O95635   9.801   9.084   6.627 -0.1661 -0.2438 -0.4860
  694MOL0     C95636   9.845   9.127   6.728 -0.4247 -0.0393 -0.9765
  694MOL0     O95637   9.979   9.143   6.765 -0.5101 -0.0116 -0.0625
  694MOL0     C95638  10.084   9.111   6.682  0.0667 -0.6242 -0.4742
  694MOL0     C95639  10.080   9.088   6.543  0.0640 -0.5074 -0.1319
  694MOL0     C95640  10.178   9.045   6.463 -0.5065 -0.2459 -0.6470
  694MOL0     C95641  10.302   9.016   6.526 -0.5773 -0.3652  0.6812
  694MOL0     O95642  10.410   8.967   6.460  0.2772 -0.0794 -0.2938
  694MOL0     C95643  10.397   8.881   6.344 -0.6897 -0.1567 -0.0093
  694MOL0     C95644  10.517   8.852   6.260 -0.4048 -0.1220  0.9782
  694MOL0     C95645  10.627   8.773   6.328 -0.6930 -0.0346  0.1841
  694MOL0     C95646  10.742   8.744   6.226  0.2554  0.3445  0.3847
  694MOL0     C95647  10.862   8.677   6.300 -0.1181 -0.7855 -0.0461
  694MOL0     C95648  10.972   8.612   6.211  0.1858 -0.6035  0.5888
  694MOL0     C95649  11.041   8.716   6.124 -1.1861 -0.3493 -0.6887
  694MOL0     C95650  11.101   8.680   5.992  0.4899 -0.1715 -0.2981
  694MOL0     N95651  11.190   8.567   6.025  0.4727  0.5770  0.4904
  694MOL0     C95652  11.177   8.430   6.000  0.1980 -0.3162  0.5816
  694MOL0     C95653  11.278   8.370   6.054 -0.3594  0.7491 -0.1675
  694MOL0     C95654  11.325   8.228   6.075 -0.4587  0.5482  1.1325
  694MOL0     C95655  11.369   8.151   5.949 -0.1338 -0.3543  0.4610
  694MOL0     C95656  11.483   8.221   5.859 -0.0632 -0.2190  0.4174
  694MOL0     C95657  11.620   8.185   5.914 -0.7618 -0.3773  0.1443
  694MOL0     O95658  11.643   8.041   5.908  0.2754  0.2062 -0.3026
  694MOL0     C95659  11.774   7.998   5.897 -0.6549  0.6902 -0.8802
  694MOL0     C95660  11.813   7.886   5.826 -0.3240 -0.6612 -0.6122
  694MOL0     C95661  11.942   7.843   5.817 -0.0475 -0.8554  0.4038
  694MOL0     C95662  11.963   7.716   5.732  0.6747 -0.2476 -0.0376
  694MOL0     C95663  12.046   7.921   5.880 -0.6253  0.5003 -0.5271
  694MOL0     C95664  12.191   7.875   5.879 -0.0746 -0.2696  0.6037
  694MOL0     O95665  12.233   7.764   5.806  0.1329  0.1778  1.4460
  694MOL0     C95666  12.370   7.752   5.779  0.1806 -0.3893 -0.2442
  694MOL0     C95667  12.418   7.820   5.663  0.0624 -0.5960 -0.6492
  694MOL0     C95668  12.547   7.791   5.623 -0.6552 -0.6692 -0.2155
  694MOL0     C95669  12.626   7.693   5.686 -0.4682 -0.0821 -0.7671
  694MOL0     O95670  12.753   7.656   5.650 -0.5199  0.7098 -0.2972
  694MOL0     C95671  12.820   7.721   5.548 -0.8327 -1.4399 -0.5531
  694MOL0     C95672  12.889   7.850   5.612 -0.6197  0.0212  0.8945
  694MOL0     C95673  12.981   7.808   5.725 -0.5132 -0.6468 -1.3031
  694MOL0     C95674  13.044   7.927   5.797  0.8675 -1.0516  0.0494
  694MOL0     C95675  13.128   7.895   5.919  1.0349 -0.0338 -0.3042
  694MOL0     C95676  13.186   8.025   5.971 -0.0334 -0.0012 -0.1764
  694MOL0     C95677  13.096   8.058   6.093  0.0476  0.1308  0.0945
  694MOL0     C95678  13.117   8.192   6.146  0.4511 -0.5475 -0.4923
  694MOL0    Cl95679  13.288   8.237   6.163 -0.0700 -0.3453  0.5833
  694MOL0     C95680  12.577   7.623   5.797  0.1993 -0.4786  0.0076
  694MOL0     C95681  12.449   7.655   5.843 -0.2152 -0.0321 -1.0501
  694MOL0     O95682  12.270   7.953   5.938  0.6735  0.5187 -0.1294
  694MOL0     C95683  12.008   8.028   5.957 -0.4096  0.1264 -0.3511
  694MOL0     C95684  11.878   8.065   5.970 -0.0880 -0.7108  0.5040
  694MOL0     N95685  11.363   8.468   6.099  0.1779 -0.2093  0.1670
  694MOL0     N95686  11.311   8.586   6.079 -1.2663 -0.5296 -0.9632
  694MOL0     C95687  10.322   9.046   6.661 -0.1245 -1.3271 -0.4246
  694MOL0     C95688  10.210   9.102   6.735 -0.6858 -0.3561 -0.5974
  694MOL0     C95689   9.745   9.164   6.832 -0.7529 -0.7296 -0.2702
  694MOL0     C95690   9.794   9.195   6.962  0.6479 -0.0255 -0.8017
  694MOL0     C95691   9.706   9.231   7.054  0.1571  0.5674 -0.2231
  694MOL0     C95692   9.566   9.244   7.045 -0.5586  0.6656  0.2918
  694MOL0     O95693   9.474   9.284   7.137  0.2108  0.9228 -0.2693
  694MOL0     C95694   9.510   9.335   7.262 -1.0323 -0.2259 -0.0652
  694MOL0     C95695   9.392   9.430   7.298  0.2253  0.7197  0.1914
  694MOL0     C95696   9.276   9.365   7.362  0.1661  0.9029  0.2421
  694MOL0     C95697   9.156   9.460   7.384 -0.2781  0.3059  0.1196
  694MOL0     C95698   9.190   9.581   7.470 -0.5253  1.3858 -0.5854
  694MOL0     C95699   9.200   9.680   7.538  0.1122 -0.0819 -0.2050
  694MOL0     C95700   9.517   9.221   6.915 -0.5846 -0.5679  0.2694
  694MOL0     C95701   9.604   9.187   6.805 -1.2077 -0.0753  0.1760
  694MOL0     C95702   9.542   9.167   6.668 -0.1306  0.3708  0.4836
  694MOL0     H95703   9.992   9.103   6.481  1.0230  0.8913 -1.2130
  694MOL0     H95704  10.160   9.031   6.357 -3.4676 -0.2157 -0.2298
  694MOL0     H95705  10.325   8.930   6.277  0.2516 -0.0967 -0.9855
  694MOL0     H95706  10.357   8.782   6.367  0.3886 -0.0106  2.9190
  694MOL0     H95707  10.480   8.791   6.177  2.3536 -1.4197  0.5923
  694MOL0     H95708  10.566   8.938   6.215  1.9990 -1.5846  0.6220
  694MOL0     H95709  10.661   8.823   6.419  0.8109 -2.1077  0.8537
  694MOL0     H95710  10.593   8.673   6.358 -0.0340 -0.5004 -0.5607
  694MOL0     H95711  10.708   8.679   6.145 -1.1667 -1.0119  2.0017
  694MOL0     H95712  10.775   8.830   6.167  0.1205 -1.8204 -3.1664
  694MOL0     H95713  10.822   8.601   6.367  1.1706 -1.1183  0.3585
  694MOL0     H95714  10.907   8.760   6.355  0.9959 -1.2293 -0.2585
  694MOL0     H95715  11.037   8.569   6.288  2.6610  2.0488  0.1556
  694MOL0     H95716  10.928   8.531   6.151 -0.4292  0.3256 -0.2472
  694MOL0     H95717  11.129   8.756   6.177 -2.8864 -0.0448  2.0952
  694MOL0     H95718  10.972   8.797   6.102 -1.7323 -0.9899 -1.3681
  694MOL0     H95719  11.022   8.657   5.919 -0.1619  0.4894  0.1878
  694MOL0     H95720  11.154   8.766   5.949 -1.9775 -0.2891 -4.1359
  694MOL0     H95721  11.084   8.389   5.961 -0.9784  2.4268  0.2448
  694MOL0     H95722  11.242   8.163   6.105  1.0275 -1.0878  1.9178
  694MOL0     H95723  11.402   8.231   6.153 -0.0033 -0.1883  0.7246
  694MOL0     H95724  11.401   8.054   5.990  2.6544  0.4954  0.5037
  694MOL0     H95725  11.282   8.118   5.891  0.3891 -0.2369 -0.4002
  694MOL0     H95726  11.478   8.198   5.752  0.4094  0.3622  0.2651
  694MOL0     H95727  11.473   8.330   5.864 -2.1735 -0.3280 -0.5234
  694MOL0     H95728  11.693   8.238   5.853 -1.6844  1.4909  0.6031
  694MOL0     H95729  11.621   8.216   6.019 -0.0085 -1.8223  0.5967
  694MOL0     H95730  11.736   7.824   5.781 -1.3259 -0.7563  1.1184
  694MOL0     H95731  12.015   7.639   5.790  2.2002 -0.0644 -1.1171
  694MOL0     H95732  12.020   7.741   5.642  0.9628 -0.1453  0.1735
  694MOL0     H95733  11.860   7.682   5.714 -0.7700  0.8078  4.6885
  694MOL0     H95734  12.365   7.894   5.603  0.3410 -0.0147 -0.1869
  694MOL0     H95735  12.583   7.846   5.536 -2.2442  1.7170  0.5486
  694MOL0     H95736  12.898   7.654   5.509  0.0018 -0.3469 -0.8312
  694MOL0     H95737  12.756   7.749   5.465 -2.2218  2.5289  1.5812
  694MOL0     H95738  12.943   7.901   5.531 -3.2561 -1.6165 -2.1128
  694MOL0     H95739  12.809   7.917   5.645 -2.6529 -1.9928  0.3294
  694MOL0     H95740  13.061   7.744   5.687  0.1559 -1.7598  1.6659
  694MOL0     H95741  12.940   7.752   5.809 -1.7740  2.8914  0.6327
  694MOL0     H95742  12.967   7.999   5.827 -0.7533 -1.7089 -2.2319
  694MOL0     H95743  13.111   7.969   5.721 -0.8699  0.2161 -0.8742
  694MOL0     H95744  13.074   7.833   5.991  2.5532  0.1013  1.0013
  694MOL0     H95745  13.209   7.833   5.880  1.3567 -0.2450  0.6672
  694MOL0     H95746  13.171   8.101   5.894  0.6031 -1.8094 -2.1988
  694MOL0     H95747  13.294   8.014   5.985  0.2097  2.5512  0.6115
  694MOL0     H95748  13.116   7.989   6.176  2.3831  2.0100  1.2223
  694MOL0     H95749  12.992   8.036   6.065  0.0352  0.5177 -0.1673
  694MOL0     H95750  13.076   8.194   6.247  0.5486 -2.3324 -0.3859
  694MOL0     H95751  13.065   8.265   6.083 -0.8653 -1.1511 -0.1229
  694MOL0     H95752  12.632   7.544   5.848 -2.5053 -1.4692  1.6252
  694MOL0     H95753  12.395   7.609   5.925  0.0015 -0.8190 -1.3431
  694MOL0     H95754  12.085   8.087   6.006 -1.1283  0.0351  0.9288
  694MOL0     H95755  11.851   8.151   6.030 -2.1932 -0.8772 -0.1457
  694MOL0     H95756  10.410   9.017   6.717 -1.1237 -2.0382  0.8243
  694MOL0     H95757  10.224   9.119   6.841 -0.0183 -1.3512 -0.5138
  694MOL0     H95758   9.897   9.165   6.982  0.3952 -1.3849 -1.4231
  694MOL0     H95759   9.744   9.237   7.155 -0.6028 -1.1134  0.2071
  694MOL0     H95760   9.528   9.267   7.345  0.4784  1.0205  0.6879
  694MOL0     H95761   9.599   9.398   7.248  0.9145 -3.0995 -1.5921
  694MOL0     H95762   9.360   9.486   7.210 -1.5092  0.3520  0.5558
  694MOL0     H95763   9.431   9.497   7.375 -0.1467 -1.0864  2.0590
  694MOL0     H95764   9.245   9.282   7.298  1.8340  0.7309 -0.3852
  694MOL0     H95765   9.311   9.328   7.459 -0.0066  0.8286  0.2781
  694MOL0     H95766   9.072   9.402   7.421  0.3853  0.4581  1.9697
  694MOL0     H95767   9.114   9.498   7.290 -1.2402 -0.4989  0.2159
  694MOL0     H95768   9.206   9.771   7.594  0.9501 -0.3976  0.2400
  694MOL0     H95769   9.410   9.213   6.897 -0.5981 -0.1744  0.1825
  694MOL0     H95770   9.605   9.209   6.589 -1.7602  0.0577 -1.0350
  694MOL0     H95771   9.513   9.064   6.645 -3.4914  1.2529  0.2066
  694MOL0     H95772   9.451   9.227   6.664 -0.0569  0.4755 -4.1099
  695MOL0     O95773   9.180   8.421   1.406 -0.1911 -0.0841  0.0913
  695MOL0     C95774   9.217   8.522   1.476 -0.8560  0.1282  0.3823
  695MOL0     O95775   9.325   8.591   1.461  0.1150  0.4297  0.7448
  695MOL0     C95776   9.425   8.548   1.372  0.7144  0.2712 -0.0745
  695MOL0     C95777   9.488   8.656   1.310 -0.1130  0.0320 -0.2129
  695MOL0     C95778   9.582   8.633   1.201 -0.4679  0.4782 -0.4485
  695MOL0     C95779   9.615   8.506   1.165  0.1647  0.4207  0.3966
  695MOL0     O95780   9.714   8.491   1.067  0.3867 -0.2655  0.3794
  695MOL0     C95781   9.746   8.362   1.019 -0.7182  0.2799  1.4761
  695MOL0     C95782   9.858   8.374   0.905 -0.2689 -0.1761 -0.8991
  695MOL0     C95783   9.988   8.448   0.948  0.8151  0.5437 -0.0060
  695MOL0     C95784  10.071   8.471   0.821  0.1740 -1.0356  0.7260
  695MOL0     C95785  10.199   8.530   0.849  0.3470 -0.2578 -0.2408
  695MOL0     C95786  10.294   8.421   0.902 -0.1278  0.3683 -0.3058
  695MOL0     C95787  10.433   8.483   0.920 -0.6044 -0.3853 -0.4985
  695MOL0     C95788  10.537   8.369   0.941  0.3465 -0.2881  0.4138
  695MOL0     N95789  10.675   8.411   0.934  0.3432 -0.0868  0.0421
  695MOL0     C95790  10.777   8.371   0.844  0.2598 -0.6947  0.2008
  695MOL0     C95791  10.893   8.415   0.905 -0.5211  0.0112  0.4696
  695MOL0     C95792  11.039   8.394   0.859  0.5689 -0.5503  0.1831
  695MOL0     C95793  11.136   8.387   0.978 -0.5014 -1.4741  0.5933
  695MOL0     C95794  11.285   8.416   0.952 -0.1925 -0.3494  0.4133
  695MOL0     C95795  11.314   8.558   0.918 -0.0414 -0.7955 -0.3150
  695MOL0     O95796  11.447   8.572   0.869  0.5683  0.0107 -0.2469
  695MOL0     C95797  11.551   8.582   0.962 -0.4833  0.3335 -0.2728
  695MOL0     C95798  11.557   8.682   1.057  0.1935  0.0500 -0.0163
  695MOL0     C95799  11.640   8.685   1.161 -0.3838 -0.4169  0.6842
  695MOL0     C95800  11.628   8.809   1.248  0.5880 -0.5111  0.1362
  695MOL0     C95801  11.738   8.583   1.169 -0.1485 -0.5514  0.2882
  695MOL0     C95802  11.840   8.578   1.272  0.9928 -0.2110  0.4624
  695MOL0     O95803  11.886   8.453   1.307  0.3778 -0.1347  0.1501
  695MOL0     C95804  12.013   8.449   1.348  0.5215 -0.1500 -0.5880
  695MOL0     C95805  12.119   8.407   1.258  0.3974 -0.2672  0.2987
  695MOL0     C95806  12.239   8.397   1.318 -0.1176 -0.5207  0.4667
  695MOL0     C95807  12.273   8.427   1.451  0.2101  0.9901 -0.5701
  695MOL0     O95808  12.411   8.426   1.477 -0.1545 -0.1515 -0.0282
  695MOL0     C95809  12.447   8.397   1.614  0.4463 -0.0867  0.0601
  695MOL0     C95810  12.597   8.396   1.626 -0.3827 -0.2202 -0.0804
  695MOL0     C95811  12.667   8.537   1.634 -1.3266  1.2039  0.5257
  695MOL0     C95812  12.817   8.530   1.619  0.3687  0.4641  0.3693
  695MOL0     C95813  12.885   8.663   1.658 -0.6879  1.3297  0.0742
  695MOL0     C95814  13.025   8.689   1.588  0.4879 -1.0041  0.1087
  695MOL0     C95815  13.077   8.832   1.605 -0.2190  0.2728  0.2520
  695MOL0     C95816  13.194   8.857   1.527 -0.9890  0.1187 -0.6992
  695MOL0    Cl95817  13.232   9.026   1.533 -0.2395 -0.2597 -0.0667
  695MOL0     C95818  12.172   8.443   1.544  0.9545 -0.2007  0.0970
  695MOL0     C95819  12.039   8.460   1.490  0.0310 -0.2894 -0.2882
  695MOL0     O95820  11.895   8.686   1.312 -0.8790 -0.2317  0.0913
  695MOL0     C95821  11.746   8.481   1.071  0.1613 -0.1114 -0.2509
  695MOL0     C95822  11.649   8.473   0.970  0.7491 -1.0658 -0.2341
  695MOL0     N95823  10.862   8.485   1.017 -0.2769  0.0453  0.3340
  695MOL0     N95824  10.733   8.490   1.031  0.0432  0.1598  0.3675
  695MOL0     C95825   9.548   8.393   1.225 -0.2009 -0.2960 -0.4203
  695MOL0     C95826   9.464   8.412   1.335  0.0329  0.2528 -0.2387
  695MOL0     C95827   9.127   8.557   1.593 -0.0809  0.4481  0.4322
  695MOL0     C95828   9.008   8.496   1.604  1.0233  0.7127  0.0100
  695MOL0     C95829   8.918   8.530   1.699 -0.0496 -0.2936  0.2065
  695MOL0     C95830   8.957   8.597   1.812 -0.6342 -1.0957  0.4899
  695MOL0     O95831   8.880   8.622   1.923  0.9308 -0.0434  0.9396
  695MOL0     C95832   8.743   8.576   1.938 -0.2985 -0.3164  0.0422
  695MOL0     C95833   8.736   8.428   1.968  0.4486 -0.0249  0.1225
  695MOL0     C95834   8.599   8.368   2.016 -0.8175  0.3974 -1.1850
  695MOL0     C95835   8.614   8.213   2.047 -0.2380 -0.3327  0.6697
  695MOL0     C95836   8.687   8.190   2.174 -0.2398 -1.3374  0.5134
  695MOL0     C95837   8.751   8.164   2.272  0.0067  0.7319 -0.1956
  695MOL0     C95838   9.078   8.659   1.808  1.0468 -0.1986 -0.0687
  695MOL0     C95839   9.155   8.660   1.693 -0.1508  0.2524  0.4440
  695MOL0     C95840   9.271   8.754   1.679 -0.9574 -0.3681 -0.6335
  695MOL0     H95841   9.468   8.761   1.328  0.2759  0.4190 -1.8072
  695MOL0     H95842   9.634   8.715   1.152  1.4870  0.3232  1.2241
  695MOL0     H95843   9.669   8.316   0.957  2.6951 -0.6832 -2.4593
  695MOL0     H95844   9.781   8.288   1.092 -1.4536 -0.1805  1.3821
  695MOL0     H95845   9.867   8.271   0.869  0.2058 -0.4600  0.0091
  695MOL0     H95846   9.813   8.424   0.819 -1.5289  1.7346  0.7907
  695MOL0     H95847   9.953   8.532   1.009 -2.6824 -1.3539  0.8821
  695MOL0     H95848  10.045   8.384   1.016 -0.0992 -0.7193 -0.3818
  695MOL0     H95849  10.081   8.377   0.767  1.2197  1.4264 -3.9288
  695MOL0     H95850  10.022   8.548   0.760  3.0291  0.4860  0.1921
  695MOL0     H95851  10.200   8.608   0.925 -1.3129 -1.0720  0.6719
  695MOL0     H95852  10.231   8.572   0.754 -3.5986  3.3340 -0.2740
  695MOL0     H95853  10.258   8.370   0.991  0.9204 -2.8577 -1.5852
  695MOL0     H95854  10.291   8.345   0.823  0.8308  1.1111 -1.0900
  695MOL0     H95855  10.430   8.554   1.003 -0.3187 -1.6208  0.6044
  695MOL0     H95856  10.471   8.526   0.827  1.1640 -2.5315 -0.8476
  695MOL0     H95857  10.518   8.328   1.040 -2.2249 -1.9819 -0.6956
  695MOL0     H95858  10.537   8.285   0.871  3.1364 -1.1103  1.2720
  695MOL0     H95859  10.772   8.309   0.755 -1.2966  2.2502 -1.9334
  695MOL0     H95860  11.060   8.480   0.795  1.4247  1.8851  3.5108
  695MOL0     H95861  11.056   8.302   0.801  2.0460 -0.5865  0.6284
  695MOL0     H95862  11.099   8.443   1.064 -1.1988 -2.0466  0.6706
  695MOL0     H95863  11.136   8.283   1.010  0.5466 -0.3494  4.9093
  695MOL0     H95864  11.343   8.398   1.043  1.3239  2.1436  0.0374
  695MOL0     H95865  11.325   8.358   0.868  0.7322  0.6306  0.1483
  695MOL0     H95866  11.254   8.578   0.829 -2.2983 -1.4519  0.9605
  695MOL0     H95867  11.283   8.628   0.997  0.9356 -0.5624 -0.1285
  695MOL0     H95868  11.476   8.753   1.045 -2.3098 -2.0241  2.7729
  695MOL0     H95869  11.544   8.874   1.221 -0.9936 -2.5586 -0.0615
  695MOL0     H95870  11.719   8.870   1.237  0.8694 -0.2231  3.2065
  695MOL0     H95871  11.618   8.781   1.353 -2.4007  2.9069  0.9747
  695MOL0     H95872  12.099   8.385   1.154 -1.5076 -0.5189  0.6805
  695MOL0     H95873  12.322   8.350   1.265  0.9072 -1.0472  2.4506
  695MOL0     H95874  12.398   8.471   1.680  1.5063  0.6255  0.0673
  695MOL0     H95875  12.419   8.296   1.643  0.0038  0.1637  0.5313
  695MOL0     H95876  12.625   8.349   1.721  0.6399 -1.1692 -0.8302
  695MOL0     H95877  12.653   8.346   1.546  3.4800  1.3750  1.3903
  695MOL0     H95878  12.645   8.563   1.738 -2.8963 -0.9556  0.7931
  695MOL0     H95879  12.616   8.614   1.574 -1.7588  1.0021  0.6294
  695MOL0     H95880  12.829   8.514   1.511  0.3371  1.3262  0.2346
  695MOL0     H95881  12.865   8.444   1.668  0.0444 -1.3456 -2.2773
  695MOL0     H95882  12.814   8.734   1.612 -2.5547 -1.7246 -2.1643
  695MOL0     H95883  12.908   8.672   1.764 -0.9466  1.6499  0.1056
  695MOL0     H95884  13.008   8.679   1.481 -0.3603  1.5346 -0.0696
  695MOL0     H95885  13.097   8.616   1.626  1.5491 -0.7192 -1.3105
  695MOL0     H95886  13.094   8.849   1.711  0.9867  0.8783 -0.0138
  695MOL0     H95887  13.006   8.905   1.564 -0.0201  0.8420  0.8989
  695MOL0     H95888  13.196   8.830   1.422  0.0301  2.2387 -1.2896
  695MOL0     H95889  13.276   8.799   1.569 -1.2845  1.2881  1.6891
  695MOL0     H95890  12.189   8.441   1.651 -0.9550 -0.9040  0.4330
  695MOL0     H95891  11.953   8.486   1.550  0.1848 -2.3420  0.9174
  695MOL0     H95892  11.828   8.410   1.071 -0.7900 -1.2890  1.4158
  695MOL0     H95893  11.632   8.391   0.901  1.0112 -0.2489 -1.3048
  695MOL0     H95894   9.552   8.291   1.186 -0.3566 -1.9966  3.5564
  695MOL0     H95895   9.417   8.322   1.374  0.7029 -0.6554 -1.4548
  695MOL0     H95896   8.982   8.423   1.528 -0.3582  1.3327 -0.1344
  695MOL0     H95897   8.818   8.489   1.687  0.8648 -2.8792  0.7879
  695MOL0     H95898   8.692   8.632   2.018 -0.6671 -1.7583  0.8610
  695MOL0     H95899   8.692   8.608   1.847  0.2507  1.6763  0.3838
  695MOL0     H95900   8.799   8.430   2.057 -1.9865  0.0502  1.9336
  695MOL0     H95901   8.773   8.373   1.880 -1.7592 -2.3722  0.5550
  695MOL0     H95902   8.565   8.410   2.111  0.8266 -0.9079  0.0430
  695MOL0     H95903   8.521   8.387   1.941 -1.8031  2.6409  0.2785
  695MOL0     H95904   8.668   8.176   1.960 -0.6980  0.1211  0.1771
  695MOL0     H95905   8.509   8.182   2.049 -1.2075  2.4456 -0.6366
  695MOL0     H95906   8.817   8.131   2.349  0.9904 -1.1316 -1.7554
  695MOL0     H95907   9.097   8.724   1.893  1.1740  1.7572 -1.5036
  695MOL0     H95908   9.263   8.834   1.753 -1.2072 -1.9566  1.1235
  695MOL0     H95909   9.359   8.693   1.701 -0.3848  1.0120  1.0946
  695MOL0     H95910   9.296   8.804   1.585  2.2489  0.5674  0.5801
  696MOL0     O95911   5.916   6.430   9.580  0.2974 -0.0706 -1.0378
  696MOL0     C95912   5.867   6.499   9.488  0.3342 -0.5436  0.0085
  696MOL0     O95913   5.938   6.584   9.406  1.0599  0.2339 -0.6097
  696MOL0     C95914   6.075   6.582   9.415 -0.0391  0.1037 -0.8145
  696MOL0     C95915   6.141   6.697   9.437  0.6198 -0.8944 -0.4584
  696MOL0     C95916   6.275   6.701   9.441 -0.1564 -0.4157  0.2964
  696MOL0     C95917   6.349   6.590   9.408 -1.1344  1.1399  0.4465
  696MOL0     O95918   6.485   6.602   9.385 -0.2565 -0.4201  0.3473
  696MOL0     C95919   6.548   6.547   9.274  0.4138 -0.7451 -0.0428
  696MOL0     C95920   6.495   6.614   9.140 -0.1500 -0.2582  0.4962
  696MOL0     C95921   6.576   6.558   9.019 -1.0283 -0.0659  0.1320
  696MOL0     C95922   6.713   6.632   9.009  0.0454 -0.1935  0.3608
  696MOL0     C95923   6.797   6.553   8.918 -0.6338 -0.3851  0.3382
  696MOL0     C95924   6.947   6.545   8.957 -0.0198  0.1262 -0.1820
  696MOL0     C95925   7.002   6.406   8.903  0.3305 -1.1246 -0.6275
  696MOL0     C95926   7.143   6.376   8.928 -0.4733 -0.0247 -0.1943
  696MOL0     N95927   7.230   6.482   8.873  0.5817 -0.2460 -0.1784
  696MOL0     C95928   7.302   6.582   8.937 -0.7689 -0.8195  0.8676
  696MOL0     C95929   7.363   6.650   8.840  0.3147 -0.8178  0.9444
  696MOL0     C95930   7.468   6.761   8.852 -1.0209  0.6854  0.1409
  696MOL0     C95931   7.589   6.727   8.949 -0.4453 -0.1559  0.6020
  696MOL0     C95932   7.688   6.834   8.927  0.1286 -1.1666 -0.1088
  696MOL0     C95933   7.814   6.811   9.003 -0.2985 -1.1680  0.4602
  696MOL0     O95934   7.790   6.780   9.139  0.1113 -0.1363  0.2171
  696MOL0     C95935   7.893   6.759   9.226  0.1657 -0.4303 -0.6978
  696MOL0     C95936   7.858   6.694   9.347 -0.1676  0.1804  0.7709
  696MOL0     C95937   7.951   6.658   9.447 -1.3025  0.3787  0.4836
  696MOL0     C95938   7.901   6.602   9.582 -0.2322  0.2684 -0.4901
  696MOL0     C95939   8.095   6.690   9.420  0.9151  0.3649  0.1440
  696MOL0     C95940   8.212   6.657   9.508  0.2906 -0.4574 -0.5816
  696MOL0     O95941   8.323   6.742   9.493 -0.0818  0.0648 -0.8900
  696MOL0     C95942   8.430   6.697   9.560  0.8495 -0.2279  0.9150
  696MOL0     C95943   8.444   6.674   9.696 -0.2930  0.3966 -0.0044
  696MOL0     C95944   8.562   6.621   9.739 -0.7388 -1.2369 -0.0191
  696MOL0     C95945   8.672   6.591   9.654  0.3071  0.0676  0.8062
  696MOL0     O95946   8.797   6.541   9.691 -0.1208 -0.2683 -0.0498
  696MOL0     C95947   8.810   6.488   9.815 -0.0940 -0.4989 -0.4364
  696MOL0     C95948   8.853   6.598   9.906  0.4282  0.4200 -0.2656
  696MOL0     C95949   8.943   6.549  10.015 -0.0961  0.5431 -0.0396
  696MOL0     C95950   9.074   6.463   9.994  1.0729  0.1426  0.4240
  696MOL0     C95951   9.151   6.452  10.119 -0.0665 -0.3273 -0.1291
  696MOL0     C95952   9.281   6.362  10.085 -0.4141  0.6397 -0.1237
  696MOL0     C95953   9.380   6.342  10.203  0.3101 -0.8617 -0.2467
  696MOL0     C95954   9.471   6.456  10.241  1.1066 -0.1342 -0.5246
  696MOL0    Cl95955   9.590   6.382  10.351  0.0540  0.0651 -0.0395
  696MOL0     C95956   8.657   6.616   9.518 -0.2522 -0.3208  0.0288
  696MOL0     C95957   8.539   6.675   9.474  0.5398  0.1866  0.0067
  696MOL0     O95958   8.203   6.547   9.564 -0.1518  0.3487 -0.0208
  696MOL0     C95959   8.125   6.759   9.302  1.1528  0.5748  0.5631
  696MOL0     C95960   8.026   6.789   9.209  0.1882 -0.6609 -0.6610
  696MOL0     N95961   7.337   6.586   8.721  0.6217 -0.3013  0.1819
  696MOL0     N95962   7.253   6.484   8.735 -0.2228 -1.1441  0.0197
  696MOL0     C95963   6.285   6.465   9.386 -0.3522  0.3338  0.0811
  696MOL0     C95964   6.150   6.464   9.391 -0.5098 -0.1599 -0.0236
  696MOL0     C95965   5.714   6.501   9.465 -0.7707  0.8703 -0.2219
  696MOL0     C95966   5.651   6.587   9.370 -0.2783 -0.0103 -0.0515
  696MOL0     C95967   5.514   6.593   9.359 -0.2542 -0.0660  0.5127
  696MOL0     C95968   5.426   6.517   9.428  0.3564  0.5515  0.5519
  696MOL0     O95969   5.290   6.506   9.416  0.0081 -0.6212  0.4258
  696MOL0     C95970   5.237   6.570   9.306 -0.1177 -0.6267 -0.4620
  696MOL0     C95971   5.087   6.536   9.307  0.2301 -0.1748 -0.0783
  696MOL0     C95972   5.023   6.621   9.413 -0.1526  0.3167  0.1393
  696MOL0     C95973   4.871   6.604   9.423 -0.3047  1.1589 -0.4386
  696MOL0     C95974   4.794   6.622   9.298  1.5597 -0.4847 -0.1238
  696MOL0     C95975   4.724   6.645   9.203 -0.0127  0.8309  0.3453
  696MOL0     C95976   5.481   6.422   9.511 -0.5941 -0.9853  0.3386
  696MOL0     C95977   5.623   6.412   9.529  0.0778  0.2898  0.8670
  696MOL0     C95978   5.668   6.290   9.606 -0.6758 -0.1570  0.0492
  696MOL0     H95979   6.083   6.787   9.456  2.7626 -0.0926  3.3092
  696MOL0     H95980   6.321   6.797   9.463 -0.9104  0.3221 -1.1555
  696MOL0     H95981   6.525   6.441   9.266  1.0545 -0.8082 -1.5496
  696MOL0     H95982   6.657   6.548   9.285  0.3431  1.0408  0.8077
  696MOL0     H95983   6.390   6.594   9.121  0.0330 -2.1430  1.2334
  696MOL0     H95984   6.515   6.721   9.152 -1.6871 -0.0739  1.6231
  696MOL0     H95985   6.594   6.451   9.032  0.3780  0.0205 -0.8354
  696MOL0     H95986   6.518   6.572   8.928 -1.6999  1.7573  0.7860
  696MOL0     H95987   6.699   6.733   8.971  0.1994  0.3587  1.7222
  696MOL0     H95988   6.762   6.639   9.107  2.6154 -2.4357 -0.6158
  696MOL0     H95989   6.789   6.591   8.816  0.7219 -0.5004  0.1695
  696MOL0     H95990   6.751   6.454   8.904  0.2124 -1.2810  3.2369
  696MOL0     H95991   6.999   6.632   8.916 -0.9363  0.3138 -0.9744
  696MOL0     H95992   6.961   6.538   9.066  0.6664 -0.4160 -0.2965
  696MOL0     H95993   6.987   6.411   8.794 -0.9710 -0.1109 -0.4293
  696MOL0     H95994   6.930   6.333   8.942 -1.7572  1.2220  0.1642
  696MOL0     H95995   7.153   6.382   9.037  0.9169  3.0210 -0.3883
  696MOL0     H95996   7.166   6.277   8.889 -2.0099 -0.1183 -0.9174
  696MOL0     H95997   7.305   6.612   9.041 -1.1096  0.8095  0.4526
  696MOL0     H95998   7.420   6.855   8.884 -0.2311  0.4483  2.1528
  696MOL0     H95999   7.511   6.774   8.752  0.0151  1.6616  0.6979
  696MOL0     H96000   7.558   6.730   9.054 -0.4490  0.0910  0.5936
  696MOL0     H96001   7.629   6.629   8.919  2.2210  0.9609  0.2318
  696MOL0     H96002   7.723   6.842   8.824  0.2692 -0.7593 -0.0307
  696MOL0     H96003   7.649   6.934   8.948  1.7327 -0.3309 -0.9882
  696MOL0     H96004   7.871   6.730   8.958 -0.3996 -0.7826 -0.3690
  696MOL0     H96005   7.864   6.909   8.999  0.0495 -1.3719 -0.2733
  696MOL0     H96006   7.754   6.667   9.360  0.1298 -0.6027  1.6648
  696MOL0     H96007   7.916   6.495   9.597  0.3583  0.1459 -1.8114
  696MOL0     H96008   7.792   6.612   9.587 -0.2031 -0.0289  1.3719
  696MOL0     H96009   7.947   6.653   9.666 -0.5894  1.1099 -0.7919
  696MOL0     H96010   8.365   6.679   9.771  0.9817 -1.4193  1.5853
  696MOL0     H96011   8.566   6.616   9.847 -0.2332  3.7644  0.4158
  696MOL0     H96012   8.725   6.435   9.857  0.2407 -1.5848 -1.1033
  696MOL0     H96013   8.895   6.419   9.814  0.7561  0.4956 -0.1001
  696MOL0     H96014   8.891   6.685   9.852  1.1033  0.5217  0.3616
  696MOL0     H96015   8.760   6.635   9.949  0.7583  1.7266 -0.6412
  696MOL0     H96016   8.888   6.500  10.096 -1.6977 -1.7415 -2.3424
  696MOL0     H96017   8.976   6.648  10.050 -3.0296  0.1015  4.9048
  696MOL0     H96018   9.131   6.512   9.915 -0.5240  3.1031  0.9825
  696MOL0     H96019   9.046   6.363   9.959  1.6546  0.6611 -1.6409
  696MOL0     H96020   9.182   6.552  10.154  1.8629  0.9174 -4.6927
  696MOL0     H96021   9.084   6.411  10.195 -1.0236  2.6316  0.7566
  696MOL0     H96022   9.333   6.407  10.000  1.9895 -0.6359  0.5728
  696MOL0     H96023   9.261   6.261  10.048 -0.3574  2.1242 -4.9418
  696MOL0     H96024   9.449   6.266  10.167  1.2082 -0.1274 -0.1178
  696MOL0     H96025   9.321   6.299  10.285  0.8581 -2.6214 -0.7404
  696MOL0     H96026   9.409   6.522  10.301 -0.3967 -0.6425 -1.4732
  696MOL0     H96027   9.530   6.516  10.171  1.1848 -0.6216 -0.8816
  696MOL0     H96028   8.739   6.606   9.448  0.3185  2.7214  0.1143
  696MOL0     H96029   8.537   6.716   9.373 -1.5021 -0.0362 -0.0801
  696MOL0     H96030   8.225   6.796   9.280  1.0315 -0.4598 -2.1701
  696MOL0     H96031   8.065   6.840   9.121 -0.0425  1.0762  0.2152
  696MOL0     H96032   6.338   6.373   9.364 -1.0772 -0.1639  0.4017
  696MOL0     H96033   6.094   6.373   9.371  0.2213 -0.8497  0.9841
  696MOL0     H96034   5.717   6.651   9.312  1.6534 -0.8396  1.1450
  696MOL0     H96035   5.465   6.668   9.297 -2.6656  2.0909  4.5986
  696MOL0     H96036   5.249   6.679   9.316  0.5055 -0.8760  2.2939
  696MOL0     H96037   5.283   6.535   9.213 -2.9287  0.0450 -2.2235
  696MOL0     H96038   5.084   6.429   9.330  0.9996 -0.4409 -1.1558
  696MOL0     H96039   5.039   6.557   9.211 -1.3788  1.4721  1.0221
  696MOL0     H96040   5.073   6.604   9.509  1.3340 -1.0953 -0.8360
  696MOL0     H96041   5.044   6.727   9.394  1.4158 -0.3618 -2.2437
  696MOL0     H96042   4.828   6.678   9.491  0.3984  0.2574  1.0327
  696MOL0     H96043   4.847   6.509   9.472 -1.9639  0.8883 -1.6753
  696MOL0     H96044   4.661   6.679   9.123  0.7214 -0.7808 -0.9872
  696MOL0     H96045   5.405   6.360   9.557 -3.8718  2.7493  0.5517
  696MOL0     H96046   5.580   6.234   9.640 -0.8749 -0.1207 -0.4061
  696MOL0     H96047   5.724   6.217   9.547  1.6200  1.4088  0.1842
  696MOL0     H96048   5.731   6.304   9.694  0.6082  0.6093 -0.9565
  697MOL0     O96049   1.210   3.248   6.673 -0.3085 -0.0051  0.2002
  697MOL0     C96050   1.170   3.245   6.557  1.2188  0.2749 -0.1777
  697MOL0     O96051   1.214   3.319   6.458  0.2539 -0.1853  0.2793
  697MOL0     C96052   1.308   3.411   6.494  0.2423 -0.0646  0.8799
  697MOL0     C96053   1.269   3.531   6.551  0.3923  0.2118  0.3842
  697MOL0     C96054   1.366   3.615   6.603  0.1780  0.4282 -0.3931
  697MOL0     C96055   1.501   3.584   6.601  0.5110 -0.7727 -0.0346
  697MOL0     O96056   1.589   3.675   6.655  0.0886  0.0449 -0.2617
  697MOL0     C96057   1.729   3.643   6.650 -0.0129  0.3555  0.4494
  697MOL0     C96058   1.807   3.770   6.695  0.3968 -0.0966  0.4460
  697MOL0     C96059   1.950   3.732   6.734 -0.2633 -1.2158 -0.4550
  697MOL0     C96060   2.034   3.683   6.610  0.6721 -0.4291 -0.2041
  697MOL0     C96061   2.166   3.637   6.656 -0.5797  0.2810 -0.1588
  697MOL0     C96062   2.228   3.582   6.526 -0.4099  1.4981  0.7627
  697MOL0     C96063   2.303   3.689   6.454  0.7106  0.0979  0.1374
  697MOL0     C96064   2.373   3.630   6.328  0.3143  0.4141 -0.5368
  697MOL0     N96065   2.455   3.732   6.266 -0.3742  0.0957 -0.3687
  697MOL0     C96066   2.418   3.860   6.226  0.8549 -0.4184  0.2869
  697MOL0     C96067   2.531   3.931   6.209  0.2124 -0.2429 -0.0878
  697MOL0     C96068   2.535   4.087   6.186 -0.5488  0.3576 -0.1282
  697MOL0     C96069   2.655   4.127   6.091  0.3072  0.6818 -0.3420
  697MOL0     C96070   2.790   4.123   6.164  0.4311 -0.2760  0.4478
  697MOL0     C96071   2.831   4.263   6.208  0.6701  0.2011  0.5945
  697MOL0     O96072   2.841   4.352   6.098  0.0357 -0.3780  0.7115
  697MOL0     C96073   2.908   4.467   6.127 -0.4183  0.2422 -0.6951
  697MOL0     C96074   2.934   4.545   6.022  0.3591  0.4264  0.2045
  697MOL0     C96075   3.000   4.668   6.036  1.3658  0.4694 -0.2373
  697MOL0     C96076   3.017   4.746   5.899 -0.1343  0.4418 -0.0035
  697MOL0     C96077   3.061   4.709   6.161  0.2266  0.0217  0.7621
  697MOL0     C96078   3.156   4.823   6.175  0.7916  1.2541 -0.0962
  697MOL0     O96079   3.175   4.863   6.306 -0.3162  0.0116 -0.1074
  697MOL0     C96080   3.266   4.955   6.348  0.0935 -0.1678 -0.4281
  697MOL0     C96081   3.385   4.973   6.279 -0.3802  0.4582 -0.0902
  697MOL0     C96082   3.479   5.062   6.315 -0.8888  0.1496 -0.2857
  697MOL0     C96083   3.449   5.146   6.419  0.3050 -0.8199 -0.1005
  697MOL0     O96084   3.540   5.243   6.452 -0.7935  0.4568  0.7532
  697MOL0     C96085   3.510   5.371   6.517 -0.4760  0.0794  0.3019
  697MOL0     C96086   3.641   5.445   6.514 -0.0020 -0.1305  0.3589
  697MOL0     C96087   3.643   5.546   6.635 -0.7248 -0.1899 -0.0910
  697MOL0     C96088   3.789   5.600   6.670  0.2613 -0.3582  0.8245
  697MOL0     C96089   3.795   5.666   6.804  0.3495 -0.6362 -0.6624
  697MOL0     C96090   3.903   5.775   6.811  0.4391  0.2379  0.9354
  697MOL0     C96091   3.910   5.839   6.956 -0.1967 -0.2948 -0.0047
  697MOL0     C96092   4.011   5.948   6.954 -0.2171 -0.1412 -0.2394
  697MOL0    Cl96093   4.039   6.020   7.113 -0.1461 -0.1979 -0.1574
  697MOL0     C96094   3.329   5.133   6.488  0.0934  0.6251  0.3078
  697MOL0     C96095   3.236   5.038   6.461 -0.1544  0.7662  0.2911
  697MOL0     O96096   3.214   4.861   6.078  0.1739 -0.2777 -0.1438
  697MOL0     C96097   3.027   4.632   6.272  0.5974  0.9445 -0.3656
  697MOL0     C96098   2.955   4.515   6.254  0.5626  0.5623 -0.2301
  697MOL0     N96099   2.637   3.842   6.227 -0.4079 -0.3227  0.0239
  697MOL0     N96100   2.593   3.725   6.254  0.2016 -0.5547 -0.1065
  697MOL0     C96101   1.536   3.477   6.522  0.0386  0.2738  0.0554
  697MOL0     C96102   1.441   3.392   6.471 -0.2718 -0.5603  0.8638
  697MOL0     C96103   1.048   3.148   6.541 -0.1240 -0.1563 -0.1251
  697MOL0     C96104   1.046   3.029   6.607 -0.6895 -0.2338 -0.2979
  697MOL0     C96105   0.943   2.938   6.604  0.3564 -0.0697  0.5514
  697MOL0     C96106   0.820   2.977   6.533 -0.1214 -0.6159  0.4279
  697MOL0     O96107   0.709   2.900   6.526 -0.5389 -0.4524  0.3704
  697MOL0     C96108   0.699   2.775   6.595  1.2571  0.2161 -0.2286
  697MOL0     C96109   0.560   2.723   6.575  0.8804  0.7318  0.8437
  697MOL0     C96110   0.444   2.818   6.600 -0.1714 -0.6937  0.5851
  697MOL0     C96111   0.320   2.749   6.660  0.6421 -1.2469 -0.5294
  697MOL0     C96112   0.203   2.845   6.669 -0.0656  0.1389  0.1428
  697MOL0     C96113   0.105   2.924   6.669 -0.9555 -0.7319 -0.3190
  697MOL0     C96114   0.815   3.097   6.465  0.1829 -1.2337  0.4624
  697MOL0     C96115   0.931   3.188   6.471  0.5708 -0.4085 -0.3619
  697MOL0     C96116   0.919   3.321   6.397 -0.0501  0.2952  0.1438
  697MOL0     H96117   1.163   3.543   6.574 -0.1897  0.4187 -2.1328
  697MOL0     H96118   1.325   3.704   6.650  2.5047  0.7486  1.2198
  697MOL0     H96119   1.770   3.629   6.549  2.6641  1.0589  1.3623
  697MOL0     H96120   1.753   3.553   6.707  0.7065 -0.4109 -0.9967
  697MOL0     H96121   1.825   3.838   6.612  2.4148  0.3501  1.1887
  697MOL0     H96122   1.759   3.825   6.776 -0.7255  0.3148 -0.4695
  697MOL0     H96123   1.992   3.825   6.774  0.8451 -1.7790 -0.2686
  697MOL0     H96124   1.938   3.648   6.802 -0.0622 -1.3817 -0.6242
  697MOL0     H96125   1.979   3.597   6.570 -1.6252  1.3166 -1.0630
  697MOL0     H96126   2.039   3.766   6.539 -1.0568  2.4931  2.7576
  697MOL0     H96127   2.161   3.554   6.728  0.6698  0.6711  0.4131
  697MOL0     H96128   2.221   3.714   6.710 -0.2169 -0.0455 -0.0499
  697MOL0     H96129   2.301   3.505   6.551  0.1463  2.1062  1.0587
  697MOL0     H96130   2.155   3.530   6.464 -0.0477 -0.1993  1.7104
  697MOL0     H96131   2.367   3.742   6.526  2.2034 -1.0734 -0.2925
  697MOL0     H96132   2.233   3.769   6.426 -1.0815 -0.7310  1.9726
  697MOL0     H96133   2.426   3.541   6.364 -0.8341 -0.3255 -0.5813
  697MOL0     H96134   2.301   3.592   6.254  0.2798 -2.7983  0.9443
  697MOL0     H96135   2.320   3.905   6.232  0.0163 -1.5923 -2.7392
  697MOL0     H96136   2.547   4.122   6.289 -0.8041 -0.3848  0.1635
  697MOL0     H96137   2.437   4.118   6.150 -1.6800 -2.2348  0.4845
  697MOL0     H96138   2.642   4.057   6.007  1.5098 -1.6632  1.2953
  697MOL0     H96139   2.628   4.228   6.061 -3.6510  0.7173  2.4552
  697MOL0     H96140   2.797   4.056   6.251  0.4026  0.1714  0.7996
  697MOL0     H96141   2.866   4.094   6.091  2.4214 -1.7614  2.9395
  697MOL0     H96142   2.752   4.293   6.278  2.1433  1.7249  1.7080
  697MOL0     H96143   2.927   4.256   6.260  0.5752  0.2828  0.7820
  697MOL0     H96144   2.895   4.519   5.924 -0.9980  1.5550  0.4210
  697MOL0     H96145   3.004   4.854   5.917  0.1178  0.4136  0.3494
  697MOL0     H96146   2.939   4.727   5.825  1.9132 -1.9223 -1.7381
  697MOL0     H96147   3.112   4.727   5.847 -1.1595 -2.8372 -0.8745
  697MOL0     H96148   3.412   4.902   6.201  2.2530 -2.3736  3.0467
  697MOL0     H96149   3.577   5.077   6.272 -1.7912  1.5241 -1.9607
  697MOL0     H96150   3.429   5.428   6.468  0.6238 -0.0351 -1.7835
  697MOL0     H96151   3.470   5.358   6.618 -1.3695 -3.3506 -0.3682
  697MOL0     H96152   3.729   5.381   6.523 -0.1389 -0.2908  0.5604
  697MOL0     H96153   3.649   5.497   6.418  0.8635  2.2630  1.6620
  697MOL0     H96154   3.607   5.499   6.727 -0.7449  1.4093  0.7529
  697MOL0     H96155   3.581   5.632   6.607 -1.2166 -0.6341 -0.3937
  697MOL0     H96156   3.831   5.662   6.590  3.0743 -1.6565  1.1652
  697MOL0     H96157   3.858   5.516   6.681  2.2534  0.9938 -0.5526
  697MOL0     H96158   3.700   5.713   6.830  0.0402 -2.5441  2.1335
  697MOL0     H96159   3.812   5.603   6.892  3.4067 -0.4055 -0.9962
  697MOL0     H96160   3.864   5.858   6.751 -2.3034 -0.0316  2.2202
  697MOL0     H96161   4.002   5.750   6.770 -0.1210  1.6319 -1.5125
  697MOL0     H96162   3.945   5.769   7.032 -1.6717 -0.6574  0.3750
  697MOL0     H96163   3.814   5.889   6.971 -0.4127 -0.0486 -1.8863
  697MOL0     H96164   3.983   6.028   6.885  1.3036  0.2682 -0.4126
  697MOL0     H96165   4.104   5.911   6.909  0.6178  1.0323  0.4656
  697MOL0     H96166   3.296   5.202   6.565  1.4946  0.7683  0.8077
  697MOL0     H96167   3.147   5.029   6.523  1.2215  1.5891  2.4895
  697MOL0     H96168   3.048   4.667   6.372  1.5249 -1.3530  0.2930
  697MOL0     H96169   2.910   4.464   6.338  0.2129 -0.1788 -0.8504
  697MOL0     H96170   1.640   3.448   6.506  0.3639  1.6308 -0.3890
  697MOL0     H96171   1.473   3.300   6.424 -1.8690  0.9336 -3.6920
  697MOL0     H96172   1.140   3.015   6.659 -2.1049  1.5757  3.0387
  697MOL0     H96173   0.952   2.853   6.671  1.2290 -0.0771  0.4341
  697MOL0     H96174   0.772   2.704   6.555  0.4383 -0.7803  0.0089
  697MOL0     H96175   0.714   2.787   6.703 -1.1107  1.7518 -0.0021
  697MOL0     H96176   0.555   2.629   6.631  0.1254 -0.6190 -1.3622
  697MOL0     H96177   0.556   2.690   6.471 -0.7349  2.6652  0.2428
  697MOL0     H96178   0.481   2.897   6.667  2.1672 -0.4303 -0.9308
  697MOL0     H96179   0.422   2.868   6.505  1.6652 -0.4057  0.2821
  697MOL0     H96180   0.340   2.706   6.758  1.0669 -2.1058 -0.9845
  697MOL0     H96181   0.282   2.667   6.599 -2.1724  0.2670 -0.9831
  697MOL0     H96182   0.034   3.002   6.653 -0.0249  0.0855 -0.5625
  697MOL0     H96183   0.722   3.135   6.425  0.3559  0.6458  1.7497
  697MOL0     H96184   0.961   3.304   6.297  0.8509 -3.3709  0.9855
  697MOL0     H96185   0.815   3.344   6.376 -0.3365 -1.2542 -0.2889
  697MOL0     H96186   0.967   3.399   6.456  1.0028 -1.2680  1.4721
  698MOL0     O96187   3.611   5.387   4.078  0.5536  0.1156 -0.0519
  698MOL0     C96188   3.597   5.502   4.084  1.4456 -1.2492  0.0484
  698MOL0     O96189   3.683   5.598   4.033 -0.2383 -0.4290  0.2075
  698MOL0     C96190   3.799   5.552   3.981  0.3417  0.2860  0.5812
  698MOL0     C96191   3.808   5.528   3.844 -0.2676  1.1241  0.9482
  698MOL0     C96192   3.932   5.473   3.789  0.4742  0.3130  0.0116
  698MOL0     C96193   4.044   5.453   3.874 -0.0577 -0.0382  0.1873
  698MOL0     O96194   4.169   5.406   3.832 -0.0397  0.1835  0.3248
  698MOL0     C96195   4.188   5.369   3.694 -0.0167 -0.5973 -0.2270
  698MOL0     C96196   4.331   5.308   3.684 -0.3201 -0.6996  0.6499
  698MOL0     C96197   4.430   5.416   3.732 -0.6373 -0.3418  0.7361
  698MOL0     C96198   4.580   5.369   3.719  0.0888 -0.4650  0.2962
  698MOL0     C96199   4.639   5.396   3.579  0.1681  0.0222  0.1690
  698MOL0     C96200   4.683   5.542   3.570  0.0795 -1.1695  0.0403
  698MOL0     C96201   4.709   5.580   3.423 -0.0992 -1.0466 -1.0170
  698MOL0     C96202   4.771   5.719   3.406  0.8324  0.2080  0.2250
  698MOL0     N96203   4.904   5.743   3.466  0.0626 -0.4909  0.3595
  698MOL0     C96204   4.925   5.775   3.601 -0.1006 -0.0109  0.8593
  698MOL0     C96205   5.051   5.814   3.606 -0.6112 -0.5222  0.3396
  698MOL0     C96206   5.122   5.873   3.725  0.2482  0.5308  0.9034
  698MOL0     C96207   5.242   5.793   3.761 -0.0985 -0.5205 -0.2952
  698MOL0     C96208   5.209   5.704   3.874  0.4629 -1.1327 -0.7718
  698MOL0     C96209   5.342   5.636   3.912 -0.0376  0.5089 -0.6039
  698MOL0     O96210   5.431   5.738   3.965 -0.8504  0.2241  0.3673
  698MOL0     C96211   5.555   5.698   4.012  0.9500  0.2306  0.3027
  698MOL0     C96212   5.602   5.738   4.136  0.2967 -0.1439 -0.2746
  698MOL0     C96213   5.730   5.689   4.182 -1.0582 -1.0817 -0.4544
  698MOL0     C96214   5.771   5.745   4.321  0.1677 -0.4076  0.1065
  698MOL0     C96215   5.814   5.607   4.109  0.4497 -1.1695  1.2275
  698MOL0     C96216   5.956   5.574   4.151  0.0585  0.6949  0.3479
  698MOL0     O96217   6.016   5.491   4.062  0.0805  0.2448 -0.0550
  698MOL0     C96218   6.155   5.480   4.078  0.6625  0.4367 -0.0898
  698MOL0     C96219   6.206   5.351   4.080  0.4249 -0.6143 -0.4124
  698MOL0     C96220   6.341   5.337   4.083  1.0155 -0.5638 -1.0130
  698MOL0     C96221   6.430   5.445   4.113 -0.8227 -0.3342  1.3450
  698MOL0     O96222   6.563   5.430   4.154 -0.1767 -0.3602 -0.1226
  698MOL0     C96223   6.631   5.312   4.122  0.1711  0.7846  0.4549
  698MOL0     C96224   6.747   5.311   4.202 -0.8274 -0.5363  0.8125
  698MOL0     C96225   6.839   5.183   4.172  0.9006  0.0552 -0.2329
  698MOL0     C96226   6.974   5.201   4.243 -0.0535  0.6047  1.1880
  698MOL0     C96227   6.957   5.163   4.387 -0.1017  0.4008 -0.7801
  698MOL0     C96228   7.088   5.154   4.463 -0.0778 -0.1280 -0.1814
  698MOL0     C96229   7.063   5.136   4.615 -0.0754 -0.1422  0.6477
  698MOL0     C96230   7.190   5.130   4.705  0.5192 -0.2206  0.3086
  698MOL0    Cl96231   7.277   5.291   4.699 -0.1678  0.0497 -0.3922
  698MOL0     C96232   6.371   5.570   4.120  0.0927  0.2477 -0.5971
  698MOL0     C96233   6.237   5.590   4.090 -1.1171  1.4324  0.1421
  698MOL0     O96234   6.003   5.602   4.262 -0.6976 -0.2395  1.0628
  698MOL0     C96235   5.753   5.559   3.984 -0.2147 -0.1214  0.1934
  698MOL0     C96236   5.632   5.608   3.939 -1.4050 -0.3481 -0.1944
  698MOL0     N96237   5.105   5.797   3.475 -1.5112 -0.4378  0.1201
  698MOL0     N96238   5.019   5.751   3.391 -0.2816 -0.0784  0.3048
  698MOL0     C96239   4.017   5.474   4.011 -0.3147 -0.3842  0.3752
  698MOL0     C96240   3.903   5.535   4.058 -0.3956  0.2163  0.8443
  698MOL0     C96241   3.476   5.559   4.147  0.5171  0.1592 -0.1875
  698MOL0     C96242   3.426   5.691   4.115 -0.2594 -0.0011 -0.2679
  698MOL0     C96243   3.310   5.753   4.168 -0.3310 -0.2831  1.1329
  698MOL0     C96244   3.248   5.686   4.269 -0.9408 -1.0581  0.8105
  698MOL0     O96245   3.134   5.755   4.311 -0.1481  0.8933 -0.9073
  698MOL0     C96246   3.052   5.718   4.422  0.4743 -0.7917  0.5674
  698MOL0     C96247   3.137   5.728   4.550 -0.1862 -0.8775 -0.3249
  698MOL0     C96248   3.156   5.872   4.607  0.4677  0.3107  0.1400
  698MOL0     C96249   3.252   5.873   4.729 -0.1277 -0.6637  0.4843
  698MOL0     C96250   3.255   6.005   4.793  0.1331  0.2666  0.2926
  698MOL0     C96251   3.260   6.124   4.838 -0.6717  1.0088 -0.6790
  698MOL0     C96252   3.290   5.560   4.314 -0.3980 -0.4547 -0.4558
  698MOL0     C96253   3.396   5.499   4.257  0.0123  0.0367  1.3045
  698MOL0     C96254   3.439   5.364   4.313 -0.1367 -0.0527 -0.3803
  698MOL0     H96255   3.732   5.545   3.767  2.1697  2.6650 -1.2843
  698MOL0     H96256   3.941   5.456   3.683 -0.1371 -0.2593  0.0437
  698MOL0     H96257   4.180   5.456   3.629 -3.5834 -0.2172  0.5070
  698MOL0     H96258   4.113   5.296   3.662  1.1456 -1.1266 -1.8507
  698MOL0     H96259   4.336   5.218   3.747 -2.5024 -0.5248  1.1385
  698MOL0     H96260   4.366   5.282   3.583  1.4251  2.2475  0.3963
  698MOL0     H96261   4.421   5.510   3.677  1.0402 -0.6141 -0.0634
  698MOL0     H96262   4.421   5.439   3.839 -1.2543  1.3476  0.3420
  698MOL0     H96263   4.642   5.424   3.791 -1.2018 -2.1001  2.7777
  698MOL0     H96264   4.585   5.262   3.741 -1.0712 -1.6183 -4.1002
  698MOL0     H96265   4.560   5.375   3.506 -0.3314  1.3727  0.2957
  698MOL0     H96266   4.722   5.330   3.555 -0.9349 -1.9215  1.3437
  698MOL0     H96267   4.599   5.600   3.610 -1.1494 -0.1545 -3.6387
  698MOL0     H96268   4.770   5.566   3.632 -1.2527  1.2938  1.1377
  698MOL0     H96269   4.613   5.574   3.371 -0.5772 -0.9620 -0.1653
  698MOL0     H96270   4.778   5.502   3.390  1.8091 -0.0290  0.3472
  698MOL0     H96271   4.787   5.745   3.301  0.3725  0.4838  0.2202
  698MOL0     H96272   4.695   5.780   3.455  0.0062 -0.1154 -0.6297
  698MOL0     H96273   4.844   5.780   3.672 -0.0392  2.6066  0.8482
  698MOL0     H96274   5.050   5.895   3.804  0.7079  1.3788  1.0997
  698MOL0     H96275   5.152   5.974   3.694 -2.9595  1.0207 -1.0672
  698MOL0     H96276   5.279   5.739   3.674  1.5719  1.1586 -0.7052
  698MOL0     H96277   5.321   5.861   3.794  0.1099 -1.5953  1.5941
  698MOL0     H96278   5.168   5.760   3.959  1.7428  0.1064 -0.9159
  698MOL0     H96279   5.133   5.634   3.838 -2.6600  0.3546  2.3600
  698MOL0     H96280   5.319   5.555   3.983  2.1503 -1.1565 -1.6563
  698MOL0     H96281   5.384   5.585   3.825  1.0664  1.2490 -0.5212
  698MOL0     H96282   5.543   5.801   4.202  2.6992  0.9515  0.9657
  698MOL0     H96283   5.835   5.829   4.294  0.7562 -1.3553 -1.6314
  698MOL0     H96284   5.814   5.670   4.388 -2.0261  0.5777  2.7967
  698MOL0     H96285   5.686   5.784   4.378  1.0025 -1.1741  1.9592
  698MOL0     H96286   6.132   5.272   4.077 -0.4384  0.1318  0.4845
  698MOL0     H96287   6.375   5.234   4.082 -2.5931 -1.9951  1.9022
  698MOL0     H96288   6.577   5.219   4.140 -0.6624  1.7610  3.7356
  698MOL0     H96289   6.667   5.325   4.020 -0.2506  3.7408  0.5953
  698MOL0     H96290   6.808   5.401   4.188  0.9459 -1.7258  0.4681
  698MOL0     H96291   6.722   5.312   4.308 -0.7567  2.9313  0.9087
  698MOL0     H96292   6.856   5.186   4.064 -0.1740  1.4827 -0.3881
  698MOL0     H96293   6.792   5.092   4.210  3.5103 -1.2522  0.0348
  698MOL0     H96294   7.016   5.302   4.240  2.9165 -0.5218  1.9192
  698MOL0     H96295   7.045   5.129   4.200 -1.1807  0.1747 -0.0542
  698MOL0     H96296   6.903   5.250   4.424 -1.7721 -1.3555  1.1545
  698MOL0     H96297   6.901   5.072   4.411  1.0634  0.1471  1.2116
  698MOL0     H96298   7.149   5.243   4.445  1.5735 -0.9318  1.2280
  698MOL0     H96299   7.152   5.073   4.428 -0.3588 -0.4324  0.0098
  698MOL0     H96300   7.007   5.044   4.634 -1.1256  0.4819  0.6464
  698MOL0     H96301   7.002   5.218   4.653 -1.1647 -0.5442 -0.1906
  698MOL0     H96302   7.260   5.051   4.674 -2.3812 -2.4375 -1.1309
  698MOL0     H96303   7.168   5.110   4.810  1.3894  0.6906  0.6723
  698MOL0     H96304   6.431   5.654   4.155  1.6940 -0.9046 -0.4742
  698MOL0     H96305   6.184   5.684   4.083  0.6689  2.5529  0.9295
  698MOL0     H96306   5.809   5.493   3.919 -0.5653 -0.6785  0.4553
  698MOL0     H96307   5.591   5.559   3.851 -1.6739  0.0661 -0.2979
  698MOL0     H96308   4.095   5.455   4.084 -0.0852  1.4858  0.6718
  698MOL0     H96309   3.893   5.574   4.159  1.5297  0.7946  0.8598
  698MOL0     H96310   3.482   5.755   4.048  0.8537  0.4981  1.1048
  698MOL0     H96311   3.284   5.854   4.137  1.8246 -0.9820 -3.9962
  698MOL0     H96312   2.961   5.776   4.438  3.1264  3.6288  1.1834
  698MOL0     H96313   3.027   5.614   4.400 -1.6457 -0.0053 -1.0449
  698MOL0     H96314   3.226   5.672   4.522 -1.3634 -3.3511  0.5289
  698MOL0     H96315   3.084   5.676   4.631 -0.9445  0.9134  0.3750
  698MOL0     H96316   3.194   5.923   4.518 -1.5567 -0.5411 -1.2876
  698MOL0     H96317   3.057   5.911   4.631  0.7846 -0.1921  2.4669
  698MOL0     H96318   3.354   5.842   4.702  0.1080  0.4461  0.0457
  698MOL0     H96319   3.210   5.809   4.807  0.4663 -1.7075 -0.0160
  698MOL0     H96320   3.267   6.223   4.877 -0.7206  0.8446 -0.2461
  698MOL0     H96321   3.222   5.496   4.369 -0.6714 -2.4747 -2.9527
  698MOL0     H96322   3.508   5.376   4.397 -1.7323  0.2617  0.9266
  698MOL0     H96323   3.352   5.314   4.358 -0.1911  1.1904  0.9549
  698MOL0     H96324   3.474   5.283   4.248 -0.5658 -1.2497  0.8263
  699MOL0     O96325  10.199   7.936   2.633 -0.5431  0.1867  0.5973
  699MOL0     C96326  10.153   7.823   2.632  1.0383  0.6933  0.9914
  699MOL0     O96327  10.227   7.710   2.651  1.0785 -0.2575  0.4671
  699MOL0     C96328  10.351   7.704   2.598  0.5297 -0.3838 -0.0240
  699MOL0     C96329  10.462   7.747   2.671 -0.0341 -0.6088  0.7058
  699MOL0     C96330  10.586   7.706   2.624  0.3294  0.0905 -0.5048
  699MOL0     C96331  10.612   7.643   2.495  0.8586 -0.4594 -0.4939
  699MOL0     O96332  10.736   7.611   2.451 -0.7449 -0.3340 -0.0164
  699MOL0     C96333  10.800   7.691   2.354  0.7478 -0.2344  0.4246
  699MOL0     C96334  10.943   7.644   2.330 -0.9133 -0.8757  0.4222
  699MOL0     C96335  11.031   7.671   2.459 -0.1554 -0.3391  0.0367
  699MOL0     C96336  11.173   7.714   2.414  0.8374  0.0935  0.6724
  699MOL0     C96337  11.297   7.676   2.496  0.8391  0.3194  0.8621
  699MOL0     C96338  11.336   7.536   2.458  0.0905  1.0291  0.1585
  699MOL0     C96339  11.446   7.505   2.557  0.3034 -0.6810  0.5364
  699MOL0     C96340  11.536   7.392   2.511 -0.3527 -0.5513  0.0064
  699MOL0     N96341  11.640   7.439   2.414  0.3174  0.6177  0.4838
  699MOL0     C96342  11.679   7.570   2.402 -1.0478 -0.5945 -0.2121
  699MOL0     C96343  11.759   7.565   2.293 -0.2300  0.1305 -0.1701
  699MOL0     C96344  11.828   7.681   2.223  0.1368 -0.3273 -0.4143
  699MOL0     C96345  11.971   7.673   2.259  0.1993  0.6378 -0.2183
  699MOL0     C96346  12.045   7.559   2.195  0.2268 -0.0472 -0.1276
  699MOL0     C96347  12.193   7.598   2.195 -0.3617  0.4603 -0.4128
  699MOL0     O96348  12.215   7.688   2.088 -0.3590 -0.5551 -0.3929
  699MOL0     C96349  12.345   7.717   2.053 -0.3483  1.3130 -0.3326
  699MOL0     C96350  12.467   7.679   2.119 -0.2326 -0.2153 -0.2462
  699MOL0     C96351  12.597   7.715   2.064  0.5392 -0.2399  0.4572
  699MOL0     C96352  12.719   7.669   2.129 -0.5339  0.1151  0.2162
  699MOL0     C96353  12.601   7.787   1.939  0.3097  0.1264  0.0841
  699MOL0     C96354  12.725   7.848   1.878 -0.7921  0.7108 -0.5033
  699MOL0     O96355  12.711   7.908   1.760  0.0738  0.1581  0.8091
  699MOL0     C96356  12.820   7.987   1.716  0.1505  0.3982  0.4832
  699MOL0     C96357  12.898   7.937   1.607  0.0699 -0.1378 -0.7359
  699MOL0     C96358  13.019   8.005   1.561 -0.4118  0.5439  0.0703
  699MOL0     C96359  13.048   8.128   1.615 -0.8761  0.4021  0.6425
  699MOL0     O96360  13.161   8.183   1.561  0.2325  0.3741  0.3655
  699MOL0     C96361  13.171   8.329   1.577  0.1389  0.6970  0.2226
  699MOL0     C96362  13.278   8.378   1.481 -0.4450  1.0555  0.6428
  699MOL0     C96363  13.256   8.346   1.327 -0.4833  0.2166 -0.2262
  699MOL0     C96364  13.109   8.395   1.300 -0.2688 -0.5966  1.0678
  699MOL0     C96365  13.094   8.423   1.150  0.0592 -0.6381 -0.2859
  699MOL0     C96366  12.957   8.487   1.112 -0.2011  0.4624 -0.2240
  699MOL0     C96367  12.837   8.447   1.205  0.5028  0.2051 -0.3065
  699MOL0     C96368  12.703   8.468   1.137  0.4710 -0.0723 -0.1443
  699MOL0    Cl96369  12.633   8.632   1.205  0.0531  0.1371 -0.0636
  699MOL0     C96370  12.973   8.180   1.719  0.6534 -0.5827 -0.5421
  699MOL0     C96371  12.856   8.114   1.764 -0.0241  0.1940  1.4249
  699MOL0     O96372  12.826   7.859   1.945 -1.1943 -0.0605 -0.0007
  699MOL0     C96373  12.480   7.810   1.875  0.0359 -0.2997 -0.2091
  699MOL0     C96374  12.357   7.781   1.928 -0.0140 -0.6456  0.4891
  699MOL0     N96375  11.761   7.441   2.238  0.7780  0.4598 -0.0864
  699MOL0     N96376  11.688   7.361   2.314  0.0960 -0.5051  0.4720
  699MOL0     C96377  10.501   7.601   2.422 -0.4744 -0.2516 -0.1488
  699MOL0     C96378  10.371   7.632   2.476  0.3811 -1.0041 -0.1251
  699MOL0     C96379  10.013   7.803   2.634 -0.1636  0.2143  0.5084
  699MOL0     C96380   9.892   7.974   2.622  0.0517 -0.4983 -0.3340
  699MOL0     C96381   9.681   7.951   2.603  0.1391 -0.5408  0.4443
  699MOL0     C96382   9.595   7.757   2.592  0.4440 -0.2037  0.3458
  699MOL0     O96383   9.465   7.739   2.582  0.0638  0.3501  0.0074
  699MOL0     C96384   9.369   7.852   2.593 -0.5005 -0.1794 -0.8080
  699MOL0     C96385   9.332   7.871   2.740  0.0348 -0.7953 -1.1701
  699MOL0     C96386   9.254   8.000   2.757  0.1298 -0.6768  0.6214
  699MOL0     C96387   9.195   8.015   2.898 -1.0417  0.9154  0.1135
  699MOL0     C96388   9.090   7.916   2.924  0.0695  0.9348  0.1580
  699MOL0     C96389   9.002   7.828   2.938 -0.4043 -0.6210  0.5598
  699MOL0     C96390   9.718   7.588   2.601  0.1790  0.2398 -0.1504
  699MOL0     C96391   9.927   7.607   2.623 -0.0011 -0.2401 -0.3499
  699MOL0     C96392  10.022   7.487   2.628  0.4051  0.5369  0.1502
  699MOL0     H96393  10.455   7.805   2.763 -0.3688  0.2346  0.1588
  699MOL0     H96394  10.671   7.744   2.679 -0.0836  1.9536 -1.0844
  699MOL0     H96395  10.799   7.795   2.388 -1.9033 -0.2483  0.5936
  699MOL0     H96396  10.752   7.675   2.257  0.7912  0.0176  0.3584
  699MOL0     H96397  10.958   7.542   2.295  1.1124 -0.5898  0.3748
  699MOL0     H96398  10.986   7.704   2.250  0.8341 -2.7068 -0.0866
  699MOL0     H96399  10.990   7.755   2.516  2.4855  0.6046  0.6965
  699MOL0     H96400  11.038   7.589   2.531 -0.1201 -1.9831 -1.7723
  699MOL0     H96401  11.183   7.679   2.311 -0.1885 -0.4414  0.7363
  699MOL0     H96402  11.157   7.822   2.412 -4.7628  0.0300  6.4513
  699MOL0     H96403  11.275   7.674   2.603  1.8904  2.3983  1.1760
  699MOL0     H96404  11.376   7.750   2.483  0.9610  0.0452 -0.0612
  699MOL0     H96405  11.256   7.462   2.455  2.7325 -2.1279  1.5264
  699MOL0     H96406  11.392   7.532   2.364 -0.7534 -0.5226 -0.3182
  699MOL0     H96407  11.404   7.476   2.653 -0.6800 -0.2251  0.2611
  699MOL0     H96408  11.498   7.591   2.599  0.7213 -1.3348  1.3748
  699MOL0     H96409  11.590   7.360   2.600  0.8646 -0.6238 -0.7475
  699MOL0     H96410  11.478   7.305   2.480  1.7946 -1.5232 -1.4855
  699MOL0     H96411  11.655   7.653   2.468  3.5325  0.5648  0.3169
  699MOL0     H96412  11.795   7.778   2.261 -0.4027 -0.8415  0.4722
  699MOL0     H96413  11.812   7.670   2.116 -0.6495 -4.5149 -0.0129
  699MOL0     H96414  12.022   7.755   2.208  3.4814 -1.6919 -1.0591
  699MOL0     H96415  11.983   7.696   2.366 -1.1566  0.8968 -0.1088
  699MOL0     H96416  12.028   7.466   2.250  0.8925  0.6597  1.3480
  699MOL0     H96417  12.017   7.549   2.090  0.7886 -2.5811 -0.0971
  699MOL0     H96418  12.231   7.640   2.289  0.5944 -1.9250  0.3355
  699MOL0     H96419  12.253   7.506   2.189  0.2679  0.9516 -2.1357
  699MOL0     H96420  12.472   7.624   2.212  0.2752 -0.2070 -0.2646
  699MOL0     H96421  12.757   7.743   2.200 -0.9543  0.7135 -0.1754
  699MOL0     H96422  12.797   7.641   2.058  0.2324 -2.2688  1.8707
  699MOL0     H96423  12.694   7.578   2.184  0.4171  0.7686  1.7900
  699MOL0     H96424  12.886   7.839   1.563  1.4913 -0.8895  0.4820
  699MOL0     H96425  13.081   7.971   1.479  2.2198  1.6885  1.4293
  699MOL0     H96426  13.071   8.372   1.565 -1.2771 -2.6811 -1.6616
  699MOL0     H96427  13.211   8.355   1.675 -0.5243  0.2824  0.6158
  699MOL0     H96428  13.282   8.487   1.489 -1.2168  1.2471 -1.2173
  699MOL0     H96429  13.372   8.334   1.517 -1.6236 -0.7750  1.6494
  699MOL0     H96430  13.271   8.238   1.321  1.2617  0.3898  0.5157
  699MOL0     H96431  13.331   8.396   1.264 -1.3092  0.7330 -0.8184
  699MOL0     H96432  13.085   8.477   1.368  0.0787 -2.2086  3.2395
  699MOL0     H96433  13.044   8.313   1.330  0.6720 -2.0632 -0.6988
  699MOL0     H96434  13.179   8.483   1.117 -0.7364  1.0232  0.5466
  699MOL0     H96435  13.090   8.323   1.106 -1.0165 -1.9258  2.4648
  699MOL0     H96436  12.939   8.456   1.009 -0.4798 -0.6090  0.1263
  699MOL0     H96437  12.967   8.596   1.116 -4.4586  0.9967  0.0044
  699MOL0     H96438  12.847   8.502   1.299 -2.2779 -3.3360  2.3723
  699MOL0     H96439  12.841   8.340   1.225 -2.7516 -0.0005 -0.2470
  699MOL0     H96440  12.631   8.399   1.182  0.4629  0.4310  0.6388
  699MOL0     H96441  12.713   8.460   1.028  0.5344 -1.2196 -0.0610
  699MOL0     H96442  13.001   8.276   1.760 -0.1181  0.2808 -1.9882
  699MOL0     H96443  12.801   8.160   1.846 -0.6450  2.3478 -0.1216
  699MOL0     H96444  12.474   7.872   1.786 -2.6211  1.1881  0.8582
  699MOL0     H96445  12.268   7.819   1.879 -1.6402 -1.6555  2.5088
  699MOL0     H96446  10.523   7.554   2.327  0.9541 -0.2799  0.1823
  699MOL0     H96447  10.290   7.599   2.413 -0.9984 -1.0952  1.6046
  699MOL0     H96448   9.935   8.074   2.612 -0.1192 -0.6613 -3.9288
  699MOL0     H96449   9.613   8.036   2.595  1.7603  0.6695 -1.6520
  699MOL0     H96450   9.409   7.941   2.545  1.8443 -0.9515 -0.3790
  699MOL0     H96451   9.275   7.826   2.543 -0.4160 -3.7805  0.5773
  699MOL0     H96452   9.427   7.875   2.793 -0.4082 -1.3632 -0.3090
  699MOL0     H96453   9.275   7.785   2.776 -0.8377  0.3638  0.3101
  699MOL0     H96454   9.321   8.085   2.740 -0.8017 -0.0114  0.2330
  699MOL0     H96455   9.171   8.007   2.686 -0.2879  0.7207  1.2192
  699MOL0     H96456   9.143   8.110   2.917 -3.6563 -0.4285  0.0442
  699MOL0     H96457   9.282   7.995   2.963 -1.9633 -0.6792  0.9213
  699MOL0     H96458   8.927   7.752   2.947  0.1269 -1.2816 -0.3955
  699MOL0     H96459   9.677   7.488   2.594 -0.6309  0.5234  0.4191
  699MOL0     H96460  10.067   7.483   2.727 -0.2297  4.4179  0.7561
  699MOL0     H96461   9.970   7.395   2.600  0.2070  0.1996  1.5700
  699MOL0     H96462  10.097   7.495   2.548  0.1847  1.1129 -0.0066
  700MOL0     O96463  11.155   8.832   8.367 -0.5875 -0.1719  0.4889
  700MOL0     C96464  11.210   8.727   8.371  0.0324  1.0634 -0.3602
  700MOL0     O96465  11.208   8.629   8.272  0.2389  0.5643 -0.5519
  700MOL0     C96466  11.215   8.656   8.132 -0.3096 -0.0294  0.3558
  700MOL0     C96467  11.151   8.767   8.074  0.8192 -0.0722  0.2616
  700MOL0     C96468  11.167   8.783   7.935 -0.1986  1.1386 -0.7988
  700MOL0     C96469  11.253   8.706   7.858  0.6278 -0.2951 -1.4879
  700MOL0     O96470  11.282   8.735   7.728  0.1449 -0.0752  0.0750
  700MOL0     C96471  11.321   8.868   7.690  0.1138 -0.4075 -1.3214
  700MOL0     C96472  11.218   8.923   7.590  0.2163  0.1777 -0.3288
  700MOL0     C96473  11.236   8.858   7.454  0.4294 -0.4305 -0.1263
  700MOL0     C96474  11.371   8.885   7.376 -0.2998 -0.2142 -0.3322
  700MOL0     C96475  11.376   8.809   7.256  0.6854  0.4758 -0.1431
  700MOL0     C96476  11.287   8.863   7.139  0.6414  0.5389 -0.0415
  700MOL0     C96477  11.298   8.766   7.014  0.5937 -0.3950  0.2111
  700MOL0     C96478  11.436   8.775   6.937  0.7130 -0.1282 -0.1614
  700MOL0     N96479  11.434   8.681   6.829  0.2720  0.2663 -0.7020
  700MOL0     C96480  11.418   8.545   6.840  1.0802 -0.3118 -0.1897
  700MOL0     C96481  11.384   8.494   6.715  0.2196  0.1962 -0.4419
  700MOL0     C96482  11.340   8.350   6.681 -0.1779  0.3450  0.1413
  700MOL0     C96483  11.326   8.304   6.534 -0.4983 -0.8465 -0.0832
  700MOL0     C96484  11.203   8.387   6.476  0.4907 -0.2167  0.5317
  700MOL0     C96485  11.143   8.303   6.366  0.2289  0.3955  0.0321
  700MOL0     O96486  11.083   8.191   6.412 -0.2534  0.5938  0.6685
  700MOL0     C96487  10.945   8.188   6.401 -0.4834  0.2240  0.0756
  700MOL0     C96488  10.888   8.074   6.335  0.1104 -0.5398  0.1846
  700MOL0     C96489  10.751   8.047   6.348 -0.2035 -0.5679  0.4810
  700MOL0     C96490  10.702   7.925   6.271  0.2630  0.6918  0.2140
  700MOL0     C96491  10.668   8.131   6.424  0.0083  0.4067 -0.2931
  700MOL0     C96492  10.518   8.113   6.443 -0.4450 -0.3533 -0.3373
  700MOL0     O96493  10.461   8.200   6.532 -0.0851 -0.3997 -0.6645
  700MOL0     C96494  10.330   8.197   6.558  0.0952  0.3790 -0.4391
  700MOL0     C96495  10.284   8.313   6.613 -0.5662  0.3292 -1.0543
  700MOL0     C96496  10.151   8.341   6.653 -0.2450  0.0516  0.0573
  700MOL0     C96497  10.057   8.239   6.631 -0.0551  0.0427 -0.1867
  700MOL0     O96498   9.924   8.239   6.661 -0.5800 -0.7046 -0.0042
  700MOL0     C96499   9.886   8.341   6.751 -0.0813 -0.4801 -0.0847
  700MOL0     C96500   9.741   8.333   6.781 -0.7927 -0.0619 -0.0327
  700MOL0     C96501   9.674   8.359   6.643  0.5436 -0.0612 -0.0881
  700MOL0     C96502   9.523   8.384   6.675  0.8909 -0.4975  0.0603
  700MOL0     C96503   9.437   8.353   6.549 -0.1168  0.1153 -0.3387
  700MOL0     C96504   9.295   8.364   6.591 -0.0233 -0.3845 -0.7587
  700MOL0     C96505   9.205   8.337   6.467 -0.0233  0.2119  0.2700
  700MOL0     C96506   9.185   8.474   6.395 -0.0144 -0.0181  0.2322
  700MOL0    Cl96507   9.077   8.456   6.252  0.3518 -0.5073 -0.1564
  700MOL0     C96508  10.104   8.115   6.575  0.0035 -0.4234  0.0904
  700MOL0     C96509  10.237   8.093   6.531  0.5451  0.0769 -0.3188
  700MOL0     O96510  10.456   8.047   6.365  0.3376 -0.2710  0.1260
  700MOL0     C96511  10.729   8.228   6.506  0.6187 -0.2521 -0.3287
  700MOL0     C96512  10.866   8.260   6.487 -1.0652  0.0895 -0.2625
  700MOL0     N96513  11.412   8.595   6.626 -0.2820 -1.0445  0.1077
  700MOL0     N96514  11.438   8.710   6.697  0.1580 -0.5679  0.2403
  700MOL0     C96515  11.308   8.589   7.917 -0.0047 -0.5203  0.9473
  700MOL0     C96516  11.289   8.565   8.054 -0.3718  0.1604  0.2315
  700MOL0     C96517  11.285   8.704   8.497  0.5422  0.3377  0.8434
  700MOL0     C96518  11.392   8.621   8.480  0.3254  0.5113 -0.3361
  700MOL0     C96519  11.464   8.579   8.589  0.3384 -0.7802 -0.1035
  700MOL0     C96520  11.435   8.635   8.715  0.0514  0.2457  0.1232
  700MOL0     O96521  11.524   8.597   8.816  0.6477  0.7356 -0.6238
  700MOL0     C96522  11.515   8.645   8.953  0.0228  0.7635  0.0249
  700MOL0     C96523  11.614   8.560   9.028 -0.6664  0.2906  0.7650
  700MOL0     C96524  11.757   8.599   8.992  0.7000  0.1634  0.2720
  700MOL0     C96525  11.852   8.544   9.097  0.1552  0.1025  0.1916
  700MOL0     C96526  11.845   8.613   9.222  0.4551  0.5134 -0.1045
  700MOL0     C96527  11.834   8.664   9.335  0.7361  0.2095 -0.2677
  700MOL0     C96528  11.334   8.732   8.730  0.2376 -0.4758 -0.0237
  700MOL0     C96529  11.249   8.750   8.623  1.5331 -0.5330 -0.1562
  700MOL0     C96530  11.126   8.826   8.641  1.1444 -0.1061 -0.2499
  700MOL0     H96531  11.079   8.821   8.135 -0.1330  0.6494 -1.4202
  700MOL0     H96532  11.123   8.870   7.887  1.5547  1.2715 -2.2670
  700MOL0     H96533  11.423   8.869   7.651  1.4908 -0.2559  1.9264
  700MOL0     H96534  11.335   8.935   7.776 -2.0630 -2.5835  0.9141
  700MOL0     H96535  11.122   8.900   7.636  0.7360 -1.3213  0.0925
  700MOL0     H96536  11.227   9.031   7.583 -1.0667  0.2825 -0.5551
  700MOL0     H96537  11.229   8.750   7.469 -0.8161 -0.9008 -3.3395
  700MOL0     H96538  11.148   8.886   7.395 -0.0866 -0.5509  0.5759
  700MOL0     H96539  11.381   8.992   7.354  2.3693 -0.4470 -0.6485
  700MOL0     H96540  11.454   8.865   7.443 -0.7785  2.0660  1.0613
  700MOL0     H96541  11.336   8.713   7.289 -0.2348  1.3626  1.4563
  700MOL0     H96542  11.480   8.788   7.231 -0.2444 -2.7661 -1.7786
  700MOL0     H96543  11.181   8.867   7.163  0.3035 -0.5093 -1.2910
  700MOL0     H96544  11.323   8.963   7.110  0.2305  0.0015 -2.6536
  700MOL0     H96545  11.208   8.785   6.955 -0.1403 -1.0121  1.1030
  700MOL0     H96546  11.286   8.661   7.041  0.9417 -0.7918 -1.1263
  700MOL0     H96547  11.465   8.878   6.912 -0.7591  0.5043  0.6522
  700MOL0     H96548  11.515   8.740   7.005  1.9316 -0.4512 -1.6923
  700MOL0     H96549  11.410   8.504   6.940  1.2715 -1.8132 -0.7679
  700MOL0     H96550  11.246   8.335   6.736  0.2687 -0.9718  0.5758
  700MOL0     H96551  11.413   8.284   6.729 -0.4551 -1.5094 -1.8153
  700MOL0     H96552  11.414   8.318   6.471 -0.2744 -0.5196  0.3010
  700MOL0     H96553  11.297   8.199   6.541  0.1531 -0.9342  1.6274
  700MOL0     H96554  11.127   8.391   6.555 -1.7634 -0.1385 -1.5502
  700MOL0     H96555  11.227   8.493   6.462  2.7547 -0.7532  0.0079
  700MOL0     H96556  11.084   8.360   6.294 -2.3786 -1.5940  0.4516
  700MOL0     H96557  11.230   8.265   6.312  1.7953 -0.2208  2.7797
  700MOL0     H96558  10.960   8.018   6.276 -1.3676 -2.4580  0.1371
  700MOL0     H96559  10.644   7.859   6.336  0.7347 -0.6495 -0.6772
  700MOL0     H96560  10.774   7.854   6.228 -2.7994 -0.4682 -3.6410
  700MOL0     H96561  10.640   7.943   6.182  1.4899  0.2794 -0.7580
  700MOL0     H96562  10.363   8.387   6.608 -0.2580  0.0279 -0.7693
  700MOL0     H96563  10.125   8.435   6.699  0.8251  1.0586 -1.3142
  700MOL0     H96564   9.929   8.337   6.852 -1.5673 -1.2328  0.5589
  700MOL0     H96565   9.907   8.443   6.718  0.5488 -1.3313 -2.5138
  700MOL0     H96566   9.718   8.236   6.827 -1.4267  1.2269  2.5250
  700MOL0     H96567   9.725   8.409   6.857  1.4340  0.9587 -0.5119
  700MOL0     H96568   9.692   8.285   6.564  2.3022  1.7239 -1.4421
  700MOL0     H96569   9.713   8.447   6.592 -0.1018 -1.7168 -3.7280
  700MOL0     H96570   9.514   8.486   6.713  2.0183 -0.5275  0.4563
  700MOL0     H96571   9.486   8.326   6.761  2.6499 -0.1109  1.1372
  700MOL0     H96572   9.460   8.429   6.474  3.9520 -0.7245 -0.1758
  700MOL0     H96573   9.469   8.257   6.509  3.7294  1.3676 -0.6882
  700MOL0     H96574   9.265   8.462   6.629  0.1672 -0.2664 -0.9192
  700MOL0     H96575   9.267   8.287   6.665  1.4490  1.4245  1.8484
  700MOL0     H96576   9.105   8.310   6.503  0.9106 -2.0293  1.3130
  700MOL0     H96577   9.253   8.258   6.409  0.3425 -0.4410  1.4464
  700MOL0     H96578   9.277   8.524   6.363 -0.0453 -0.0347  0.1178
  700MOL0     H96579   9.146   8.550   6.463 -0.9141  1.4340 -1.8160
  700MOL0     H96580  10.041   8.027   6.564  1.2904 -1.3150 -0.4325
  700MOL0     H96581  10.258   7.995   6.490  1.0714 -0.4154  1.0532
  700MOL0     H96582  10.669   8.281   6.580 -0.9273 -2.3033 -0.0298
  700MOL0     H96583  10.921   8.338   6.538  1.3308 -0.9222 -1.1409
  700MOL0     H96584  11.361   8.522   7.850  1.5978  0.4232  1.2262
  700MOL0     H96585  11.335   8.485   8.111 -0.4551  0.0595  0.1579
  700MOL0     H96586  11.400   8.579   8.380 -1.9415  3.5331 -1.9480
  700MOL0     H96587  11.537   8.499   8.586  0.8695 -0.3557 -3.5235
  700MOL0     H96588  11.542   8.751   8.954  0.5179  0.7248 -2.4227
  700MOL0     H96589  11.416   8.624   8.995  0.6260 -2.5673  0.0343
  700MOL0     H96590  11.593   8.454   9.014 -1.2958  0.6948 -2.1372
  700MOL0     H96591  11.594   8.576   9.134  2.6703  1.9214  1.2693
  700MOL0     H96592  11.780   8.567   8.890 -1.5040  2.3534 -1.0374
  700MOL0     H96593  11.772   8.707   8.998  1.2177  0.0184  2.7161
  700MOL0     H96594  11.953   8.548   9.056 -0.6252 -0.3499 -1.8963
  700MOL0     H96595  11.832   8.436   9.106 -1.7127  0.3132 -0.9390
  700MOL0     H96596  11.827   8.703   9.434  2.9961  1.0794 -0.4037
  700MOL0     H96597  11.319   8.782   8.825 -0.7097 -0.3260 -0.2485
  700MOL0     H96598  11.107   8.838   8.749  0.7828 -0.8647 -0.2193
  700MOL0     H96599  11.130   8.923   8.591  0.5532 -0.1572 -0.4029
  700MOL0     H96600  11.036   8.772   8.609  1.8014 -0.7101 -1.0953
  701MOL0     O96601   4.333   1.483   7.673 -0.1636  0.0144  0.2331
  701MOL0     C96602   4.415   1.564   7.655 -0.2704 -0.5970 -0.7689
  701MOL0     O96603   4.390   1.696   7.621  0.3994  0.1991 -0.2579
  701MOL0     C96604   4.259   1.741   7.635 -0.0815  0.6141  0.7526
  701MOL0     C96605   4.179   1.737   7.519  0.0910  0.0496 -0.5865
  701MOL0     C96606   4.050   1.772   7.529 -0.1660  0.0786 -0.4520
  701MOL0     C96607   4.000   1.827   7.645  0.1798 -0.8336  0.9879
  701MOL0     O96608   3.870   1.867   7.660  0.8760  0.1208  0.4106
  701MOL0     C96609   3.788   1.895   7.543  0.3624 -0.5575  0.1188
  701MOL0     C96610   3.660   1.811   7.533 -0.0924 -0.6741  0.5331
  701MOL0     C96611   3.554   1.857   7.626  0.2153  0.5108 -0.6637
  701MOL0     C96612   3.443   1.755   7.616 -0.3945  0.1248 -0.6382
  701MOL0     C96613   3.316   1.800   7.697  0.0069  0.4854 -0.6956
  701MOL0     C96614   3.229   1.675   7.698  0.2415  0.1792  1.0075
  701MOL0     C96615   3.106   1.694   7.794  0.2659 -0.2141 -0.4839
  701MOL0     C96616   3.014   1.573   7.809 -0.1254  0.1537  0.6614
  701MOL0     N96617   3.072   1.447   7.871 -1.3632  0.4584  0.4611
  701MOL0     C96618   3.112   1.337   7.801 -0.1072  0.0160  0.5317
  701MOL0     C96619   3.129   1.243   7.896 -0.0972 -0.1465 -0.4950
  701MOL0     C96620   3.194   1.112   7.863 -0.3222 -0.6791 -0.0156
  701MOL0     C96621   3.332   1.089   7.917 -0.5298 -0.3385  0.1429
  701MOL0     C96622   3.441   1.193   7.869  0.3127  0.0364 -0.1273
  701MOL0     C96623   3.475   1.183   7.721  0.0926 -0.7495  0.4054
  701MOL0     O96624   3.392   1.278   7.643  0.0685 -0.0137  0.0107
  701MOL0     C96625   3.431   1.290   7.515 -0.4974 -0.4891  0.7524
  701MOL0     C96626   3.357   1.387   7.440 -0.2837  0.4570  0.2251
  701MOL0     C96627   3.382   1.402   7.297  0.1914  0.5284 -0.1424
  701MOL0     C96628   3.295   1.513   7.237 -0.1090  0.3410  0.2951
  701MOL0     C96629   3.492   1.341   7.241  0.1412  0.6572 -0.6235
  701MOL0     C96630   3.539   1.373   7.100  0.1441  0.4454  0.1184
  701MOL0     O96631   3.492   1.487   7.030 -0.4026 -0.2812 -0.0714
  701MOL0     C96632   3.534   1.496   6.896  0.2773  0.5869  0.7512
  701MOL0     C96633   3.445   1.450   6.793  0.3239  1.1076 -0.4408
  701MOL0     C96634   3.474   1.465   6.660  0.6698  0.1445  0.1974
  701MOL0     C96635   3.594   1.525   6.625  0.5402  0.1611  0.1163
  701MOL0     O96636   3.642   1.546   6.497  0.1767 -0.4039 -0.8418
  701MOL0     C96637   3.545   1.575   6.396 -0.0419 -0.6156 -1.0531
  701MOL0     C96638   3.607   1.612   6.264  0.5154  0.1213 -0.4119
  701MOL0     C96639   3.603   1.759   6.230  0.4189  0.3380 -0.3170
  701MOL0     C96640   3.676   1.780   6.097 -0.4004  0.6637  0.4991
  701MOL0     C96641   3.697   1.930   6.071  0.5625 -0.5777 -0.4272
  701MOL0     C96642   3.766   1.967   5.947 -0.6984 -0.0771 -0.6308
  701MOL0     C96643   3.916   1.959   5.955  0.1888  0.2377 -0.1383
  701MOL0     C96644   3.965   1.990   5.809 -0.0142 -0.0456 -1.1443
  701MOL0    Cl96645   3.927   2.140   5.718 -0.0370 -0.1253 -0.0383
  701MOL0     C96646   3.690   1.557   6.722 -0.4495 -0.0919  0.2050
  701MOL0     C96647   3.659   1.544   6.854  0.5000  0.0914  0.6427
  701MOL0     O96648   3.620   1.289   7.052  0.7855 -0.6697  0.7212
  701MOL0     C96649   3.575   1.259   7.325  0.4542 -0.1283  0.3827
  701MOL0     C96650   3.539   1.230   7.456 -0.5882  0.0253 -0.2098
  701MOL0     N96651   3.094   1.288   8.019  1.0104 -0.3249  0.9261
  701MOL0     N96652   3.052   1.409   8.001  0.4675  0.6607 -0.4900
  701MOL0     C96653   4.080   1.821   7.764 -0.2344 -0.5041  0.1062
  701MOL0     C96654   4.216   1.786   7.761 -0.1283 -0.1165  0.2994
  701MOL0     C96655   4.559   1.523   7.664 -0.0146 -0.7850  0.5739
  701MOL0     C96656   4.649   1.572   7.572 -0.3790 -0.0999 -0.0286
  701MOL0     C96657   4.788   1.538   7.581  0.1586 -0.2192  0.3751
  701MOL0     C96658   4.843   1.457   7.675  0.5671  0.2890 -0.2155
  701MOL0     O96659   4.982   1.433   7.660  0.2122 -0.3267  0.4374
  701MOL0     C96660   5.034   1.305   7.703  0.2199 -0.3879 -0.2884
  701MOL0     C96661   5.036   1.207   7.591 -0.6471 -0.2474 -0.4251
  701MOL0     C96662   5.180   1.200   7.540  0.1490  0.4769  0.0942
  701MOL0     C96663   5.194   1.126   7.409 -0.8211 -0.6340  0.2638
  701MOL0     C96664   5.138   0.997   7.403  0.0151  0.0958  0.1312
  701MOL0     C96665   5.089   0.890   7.387 -1.1469  0.0795  0.2585
  701MOL0     C96666   4.745   1.401   7.759 -0.0965 -0.2298 -0.3895
  701MOL0     C96667   4.607   1.437   7.763  0.3345 -0.0630  0.8176
  701MOL0     C96668   4.520   1.363   7.862 -0.5713 -0.1431 -0.5536
  701MOL0     H96669   4.222   1.701   7.426  1.6505  1.3135 -0.3934
  701MOL0     H96670   3.991   1.755   7.439 -0.7700 -1.7280  0.2404
  701MOL0     H96671   3.836   1.886   7.446  0.1171 -2.7095  0.1503
  701MOL0     H96672   3.758   2.000   7.554 -0.4210 -0.9953  3.4281
  701MOL0     H96673   3.611   1.810   7.435 -2.1173 -2.8229  1.4758
  701MOL0     H96674   3.685   1.708   7.559  1.5005 -0.1177  1.3275
  701MOL0     H96675   3.594   1.852   7.728  0.5723 -2.1156 -0.8668
  701MOL0     H96676   3.516   1.958   7.608 -0.4455  0.3440 -0.2501
  701MOL0     H96677   3.420   1.746   7.509  2.2633 -0.7368 -1.1979
  701MOL0     H96678   3.482   1.661   7.654 -0.0593 -0.5777 -2.6281
  701MOL0     H96679   3.258   1.882   7.654 -3.6877  1.1134  4.6216
  701MOL0     H96680   3.344   1.839   7.795 -0.0854  1.0025 -0.8702
  701MOL0     H96681   3.188   1.657   7.599 -3.1288 -0.4137  2.3753
  701MOL0     H96682   3.293   1.592   7.728  3.8912  1.8419 -1.4232
  701MOL0     H96683   3.034   1.774   7.775 -1.4628 -0.6381  3.3885
  701MOL0     H96684   3.156   1.704   7.891 -2.4523  3.0140  0.7760
  701MOL0     H96685   2.927   1.605   7.867  1.2851 -0.0341  3.0160
  701MOL0     H96686   2.982   1.554   7.706  0.8266 -1.7034  0.6536
  701MOL0     H96687   3.132   1.328   7.695  0.7821  0.6564  0.6320
  701MOL0     H96688   3.201   1.113   7.754  0.4576  1.4359  0.0148
  701MOL0     H96689   3.131   1.023   7.871 -0.7978 -0.3052  0.3963
  701MOL0     H96690   3.345   1.071   8.024 -0.8148  1.5761  0.5405
  701MOL0     H96691   3.353   0.993   7.870  1.1197 -0.0695  0.2960
  701MOL0     H96692   3.409   1.289   7.910  2.6874  2.3185 -3.1278
  701MOL0     H96693   3.536   1.166   7.917  0.5111 -0.1356 -0.6179
  701MOL0     H96694   3.574   1.221   7.695 -1.4376  1.2719 -3.2139
  701MOL0     H96695   3.467   1.079   7.688  0.7139 -0.2863 -1.2945
  701MOL0     H96696   3.283   1.443   7.496 -0.2075  2.0481 -1.1909
  701MOL0     H96697   3.191   1.500   7.268 -0.9572  1.0338 -2.0642
  701MOL0     H96698   3.279   1.509   7.129 -4.7982  0.5447  0.8083
  701MOL0     H96699   3.330   1.612   7.268  0.7820  0.2773 -0.4577
  701MOL0     H96700   3.350   1.405   6.823  1.2049 -0.4549  0.1020
  701MOL0     H96701   3.394   1.432   6.594  1.5604 -0.2965 -0.6825
  701MOL0     H96702   3.477   1.490   6.384 -1.6861  0.1628  1.7453
  701MOL0     H96703   3.483   1.657   6.433 -1.1171 -2.1862  0.8328
  701MOL0     H96704   3.706   1.567   6.254 -0.2269 -1.6453 -0.1835
  701MOL0     H96705   3.535   1.565   6.197 -1.8392  0.5758  1.6718
  701MOL0     H96706   3.644   1.822   6.310 -2.1240  1.5961  0.1130
  701MOL0     H96707   3.501   1.796   6.215 -0.0363 -2.0467 -4.5043
  701MOL0     H96708   3.627   1.732   6.011  1.3942 -2.6586  1.1446
  701MOL0     H96709   3.773   1.732   6.107 -0.8850 -0.6130 -0.6157
  701MOL0     H96710   3.598   1.974   6.057  1.0238 -0.0908 -2.6987
  701MOL0     H96711   3.752   1.982   6.151  0.0394  2.8884 -2.1149
  701MOL0     H96712   3.739   2.071   5.927 -1.5669  0.2889  2.0247
  701MOL0     H96713   3.721   1.903   5.871 -0.1748  0.7453 -1.6582
  701MOL0     H96714   3.949   1.855   5.970 -0.1033  0.0176 -0.9931
  701MOL0     H96715   3.964   2.021   6.031  1.2301 -0.5628 -0.1098
  701MOL0     H96716   3.927   1.917   5.737  3.0003  0.0059 -2.9941
  701MOL0     H96717   4.074   1.984   5.819  0.0718  2.7173  0.6293
  701MOL0     H96718   3.792   1.583   6.697  0.2322 -1.4797  1.4459
  701MOL0     H96719   3.744   1.566   6.917  2.1794 -0.2825 -1.4050
  701MOL0     H96720   3.671   1.224   7.290 -1.4242 -2.9052 -2.6396
  701MOL0     H96721   3.613   1.168   7.506  0.4550  1.1507 -0.3145
  701MOL0     H96722   4.038   1.849   7.860  2.5796 -1.3695  1.7386
  701MOL0     H96723   4.277   1.788   7.851 -0.1463  1.4142  0.3043
  701MOL0     H96724   4.621   1.625   7.481  2.5445  0.0086 -0.9869
  701MOL0     H96725   4.858   1.594   7.518  2.6681 -0.4791  2.7326
  701MOL0     H96726   5.134   1.325   7.742  2.0191 -4.7774 -1.9619
  701MOL0     H96727   4.983   1.253   7.784  1.9315 -3.3677 -0.9388
  701MOL0     H96728   4.966   1.238   7.512 -0.7163 -1.0218 -0.6798
  701MOL0     H96729   5.010   1.105   7.623  4.3409 -1.0102  2.2318
  701MOL0     H96730   5.212   1.304   7.533 -4.6386  2.2696  0.8032
  701MOL0     H96731   5.238   1.150   7.618  0.5194  0.5191 -0.1569
  701MOL0     H96732   5.300   1.136   7.383 -0.7924  1.0070  0.8484
  701MOL0     H96733   5.140   1.190   7.339  0.2301  0.3017  0.2725
  701MOL0     H96734   5.053   0.790   7.372 -1.1736  0.3124 -1.3460
  701MOL0     H96735   4.773   1.336   7.841 -1.8965 -0.7327 -0.1277
  701MOL0     H96736   4.471   1.283   7.805  2.0753 -0.4492 -2.6219
  701MOL0     H96737   4.585   1.316   7.937 -0.2172  2.3984  0.8330
  701MOL0     H96738   4.450   1.430   7.911 -1.3432  0.6889 -2.7187
  702MOL0     O96739   3.955   9.387   4.716  0.2100  0.0834  0.6518
  702MOL0     C96740   3.876   9.413   4.626  0.0961 -0.0322 -0.8449
  702MOL0     O96741   3.915   9.439   4.495  0.1422  0.2195  0.2250
  702MOL0     C96742   4.045   9.444   4.460  0.0175  0.8197 -1.1360
  702MOL0     C96743   4.128   9.328   4.474 -0.5736 -0.3940 -0.4052
  702MOL0     C96744   4.264   9.337   4.454 -0.6709  0.0634  0.3555
  702MOL0     C96745   4.321   9.454   4.414 -0.5723 -0.3593 -0.4378
  702MOL0     O96746   4.455   9.457   4.362  0.3626 -0.5494 -0.3172
  702MOL0     C96747   4.552   9.426   4.468  0.0259 -0.3437  0.1049
  702MOL0     C96748   4.693   9.419   4.402 -0.0481  0.5241  0.1500
  702MOL0     C96749   4.816   9.380   4.491  0.0093 -0.1116 -0.2012
  702MOL0     C96750   4.952   9.400   4.420 -0.4634 -0.0611  0.2614
  702MOL0     C96751   5.078   9.332   4.481  0.6446 -0.5158 -0.2944
  702MOL0     C96752   5.107   9.395   4.615 -0.1859  0.0672  0.2659
  702MOL0     C96753   5.216   9.321   4.699  0.1860 -0.1996  0.8649
  702MOL0     C96754   5.340   9.279   4.617  0.0830 -0.0992 -0.0146
  702MOL0     N96755   5.446   9.218   4.694  0.5243  0.6102  1.7312
  702MOL0     C96756   5.509   9.287   4.795  0.0483  0.4232 -0.7923
  702MOL0     C96757   5.628   9.215   4.807  0.0856  0.3463  0.1819
  702MOL0     C96758   5.740   9.237   4.906  0.0333 -1.2244  0.3103
  702MOL0     C96759   5.883   9.243   4.847 -0.4641 -0.4294 -0.8492
  702MOL0     C96760   5.983   9.145   4.916 -0.1683 -0.4085 -0.3406
  702MOL0     C96761   6.121   9.141   4.852  0.0034  0.3214 -0.3164
  702MOL0     O96762   6.210   9.066   4.939  0.5733 -0.3273  0.3935
  702MOL0     C96763   6.341   9.060   4.897  0.4134 -0.5248  0.4086
  702MOL0     C96764   6.438   9.039   4.992 -0.0317 -0.1949  0.2123
  702MOL0     C96765   6.581   9.033   4.973 -0.3290 -0.2358  0.1412
  702MOL0     C96766   6.672   8.974   5.080  0.0251 -0.5413 -0.9087
  702MOL0     C96767   6.622   9.052   4.842  0.2953 -0.4894 -0.3771
  702MOL0     C96768   6.766   9.059   4.803  1.0749  0.1170 -0.8767
  702MOL0     O96769   6.806   9.177   4.746 -0.2048  0.3230 -0.2051
  702MOL0     C96770   6.935   9.204   4.777 -0.8606  0.1641 -0.1402
  702MOL0     C96771   6.962   9.246   4.906 -0.2844 -0.4491 -0.1985
  702MOL0     C96772   7.101   9.268   4.945 -0.0966 -0.0473  0.4795
  702MOL0     C96773   7.200   9.245   4.846  0.0419  0.6812  0.1612
  702MOL0     O96774   7.337   9.248   4.872  0.2606  0.3250 -0.0116
  702MOL0     C96775   7.381   9.219   5.001 -0.3536 -0.5356 -0.2455
  702MOL0     C96776   7.524   9.164   5.015 -0.3200 -0.1332 -0.4487
  702MOL0     C96777   7.550   9.148   5.165  0.0751 -0.3666  0.1343
  702MOL0     C96778   7.692   9.099   5.187 -0.0645 -0.4493 -0.7515
  702MOL0     C96779   7.758   9.122   5.324 -0.2599 -0.5692  0.2617
  702MOL0     C96780   7.708   9.030   5.429  0.5683  0.3178 -0.1427
  702MOL0     C96781   7.773   9.053   5.571 -0.7349  0.7837 -0.1206
  702MOL0     C96782   7.723   8.940   5.664 -0.4143  0.1937 -1.1423
  702MOL0    Cl96783   7.801   8.936   5.821  0.1686  0.1359 -0.4108
  702MOL0     C96784   7.159   9.221   4.712 -0.5507 -0.4815 -0.4084
  702MOL0     C96785   7.026   9.196   4.677 -0.6708  0.4255  0.2921
  702MOL0     O96786   6.834   8.959   4.831  0.0542 -0.1967 -1.4438
  702MOL0     C96787   6.527   9.088   4.742 -0.4215  0.5382 -0.0183
  702MOL0     C96788   6.390   9.094   4.769  0.8030 -1.2080 -0.9653
  702MOL0     N96789   5.626   9.108   4.717 -0.4303  1.2344 -0.9120
  702MOL0     N96790   5.523   9.119   4.640  0.3105 -0.1583 -0.9262
  702MOL0     C96791   4.240   9.563   4.393  0.1579 -0.0725 -0.3319
  702MOL0     C96792   4.097   9.558   4.403  0.5011 -0.9338 -0.2882
  702MOL0     C96793   3.729   9.411   4.660  0.7952  0.2880 -0.0624
  702MOL0     C96794   3.644   9.435   4.554 -0.3681  0.3510 -0.2728
  702MOL0     C96795   3.502   9.438   4.576 -0.5481  0.1602 -1.3275
  702MOL0     C96796   3.456   9.413   4.708 -0.0512  0.2613 -0.2105
  702MOL0     O96797   3.323   9.411   4.744  0.0207 -0.2871  0.4798
  702MOL0     C96798   3.218   9.444   4.649 -0.5588  0.2475  0.9380
  702MOL0     C96799   3.088   9.448   4.720  0.0952  0.4332 -0.1234
  702MOL0     C96800   2.973   9.464   4.614 -0.8208  0.3432 -0.1162
  702MOL0     C96801   2.833   9.442   4.669 -0.0469 -0.0369 -0.2428
  702MOL0     C96802   2.752   9.378   4.566 -0.6962  0.5772  0.4096
  702MOL0     C96803   2.670   9.321   4.499  0.4602  0.1189 -0.6121
  702MOL0     C96804   3.538   9.380   4.812  1.2442 -0.8420  0.8843
  702MOL0     C96805   3.675   9.390   4.789 -0.4921  0.5265  0.1442
  702MOL0     C96806   3.754   9.347   4.910 -0.5224  0.3363 -1.2995
  702MOL0     H96807   4.078   9.235   4.499  0.2028 -0.4022  1.3039
  702MOL0     H96808   4.325   9.249   4.469  2.7458  2.4179  1.6462
  702MOL0     H96809   4.521   9.329   4.507  2.6346 -1.6016 -0.6701
  702MOL0     H96810   4.550   9.489   4.557  2.5414 -3.4320  2.5990
  702MOL0     H96811   4.699   9.342   4.324  0.2804 -1.3862  1.9639
  702MOL0     H96812   4.715   9.520   4.367 -3.0468 -0.1891 -4.8896
  702MOL0     H96813   4.818   9.451   4.574 -1.5460 -0.1296 -0.1060
  702MOL0     H96814   4.808   9.277   4.526  0.5807 -0.3598 -0.7932
  702MOL0     H96815   4.952   9.374   4.314 -2.5518 -2.5722  0.7626
  702MOL0     H96816   4.976   9.507   4.424  4.1539 -0.8758 -0.1795
  702MOL0     H96817   5.160   9.347   4.411  1.1965  3.1365  0.9116
  702MOL0     H96818   5.057   9.228   4.505 -1.4512  0.1187  0.9371
  702MOL0     H96819   5.146   9.496   4.601  2.3880 -0.6118  1.8092
  702MOL0     H96820   5.013   9.402   4.670 -1.8964  4.4768 -2.6178
  702MOL0     H96821   5.174   9.235   4.753 -1.1691 -0.6984 -0.9037
  702MOL0     H96822   5.242   9.392   4.778 -1.1719  0.2977  0.8768
  702MOL0     H96823   5.314   9.206   4.540  0.1110 -1.1822  0.9710
  702MOL0     H96824   5.378   9.367   4.565  2.4432 -1.0268  0.0047
  702MOL0     H96825   5.475   9.378   4.843 -0.8037 -0.3546  0.1141
  702MOL0     H96826   5.736   9.154   4.977  1.1760 -1.3829  0.2086
  702MOL0     H96827   5.731   9.331   4.961  1.2503 -0.5177 -0.6386
  702MOL0     H96828   5.897   9.230   4.739  2.8586 -3.7274 -0.2147
  702MOL0     H96829   5.919   9.346   4.861  2.7902 -1.7637  2.0851
  702MOL0     H96830   5.982   9.172   5.022 -0.8617 -3.3730  0.4878
  702MOL0     H96831   5.938   9.046   4.928  1.5998 -1.0552  1.5752
  702MOL0     H96832   6.107   9.108   4.749  2.1474 -0.0896 -0.5094
  702MOL0     H96833   6.152   9.246   4.851 -1.2710  0.7503  0.9754
  702MOL0     H96834   6.397   9.010   5.088  3.2829 -1.5870  1.3660
  702MOL0     H96835   6.620   8.967   5.177 -0.1820 -2.7864 -1.1332
  702MOL0     H96836   6.753   9.045   5.098 -1.1558  1.1149 -1.8593
  702MOL0     H96837   6.707   8.874   5.054  0.5927 -0.8113  0.7759
  702MOL0     H96838   6.880   9.271   4.973 -0.9291 -1.1463 -0.7167
  702MOL0     H96839   7.130   9.295   5.046  2.2808 -1.0845  0.1499
  702MOL0     H96840   7.369   9.310   5.060  0.7124 -0.4995 -0.0588
  702MOL0     H96841   7.324   9.131   5.034  3.3777 -2.2221  2.4260
  702MOL0     H96842   7.517   9.073   4.955 -0.8906 -1.4055  1.4473
  702MOL0     H96843   7.588   9.241   4.971 -1.0840  0.8590  0.1229
  702MOL0     H96844   7.484   9.071   5.205  1.0946 -1.0477  0.5421
  702MOL0     H96845   7.539   9.244   5.215  2.6595 -0.1645  0.4542
  702MOL0     H96846   7.750   9.151   5.109 -0.8319 -0.1788 -1.1471
  702MOL0     H96847   7.698   8.991   5.170 -0.3605 -0.2562 -2.1901
  702MOL0     H96848   7.860   9.088   5.305 -0.4828  0.3654 -3.1703
  702MOL0     H96849   7.758   9.226   5.359  2.2644 -0.8434  1.2301
  702MOL0     H96850   7.723   8.928   5.391  1.0665  0.4002 -0.1784
  702MOL0     H96851   7.601   9.033   5.453  0.6991 -2.7692  1.2782
  702MOL0     H96852   7.756   9.147   5.623  0.0503  0.5233  0.6395
  702MOL0     H96853   7.881   9.042   5.556 -1.0416 -1.5169 -1.0549
  702MOL0     H96854   7.740   8.840   5.622  2.4292  0.5546 -0.9974
  702MOL0     H96855   7.614   8.946   5.674 -0.2704  2.5273 -0.5652
  702MOL0     H96856   7.240   9.207   4.641 -1.7262 -1.0148 -1.6806
  702MOL0     H96857   7.016   9.168   4.573  0.4811  2.2030 -0.3644
  702MOL0     H96858   6.559   9.115   4.642 -0.0384 -0.1203 -0.0746
  702MOL0     H96859   6.326   9.127   4.688  0.1520 -0.6603 -0.2378
  702MOL0     H96860   4.271   9.662   4.363 -1.7347  1.6818  2.9736
  702MOL0     H96861   4.024   9.637   4.388  1.9526  1.0432  2.1475
  702MOL0     H96862   3.692   9.443   4.458 -1.9940  1.4816 -1.0389
  702MOL0     H96863   3.438   9.446   4.489  2.1581 -0.2066 -3.4830
  702MOL0     H96864   3.242   9.537   4.596  0.4387 -0.6094 -0.1913
  702MOL0     H96865   3.215   9.373   4.566  1.3949  2.6170 -1.3380
  702MOL0     H96866   3.092   9.525   4.797  0.8729 -1.0218  1.3449
  702MOL0     H96867   3.073   9.351   4.769 -0.0109  0.9782  0.9463
  702MOL0     H96868   2.974   9.568   4.579 -0.3898 -0.0691 -1.3947
  702MOL0     H96869   3.000   9.400   4.530 -1.6812 -3.2409  2.1036
  702MOL0     H96870   2.794   9.540   4.700  1.7888  1.0267 -1.1439
  702MOL0     H96871   2.836   9.379   4.758  2.6227  0.2757 -0.0272
  702MOL0     H96872   2.598   9.260   4.448 -0.1451 -1.0205  1.4803
  702MOL0     H96873   3.493   9.364   4.910 -2.2037 -4.4087 -0.9915
  702MOL0     H96874   3.831   9.416   4.947 -0.2892 -1.0521  1.0189
  702MOL0     H96875   3.685   9.312   4.988 -0.0669 -0.4637 -1.2426
  702MOL0     H96876   3.811   9.255   4.893 -2.7391 -1.4286  0.0791
  703MOL0     O96877   4.367   3.927   3.820  0.1590  0.5760 -0.8257
  703MOL0     C96878   4.266   3.992   3.859 -0.2538 -0.0756 -0.7178
  703MOL0     O96879   4.241   4.122   3.832  0.1450  0.1231 -0.0891
  703MOL0     C96880   4.300   4.178   3.729  0.5091 -0.1784  0.6010
  703MOL0     C96881   4.274   4.136   3.601  0.3284 -0.2456 -0.4247
  703MOL0     C96882   4.335   4.191   3.494  0.3636  0.2658  0.5278
  703MOL0     C96883   4.435   4.296   3.519  0.1943  0.4680  0.7500
  703MOL0     O96884   4.501   4.365   3.423 -0.5104 -0.7798  0.5250
  703MOL0     C96885   4.605   4.299   3.356  0.7087 -0.1229 -0.9792
  703MOL0     C96886   4.642   4.368   3.225 -0.9002 -0.2395 -0.6934
  703MOL0     C96887   4.709   4.511   3.247  0.3847  0.1060  0.3408
  703MOL0     C96888   4.725   4.581   3.118 -0.5797 -0.1669  0.3793
  703MOL0     C96889   4.842   4.540   3.024 -0.8119  0.0017  0.5217
  703MOL0     C96890   4.980   4.599   3.065  0.8617  0.9956  0.6873
  703MOL0     C96891   5.083   4.549   2.954  0.5213 -0.3369  0.8113
  703MOL0     C96892   5.196   4.655   2.935  0.6696 -0.0401 -0.1770
  703MOL0     N96893   5.278   4.675   3.055  0.0601  0.3704 -0.2805
  703MOL0     C96894   5.367   4.579   3.099 -0.2256 -0.6312 -0.9856
  703MOL0     C96895   5.414   4.631   3.219 -0.2950  0.1115  0.1397
  703MOL0     C96896   5.498   4.559   3.321  0.2358 -1.0615 -0.2584
  703MOL0     C96897   5.406   4.504   3.436 -0.1155 -0.6222 -0.1696
  703MOL0     C96898   5.343   4.608   3.526 -0.1681  0.6301 -0.0269
  703MOL0     C96899   5.444   4.637   3.636 -1.0730 -0.4473 -0.6696
  703MOL0     O96900   5.563   4.708   3.592 -0.1402  0.8046  0.7129
  703MOL0     C96901   5.682   4.718   3.657 -0.6869 -0.2567 -0.0328
  703MOL0     C96902   5.706   4.693   3.787 -0.1705 -0.3880 -0.0954
  703MOL0     C96903   5.841   4.695   3.847  0.4039 -0.3811  0.0014
  703MOL0     C96904   5.849   4.628   3.982 -0.1907  0.0414 -0.4164
  703MOL0     C96905   5.946   4.751   3.775  0.7574 -0.2534  0.0990
  703MOL0     C96906   6.084   4.767   3.825 -0.2041  0.3592  0.3568
  703MOL0     O96907   6.169   4.847   3.753  0.4234 -0.0919  0.0808
  703MOL0     C96908   6.299   4.865   3.801  0.5604  0.4429 -0.1997
  703MOL0     C96909   6.376   4.758   3.847  0.2710  0.1649  0.1426
  703MOL0     C96910   6.493   4.789   3.927 -0.1250  0.2921 -0.7537
  703MOL0     C96911   6.540   4.917   3.949  0.1513 -0.0398 -0.1564
  703MOL0     O96912   6.648   4.964   4.021  0.0470  0.1463  0.4984
  703MOL0     C96913   6.766   4.879   4.046  0.4757 -0.7828  0.4065
  703MOL0     C96914   6.748   4.779   4.154 -0.0170 -0.6271 -1.0647
  703MOL0     C96915   6.863   4.786   4.265 -0.2715  1.0324  0.3789
  703MOL0     C96916   6.848   4.673   4.366 -0.0844  0.0372  0.0189
  703MOL0     C96917   6.984   4.670   4.451 -0.1517 -0.1092  0.2503
  703MOL0     C96918   6.987   4.559   4.555  0.3857 -0.7449 -0.4960
  703MOL0     C96919   7.126   4.545   4.623 -0.3178 -0.4517  0.4736
  703MOL0     C96920   7.141   4.396   4.667 -0.1730 -0.3664 -0.1135
  703MOL0    Cl96921   7.032   4.340   4.795 -0.2137  0.4805 -0.0389
  703MOL0     C96922   6.462   5.017   3.889  0.4254  0.5094 -0.4629
  703MOL0     C96923   6.346   4.988   3.829  0.0063 -0.2302  0.5882
  703MOL0     O96924   6.114   4.679   3.912 -0.3219 -0.5446  0.8038
  703MOL0     C96925   5.916   4.796   3.643 -0.0759  0.5666 -0.1813
  703MOL0     C96926   5.789   4.778   3.589 -0.0094  0.4707  0.6749
  703MOL0     N96927   5.362   4.758   3.225 -0.5784 -0.2353 -0.6111
  703MOL0     N96928   5.279   4.786   3.135  0.5414  0.2254  0.1523
  703MOL0     C96929   4.472   4.321   3.645  0.4077  0.1397 -0.2432
  703MOL0     C96930   4.402   4.269   3.749  0.6080  0.0232 -0.3289
  703MOL0     C96931   4.162   3.930   3.951 -0.2309 -0.1240  0.1706
  703MOL0     C96932   4.096   4.017   4.044 -0.1127  0.5580 -0.3109
  703MOL0     C96933   3.992   3.966   4.118  0.9784 -0.0563  0.3180
  703MOL0     C96934   3.956   3.834   4.111  0.5954 -0.5888 -0.0094
  703MOL0     O96935   3.852   3.780   4.174  0.5578 -0.0196  0.2180
  703MOL0     C96936   3.867   3.751   4.314  1.2212  0.7885  0.4672
  703MOL0     C96937   3.739   3.676   4.364  0.9990  0.1549  0.4450
  703MOL0     C96938   3.614   3.763   4.367  0.9891 -0.3058 -0.0815
  703MOL0     C96939   3.498   3.672   4.382  0.2442  0.2608  0.2029
  703MOL0     C96940   3.379   3.757   4.390 -0.4945  0.8134  0.2784
  703MOL0     C96941   3.265   3.799   4.410  0.0331 -0.4848 -0.6248
  703MOL0     C96942   4.017   3.754   4.023  0.1854 -0.2307 -0.7533
  703MOL0     C96943   4.121   3.798   3.936  0.1592 -0.6666  0.3466
  703MOL0     C96944   4.172   3.707   3.837 -0.0025  0.4258  0.7043
  703MOL0     H96945   4.197   4.059   3.599  1.1936 -1.3128  2.7227
  703MOL0     H96946   4.298   4.169   3.394  1.5442 -0.8450  0.3095
  703MOL0     H96947   4.577   4.197   3.330 -0.2088 -0.3342  0.7501
  703MOL0     H96948   4.691   4.304   3.423 -0.0169  1.0085 -0.0976
  703MOL0     H96949   4.717   4.309   3.172  1.3807  3.5323 -2.1250
  703MOL0     H96950   4.550   4.371   3.168 -1.2425 -0.8349 -0.1789
  703MOL0     H96951   4.643   4.570   3.312 -0.0625  1.0647 -0.9501
  703MOL0     H96952   4.809   4.504   3.291  1.8785 -1.7392 -2.9695
  703MOL0     H96953   4.631   4.576   3.061 -0.2193 -1.1717 -0.1393
  703MOL0     H96954   4.735   4.689   3.134  4.4297 -0.1342 -1.2259
  703MOL0     H96955   4.800   4.550   2.924 -0.8799  2.5176  0.7463
  703MOL0     H96956   4.862   4.433   3.034 -0.9644  0.0813  1.9747
  703MOL0     H96957   4.971   4.708   3.062 -2.9746  0.8580 -3.4402
  703MOL0     H96958   5.020   4.564   3.161 -1.3081 -0.6417  1.0667
  703MOL0     H96959   5.034   4.540   2.857 -0.4342 -1.1546  1.3519
  703MOL0     H96960   5.123   4.449   2.975  2.4108  0.3236  0.6197
  703MOL0     H96961   5.257   4.635   2.847  2.2979 -0.7330  1.0549
  703MOL0     H96962   5.145   4.751   2.927  0.5333  0.0818  1.6014
  703MOL0     H96963   5.387   4.478   3.065 -0.8060 -0.7399 -1.0135
  703MOL0     H96964   5.574   4.630   3.353 -1.9147  2.2125 -1.8944
  703MOL0     H96965   5.534   4.472   3.264 -0.9257 -1.4076 -0.4992
  703MOL0     H96966   5.315   4.458   3.395 -0.4658 -1.4156  1.4117
  703MOL0     H96967   5.450   4.424   3.496  2.3125 -0.7117 -1.9150
  703MOL0     H96968   5.316   4.698   3.470 -1.2710 -0.0835 -0.6786
  703MOL0     H96969   5.253   4.569   3.574  0.6504 -0.5664  0.5745
  703MOL0     H96970   5.390   4.706   3.701 -1.9878 -0.2795 -1.5850
  703MOL0     H96971   5.467   4.539   3.680  0.6237 -0.1104 -0.7172
  703MOL0     H96972   5.624   4.650   3.845  1.5760 -1.4403  1.7113
  703MOL0     H96973   5.866   4.703   4.060  2.6271 -0.2156 -0.6772
  703MOL0     H96974   5.930   4.555   3.989 -0.1538  0.1410  0.2915
  703MOL0     H96975   5.762   4.563   3.997  0.4914 -2.5200 -5.5142
  703MOL0     H96976   6.362   4.652   3.830  1.7179 -1.0761  4.9044
  703MOL0     H96977   6.552   4.718   3.984  0.1359  1.1967  0.1340
  703MOL0     H96978   6.789   4.824   3.954  2.6603 -0.4856  0.7142
  703MOL0     H96979   6.855   4.938   4.071  0.8711 -1.3278  0.3072
  703MOL0     H96980   6.647   4.798   4.192 -0.2363  1.1169 -2.4213
  703MOL0     H96981   6.747   4.676   4.118  0.8678 -0.5697 -1.2696
  703MOL0     H96982   6.873   4.880   4.319  2.7881  0.9647  0.0794
  703MOL0     H96983   6.955   4.761   4.211 -0.8576 -0.8914  0.1742
  703MOL0     H96984   6.832   4.581   4.308 -0.3132  0.8431 -1.2288
  703MOL0     H96985   6.763   4.691   4.432  0.2876  0.8145  0.3054
  703MOL0     H96986   7.078   4.687   4.398  0.2780  1.4121  1.4359
  703MOL0     H96987   6.992   4.761   4.511 -0.4374 -1.3310  2.2482
  703MOL0     H96988   6.973   4.463   4.505  1.7953  0.2015 -2.8714
  703MOL0     H96989   6.903   4.581   4.622 -0.5444  2.3585 -2.4953
  703MOL0     H96990   7.130   4.609   4.711  1.0696 -2.2152  1.7848
  703MOL0     H96991   7.200   4.576   4.549 -0.8706 -2.4156 -0.9966
  703MOL0     H96992   7.241   4.386   4.709 -1.4634 -1.6286  2.9423
  703MOL0     H96993   7.119   4.332   4.581 -2.6041  0.8902 -0.5143
  703MOL0     H96994   6.496   5.120   3.889 -1.1352  1.0760  0.9592
  703MOL0     H96995   6.293   5.070   3.782  1.6878  0.1044 -0.8356
  703MOL0     H96996   6.000   4.837   3.586  0.7274  0.4339  0.8740
  703MOL0     H96997   5.772   4.828   3.494  0.3965 -0.4497  0.0975
  703MOL0     H96998   4.552   4.394   3.653  0.3333  0.4374 -1.9550
  703MOL0     H96999   4.416   4.309   3.849  1.7221  0.0608 -0.4883
  703MOL0     H97000   4.114   4.124   4.046  0.3743  0.4678  0.6400
  703MOL0     H97001   3.936   4.028   4.187 -1.6564 -1.8733 -0.0417
  703MOL0     H97002   3.958   3.693   4.334  0.4810  0.5235  3.5157
  703MOL0     H97003   3.878   3.845   4.368  0.3135 -0.7600  3.5660
  703MOL0     H97004   3.751   3.630   4.462  0.6643  0.9337  0.8542
  703MOL0     H97005   3.728   3.593   4.294  1.8244  1.8062 -1.7791
  703MOL0     H97006   3.620   3.828   4.455 -1.8881  0.8016 -0.5688
  703MOL0     H97007   3.608   3.818   4.272 -0.5315 -2.7896 -1.5445
  703MOL0     H97008   3.522   3.619   4.475 -1.1502 -1.8720 -0.5602
  703MOL0     H97009   3.508   3.597   4.303  1.0639 -0.7291  1.2157
  703MOL0     H97010   3.176   3.849   4.444 -0.7044 -0.3534 -2.6358
  703MOL0     H97011   3.975   3.654   4.022 -1.7420  0.5355 -1.5572
  703MOL0     H97012   4.123   3.610   3.851  0.8428 -0.5147 -2.1319
  703MOL0     H97013   4.159   3.742   3.734 -1.4264 -2.0634 -0.0628
  703MOL0     H97014   4.277   3.679   3.844 -0.4718 -2.1117 -0.9132
  704MOL0     O97015  10.287   1.514   8.339  0.0472  0.4219 -0.1121
  704MOL0     C97016  10.221   1.560   8.433  0.4990  0.7500  0.7802
  704MOL0     O97017  10.272   1.624   8.541 -0.1402  0.2532 -0.1175
  704MOL0     C97018  10.408   1.628   8.562  0.1906 -0.1718 -1.1234
  704MOL0     C97019  10.501   1.527   8.533  0.0014  0.1998  1.2532
  704MOL0     C97020  10.636   1.536   8.576  0.1629 -0.5856 -0.8865
  704MOL0     C97021  10.684   1.646   8.645 -0.2118  0.3535  0.7863
  704MOL0     O97022  10.810   1.663   8.680  0.7774 -1.0380  0.7113
  704MOL0     C97023  10.862   1.551   8.751  0.2619 -0.1307 -0.2886
  704MOL0     C97024  11.004   1.570   8.816 -0.3926 -0.3594  0.2489
  704MOL0     C97025  11.059   1.441   8.883  0.3384  0.6466 -1.0724
  704MOL0     C97026  11.175   1.460   8.983  0.1373  0.2240 -0.6181
  704MOL0     C97027  11.232   1.326   9.026 -0.3457  0.2475 -0.5822
  704MOL0     C97028  11.360   1.352   9.104 -0.8193  0.2787  0.0723
  704MOL0     C97029  11.427   1.213   9.132  0.4118  0.1546 -0.7520
  704MOL0     C97030  11.569   1.246   9.191 -0.0493 -0.4501 -0.3803
  704MOL0     N97031  11.654   1.124   9.218  0.7310 -0.8888 -0.0229
  704MOL0     C97032  11.692   1.027   9.126 -0.8791  0.0725  0.2797
  704MOL0     C97033  11.767   0.937   9.203  0.3211 -0.4472  0.3290
  704MOL0     C97034  11.845   0.811   9.162 -0.6459 -0.3105  0.3506
  704MOL0     C97035  11.996   0.850   9.155  0.3699 -0.4365  0.4341
  704MOL0     C97036  12.064   0.882   9.287  0.3549  0.0365  0.3367
  704MOL0     C97037  12.214   0.891   9.289 -0.0002  0.5231  0.0087
  704MOL0     O97038  12.245   1.015   9.220  0.2709 -0.0680  0.1849
  704MOL0     C97039  12.371   1.041   9.179 -0.1335  0.7149  0.1280
  704MOL0     C97040  12.397   1.161   9.112  0.0177 -0.3949  0.0584
  704MOL0     C97041  12.520   1.192   9.065  0.1711  0.5513 -0.1108
  704MOL0     C97042  12.538   1.308   8.968 -0.3935 -0.7168 -0.1100
  704MOL0     C97043  12.630   1.099   9.089 -0.3900 -0.3613  1.0624
  704MOL0     C97044  12.772   1.113   9.033 -0.3660 -0.3502 -0.1430
  704MOL0     O97045  12.842   0.997   9.035 -0.5229  0.3246 -0.4642
  704MOL0     C97046  12.978   0.999   8.986  1.0865  0.3151 -0.1305
  704MOL0     C97047  13.006   1.007   8.845 -0.0848  0.0429  0.0299
  704MOL0     C97048  13.136   0.980   8.805 -0.9001  0.5581 -0.3512
  704MOL0     C97049  13.243   0.962   8.904 -0.6298  0.0213  1.4177
  704MOL0     O97050  13.377   0.945   8.879 -0.0555  0.3246  0.5302
  704MOL0     C97051  13.423   1.006   8.752 -0.5147  0.2870  0.0620
  704MOL0     C97052  13.573   0.990   8.742 -0.1067 -0.1168 -0.1116
  704MOL0     C97053  13.641   0.851   8.760  0.1127 -0.3801 -0.0129
  704MOL0     C97054  13.794   0.867   8.747 -0.0498 -0.3167  0.5262
  704MOL0     C97055  13.868   0.731   8.745  0.1245  0.0984  0.2917
  704MOL0     C97056  14.007   0.760   8.750  0.4269  0.9246  0.2776
  704MOL0     C97057  14.079   0.628   8.764 -0.6658 -0.2017  0.7375
  704MOL0     C97058  14.219   0.661   8.723  0.2159  0.6229  0.0690
  704MOL0    Cl97059  14.312   0.765   8.839 -0.4697  0.0044  0.1906
  704MOL0     C97060  13.210   0.968   9.034  0.0595 -0.0673 -0.7280
  704MOL0     C97061  13.078   0.984   9.078 -0.5365 -0.6700  0.2090
  704MOL0     O97062  12.820   1.221   9.001  0.1227 -0.2177 -0.1850
  704MOL0     C97063  12.608   0.976   9.156 -0.1308 -0.0803 -0.2909
  704MOL0     C97064  12.478   0.951   9.199 -0.0720 -0.2752 -0.5152
  704MOL0     N97065  11.775   0.997   9.331 -0.5510 -0.4739 -0.1544
  704MOL0     N97066  11.698   1.098   9.343 -0.1999 -0.1828 -0.4597
  704MOL0     C97067  10.592   1.743   8.669 -0.5352  0.2363 -0.3081
  704MOL0     C97068  10.454   1.731   8.638 -0.7074 -0.0504 -0.0333
  704MOL0     C97069  10.074   1.561   8.425  0.1038  0.2949 -0.4588
  704MOL0     C97070  10.008   1.613   8.538  0.3527  0.6352  0.4538
  704MOL0     C97071   9.864   1.603   8.542 -0.6817 -0.0456 -1.0695
  704MOL0     C97072   9.790   1.554   8.439 -0.2958 -0.0636 -0.2544
  704MOL0     O97073   9.659   1.537   8.456 -0.3198 -0.2556 -0.0967
  704MOL0     C97074   9.583   1.656   8.440  0.5268  0.8967 -0.7119
  704MOL0     C97075   9.437   1.605   8.460 -0.1129 -1.1236  0.4943
  704MOL0     C97076   9.380   1.647   8.594  1.5152 -0.1796 -0.3433
  704MOL0     C97077   9.231   1.656   8.597  0.0922 -0.0451 -0.4792
  704MOL0     C97078   9.183   1.773   8.523  1.0358  0.1550 -0.0886
  704MOL0     C97079   9.128   1.865   8.465 -0.6921 -0.5254 -0.1852
  704MOL0     C97080   9.860   1.486   8.334  0.7820  0.0678  0.0042
  704MOL0     C97081   9.997   1.488   8.327 -0.9603  0.4019 -0.4321
  704MOL0     C97082  10.063   1.408   8.211 -0.0302  0.2019  0.2880
  704MOL0     H97083  10.479   1.437   8.478  1.1014 -1.5302  3.4515
  704MOL0     H97084  10.708   1.465   8.537  2.3290  1.3628 -0.6334
  704MOL0     H97085  10.861   1.470   8.679  1.8489  0.6350 -1.2130
  704MOL0     H97086  10.791   1.523   8.830  1.6574 -4.0649 -0.2401
  704MOL0     H97087  11.074   1.603   8.740 -0.5420 -0.5016  0.0483
  704MOL0     H97088  10.996   1.653   8.887 -2.5156  0.5854 -0.9970
  704MOL0     H97089  10.974   1.385   8.924 -0.5316  1.9273 -1.0764
  704MOL0     H97090  11.081   1.383   8.792  0.1704  1.3589 -1.5793
  704MOL0     H97091  11.250   1.524   8.937  0.8024 -0.4572 -0.4927
  704MOL0     H97092  11.146   1.519   9.071 -0.1466 -0.8305  0.0230
  704MOL0     H97093  11.244   1.267   8.935 -0.8456 -0.2852 -0.3126
  704MOL0     H97094  11.155   1.279   9.089 -0.3908  1.7000  0.4949
  704MOL0     H97095  11.434   1.417   9.056 -1.1707  2.3627  2.1467
  704MOL0     H97096  11.341   1.410   9.195 -0.4987  0.9852 -0.3047
  704MOL0     H97097  11.433   1.153   9.040  1.0213  0.8243 -1.1532
  704MOL0     H97098  11.363   1.163   9.206 -0.1723  0.6903 -0.8864
  704MOL0     H97099  11.621   1.308   9.117 -0.4419 -0.2331 -0.4774
  704MOL0     H97100  11.555   1.294   9.288 -3.3947 -0.6847 -0.6197
  704MOL0     H97101  11.674   1.013   9.020  3.1074  1.9357 -0.8043
  704MOL0     H97102  11.806   0.769   9.069 -3.1471  1.2391  0.6282
  704MOL0     H97103  11.842   0.737   9.243 -2.3788 -1.7351 -0.9376
  704MOL0     H97104  12.055   0.775   9.102  1.1302 -0.2220  0.9689
  704MOL0     H97105  12.004   0.942   9.095 -1.9013  1.5618  2.9371
  704MOL0     H97106  12.021   0.977   9.319 -3.3556 -1.0458 -0.9913
  704MOL0     H97107  12.035   0.808   9.363  0.8222  0.9914  1.4784
  704MOL0     H97108  12.256   0.895   9.390  1.1524  2.1818 -0.4895
  704MOL0     H97109  12.258   0.809   9.232  0.5069  0.1458  0.9207
  704MOL0     H97110  12.308   1.220   9.090 -1.0836 -1.2375  1.9967
  704MOL0     H97111  12.463   1.383   8.996 -1.3223 -2.4692  2.5493
  704MOL0     H97112  12.512   1.269   8.870 -2.6089  1.2598 -0.3950
  704MOL0     H97113  12.634   1.361   8.959 -1.2412  1.4637  2.1938
  704MOL0     H97114  12.912   1.024   8.793 -0.0326  0.1301 -0.0356
  704MOL0     H97115  13.172   0.981   8.702  2.9316 -2.1170  0.7529
  704MOL0     H97116  13.378   0.952   8.668 -3.5506 -0.8645  2.2479
  704MOL0     H97117  13.388   1.108   8.736 -0.0542  0.1474 -2.0942
  704MOL0     H97118  13.602   1.033   8.646 -0.0389  1.4760  0.5768
  704MOL0     H97119  13.606   1.060   8.820 -1.0719 -0.1851  0.3743
  704MOL0     H97120  13.608   0.776   8.687  0.4371  0.2913 -0.8623
  704MOL0     H97121  13.607   0.816   8.858  0.8268 -2.8617 -0.5843
  704MOL0     H97122  13.827   0.928   8.832 -0.1944  0.9457 -0.3041
  704MOL0     H97123  13.827   0.921   8.658  0.0561 -1.4727 -0.1528
  704MOL0     H97124  13.837   0.670   8.830 -2.6399  0.6431 -0.2219
  704MOL0     H97125  13.831   0.674   8.659 -1.3172 -4.2926  3.4339
  704MOL0     H97126  14.032   0.833   8.828 -0.0394  0.7453  0.5996
  704MOL0     H97127  14.034   0.814   8.659  2.7810  2.1640  1.6087
  704MOL0     H97128  14.045   0.555   8.690 -1.0508 -0.9206  1.5928
  704MOL0     H97129  14.075   0.588   8.866 -0.6100  0.3419  0.9541
  704MOL0     H97130  14.217   0.701   8.621 -0.9205 -0.2148 -0.2641
  704MOL0     H97131  14.277   0.568   8.717 -0.0668  0.3344  1.5812
  704MOL0     H97132  13.294   0.963   9.103  0.0307  1.5414 -0.5444
  704MOL0     H97133  13.065   0.975   9.186 -3.0828  1.7703  0.2127
  704MOL0     H97134  12.689   0.908   9.178 -0.8750 -1.4325 -1.5699
  704MOL0     H97135  12.459   0.855   9.247  1.5629 -2.2114 -3.4408
  704MOL0     H97136  10.626   1.834   8.717 -0.4830  0.0106  0.0930
  704MOL0     H97137  10.390   1.815   8.660 -0.2929  0.6790 -1.5199
  704MOL0     H97138  10.066   1.660   8.617  1.3086 -2.0403  1.4692
  704MOL0     H97139   9.810   1.632   8.632  0.1602  0.6068 -0.7600
  704MOL0     H97140   9.616   1.731   8.512  0.4028  1.4561 -1.2301
  704MOL0     H97141   9.586   1.699   8.339  2.5841  2.1751 -0.1646
  704MOL0     H97142   9.424   1.497   8.454  0.8739 -1.3046  1.4306
  704MOL0     H97143   9.378   1.634   8.372  2.6420  2.6944 -0.3592
  704MOL0     H97144   9.408   1.571   8.668 -1.6580 -0.0160  1.2144
  704MOL0     H97145   9.428   1.742   8.620  0.5586  0.3549 -0.4860
  704MOL0     H97146   9.202   1.662   8.702 -1.5006 -0.5114 -0.8725
  704MOL0     H97147   9.192   1.565   8.550 -0.3215 -1.1747  1.9208
  704MOL0     H97148   9.077   1.948   8.420 -1.7491  0.3484  2.4403
  704MOL0     H97149   9.792   1.433   8.268  1.9869 -0.5124 -0.8182
  704MOL0     H97150  10.150   1.465   8.177  0.3916 -1.0263 -0.7873
  704MOL0     H97151  10.103   1.318   8.258 -0.4203  0.8907  2.0250
  704MOL0     H97152  10.003   1.385   8.122  2.6269 -1.4385 -1.2088
  705MOL0     O97153   0.421   0.974   8.299 -0.0375 -0.2871  0.0005
  705MOL0     C97154   0.355   0.899   8.227  0.2365  0.0292  0.3071
  705MOL0     O97155   0.393   0.777   8.188  0.4244  0.0357  0.2789
  705MOL0     C97156   0.514   0.739   8.240  0.9585 -0.3549  0.2458
  705MOL0     C97157   0.628   0.769   8.167 -0.2117  0.2798 -1.3996
  705MOL0     C97158   0.748   0.724   8.220 -0.0776 -0.1620 -0.0423
  705MOL0     C97159   0.752   0.635   8.337 -0.1859 -0.4092  0.6159
  705MOL0     O97160   0.867   0.592   8.395 -0.4813  0.4552  0.0488
  705MOL0     C97161   0.978   0.561   8.307 -0.5474  0.1982 -0.4506
  705MOL0     C97162   1.098   0.491   8.372 -0.8118 -0.0962 -0.3234
  705MOL0     C97163   1.204   0.579   8.438  0.2933  0.3781 -0.2584
  705MOL0     C97164   1.311   0.483   8.490 -0.3480 -1.1035 -0.2155
  705MOL0     C97165   1.435   0.565   8.539  0.4887  0.9013 -0.5892
  705MOL0     C97166   1.527   0.593   8.422  0.3147 -0.3601  0.2165
  705MOL0     C97167   1.658   0.662   8.466  0.0670  0.0421  0.0841
  705MOL0     C97168   1.742   0.558   8.538 -0.5468  0.6268  0.1492
  705MOL0     N97169   1.880   0.588   8.509  0.7387  0.3880 -0.3488
  705MOL0     C97170   1.970   0.499   8.456 -0.3783  0.6973 -0.0792
  705MOL0     C97171   2.078   0.583   8.433  0.0528  0.0322 -0.2349
  705MOL0     C97172   2.200   0.533   8.382  0.1637  0.3169  0.6718
  705MOL0     C97173   2.298   0.645   8.343  0.2921  0.0921 -0.0383
  705MOL0     C97174   2.417   0.605   8.260 -0.2266  0.1116 -0.0187
  705MOL0     C97175   2.514   0.499   8.318 -0.9461  0.0457 -0.2967
  705MOL0     O97176   2.596   0.580   8.404 -0.4035  0.2778 -0.6286
  705MOL0     C97177   2.735   0.552   8.388  1.0708 -0.2440 -0.2949
  705MOL0     C97178   2.778   0.425   8.424 -0.2126 -0.2849  0.3008
  705MOL0     C97179   2.910   0.392   8.425 -0.2170  0.2254  0.8084
  705MOL0     C97180   2.942   0.255   8.475  0.0617 -0.2134  0.6591
  705MOL0     C97181   3.003   0.483   8.374 -0.6369  0.4370  0.9367
  705MOL0     C97182   3.149   0.467   8.348 -1.1558 -0.0491  0.4142
  705MOL0     O97183   3.211   0.365   8.409  0.4553 -0.0026 -0.7400
  705MOL0     C97184   3.349   0.363   8.418 -0.1103  0.0663 -0.7076
  705MOL0     C97185   3.447   0.372   8.313 -0.3241  0.2080  0.8152
  705MOL0     C97186   3.584   0.346   8.354  0.0162 -0.3671  0.7648
  705MOL0     C97187   3.624   0.304   8.480 -0.2806 -0.1408  0.2546
  705MOL0     O97188   3.755   0.255   8.505  0.1848  0.0625 -0.4516
  705MOL0     C97189   3.761   0.140   8.598 -0.0541  0.4136 -0.1729
  705MOL0     C97190   3.907   0.080   8.612 -0.2656  0.4183  0.0187
  705MOL0     C97191   3.974   0.065   8.471 -0.5725  0.1770 -0.0702
  705MOL0     C97192   4.106  -0.018   8.481  0.9073 -0.4869 -0.1814
  705MOL0     C97193   4.132  -0.099   8.353 -0.5347  0.4668  0.3863
  705MOL0     C97194   4.182  -0.018   8.238  0.1269  0.4967 -0.1159
  705MOL0     C97195   4.179  -0.108   8.104 -0.1253 -0.9000 -0.3227
  705MOL0     C97196   4.216  -0.036   7.976 -0.1049  0.1883 -0.0545
  705MOL0    Cl97197   4.215  -0.159   7.844 -0.0392  0.5831 -0.2794
  705MOL0     C97198   3.524   0.300   8.579  0.3730 -0.4460 -0.5489
  705MOL0     C97199   3.391   0.327   8.545 -0.3876 -0.3878 -0.4354
  705MOL0     O97200   3.203   0.557   8.292 -1.2210 -0.7242  0.6206
  705MOL0     C97201   2.949   0.608   8.327  0.1153 -0.0437  0.1849
  705MOL0     C97202   2.815   0.646   8.338 -0.2078 -0.2475  0.0235
  705MOL0     N97203   2.051   0.712   8.474 -0.0180  0.4929 -1.3910
  705MOL0     N97204   1.934   0.712   8.525  0.2066 -0.1960  0.6039
  705MOL0     C97205   0.632   0.603   8.401 -0.1559  0.4596  0.4246
  705MOL0     C97206   0.512   0.660   8.359  0.2004  0.4796 -0.2224
  705MOL0     C97207   0.223   0.952   8.179  0.1054  0.3635 -0.9834
  705MOL0     C97208   0.194   1.086   8.222  0.3247  1.0141 -0.4121
  705MOL0     C97209   0.068   1.134   8.191 -0.7571  0.3142 -0.1194
  705MOL0     C97210  -0.034   1.064   8.120 -0.6585  0.0790 -1.1742
  705MOL0     O97211  -0.154   1.115   8.092  0.0624  0.6281 -0.4423
  705MOL0     C97212  -0.199   1.248   8.126 -0.0894  0.0387 -0.2044
  705MOL0     C97213  -0.330   1.296   8.064 -0.8757  0.8650  0.5793
  705MOL0     C97214  -0.332   1.305   7.905  0.0019 -0.9928 -0.8794
  705MOL0     C97215  -0.250   1.421   7.848 -0.1995  0.5059 -1.4484
  705MOL0     C97216  -0.318   1.550   7.867  0.3324  0.4141  0.1240
  705MOL0     C97217  -0.370   1.658   7.875  0.0428 -0.4747  0.7933
  705MOL0     C97218   0.006   0.938   8.070  0.2901 -0.8676  0.5704
  705MOL0     C97219   0.136   0.884   8.093  0.6284 -0.6299  0.7811
  705MOL0     C97220   0.162   0.750   8.025 -0.0241  0.5219 -0.3412
  705MOL0     H97221   0.627   0.826   8.075 -0.4921  2.9689  0.1647
  705MOL0     H97222   0.841   0.757   8.176 -0.7171 -2.1090 -3.1968
  705MOL0     H97223   1.023   0.653   8.268  3.0781 -1.5211 -0.7340
  705MOL0     H97224   0.936   0.518   8.216 -1.9289  1.3395 -0.3886
  705MOL0     H97225   1.061   0.417   8.444  0.2120  0.0525  0.3810
  705MOL0     H97226   1.144   0.430   8.294  0.3475 -0.1230  0.3566
  705MOL0     H97227   1.237   0.654   8.365  0.8720 -0.2651 -0.6659
  705MOL0     H97228   1.149   0.637   8.513 -1.1359  0.2810 -1.2100
  705MOL0     H97229   1.265   0.427   8.572 -3.0109  1.3446  0.1262
  705MOL0     H97230   1.340   0.414   8.410 -2.9843 -2.1220 -0.3879
  705MOL0     H97231   1.488   0.509   8.616  1.7582 -0.0282 -2.0778
  705MOL0     H97232   1.400   0.658   8.585 -2.6525  1.1021 -3.0094
  705MOL0     H97233   1.549   0.507   8.359 -3.6592  0.3778 -2.5505
  705MOL0     H97234   1.466   0.661   8.362 -1.0288 -1.3737  0.3887
  705MOL0     H97235   1.634   0.742   8.536 -2.8609  0.3074 -1.0714
  705MOL0     H97236   1.716   0.697   8.381 -2.4060  3.0622 -0.5386
  705MOL0     H97237   1.737   0.545   8.646 -0.4409 -1.4098 -0.0591
  705MOL0     H97238   1.716   0.465   8.487 -1.5802  0.3136  1.2266
  705MOL0     H97239   1.973   0.393   8.433  0.4972  0.8350 -0.6729
  705MOL0     H97240   2.190   0.461   8.300  1.9188 -0.5029  1.1313
  705MOL0     H97241   2.255   0.484   8.463 -1.8007 -1.5611  0.9657
  705MOL0     H97242   2.250   0.725   8.286  0.5033  1.6030  1.8031
  705MOL0     H97243   2.316   0.701   8.435  1.1588  0.8574 -0.6578
  705MOL0     H97244   2.376   0.562   8.168  3.3714 -2.6313 -0.5796
  705MOL0     H97245   2.478   0.687   8.220  1.7647 -1.0948  0.3666
  705MOL0     H97246   2.477   0.414   8.376  1.8381  0.7762  2.8090
  705MOL0     H97247   2.568   0.459   8.231  0.8078 -1.5038  1.4324
  705MOL0     H97248   2.706   0.362   8.474 -1.9530  0.2770 -1.3875
  705MOL0     H97249   2.850   0.197   8.459  1.5742 -3.4883  2.7429
  705MOL0     H97250   2.980   0.262   8.577  2.4606  0.1919 -0.1948
  705MOL0     H97251   3.017   0.202   8.415 -1.0252 -1.4726  0.3636
  705MOL0     H97252   3.416   0.389   8.211  0.6808 -0.2801  0.4245
  705MOL0     H97253   3.662   0.328   8.281 -1.3903 -0.5619 -0.7393
  705MOL0     H97254   3.721   0.173   8.694 -1.8617  1.0290 -1.1019
  705MOL0     H97255   3.699   0.060   8.556 -1.1330 -0.4631  2.7692
  705MOL0     H97256   3.973   0.144   8.671  0.2445  0.0242 -0.1266
  705MOL0     H97257   3.897  -0.016   8.662 -0.3307 -0.0541 -0.8781
  705MOL0     H97258   4.001   0.161   8.427 -2.6241  0.6884 -0.3224
  705MOL0     H97259   3.910   0.011   8.401  1.1117 -0.6821 -0.9892
  705MOL0     H97260   4.096  -0.092   8.561 -0.1325  1.7098  1.8388
  705MOL0     H97261   4.188   0.052   8.498 -0.3544  0.9550  0.1507
  705MOL0     H97262   4.208  -0.175   8.376 -0.2303 -0.1119 -2.2976
  705MOL0     H97263   4.042  -0.152   8.321 -0.2498 -0.7183  1.4476
  705MOL0     H97264   4.281   0.021   8.264  1.7778 -2.2999 -1.7426
  705MOL0     H97265   4.107   0.059   8.224 -0.1052  0.4425  0.7638
  705MOL0     H97266   4.079  -0.153   8.102 -0.9454  0.5952  2.1665
  705MOL0     H97267   4.256  -0.185   8.114  0.4608 -0.2666  0.0794
  705MOL0     H97268   4.314   0.009   7.994  0.5532 -1.6523  1.2900
  705MOL0     H97269   4.152   0.049   7.953  0.9311  1.4110  1.4534
  705MOL0     H97270   3.541   0.285   8.685 -2.8477  0.3760  0.2190
  705MOL0     H97271   3.313   0.323   8.621 -0.0554  1.0099  0.0103
  705MOL0     H97272   3.012   0.687   8.286 -1.7659 -0.7505 -4.8726
  705MOL0     H97273   2.765   0.737   8.305  0.2709  0.9051  2.2577
  705MOL0     H97274   0.635   0.529   8.481  2.0292  2.1055  1.9623
  705MOL0     H97275   0.421   0.623   8.405  0.4869 -0.7944 -0.6523
  705MOL0     H97276   0.257   1.156   8.275  0.4482 -0.0176  0.8408
  705MOL0     H97277   0.060   1.240   8.211 -1.0652  0.2830 -0.0698
  705MOL0     H97278  -0.212   1.253   8.234  0.7878 -0.2141 -0.0753
  705MOL0     H97279  -0.126   1.320   8.087  0.7242 -0.7661 -0.1882
  705MOL0     H97280  -0.341   1.400   8.094 -0.8525  1.2964 -0.8163
  705MOL0     H97281  -0.414   1.237   8.103 -0.6591  0.5252  0.5389
  705MOL0     H97282  -0.295   1.209   7.866  0.9668 -0.6957 -0.7053
  705MOL0     H97283  -0.438   1.310   7.877 -0.3486  1.1767  0.5821
  705MOL0     H97284  -0.243   1.419   7.739 -0.5721 -2.5947 -1.5093
  705MOL0     H97285  -0.151   1.410   7.894  0.4966 -0.8840 -3.1556
  705MOL0     H97286  -0.421   1.752   7.883  1.5320  0.3524  0.9015
  705MOL0     H97287  -0.067   0.882   8.012  1.7143 -3.0593  0.7993
  705MOL0     H97288   0.180   0.663   8.088  0.5294  1.1498  0.3931
  705MOL0     H97289   0.079   0.731   7.957  0.0929 -0.8296 -0.1388
  705MOL0     H97290   0.259   0.754   7.973  0.2349  0.3684  0.1280
  706MOL0     O97291   7.286   5.501   1.673 -0.4327 -0.1937 -1.0053
  706MOL0     C97292   7.236   5.598   1.723  0.3044 -0.6691  0.8200
  706MOL0     O97293   7.281   5.652   1.834  0.2872 -0.3138 -0.2831
  706MOL0     C97294   7.415   5.653   1.868 -0.1258 -0.2798  0.5200
  706MOL0     C97295   7.513   5.720   1.788 -0.0670  0.1824  0.2915
  706MOL0     C97296   7.648   5.724   1.834  0.4576 -0.5873 -0.1641
  706MOL0     C97297   7.684   5.659   1.948  1.2096  0.7111 -0.3799
  706MOL0     O97298   7.820   5.652   1.983 -0.4305  0.1727  0.3617
  706MOL0     C97299   7.860   5.570   2.093 -0.4962 -0.5486 -0.7736
  706MOL0     C97300   8.004   5.523   2.077 -0.9920  0.2942 -0.4122
  706MOL0     C97301   8.106   5.614   1.999 -0.0448 -0.8030 -0.2083
  706MOL0     C97302   8.229   5.545   1.942 -0.5460 -0.0782 -0.5265
  706MOL0     C97303   8.327   5.653   1.883 -0.7203  0.6733 -0.1155
  706MOL0     C97304   8.387   5.734   1.996 -0.2776  0.1034  0.1914
  706MOL0     C97305   8.501   5.818   1.934 -0.2386  0.2384 -0.2886
  706MOL0     C97306   8.435   5.922   1.839  0.0844 -0.0084 -0.6525
  706MOL0     N97307   8.534   6.028   1.826 -0.1205  1.2073 -0.2745
  706MOL0     C97308   8.640   6.018   1.739  0.5416 -0.3395  0.1361
  706MOL0     C97309   8.673   6.148   1.711 -0.1409 -0.3940 -0.2652
  706MOL0     C97310   8.800   6.191   1.639 -1.4292  0.5963 -0.4139
  706MOL0     C97311   8.848   6.082   1.546 -0.9263 -0.4597  0.5119
  706MOL0     C97312   8.950   6.132   1.445 -0.2873 -0.4093  0.2909
  706MOL0     C97313   8.969   6.034   1.330  0.6045 -0.5530  0.1297
  706MOL0     O97314   9.032   5.923   1.391  0.4321 -0.3871  0.2009
  706MOL0     C97315   8.988   5.801   1.357  0.0523 -0.4112 -0.0269
  706MOL0     C97316   9.084   5.703   1.321 -0.5302 -0.0242 -0.9216
  706MOL0     C97317   9.040   5.570   1.284 -0.4311 -0.3226 -0.0131
  706MOL0     C97318   9.155   5.472   1.252 -1.1842 -0.2046 -0.3715
  706MOL0     C97319   8.907   5.537   1.292 -0.1626 -0.2614  0.1990
  706MOL0     C97320   8.854   5.405   1.243 -0.8134  0.2747 -0.6534
  706MOL0     O97321   8.723   5.377   1.287  0.4974 -0.4005  0.0475
  706MOL0     C97322   8.668   5.249   1.268 -0.5220 -0.2120  0.5509
  706MOL0     C97323   8.542   5.244   1.202 -0.1968 -0.3044 -0.5601
  706MOL0     C97324   8.469   5.126   1.194 -0.4713  0.4234  0.6278
  706MOL0     C97325   8.524   5.012   1.240  0.1346 -0.0094  0.3015
  706MOL0     O97326   8.467   4.884   1.228 -0.4103 -0.4537 -0.2156
  706MOL0     C97327   8.394   4.852   1.109 -0.3474 -0.1837  0.6657
  706MOL0     C97328   8.313   4.721   1.117 -0.0413  0.4654  0.3305
  706MOL0     C97329   8.186   4.728   1.196 -0.9497 -0.9808  0.5317
  706MOL0     C97330   8.142   4.601   1.267  0.1623 -0.5532 -0.2918
  706MOL0     C97331   8.028   4.625   1.357 -0.3101 -1.1703 -0.2026
  706MOL0     C97332   7.962   4.490   1.392  0.2933  0.5438 -0.4536
  706MOL0     C97333   7.861   4.491   1.502  0.2073 -0.0060  0.1328
  706MOL0     C97334   7.841   4.350   1.555  0.3519  0.0425 -0.6497
  706MOL0    Cl97335   7.768   4.243   1.426  0.4783 -0.3815 -0.4275
  706MOL0     C97336   8.657   5.010   1.281  0.2708  1.4298 -1.6512
  706MOL0     C97337   8.731   5.128   1.304 -0.6444  0.4766  0.3933
  706MOL0     O97338   8.922   5.336   1.173  0.0783  0.5856 -0.1501
  706MOL0     C97339   8.811   5.635   1.339 -1.6622 -0.3279  0.8604
  706MOL0     C97340   8.850   5.765   1.364 -0.8075 -0.6304  0.3970
  706MOL0     N97341   8.601   6.234   1.791 -0.1595  0.2881  0.7941
  706MOL0     N97342   8.520   6.156   1.863 -0.2100 -1.1427 -0.0689
  706MOL0     C97343   7.580   5.604   2.035 -0.0227 -0.5943 -0.3079
  706MOL0     C97344   7.453   5.594   1.987  0.2232 -0.1229 -0.0827
  706MOL0     C97345   7.103   5.646   1.664 -0.3220  0.0945  0.3383
  706MOL0     C97346   7.026   5.557   1.578 -0.1794 -1.0064  0.4508
  706MOL0     C97347   6.905   5.603   1.528 -0.2724 -0.2737 -0.2550
  706MOL0     C97348   6.854   5.730   1.557  0.0220 -0.3713  0.1863
  706MOL0     O97349   6.723   5.764   1.514  0.0301 -0.6989  0.4154
  706MOL0     C97350   6.631   5.669   1.458  0.1162  0.2371  0.9057
  706MOL0     C97351   6.646   5.681   1.298  0.3326 -0.3417  0.3537
  706MOL0     C97352   6.634   5.541   1.240 -0.0640  0.0533  1.2261
  706MOL0     C97353   6.577   5.548   1.098  0.0864  0.2354 -0.7209
  706MOL0     C97354   6.438   5.599   1.075 -0.1365  0.0269  0.1493
  706MOL0     C97355   6.328   5.652   1.070 -0.1275  0.4486  0.3092
  706MOL0     C97356   6.935   5.822   1.618 -0.5716 -0.5051 -0.1772
  706MOL0     C97357   7.063   5.782   1.673 -0.7891  0.6203 -0.7199
  706MOL0     C97358   7.141   5.885   1.751  0.7095  0.0169  0.4331
  706MOL0     H97359   7.487   5.771   1.696  1.9119  1.1137  0.2058
  706MOL0     H97360   7.723   5.771   1.770 -0.9143 -1.7417 -2.7907
  706MOL0     H97361   7.797   5.483   2.112 -1.3389  0.6266  2.5777
  706MOL0     H97362   7.867   5.627   2.187 -2.3422 -2.5960  0.7054
  706MOL0     H97363   8.056   5.495   2.169 -2.4544 -0.5238  0.1846
  706MOL0     H97364   8.007   5.427   2.025  0.2372 -0.6974  1.3937
  706MOL0     H97365   8.053   5.664   1.917  1.5921  1.5295  0.0596
  706MOL0     H97366   8.140   5.696   2.062  1.9127  0.3655 -2.5983
  706MOL0     H97367   8.281   5.488   2.020 -0.4930  0.9369  0.1973
  706MOL0     H97368   8.206   5.470   1.865 -0.2266 -1.0321  0.2814
  706MOL0     H97369   8.291   5.716   1.802  0.2516  2.3042  0.6783
  706MOL0     H97370   8.410   5.603   1.832 -1.9819  0.8434 -2.4742
  706MOL0     H97371   8.316   5.803   2.044  0.1453  0.4740  0.3000
  706MOL0     H97372   8.437   5.673   2.072  0.1652  0.6838  0.3725
  706MOL0     H97373   8.572   5.755   1.881 -1.1796  0.2231 -1.5646
  706MOL0     H97374   8.555   5.860   2.020 -0.6946  0.8017 -0.2671
  706MOL0     H97375   8.395   5.888   1.743 -1.7202 -0.1143  0.0961
  706MOL0     H97376   8.356   5.975   1.893  0.3842  1.4226 -1.5626
  706MOL0     H97377   8.682   5.930   1.691  1.9886  0.1295  0.4687
  706MOL0     H97378   8.881   6.222   1.705  0.4538 -0.9677 -1.8831
  706MOL0     H97379   8.777   6.276   1.575 -1.3277  0.4457 -0.6488
  706MOL0     H97380   8.888   6.000   1.607  0.2540 -0.5320 -0.3339
  706MOL0     H97381   8.773   6.024   1.491  1.8088 -1.5751 -2.3306
  706MOL0     H97382   8.922   6.229   1.403  1.0153 -0.3046 -0.3796
  706MOL0     H97383   9.042   6.154   1.500 -0.4650 -0.4588  0.6065
  706MOL0     H97384   8.874   6.016   1.279  1.0160 -2.9947  0.1447
  706MOL0     H97385   9.041   6.070   1.256  1.3537  1.7908  1.8866
  706MOL0     H97386   9.186   5.737   1.312  0.2729 -1.0574  2.5291
  706MOL0     H97387   9.143   5.377   1.305 -0.5767  1.0557  2.1981
  706MOL0     H97388   9.243   5.517   1.300 -1.5630  0.7012 -0.4992
  706MOL0     H97389   9.169   5.464   1.144 -0.5333 -0.8469 -0.2426
  706MOL0     H97390   8.494   5.338   1.174 -1.3429  0.0032  2.0835
  706MOL0     H97391   8.367   5.124   1.156 -0.4076 -0.2530  0.4677
  706MOL0     H97392   8.329   4.934   1.078 -0.0782 -0.0331  0.5011
  706MOL0     H97393   8.473   4.833   1.036  1.2870 -1.7923  2.7313
  706MOL0     H97394   8.290   4.702   1.012 -1.6374  1.3690  0.4837
  706MOL0     H97395   8.377   4.645   1.163  0.2392 -0.2320 -1.1548
  706MOL0     H97396   8.102   4.762   1.134  1.4045 -0.8308 -2.8325
  706MOL0     H97397   8.197   4.802   1.276 -0.8178  1.4704 -1.6054
  706MOL0     H97398   8.219   4.552   1.328 -0.4210  1.0453  1.8632
  706MOL0     H97399   8.109   4.523   1.198 -0.5260 -1.8986  1.4823
  706MOL0     H97400   8.066   4.672   1.449 -2.0100  1.2920 -0.6665
  706MOL0     H97401   7.956   4.692   1.310  0.1112 -1.3207 -1.0752
  706MOL0     H97402   8.047   4.425   1.415  1.5322  1.9724 -0.8106
  706MOL0     H97403   7.904   4.441   1.314  1.3631 -2.4379  0.4707
  706MOL0     H97404   7.779   4.545   1.453  0.5862  0.6062  0.1594
  706MOL0     H97405   7.916   4.548   1.578  0.9851 -0.2825 -0.2110
  706MOL0     H97406   7.780   4.347   1.646 -0.5751 -1.4065 -1.2821
  706MOL0     H97407   7.933   4.298   1.582  0.3637  1.2967  2.0891
  706MOL0     H97408   8.712   4.918   1.297 -3.8026 -1.7636 -4.2162
  706MOL0     H97409   8.834   5.122   1.338 -0.0404 -5.3037 -1.4567
  706MOL0     H97410   8.707   5.608   1.345 -1.6399 -0.6776 -0.1238
  706MOL0     H97411   8.770   5.835   1.387 -3.4035 -3.1290 -0.4401
  706MOL0     H97412   7.599   5.585   2.140  1.1055  1.3453 -0.1079
  706MOL0     H97413   7.370   5.543   2.035  0.3253  1.5226  2.0007
  706MOL0     H97414   7.069   5.458   1.572  0.0903 -0.9189  0.8779
  706MOL0     H97415   6.852   5.525   1.474 -0.1174 -0.3055 -0.3623
  706MOL0     H97416   6.640   5.568   1.499  2.5935  0.0345 -0.0074
  706MOL0     H97417   6.533   5.712   1.482  0.4460  2.3898 -1.1471
  706MOL0     H97418   6.743   5.723   1.269  0.5684 -0.9938  0.1752
  706MOL0     H97419   6.562   5.738   1.259 -1.2499 -0.9978  2.5897
  706MOL0     H97420   6.735   5.499   1.229  0.7509  2.3955 -1.2153
  706MOL0     H97421   6.572   5.485   1.311 -0.8426  0.1544  0.6376
  706MOL0     H97422   6.572   5.448   1.053 -2.0651  1.9214 -4.7215
  706MOL0     H97423   6.648   5.602   1.035  1.2640 -2.0727 -1.5114
  706MOL0     H97424   6.230   5.691   1.089 -0.0498 -0.0638  1.9084
  706MOL0     H97425   6.889   5.919   1.636 -3.0820 -1.9050  1.5134
  706MOL0     H97426   7.245   5.887   1.718  1.5387  0.1602  2.8566
  706MOL0     H97427   7.110   5.987   1.723 -0.8407 -0.2387  1.1288
  706MOL0     H97428   7.138   5.861   1.858  1.3884 -2.7308 -0.0955
  707MOL0     O97429   1.069   9.567   7.011 -0.1746  0.9872 -0.0209
  707MOL0     C97430   0.976   9.492   6.976  0.2753 -0.2654  0.4837
  707MOL0     O97431   0.997   9.383   6.893  0.4874  0.0305 -0.2041
  707MOL0     C97432   1.119   9.385   6.835  0.0456  0.4241  0.7791
  707MOL0     C97433   1.172   9.468   6.737  0.4665 -0.3432  0.1002
  707MOL0     C97434   1.292   9.438   6.660 -1.1354  0.0148  0.3420
  707MOL0     C97435   1.372   9.329   6.703  0.0522  0.8305 -1.2027
  707MOL0     O97436   1.488   9.306   6.627 -0.4342 -0.5711  0.6167
  707MOL0     C97437   1.586   9.205   6.663 -0.1468  0.3053 -0.4211
  707MOL0     C97438   1.686   9.182   6.547  0.1751 -0.1508  0.7510
  707MOL0     C97439   1.733   9.319   6.503 -0.2579  0.4853 -0.1165
  707MOL0     C97440   1.864   9.302   6.424  0.2233 -0.5263 -0.5821
  707MOL0     C97441   1.999   9.290   6.512 -0.4027 -0.1817  0.2896
  707MOL0     C97442   2.117   9.230   6.444  0.2256  0.2543  0.7941
  707MOL0     C97443   2.172   9.328   6.330  0.4761 -0.4724 -0.7336
  707MOL0     C97444   2.300   9.273   6.285  0.8129 -0.1082  1.0978
  707MOL0     N97445   2.364   9.361   6.198 -0.2858  0.6544 -0.2291
  707MOL0     C97446   2.464   9.451   6.229  0.1016  0.2988  0.2971
  707MOL0     C97447   2.509   9.501   6.113 -0.2668 -0.2853 -0.1212
  707MOL0     C97448   2.616   9.603   6.099 -0.1326  0.8531 -0.9061
  707MOL0     C97449   2.753   9.543   6.102 -0.2868 -0.4046  0.5617
  707MOL0     C97450   2.771   9.461   5.975 -0.1692  0.2936  0.1883
  707MOL0     C97451   2.911   9.397   5.962  0.4192 -0.5472  0.1899
  707MOL0     O97452   2.915   9.345   5.829  0.3711  0.2418  0.4487
  707MOL0     C97453   3.036   9.306   5.768  0.2318  0.0136  1.5747
  707MOL0     C97454   3.154   9.377   5.801  0.5414 -0.4078 -1.4584
  707MOL0     C97455   3.278   9.341   5.754 -0.3662  0.0983 -0.2147
  707MOL0     C97456   3.402   9.411   5.805 -0.2057  0.6940 -0.1826
  707MOL0     C97457   3.289   9.252   5.646  0.4743  0.1607 -0.4179
  707MOL0     C97458   3.408   9.223   5.570  0.2623  0.2926 -0.4361
  707MOL0     O97459   3.391   9.212   5.432 -0.2843  0.2989 -0.0545
  707MOL0     C97460   3.482   9.122   5.372  0.1572 -0.7986 -0.1517
  707MOL0     C97461   3.579   9.173   5.286 -0.4738 -0.0617  0.3149
  707MOL0     C97462   3.682   9.084   5.240 -0.1478  0.8192  1.3969
  707MOL0     C97463   3.675   8.952   5.275 -0.0727 -0.0654  0.1091
  707MOL0     O97464   3.756   8.849   5.224  0.3262 -0.2167 -0.0997
  707MOL0     C97465   3.891   8.878   5.187 -0.0208 -0.0950  0.4588
  707MOL0     C97466   3.948   8.733   5.138  0.8560 -0.1644 -0.7680
  707MOL0     C97467   4.096   8.742   5.168  0.4901  0.9143 -0.0855
  707MOL0     C97468   4.186   8.638   5.092  0.1719  1.2697  0.5292
  707MOL0     C97469   4.333   8.643   5.153  0.1340 -0.4461  0.0398
  707MOL0     C97470   4.408   8.512   5.123  0.6454  0.0223  0.0788
  707MOL0     C97471   4.416   8.479   4.975 -0.0959  0.1430 -0.8242
  707MOL0     C97472   4.519   8.377   4.934 -1.1084  0.4148 -0.4474
  707MOL0    Cl97473   4.678   8.449   4.971  0.1134  0.2176  0.4823
  707MOL0     C97474   3.569   8.902   5.357 -0.5649 -0.4732  0.1858
  707MOL0     C97475   3.477   8.992   5.403 -0.2760  0.6394  0.0704
  707MOL0     O97476   3.513   9.200   5.620 -0.4176  0.3909  0.0853
  707MOL0     C97477   3.166   9.187   5.605  0.0644 -0.5831 -0.0955
  707MOL0     C97478   3.042   9.213   5.663 -0.1839 -0.2478 -0.6443
  707MOL0     N97479   2.436   9.441   6.009 -0.8588 -0.4222  0.0952
  707MOL0     N97480   2.349   9.364   6.066  0.3415  0.3072 -0.0568
  707MOL0     C97481   1.325   9.245   6.810  0.5025  0.3406 -0.7620
  707MOL0     C97482   1.191   9.270   6.865 -0.7089  0.5001  0.3916
  707MOL0     C97483   0.840   9.515   7.041 -0.1551 -0.2074 -0.1891
  707MOL0     C97484   0.821   9.602   7.157 -0.5970  0.0068  0.3613
  707MOL0     C97485   0.702   9.620   7.225  0.3093 -0.6357 -0.6372
  707MOL0     C97486   0.585   9.552   7.171 -0.7132  1.2243 -0.9771
  707MOL0     O97487   0.459   9.556   7.223  0.4613  0.0200  0.1512
  707MOL0     C97488   0.414   9.670   7.301  0.3937  0.3384 -0.5018
  707MOL0     C97489   0.261   9.685   7.318 -0.2789 -0.4513  0.6913
  707MOL0     C97490   0.208   9.562   7.390 -0.6508  0.2963 -0.1095
  707MOL0     C97491   0.071   9.595   7.461 -0.3575  0.2250 -0.3632
  707MOL0     C97492   0.025   9.479   7.543 -0.8973  0.6106  0.6769
  707MOL0     C97493  -0.016   9.379   7.610 -0.3536  0.3598 -0.0838
  707MOL0     C97494   0.596   9.468   7.069 -0.1944 -0.5457  0.3938
  707MOL0     C97495   0.719   9.453   7.002 -0.5595  0.4466 -0.6731
  707MOL0     C97496   0.703   9.357   6.882 -0.9666 -0.1172 -0.9312
  707MOL0     H97497   1.111   9.548   6.696 -2.8892 -2.6024  0.3007
  707MOL0     H97498   1.340   9.497   6.583  0.8849 -1.5726  0.2813
  707MOL0     H97499   1.532   9.117   6.698 -2.0821  2.5536  2.7729
  707MOL0     H97500   1.634   9.252   6.749 -0.3673  0.4253 -0.3631
  707MOL0     H97501   1.767   9.136   6.605  1.3332  3.0155  1.8650
  707MOL0     H97502   1.634   9.121   6.472  1.0069 -0.2371  0.2293
  707MOL0     H97503   1.661   9.362   6.433  1.7106 -0.5782 -2.9775
  707MOL0     H97504   1.749   9.383   6.591  0.3439 -0.8224  0.7662
  707MOL0     H97505   1.853   9.216   6.356 -0.3313 -1.1414  0.2596
  707MOL0     H97506   1.885   9.399   6.378 -2.3984  1.3820  1.8974
  707MOL0     H97507   1.984   9.207   6.582  2.4149 -1.4160 -0.4272
  707MOL0     H97508   2.024   9.379   6.570  1.6391 -1.0220  0.7656
  707MOL0     H97509   2.200   9.210   6.513  0.0522 -0.0004  0.9299
  707MOL0     H97510   2.090   9.134   6.399 -0.1630  1.0177 -0.6639
  707MOL0     H97511   2.184   9.430   6.369  4.0463 -1.5221  1.4240
  707MOL0     H97512   2.107   9.333   6.242  0.2774 -0.9532 -0.6141
  707MOL0     H97513   2.370   9.248   6.366 -0.0345 -1.0260  1.5766
  707MOL0     H97514   2.275   9.183   6.228  0.6636  0.0456  0.9194
  707MOL0     H97515   2.497   9.477   6.329 -2.7521  0.5465  1.2511
  707MOL0     H97516   2.597   9.669   6.184 -3.2098 -2.1741  1.0248
  707MOL0     H97517   2.602   9.663   6.009  0.8488  1.1977 -0.8424
  707MOL0     H97518   2.829   9.620   6.117  2.0392 -2.3576 -0.4345
  707MOL0     H97519   2.760   9.477   6.189 -1.6413  1.9009  2.5269
  707MOL0     H97520   2.697   9.381   5.977  0.4566 -0.3139 -0.4818
  707MOL0     H97521   2.746   9.517   5.885 -3.3025 -1.0518  0.1008
  707MOL0     H97522   2.979   9.481   5.977  1.5155 -1.5087  0.6722
  707MOL0     H97523   2.919   9.315   6.033 -1.7066  0.6108  1.9011
  707MOL0     H97524   3.158   9.456   5.876 -2.2680 -2.8072  1.4676
  707MOL0     H97525   3.424   9.361   5.900  0.1592  0.0501 -0.5979
  707MOL0     H97526   3.384   9.518   5.822 -2.0846  0.7457 -2.0464
  707MOL0     H97527   3.489   9.394   5.740  3.1593  0.0554  4.0002
  707MOL0     H97528   3.581   9.273   5.244  0.6121 -0.1853  0.0378
  707MOL0     H97529   3.753   9.125   5.168 -1.3039 -0.2366 -0.4446
  707MOL0     H97530   3.907   8.958   5.114  1.5214 -2.5277 -2.0843
  707MOL0     H97531   3.937   8.912   5.280 -1.2205  3.4084 -0.0928
  707MOL0     H97532   3.911   8.655   5.206  0.4947  2.6705  2.5495
  707MOL0     H97533   3.936   8.703   5.033  1.9990  0.4798 -1.1020
  707MOL0     H97534   4.122   8.734   5.274 -1.0988  1.6585  0.3933
  707MOL0     H97535   4.132   8.841   5.136  1.3842  0.7201  0.2815
  707MOL0     H97536   4.175   8.655   4.984 -1.0361 -1.6014  0.1119
  707MOL0     H97537   4.133   8.543   5.106  1.2426  0.6688  0.6355
  707MOL0     H97538   4.381   8.727   5.103 -2.2290  0.9725 -0.0149
  707MOL0     H97539   4.338   8.658   5.261 -0.7233 -0.9732  0.1646
  707MOL0     H97540   4.357   8.425   5.163 -1.6810  0.8456 -0.8830
  707MOL0     H97541   4.501   8.519   5.179  0.3914 -0.5360  0.5714
  707MOL0     H97542   4.441   8.574   4.927 -0.0766  0.3562 -0.3981
  707MOL0     H97543   4.322   8.440   4.934 -0.4897 -1.4679  1.4317
  707MOL0     H97544   4.513   8.350   4.828 -0.7270 -0.2997 -0.2980
  707MOL0     H97545   4.508   8.278   4.981  0.9132 -0.6791 -2.1070
  707MOL0     H97546   3.573   8.803   5.400  0.9775  0.1124  1.4600
  707MOL0     H97547   3.420   8.941   5.480  1.0539 -2.3525 -0.7744
  707MOL0     H97548   3.168   9.107   5.531  0.6982 -1.0718  0.4437
  707MOL0     H97549   2.954   9.161   5.628 -1.1284  0.7045  0.2529
  707MOL0     H97550   1.387   9.167   6.853  3.0061  1.7318 -1.6681
  707MOL0     H97551   1.155   9.201   6.940 -0.0022 -1.9828 -1.4002
  707MOL0     H97552   0.909   9.650   7.198 -0.3868 -0.5571  0.5825
  707MOL0     H97553   0.700   9.690   7.309  1.1850  0.9096 -1.8588
  707MOL0     H97554   0.461   9.665   7.400  2.7979  1.0898 -1.5272
  707MOL0     H97555   0.454   9.760   7.253  1.4923 -0.6142 -1.4172
  707MOL0     H97556   0.216   9.679   7.218 -0.4134  0.7890  0.6662
  707MOL0     H97557   0.238   9.782   7.362 -0.3081 -0.2544  0.2444
  707MOL0     H97558   0.184   9.478   7.325 -0.5083 -0.4013  0.7251
  707MOL0     H97559   0.289   9.533   7.458  1.2133  1.1516 -1.8701
  707MOL0     H97560  -0.006   9.617   7.386 -0.4322 -0.6119 -0.5438
  707MOL0     H97561   0.090   9.682   7.524  0.4518 -0.5663  0.5145
  707MOL0     H97562  -0.074   9.296   7.645  0.2914  0.6982  1.9021
  707MOL0     H97563   0.515   9.402   7.038  2.3375 -3.1550 -1.2071
  707MOL0     H97564   0.760   9.268   6.910  2.7546  2.3301 -0.0524
  707MOL0     H97565   0.601   9.331   6.854 -0.6150  0.8161 -3.3567
  707MOL0     H97566   0.756   9.396   6.794  0.5915  0.9866  0.4368
  708MOL0     O97567   5.447   1.942  10.245  0.1326 -0.1698  1.5107
  708MOL0     C97568   5.401   1.961  10.354 -0.2747 -0.3771 -0.1074
  708MOL0     O97569   5.476   1.971  10.468  0.8426 -0.4198  0.7487
  708MOL0     C97570   5.608   1.928  10.472 -0.1279  0.2197  0.2498
  708MOL0     C97571   5.657   1.963  10.587  0.2463 -0.4870 -0.0752
  708MOL0     C97572   5.789   1.932  10.616 -0.2032  0.6514  0.2582
  708MOL0     C97573   5.866   1.838  10.540  0.5810 -0.8607 -0.5439
  708MOL0     O97574   5.994   1.797  10.569 -0.4533  0.1972 -0.4747
  708MOL0     C97575   6.062   1.831  10.691  0.8330 -0.0576  0.2280
  708MOL0     C97576   6.151   1.954  10.680  0.5846 -1.1200  0.1236
  708MOL0     C97577   6.234   1.947  10.549  0.2304 -0.7249 -0.8773
  708MOL0     C97578   6.331   1.833  10.537  0.5588 -0.0975 -0.2563
  708MOL0     C97579   6.423   1.824  10.414  0.3879 -0.8109 -0.7136
  708MOL0     C97580   6.537   1.725  10.409 -0.2177  0.2469  0.4781
  708MOL0     C97581   6.642   1.752  10.525  0.1115  0.3863  0.2202
  708MOL0     C97582   6.643   1.626  10.621  0.0600  0.0630 -0.2041
  708MOL0     N97583   6.776   1.577  10.641  0.3674 -0.2363  0.6325
  708MOL0     C97584   6.814   1.458  10.586  0.7347  0.0651 -0.2012
  708MOL0     C97585   6.945   1.442  10.616  1.0630  0.4404 -0.2263
  708MOL0     C97586   7.039   1.336  10.559  0.1614 -0.6661 -0.2890
  708MOL0     C97587   7.192   1.359  10.609  0.3677 -0.6063  0.3689
  708MOL0     C97588   7.296   1.290  10.520 -0.0908 -0.1488  0.0897
  708MOL0     C97589   7.292   1.143  10.550  0.6287 -0.6838  0.3913
  708MOL0     O97590   7.379   1.066  10.464  0.4443 -0.9018 -0.5590
  708MOL0     C97591   7.512   1.093  10.494 -0.3210 -0.1936  0.2098
  708MOL0     C97592   7.588   1.145  10.390  0.2709 -0.8494 -0.1117
  708MOL0     C97593   7.725   1.168  10.401 -0.3037  0.1274  0.4745
  708MOL0     C97594   7.800   1.187  10.274 -0.5829 -0.5325  0.6503
  708MOL0     C97595   7.790   1.161  10.527 -0.5278  0.3271  0.4779
  708MOL0     C97596   7.942   1.174  10.542  0.3163 -0.9660 -0.1148
  708MOL0     O97597   7.993   1.177  10.666 -0.2491  0.7391 -0.0493
  708MOL0     C97598   8.133   1.170  10.680  0.1073  0.0936 -0.1545
  708MOL0     C97599   8.196   1.281  10.719  0.0956 -0.1806 -0.3391
  708MOL0     C97600   8.340   1.288  10.729 -0.1323 -0.1944 -0.1005
  708MOL0     C97601   8.420   1.169  10.703  0.8798 -0.8041 -1.2776
  708MOL0     O97602   8.550   1.152  10.715  0.2350 -0.2108 -0.3611
  708MOL0     C97603   8.624   1.240  10.634 -0.0799  0.0472 -0.2352
  708MOL0     C97604   8.763   1.177  10.595 -0.3027 -0.1789  0.2641
  708MOL0     C97605   8.835   1.120  10.716  0.6143 -0.0874 -0.6861
  708MOL0     C97606   8.953   1.030  10.680 -0.7866 -0.4080 -0.0581
  708MOL0     C97607   9.057   1.106  10.600  0.2169 -0.7423  0.0328
  708MOL0     C97608   9.163   1.020  10.543 -0.3224  0.1465  0.3230
  708MOL0     C97609   9.245   0.934  10.646  0.7380  0.0267 -0.0891
  708MOL0     C97610   9.341   1.027  10.720  0.0136  0.4069  0.0222
  708MOL0    Cl97611   9.467   0.941  10.821 -0.0871 -0.2548 -0.1652
  708MOL0     C97612   8.347   1.052  10.674 -0.0586 -0.8630 -0.3991
  708MOL0     C97613   8.207   1.055  10.654  0.6256  0.0296  0.1165
  708MOL0     O97614   8.007   1.150  10.447 -0.2258  0.1764  0.5789
  708MOL0     C97615   7.708   1.126  10.637  1.1969  0.5445  0.2304
  708MOL0     C97616   7.575   1.090  10.619  0.0881 -0.6389 -0.1094
  708MOL0     N97617   6.980   1.554  10.684  0.8887 -0.1677  0.3865
  708MOL0     N97618   6.882   1.628  10.709  0.2052  0.4138 -0.4514
  708MOL0     C97619   5.806   1.787  10.429 -0.2014 -0.4934 -0.3288
  708MOL0     C97620   5.676   1.837  10.391  0.6177  0.5032 -0.5998
  708MOL0     C97621   5.258   1.966  10.360  0.4108 -0.0845  0.4754
  708MOL0     C97622   5.185   1.963  10.237  0.8155 -1.0995 -0.6766
  708MOL0     C97623   5.046   1.968  10.240 -0.5300 -0.2914  0.5262
  708MOL0     C97624   4.977   1.982  10.353  0.1769 -0.1933 -0.5473
  708MOL0     O97625   4.843   1.991  10.351  0.2073  0.4029 -0.1961
  708MOL0     C97626   4.767   1.894  10.274  0.2998 -0.6928  0.7320
  708MOL0     C97627   4.632   1.868  10.345  0.1731  0.1043  0.6547
  708MOL0     C97628   4.508   1.840  10.245  1.0273  0.3964 -0.2219
  708MOL0     C97629   4.374   1.846  10.322 -0.0724 -0.5707 -0.2310
  708MOL0     C97630   4.321   1.983  10.329  0.3686  0.4892 -0.5046
  708MOL0     C97631   4.261   2.088  10.334 -0.4147 -0.4661 -0.6392
  708MOL0     C97632   5.045   1.984  10.476  0.2881 -0.7079  0.6232
  708MOL0     C97633   5.184   1.983  10.483 -0.0567  0.7045  1.0636
  708MOL0     C97634   5.245   1.977  10.627 -0.2614 -0.5943  0.4013
  708MOL0     H97635   5.605   2.031  10.654  1.5316 -0.0188  0.4974
  708MOL0     H97636   5.848   1.966  10.701  0.5292  0.4861 -0.1834
  708MOL0     H97637   6.135   1.750  10.699  0.3340 -1.1306 -3.7523
  708MOL0     H97638   5.997   1.840  10.779 -3.5647 -2.1454 -2.4412
  708MOL0     H97639   6.098   2.050  10.689 -0.0862 -1.5779  1.1334
  708MOL0     H97640   6.221   1.958  10.763 -0.7241  2.0297  1.2703
  708MOL0     H97641   6.172   1.942  10.459  0.2764  0.8940 -1.0235
  708MOL0     H97642   6.278   2.046  10.539  1.7742 -1.1776  0.8085
  708MOL0     H97643   6.388   1.826  10.631 -0.8985  2.3185  0.9017
  708MOL0     H97644   6.268   1.744  10.528  0.0004  0.3857 -1.2148
  708MOL0     H97645   6.466   1.923  10.402 -1.5673  0.3785  1.3389
  708MOL0     H97646   6.362   1.790  10.328  0.3196 -1.7292 -0.3194
  708MOL0     H97647   6.499   1.622  10.410 -1.6243  0.7316 -0.0818
  708MOL0     H97648   6.578   1.748  10.310 -0.6289  0.1712  0.2878
  708MOL0     H97649   6.618   1.848  10.572  1.2102 -0.6339  3.0740
  708MOL0     H97650   6.742   1.756  10.480 -0.1009  1.1019 -0.2040
  708MOL0     H97651   6.610   1.655  10.721  2.7399 -1.8748  1.3589
  708MOL0     H97652   6.588   1.541  10.580  4.4943 -3.0857 -0.2375
  708MOL0     H97653   6.761   1.384  10.527  0.5615  0.7050 -0.8667
  708MOL0     H97654   7.039   1.353  10.451 -1.5684 -1.4305 -0.4326
  708MOL0     H97655   6.999   1.237  10.582  1.6492 -0.7478  2.3381
  708MOL0     H97656   7.219   1.465  10.606 -0.1024 -0.4998 -0.7329
  708MOL0     H97657   7.190   1.339  10.716  1.0575  1.0182  0.7064
  708MOL0     H97658   7.270   1.302  10.414 -2.9345 -4.5549 -0.0064
  708MOL0     H97659   7.387   1.342  10.551 -1.3858  2.7706 -0.6403
  708MOL0     H97660   7.317   1.127  10.655  2.7752  0.0447  0.0418
  708MOL0     H97661   7.188   1.120  10.528  0.0331  2.0617 -0.0710
  708MOL0     H97662   7.535   1.165  10.297 -2.7275  0.2543  1.6538
  708MOL0     H97663   7.839   1.094  10.234 -0.3804  0.9351 -2.9361
  708MOL0     H97664   7.876   1.266  10.267 -1.1236 -0.1589 -3.0997
  708MOL0     H97665   7.732   1.219  10.194  1.1742  0.3016 -0.5500
  708MOL0     H97666   8.140   1.374  10.732  0.8672  0.1034  1.3583
  708MOL0     H97667   8.395   1.376  10.763 -0.9302  0.4406 -0.4213
  708MOL0     H97668   8.571   1.259  10.540 -2.1977 -1.5264  0.5639
  708MOL0     H97669   8.632   1.333  10.691 -2.4792 -0.3450  0.8509
  708MOL0     H97670   8.754   1.101  10.518  1.5685 -0.4374  0.2500
  708MOL0     H97671   8.819   1.265  10.563 -1.1765  0.4881  0.5135
  708MOL0     H97672   8.759   1.065  10.773  0.7645  0.9177  0.5376
  708MOL0     H97673   8.867   1.194  10.790 -2.1614 -1.2263  1.9083
  708MOL0     H97674   8.921   0.950  10.613  0.6082  0.7525 -2.2230
  708MOL0     H97675   9.005   0.992  10.769  1.3186  0.2406 -0.9562
  708MOL0     H97676   8.999   1.147  10.517  1.5077  0.8605 -0.1590
  708MOL0     H97677   9.108   1.190  10.649  0.1379 -1.1126  0.7535
  708MOL0     H97678   9.230   1.084  10.485 -1.2069  0.6175 -0.2127
  708MOL0     H97679   9.111   0.954  10.473  0.1309  0.0288  0.0963
  708MOL0     H97680   9.303   0.857  10.594  0.3399 -1.6898  1.8546
  708MOL0     H97681   9.179   0.870  10.706 -0.4693  0.7086 -0.6483
  708MOL0     H97682   9.286   1.103  10.775 -0.6300 -0.2325  0.2730
  708MOL0     H97683   9.407   1.068  10.642  0.4306 -0.9000 -0.3444
  708MOL0     H97684   8.405   0.969  10.635 -1.0607 -0.6816 -2.4206
  708MOL0     H97685   8.145   0.974  10.616 -0.2925  0.6617  0.2209
  708MOL0     H97686   7.740   1.121  10.741 -0.5402 -0.0793  0.7678
  708MOL0     H97687   7.516   1.074  10.708 -0.2527  1.1289  0.0155
  708MOL0     H97688   5.868   1.725  10.365 -0.6242 -0.2783 -0.9549
  708MOL0     H97689   5.639   1.787  10.303  0.6975 -2.3352  0.8798
  708MOL0     H97690   5.230   1.960  10.139  0.4880  4.4391 -1.3403
  708MOL0     H97691   4.995   1.959  10.144  1.1384  0.2653 -0.4559
  708MOL0     H97692   4.744   1.945  10.180 -0.4587 -2.2108  0.0653
  708MOL0     H97693   4.826   1.803  10.263  0.2644 -0.7943  1.3276
  708MOL0     H97694   4.608   1.954  10.409 -4.1904  0.1763 -0.6967
  708MOL0     H97695   4.642   1.786  10.416  0.3459 -0.4462  0.0098
  708MOL0     H97696   4.490   1.923  10.175 -2.1481 -0.0917 -0.0951
  708MOL0     H97697   4.522   1.743  10.197  0.4824  0.3033 -0.1963
  708MOL0     H97698   4.385   1.813  10.426 -0.0858  2.3710  0.7801
  708MOL0     H97699   4.300   1.779  10.278 -0.6865 -0.2938  0.3724
  708MOL0     H97700   4.230   2.190  10.346  0.0783 -0.2468 -1.2035
  708MOL0     H97701   4.981   2.001  10.562 -0.5127 -1.7402  0.2378
  708MOL0     H97702   5.166   1.980  10.702  0.4794  2.0822  1.2089
  708MOL0     H97703   5.303   1.886  10.641 -0.2115 -0.3677  1.8296
  708MOL0     H97704   5.309   2.066  10.634  2.6107 -2.4251 -0.6717
  709MOL0     O97705   3.530   9.963   8.803 -0.0091 -0.4308 -0.2144
  709MOL0     C97706   3.527   9.989   8.684 -0.0637 -0.6388 -1.0433
  709MOL0     O97707   3.590   9.908   8.585 -0.0509 -0.1840  0.4075
  709MOL0     C97708   3.691   9.833   8.639 -0.0428 -0.6434 -0.4321
  709MOL0     C97709   3.807   9.895   8.694 -0.4351  1.3201 -0.5065
  709MOL0     C97710   3.917   9.819   8.738  0.9820  0.1496 -0.3969
  709MOL0     C97711   3.915   9.681   8.729 -0.1560  0.4782 -0.9794
  709MOL0     O97712   4.006   9.588   8.772  0.4243  0.2119  0.3729
  709MOL0     C97713   4.144   9.634   8.791 -1.0501  0.2342 -0.3204
  709MOL0     C97714   4.225   9.509   8.797  0.4462  1.0665 -0.7898
  709MOL0     C97715   4.372   9.550   8.797 -0.5532 -0.2190  0.5109
  709MOL0     C97716   4.454   9.439   8.841 -0.6499 -0.0626 -0.3593
  709MOL0     C97717   4.605   9.466   8.829  0.0130  0.1165  0.0794
  709MOL0     C97718   4.688   9.336   8.830 -0.5142  0.3925  0.1449
  709MOL0     C97719   4.841   9.371   8.791  0.3307  0.3398 -0.4735
  709MOL0     C97720   4.948   9.260   8.826  0.6673 -0.5600  0.4947
  709MOL0     N97721   5.090   9.290   8.805 -0.2561 -0.6391  0.1415
  709MOL0     C97722   5.150   9.336   8.688  0.4156 -0.1729  0.0528
  709MOL0     C97723   5.275   9.368   8.730  1.4408 -0.9005  0.6325
  709MOL0     C97724   5.374   9.420   8.634 -0.0226  0.0352  0.3706
  709MOL0     C97725   5.339   9.574   8.600 -0.1675  0.7027  0.4541
  709MOL0     C97726   5.428   9.652   8.503  0.1395 -0.5035  0.3472
  709MOL0     C97727   5.550   9.710   8.575 -0.1737  0.3321  0.0600
  709MOL0     O97728   5.620   9.601   8.620  0.5792 -1.2516  0.1388
  709MOL0     C97729   5.749   9.612   8.589  0.1489 -0.2262  0.6912
  709MOL0     C97730   5.838   9.697   8.653 -0.5764  0.3163  1.1350
  709MOL0     C97731   5.972   9.706   8.607  0.1026  0.1071 -0.0450
  709MOL0     C97732   6.063   9.819   8.668  0.2901  0.6582  0.5014
  709MOL0     C97733   6.008   9.643   8.489 -0.3358 -0.3266 -0.9217
  709MOL0     C97734   6.140   9.661   8.415  0.4659  0.6269  0.1076
  709MOL0     O97735   6.122   9.644   8.276 -0.8436  0.7232  0.1105
  709MOL0     C97736   6.235   9.662   8.195  0.1528 -1.0264 -0.1364
  709MOL0     C97737   6.347   9.584   8.219 -0.6144  0.7915  0.6778
  709MOL0     C97738   6.455   9.583   8.128 -0.3439 -0.8403  1.0173
  709MOL0     C97739   6.448   9.672   8.017 -0.0338  0.3714 -0.5750
  709MOL0     O97740   6.548   9.685   7.926 -0.5537  0.2269 -0.8587
  709MOL0     C97741   6.613   9.561   7.894  0.7675  0.0619  0.8649
  709MOL0     C97742   6.747   9.580   7.828 -0.3870 -0.2483  0.2109
  709MOL0     C97743   6.809   9.440   7.811  0.3708 -0.0023 -0.6143
  709MOL0     C97744   6.946   9.429   7.749 -0.1329 -0.8845 -0.1209
  709MOL0     C97745   7.055   9.524   7.801 -0.5970  0.5052  0.2679
  709MOL0     C97746   7.113   9.497   7.942  0.2495 -0.8249  1.2952
  709MOL0     C97747   7.173   9.365   7.972  0.7461 -0.8282  0.6369
  709MOL0     C97748   7.223   9.371   8.114 -0.6205  0.6153  0.5368
  709MOL0    Cl97749   7.372   9.479   8.118  0.2898 -0.3655  0.2214
  709MOL0     C97750   6.343   9.758   8.012 -0.1051 -0.5110 -1.3068
  709MOL0     C97751   6.233   9.756   8.099  1.0448  1.2484  0.0998
  709MOL0     O97752   6.238   9.683   8.478 -0.6364 -0.7296 -0.5102
  709MOL0     C97753   5.912   9.553   8.434  0.1044  0.3150  0.0392
  709MOL0     C97754   5.783   9.534   8.477  0.3978 -0.2250  0.6963
  709MOL0     N97755   5.296   9.351   8.861 -0.3508 -0.5612  0.5360
  709MOL0     N97756   5.181   9.309   8.905  0.4462 -0.0410  0.3544
  709MOL0     C97757   3.805   9.624   8.665  0.2608 -0.3052  0.4477
  709MOL0     C97758   3.698   9.694   8.630  0.3338  0.4564  0.1832
  709MOL0     C97759   3.426  10.083   8.642 -0.7987  0.8140 -0.1554
  709MOL0     C97760   3.393  10.074   8.506 -0.0941 -0.1498 -0.1615
  709MOL0     C97761   3.313  10.170   8.444  0.0397  0.6679  0.3657
  709MOL0     C97762   3.263  10.272   8.517  0.4751 -0.1729  0.3558
  709MOL0     O97763   3.196  10.370   8.447 -0.5208  0.0201  1.3642
  709MOL0     C97764   3.078  10.433   8.499 -0.1484 -0.1496  0.6731
  709MOL0     C97765   3.006  10.510   8.390 -0.3807  0.1723 -0.5001
  709MOL0     C97766   3.101  10.605   8.320  0.5112  0.3527 -0.1714
  709MOL0     C97767   3.036  10.680   8.205 -0.3623  0.8511 -0.9679
  709MOL0     C97768   3.122  10.786   8.149 -0.9822 -1.3719  0.6036
  709MOL0     C97769   3.185  10.879   8.102  0.2410 -0.7299 -0.6847
  709MOL0     C97770   3.300  10.286   8.647 -0.2493  0.6724  0.6418
  709MOL0     C97771   3.387  10.200   8.712  0.2268 -0.1503 -0.8654
  709MOL0     C97772   3.387  10.217   8.859 -0.1317  0.5755 -0.0290
  709MOL0     H97773   3.809  10.003   8.706  1.7911  1.6729 -3.0183
  709MOL0     H97774   3.999   9.864   8.795 -0.0993  1.3403  0.2660
  709MOL0     H97775   4.157   9.701   8.877 -0.1210  2.7365 -2.3092
  709MOL0     H97776   4.178   9.692   8.705 -1.4551  3.2149  1.4164
  709MOL0     H97777   4.204   9.460   8.892  1.1354  0.3607 -0.9847
  709MOL0     H97778   4.193   9.436   8.721  1.1976 -1.3654  1.1001
  709MOL0     H97779   4.393   9.582   8.694  1.2232 -0.5702  0.7369
  709MOL0     H97780   4.380   9.637   8.863  3.0557 -0.7938  0.9937
  709MOL0     H97781   4.430   9.426   8.947 -0.7644  1.1668 -0.2150
  709MOL0     H97782   4.430   9.348   8.785 -0.3528 -0.3164 -0.0714
  709MOL0     H97783   4.635   9.511   8.924 -1.1188 -2.0750  1.5854
  709MOL0     H97784   4.628   9.530   8.744 -0.9702 -0.1875 -0.4320
  709MOL0     H97785   4.690   9.293   8.931 -0.5606 -3.5111 -1.3541
  709MOL0     H97786   4.652   9.252   8.770  2.4364  0.1073 -1.4098
  709MOL0     H97787   4.866   9.460   8.849 -1.8350  2.2012 -2.2088
  709MOL0     H97788   4.850   9.401   8.686  0.7084  0.4543 -0.4098
  709MOL0     H97789   4.928   9.230   8.929  1.8838  0.7847  1.1554
  709MOL0     H97790   4.911   9.185   8.756 -4.4389  2.5799 -0.6725
  709MOL0     H97791   5.103   9.343   8.590  0.2439 -0.0113  0.1468
  709MOL0     H97792   5.356   9.371   8.538  5.5773 -1.2024 -0.3873
  709MOL0     H97793   5.477   9.403   8.665 -0.6947  1.1936  3.6350
  709MOL0     H97794   5.237   9.581   8.563 -0.8626  3.8669  2.6190
  709MOL0     H97795   5.343   9.621   8.699  0.5902 -0.9863  1.2642
  709MOL0     H97796   5.464   9.595   8.417  2.6952 -0.1873  1.1289
  709MOL0     H97797   5.379   9.748   8.483 -1.5998 -0.8030  2.7263
  709MOL0     H97798   5.595   9.772   8.496  0.0855  0.2534  0.1455
  709MOL0     H97799   5.540   9.770   8.666 -0.6651 -2.3490  1.8871
  709MOL0     H97800   5.797   9.761   8.730 -0.1455 -1.0620  2.5653
  709MOL0     H97801   6.149   9.778   8.722  0.7669 -1.7446 -1.9001
  709MOL0     H97802   6.002   9.860   8.749  0.4466  0.2331  0.8383
  709MOL0     H97803   6.085   9.903   8.602  1.5534  0.1222  0.2149
  709MOL0     H97804   6.351   9.515   8.302  0.3550 -0.0003 -0.0010
  709MOL0     H97805   6.542   9.521   8.150 -0.8630 -1.2641  1.9444
  709MOL0     H97806   6.637   9.503   7.983 -0.0260  0.5210  1.3950
  709MOL0     H97807   6.551   9.492   7.837  1.3122 -1.5655  2.1669
  709MOL0     H97808   6.737   9.632   7.732  3.1885  2.2340  0.9997
  709MOL0     H97809   6.813   9.637   7.895 -0.1998  0.1357 -0.2967
  709MOL0     H97810   6.740   9.381   7.750 -0.3477 -1.0471  1.1494
  709MOL0     H97811   6.811   9.384   7.904 -1.6407  1.9522  0.7219
  709MOL0     H97812   6.933   9.453   7.643 -0.0235  1.7804  0.4190
  709MOL0     H97813   6.979   9.324   7.754  2.5201 -0.0618  1.2574
  709MOL0     H97814   7.146   9.522   7.740 -1.1730  1.3511 -0.6408
  709MOL0     H97815   7.024   9.628   7.800  3.1202  1.7803  0.8282
  709MOL0     H97816   7.034   9.524   8.012  0.4939 -0.9087  1.6046
  709MOL0     H97817   7.191   9.573   7.952  0.9260 -1.6314  2.3506
  709MOL0     H97818   7.257   9.357   7.902 -1.0858 -1.4148 -1.6244
  709MOL0     H97819   7.111   9.278   7.946  1.4918 -0.0522 -5.0829
  709MOL0     H97820   7.263   9.274   8.145 -0.1967 -0.0468 -1.8307
  709MOL0     H97821   7.153   9.399   8.193  2.4177 -1.0450  4.1460
  709MOL0     H97822   6.349   9.828   7.929  0.4935 -1.6855 -2.3059
  709MOL0     H97823   6.143   9.809   8.067  1.2990  1.0404 -0.9771
  709MOL0     H97824   5.938   9.499   8.343 -1.5570  0.0032 -0.2937
  709MOL0     H97825   5.716   9.465   8.428 -1.2354  0.6571  1.6094
  709MOL0     H97826   3.811   9.516   8.648 -0.3739 -0.2798  0.0307
  709MOL0     H97827   3.609   9.637   8.606 -0.2762  0.4921  2.1728
  709MOL0     H97828   3.440   9.993   8.451  0.1268 -0.0003 -0.1947
  709MOL0     H97829   3.298  10.155   8.337  0.9027 -2.1999  0.5595
  709MOL0     H97830   3.014  10.357   8.545 -2.9832  1.3931 -0.4888
  709MOL0     H97831   3.117  10.501   8.575 -0.6421  0.4601  0.3920
  709MOL0     H97832   2.924  10.563   8.439  0.9676  0.1259  1.9789
  709MOL0     H97833   2.972  10.431   8.323 -2.6408  0.1530  0.5753
  709MOL0     H97834   3.143  10.672   8.395  1.2661  0.2953 -0.5357
  709MOL0     H97835   3.177  10.541   8.273  0.0257 -0.9577  0.7514
  709MOL0     H97836   2.952  10.730   8.253  2.1976  2.4601  2.2148
  709MOL0     H97837   2.995  10.613   8.128 -2.0410  1.2851 -0.4972
  709MOL0     H97838   3.247  10.955   8.057 -1.0201  0.3365 -0.6771
  709MOL0     H97839   3.271  10.372   8.707 -2.9210 -0.5430  1.1973
  709MOL0     H97840   3.494  10.221   8.884 -0.3530  2.1583  0.7979
  709MOL0     H97841   3.360  10.314   8.902  1.0067  0.7920  0.2311
  709MOL0     H97842   3.349  10.126   8.905  0.1348  0.1002 -0.7207
  710MOL0     O97843   3.487   4.350  10.174 -0.3484 -0.0653  0.2782
  710MOL0     C97844   3.543   4.242  10.197  0.0493  0.2358  0.2372
  710MOL0     O97845   3.500   4.147  10.292  0.2493 -0.3430 -0.0450
  710MOL0     C97846   3.368   4.156  10.347 -0.7078 -0.2776 -0.8297
  710MOL0     C97847   3.259   4.216  10.289  0.1269  0.0938  0.2954
  710MOL0     C97848   3.144   4.219  10.369  0.7204  0.2500 -0.0831
  710MOL0     C97849   3.136   4.165  10.501 -0.3696  0.8077  0.6011
  710MOL0     O97850   3.033   4.179  10.595  0.5058 -0.2129 -0.3028
  710MOL0     C97851   2.948   4.296  10.563  0.1304  0.6077  0.1587
  710MOL0     C97852   2.850   4.305  10.683  0.3379 -1.0921 -0.8119
  710MOL0     C97853   2.762   4.428  10.656 -0.7752 -0.1877  0.4381
  710MOL0     C97854   2.633   4.426  10.739  0.1601  0.1496 -0.1987
  710MOL0     C97855   2.557   4.567  10.751 -0.3619  0.4875 -0.0502
  710MOL0     C97856   2.422   4.538  10.814 -0.8615  0.1345  0.6582
  710MOL0     C97857   2.311   4.626  10.771  0.3214  0.4137  0.3439
  710MOL0     C97858   2.320   4.775  10.789  0.7358 -0.5147 -0.8551
  710MOL0     N97859   2.352   4.805  10.927  0.0306  0.4324 -0.1131
  710MOL0     C97860   2.470   4.843  10.981 -0.0233 -1.0185 -1.1629
  710MOL0     C97861   2.443   4.845  11.119 -0.2209 -0.7860 -0.4986
  710MOL0     C97862   2.548   4.887  11.213 -0.3783  0.2204 -0.3945
  710MOL0     C97863   2.562   5.041  11.229  0.8803  0.8500  0.6747
  710MOL0     C97864   2.638   5.079  11.358 -0.7391  1.1082 -0.1678
  710MOL0     C97865   2.787   5.060  11.341 -0.0103  0.6298 -0.4069
  710MOL0     O97866   2.820   4.920  11.336 -0.2727  0.9005  0.5477
  710MOL0     C97867   2.951   4.888  11.315  0.1162  0.6140  0.5718
  710MOL0     C97868   3.053   4.984  11.290 -0.5595 -1.1790 -0.2126
  710MOL0     C97869   3.183   4.947  11.277 -0.0966  0.4500  0.3080
  710MOL0     C97870   3.287   5.057  11.267  0.2508 -0.8047  0.1404
  710MOL0     C97871   3.229   4.814  11.273  0.2849  0.7528 -0.0587
  710MOL0     C97872   3.370   4.770  11.257  0.3993  1.3657 -0.5193
  710MOL0     O97873   3.386   4.646  11.196  0.1120 -0.3335  0.1016
  710MOL0     C97874   3.512   4.595  11.187  0.6326 -0.0966  0.6632
  710MOL0     C97875   3.597   4.589  11.294  0.1671  0.1043  0.6529
  710MOL0     C97876   3.726   4.538  11.278  0.2855 -0.0671  0.0496
  710MOL0     C97877   3.771   4.495  11.144 -0.2609 -0.3181 -0.2281
  710MOL0     O97878   3.904   4.453  11.130 -0.1565  0.2610  0.1903
  710MOL0     C97879   3.947   4.346  11.215  0.8132  0.2132  0.5398
  710MOL0     C97880   4.081   4.384  11.281  0.6243  0.6118  0.4643
  710MOL0     C97881   4.121   4.263  11.365  0.0731 -0.4107  0.5031
  710MOL0     C97882   4.252   4.297  11.424 -0.0141 -0.4191  0.4717
  710MOL0     C97883   4.228   4.372  11.550 -0.7142 -0.1995  0.1852
  710MOL0     C97884   4.353   4.379  11.648 -0.8941  0.3036  0.2361
  710MOL0     C97885   4.493   4.426  11.596 -0.6285 -0.2104  0.7022
  710MOL0     C97886   4.600   4.468  11.696  0.0366 -0.5125 -0.3243
  710MOL0    Cl97887   4.550   4.621  11.776  0.4051 -0.1173  0.0841
  710MOL0     C97888   3.681   4.515  11.038 -0.2307  0.2567  0.1398
  710MOL0     C97889   3.547   4.554  11.060 -0.7668 -0.4360 -0.0799
  710MOL0     O97890   3.459   4.838  11.294  0.5782  0.2513  0.2413
  710MOL0     C97891   3.125   4.718  11.305  0.4070 -0.6876 -0.8382
  710MOL0     C97892   2.989   4.752  11.318  0.2257 -0.0198 -0.2261
  710MOL0     N97893   2.320   4.797  11.142  0.7327  0.4579 -0.3138
  710MOL0     N97894   2.261   4.782  11.025 -0.3578  1.0504 -0.7355
  710MOL0     C97895   3.243   4.078  10.537  0.1115 -0.3597 -0.2363
  710MOL0     C97896   3.366   4.080  10.468  0.2475 -0.7394 -0.4810
  710MOL0     C97897   3.671   4.218  10.127  0.9288 -0.3949 -0.5970
  710MOL0     C97898   3.770   4.142  10.188 -0.0579  0.3047 -0.4446
  710MOL0     C97899   3.895   4.122  10.132  0.3821  0.6580 -0.4511
  710MOL0     C97900   3.917   4.166  10.003 -0.9479  0.1477  0.0088
  710MOL0     O97901   4.043   4.169   9.950  0.0084  0.5282 -0.1854
  710MOL0     C97902   4.124   4.263  10.025  0.0083 -0.2183 -0.3423
  710MOL0     C97903   4.095   4.412  10.005 -0.0117  0.1023  0.7181
  710MOL0     C97904   4.108   4.458   9.852 -0.8864 -0.7654 -0.4668
  710MOL0     C97905   4.045   4.584   9.804  0.0803 -0.4064  0.3486
  710MOL0     C97906   3.899   4.577   9.773 -0.9224  0.4298 -0.1817
  710MOL0     C97907   3.779   4.580   9.738  0.4108 -0.0199 -0.3339
  710MOL0     C97908   3.820   4.229   9.930  0.4310  0.5783 -0.7927
  710MOL0     C97909   3.692   4.259   9.986 -0.3334 -0.5489 -1.1533
  710MOL0     C97910   3.588   4.328   9.899 -0.4048 -0.4636  0.7764
  710MOL0     H97911   3.266   4.273  10.197  2.3314  1.9457  1.4999
  710MOL0     H97912   3.063   4.282  10.333 -0.1375 -0.2782  0.8505
  710MOL0     H97913   2.900   4.278  10.466  0.9279 -0.5708 -0.0318
  710MOL0     H97914   3.000   4.391  10.548  2.9467 -0.8669  0.0678
  710MOL0     H97915   2.791   4.213  10.694  0.3809 -0.7770  3.7143
  710MOL0     H97916   2.897   4.319  10.781  0.1644 -0.0571 -0.8710
  710MOL0     H97917   2.816   4.519  10.685  1.5034 -0.8961 -1.3063
  710MOL0     H97918   2.740   4.431  10.549 -1.4342  2.3958  0.5808
  710MOL0     H97919   2.558   4.358  10.698 -0.4536 -0.4344  1.7516
  710MOL0     H97920   2.659   4.388  10.838 -0.9249 -0.3753 -0.0977
  710MOL0     H97921   2.552   4.604  10.648 -1.9280  2.6493  0.7480
  710MOL0     H97922   2.613   4.641  10.808  0.0808  0.2516 -0.1740
  710MOL0     H97923   2.400   4.434  10.789  2.3100  0.5126 -5.3431
  710MOL0     H97924   2.440   4.538  10.922  2.5545  2.3635  0.2558
  710MOL0     H97925   2.233   4.577  10.830  1.4828 -2.8351 -0.6046
  710MOL0     H97926   2.280   4.583  10.676 -2.7551 -4.1088  2.9955
  710MOL0     H97927   2.407   4.813  10.735  2.3704  0.6625  2.3379
  710MOL0     H97928   2.228   4.828  10.762 -0.2076 -0.7249  1.6829
  710MOL0     H97929   2.562   4.879  10.935 -0.8192  3.2307  0.1224
  710MOL0     H97930   2.644   4.844  11.182 -0.6270  0.9310 -2.3434
  710MOL0     H97931   2.530   4.846  11.312  0.6264  0.8443  0.0684
  710MOL0     H97932   2.607   5.083  11.138  0.2830  0.0187 -0.0181
  710MOL0     H97933   2.460   5.079  11.235 -1.3851 -4.3794  0.1411
  710MOL0     H97934   2.629   5.185  11.381 -2.5561  1.1898 -1.0992
  710MOL0     H97935   2.596   5.028  11.445  1.5236  0.3641  0.5536
  710MOL0     H97936   2.818   5.118  11.254 -0.9425 -0.3935 -1.4595
  710MOL0     H97937   2.846   5.104  11.422  0.9877  0.7078 -1.1583
  710MOL0     H97938   3.027   5.089  11.298 -0.7830 -1.2364 -0.1884
  710MOL0     H97939   3.329   5.078  11.366 -0.9305 -0.6230  0.6148
  710MOL0     H97940   3.243   5.153  11.240  1.3004 -0.1688  0.5886
  710MOL0     H97941   3.369   5.038  11.196  0.5881  0.5424  0.1409
  710MOL0     H97942   3.559   4.623  11.390  0.4108  2.0959  0.1072
  710MOL0     H97943   3.797   4.524  11.358  2.0454 -1.6690 -1.6837
  710MOL0     H97944   3.877   4.334  11.297  0.1901  2.1140  0.3455
  710MOL0     H97945   3.946   4.254  11.156  2.6845  0.2953  0.3272
  710MOL0     H97946   4.154   4.404  11.202 -2.4218  0.0423 -2.7797
  710MOL0     H97947   4.058   4.468  11.347 -2.0867  0.4896 -0.1879
  710MOL0     H97948   4.135   4.179  11.297  2.2164  1.0151 -0.9581
  710MOL0     H97949   4.042   4.239  11.436 -0.1166 -3.8908 -0.6894
  710MOL0     H97950   4.308   4.368  11.363 -1.4252 -0.3594 -0.8029
  710MOL0     H97951   4.312   4.207  11.437 -1.2507 -1.0602  2.2306
  710MOL0     H97952   4.191   4.475  11.546 -1.7255 -0.2253  4.4346
  710MOL0     H97953   4.161   4.309  11.609  1.9531 -0.2606  3.4580
  710MOL0     H97954   4.378   4.285  11.697  1.3551  0.4301 -0.5356
  710MOL0     H97955   4.330   4.447  11.730  1.5500  0.5173  0.8169
  710MOL0     H97956   4.483   4.497  11.514 -2.5332 -2.2761 -0.9725
  710MOL0     H97957   4.535   4.335  11.551  0.7405  0.4091  0.6827
  710MOL0     H97958   4.694   4.477  11.640  1.1928 -1.8382  1.3481
  710MOL0     H97959   4.616   4.397  11.776  1.1648  0.8233  0.6865
  710MOL0     H97960   3.705   4.480  10.938 -1.9898  1.4748 -0.7791
  710MOL0     H97961   3.480   4.566  10.976  0.2345  0.5303 -0.7640
  710MOL0     H97962   3.163   4.617  11.307 -0.5082 -1.0506  0.6253
  710MOL0     H97963   2.908   4.680  11.322  1.3829 -1.5639 -2.5603
  710MOL0     H97964   3.231   4.019  10.628  0.5532  1.1097  0.8222
  710MOL0     H97965   3.448   4.021  10.508 -0.3596 -0.9283  0.5205
  710MOL0     H97966   3.755   4.101  10.287  1.4912 -3.0339 -1.4410
  710MOL0     H97967   3.967   4.080  10.202 -0.3716  0.2940  0.1291
  710MOL0     H97968   4.102   4.238  10.129  1.1468 -2.4377 -0.5651
  710MOL0     H97969   4.231   4.242  10.016  0.0623  0.7534 -2.7996
  710MOL0     H97970   4.175   4.464  10.060  0.3171  1.0834 -0.6348
  710MOL0     H97971   3.997   4.433  10.049 -1.1265 -1.2640 -0.9931
  710MOL0     H97972   4.214   4.466   9.827 -0.5525 -0.4537  0.9507
  710MOL0     H97973   4.078   4.373   9.789  1.2593 -0.8537 -1.4498
  710MOL0     H97974   4.085   4.622   9.710  1.0300  1.0717  1.2993
  710MOL0     H97975   4.072   4.667   9.871 -0.3935  1.4559 -1.6486
  710MOL0     H97976   3.684   4.583   9.689  1.7396  1.6219 -3.0496
  710MOL0     H97977   3.835   4.253   9.825 -0.6748  1.7873 -0.7056
  710MOL0     H97978   3.496   4.268   9.907 -0.8094 -0.0823 -0.7214
  710MOL0     H97979   3.571   4.429   9.938 -0.5763 -0.0062 -0.4434
  710MOL0     H97980   3.625   4.336   9.797  1.1100  1.5842  1.4379
  711MOL0     O97981   0.405   0.235   1.937 -0.6123 -0.4509  0.0923
  711MOL0     C97982   0.290   0.219   1.891 -0.0247  0.8181  0.3286
  711MOL0     O97983   0.199   0.324   1.862  0.0244 -0.6671 -0.4363
  711MOL0     C97984   0.244   0.452   1.876 -0.6700 -0.3970  0.5205
  711MOL0     C97985   0.174   0.531   1.963 -0.1487 -0.4516 -0.1057
  711MOL0     C97986   0.220   0.659   1.987  0.1773 -0.9475 -0.4826
  711MOL0     C97987   0.332   0.707   1.923 -0.4825  0.4606  1.5878
  711MOL0     O97988   0.376   0.838   1.937 -0.6798  0.3042  0.3357
  711MOL0     C97989   0.411   0.855   2.078 -0.1482  0.4637  0.9310
  711MOL0     C97990   0.432   1.008   2.095  0.4514 -0.2989  0.6682
  711MOL0     C97991   0.565   1.064   2.028  0.3107  0.6810 -0.3259
  711MOL0     C97992   0.546   1.152   1.914 -0.8354  0.2592 -0.0788
  711MOL0     C97993   0.678   1.217   1.874 -0.3629  0.4022  0.0777
  711MOL0     C97994   0.788   1.119   1.825 -0.8426 -0.3185 -0.1688
  711MOL0     C97995   0.919   1.203   1.815 -0.5398  0.2984  0.3919
  711MOL0     C97996   1.031   1.117   1.763  0.1202 -0.5641  0.1863
  711MOL0     N97997   1.008   1.083   1.625  0.2711  0.4610 -0.3024
  711MOL0     C97998   1.059   1.147   1.513 -0.6078 -0.1629 -0.4114
  711MOL0     C97999   1.017   1.077   1.409 -0.1746  0.4215  0.0598
  711MOL0     C98000   1.048   1.101   1.270  0.1739  0.5383  0.6076
  711MOL0     C98001   1.074   0.974   1.186 -0.5723 -0.0431 -0.1709
  711MOL0     C98002   1.194   0.899   1.239 -0.0173 -0.5257 -0.7187
  711MOL0     C98003   1.237   0.766   1.172  0.3012  0.8139 -0.5974
  711MOL0     O98004   1.292   0.800   1.041 -0.0746 -0.3963 -0.2099
  711MOL0     C98005   1.355   0.705   0.964  0.0536 -1.5254  0.0766
  711MOL0     C98006   1.340   0.566   0.977  0.7245  0.3029  0.0942
  711MOL0     C98007   1.407   0.469   0.903 -0.9160 -0.2651  0.3407
  711MOL0     C98008   1.389   0.329   0.948 -0.5601 -0.3654 -0.2242
  711MOL0     C98009   1.483   0.511   0.795  0.5512  0.2861  0.5825
  711MOL0     C98010   1.548   0.407   0.699 -0.0434 -0.7370 -0.1489
  711MOL0     O98011   1.650   0.459   0.635  0.3080  1.0779  0.2999
  711MOL0     C98012   1.697   0.392   0.519 -0.1036 -0.1459  0.1033
  711MOL0     C98013   1.650   0.276   0.449 -0.1260  0.4571  0.0785
  711MOL0     C98014   1.727   0.214   0.353  1.0782 -0.0306  0.3899
  711MOL0     C98015   1.848   0.279   0.311  0.2153  0.3191  0.2424
  711MOL0     O98016   1.928   0.221   0.204  0.7533  0.2571  0.1360
  711MOL0     C98017   1.951   0.081   0.205 -0.5914  0.3571  0.3491
  711MOL0     C98018   2.076   0.056   0.123  0.2369  0.4954 -0.2804
  711MOL0     C98019   2.195   0.124   0.202  0.7757 -0.1776  0.4852
  711MOL0     C98020   2.335   0.104   0.137 -0.6404 -0.0051  0.0761
  711MOL0     C98021   2.372  -0.043   0.114  0.3429 -0.3297  0.4805
  711MOL0     C98022   2.452  -0.047  -0.018 -0.2088  1.0956 -0.0357
  711MOL0     C98023   2.518  -0.195  -0.035 -0.3034 -0.1163  0.0868
  711MOL0     C98024   2.406  -0.303  -0.080  0.0084  0.4979  0.0999
  711MOL0    Cl98025   2.362  -0.263  -0.249 -0.1143 -0.0967  0.3270
  711MOL0     C98026   1.888   0.399   0.365  0.5779  0.1226 -0.1004
  711MOL0     C98027   1.822   0.446   0.469  0.4529  0.0333 -0.2523
  711MOL0     O98028   1.517   0.288   0.698  0.3916 -0.5937  0.2575
  711MOL0     C98029   1.490   0.653   0.766 -0.2231  0.3153 -0.0244
  711MOL0     C98030   1.425   0.745   0.848 -0.1190 -0.0669 -0.8306
  711MOL0     N98031   0.938   0.968   1.465 -0.7176  0.0377  0.7195
  711MOL0     N98032   0.940   0.970   1.589 -0.1223  0.4850 -0.7756
  711MOL0     C98033   0.399   0.627   1.829 -0.2264 -0.4346  0.9218
  711MOL0     C98034   0.355   0.499   1.808  0.4028 -0.4601  0.0495
  711MOL0     C98035   0.233   0.086   1.900  0.1256  0.8813  0.1676
  711MOL0     C98036   0.296  -0.011   1.987  0.4236 -0.0965  0.2851
  711MOL0     C98037   0.237  -0.137   2.002 -0.3808 -0.1370 -0.4267
  711MOL0     C98038   0.130  -0.175   1.918 -0.0747 -0.0433  0.1325
  711MOL0     O98039   0.095  -0.306   1.931  0.0727 -0.3179 -0.1248
  711MOL0     C98040  -0.025  -0.321   2.010  0.9444 -0.8498 -0.5549
  711MOL0     C98041  -0.144  -0.356   1.920 -0.4245  0.0210 -0.8130
  711MOL0     C98042  -0.134  -0.494   1.850 -0.9682 -0.7495 -0.2934
  711MOL0     C98043  -0.225  -0.517   1.724  0.0904 -0.6795  0.6217
  711MOL0     C98044  -0.349  -0.576   1.771  0.2016  1.2802  0.1977
  711MOL0     C98045  -0.450  -0.636   1.803  0.1166 -0.2962  0.3780
  711MOL0     C98046   0.071  -0.083   1.831 -0.2831  0.2436  0.2278
  711MOL0     C98047   0.122   0.049   1.822  0.2129  1.1029 -1.0893
  711MOL0     C98048   0.050   0.134   1.716  0.4820  0.2215 -0.0307
  711MOL0     H98049   0.091   0.491   2.021  0.3616  0.1554  1.0783
  711MOL0     H98050   0.162   0.726   2.049  1.2570 -1.2830  0.9478
  711MOL0     H98051   0.510   0.814   2.102  0.4474  0.5002 -1.2744
  711MOL0     H98052   0.330   0.818   2.142 -1.5769 -1.7575 -1.9668
  711MOL0     H98053   0.347   1.067   2.060 -0.3489 -1.1996  1.0420
  711MOL0     H98054   0.439   1.032   2.202  0.2846  0.4848  0.5113
  711MOL0     H98055   0.606   1.131   2.104  0.4931  0.0649  0.1281
  711MOL0     H98056   0.629   0.979   2.002 -0.0107 -0.4619  2.2651
  711MOL0     H98057   0.505   1.089   1.835 -1.9446 -0.3737  0.9729
  711MOL0     H98058   0.478   1.230   1.950  0.3611  1.0707  0.5359
  711MOL0     H98059   0.718   1.284   1.951  0.5482 -0.5605  0.4553
  711MOL0     H98060   0.649   1.286   1.794 -0.2973  1.3185  0.8316
  711MOL0     H98061   0.798   1.043   1.902  0.6702 -0.4175 -0.4231
  711MOL0     H98062   0.762   1.077   1.728 -2.3270  1.3925 -0.5626
  711MOL0     H98063   0.950   1.257   1.905 -2.1178  2.0996 -0.1097
  711MOL0     H98064   0.900   1.283   1.743 -2.7063 -1.3398 -0.9680
  711MOL0     H98065   1.122   1.178   1.764 -1.0503  1.4244 -2.0016
  711MOL0     H98066   1.044   1.033   1.831  0.4697 -0.0359  0.7783
  711MOL0     H98067   1.132   1.227   1.512 -1.1322  0.3466  0.4436
  711MOL0     H98068   1.138   1.163   1.274  0.7497 -0.2328 -0.1407
  711MOL0     H98069   0.971   1.162   1.222  0.9379  2.2407  1.4805
  711MOL0     H98070   0.985   0.912   1.183 -2.3202  2.3744 -2.4066
  711MOL0     H98071   1.100   1.005   1.084  0.8531  1.1870  0.5050
  711MOL0     H98072   1.274   0.973   1.251  0.3386 -1.1148  0.6873
  711MOL0     H98073   1.167   0.863   1.339  2.1393  1.9366  0.8796
  711MOL0     H98074   1.311   0.706   1.226 -0.4984 -1.9695 -2.3702
  711MOL0     H98075   1.151   0.699   1.161 -0.0233  1.2548 -0.7874
  711MOL0     H98076   1.271   0.541   1.057  2.4729  1.5113  2.0875
  711MOL0     H98077   1.485   0.295   0.987 -0.1300  2.1984  1.1141
  711MOL0     H98078   1.352   0.271   0.862 -1.4784  2.9914 -2.2802
  711MOL0     H98079   1.310   0.326   1.023  1.1915  0.8365  1.7456
  711MOL0     H98080   1.557   0.220   0.460  0.4104 -0.3225  0.7302
  711MOL0     H98081   1.684   0.129   0.302  0.7844  0.3030  0.0720
  711MOL0     H98082   1.962   0.046   0.308  0.9899 -4.2247 -1.1408
  711MOL0     H98083   1.862   0.039   0.156  1.9722 -3.3843 -1.5753
  711MOL0     H98084   2.097  -0.052   0.127  0.0392  0.3520 -1.9988
  711MOL0     H98085   2.055   0.083   0.019 -0.1665  2.2480  0.2297
  711MOL0     H98086   2.197   0.077   0.301 -0.3463 -2.0800 -0.3476
  711MOL0     H98087   2.179   0.231   0.219 -1.6621 -0.7090  1.9543
  711MOL0     H98088   2.414   0.143   0.203 -1.2903  0.1357  0.7906
  711MOL0     H98089   2.339   0.160   0.044  1.3447  2.6986  1.6250
  711MOL0     H98090   2.437  -0.070   0.198  2.3584  3.3184  0.3206
  711MOL0     H98091   2.284  -0.106   0.097 -0.6497  1.7065 -3.0747
  711MOL0     H98092   2.528   0.031  -0.020 -1.9837  2.9240  0.5418
  711MOL0     H98093   2.380  -0.031  -0.099 -1.0376  0.2758  0.5197
  711MOL0     H98094   2.567  -0.220   0.059  1.8932  1.0149 -0.6758
  711MOL0     H98095   2.590  -0.192  -0.118 -2.2892 -1.8384 -1.8272
  711MOL0     H98096   2.318  -0.301  -0.015 -0.4964 -1.2687 -0.4521
  711MOL0     H98097   2.447  -0.405  -0.077 -0.7787  0.0601 -2.1685
  711MOL0     H98098   1.970   0.449   0.315 -2.9296  2.0343 -4.6998
  711MOL0     H98099   1.849   0.542   0.512 -5.9004  2.1373  0.1351
  711MOL0     H98100   1.552   0.680   0.682  1.9606 -0.3745  1.2715
  711MOL0     H98101   1.422   0.852   0.832  1.8348  0.2009  0.3822
  711MOL0     H98102   0.486   0.664   1.777 -2.4381  2.0735 -1.3161
  711MOL0     H98103   0.400   0.436   1.732  1.0773 -1.1438  0.9965
  711MOL0     H98104   0.391   0.018   2.033  0.4117  5.0565 -2.2243
  711MOL0     H98105   0.287  -0.211   2.063  0.0717 -1.0260 -1.8135
  711MOL0     H98106   0.004  -0.398   2.083  4.6695  1.8960  1.1705
  711MOL0     H98107  -0.052  -0.240   2.079  1.7164 -0.6503 -0.4759
  711MOL0     H98108  -0.143  -0.282   1.839 -2.8719  0.0637 -0.8591
  711MOL0     H98109  -0.232  -0.330   1.979 -1.2488 -2.6387 -0.7782
  711MOL0     H98110  -0.029  -0.501   1.822 -0.4162  1.8221  0.8217
  711MOL0     H98111  -0.149  -0.577   1.920 -1.2904 -0.5006 -0.0603
  711MOL0     H98112  -0.184  -0.589   1.653 -0.5874  3.2072 -4.3488
  711MOL0     H98113  -0.232  -0.425   1.665  2.3861  0.2710  1.7215
  711MOL0     H98114  -0.525  -0.711   1.817  1.5760 -1.7554  0.8734
  711MOL0     H98115  -0.006  -0.111   1.760 -0.0446  2.0400 -0.8013
  711MOL0     H98116   0.022   0.234   1.752  1.3549  0.7002 -0.6336
  711MOL0     H98117   0.115   0.157   1.631 -1.4024 -0.3058 -1.6903
  711MOL0     H98118  -0.041   0.088   1.677  0.9031 -1.2315  0.6208
  712MOL0     O98119   5.669   4.667   2.538  0.4985  0.7667  0.2197
  712MOL0     C98120   5.747   4.759   2.516 -0.0971  0.7330  0.0216
  712MOL0     O98121   5.712   4.891   2.489  0.7727 -0.5245  0.6222
  712MOL0     C98122   5.590   4.945   2.508  0.0233 -0.5618  0.1671
  712MOL0     C98123   5.467   4.878   2.538 -0.2999 -0.4367  0.0208
  712MOL0     C98124   5.350   4.953   2.535 -0.1425  0.3832  0.6704
  712MOL0     C98125   5.350   5.090   2.512 -0.1811 -0.7932  0.4710
  712MOL0     O98126   5.237   5.158   2.537  0.0497  0.1972  0.9773
  712MOL0     C98127   5.233   5.303   2.543  0.2969 -0.3819  0.3222
  712MOL0     C98128   5.088   5.347   2.574  1.2819 -0.3182 -0.5407
  712MOL0     C98129   5.075   5.500   2.591 -0.1823  0.4879 -0.2427
  712MOL0     C98130   4.951   5.529   2.667 -0.6491  0.8335  0.0438
  712MOL0     C98131   4.936   5.677   2.695  0.5441 -0.6416 -0.7964
  712MOL0     C98132   5.027   5.740   2.808  0.6690 -0.3776 -0.5762
  712MOL0     C98133   4.980   5.694   2.944  0.2892  0.3469 -0.4324
  712MOL0     C98134   5.071   5.746   3.050 -0.2852 -0.2635 -0.0915
  712MOL0     N98135   5.185   5.654   3.078  0.2292  0.7199 -0.5985
  712MOL0     C98136   5.210   5.576   3.187  0.6248 -0.0037  0.0879
  712MOL0     C98137   5.319   5.497   3.163 -0.0749  0.2761 -0.1768
  712MOL0     C98138   5.368   5.394   3.257 -0.1618  0.5391  0.6115
  712MOL0     C98139   5.516   5.364   3.223  0.1692  0.2526  0.0087
  712MOL0     C98140   5.617   5.480   3.231 -0.0500  0.9322 -0.6946
  712MOL0     C98141   5.755   5.414   3.178 -0.4327 -0.6160 -0.2826
  712MOL0     O98142   5.820   5.339   3.277  0.2251 -0.6716 -0.2837
  712MOL0     C98143   5.950   5.305   3.253  0.9918  0.1285 -0.2273
  712MOL0     C98144   6.013   5.323   3.127  0.3081 -1.2611 -0.3164
  712MOL0     C98145   6.141   5.286   3.105 -0.6573  0.0900 -0.0686
  712MOL0     C98146   6.206   5.323   2.970  0.0612  0.3527 -0.6600
  712MOL0     C98147   6.223   5.209   3.201  0.7352  0.4358  0.5863
  712MOL0     C98148   6.361   5.152   3.175  0.3177 -0.0290 -0.7541
  712MOL0     O98149   6.446   5.162   3.281  0.0747  0.1179 -0.1820
  712MOL0     C98150   6.554   5.075   3.290  0.3058  0.3366 -0.6917
  712MOL0     C98151   6.667   5.083   3.209 -0.3343 -0.1375 -0.9434
  712MOL0     C98152   6.780   5.008   3.236  0.7744  0.7197  0.2840
  712MOL0     C98153   6.781   4.905   3.336  0.7098 -0.1809  0.2177
  712MOL0     O98154   6.898   4.831   3.347 -0.5333 -0.5094 -0.1370
  712MOL0     C98155   6.915   4.730   3.441 -0.3079  0.8792  0.0035
  712MOL0     C98156   7.054   4.670   3.420  0.2311 -0.2153 -0.0901
  712MOL0     C98157   7.083   4.540   3.499  0.3289  0.2747 -0.2603
  712MOL0     C98158   7.220   4.529   3.556 -0.0074 -0.2297  0.0769
  712MOL0     C98159   7.253   4.394   3.620 -0.2276  0.5263 -0.3822
  712MOL0     C98160   7.397   4.390   3.673 -0.1452 -0.2501  0.3134
  712MOL0     C98161   7.448   4.255   3.729 -0.2984  0.0309  0.0754
  712MOL0     C98162   7.524   4.168   3.629 -0.0289  0.1324  0.4060
  712MOL0    Cl98163   7.613   4.048   3.736  0.7186  0.4191  0.4287
  712MOL0     C98164   6.665   4.882   3.405  0.3328  1.3114  0.1239
  712MOL0     C98165   6.553   4.967   3.391 -0.0491 -0.5896  0.1224
  712MOL0     O98166   6.382   5.101   3.065 -0.2013  0.5349 -0.0168
  712MOL0     C98167   6.163   5.194   3.328 -0.2550 -0.4495  0.2041
  712MOL0     C98168   6.034   5.241   3.353  0.4191 -0.5233  0.1395
  712MOL0     N98169   5.337   5.515   3.027  0.6463 -0.1880  0.5477
  712MOL0     N98170   5.271   5.611   2.983 -0.6219 -0.3239  0.3757
  712MOL0     C98171   5.466   5.163   2.485  0.2744  0.2192  0.3144
  712MOL0     C98172   5.584   5.084   2.472 -0.4164 -0.0694 -0.1150
  712MOL0     C98173   5.886   4.724   2.502 -1.0937  1.1247 -0.7472
  712MOL0     C98174   5.981   4.827   2.462 -0.3143  0.4696 -0.0032
  712MOL0     C98175   6.124   4.812   2.477 -0.3343 -0.1478 -0.5140
  712MOL0     C98176   6.173   4.684   2.501  0.7160  0.4558  0.4548
  712MOL0     O98177   6.308   4.671   2.506 -0.0500 -0.2284 -0.5204
  712MOL0     C98178   6.348   4.619   2.371 -1.0184 -0.3178 -0.9558
  712MOL0     C98179   6.394   4.472   2.385 -0.4823  0.1987  0.2261
  712MOL0     C98180   6.525   4.461   2.461  0.3719 -0.3809  0.1633
  712MOL0     C98181   6.528   4.324   2.526 -0.1954 -0.2594 -0.6730
  712MOL0     C98182   6.667   4.289   2.542  0.6210  0.6519  0.1980
  712MOL0     C98183   6.786   4.255   2.553 -0.0732  0.1163  0.3877
  712MOL0     C98184   6.090   4.576   2.518 -0.2992 -0.7573 -0.4800
  712MOL0     C98185   5.942   4.594   2.515  0.0489  0.5034 -0.6044
  712MOL0     C98186   5.868   4.471   2.551 -0.2824  0.1380  0.0649
  712MOL0     H98187   5.464   4.771   2.556 -0.9006 -0.7864 -1.9240
  712MOL0     H98188   5.252   4.910   2.552 -1.0701  0.1040 -3.8733
  712MOL0     H98189   5.258   5.349   2.447  0.5586  0.2591  0.6897
  712MOL0     H98190   5.302   5.347   2.616 -0.0998 -1.6317  1.4892
  712MOL0     H98191   5.025   5.314   2.491  0.7506  2.2737 -1.2895
  712MOL0     H98192   5.066   5.301   2.670  2.7716  0.6313  0.2996
  712MOL0     H98193   5.163   5.553   2.628  1.3286 -1.3307 -1.0518
  712MOL0     H98194   5.055   5.532   2.489 -1.4767  2.3884  0.5491
  712MOL0     H98195   4.869   5.497   2.602  1.0733 -1.4780 -1.1136
  712MOL0     H98196   4.954   5.471   2.760  0.2916 -0.0654 -0.5144
  712MOL0     H98197   4.829   5.685   2.715  0.6251  2.1162 -1.1267
  712MOL0     H98198   4.953   5.736   2.605  1.5788  1.3036  0.5907
  712MOL0     H98199   5.127   5.697   2.803 -0.0946 -3.0298  2.6902
  712MOL0     H98200   5.021   5.848   2.790 -1.0609 -0.2574  0.4109
  712MOL0     H98201   4.976   5.585   2.946 -0.2316  0.3688  0.0360
  712MOL0     H98202   4.876   5.724   2.961 -0.2350 -1.4044 -0.2891
  712MOL0     H98203   5.092   5.853   3.039 -0.7702 -0.1800 -0.1972
  712MOL0     H98204   5.009   5.741   3.140  0.3805 -3.4808  0.3339
  712MOL0     H98205   5.151   5.562   3.276  2.7253 -1.8545  1.3044
  712MOL0     H98206   5.305   5.307   3.241  0.1604  0.5818 -1.1155
  712MOL0     H98207   5.348   5.435   3.357 -0.5055 -1.1874  1.2755
  712MOL0     H98208   5.553   5.299   3.303 -2.2313  0.7798  1.6758
  712MOL0     H98209   5.522   5.319   3.123  2.5838  0.7972 -0.1413
  712MOL0     H98210   5.594   5.565   3.165  0.1646  0.2852 -1.6318
  712MOL0     H98211   5.639   5.522   3.329  1.7387  0.7057 -0.9528
  712MOL0     H98212   5.732   5.344   3.098 -1.5656 -1.7664  0.9873
  712MOL0     H98213   5.819   5.499   3.151  1.4507 -1.9062 -0.0986
  712MOL0     H98214   5.960   5.371   3.045  0.3080  0.6169  0.7186
  712MOL0     H98215   6.133   5.389   2.922 -0.5508 -0.4165 -0.7965
  712MOL0     H98216   6.229   5.242   2.901 -2.1809 -0.0009 -1.0629
  712MOL0     H98217   6.294   5.386   2.988  0.0093 -0.3282  2.5879
  712MOL0     H98218   6.668   5.165   3.138 -0.8506  2.0344  1.3883
  712MOL0     H98219   6.864   5.025   3.169  1.5830  1.2741  1.4021
  712MOL0     H98220   6.902   4.767   3.543  1.7161 -0.9223  1.0197
  712MOL0     H98221   6.838   4.654   3.427 -0.2876  1.0103 -0.8597
  712MOL0     H98222   7.069   4.637   3.317  3.1622  0.1812  0.1298
  712MOL0     H98223   7.132   4.745   3.438  1.4739 -1.5306  0.2245
  712MOL0     H98224   7.063   4.451   3.439 -1.0852 -0.5472  1.3382
  712MOL0     H98225   7.016   4.533   3.585 -1.2631 -0.6124 -1.5300
  712MOL0     H98226   7.241   4.607   3.630  0.6215 -0.9517  0.6834
  712MOL0     H98227   7.290   4.551   3.475  2.7008  1.1432  2.5857
  712MOL0     H98228   7.184   4.377   3.703 -0.2029  0.3309 -0.4013
  712MOL0     H98229   7.236   4.311   3.551  1.8821 -0.7650  0.5590
  712MOL0     H98230   7.400   4.465   3.752  0.4012  0.8334 -0.7101
  712MOL0     H98231   7.454   4.435   3.591 -0.5422  3.1288  1.7144
  712MOL0     H98232   7.367   4.208   3.785 -2.0497  3.1457  0.4079
  712MOL0     H98233   7.513   4.281   3.813  0.1879  0.2759 -0.3715
  712MOL0     H98234   7.595   4.227   3.571 -0.9092  2.0117  1.1469
  712MOL0     H98235   7.457   4.114   3.561 -2.0496  1.8137  0.9543
  712MOL0     H98236   6.669   4.810   3.486 -2.8009 -0.1585 -0.8911
  712MOL0     H98237   6.464   4.940   3.447 -0.6445 -2.4147 -1.6370
  712MOL0     H98238   6.225   5.132   3.393 -0.1875 -1.9108 -1.2169
  712MOL0     H98239   5.983   5.219   3.446 -0.6560 -1.1052 -0.5749
  712MOL0     H98240   5.471   5.269   2.460 -0.3000 -0.4292 -3.0254
  712MOL0     H98241   5.677   5.137   2.450 -2.1626  3.5297  0.4176
  712MOL0     H98242   5.950   4.927   2.432 -1.8530  0.9395  2.8592
  712MOL0     H98243   6.187   4.900   2.465  0.0499 -0.2039  0.9043
  712MOL0     H98244   6.271   4.631   2.295  1.4333 -0.1399 -3.5848
  712MOL0     H98245   6.436   4.673   2.335 -1.6121  2.1073  0.9075
  712MOL0     H98246   6.406   4.438   2.282  1.3164 -0.9688  0.7677
  712MOL0     H98247   6.314   4.420   2.439  2.9693 -4.4170  1.5328
  712MOL0     H98248   6.606   4.489   2.393  0.9359  1.9372  1.6767
  712MOL0     H98249   6.520   4.536   2.540  0.9386  0.7218 -0.8109
  712MOL0     H98250   6.478   4.245   2.468 -0.0787  0.3597 -1.6522
  712MOL0     H98251   6.484   4.337   2.625  1.7659 -0.0448  0.1978
  712MOL0     H98252   6.886   4.217   2.551 -0.3136 -0.5071 -1.5020
  712MOL0     H98253   6.132   4.479   2.541 -0.8833 -0.4694  2.1796
  712MOL0     H98254   5.805   4.450   2.465  0.7119 -1.5228 -0.3091
  712MOL0     H98255   5.940   4.391   2.571  0.8362  1.4194  1.4309
  712MOL0     H98256   5.806   4.478   2.641 -3.6964 -0.8758 -2.0152
  713MOL0     O98257   4.739   7.072   9.165  0.1121 -0.1288  0.2347
  713MOL0     C98258   4.705   7.002   9.262  0.2494  0.0406  0.2023
  713MOL0     O98259   4.788   6.952   9.358  0.8812  0.4214 -0.0365
  713MOL0     C98260   4.919   6.977   9.347  0.5011 -0.1164 -0.6579
  713MOL0     C98261   4.996   7.047   9.442 -0.0146 -0.0030  0.5541
  713MOL0     C98262   5.133   7.050   9.430  0.5480 -0.2406  0.4563
  713MOL0     C98263   5.198   6.988   9.322 -0.0135  0.0097  0.0629
  713MOL0     O98264   5.335   6.984   9.301  0.2769 -0.4688 -0.0866
  713MOL0     C98265   5.418   6.977   9.419  0.0803  0.4959 -0.0873
  713MOL0     C98266   5.560   6.953   9.375  0.0755  0.3886 -0.6810
  713MOL0     C98267   5.656   6.929   9.492  0.4204  0.1469 -0.7880
  713MOL0     C98268   5.799   6.922   9.448 -0.3934 -1.0188  0.4601
  713MOL0     C98269   5.859   7.073   9.418  0.2022 -0.2953  0.5313
  713MOL0     C98270   6.003   7.067   9.379 -0.3862  0.8315  0.2973
  713MOL0     C98271   6.034   7.207   9.314 -0.5395  0.0668  0.9595
  713MOL0     C98272   6.166   7.200   9.237  1.4034 -0.1374  0.4135
  713MOL0     N98273   6.276   7.180   9.330 -0.2240  0.2568 -0.4018
  713MOL0     C98274   6.326   7.277   9.405  1.1948 -1.1899 -0.1609
  713MOL0     C98275   6.402   7.217   9.496 -0.6816 -0.1272 -0.8823
  713MOL0     C98276   6.489   7.278   9.611 -1.1478 -0.1498  0.9331
  713MOL0     C98277   6.446   7.239   9.753  0.5013 -0.6476  0.0623
  713MOL0     C98278   6.296   7.251   9.788 -0.4197  0.9426 -0.0537
  713MOL0     C98279   6.237   7.382   9.765  0.0798 -0.0167 -0.7447
  713MOL0     O98280   6.322   7.496   9.793  0.3579  0.1107 -1.2872
  713MOL0     C98281   6.259   7.622   9.779 -0.0896 -0.1555 -0.0726
  713MOL0     C98282   6.341   7.734   9.798 -0.2306 -0.0229 -0.2251
  713MOL0     C98283   6.294   7.863   9.771 -0.1919  0.3905 -0.5924
  713MOL0     C98284   6.395   7.971   9.785 -0.8242 -0.1509  1.0352
  713MOL0     C98285   6.152   7.882   9.752  0.0195  0.3132  0.1485
  713MOL0     C98286   6.093   8.014   9.753  0.5307 -0.0573  0.0106
  713MOL0     O98287   6.014   8.041   9.869 -1.3149  0.9327  0.1135
  713MOL0     C98288   5.949   8.152   9.880  0.0237 -0.8503 -0.8958
  713MOL0     C98289   5.806   8.156   9.888 -0.6834  0.4228  0.0246
  713MOL0     C98290   5.734   8.283   9.895 -0.6940  1.0569  0.0069
  713MOL0     C98291   5.805   8.403   9.902 -0.4714  0.6768  0.5805
  713MOL0     O98292   5.735   8.518   9.904  0.4919  0.6007  0.5584
  713MOL0     C98293   5.785   8.606   9.997 -0.4661 -0.1194  0.1951
  713MOL0     C98294   5.672   8.712  10.042 -0.7901 -0.3616 -0.3621
  713MOL0     C98295   5.554   8.642  10.114 -0.4374 -0.5881  0.1803
  713MOL0     C98296   5.480   8.727  10.215 -0.1216 -0.2919  0.4555
  713MOL0     C98297   5.377   8.646  10.299  0.0376  0.6187  0.3406
  713MOL0     C98298   5.264   8.591  10.211  0.0272 -0.8701  0.0807
  713MOL0     C98299   5.168   8.512  10.297  1.2878  0.1375 -0.0090
  713MOL0     C98300   5.053   8.443  10.221 -0.1355 -0.8441  0.7477
  713MOL0    Cl98301   4.974   8.304  10.294  0.5034 -0.3192  0.1503
  713MOL0     C98302   5.950   8.396   9.899  0.3648  0.6125 -0.3118
  713MOL0     C98303   6.019   8.273   9.887 -0.9657  0.2183 -0.5036
  713MOL0     O98304   6.129   8.093   9.667 -0.5832 -0.5150 -0.0291
  713MOL0     C98305   6.068   7.767   9.743 -0.9054 -0.2089 -0.3785
  713MOL0     C98306   6.122   7.636   9.756  0.4820 -0.4427  0.1067
  713MOL0     N98307   6.400   7.077   9.468 -0.5709  0.1348  0.8959
  713MOL0     N98308   6.322   7.059   9.360 -0.3985 -0.2185  0.4543
  713MOL0     C98309   5.125   6.942   9.225  0.2122  1.1405  0.2653
  713MOL0     C98310   4.985   6.932   9.232 -0.3326  1.1556  0.5688
  713MOL0     C98311   4.553   6.989   9.261 -0.1723  0.3047  0.1871
  713MOL0     C98312   4.488   6.988   9.134 -0.4453 -0.3117 -0.6678
  713MOL0     C98313   4.348   6.972   9.129 -0.5210  1.1439 -0.6696
  713MOL0     C98314   4.268   6.953   9.240  0.1908  0.1575 -0.6415
  713MOL0     O98315   4.133   6.918   9.230 -0.0697  0.0723  0.5132
  713MOL0     C98316   4.072   6.801   9.307 -0.7158  0.0454 -0.8893
  713MOL0     C98317   4.170   6.676   9.316  0.7863  0.3909  0.8142
  713MOL0     C98318   4.228   6.619   9.184 -0.0006  0.7822  0.1131
  713MOL0     C98319   4.373   6.562   9.202 -0.5985  0.4071  0.1637
  713MOL0     C98320   4.414   6.500   9.075  0.3855 -0.4581  0.6834
  713MOL0     C98321   4.453   6.444   8.971 -0.0613 -0.3697 -0.2726
  713MOL0     C98322   4.334   6.944   9.369  0.4142 -0.2555  0.0462
  713MOL0     C98323   4.475   6.969   9.379  0.2233  0.2161  0.0123
  713MOL0     C98324   4.534   6.955   9.510 -0.0408  0.0217  0.1792
  713MOL0     H98325   4.961   7.102   9.529 -0.4024  0.5302  0.0670
  713MOL0     H98326   5.192   7.110   9.499 -1.6343 -1.5566  3.7411
  713MOL0     H98327   5.393   6.893   9.484 -0.1119  1.5178  1.2038
  713MOL0     H98328   5.410   7.073   9.471  0.8143 -0.5290  2.0049
  713MOL0     H98329   5.567   6.876   9.298  0.7404  0.8287 -1.0680
  713MOL0     H98330   5.586   7.042   9.316  1.7539  0.1212 -0.3887
  713MOL0     H98331   5.643   6.990   9.581  3.9219 -0.7812  0.5306
  713MOL0     H98332   5.629   6.827   9.522 -0.7858  0.9804  1.1273
  713MOL0     H98333   5.857   6.882   9.532  1.0289 -2.0980 -0.9533
  713MOL0     H98334   5.807   6.868   9.353 -1.6742  1.4655 -1.1523
  713MOL0     H98335   5.847   7.146   9.499 -1.9523  0.8385 -0.7162
  713MOL0     H98336   5.803   7.109   9.331  4.3174 -0.6337 -2.5413
  713MOL0     H98337   6.060   7.058   9.472  0.1019  3.3982  0.3271
  713MOL0     H98338   6.033   6.983   9.315  1.4560  3.3254 -2.3908
  713MOL0     H98339   6.046   7.272   9.401 -3.3288  1.5626  0.3285
  713MOL0     H98340   5.949   7.238   9.252 -0.3549 -2.1121 -0.5007
  713MOL0     H98341   6.166   7.113   9.170 -1.0176  0.4011 -0.3563
  713MOL0     H98342   6.179   7.294   9.183 -0.9583 -0.2407 -0.4162
  713MOL0     H98343   6.297   7.382   9.403  0.7396 -1.1079  3.4479
  713MOL0     H98344   6.491   7.387   9.604 -0.5125 -0.2113  0.0737
  713MOL0     H98345   6.593   7.254   9.590 -0.2691  1.9468  2.5008
  713MOL0     H98346   6.488   7.140   9.772 -0.7982 -1.1223  0.5898
  713MOL0     H98347   6.505   7.302   9.819  3.5040 -0.7291 -2.3340
  713MOL0     H98348   6.240   7.183   9.723  0.8311 -1.1502  0.9527
  713MOL0     H98349   6.285   7.219   9.892  2.7950  1.3283  0.4975
  713MOL0     H98350   6.222   7.374   9.657  0.9760  1.9526 -1.0614
  713MOL0     H98351   6.145   7.378   9.824 -0.8790  1.7381 -2.0339
  713MOL0     H98352   6.448   7.728   9.811 -0.1179  2.1006  0.1715
  713MOL0     H98353   6.485   7.957   9.725  0.9828  0.6857  3.3906
  713MOL0     H98354   6.425   7.996   9.887  0.6863  3.1891 -0.0669
  713MOL0     H98355   6.352   8.065   9.748 -2.0693 -0.3920  1.8035
  713MOL0     H98356   5.762   8.058   9.871  4.1011 -2.2854  1.2561
  713MOL0     H98357   5.626   8.277   9.886 -0.5780 -1.5329 -0.5950
  713MOL0     H98358   5.821   8.560  10.089  3.1728  1.8117 -0.0862
  713MOL0     H98359   5.868   8.659   9.950 -1.3487  2.0822  0.9826
  713MOL0     H98360   5.714   8.793  10.101  1.2062  0.6007 -2.8886
  713MOL0     H98361   5.624   8.763   9.958 -0.3811  1.6334  0.5839
  713MOL0     H98362   5.605   8.563  10.171  2.1464  0.7739 -0.0710
  713MOL0     H98363   5.494   8.605  10.031  0.4611  2.7368 -2.1578
  713MOL0     H98364   5.427   8.812  10.170  0.0552 -0.6686 -0.4692
  713MOL0     H98365   5.545   8.774  10.290  0.7914  0.6478 -0.8895
  713MOL0     H98366   5.431   8.567  10.353  2.6221  2.7936  1.1596
  713MOL0     H98367   5.331   8.714  10.372  0.4372 -0.8230  2.0087
  713MOL0     H98368   5.306   8.535  10.127 -0.4331  0.5267 -1.1207
  713MOL0     H98369   5.213   8.678  10.169 -0.1902 -1.9760 -2.0972
  713MOL0     H98370   5.118   8.583  10.363 -0.0800 -0.7977  0.0079
  713MOL0     H98371   5.217   8.427  10.344  1.4374  0.5901  0.6619
  713MOL0     H98372   5.089   8.409  10.123 -1.7014 -0.6218  0.0553
  713MOL0     H98373   4.979   8.520  10.195  2.9212  1.9278 -0.4279
  713MOL0     H98374   6.010   8.485   9.878 -1.2381  1.4630 -1.4416
  713MOL0     H98375   6.127   8.270   9.876 -0.6333  1.2604  1.8760
  713MOL0     H98376   5.961   7.780   9.729 -0.9911 -0.4890  0.0045
  713MOL0     H98377   6.054   7.551   9.752  0.6920 -0.6546  0.7904
  713MOL0     H98378   5.174   6.906   9.135  0.2666 -1.1007  1.1174
  713MOL0     H98379   4.934   6.879   9.152 -2.5131  2.7914  0.7927
  713MOL0     H98380   4.545   7.002   9.043  1.8637 -0.6239  0.6509
  713MOL0     H98381   4.293   6.966   9.035 -2.2215  0.3149  0.3176
  713MOL0     H98382   4.050   6.840   9.407  2.3702  2.4525 -0.9636
  713MOL0     H98383   3.982   6.766   9.256  0.7759 -0.3500 -3.4237
  713MOL0     H98384   4.107   6.598   9.360  0.8539  0.8924  1.8240
  713MOL0     H98385   4.246   6.689   9.393  0.2248  1.2344  1.2441
  713MOL0     H98386   4.160   6.546   9.140  0.0752  1.5335 -1.3126
  713MOL0     H98387   4.242   6.707   9.120 -0.5757  2.4245  2.1272
  713MOL0     H98388   4.374   6.482   9.277 -2.0760  3.3928  3.6894
  713MOL0     H98389   4.447   6.639   9.225  1.0405 -1.0324 -0.0778
  713MOL0     H98390   4.485   6.390   8.884 -2.4239  0.7450 -1.9347
  713MOL0     H98391   4.279   6.917   9.459 -1.3519 -0.8712 -1.1568
  713MOL0     H98392   4.457   6.966   9.587  0.6198 -2.4211  1.3020
  713MOL0     H98393   4.580   6.856   9.521  0.2987  0.2096  0.4590
  713MOL0     H98394   4.600   7.041   9.521 -0.7115  0.7673 -1.3243
  714MOL0     O98395   1.738   9.969   9.028 -0.1426 -0.1787  0.5024
  714MOL0     C98396   1.660   9.913   9.103  0.2676 -0.7623  0.4395
  714MOL0     O98397   1.680   9.791   9.143 -0.2735 -0.0971  0.3447
  714MOL0     C98398   1.805   9.733   9.132  1.2557 -0.5080  0.4581
  714MOL0     C98399   1.910   9.750   9.226 -0.4714 -0.5165  0.3684
  714MOL0     C98400   2.036   9.690   9.208  0.3152  0.3065 -0.2249
  714MOL0     C98401   2.060   9.610   9.097  0.0382  0.5131  0.2934
  714MOL0     O98402   2.187   9.571   9.083  0.7977  0.3866  0.3778
  714MOL0     C98403   2.248   9.581   8.954  0.0373  0.1432 -0.2524
  714MOL0     C98404   2.395   9.547   8.973  0.5046  0.2139 -0.3397
  714MOL0     C98405   2.464   9.563   8.836  0.2637  0.2999 -0.4417
  714MOL0     C98406   2.595   9.492   8.834  0.0181 -0.0281  0.7227
  714MOL0     C98407   2.646   9.463   8.689 -0.2844 -0.7215  0.7194
  714MOL0     C98408   2.784   9.406   8.686  0.0124  0.2941 -0.9557
  714MOL0     C98409   2.835   9.353   8.553  0.0496  0.0412 -0.6402
  714MOL0     C98410   2.765   9.401   8.428  0.0666  0.6009 -0.6629
  714MOL0     N98411   2.843   9.363   8.311 -0.1944  0.4105  0.0216
  714MOL0     C98412   2.973   9.329   8.292 -0.7607 -0.5155  0.2641
  714MOL0     C98413   2.983   9.287   8.166 -0.0687 -0.2589  0.4032
  714MOL0     C98414   3.113   9.252   8.099 -0.4104 -0.1356 -0.2254
  714MOL0     C98415   3.087   9.146   7.992 -0.6230 -0.2769 -0.2030
  714MOL0     C98416   3.217   9.076   7.951 -0.3039 -0.3543 -0.2085
  714MOL0     C98417   3.244   9.041   7.812  0.1202 -0.2968  0.8062
  714MOL0     O98418   3.378   8.988   7.798 -0.1507  0.3733  0.4501
  714MOL0     C98419   3.421   8.927   7.687  0.5063 -0.0276  0.1907
  714MOL0     C98420   3.356   8.935   7.570 -0.4582  0.3423  0.5044
  714MOL0     C98421   3.392   8.848   7.463  0.0862 -0.4731 -0.1350
  714MOL0     C98422   3.312   8.861   7.340 -0.4951 -0.1136  0.3101
  714MOL0     C98423   3.496   8.754   7.473 -0.6520  0.8046 -1.1364
  714MOL0     C98424   3.533   8.654   7.364 -0.1873 -0.3966 -0.0102
  714MOL0     O98425   3.643   8.583   7.396 -0.3985 -0.5845  1.0812
  714MOL0     C98426   3.680   8.466   7.331  0.1329  0.1770 -0.3964
  714MOL0     C98427   3.814   8.446   7.342 -0.8395  0.1912 -0.3841
  714MOL0     C98428   3.875   8.335   7.290  0.1173 -0.0103 -0.0553
  714MOL0     C98429   3.801   8.236   7.232  0.3209  0.5307 -1.0435
  714MOL0     O98430   3.857   8.121   7.193  0.5104 -0.4622 -0.6014
  714MOL0     C98431   3.814   7.996   7.257  0.4579 -0.0981  0.8851
  714MOL0     C98432   3.831   7.882   7.153 -0.6985 -0.8130 -0.7904
  714MOL0     C98433   3.976   7.817   7.178  0.3340 -0.5274  0.7467
  714MOL0     C98434   4.021   7.720   7.057 -0.0916 -0.2701  0.3230
  714MOL0     C98435   4.148   7.639   7.100 -0.7093 -0.2707  0.2121
  714MOL0     C98436   4.195   7.540   6.984 -0.0018  0.8733  0.1347
  714MOL0     C98437   4.320   7.464   7.025 -1.1146  0.3040 -0.1665
  714MOL0     C98438   4.283   7.340   7.098  0.2638  0.5554 -0.0608
  714MOL0    Cl98439   4.253   7.202   6.995 -0.2893  0.2158  0.3567
  714MOL0     C98440   3.664   8.258   7.216  0.0551 -0.4155 -0.2553
  714MOL0     C98441   3.605   8.375   7.264 -0.6620  0.8444 -0.6795
  714MOL0     O98442   3.453   8.624   7.267 -0.3558 -0.6876 -0.0390
  714MOL0     C98443   3.564   8.760   7.595 -0.1464 -0.9888 -0.9595
  714MOL0     C98444   3.532   8.843   7.704 -0.4020  0.9707 -0.2242
  714MOL0     N98445   2.856   9.292   8.107  0.9890 -0.1903  0.6865
  714MOL0     N98446   2.778   9.337   8.196 -0.1770  0.3766 -0.5949
  714MOL0     C98447   1.949   9.583   9.009  0.7229  0.9112 -0.3318
  714MOL0     C98448   1.823   9.647   9.026  0.1042 -0.1017  0.0848
  714MOL0     C98449   1.533   9.984   9.135 -0.1982 -0.2489 -0.2027
  714MOL0     C98450   1.518  10.116   9.106  0.4157 -0.7263  0.1189
  714MOL0     C98451   1.412  10.191   9.161  0.1785 -0.7334 -0.3520
  714MOL0     C98452   1.311  10.136   9.239 -0.1418 -0.2858  0.8807
  714MOL0     O98453   1.209  10.217   9.287  0.1637  0.4103  0.1920
  714MOL0     C98454   1.127  10.172   9.396  1.0666  0.7189  0.6676
  714MOL0     C98455   1.000  10.264   9.404  0.4796  0.1012 -0.4642
  714MOL0     C98456   0.900  10.181   9.487 -0.0736  0.0029  1.6499
  714MOL0     C98457   0.760  10.235   9.468 -0.1425 -0.1673  0.4210
  714MOL0     C98458   0.656  10.156   9.533 -1.3997 -0.2789  0.9058
  714MOL0     C98459   0.583  10.080   9.591 -0.7633 -0.5230  0.2982
  714MOL0     C98460   1.323   9.996   9.263 -0.5126 -0.2871 -1.4586
  714MOL0     C98461   1.432   9.914   9.213 -0.2229  0.3166  1.2333
  714MOL0     C98462   1.428   9.758   9.239  0.1634 -0.4858  0.0650
  714MOL0     H98463   1.887   9.812   9.312 -0.1051  0.4237 -0.1923
  714MOL0     H98464   2.116   9.699   9.280  0.8257 -0.3464 -0.7027
  714MOL0     H98465   2.244   9.687   8.925  0.3820  0.9553  2.4249
  714MOL0     H98466   2.213   9.510   8.878 -0.1713 -2.2699  1.9699
  714MOL0     H98467   2.432   9.612   9.053  0.7768 -0.7016  0.2952
  714MOL0     H98468   2.398   9.439   8.993 -2.0218 -0.4852 -2.9945
  714MOL0     H98469   2.399   9.529   8.755 -0.8867  1.6626 -0.1169
  714MOL0     H98470   2.472   9.670   8.815 -1.0434  0.7133  0.9847
  714MOL0     H98471   2.672   9.544   8.892 -0.5262  1.1900  0.3947
  714MOL0     H98472   2.584   9.391   8.873 -1.0673 -1.1172 -2.1401
  714MOL0     H98473   2.649   9.562   8.643 -0.9982 -0.6249  0.8730
  714MOL0     H98474   2.571   9.403   8.636 -3.5876  2.0941  1.8734
  714MOL0     H98475   2.860   9.475   8.724  0.0273 -0.3789  0.2940
  714MOL0     H98476   2.785   9.326   8.761 -3.6776 -0.8226 -1.8569
  714MOL0     H98477   2.827   9.244   8.557 -0.6562  0.0648 -1.1928
  714MOL0     H98478   2.939   9.387   8.553  0.0424  0.2813  2.0923
  714MOL0     H98479   2.665   9.357   8.427  0.3495 -0.1241  0.4439
  714MOL0     H98480   2.762   9.510   8.427  0.4923  0.6165 -1.7019
  714MOL0     H98481   3.054   9.317   8.364 -1.0097 -1.3938  0.4070
  714MOL0     H98482   3.185   9.217   8.174 -0.1657  3.3638  1.3717
  714MOL0     H98483   3.163   9.336   8.050 -1.2148  0.2305 -0.4364
  714MOL0     H98484   3.010   9.074   8.022  0.3238 -0.9768  0.6223
  714MOL0     H98485   3.049   9.205   7.909 -1.1635  1.7000  1.3744
  714MOL0     H98486   3.300   9.142   7.976  0.5609 -0.9199 -1.5310
  714MOL0     H98487   3.220   8.985   8.012 -1.9548  0.6446  1.5155
  714MOL0     H98488   3.164   8.983   7.765  1.9641 -0.0113 -3.0637
  714MOL0     H98489   3.244   9.134   7.754 -1.2640 -1.1596 -0.6717
  714MOL0     H98490   3.286   9.014   7.546  0.5261  0.6160 -1.7248
  714MOL0     H98491   3.253   8.953   7.339  0.5352  0.5950  1.5887
  714MOL0     H98492   3.257   8.769   7.321  2.5770 -1.9336 -0.5685
  714MOL0     H98493   3.386   8.863   7.259  3.0999  0.9527  3.3469
  714MOL0     H98494   3.868   8.528   7.388 -1.0454  0.4875 -0.6643
  714MOL0     H98495   3.983   8.328   7.299  0.0479 -1.0484  0.0305
  714MOL0     H98496   3.874   7.968   7.344 -0.4547 -5.0311  0.2177
  714MOL0     H98497   3.708   7.997   7.284  0.2353 -2.5614  0.3252
  714MOL0     H98498   3.749   7.810   7.167 -2.1883  0.5690 -2.0174
  714MOL0     H98499   3.817   7.922   7.053 -0.4659 -0.5390 -0.7143
  714MOL0     H98500   3.984   7.763   7.273 -1.1474 -0.9308  0.6664
  714MOL0     H98501   4.051   7.896   7.178 -0.7041  0.4958  0.0128
  714MOL0     H98502   4.030   7.773   6.962 -2.5478  0.1402  0.2549
  714MOL0     H98503   3.944   7.648   7.030  1.4241 -1.7184 -0.3227
  714MOL0     H98504   4.235   7.701   7.124 -1.0158  0.6906 -1.0612
  714MOL0     H98505   4.134   7.582   7.192 -1.3748  1.1189  0.9933
  714MOL0     H98506   4.206   7.595   6.890  0.5110 -2.9774 -2.2842
  714MOL0     H98507   4.118   7.467   6.956  1.6022 -0.2637 -1.5397
  714MOL0     H98508   4.386   7.526   7.086 -0.8545 -0.7948  0.6934
  714MOL0     H98509   4.381   7.431   6.940 -1.8920 -1.0143 -0.2471
  714MOL0     H98510   4.192   7.359   7.155 -0.0587 -0.2146 -0.3194
  714MOL0     H98511   4.360   7.306   7.169 -1.7247 -0.7652  1.5716
  714MOL0     H98512   3.592   8.182   7.185 -2.2673  1.6081 -0.1320
  714MOL0     H98513   3.500   8.395   7.248 -1.0391  0.5326  1.1993
  714MOL0     H98514   3.653   8.699   7.606 -0.6886 -1.7050 -0.3993
  714MOL0     H98515   3.582   8.833   7.800  1.6941 -2.4812 -1.4996
  714MOL0     H98516   1.958   9.512   8.928 -0.8187  0.9542 -0.5700
  714MOL0     H98517   1.744   9.624   8.955 -0.0615 -1.9316  0.7778
  714MOL0     H98518   1.583  10.175   9.041 -0.7192 -1.5392 -1.8573
  714MOL0     H98519   1.398  10.298   9.147 -0.9170 -1.0723 -2.1829
  714MOL0     H98520   1.090  10.069   9.391  2.2870  0.2690  0.5098
  714MOL0     H98521   1.188  10.169   9.487  0.9206 -1.2334  0.7499
  714MOL0     H98522   0.970  10.285   9.300 -0.2090  2.6605  0.1832
  714MOL0     H98523   1.039  10.356   9.448  1.2954 -1.4341  2.2330
  714MOL0     H98524   0.891  10.081   9.443 -1.1880  2.3797 -4.6407
  714MOL0     H98525   0.927  10.175   9.592  1.1240  2.5859  1.5636
  714MOL0     H98526   0.729  10.238   9.363 -0.8370  1.8573  0.6336
  714MOL0     H98527   0.756  10.334   9.514  0.1640  0.0058  0.0796
  714MOL0     H98528   0.523  10.017   9.654 -1.7911  1.4840  1.4056
  714MOL0     H98529   1.254   9.939   9.326  0.5558 -2.2156 -1.9627
  714MOL0     H98530   1.498   9.728   9.317  2.5419 -1.5985 -2.3439
  714MOL0     H98531   1.332   9.722   9.278 -0.7388  2.0864  0.4209
  714MOL0     H98532   1.447   9.693   9.153  3.0889 -1.9873  1.7170
  715MOL0     O98533   6.207   2.271   3.070  1.3816 -0.2718  0.0603
  715MOL0     C98534   6.093   2.242   3.030  0.8634 -0.8217  0.2452
  715MOL0     O98535   6.036   2.122   3.045 -0.1208  0.0451  0.0063
  715MOL0     C98536   6.109   2.018   3.087 -0.4137  0.4157  0.3574
  715MOL0     C98537   6.170   2.006   3.209  0.2298 -0.7288  1.2360
  715MOL0     C98538   6.258   1.905   3.232  0.1884  0.5323  0.6571
  715MOL0     C98539   6.292   1.809   3.128  0.3386  0.1390  0.1032
  715MOL0     O98540   6.384   1.705   3.139 -0.2781  0.2769  0.2534
  715MOL0     C98541   6.486   1.699   3.236 -0.1336 -0.3579  1.5059
  715MOL0     C98542   6.554   1.558   3.244 -0.7147 -0.9237  0.3427
  715MOL0     C98543   6.681   1.551   3.161 -0.1778 -0.3599 -0.3184
  715MOL0     C98544   6.814   1.568   3.248 -0.4466  0.9923 -0.6368
  715MOL0     C98545   6.931   1.550   3.158  0.6370  0.4742  0.2813
  715MOL0     C98546   7.046   1.495   3.245 -0.0945  0.7432 -0.0090
  715MOL0     C98547   7.168   1.471   3.150 -0.2736 -0.1893  0.3847
  715MOL0     C98548   7.245   1.599   3.097  0.0224  0.3247 -0.3479
  715MOL0     N98549   7.387   1.580   3.053 -0.1303 -0.0400  0.1708
  715MOL0     C98550   7.474   1.505   3.116 -0.2258  0.1020  0.6234
  715MOL0     C98551   7.576   1.485   3.021 -0.2136 -0.0450 -0.3621
  715MOL0     C98552   7.700   1.405   3.045  1.2160 -0.8328  0.3578
  715MOL0     C98553   7.761   1.358   2.914  0.1255 -0.2226  0.0456
  715MOL0     C98554   7.880   1.267   2.945  0.0887  0.4351  0.7827
  715MOL0     C98555   7.981   1.253   2.824  0.4644  0.5268 -0.1428
  715MOL0     O98556   8.086   1.163   2.868 -0.0197 -0.0753 -0.1984
  715MOL0     C98557   8.121   1.088   2.762 -0.1271 -0.3895  0.4527
  715MOL0     C98558   8.076   0.959   2.746 -0.3665 -0.9716  0.3902
  715MOL0     C98559   8.145   0.867   2.659  0.4772  0.5007 -0.0039
  715MOL0     C98560   8.098   0.723   2.680 -1.3101 -0.2343 -0.2743
  715MOL0     C98561   8.226   0.918   2.556  0.0378  0.0722 -0.4049
  715MOL0     C98562   8.281   0.847   2.433  0.2533  0.2833 -0.2446
  715MOL0     O98563   8.246   0.719   2.413  0.0410  0.0728  0.2719
  715MOL0     C98564   8.303   0.651   2.309  0.1834 -0.7814  1.0077
  715MOL0     C98565   8.277   0.690   2.176  0.7578 -0.4968 -0.9777
  715MOL0     C98566   8.347   0.639   2.069 -0.4789 -0.4310  0.4954
  715MOL0     C98567   8.443   0.537   2.086  0.1314 -0.0196 -0.0661
  715MOL0     O98568   8.506   0.486   1.983 -0.2275  0.2506  0.0666
  715MOL0     C98569   8.603   0.385   2.014 -0.2665  0.0377  0.5537
  715MOL0     C98570   8.663   0.337   1.888  0.1971 -0.2474 -0.0851
  715MOL0     C98571   8.757   0.220   1.901  0.0635  0.0111 -0.1349
  715MOL0     C98572   8.831   0.194   1.769 -0.6076  0.3031 -0.1376
  715MOL0     C98573   8.898   0.051   1.775 -1.1032  0.6806  0.6521
  715MOL0     C98574   8.955   0.017   1.639 -0.3856 -0.0393  0.7805
  715MOL0     C98575   8.847  -0.013   1.525 -0.3371  0.8443 -0.3762
  715MOL0     C98576   8.908  -0.125   1.437 -0.0201  0.2790 -0.4988
  715MOL0    Cl98577   8.783  -0.162   1.313  0.1370 -0.2005 -0.3266
  715MOL0     C98578   8.455   0.482   2.215 -0.1323 -0.3008  0.6971
  715MOL0     C98579   8.390   0.547   2.329 -0.2029 -0.5048 -0.0102
  715MOL0     O98580   8.348   0.912   2.351 -0.7388  0.8094  0.0100
  715MOL0     C98581   8.265   1.050   2.566  0.0734 -1.1087 -0.5197
  715MOL0     C98582   8.213   1.133   2.669  0.1219  0.2050  0.0814
  715MOL0     N98583   7.544   1.549   2.902  0.5268  0.2890 -0.2891
  715MOL0     N98584   7.429   1.615   2.930 -0.3913 -0.1389  0.0284
  715MOL0     C98585   6.216   1.813   3.008  0.8578  0.6330 -0.8102
  715MOL0     C98586   6.125   1.920   2.989 -1.0734 -0.3825  0.0203
  715MOL0     C98587   6.014   2.346   2.973 -0.6547  0.3389  0.1558
  715MOL0     C98588   5.870   2.336   2.975  0.3473  0.4505 -0.3864
  715MOL0     C98589   5.780   2.431   2.935 -0.0621 -0.1300 -0.1648
  715MOL0     C98590   5.834   2.556   2.894  0.0034 -0.1130 -0.5364
  715MOL0     O98591   5.765   2.665   2.853  1.0164  0.5927  0.1996
  715MOL0     C98592   5.623   2.647   2.828 -0.8877 -0.7257  0.1091
  715MOL0     C98593   5.602   2.716   2.695  0.8446 -0.3046 -0.5488
  715MOL0     C98594   5.459   2.694   2.645 -0.3660  0.0653  0.6494
  715MOL0     C98595   5.412   2.784   2.531 -1.2588 -0.0822  0.9527
  715MOL0     C98596   5.302   2.729   2.448  0.2065 -0.7059  0.0227
  715MOL0     C98597   5.200   2.699   2.393 -0.2857 -0.5499  0.5023
  715MOL0     C98598   5.969   2.575   2.897  0.2307  0.4887  0.5784
  715MOL0     C98599   6.063   2.468   2.925  0.1308 -0.2968  0.2420
  715MOL0     C98600   6.203   2.497   2.891 -1.1272 -0.6263 -1.4042
  715MOL0     H98601   6.143   2.084   3.278 -0.8291  0.1918 -0.1625
  715MOL0     H98602   6.319   1.892   3.320  1.7150 -2.8223 -0.7206
  715MOL0     H98603   6.449   1.717   3.337  0.2077  0.6494  1.4569
  715MOL0     H98604   6.558   1.776   3.207 -1.0084  0.0255  0.2555
  715MOL0     H98605   6.585   1.534   3.347 -0.1109 -2.2097 -0.1176
  715MOL0     H98606   6.488   1.476   3.214 -0.7594 -0.8975  0.3702
  715MOL0     H98607   6.671   1.459   3.104  1.4929  0.1285 -1.4615
  715MOL0     H98608   6.684   1.631   3.087  0.3601 -1.0313 -1.0337
  715MOL0     H98609   6.810   1.668   3.292  3.1614  0.1113  2.1364
  715MOL0     H98610   6.808   1.482   3.316  1.9380  2.1149  1.1491
  715MOL0     H98611   6.956   1.648   3.114  1.4630  1.2003  2.2785
  715MOL0     H98612   6.912   1.486   3.071 -2.5028  2.4335 -0.6455
  715MOL0     H98613   7.073   1.560   3.328 -1.0598  0.4741  0.5317
  715MOL0     H98614   7.025   1.399   3.291  1.1782  0.0118 -0.8821
  715MOL0     H98615   7.138   1.403   3.070  1.3149 -1.5902  0.9140
  715MOL0     H98616   7.236   1.418   3.217  0.7553  0.0860 -0.4162
  715MOL0     H98617   7.185   1.650   3.022 -0.0417 -0.3985 -0.7976
  715MOL0     H98618   7.257   1.669   3.180  2.9681  0.8154 -1.0871
  715MOL0     H98619   7.478   1.465   3.217  0.0098  0.5947  0.8107
  715MOL0     H98620   7.661   1.324   3.108 -0.2134 -0.8285 -0.4787
  715MOL0     H98621   7.774   1.464   3.099  0.2858  0.6305  0.0824
  715MOL0     H98622   7.679   1.319   2.853  2.0725  0.1905 -3.0900
  715MOL0     H98623   7.785   1.444   2.850 -1.4077  0.7738  0.7453
  715MOL0     H98624   7.932   1.309   3.031  1.5344 -2.6507  1.5394
  715MOL0     H98625   7.857   1.164   2.973 -0.8888  0.9579  1.9679
  715MOL0     H98626   7.916   1.224   2.740  1.0026  0.0308 -0.3917
  715MOL0     H98627   8.031   1.347   2.800  2.5331 -0.5036 -0.0611
  715MOL0     H98628   8.006   0.929   2.823 -1.2498 -1.5901 -0.6260
  715MOL0     H98629   8.163   0.650   2.631 -0.9220  2.0622 -3.4598
  715MOL0     H98630   7.997   0.712   2.638 -1.6345 -0.7553  0.6262
  715MOL0     H98631   8.089   0.699   2.786  0.3631  2.3533  0.5392
  715MOL0     H98632   8.207   0.771   2.158  2.3739  1.8764  2.3273
  715MOL0     H98633   8.339   0.684   1.970  2.1319 -3.8425 -1.4778
  715MOL0     H98634   8.678   0.423   2.084  0.3940  1.6593 -0.9606
  715MOL0     H98635   8.552   0.299   2.059  0.2177  0.0817  1.2048
  715MOL0     H98636   8.582   0.313   1.818  1.2006 -1.0139 -1.0177
  715MOL0     H98637   8.719   0.420   1.842 -2.9271  1.0799 -1.8821
  715MOL0     H98638   8.690   0.136   1.919  1.5311 -1.7602 -2.3771
  715MOL0     H98639   8.831   0.225   1.982  0.6421  1.9065 -0.7150
  715MOL0     H98640   8.906   0.268   1.740 -0.4113  0.0596 -0.2550
  715MOL0     H98641   8.755   0.190   1.690 -1.5264  1.1503  0.6649
  715MOL0     H98642   8.976   0.055   1.851 -0.9453 -0.3560  0.5574
  715MOL0     H98643   8.826  -0.025   1.805 -0.2868  0.3227  1.7643
  715MOL0     H98644   9.033  -0.058   1.647 -1.1634 -0.8329  1.1235
  715MOL0     H98645   9.014   0.104   1.608 -0.8037 -0.1509 -0.3861
  715MOL0     H98646   8.823   0.082   1.477 -1.0828  0.7239 -0.2487
  715MOL0     H98647   8.754  -0.041   1.575  1.0667  2.5389  3.6222
  715MOL0     H98648   8.930  -0.214   1.497 -0.3368  0.4708 -0.1025
  715MOL0     H98649   8.995  -0.093   1.378 -0.3400  0.4371 -0.8952
  715MOL0     H98650   8.521   0.400   2.240 -0.1860 -0.5361  0.0781
  715MOL0     H98651   8.415   0.514   2.429 -1.5711  0.4436  0.6752
  715MOL0     H98652   8.333   1.101   2.498  1.4341  0.1202  1.6402
  715MOL0     H98653   8.251   1.234   2.662 -0.6555  0.4420 -0.9958
  715MOL0     H98654   6.223   1.742   2.926 -1.7760  2.4805 -2.7876
  715MOL0     H98655   6.077   1.930   2.893  0.9828 -0.3381 -1.0479
  715MOL0     H98656   5.820   2.242   2.999 -0.0703  1.3520  2.8151
  715MOL0     H98657   5.675   2.405   2.933  0.0787 -1.3621  2.9430
  715MOL0     H98658   5.579   2.547   2.823 -0.3838 -1.0762  1.9052
  715MOL0     H98659   5.566   2.694   2.909  1.1600 -0.2616  1.3458
  715MOL0     H98660   5.669   2.688   2.613 -0.8127 -1.2936 -1.6294
  715MOL0     H98661   5.611   2.823   2.719  1.0641 -0.4924  0.2322
  715MOL0     H98662   5.452   2.592   2.607  2.8815  0.9046 -2.9654
  715MOL0     H98663   5.391   2.703   2.730 -0.7611  1.5994  0.2054
  715MOL0     H98664   5.499   2.807   2.469 -1.7809  0.1445  0.2902
  715MOL0     H98665   5.382   2.883   2.565  0.6747  1.1213 -0.6005
  715MOL0     H98666   5.103   2.675   2.354  0.1292 -0.6891 -0.4671
  715MOL0     H98667   6.016   2.662   2.852  2.0549 -0.6948  0.0618
  715MOL0     H98668   6.270   2.491   2.977  1.1923  1.0936 -2.9506
  715MOL0     H98669   6.234   2.425   2.814 -1.8655 -1.2322 -1.1513
  715MOL0     H98670   6.232   2.592   2.846  0.1522 -1.8884 -3.4404
  716MOL0     O98671   0.778  10.948   7.233  0.1785  0.1319  1.1467
  716MOL0     C98672   0.878  10.881   7.254  0.5523 -0.3594  0.1237
  716MOL0     O98673   1.008  10.909   7.239 -0.9143 -0.1698 -0.1146
  716MOL0     C98674   1.036  11.035   7.181 -0.0155 -0.0554 -0.2990
  716MOL0     C98675   1.125  11.112   7.247 -0.3876  0.4151 -0.6106
  716MOL0     C98676   1.181  11.232   7.204  0.5319 -0.4151 -1.0172
  716MOL0     C98677   1.135  11.282   7.079 -0.2627 -0.7812 -1.2106
  716MOL0     O98678   1.175  11.392   7.010 -0.3867  0.0169 -0.0972
  716MOL0     C98679   1.237  11.499   7.095 -0.5359  0.0216  0.3806
  716MOL0     C98680   1.238  11.611   6.989  1.1604  0.8146 -1.4091
  716MOL0     C98681   1.282  11.751   7.040  0.1133  0.6925  0.0623
  716MOL0     C98682   1.436  11.759   7.026  0.1081  0.1279  0.5987
  716MOL0     C98683   1.486  11.891   7.071 -0.5780  0.0477  0.6975
  716MOL0     C98684   1.642  11.882   7.088  0.4925  0.2896 -0.2028
  716MOL0     C98685   1.712  12.016   7.092 -0.3350  0.2345  0.0631
  716MOL0     C98686   1.867  11.986   7.090  0.3823  0.2919  0.2919
  716MOL0     N98687   1.941  12.088   7.161 -0.6240 -0.6120  0.3327
  716MOL0     C98688   1.941  12.227   7.145 -0.9000  0.7187  0.8885
  716MOL0     C98689   2.006  12.274   7.255 -0.1647  0.2987  0.0816
  716MOL0     C98690   2.029  12.424   7.276 -0.5910  1.1558 -0.0794
  716MOL0     C98691   2.177  12.452   7.298  0.9127 -0.7902  0.4704
  716MOL0     C98692   2.195  12.610   7.322 -0.9992 -1.0833  0.1694
  716MOL0     C98693   2.350  12.647   7.340  0.5528  0.5624 -0.9889
  716MOL0     O98694   2.355  12.790   7.366 -0.3890 -0.0837  0.6794
  716MOL0     C98695   2.480  12.848   7.366  0.0565 -0.1136 -0.0198
  716MOL0     C98696   2.486  12.973   7.430 -0.4225  0.3645 -0.3789
  716MOL0     C98697   2.594  13.059   7.436  0.5977 -0.0576 -0.6215
  716MOL0     C98698   2.583  13.199   7.498 -0.5324  0.7627  0.1270
  716MOL0     C98699   2.713  13.005   7.390 -1.0903  0.3445 -1.0206
  716MOL0     C98700   2.841  13.071   7.389  0.9104  0.1968  0.5864
  716MOL0     O98701   2.852  13.167   7.291  0.1294  0.1615  0.2703
  716MOL0     C98702   2.976  13.209   7.250 -0.5626  0.6071  0.1761
  716MOL0     C98703   3.055  13.298   7.322  0.8656  0.3297  0.2667
  716MOL0     C98704   3.182  13.334   7.280  0.6019 -0.3168 -0.8137
  716MOL0     C98705   3.241  13.275   7.174  0.3072 -0.2129  0.9363
  716MOL0     O98706   3.358  13.303   7.117  0.4528 -1.2700 -0.0403
  716MOL0     C98707   3.451  13.385   7.186 -0.2164 -0.0456 -0.1825
  716MOL0     C98708   3.581  13.387   7.110 -0.2829 -0.8719 -0.8203
  716MOL0     C98709   3.676  13.452   7.219 -0.1012 -0.1863  1.2134
  716MOL0     C98710   3.791  13.532   7.155 -0.1513 -0.9284 -0.4339
  716MOL0     C98711   3.901  13.582   7.243  0.0090  0.0500 -0.3299
  716MOL0     C98712   3.979  13.690   7.173  0.1878 -0.9061  0.1842
  716MOL0     C98713   4.102  13.718   7.259  0.3491 -0.3347  0.4551
  716MOL0     C98714   4.175  13.840   7.195  0.3899 -0.3739  0.1340
  716MOL0    Cl98715   4.199  13.812   7.012  0.2438 -0.4397  0.0947
  716MOL0     C98716   3.166  13.183   7.096 -0.0188 -0.0371 -0.9409
  716MOL0     C98717   3.030  13.166   7.127 -0.0244  0.4809  0.6385
  716MOL0     O98718   2.930  13.040   7.465  0.5315  0.3348  0.1786
  716MOL0     C98719   2.725  12.873   7.346  0.3350  0.4404 -0.4954
  716MOL0     C98720   2.606  12.783   7.339  0.2343 -0.1049  0.3515
  716MOL0     N98721   2.051  12.167   7.330  0.2747  0.2733 -0.0147
  716MOL0     N98722   1.992  12.065   7.289 -0.5836  0.2215  0.4105
  716MOL0     C98723   1.059  11.196   7.007 -0.3312  0.3085 -0.8944
  716MOL0     C98724   1.003  11.081   7.051 -0.1656  0.1907 -0.8221
  716MOL0     C98725   0.849  10.751   7.311  0.3428  0.5974 -0.4576
  716MOL0     C98726   0.960  10.674   7.336 -0.4029 -0.6956  0.5148
  716MOL0     C98727   0.955  10.554   7.407  0.7241 -0.3383  0.3357
  716MOL0     C98728   0.827  10.507   7.452  0.6936 -0.8806 -0.7627
  716MOL0     O98729   0.791  10.397   7.525  0.5076  0.2408  0.3897
  716MOL0     C98730   0.887  10.314   7.594  0.4204  0.0214 -0.4666
  716MOL0     C98731   0.831  10.168   7.613 -0.6330 -0.0886  0.8514
  716MOL0     C98732   0.916  10.084   7.708 -0.6819  0.3255  0.3920
  716MOL0     C98733   1.064  10.062   7.649  0.8794  0.3786  0.1238
  716MOL0     C98734   1.156  10.148   7.720 -1.0185  0.6214 -0.6927
  716MOL0     C98735   1.236  10.217   7.780  1.0358  0.6866 -0.1867
  716MOL0     C98736   0.714  10.575   7.419  0.0030 -0.0818 -0.2314
  716MOL0     C98737   0.719  10.697   7.351 -1.4084  0.3681  0.2069
  716MOL0     C98738   0.589  10.774   7.333 -0.1678 -0.9229  0.4547
  716MOL0     H98739   1.165  11.067   7.337  2.1970  1.2713 -1.2450
  716MOL0     H98740   1.236  11.296   7.273 -1.2775  2.2943 -1.9372
  716MOL0     H98741   1.338  11.476   7.131 -0.8868 -0.3049  1.1744
  716MOL0     H98742   1.171  11.530   7.176 -2.3599  1.6494 -1.6033
  716MOL0     H98743   1.298  11.579   6.904  0.8981 -0.3552 -1.1726
  716MOL0     H98744   1.132  11.620   6.960  0.7098 -1.2206 -0.5661
  716MOL0     H98745   1.235  11.819   6.968 -0.0737 -0.0967 -0.5788
  716MOL0     H98746   1.245  11.769   7.142  2.2392 -1.9331  1.4247
  716MOL0     H98747   1.490  11.689   7.091 -2.1236  0.8746  3.5133
  716MOL0     H98748   1.471  11.741   6.924  0.8292  0.5767  0.7598
  716MOL0     H98749   1.436  11.917   7.165 -1.7285 -1.4003  0.5175
  716MOL0     H98750   1.462  11.972   7.001  0.0270 -1.0991 -0.8971
  716MOL0     H98751   1.663  11.829   7.181  1.6279 -0.6631 -0.9748
  716MOL0     H98752   1.683  11.828   7.003  1.0651 -0.1522  0.3494
  716MOL0     H98753   1.684  12.070   7.183 -1.7028  0.1701 -0.2988
  716MOL0     H98754   1.678  12.076   7.007  0.6721  0.3176 -0.2897
  716MOL0     H98755   1.876  11.886   7.135 -0.6942  1.4191  3.2580
  716MOL0     H98756   1.905  11.981   6.988  1.0120  0.4568  0.5149
  716MOL0     H98757   1.891  12.278   7.063  1.0264 -2.2029 -2.3993
  716MOL0     H98758   1.980  12.448   7.371  0.6436 -0.1249  0.9160
  716MOL0     H98759   1.986  12.496   7.205 -0.2082  1.3554 -0.1098
  716MOL0     H98760   2.206  12.407   7.393  0.0176  1.2954  1.7939
  716MOL0     H98761   2.240  12.426   7.212  1.2824  1.3921  0.0206
  716MOL0     H98762   2.148  12.679   7.253  0.6454  1.6655  1.6342
  716MOL0     H98763   2.151  12.627   7.421  1.1190  1.3350  0.8118
  716MOL0     H98764   2.392  12.596   7.428 -1.5719  2.7313  1.4367
  716MOL0     H98765   2.393  12.602   7.250 -0.7498  0.8938 -1.7989
  716MOL0     H98766   2.389  13.010   7.464 -0.5373  1.6996 -2.0300
  716MOL0     H98767   2.666  13.212   7.567  0.7492  2.3199 -1.6287
  716MOL0     H98768   2.492  13.216   7.556 -2.3883 -1.8066 -1.7766
  716MOL0     H98769   2.589  13.285   7.431  1.5735  0.4790 -0.0998
  716MOL0     H98770   3.013  13.320   7.420  0.0019  1.9290 -0.4102
  716MOL0     H98771   3.241  13.396   7.347 -4.8327  2.4359  2.0658
  716MOL0     H98772   3.429  13.492   7.194 -0.8521 -0.2308  0.8045
  716MOL0     H98773   3.467  13.356   7.291  2.2318  2.9405  0.4290
  716MOL0     H98774   3.609  13.288   7.073  0.6836 -1.3693  1.1272
  716MOL0     H98775   3.570  13.464   7.032  1.1513  0.5330  0.3124
  716MOL0     H98776   3.707  13.359   7.268  0.4237 -0.9541 -0.5165
  716MOL0     H98777   3.630  13.519   7.292 -0.1913 -1.3874  2.2873
  716MOL0     H98778   3.734  13.617   7.115 -1.6858 -0.0188  3.3171
  716MOL0     H98779   3.838  13.475   7.075 -3.0503 -1.7292 -1.7008
  716MOL0     H98780   3.858  13.615   7.338  1.4691  2.1923 -0.3409
  716MOL0     H98781   3.964  13.497   7.270 -2.6620 -1.7384  0.6983
  716MOL0     H98782   3.918  13.780   7.161  1.2064 -0.4181 -1.6988
  716MOL0     H98783   4.005  13.659   7.071  0.4980  1.9593 -0.6912
  716MOL0     H98784   4.170  13.633   7.265  2.4035  1.2802  1.4735
  716MOL0     H98785   4.080  13.742   7.364  1.4418  2.7969  0.0716
  716MOL0     H98786   4.269  13.851   7.250  0.6872  2.2811 -0.7351
  716MOL0     H98787   4.127  13.937   7.213  1.4935  0.5255 -1.5242
  716MOL0     H98788   3.205  13.142   7.004  1.9947 -1.9311  0.6520
  716MOL0     H98789   2.979  13.097   7.060  1.8152 -1.8159  1.4593
  716MOL0     H98790   2.826  12.839   7.324  0.8995 -0.9615  3.5254
  716MOL0     H98791   2.608  12.676   7.321 -3.0084 -0.8624  3.3905
  716MOL0     H98792   1.036  11.226   6.905  2.1005 -1.8432 -2.2276
  716MOL0     H98793   0.945  11.028   6.977 -0.1641  0.7054 -1.2016
  716MOL0     H98794   1.053  10.681   7.280  0.1101  1.0208  1.5179
  716MOL0     H98795   1.044  10.492   7.413  0.9923 -0.4394 -3.1125
  716MOL0     H98796   0.977  10.308   7.533  1.2150 -0.2355  0.7098
  716MOL0     H98797   0.906  10.364   7.689  0.5295  3.6577 -2.2302
  716MOL0     H98798   0.834  10.122   7.514  0.8025  0.0560  0.8058
  716MOL0     H98799   0.725  10.173   7.640 -0.4386  1.7902  1.4273
  716MOL0     H98800   0.922  10.143   7.800  0.5701  0.6872  0.0966
  716MOL0     H98801   0.873   9.985   7.725  1.2567 -0.4316  1.2208
  716MOL0     H98802   1.062  10.063   7.540  1.9647 -0.8345  0.0661
  716MOL0     H98803   1.087   9.967   7.697 -1.1869  0.2572  1.0102
  716MOL0     H98804   1.316  10.274   7.824  1.4537  1.7069 -2.1434
  716MOL0     H98805   0.622  10.544   7.467 -0.0517 -0.6151 -0.6724
  716MOL0     H98806   0.591  10.868   7.390 -0.0557  1.3376 -2.9991
  716MOL0     H98807   0.587  10.799   7.227 -0.8937 -2.0080  0.1851
  716MOL0     H98808   0.501  10.710   7.351 -0.5976 -0.3289  0.5024
  717MOL0     O98809   5.421   6.141   8.376  0.0896 -0.7345 -0.5474
  717MOL0     C98810   5.360   6.172   8.476  0.7093 -0.5821  0.5882
  717MOL0     O98811   5.406   6.188   8.597  0.5082  0.0584 -0.8947
  717MOL0     C98812   5.533   6.138   8.614  0.5121  0.2888  0.3842
  717MOL0     C98813   5.556   6.035   8.704 -0.1900  0.6958  0.4463
  717MOL0     C98814   5.685   5.973   8.705  0.4843  0.1500 -0.4340
  717MOL0     C98815   5.792   6.030   8.636 -0.1961 -0.2644 -0.3242
  717MOL0     O98816   5.909   5.953   8.655  0.3806 -0.7582 -0.4932
  717MOL0     C98817   6.031   5.998   8.601  0.2170 -0.1230  0.3604
  717MOL0     C98818   6.034   5.964   8.449 -1.4531  0.2005 -0.4460
  717MOL0     C98819   6.170   6.003   8.389 -0.3852 -0.8712 -0.6996
  717MOL0     C98820   6.202   5.939   8.254  0.1871  0.6241  0.0948
  717MOL0     C98821   6.327   6.001   8.187  0.7561 -0.8024  0.4934
  717MOL0     C98822   6.451   5.997   8.274 -1.4909 -0.3920 -0.1078
  717MOL0     C98823   6.563   6.057   8.198 -1.4076  0.5870  0.0934
  717MOL0     C98824   6.691   6.072   8.288 -0.4993  0.2429 -0.0624
  717MOL0     N98825   6.767   5.946   8.303  0.1914 -0.2649  0.4226
  717MOL0     C98826   6.867   5.912   8.207  0.7562  0.1542 -0.4052
  717MOL0     C98827   6.879   5.780   8.223 -0.4841 -0.5417 -0.1327
  717MOL0     C98828   6.970   5.690   8.141 -0.8533  0.0913  0.0218
  717MOL0     C98829   7.123   5.697   8.174  0.2286  0.0592  0.4028
  717MOL0     C98830   7.162   5.602   8.286 -0.6858  0.2637 -0.6128
  717MOL0     C98831   7.312   5.640   8.314  0.1926  0.5844 -0.2763
  717MOL0     O98832   7.392   5.623   8.194 -0.5490  0.3003 -0.8314
  717MOL0     C98833   7.509   5.684   8.208 -0.2361 -0.8786 -0.1119
  717MOL0     C98834   7.616   5.609   8.261  0.7043  0.4885  0.4887
  717MOL0     C98835   7.739   5.660   8.304 -0.6777 -0.1363  0.4739
  717MOL0     C98836   7.829   5.567   8.372  0.8868  0.3332  0.0208
  717MOL0     C98837   7.762   5.797   8.268 -0.0161  0.6782  0.2777
  717MOL0     C98838   7.883   5.868   8.299  0.2802  0.6042 -0.2769
  717MOL0     O98839   7.901   6.000   8.251  0.4946  0.1416 -0.0934
  717MOL0     C98840   8.026   6.038   8.252  0.0407  0.4830 -0.1526
  717MOL0     C98841   8.095   6.098   8.361 -0.1284  0.0400 -0.7354
  717MOL0     C98842   8.232   6.123   8.351 -0.0910 -0.7647  0.5540
  717MOL0     C98843   8.310   6.087   8.237  0.8861 -0.2125 -1.6859
  717MOL0     O98844   8.443   6.088   8.244  0.4411  0.4615  0.6243
  717MOL0     C98845   8.513   6.168   8.347 -0.2954 -0.2192  1.2748
  717MOL0     C98846   8.657   6.182   8.306 -0.2997 -0.4445 -0.8844
  717MOL0     C98847   8.742   6.276   8.380 -0.4875  0.1428 -0.1446
  717MOL0     C98848   8.891   6.258   8.329 -0.0413  0.6169 -0.3967
  717MOL0     C98849   8.994   6.318   8.434 -0.0813 -0.5177  0.1051
  717MOL0     C98850   9.051   6.222   8.548 -0.1501 -0.0446  0.1872
  717MOL0     C98851   9.147   6.290   8.647 -1.5358 -0.8547  0.1350
  717MOL0     C98852   9.160   6.211   8.783 -0.0143  0.3870 -0.3611
  717MOL0    Cl98853   9.248   6.310   8.920 -0.0308 -0.0655 -0.2408
  717MOL0     C98854   8.242   6.037   8.124  0.4570 -0.4430  0.8492
  717MOL0     C98855   8.108   6.011   8.131  0.3793 -0.7163 -0.0938
  717MOL0     O98856   7.963   5.811   8.379 -0.1036 -0.5966  0.1424
  717MOL0     C98857   7.655   5.875   8.201  0.2005 -0.3152  0.2341
  717MOL0     C98858   7.533   5.817   8.174 -0.0278  0.2240 -0.1542
  717MOL0     N98859   6.810   5.736   8.337 -0.4664  0.4341  0.5008
  717MOL0     N98860   6.746   5.837   8.378 -0.1754 -0.3812  0.1250
  717MOL0     C98861   5.773   6.142   8.554  0.4004 -0.5204  0.4769
  717MOL0     C98862   5.642   6.194   8.534  0.5983 -0.2273 -0.9371
  717MOL0     C98863   5.219   6.221   8.454 -0.6184 -0.0620 -0.3901
  717MOL0     C98864   5.151   6.280   8.569  0.3252  0.3137  0.5702
  717MOL0     C98865   5.030   6.343   8.558 -0.1068  0.5255 -0.3869
  717MOL0     C98866   4.968   6.358   8.433 -0.9956  0.4938  0.0591
  717MOL0     O98867   4.845   6.419   8.438 -0.1344 -0.0867 -0.6950
  717MOL0     C98868   4.820   6.501   8.324  0.7929  1.0006 -0.0093
  717MOL0     C98869   4.728   6.620   8.356  0.5328  1.0135 -0.1530
  717MOL0     C98870   4.580   6.573   8.380  0.0760 -0.5619 -0.5492
  717MOL0     C98871   4.482   6.686   8.435  0.0091  0.3766 -0.1468
  717MOL0     C98872   4.488   6.670   8.578  0.5807 -0.2640 -0.5383
  717MOL0     C98873   4.502   6.664   8.697  0.2086  0.2157  0.1336
  717MOL0     C98874   5.025   6.298   8.319  0.2940 -0.2807  0.2493
  717MOL0     C98875   5.150   6.226   8.332  0.9057  0.6117  0.6142
  717MOL0     C98876   5.203   6.177   8.199  0.8029  0.2631  0.6636
  717MOL0     H98877   5.472   6.009   8.768  0.3511 -3.3747 -0.2332
  717MOL0     H98878   5.723   5.895   8.770 -0.6582 -1.1800 -1.2971
  717MOL0     H98879   6.110   5.940   8.649  0.4067 -0.3282 -0.1899
  717MOL0     H98880   6.064   6.101   8.619  1.3615  0.1288 -2.6673
  717MOL0     H98881   6.024   5.855   8.446 -0.0582 -0.5996  6.3259
  717MOL0     H98882   5.956   6.019   8.396 -2.8782 -0.4760  0.8614
  717MOL0     H98883   6.165   6.112   8.381 -1.9457 -1.0107 -2.0881
  717MOL0     H98884   6.253   5.975   8.454 -0.9058 -0.1021  0.3291
  717MOL0     H98885   6.211   5.830   8.267  0.2939  0.7382  1.0855
  717MOL0     H98886   6.121   5.955   8.182 -1.4628  0.2616  1.7904
  717MOL0     H98887   6.304   6.103   8.157  1.0948 -1.2372 -1.3448
  717MOL0     H98888   6.338   5.940   8.097  0.4910 -0.3526  0.1572
  717MOL0     H98889   6.420   6.056   8.361  1.2697 -0.8256  1.2867
  717MOL0     H98890   6.464   5.891   8.299 -0.7596  0.3108  2.8416
  717MOL0     H98891   6.531   6.159   8.175 -0.9051  1.0150  1.2274
  717MOL0     H98892   6.576   5.995   8.108 -2.4228  0.1408  0.2353
  717MOL0     H98893   6.760   6.151   8.255 -1.6543  0.4573 -2.1060
  717MOL0     H98894   6.676   6.096   8.393  0.9218 -2.9104  1.0004
  717MOL0     H98895   6.898   5.976   8.125  0.7585 -1.2791 -1.5665
  717MOL0     H98896   6.958   5.727   8.038 -0.3324  0.2936  0.0312
  717MOL0     H98897   6.937   5.587   8.153  1.9827 -0.6672  2.2099
  717MOL0     H98898   7.172   5.672   8.080  1.8692 -1.9935  1.7034
  717MOL0     H98899   7.154   5.800   8.195 -1.5887  0.1164  3.5686
  717MOL0     H98900   7.103   5.633   8.373 -0.0943  1.6180 -0.6687
  717MOL0     H98901   7.144   5.498   8.256 -0.8950 -0.6161  2.3135
  717MOL0     H98902   7.326   5.735   8.367 -0.3948  0.4936  0.0488
  717MOL0     H98903   7.355   5.560   8.375 -0.7698  0.1533 -0.1501
  717MOL0     H98904   7.579   5.509   8.278 -2.3764  1.5847  0.8600
  717MOL0     H98905   7.927   5.552   8.327  1.2598  2.5935 -0.0233
  717MOL0     H98906   7.783   5.468   8.381 -2.0041  1.2343 -3.0589
  717MOL0     H98907   7.816   5.607   8.473 -1.2584  0.2486 -0.1727
  717MOL0     H98908   8.048   6.124   8.455  0.6935 -0.2626 -0.2266
  717MOL0     H98909   8.287   6.152   8.440 -0.6450  1.5604  0.1906
  717MOL0     H98910   8.470   6.269   8.349 -1.5748 -0.3971 -3.4974
  717MOL0     H98911   8.499   6.120   8.444 -0.3522 -1.6856  0.5610
  717MOL0     H98912   8.706   6.085   8.309 -1.5931 -1.1156 -0.6913
  717MOL0     H98913   8.650   6.223   8.205 -1.4800  0.7000 -0.3842
  717MOL0     H98914   8.727   6.259   8.487  0.6552  2.1446  0.3798
  717MOL0     H98915   8.720   6.383   8.373 -2.6880 -0.3186 -1.3653
  717MOL0     H98916   8.899   6.311   8.234 -5.8856 -0.0951 -1.6377
  717MOL0     H98917   8.915   6.153   8.310 -0.4721  0.7867 -1.9512
  717MOL0     H98918   9.085   6.359   8.391 -0.4435  1.6750  1.2576
  717MOL0     H98919   8.941   6.405   8.475  0.0582  0.4391 -1.6756
  717MOL0     H98920   9.121   6.149   8.507  1.1696  0.1403  1.9885
  717MOL0     H98921   8.968   6.174   8.601 -0.8040  2.6700  1.8591
  717MOL0     H98922   9.106   6.387   8.677  2.5631  0.3646  2.6192
  717MOL0     H98923   9.243   6.296   8.596 -1.9380 -2.1303 -0.8332
  717MOL0     H98924   9.216   6.120   8.761 -0.3767  0.1435 -0.2874
  717MOL0     H98925   9.059   6.196   8.822  1.3189 -2.4796  2.3561
  717MOL0     H98926   8.300   6.021   8.034  1.8820  1.8121  1.2800
  717MOL0     H98927   8.063   5.954   8.051  1.4307 -0.2746 -1.0231
  717MOL0     H98928   7.664   5.982   8.185 -0.1921 -0.2319  0.5389
  717MOL0     H98929   7.447   5.870   8.133 -0.4428  0.5453  1.0834
  717MOL0     H98930   5.849   6.187   8.491 -1.7770 -0.9031 -2.6388
  717MOL0     H98931   5.641   6.273   8.459  3.9389 -1.6357 -2.6441
  717MOL0     H98932   5.207   6.303   8.660  2.2738 -0.3005 -0.4212
  717MOL0     H98933   4.993   6.396   8.645  0.4533  0.1384  0.1007
  717MOL0     H98934   4.915   6.538   8.284  0.2402  0.8429 -1.5477
  717MOL0     H98935   4.769   6.444   8.246 -1.8982  3.0527  0.1042
  717MOL0     H98936   4.724   6.688   8.270  2.7984  0.7917 -0.5052
  717MOL0     H98937   4.766   6.682   8.438 -0.7824 -0.5465  1.6956
  717MOL0     H98938   4.527   6.549   8.287 -2.3288  0.5330  0.4379
  717MOL0     H98939   4.580   6.487   8.447  3.8933 -0.7204 -0.5644
  717MOL0     H98940   4.381   6.675   8.395  0.4309 -0.9219 -0.9363
  717MOL0     H98941   4.512   6.788   8.407 -0.3268  0.6872  0.5969
  717MOL0     H98942   4.533   6.673   8.800 -1.0819  0.9057  0.4857
  717MOL0     H98943   4.977   6.298   8.222  1.8146 -0.4865 -0.5311
  717MOL0     H98944   5.302   6.222   8.185  0.6124  0.6499  0.5216
  717MOL0     H98945   5.221   6.070   8.202  1.1602  0.3151  0.4187
  717MOL0     H98946   5.143   6.211   8.114 -0.8924 -3.5924  0.1073
  718MOL0     O98947   5.865   3.705   6.099 -0.4245  0.0554  0.2066
  718MOL0     C98948   5.869   3.771   5.993  0.3433  0.5490  0.1958
  718MOL0     O98949   5.972   3.767   5.908 -0.1242  0.2021  0.3081
  718MOL0     C98950   6.088   3.702   5.949 -0.4575  0.1694 -1.3281
  718MOL0     C98951   6.207   3.783   5.958  0.0773  0.0790  0.3945
  718MOL0     C98952   6.329   3.718   6.004  0.1872 -0.3982  0.3312
  718MOL0     C98953   6.330   3.578   6.036  0.1434  0.0139  0.7274
  718MOL0     O98954   6.438   3.499   6.074  0.5952  0.1981  0.1530
  718MOL0     C98955   6.572   3.550   6.052  0.0684  0.4467  0.3542
  718MOL0     C98956   6.667   3.456   6.132 -0.1614  0.1956  0.2332
  718MOL0     C98957   6.816   3.485   6.097  0.3762 -0.0069 -0.6761
  718MOL0     C98958   6.910   3.386   6.161 -0.8096 -0.7178 -0.1863
  718MOL0     C98959   7.043   3.433   6.134 -0.4900  0.3345  0.2798
  718MOL0     C98960   7.144   3.355   6.209 -0.5105  0.7143 -0.2339
  718MOL0     C98961   7.286   3.402   6.191 -0.8141 -0.5466  0.1682
  718MOL0     C98962   7.385   3.300   6.235  0.0478  0.4048  0.0360
  718MOL0     N98963   7.522   3.341   6.216  0.2497 -1.1412  0.5703
  718MOL0     C98964   7.584   3.403   6.104 -1.4403  0.7240 -0.2131
  718MOL0     C98965   7.710   3.432   6.155  0.6284 -0.3680 -0.4963
  718MOL0     C98966   7.818   3.498   6.087  0.8481 -0.5920  0.4603
  718MOL0     C98967   7.897   3.397   5.997 -0.0277 -0.0186  0.1495
  718MOL0     C98968   7.999   3.332   6.090  0.0127  0.6736  0.0883
  718MOL0     C98969   8.111   3.417   6.159 -0.4336  0.3143  0.7263
  718MOL0     O98970   8.171   3.514   6.071  0.3080  0.6527 -0.1234
  718MOL0     C98971   8.307   3.502   6.033  0.3724  0.3485 -0.4292
  718MOL0     C98972   8.384   3.615   6.011  0.0824 -1.0314  0.0602
  718MOL0     C98973   8.516   3.618   5.969  0.1864 -0.6028  1.4184
  718MOL0     C98974   8.586   3.748   5.950 -1.0854  0.2476 -0.2591
  718MOL0     C98975   8.581   3.493   5.941 -0.2580  0.2368 -0.3024
  718MOL0     C98976   8.717   3.484   5.880 -0.4144 -0.1828 -0.8500
  718MOL0     O98977   8.755   3.560   5.776  0.8429 -0.5493 -0.5191
  718MOL0     C98978   8.888   3.560   5.729 -0.2283 -0.3085  0.5261
  718MOL0     C98979   8.931   3.485   5.619 -0.1058  0.1638  0.0077
  718MOL0     C98980   9.062   3.489   5.586 -0.0184  0.1896  0.0631
  718MOL0     C98981   9.157   3.563   5.650 -0.5449  0.5120 -0.1947
  718MOL0     O98982   9.289   3.581   5.611 -0.3358  0.8895 -0.7448
  718MOL0     C98983   9.354   3.462   5.599 -0.7441  0.0574  0.2043
  718MOL0     C98984   9.497   3.485   5.636 -0.4720  0.3534 -0.8271
  718MOL0     C98985   9.592   3.372   5.607  0.0967 -0.3231 -0.3374
  718MOL0     C98986   9.732   3.421   5.577  0.0042 -0.0523  0.7297
  718MOL0     C98987   9.828   3.308   5.578 -0.0185 -0.1893 -0.0311
  718MOL0     C98988   9.974   3.356   5.544 -0.0415  0.2370 -0.4055
  718MOL0     C98989  10.054   3.400   5.676  1.0117  0.1951  1.0620
  718MOL0     C98990  10.190   3.455   5.644  0.7950  0.1189  0.9635
  718MOL0    Cl98991  10.322   3.322   5.595 -0.0215 -0.2067 -0.1321
  718MOL0     C98992   9.113   3.650   5.751 -0.0430  0.5634 -0.0415
  718MOL0     C98993   8.981   3.646   5.797 -0.2415  0.2000  1.1638
  718MOL0     O98994   8.787   3.390   5.932 -1.1688 -0.5209  0.4421
  718MOL0     C98995   8.506   3.377   5.971  0.2043  0.3993 -0.3652
  718MOL0     C98996   8.375   3.380   6.018 -0.5977  1.0779  0.1233
  718MOL0     N98997   7.712   3.400   6.287  0.3094  0.0026 -0.1157
  718MOL0     N98998   7.610   3.340   6.323  1.1466  0.2832  0.2572
  718MOL0     C98999   6.218   3.507   6.014  0.1902 -0.1036 -0.3042
  718MOL0     C99000   6.093   3.565   5.973 -0.6425  0.2415  0.4754
  718MOL0     C99001   5.760   3.871   5.955  0.0141  0.3227  0.5192
  718MOL0     C99002   5.770   3.931   5.825 -0.3515  0.0442  0.3281
  718MOL0     C99003   5.674   4.027   5.782  0.2733 -0.0226 -0.2743
  718MOL0     C99004   5.559   4.052   5.862  0.1289  0.8891  0.1654
  718MOL0     O99005   5.470   4.137   5.816 -0.3431 -0.1573  0.3663
  718MOL0     C99006   5.356   4.184   5.895 -0.3903 -0.5621 -0.2794
  718MOL0     C99007   5.241   4.082   5.880 -1.0369  0.5046  0.4500
  718MOL0     C99008   5.115   4.140   5.947 -0.2866 -0.1622 -0.6601
  718MOL0     C99009   5.129   4.146   6.095 -0.9264 -0.1817 -0.0932
  718MOL0     C99010   5.170   4.025   6.168  0.1664 -0.2958 -0.3453
  718MOL0     C99011   5.201   3.918   6.219 -0.0730  0.0892  0.3852
  718MOL0     C99012   5.545   3.986   5.986  0.9058 -0.5808  0.1938
  718MOL0     C99013   5.640   3.896   6.031 -0.4891  0.4058 -0.0114
  718MOL0     C99014   5.606   3.801   6.145 -0.4307 -0.1210  0.0219
  718MOL0     H99015   6.189   3.886   5.929 -2.0690 -0.3722 -0.0831
  718MOL0     H99016   6.414   3.782   6.026 -0.5959 -0.0185  2.5835
  718MOL0     H99017   6.594   3.640   6.111  2.8723 -1.6552  2.7939
  718MOL0     H99018   6.603   3.562   5.948  1.8180 -1.3193  0.6235
  718MOL0     H99019   6.660   3.486   6.236 -0.5704  1.4448 -0.1368
  718MOL0     H99020   6.641   3.351   6.120  1.8278 -0.1089 -2.7910
  718MOL0     H99021   6.821   3.479   5.988 -0.1247 -1.5685 -0.6380
  718MOL0     H99022   6.831   3.590   6.125  0.3386 -0.3052  0.5487
  718MOL0     H99023   6.890   3.390   6.269 -1.4109  3.8253 -0.2706
  718MOL0     H99024   6.898   3.286   6.119  0.8590 -0.8881 -0.3219
  718MOL0     H99025   7.041   3.541   6.153 -0.5623  0.2052  1.0428
  718MOL0     H99026   7.053   3.427   6.026 -0.9436 -0.2627  0.2616
  718MOL0     H99027   7.128   3.364   6.317  0.1762  1.6966 -0.2037
  718MOL0     H99028   7.135   3.247   6.193 -1.1672  0.4192  1.8303
  718MOL0     H99029   7.315   3.494   6.243  1.1198 -1.6158  1.1186
  718MOL0     H99030   7.311   3.417   6.085  0.1761 -2.4645  0.0790
  718MOL0     H99031   7.357   3.279   6.339 -0.7772 -0.7436 -0.3918
  718MOL0     H99032   7.371   3.215   6.168  2.0168  1.5008 -1.8591
  718MOL0     H99033   7.542   3.428   6.007 -0.5240 -0.1103 -0.8447
  718MOL0     H99034   7.883   3.551   6.157  0.5023  1.7027 -0.8157
  718MOL0     H99035   7.770   3.581   6.034 -1.8041 -2.1885  0.1785
  718MOL0     H99036   7.828   3.328   5.948 -1.6231  1.6672 -0.0805
  718MOL0     H99037   7.946   3.459   5.921  1.2588  1.6893  2.2513
  718MOL0     H99038   7.938   3.263   6.149 -2.3737  0.1735 -2.7390
  718MOL0     H99039   8.064   3.278   6.022 -0.6882  1.4393 -1.2368
  718MOL0     H99040   8.080   3.466   6.251  0.5259  3.2960 -0.4235
  718MOL0     H99041   8.193   3.353   6.195  0.1040  0.1306 -0.7380
  718MOL0     H99042   8.335   3.711   6.023 -1.1631 -1.4680 -1.1831
  718MOL0     H99043   8.677   3.752   6.011 -0.6633  0.5230 -0.8950
  718MOL0     H99044   8.531   3.839   5.978  0.2929  1.1175 -0.2451
  718MOL0     H99045   8.623   3.751   5.847  0.4513  2.8353  0.2685
  718MOL0     H99046   8.866   3.419   5.562 -1.9332  0.8353  1.1999
  718MOL0     H99047   9.090   3.436   5.496  3.4242 -0.5223  1.3931
  718MOL0     H99048   9.305   3.382   5.655 -4.0049  0.9258 -1.2251
  718MOL0     H99049   9.355   3.427   5.495 -1.0742 -2.0683  0.8728
  718MOL0     H99050   9.536   3.565   5.572  0.3547  0.8807  0.3034
  718MOL0     H99051   9.497   3.520   5.740  3.4171 -1.3477 -0.0880
  718MOL0     H99052   9.551   3.314   5.524 -2.3155 -0.2296  0.6882
  718MOL0     H99053   9.589   3.305   5.693  0.1929 -3.5582 -2.6806
  718MOL0     H99054   9.764   3.504   5.640  2.1808  0.9623 -1.5196
  718MOL0     H99055   9.734   3.477   5.483 -1.6857  2.8837  2.2940
  718MOL0     H99056   9.820   3.259   5.676 -1.3488 -0.4277 -0.2373
  718MOL0     H99057   9.801   3.233   5.503  0.7281 -0.7952  0.2798
  718MOL0     H99058   9.971   3.443   5.477 -0.0949  1.1428  0.7387
  718MOL0     H99059  10.022   3.270   5.496  0.1478 -0.3594  0.8091
  718MOL0     H99060  10.061   3.317   5.747 -1.3748 -1.0466 -0.0311
  718MOL0     H99061   9.999   3.475   5.734 -0.0246  0.5564 -0.3057
  718MOL0     H99062  10.226   3.517   5.727 -1.1957 -0.4851  2.3338
  718MOL0     H99063  10.174   3.531   5.567  0.6657 -1.5238 -0.7197
  718MOL0     H99064   9.181   3.705   5.815 -1.3226 -1.7199  3.6338
  718MOL0     H99065   8.944   3.708   5.878 -4.3998  0.2903 -0.4934
  718MOL0     H99066   8.561   3.284   5.957  1.7054  1.3625 -1.1289
  718MOL0     H99067   8.330   3.286   6.046 -1.0624  1.6179  1.2923
  718MOL0     H99068   6.213   3.401   6.039  1.4067  0.2366  1.5729
  718MOL0     H99069   6.002   3.505   5.975  0.1826 -1.0325  1.9312
  718MOL0     H99070   5.857   3.917   5.762  0.1792 -0.2205  1.1028
  718MOL0     H99071   5.699   4.072   5.686  0.9410  2.1424  0.8758
  718MOL0     H99072   5.383   4.204   5.999 -1.3323 -0.7094  0.0071
  718MOL0     H99073   5.329   4.285   5.861 -1.4890  0.4482  3.2019
  718MOL0     H99074   5.265   3.985   5.924 -4.5010 -0.9290 -0.4417
  718MOL0     H99075   5.231   4.079   5.771 -0.5157  0.4849  0.4034
  718MOL0     H99076   5.103   4.238   5.898 -1.1900 -0.4074 -0.9595
  718MOL0     H99077   5.027   4.089   5.905 -2.2603  3.5026 -1.4477
  718MOL0     H99078   5.036   4.187   6.137  0.0493  1.5674  0.4584
  718MOL0     H99079   5.207   4.218   6.117 -0.9209  0.6882 -2.6738
  718MOL0     H99080   5.207   3.823   6.269  0.5749 -1.1234 -1.8506
  718MOL0     H99081   5.454   4.001   6.043 -1.3818  1.0889 -3.5122
  718MOL0     H99082   5.660   3.829   6.236  2.7566  0.2245 -1.8244
  718MOL0     H99083   5.500   3.817   6.169 -0.5283  1.8344 -1.4154
  718MOL0     H99084   5.627   3.697   6.119  2.1500  0.5188 -0.7085
  719MOL0     O99085   6.853   4.254   6.219 -0.0453 -0.0191 -0.8992
  719MOL0     C99086   6.782   4.160   6.183  0.4555 -0.6640  0.9999
  719MOL0     O99087   6.837   4.031   6.157  0.4331 -0.7473 -0.0414
  719MOL0     C99088   6.971   4.013   6.175  1.3299  0.9189 -0.0698
  719MOL0     C99089   7.029   3.924   6.086  0.7169  0.4443 -0.5287
  719MOL0     C99090   7.168   3.914   6.077  0.3492  0.2922 -0.1379
  719MOL0     C99091   7.251   3.970   6.173 -0.9963  0.1656  0.4149
  719MOL0     O99092   7.386   3.940   6.180  0.3937  0.1463  0.3386
  719MOL0     C99093   7.454   3.923   6.059 -0.3629 -0.3776  1.0537
  719MOL0     C99094   7.605   3.942   6.087  0.5698  0.4075 -0.7399
  719MOL0     C99095   7.679   3.941   5.953 -0.3564 -0.3794 -0.2476
  719MOL0     C99096   7.823   3.888   5.979 -0.1780 -0.2906 -0.2499
  719MOL0     C99097   7.893   3.880   5.842  0.1528  0.7679 -0.8890
  719MOL0     C99098   8.042   3.857   5.875  0.1648 -0.0647  0.3664
  719MOL0     C99099   8.117   3.850   5.747 -0.6792  0.1308  0.0440
  719MOL0     C99100   8.107   3.704   5.695  1.0884  0.9511  0.0102
  719MOL0     N99101   8.214   3.690   5.594  0.4428  0.2953  0.2663
  719MOL0     C99102   8.346   3.676   5.622  0.2756 -0.5154 -0.3081
  719MOL0     C99103   8.404   3.645   5.504  0.1458 -0.3268 -0.2099
  719MOL0     C99104   8.553   3.630   5.468 -0.1093  0.2816 -0.1225
  719MOL0     C99105   8.603   3.768   5.418 -0.1178  0.4022  1.1570
  719MOL0     C99106   8.635   3.868   5.529  0.0821  0.6748  0.5027
  719MOL0     C99107   8.721   3.989   5.488 -0.0970 -0.4075 -0.2688
  719MOL0     O99108   8.846   3.953   5.430  0.2717  0.0218 -0.0142
  719MOL0     C99109   8.967   3.960   5.501  0.5527 -1.2424  0.2078
  719MOL0     C99110   8.987   4.023   5.614  0.7861 -0.1701 -0.5790
  719MOL0     C99111   9.112   4.014   5.676 -1.2698 -0.2251 -0.4357
  719MOL0     C99112   9.113   4.069   5.815 -0.1523 -0.5585  0.2550
  719MOL0     C99113   9.226   3.965   5.607 -0.7055  0.8916 -0.9223
  719MOL0     C99114   9.370   3.972   5.667  0.2315  0.1591 -0.2711
  719MOL0     O99115   9.461   3.880   5.615 -0.3178  0.1901  0.1394
  719MOL0     C99116   9.568   3.833   5.695  0.3834  0.2792  0.4239
  719MOL0     C99117   9.686   3.808   5.626  0.6128  0.4722 -0.2166
  719MOL0     C99118   9.805   3.780   5.679  0.3040 -0.5908  0.2534
  719MOL0     C99119   9.815   3.779   5.816  0.3256 -0.2001 -0.9811
  719MOL0     O99120   9.939   3.767   5.878  0.3939  0.3195 -0.2452
  719MOL0     C99121   9.974   3.887   5.952  0.5345  0.8908  0.7004
  719MOL0     C99122  10.123   3.908   5.976  1.4241 -0.1579  0.4921
  719MOL0     C99123  10.205   3.970   5.869  0.2748 -0.1547 -0.1518
  719MOL0     C99124  10.357   3.921   5.873 -0.3139  0.1648 -0.0874
  719MOL0     C99125  10.433   3.963   5.748  0.0299 -0.5667  0.1218
  719MOL0     C99126  10.586   3.930   5.753 -0.0165  0.0353 -0.3538
  719MOL0     C99127  10.659   4.018   5.653 -0.9899  0.5019  0.2226
  719MOL0     C99128  10.770   3.942   5.583 -0.8407  0.6843 -0.0318
  719MOL0    Cl99129  10.836   4.047   5.450  0.0912 -0.0437 -0.2296
  719MOL0     C99130   9.702   3.801   5.894 -0.4111 -0.3065 -0.0880
  719MOL0     C99131   9.579   3.832   5.837 -0.1219 -0.1331  0.1683
  719MOL0     O99132   9.399   4.073   5.739 -0.1417  0.2256 -0.0678
  719MOL0     C99133   9.203   3.903   5.488  0.3446 -0.0380 -0.2199
  719MOL0     C99134   9.079   3.903   5.432 -0.2642  0.0933  0.4685
  719MOL0     N99135   8.297   3.637   5.409 -0.3593 -0.2885  0.1142
  719MOL0     N99136   8.187   3.668   5.466 -0.0376 -0.3705  0.6547
  719MOL0     C99137   7.190   4.054   6.275 -0.0824  0.3159  0.4844
  719MOL0     C99138   7.053   4.073   6.274  0.1053 -0.0300  0.5851
  719MOL0     C99139   6.633   4.191   6.183  0.0179 -0.4104  0.5756
  719MOL0     C99140   6.605   4.322   6.144  0.5321 -0.1503 -0.6387
  719MOL0     C99141   6.475   4.358   6.124  0.1462  0.0924 -0.6610
  719MOL0     C99142   6.365   4.263   6.145  0.7251 -0.1024  0.7804
  719MOL0     O99143   6.231   4.293   6.138  0.2374 -0.1493  0.2909
  719MOL0     C99144   6.169   4.424   6.122  0.1660 -0.3141 -0.2370
  719MOL0     C99145   6.185   4.514   6.248  0.1098  0.5526  0.6508
  719MOL0     C99146   6.163   4.437   6.372 -0.1616 -0.2965  0.6558
  719MOL0     C99147   6.018   4.401   6.391 -0.6188 -0.3358 -0.1721
  719MOL0     C99148   6.014   4.334   6.523 -0.4697 -0.4106  0.0889
  719MOL0     C99149   6.028   4.272   6.629  1.1620 -0.6329  0.3004
  719MOL0     C99150   6.384   4.131   6.183  0.4679  0.7224  0.8616
  719MOL0     C99151   6.523   4.098   6.200 -0.2299  0.0097 -1.0221
  719MOL0     C99152   6.548   3.945   6.218 -0.9816  0.2886  0.0627
  719MOL0     H99153   6.975   3.862   6.014 -0.2277 -0.1721  0.6829
  719MOL0     H99154   7.219   3.857   5.999  2.4516 -1.9633  2.6648
  719MOL0     H99155   7.427   3.990   5.977 -2.3969 -1.4733  0.7548
  719MOL0     H99156   7.453   3.820   6.023  3.7419 -0.0890 -0.3750
  719MOL0     H99157   7.606   4.041   6.134 -1.5744 -0.3776  1.0988
  719MOL0     H99158   7.643   3.879   6.167  0.4332  1.6059  0.2908
  719MOL0     H99159   7.617   3.882   5.885 -0.2783 -0.4620 -0.2473
  719MOL0     H99160   7.672   4.046   5.920  0.9191  0.7772  2.8431
  719MOL0     H99161   7.869   3.965   6.043 -0.7591 -0.8632  0.8897
  719MOL0     H99162   7.824   3.794   6.035  0.7008  0.6488  1.3830
  719MOL0     H99163   7.890   3.974   5.787  3.8591  0.6000 -1.6882
  719MOL0     H99164   7.861   3.792   5.785  1.4392  1.4789 -2.8443
  719MOL0     H99165   8.087   3.939   5.932 -2.1049 -0.1874  2.4474
  719MOL0     H99166   8.058   3.771   5.940  2.3761  0.1089  0.1288
  719MOL0     H99167   8.224   3.859   5.765  0.1874 -3.1257 -2.5229
  719MOL0     H99168   8.090   3.919   5.666  2.1317  0.9459 -0.2784
  719MOL0     H99169   8.126   3.628   5.772 -1.0739 -0.4555 -0.7700
  719MOL0     H99170   8.007   3.681   5.658  0.8373 -0.5294  1.4653
  719MOL0     H99171   8.390   3.704   5.717  1.4647  2.1447 -1.5429
  719MOL0     H99172   8.567   3.559   5.387  0.8067  1.5217 -1.0807
  719MOL0     H99173   8.607   3.593   5.556 -0.9763  0.5506  0.5394
  719MOL0     H99174   8.702   3.740   5.383 -0.9684 -1.9760  0.4725
  719MOL0     H99175   8.541   3.801   5.334  4.3071 -1.3562 -3.2857
  719MOL0     H99176   8.543   3.915   5.563  0.2771 -0.4242  2.7284
  719MOL0     H99177   8.684   3.815   5.611  0.8931  1.2064  0.3759
  719MOL0     H99178   8.671   4.056   5.417  0.2281  1.4734  1.1902
  719MOL0     H99179   8.750   4.046   5.577  1.9051 -2.2661  0.3531
  719MOL0     H99180   8.906   4.060   5.675 -0.9450 -1.1524 -2.1824
  719MOL0     H99181   9.067   4.168   5.817  0.3635 -0.3197  0.3656
  719MOL0     H99182   9.208   4.079   5.868  0.0075  2.9535 -0.5135
  719MOL0     H99183   9.041   4.012   5.876 -1.5223 -0.5983 -1.3377
  719MOL0     H99184   9.691   3.828   5.520  2.8238 -1.7804 -0.6435
  719MOL0     H99185   9.902   3.778   5.629 -0.4358 -2.3841 -1.2045
  719MOL0     H99186   9.925   3.969   5.898  0.4291 -0.8679 -2.0835
  719MOL0     H99187   9.922   3.899   6.047  0.8959  3.0050  0.6880
  719MOL0     H99188  10.125   3.976   6.061  1.7274  0.7200 -0.1979
  719MOL0     H99189  10.158   3.809   6.009  1.9758 -0.9915 -2.3061
  719MOL0     H99190  10.188   4.077   5.886 -2.5226 -0.2281 -1.9642
  719MOL0     H99191  10.172   3.947   5.768  1.8124  0.2930 -0.7816
  719MOL0     H99192  10.363   3.812   5.868 -0.2386  0.1175  0.9745
  719MOL0     H99193  10.405   3.953   5.966 -1.0175 -2.5869  1.3133
  719MOL0     H99194  10.385   3.911   5.665 -0.0369 -1.1376  0.5095
  719MOL0     H99195  10.425   4.072   5.742  0.0410 -0.5895 -0.3469
  719MOL0     H99196  10.619   3.826   5.758 -0.1893  0.0121  0.3851
  719MOL0     H99197  10.614   3.976   5.848  0.4488  0.6300 -0.7652
  719MOL0     H99198  10.707   4.104   5.701 -2.2450  1.9916 -1.1121
  719MOL0     H99199  10.593   4.052   5.573  0.2044  1.4929 -0.3726
  719MOL0     H99200  10.723   3.850   5.548  0.6640 -0.0362 -0.2589
  719MOL0     H99201  10.852   3.910   5.649 -0.6420 -1.9276 -1.4103
  719MOL0     H99202   9.711   3.795   6.002 -0.5117 -1.7883 -0.1445
  719MOL0     H99203   9.502   3.837   5.914 -0.2134 -1.4537  0.1919
  719MOL0     H99204   9.285   3.873   5.424  2.7692  1.2282  2.1510
  719MOL0     H99205   9.069   3.853   5.337  1.9399  0.3249  0.0599
  719MOL0     H99206   7.259   4.105   6.342  0.9216  0.5068 -0.6580
  719MOL0     H99207   7.017   4.151   6.340  0.3561  1.1124 -0.6035
  719MOL0     H99208   6.686   4.392   6.123  1.2920 -1.0766 -0.8573
  719MOL0     H99209   6.457   4.460   6.090 -0.7868  0.6421  1.3674
  719MOL0     H99210   6.223   4.471   6.039 -0.6833  3.0660  0.9614
  719MOL0     H99211   6.065   4.427   6.088  0.5161  1.0421 -1.2718
  719MOL0     H99212   6.102   4.585   6.240 -1.0206 -0.8024 -0.1719
  719MOL0     H99213   6.280   4.568   6.253  0.1019  0.4735  3.8968
  719MOL0     H99214   6.225   4.346   6.375  0.2070 -0.1017 -0.5465
  719MOL0     H99215   6.212   4.496   6.450  2.8621 -0.4172 -1.0081
  719MOL0     H99216   5.985   4.331   6.314  2.1466 -0.7969 -1.0448
  719MOL0     H99217   5.960   4.493   6.380  0.2986  0.2751  0.0634
  719MOL0     H99218   6.036   4.235   6.729 -1.4094  2.4547  1.8423
  719MOL0     H99219   6.303   4.059   6.176  0.8187  0.4617 -0.9847
  719MOL0     H99220   6.630   3.936   6.289 -1.8790  1.4239  1.2917
  719MOL0     H99221   6.458   3.893   6.254 -0.7533  0.0247  0.2574
  719MOL0     H99222   6.578   3.890   6.128  1.3819  0.3285  0.7773
  720MOL0     O99223   1.937   7.783   4.185 -0.1914  0.1541 -0.4814
  720MOL0     C99224   1.882   7.887   4.166  0.2423 -0.5678  0.1157
  720MOL0     O99225   1.907   8.008   4.223 -0.9104  1.1268  0.4831
  720MOL0     C99226   2.003   8.029   4.325  1.6124 -0.2523  0.0589
  720MOL0     C99227   2.028   8.162   4.363  0.9429 -0.1169 -0.6134
  720MOL0     C99228   2.131   8.193   4.461 -0.2375 -0.2065 -0.0992
  720MOL0     C99229   2.204   8.096   4.525  0.0767  0.1454  0.2537
  720MOL0     O99230   2.301   8.149   4.607 -0.6618 -0.0432 -0.0529
  720MOL0     C99231   2.428   8.082   4.623  0.0531 -0.3735  0.3333
  720MOL0     C99232   2.538   8.180   4.576 -0.8602 -0.6775  0.9547
  720MOL0     C99233   2.679   8.115   4.618 -0.4858  1.1818 -0.5905
  720MOL0     C99234   2.797   8.184   4.566 -0.2884 -0.4781 -0.1875
  720MOL0     C99235   2.797   8.329   4.570  0.4648  0.3449  0.3458
  720MOL0     C99236   2.922   8.395   4.498 -0.8874  0.6962 -0.6926
  720MOL0     C99237   2.897   8.405   4.350  0.3435  0.2843  0.8672
  720MOL0     C99238   3.018   8.484   4.287  0.5434 -0.1591  0.0510
  720MOL0     N99239   3.036   8.623   4.334  0.0229 -0.5846 -0.1506
  720MOL0     C99240   2.940   8.715   4.321  0.4818  0.0837 -0.1483
  720MOL0     C99241   2.992   8.831   4.362 -0.6258 -0.9871  1.1989
  720MOL0     C99242   2.919   8.958   4.358  0.1533 -0.4550 -0.3254
  720MOL0     C99243   2.949   9.047   4.240  0.0966  0.1780 -0.0051
  720MOL0     C99244   3.093   9.096   4.213 -0.1978 -0.4231  0.1940
  720MOL0     C99245   3.165   9.150   4.338  0.9633 -0.9019  0.7027
  720MOL0     O99246   3.287   9.213   4.316 -0.1742 -0.0254  0.5706
  720MOL0     C99247   3.403   9.137   4.335 -0.8715  0.0667 -0.3950
  720MOL0     C99248   3.417   8.998   4.335 -0.2120 -0.3070  0.0705
  720MOL0     C99249   3.537   8.923   4.319 -0.8522  0.0510  0.1196
  720MOL0     C99250   3.525   8.774   4.306 -0.5294  0.2002 -0.2700
  720MOL0     C99251   3.662   8.989   4.310  0.0169 -0.5961 -0.0301
  720MOL0     C99252   3.793   8.933   4.270 -0.4814 -0.2300  0.2877
  720MOL0     O99253   3.902   9.024   4.292  0.6405  0.6589 -0.3443
  720MOL0     C99254   4.027   8.976   4.335  0.7275  0.2983 -0.5287
  720MOL0     C99255   4.147   9.040   4.304  0.7468  0.4979  0.1112
  720MOL0     C99256   4.265   8.987   4.348  0.1273  0.5708 -0.3527
  720MOL0     C99257   4.274   8.866   4.418 -0.4711  0.0052  0.1325
  720MOL0     O99258   4.384   8.819   4.481 -0.6997  1.0078  0.3428
  720MOL0     C99259   4.518   8.859   4.444 -0.1504 -0.1111 -0.0882
  720MOL0     C99260   4.607   8.760   4.517 -0.1683  0.4437 -0.1098
  720MOL0     C99261   4.585   8.768   4.674  0.2510  0.9702  0.3643
  720MOL0     C99262   4.710   8.748   4.756 -0.3174  0.4365 -0.7893
  720MOL0     C99263   4.805   8.868   4.731 -0.3424  0.3339  0.5382
  720MOL0     C99264   4.760   9.006   4.803  0.2311  0.9765  0.5371
  720MOL0     C99265   4.885   9.090   4.839 -0.4222  0.7931  0.0625
  720MOL0     C99266   4.846   9.217   4.918 -0.0475  0.5691 -0.2412
  720MOL0    Cl99267   4.746   9.314   4.811  0.0937 -0.2827  0.2311
  720MOL0     C99268   4.150   8.797   4.448 -0.5958  0.2732  0.6583
  720MOL0     C99269   4.030   8.852   4.414 -0.0902 -0.0628 -0.0321
  720MOL0     O99270   3.806   8.820   4.220  0.0412 -0.1246 -0.3655
  720MOL0     C99271   3.649   9.132   4.332  0.1022 -0.9980  0.4359
  720MOL0     C99272   3.525   9.202   4.340 -0.9748  0.3170 -0.1316
  720MOL0     N99273   3.118   8.809   4.413 -0.4358 -0.2172 -0.1159
  720MOL0     N99274   3.150   8.687   4.394  0.0823  0.3890  0.2216
  720MOL0     C99275   2.179   7.967   4.487  1.0456  0.0969 -0.2924
  720MOL0     C99276   2.087   7.931   4.385  0.5701  0.6171  0.6101
  720MOL0     C99277   1.779   7.886   4.056  0.2480  0.1808  0.1453
  720MOL0     C99278   1.720   8.007   4.018  0.3612 -0.3319 -0.1639
  720MOL0     C99279   1.607   8.011   3.931  0.2968 -0.0472  0.6209
  720MOL0     C99280   1.575   7.904   3.856 -0.3209 -0.2743  0.7930
  720MOL0     O99281   1.468   7.905   3.766 -0.1929  0.5857  0.2778
  720MOL0     C99282   1.406   8.026   3.726 -0.4824 -0.2690  0.5210
  720MOL0     C99283   1.302   8.004   3.613 -0.0495  0.3890  0.8752
  720MOL0     C99284   1.188   7.898   3.655  0.3212  0.1502 -0.0680
  720MOL0     C99285   1.120   7.835   3.532  0.0305 -0.4965 -0.1323
  720MOL0     C99286   1.042   7.934   3.453  0.0134  1.0482 -0.0007
  720MOL0     C99287   0.960   8.006   3.387 -0.0866 -0.1251  0.8342
  720MOL0     C99288   1.640   7.785   3.875  0.6749  0.7727 -0.2007
  720MOL0     C99289   1.741   7.774   3.977  0.5324  0.1047  0.0724
  720MOL0     C99290   1.790   7.628   3.983 -0.3344 -0.1257 -0.2909
  720MOL0     H99291   1.966   8.227   4.302 -0.7889 -2.2627 -1.2515
  720MOL0     H99292   2.160   8.298   4.465  1.1777 -0.4665 -2.0891
  720MOL0     H99293   2.436   7.985   4.572  3.8222  0.8618 -1.8269
  720MOL0     H99294   2.443   8.068   4.731  4.4390  0.6130  0.0533
  720MOL0     H99295   2.519   8.203   4.470 -0.6546 -1.6562  0.6976
  720MOL0     H99296   2.516   8.272   4.631 -0.5692 -0.1034  0.1403
  720MOL0     H99297   2.690   8.104   4.727  0.6191  0.4943 -0.7539
  720MOL0     H99298   2.685   8.011   4.584 -0.3183  1.2768 -0.8482
  720MOL0     H99299   2.891   8.151   4.612 -0.0772  0.4448  0.0491
  720MOL0     H99300   2.808   8.168   4.458 -1.5669 -0.8207 -0.2801
  720MOL0     H99301   2.803   8.360   4.675  2.3930  2.5138 -0.3100
  720MOL0     H99302   2.712   8.382   4.526 -0.2028 -0.1017  1.0786
  720MOL0     H99303   2.939   8.494   4.541  1.5822  0.1666 -0.3169
  720MOL0     H99304   3.004   8.328   4.525 -0.9410  0.9953  0.2332
  720MOL0     H99305   2.802   8.458   4.337  0.7269  0.9919  0.8872
  720MOL0     H99306   2.893   8.309   4.298  0.4034  0.6439  0.1919
  720MOL0     H99307   3.112   8.436   4.314  1.2072  1.1295  0.0577
  720MOL0     H99308   3.016   8.484   4.177 -2.1793  0.5379  0.0292
  720MOL0     H99309   2.845   8.713   4.269  0.7066  2.7113 -0.7638
  720MOL0     H99310   2.947   9.012   4.449 -0.8032  0.2857 -0.4629
  720MOL0     H99311   2.816   8.924   4.372 -0.0756  0.3072 -0.1296
  720MOL0     H99312   2.914   8.995   4.150 -1.3451 -0.8006  1.0747
  720MOL0     H99313   2.882   9.133   4.246  1.0316  0.8838  0.4664
  720MOL0     H99314   3.156   9.017   4.171  3.1977  2.4314 -0.5568
  720MOL0     H99315   3.096   9.175   4.138  0.9784 -2.5256 -2.1193
  720MOL0     H99316   3.106   9.232   4.382  0.1519 -1.6088  0.9658
  720MOL0     H99317   3.170   9.072   4.414  1.8067 -1.7227 -0.1788
  720MOL0     H99318   3.331   8.934   4.319  0.3005 -1.2123  0.8371
  720MOL0     H99319   3.606   8.733   4.367 -0.7915 -0.5844 -0.4438
  720MOL0     H99320   3.540   8.734   4.205  0.6806  0.1010 -0.0666
  720MOL0     H99321   3.434   8.731   4.349 -0.0588 -1.4594 -0.8922
  720MOL0     H99322   4.140   9.131   4.245  2.0484 -0.3954 -1.4991
  720MOL0     H99323   4.352   9.050   4.332 -0.8639  1.7774 -1.2006
  720MOL0     H99324   4.536   8.858   4.337 -2.8135 -0.4661 -0.5957
  720MOL0     H99325   4.531   8.962   4.478  0.8273  0.6710 -2.6121
  720MOL0     H99326   4.586   8.661   4.476 -0.9613  0.3342  0.5338
  720MOL0     H99327   4.710   8.785   4.490 -0.6318  0.4338 -2.0075
  720MOL0     H99328   4.524   8.681   4.699  0.7992  0.7731  1.0498
  720MOL0     H99329   4.525   8.855   4.700 -1.0171  0.9670 -2.1871
  720MOL0     H99330   4.762   8.655   4.728 -1.1894 -0.3024 -0.0267
  720MOL0     H99331   4.690   8.739   4.863  0.0367  0.7442 -0.6957
  720MOL0     H99332   4.906   8.838   4.760  1.4651  2.9955 -2.3494
  720MOL0     H99333   4.816   8.893   4.625 -2.6743  1.2572  0.4473
  720MOL0     H99334   4.699   8.981   4.890 -0.2312  0.1323 -0.0013
  720MOL0     H99335   4.686   9.058   4.741 -0.3178 -1.0054 -0.5680
  720MOL0     H99336   4.934   9.117   4.745 -2.6988  1.3534 -1.0469
  720MOL0     H99337   4.953   9.034   4.904  0.0639 -1.7144 -2.3995
  720MOL0     H99338   4.938   9.275   4.935 -1.2080  2.4854 -0.2015
  720MOL0     H99339   4.800   9.196   5.015  3.6672 -1.4844  1.2890
  720MOL0     H99340   4.145   8.701   4.499 -0.0682  0.1708  0.5303
  720MOL0     H99341   3.930   8.819   4.441 -1.5999  2.9788 -1.2805
  720MOL0     H99342   3.735   9.198   4.320 -0.8047 -0.1028 -1.7007
  720MOL0     H99343   3.523   9.310   4.327 -2.9332 -0.0086 -3.8763
  720MOL0     H99344   2.232   7.879   4.522  1.4561  1.1049  1.7261
  720MOL0     H99345   2.091   7.827   4.351 -0.0285  0.2992  1.4757
  720MOL0     H99346   1.738   8.097   4.075 -0.4976  1.6371 -2.8142
  720MOL0     H99347   1.556   8.106   3.921 -1.0676 -0.7484  0.7316
  720MOL0     H99348   1.361   8.075   3.812 -1.2578  3.6907 -1.9065
  720MOL0     H99349   1.484   8.096   3.695 -1.6412  1.3361  1.1601
  720MOL0     H99350   1.338   7.977   3.514 -1.7211 -0.9069  0.5748
  720MOL0     H99351   1.253   8.100   3.594 -0.5251  0.2685  1.4390
  720MOL0     H99352   1.231   7.819   3.717 -1.4990 -1.4176 -0.7258
  720MOL0     H99353   1.113   7.954   3.712  0.0595 -0.1230 -0.1469
  720MOL0     H99354   1.048   7.760   3.568  1.4102 -2.2130 -0.8115
  720MOL0     H99355   1.195   7.793   3.464 -0.5733  1.0499 -1.8518
  720MOL0     H99356   0.890   8.070   3.336 -0.0361  0.5288  1.5730
  720MOL0     H99357   1.607   7.699   3.818  1.4211 -0.7846  1.5936
  720MOL0     H99358   1.731   7.559   3.922  1.6703 -0.3228 -2.0798
  720MOL0     H99359   1.889   7.639   3.939 -0.3524  2.3223  0.1227
  720MOL0     H99360   1.807   7.588   4.083  1.9484 -0.7895 -0.9020
  721MOL0     O99361   0.106   6.154   1.829 -0.3710  0.3563  0.1798
  721MOL0     C99362   0.119   6.054   1.893 -0.2866  0.0054  0.4966
  721MOL0     O99363   0.240   6.004   1.926 -0.1455  0.0437 -0.4989
  721MOL0     C99364   0.352   6.030   1.856  0.0027  0.6149 -0.2355
  721MOL0     C99365   0.477   6.008   1.922  0.1835 -0.5172 -0.1861
  721MOL0     C99366   0.593   6.026   1.848  0.0483  0.4075  0.2019
  721MOL0     C99367   0.592   6.052   1.709  0.6743 -0.2351 -0.4539
  721MOL0     O99368   0.702   6.056   1.625  0.2239  0.5059 -0.9678
  721MOL0     C99369   0.747   5.918   1.590 -0.4821  0.3720 -0.0644
  721MOL0     C99370   0.866   5.921   1.495  0.4511  0.1668  0.9448
  721MOL0     C99371   0.984   6.005   1.545  0.2122  0.1564 -0.8606
  721MOL0     C99372   1.103   5.988   1.445  0.1001  0.0044 -0.4226
  721MOL0     C99373   1.180   5.857   1.464  0.4865  0.7997 -0.2916
  721MOL0     C99374   1.221   5.784   1.334 -0.1202 -0.5384  0.3525
  721MOL0     C99375   1.316   5.871   1.248 -0.1426  0.0222 -0.0543
  721MOL0     C99376   1.394   5.781   1.151  0.0361  0.5429 -0.4359
  721MOL0     N99377   1.317   5.708   1.052 -0.2686 -0.2707 -0.3526
  721MOL0     C99378   1.229   5.765   0.962  0.2063  0.4164 -0.1882
  721MOL0     C99379   1.182   5.665   0.885 -0.2019  0.1502  0.2866
  721MOL0     C99380   1.088   5.664   0.773 -0.0805  0.0994  0.3191
  721MOL0     C99381   1.163   5.696   0.642  0.7343  0.6461 -0.0620
  721MOL0     C99382   1.061   5.694   0.531  0.5280 -0.2990 -0.3533
  721MOL0     C99383   1.124   5.676   0.396  0.6378  0.7407  0.5073
  721MOL0     O99384   1.218   5.782   0.367  0.6184 -0.1725 -0.0441
  721MOL0     C99385   1.255   5.797   0.235  0.2151 -0.2974  0.3975
  721MOL0     C99386   1.308   5.922   0.200  0.0404 -0.1424  0.1490
  721MOL0     C99387   1.353   5.949   0.072 -0.3039 -0.1623  0.0101
  721MOL0     C99388   1.390   6.091   0.036 -0.9600 -0.6448  0.4013
  721MOL0     C99389   1.348   5.850  -0.020  0.1226  0.8953  0.2284
  721MOL0     C99390   1.402   5.853  -0.156 -0.9876 -0.5484 -0.0635
  721MOL0     O99391   1.463   5.747  -0.199 -0.9824  0.3755 -0.1206
  721MOL0     C99392   1.513   5.731  -0.322  0.4935 -0.0483  0.0701
  721MOL0     C99393   1.478   5.799  -0.436 -0.3131  0.5632 -0.3416
  721MOL0     C99394   1.528   5.759  -0.564  1.3164  0.7158  0.0970
  721MOL0     C99395   1.593   5.646  -0.585 -0.6343 -0.0927 -1.2227
  721MOL0     O99396   1.634   5.595  -0.708  0.6390 -1.0702 -0.4632
  721MOL0     C99397   1.567   5.636  -0.831  0.7688 -0.5916 -0.3826
  721MOL0     C99398   1.652   5.739  -0.911  0.2151  1.0205  0.2887
  721MOL0     C99399   1.580   5.843  -0.996 -0.2630  0.9598 -0.3558
  721MOL0     C99400   1.692   5.932  -1.055  0.7704 -0.4896  0.4792
  721MOL0     C99401   1.625   6.035  -1.156 -0.1963  0.1658 -1.1510
  721MOL0     C99402   1.718   6.114  -1.249 -0.4770 -0.1111 -0.1125
  721MOL0     C99403   1.823   6.196  -1.179  0.0835  0.2755  0.4889
  721MOL0     C99404   1.937   6.234  -1.268  1.1511 -1.0195 -0.4579
  721MOL0    Cl99405   2.021   6.096  -1.329  0.3949  0.4414  0.3101
  721MOL0     C99406   1.635   5.569  -0.476  0.6400  0.2044  0.0489
  721MOL0     C99407   1.599   5.619  -0.349 -0.2448  0.2130  0.2024
  721MOL0     O99408   1.378   5.953  -0.217 -0.4000  0.5621  0.9331
  721MOL0     C99409   1.285   5.726   0.011  0.2950 -0.5319 -0.3305
  721MOL0     C99410   1.250   5.698   0.136  0.5037 -0.7926 -0.3088
  721MOL0     N99411   1.243   5.554   0.930 -1.4053 -0.5034 -0.2435
  721MOL0     N99412   1.330   5.577   1.023  0.2133 -0.1999 -0.9175
  721MOL0     C99413   0.473   6.063   1.644  0.1648 -0.0492  0.1672
  721MOL0     C99414   0.356   6.056   1.719 -0.1997 -0.4937 -0.6857
  721MOL0     C99415  -0.005   5.995   1.945 -0.0714 -0.0515 -0.3840
  721MOL0     C99416   0.019   5.870   2.003 -0.5640  0.6233 -0.0732
  721MOL0     C99417  -0.077   5.801   2.080  0.3147  0.0463 -0.1680
  721MOL0     C99418  -0.207   5.847   2.082 -0.7282 -0.8818 -0.8300
  721MOL0     O99419  -0.299   5.779   2.149 -0.2209  0.5595 -0.7643
  721MOL0     C99420  -0.427   5.842   2.177  0.0301 -0.6131  0.9422
  721MOL0     C99421  -0.491   5.760   2.291  0.5054  0.4046  0.1565
  721MOL0     C99422  -0.511   5.608   2.262 -0.4946 -0.8425 -0.0808
  721MOL0     C99423  -0.611   5.535   2.348  0.3349  0.0982 -0.1196
  721MOL0     C99424  -0.750   5.564   2.289  0.1423 -0.0214  0.0969
  721MOL0     C99425  -0.850   5.571   2.230  0.4429 -0.2897  0.1738
  721MOL0     C99426  -0.230   5.979   2.025 -0.5435 -0.1682 -0.1718
  721MOL0     C99427  -0.128   6.054   1.965  0.3353 -0.5100 -0.4611
  721MOL0     C99428  -0.180   6.183   1.901 -1.1526 -0.9861 -0.4709
  721MOL0     H99429   0.483   5.977   2.026  0.3994  1.9733  0.6173
  721MOL0     H99430   0.693   6.013   1.890  0.1933 -1.2060 -0.5514
  721MOL0     H99431   0.661   5.868   1.545  1.4097 -0.2285 -3.3165
  721MOL0     H99432   0.771   5.869   1.685 -0.8428 -0.8566 -0.5976
  721MOL0     H99433   0.892   5.816   1.481 -1.4329 -0.1404 -0.8084
  721MOL0     H99434   0.827   5.960   1.400 -1.1678 -0.2534  1.3936
  721MOL0     H99435   0.942   6.107   1.547 -0.9636 -0.2718 -2.3254
  721MOL0     H99436   1.010   5.973   1.646  0.6404 -0.8136 -1.2743
  721MOL0     H99437   1.060   5.997   1.345  1.1431  0.9671 -0.8099
  721MOL0     H99438   1.180   6.065   1.459 -1.0158  1.1142 -0.1995
  721MOL0     H99439   1.119   5.782   1.516 -3.1024  1.5037 -3.0627
  721MOL0     H99440   1.269   5.885   1.521  0.8698  0.4517 -0.7200
  721MOL0     H99441   1.270   5.689   1.357 -0.0315  0.0364  2.9374
  721MOL0     H99442   1.127   5.761   1.283  0.8784 -1.0913 -1.2884
  721MOL0     H99443   1.382   5.921   1.320 -1.3267  0.2379  0.9141
  721MOL0     H99444   1.259   5.950   1.198 -0.2325 -0.3899 -0.6179
  721MOL0     H99445   1.472   5.834   1.096  1.6013 -3.2172 -2.2143
  721MOL0     H99446   1.439   5.705   1.215  0.4430  0.0179 -1.3242
  721MOL0     H99447   1.210   5.872   0.952  1.1922  0.5808 -0.3805
  721MOL0     H99448   1.012   5.740   0.796 -0.6690 -0.4186  0.1091
  721MOL0     H99449   1.030   5.572   0.762  1.8713 -1.1846  0.1992
  721MOL0     H99450   1.218   5.790   0.653  0.4169  0.9350 -0.8612
  721MOL0     H99451   1.230   5.610   0.635 -1.3486 -1.9856  5.4733
  721MOL0     H99452   0.991   5.612   0.550 -2.7551  1.9799 -1.6495
  721MOL0     H99453   1.003   5.787   0.534  1.9188  0.5780  1.9696
  721MOL0     H99454   1.172   5.580   0.377  0.5984  1.0636 -1.4060
  721MOL0     H99455   1.038   5.682   0.329 -2.1153 -1.1704  3.5595
  721MOL0     H99456   1.318   6.001   0.274  0.0816  1.0438 -1.0865
  721MOL0     H99457   1.495   6.095   0.005 -0.8113 -1.0012  0.8500
  721MOL0     H99458   1.385   6.158   0.122  1.9005 -0.5067  0.5354
  721MOL0     H99459   1.322   6.127  -0.042  0.0506 -1.5249 -0.9272
  721MOL0     H99460   1.421   5.892  -0.439  1.0491  1.4220 -2.2088
  721MOL0     H99461   1.489   5.811  -0.651  0.3915 -1.0796 -0.6234
  721MOL0     H99462   1.556   5.548  -0.895  0.4324 -2.0583  1.5765
  721MOL0     H99463   1.465   5.674  -0.813 -0.1354 -2.1128 -1.9755
  721MOL0     H99464   1.716   5.791  -0.838  0.7262 -0.2999  0.8303
  721MOL0     H99465   1.717   5.671  -0.968 -1.1074  0.4921 -0.6156
  721MOL0     H99466   1.500   5.887  -0.936 -0.9340  1.2667 -1.4358
  721MOL0     H99467   1.523   5.785  -1.070 -1.3737  0.8516  0.5538
  721MOL0     H99468   1.769   5.880  -1.112  0.2781  0.5390 -1.1971
  721MOL0     H99469   1.729   5.998  -0.976  2.5159  0.3163 -0.9402
  721MOL0     H99470   1.558   5.982  -1.224 -1.0140  2.3150 -2.1094
  721MOL0     H99471   1.567   6.114  -1.107  0.0466  0.9325 -2.0580
  721MOL0     H99472   1.655   6.184  -1.305  0.4759 -0.6533 -1.9676
  721MOL0     H99473   1.764   6.054  -1.328 -2.8541  0.5259 -2.1145
  721MOL0     H99474   1.878   6.137  -1.105  2.8044  1.2771 -0.5977
  721MOL0     H99475   1.781   6.279  -1.121  0.1631 -0.8554  2.2457
  721MOL0     H99476   1.997   6.294  -1.198 -0.3618 -1.2659  1.1254
  721MOL0     H99477   1.904   6.301  -1.347  0.1426 -1.9922 -0.8830
  721MOL0     H99478   1.691   5.477  -0.488 -3.1610 -2.0950 -2.4161
  721MOL0     H99479   1.636   5.576  -0.256 -0.7034  5.5300  3.2637
  721MOL0     H99480   1.271   5.646  -0.060  1.0217 -1.7579  0.8652
  721MOL0     H99481   1.214   5.598   0.158 -0.4667  0.0254  2.2397
  721MOL0     H99482   0.473   6.094   1.540  1.5504  0.3288  0.2591
  721MOL0     H99483   0.263   6.063   1.664 -0.5045  1.8305  0.0345
  721MOL0     H99484   0.120   5.832   2.015 -0.3300  1.1111 -0.4526
  721MOL0     H99485  -0.051   5.717   2.142 -3.2233  0.1397  1.6672
  721MOL0     H99486  -0.416   5.940   2.225  1.9358 -1.0685  1.5181
  721MOL0     H99487  -0.494   5.838   2.091  0.4076 -0.7979  0.6513
  721MOL0     H99488  -0.588   5.810   2.303  0.5225  0.6677 -0.7579
  721MOL0     H99489  -0.440   5.760   2.388 -1.9400  0.5217  1.5381
  721MOL0     H99490  -0.538   5.580   2.159 -0.3553 -0.4524 -0.2231
  721MOL0     H99491  -0.410   5.566   2.263  0.3681  0.9526  3.7254
  721MOL0     H99492  -0.618   5.573   2.451  1.8512  2.0625 -0.6828
  721MOL0     H99493  -0.587   5.429   2.355  1.8022  0.4479  0.3921
  721MOL0     H99494  -0.943   5.585   2.178 -1.6738 -3.4298  2.6587
  721MOL0     H99495  -0.332   6.017   2.029 -1.1328 -1.4784 -1.4450
  721MOL0     H99496  -0.287   6.198   1.914 -0.6199  2.4113  1.2406
  721MOL0     H99497  -0.129   6.266   1.952  1.4119 -2.8499  0.2427
  721MOL0     H99498  -0.149   6.194   1.797  2.4186  2.4860  0.6654
  722MOL0     O99499   6.100   8.308   3.240  0.0080 -0.2062  0.4108
  722MOL0     C99500   6.032   8.411   3.223  0.3217  0.3283 -0.3716
  722MOL0     O99501   6.080   8.541   3.239 -0.7714  0.1528 -0.2030
  722MOL0     C99502   6.212   8.575   3.253 -0.6687  0.5933  0.1791
  722MOL0     C99503   6.238   8.712   3.290  0.2458 -0.9223 -0.0140
  722MOL0     C99504   6.373   8.756   3.303  0.1751  0.1847 -0.0180
  722MOL0     C99505   6.485   8.670   3.288  1.3257 -0.0398  0.0590
  722MOL0     O99506   6.614   8.720   3.303 -0.1734  0.9335 -0.3103
  722MOL0     C99507   6.718   8.645   3.238 -0.9959  0.4829 -0.0417
  722MOL0     C99508   6.838   8.742   3.233  0.7074 -0.3262 -0.4708
  722MOL0     C99509   6.964   8.661   3.198 -0.2529  0.4124  0.0508
  722MOL0     C99510   7.088   8.749   3.189  0.9452 -0.2834 -1.1200
  722MOL0     C99511   7.216   8.674   3.167  0.5821  0.5654  0.5777
  722MOL0     C99512   7.337   8.763   3.182 -0.3781  0.1350  0.6810
  722MOL0     C99513   7.483   8.698   3.186 -0.0480 -0.8849  0.4509
  722MOL0     C99514   7.493   8.571   3.088  0.0158  0.7331  0.0304
  722MOL0     N99515   7.629   8.520   3.094  0.3164  0.0896 -0.4896
  722MOL0     C99516   7.652   8.383   3.113 -0.1616 -0.0063 -0.1799
  722MOL0     C99517   7.778   8.370   3.061 -0.4952  0.3963 -0.4611
  722MOL0     C99518   7.857   8.241   3.053 -0.4899 -0.9121 -1.0631
  722MOL0     C99519   7.931   8.202   3.186  0.2187 -0.5836  0.3436
  722MOL0     C99520   8.018   8.314   3.239  0.4504 -0.7017 -0.4418
  722MOL0     C99521   8.157   8.348   3.173  0.1978 -0.0270  0.8202
  722MOL0     O99522   8.247   8.387   3.274  0.0234  0.6762  0.1478
  722MOL0     C99523   8.372   8.429   3.232 -0.0583 -0.1093  0.0134
  722MOL0     C99524   8.459   8.461   3.332  0.5938 -0.2948  0.0777
  722MOL0     C99525   8.593   8.501   3.301 -0.2518 -0.2085  0.2924
  722MOL0     C99526   8.693   8.522   3.412  0.9135  0.0346  0.4357
  722MOL0     C99527   8.633   8.512   3.165 -1.0712 -0.2482  0.3933
  722MOL0     C99528   8.770   8.555   3.125 -0.2631  0.3841 -0.5824
  722MOL0     O99529   8.814   8.509   2.998 -0.3779  0.2003  0.2655
  722MOL0     C99530   8.918   8.578   2.934 -0.5516 -0.1314 -0.9363
  722MOL0     C99531   8.897   8.658   2.829 -0.1034 -0.3959  0.4202
  722MOL0     C99532   9.005   8.733   2.775  0.3587 -0.7675 -0.7272
  722MOL0     C99533   9.134   8.717   2.832 -0.5724  0.3640 -0.1458
  722MOL0     O99534   9.242   8.783   2.774 -0.2624 -0.2767  0.3624
  722MOL0     C99535   9.362   8.785   2.843 -0.4234 -0.6115  0.0722
  722MOL0     C99536   9.453   8.899   2.777 -0.5300 -0.3780  0.0896
  722MOL0     C99537   9.599   8.908   2.846 -0.3839 -0.1011  0.1666
  722MOL0     C99538   9.714   8.853   2.760 -0.2315 -0.5978  0.1565
  722MOL0     C99539   9.844   8.856   2.830  1.3035 -0.5391 -0.5344
  722MOL0     C99540   9.972   8.831   2.748  0.9445 -0.2946  0.3712
  722MOL0     C99541   9.969   8.711   2.648 -0.4033  0.1617  0.0164
  722MOL0     C99542  10.094   8.714   2.557  0.3138  0.4181 -0.1532
  722MOL0    Cl99543  10.227   8.638   2.649 -0.0941 -0.1480 -0.0057
  722MOL0     C99544   9.155   8.625   2.935  0.0495  0.0730 -0.5428
  722MOL0     C99545   9.043   8.559   2.982  0.2227 -0.5705 -0.6348
  722MOL0     O99546   8.836   8.636   3.198 -0.9212 -0.1584  0.0025
  722MOL0     C99547   8.540   8.475   3.067 -0.3298 -0.1534 -0.5172
  722MOL0     C99548   8.415   8.432   3.104  0.0919 -0.4662 -0.3964
  722MOL0     N99549   7.824   8.497   3.024 -0.5055 -1.3874 -0.5141
  722MOL0     N99550   7.733   8.591   3.049 -0.3143  0.7553  0.6605
  722MOL0     C99551   6.453   8.537   3.269  0.3626 -0.2646 -0.9268
  722MOL0     C99552   6.322   8.487   3.248  0.5857  0.5514  0.1636
  722MOL0     C99553   5.881   8.399   3.191  0.2854  0.6023  0.3811
  722MOL0     C99554   5.842   8.275   3.147 -0.3165  0.2881 -0.2623
  722MOL0     C99555   5.714   8.250   3.103 -1.2009  0.0389 -0.5771
  722MOL0     C99556   5.614   8.345   3.108 -0.1095  0.2299  0.1912
  722MOL0     O99557   5.492   8.333   3.053 -0.1318  0.3067  0.6916
  722MOL0     C99558   5.431   8.205   3.087 -0.5722 -0.1279  0.2105
  722MOL0     C99559   5.289   8.217   3.039  0.8364  0.0617 -0.2110
  722MOL0     C99560   5.281   8.210   2.887  0.1505  0.8551 -0.5412
  722MOL0     C99561   5.136   8.200   2.826  0.3641  0.6716  0.0841
  722MOL0     C99562   5.047   8.309   2.855 -0.2524  0.2751 -0.2950
  722MOL0     C99563   4.993   8.415   2.874 -0.8227 -0.4336 -0.0352
  722MOL0     C99564   5.646   8.467   3.160  0.4763 -0.2309 -0.2572
  722MOL0     C99565   5.770   8.490   3.197  0.3561 -1.1062 -0.4634
  722MOL0     C99566   5.800   8.636   3.239 -0.1078  0.4444 -0.0956
  722MOL0     H99567   6.158   8.785   3.286 -0.0447 -1.2853 -1.5123
  722MOL0     H99568   6.394   8.859   3.328 -0.1978  0.3486 -0.3727
  722MOL0     H99569   6.695   8.612   3.136 -1.0340  0.1654  0.0679
  722MOL0     H99570   6.742   8.557   3.300 -1.6015 -1.1616 -2.0249
  722MOL0     H99571   6.833   8.824   3.161  3.4068  0.8001  0.5128
  722MOL0     H99572   6.853   8.800   3.324  2.9066  0.7865 -1.4687
  722MOL0     H99573   6.987   8.588   3.276 -0.0530  0.5915  0.1590
  722MOL0     H99574   6.959   8.596   3.110 -0.7069 -2.5771  2.1018
  722MOL0     H99575   7.078   8.830   3.116 -0.3515  0.1437 -0.4818
  722MOL0     H99576   7.103   8.808   3.280  0.2409  2.4415 -2.6665
  722MOL0     H99577   7.215   8.629   3.067  1.7308 -1.0206  1.2431
  722MOL0     H99578   7.230   8.583   3.225 -1.0596  0.2744  0.5742
  722MOL0     H99579   7.333   8.833   3.098  0.9013 -2.0710 -1.3466
  722MOL0     H99580   7.329   8.817   3.276 -0.1399 -1.7814  1.8662
  722MOL0     H99581   7.526   8.663   3.280  0.5331  0.1767  0.6025
  722MOL0     H99582   7.549   8.782   3.161 -2.9170  1.0065 -1.2595
  722MOL0     H99583   7.423   8.490   3.108  2.6685 -1.7815 -0.2305
  722MOL0     H99584   7.472   8.590   2.982  1.4393 -1.2789 -0.6677
  722MOL0     H99585   7.587   8.309   3.158  0.3568 -0.5566 -0.3181
  722MOL0     H99586   7.934   8.248   2.976  0.7259  4.7372  0.2054
  722MOL0     H99587   7.784   8.163   3.030  0.1404 -1.5327 -0.9872
  722MOL0     H99588   7.866   8.158   3.263  0.9342 -3.2317 -0.4607
  722MOL0     H99589   8.008   8.125   3.178  0.1443 -0.8891  2.1121
  722MOL0     H99590   7.967   8.411   3.237  2.1487  0.2432 -0.6974
  722MOL0     H99591   8.035   8.301   3.346 -1.2781  1.4901  0.1805
  722MOL0     H99592   8.191   8.254   3.129 -1.9431 -2.3307  3.6452
  722MOL0     H99593   8.152   8.413   3.086  1.6761  0.1434  0.8428
  722MOL0     H99594   8.421   8.462   3.434 -2.9304 -2.8546 -1.0242
  722MOL0     H99595   8.634   8.516   3.504  1.0427 -1.4338  0.4406
  722MOL0     H99596   8.750   8.615   3.413 -3.0760  2.7829 -0.7807
  722MOL0     H99597   8.768   8.443   3.415  0.1805 -0.6807  0.3798
  722MOL0     H99598   8.801   8.678   2.782 -1.3976 -0.0122  3.0252
  722MOL0     H99599   8.995   8.805   2.694  1.2309  0.0192 -0.1547
  722MOL0     H99600   9.329   8.807   2.945 -1.9347  1.4679 -0.8032
  722MOL0     H99601   9.416   8.691   2.825  0.2148  0.2314 -2.9259
  722MOL0     H99602   9.472   8.852   2.681 -1.9283 -2.2762  0.7023
  722MOL0     H99603   9.394   8.991   2.781 -0.0575  0.2696 -3.8897
  722MOL0     H99604   9.598   8.851   2.939 -0.1621 -0.3591  0.0130
  722MOL0     H99605   9.620   9.011   2.875  0.7229 -0.6619  1.4463
  722MOL0     H99606   9.724   8.905   2.665  1.5296 -1.9788 -0.4886
  722MOL0     H99607   9.700   8.746   2.745  1.1417 -0.8187  0.2420
  722MOL0     H99608   9.857   8.959   2.864  1.7783 -1.1929  1.4085
  722MOL0     H99609   9.836   8.787   2.915  2.7761 -2.1082 -1.6156
  722MOL0     H99610  10.052   8.827   2.823 -0.1379 -2.8842  1.4958
  722MOL0     H99611   9.989   8.924   2.692 -0.6387 -0.5154 -0.5380
  722MOL0     H99612   9.888   8.714   2.575  1.1971 -2.1837 -2.0106
  722MOL0     H99613   9.948   8.612   2.691 -0.5400 -0.0402 -0.5045
  722MOL0     H99614  10.127   8.816   2.539  2.2814  0.0248  0.9216
  722MOL0     H99615  10.079   8.652   2.468 -0.9756 -0.8425  0.8887
  722MOL0     H99616   9.251   8.607   2.982 -0.1420 -0.8964 -0.5075
  722MOL0     H99617   9.059   8.486   3.061  1.4730  0.5352  0.1747
  722MOL0     H99618   8.554   8.481   2.960  2.0223 -1.3322 -0.3492
  722MOL0     H99619   8.348   8.406   3.023 -0.3387 -0.1582 -0.1427
  722MOL0     H99620   6.526   8.457   3.262 -2.5967 -3.2610 -0.0496
  722MOL0     H99621   6.302   8.381   3.240  2.2523  0.0832  1.7203
  722MOL0     H99622   5.905   8.187   3.137 -1.8665 -1.1738  1.9663
  722MOL0     H99623   5.698   8.155   3.054 -1.9543 -0.4552  0.5957
  722MOL0     H99624   5.478   8.122   3.033 -0.6146  0.1313 -0.2260
  722MOL0     H99625   5.412   8.192   3.194 -1.8184  1.5766  0.2313
  722MOL0     H99626   5.247   8.313   3.070 -0.7736 -1.0211  1.1492
  722MOL0     H99627   5.232   8.134   3.083  2.5589  0.0352  2.1686
  722MOL0     H99628   5.334   8.298   2.850 -0.4969  1.0337 -1.0638
  722MOL0     H99629   5.337   8.124   2.849  1.6721  0.4601  2.3164
  722MOL0     H99630   5.083   8.107   2.848  0.3348 -0.2274 -3.3546
  722MOL0     H99631   5.141   8.209   2.718  1.8873  0.1087  0.0870
  722MOL0     H99632   4.949   8.512   2.878  2.8155  1.5455 -2.6052
  722MOL0     H99633   5.573   8.544   3.183  2.1430  1.9200 -1.7676
  722MOL0     H99634   5.885   8.676   3.183 -1.5060  0.7133 -2.1409
  722MOL0     H99635   5.711   8.698   3.229 -0.4084  0.4045  1.8392
  722MOL0     H99636   5.827   8.644   3.345  2.0819  1.2058 -0.6609
  723MOL0     O99637   2.986   2.326   9.556 -0.5880 -0.7636 -0.2178
  723MOL0     C99638   2.972   2.386   9.449 -0.4702 -0.0854 -0.0968
  723MOL0     O99639   3.063   2.385   9.345 -0.4802  0.3842 -0.1090
  723MOL0     C99640   3.191   2.329   9.375  0.0646  0.4709 -0.4457
  723MOL0     C99641   3.267   2.382   9.473  0.3439  0.3842  0.1679
  723MOL0     C99642   3.382   2.315   9.513 -0.5689 -0.7153  0.8961
  723MOL0     C99643   3.428   2.205   9.436  0.1412  0.8903  0.2039
  723MOL0     O99644   3.550   2.166   9.479  0.0737  0.1945  0.2590
  723MOL0     C99645   3.610   2.066   9.407  0.4188 -0.3993  0.7935
  723MOL0     C99646   3.748   2.041   9.478 -0.4743  0.5273  0.5380
  723MOL0     C99647   3.842   1.974   9.387  0.0447 -0.2529  0.8055
  723MOL0     C99648   3.920   2.086   9.310 -0.5949  0.2511  0.1840
  723MOL0     C99649   4.040   2.040   9.219  0.7461 -0.8877  0.0087
  723MOL0     C99650   4.137   1.929   9.264 -0.1682 -0.4880 -0.0239
  723MOL0     C99651   4.244   1.975   9.372  0.8591 -0.8599  0.1340
  723MOL0     C99652   4.366   2.053   9.296  0.1897 -0.1584  0.7959
  723MOL0     N99653   4.455   2.102   9.399 -0.5278 -0.0502  0.4837
  723MOL0     C99654   4.426   2.210   9.483 -0.3968  0.5548  0.3639
  723MOL0     C99655   4.540   2.225   9.553  0.2838 -0.4459 -0.1817
  723MOL0     C99656   4.566   2.336   9.649 -0.0730 -0.3451 -0.8227
  723MOL0     C99657   4.631   2.459   9.582  0.6323 -0.0067 -0.3092
  723MOL0     C99658   4.783   2.429   9.563  0.9858 -0.7311 -0.7962
  723MOL0     C99659   4.865   2.534   9.484 -0.7408 -0.0432  0.3466
  723MOL0     O99660   4.995   2.483   9.448  0.0837  0.0573 -0.2911
  723MOL0     C99661   5.087   2.574   9.413 -0.2852 -0.7113 -0.1837
  723MOL0     C99662   5.221   2.539   9.422 -0.7289  0.3657  0.2209
  723MOL0     C99663   5.317   2.626   9.376 -0.9530 -0.0985 -0.3304
  723MOL0     C99664   5.461   2.607   9.429  0.5260 -0.3609  0.2105
  723MOL0     C99665   5.286   2.753   9.315  0.3384 -0.0935 -0.6357
  723MOL0     C99666   5.380   2.854   9.256  0.1846  0.0454 -0.6651
  723MOL0     O99667   5.517   2.827   9.262  0.3109 -0.0578  0.4242
  723MOL0     C99668   5.606   2.912   9.199  0.5273  0.2267 -0.1085
  723MOL0     C99669   5.714   2.869   9.124  0.6552  1.5345  0.3112
  723MOL0     C99670   5.822   2.953   9.089 -0.6790  0.5588 -0.0785
  723MOL0     C99671   5.812   3.089   9.117 -0.3855  0.7172  0.5346
  723MOL0     O99672   5.911   3.171   9.082  0.7980 -0.5794 -0.1109
  723MOL0     C99673   5.919   3.306   9.121 -0.8461  0.0049 -0.6299
  723MOL0     C99674   6.075   3.349   9.110  0.1979  0.7443 -0.3490
  723MOL0     C99675   6.164   3.289   9.231  0.2827 -0.0412 -0.9265
  723MOL0     C99676   6.143   3.377   9.355 -0.5359 -0.4222  0.7447
  723MOL0     C99677   6.229   3.333   9.469 -0.2210  0.9775  0.1522
  723MOL0     C99678   6.370   3.371   9.446 -0.2208 -0.3482  0.7477
  723MOL0     C99679   6.447   3.367   9.585 -0.0217 -0.9592  0.6818
  723MOL0     C99680   6.588   3.427   9.582  0.4684 -0.5732 -0.1933
  723MOL0    Cl99681   6.674   3.311   9.475  0.3265 -0.4168 -0.7406
  723MOL0     C99682   5.703   3.135   9.195 -0.1518 -0.3066 -0.3256
  723MOL0     C99683   5.603   3.048   9.236  0.4989 -0.4732 -0.2112
  723MOL0     O99684   5.331   2.947   9.183 -0.0786  0.1842  0.3162
  723MOL0     C99685   5.153   2.792   9.312  0.5545  0.2243  0.1248
  723MOL0     C99686   5.057   2.702   9.361  0.4714  0.0665 -0.2728
  723MOL0     N99687   4.631   2.125   9.512 -0.7481 -0.0727  0.0004
  723MOL0     N99688   4.577   2.053   9.420 -0.3759  0.3086  0.1265
  723MOL0     C99689   3.346   2.155   9.333 -0.1562  0.5822  0.3331
  723MOL0     C99690   3.223   2.210   9.305 -0.9392 -0.7856 -0.0869
  723MOL0     C99691   2.841   2.447   9.432  0.0376 -0.0311  0.1550
  723MOL0     C99692   2.750   2.370   9.362  0.3884  0.3869 -0.4038
  723MOL0     C99693   2.621   2.411   9.347  0.0284 -0.7824  0.6388
  723MOL0     C99694   2.576   2.533   9.395 -0.1338 -0.3243  0.1531
  723MOL0     O99695   2.454   2.590   9.396  0.4961 -1.1825  0.4752
  723MOL0     C99696   2.344   2.503   9.407 -0.6547  0.4903 -0.1722
  723MOL0     C99697   2.237   2.557   9.504 -0.0720 -0.2685  0.1377
  723MOL0     C99698   2.298   2.625   9.629  0.5602  0.7433  0.6965
  723MOL0     C99699   2.337   2.773   9.610 -0.1747 -0.8009  0.9251
  723MOL0     C99700   2.214   2.858   9.631 -0.1828 -0.2716  0.0660
  723MOL0     C99701   2.107   2.915   9.664 -0.3879  0.2464  0.7065
  723MOL0     C99702   2.672   2.612   9.465  0.1212  0.0720 -0.1503
  723MOL0     C99703   2.808   2.569   9.476 -0.9921 -0.4241 -0.9816
  723MOL0     C99704   2.904   2.643   9.571 -0.3161 -0.7456 -0.7020
  723MOL0     H99705   3.230   2.474   9.516 -0.3630  0.5500 -0.7699
  723MOL0     H99706   3.454   2.368   9.576  0.3102  1.0540 -1.4256
  723MOL0     H99707   3.634   2.090   9.303  0.0225  1.0421  1.0081
  723MOL0     H99708   3.549   1.976   9.418 -0.7041  0.1611 -0.5007
  723MOL0     H99709   3.804   2.129   9.512 -1.8380  2.2246 -1.3883
  723MOL0     H99710   3.735   1.983   9.570 -0.3344  1.3567  1.0906
  723MOL0     H99711   3.918   1.921   9.446 -1.2864 -1.9842  1.0624
  723MOL0     H99712   3.796   1.896   9.326  0.6480 -1.4409  1.8126
  723MOL0     H99713   3.851   2.148   9.252 -1.7249 -1.2463 -0.1304
  723MOL0     H99714   3.975   2.148   9.381  0.3937  0.7749 -1.0064
  723MOL0     H99715   4.103   2.119   9.178  2.7988 -3.0780 -1.2817
  723MOL0     H99716   3.992   1.993   9.132 -1.5130 -1.1825  1.3338
  723MOL0     H99717   4.085   1.850   9.318 -0.7413 -0.0401  0.0888
  723MOL0     H99718   4.189   1.896   9.173  0.5549  0.7549 -0.0795
  723MOL0     H99719   4.281   1.887   9.426 -2.8829 -0.9583  2.8782
  723MOL0     H99720   4.196   2.044   9.442  4.0407  1.8885 -0.1361
  723MOL0     H99721   4.419   1.995   9.220  1.0916  0.0421  1.2528
  723MOL0     H99722   4.320   2.141   9.250 -1.4228 -0.5652  1.5526
  723MOL0     H99723   4.346   2.284   9.482  1.7625  3.1001  1.6846
  723MOL0     H99724   4.635   2.301   9.726 -3.2477 -1.0558  1.9361
  723MOL0     H99725   4.468   2.360   9.693  1.1165  3.9452 -0.0478
  723MOL0     H99726   4.585   2.464   9.483 -2.2389  2.7588  0.9811
  723MOL0     H99727   4.608   2.549   9.642  1.5484 -1.5185  2.5197
  723MOL0     H99728   4.828   2.420   9.663 -1.7543  2.1224  0.8696
  723MOL0     H99729   4.807   2.339   9.506  1.1738 -1.2332  0.0481
  723MOL0     H99730   4.806   2.570   9.399  1.5360 -0.9162 -1.7153
  723MOL0     H99731   4.878   2.621   9.549  1.1156 -0.5568  0.7120
  723MOL0     H99732   5.246   2.443   9.465  0.4269  1.5124  2.2539
  723MOL0     H99733   5.482   2.688   9.498 -1.8261 -0.3144  0.9496
  723MOL0     H99734   5.525   2.614   9.340 -0.5383  2.3660 -0.4403
  723MOL0     H99735   5.479   2.509   9.476  0.0979 -0.7728 -0.4577
  723MOL0     H99736   5.707   2.770   9.081  2.5528  1.8336 -0.7907
  723MOL0     H99737   5.910   2.919   9.036  0.0975 -1.5019  2.3660
  723MOL0     H99738   5.870   3.372   9.049 -1.4645 -1.2119 -1.3593
  723MOL0     H99739   5.888   3.324   9.224  1.3713 -0.0242  0.0930
  723MOL0     H99740   6.128   3.309   9.023 -0.5456  1.5485 -1.1834
  723MOL0     H99741   6.083   3.457   9.119 -1.8305  0.7578  3.6088
  723MOL0     H99742   6.268   3.287   9.196  1.6365  3.8633  2.2078
  723MOL0     H99743   6.129   3.187   9.249 -0.6877  0.2885 -0.9139
  723MOL0     H99744   6.042   3.369   9.396 -0.0837 -0.4442  1.8877
  723MOL0     H99745   6.152   3.484   9.336  0.8543 -0.3730  1.5409
  723MOL0     H99746   6.191   3.375   9.562  1.3379  2.1076  0.3229
  723MOL0     H99747   6.233   3.224   9.468  1.0406  1.0075 -0.0941
  723MOL0     H99748   6.381   3.472   9.408 -1.4433 -0.9516 -1.3614
  723MOL0     H99749   6.412   3.303   9.371 -0.9302 -1.0908  1.0102
  723MOL0     H99750   6.450   3.266   9.627 -0.8157 -2.1188 -1.9107
  723MOL0     H99751   6.394   3.424   9.663  1.3293 -0.4647  1.2732
  723MOL0     H99752   6.633   3.443   9.680  0.8577 -0.3526 -0.4075
  723MOL0     H99753   6.581   3.526   9.537  0.9567  0.5646  2.0904
  723MOL0     H99754   5.687   3.239   9.221 -0.1963 -0.5553  0.6422
  723MOL0     H99755   5.528   3.094   9.300  0.6250  0.8617 -0.9997
  723MOL0     H99756   5.129   2.890   9.271  1.4379 -0.2997 -1.7733
  723MOL0     H99757   4.953   2.735   9.365  0.8820  1.3802  0.0912
  723MOL0     H99758   3.371   2.064   9.279 -4.0519  0.5179 -1.7591
  723MOL0     H99759   3.155   2.176   9.227 -1.0426 -0.2920 -0.2102
  723MOL0     H99760   2.777   2.268   9.336 -1.6411 -0.8648  1.9314
  723MOL0     H99761   2.550   2.340   9.304  0.8977 -1.2352 -0.0827
  723MOL0     H99762   2.306   2.488   9.305 -1.5590 -1.6100  0.4191
  723MOL0     H99763   2.372   2.401   9.437 -2.0927 -0.3169 -1.4320
  723MOL0     H99764   2.173   2.472   9.527 -2.6346  1.5228 -0.0185
  723MOL0     H99765   2.175   2.634   9.459  0.6566  0.8312  0.9520
  723MOL0     H99766   2.235   2.614   9.718 -0.2016  1.1715  0.2227
  723MOL0     H99767   2.382   2.559   9.653 -1.2943 -2.7564 -1.5689
  723MOL0     H99768   2.386   2.798   9.516  0.5787  2.1087  2.0078
  723MOL0     H99769   2.411   2.802   9.686  2.0218 -1.3487 -0.8965
  723MOL0     H99770   2.018   2.962   9.699 -0.5965  1.0624 -0.8382
  723MOL0     H99771   2.644   2.712   9.498  2.5301  1.4666 -1.9661
  723MOL0     H99772   2.844   2.708   9.636  1.0635 -1.1261  1.0163
  723MOL0     H99773   2.950   2.581   9.648  1.1570  1.7437  0.5532
  723MOL0     H99774   2.982   2.706   9.527  0.4292  0.2123  1.8198
  724MOL0     O99775   9.920   4.564  10.359  0.2522  0.2397  0.0985
  724MOL0     C99776   9.929   4.513  10.468 -0.8308  0.2947  0.0490
  724MOL0     O99777  10.053   4.499  10.529 -0.1931  0.4974 -0.5993
  724MOL0     C99778  10.164   4.578  10.510 -0.3126 -0.0953 -0.0918
  724MOL0     C99779  10.161   4.710  10.459 -0.0897  0.0970 -0.2696
  724MOL0     C99780  10.282   4.767  10.428 -0.2344  0.1899 -0.1665
  724MOL0     C99781  10.409   4.706  10.438  0.2542  0.0845  0.7233
  724MOL0     O99782  10.516   4.778  10.392 -0.1976 -0.1351  0.2426
  724MOL0     C99783  10.645   4.716  10.389 -0.2747 -0.8355  0.1940
  724MOL0     C99784  10.741   4.835  10.362  0.5984  0.7114  0.2732
  724MOL0     C99785  10.881   4.772  10.345  0.0618  0.9710  0.4829
  724MOL0     C99786  10.985   4.852  10.275  0.2378  0.1784 -0.4872
  724MOL0     C99787  10.969   5.000  10.317  0.6672 -1.0287 -0.7528
  724MOL0     C99788  11.079   5.100  10.263 -0.4545 -0.0876  0.4678
  724MOL0     C99789  11.077   5.108  10.105 -0.3484  0.4273 -0.0449
  724MOL0     C99790  11.136   5.239  10.053 -0.3981 -0.2642  0.5156
  724MOL0     N99791  11.272   5.265  10.101  0.5087  0.0936  0.0297
  724MOL0     C99792  11.306   5.316  10.217  0.8604 -0.3567  0.2861
  724MOL0     C99793  11.444   5.317  10.207 -0.2095  0.2383  0.2935
  724MOL0     C99794  11.547   5.358  10.310 -0.5896 -0.0884  0.5663
  724MOL0     C99795  11.666   5.433  10.248 -0.4077  0.6049  0.4728
  724MOL0     C99796  11.716   5.544  10.345 -0.4303 -0.2028 -0.6614
  724MOL0     C99797  11.823   5.492  10.449  0.1154 -0.0696  0.8767
  724MOL0     O99798  11.924   5.425  10.380 -0.8071 -0.5352  0.0815
  724MOL0     C99799  12.057   5.454  10.414 -0.1479  0.5787  0.1987
  724MOL0     C99800  12.093   5.591  10.411 -0.1990  0.5629  0.6067
  724MOL0     C99801  12.225   5.632  10.444  0.4619  0.1880 -0.3032
  724MOL0     C99802  12.263   5.781  10.453 -0.3426  0.0190 -0.3630
  724MOL0     C99803  12.325   5.533  10.469  1.0328  0.2768  0.9013
  724MOL0     C99804  12.464   5.559  10.506  0.6017 -0.3536  0.7818
  724MOL0     O99805  12.551   5.469  10.472 -0.0155  0.3967  0.4009
  724MOL0     C99806  12.650   5.492  10.383 -0.0911  0.3061 -0.5770
  724MOL0     C99807  12.663   5.609  10.319 -0.0934  0.5778  0.8114
  724MOL0     C99808  12.770   5.623  10.225 -0.4081  0.1809 -0.1648
  724MOL0     C99809  12.849   5.520  10.196  0.7950 -0.5786  0.4795
  724MOL0     O99810  12.947   5.546  10.095  0.1198  0.0579  0.3823
  724MOL0     C99811  13.067   5.462  10.110  0.4264  0.3063  1.5112
  724MOL0     C99812  13.152   5.495   9.982  0.1413  0.2641  1.1279
  724MOL0     C99813  13.221   5.621   9.977 -1.2629  0.1537 -0.5047
  724MOL0     C99814  13.300   5.645   9.844 -0.3489  0.7214 -1.4050
  724MOL0     C99815  13.374   5.783   9.857  0.7713  0.1076 -0.8925
  724MOL0     C99816  13.496   5.786   9.771 -0.0194  0.2279  0.1787
  724MOL0     C99817  13.552   5.928   9.767  0.4857 -1.1189 -1.0487
  724MOL0     C99818  13.467   6.042   9.710 -0.0501  1.3542  0.2585
  724MOL0    Cl99819  13.577   6.176   9.661 -0.5958  0.2315 -0.1447
  724MOL0     C99820  12.829   5.401  10.261  0.2164  0.0883 -0.9639
  724MOL0     C99821  12.732   5.386  10.354 -0.3539  1.0133 -0.2531
  724MOL0     O99822  12.494   5.663  10.566 -0.4946  0.3957 -0.0249
  724MOL0     C99823  12.293   5.403  10.443  0.1629 -0.5975 -0.2306
  724MOL0     C99824  12.159   5.362  10.431 -0.5721 -0.1328  0.2849
  724MOL0     N99825  11.483   5.259  10.089  0.9521  0.0720  0.7551
  724MOL0     N99826  11.374   5.224  10.032  0.8302  0.1608  0.2410
  724MOL0     C99827  10.404   4.574  10.490  0.5091  0.6882  0.0095
  724MOL0     C99828  10.287   4.510  10.523  0.5348  0.6412 -0.0006
  724MOL0     C99829   9.811   4.459  10.528  0.4154  0.1425  0.0430
  724MOL0     C99830   9.790   4.491  10.665 -0.2040  0.3690  1.0473
  724MOL0     C99831   9.672   4.445  10.719 -0.5740  1.0320 -0.3091
  724MOL0     C99832   9.581   4.359  10.651 -0.4153 -0.5859  0.2997
  724MOL0     O99833   9.469   4.323  10.716  0.0199  0.0763 -0.6395
  724MOL0     C99834   9.378   4.231  10.649  0.4891 -0.3296 -0.0572
  724MOL0     C99835   9.271   4.199  10.744  0.6049  0.9602  0.6814
  724MOL0     C99836   9.171   4.101  10.676  0.5588 -0.4128  1.3151
  724MOL0     C99837   9.076   4.032  10.772  0.4446  0.7813 -0.2798
  724MOL0     C99838   8.997   4.114  10.859  0.8407  0.0381  0.4883
  724MOL0     C99839   8.935   4.184  10.938 -0.4578  0.0850  0.2717
  724MOL0     C99840   9.605   4.330  10.522  0.4040 -0.4781  0.7219
  724MOL0     C99841   9.718   4.373  10.458 -0.1502 -0.4247 -0.3431
  724MOL0     C99842   9.739   4.340  10.311 -0.3089  0.3718 -0.5393
  724MOL0     H99843  10.080   4.776  10.432  1.0507  0.2578 -3.8310
  724MOL0     H99844  10.275   4.862  10.375 -1.5280  0.5068  0.5212
  724MOL0     H99845  10.643   4.638  10.312  2.1411 -0.8059  0.0221
  724MOL0     H99846  10.667   4.660  10.481 -1.2841 -2.6549 -0.6247
  724MOL0     H99847  10.710   4.891  10.274  0.8747  2.2896  1.1545
  724MOL0     H99848  10.735   4.910  10.440 -2.3601 -0.1500  1.0304
  724MOL0     H99849  10.920   4.743  10.443  0.4273  0.7480  0.2760
  724MOL0     H99850  10.880   4.680  10.285  1.2234  0.2519  1.5083
  724MOL0     H99851  11.082   4.812  10.304  0.4574  2.4207  2.3733
  724MOL0     H99852  10.971   4.850  10.166  2.7401  1.9906 -0.9265
  724MOL0     H99853  10.959   5.010  10.425  1.3117  1.1309 -0.8469
  724MOL0     H99854  10.881   5.052  10.280  0.8138  3.0849  3.6562
  724MOL0     H99855  11.063   5.200  10.304  4.1265 -0.0354  2.8646
  724MOL0     H99856  11.178   5.068  10.298  0.6855  0.5242 -1.9527
  724MOL0     H99857  10.973   5.100  10.071 -1.6796  2.9322  2.9914
  724MOL0     H99858  11.134   5.024  10.065  0.3552  0.0398  1.6970
  724MOL0     H99859  11.141   5.231   9.944  0.8521  2.3724  0.3043
  724MOL0     H99860  11.066   5.317  10.085 -1.1733 -0.5513 -0.4240
  724MOL0     H99861  11.243   5.350  10.298 -0.5479  1.4493 -1.4557
  724MOL0     H99862  11.582   5.267  10.358  0.4016 -0.8725 -1.4903
  724MOL0     H99863  11.514   5.427  10.387  0.5335  3.0097 -1.5131
  724MOL0     H99864  11.751   5.372  10.216  1.1565  1.9995  1.7966
  724MOL0     H99865  11.633   5.479  10.155 -0.2703 -0.0543  0.0860
  724MOL0     H99866  11.757   5.630  10.292  0.1626  0.3668  0.6996
  724MOL0     H99867  11.631   5.590  10.397 -0.0964 -0.0966 -0.2088
  724MOL0     H99868  11.855   5.573  10.516 -2.4536  0.9993  0.9448
  724MOL0     H99869  11.767   5.430  10.520 -2.5364  1.0297 -0.1269
  724MOL0     H99870  12.016   5.663  10.385 -2.5617 -1.4238  1.6749
  724MOL0     H99871  12.279   5.808  10.558  3.3282 -2.4609 -0.1088
  724MOL0     H99872  12.191   5.842  10.397  0.2059  2.0291  0.9977
  724MOL0     H99873  12.362   5.796  10.408  0.9118  3.0454  2.9095
  724MOL0     H99874  12.604   5.698  10.335 -0.2525  0.7889 -0.7524
  724MOL0     H99875  12.775   5.725  10.187 -2.6800  0.1094 -0.7835
  724MOL0     H99876  13.120   5.478  10.204  2.6133  0.1953  0.3454
  724MOL0     H99877  13.037   5.357  10.117  1.3327 -0.2913 -1.7417
  724MOL0     H99878  13.222   5.411   9.978 -3.4267 -2.9318 -1.0284
  724MOL0     H99879  13.096   5.480   9.890 -1.8667 -2.3772  2.6381
  724MOL0     H99880  13.286   5.624  10.064 -1.7297 -0.9837 -0.1006
  724MOL0     H99881  13.142   5.697   9.979  0.4874  2.0553  2.3106
  724MOL0     H99882  13.230   5.650   9.760 -4.7736  3.6833  2.0235
  724MOL0     H99883  13.370   5.561   9.844 -2.8712 -1.5237 -0.6529
  724MOL0     H99884  13.310   5.866   9.825 -0.4970 -1.3729 -2.3825
  724MOL0     H99885  13.393   5.811   9.961 -0.2920 -2.1321 -0.0216
  724MOL0     H99886  13.478   5.755   9.667  1.1433  3.0817 -0.9574
  724MOL0     H99887  13.562   5.718   9.824  0.4256  1.2338  0.9306
  724MOL0     H99888  13.647   5.930   9.712  1.2392 -1.1391  0.2177
  724MOL0     H99889  13.575   5.955   9.870 -4.7786 -1.4351  0.4917
  724MOL0     H99890  13.391   6.075   9.781 -1.3423  2.6535 -1.6378
  724MOL0     H99891  13.419   5.994   9.624 -0.9068  3.1136 -0.3007
  724MOL0     H99892  12.899   5.319  10.242  1.1900 -0.1280  2.7590
  724MOL0     H99893  12.727   5.287  10.398  0.2358  0.0212 -2.3006
  724MOL0     H99894  12.369   5.326  10.450  2.5062  1.6261  0.4703
  724MOL0     H99895  12.142   5.255  10.430 -0.0767 -0.2371  1.4935
  724MOL0     H99896  10.501   4.527  10.476  0.4458  0.5999 -0.1367
  724MOL0     H99897  10.294   4.406  10.553  0.6456 -0.1581 -2.5322
  724MOL0     H99898   9.863   4.556  10.712  1.7076  1.1042 -2.5748
  724MOL0     H99899   9.660   4.475  10.822  1.4345  2.1141 -0.3386
  724MOL0     H99900   9.341   4.273  10.555  2.4841  2.4687  0.2882
  724MOL0     H99901   9.438   4.147  10.613 -0.7702  0.0794 -3.4507
  724MOL0     H99902   9.209   4.284  10.775 -1.6164 -0.4307  0.2832
  724MOL0     H99903   9.318   4.147  10.827  2.5077 -2.5249 -2.2897
  724MOL0     H99904   9.118   4.143  10.590 -0.0918 -1.5769  1.1321
  724MOL0     H99905   9.224   4.026  10.618  0.0079  1.4150 -1.7887
  724MOL0     H99906   9.135   3.961  10.831 -0.1216  2.1329  2.0146
  724MOL0     H99907   9.012   3.972  10.706  1.2667 -3.5133  2.4166
  724MOL0     H99908   8.873   4.228  11.014 -1.1384 -0.1353 -0.1404
  724MOL0     H99909   9.532   4.271  10.467  1.4542 -2.5353  1.4131
  724MOL0     H99910   9.715   4.427  10.249 -0.5334 -1.0187 -2.4741
  724MOL0     H99911   9.841   4.307  10.288 -0.1141  1.3544 -1.1255
  724MOL0     H99912   9.673   4.256  10.288 -1.6170  1.5748 -1.3090
  725MOL0     O99913   0.107   5.624   8.262  0.2647  0.1324 -0.0489
  725MOL0     C99914   0.003   5.646   8.326 -0.5643  0.2001 -0.5350
  725MOL0     O99915  -0.031   5.764   8.396  0.6766  0.6662  0.2993
  725MOL0     C99916   0.067   5.860   8.404 -0.6264 -0.0434  0.3790
  725MOL0     C99917   0.152   5.866   8.513 -0.3490 -0.7186 -0.0767
  725MOL0     C99918   0.253   5.958   8.519  0.5236  0.0587 -0.7329
  725MOL0     C99919   0.269   6.057   8.418  0.0055  1.1838 -0.5959
  725MOL0     O99920   0.380   6.147   8.431 -0.0093  0.2575  1.0381
  725MOL0     C99921   0.411   6.225   8.318 -0.1904 -1.0246 -0.1147
  725MOL0     C99922   0.543   6.311   8.338  0.5485 -0.1157  0.1838
  725MOL0     C99923   0.678   6.250   8.355  0.1609  0.7342 -0.1753
  725MOL0     C99924   0.801   6.345   8.349 -0.8408 -0.1234  1.1243
  725MOL0     C99925   0.853   6.380   8.202  0.3885  0.4269  0.5224
  725MOL0     C99926   0.958   6.486   8.202  0.3569 -0.4316  0.3380
  725MOL0     C99927   1.105   6.431   8.205  0.4146  0.1155  0.7502
  725MOL0     C99928   1.201   6.535   8.158  0.3857 -0.2474  0.0762
  725MOL0     N99929   1.338   6.480   8.154 -0.4302  0.1769 -0.4023
  725MOL0     C99930   1.391   6.397   8.256 -0.1961 -0.2632 -0.3030
  725MOL0     C99931   1.485   6.323   8.186 -0.1708  0.8437  0.4707
  725MOL0     C99932   1.566   6.208   8.241  0.0609  0.3604  0.2494
  725MOL0     C99933   1.709   6.254   8.250 -0.7123 -0.5423 -0.4172
  725MOL0     C99934   1.739   6.282   8.393 -0.5478  0.1366  0.0026
  725MOL0     C99935   1.882   6.336   8.410 -0.2894  0.7101 -0.2988
  725MOL0     O99936   1.909   6.380   8.542 -0.0110  0.0974  0.2682
  725MOL0     C99937   2.046   6.403   8.565  0.6346 -0.1720 -0.0798
  725MOL0     C99938   2.153   6.393   8.470  0.2496  0.6062  0.1122
  725MOL0     C99939   2.280   6.394   8.508 -0.9470 -0.2164  0.5966
  725MOL0     C99940   2.388   6.373   8.400  0.2302 -0.7441 -0.3539
  725MOL0     C99941   2.313   6.416   8.643  0.3144  0.1679 -0.5800
  725MOL0     C99942   2.445   6.417   8.705 -0.6971  0.0674  0.2129
  725MOL0     O99943   2.470   6.477   8.821  0.3518  0.4299  0.9856
  725MOL0     C99944   2.596   6.534   8.842  0.7257  0.1366 -0.2059
  725MOL0     C99945   2.635   6.527   8.975  0.0565 -0.9534  0.3496
  725MOL0     C99946   2.758   6.581   9.021 -0.0880  0.5493 -0.3722
  725MOL0     C99947   2.846   6.635   8.931  0.2986 -0.1954 -0.4980
  725MOL0     O99948   2.964   6.676   8.996 -0.3007 -0.2553 -0.4897
  725MOL0     C99949   3.044   6.769   8.926  0.1644 -0.5844 -0.6170
  725MOL0     C99950   3.154   6.814   9.017 -0.1022  0.1374 -0.3978
  725MOL0     C99951   3.257   6.699   9.042  0.8887 -0.7350  0.7282
  725MOL0     C99952   3.318   6.746   9.167 -0.7209 -0.2039 -0.0881
  725MOL0     C99953   3.455   6.694   9.190 -0.5436  1.0015 -0.3607
  725MOL0     C99954   3.514   6.740   9.330  0.4750  0.3041 -0.0792
  725MOL0     C99955   3.658   6.695   9.356 -0.6911  0.4797  0.0264
  725MOL0     C99956   3.715   6.740   9.493 -0.2746  0.0910 -0.0938
  725MOL0    Cl99957   3.661   6.638   9.625 -0.2077 -0.4364 -0.4626
  725MOL0     C99958   2.817   6.632   8.793  0.3950  0.3806  0.2270
  725MOL0     C99959   2.688   6.591   8.751  0.2481  0.0111  0.3764
  725MOL0     O99960   2.530   6.359   8.637 -0.7258  0.3548 -0.3627
  725MOL0     C99961   2.210   6.421   8.744  0.6569 -0.1038  0.1190
  725MOL0     C99962   2.078   6.413   8.700 -0.6503 -0.2272  0.1426
  725MOL0     N99963   1.494   6.371   8.055  0.3254 -0.4108  1.9514
  725MOL0     N99964   1.403   6.464   8.036  0.1767  1.0608  0.7356
  725MOL0     C99965   0.187   6.046   8.303 -1.2975 -0.8350 -0.5888
  725MOL0     C99966   0.087   5.950   8.299  0.0264  0.3596 -0.1507
  725MOL0     C99967  -0.090   5.528   8.331  0.6116 -0.9681 -0.0195
  725MOL0     C99968  -0.218   5.554   8.362  0.0493  0.7229  0.2164
  725MOL0     C99969  -0.317   5.457   8.378 -0.4323 -0.1326  0.0768
  725MOL0     C99970  -0.288   5.317   8.356 -0.6181  0.0440  0.2570
  725MOL0     O99971  -0.373   5.211   8.355 -0.7589 -0.9577  0.3981
  725MOL0     C99972  -0.508   5.234   8.366 -0.1703 -0.4905 -0.3518
  725MOL0     C99973  -0.553   5.286   8.506 -0.1985 -0.2643 -1.3352
  725MOL0     C99974  -0.447   5.228   8.619 -0.5294 -0.9983 -0.7929
  725MOL0     C99975  -0.507   5.203   8.755 -0.0985  0.3596 -0.1701
  725MOL0     C99976  -0.395   5.179   8.852  0.5284  0.4411 -0.5881
  725MOL0     C99977  -0.312   5.128   8.932  0.1537 -0.6974 -0.2040
  725MOL0     C99978  -0.157   5.291   8.324  0.2531  0.2426 -0.3126
  725MOL0     C99979  -0.061   5.391   8.312 -0.5809 -0.9439 -0.5711
  725MOL0     C99980   0.077   5.328   8.293 -0.5792 -0.2388 -0.0544
  725MOL0     H99981   0.127   5.803   8.598  1.0047 -2.1786 -0.7138
  725MOL0     H99982   0.323   5.956   8.601  1.8144 -2.6907 -1.7589
  725MOL0     H99983   0.330   6.292   8.288 -1.2980 -1.6317  1.3928
  725MOL0     H99984   0.429   6.150   8.241  1.8283 -1.9932  1.2222
  725MOL0     H99985   0.539   6.385   8.258 -1.7377 -1.0292 -0.6559
  725MOL0     H99986   0.530   6.365   8.432  0.2984  2.0304 -1.0287
  725MOL0     H99987   0.668   6.192   8.448 -0.2340 -1.9836 -1.7961
  725MOL0     H99988   0.696   6.170   8.282 -1.8585 -0.6032  0.6883
  725MOL0     H99989   0.784   6.436   8.406 -1.7075  0.0055  0.6716
  725MOL0     H99990   0.886   6.293   8.396 -2.1310 -2.0704  1.4260
  725MOL0     H99991   0.776   6.415   8.133  1.5484  0.9916 -0.5162
  725MOL0     H99992   0.888   6.283   8.164  2.0350  0.7963  1.0170
  725MOL0     H99993   0.945   6.533   8.104  2.4119 -2.0659 -0.8031
  725MOL0     H99994   0.939   6.557   8.282  2.1754 -0.6094  0.9832
  725MOL0     H99995   1.104   6.349   8.133  1.2227  0.9370 -0.2274
  725MOL0     H99996   1.125   6.390   8.305  1.7072 -2.9082 -0.6178
  725MOL0     H99997   1.176   6.566   8.056  0.5614  1.2632  0.4587
  725MOL0     H99998   1.222   6.624   8.219  1.5284 -0.2794 -0.2520
  725MOL0     H99999   1.372   6.387   8.363  0.3254  0.5842 -0.1183
  725MOL0     H    0   1.567   6.124   8.172 -1.6759 -0.7783  1.4999
  725MOL0     H    1   1.527   6.159   8.331 -1.7189 -0.4509 -0.8997
  725MOL0     H    2   1.779   6.174   8.224 -0.8813 -0.9147  0.2494
  725MOL0     H    3   1.719   6.338   8.181  1.1715 -0.9155 -0.6429
  725MOL0     H    4   1.673   6.358   8.437  1.8423  1.4351  1.6044
  725MOL0     H    5   1.727   6.186   8.445  1.5947  0.4746  1.2479
  725MOL0     H    6   1.949   6.256   8.378 -1.6140 -0.1527 -1.0091
  725MOL0     H    7   1.891   6.419   8.339  1.4430 -0.2538 -1.2748
  725MOL0     H    8   2.124   6.383   8.366 -0.9840 -0.1378  0.5093
  725MOL0     H    9   2.456   6.458   8.397 -1.8754  1.3281  3.5469
  725MOL0     H   10   2.350   6.369   8.297  3.6210  5.3315 -2.2925
  725MOL0     H   11   2.431   6.277   8.429 -0.5425 -0.6882  1.0430
  725MOL0     H   12   2.575   6.473   9.047  0.2217 -0.3163  0.9733
  725MOL0     H   13   2.783   6.561   9.125 -0.2534 -1.5003 -0.6927
  725MOL0     H   14   3.081   6.733   8.829  0.2787 -1.9991 -0.0630
  725MOL0     H   15   2.990   6.863   8.910  0.9475 -0.4051 -2.4334
  725MOL0     H   16   3.198   6.907   8.979  2.0760 -1.1603 -1.2396
  725MOL0     H   17   3.111   6.848   9.111  0.3738  0.9055 -0.4425
  725MOL0     H   18   3.339   6.686   8.972  3.1080  0.9020  2.8713
  725MOL0     H   19   3.206   6.603   9.057  0.1183  0.0703  4.1192
  725MOL0     H   20   3.249   6.723   9.248 -0.6618  1.3036  0.4181
  725MOL0     H   21   3.324   6.854   9.185 -1.7208 -0.2141  0.3635
  725MOL0     H   22   3.452   6.584   9.188 -0.4480  1.0027 -1.8183
  725MOL0     H   23   3.529   6.719   9.114  2.4743  0.0033  2.0272
  725MOL0     H   24   3.453   6.694   9.408  2.7684  0.3066  1.8501
  725MOL0     H   25   3.520   6.848   9.343  2.3878  0.0274  2.2080
  725MOL0     H   26   3.723   6.727   9.274 -1.2295 -0.3887 -0.7506
  725MOL0     H   27   3.654   6.586   9.349  0.9528  0.5161 -2.5969
  725MOL0     H   28   3.687   6.845   9.503  3.2099  1.2442 -1.2068
  725MOL0     H   29   3.824   6.740   9.486 -0.2514 -0.3636  0.2101
  725MOL0     H   30   2.895   6.668   8.726  0.0366 -0.6795 -0.8098
  725MOL0     H   31   2.661   6.610   8.647 -0.8624 -0.1832  0.6235
  725MOL0     H   32   2.232   6.443   8.848  1.5713 -2.8491  0.5725
  725MOL0     H   33   1.994   6.415   8.770 -2.1706 -1.2627 -1.5533
  725MOL0     H   34   0.194   6.110   8.215 -0.8452  1.1157  0.7951
  725MOL0     H   35   0.015   5.945   8.218  0.1959  2.7180 -0.5040
  725MOL0     H   36  -0.245   5.657   8.382  2.0781  2.2520 -3.8306
  725MOL0     H   37  -0.417   5.493   8.403  0.0912  0.9891  0.6590
  725MOL0     H   38  -0.537   5.292   8.279  1.9573  0.8844 -0.2263
  725MOL0     H   39  -0.560   5.139   8.348 -0.2638 -0.0384 -2.7805
  725MOL0     H   40  -0.654   5.248   8.527  0.4484 -1.1892  0.3157
  725MOL0     H   41  -0.554   5.395   8.509 -0.6313 -0.2178 -2.6851
  725MOL0     H   42  -0.411   5.129   8.589  0.0115 -0.6326 -1.3727
  725MOL0     H   43  -0.358   5.292   8.622 -0.8088 -0.5932 -1.0457
  725MOL0     H   44  -0.568   5.113   8.750 -1.2050  0.8699  2.5965
  725MOL0     H   45  -0.569   5.289   8.782  0.2717  0.3664  0.7116
  725MOL0     H   46  -0.238   5.090   9.000 -1.4237 -0.3111  1.8610
  725MOL0     H   47  -0.135   5.185   8.322  0.3438  0.2264 -2.9617
  725MOL0     H   48   0.151   5.389   8.346 -0.7721 -0.8204  0.9156
  725MOL0     H   49   0.087   5.223   8.322 -2.2741 -0.4862 -0.2611
  725MOL0     H   50   0.109   5.332   8.189 -1.7814  2.5755 -0.4085
  726MOL0     O   51   0.833   9.562   8.341  0.0591 -1.1053 -0.5025
  726MOL0     C   52   0.758   9.512   8.262  0.7707  0.3901  0.1809
  726MOL0     O   53   0.789   9.446   8.158 -0.7722  0.0476 -0.8901
  726MOL0     C   54   0.912   9.382   8.162 -0.7103  0.5511 -0.0215
  726MOL0     C   55   1.014   9.416   8.072 -0.0436 -0.1822  0.4820
  726MOL0     C   56   1.133   9.346   8.065 -0.3121 -0.2991 -0.3276
  726MOL0     C   57   1.164   9.246   8.155  1.1592  0.2850 -0.3821
  726MOL0     O   58   1.276   9.170   8.155 -0.0342  0.1530  0.4836
  726MOL0     C   59   1.354   9.152   8.031  0.7433  0.0079  0.4269
  726MOL0     C   60   1.455   9.037   8.061 -0.4705 -0.3838 -0.2668
  726MOL0     C   61   1.564   9.042   7.949  0.2776 -0.2563  0.3332
  726MOL0     C   62   1.674   8.937   7.959  0.7939  0.3380 -0.2049
  726MOL0     C   63   1.750   8.912   7.835 -0.3923 -0.1507 -1.1436
  726MOL0     C   64   1.853   9.027   7.821  0.0634  0.0626 -0.4508
  726MOL0     C   65   1.960   8.991   7.715 -0.0559 -0.6676 -0.1028
  726MOL0     C   66   2.050   8.869   7.758  0.4494  0.2621 -0.7555
  726MOL0     N   67   2.127   8.895   7.880 -0.6412 -0.4557  1.0217
  726MOL0     C   68   2.093   8.857   8.009  0.5047  0.4342  0.9716
  726MOL0     C   69   2.184   8.928   8.085 -0.2654  0.3639 -0.0146
  726MOL0     C   70   2.186   8.931   8.244 -0.6931  1.0408  0.6697
  726MOL0     C   71   2.294   8.827   8.306  0.6318 -0.0654  0.2346
  726MOL0     C   72   2.270   8.680   8.255 -0.7628 -0.6347  0.0445
  726MOL0     C   73   2.342   8.568   8.330  0.5848  0.0436 -0.3654
  726MOL0     O   74   2.471   8.605   8.366 -0.1489 -0.7962 -0.5561
  726MOL0     C   75   2.568   8.576   8.275  0.5850 -0.2789  0.4512
  726MOL0     C   76   2.545   8.527   8.144 -0.5552  0.8966 -0.8661
  726MOL0     C   77   2.657   8.478   8.064  0.8381 -0.3489  0.1523
  726MOL0     C   78   2.622   8.425   7.927  0.2950 -0.3651 -0.7039
  726MOL0     C   79   2.786   8.489   8.107 -0.1142 -0.5121  0.0959
  726MOL0     C   80   2.905   8.437   8.029 -0.1891 -0.0249 -0.1652
  726MOL0     O   81   3.026   8.479   8.061  0.0974  0.2295 -0.7358
  726MOL0     C   82   3.143   8.435   8.008 -0.3417 -0.0159  0.7453
  726MOL0     C   83   3.246   8.525   7.980 -0.5910 -0.3635  0.7545
  726MOL0     C   84   3.365   8.479   7.922  0.3884 -0.1117  0.1084
  726MOL0     C   85   3.388   8.349   7.891  0.3148  0.8733  0.1190
  726MOL0     O   86   3.511   8.304   7.859 -0.3081 -0.3612  0.5606
  726MOL0     C   87   3.571   8.364   7.748  0.7247 -0.2698 -0.0299
  726MOL0     C   88   3.703   8.304   7.715 -0.1097  0.3852 -0.8633
  726MOL0     C   89   3.683   8.177   7.632 -0.0088 -0.7814 -0.0097
  726MOL0     C   90   3.810   8.095   7.622  0.3569  0.3900  0.0986
  726MOL0     C   91   3.781   7.944   7.609 -0.2415 -0.6432 -0.2316
  726MOL0     C   92   3.714   7.883   7.736 -1.0509  0.5328 -0.5641
  726MOL0     C   93   3.739   7.725   7.730 -0.0101 -0.7744 -0.2950
  726MOL0     C   94   3.671   7.653   7.843 -0.9822 -0.2580  0.0968
  726MOL0    Cl   95   3.689   7.476   7.808 -0.2469  0.2599 -0.1104
  726MOL0     C   96   3.281   8.252   7.924 -0.5257 -0.6260 -0.2643
  726MOL0     C   97   3.163   8.297   7.974  0.5744  0.4868  0.6369
  726MOL0     O   98   2.883   8.342   7.956 -0.5027  0.5952  0.0337
  726MOL0     C   99   2.813   8.546   8.226 -0.4926  0.6170 -0.7069
  726MOL0     C  100   2.705   8.586   8.313 -0.8972  0.4108  0.0811
  726MOL0     N  101   2.268   9.002   8.003 -0.5000 -0.3897 -0.1082
  726MOL0     N  102   2.228   8.983   7.878 -0.0067  0.6020 -0.7523
  726MOL0     C  103   1.065   9.213   8.255 -0.2617 -0.5069  0.2553
  726MOL0     C  104   0.942   9.282   8.257 -0.2099 -0.1058  0.2760
  726MOL0     C  105   0.618   9.545   8.278  0.3416  0.4073 -0.3921
  726MOL0     C  106   0.584   9.666   8.349  0.2237 -0.2233  0.8017
  726MOL0     C  107   0.451   9.711   8.353  0.1413  0.1933  0.6075
  726MOL0     C  108   0.356   9.635   8.291  0.1034 -0.1969  0.1146
  726MOL0     O  109   0.233   9.694   8.299 -0.0032  0.5454  0.3157
  726MOL0     C  110   0.153   9.690   8.173 -0.4834  0.5709 -0.0184
  726MOL0     C  111   0.217   9.762   8.055  0.2726  0.1520  0.3152
  726MOL0     C  112   0.127   9.765   7.937 -0.4260  0.5210 -0.0586
  726MOL0     C  113   0.108   9.646   7.850 -0.1204 -0.3405 -0.1186
  726MOL0     C  114   0.227   9.572   7.827  0.6424 -0.2446 -0.1660
  726MOL0     C  115   0.333   9.521   7.822 -0.2227 -0.3462  0.2738
  726MOL0     C  116   0.386   9.520   8.215  0.4939 -0.2465 -0.1959
  726MOL0     C  117   0.517   9.471   8.206  0.3508 -0.5076 -0.0588
  726MOL0     C  118   0.528   9.324   8.152 -0.4570 -0.1521 -0.6910
  726MOL0     H  119   0.991   9.502   8.009 -1.4718 -0.6657  0.3028
  726MOL0     H  120   1.196   9.380   7.983 -1.3947  0.4588 -0.8754
  726MOL0     H  121   1.415   9.239   8.007 -0.2159  0.0917 -1.9709
  726MOL0     H  122   1.291   9.140   7.942 -1.5699 -0.3790  2.0305
  726MOL0     H  123   1.506   9.058   8.156  1.2031 -0.4963 -1.1065
  726MOL0     H  124   1.413   8.937   8.074  3.8503 -2.3056  0.7639
  726MOL0     H  125   1.510   9.033   7.855  1.1662  0.6706 -0.2878
  726MOL0     H  126   1.614   9.139   7.944  0.7587 -0.3740  2.2124
  726MOL0     H  127   1.742   8.960   8.041 -1.3126  1.3970  1.3499
  726MOL0     H  128   1.629   8.841   7.987  2.2735  0.0898  1.5137
  726MOL0     H  129   1.682   8.916   7.750  0.2783  0.2151 -1.6757
  726MOL0     H  130   1.797   8.813   7.837  1.7984  0.8115  0.6373
  726MOL0     H  131   1.794   9.117   7.802 -0.8144 -0.1159  1.2062
  726MOL0     H  132   1.903   9.051   7.915 -0.8578  1.2440 -0.2415
  726MOL0     H  133   2.013   9.082   7.684  1.9690 -1.7963 -0.1112
  726MOL0     H  134   1.904   8.954   7.629 -0.9500 -1.3347  0.7474
  726MOL0     H  135   1.986   8.783   7.779  1.0366 -0.2780 -1.1416
  726MOL0     H  136   2.117   8.850   7.673  1.0468  0.3672 -0.3215
  726MOL0     H  137   2.012   8.796   8.048  2.0837 -2.1053  0.5283
  726MOL0     H  138   2.085   8.904   8.273  0.4646 -2.7236  1.7967
  726MOL0     H  139   2.209   9.031   8.283  2.4835  0.6629  0.0793
  726MOL0     H  140   2.396   8.857   8.276  0.2798  0.2211 -0.7403
  726MOL0     H  141   2.292   8.834   8.415 -2.2735  2.9866  0.1345
  726MOL0     H  142   2.165   8.652   8.261 -0.9739 -0.0918 -0.8161
  726MOL0     H  143   2.297   8.682   8.149 -0.2843 -4.1769 -0.0005
  726MOL0     H  144   2.291   8.553   8.426  0.9716  3.2932  0.4711
  726MOL0     H  145   2.317   8.476   8.275 -3.5360 -1.8859  3.9510
  726MOL0     H  146   2.446   8.514   8.100 -1.9792  0.7267  2.1105
  726MOL0     H  147   2.524   8.459   7.893  0.7468  2.4429  0.5574
  726MOL0     H  148   2.620   8.316   7.933  1.2368 -0.4876 -2.1898
  726MOL0     H  149   2.698   8.450   7.853  1.6170  2.2021  1.3878
  726MOL0     H  150   3.250   8.632   7.999  1.7791  0.0124 -1.2781
  726MOL0     H  151   3.439   8.556   7.902  1.6117 -1.2687  0.0311
  726MOL0     H  152   3.508   8.355   7.658  0.8934 -0.9216 -0.0839
  726MOL0     H  153   3.581   8.473   7.751  1.5863 -0.2533 -1.9059
  726MOL0     H  154   3.758   8.369   7.646 -1.7890  0.1879 -2.4618
  726MOL0     H  155   3.760   8.293   7.808  0.3126  2.3292 -0.8444
  726MOL0     H  156   3.639   8.210   7.537 -2.4854 -2.3731  0.4913
  726MOL0     H  157   3.608   8.118   7.684 -2.2705  1.5827 -0.3931
  726MOL0     H  158   3.868   8.105   7.714 -1.3767  5.2826  0.9628
  726MOL0     H  159   3.863   8.120   7.529  0.4175  2.5562  0.6493
  726MOL0     H  160   3.719   7.933   7.519 -1.6876 -1.0588  0.7710
  726MOL0     H  161   3.877   7.892   7.606  0.3004  0.1152  1.9282
  726MOL0     H  162   3.607   7.904   7.731 -1.5015 -1.8482 -2.4975
  726MOL0     H  163   3.761   7.913   7.830  1.5272 -0.8655 -1.3092
  726MOL0     H  164   3.844   7.694   7.744 -0.7890 -2.9583  1.4396
  726MOL0     H  165   3.703   7.689   7.633 -0.5196 -0.2539 -0.2990
  726MOL0     H  166   3.568   7.689   7.847 -0.7677  0.3897 -0.0524
  726MOL0     H  167   3.720   7.681   7.937 -0.0783  0.8825 -0.6791
  726MOL0     H  168   3.305   8.146   7.923  3.4627  0.1004 -1.6526
  726MOL0     H  169   3.085   8.225   7.994 -0.9229  1.7847 -0.3110
  726MOL0     H  170   2.913   8.556   8.266 -1.0440 -1.7703  1.4862
  726MOL0     H  171   2.743   8.625   8.407 -1.1912  0.4333  0.1905
  726MOL0     H  172   1.079   9.141   8.336 -2.9910  0.5053  1.7401
  726MOL0     H  173   0.865   9.259   8.331 -0.6468  1.0450  0.1972
  726MOL0     H  174   0.663   9.719   8.401 -0.2579  1.7471 -0.4020
  726MOL0     H  175   0.419   9.807   8.393 -1.0722 -0.7745  2.0135
  726MOL0     H  176   0.122   9.587   8.151 -3.6852  1.8120 -2.0399
  726MOL0     H  177   0.062   9.743   8.202  0.0655  1.6196 -0.1779
  726MOL0     H  178   0.310   9.705   8.044 -0.6632 -1.2283 -0.8419
  726MOL0     H  179   0.249   9.864   8.078  2.2752 -0.0456 -1.2939
  726MOL0     H  180   0.035   9.811   7.975  1.0673  2.1855  1.7867
  726MOL0     H  181   0.168   9.830   7.859 -0.5451 -1.5210 -1.9067
  726MOL0     H  182   0.078   9.688   7.754  1.4383  0.7979 -0.1534
  726MOL0     H  183   0.030   9.579   7.887 -2.1517  2.0992  0.2682
  726MOL0     H  184   0.428   9.474   7.810 -0.7603 -1.6654  0.9804
  726MOL0     H  185   0.316   9.452   8.167 -0.1165 -1.2009  1.9240
  726MOL0     H  186   0.628   9.280   8.164  0.4749  1.7136 -1.2924
  726MOL0     H  187   0.456   9.257   8.200 -0.8427  0.9092  0.2346
  726MOL0     H  188   0.508   9.326   8.045 -1.4837  0.9038 -0.4928
  727MOL0     O  189   0.906   0.645  10.036 -0.3523 -0.3517  0.1290
  727MOL0     C  190   0.869   0.598   9.929 -0.5905  0.8912  0.0109
  727MOL0     O  191   0.962   0.570   9.828 -0.5495 -0.1394  0.0359
  727MOL0     C  192   1.096   0.574   9.852 -0.3768 -0.0562  0.2423
  727MOL0     C  193   1.192   0.621   9.753  0.1983 -0.1961  0.1894
  727MOL0     C  194   1.330   0.623   9.771  0.6911  0.5644 -0.2202
  727MOL0     C  195   1.381   0.575   9.884  0.7333 -0.6904  0.3513
  727MOL0     O  196   1.515   0.597   9.900  0.0500 -0.1431  0.4231
  727MOL0     C  197   1.567   0.581  10.031 -0.3952  0.9281 -0.3200
  727MOL0     C  198   1.720   0.586  10.017 -0.5056 -0.1761 -0.1434
  727MOL0     C  199   1.770   0.717   9.949  0.2670 -1.1353  0.4613
  727MOL0     C  200   1.922   0.731   9.952 -1.1038  0.0591 -0.2158
  727MOL0     C  201   1.980   0.632   9.851 -0.1695  0.1559  0.7957
  727MOL0     C  202   2.133   0.665   9.821 -0.2066 -0.6235 -0.1443
  727MOL0     C  203   2.196   0.550   9.754 -0.0871  0.4233 -0.4055
  727MOL0     C  204   2.349   0.570   9.732 -0.0860 -0.0210 -0.5543
  727MOL0     N  205   2.431   0.616   9.845  0.3577 -0.0842  0.7637
  727MOL0     C  206   2.463   0.548   9.958 -0.4907 -0.1428 -0.3466
  727MOL0     C  207   2.524   0.629  10.041 -0.0087 -0.5363  0.6100
  727MOL0     C  208   2.580   0.595  10.182  0.2547 -0.3337  0.3565
  727MOL0     C  209   2.720   0.538  10.172 -0.4445 -0.1082  0.3131
  727MOL0     C  210   2.726   0.392  10.127  0.0455  0.7782 -0.3803
  727MOL0     C  211   2.870   0.332  10.160  0.4216  0.0497  0.0748
  727MOL0     O  212   2.970   0.413  10.105  0.1625 -0.5857  0.6818
  727MOL0     C  213   3.097   0.395  10.147  0.6089  0.6543 -0.6781
  727MOL0     C  214   3.138   0.276  10.214  0.4988  0.1066  0.6978
  727MOL0     C  215   3.269   0.259  10.259 -0.0284 -0.4437 -0.1876
  727MOL0     C  216   3.301   0.130  10.326  0.3662 -0.9840  0.1200
  727MOL0     C  217   3.369   0.358  10.227  0.8401 -1.0360 -0.0890
  727MOL0     C  218   3.509   0.349  10.263 -0.0642 -0.8171 -0.7078
  727MOL0     O  219   3.582   0.467  10.245 -0.3119 -0.0782 -1.1724
  727MOL0     C  220   3.710   0.475  10.284  0.0324  0.5293  0.1025
  727MOL0     C  221   3.760   0.431  10.403 -0.9215  0.4393 -0.1108
  727MOL0     C  222   3.901   0.438  10.418 -0.3516 -0.1519  0.3449
  727MOL0     C  223   3.988   0.512  10.335 -0.1320  0.0168 -0.5039
  727MOL0     O  224   4.122   0.505  10.375  0.6752  0.2739 -0.5020
  727MOL0     C  225   4.212   0.595  10.312 -0.9230  0.2384  0.4357
  727MOL0     C  226   4.303   0.658  10.416  0.4884  0.5501  1.2852
  727MOL0     C  227   4.380   0.544  10.482 -0.5122 -0.4615 -0.0953
  727MOL0     C  228   4.497   0.601  10.552  0.4922  0.1529 -0.4943
  727MOL0     C  229   4.565   0.506  10.656 -0.3564 -0.2155  0.2900
  727MOL0     C  230   4.647   0.400  10.584  0.2447 -0.6110  0.4237
  727MOL0     C  231   4.739   0.331  10.679 -0.6111  0.3981 -0.2984
  727MOL0     C  232   4.679   0.247  10.788 -0.3482  0.2535 -0.0459
  727MOL0    Cl  233   4.811   0.176  10.880  0.0366  0.0048 -0.1836
  727MOL0     C  234   3.932   0.569  10.224 -0.5940  0.4287 -0.0300
  727MOL0     C  235   3.798   0.544  10.193  0.5130 -0.1601 -1.0733
  727MOL0     O  236   3.560   0.244  10.304  0.1424 -0.2686 -0.3972
  727MOL0     C  237   3.311   0.479  10.178 -0.7766 -0.6121  0.3125
  727MOL0     C  238   3.190   0.494  10.116  0.0872  0.8493 -0.4722
  727MOL0     N  239   2.539   0.755   9.978 -0.1744  0.2804  0.4623
  727MOL0     N  240   2.475   0.743   9.864  0.4160  0.2504 -0.3070
  727MOL0     C  241   1.296   0.532   9.989  0.8178 -0.0082 -0.3305
  727MOL0     C  242   1.156   0.530   9.971 -0.0177  1.3159 -0.1960
  727MOL0     C  243   0.721   0.602   9.887  0.1081 -0.9226 -0.0781
  727MOL0     C  244   0.692   0.605   9.748  0.5883 -0.4549 -0.3131
  727MOL0     C  245   0.566   0.631   9.700  0.4053  0.4924 -0.0734
  727MOL0     C  246   0.463   0.662   9.789  0.3436  0.0874  0.8435
  727MOL0     O  247   0.333   0.698   9.765 -0.4623 -0.1670 -0.4695
  727MOL0     C  248   0.296   0.730   9.634 -0.5510  0.2428  0.4347
  727MOL0     C  249   0.151   0.777   9.631  0.0314  0.3095  0.2668
  727MOL0     C  250   0.110   0.906   9.713  0.2100 -0.0021  0.6254
  727MOL0     C  251   0.118   1.037   9.635 -0.0845 -0.1244 -0.1775
  727MOL0     C  252   0.011   1.056   9.538 -0.1761  0.8050 -0.0140
  727MOL0     C  253  -0.086   1.078   9.473 -1.5952 -0.3353 -0.1592
  727MOL0     C  254   0.488   0.654   9.931  0.0145  0.5479  0.1221
  727MOL0     C  255   0.619   0.631   9.972 -0.4241 -0.0418  0.8767
  727MOL0     C  256   0.640   0.633  10.114  0.1038  0.2030 -0.4740
  727MOL0     H  257   1.140   0.651   9.662 -3.7814 -3.4808  1.0824
  727MOL0     H  258   1.402   0.671   9.705  0.7557  1.0596  0.2012
  727MOL0     H  259   1.550   0.478  10.064 -0.0932  0.6190 -1.1074
  727MOL0     H  260   1.529   0.647  10.110  2.7001 -0.5035  2.6476
  727MOL0     H  261   1.770   0.566  10.113 -1.6484  0.2424  0.5542
  727MOL0     H  262   1.753   0.498   9.961  1.5283  0.0791  0.5388
  727MOL0     H  263   1.734   0.740   9.848 -0.5732  0.0585  1.0095
  727MOL0     H  264   1.729   0.803  10.002 -2.6189  0.7122 -4.1201
  727MOL0     H  265   1.950   0.834   9.931 -0.5468  0.6079  2.7810
  727MOL0     H  266   1.951   0.708  10.054 -0.4922  0.0901 -0.3793
  727MOL0     H  267   1.922   0.650   9.760  0.0080  3.8326  1.2517
  727MOL0     H  268   1.966   0.528   9.883 -2.3180 -0.2506 -1.2279
  727MOL0     H  269   2.134   0.750   9.753 -0.5407 -0.0123  0.6041
  727MOL0     H  270   2.181   0.701   9.912  2.3839 -3.0423 -0.4133
  727MOL0     H  271   2.141   0.513   9.667 -3.6858  0.3235  1.7244
  727MOL0     H  272   2.193   0.465   9.823  1.6422  0.0329 -0.7494
  727MOL0     H  273   2.382   0.472   9.695 -0.7136 -0.3019 -0.3937
  727MOL0     H  274   2.366   0.638   9.648  1.7009  0.7704  0.3967
  727MOL0     H  275   2.428   0.446   9.971 -1.1441  0.1819  0.5428
  727MOL0     H  276   2.510   0.527  10.233 -0.9742  0.8496  0.3033
  727MOL0     H  277   2.588   0.690  10.236 -1.5370  0.9123 -1.4297
  727MOL0     H  278   2.786   0.603  10.113  0.1725  0.7923  1.9304
  727MOL0     H  279   2.771   0.545  10.268  2.0574  2.1569 -1.0235
  727MOL0     H  280   2.649   0.338  10.182  2.1508 -0.1814  1.8267
  727MOL0     H  281   2.701   0.379  10.021  1.4099  1.6239 -0.8379
  727MOL0     H  282   2.881   0.301  10.264  1.0219  1.7443  0.5415
  727MOL0     H  283   2.882   0.232  10.117  1.3565  0.3959 -0.5030
  727MOL0     H  284   3.067   0.194  10.220 -0.3427  0.6824 -0.8450
  727MOL0     H  285   3.331   0.160  10.426  0.5041 -1.6200  0.2729
  727MOL0     H  286   3.377   0.080  10.265 -1.2680 -1.9054 -1.2717
  727MOL0     H  287   3.213   0.069  10.349 -2.1407  3.1658  2.8243
  727MOL0     H  288   3.693   0.381  10.472  0.5662 -0.4520  0.7537
  727MOL0     H  289   3.955   0.389  10.499 -1.7803  0.0135  1.4240
  727MOL0     H  290   4.277   0.543  10.242 -3.5444 -1.2748 -1.0488
  727MOL0     H  291   4.164   0.664  10.242 -1.3912 -2.5361 -2.1877
  727MOL0     H  292   4.372   0.721  10.360 -0.1435 -1.4826 -2.0459
  727MOL0     H  293   4.251   0.721  10.489  2.3352  2.9585  0.6232
  727MOL0     H  294   4.408   0.456  10.424  0.5546 -1.3750  1.7150
  727MOL0     H  295   4.317   0.501  10.560 -0.7951 -1.5851 -0.9167
  727MOL0     H  296   4.473   0.683  10.620 -1.9991 -0.9039  0.0146
  727MOL0     H  297   4.573   0.630  10.479  1.4607 -1.6878 -0.2725
  727MOL0     H  298   4.623   0.576  10.717 -0.1522 -1.7414  1.9196
  727MOL0     H  299   4.495   0.460  10.727  0.7554 -0.5338  1.2121
  727MOL0     H  300   4.708   0.438  10.502 -0.5216  0.3799  0.2987
  727MOL0     H  301   4.576   0.323  10.552  1.4389 -0.9054 -1.7327
  727MOL0     H  302   4.792   0.407  10.739 -0.9504  1.1505 -0.9377
  727MOL0     H  303   4.818   0.275  10.629  0.4071  1.5292 -0.0223
  727MOL0     H  304   4.616   0.178  10.730  0.0679 -1.2601  1.2473
  727MOL0     H  305   4.619   0.309  10.854 -0.2617 -2.1190  2.4220
  727MOL0     H  306   3.983   0.632  10.152 -2.4672  2.0923  0.0089
  727MOL0     H  307   3.768   0.585  10.096  0.9360 -1.0954 -1.6101
  727MOL0     H  308   3.368   0.570  10.156 -1.1399 -0.8609 -1.9605
  727MOL0     H  309   3.160   0.572  10.046 -0.6224  1.0554  0.0533
  727MOL0     H  310   1.327   0.498  10.088  0.6285 -0.4421 -0.4193
  727MOL0     H  311   1.105   0.491  10.058  1.7384 -0.5842  0.0769
  727MOL0     H  312   0.766   0.576   9.673  1.6929  0.1893  0.4960
  727MOL0     H  313   0.546   0.622   9.594  0.8188  2.8586 -0.4179
  727MOL0     H  314   0.358   0.818   9.612 -2.7264  1.9131  0.6731
  727MOL0     H  315   0.334   0.656   9.564 -0.3320 -1.5522  2.3401
  727MOL0     H  316   0.104   0.689   9.676  1.7265 -1.2980 -0.9156
  727MOL0     H  317   0.124   0.797   9.527  3.0164  0.1749 -0.6381
  727MOL0     H  318   0.007   0.887   9.745 -0.8170 -0.5830 -2.6269
  727MOL0     H  319   0.173   0.908   9.802 -0.2244 -3.2742  1.1485
  727MOL0     H  320   0.217   1.038   9.589 -0.5523 -0.6996 -1.2532
  727MOL0     H  321   0.111   1.119   9.707 -0.7446  0.9075 -1.3674
  727MOL0     H  322  -0.168   1.088   9.404 -2.5447 -1.3526  0.7844
  727MOL0     H  323   0.410   0.671  10.004  2.1438 -0.5800  2.8054
  727MOL0     H  324   0.541   0.625  10.159 -0.9995  1.6807 -2.4636
  727MOL0     H  325   0.716   0.564  10.152 -1.4198 -1.3943 -0.2281
  727MOL0     H  326   0.683   0.724  10.157  0.9153 -0.2193 -0.3737
  728MOL0     O  327   7.658   1.828   6.502  0.3426  0.9216  0.5549
  728MOL0     C  328   7.585   1.753   6.565  0.3916 -0.2527 -0.2865
  728MOL0     O  329   7.446   1.758   6.550 -0.5102 -0.3060  0.6423
  728MOL0     C  330   7.393   1.807   6.439 -0.9168  0.1966  0.6189
  728MOL0     C  331   7.276   1.882   6.447 -0.4801 -0.2517  0.1080
  728MOL0     C  332   7.206   1.925   6.329  0.7685  0.0327 -0.9533
  728MOL0     C  333   7.241   1.867   6.210 -0.0430  0.4916 -0.3979
  728MOL0     O  334   7.161   1.889   6.099 -0.0803 -0.5063  0.4706
  728MOL0     C  335   7.060   1.990   6.085  0.1524 -0.3805  0.1429
  728MOL0     C  336   7.073   2.058   5.952 -0.3660 -1.0211 -0.0187
  728MOL0     C  337   6.989   2.188   5.922  0.1473  0.0513  0.0764
  728MOL0     C  338   6.843   2.156   5.946  0.3086 -0.1107 -0.1378
  728MOL0     C  339   6.732   2.249   5.889 -0.7116  1.6767 -0.0589
  728MOL0     C  340   6.734   2.223   5.736  0.5259  0.2864  0.4072
  728MOL0     C  341   6.657   2.089   5.703  0.1253 -0.3344  0.0644
  728MOL0     C  342   6.601   2.081   5.554 -0.0462 -0.0800 -0.8632
  728MOL0     N  343   6.708   2.080   5.461  0.3732 -0.0090 -0.0407
  728MOL0     C  344   6.796   1.971   5.446  0.2415  0.3881  0.3245
  728MOL0     C  345   6.885   2.013   5.350  0.1844 -0.7435 -0.1968
  728MOL0     C  346   6.998   1.929   5.304 -0.1367  0.5128 -0.0450
  728MOL0     C  347   7.131   2.005   5.327 -0.0668 -0.5682  0.3087
  728MOL0     C  348   7.142   2.028   5.478 -0.3744  0.6107  0.7021
  728MOL0     C  349   7.276   2.088   5.516 -0.1985 -0.3912  0.8372
  728MOL0     O  350   7.382   2.023   5.448 -1.1539 -0.6272 -0.2994
  728MOL0     C  351   7.513   2.044   5.478 -0.4741 -0.1157 -0.1522
  728MOL0     C  352   7.602   1.957   5.410  0.0810 -0.4919 -0.1181
  728MOL0     C  353   7.743   1.973   5.411 -1.1088  0.5405 -0.3532
  728MOL0     C  354   7.830   1.893   5.316  0.4101 -0.2509 -0.4186
  728MOL0     C  355   7.794   2.077   5.499  0.0306 -0.0145 -0.3650
  728MOL0     C  356   7.939   2.108   5.510  0.4667  0.2355  0.0799
  728MOL0     O  357   8.027   2.012   5.482 -0.2171  0.2252  0.5083
  728MOL0     C  358   8.152   2.006   5.534 -0.0276 -0.6386 -0.0123
  728MOL0     C  359   8.204   2.089   5.640  0.7382  0.1070  1.4334
  728MOL0     C  360   8.336   2.076   5.683 -0.5144  0.2587  0.1743
  728MOL0     C  361   8.427   2.005   5.607 -1.1760  1.3369 -0.3896
  728MOL0     O  362   8.562   1.994   5.641  0.3352  0.0670 -0.8449
  728MOL0     C  363   8.614   2.051   5.759 -0.0928  0.7205  0.5346
  728MOL0     C  364   8.765   2.038   5.746  0.0795 -0.6414 -0.2928
  728MOL0     C  365   8.826   2.082   5.612 -0.6520 -0.6196  1.1906
  728MOL0     C  366   8.978   2.063   5.608  0.8325  0.4675  0.8618
  728MOL0     C  367   9.011   1.916   5.574  0.1624  0.8827  0.1915
  728MOL0     C  368   9.154   1.861   5.578 -1.0124 -0.5818 -0.7063
  728MOL0     C  369   9.263   1.945   5.522  0.1291 -0.4470 -0.5289
  728MOL0     C  370   9.335   1.865   5.405 -0.4010 -0.1360  0.6097
  728MOL0    Cl  371   9.419   1.722   5.473  0.6970  0.3328  0.2978
  728MOL0     C  372   8.381   1.924   5.501  0.4817 -0.2637  0.5658
  728MOL0     C  373   8.245   1.929   5.465 -0.2555  0.1072 -0.4778
  728MOL0     O  374   7.970   2.228   5.531 -0.6265  0.4874  0.1991
  728MOL0     C  375   7.718   2.151   5.581  0.1879 -0.7374  0.6611
  728MOL0     C  376   7.581   2.138   5.572  0.9041 -0.1793  0.5767
  728MOL0     N  377   6.842   2.140   5.300 -0.8577 -0.6272 -0.1901
  728MOL0     N  378   6.736   2.177   5.366  0.3530 -0.4839 -0.6251
  728MOL0     C  379   7.367   1.797   6.197 -0.2172 -0.5400 -0.1429
  728MOL0     C  380   7.444   1.769   6.311  0.4836  0.1747 -0.4120
  728MOL0     C  381   7.640   1.663   6.673 -0.5789  0.2219 -0.3970
  728MOL0     C  382   7.553   1.567   6.727 -0.3792 -0.2620 -0.6819
  728MOL0     C  383   7.592   1.473   6.815 -0.1047  0.2313  0.2156
  728MOL0     C  384   7.727   1.464   6.851  0.6557 -0.4765 -0.8566
  728MOL0     O  385   7.767   1.374   6.944  0.0913  0.3755 -0.2561
  728MOL0     C  386   7.739   1.234   6.916 -0.8894  0.0737  0.1752
  728MOL0     C  387   7.850   1.176   6.824  0.1087  0.0758  0.2926
  728MOL0     C  388   7.820   1.028   6.782  0.3132  0.6273  0.1006
  728MOL0     C  389   7.897   0.988   6.659  0.6107  0.3241  0.3993
  728MOL0     C  390   7.842   1.039   6.532 -0.3644 -0.4755 -0.8441
  728MOL0     C  391   7.787   1.094   6.442 -0.8323 -0.5322 -0.4219
  728MOL0     C  392   7.821   1.553   6.802  0.3385  0.5087 -0.2088
  728MOL0     C  393   7.777   1.657   6.712 -0.6925  0.0522  0.3888
  728MOL0     C  394   7.877   1.759   6.659  0.7653  0.4036  0.0718
  728MOL0     H  395   7.252   1.911   6.549 -1.4766 -0.0115 -0.1835
  728MOL0     H  396   7.115   1.984   6.329  1.0028  0.3941 -0.9028
  728MOL0     H  397   7.069   2.071   6.158  1.0893 -0.2967 -0.0487
  728MOL0     H  398   6.961   1.946   6.094  0.1060 -0.2945  0.0595
  728MOL0     H  399   7.177   2.089   5.940 -1.2476  1.8516 -0.9709
  728MOL0     H  400   7.050   1.984   5.875 -0.2104  0.4929 -1.5888
  728MOL0     H  401   7.021   2.276   5.979 -0.8813 -1.0656  2.4866
  728MOL0     H  402   7.018   2.214   5.819  0.6370  2.2703  0.7222
  728MOL0     H  403   6.817   2.056   5.911 -1.2349  0.6950 -1.4161
  728MOL0     H  404   6.837   2.172   6.055  1.5816 -2.3452  0.3191
  728MOL0     H  405   6.746   2.356   5.906  1.6146  1.1928  1.4537
  728MOL0     H  406   6.633   2.222   5.926  0.4762 -1.0157  1.3958
  728MOL0     H  407   6.683   2.308   5.689 -3.2593 -1.1496  1.5219
  728MOL0     H  408   6.834   2.202   5.698  0.2440 -1.8572  0.7310
  728MOL0     H  409   6.568   2.089   5.767 -0.6302 -1.4168 -0.9600
  728MOL0     H  410   6.720   2.003   5.727  0.6797  0.1177  0.2530
  728MOL0     H  411   6.537   1.994   5.535  2.1909 -2.2014  0.7679
  728MOL0     H  412   6.532   2.166   5.548 -0.5233 -0.3371  0.6395
  728MOL0     H  413   6.792   1.871   5.486  1.7354 -0.1248 -0.7292
  728MOL0     H  414   6.969   1.894   5.204 -2.5449 -1.1992  1.1157
  728MOL0     H  415   6.989   1.842   5.371 -1.7110  0.0331 -0.8161
  728MOL0     H  416   7.216   1.952   5.283  0.0997 -2.6816  2.9153
  728MOL0     H  417   7.119   2.103   5.280 -0.9720 -0.6696  0.3201
  728MOL0     H  418   7.069   2.101   5.514  0.0312  0.1404  2.5608
  728MOL0     H  419   7.114   1.941   5.539 -1.2587  0.0948 -0.3973
  728MOL0     H  420   7.282   2.192   5.483 -0.6287  0.3176  2.8186
  728MOL0     H  421   7.284   2.075   5.625 -0.8880  0.1888  0.9612
  728MOL0     H  422   7.558   1.874   5.355  0.2993 -0.9177  0.3405
  728MOL0     H  423   7.898   1.961   5.263  1.2747  0.0677  1.0407
  728MOL0     H  424   7.767   1.847   5.239  1.1103  0.2158 -1.2984
  728MOL0     H  425   7.882   1.814   5.371 -0.4681 -1.2255 -0.9538
  728MOL0     H  426   8.138   2.158   5.690  0.5835  1.2595 -0.2741
  728MOL0     H  427   8.360   2.151   5.757 -0.2893  1.5126 -1.1179
  728MOL0     H  428   8.583   2.156   5.758 -2.1030  0.1991  1.7779
  728MOL0     H  429   8.565   2.006   5.846 -1.5555 -0.4347 -0.8283
  728MOL0     H  430   8.807   2.107   5.820  0.2870 -1.2365  0.1572
  728MOL0     H  431   8.792   1.937   5.778 -0.4953 -0.8457 -0.4516
  728MOL0     H  432   8.811   2.190   5.610  0.5097 -0.4451 -1.3241
  728MOL0     H  433   8.787   2.024   5.528  1.0965  0.0723 -0.1627
  728MOL0     H  434   9.015   2.098   5.705 -1.4198  1.3040  1.5064
  728MOL0     H  435   9.022   2.126   5.530 -1.1657 -0.2122 -0.9100
  728MOL0     H  436   8.958   1.856   5.648  1.7890  0.0216  0.7215
  728MOL0     H  437   8.972   1.891   5.475  1.5870 -0.2981 -0.1069
  728MOL0     H  438   9.158   1.758   5.542  3.1701 -1.6101  1.8464
  728MOL0     H  439   9.182   1.851   5.684  1.1571  1.4644 -1.0007
  728MOL0     H  440   9.342   1.962   5.595  1.0020 -0.2618 -1.4891
  728MOL0     H  441   9.222   2.038   5.481  1.8886 -1.0155 -3.9407
  728MOL0     H  442   9.409   1.933   5.362 -0.6294 -0.8658 -1.0334
  728MOL0     H  443   9.267   1.826   5.328  1.7188  0.0611 -1.4983
  728MOL0     H  444   8.457   1.881   5.437 -0.1601 -0.3361 -0.1511
  728MOL0     H  445   8.207   1.862   5.389  0.3824  1.1849 -1.8016
  728MOL0     H  446   7.761   2.235   5.635  1.9771 -0.8637 -0.4909
  728MOL0     H  447   7.511   2.199   5.627  1.1424  1.3822 -0.7605
  728MOL0     H  448   7.402   1.760   6.101  1.6875 -0.3011  0.4282
  728MOL0     H  449   7.525   1.697   6.301  0.9656  0.8500 -1.5322
  728MOL0     H  450   7.447   1.566   6.703 -0.7596 -2.4693  0.8228
  728MOL0     H  451   7.523   1.403   6.862 -0.7816  1.6315  1.3874
  728MOL0     H  452   7.735   1.177   7.009 -3.4183 -0.1201  0.0117
  728MOL0     H  453   7.643   1.209   6.870 -0.4322 -2.5926  0.5504
  728MOL0     H  454   7.934   1.178   6.893 -0.1804  1.3097  0.6294
  728MOL0     H  455   7.862   1.237   6.733 -2.7237  3.9283  2.1962
  728MOL0     H  456   7.852   0.961   6.862  1.4609 -0.2530 -1.0521
  728MOL0     H  457   7.713   1.010   6.772 -0.2277  3.5749 -0.2079
  728MOL0     H  458   7.898   0.879   6.653  1.1628  0.1232  2.9139
  728MOL0     H  459   8.003   1.017   6.665  1.8213 -3.1855 -1.3308
  728MOL0     H  460   7.740   1.134   6.356 -0.2471  0.0685 -0.4703
  728MOL0     H  461   7.923   1.542   6.839 -1.4182 -1.5243  5.0208
  728MOL0     H  462   7.976   1.735   6.699  0.5733  0.2356  0.4504
  728MOL0     H  463   7.890   1.733   6.554 -0.8759 -2.2307  0.4031
  728MOL0     H  464   7.858   1.866   6.671  2.6464  0.7257  0.4253
  729MOL0     O  465   6.677   3.956   0.886 -0.4789 -0.4505  0.5623
  729MOL0     C  466   6.582   3.893   0.848 -0.1742 -0.1713  0.4666
  729MOL0     O  467   6.451   3.944   0.849 -0.6289  0.2296  0.0136
  729MOL0     C  468   6.426   4.050   0.941 -0.2801  0.2024  0.3962
  729MOL0     C  469   6.351   4.167   0.898 -0.5144  0.2419 -0.3595
  729MOL0     C  470   6.319   4.267   0.990  0.6949  1.0003  0.3511
  729MOL0     C  471   6.346   4.259   1.125  0.0138 -0.3305 -0.8672
  729MOL0     O  472   6.297   4.347   1.210 -0.0930 -0.0452  0.2679
  729MOL0     C  473   6.306   4.491   1.171 -0.1080 -0.6533  0.3728
  729MOL0     C  474   6.443   4.527   1.136  0.3571  0.0257 -0.4402
  729MOL0     C  475   6.545   4.507   1.255  0.1949 -0.3444 -0.2474
  729MOL0     C  476   6.685   4.551   1.190 -0.6815  0.3376 -0.0212
  729MOL0     C  477   6.790   4.592   1.300  1.0120  1.0228  0.1691
  729MOL0     C  478   6.940   4.595   1.259  0.0478 -0.7240 -0.3427
  729MOL0     C  479   7.024   4.619   1.387  0.4334 -0.2879  0.3807
  729MOL0     C  480   7.168   4.587   1.367 -0.9507 -0.0213 -0.6707
  729MOL0     N  481   7.247   4.615   1.484  0.0717  0.1365 -0.0433
  729MOL0     C  482   7.384   4.647   1.484 -0.3555  0.8508  0.1551
  729MOL0     C  483   7.415   4.660   1.619 -0.1798 -0.8754 -0.5774
  729MOL0     C  484   7.548   4.706   1.666  0.3901  0.3702 -0.2326
  729MOL0     C  485   7.584   4.652   1.807  0.5560  1.0424 -0.0093
  729MOL0     C  486   7.722   4.712   1.847 -0.2156  0.3945  0.0541
  729MOL0     C  487   7.738   4.715   1.996 -0.3555  0.0561 -0.1409
  729MOL0     O  488   7.744   4.584   2.042  0.1528 -0.5082  0.2423
  729MOL0     C  489   7.774   4.561   2.178 -0.4159  0.6607 -0.0990
  729MOL0     C  490   7.760   4.425   2.226  0.8301 -0.4517  0.9538
  729MOL0     C  491   7.771   4.394   2.357  0.6005 -0.2993 -0.3255
  729MOL0     C  492   7.751   4.259   2.408 -0.0775  0.4567 -0.1550
  729MOL0     C  493   7.801   4.505   2.452 -0.2534  1.0774  0.1134
  729MOL0     C  494   7.820   4.493   2.598 -0.4277  0.3701 -0.8929
  729MOL0     O  495   7.750   4.579   2.675 -0.1613  0.2368  0.7273
  729MOL0     C  496   7.797   4.605   2.805  0.0635  0.5586 -0.1117
  729MOL0     C  497   7.698   4.616   2.901  0.6003  0.0733 -0.6617
  729MOL0     C  498   7.723   4.651   3.032 -1.2557  1.0009 -0.6026
  729MOL0     C  499   7.855   4.667   3.072 -1.0387  0.7688  0.6609
  729MOL0     O  500   7.900   4.697   3.196  0.0844 -0.1529 -0.2728
  729MOL0     C  501   7.801   4.729   3.300  0.0680 -0.4299  0.5021
  729MOL0     C  502   7.751   4.880   3.298 -0.0354  0.1231 -0.2633
  729MOL0     C  503   7.866   4.964   3.340 -0.6084 -0.4319  0.3833
  729MOL0     C  504   7.825   5.104   3.377 -1.0385 -0.1596  0.1667
  729MOL0     C  505   7.776   5.135   3.519 -0.0870  0.6276  0.2158
  729MOL0     C  506   7.628   5.091   3.559 -0.0664  0.6752 -1.2738
  729MOL0     C  507   7.597   5.155   3.695 -0.1563 -0.7193  0.0223
  729MOL0     C  508   7.492   5.071   3.771  0.8085  0.8973  0.6202
  729MOL0    Cl  509   7.538   4.899   3.785  0.2588 -0.5091  0.1824
  729MOL0     C  510   7.958   4.646   2.978 -0.0524  0.8567 -0.7413
  729MOL0     C  511   7.926   4.626   2.842  0.6237  0.9667 -0.3303
  729MOL0     O  512   7.906   4.418   2.640  0.3497 -0.1239 -0.0472
  729MOL0     C  513   7.823   4.632   2.397 -0.1342  0.3061 -0.7408
  729MOL0     C  514   7.800   4.664   2.266 -0.3527  0.2595 -0.4649
  729MOL0     N  515   7.304   4.620   1.691  0.4945  0.2922 -0.1114
  729MOL0     N  516   7.204   4.598   1.611  0.5752 -0.5710 -0.9011
  729MOL0     C  517   6.414   4.142   1.171  0.0015 -0.5062  0.0403
  729MOL0     C  518   6.458   4.045   1.078 -0.5972  0.7432  0.5059
  729MOL0     C  519   6.602   3.774   0.766  0.2207  0.3463  0.8078
  729MOL0     C  520   6.491   3.731   0.689  0.0986  0.9299  0.3591
  729MOL0     C  521   6.498   3.620   0.600 -0.5497  0.1637  0.0562
  729MOL0     C  522   6.620   3.545   0.585  0.6389  0.3345 -0.1591
  729MOL0     O  523   6.626   3.432   0.495  0.4516 -0.5493 -0.2827
  729MOL0     C  524   6.745   3.363   0.477  0.8206 -0.3939 -0.3843
  729MOL0     C  525   6.708   3.264   0.375 -0.0134  0.1970 -0.3869
  729MOL0     C  526   6.823   3.174   0.342 -0.0622 -0.2171  0.2889
  729MOL0     C  527   6.857   3.083   0.454 -0.4058 -0.2821 -0.0428
  729MOL0     C  528   6.903   2.947   0.398  0.3594 -1.3355 -1.3622
  729MOL0     C  529   6.927   2.833   0.374  0.3826 -0.0673 -0.2991
  729MOL0     C  530   6.727   3.595   0.660  0.4995 -0.5967  0.3258
  729MOL0     C  531   6.716   3.697   0.753 -0.2403  0.0956  0.7783
  729MOL0     C  532   6.848   3.723   0.829  0.3857 -0.0015  0.2098
  729MOL0     H  533   6.314   4.171   0.796  0.3748  2.7241 -0.6592
  729MOL0     H  534   6.258   4.344   0.942 -0.5402 -0.5184 -0.6309
  729MOL0     H  535   6.281   4.556   1.255 -1.9689 -2.0089  0.9595
  729MOL0     H  536   6.239   4.510   1.086  1.2692 -1.2383 -0.8819
  729MOL0     H  537   6.473   4.476   1.044  1.1387 -0.0590 -0.1469
  729MOL0     H  538   6.434   4.634   1.117  0.8798 -0.3901 -3.5495
  729MOL0     H  539   6.521   4.583   1.330 -0.8011  0.8107 -1.6666
  729MOL0     H  540   6.526   4.413   1.308 -1.1419 -1.0625 -1.9003
  729MOL0     H  541   6.733   4.463   1.145 -1.6678 -0.3314  0.2053
  729MOL0     H  542   6.669   4.631   1.117  0.3897  2.0320  1.5079
  729MOL0     H  543   6.774   4.520   1.380 -1.7106 -0.5415 -1.6160
  729MOL0     H  544   6.760   4.691   1.335 -1.1760  1.1913 -1.8911
  729MOL0     H  545   6.970   4.498   1.217  1.0941 -1.3405  1.6976
  729MOL0     H  546   6.956   4.674   1.185 -4.6886  3.9660  2.9433
  729MOL0     H  547   6.982   4.556   1.466  0.2618 -1.7270 -0.7949
  729MOL0     H  548   7.016   4.724   1.415  1.1867  0.4505 -1.9246
  729MOL0     H  549   7.175   4.481   1.342 -3.0421 -0.7631  1.5045
  729MOL0     H  550   7.209   4.632   1.276 -0.8124 -1.4671 -1.3465
  729MOL0     H  551   7.444   4.675   1.398 -0.3187 -0.2512 -0.1954
  729MOL0     H  552   7.556   4.815   1.663  1.2568  0.2923 -1.3315
  729MOL0     H  553   7.624   4.668   1.597  1.7882  0.9751  0.9090
  729MOL0     H  554   7.504   4.677   1.877 -0.0752  3.1708 -1.4157
  729MOL0     H  555   7.590   4.542   1.803 -1.4186  0.9487 -2.5730
  729MOL0     H  556   7.801   4.652   1.801 -0.1613 -0.2282  0.9343
  729MOL0     H  557   7.728   4.813   1.804 -0.4268 -0.6843 -2.6695
  729MOL0     H  558   7.829   4.773   2.013 -0.8674  0.0216  3.3962
  729MOL0     H  559   7.657   4.763   2.051 -1.1756 -1.7319  0.2879
  729MOL0     H  560   7.741   4.343   2.158 -0.1986  0.1666  0.4603
  729MOL0     H  561   7.677   4.200   2.352  0.4042 -1.3313  1.0158
  729MOL0     H  562   7.713   4.270   2.509 -3.3513 -0.3289 -1.1887
  729MOL0     H  563   7.851   4.214   2.405 -1.3277 -2.8550  2.0341
  729MOL0     H  564   7.594   4.606   2.871  0.0116  0.6750  1.0565
  729MOL0     H  565   7.639   4.668   3.098  0.9144 -1.2718  3.1107
  729MOL0     H  566   7.710   4.672   3.280  0.0089  0.0578 -0.6992
  729MOL0     H  567   7.839   4.701   3.398  1.1716  1.4743  0.6558
  729MOL0     H  568   7.711   4.916   3.203  1.0802  0.9462 -0.4444
  729MOL0     H  569   7.679   4.907   3.376  0.3552 -0.3463  0.2632
  729MOL0     H  570   7.937   4.962   3.256  1.0920  0.2267  1.7402
  729MOL0     H  571   7.918   4.925   3.428  1.2651  0.5490 -0.2140
  729MOL0     H  572   7.751   5.142   3.306 -1.2338  0.4020  0.6610
  729MOL0     H  573   7.913   5.166   3.358 -1.0824 -0.5509 -1.4094
  729MOL0     H  574   7.851   5.094   3.588 -0.7710 -0.6762  0.2008
  729MOL0     H  575   7.783   5.244   3.513 -0.4412  0.5736 -1.4035
  729MOL0     H  576   7.625   4.982   3.567 -2.6431  0.8275  1.9187
  729MOL0     H  577   7.565   5.128   3.477 -1.8425  1.9020  0.5500
  729MOL0     H  578   7.570   5.261   3.689  1.6280 -0.2468 -0.3257
  729MOL0     H  579   7.690   5.149   3.752  0.0087 -2.0958 -0.3482
  729MOL0     H  580   7.393   5.085   3.727  1.0369 -4.2290 -2.2385
  729MOL0     H  581   7.496   5.118   3.870  0.3486  1.2297  0.4836
  729MOL0     H  582   8.060   4.660   3.013  0.1806 -0.6646 -0.7420
  729MOL0     H  583   8.001   4.628   2.764 -0.0848 -0.9019 -1.1290
  729MOL0     H  584   7.879   4.699   2.461  1.1903 -1.1954 -0.2663
  729MOL0     H  585   7.814   4.767   2.235 -0.0842  0.4413  0.2640
  729MOL0     H  586   6.427   4.139   1.279  2.1547 -0.3280 -0.1639
  729MOL0     H  587   6.515   3.959   1.108  1.9788  1.5111 -1.7395
  729MOL0     H  588   6.390   3.767   0.710 -0.7298 -0.8888 -0.2797
  729MOL0     H  589   6.415   3.576   0.545  1.0602 -2.3801 -0.5172
  729MOL0     H  590   6.830   3.419   0.439  0.7100 -0.0380 -0.1141
  729MOL0     H  591   6.783   3.303   0.560  0.4927 -0.1984 -0.0912
  729MOL0     H  592   6.673   3.314   0.284 -2.0457 -0.9209 -0.2677
  729MOL0     H  593   6.629   3.199   0.413 -0.4136 -0.0795 -1.6533
  729MOL0     H  594   6.789   3.117   0.255 -0.2570 -0.0360  0.2455
  729MOL0     H  595   6.907   3.237   0.312  1.3748 -2.9755 -2.0577
  729MOL0     H  596   6.775   3.072   0.527 -0.6533  0.4070 -0.2038
  729MOL0     H  597   6.937   3.133   0.510 -2.5973  1.7267  1.5190
  729MOL0     H  598   6.946   2.730   0.352 -0.9350 -0.3461 -0.2254
  729MOL0     H  599   6.822   3.544   0.645  0.9474  0.7274 -1.7026
  729MOL0     H  600   6.824   3.762   0.929  1.5519  2.5896 -0.4331
  729MOL0     H  601   6.911   3.634   0.828 -2.7718 -2.4053  0.6846
  729MOL0     H  602   6.890   3.806   0.771 -2.5461  2.0852  0.8583
  730MOL0     O  603   4.803   5.362   6.498  0.4430  0.4296 -0.0280
  730MOL0     C  604   4.749   5.255   6.479  0.3996  0.4347  0.1553
  730MOL0     O  605   4.756   5.184   6.363 -0.3509  0.3223  0.3060
  730MOL0     C  606   4.857   5.209   6.277  0.1989  0.5851 -0.2045
  730MOL0     C  607   4.992   5.209   6.323 -0.2358  0.8016  0.6852
  730MOL0     C  608   5.099   5.258   6.247  0.4379  0.3596  0.0612
  730MOL0     C  609   5.073   5.287   6.117  0.9323 -0.1016 -0.0514
  730MOL0     O  610   5.188   5.322   6.041  0.2642  1.0335 -0.7326
  730MOL0     C  611   5.168   5.372   5.909 -0.2844 -0.2418  0.4169
  730MOL0     C  612   5.297   5.435   5.860 -0.3535 -0.1234  0.2135
  730MOL0     C  613   5.406   5.334   5.824  0.4863  0.3781 -0.1399
  730MOL0     C  614   5.550   5.401   5.826  0.2403 -0.3747 -0.2202
  730MOL0     C  615   5.559   5.517   5.720  0.3973  0.7458  0.4559
  730MOL0     C  616   5.690   5.584   5.717 -0.3115  0.4814 -0.0911
  730MOL0     C  617   5.711   5.682   5.600  0.0695  0.2885  0.1409
  730MOL0     C  618   5.728   5.614   5.465 -0.1006  0.0961 -0.4334
  730MOL0     N  619   5.784   5.716   5.367 -0.3239  0.4444  0.0509
  730MOL0     C  620   5.824   5.840   5.382  0.7567  0.4919 -0.7303
  730MOL0     C  621   5.877   5.882   5.263 -0.1511 -0.1427 -0.3526
  730MOL0     C  622   5.945   6.011   5.247 -0.4464 -0.3759 -0.3029
  730MOL0     C  623   6.100   6.023   5.279  0.4047 -0.7076 -0.0280
  730MOL0     C  624   6.166   5.965   5.159  0.3785  0.1096 -0.2001
  730MOL0     C  625   6.318   5.943   5.185 -0.0104 -0.1999 -0.6680
  730MOL0     O  626   6.340   5.838   5.284 -0.9014  0.2502 -0.5611
  730MOL0     C  627   6.468   5.802   5.311 -0.2751 -0.4623 -0.8250
  730MOL0     C  628   6.580   5.865   5.263 -0.5078 -0.8793 -0.2825
  730MOL0     C  629   6.708   5.827   5.301 -0.0867  0.3939  0.6697
  730MOL0     C  630   6.823   5.892   5.227  0.2126  0.1727  0.2165
  730MOL0     C  631   6.728   5.714   5.382 -0.2494 -0.5703 -0.3198
  730MOL0     C  632   6.858   5.649   5.401  0.4473 -0.5674 -0.1472
  730MOL0     O  633   6.847   5.552   5.497  0.0005  0.3454  0.3371
  730MOL0     C  634   6.958   5.501   5.547 -0.1986 -0.1989  0.5907
  730MOL0     C  635   6.968   5.363   5.541  0.3932  0.6252  0.5127
  730MOL0     C  636   7.083   5.296   5.585 -0.0325  0.7300 -0.2376
  730MOL0     C  637   7.196   5.367   5.640  0.9614 -0.9883 -1.2261
  730MOL0     O  638   7.303   5.294   5.680 -0.7230 -0.4001 -0.2429
  730MOL0     C  639   7.430   5.342   5.650 -0.6977 -0.3401 -0.3770
  730MOL0     C  640   7.530   5.224   5.653  0.0892 -0.4274  0.1107
  730MOL0     C  641   7.680   5.247   5.617 -0.0139 -0.2768  0.6713
  730MOL0     C  642   7.743   5.352   5.706 -0.9632  0.1817  0.3216
  730MOL0     C  643   7.897   5.355   5.686  0.0400 -0.2475 -0.8989
  730MOL0     C  644   7.952   5.437   5.793 -0.9916  0.3510 -0.1007
  730MOL0     C  645   8.106   5.476   5.768 -0.1673 -0.2656  0.2931
  730MOL0     C  646   8.118   5.620   5.827  0.1686 -0.0906  1.0174
  730MOL0    Cl  647   8.289   5.644   5.878  0.0749  0.0161 -0.3504
  730MOL0     C  648   7.178   5.510   5.657 -0.0646 -0.8808 -0.3241
  730MOL0     C  649   7.063   5.575   5.609  0.3266 -0.1714  0.4274
  730MOL0     O  650   6.965   5.673   5.347  0.8807 -0.8161 -0.3478
  730MOL0     C  651   6.612   5.650   5.423  1.0666 -0.8373 -0.2638
  730MOL0     C  652   6.485   5.697   5.393  0.6590 -0.6192 -0.7760
  730MOL0     N  653   5.863   5.775   5.174 -0.4336 -0.3291  0.3729
  730MOL0     N  654   5.801   5.681   5.239  0.7206  0.0465  0.3886
  730MOL0     C  655   4.948   5.272   6.056  0.1942 -0.5861 -0.4820
  730MOL0     C  656   4.837   5.232   6.141 -0.1351 -0.0394 -0.0654
  730MOL0     C  657   4.650   5.206   6.581  0.4593 -1.4340 -0.1804
  730MOL0     C  658   4.588   5.085   6.552 -0.0010 -0.5087 -0.1419
  730MOL0     C  659   4.484   5.043   6.631 -0.2438 -0.1167  0.0204
  730MOL0     C  660   4.446   5.116   6.748 -0.3987 -0.1749  0.2594
  730MOL0     O  661   4.347   5.097   6.832 -0.3200 -0.3876  0.3589
  730MOL0     C  662   4.263   4.984   6.814 -0.5702  0.1689 -0.5286
  730MOL0     C  663   4.154   4.984   6.926  0.1962  0.1559  0.5216
  730MOL0     C  664   4.053   4.878   6.880  0.0302 -0.1387 -0.4203
  730MOL0     C  665   3.957   4.843   6.990 -0.0209 -0.1523 -0.0088
  730MOL0     C  666   3.842   4.762   6.941  0.1513  1.0968  0.4115
  730MOL0     C  667   3.750   4.690   6.910 -0.4063 -0.0351 -0.3053
  730MOL0     C  668   4.513   5.237   6.773 -0.4551 -0.3514  0.4743
  730MOL0     C  669   4.603   5.292   6.689 -0.0020  0.3607  0.5467
  730MOL0     C  670   4.641   5.436   6.713 -0.2453  0.0417 -0.8293
  730MOL0     H  671   4.998   5.184   6.429 -0.7022 -0.8949  0.3413
  730MOL0     H  672   5.198   5.272   6.291  0.7205 -0.0235 -0.4363
  730MOL0     H  673   5.094   5.453   5.901  0.9873  0.7792 -2.0541
  730MOL0     H  674   5.140   5.297   5.836  4.1055  0.3400 -2.2536
  730MOL0     H  675   5.283   5.506   5.778  0.2383  0.6588  0.7714
  730MOL0     H  676   5.340   5.490   5.945  1.1984 -2.3106  0.9341
  730MOL0     H  677   5.403   5.263   5.907 -2.5057  0.3425 -0.1531
  730MOL0     H  678   5.390   5.285   5.727  1.1964  0.8297 -0.4955
  730MOL0     H  679   5.550   5.453   5.923 -1.0183 -0.9721  0.1263
  730MOL0     H  680   5.634   5.330   5.821  1.5250  1.1205 -0.7610
  730MOL0     H  681   5.484   5.590   5.750 -0.4795 -0.6897  1.9303
  730MOL0     H  682   5.528   5.477   5.623 -1.4867 -1.7193  1.9713
  730MOL0     H  683   5.682   5.650   5.804 -1.2085 -0.8175  0.8531
  730MOL0     H  684   5.774   5.515   5.733  0.2109  1.3199  0.8997
  730MOL0     H  685   5.796   5.743   5.631  3.6056 -3.5957 -1.0538
  730MOL0     H  686   5.627   5.753   5.591 -0.8486 -0.6475  1.0299
  730MOL0     H  687   5.796   5.530   5.478 -1.9145 -1.5840 -1.3610
  730MOL0     H  688   5.630   5.572   5.440 -0.4022 -0.0364  0.8848
  730MOL0     H  689   5.834   5.897   5.474 -0.6898 -2.0939  1.1651
  730MOL0     H  690   5.891   6.084   5.307  0.2647  1.2360 -1.5668
  730MOL0     H  691   5.919   6.036   5.144 -0.7666  1.6028  0.2357
  730MOL0     H  692   6.127   6.128   5.288 -0.1521 -0.6783  1.8037
  730MOL0     H  693   6.129   5.958   5.362 -1.8204 -1.5312  0.1798
  730MOL0     H  694   6.115   5.870   5.137 -1.5919  1.3110 -1.0613
  730MOL0     H  695   6.156   6.036   5.077  0.3270 -2.4965 -2.6323
  730MOL0     H  696   6.370   5.925   5.090 -0.1385  3.4814 -1.5513
  730MOL0     H  697   6.355   6.036   5.229 -0.5531  0.2708 -1.2006
  730MOL0     H  698   6.566   5.937   5.183 -0.8181 -0.2335  0.3375
  730MOL0     H  699   6.877   5.817   5.168  1.0758  0.4306  0.6578
  730MOL0     H  700   6.902   5.939   5.287  0.6515  0.2057 -0.3791
  730MOL0     H  701   6.781   5.965   5.158 -2.9082 -3.0655 -1.6592
  730MOL0     H  702   6.890   5.304   5.494  2.7611 -2.4802  0.1793
  730MOL0     H  703   7.084   5.187   5.580  1.2500  0.7505 -0.7455
  730MOL0     H  704   7.440   5.382   5.548  4.1849 -2.1875 -0.9301
  730MOL0     H  705   7.470   5.415   5.721 -1.0941 -1.0864  0.6329
  730MOL0     H  706   7.524   5.177   5.752  2.3783  0.5108  0.7595
  730MOL0     H  707   7.509   5.149   5.576  0.5803  1.0373 -1.5132
  730MOL0     H  708   7.691   5.279   5.514 -2.3757  0.0545  0.4497
  730MOL0     H  709   7.743   5.157   5.623  0.6564  0.1453 -0.0298
  730MOL0     H  710   7.726   5.336   5.813 -0.6863  1.8395  0.6424
  730MOL0     H  711   7.702   5.451   5.687 -0.4861  0.5672  1.1932
  730MOL0     H  712   7.935   5.252   5.695 -1.2895 -0.7268 -0.5529
  730MOL0     H  713   7.931   5.395   5.591  0.5984 -0.3307 -0.7418
  730MOL0     H  714   7.937   5.398   5.894 -1.4310  1.9751  0.4845
  730MOL0     H  715   7.894   5.530   5.799 -0.8567  0.4979 -0.8867
  730MOL0     H  716   8.131   5.472   5.662 -3.8630 -0.7239 -0.6974
  730MOL0     H  717   8.174   5.408   5.819 -1.9602 -2.1262  0.3367
  730MOL0     H  718   8.048   5.640   5.909 -0.0716  0.2732  0.7263
  730MOL0     H  719   8.091   5.688   5.746  2.3630 -0.1815  0.1524
  730MOL0     H  720   7.254   5.562   5.712  0.1392 -0.6031 -0.8624
  730MOL0     H  721   7.061   5.684   5.613  0.5738  0.1077 -3.1435
  730MOL0     H  722   6.613   5.553   5.470  1.0830  0.0360  1.6345
  730MOL0     H  723   6.399   5.641   5.430  3.4965 -4.0698  1.2074
  730MOL0     H  724   4.918   5.300   5.956 -2.0840 -0.1929  0.2651
  730MOL0     H  725   4.734   5.234   6.108 -0.1727 -1.1595 -0.0517
  730MOL0     H  726   4.618   5.025   6.467  0.1690  0.3639 -0.7097
  730MOL0     H  727   4.438   4.948   6.609 -1.9616  0.6511  0.1341
  730MOL0     H  728   4.218   4.995   6.715  0.4898  2.0932 -0.8546
  730MOL0     H  729   4.321   4.892   6.822  1.8092  1.5789 -0.6337
  730MOL0     H  730   4.104   5.080   6.943  1.0047  0.3044  2.2160
  730MOL0     H  731   4.184   4.952   7.026 -1.3991 -0.8945  0.6974
  730MOL0     H  732   4.006   4.912   6.787  0.4638  0.9842 -0.2401
  730MOL0     H  733   4.100   4.783   6.856  2.3527  0.7465  0.4094
  730MOL0     H  734   3.918   4.925   7.052  0.1974 -2.6806  3.8732
  730MOL0     H  735   4.024   4.788   7.057  1.1960 -0.3726 -1.3531
  730MOL0     H  736   3.660   4.640   6.879 -0.6478 -0.3177  0.8085
  730MOL0     H  737   4.489   5.296   6.861  1.0615  0.6524  0.2431
  730MOL0     H  738   4.745   5.442   6.746  0.5993  1.3947 -3.4224
  730MOL0     H  739   4.613   5.484   6.618 -2.9752 -0.7081 -0.4922
  730MOL0     H  740   4.581   5.484   6.791 -0.5122 -0.9810 -0.3955
  731MOL0     O  741   2.883   5.214   6.731 -0.0551 -0.5022  0.3664
  731MOL0     C  742   2.963   5.116   6.733 -0.4908  0.8860 -0.8109
  731MOL0     O  743   3.096   5.114   6.768  0.5303 -0.2831 -0.1236
  731MOL0     C  744   3.168   5.222   6.801 -0.2925  0.3119  0.3820
  731MOL0     C  745   3.292   5.198   6.858 -0.5719  0.1583  0.2157
  731MOL0     C  746   3.383   5.298   6.893  0.5643 -0.1996  0.4194
  731MOL0     C  747   3.336   5.429   6.891 -0.2425  0.2165  0.0801
  731MOL0     O  748   3.411   5.531   6.924 -0.4495  0.3842 -0.2608
  731MOL0     C  749   3.499   5.513   7.038  0.3710  0.1156  0.3928
  731MOL0     C  750   3.517   5.658   7.085 -0.3471  0.5714 -0.2134
  731MOL0     C  751   3.637   5.658   7.186 -0.2211  0.1807 -0.3122
  731MOL0     C  752   3.662   5.791   7.257 -0.2458 -0.0275  0.6082
  731MOL0     C  753   3.793   5.778   7.329  0.0617 -0.2172 -0.8298
  731MOL0     C  754   3.838   5.911   7.388  0.2163 -0.1879 -0.1607
  731MOL0     C  755   3.974   5.874   7.445  0.3384 -0.0327  0.3090
  731MOL0     C  756   3.974   5.858   7.596 -1.0722 -0.4672  0.7494
  731MOL0     N  757   4.105   5.919   7.651 -0.3075 -0.2662 -0.0686
  731MOL0     C  758   4.226   5.924   7.578 -0.1301 -0.7091  0.4867
  731MOL0     C  759   4.312   5.976   7.665 -0.2430  0.1647 -0.1735
  731MOL0     C  760   4.454   5.995   7.645 -0.3407 -0.1424  0.2102
  731MOL0     C  761   4.489   6.147   7.650 -0.3064  0.3775  0.0132
  731MOL0     C  762   4.448   6.226   7.777 -0.2600 -1.7172 -0.0545
  731MOL0     C  763   4.519   6.180   7.906  0.0476 -0.0938  0.5313
  731MOL0     O  764   4.659   6.192   7.888 -0.0370 -0.8132 -0.1631
  731MOL0     C  765   4.736   6.131   7.990  0.6003 -0.1880  0.2949
  731MOL0     C  766   4.841   6.054   7.940 -0.0479  0.8476  0.4719
  731MOL0     C  767   4.926   5.975   8.027 -0.1242 -0.2075  0.0457
  731MOL0     C  768   5.042   5.908   7.961 -0.3883  0.7645 -0.4294
  731MOL0     C  769   4.903   5.978   8.166 -0.2202 -1.0713 -0.4312
  731MOL0     C  770   4.987   5.894   8.251  0.0477  0.1527 -0.3762
  731MOL0     O  771   5.018   5.953   8.377  0.1921 -0.1293 -0.2029
  731MOL0     C  772   5.104   5.905   8.468 -0.1267  0.3191  0.4720
  731MOL0     C  773   5.219   5.836   8.434  0.0304  0.0370  0.5026
  731MOL0     C  774   5.312   5.791   8.535  0.4765 -0.9950  0.7406
  731MOL0     C  775   5.277   5.800   8.669  0.0163 -0.0292  0.1669
  731MOL0     O  776   5.337   5.739   8.777  0.4107  0.0125  0.0304
  731MOL0     C  777   5.460   5.664   8.782  0.3267 -0.5518  0.2827
  731MOL0     C  778   5.431   5.516   8.747 -0.1416 -0.8021 -0.7997
  731MOL0     C  779   5.326   5.455   8.851  0.0043 -0.1067 -0.5853
  731MOL0     C  780   5.318   5.298   8.819 -0.0556  0.3928  0.4036
  731MOL0     C  781   5.203   5.240   8.901 -0.6910 -0.0187  0.4324
  731MOL0     C  782   5.215   5.087   8.942 -0.0594 -0.2014 -0.7005
  731MOL0     C  783   5.125   5.050   9.064  0.2472 -0.4758  0.1451
  731MOL0     C  784   5.173   5.123   9.190 -0.3485  0.9106  0.3406
  731MOL0    Cl  785   5.075   5.060   9.337 -0.1194  0.1134  0.1507
  731MOL0     C  786   5.153   5.846   8.695  1.2657 -0.7884 -0.3212
  731MOL0     C  787   5.070   5.914   8.602 -0.5110  0.7780  0.1883
  731MOL0     O  788   5.024   5.781   8.217  0.5519  0.2652  0.4438
  731MOL0     C  789   4.802   6.065   8.218 -0.3295 -0.1971  0.1917
  731MOL0     C  790   4.718   6.142   8.125 -1.3024 -0.4202 -0.2622
  731MOL0     N  791   4.244   6.000   7.788 -0.0152  0.0140 -0.3036
  731MOL0     N  792   4.120   5.959   7.777  0.1841  0.3686 -1.1788
  731MOL0     C  793   3.207   5.455   6.852  0.0680 -0.2175  0.5663
  731MOL0     C  794   3.122   5.354   6.804 -0.6859  0.0123 -0.4025
  731MOL0     C  795   2.900   4.991   6.694 -0.3818  0.2176  0.1609
  731MOL0     C  796   3.011   4.812   6.686 -1.0066 -0.6852  0.6997
  731MOL0     C  797   2.923   4.636   6.624 -0.2934 -0.3092 -0.2418
  731MOL0     C  798   2.717   4.629   6.576  1.0175 -0.9427  0.7013
  731MOL0     O  799   2.660   4.508   6.535  0.4242 -0.4511 -0.1728
  731MOL0     C  800   2.549   4.529   6.443 -0.2687  0.1156 -0.3853
  731MOL0     C  801   2.606   4.601   6.317  0.1746  0.3758 -0.1849
  731MOL0     C  802   2.509   4.600   6.209  0.3235 -0.5661 -0.1089
  731MOL0     C  803   2.572   4.591   6.071  0.0864 -0.0317 -0.0399
  731MOL0     C  804   2.654   4.712   6.037  1.3008  0.7371 -0.6887
  731MOL0     C  805   2.712   4.811   6.019 -0.0452 -0.7505  0.6263
  731MOL0     C  806   2.602   4.810   6.578  0.3447  0.3382 -0.3618
  731MOL0     C  807   2.689   4.992   6.643  0.4454  1.2389  0.4243
  731MOL0     C  808   2.607   5.107   6.676  0.6556 -0.4141 -0.6935
  731MOL0     H  809   3.323   5.094   6.854  0.9693  0.6040 -0.3476
  731MOL0     H  810   3.475   5.267   6.942 -0.4761 -0.5344  2.2673
  731MOL0     H  811   3.598   5.469   7.022  1.3269  0.4859  4.1663
  731MOL0     H  812   3.452   5.447   7.112 -3.1252  0.6061 -1.1703
  731MOL0     H  813   3.542   5.715   6.996  0.1983 -1.2494 -1.2965
  731MOL0     H  814   3.430   5.690   7.143 -0.4393 -1.3890  0.8529
  731MOL0     H  815   3.629   5.584   7.265 -0.9545  1.7267  1.1319
  731MOL0     H  816   3.722   5.634   7.122  0.3007 -0.0793  0.4643
  731MOL0     H  817   3.664   5.870   7.181 -0.9788 -1.9808 -1.5516
  731MOL0     H  818   3.581   5.815   7.326 -0.0469  2.8438 -0.0225
  731MOL0     H  819   3.873   5.742   7.263  3.0606  0.4968  2.1586
  731MOL0     H  820   3.772   5.708   7.410 -1.6382 -0.4353 -1.4082
  731MOL0     H  821   3.849   5.985   7.309  1.0692  1.5409  1.4805
  731MOL0     H  822   3.766   5.953   7.459 -1.8863 -0.2056 -2.1493
  731MOL0     H  823   4.043   5.953   7.418 -0.5008  0.9061  0.8465
  731MOL0     H  824   4.021   5.784   7.404 -1.1733 -1.5408  1.7000
  731MOL0     H  825   3.899   5.922   7.643 -0.3947  0.8040  0.1716
  731MOL0     H  826   3.971   5.755   7.630  1.4349 -0.4056  1.3394
  731MOL0     H  827   4.245   5.885   7.479 -0.0067 -0.3999  0.3843
  731MOL0     H  828   4.485   5.953   7.549 -1.6203  3.6636 -2.0746
  731MOL0     H  829   4.514   5.942   7.719  1.4524 -0.7253 -1.5682
  731MOL0     H  830   4.597   6.157   7.647 -0.3317  0.4435 -0.7955
  731MOL0     H  831   4.452   6.193   7.558  3.6044 -0.9678 -2.4455
  731MOL0     H  832   4.463   6.329   7.744 -0.1350 -2.7918 -3.7484
  731MOL0     H  833   4.340   6.214   7.790 -0.7374  0.4775 -1.4693
  731MOL0     H  834   4.477   6.244   7.984  0.4644  2.3229 -1.1041
  731MOL0     H  835   4.499   6.073   7.914  2.4751 -0.6061  0.4558
  731MOL0     H  836   4.858   6.038   7.834 -0.5230 -0.3079  0.5562
  731MOL0     H  837   5.017   5.803   7.943 -0.4127  1.1309 -2.8710
  731MOL0     H  838   5.127   5.893   8.028 -0.7519  0.3677 -0.0519
  731MOL0     H  839   5.073   5.954   7.866 -1.4919  0.6848 -0.8448
  731MOL0     H  840   5.246   5.814   8.331  1.3396 -0.0512  0.8462
  731MOL0     H  841   5.401   5.735   8.507  0.2854 -0.6037 -0.7271
  731MOL0     H  842   5.537   5.716   8.725 -0.0964  0.5697  0.6977
  731MOL0     H  843   5.497   5.672   8.885 -4.5403  0.4409  2.2240
  731MOL0     H  844   5.403   5.512   8.641 -0.2948  0.3169 -0.8122
  731MOL0     H  845   5.528   5.465   8.759  0.3796 -0.3262 -2.6644
  731MOL0     H  846   5.229   5.507   8.849 -0.4605 -0.9295 -0.0721
  731MOL0     H  847   5.357   5.471   8.955 -2.2283  2.3130 -0.1898
  731MOL0     H  848   5.410   5.242   8.834  0.4998  0.1919 -2.9394
  731MOL0     H  849   5.297   5.281   8.713 -0.8913  1.0296  0.4585
  731MOL0     H  850   5.197   5.296   8.995 -1.2822 -2.5570  1.9944
  731MOL0     H  851   5.106   5.254   8.853 -2.3562 -2.6016  2.7709
  731MOL0     H  852   5.319   5.060   8.964 -0.7118 -2.8703 -0.5157
  731MOL0     H  853   5.181   5.030   8.854 -0.2331  1.1776 -1.5510
  731MOL0     H  854   5.129   4.945   9.094  1.9570  0.2918  2.9541
  731MOL0     H  855   5.023   5.077   9.035  1.1976  0.8792 -2.2330
  731MOL0     H  856   5.164   5.232   9.191  1.1995  1.0680  0.6144
  731MOL0     H  857   5.281   5.105   9.196 -0.5099  0.1249  1.2797
  731MOL0     H  858   5.113   5.841   8.796  0.8820  1.0984 -0.3399
  731MOL0     H  859   4.982   5.965   8.638  0.1378  1.9318  0.2043
  731MOL0     H  860   4.792   6.087   8.324  0.1340  2.0668 -0.1837
  731MOL0     H  861   4.641   6.211   8.157  0.3900  2.3113 -1.7108
  731MOL0     H  862   3.161   5.552   6.861 -1.7786 -0.7313 -2.0544
  731MOL0     H  863   3.021   5.383   6.775 -1.2545 -0.5747  0.9093
  731MOL0     H  864   3.119   4.812   6.694 -0.9890  1.0341  0.7656
  731MOL0     H  865   2.982   4.547   6.606  1.2076  0.7760 -0.9473
  731MOL0     H  866   2.524   4.428   6.409  1.5840  0.3064 -2.5768
  731MOL0     H  867   2.459   4.582   6.476  1.2517  1.9079  1.0541
  731MOL0     H  868   2.701   4.552   6.292  0.2449 -1.0492  2.5226
  731MOL0     H  869   2.635   4.705   6.332  2.5394 -0.2130 -0.3285
  731MOL0     H  870   2.427   4.528   6.221  0.7460 -1.3544 -1.6372
  731MOL0     H  871   2.451   4.692   6.201 -0.6440 -1.1794 -0.2587
  731MOL0     H  872   2.495   4.592   5.994  0.6383  0.0054 -0.5954
  731MOL0     H  873   2.616   4.491   6.063 -0.2100 -0.0563 -1.5595
  731MOL0     H  874   2.769   4.900   6.003 -1.4292  0.1437  0.5464
  731MOL0     H  875   2.500   4.802   6.544  0.9899 -1.1352 -2.1160
  731MOL0     H  876   2.618   5.125   6.783  0.1708 -2.3148 -0.2799
  731MOL0     H  877   2.642   5.196   6.623 -0.7163  0.8393  0.4321
  731MOL0     H  878   2.506   5.082   6.643  1.5337 -1.2468 -2.9244
  732MOL0     O  879   3.318   0.402   6.553 -0.0783 -0.1761  0.5266
  732MOL0     C  880   3.283   0.460   6.651  0.6586 -0.5884 -0.4881
  732MOL0     O  881   3.169   0.543   6.666 -0.2409  0.8156 -0.4319
  732MOL0     C  882   3.092   0.550   6.556 -0.2710 -0.0443  0.6686
  732MOL0     C  883   3.000   0.450   6.520 -0.0468  0.4619  0.3117
  732MOL0     C  884   2.927   0.453   6.403  0.4687 -0.1062  0.5212
  732MOL0     C  885   2.944   0.563   6.318  0.0505  0.1286  0.1567
  732MOL0     O  886   2.861   0.598   6.218  0.2553 -0.0059 -0.2378
  732MOL0     C  887   2.728   0.631   6.269  0.3099 -1.3165 -0.3402
  732MOL0     C  888   2.727   0.776   6.314  0.2380  1.2585 -0.1301
  732MOL0     C  889   2.725   0.875   6.192  0.1692  0.5832 -0.1916
  732MOL0     C  890   2.795   1.004   6.237 -0.6427 -0.9148 -0.8062
  732MOL0     C  891   2.719   1.066   6.364  0.2844  0.5199 -0.0542
  732MOL0     C  892   2.762   1.211   6.397 -0.0159  0.9508  0.0662
  732MOL0     C  893   2.686   1.270   6.518 -0.5012  0.2108  0.5909
  732MOL0     C  894   2.718   1.185   6.642  0.6100 -0.2775 -0.0373
  732MOL0     N  895   2.691   1.251   6.774  1.0939 -0.5982  0.1699
  732MOL0     C  896   2.742   1.368   6.828 -0.9559 -0.8954 -0.8698
  732MOL0     C  897   2.658   1.394   6.930  0.2578 -0.2665 -0.1795
  732MOL0     C  898   2.669   1.514   7.009 -0.6330  0.3505  0.3150
  732MOL0     C  899   2.643   1.646   6.928 -0.3076  0.6340 -0.2649
  732MOL0     C  900   2.761   1.687   6.836 -0.3845 -0.6013  0.1611
  732MOL0     C  901   2.736   1.840   6.796 -0.4069 -0.6716 -0.0859
  732MOL0     O  902   2.780   1.883   6.668 -0.0820  0.0262 -0.7186
  732MOL0     C  903   2.918   1.886   6.652  0.8438  0.6553  0.3613
  732MOL0     C  904   2.966   1.907   6.523 -0.2005  0.0203 -0.1437
  732MOL0     C  905   3.105   1.926   6.498  0.8906 -1.0675 -0.0682
  732MOL0     C  906   3.155   1.952   6.368 -0.3767 -0.0962 -0.4285
  732MOL0     C  907   3.198   1.923   6.609 -0.2036 -0.8935 -0.6114
  732MOL0     C  908   3.346   1.947   6.598  0.6452  0.2885  0.0654
  732MOL0     O  909   3.406   2.005   6.705 -0.1301  0.0255  0.6215
  732MOL0     C  910   3.545   1.995   6.719  0.4735 -0.8502 -1.1749
  732MOL0     C  911   3.603   2.119   6.741 -0.2455  0.4865  0.5183
  732MOL0     C  912   3.738   2.128   6.784 -0.4326 -0.8607  0.1622
  732MOL0     C  913   3.817   2.010   6.787  0.0883 -0.4756  0.5879
  732MOL0     O  914   3.941   2.014   6.842 -0.3409  0.4512  0.5951
  732MOL0     C  915   4.033   2.091   6.762 -0.0300 -0.2919 -1.1336
  732MOL0     C  916   4.175   2.057   6.802  0.4039 -0.4172  0.7169
  732MOL0     C  917   4.211   1.913   6.745  0.2914 -0.5402  0.6927
  732MOL0     C  918   4.369   1.909   6.724 -0.1492  0.0497 -0.1912
  732MOL0     C  919   4.421   1.764   6.717  1.0724 -0.4206  0.5919
  732MOL0     C  920   4.571   1.749   6.705  0.1330  0.2307 -0.1272
  732MOL0     C  921   4.644   1.818   6.593  0.9865  0.6390  0.3828
  732MOL0     C  922   4.619   1.764   6.453  0.0753  0.3007 -0.4177
  732MOL0    Cl  923   4.444   1.780   6.412  0.0805 -0.2896  0.0685
  732MOL0     C  924   3.756   1.889   6.748 -0.1193  0.3113 -0.3053
  732MOL0     C  925   3.624   1.883   6.712  0.0621 -0.1367  0.2369
  732MOL0     O  926   3.403   1.898   6.507  0.0605 -0.4634  0.2889
  732MOL0     C  927   3.150   1.906   6.738  0.4681  1.2795  0.1949
  732MOL0     C  928   3.012   1.876   6.758 -0.2119  0.0947 -0.2351
  732MOL0     N  929   2.563   1.296   6.942 -0.1555 -0.5105 -0.5247
  732MOL0     N  930   2.582   1.209   6.848  0.7447 -0.2411 -0.2284
  732MOL0     C  931   3.047   0.657   6.342 -0.2612 -0.1118 -0.4749
  732MOL0     C  932   3.118   0.646   6.465 -0.3398  0.0231 -0.0261
  732MOL0     C  933   3.367   0.458   6.767 -0.1130 -0.6120 -0.9505
  732MOL0     C  934   3.343   0.554   6.870 -1.4095  0.4901  0.1863
  732MOL0     C  935   3.418   0.559   6.997 -0.3285  0.0524  0.1096
  732MOL0     C  936   3.516   0.463   7.011 -0.9590 -0.3207 -0.1388
  732MOL0     O  937   3.599   0.458   7.115 -0.0024  0.7076 -0.1854
  732MOL0     C  938   3.594   0.556   7.220  0.2641  0.8130  0.0303
  732MOL0     C  939   3.480   0.550   7.320  0.3189  0.9183  0.0961
  732MOL0     C  940   3.452   0.410   7.371 -0.4845 -0.5958 -0.4606
  732MOL0     C  941   3.565   0.365   7.458  0.7747  1.5971 -0.0558
  732MOL0     C  942   3.508   0.281   7.571 -0.3077 -0.4705 -0.0305
  732MOL0     C  943   3.472   0.208   7.658  0.5242  0.3060  0.2929
  732MOL0     C  944   3.545   0.371   6.911 -0.5206  1.1748  0.1528
  732MOL0     C  945   3.475   0.366   6.789 -0.1321 -0.5734  0.1508
  732MOL0     C  946   3.524   0.262   6.683  0.0955 -0.2648 -0.3519
  732MOL0     H  947   2.995   0.364   6.587  0.9778 -1.4250 -1.8828
  732MOL0     H  948   2.854   0.376   6.377  0.2594  1.0805 -2.9962
  732MOL0     H  949   2.699   0.584   6.363 -0.1441  3.5387  2.2820
  732MOL0     H  950   2.651   0.609   6.194  1.4608  1.1522 -2.3730
  732MOL0     H  951   2.647   0.790   6.386  1.8773 -0.1562  2.0913
  732MOL0     H  952   2.817   0.796   6.373 -0.4669  0.8259  1.1270
  732MOL0     H  953   2.763   0.840   6.096 -0.2818  1.3933 -0.6809
  732MOL0     H  954   2.619   0.895   6.175  0.0224 -0.7889 -1.0692
  732MOL0     H  955   2.896   0.986   6.274 -0.4219 -0.3329 -1.1050
  732MOL0     H  956   2.802   1.078   6.157 -0.6278 -0.0219  0.0052
  732MOL0     H  957   2.725   0.998   6.450  0.0369 -0.4849 -0.8016
  732MOL0     H  958   2.613   1.068   6.338  0.3701 -0.3220 -0.4925
  732MOL0     H  959   2.871   1.220   6.402  0.3592 -2.0652 -0.8151
  732MOL0     H  960   2.731   1.269   6.310 -2.1010 -2.1350 -1.4184
  732MOL0     H  961   2.578   1.267   6.505 -0.4352 -0.4290  0.1510
  732MOL0     H  962   2.717   1.373   6.540 -0.8455  0.5142 -0.2803
  732MOL0     H  963   2.652   1.098   6.631  0.1908 -0.0422  0.5755
  732MOL0     H  964   2.823   1.155   6.647  1.3888  2.1722 -0.5976
  732MOL0     H  965   2.829   1.426   6.799 -0.3537  1.0499  3.9376
  732MOL0     H  966   2.770   1.516   7.051  0.1370 -3.0279 -1.0355
  732MOL0     H  967   2.596   1.509   7.090 -1.9258 -0.4427 -0.8403
  732MOL0     H  968   2.560   1.628   6.858  0.7999 -1.5362 -1.1050
  732MOL0     H  969   2.604   1.728   6.990 -0.3911 -0.3037  0.9689
  732MOL0     H  970   2.862   1.676   6.874 -0.9999  0.4949  2.3050
  732MOL0     H  971   2.747   1.631   6.743 -0.5637 -3.7832  1.9627
  732MOL0     H  972   2.628   1.857   6.798 -0.4638 -1.0780  1.1814
  732MOL0     H  973   2.785   1.902   6.872 -0.5367 -1.6202  0.7959
  732MOL0     H  974   2.887   1.911   6.448 -2.1933  1.8132  1.9128
  732MOL0     H  975   3.067   1.955   6.302  0.1967  0.1550 -1.1940
  732MOL0     H  976   3.224   1.884   6.318  0.6722  1.9292 -1.9089
  732MOL0     H  977   3.203   2.050   6.373  0.7811 -0.5477 -1.9906
  732MOL0     H  978   3.539   2.206   6.733 -0.7855  0.0702  0.2129
  732MOL0     H  979   3.782   2.214   6.834 -2.3901  1.4676 -1.8939
  732MOL0     H  980   4.019   2.071   6.656  1.6541 -1.0292 -1.2443
  732MOL0     H  981   4.020   2.199   6.770  0.5985 -0.2111 -1.1415
  732MOL0     H  982   4.236   2.140   6.765  0.5909 -0.1487  1.5929
  732MOL0     H  983   4.192   2.049   6.910 -0.9373 -1.0005  0.9072
  732MOL0     H  984   4.169   1.898   6.646  2.7859  1.5104 -0.8238
  732MOL0     H  985   4.179   1.845   6.824  0.0938 -3.2158 -1.5549
  732MOL0     H  986   4.415   1.962   6.808 -0.8947 -0.2010  0.3900
  732MOL0     H  987   4.386   1.952   6.625  1.7311  1.8486  0.8497
  732MOL0     H  988   4.394   1.703   6.805 -1.7552 -2.1502 -1.2919
  732MOL0     H  989   4.375   1.712   6.633  1.7276 -1.2786  0.7539
  732MOL0     H  990   4.576   1.642   6.683 -2.0997 -0.0804  0.6204
  732MOL0     H  991   4.617   1.775   6.801 -0.2938 -1.4276  0.5573
  732MOL0     H  992   4.752   1.811   6.609  1.1103 -2.4571 -1.0080
  732MOL0     H  993   4.616   1.923   6.587 -0.1849  0.2694 -3.6214
  732MOL0     H  994   4.652   1.660   6.445  2.2996  1.0802 -3.0873
  732MOL0     H  995   4.688   1.810   6.382  1.0092  1.1184  0.9788
  732MOL0     H  996   3.818   1.801   6.753 -1.7086 -1.0586 -2.6129
  732MOL0     H  997   3.575   1.793   6.676 -0.8262  0.6321 -0.5337
  732MOL0     H  998   3.215   1.904   6.825  0.4192  1.0782  0.2277
  732MOL0     H  999   2.995   1.853   6.862  2.1534 -3.3775 -0.4659
  732MOL0     H 1000   3.068   0.737   6.272 -1.6251  2.8374  2.2607
  732MOL0     H 1001   3.201   0.715   6.478 -0.1406  0.4683 -3.0466
  732MOL0     H 1002   3.277   0.639   6.858 -1.3554  0.6160  0.7443
  732MOL0     H 1003   3.419   0.645   7.063 -0.6543  0.2281 -0.1105
  732MOL0     H 1004   3.683   0.543   7.283 -2.0878 -2.4244  3.0603
  732MOL0     H 1005   3.575   0.653   7.173  1.3786 -0.1068 -2.5587
  732MOL0     H 1006   3.390   0.586   7.268  0.3788  2.4389  0.9583
  732MOL0     H 1007   3.494   0.609   7.411 -2.2466  0.5136  0.8380
  732MOL0     H 1008   3.352   0.404   7.416  0.0538  1.4294  1.1307
  732MOL0     H 1009   3.442   0.345   7.283 -1.2756  0.4496 -1.1727
  732MOL0     H 1010   3.623   0.447   7.502 -1.0338  2.9103 -0.0531
  732MOL0     H 1011   3.634   0.306   7.397  1.5335  3.1283 -0.7334
  732MOL0     H 1012   3.427   0.146   7.733 -1.9005  2.9990  1.2249
  732MOL0     H 1013   3.618   0.294   6.934  0.1068  2.2605  2.0520
  732MOL0     H 1014   3.560   0.310   6.591  4.0414 -1.0813  0.5621
  732MOL0     H 1015   3.616   0.208   6.708  2.3168  3.4601  0.3769
  732MOL0     H 1016   3.449   0.185   6.664  3.7240 -4.2461 -0.0325
  733MOL0     O 1017  11.179   6.817   6.294 -0.2787 -1.0757 -0.3771
  733MOL0     C 1018  11.119   6.922   6.295  0.6154 -0.4841 -0.3393
  733MOL0     O 1019  10.988   6.944   6.270  0.5350 -0.3527 -0.9874
  733MOL0     C 1020  10.902   6.849   6.230 -0.3213  0.2629  0.0021
  733MOL0     C 1021  10.819   6.783   6.329  0.2710 -0.4683  0.0308
  733MOL0     C 1022  10.730   6.681   6.303  0.4836 -0.4662  1.0230
  733MOL0     C 1023  10.714   6.648   6.169  0.5470 -0.3909  0.1683
  733MOL0     O 1024  10.618   6.551   6.125 -0.7574 -0.0726 -0.1571
  733MOL0     C 1025  10.637   6.415   6.154  0.9687  0.0263 -1.0412
  733MOL0     C 1026  10.694   6.328   6.033  0.6800 -0.5087 -0.0887
  733MOL0     C 1027  10.640   6.184   6.058 -0.0301 -0.4596  0.1638
  733MOL0     C 1028  10.683   6.113   6.190  0.0985  0.3508 -0.9683
  733MOL0     C 1029  10.709   5.961   6.185 -0.0978 -0.4470 -0.0121
  733MOL0     C 1030  10.596   5.876   6.143  0.1101 -0.1494  0.1789
  733MOL0     C 1031  10.632   5.731   6.121  0.0262  0.5023  0.5534
  733MOL0     C 1032  10.517   5.625   6.092 -0.1116  0.0210  0.0038
  733MOL0     N 1033  10.465   5.647   5.955 -0.4397  0.0143  0.1209
  733MOL0     C 1034  10.349   5.703   5.917 -0.2855  0.8738 -0.3704
  733MOL0     C 1035  10.357   5.703   5.780  0.1894 -0.3517 -0.6855
  733MOL0     C 1036  10.250   5.763   5.694 -0.0450  0.1523  0.3467
  733MOL0     C 1037  10.112   5.717   5.722 -0.6942  0.0942 -0.2859
  733MOL0     C 1038  10.094   5.559   5.701  0.1411  0.3912  0.1886
  733MOL0     C 1039   9.948   5.525   5.737  0.5717  0.3099  0.1544
  733MOL0     O 1040   9.909   5.387   5.739  0.1044 -0.5975 -0.3266
  733MOL0     C 1041   9.784   5.356   5.683 -0.3533  0.6070  0.1750
  733MOL0     C 1042   9.763   5.221   5.658  0.2788 -0.8120 -0.6096
  733MOL0     C 1043   9.630   5.168   5.639 -0.3694 -0.2986 -0.1061
  733MOL0     C 1044   9.616   5.017   5.630  0.0032  0.2993 -1.0249
  733MOL0     C 1045   9.522   5.257   5.620 -0.6656  0.7050  0.1276
  733MOL0     C 1046   9.376   5.222   5.601  0.0760 -0.1619 -1.1133
  733MOL0     O 1047   9.336   5.093   5.626  0.5655  0.7970  0.4038
  733MOL0     C 1048   9.199   5.068   5.627  0.0254  0.4559  1.3063
  733MOL0     C 1049   9.142   4.969   5.541  0.2156  0.1333  0.3130
  733MOL0     C 1050   9.006   4.949   5.542 -0.4676 -0.2090 -0.3661
  733MOL0     C 1051   8.915   5.026   5.624  0.0912 -0.5683  0.3211
  733MOL0     O 1052   8.777   5.007   5.627 -0.9847 -0.3975 -0.5087
  733MOL0     C 1053   8.701   5.057   5.732 -0.7306 -0.0063  0.6598
  733MOL0     C 1054   8.563   4.988   5.718  0.2619 -0.9131  0.3696
  733MOL0     C 1055   8.489   5.025   5.577 -0.6081 -0.0918  0.1890
  733MOL0     C 1056   8.340   4.981   5.564 -0.8978  0.2320  0.1799
  733MOL0     C 1057   8.248   5.092   5.510  0.2805 -0.1541 -0.0042
  733MOL0     C 1058   8.122   5.013   5.446 -0.1888 -0.1557 -0.4994
  733MOL0     C 1059   8.032   5.115   5.375 -0.0005 -0.1717 -0.3057
  733MOL0     C 1060   7.924   5.045   5.294  0.5457  0.2459 -0.3659
  733MOL0    Cl 1061   7.801   4.992   5.403 -0.3494 -0.2733 -0.5559
  733MOL0     C 1062   8.978   5.111   5.714 -0.8238 -0.7171 -1.5289
  733MOL0     C 1063   9.117   5.141   5.714 -0.4076  0.5792  0.1621
  733MOL0     O 1064   9.299   5.315   5.567 -0.5167  0.1749  0.3568
  733MOL0     C 1065   9.556   5.390   5.638  0.1477 -0.7504 -0.0823
  733MOL0     C 1066   9.681   5.440   5.671 -0.5091  0.1385  1.1822
  733MOL0     N 1067  10.469   5.640   5.734 -0.0047  0.2172  0.0487
  733MOL0     N 1068  10.530   5.605   5.843 -0.2149 -0.2061  0.1651
  733MOL0     C 1069  10.795   6.702   6.070 -0.0285 -0.2470  0.1444
  733MOL0     C 1070  10.897   6.795   6.097  1.1194  0.2373  0.2833
  733MOL0     C 1071  11.201   7.055   6.311 -1.2149  0.0966  0.4192
  733MOL0     C 1072  11.117   7.169   6.352  0.3867 -1.0207  0.2088
  733MOL0     C 1073  11.190   7.288   6.360 -0.3471  0.4766  0.5023
  733MOL0     C 1074  11.330   7.307   6.338  0.1551 -0.1112 -0.7685
  733MOL0     O 1075  11.376   7.436   6.344 -0.1730 -0.0395  1.0276
  733MOL0     C 1076  11.517   7.435   6.350 -0.2620  0.1800 -0.5088
  733MOL0     C 1077  11.578   7.573   6.358 -0.6184  0.6588  0.4434
  733MOL0     C 1078  11.732   7.569   6.366  0.5506  0.2027  1.1948
  733MOL0     C 1079  11.814   7.655   6.276  0.0496  0.2716 -0.2394
  733MOL0     C 1080  11.801   7.632   6.127  0.3502 -0.3310 -0.2541
  733MOL0     C 1081  11.787   7.630   6.004  0.4463  0.2176 -0.1872
  733MOL0     C 1082  11.399   7.188   6.310 -0.2728 -0.5193  1.0158
  733MOL0     C 1083  11.342   7.065   6.288 -0.0101 -0.5667 -0.4079
  733MOL0     C 1084  11.434   6.950   6.236  0.0531  0.0470  0.4638
  733MOL0     H 1085  10.814   6.824   6.429  0.5534 -2.4900  0.9396
  733MOL0     H 1086  10.679   6.652   6.394 -0.8285 -0.9753  0.1455
  733MOL0     H 1087  10.542   6.373   6.188 -0.9511  0.8614 -4.7968
  733MOL0     H 1088  10.714   6.409   6.232 -0.7318  3.0918  1.1012
  733MOL0     H 1089  10.666   6.363   5.933  1.9279  2.5870  0.5470
  733MOL0     H 1090  10.801   6.312   6.047  0.7691 -0.9138 -1.1610
  733MOL0     H 1091  10.534   6.188   6.035  0.2016  2.4470 -0.9015
  733MOL0     H 1092  10.671   6.125   5.972  0.4058 -0.5417  0.3706
  733MOL0     H 1093  10.782   6.152   6.215  2.1276 -2.9510 -3.0596
  733MOL0     H 1094  10.616   6.135   6.274  2.1400 -2.5821  1.6552
  733MOL0     H 1095  10.754   5.929   6.279 -3.9011 -0.7719  1.9065
  733MOL0     H 1096  10.790   5.941   6.114 -0.4049 -0.2059 -0.4396
  733MOL0     H 1097  10.516   5.873   6.218  0.8678  1.2037  1.0776
  733MOL0     H 1098  10.552   5.912   6.049  1.6040 -0.4939 -0.6777
  733MOL0     H 1099  10.703   5.704   6.201 -0.5701  2.1297  1.6836
  733MOL0     H 1100  10.688   5.720   6.028 -0.4073 -0.5631  0.4044
  733MOL0     H 1101  10.563   5.526   6.102  0.7370  0.3555 -0.4954
  733MOL0     H 1102  10.436   5.642   6.163 -0.9242 -0.6539 -0.7573
  733MOL0     H 1103  10.271   5.742   5.981  0.5279  0.6412  0.8059
  733MOL0     H 1104  10.264   5.738   5.588 -0.5760  0.0715  0.2947
  733MOL0     H 1105  10.262   5.871   5.710  2.3477 -0.4176  3.3717
  733MOL0     H 1106  10.080   5.735   5.825 -1.7982 -2.8211 -0.0395
  733MOL0     H 1107  10.040   5.774   5.662 -4.3782 -0.7314  2.9370
  733MOL0     H 1108  10.094   5.538   5.594 -2.3130  3.1753 -0.4990
  733MOL0     H 1109  10.153   5.496   5.768 -0.7966 -3.8976 -2.5856
  733MOL0     H 1110   9.929   5.570   5.835  0.9331  0.2605  0.2495
  733MOL0     H 1111   9.891   5.581   5.663  1.4158 -0.3075 -1.0055
  733MOL0     H 1112   9.851   5.158   5.653  1.6358  1.0798 -3.7072
  733MOL0     H 1113   9.714   4.970   5.644 -1.3667 -3.0532 -1.6682
  733MOL0     H 1114   9.577   4.992   5.531  0.6462 -0.2479 -1.1433
  733MOL0     H 1115   9.543   4.983   5.704 -1.1585  3.8947 -0.3372
  733MOL0     H 1116   9.199   4.910   5.469  0.4398 -1.9225  2.0757
  733MOL0     H 1117   8.960   4.876   5.476  1.4572 -0.8255 -1.0909
  733MOL0     H 1118   8.759   5.014   5.815 -0.0726 -4.2921 -1.7241
  733MOL0     H 1119   8.694   5.166   5.723  1.0681 -0.0396 -2.6818
  733MOL0     H 1120   8.575   4.880   5.736 -0.2177 -1.1796 -0.8087
  733MOL0     H 1121   8.496   5.034   5.791 -3.5307 -3.1395 -1.3385
  733MOL0     H 1122   8.543   4.965   5.505 -2.2219 -2.3814  0.7773
  733MOL0     H 1123   8.497   5.131   5.550  1.7598 -0.6252 -1.4676
  733MOL0     H 1124   8.302   4.942   5.659 -1.2710 -0.4953 -0.2582
  733MOL0     H 1125   8.356   4.896   5.496  2.2332  2.2843 -1.9018
  733MOL0     H 1126   8.204   5.161   5.582 -2.2564 -1.1826 -0.4694
  733MOL0     H 1127   8.304   5.156   5.441  1.8628 -0.5082  0.9052
  733MOL0     H 1128   8.074   4.948   5.520  0.9847 -1.6295 -0.9659
  733MOL0     H 1129   8.153   4.937   5.374  0.2043  0.6420 -1.1872
  733MOL0     H 1130   8.090   5.173   5.302 -0.3786 -1.7545 -1.9261
  733MOL0     H 1131   7.997   5.188   5.448  2.2102 -0.7820  1.4877
  733MOL0     H 1132   7.959   4.954   5.245  0.2387 -0.1869  0.2017
  733MOL0     H 1133   7.878   5.101   5.213  0.2228 -0.4053 -0.6421
  733MOL0     H 1134   8.919   5.183   5.770  0.6024  0.9158 -2.0518
  733MOL0     H 1135   9.150   5.224   5.776  0.5443 -0.3760  0.9891
  733MOL0     H 1136   9.488   5.469   5.609 -0.6643 -1.3336  0.2136
  733MOL0     H 1137   9.696   5.541   5.706 -3.4575  0.5725  1.4241
  733MOL0     H 1138  10.789   6.672   5.966  0.5390 -2.3279  0.6628
  733MOL0     H 1139  10.962   6.827   6.016 -1.3011  0.6381 -1.6213
  733MOL0     H 1140  11.012   7.158   6.377  0.3242  1.0409  1.0672
  733MOL0     H 1141  11.128   7.373   6.385  0.7551  1.1913  0.8710
  733MOL0     H 1142  11.549   7.369   6.431  0.6829  0.9451 -0.2338
  733MOL0     H 1143  11.558   7.391   6.259 -0.8853  0.2554 -0.8356
  733MOL0     H 1144  11.545   7.633   6.444  0.8139  0.9654  0.8053
  733MOL0     H 1145  11.547   7.650   6.287  1.0644  1.0181  0.0500
  733MOL0     H 1146  11.768   7.597   6.466 -1.1765  0.2369  1.8489
  733MOL0     H 1147  11.761   7.465   6.351  2.3811  1.0175 -1.7895
  733MOL0     H 1148  11.919   7.631   6.295 -0.1526  0.1592  0.7446
  733MOL0     H 1149  11.792   7.760   6.300  0.3742 -0.1274  1.9617
  733MOL0     H 1150  11.769   7.618   5.899  0.3322  0.8037 -0.2429
  733MOL0     H 1151  11.507   7.189   6.300 -0.3345  2.4333 -0.2510
  733MOL0     H 1152  11.517   6.994   6.180  0.1424 -1.2344 -0.4529
  733MOL0     H 1153  11.465   6.886   6.318  0.2699 -2.9270 -1.7859
  733MOL0     H 1154  11.381   6.897   6.157 -0.1177  0.2593  0.4324
  734MOL0     O 1155   3.346   7.426   9.507 -0.4936  0.4820 -0.2586
  734MOL0     C 1156   3.329   7.318   9.444  0.8371 -0.2497 -0.2412
  734MOL0     O 1157   3.428   7.239   9.408 -0.4332 -0.0748  0.2026
  734MOL0     C 1158   3.562   7.250   9.438 -0.5394 -0.5589  0.2302
  734MOL0     C 1159   3.625   7.343   9.520  0.5488 -0.3823  0.4218
  734MOL0     C 1160   3.762   7.342   9.536 -0.5308  0.0887  0.0281
  734MOL0     C 1161   3.845   7.246   9.469 -0.2723  0.5419  0.4341
  734MOL0     O 1162   3.979   7.246   9.496 -0.5304  0.1463 -0.5634
  734MOL0     C 1163   4.035   7.296   9.619  1.0314  0.7783  0.6177
  734MOL0     C 1164   4.187   7.271   9.643  0.5841  0.5148  0.8330
  734MOL0     C 1165   4.279   7.333   9.530 -0.0079  0.4247  0.2474
  734MOL0     C 1166   4.434   7.336   9.558  0.8303 -0.4115 -0.6765
  734MOL0     C 1167   4.519   7.387   9.439 -0.2915 -0.6634 -0.2159
  734MOL0     C 1168   4.668   7.366   9.470 -1.5038 -0.4226 -0.3478
  734MOL0     C 1169   4.741   7.395   9.341  0.0361  0.2220 -0.0585
  734MOL0     C 1170   4.891   7.404   9.370 -0.4463  0.1952  0.1808
  734MOL0     N 1171   4.962   7.467   9.254 -1.2265  0.0921 -0.5494
  734MOL0     C 1172   4.976   7.412   9.132 -0.2789 -0.3842  0.4185
  734MOL0     C 1173   5.070   7.495   9.068 -0.1757  0.6121 -0.1577
  734MOL0     C 1174   5.130   7.494   8.934  1.1003 -0.3361 -0.0605
  734MOL0     C 1175   5.119   7.366   8.857 -0.2994  0.6053  1.4710
  734MOL0     C 1176   5.164   7.386   8.714 -0.0776 -0.0288 -0.0484
  734MOL0     C 1177   5.317   7.414   8.697  0.5147  0.7028 -0.2709
  734MOL0     O 1178   5.347   7.368   8.564  0.2398  0.1937 -0.8136
  734MOL0     C 1179   5.488   7.340   8.552  0.9228 -0.1908 -0.1177
  734MOL0     C 1180   5.519   7.208   8.558 -0.2107  0.9803 -0.3048
  734MOL0     C 1181   5.649   7.162   8.546 -0.0959  0.1929  0.8550
  734MOL0     C 1182   5.661   7.013   8.575 -0.6960 -0.1082 -0.9536
  734MOL0     C 1183   5.749   7.250   8.502 -0.2897 -0.4389 -0.4105
  734MOL0     C 1184   5.893   7.215   8.483  0.7352 -0.1564 -0.4921
  734MOL0     O 1185   5.964   7.290   8.388  0.1248 -0.1865 -0.1539
  734MOL0     C 1186   6.100   7.304   8.397  0.2491 -0.2602 -0.3592
  734MOL0     C 1187   6.171   7.316   8.276 -0.2101  0.0366  0.3179
  734MOL0     C 1188   6.310   7.340   8.278  0.0906 -0.3395  0.0375
  734MOL0     C 1189   6.380   7.361   8.398 -0.2565  0.9409  0.4515
  734MOL0     O 1190   6.515   7.390   8.380  0.0901  0.3712  0.8621
  734MOL0     C 1191   6.576   7.457   8.491 -0.2466 -0.4394 -0.3088
  734MOL0     C 1192   6.731   7.493   8.474 -0.0167 -0.1926 -0.7947
  734MOL0     C 1193   6.814   7.369   8.500 -0.4233  0.5880  0.2455
  734MOL0     C 1194   6.961   7.414   8.485 -0.3083 -0.1599  0.5298
  734MOL0     C 1195   7.056   7.306   8.522  1.0372 -0.1147  0.0803
  734MOL0     C 1196   7.196   7.356   8.550 -0.3802  0.1017  0.3149
  734MOL0     C 1197   7.285   7.238   8.596  0.1705  0.2797 -1.4436
  734MOL0     C 1198   7.424   7.273   8.651  0.4143  0.0715  0.5410
  734MOL0    Cl 1199   7.505   7.114   8.676 -0.0988 -0.6074 -0.2337
  734MOL0     C 1200   6.302   7.362   8.523 -0.0364  0.5797 -0.5310
  734MOL0     C 1201   6.161   7.332   8.521 -0.7480 -0.3038 -0.2873
  734MOL0     O 1202   5.945   7.139   8.561 -0.1077  0.9054  0.5155
  734MOL0     C 1203   5.709   7.388   8.492  0.4795  0.3394  0.2038
  734MOL0     C 1204   5.580   7.432   8.521  1.0916 -0.0875  0.6143
  734MOL0     N 1205   5.109   7.590   9.164  0.4437 -0.0816  0.4782
  734MOL0     N 1206   5.041   7.574   9.265  0.0744 -0.8071 -0.8824
  734MOL0     C 1207   3.784   7.151   9.381  0.1587 -0.2123 -0.4734
  734MOL0     C 1208   3.644   7.156   9.364  0.6125 -0.0784 -1.1217
  734MOL0     C 1209   3.191   7.272   9.415  0.2611  0.0633 -0.2839
  734MOL0     C 1210   3.174   7.140   9.380  0.4991 -0.1985  0.1036
  734MOL0     C 1211   3.052   7.093   9.330  0.0666  0.1757 -0.0759
  734MOL0     C 1212   2.937   7.175   9.340  0.7130 -0.5198 -0.5068
  734MOL0     O 1213   2.811   7.146   9.293  0.3928 -0.1706  0.0280
  734MOL0     C 1214   2.807   7.033   9.201  0.6865 -0.7746 -0.0026
  734MOL0     C 1215   2.688   7.056   9.112  0.6724 -0.1076  0.7316
  734MOL0     C 1216   2.673   6.942   9.020 -0.4055  0.2798 -0.1180
  734MOL0     C 1217   2.575   6.970   8.903 -0.8132  0.4214 -0.6946
  734MOL0     C 1218   2.431   6.990   8.945  0.0106  0.3110 -0.4594
  734MOL0     C 1219   2.324   7.004   8.995  0.9584  1.2669 -0.4206
  734MOL0     C 1220   2.949   7.306   9.378 -0.7138  0.6638 -0.4826
  734MOL0     C 1221   3.077   7.358   9.412  1.0053  1.0609 -0.2790
  734MOL0     C 1222   3.082   7.509   9.462 -0.5692  1.0216 -0.4767
  734MOL0     H 1223   3.559   7.401   9.584  0.3639 -1.1097  0.9078
  734MOL0     H 1224   3.801   7.396   9.621  2.9262 -2.4794  0.2939
  734MOL0     H 1225   3.985   7.246   9.702 -1.2424  0.2202 -0.9798
  734MOL0     H 1226   4.012   7.403   9.617 -2.2692  0.1544 -0.4840
  734MOL0     H 1227   4.211   7.311   9.742 -1.2913 -1.0474  1.9864
  734MOL0     H 1228   4.191   7.162   9.650  0.3726  0.4309 -0.2180
  734MOL0     H 1229   4.266   7.276   9.437 -4.6699 -0.2795  1.0854
  734MOL0     H 1230   4.243   7.436   9.523 -1.3670 -0.1223 -1.8346
  734MOL0     H 1231   4.456   7.391   9.650  2.7096 -3.1940  0.6708
  734MOL0     H 1232   4.463   7.232   9.578  0.8166 -0.7433 -2.2776
  734MOL0     H 1233   4.492   7.492   9.428 -1.9393 -0.9746  0.5274
  734MOL0     H 1234   4.500   7.337   9.343  2.5841 -1.0516 -0.6843
  734MOL0     H 1235   4.695   7.427   9.557 -3.7329  0.4870 -0.2268
  734MOL0     H 1236   4.710   7.270   9.501  0.6604  0.5027 -0.2503
  734MOL0     H 1237   4.699   7.489   9.304 -1.6227 -0.4713 -0.0095
  734MOL0     H 1238   4.719   7.331   9.255 -1.9652  2.2904 -1.2028
  734MOL0     H 1239   4.917   7.471   9.452  2.3746  0.3498 -0.7293
  734MOL0     H 1240   4.941   7.307   9.384  1.1506  0.6263 -1.9495
  734MOL0     H 1241   4.916   7.329   9.097 -1.0352  1.6552 -3.7738
  734MOL0     H 1242   5.234   7.529   8.930  1.1761 -0.6647 -1.9165
  734MOL0     H 1243   5.083   7.576   8.880 -0.3081  0.1985  1.8812
  734MOL0     H 1244   5.164   7.281   8.910 -1.3143 -1.2191 -0.4382
  734MOL0     H 1245   5.015   7.334   8.859 -0.1630 -0.1251 -0.5462
  734MOL0     H 1246   5.135   7.296   8.658  0.0569  0.8239 -1.5573
  734MOL0     H 1247   5.103   7.469   8.677 -0.2876 -1.0619 -2.2048
  734MOL0     H 1248   5.325   7.523   8.704 -1.5860  0.8128  2.3158
  734MOL0     H 1249   5.381   7.376   8.777 -0.7380  1.8147  1.3397
  734MOL0     H 1250   5.431   7.151   8.588  1.8814 -3.6339 -1.9120
  734MOL0     H 1251   5.565   6.962   8.569  0.9012 -3.1375 -3.3252
  734MOL0     H 1252   5.716   6.991   8.668 -1.2461  1.7682 -0.1156
  734MOL0     H 1253   5.716   6.968   8.492  0.1602  1.5047 -1.3120
  734MOL0     H 1254   6.124   7.327   8.179 -0.8657 -1.2619  0.4775
  734MOL0     H 1255   6.361   7.351   8.183 -1.0327 -1.9461 -0.7961
  734MOL0     H 1256   6.529   7.556   8.503  2.7669  0.8298  2.5154
  734MOL0     H 1257   6.558   7.402   8.584 -2.4520 -1.5587 -1.3316
  734MOL0     H 1258   6.745   7.534   8.374  4.3321 -0.9856 -0.6918
  734MOL0     H 1259   6.769   7.561   8.551 -2.2087  1.3550 -0.9680
  734MOL0     H 1260   6.797   7.289   8.426  1.9201 -0.9465  1.2293
  734MOL0     H 1261   6.796   7.329   8.600  0.7137  0.9680  0.6179
  734MOL0     H 1262   6.989   7.496   8.551 -2.4561  1.9647 -0.9956
  734MOL0     H 1263   6.983   7.451   8.384  0.3876 -0.8054  0.4444
  734MOL0     H 1264   7.015   7.262   8.614 -1.4598  0.7574 -0.5189
  734MOL0     H 1265   7.054   7.223   8.451 -2.5479  0.0886 -0.2353
  734MOL0     H 1266   7.192   7.437   8.624 -2.9977 -0.2272  0.6229
  734MOL0     H 1267   7.228   7.397   8.454 -0.5967  1.3019  0.7312
  734MOL0     H 1268   7.295   7.172   8.509  2.2375 -1.2774 -0.1184
  734MOL0     H 1269   7.230   7.189   8.676  1.3363  2.0998  0.5820
  734MOL0     H 1270   7.408   7.331   8.743  0.2146  2.5617 -0.9951
  734MOL0     H 1271   7.467   7.336   8.573 -1.2624  0.8992  0.2345
  734MOL0     H 1272   6.354   7.396   8.612  0.2320  0.9085 -0.8061
  734MOL0     H 1273   6.103   7.342   8.612 -1.3124  0.9305 -0.7665
  734MOL0     H 1274   5.786   7.457   8.459  0.2081 -0.1396 -1.4934
  734MOL0     H 1275   5.549   7.536   8.518 -2.9302 -1.1534 -1.4275
  734MOL0     H 1276   3.835   7.062   9.343 -2.4337 -1.8040 -0.4417
  734MOL0     H 1277   3.598   7.074   9.308  0.0330 -0.2073 -0.4627
  734MOL0     H 1278   3.255   7.069   9.387 -0.9675 -2.0791 -0.8584
  734MOL0     H 1279   3.036   6.993   9.291  1.5036 -0.8248  1.7359
  734MOL0     H 1280   2.901   7.027   9.145  1.8915  0.3920  1.7866
  734MOL0     H 1281   2.796   6.937   9.252  1.2924 -1.8356 -1.7685
  734MOL0     H 1282   2.710   7.144   9.050  3.4752 -1.6287 -0.6026
  734MOL0     H 1283   2.596   7.075   9.170  1.4120  0.5016  1.7383
  734MOL0     H 1284   2.769   6.922   8.970 -0.0776  0.3899  0.4648
  734MOL0     H 1285   2.640   6.852   9.073 -2.7637 -0.2654 -2.3197
  734MOL0     H 1286   2.577   6.881   8.840  1.2577  0.5284 -0.8370
  734MOL0     H 1287   2.609   7.054   8.842  0.6394  0.7160  0.4471
  734MOL0     H 1288   2.232   7.002   9.050  0.3338 -1.9174 -1.3357
  734MOL0     H 1289   2.860   7.367   9.389 -0.8142  0.1411  2.5596
  734MOL0     H 1290   2.993   7.567   9.437  1.5577  4.4160 -0.8400
  734MOL0     H 1291   3.098   7.517   9.570  0.5493  1.7053 -0.6790
  734MOL0     H 1292   3.157   7.571   9.413 -0.2091  1.3891  0.5179
  735MOL0     O 1293   6.787   7.628   7.464 -1.0013 -0.0176 -0.3914
  735MOL0     C 1294   6.739   7.514   7.479  0.4792 -0.9846 -0.1871
  735MOL0     O 1295   6.796   7.408   7.546  0.3164 -0.8950  0.1537
  735MOL0     C 1296   6.930   7.401   7.564  0.0271 -0.4257  0.2899
  735MOL0     C 1297   6.987   7.377   7.692 -0.2148  0.2974 -0.1214
  735MOL0     C 1298   7.125   7.358   7.701  0.1373  0.0802  0.3830
  735MOL0     C 1299   7.214   7.360   7.588  0.1454  0.1958 -0.0256
  735MOL0     O 1300   7.343   7.330   7.589 -0.3724 -0.1484 -0.3109
  735MOL0     C 1301   7.407   7.323   7.724  0.8601  0.3989  0.8227
  735MOL0     C 1302   7.557   7.328   7.721 -0.8389 -0.8927 -0.1066
  735MOL0     C 1303   7.616   7.474   7.676 -0.4993  0.6705  0.1849
  735MOL0     C 1304   7.766   7.493   7.704  0.2872 -0.3221  0.2577
  735MOL0     C 1305   7.845   7.605   7.633  1.5958 -0.1641 -0.4839
  735MOL0     C 1306   7.991   7.594   7.675  0.5961 -0.2943  0.3722
  735MOL0     C 1307   8.072   7.723   7.645  0.5479  0.0597  0.0774
  735MOL0     C 1308   8.090   7.733   7.492  0.7383 -0.4447  0.7696
  735MOL0     N 1309   8.194   7.835   7.456  0.3070 -0.0898  0.4163
  735MOL0     C 1310   8.200   7.962   7.503 -0.2628  0.7167 -0.1525
  735MOL0     C 1311   8.293   8.034   7.430 -0.1293 -0.3786  0.9049
  735MOL0     C 1312   8.326   8.176   7.444 -0.1329 -0.4330 -0.0787
  735MOL0     C 1313   8.215   8.265   7.397 -0.3084 -0.5804 -0.1714
  735MOL0     C 1314   8.258   8.411   7.380  0.0470  0.6641 -0.9807
  735MOL0     C 1315   8.136   8.516   7.381 -0.0912  1.3386  0.0669
  735MOL0     O 1316   8.059   8.512   7.502 -0.8642 -0.3605  0.3788
  735MOL0     C 1317   8.106   8.556   7.618 -1.0205 -0.1801 -0.5856
  735MOL0     C 1318   8.038   8.516   7.728  0.6249  0.6348  0.1653
  735MOL0     C 1319   8.070   8.546   7.860 -0.1179 -0.5306  0.3911
  735MOL0     C 1320   7.988   8.471   7.963 -0.5469 -0.2503  0.2205
  735MOL0     C 1321   8.185   8.632   7.881 -0.4222 -0.0136 -1.0346
  735MOL0     C 1322   8.262   8.656   8.011  0.4324  0.2627  0.8736
  735MOL0     O 1323   8.348   8.767   8.023 -0.2027 -0.1061  0.2065
  735MOL0     C 1324   8.437   8.763   8.126 -0.7300  0.1977 -0.9179
  735MOL0     C 1325   8.401   8.797   8.254  0.5985  0.1403  0.6364
  735MOL0     C 1326   8.489   8.768   8.367 -0.2986 -0.0767  0.6838
  735MOL0     C 1327   8.617   8.724   8.337  0.0484 -0.3275 -0.7506
  735MOL0     O 1328   8.710   8.696   8.432 -0.0737 -0.1516 -0.6980
  735MOL0     C 1329   8.652   8.623   8.545 -0.4068 -0.3506 -0.8043
  735MOL0     C 1330   8.761   8.572   8.640  0.1930 -0.3181 -0.9279
  735MOL0     C 1331   8.853   8.466   8.580 -0.2376  0.7858 -0.2931
  735MOL0     C 1332   8.955   8.525   8.483 -0.0934 -0.0197  0.2822
  735MOL0     C 1333   9.070   8.433   8.445  0.3748  0.5668  0.9165
  735MOL0     C 1334   9.169   8.430   8.560 -0.1824  0.4443  0.1170
  735MOL0     C 1335   9.284   8.330   8.528 -0.2753  0.3270 -0.2735
  735MOL0     C 1336   9.418   8.354   8.610 -0.1413 -0.1580  0.3713
  735MOL0    Cl 1337   9.439   8.291   8.780 -0.3005  0.1180  0.2072
  735MOL0     C 1338   8.657   8.707   8.208 -0.9000 -0.4268  0.2112
  735MOL0     C 1339   8.562   8.717   8.105  0.0613 -0.0663  0.1143
  735MOL0     O 1340   8.229   8.582   8.101 -1.1192 -0.3979 -0.6173
  735MOL0     C 1341   8.246   8.689   7.764  0.2220  0.0629  1.0133
  735MOL0     C 1342   8.212   8.652   7.629 -1.0656  1.2001  0.2050
  735MOL0     N 1343   8.336   7.943   7.331 -0.6641  0.0090 -0.6025
  735MOL0     N 1344   8.265   7.834   7.342  0.4554  0.1868 -0.4585
  735MOL0     C 1345   7.158   7.389   7.474 -0.3077  0.3802  0.8141
  735MOL0     C 1346   7.023   7.411   7.457  0.2095  0.4507 -0.5849
  735MOL0     C 1347   6.591   7.495   7.442 -0.3246 -0.2386 -0.6197
  735MOL0     C 1348   6.577   7.366   7.378  0.7645 -0.6112  1.0863
  735MOL0     C 1349   6.451   7.327   7.328  0.2614 -0.2595  0.2602
  735MOL0     C 1350   6.339   7.417   7.351  0.0167  0.7217  0.1549
  735MOL0     O 1351   6.214   7.369   7.317 -0.1599 -0.0507 -0.6766
  735MOL0     C 1352   6.098   7.395   7.396 -0.6898 -0.2661  0.1288
  735MOL0     C 1353   5.977   7.436   7.313  0.0155 -0.2639  0.3376
  735MOL0     C 1354   5.848   7.424   7.390 -0.5874 -0.3409 -0.0428
  735MOL0     C 1355   5.785   7.561   7.437 -0.6378  0.4441 -0.9156
  735MOL0     C 1356   5.707   7.637   7.345 -0.1262  1.3792  1.0556
  735MOL0     C 1357   5.665   7.704   7.259 -0.3300 -0.3375  0.0953
  735MOL0     C 1358   6.356   7.540   7.419 -0.1360 -0.1133  1.1610
  735MOL0     C 1359   6.484   7.589   7.455 -1.2394  0.5167 -0.3372
  735MOL0     C 1360   6.488   7.725   7.510  0.0654  0.9408 -0.5126
  735MOL0     H 1361   6.914   7.372   7.772  0.1910  1.8343  0.3670
  735MOL0     H 1362   7.165   7.338   7.800 -0.4107 -0.1107  0.5680
  735MOL0     H 1363   7.378   7.228   7.770 -1.2887 -0.9012 -2.8404
  735MOL0     H 1364   7.369   7.408   7.783  2.2360  2.1951 -0.7333
  735MOL0     H 1365   7.579   7.306   7.826 -1.6174  1.8569  0.7207
  735MOL0     H 1366   7.588   7.249   7.652  2.0375 -0.9815  1.1661
  735MOL0     H 1367   7.591   7.489   7.571  1.0692  1.4851 -0.1058
  735MOL0     H 1368   7.551   7.550   7.721  2.2487  5.4721 -3.0635
  735MOL0     H 1369   7.777   7.513   7.811  2.5804  1.4718 -0.2226
  735MOL0     H 1370   7.828   7.404   7.692  2.6934  1.2343  0.3258
  735MOL0     H 1371   7.799   7.703   7.646  0.9906 -0.4004 -0.8106
  735MOL0     H 1372   7.849   7.573   7.528 -0.7090  0.5610 -0.8503
  735MOL0     H 1373   7.989   7.592   7.785  2.7281 -0.4050  0.4401
  735MOL0     H 1374   8.038   7.505   7.632  0.0562  0.2583 -1.4399
  735MOL0     H 1375   8.173   7.706   7.685 -0.7358 -0.5865  3.3883
  735MOL0     H 1376   8.022   7.807   7.694 -0.8146 -0.5984 -0.1344
  735MOL0     H 1377   8.134   7.640   7.454  0.9789  0.3369 -0.9775
  735MOL0     H 1378   7.989   7.749   7.454  1.8268 -0.4530 -2.4635
  735MOL0     H 1379   8.130   7.998   7.577 -0.3187  0.3837 -0.0439
  735MOL0     H 1380   8.413   8.193   7.380  0.6609 -0.3442  0.9919
  735MOL0     H 1381   8.354   8.190   7.549 -3.0304 -0.6944  0.8174
  735MOL0     H 1382   8.185   8.221   7.301 -0.6208  1.8927 -1.2902
  735MOL0     H 1383   8.125   8.259   7.458 -0.0218 -1.7229  0.1623
  735MOL0     H 1384   8.328   8.443   7.457 -1.4181 -0.4099  0.8664
  735MOL0     H 1385   8.317   8.405   7.288  0.7308  1.0104 -0.5668
  735MOL0     H 1386   8.176   8.614   7.353  1.2838  0.2927 -1.9029
  735MOL0     H 1387   8.079   8.484   7.294  2.0228  1.8850 -1.6156
  735MOL0     H 1388   7.947   8.461   7.705 -0.1703  2.0966 -0.3157
  735MOL0     H 1389   7.978   8.532   8.054  0.6851  0.0955  0.1391
  735MOL0     H 1390   8.047   8.383   7.989 -0.7960 -0.6462 -0.5273
  735MOL0     H 1391   7.890   8.446   7.921  0.1613 -0.3332 -1.4582
  735MOL0     H 1392   8.304   8.844   8.267 -0.1423 -1.3102  0.5932
  735MOL0     H 1393   8.453   8.797   8.465 -2.0941  0.8762 -0.2141
  735MOL0     H 1394   8.591   8.695   8.600  0.7455 -0.3170  0.4930
  735MOL0     H 1395   8.590   8.543   8.503  0.2668 -0.1119 -2.3495
  735MOL0     H 1396   8.817   8.661   8.668 -1.7302  0.0807  2.0073
  735MOL0     H 1397   8.709   8.533   8.728  0.5683  1.5384  0.1609
  735MOL0     H 1398   8.788   8.391   8.533 -0.1837 -1.2681  2.6564
  735MOL0     H 1399   8.904   8.424   8.666  0.3510  1.9728 -0.0469
  735MOL0     H 1400   9.001   8.612   8.530  3.5579  0.1999 -3.2278
  735MOL0     H 1401   8.898   8.549   8.393 -1.5643  2.4237  1.7658
  735MOL0     H 1402   9.045   8.329   8.423 -0.9724  1.0313  0.1676
  735MOL0     H 1403   9.112   8.468   8.350 -0.0992 -0.4226  0.3247
  735MOL0     H 1404   9.119   8.405   8.654 -0.2725 -0.7654 -0.2405
  735MOL0     H 1405   9.209   8.531   8.572 -0.9045  0.6590  0.8209
  735MOL0     H 1406   9.313   8.350   8.424 -0.2314 -1.6722 -0.7019
  735MOL0     H 1407   9.254   8.225   8.533 -1.3999  0.6993  1.4135
  735MOL0     H 1408   9.437   8.462   8.617  2.9565 -0.6993  1.7549
  735MOL0     H 1409   9.501   8.302   8.562  0.6267 -0.2915  1.7922
  735MOL0     H 1410   8.763   8.693   8.186 -0.8305  1.9685 -1.4106
  735MOL0     H 1411   8.585   8.708   7.999 -0.2649  2.3788 -0.2046
  735MOL0     H 1412   8.323   8.765   7.768 -0.1223  0.6802 -1.8873
  735MOL0     H 1413   8.279   8.692   7.553  0.8263  2.2180  2.2709
  735MOL0     H 1414   7.217   7.393   7.384  1.3360 -4.0010  1.4236
  735MOL0     H 1415   6.996   7.424   7.353  1.2254 -2.6990 -1.3665
  735MOL0     H 1416   6.667   7.308   7.361 -0.3444 -1.3392 -3.5649
  735MOL0     H 1417   6.433   7.234   7.275 -2.7972  0.9442 -1.0665
  735MOL0     H 1418   6.075   7.305   7.454 -0.6413 -0.7996 -0.6625
  735MOL0     H 1419   6.116   7.469   7.474  1.4224 -0.1168 -0.4305
  735MOL0     H 1420   5.982   7.373   7.224  0.9776 -0.6338  0.6406
  735MOL0     H 1421   5.996   7.538   7.280  1.5274 -1.1559 -1.7957
  735MOL0     H 1422   5.781   7.372   7.322  0.4995 -0.8627 -0.7489
  735MOL0     H 1423   5.852   7.358   7.478  1.1258  0.0974  0.2452
  735MOL0     H 1424   5.870   7.625   7.463 -0.7618  0.5408 -0.7479
  735MOL0     H 1425   5.733   7.547   7.532  0.1946 -0.7985 -0.6125
  735MOL0     H 1426   5.649   7.770   7.176 -0.2034 -0.6902 -0.2124
  735MOL0     H 1427   6.270   7.604   7.411 -0.4977 -0.6765  0.4853
  735MOL0     H 1428   6.508   7.802   7.434 -1.9212  1.3191 -0.7063
  735MOL0     H 1429   6.390   7.748   7.553  1.0742 -0.1830  2.6398
  735MOL0     H 1430   6.557   7.733   7.595 -0.8542  0.9495  0.2534
  736MOL0     O 1431  10.081   7.375   5.821  0.6556 -0.2325 -0.3970
  736MOL0     C 1432  10.107   7.488   5.781  0.0315 -0.8324 -0.5782
  736MOL0     O 1433  10.014   7.585   5.753 -0.1338 -0.1661  0.4159
  736MOL0     C 1434   9.882   7.563   5.794 -0.3985 -1.0383 -0.2209
  736MOL0     C 1435   9.776   7.591   5.712  0.2574 -0.3728  0.7432
  736MOL0     C 1436   9.642   7.579   5.756 -0.8249  0.4923 -0.5489
  736MOL0     C 1437   9.611   7.556   5.887 -0.6618  0.9186  0.3214
  736MOL0     O 1438   9.476   7.542   5.911  0.1205  0.1697  0.3705
  736MOL0     C 1439   9.438   7.494   6.042 -0.5068 -0.4050 -0.9353
  736MOL0     C 1440   9.287   7.510   6.055  0.3069 -0.5366 -0.6426
  736MOL0     C 1441   9.200   7.441   5.951 -0.3653 -0.1051 -0.2905
  736MOL0     C 1442   9.053   7.467   5.966 -0.8073 -0.1469 -0.5400
  736MOL0     C 1443   8.988   7.396   5.848 -1.1374 -0.3501 -0.5978
  736MOL0     C 1444   8.840   7.365   5.881 -0.5890  0.1475  0.3219
  736MOL0     C 1445   8.780   7.282   5.770 -1.0258  0.1571 -0.1856
  736MOL0     C 1446   8.627   7.272   5.792 -0.4184  0.2318 -0.2250
  736MOL0     N 1447   8.553   7.239   5.671  0.6207 -0.7063 -0.7047
  736MOL0     C 1448   8.477   7.330   5.598  0.3237  0.1252  0.0214
  736MOL0     C 1449   8.425   7.256   5.504  0.1258 -0.6238 -0.4760
  736MOL0     C 1450   8.337   7.299   5.391  0.5820 -0.2507 -0.3163
  736MOL0     C 1451   8.417   7.298   5.266 -0.0912 -0.7444 -0.0246
  736MOL0     C 1452   8.540   7.387   5.278 -0.4184 -0.9736 -0.0310
  736MOL0     C 1453   8.674   7.298   5.290 -0.7114  0.9162  0.3399
  736MOL0     O 1454   8.794   7.372   5.267  0.1149 -0.0181 -0.8850
  736MOL0     C 1455   8.897   7.354   5.351 -0.4678  0.9978 -0.7629
  736MOL0     C 1456   8.926   7.242   5.433  0.0620  0.6875  0.4691
  736MOL0     C 1457   9.042   7.225   5.518  0.0326  0.0996  0.4206
  736MOL0     C 1458   9.055   7.092   5.583  0.0275  0.4349  0.2140
  736MOL0     C 1459   9.128   7.338   5.529 -0.1370  1.0297  0.1613
  736MOL0     C 1460   9.255   7.338   5.610  0.4947  0.1082 -0.0265
  736MOL0     O 1461   9.276   7.221   5.685 -0.5337  0.3498  0.2148
  736MOL0     C 1462   9.389   7.196   5.760  0.0166 -0.1051 -0.0647
  736MOL0     C 1463   9.513   7.251   5.728 -0.2634 -0.8004 -0.6023
  736MOL0     C 1464   9.634   7.212   5.791 -0.0782 -0.0877  0.1078
  736MOL0     C 1465   9.625   7.134   5.908  0.0647 -1.1713  0.2760
  736MOL0     O 1466   9.734   7.086   5.977 -0.7967 -0.6478 -0.7740
  736MOL0     C 1467   9.860   7.160   5.982  0.4239  0.5289  0.1703
  736MOL0     C 1468   9.930   7.122   6.112 -0.0688  0.7749 -0.1964
  736MOL0     C 1469  10.052   7.206   6.135  0.1165 -0.7933  0.7365
  736MOL0     C 1470  10.112   7.186   6.267 -0.1627 -0.3721 -0.0068
  736MOL0     C 1471  10.234   7.257   6.298 -0.7609 -0.0186  0.2807
  736MOL0     C 1472  10.237   7.413   6.283 -0.0390  0.1471  1.0278
  736MOL0     C 1473  10.379   7.463   6.305  0.4065 -0.1550  0.0284
  736MOL0     C 1474  10.373   7.619   6.278 -0.1959  0.4776  0.5037
  736MOL0    Cl 1475  10.276   7.707   6.401  0.1466  0.0360  0.0394
  736MOL0     C 1476   9.496   7.082   5.947 -0.0957  0.1567  0.4846
  736MOL0     C 1477   9.377   7.110   5.869 -0.1795 -0.2039  0.9821
  736MOL0     O 1478   9.318   7.441   5.610  0.2802  0.1297  0.2075
  736MOL0     C 1479   9.110   7.449   5.448 -0.2651 -1.0856  0.2369
  736MOL0     C 1480   8.995   7.460   5.368  0.4916  0.1083  0.1990
  736MOL0     N 1481   8.463   7.126   5.520  0.1907  0.3295 -0.4508
  736MOL0     N 1482   8.534   7.115   5.623 -0.5006 -0.1349  0.0401
  736MOL0     C 1483   9.721   7.529   5.973  0.6704 -0.3088  0.0101
  736MOL0     C 1484   9.854   7.543   5.927  0.8034  0.1855  0.5408
  736MOL0     C 1485  10.245   7.528   5.764  0.2119  0.1140 -0.4089
  736MOL0     C 1486  10.272   7.648   5.714  0.6506  0.1448  0.4289
  736MOL0     C 1487  10.404   7.694   5.691 -0.3224 -0.1722 -0.2935
  736MOL0     C 1488  10.507   7.603   5.721  0.0828  0.1168 -0.4746
  736MOL0     O 1489  10.641   7.626   5.699 -0.4768 -0.3153 -0.5623
  736MOL0     C 1490  10.673   7.756   5.639  0.2583 -0.6078 -0.2966
  736MOL0     C 1491  10.700   7.877   5.736 -0.0604 -0.6593  0.3248
  736MOL0     C 1492  10.829   7.858   5.818 -0.4511  0.4458  0.2766
  736MOL0     C 1493  10.839   7.977   5.924  0.4823 -0.4008 -0.4829
  736MOL0     C 1494  10.971   7.946   5.986  0.6662 -0.2291 -0.0073
  736MOL0     C 1495  11.081   7.927   6.037 -0.4110 -0.7932 -0.0198
  736MOL0     C 1496  10.481   7.490   5.794  0.0904  0.7377  0.7319
  736MOL0     C 1497  10.352   7.444   5.814  0.6489 -0.5652 -1.0955
  736MOL0     C 1498  10.340   7.306   5.875 -0.3598  0.1324 -0.1289
  736MOL0     H 1499   9.797   7.608   5.607  0.6652  3.3429  1.3018
  736MOL0     H 1500   9.562   7.581   5.682 -3.3319 -0.2152  1.9258
  736MOL0     H 1501   9.485   7.552   6.123  0.7943 -0.0460 -1.9200
  736MOL0     H 1502   9.470   7.390   6.053  1.4442 -0.0838 -2.8083
  736MOL0     H 1503   9.248   7.471   6.149  0.6783 -0.5044 -0.4726
  736MOL0     H 1504   9.267   7.617   6.048  0.8619 -0.4901 -1.7816
  736MOL0     H 1505   9.229   7.483   5.854  0.8356 -0.4614 -0.1033
  736MOL0     H 1506   9.226   7.335   5.957 -0.7159 -0.1710  0.1105
  736MOL0     H 1507   9.020   7.420   6.060  3.2101 -0.7227  0.7996
  736MOL0     H 1508   9.031   7.574   5.973 -1.9200 -0.4619  2.5850
  736MOL0     H 1509   9.025   7.294   5.837 -2.4107 -0.7120 -1.8164
  736MOL0     H 1510   9.007   7.449   5.754 -1.3156 -1.3693 -1.2215
  736MOL0     H 1511   8.826   7.302   5.969 -2.1993 -3.4365 -2.2462
  736MOL0     H 1512   8.781   7.456   5.887 -1.8130 -0.5889 -0.2464
  736MOL0     H 1513   8.812   7.178   5.779 -2.6918 -0.2979  0.8958
  736MOL0     H 1514   8.807   7.312   5.668  2.3416 -2.0954 -0.1212
  736MOL0     H 1515   8.614   7.200   5.873 -0.4711 -1.2297 -1.4828
  736MOL0     H 1516   8.590   7.361   5.843 -2.1585 -0.4667 -0.1803
  736MOL0     H 1517   8.451   7.432   5.624 -1.1775 -0.7187  2.1405
  736MOL0     H 1518   8.304   7.402   5.406  0.1050 -0.4408 -0.0481
  736MOL0     H 1519   8.248   7.236   5.379  0.3390  0.3755 -1.9984
  736MOL0     H 1520   8.449   7.202   5.226  0.9622  0.3030 -1.8430
  736MOL0     H 1521   8.358   7.329   5.179  1.4838 -1.4416 -1.3902
  736MOL0     H 1522   8.543   7.439   5.182 -2.8915  2.5865  1.5758
  736MOL0     H 1523   8.534   7.466   5.353  1.5242 -1.8878  1.1840
  736MOL0     H 1524   8.678   7.247   5.387  2.4765 -0.2534 -0.2653
  736MOL0     H 1525   8.675   7.221   5.212  2.0928 -1.1819  2.2255
  736MOL0     H 1526   8.856   7.162   5.411  0.2142  0.7204 -0.1349
  736MOL0     H 1527   8.960   7.039   5.575  0.5885 -0.4646 -0.7632
  736MOL0     H 1528   9.080   7.090   5.690  0.5781 -2.0317  0.0998
  736MOL0     H 1529   9.136   7.033   5.539 -0.0571  0.6745 -0.2721
  736MOL0     H 1530   9.522   7.319   5.644 -0.0749  0.9176  0.7485
  736MOL0     H 1531   9.728   7.254   5.759 -0.0117 -0.6134 -0.4000
  736MOL0     H 1532   9.931   7.144   5.900  1.9515  0.1005  1.5225
  736MOL0     H 1533   9.838   7.267   5.977 -0.9553  0.2096 -3.9771
  736MOL0     H 1534   9.854   7.140   6.189 -0.2451 -1.3620  0.1945
  736MOL0     H 1535   9.954   7.015   6.104 -2.3515  0.3329 -3.4401
  736MOL0     H 1536  10.019   7.310   6.131  1.1513 -0.4909 -0.3188
  736MOL0     H 1537  10.124   7.183   6.057  1.1784 -0.6259  1.6505
  736MOL0     H 1538  10.134   7.084   6.299  0.5583  0.4631  2.3192
  736MOL0     H 1539  10.037   7.232   6.331  0.3689 -0.2536  0.5363
  736MOL0     H 1540  10.266   7.227   6.398 -1.8125  0.1683  0.6787
  736MOL0     H 1541  10.308   7.210   6.233  0.6820  1.3458  0.8640
  736MOL0     H 1542  10.170   7.463   6.353  0.8998  0.5439  1.6673
  736MOL0     H 1543  10.198   7.447   6.187 -3.5229 -0.9436  1.9217
  736MOL0     H 1544  10.456   7.421   6.239 -0.1140 -0.5468 -0.3417
  736MOL0     H 1545  10.413   7.441   6.407  0.3920  1.5110  0.4220
  736MOL0     H 1546  10.340   7.638   6.175  1.7271 -1.2707 -0.5018
  736MOL0     H 1547  10.477   7.653   6.281  0.1669 -0.6731  1.3353
  736MOL0     H 1548   9.497   7.007   6.026  1.6459  0.5560  0.8920
  736MOL0     H 1549   9.282   7.067   5.898 -0.5068  0.9044  1.6389
  736MOL0     H 1550   9.177   7.535   5.449 -1.6857  0.3243 -4.2811
  736MOL0     H 1551   8.981   7.557   5.323  0.2634  0.1235  0.3016
  736MOL0     H 1552   9.692   7.497   6.073 -1.0759  0.7954 -0.0996
  736MOL0     H 1553   9.944   7.538   5.988  0.2616 -2.2167  1.2805
  736MOL0     H 1554  10.193   7.720   5.697  1.3091  1.0491  1.0845
  736MOL0     H 1555  10.421   7.788   5.638 -2.2586 -0.0530 -0.7709
  736MOL0     H 1556  10.769   7.743   5.588  1.2288 -0.4770  1.4029
  736MOL0     H 1557  10.605   7.778   5.557  2.0671 -0.1752 -1.7369
  736MOL0     H 1558  10.611   7.899   5.794 -2.0245  0.4172 -2.8266
  736MOL0     H 1559  10.701   7.961   5.666 -2.3745  1.0242  2.1714
  736MOL0     H 1560  10.821   7.761   5.867 -0.3394  0.4662  0.3382
  736MOL0     H 1561  10.912   7.865   5.746  0.8038  2.5235  1.8080
  736MOL0     H 1562  10.753   7.972   5.991 -0.0658  1.3971 -0.9761
  736MOL0     H 1563  10.840   8.077   5.878 -0.8016  0.4276  1.2011
  736MOL0     H 1564  11.178   7.901   6.075 -0.5648 -0.1749  0.8337
  736MOL0     H 1565  10.564   7.424   5.820 -1.0665 -0.7710  0.7354
  736MOL0     H 1566  10.435   7.255   5.895 -1.3788 -2.1357 -0.8004
  736MOL0     H 1567  10.288   7.310   5.972 -0.0313 -1.5265  0.1513
  736MOL0     H 1568  10.288   7.240   5.805 -1.7272  2.5623 -1.5560
  737MOL0     O 1569   2.741   8.819   4.018  0.4417 -0.8131 -0.3805
  737MOL0     C 1570   2.736   8.835   3.893 -0.1269 -0.3045  0.0978
  737MOL0     O 1571   2.825   8.792   3.802 -0.4793 -0.4571  0.2534
  737MOL0     C 1572   2.935   8.712   3.828  0.0703 -0.2791  0.2452
  737MOL0     C 1573   3.038   8.736   3.920  0.3843  0.0346 -0.8803
  737MOL0     C 1574   3.143   8.643   3.926 -0.1673  0.3087  0.0836
  737MOL0     C 1575   3.146   8.521   3.859 -0.0681  0.1475  0.3665
  737MOL0     O 1576   3.249   8.432   3.869  0.5456  0.1120 -0.6235
  737MOL0     C 1577   3.374   8.494   3.833  0.0474  0.1030 -0.1031
  737MOL0     C 1578   3.462   8.456   3.941 -0.9417 -0.2334  0.3716
  737MOL0     C 1579   3.606   8.503   3.916 -0.0940 -0.9223  0.1764
  737MOL0     C 1580   3.690   8.436   4.033  0.2912 -1.0859  0.0133
  737MOL0     C 1581   3.842   8.457   4.027  0.6287 -0.2188  0.3208
  737MOL0     C 1582   3.896   8.407   3.893 -0.5988 -0.7499  0.6832
  737MOL0     C 1583   4.045   8.438   3.899 -0.4765 -0.3760  0.5890
  737MOL0     C 1584   4.122   8.363   3.786  0.0687  0.5189  0.6788
  737MOL0     N 1585   4.209   8.455   3.723 -0.2515 -0.1020  0.1788
  737MOL0     C 1586   4.170   8.563   3.646  1.1389 -0.5767 -0.3716
  737MOL0     C 1587   4.282   8.611   3.582  0.2567 -0.3202 -0.1381
  737MOL0     C 1588   4.292   8.735   3.500 -0.3498 -0.2386 -0.3241
  737MOL0     C 1589   4.365   8.709   3.367  0.5668 -0.5871  0.4003
  737MOL0     C 1590   4.358   8.841   3.291 -0.3027  0.2407 -1.1858
  737MOL0     C 1591   4.397   8.803   3.152 -0.1792 -0.3810  0.0778
  737MOL0     O 1592   4.406   8.924   3.076  0.0430 -0.0617  1.4084
  737MOL0     C 1593   4.302   8.988   3.025  0.4807  0.5356 -0.8834
  737MOL0     C 1594   4.316   9.123   2.994  0.0991  0.6575 -0.4347
  737MOL0     C 1595   4.214   9.201   2.930 -0.3553 -0.9231 -0.0036
  737MOL0     C 1596   4.249   9.345   2.909  0.5313 -0.7426  0.3491
  737MOL0     C 1597   4.094   9.137   2.902  0.0781  0.0377 -0.5979
  737MOL0     C 1598   3.980   9.211   2.844 -0.6883 -0.2455 -0.4824
  737MOL0     O 1599   3.857   9.176   2.876  0.1048 -0.4860 -0.5319
  737MOL0     C 1600   3.751   9.247   2.830  0.6179 -0.5732 -0.0913
  737MOL0     C 1601   3.724   9.380   2.875  0.3823  0.0601  0.0101
  737MOL0     C 1602   3.621   9.457   2.814  0.1287  0.2419 -0.0444
  737MOL0     C 1603   3.531   9.395   2.726  0.4014 -0.0985 -0.3092
  737MOL0     O 1604   3.440   9.470   2.664 -0.2002  0.2355  0.2236
  737MOL0     C 1605   3.319   9.396   2.631 -0.1406  0.3307  0.1884
  737MOL0     C 1606   3.201   9.485   2.654 -0.2093 -0.3333  0.6491
  737MOL0     C 1607   3.079   9.408   2.600  0.4632 -0.2461 -0.6430
  737MOL0     C 1608   2.957   9.483   2.655  0.9669 -0.3510  0.1378
  737MOL0     C 1609   2.829   9.433   2.588 -0.1465 -0.2291 -0.2020
  737MOL0     C 1610   2.709   9.516   2.628 -0.0858 -0.4523  0.3246
  737MOL0     C 1611   2.572   9.452   2.602 -0.4129  0.2940 -0.8362
  737MOL0     C 1612   2.557   9.399   2.456 -0.2474  0.4814 -0.2467
  737MOL0    Cl 1613   2.593   9.533   2.351  0.0170  0.4203 -0.1584
  737MOL0     C 1614   3.559   9.264   2.694  0.4882  0.1219  0.6112
  737MOL0     C 1615   3.666   9.188   2.738  0.6144  1.1510  0.0426
  737MOL0     O 1616   4.007   9.304   2.775 -0.1276  0.1542 -0.2867
  737MOL0     C 1617   4.070   9.004   2.935  0.2975  0.4669 -0.2972
  737MOL0     C 1618   4.177   8.928   2.992 -0.0607 -0.0165  0.3511
  737MOL0     N 1619   4.386   8.529   3.620 -0.9787 -0.8888  0.5179
  737MOL0     N 1620   4.343   8.442   3.700  0.0537 -0.2443  0.1755
  737MOL0     C 1621   3.034   8.499   3.776  0.3062 -0.3662  0.3632
  737MOL0     C 1622   2.927   8.586   3.768 -0.1900 -0.0502  0.8805
  737MOL0     C 1623   2.616   8.898   3.837 -0.3297  0.2385  0.0107
  737MOL0     C 1624   2.527   8.822   3.759 -0.4525 -0.5720  0.7428
  737MOL0     C 1625   2.401   8.877   3.722  0.7229 -0.2421 -0.6065
  737MOL0     C 1626   2.370   9.007   3.764  0.1276  0.5575 -0.6444
  737MOL0     O 1627   2.248   9.057   3.737  0.4051  0.3045 -0.1075
  737MOL0     C 1628   2.208   9.188   3.761 -0.4725  0.6272  0.3821
  737MOL0     C 1629   2.064   9.214   3.718 -0.4770 -0.6157 -0.3756
  737MOL0     C 1630   1.981   9.168   3.842 -0.7301  1.1618 -0.9447
  737MOL0     C 1631   1.932   9.018   3.829 -0.5322 -0.0051 -0.4152
  737MOL0     C 1632   1.790   9.001   3.785  0.0968  0.3736 -0.6166
  737MOL0     C 1633   1.685   8.979   3.734  0.7094  0.5950  0.2930
  737MOL0     C 1634   2.471   9.087   3.831 -0.3758 -0.5885  0.1257
  737MOL0     C 1635   2.584   9.029   3.875 -0.2023  0.1246  0.6255
  737MOL0     C 1636   2.672   9.109   3.964 -0.1141  0.0474  0.0724
  737MOL0     H 1637   3.038   8.830   3.973 -0.8853  0.7850 -2.1324
  737MOL0     H 1638   3.223   8.670   3.995  0.5948 -1.1505 -0.1750
  737MOL0     H 1639   3.376   8.603   3.829  0.9208  0.2336  2.3433
  737MOL0     H 1640   3.415   8.447   3.743 -2.9301  0.2720 -1.6984
  737MOL0     H 1641   3.433   8.496   4.038  3.0044 -3.1084  3.0381
  737MOL0     H 1642   3.453   8.348   3.953 -0.0347 -0.4333 -0.5616
  737MOL0     H 1643   3.639   8.474   3.816  0.4068  0.2649 -0.0267
  737MOL0     H 1644   3.601   8.613   3.917 -0.3648 -0.9155 -0.8048
  737MOL0     H 1645   3.654   8.481   4.126 -0.8803 -1.7024 -0.1206
  737MOL0     H 1646   3.668   8.329   4.031 -1.6066 -0.8407  2.9178
  737MOL0     H 1647   3.889   8.397   4.105 -0.3614 -0.4730  0.7329
  737MOL0     H 1648   3.866   8.560   4.055  1.4474 -0.1654 -0.5304
  737MOL0     H 1649   3.870   8.302   3.878  1.2734 -1.3446  1.3309
  737MOL0     H 1650   3.850   8.463   3.810  1.2307  1.0067  0.7635
  737MOL0     H 1651   4.079   8.399   3.996 -4.3090  1.1268  2.7540
  737MOL0     H 1652   4.064   8.546   3.891 -0.2144 -0.4289  0.4889
  737MOL0     H 1653   4.182   8.281   3.825  0.8235  1.1999  0.9799
  737MOL0     H 1654   4.054   8.317   3.713 -0.9150  1.7285  0.7986
  737MOL0     H 1655   4.070   8.606   3.638  0.3849 -2.2101 -0.1533
  737MOL0     H 1656   4.346   8.813   3.552 -1.9913  0.7938 -0.0962
  737MOL0     H 1657   4.191   8.771   3.478 -0.4438  0.4521  1.1674
  737MOL0     H 1658   4.468   8.685   3.393  0.4141 -0.2311  1.3822
  737MOL0     H 1659   4.315   8.630   3.311 -0.1019 -0.6843  1.1194
  737MOL0     H 1660   4.254   8.874   3.286 -1.7462 -3.2918  1.4993
  737MOL0     H 1661   4.424   8.907   3.348  0.1744 -1.0354 -0.2031
  737MOL0     H 1662   4.495   8.756   3.161  1.6070  2.6427 -1.8115
  737MOL0     H 1663   4.332   8.731   3.103  4.0619 -5.6062  1.1885
  737MOL0     H 1664   4.408   9.162   3.038  1.2362 -2.1159 -0.1379
  737MOL0     H 1665   4.163   9.410   2.931  0.8649  0.2468 -1.1222
  737MOL0     H 1666   4.266   9.373   2.805 -3.9141  2.8159  0.2384
  737MOL0     H 1667   4.335   9.380   2.968  0.6127  1.3429 -0.9162
  737MOL0     H 1668   3.799   9.416   2.945  0.0826 -0.2590  0.4999
  737MOL0     H 1669   3.617   9.565   2.820  0.7488  0.3362 -1.1626
  737MOL0     H 1670   3.314   9.373   2.524 -3.3948  0.4470  0.2051
  737MOL0     H 1671   3.305   9.298   2.678 -0.2058 -1.2790 -2.9249
  737MOL0     H 1672   3.201   9.520   2.758 -1.7076  0.6963  0.3397
  737MOL0     H 1673   3.226   9.572   2.593  1.2365  0.9693  2.9321
  737MOL0     H 1674   3.077   9.303   2.632  1.0262  0.5584  2.4033
  737MOL0     H 1675   3.078   9.415   2.491  0.0907 -2.0210 -0.7991
  737MOL0     H 1676   2.975   9.585   2.620 -1.1346 -1.3108 -4.5382
  737MOL0     H 1677   2.957   9.475   2.764  4.0146  0.3309  0.2865
  737MOL0     H 1678   2.837   9.427   2.479  0.7441  0.9545 -0.2304
  737MOL0     H 1679   2.813   9.330   2.620  0.4869  1.0918  5.3884
  737MOL0     H 1680   2.717   9.600   2.559  0.9815 -0.8755 -0.0911
  737MOL0     H 1681   2.726   9.568   2.722  1.5277 -0.3678  0.0221
  737MOL0     H 1682   2.488   9.522   2.607 -0.5724  0.2350 -2.2020
  737MOL0     H 1683   2.564   9.377   2.681 -0.2670  1.6415  0.4958
  737MOL0     H 1684   2.461   9.349   2.437  0.1336 -0.5486  0.4711
  737MOL0     H 1685   2.634   9.324   2.438 -1.1505 -0.3565 -0.7169
  737MOL0     H 1686   3.499   9.210   2.621  0.0372 -0.0852  1.1347
  737MOL0     H 1687   3.680   9.092   2.689 -0.8494  1.3993 -0.9212
  737MOL0     H 1688   3.978   8.956   2.903  0.1944  0.4976 -0.0504
  737MOL0     H 1689   4.156   8.825   3.020  1.9980 -0.3535  0.8212
  737MOL0     H 1690   3.029   8.400   3.731 -1.3266 -0.2881  0.2823
  737MOL0     H 1691   2.844   8.565   3.701 -1.5789  0.7706  2.2744
  737MOL0     H 1692   2.550   8.719   3.733 -0.4259 -0.4305  0.1748
  737MOL0     H 1693   2.335   8.823   3.655  0.8164 -0.7727 -0.2737
  737MOL0     H 1694   2.226   9.218   3.865  0.1825  0.6861  0.2559
  737MOL0     H 1695   2.276   9.254   3.706  0.5509 -0.8490 -0.1825
  737MOL0     H 1696   2.038   9.171   3.621 -1.9898 -0.6581  0.0318
  737MOL0     H 1697   2.053   9.322   3.707 -1.7194 -0.8087 -1.2030
  737MOL0     H 1698   2.026   9.188   3.940 -2.0597 -0.1989 -0.0146
  737MOL0     H 1699   1.892   9.230   3.857  0.2668  2.2749  0.6845
  737MOL0     H 1700   1.944   8.963   3.922 -3.6277 -2.3344 -1.2184
  737MOL0     H 1701   2.001   8.975   3.755 -1.2165 -0.5884 -0.7287
  737MOL0     H 1702   1.587   8.947   3.703  0.7171  0.9453 -0.0953
  737MOL0     H 1703   2.463   9.193   3.850  1.7270 -0.7588  2.5060
  737MOL0     H 1704   2.779   9.087   3.958 -0.5688 -3.5886  2.3350
  737MOL0     H 1705   2.669   9.216   3.938  0.0510 -0.0152 -0.1999
  737MOL0     H 1706   2.636   9.101   4.067  2.6928  0.8453  1.2048
  738MOL0     O 1707   9.336  10.659  10.088  1.0186  0.0603  0.1143
  738MOL0     C 1708   9.368  10.735  10.176 -0.5107  0.5557 -0.1918
  738MOL0     O 1709   9.338  10.872  10.177  0.5963  0.2550 -0.4147
  738MOL0     C 1710   9.329  10.937  10.056  0.1605 -0.2463 -0.1021
  738MOL0     C 1711   9.241  11.036  10.040  0.5063 -1.2860 -0.9048
  738MOL0     C 1712   9.225  11.112   9.928 -0.1992 -0.1652  0.2593
  738MOL0     C 1713   9.322  11.101   9.820  0.0974 -0.3815 -0.1533
  738MOL0     O 1714   9.308  11.181   9.706  0.1311 -0.6029 -0.1753
  738MOL0     C 1715   9.371  11.145   9.581 -0.1385  0.0521  0.8072
  738MOL0     C 1716   9.325  11.227   9.458 -0.6317 -0.7786 -0.3448
  738MOL0     C 1717   9.386  11.197   9.315  0.1464 -0.3967  0.3837
  738MOL0     C 1718   9.396  11.318   9.219  0.0584  0.4464  0.3901
  738MOL0     C 1719   9.253  11.371   9.187  0.0475  0.0808  0.1509
  738MOL0     C 1720   9.247  11.443   9.049 -0.7935 -0.6402  0.1633
  738MOL0     C 1721   9.107  11.507   9.050  0.1179  0.3583 -0.5470
  738MOL0     C 1722   9.062  11.564   8.915 -0.6959 -0.0640 -0.0615
  738MOL0     N 1723   9.153  11.667   8.868  0.2018  0.7662 -0.4688
  738MOL0     C 1724   9.172  11.698   8.737  0.7179 -0.7406  0.6629
  738MOL0     C 1725   9.250  11.806   8.736 -0.4096  0.2739  0.3767
  738MOL0     C 1726   9.300  11.889   8.624 -0.3880  0.4364 -0.5322
  738MOL0     C 1727   9.445  11.853   8.596  0.7244  0.5733  0.3084
  738MOL0     C 1728   9.505  11.929   8.478 -0.0152  0.6754 -0.8678
  738MOL0     C 1729   9.658  11.932   8.476 -0.1776  0.4375  0.1530
  738MOL0     O 1730   9.739  11.820   8.442 -0.3254  0.2640 -0.4600
  738MOL0     C 1731   9.874  11.840   8.438 -0.0079 -0.2650  0.7135
  738MOL0     C 1732   9.953  11.747   8.359 -0.9239  0.2279  0.7282
  738MOL0     C 1733  10.092  11.753   8.360  0.4136 -0.1890  0.0626
  738MOL0     C 1734  10.175  11.659   8.276 -0.0744 -0.4701 -0.0462
  738MOL0     C 1735  10.160  11.869   8.414  0.9718  0.5038 -0.0256
  738MOL0     C 1736  10.296  11.903   8.383  0.6059  1.1699  0.4995
  738MOL0     O 1737  10.319  12.030   8.356 -0.1528 -0.5192 -0.1915
  738MOL0     C 1738  10.444  12.068   8.310 -0.1389  0.3388 -0.6962
  738MOL0     C 1739  10.479  12.057   8.173  0.2805  0.8704 -0.1464
  738MOL0     C 1740  10.604  12.090   8.133 -0.7719  0.9309 -0.4393
  738MOL0     C 1741  10.703  12.127   8.222 -0.2255 -0.6673  0.2405
  738MOL0     O 1742  10.836  12.164   8.197 -0.1651  0.4025  0.1381
  738MOL0     C 1743  10.887  12.162   8.064  0.9012 -1.2423  0.6785
  738MOL0     C 1744  11.028  12.215   8.058 -0.0287 -0.3838  0.3310
  738MOL0     C 1745  11.126  12.114   8.128  0.4256  0.3066 -0.0349
  738MOL0     C 1746  11.135  12.119   8.282 -0.1141  0.0055  0.4628
  738MOL0     C 1747  11.275  12.070   8.320 -0.1095  0.0999  0.1360
  738MOL0     C 1748  11.272  12.012   8.451 -0.6501  1.0902 -0.0971
  738MOL0     C 1749  11.419  11.974   8.501  0.4764  0.3208 -0.4823
  738MOL0     C 1750  11.485  11.853   8.439  0.0344  0.8135  0.3942
  738MOL0    Cl 1751  11.622  11.799   8.554  0.1109 -0.0666  0.2654
  738MOL0     C 1752  10.662  12.153   8.362 -0.7342  0.5568  0.3340
  738MOL0     C 1753  10.531  12.127   8.402 -0.7250  0.4965  0.9339
  738MOL0     O 1754  10.384  11.817   8.388 -0.0489 -0.3098 -0.6536
  738MOL0     C 1755  10.080  11.953   8.493 -0.4872 -0.8258 -0.0209
  738MOL0     C 1756   9.944  11.948   8.513 -0.2787  0.3180 -0.1966
  738MOL0     N 1757   9.257  11.843   8.860  0.2464 -0.0309  0.0531
  738MOL0     N 1758   9.208  11.759   8.947  0.4313 -0.5590  0.1390
  738MOL0     C 1759   9.427  11.008   9.838  0.2064  0.6805 -0.5559
  738MOL0     C 1760   9.420  10.920   9.952 -0.7068 -0.7737  0.2616
  738MOL0     C 1761   9.435  10.687  10.296 -1.0489 -0.2528 -0.4693
  738MOL0     C 1762   9.462  10.783  10.402  0.3206  0.5188 -0.3192
  738MOL0     C 1763   9.513  10.748  10.525 -0.7980  0.4774 -0.4823
  738MOL0     C 1764   9.564  10.626  10.550  0.7589  0.4435  0.1970
  738MOL0     O 1765   9.620  10.588  10.666 -0.5845 -0.6338 -0.6426
  738MOL0     C 1766   9.538  10.590  10.791  0.2852  0.3122 -0.5154
  738MOL0     C 1767   9.612  10.499  10.891 -0.4030  0.2544  0.1385
  738MOL0     C 1768   9.606  10.353  10.871  0.2090 -0.3801  0.2443
  738MOL0     C 1769   9.704  10.271  10.951 -0.0513 -0.2287  0.9899
  738MOL0     C 1770   9.681  10.273  11.095  0.1894 -0.6160 -0.2141
  738MOL0     C 1771   9.683  10.293  11.212  0.7627 -0.1304  0.8629
  738MOL0     C 1772   9.546  10.529  10.451  0.7688 -0.6496  0.1965
  738MOL0     C 1773   9.481  10.553  10.324 -0.9550 -0.5997  0.4694
  738MOL0     C 1774   9.475  10.442  10.225  0.2412  0.1515 -0.4691
  738MOL0     H 1775   9.172  11.059  10.121 -0.2226 -3.3939 -0.8558
  738MOL0     H 1776   9.139  11.177   9.925  0.5769  0.8425 -0.8362
  738MOL0     H 1777   9.362  11.040   9.553  0.6249 -0.6501  2.9373
  738MOL0     H 1778   9.476  11.163   9.608 -0.1335  0.6816  0.3889
  738MOL0     H 1779   9.215  11.224   9.452 -0.6705  1.0234 -1.2129
  738MOL0     H 1780   9.360  11.327   9.481 -0.0961 -1.4223  1.8220
  738MOL0     H 1781   9.490  11.168   9.329 -0.4235 -1.7828  2.1626
  738MOL0     H 1782   9.338  11.108   9.272  1.3962 -1.4335  1.0648
  738MOL0     H 1783   9.462  11.393   9.262  0.6817 -0.0405  0.3066
  738MOL0     H 1784   9.437  11.281   9.124  3.3914 -0.3235  2.0125
  738MOL0     H 1785   9.229  11.438   9.270 -0.2682 -0.0528  0.1651
  738MOL0     H 1786   9.184  11.287   9.184 -1.9430  1.6184  0.7797
  738MOL0     H 1787   9.331  11.513   9.036  2.2578 -4.2437 -1.4632
  738MOL0     H 1788   9.268  11.360   8.981  2.2855 -1.1783  1.5772
  738MOL0     H 1789   9.095  11.576   9.133  0.4454 -0.6548  0.3672
  738MOL0     H 1790   9.040  11.424   9.075 -0.0487  1.4235  2.9720
  738MOL0     H 1791   9.070  11.477   8.849 -0.1698  0.1253 -0.2545
  738MOL0     H 1792   8.968  11.618   8.926  1.5278  3.7677  3.0359
  738MOL0     H 1793   9.138  11.644   8.649 -2.3451 -0.0602  1.3128
  738MOL0     H 1794   9.292  11.991   8.664 -0.7094 -0.0554  0.6961
  738MOL0     H 1795   9.236  11.890   8.536 -1.1551 -0.2744 -0.0020
  738MOL0     H 1796   9.510  11.873   8.681  1.0018 -0.4850  0.3619
  738MOL0     H 1797   9.435  11.745   8.581 -0.4370  0.6439  0.4919
  738MOL0     H 1798   9.476  11.870   8.390  0.7026  0.1984 -0.7899
  738MOL0     H 1799   9.457  12.028   8.478  0.2877  0.8380  0.4454
  738MOL0     H 1800   9.687  12.007   8.402  0.1294  0.1631 -0.0029
  738MOL0     H 1801   9.693  11.973   8.571 -2.7111  0.2049  1.2711
  738MOL0     H 1802   9.906  11.663   8.308 -1.8262  2.6597 -2.8149
  738MOL0     H 1803  10.218  11.714   8.192 -0.5156  0.0268  0.0478
  738MOL0     H 1804  10.113  11.574   8.245 -0.9059 -1.1272  3.0011
  738MOL0     H 1805  10.250  11.610   8.339  0.5600  2.2917  1.5206
  738MOL0     H 1806  10.400  12.018   8.110 -0.3608  1.0499  0.5298
  738MOL0     H 1807  10.640  12.077   8.032  0.8680 -1.8239  0.3810
  738MOL0     H 1808  10.875  12.062   8.020  0.1283  0.7254 -4.2827
  738MOL0     H 1809  10.828  12.227   7.999  0.4208 -2.3328 -0.0213
  738MOL0     H 1810  11.063  12.230   7.955  0.3909  2.5530  0.7978
  738MOL0     H 1811  11.049  12.317   8.093 -0.3840 -0.4430  0.7151
  738MOL0     H 1812  11.228  12.130   8.093  0.4003 -5.3784 -4.1661
  738MOL0     H 1813  11.101  12.011   8.099  1.8472 -0.4714  1.3612
  738MOL0     H 1814  11.065  12.050   8.330  0.7589 -0.2136  1.4535
  738MOL0     H 1815  11.105  12.215   8.324  0.4619  0.6549 -0.5831
  738MOL0     H 1816  11.320  11.989   8.262  2.0708  0.6532  0.9517
  738MOL0     H 1817  11.341  12.158   8.315  0.0653 -0.0771 -0.8463
  738MOL0     H 1818  11.210  11.921   8.449  0.8730  0.0301 -1.4317
  738MOL0     H 1819  11.231  12.087   8.519 -1.9645  2.4465 -2.2706
  738MOL0     H 1820  11.404  11.944   8.605  2.0338  0.7885 -0.0921
  738MOL0     H 1821  11.492  12.055   8.514 -1.1580  1.8529 -0.3431
  738MOL0     H 1822  11.522  11.873   8.337 -1.7963  3.8012  0.2013
  738MOL0     H 1823  11.415  11.769   8.435  0.5767  0.3847 -0.9872
  738MOL0     H 1824  10.731  12.212   8.423  1.0676  0.1202 -1.1781
  738MOL0     H 1825  10.498  12.139   8.505  2.3016 -0.0160  2.0725
  738MOL0     H 1826  10.133  12.036   8.539 -0.4606 -0.7637 -0.1609
  738MOL0     H 1827   9.887  12.009   8.582 -1.3868 -1.6826  0.7536
  738MOL0     H 1828   9.509  11.006   9.767  0.3770 -2.2467 -0.3860
  738MOL0     H 1829   9.499  10.848   9.968 -1.9422 -2.1257  0.5019
  738MOL0     H 1830   9.431  10.886  10.391 -1.2208 -0.1238 -2.6827
  738MOL0     H 1831   9.520  10.820  10.606  1.1772  1.6599 -1.6185
  738MOL0     H 1832   9.520  10.686  10.839 -1.4846 -0.0952 -0.2999
  738MOL0     H 1833   9.439  10.547  10.774 -0.6119  1.5652  1.2279
  738MOL0     H 1834   9.560  10.521  10.984 -0.4665  0.9653 -0.0564
  738MOL0     H 1835   9.715  10.536  10.890  0.1013 -1.1154 -0.2037
  738MOL0     H 1836   9.510  10.307  10.897 -1.1678  1.7122 -0.8580
  738MOL0     H 1837   9.613  10.329  10.765 -0.5108 -0.8805  0.2994
  738MOL0     H 1838   9.808  10.306  10.939  0.2239 -1.3609 -0.1192
  738MOL0     H 1839   9.690  10.166  10.926 -4.8040  0.4271  0.0397
  738MOL0     H 1840   9.701  10.322  11.314  4.0273  1.2105  0.0167
  738MOL0     H 1841   9.564  10.423  10.464 -2.3109 -1.4779 -1.2937
  738MOL0     H 1842   9.546  10.363  10.248 -0.7663 -1.7007 -3.2900
  738MOL0     H 1843   9.374  10.401  10.220 -1.0647  3.0116  0.1711
  738MOL0     H 1844   9.500  10.468  10.122 -1.7134 -1.5838 -1.4480
  739MOL0     O 1845   3.714   3.996   1.349 -0.3314 -0.2801 -0.7152
  739MOL0     C 1846   3.818   3.976   1.419  0.9149 -0.4469 -0.1526
  739MOL0     O 1847   3.820   3.937   1.546 -0.1955 -0.7611 -0.7375
  739MOL0     C 1848   3.705   3.916   1.613  0.1007 -0.5068 -0.0320
  739MOL0     C 1849   3.568   3.897   1.566 -0.4062 -0.1222  0.5574
  739MOL0     C 1850   3.463   3.868   1.655 -0.2904  0.2799  0.6080
  739MOL0     C 1851   3.488   3.859   1.792  0.2877  0.1073 -0.2071
  739MOL0     O 1852   3.396   3.829   1.884  0.0650  0.0818 -0.5194
  739MOL0     C 1853   3.258   3.855   1.854 -0.0019 -0.3335  0.5553
  739MOL0     C 1854   3.187   3.862   1.991 -0.0377  0.1892  0.6514
  739MOL0     C 1855   3.192   3.725   2.061 -0.7262 -0.3814 -0.7687
  739MOL0     C 1856   3.101   3.749   2.191 -0.8702  0.0122  0.2192
  739MOL0     C 1857   3.104   3.624   2.288  0.2459 -0.3359 -0.5185
  739MOL0     C 1858   3.240   3.584   2.365 -0.2218 -0.1736  0.0467
  739MOL0     C 1859   3.317   3.704   2.415  0.0468  0.2369 -0.2516
  739MOL0     C 1860   3.455   3.662   2.462 -0.7747 -0.3953 -0.1114
  739MOL0     N 1861   3.540   3.768   2.520 -0.4161  0.1672 -0.2195
  739MOL0     C 1862   3.678   3.771   2.540 -0.1625  0.1660 -0.5626
  739MOL0     C 1863   3.691   3.883   2.608  0.3142  0.5433  0.5609
  739MOL0     C 1864   3.822   3.935   2.669  1.0152 -1.0121  0.8062
  739MOL0     C 1865   3.810   3.968   2.818 -0.1690 -0.0589  0.9335
  739MOL0     C 1866   3.935   4.023   2.866 -0.4191 -0.0072 -0.2031
  739MOL0     C 1867   3.954   4.173   2.835 -0.7863  0.0347  0.2437
  739MOL0     O 1868   3.984   4.201   2.696 -0.0780  0.2146 -0.4051
  739MOL0     C 1869   4.112   4.174   2.640 -0.5693  0.8385 -0.0903
  739MOL0     C 1870   4.141   4.208   2.509  0.1776 -0.0593 -0.0944
  739MOL0     C 1871   4.274   4.192   2.454 -0.0124  0.7114 -0.3425
  739MOL0     C 1872   4.296   4.262   2.325  0.4367  0.7123 -0.7340
  739MOL0     C 1873   4.366   4.106   2.511  0.3006  0.5006 -1.0270
  739MOL0     C 1874   4.490   4.054   2.451 -0.4384  0.3918 -0.4534
  739MOL0     O 1875   4.585   4.006   2.530  0.2255  0.1318  0.4795
  739MOL0     C 1876   4.710   3.983   2.476  0.7218 -0.5152 -0.4125
  739MOL0     C 1877   4.776   3.877   2.539  0.5855 -0.2121 -0.6611
  739MOL0     C 1878   4.909   3.838   2.494  0.6967 -0.3868 -0.8885
  739MOL0     C 1879   4.967   3.891   2.376  0.6933  0.5478  0.1619
  739MOL0     O 1880   5.093   3.848   2.334 -0.8489  0.6841 -0.4695
  739MOL0     C 1881   5.169   3.934   2.253 -0.3667 -0.3338  0.6973
  739MOL0     C 1882   5.213   4.063   2.320  0.6447  0.3037 -0.0663
  739MOL0     C 1883   5.355   4.039   2.378 -0.0856 -1.1119 -0.2867
  739MOL0     C 1884   5.463   4.022   2.267 -0.0573 -0.1218 -0.3975
  739MOL0     C 1885   5.605   4.068   2.309 -0.5258  0.4290 -0.0020
  739MOL0     C 1886   5.718   4.007   2.225 -0.2363  0.0970  0.5791
  739MOL0     C 1887   5.849   4.054   2.282 -0.4848 -0.0973  0.2247
  739MOL0     C 1888   5.971   4.004   2.207  0.3384  0.0850 -0.3707
  739MOL0    Cl 1889   5.978   3.833   2.237 -0.2444 -0.2215  0.1753
  739MOL0     C 1890   4.885   3.993   2.311 -0.1711 -0.2401  0.0505
  739MOL0     C 1891   4.769   4.042   2.366  0.2751  1.0889 -0.0591
  739MOL0     O 1892   4.490   4.045   2.330 -0.1473  0.3562  0.3751
  739MOL0     C 1893   4.336   4.064   2.647  1.2467  0.5198 -0.2796
  739MOL0     C 1894   4.211   4.107   2.714 -0.6303  0.7067 -0.2375
  739MOL0     N 1895   3.572   3.943   2.645  0.0176 -1.0582 -0.0407
  739MOL0     N 1896   3.481   3.866   2.598 -0.1468 -0.7598  0.7830
  739MOL0     C 1897   3.615   3.869   1.839 -0.1789  0.4305 -0.5372
  739MOL0     C 1898   3.720   3.898   1.753  0.5048  0.8931  0.4092
  739MOL0     C 1899   3.951   3.996   1.345 -0.6572  0.5038 -1.2826
  739MOL0     C 1900   4.066   3.997   1.424  0.3538  0.4090  1.0167
  739MOL0     C 1901   4.195   4.020   1.364 -0.4355 -0.0037 -0.6761
  739MOL0     C 1902   4.212   4.024   1.231 -0.5486  0.6868  0.1769
  739MOL0     O 1903   4.342   4.041   1.189 -0.8556  0.2530 -0.7050
  739MOL0     C 1904   4.381   4.002   1.062 -0.2328  0.0852  0.1871
  739MOL0     C 1905   4.530   4.010   1.044 -0.5269 -0.1582 -0.1933
  739MOL0     C 1906   4.587   3.946   0.910 -0.2719 -0.6375  0.3416
  739MOL0     C 1907   4.726   4.004   0.868  1.3074  0.7545 -0.1075
  739MOL0     C 1908   4.821   3.943   0.950 -0.5017  0.5945  0.1804
  739MOL0     C 1909   4.911   3.895   1.015 -0.1517 -0.0559  0.4023
  739MOL0     C 1910   4.097   4.019   1.144  0.2671 -0.6285  0.5182
  739MOL0     C 1911   3.968   4.014   1.205 -0.0137 -0.0901  0.4943
  739MOL0     C 1912   3.852   4.014   1.112  0.7139  0.1134 -0.3366
  739MOL0     H 1913   3.531   3.906   1.464  1.0583  0.8762  0.0835
  739MOL0     H 1914   3.362   3.843   1.625 -0.0300 -0.3186  0.2159
  739MOL0     H 1915   3.227   3.775   1.786  1.3198  0.1178 -0.6325
  739MOL0     H 1916   3.243   3.956   1.815  0.0070 -0.0372  1.3108
  739MOL0     H 1917   3.233   3.939   2.053  0.2276  0.5272  0.0466
  739MOL0     H 1918   3.082   3.879   1.966  0.3315 -1.6137 -2.7414
  739MOL0     H 1919   3.164   3.644   1.992 -0.9241 -0.1262 -0.9872
  739MOL0     H 1920   3.291   3.699   2.099  0.3248  3.0563 -0.8958
  739MOL0     H 1921   3.140   3.837   2.244 -0.2608  1.0579 -1.8500
  739MOL0     H 1922   2.997   3.765   2.163 -1.2974 -0.8865  1.2023
  739MOL0     H 1923   3.089   3.535   2.226  1.5821  0.3235 -1.8650
  739MOL0     H 1924   3.029   3.649   2.363 -1.0434 -0.2618 -1.7758
  739MOL0     H 1925   3.203   3.525   2.449  1.1590 -0.7583  0.2685
  739MOL0     H 1926   3.307   3.519   2.309 -0.9244 -0.9187  0.0521
  739MOL0     H 1927   3.263   3.754   2.495  0.7617 -0.2244  0.5344
  739MOL0     H 1928   3.327   3.777   2.334 -2.9623 -0.6987 -1.5867
  739MOL0     H 1929   3.449   3.577   2.531  1.2956 -1.0739 -0.6972
  739MOL0     H 1930   3.509   3.627   2.374  1.7078  2.0340  0.3127
  739MOL0     H 1931   3.756   3.699   2.518 -1.5507 -1.1434 -1.4668
  739MOL0     H 1932   3.840   4.025   2.610  0.4841 -2.1452 -1.1885
  739MOL0     H 1933   3.912   3.878   2.644  1.6437  0.3800 -0.2397
  739MOL0     H 1934   3.730   4.037   2.846 -0.0622  0.8101 -0.7890
  739MOL0     H 1935   3.797   3.872   2.870  1.2970  0.4642  2.3314
  739MOL0     H 1936   3.933   4.005   2.974  0.9100 -0.9449 -0.3094
  739MOL0     H 1937   4.011   3.958   2.821 -2.1890 -3.1585  1.0603
  739MOL0     H 1938   3.860   4.226   2.854 -1.1183 -0.9438  1.4979
  739MOL0     H 1939   4.025   4.217   2.905  0.8902 -0.3357 -1.1613
  739MOL0     H 1940   4.060   4.241   2.445 -0.6502 -0.0920  0.9253
  739MOL0     H 1941   4.236   4.352   2.312  0.8546  1.1534  0.2535
  739MOL0     H 1942   4.264   4.196   2.244 -3.0422  1.3073 -0.0137
  739MOL0     H 1943   4.401   4.292   2.318  0.2121  1.4326 -1.0475
  739MOL0     H 1944   4.721   3.838   2.624 -0.4845  1.9931 -0.2620
  739MOL0     H 1945   4.960   3.764   2.554 -1.0125  0.5651  1.9221
  739MOL0     H 1946   5.251   3.870   2.219 -0.0278 -0.3044  1.4353
  739MOL0     H 1947   5.106   3.960   2.168 -2.2083  1.3190  2.4489
  739MOL0     H 1948   5.202   4.155   2.261 -1.9498  2.0103  2.7459
  739MOL0     H 1949   5.134   4.081   2.393 -2.8234 -0.6374 -3.2968
  739MOL0     H 1950   5.359   3.965   2.459  1.0232 -1.2010 -0.4090
  739MOL0     H 1951   5.389   4.131   2.427  0.1998 -1.3115 -0.1026
  739MOL0     H 1952   5.442   4.093   2.186  4.1608  2.1748  0.2240
  739MOL0     H 1953   5.469   3.920   2.228  0.3657  0.0405 -0.7688
  739MOL0     H 1954   5.626   4.175   2.309 -3.0894  0.9966 -0.3816
  739MOL0     H 1955   5.620   4.025   2.408 -2.1971  1.0419  0.5417
  739MOL0     H 1956   5.703   4.036   2.120 -2.7740 -0.2904  0.7606
  739MOL0     H 1957   5.717   3.898   2.235  0.4231  0.2263  2.4359
  739MOL0     H 1958   5.865   4.031   2.388  2.6842  2.5728  0.4735
  739MOL0     H 1959   5.843   4.163   2.278 -1.4075 -0.0289  2.1099
  739MOL0     H 1960   6.057   4.050   2.258 -1.0975  1.7834  0.6333
  739MOL0     H 1961   5.967   4.030   2.101  2.0759  2.9960  0.1532
  739MOL0     H 1962   4.916   4.036   2.216  0.3612 -0.3855  0.1555
  739MOL0     H 1963   4.716   4.120   2.311 -2.0094 -2.5173 -3.5868
  739MOL0     H 1964   4.409   4.015   2.711  2.0628 -0.1238 -1.6749
  739MOL0     H 1965   4.206   4.073   2.817 -0.1961  0.3878 -0.3229
  739MOL0     H 1966   3.645   3.856   1.942  4.4147  2.6059 -1.3264
  739MOL0     H 1967   3.820   3.891   1.794  0.1490  0.0451  1.1531
  739MOL0     H 1968   4.062   3.978   1.531  0.9105  1.4515  1.2405
  739MOL0     H 1969   4.290   4.011   1.416 -0.1689  0.6495 -1.0334
  739MOL0     H 1970   4.342   3.902   1.043  2.1708 -0.8024 -0.4353
  739MOL0     H 1971   4.332   4.066   0.988  1.0755  1.4348  0.4527
  739MOL0     H 1972   4.577   3.953   1.125  2.4603 -1.2359 -2.4896
  739MOL0     H 1973   4.564   4.114   1.049 -0.5018  0.0118 -2.6706
  739MOL0     H 1974   4.602   3.838   0.918  1.8645 -0.3890  0.3131
  739MOL0     H 1975   4.517   3.971   0.830  1.8197  3.1127 -0.6192
  739MOL0     H 1976   4.723   4.113   0.862 -0.3907  0.6724 -2.0409
  739MOL0     H 1977   4.743   3.971   0.765 -1.6628  0.7032 -0.6852
  739MOL0     H 1978   4.988   3.857   1.078 -0.1691 -1.1415 -0.2040
  739MOL0     H 1979   4.109   4.029   1.037  0.5473 -1.3834  0.4673
  739MOL0     H 1980   3.794   3.921   1.106 -1.6172  1.4068  0.8459
  739MOL0     H 1981   3.799   4.105   1.140  0.9022 -0.3532  1.6444
  739MOL0     H 1982   3.881   4.017   1.006 -1.0627  0.6904 -0.8471
  740MOL0     O 1983   2.575   6.860   6.468  0.1700  0.1466 -0.2389
  740MOL0     C 1984   2.573   6.826   6.588  0.3669  0.2785  0.3370
  740MOL0     O 1985   2.675   6.823   6.672 -0.0384 -0.0409 -0.1615
  740MOL0     C 1986   2.800   6.867   6.634  0.0021  1.6983 -0.1097
  740MOL0     C 1987   2.857   6.818   6.511  0.3905 -0.5057  0.6176
  740MOL0     C 1988   2.983   6.856   6.466  0.2899  0.6542 -0.2207
  740MOL0     C 1989   3.069   6.918   6.555  0.0905  0.0932  0.2767
  740MOL0     O 1990   3.197   6.942   6.531 -0.6400  0.4675 -0.2767
  740MOL0     C 1991   3.236   6.896   6.395  0.7968 -0.2354 -0.4417
  740MOL0     C 1992   3.386   6.903   6.400 -0.0492  0.6701  0.0757
  740MOL0     C 1993   3.456   6.833   6.281 -0.0579  0.5657  1.2031
  740MOL0     C 1994   3.445   6.908   6.140  0.2426 -0.6630 -0.0293
  740MOL0     C 1995   3.533   6.852   6.025 -0.0201  0.0584  0.4765
  740MOL0     C 1996   3.546   6.942   5.909  0.3912  1.3984 -0.1616
  740MOL0     C 1997   3.666   6.907   5.812 -1.3267 -0.8242 -0.2009
  740MOL0     C 1998   3.628   6.945   5.664 -0.6666  0.6059 -0.1138
  740MOL0     N 1999   3.612   7.087   5.637 -0.7439 -0.9857  0.2792
  740MOL0     C 2000   3.679   7.189   5.698 -0.2410  0.6557  0.7323
  740MOL0     C 2001   3.664   7.303   5.627 -0.3591  0.3052  0.6685
  740MOL0     C 2002   3.716   7.441   5.660 -0.3358  0.0286 -0.1501
  740MOL0     C 2003   3.850   7.478   5.593  0.0966 -0.4401  0.6265
  740MOL0     C 2004   3.895   7.629   5.628  0.7948 -0.3252  0.1861
  740MOL0     C 2005   4.034   7.668   5.574 -0.4056 -0.0187  0.0278
  740MOL0     O 2006   4.135   7.637   5.676 -0.5078  0.4340 -0.1473
  740MOL0     C 2007   4.270   7.669   5.652  0.1570 -0.2031  0.0591
  740MOL0     C 2008   4.363   7.582   5.706 -0.0697  0.6001 -0.7359
  740MOL0     C 2009   4.493   7.600   5.693  0.0001 -1.0431  0.2805
  740MOL0     C 2010   4.579   7.485   5.743  0.4997 -0.5258  0.2749
  740MOL0     C 2011   4.540   7.710   5.624  0.1592  0.3084  0.1817
  740MOL0     C 2012   4.684   7.740   5.603 -0.1938 -0.2417 -0.0766
  740MOL0     O 2013   4.708   7.839   5.514  0.3844 -0.0865  0.3199
  740MOL0     C 2014   4.840   7.871   5.486 -0.4893  0.0328 -0.4635
  740MOL0     C 2015   4.917   7.963   5.556 -0.5039  0.4216 -0.7075
  740MOL0     C 2016   5.046   7.992   5.514  0.4217 -0.1692 -0.0975
  740MOL0     C 2017   5.097   7.944   5.389 -0.4566  0.0663 -0.6036
  740MOL0     O 2018   5.214   7.981   5.336 -0.1347  0.0228  0.2290
  740MOL0     C 2019   5.325   7.984   5.430  0.1915 -0.0143 -0.6864
  740MOL0     C 2020   5.444   7.998   5.343  0.3025 -0.7772  0.0851
  740MOL0     C 2021   5.569   8.020   5.438  0.2466  0.1163  0.3196
  740MOL0     C 2022   5.698   7.985   5.366 -0.0191 -0.6555 -1.0360
  740MOL0     C 2023   5.807   7.965   5.469 -1.1065 -0.4608  0.7036
  740MOL0     C 2024   5.950   7.966   5.385 -0.1228  0.1533  0.0234
  740MOL0     C 2025   5.989   7.837   5.313  0.4640  0.9471 -0.2679
  740MOL0     C 2026   6.119   7.861   5.231  0.4242 -0.0470 -0.5910
  740MOL0    Cl 2027   6.244   7.859   5.353 -0.1578 -0.5909  0.3359
  740MOL0     C 2028   5.012   7.852   5.327  0.5047 -0.5353 -0.2756
  740MOL0     C 2029   4.885   7.812   5.369 -0.4338 -0.6491 -0.4550
  740MOL0     O 2030   4.774   7.677   5.662  0.1287 -0.0423  0.1288
  740MOL0     C 2031   4.450   7.814   5.579 -0.3720  0.3980 -0.4937
  740MOL0     C 2032   4.309   7.784   5.584 -0.1725  0.4249  0.3490
  740MOL0     N 2033   3.607   7.261   5.508  0.4601 -0.1133  0.2155
  740MOL0     N 2034   3.577   7.135   5.519  0.1744  0.0462  0.3191
  740MOL0     C 2035   3.024   6.951   6.685  0.1589 -1.3187 -0.1508
  740MOL0     C 2036   2.895   6.923   6.722  0.0196  0.2918  0.8457
  740MOL0     C 2037   2.440   6.775   6.640 -0.5493 -0.0846  0.5276
  740MOL0     C 2038   2.371   6.688   6.548 -0.4354  1.0165 -0.2681
  740MOL0     C 2039   2.250   6.637   6.589 -0.2417 -1.0061  0.0338
  740MOL0     C 2040   2.205   6.642   6.716  0.6406  0.0944 -0.6161
  740MOL0     O 2041   2.097   6.568   6.731  0.1186 -1.1404 -0.5071
  740MOL0     C 2042   2.013   6.584   6.847 -0.5641 -0.3526 -0.3616
  740MOL0     C 2043   1.869   6.573   6.789  0.5675  0.4594 -0.7102
  740MOL0     C 2044   1.826   6.696   6.698 -0.1227 -0.0871  0.4321
  740MOL0     C 2045   1.680   6.688   6.651 -0.0763  0.4803 -0.7155
  740MOL0     C 2046   1.580   6.759   6.735  0.3606 -0.0727 -0.1667
  740MOL0     C 2047   1.494   6.815   6.800  0.0640  0.3817 -0.4824
  740MOL0     C 2048   2.266   6.727   6.805  0.0743  0.0496 -0.3353
  740MOL0     C 2049   2.382   6.807   6.766  0.0032  0.7307 -0.2581
  740MOL0     C 2050   2.454   6.902   6.861 -0.3688  0.1816 -0.1163
  740MOL0     H 2051   2.792   6.763   6.445  1.5393  1.0441 -1.9641
  740MOL0     H 2052   2.994   6.837   6.360 -2.2204  2.1403 -0.8150
  740MOL0     H 2053   3.185   6.959   6.321 -0.1095  1.3922  1.4611
  740MOL0     H 2054   3.203   6.792   6.387  1.1551 -0.3965  0.1062
  740MOL0     H 2055   3.405   7.011   6.398 -0.6035  0.7851 -1.9525
  740MOL0     H 2056   3.414   6.860   6.496 -0.9629  1.9856  0.9660
  740MOL0     H 2057   3.561   6.820   6.310  0.4001  0.2869 -0.4479
  740MOL0     H 2058   3.420   6.733   6.257  0.7170  0.7338 -0.9034
  740MOL0     H 2059   3.347   6.900   6.093  0.4812 -2.7551 -0.2885
  740MOL0     H 2060   3.473   7.013   6.152 -1.4685  0.0424 -1.6950
  740MOL0     H 2061   3.487   6.755   6.004 -1.2082  0.6124  0.4594
  740MOL0     H 2062   3.636   6.829   6.053 -0.0536 -2.2148 -1.0438
  740MOL0     H 2063   3.453   6.931   5.852 -1.2801 -0.6174  2.7256
  740MOL0     H 2064   3.564   7.044   5.944  0.4476  0.9912  1.0277
  740MOL0     H 2065   3.696   6.803   5.823 -2.6942 -1.1388  0.8357
  740MOL0     H 2066   3.756   6.959   5.845  1.1785 -2.3164 -3.9640
  740MOL0     H 2067   3.694   6.905   5.586 -0.4076 -0.0273  0.4253
  740MOL0     H 2068   3.530   6.897   5.652 -1.1953  1.0097  2.1827
  740MOL0     H 2069   3.721   7.184   5.798 -0.7370 -3.0570  0.9256
  740MOL0     H 2070   3.724   7.456   5.768 -1.2419 -0.3797 -0.0189
  740MOL0     H 2071   3.641   7.511   5.622 -0.4317 -1.1760 -2.3251
  740MOL0     H 2072   3.930   7.415   5.633  1.9642  1.7503  0.5991
  740MOL0     H 2073   3.845   7.471   5.484  1.3690 -2.5769  0.6449
  740MOL0     H 2074   3.825   7.703   5.591  0.5725 -0.4661  0.3213
  740MOL0     H 2075   3.905   7.645   5.736 -1.1177 -0.8728  0.4793
  740MOL0     H 2076   4.064   7.616   5.482 -1.3771  0.8703 -0.8090
  740MOL0     H 2077   4.023   7.775   5.555  0.4711  0.2588  0.9826
  740MOL0     H 2078   4.324   7.489   5.748 -1.0508  1.7243  0.9538
  740MOL0     H 2079   4.520   7.394   5.731  1.0919 -0.9097  0.2060
  740MOL0     H 2080   4.589   7.497   5.851 -3.2881  1.1607  0.5899
  740MOL0     H 2081   4.672   7.463   5.688  0.8749 -0.2172  0.7762
  740MOL0     H 2082   4.872   8.004   5.645  0.5567 -0.2305  0.1545
  740MOL0     H 2083   5.100   8.062   5.575  0.4871 -0.4939  0.2158
  740MOL0     H 2084   5.313   8.066   5.503 -0.0066  0.1124 -0.8610
  740MOL0     H 2085   5.328   7.894   5.491  0.8073 -0.2013 -0.9962
  740MOL0     H 2086   5.459   7.911   5.278 -0.7647  0.9571 -2.6756
  740MOL0     H 2087   5.442   8.085   5.277  0.9822 -2.0576 -1.7238
  740MOL0     H 2088   5.562   7.948   5.520  2.1993 -0.8053 -0.2446
  740MOL0     H 2089   5.567   8.118   5.486 -1.8904 -0.6352  1.9188
  740MOL0     H 2090   5.725   8.067   5.298  3.5978 -0.0466  0.8431
  740MOL0     H 2091   5.683   7.896   5.306  1.8983 -1.1099 -0.9297
  740MOL0     H 2092   5.798   8.036   5.552 -1.2314  1.8123 -1.1799
  740MOL0     H 2093   5.788   7.869   5.518 -2.6890 -1.2294 -1.3231
  740MOL0     H 2094   6.013   7.978   5.473 -1.0256 -3.0454  1.2359
  740MOL0     H 2095   5.959   8.055   5.322  1.8468  2.0442  2.7836
  740MOL0     H 2096   5.915   7.825   5.233  0.8732 -1.0217 -0.4131
  740MOL0     H 2097   5.991   7.750   5.379  0.1977  0.4301 -0.9252
  740MOL0     H 2098   6.119   7.948   5.165 -0.2193  2.3478  2.3834
  740MOL0     H 2099   6.134   7.769   5.173 -0.3014 -1.1491  0.8752
  740MOL0     H 2100   5.043   7.818   5.229  0.0684 -0.8797 -0.2947
  740MOL0     H 2101   4.820   7.754   5.304 -1.2055  1.7271 -1.9377
  740MOL0     H 2102   4.480   7.909   5.536  0.8469  1.2881  2.0943
  740MOL0     H 2103   4.226   7.848   5.556 -0.8714 -0.4636  0.3372
  740MOL0     H 2104   3.090   6.984   6.764 -1.3750 -2.0556  1.4952
  740MOL0     H 2105   2.859   6.950   6.821  1.4544 -0.7306  1.6712
  740MOL0     H 2106   2.413   6.652   6.455 -2.5472  0.8737 -1.2127
  740MOL0     H 2107   2.202   6.578   6.512  1.4538  0.0056 -1.9227
  740MOL0     H 2108   2.038   6.505   6.918  2.0189 -0.8423 -1.6967
  740MOL0     H 2109   2.020   6.684   6.890 -0.2904  0.1005 -1.4068
  740MOL0     H 2110   1.801   6.557   6.873  1.0413 -3.0912 -0.8130
  740MOL0     H 2111   1.870   6.473   6.743 -0.5269  0.1172 -0.0401
  740MOL0     H 2112   1.844   6.791   6.750  2.1249  1.0439 -2.1657
  740MOL0     H 2113   1.890   6.675   6.612 -1.3769 -1.5384 -0.1936
  740MOL0     H 2114   1.641   6.588   6.630 -3.4068  1.6621 -0.8194
  740MOL0     H 2115   1.671   6.742   6.556 -0.0796 -0.4067 -1.2278
  740MOL0     H 2116   1.413   6.861   6.854 -0.2811 -1.3759  0.5787
  740MOL0     H 2117   2.232   6.740   6.907 -2.9211  0.0096 -1.2470
  740MOL0     H 2118   2.397   6.931   6.950  2.2136 -0.0778  1.7739
  740MOL0     H 2119   2.544   6.851   6.899  0.2447  0.6351 -0.9320
  740MOL0     H 2120   2.488   6.989   6.805  0.1203  0.4107  0.5192
  741MOL0     O 2121   8.544   8.364   6.912  0.0469  0.0465 -0.4428
  741MOL0     C 2122   8.469   8.273   6.950  0.2598  0.3078  0.2915
  741MOL0     O 2123   8.511   8.165   7.010 -0.1321 -0.1887 -0.2004
  741MOL0     C 2124   8.646   8.156   7.040  0.2852  0.1867  0.1319
  741MOL0     C 2125   8.680   8.140   7.176  0.2808  0.1701 -0.4318
  741MOL0     C 2126   8.815   8.117   7.216 -0.1395  0.5341  0.5006
  741MOL0     C 2127   8.917   8.140   7.125 -0.1843  0.1364 -0.4437
  741MOL0     O 2128   9.054   8.130   7.143 -0.1493 -0.1917  0.2856
  741MOL0     C 2129   9.103   8.017   7.220 -0.0473  0.1298 -1.6415
  741MOL0     C 2130   9.240   8.049   7.279  0.4159 -0.6372 -0.5555
  741MOL0     C 2131   9.309   7.936   7.358 -0.2869 -0.4837  1.4133
  741MOL0     C 2132   9.325   7.963   7.509 -0.1924  0.0821  0.4006
  741MOL0     C 2133   9.418   7.855   7.578  0.3846 -0.3796 -1.0488
  741MOL0     C 2134   9.418   7.892   7.733  0.4400 -0.3958 -0.0962
  741MOL0     C 2135   9.512   7.781   7.799 -0.3761  0.2792 -0.0426
  741MOL0     C 2136   9.498   7.777   7.952 -0.0700 -0.0710 -0.7950
  741MOL0     N 2137   9.558   7.657   8.019 -0.1065  0.2059  0.8064
  741MOL0     C 2138   9.692   7.658   8.042 -0.3104 -1.6879 -0.4154
  741MOL0     C 2139   9.726   7.535   8.090  0.1002 -0.0657  0.2835
  741MOL0     C 2140   9.871   7.492   8.123 -0.1463  0.9221 -0.8705
  741MOL0     C 2141   9.864   7.344   8.157 -0.2486  0.3498  0.5004
  741MOL0     C 2142  10.001   7.276   8.182  0.3301 -0.1656 -0.3046
  741MOL0     C 2143  10.073   7.342   8.305 -0.5036  0.0830  0.6790
  741MOL0     O 2144  10.207   7.275   8.318 -0.2777 -0.5198 -0.6052
  741MOL0     C 2145  10.286   7.314   8.427 -0.6659 -0.0783 -0.4118
  741MOL0     C 2146  10.413   7.264   8.436 -0.3248 -0.7074  0.1448
  741MOL0     C 2147  10.495   7.295   8.540  0.0062  0.4457  0.1769
  741MOL0     C 2148  10.623   7.228   8.546 -0.8617 -0.6261 -0.6836
  741MOL0     C 2149  10.454   7.381   8.646 -0.0571 -0.6516 -0.0844
  741MOL0     C 2150  10.529   7.405   8.772 -0.4460  0.2345 -0.8183
  741MOL0     O 2151  10.457   7.467   8.876  0.0115 -0.6712  0.3937
  741MOL0     C 2152  10.524   7.469   8.997 -0.4116  0.3266 -0.1703
  741MOL0     C 2153  10.537   7.350   9.075 -1.1479 -0.6581  0.9366
  741MOL0     C 2154  10.588   7.357   9.203  0.1444  0.3502 -0.3688
  741MOL0     C 2155  10.625   7.477   9.265  0.0477  0.2532 -0.3902
  741MOL0     O 2156  10.653   7.494   9.403 -0.1552  0.5090 -0.2176
  741MOL0     C 2157  10.653   7.377   9.485 -0.5895 -0.0814  0.5882
  741MOL0     C 2158  10.665   7.431   9.630  0.6126 -0.9268  0.2777
  741MOL0     C 2159  10.675   7.315   9.730 -0.7808 -0.1018  0.5868
  741MOL0     C 2160  10.532   7.262   9.770 -0.4215  0.2772  0.0733
  741MOL0     C 2161  10.547   7.146   9.858  0.4201 -0.1158 -0.3109
  741MOL0     C 2162  10.420   7.098   9.929  0.4295  0.5773  0.1171
  741MOL0     C 2163  10.424   6.985  10.026 -0.2684 -0.4785  0.8947
  741MOL0     C 2164  10.301   6.967  10.103  0.2577 -0.6835  0.3228
  741MOL0    Cl 2165  10.151   6.999   9.999  0.3015  0.4031 -0.0868
  741MOL0     C 2166  10.631   7.595   9.183  0.2813  0.0637 -0.3643
  741MOL0     C 2167  10.574   7.589   9.048 -0.8413 -0.1349 -0.3492
  741MOL0     O 2168  10.647   7.358   8.785 -0.3323  0.0115  0.5421
  741MOL0     C 2169  10.322   7.430   8.636  0.5015 -0.1276 -0.1566
  741MOL0     C 2170  10.236   7.403   8.525  0.2069 -0.0931  0.4790
  741MOL0     N 2171   9.601   7.468   8.104 -0.0526 -0.0072 -0.1193
  741MOL0     N 2172   9.504   7.545   8.070  0.7156  0.2478  0.7631
  741MOL0     C 2173   8.885   8.158   6.989  0.3508  0.0449  0.1750
  741MOL0     C 2174   8.748   8.168   6.949  0.0443  0.1531  0.7018
  741MOL0     C 2175   8.326   8.287   6.924 -1.2830 -0.1754  0.9031
  741MOL0     C 2176   8.282   8.414   6.898 -0.1814 -0.2800  0.4121
  741MOL0     C 2177   8.146   8.441   6.904 -0.1806  0.3624 -0.1859
  741MOL0     C 2178   8.052   8.345   6.931  0.2524  0.2761 -0.2865
  741MOL0     O 2179   7.915   8.365   6.920 -0.0012  0.8457  0.2718
  741MOL0     C 2180   7.866   8.448   7.026 -0.3990  0.2470 -0.1836
  741MOL0     C 2181   7.768   8.360   7.109 -0.3694 -0.0750  0.1366
  741MOL0     C 2182   7.728   8.447   7.229  0.3585 -0.9426  0.5663
  741MOL0     C 2183   7.667   8.356   7.332  0.4822  0.0518  0.2420
  741MOL0     C 2184   7.539   8.299   7.291  0.2819 -0.2949 -0.7003
  741MOL0     C 2185   7.437   8.251   7.243 -0.3995 -0.5247  0.3215
  741MOL0     C 2186   8.100   8.213   6.949 -0.0581 -1.3068  0.5980
  741MOL0     C 2187   8.234   8.181   6.947 -0.3840 -0.9760  0.7216
  741MOL0     C 2188   8.259   8.037   6.959 -0.7423  0.3980 -0.1390
  741MOL0     H 2189   8.605   8.143   7.255  0.6967 -0.2316 -0.0195
  741MOL0     H 2190   8.839   8.095   7.320  4.6550 -1.2859 -0.7010
  741MOL0     H 2191   9.107   7.930   7.153  0.4431 -0.3379 -1.0101
  741MOL0     H 2192   9.051   8.003   7.315  0.5869  2.7890 -0.8040
  741MOL0     H 2193   9.308   8.071   7.197  0.4290  1.5009 -0.0446
  741MOL0     H 2194   9.234   8.141   7.338  0.3903  0.1864 -1.8168
  741MOL0     H 2195   9.252   7.843   7.347  1.3065 -1.5400  1.6346
  741MOL0     H 2196   9.407   7.923   7.311 -0.9686 -0.2555 -0.1381
  741MOL0     H 2197   9.378   8.058   7.510 -2.3616  1.3672 -0.3248
  741MOL0     H 2198   9.227   7.980   7.555 -0.5061 -0.6993  0.0532
  741MOL0     H 2199   9.519   7.859   7.535  0.3579  1.6102 -0.9910
  741MOL0     H 2200   9.378   7.754   7.565 -2.5134  0.8367 -2.3094
  741MOL0     H 2201   9.442   7.997   7.750 -1.2350  0.0716 -0.4174
  741MOL0     H 2202   9.321   7.879   7.782  0.1320 -0.5640 -0.7348
  741MOL0     H 2203   9.615   7.811   7.778 -0.7958 -0.0257 -2.8968
  741MOL0     H 2204   9.497   7.679   7.765 -1.9149  0.4550  0.0203
  741MOL0     H 2205   9.561   7.860   7.987 -1.6349 -0.3114  3.1141
  741MOL0     H 2206   9.395   7.792   7.986 -0.5540 -1.0931 -1.7797
  741MOL0     H 2207   9.762   7.738   8.018 -1.7336 -0.6104 -1.0804
  741MOL0     H 2208   9.908   7.556   8.203 -0.3798 -0.1155  0.0845
  741MOL0     H 2209   9.925   7.505   8.028 -0.0660 -1.3080 -1.1750
  741MOL0     H 2210   9.789   7.322   8.233  0.9897 -0.5409  1.4977
  741MOL0     H 2211   9.840   7.293   8.063  3.1231  2.0425 -1.4474
  741MOL0     H 2212   9.985   7.168   8.197  0.8557 -0.7456 -3.3229
  741MOL0     H 2213  10.065   7.294   8.096  1.5348  2.2185  0.9899
  741MOL0     H 2214  10.086   7.449   8.286  2.7228 -0.3394 -0.0517
  741MOL0     H 2215  10.009   7.325   8.392 -0.1509  1.6824  1.2863
  741MOL0     H 2216  10.446   7.188   8.367  2.3924  2.1464 -2.0136
  741MOL0     H 2217  10.647   7.175   8.453 -0.0429  0.4303 -1.0991
  741MOL0     H 2218  10.641   7.164   8.633  3.6245 -1.5613 -2.0285
  741MOL0     H 2219  10.704   7.302   8.547  1.0011 -2.5050  1.7250
  741MOL0     H 2220  10.518   7.250   9.038  1.6529 -1.4672  1.4165
  741MOL0     H 2221  10.583   7.265   9.260 -1.6520  0.8879  0.4200
  741MOL0     H 2222  10.562   7.321   9.467 -0.6603 -0.9605  3.2796
  741MOL0     H 2223  10.727   7.300   9.463 -0.5995 -0.2460  1.1108
  741MOL0     H 2224  10.759   7.485   9.643 -0.4185  0.6629  1.5748
  741MOL0     H 2225  10.585   7.502   9.651  0.4138 -1.0572 -0.0244
  741MOL0     H 2226  10.734   7.346   9.817  0.6446 -1.2899  0.0669
  741MOL0     H 2227  10.734   7.232   9.690  0.1615 -1.3223  4.0579
  741MOL0     H 2228  10.471   7.239   9.683 -0.0764 -2.2433  0.4286
  741MOL0     H 2229  10.477   7.346   9.815 -1.9494 -1.3123  1.3262
  741MOL0     H 2230  10.583   7.057   9.805 -2.1333 -1.5928  0.2592
  741MOL0     H 2231  10.626   7.168   9.930 -2.0396 -0.4825  2.7443
  741MOL0     H 2232  10.365   7.060   9.842  3.2965 -2.3134 -0.6328
  741MOL0     H 2233  10.377   7.185   9.981  0.3305 -0.4357  1.7726
  741MOL0     H 2234  10.503   7.013  10.096  0.2387  1.9407 -0.4992
  741MOL0     H 2235  10.454   6.887   9.987 -2.9654 -0.3027 -2.0573
  741MOL0     H 2236  10.299   7.025  10.196 -1.5415  2.2493 -1.3849
  741MOL0     H 2237  10.298   6.868  10.150  0.6453  0.3130  2.6103
  741MOL0     H 2238  10.662   7.685   9.234  2.2744 -0.4428 -0.5890
  741MOL0     H 2239  10.558   7.676   8.986  1.3915  0.6291  0.0818
  741MOL0     H 2240  10.280   7.494   8.713  1.1262 -0.7701  0.7383
  741MOL0     H 2241  10.137   7.446   8.536 -0.0906 -0.1765 -1.4393
  741MOL0     H 2242   8.968   8.177   6.922 -0.3028  1.4792 -0.2687
  741MOL0     H 2243   8.726   8.175   6.843 -0.5081  2.4066  0.9214
  741MOL0     H 2244   8.347   8.499   6.879 -1.3422  1.0374  2.0494
  741MOL0     H 2245   8.116   8.544   6.891  0.8511  0.6528 -0.3371
  741MOL0     H 2246   7.942   8.499   7.087  0.9485 -1.8799  0.0248
  741MOL0     H 2247   7.804   8.527   6.983 -1.6404 -0.8285 -0.4117
  741MOL0     H 2248   7.818   8.270   7.147  1.1809 -0.0701 -1.7529
  741MOL0     H 2249   7.680   8.335   7.048 -0.6136  1.1089 -0.0097
  741MOL0     H 2250   7.810   8.509   7.267  1.2433 -1.3533 -0.6269
  741MOL0     H 2251   7.650   8.519   7.201  0.4351 -0.8731  0.5309
  741MOL0     H 2252   7.648   8.411   7.425 -1.0664  2.0304 -1.1519
  741MOL0     H 2253   7.732   8.270   7.350 -1.5230 -1.4023  0.8954
  741MOL0     H 2254   7.349   8.201   7.206 -0.9056 -2.0554  3.3181
  741MOL0     H 2255   8.019   8.144   6.970 -0.6993  0.3562  4.4887
  741MOL0     H 2256   8.312   8.022   6.865 -0.2563  1.0279  0.0290
  741MOL0     H 2257   8.325   8.015   7.043 -2.1999 -0.1189  0.9211
  741MOL0     H 2258   8.172   7.970   6.962  1.1925 -2.2435  1.1574
  742MOL0     O 2259   5.884   0.582  10.473 -0.1694  0.1563  0.3266
  742MOL0     C 2260   5.935   0.574  10.583 -0.3933 -0.3749  0.3207
  742MOL0     O 2261   6.070   0.563  10.607  0.1815  0.9400  0.6856
  742MOL0     C 2262   6.164   0.551  10.503 -0.1054  0.8286  0.3444
  742MOL0     C 2263   6.296   0.598  10.537  0.2158 -0.3433  0.8721
  742MOL0     C 2264   6.404   0.600  10.442  0.0874 -0.1050  0.3328
  742MOL0     C 2265   6.382   0.536  10.317  0.4078  0.2780  0.1005
  742MOL0     O 2266   6.493   0.530  10.241  0.1085  0.1312  0.4760
  742MOL0     C 2267   6.493   0.420  10.144 -0.6275 -1.4045  0.2732
  742MOL0     C 2268   6.619   0.422  10.057 -0.0369 -0.1242 -0.3641
  742MOL0     C 2269   6.755   0.395  10.119  0.2929  0.3322 -1.1319
  742MOL0     C 2270   6.866   0.401  10.011 -0.4064  0.1787 -0.3157
  742MOL0     C 2271   7.013   0.399  10.058  0.8710  1.0765  0.1124
  742MOL0     C 2272   7.107   0.366   9.942 -0.4970  0.0594  1.3894
  742MOL0     C 2273   7.235   0.298   9.991 -0.4066 -1.2063 -1.0570
  742MOL0     C 2274   7.316   0.398  10.065 -0.1266  0.2743 -0.4807
  742MOL0     N 2275   7.443   0.339  10.096 -0.2241  0.3161  0.2715
  742MOL0     C 2276   7.485   0.242  10.183  0.2480  0.7101  0.7011
  742MOL0     C 2277   7.612   0.219  10.161 -0.0861  1.3929 -0.2687
  742MOL0     C 2278   7.704   0.114  10.229  1.0246  0.7088  0.1162
  742MOL0     C 2279   7.849   0.170  10.265 -0.1571  0.0283 -0.5633
  742MOL0     C 2280   7.949   0.071  10.311 -0.2761 -0.4263 -0.9430
  742MOL0     C 2281   8.014  -0.004  10.190 -0.4870  0.9224 -0.1740
  742MOL0     O 2282   8.088   0.086  10.113 -0.2198  0.0505  0.0952
  742MOL0     C 2283   8.204   0.133  10.159 -0.1764  0.3623 -0.3319
  742MOL0     C 2284   8.225   0.277  10.152 -0.6576 -0.2120  0.6886
  742MOL0     C 2285   8.354   0.324  10.184  0.1515 -0.5390 -0.2474
  742MOL0     C 2286   8.375   0.471  10.163  0.2248 -0.1964 -0.6116
  742MOL0     C 2287   8.458   0.238  10.227  0.2615  0.9798 -0.0367
  742MOL0     C 2288   8.601   0.277  10.264 -0.5044  0.5009  0.5582
  742MOL0     O 2289   8.699   0.181  10.253  0.0190  0.5767  0.4273
  742MOL0     C 2290   8.826   0.230  10.247 -1.1882  0.1158 -0.1200
  742MOL0     C 2291   8.891   0.269  10.130  0.4474  0.0927  0.7430
  742MOL0     C 2292   9.018   0.324  10.129 -0.4694  1.2142 -0.5258
  742MOL0     C 2293   9.086   0.343  10.248 -0.2989  0.0339 -0.1193
  742MOL0     O 2294   9.215   0.407  10.241  0.2901  0.6309 -0.0543
  742MOL0     C 2295   9.311   0.355  10.323  0.2642 -0.4815 -0.7196
  742MOL0     C 2296   9.357   0.219  10.286  1.4547  1.7067  0.2700
  742MOL0     C 2297   9.465   0.209  10.180  0.6810 -0.3848  0.0706
  742MOL0     C 2298   9.401   0.199  10.040  0.8708 -0.6682 -0.2059
  742MOL0     C 2299   9.511   0.190   9.942  0.0687 -0.0803 -0.5015
  742MOL0     C 2300   9.472   0.187   9.797 -0.0832  0.0389 -0.5154
  742MOL0     C 2301   9.586   0.214   9.702 -0.6711  1.2398 -0.1828
  742MOL0     C 2302   9.578   0.145   9.558  0.0076  0.3082 -0.3020
  742MOL0    Cl 2303   9.611  -0.026   9.563  0.0765  0.1734  0.6409
  742MOL0     C 2304   9.031   0.297  10.367  0.6675  0.4483  0.7463
  742MOL0     C 2305   8.905   0.233  10.369  0.3551  0.4112  0.5249
  742MOL0     O 2306   8.628   0.394  10.278 -0.2074  0.2093  0.1751
  742MOL0     C 2307   8.427   0.101  10.246  0.0551  0.4134  0.5724
  742MOL0     C 2308   8.302   0.047  10.210 -0.5070 -0.5430  0.9119
  742MOL0     N 2309   7.663   0.301  10.064  1.0797  0.5000  0.1085
  742MOL0     N 2310   7.559   0.378  10.028  0.0587  0.0938  0.8595
  742MOL0     C 2311   6.258   0.481  10.284 -0.9858  0.4577 -0.7664
  742MOL0     C 2312   6.148   0.490  10.374 -0.1888  0.6824 -0.8312
  742MOL0     C 2313   5.841   0.571  10.706 -0.8086 -0.5581  0.1132
  742MOL0     C 2314   5.902   0.581  10.836  0.7019 -0.2532  0.5927
  742MOL0     C 2315   5.829   0.560  10.949  0.2318 -0.6815  0.7837
  742MOL0     C 2316   5.687   0.549  10.941 -0.0204  0.2336  0.0661
  742MOL0     O 2317   5.612   0.539  11.057  0.7541 -0.5250  0.1734
  742MOL0     C 2318   5.492   0.446  11.049  0.2610 -0.1951 -0.1358
  742MOL0     C 2319   5.426   0.440  11.185 -0.7679  0.1074 -0.0031
  742MOL0     C 2320   5.358   0.574  11.219  0.5384 -0.2305  0.5284
  742MOL0     C 2321   5.322   0.581  11.370 -0.4699  0.6236  0.3596
  742MOL0     C 2322   5.257   0.702  11.402  0.0155 -0.3037  0.0351
  742MOL0     C 2323   5.199   0.811  11.422  0.4018  0.2056 -1.2098
  742MOL0     C 2324   5.631   0.540  10.811 -0.2925  0.2969 -0.0863
  742MOL0     C 2325   5.700   0.565  10.690  0.2752 -0.1039 -0.3929
  742MOL0     C 2326   5.615   0.576  10.566  0.1587  0.0334 -0.1142
  742MOL0     H 2327   6.310   0.628  10.640 -0.4869  0.2168  0.8141
  742MOL0     H 2328   6.495   0.648  10.478  0.6541 -0.6666 -0.3263
  742MOL0     H 2329   6.411   0.434  10.073 -0.4303 -2.7359 -0.2339
  742MOL0     H 2330   6.487   0.322  10.192  3.9477 -1.8647  0.3636
  742MOL0     H 2331   6.607   0.350   9.976  1.7224  0.6951 -1.4070
  742MOL0     H 2332   6.635   0.518  10.008  0.9551  0.5138  1.1443
  742MOL0     H 2333   6.777   0.464  10.201  0.0706  1.9845 -2.4158
  742MOL0     H 2334   6.753   0.304  10.178  1.8566  2.2954  2.2425
  742MOL0     H 2335   6.849   0.312   9.949 -2.2260  0.9585 -0.9826
  742MOL0     H 2336   6.850   0.489   9.949 -0.4989  0.9326  0.7580
  742MOL0     H 2337   7.021   0.313  10.125  0.5679  1.5537  0.7673
  742MOL0     H 2338   7.025   0.489  10.120 -3.0500 -0.5425  3.7032
  742MOL0     H 2339   7.051   0.296   9.880 -1.2797  0.4154  1.6833
  742MOL0     H 2340   7.141   0.455   9.887 -0.6319 -0.1881  0.9008
  742MOL0     H 2341   7.291   0.273   9.901  2.1010 -0.4653  0.2212
  742MOL0     H 2342   7.216   0.215  10.060 -1.3408  1.4484  2.1297
  742MOL0     H 2343   7.325   0.485  10.000 -1.5972  1.4650  0.8150
  742MOL0     H 2344   7.272   0.420  10.163  0.3986 -0.3440 -0.0965
  742MOL0     H 2345   7.416   0.189  10.247  0.2178  0.6527  0.6207
  742MOL0     H 2346   7.718   0.029  10.162  2.3484  0.8981  0.1125
  742MOL0     H 2347   7.655   0.074  10.318 -0.8894 -0.9217 -1.5962
  742MOL0     H 2348   7.897   0.229  10.186  0.2956 -2.0928 -1.9598
  742MOL0     H 2349   7.834   0.237  10.350  2.5752 -0.0865  0.0974
  742MOL0     H 2350   8.025   0.123  10.370 -0.8280  0.0730 -0.6599
  742MOL0     H 2351   7.898   0.002  10.379  0.5621  0.6696  0.8808
  742MOL0     H 2352   8.079  -0.081  10.232 -0.6188  1.0890  0.3483
  742MOL0     H 2353   7.943  -0.049  10.121  1.7319 -0.0163 -1.9515
  742MOL0     H 2354   8.147   0.341  10.114 -0.8520 -2.0161 -2.2519
  742MOL0     H 2355   8.311   0.503  10.080  0.4592 -1.8612 -1.4877
  742MOL0     H 2356   8.476   0.490  10.125 -0.3351 -1.5487 -3.0151
  742MOL0     H 2357   8.374   0.525  10.257  2.6316 -3.6980  1.6823
  742MOL0     H 2358   8.843   0.266  10.033  1.6382  3.1792 -0.0807
  742MOL0     H 2359   9.063   0.357  10.036 -0.4074  1.7478 -0.3095
  742MOL0     H 2360   9.402   0.416  10.316  1.3200 -1.8746  0.3562
  742MOL0     H 2361   9.278   0.371  10.426  2.1938  1.5059 -0.3394
  742MOL0     H 2362   9.412   0.184  10.374  0.9091  2.6431  1.0087
  742MOL0     H 2363   9.270   0.155  10.271  0.6972  2.6859  0.3336
  742MOL0     H 2364   9.524   0.120  10.205 -1.1792 -0.9805  2.7507
  742MOL0     H 2365   9.529   0.297  10.177 -0.6549  0.6029 -0.2673
  742MOL0     H 2366   9.350   0.295  10.032  3.4208  0.5895 -3.8261
  742MOL0     H 2367   9.330   0.118  10.022  1.6787 -1.3701 -0.2952
  742MOL0     H 2368   9.581   0.272   9.961 -0.2411 -0.2546  1.5791
  742MOL0     H 2369   9.568   0.101   9.972  2.4030  1.3659 -0.3619
  742MOL0     H 2370   9.396   0.264   9.786  0.9618  1.7527  2.8530
  742MOL0     H 2371   9.414   0.097   9.775 -3.0884  1.6607  0.2451
  742MOL0     H 2372   9.680   0.183   9.749 -0.4890  1.3661 -0.4569
  742MOL0     H 2373   9.597   0.322   9.687 -1.1194  0.9669 -2.9478
  742MOL0     H 2374   9.640   0.204   9.489  0.7939  0.7180  0.7354
  742MOL0     H 2375   9.475   0.147   9.521  0.3490 -1.9969 -1.5832
  742MOL0     H 2376   9.085   0.307  10.461  0.9021 -3.2744  1.1654
  742MOL0     H 2377   8.877   0.188  10.464  0.8448  1.5658  1.2386
  742MOL0     H 2378   8.504   0.038  10.289 -0.7649 -1.2808 -0.3398
  742MOL0     H 2379   8.295  -0.061  10.196  0.0314 -0.5157  0.4326
  742MOL0     H 2380   6.237   0.435  10.188 -0.3924 -2.5350  0.4423
  742MOL0     H 2381   6.055   0.438  10.351  1.4133 -2.0487 -1.4626
  742MOL0     H 2382   6.009   0.589  10.855  0.9567  2.3997 -1.4879
  742MOL0     H 2383   5.871   0.555  11.049 -2.9686  0.2148  2.3404
  742MOL0     H 2384   5.408   0.477  10.985  0.8939  1.4694 -0.2136
  742MOL0     H 2385   5.523   0.347  11.016  1.9621  0.5277 -0.8506
  742MOL0     H 2386   5.498   0.419  11.265  1.6665  0.4328 -2.0021
  742MOL0     H 2387   5.350   0.362  11.185 -1.6555  0.9373 -1.3579
  742MOL0     H 2388   5.429   0.653  11.195  1.3664 -1.5337 -1.5771
  742MOL0     H 2389   5.266   0.581  11.160  1.0497 -0.2236 -0.2826
  742MOL0     H 2390   5.416   0.584  11.427  0.6267  1.4440 -1.4198
  742MOL0     H 2391   5.260   0.493  11.387  0.4977 -0.5544 -1.8534
  742MOL0     H 2392   5.139   0.899  11.436  0.1148  0.0107 -1.2269
  742MOL0     H 2393   5.525   0.524  10.795 -0.2251  2.0753 -3.1358
  742MOL0     H 2394   5.514   0.539  10.586  0.5810 -0.7345  0.6427
  742MOL0     H 2395   5.608   0.680  10.532 -0.9663 -0.8221 -2.7567
  742MOL0     H 2396   5.658   0.521  10.482 -0.0557  0.7730 -0.7304
  743MOL0     O 2397   3.635   3.091   4.363  0.6364  0.6989 -0.3060
  743MOL0     C 2398   3.590   3.198   4.332  0.0179  0.1112 -0.6786
  743MOL0     O 2399   3.660   3.304   4.290 -0.1670 -0.7145  0.1254
  743MOL0     C 2400   3.794   3.291   4.272 -0.2181 -0.7348 -0.9177
  743MOL0     C 2401   3.885   3.357   4.354  0.0834 -0.6869 -0.4019
  743MOL0     C 2402   4.023   3.331   4.355 -0.6818 -0.5918  0.0526
  743MOL0     C 2403   4.075   3.242   4.268  0.2547  0.1210  1.0972
  743MOL0     O 2404   4.208   3.231   4.250 -0.5618 -0.5147  0.0480
  743MOL0     C 2405   4.263   3.352   4.189  0.1002 -0.9424 -0.9309
  743MOL0     C 2406   4.271   3.358   4.037  1.1450 -0.2632  0.9294
  743MOL0     C 2407   4.366   3.248   3.983 -0.7441  0.2301  0.5330
  743MOL0     C 2408   4.368   3.250   3.834  0.3811 -0.4135  1.1995
  743MOL0     C 2409   4.484   3.178   3.778 -0.3345 -0.1750 -0.1554
  743MOL0     C 2410   4.505   3.036   3.827 -0.6070  0.3407  0.1271
  743MOL0     C 2411   4.603   2.954   3.738  0.5091 -0.5584 -0.2399
  743MOL0     C 2412   4.742   3.015   3.696  0.2092 -1.1425  0.0216
  743MOL0     N 2413   4.831   3.033   3.807 -1.1457 -0.0567 -0.3156
  743MOL0     C 2414   4.874   2.941   3.909  0.0455  0.2055  0.3507
  743MOL0     C 2415   4.936   3.024   4.000  0.0676  0.1744 -0.7700
  743MOL0     C 2416   4.996   2.979   4.136 -0.0305  0.2984  0.0771
  743MOL0     C 2417   5.151   2.992   4.143  1.0300  0.3768  0.4297
  743MOL0     C 2418   5.205   2.947   4.280 -0.4972 -0.1092 -0.0737
  743MOL0     C 2419   5.161   3.027   4.400  0.1680 -0.4055  0.1499
  743MOL0     O 2420   5.113   2.948   4.510  0.0822  0.5219  0.3947
  743MOL0     C 2421   5.198   2.935   4.616 -0.7992  0.0344 -0.5511
  743MOL0     C 2422   5.333   2.899   4.610 -0.1626 -0.4505  0.0762
  743MOL0     C 2423   5.411   2.888   4.724 -0.4841  0.1163  1.0397
  743MOL0     C 2424   5.552   2.839   4.703  0.2796  0.1772 -0.4466
  743MOL0     C 2425   5.354   2.916   4.850 -0.4172  0.4905  0.4714
  743MOL0     C 2426   5.430   2.886   4.976 -0.0722 -0.7654  0.5470
  743MOL0     O 2427   5.401   2.974   5.070 -0.3173  0.3328  0.2459
  743MOL0     C 2428   5.453   2.947   5.195  0.0102  0.6849  0.8112
  743MOL0     C 2429   5.376   2.874   5.283  0.4144  0.3911 -0.8325
  743MOL0     C 2430   5.443   2.824   5.400  1.0297  0.1362 -0.2884
  743MOL0     C 2431   5.565   2.870   5.437 -0.2818  0.6166 -0.5392
  743MOL0     O 2432   5.612   2.809   5.545  0.0781 -0.3170  0.4431
  743MOL0     C 2433   5.726   2.877   5.606  0.8723  0.6353  0.2900
  743MOL0     C 2434   5.736   2.825   5.744 -0.7046  0.0484  0.1233
  743MOL0     C 2435   5.821   2.697   5.761 -0.4984  0.6069 -0.2279
  743MOL0     C 2436   5.825   2.664   5.915  0.1854  0.0363  0.7423
  743MOL0     C 2437   5.926   2.563   5.960 -0.2531  0.4136 -0.0586
  743MOL0     C 2438   6.069   2.633   5.967  0.4444  0.2542  0.2806
  743MOL0     C 2439   6.173   2.542   6.042  0.6671  0.2782  0.1701
  743MOL0     C 2440   6.215   2.435   5.938 -0.3116  0.1067 -1.5150
  743MOL0    Cl 2441   6.353   2.352   6.022 -0.1211 -0.0700 -0.1810
  743MOL0     C 2442   5.635   2.947   5.345  0.2139  0.2490 -0.4553
  743MOL0     C 2443   5.579   2.986   5.223  0.0128 -0.7308 -0.1136
  743MOL0     O 2444   5.509   2.790   4.984  0.7119  0.0805 -0.9786
  743MOL0     C 2445   5.221   2.960   4.857 -0.2177  0.3195  0.5201
  743MOL0     C 2446   5.143   2.969   4.740  0.2349  0.2929  0.0154
  743MOL0     N 2447   4.944   3.152   3.951 -0.0934  0.1368 -0.2968
  743MOL0     N 2448   4.876   3.158   3.841  0.1006  0.4376 -0.3076
  743MOL0     C 2449   3.986   3.170   4.188 -0.3293 -0.4748 -0.1361
  743MOL0     C 2450   3.855   3.194   4.191 -0.1774  0.5024  0.6602
  743MOL0     C 2451   3.447   3.225   4.370 -0.4855  0.2450  0.6772
  743MOL0     C 2452   3.406   3.178   4.494  0.4069 -0.1010 -0.0717
  743MOL0     C 2453   3.281   3.209   4.543  0.4435 -0.9459 -0.4799
  743MOL0     C 2454   3.191   3.297   4.471  0.1219  0.9871  0.0523
  743MOL0     O 2455   3.063   3.321   4.518  0.4444  0.3450  0.9074
  743MOL0     C 2456   2.960   3.363   4.427 -0.1018 -0.6626 -0.6126
  743MOL0     C 2457   2.821   3.377   4.483  0.1660  0.1493  0.4398
  743MOL0     C 2458   2.818   3.440   4.619  0.3783 -0.2432 -0.6836
  743MOL0     C 2459   2.845   3.590   4.625  1.6494  0.5118 -0.2233
  743MOL0     C 2460   2.785   3.651   4.742  0.3599 -0.0268 -0.3808
  743MOL0     C 2461   2.729   3.694   4.839  0.2855  0.4206  0.6597
  743MOL0     C 2462   3.241   3.349   4.352  0.3314  0.1796  0.1412
  743MOL0     C 2463   3.362   3.308   4.291  1.0096 -0.4019  0.0845
  743MOL0     C 2464   3.407   3.343   4.160 -0.2094 -0.2302  0.3624
  743MOL0     H 2465   3.849   3.429   4.426  0.9290 -1.8258  1.2124
  743MOL0     H 2466   4.100   3.383   4.412 -1.0151 -0.3103  0.2514
  743MOL0     H 2467   4.361   3.371   4.234  0.3645 -3.8170 -0.0938
  743MOL0     H 2468   4.204   3.439   4.218  2.0623 -0.2095  1.2098
  743MOL0     H 2469   4.175   3.324   3.999  1.6533  0.0226 -0.7103
  743MOL0     H 2470   4.300   3.455   3.994  0.7955 -0.6236 -0.1399
  743MOL0     H 2471   4.467   3.256   4.022 -0.9156 -2.0908  1.6522
  743MOL0     H 2472   4.332   3.144   3.991  0.4818 -0.5370 -2.4993
  743MOL0     H 2473   4.277   3.214   3.785  1.1069  3.2674 -3.5254
  743MOL0     H 2474   4.377   3.354   3.803  1.2332 -1.4373 -2.4778
  743MOL0     H 2475   4.577   3.234   3.791  1.4703 -2.9363 -0.4245
  743MOL0     H 2476   4.464   3.183   3.671  0.2262  1.4451 -0.2250
  743MOL0     H 2477   4.542   3.047   3.929  0.6776  2.0487 -0.4883
  743MOL0     H 2478   4.414   2.976   3.812  1.0369 -2.0560 -0.9185
  743MOL0     H 2479   4.557   2.951   3.639  0.8826 -1.6164 -0.3951
  743MOL0     H 2480   4.615   2.855   3.784  0.5072 -0.0250  0.9544
  743MOL0     H 2481   4.795   2.952   3.623  1.9638  1.5175 -1.1482
  743MOL0     H 2482   4.723   3.108   3.642  0.2722  0.1276  2.0873
  743MOL0     H 2483   4.846   2.836   3.898 -0.7422  0.6518 -2.9633
  743MOL0     H 2484   4.961   2.877   4.156 -3.3870  0.8522 -2.0668
  743MOL0     H 2485   4.949   3.043   4.212  1.1602  0.9034  0.3214
  743MOL0     H 2486   5.193   2.927   4.065 -1.1987 -0.9996  0.2926
  743MOL0     H 2487   5.172   3.098   4.130  0.6800  0.6126  1.6714
  743MOL0     H 2488   5.171   2.843   4.276  0.7280 -0.5155 -2.5069
  743MOL0     H 2489   5.314   2.942   4.279 -0.4389  0.9727 -1.3186
  743MOL0     H 2490   5.237   3.102   4.425  0.3122 -0.4691 -0.1031
  743MOL0     H 2491   5.070   3.080   4.372  1.0304 -0.4514 -3.1137
  743MOL0     H 2492   5.379   2.876   4.514 -0.9248 -1.6413 -0.0264
  743MOL0     H 2493   5.539   2.732   4.724 -2.5825  0.9427  2.6014
  743MOL0     H 2494   5.622   2.886   4.772 -0.4969  0.4205  0.1931
  743MOL0     H 2495   5.583   2.859   4.600  1.7816 -0.5631 -0.1539
  743MOL0     H 2496   5.272   2.853   5.262 -0.1408  0.1952  1.7582
  743MOL0     H 2497   5.397   2.748   5.461 -0.0546  0.3002 -0.8657
  743MOL0     H 2498   5.819   2.867   5.549 -0.0006 -1.4177 -0.8729
  743MOL0     H 2499   5.700   2.983   5.614 -0.7673  0.3359 -0.7426
  743MOL0     H 2500   5.782   2.903   5.805  1.3059 -0.7406 -0.2936
  743MOL0     H 2501   5.631   2.805   5.766 -2.0829  0.5781 -4.8589
  743MOL0     H 2502   5.923   2.716   5.727 -0.5522 -0.0127 -0.7509
  743MOL0     H 2503   5.781   2.621   5.692  0.2839  1.4486 -1.6624
  743MOL0     H 2504   5.727   2.619   5.933  0.8823 -1.1089  1.8649
  743MOL0     H 2505   5.836   2.759   5.969  1.4462  1.2408 -1.5131
  743MOL0     H 2506   5.910   2.544   6.067  3.3611  3.1256  1.1848
  743MOL0     H 2507   5.945   2.478   5.894  2.9706  0.5357  0.5222
  743MOL0     H 2508   6.058   2.725   6.025 -0.7289 -0.1743  0.7765
  743MOL0     H 2509   6.096   2.653   5.863  2.1952  1.2255  0.8877
  743MOL0     H 2510   6.138   2.500   6.136 -0.1467  0.3025 -0.1091
  743MOL0     H 2511   6.261   2.605   6.057 -0.4894  1.9173  0.4106
  743MOL0     H 2512   6.249   2.489   5.849 -1.2978  1.9006 -0.8559
  743MOL0     H 2513   6.138   2.362   5.909 -0.1127  0.4344 -2.9398
  743MOL0     H 2514   5.738   2.977   5.363  0.5182 -0.5880 -0.7150
  743MOL0     H 2515   5.636   3.046   5.152 -0.9769 -0.0105 -0.3211
  743MOL0     H 2516   5.159   2.972   4.946 -2.3413  1.0703 -0.9751
  743MOL0     H 2517   5.038   2.993   4.749 -0.2010 -1.7909  1.4357
  743MOL0     H 2518   4.014   3.099   4.111 -1.3752 -1.0970  0.0382
  743MOL0     H 2519   3.799   3.138   4.116  0.3919 -1.0667  1.3802
  743MOL0     H 2520   3.475   3.122   4.556 -1.0225 -4.2102 -1.8113
  743MOL0     H 2521   3.246   3.162   4.635 -3.0965  0.7529 -0.7832
  743MOL0     H 2522   2.986   3.467   4.403  1.3574 -0.7605  0.3736
  743MOL0     H 2523   2.967   3.310   4.332 -0.6881 -0.4259 -0.7881
  743MOL0     H 2524   2.774   3.278   4.484 -1.0492  0.7030  1.5040
  743MOL0     H 2525   2.761   3.437   4.415  2.4490  0.7682 -1.1578
  743MOL0     H 2526   2.718   3.417   4.656  0.2306 -3.2318 -2.6073
  743MOL0     H 2527   2.887   3.385   4.684 -1.9850 -0.4768  1.8051
  743MOL0     H 2528   2.797   3.629   4.536 -0.8370 -0.8229  0.4171
  743MOL0     H 2529   2.954   3.602   4.623  1.8445 -0.3092  2.1161
  743MOL0     H 2530   2.675   3.734   4.923 -0.6795  3.9443 -1.4170
  743MOL0     H 2531   3.179   3.417   4.295  0.4936  1.3006  1.2534
  743MOL0     H 2532   3.314   3.378   4.112  0.6086  0.8424 -0.4898
  743MOL0     H 2533   3.485   3.419   4.151 -1.4886  0.8779 -3.7010
  743MOL0     H 2534   3.446   3.252   4.114 -0.1338 -0.2646  0.4943
  744MOL0     O 2535   6.091   6.936   9.004 -0.2151  0.3373  0.4058
  744MOL0     C 2536   6.065   7.019   8.917  0.9075  0.6910  0.2710
  744MOL0     O 2537   6.152   7.084   8.829 -0.7092 -0.0270  0.2347
  744MOL0     C 2538   6.275   7.027   8.803  0.0201 -0.2227 -0.9233
  744MOL0     C 2539   6.324   7.014   8.679  0.7893 -0.2910 -0.1603
  744MOL0     C 2540   6.459   6.983   8.659  0.4934  0.2574 -0.1731
  744MOL0     C 2541   6.550   6.959   8.771 -0.4223  0.4068  1.3459
  744MOL0     O 2542   6.682   6.927   8.749  0.1636  0.7514 -0.2709
  744MOL0     C 2543   6.745   6.943   8.622  0.6970  0.1747 -0.0729
  744MOL0     C 2544   6.896   6.943   8.645  0.0230  0.0902  0.0402
  744MOL0     C 2545   6.959   6.914   8.519 -0.0640 -0.5008 -0.6719
  744MOL0     C 2546   7.107   6.875   8.543 -0.6174 -0.7629 -0.2343
  744MOL0     C 2547   7.196   6.845   8.426  0.2391  1.0214 -1.1983
  744MOL0     C 2548   7.337   6.814   8.466 -1.0895 -0.0130  0.4180
  744MOL0     C 2549   7.441   6.820   8.346  0.0984 -0.4929 -0.5272
  744MOL0     C 2550   7.586   6.851   8.384 -0.4051 -0.0051  0.0598
  744MOL0     N 2551   7.652   6.753   8.478  0.0648  0.5847 -0.6627
  744MOL0     C 2552   7.605   6.624   8.505 -0.0746 -0.7968  0.4477
  744MOL0     C 2553   7.692   6.577   8.594  0.6567  0.8047 -0.3287
  744MOL0     C 2554   7.663   6.448   8.666  0.5556  0.1662 -0.3682
  744MOL0     C 2555   7.796   6.374   8.683 -0.1385 -0.3041  0.2081
  744MOL0     C 2556   7.874   6.425   8.810 -1.1362  0.8508 -0.4529
  744MOL0     C 2557   8.006   6.339   8.811  0.3940  1.1477  1.1617
  744MOL0     O 2558   8.093   6.397   8.909 -0.1221 -0.3905  0.8887
  744MOL0     C 2559   8.219   6.348   8.951 -0.1593 -0.5978  0.3436
  744MOL0     C 2560   8.266   6.413   9.060 -0.4081 -0.3840 -0.3684
  744MOL0     C 2561   8.393   6.379   9.118  1.1222  0.1356 -0.9511
  744MOL0     C 2562   8.435   6.471   9.236 -0.0991 -0.0690  0.1987
  744MOL0     C 2563   8.458   6.258   9.072  0.7907  0.4264  0.3457
  744MOL0     C 2564   8.569   6.185   9.146 -0.6947 -0.8972 -0.3163
  744MOL0     O 2565   8.571   6.048   9.120 -0.2630 -0.5255 -0.6030
  744MOL0     C 2566   8.674   5.992   9.189  0.4747  0.4558 -0.2876
  744MOL0     C 2567   8.805   6.002   9.142 -1.0982  0.2724 -0.5195
  744MOL0     C 2568   8.912   5.954   9.208  0.3189  0.5168 -0.4971
  744MOL0     C 2569   8.892   5.893   9.332 -0.8969  0.5000  0.2191
  744MOL0     O 2570   9.001   5.862   9.410 -0.0452 -0.1605 -0.1193
  744MOL0     C 2571   8.991   5.782   9.528  0.1238 -0.3424 -0.7270
  744MOL0     C 2572   9.129   5.793   9.598  0.6043 -0.0070  0.2485
  744MOL0     C 2573   9.163   5.932   9.664  0.1557  0.5616 -0.2648
  744MOL0     C 2574   9.303   5.939   9.729  0.3533  0.2553  0.5601
  744MOL0     C 2575   9.359   6.079   9.758  0.8485  0.9017 -0.4685
  744MOL0     C 2576   9.503   6.075   9.798  0.2146  0.2100  0.3352
  744MOL0     C 2577   9.555   6.200   9.867  0.0537 -0.4564 -0.2751
  744MOL0     C 2578   9.502   6.328   9.808 -0.0968 -0.9129 -0.3822
  744MOL0    Cl 2579   9.604   6.456   9.873 -0.1638  0.5458 -0.0506
  744MOL0     C 2580   8.764   5.884   9.386  0.3821 -0.1589  0.0664
  744MOL0     C 2581   8.653   5.927   9.310 -0.4185 -0.0091 -0.7840
  744MOL0     O 2582   8.652   6.252   9.209 -0.2229 -0.3191 -0.4907
  744MOL0     C 2583   8.404   6.197   8.952  0.3460  0.3445  0.8467
  744MOL0     C 2584   8.284   6.245   8.890  0.6765  0.9232 -0.3367
  744MOL0     N 2585   7.798   6.669   8.607  0.1327 -0.0977  0.2915
  744MOL0     N 2586   7.764   6.775   8.553 -0.4137  0.2621  0.9678
  744MOL0     C 2587   6.491   6.963   8.898  0.6654 -0.8891  0.8498
  744MOL0     C 2588   6.360   7.001   8.915  0.7762 -0.0892 -0.1741
  744MOL0     C 2589   5.926   7.073   8.927  0.6781  0.5489 -0.4255
  744MOL0     C 2590   5.913   7.206   8.889  0.1427  0.5713 -0.1408
  744MOL0     C 2591   5.792   7.275   8.913  0.2814 -0.8592  0.2017
  744MOL0     C 2592   5.674   7.206   8.951 -0.4203  0.1924 -1.2638
  744MOL0     O 2593   5.569   7.287   8.980  0.6498 -0.3755  0.2039
  744MOL0     C 2594   5.470   7.237   9.069  0.1277 -0.1806  0.1191
  744MOL0     C 2595   5.416   7.343   9.148 -0.0422  0.0553 -0.8055
  744MOL0     C 2596   5.523   7.407   9.245 -0.0069  0.5490 -0.2462
  744MOL0     C 2597   5.461   7.519   9.325  0.3527  0.0021 -0.4467
  744MOL0     C 2598   5.356   7.467   9.421 -0.3370  0.2653 -0.1028
  744MOL0     C 2599   5.267   7.415   9.484 -0.3945  0.4211  0.6692
  744MOL0     C 2600   5.690   7.068   8.979 -0.3183 -0.3109 -0.4445
  744MOL0     C 2601   5.810   6.993   8.968 -0.4797 -0.1009  0.2692
  744MOL0     C 2602   5.815   6.847   8.999  0.0752 -0.2391  0.2687
  744MOL0     H 2603   6.255   7.038   8.599 -2.1012  0.2789  2.3333
  744MOL0     H 2604   6.507   6.991   8.562  3.1093 -0.1291  1.0166
  744MOL0     H 2605   6.715   7.035   8.571  2.7542  1.5772  1.1160
  744MOL0     H 2606   6.714   6.857   8.561  1.0260  1.0876 -1.5794
  744MOL0     H 2607   6.934   7.033   8.696 -0.6541 -1.4197  3.4955
  744MOL0     H 2608   6.922   6.860   8.712 -0.2223 -1.2753 -1.5015
  744MOL0     H 2609   6.913   6.831   8.466 -1.5593 -0.8111  1.0292
  744MOL0     H 2610   6.952   7.008   8.462 -1.7851 -0.0871  0.1805
  744MOL0     H 2611   7.157   6.947   8.609 -1.7766 -0.1797  0.0269
  744MOL0     H 2612   7.106   6.779   8.596 -0.7607 -0.3763  0.4779
  744MOL0     H 2613   7.196   6.930   8.358  0.2518  1.9115 -0.1093
  744MOL0     H 2614   7.149   6.757   8.380  0.6851  0.3260 -0.3602
  744MOL0     H 2615   7.370   6.894   8.532  0.3536  0.0604 -0.3720
  744MOL0     H 2616   7.348   6.712   8.504  1.4498  0.1667  0.3286
  744MOL0     H 2617   7.410   6.894   8.272 -0.1300 -0.8589 -0.7999
  744MOL0     H 2618   7.447   6.720   8.303  2.1614 -0.8483  0.4448
  744MOL0     H 2619   7.645   6.853   8.292  0.5344 -0.8954  0.6170
  744MOL0     H 2620   7.584   6.949   8.433  0.4335  0.3515 -0.5932
  744MOL0     H 2621   7.519   6.573   8.461  0.5351  0.2231 -2.1023
  744MOL0     H 2622   7.605   6.386   8.598 -0.9302 -0.5178  1.4379
  744MOL0     H 2623   7.616   6.467   8.763  2.3395  0.6217  0.4456
  744MOL0     H 2624   7.776   6.266   8.689  4.0783 -1.3887 -1.9076
  744MOL0     H 2625   7.861   6.385   8.596 -1.2988  2.1377 -0.4471
  744MOL0     H 2626   7.887   6.533   8.805 -0.7865  0.7579 -1.8067
  744MOL0     H 2627   7.814   6.406   8.900 -1.4615  0.1083 -0.8172
  744MOL0     H 2628   7.973   6.238   8.835 -1.4374  1.0343 -1.3918
  744MOL0     H 2629   8.043   6.327   8.709 -2.5357 -1.3943  0.2514
  744MOL0     H 2630   8.200   6.469   9.125  0.0155 -3.1940  2.7955
  744MOL0     H 2631   8.353   6.531   9.276  0.0651  1.3581 -1.4730
  744MOL0     H 2632   8.504   6.543   9.189 -0.9809 -0.1953 -1.3606
  744MOL0     H 2633   8.479   6.414   9.318 -1.1381 -1.4981 -0.2026
  744MOL0     H 2634   8.828   6.056   9.050  1.3779  0.4650  0.1488
  744MOL0     H 2635   9.009   5.966   9.161 -0.0768  1.5300 -1.0889
  744MOL0     H 2636   8.911   5.815   9.595 -0.0426 -4.1837  1.2456
  744MOL0     H 2637   8.974   5.678   9.497 -2.5923 -0.5646  1.1205
  744MOL0     H 2638   9.112   5.713   9.671 -1.0344  0.1093  0.0144
  744MOL0     H 2639   9.211   5.768   9.529  2.0845 -0.5737  2.1092
  744MOL0     H 2640   9.085   5.951   9.737  1.7086  2.9548  0.9234
  744MOL0     H 2641   9.171   6.010   9.587  0.6979  0.5437 -0.2305
  744MOL0     H 2642   9.370   5.879   9.667 -0.2098 -0.2323  0.4061
  744MOL0     H 2643   9.310   5.894   9.829  0.9138 -1.6830 -0.3159
  744MOL0     H 2644   9.349   6.150   9.675 -1.7639 -0.3136 -1.3185
  744MOL0     H 2645   9.288   6.119   9.831 -1.2356  0.8095 -2.3391
  744MOL0     H 2646   9.566   6.058   9.710  0.8210 -0.7872  0.9414
  744MOL0     H 2647   9.520   5.992   9.867  1.5415 -0.8584 -1.2038
  744MOL0     H 2648   9.663   6.200   9.850  0.1256  1.4624 -0.0002
  744MOL0     H 2649   9.540   6.193   9.975  2.4140 -0.9521  0.0746
  744MOL0     H 2650   9.396   6.351   9.817 -0.1478 -1.5792  0.9399
  744MOL0     H 2651   9.519   6.313   9.701 -0.0586  0.1591 -0.5358
  744MOL0     H 2652   8.747   5.843   9.485 -0.2106 -1.4560 -0.5401
  744MOL0     H 2653   8.552   5.917   9.349  0.2598  1.2634  1.4389
  744MOL0     H 2654   8.450   6.111   8.903  0.2651  2.2893 -3.0265
  744MOL0     H 2655   8.249   6.199   8.799 -2.8101  1.2467  0.6888
  744MOL0     H 2656   6.546   6.934   8.986  1.9342 -1.7083 -0.1691
  744MOL0     H 2657   6.329   7.017   9.018  0.9907  3.0463 -0.4901
  744MOL0     H 2658   5.996   7.256   8.839  1.4465 -2.6484 -1.5160
  744MOL0     H 2659   5.802   7.381   8.893 -0.3246 -0.8115  0.1432
  744MOL0     H 2660   5.389   7.178   9.025  0.2347 -0.7304  0.6641
  744MOL0     H 2661   5.520   7.172   9.141 -0.5547  0.3417  1.0758
  744MOL0     H 2662   5.336   7.294   9.205  0.1740  0.7465  0.1167
  744MOL0     H 2663   5.374   7.426   9.090 -1.3066 -0.5822 -0.8339
  744MOL0     H 2664   5.563   7.328   9.309 -1.8211  0.1716  0.4779
  744MOL0     H 2665   5.605   7.444   9.183  0.4605 -1.5592 -0.9676
  744MOL0     H 2666   5.410   7.592   9.262 -0.2344  2.1963  2.3715
  744MOL0     H 2667   5.532   7.569   9.392 -0.6289  0.7623  0.0448
  744MOL0     H 2668   5.187   7.369   9.538 -2.8685  0.6621 -2.5147
  744MOL0     H 2669   5.607   7.011   9.019 -2.5902  2.4339 -0.9336
  744MOL0     H 2670   5.718   6.804   8.971 -0.6849 -0.6483  3.1658
  744MOL0     H 2671   5.894   6.787   8.954 -0.2741 -1.1840  0.8812
  744MOL0     H 2672   5.816   6.829   9.107  1.3225 -2.1000 -0.0108
  745MOL0     O 2673   8.902   3.820   1.627  0.2129  0.1201  0.1173
  745MOL0     C 2674   8.789   3.774   1.590  0.1714 -0.5296  0.3270
  745MOL0     O 2675   8.743   3.648   1.630 -0.1601 -0.2130 -0.1758
  745MOL0     C 2676   8.817   3.558   1.693  0.9659  0.9712 -0.1037
  745MOL0     C 2677   8.883   3.585   1.814 -0.1275 -0.6386  0.0574
  745MOL0     C 2678   8.956   3.485   1.888 -0.5841 -0.0482  0.6802
  745MOL0     C 2679   8.973   3.357   1.823  0.1511 -0.3114 -0.0437
  745MOL0     O 2680   9.060   3.263   1.868 -0.4340 -0.4543  0.0447
  745MOL0     C 2681   9.101   3.279   2.005  0.6080  0.1577 -0.8764
  745MOL0     C 2682   9.138   3.142   2.057  0.7329  0.0111  0.1983
  745MOL0     C 2683   9.165   3.138   2.211  0.9077  0.8777  0.4645
  745MOL0     C 2684   9.181   3.004   2.272 -0.7344  0.9041 -0.2600
  745MOL0     C 2685   9.222   3.008   2.421 -0.2016 -0.0358  0.0804
  745MOL0     C 2686   9.256   2.870   2.478  0.6130 -0.2539  0.3971
  745MOL0     C 2687   9.257   2.871   2.627 -0.1583 -0.5794  0.1058
  745MOL0     C 2688   9.223   2.737   2.686 -0.9868  0.1446 -0.3639
  745MOL0     N 2689   9.083   2.700   2.701 -0.4103  0.4484  0.4570
  745MOL0     C 2690   8.982   2.750   2.783 -0.5130 -0.2357 -0.3701
  745MOL0     C 2691   8.868   2.696   2.739 -0.6235 -0.1066 -0.1474
  745MOL0     C 2692   8.727   2.722   2.785  0.6201 -0.4237  0.1904
  745MOL0     C 2693   8.612   2.624   2.754  0.5970 -0.5011  0.7202
  745MOL0     C 2694   8.618   2.487   2.819 -0.1114 -0.1290  0.1800
  745MOL0     C 2695   8.536   2.367   2.774  0.1619 -0.2479  0.6087
  745MOL0     O 2696   8.400   2.401   2.776 -0.0082 -0.1286 -0.0286
  745MOL0     C 2697   8.318   2.412   2.891 -0.6836  0.8753 -0.9767
  745MOL0     C 2698   8.208   2.489   2.871  0.6573  0.1646  0.2970
  745MOL0     C 2699   8.117   2.509   2.983 -0.5857  0.1335  0.6185
  745MOL0     C 2700   7.993   2.588   2.970  0.4004  0.4452 -0.5065
  745MOL0     C 2701   8.148   2.462   3.109  0.1179 -0.4431 -0.3898
  745MOL0     C 2702   8.070   2.490   3.226  0.2712  1.2991  0.0547
  745MOL0     O 2703   7.980   2.394   3.265  0.3534 -0.3516 -0.2251
  745MOL0     C 2704   7.876   2.424   3.360 -0.6647 -0.3190  0.6434
  745MOL0     C 2705   7.765   2.349   3.341  0.1883  0.1826 -0.1278
  745MOL0     C 2706   7.647   2.365   3.420 -0.5024 -0.0769 -0.3273
  745MOL0     C 2707   7.652   2.446   3.536  0.0386  0.4128  1.3709
  745MOL0     O 2708   7.541   2.470   3.623 -1.2381 -0.0375  0.3433
  745MOL0     C 2709   7.498   2.350   3.694 -0.1614  0.6022  0.2859
  745MOL0     C 2710   7.382   2.360   3.792 -0.6262 -0.8987 -0.7707
  745MOL0     C 2711   7.251   2.413   3.737 -0.5325  0.4467 -0.0712
  745MOL0     C 2712   7.209   2.327   3.610  0.2051 -0.1138 -0.1222
  745MOL0     C 2713   7.193   2.172   3.634 -0.1328 -0.7321 -0.1628
  745MOL0     C 2714   7.128   2.104   3.512  0.0072 -0.2753  0.4995
  745MOL0     C 2715   6.986   2.160   3.479 -0.6586 -0.0869 -0.4454
  745MOL0     C 2716   6.905   2.085   3.375  0.3062  0.3204 -0.1300
  745MOL0    Cl 2717   6.868   1.925   3.437 -0.2472  0.1956 -0.0657
  745MOL0     C 2718   7.766   2.513   3.563  0.4401  0.5426  0.3763
  745MOL0     C 2719   7.879   2.505   3.477  0.2576  0.4489  0.8400
  745MOL0     O 2720   8.096   2.585   3.291 -0.0912  0.0776 -0.1019
  745MOL0     C 2721   8.268   2.386   3.124  0.8227 -0.1269 -0.8819
  745MOL0     C 2722   8.352   2.361   3.015 -0.1433  0.1084 -0.3056
  745MOL0     N 2723   8.902   2.619   2.633  0.6122  0.0998  0.1268
  745MOL0     N 2724   9.030   2.618   2.612 -0.4031  0.0744  0.7153
  745MOL0     C 2725   8.903   3.329   1.706  0.0133 -0.6739 -0.2451
  745MOL0     C 2726   8.823   3.428   1.642 -0.4268  0.5950  0.3352
  745MOL0     C 2727   8.704   3.844   1.487  0.1021 -0.9759 -0.0910
  745MOL0     C 2728   8.613   3.769   1.405  0.2352 -0.5728 -0.0191
  745MOL0     C 2729   8.541   3.829   1.303  0.2025 -0.0497  0.5706
  745MOL0     C 2730   8.549   3.969   1.285 -1.0876 -0.2653  0.4670
  745MOL0     O 2731   8.476   4.048   1.196  0.2134 -0.8608  0.1591
  745MOL0     C 2732   8.394   3.994   1.086 -0.0817  0.3904  0.2509
  745MOL0     C 2733   8.502   3.964   0.982  1.0096 -0.2494 -0.3367
  745MOL0     C 2734   8.458   3.943   0.840 -0.3492 -0.2328  0.5018
  745MOL0     C 2735   8.572   3.890   0.743  0.0648 -0.2461 -0.2001
  745MOL0     C 2736   8.619   3.754   0.768 -0.0478  0.3352 -0.1451
  745MOL0     C 2737   8.669   3.649   0.796  0.9352  0.3715  0.4824
  745MOL0     C 2738   8.647   4.046   1.363  0.7698  0.0831 -0.4967
  745MOL0     C 2739   8.722   3.986   1.470 -0.6084 -0.4113  0.1680
  745MOL0     C 2740   8.831   4.071   1.543  0.0928 -0.2973  0.3104
  745MOL0     H 2741   8.878   3.689   1.842 -2.8631 -0.1998 -1.6059
  745MOL0     H 2742   8.992   3.514   1.986 -2.2226  1.3099  0.9180
  745MOL0     H 2743   9.016   3.318   2.061 -0.8661 -2.7771 -0.8811
  745MOL0     H 2744   9.191   3.337   2.025  0.7506 -1.0588  2.7161
  745MOL0     H 2745   9.061   3.069   2.033 -1.1684  0.3134  4.5663
  745MOL0     H 2746   9.233   3.112   2.010  0.4345 -2.2096  0.9108
  745MOL0     H 2747   9.259   3.188   2.237  1.4590 -1.1495  2.7643
  745MOL0     H 2748   9.077   3.180   2.260 -2.1662 -1.4765 -2.5350
  745MOL0     H 2749   9.086   2.951   2.265 -0.5600  0.3102  1.3726
  745MOL0     H 2750   9.252   2.946   2.211 -1.4106  3.7939 -4.1651
  745MOL0     H 2751   9.141   3.062   2.470  2.0754  0.3638  3.7563
  745MOL0     H 2752   9.322   3.051   2.426  0.7927 -2.3491  1.3118
  745MOL0     H 2753   9.185   2.794   2.445  0.4090 -0.2047  0.7235
  745MOL0     H 2754   9.357   2.839   2.449  1.1708  1.9063 -0.1533
  745MOL0     H 2755   9.193   2.950   2.666 -1.5797 -2.0640  0.9079
  745MOL0     H 2756   9.359   2.884   2.665 -1.0012  0.8363  2.0615
  745MOL0     H 2757   9.292   2.665   2.640 -0.8124 -2.2071  3.1966
  745MOL0     H 2758   9.257   2.747   2.790  0.5247  1.0319 -0.9179
  745MOL0     H 2759   9.001   2.813   2.870  0.9024 -0.6777 -0.3362
  745MOL0     H 2760   8.702   2.822   2.750 -0.7242 -2.0479 -4.1351
  745MOL0     H 2761   8.729   2.736   2.894 -0.4554 -2.4764  0.5384
  745MOL0     H 2762   8.520   2.670   2.791  0.1620 -1.7465  1.2397
  745MOL0     H 2763   8.600   2.613   2.646  1.4476  1.2118  0.4163
  745MOL0     H 2764   8.721   2.451   2.809 -0.5156 -1.5851  1.0786
  745MOL0     H 2765   8.596   2.495   2.926 -2.0968 -1.7578 -0.0638
  745MOL0     H 2766   8.570   2.360   2.670  2.0156  1.1513  1.0690
  745MOL0     H 2767   8.558   2.280   2.837  0.0387  0.2196  1.3054
  745MOL0     H 2768   8.192   2.523   2.769  1.7832  1.4584  0.5292
  745MOL0     H 2769   8.022   2.687   3.008  4.2047 -1.7583  3.2721
  745MOL0     H 2770   7.909   2.549   3.028 -0.2374  1.7551 -0.5104
  745MOL0     H 2771   7.957   2.596   2.868 -0.0924 -1.0395 -0.4652
  745MOL0     H 2772   7.764   2.287   3.252  0.1074  2.1815 -1.5877
  745MOL0     H 2773   7.570   2.291   3.399 -2.7259  1.9675  0.3194
  745MOL0     H 2774   7.479   2.267   3.625 -0.2349  0.8629 -0.0110
  745MOL0     H 2775   7.584   2.330   3.758 -1.2076  0.8256  1.8106
  745MOL0     H 2776   7.367   2.259   3.831 -1.0366  0.1662  2.0473
  745MOL0     H 2777   7.417   2.426   3.872  1.4060  0.6443 -2.7911
  745MOL0     H 2778   7.253   2.520   3.712 -0.0960  0.0381 -1.9948
  745MOL0     H 2779   7.173   2.408   3.813  0.9841 -1.0693  1.4662
  745MOL0     H 2780   7.277   2.339   3.525 -1.5027 -0.6776 -1.6338
  745MOL0     H 2781   7.112   2.363   3.573  0.7692  0.9723 -0.6146
  745MOL0     H 2782   7.285   2.116   3.650 -1.2499 -2.3830  0.7664
  745MOL0     H 2783   7.129   2.147   3.719 -1.5216 -0.1718 -1.0158
  745MOL0     H 2784   7.118   1.999   3.538  0.2870 -0.2798  0.5918
  745MOL0     H 2785   7.191   2.127   3.425 -1.0590  1.1471  0.0541
  745MOL0     H 2786   6.996   2.261   3.439 -2.0701  0.2726  0.0432
  745MOL0     H 2787   6.931   2.164   3.574 -1.0969 -0.9593 -0.6555
  745MOL0     H 2788   6.971   2.071   3.289  0.0490  0.6291 -0.3815
  745MOL0     H 2789   6.813   2.138   3.348  0.4975 -0.5439 -2.7254
  745MOL0     H 2790   7.771   2.577   3.650  0.8750 -0.8068  1.3798
  745MOL0     H 2791   7.966   2.567   3.497  0.0689  0.6433  1.0667
  745MOL0     H 2792   8.286   2.340   3.221  3.6038 -3.3556 -2.7170
  745MOL0     H 2793   8.438   2.297   3.031  1.4026  2.0817 -0.5053
  745MOL0     H 2794   8.906   3.230   1.663 -1.0641 -1.3570  1.1537
  745MOL0     H 2795   8.771   3.406   1.549  1.6298 -0.7312 -0.5845
  745MOL0     H 2796   8.598   3.662   1.415 -0.5578 -0.4614  0.0673
  745MOL0     H 2797   8.467   3.775   1.245  1.7247 -1.2322 -0.3603
  745MOL0     H 2798   8.335   3.904   1.107 -3.2058  1.9061 -1.3973
  745MOL0     H 2799   8.326   4.070   1.048 -1.5645  0.6946  3.2077
  745MOL0     H 2800   8.540   3.867   1.015 -0.3196 -0.0916  1.8386
  745MOL0     H 2801   8.570   4.050   0.983  0.0406  0.5545  1.7989
  745MOL0     H 2802   8.365   3.886   0.838 -0.7922  0.4510  1.2042
  745MOL0     H 2803   8.435   4.045   0.805 -0.7731 -0.0076  1.4153
  745MOL0     H 2804   8.655   3.958   0.763 -1.8643  2.3052 -0.4748
  745MOL0     H 2805   8.551   3.904   0.637  0.8632  0.9843 -0.2130
  745MOL0     H 2806   8.714   3.554   0.813 -1.7998 -1.7682 -3.0411
  745MOL0     H 2807   8.638   4.154   1.357  0.9962  0.1418  0.1337
  745MOL0     H 2808   8.924   4.024   1.512 -0.8295  0.0280 -3.4705
  745MOL0     H 2809   8.833   4.173   1.502  0.8231 -1.0231 -1.5729
  745MOL0     H 2810   8.814   4.092   1.649 -0.1964  0.1473  0.1804
  746MOL0     O 2811   1.699   9.159   9.425 -0.1943 -0.0429  0.2888
  746MOL0     C 2812   1.772   9.060   9.419 -0.3781 -0.2358 -0.9052
  746MOL0     O 2813   1.744   8.932   9.471 -0.7305  0.0967  0.0597
  746MOL0     C 2814   1.634   8.910   9.544 -0.1068  0.4418 -0.2278
  746MOL0     C 2815   1.542   8.994   9.605  0.7621 -0.7770 -0.6117
  746MOL0     C 2816   1.424   8.943   9.668  0.6200  0.0718 -0.2033
  746MOL0     C 2817   1.395   8.805   9.660  0.9816 -0.8565 -0.3502
  746MOL0     O 2818   1.282   8.765   9.731 -0.3080  0.5918  0.2443
  746MOL0     C 2819   1.211   8.647   9.678  0.2455  0.2918 -0.5501
  746MOL0     C 2820   1.072   8.619   9.732 -0.1094 -0.4098 -0.7849
  746MOL0     C 2821   1.056   8.621   9.884  0.0115  0.1951 -0.0987
  746MOL0     C 2822   0.910   8.579   9.916 -0.3490  0.3739  0.2103
  746MOL0     C 2823   0.868   8.604  10.064  0.2613 -0.5670  0.2895
  746MOL0     C 2824   0.864   8.749  10.104  0.7370  0.2263 -0.9143
  746MOL0     C 2825   0.809   8.853  10.014 -0.1835  0.0195  0.0831
  746MOL0     C 2826   0.659   8.852  10.004  0.2173  0.2290  0.6058
  746MOL0     N 2827   0.582   8.843  10.127  0.4596  0.1309 -0.7074
  746MOL0     C 2828   0.539   8.953  10.194 -0.5112 -0.7123  0.5415
  746MOL0     C 2829   0.480   8.906  10.300 -0.0442 -0.4748  0.1634
  746MOL0     C 2830   0.409   8.986  10.405 -0.4252 -0.6435  0.5259
  746MOL0     C 2831   0.313   9.098  10.362 -0.0720 -0.8143  0.8117
  746MOL0     C 2832   0.234   9.068  10.229  0.1791  0.1865  0.4535
  746MOL0     C 2833   0.116   9.152  10.203 -0.2199  1.1021  1.4997
  746MOL0     O 2834   0.101   9.152  10.058  0.0343 -0.0782 -0.0413
  746MOL0     C 2835  -0.020   9.188  10.003 -0.3006 -0.0410  0.5353
  746MOL0     C 2836  -0.018   9.189   9.865  0.2720  0.4218 -0.1538
  746MOL0     C 2837  -0.133   9.225   9.786 -0.1604  0.0673  0.0730
  746MOL0     C 2838  -0.118   9.249   9.631  0.5153 -0.9177  0.5439
  746MOL0     C 2839  -0.251   9.272   9.854  0.4662  0.4580  0.8184
  746MOL0     C 2840  -0.379   9.318   9.783  0.6473  0.2991  0.3349
  746MOL0     O 2841  -0.465   9.394   9.869 -0.4601  1.1796 -0.5244
  746MOL0     C 2842  -0.568   9.467   9.825  0.5889 -0.3711  0.3003
  746MOL0     C 2843  -0.681   9.466   9.896 -0.2525  1.0919 -0.2311
  746MOL0     C 2844  -0.797   9.541   9.863  0.5089  0.5904  0.1676
  746MOL0     C 2845  -0.790   9.631   9.752  0.3531  0.0386 -0.3891
  746MOL0     O 2846  -0.896   9.717   9.726  0.2181  0.5485  0.3743
  746MOL0     C 2847  -0.866   9.823   9.636 -0.3403  0.7382 -0.5252
  746MOL0     C 2848  -0.982   9.917   9.645  0.2677 -0.3193  0.3859
  746MOL0     C 2849  -0.982  10.026   9.537 -0.4549  0.5520  0.0893
  746MOL0     C 2850  -1.120  10.077   9.517 -1.1567  1.2404  0.5611
  746MOL0     C 2851  -1.183  10.126   9.650 -0.0370 -0.9473  0.0415
  746MOL0     C 2852  -1.325  10.180   9.618  0.6985  0.2745 -0.0545
  746MOL0     C 2853  -1.373  10.266   9.732  0.4521  0.3666  0.3729
  746MOL0     C 2854  -1.344  10.416   9.709 -0.3699  0.3800  0.2975
  746MOL0    Cl 2855  -1.438  10.460   9.559 -0.2107 -0.1936  0.2392
  746MOL0     C 2856  -0.668   9.635   9.678  0.2173 -0.8200  0.6841
  746MOL0     C 2857  -0.563   9.551   9.709 -0.4119 -0.1317 -0.0691
  746MOL0     O 2858  -0.406   9.282   9.672  0.2319 -0.5709  0.1494
  746MOL0     C 2859  -0.254   9.261   9.995 -0.6195  0.6256 -0.6221
  746MOL0     C 2860  -0.136   9.228  10.071 -0.1092 -0.1294 -0.1715
  746MOL0     N 2861   0.484   8.770  10.304  0.4954  0.6501 -0.5542
  746MOL0     N 2862   0.552   8.728  10.201  0.4598 -0.5353 -0.7587
  746MOL0     C 2863   1.487   8.725   9.608  1.0493  0.2997  0.1748
  746MOL0     C 2864   1.610   8.777   9.554  0.0821  0.6352  0.0577
  746MOL0     C 2865   1.907   9.076   9.354  0.2118 -0.4203 -0.2384
  746MOL0     C 2866   1.999   8.972   9.383 -0.5970  0.0950  0.2310
  746MOL0     C 2867   2.126   8.972   9.327  0.7382 -0.0823  0.7012
  746MOL0     C 2868   2.171   9.074   9.236 -0.5816  0.1037 -0.4501
  746MOL0     O 2869   2.290   9.057   9.164 -0.0638 -0.0947  0.3341
  746MOL0     C 2870   2.378   9.165   9.116  0.0078  0.3144  0.3953
  746MOL0     C 2871   2.512   9.123   9.058 -0.5843 -0.3125  1.3336
  746MOL0     C 2872   2.511   9.009   8.967 -0.1106  0.0033  0.0387
  746MOL0     C 2873   2.640   8.953   8.905 -0.5283 -0.6532 -0.0782
  746MOL0     C 2874   2.624   8.824   8.838 -0.3389  0.2248  0.7404
  746MOL0     C 2875   2.595   8.716   8.785 -0.3628 -0.1757  0.0744
  746MOL0     C 2876   2.081   9.175   9.215  0.0511  0.6183 -0.2037
  746MOL0     C 2877   1.951   9.178   9.266  0.3063 -0.0780  0.2067
  746MOL0     C 2878   1.873   9.315   9.238 -0.4725  0.0922  0.0752
  746MOL0     H 2879   1.574   9.097   9.616 -1.8995 -0.0679  1.5203
  746MOL0     H 2880   1.353   9.020   9.698  0.8395  1.0070 -1.9487
  746MOL0     H 2881   1.267   8.562   9.718  1.8058  1.9231  0.9079
  746MOL0     H 2882   1.226   8.637   9.570  0.5823 -1.6376 -0.3613
  746MOL0     H 2883   0.995   8.677   9.681 -0.9354  0.9308  1.8053
  746MOL0     H 2884   1.035   8.519   9.706 -0.3686 -0.4556 -0.2590
  746MOL0     H 2885   1.119   8.541   9.923  0.1810  0.5511  0.3631
  746MOL0     H 2886   1.090   8.718   9.920  1.6472  1.1593 -3.7398
  746MOL0     H 2887   0.839   8.628   9.848  0.2051  2.2273  0.9017
  746MOL0     H 2888   0.896   8.473   9.890 -0.7600  0.5964 -0.5007
  746MOL0     H 2889   0.941   8.566  10.136  0.8641  3.6578  2.1651
  746MOL0     H 2890   0.769   8.560  10.080 -1.2530  1.9432 -1.4996
  746MOL0     H 2891   0.826   8.758  10.207  1.0771 -0.1410 -0.7531
  746MOL0     H 2892   0.968   8.777  10.120  0.2477  2.1977 -0.9197
  746MOL0     H 2893   0.844   8.851   9.910 -2.3123  2.6481 -0.7944
  746MOL0     H 2894   0.838   8.951  10.051 -0.6129  2.2784 -4.8026
  746MOL0     H 2895   0.625   8.940   9.949 -2.0483  0.7614  2.6480
  746MOL0     H 2896   0.641   8.762   9.944 -0.1537  0.7216 -0.0291
  746MOL0     H 2897   0.561   9.056  10.169 -0.1812 -1.2822 -1.7470
  746MOL0     H 2898   0.481   9.032  10.473 -3.0485  1.6332  1.9675
  746MOL0     H 2899   0.348   8.922  10.470 -0.7542 -2.1528 -1.1809
  746MOL0     H 2900   0.235   9.106  10.438  0.3820  1.2321  1.1100
  746MOL0     H 2901   0.359   9.197  10.357 -1.0744 -0.3912 -0.9404
  746MOL0     H 2902   0.299   9.079  10.142 -0.4242  1.0781  0.1114
  746MOL0     H 2903   0.201   8.963  10.228 -1.4117  0.6109 -2.3027
  746MOL0     H 2904   0.033   9.096  10.246 -1.1949  1.6356  0.3783
  746MOL0     H 2905   0.129   9.252  10.243  0.9508  0.9405  1.5726
  746MOL0     H 2906   0.071   9.157   9.811  0.4248  1.8802 -0.8145
  746MOL0     H 2907  -0.173   9.176   9.571  0.1574  0.7189 -1.2234
  746MOL0     H 2908  -0.012   9.248   9.603 -0.6282  1.8075 -5.3680
  746MOL0     H 2909  -0.147   9.351   9.605 -1.4134 -1.6349 -0.2791
  746MOL0     H 2910  -0.668   9.408   9.987  1.2455  1.4447 -0.1842
  746MOL0     H 2911  -0.885   9.539   9.927  0.5401  2.1934  0.3129
  746MOL0     H 2912  -0.769   9.870   9.658  0.9522 -2.2096  0.6399
  746MOL0     H 2913  -0.857   9.790   9.532  2.0676  1.9995 -0.7899
  746MOL0     H 2914  -1.072   9.856   9.638  0.4323 -0.5819  0.5648
  746MOL0     H 2915  -0.981   9.960   9.746 -1.3091  1.5457 -0.3187
  746MOL0     H 2916  -0.940   9.989   9.442 -0.0737 -3.0179  1.4595
  746MOL0     H 2917  -0.913  10.105   9.568  2.1745 -0.4544 -2.6210
  746MOL0     H 2918  -1.172   9.997   9.463  0.4066 -1.8409  3.2656
  746MOL0     H 2919  -1.110  10.164   9.451  0.4542  2.0400  1.7899
  746MOL0     H 2920  -1.181  10.042   9.720  1.3825 -1.5174 -0.6590
  746MOL0     H 2921  -1.127  10.210   9.692  0.3415 -1.4546  0.5644
  746MOL0     H 2922  -1.389  10.094   9.596  0.4533  0.7982 -1.5239
  746MOL0     H 2923  -1.328  10.234   9.523  1.4117 -0.8630 -0.7525
  746MOL0     H 2924  -1.337  10.230   9.829  0.7338  0.1549  0.1930
  746MOL0     H 2925  -1.481  10.252   9.730  0.7015 -1.7619 -1.3475
  746MOL0     H 2926  -1.236  10.430   9.698 -0.6375  1.7989 -0.9047
  746MOL0     H 2927  -1.375  10.467   9.800  0.5644 -4.6380  3.8663
  746MOL0     H 2928  -0.641   9.705   9.599 -0.8101  0.8425  1.7627
  746MOL0     H 2929  -0.469   9.550   9.654 -0.9376 -1.3317 -1.0002
  746MOL0     H 2930  -0.342   9.272  10.059  0.1880  0.4880  0.5480
  746MOL0     H 2931  -0.140   9.231  10.179  3.1535  0.5102  0.0181
  746MOL0     H 2932   1.474   8.618   9.596 -0.6309  0.3926  0.8449
  746MOL0     H 2933   1.673   8.702   9.508 -1.1910 -1.6606  1.8501
  746MOL0     H 2934   1.978   8.881   9.438  0.7846 -1.9051 -2.3166
  746MOL0     H 2935   2.187   8.889   9.360 -2.5402 -1.6451  3.4308
  746MOL0     H 2936   2.324   9.225   9.042  0.5484 -0.7496 -0.9054
  746MOL0     H 2937   2.405   9.227   9.202  2.8233 -2.0751  1.4134
  746MOL0     H 2938   2.567   9.102   9.150 -0.0376  0.3292  1.1557
  746MOL0     H 2939   2.558   9.207   9.006  1.4542 -1.8539  0.5016
  746MOL0     H 2940   2.463   8.930   9.026  0.2735  0.8009  1.4648
  746MOL0     H 2941   2.455   9.026   8.874  0.2131 -2.3452 -0.6783
  746MOL0     H 2942   2.711   8.944   8.987  1.0557  0.2646 -1.2862
  746MOL0     H 2943   2.678   9.024   8.831  0.1820  1.8682  2.5353
  746MOL0     H 2944   2.569   8.620   8.745  1.7092  0.6923 -3.8682
  746MOL0     H 2945   2.103   9.265   9.159  2.1895  0.1480 -0.1816
  746MOL0     H 2946   1.829   9.297   9.140  0.5592 -0.7480 -0.2593
  746MOL0     H 2947   1.789   9.331   9.306 -0.1701 -0.4927  0.6043
  746MOL0     H 2948   1.934   9.405   9.235 -1.6348  0.8915 -0.1992
  747MOL0     O 2949   3.956   8.929   1.034  0.1472 -0.5163  0.6922
  747MOL0     C 2950   3.894   8.926   0.934  1.1309 -0.3446  0.2770
  747MOL0     O 2951   3.897   9.015   0.831  0.4413 -0.8125  0.6090
  747MOL0     C 2952   3.985   9.118   0.841 -0.4459  0.2854 -0.0834
  747MOL0     C 2953   3.929   9.241   0.812 -1.1713 -0.2662 -0.5359
  747MOL0     C 2954   3.993   9.360   0.813 -1.3817 -0.1746  0.5291
  747MOL0     C 2955   4.130   9.363   0.852  0.2160  1.1484 -0.5407
  747MOL0     O 2956   4.193   9.482   0.853  0.6137 -0.0875 -0.0658
  747MOL0     C 2957   4.253   9.520   0.979 -0.5189  0.8083  0.7920
  747MOL0     C 2958   4.221   9.662   1.015 -0.6315  0.0727 -0.2358
  747MOL0     C 2959   4.292   9.758   0.916  0.5931 -0.1225 -0.7974
  747MOL0     C 2960   4.433   9.789   0.940  0.3533 -0.3935 -0.5519
  747MOL0     C 2961   4.480   9.875   0.825 -0.7419  0.2532 -0.1317
  747MOL0     C 2962   4.625   9.918   0.823 -0.2830  0.7600 -0.6406
  747MOL0     C 2963   4.680   9.947   0.962  0.7549  0.5897 -0.7566
  747MOL0     C 2964   4.824  10.002   0.963 -0.7065 -1.3130  0.0360
  747MOL0     N 2965   4.890  10.004   1.095 -0.3166  0.4036  0.2599
  747MOL0     C 2966   4.997  10.076   1.126 -0.6960  0.5699  0.4026
  747MOL0     C 2967   5.027  10.058   1.255 -0.1205  0.7390  0.6163
  747MOL0     C 2968   5.141  10.123   1.324 -0.4769  0.1636  1.0058
  747MOL0     C 2969   5.234  10.014   1.375  1.2030 -0.0940  0.1326
  747MOL0     C 2970   5.361  10.062   1.442 -0.1109  0.3767 -0.1209
  747MOL0     C 2971   5.439  10.173   1.363  0.9521  0.5165 -0.0990
  747MOL0     O 2972   5.478  10.130   1.227 -0.2310  0.4611 -0.4389
  747MOL0     C 2973   5.590  10.054   1.212  0.1562 -0.1489 -0.3743
  747MOL0     C 2974   5.578   9.921   1.197 -0.4538 -0.2458 -0.2606
  747MOL0     C 2975   5.690   9.840   1.177  0.2777 -0.4672  0.4175
  747MOL0     C 2976   5.663   9.697   1.179 -0.0732  0.5998  0.3140
  747MOL0     C 2977   5.822   9.896   1.159  0.2674 -0.1338  0.3007
  747MOL0     C 2978   5.949   9.834   1.120 -0.4390  0.3613  0.0065
  747MOL0     O 2979   6.060   9.911   1.143  0.4483  0.2712 -0.5841
  747MOL0     C 2980   6.188   9.864   1.144 -0.2883 -0.7911 -0.1962
  747MOL0     C 2981   6.241   9.739   1.109  0.1739  0.6564 -0.6131
  747MOL0     C 2982   6.381   9.715   1.117 -1.2738  0.5977 -0.7964
  747MOL0     C 2983   6.469   9.811   1.157 -0.7913 -0.3780 -0.2008
  747MOL0     O 2984   6.606   9.784   1.162 -0.1772  0.0779  0.4672
  747MOL0     C 2985   6.686   9.899   1.179 -1.0788 -0.9822 -0.7325
  747MOL0     C 2986   6.842   9.874   1.156 -0.5144  0.0631 -1.0023
  747MOL0     C 2987   6.902   9.822   1.288 -0.5753  0.3815 -0.1215
  747MOL0     C 2988   7.047   9.782   1.273 -0.8943 -0.5161  0.0878
  747MOL0     C 2989   7.115   9.754   1.408  0.1607  0.5553 -0.6342
  747MOL0     C 2990   7.265   9.744   1.392  0.5042 -0.5198  0.0250
  747MOL0     C 2991   7.303   9.608   1.331 -0.1986 -0.2456  0.3579
  747MOL0     C 2992   7.460   9.580   1.327  0.5547 -0.4573  0.8638
  747MOL0    Cl 2993   7.530   9.566   1.478 -0.1341  0.2112  0.2378
  747MOL0     C 2994   6.415   9.939   1.184 -0.2235 -0.1926 -0.5932
  747MOL0     C 2995   6.279   9.963   1.179 -0.5565 -0.7421 -0.1014
  747MOL0     O 2996   5.946   9.722   1.069 -0.5259  0.0048  0.0035
  747MOL0     C 2997   5.830  10.038   1.192 -0.0866  0.8493 -0.0058
  747MOL0     C 2998   5.716  10.112   1.216  0.0444  0.0414  0.1553
  747MOL0     N 2999   4.930   9.981   1.310 -0.0541  0.1410 -0.3968
  747MOL0     N 3000   4.847   9.953   1.217  0.6335 -0.0987  0.4818
  747MOL0     C 3001   4.189   9.239   0.885 -0.2596  0.4895 -0.3503
  747MOL0     C 3002   4.124   9.116   0.887 -0.3623 -0.1211  0.4263
  747MOL0     C 3003   3.807   8.813   0.914 -0.3221 -0.5040  0.1893
  747MOL0     C 3004   3.811   8.758   0.791 -0.2269  0.9047  0.0199
  747MOL0     C 3005   3.729   8.652   0.752  0.2907 -0.0805 -0.3658
  747MOL0     C 3006   3.644   8.596   0.848 -0.4660  0.3423  0.3670
  747MOL0     O 3007   3.566   8.488   0.797 -0.1858 -0.5298 -0.1998
  747MOL0     C 3008   3.503   8.389   0.890  0.1469 -0.3362  0.7664
  747MOL0     C 3009   3.386   8.317   0.822  0.0772 -0.3494 -0.2156
  747MOL0     C 3010   3.296   8.240   0.920 -0.8946 -0.0037  0.3517
  747MOL0     C 3011   3.167   8.171   0.858  0.4122  0.4436  0.5872
  747MOL0     C 3012   3.067   8.278   0.829 -0.5129 -0.0899  0.7024
  747MOL0     C 3013   2.983   8.363   0.804 -0.3871  0.0570  1.0728
  747MOL0     C 3014   3.649   8.645   0.973  1.5978 -0.0785 -0.4012
  747MOL0     C 3015   3.733   8.746   1.015 -0.0353 -0.0154  0.0225
  747MOL0     C 3016   3.725   8.780   1.159  0.0881  0.4513 -0.5971
  747MOL0     H 3017   3.820   9.237   0.807 -1.2322 -3.4691  0.9384
  747MOL0     H 3018   3.928   9.441   0.780  0.2164 -0.0913 -2.8379
  747MOL0     H 3019   4.362   9.509   0.986 -0.6162  0.5610  2.5047
  747MOL0     H 3020   4.218   9.459   1.063  0.0954  1.8091  1.8073
  747MOL0     H 3021   4.113   9.675   1.007 -0.6274 -0.6136 -2.0046
  747MOL0     H 3022   4.246   9.680   1.120  0.7872  0.8157 -0.6836
  747MOL0     H 3023   4.278   9.718   0.815 -1.7815 -1.8727  0.1427
  747MOL0     H 3024   4.244   9.855   0.932  2.0250  0.5968 -0.6560
  747MOL0     H 3025   4.435   9.841   1.036  2.4801  1.3546 -1.4555
  747MOL0     H 3026   4.499   9.703   0.957 -0.1190 -0.7645 -0.5732
  747MOL0     H 3027   4.438   9.976   0.831  1.2997  1.0806  1.6122
  747MOL0     H 3028   4.464   9.831   0.726  1.3764  2.9196 -1.8067
  747MOL0     H 3029   4.683   9.842   0.769 -1.3000  1.5764 -2.9751
  747MOL0     H 3030   4.637  10.007   0.761  2.2512  1.5553  0.8375
  747MOL0     H 3031   4.680   9.861   1.028  0.4893  1.1714  0.0097
  747MOL0     H 3032   4.618  10.023   1.011  1.7318  0.8254  0.1339
  747MOL0     H 3033   4.886   9.947   0.892  2.5386  0.3401  1.3604
  747MOL0     H 3034   4.821  10.107   0.931 -1.8388 -0.3967  2.7424
  747MOL0     H 3035   5.057  10.125   1.050 -1.4463 -1.5006 -1.6308
  747MOL0     H 3036   5.097  10.193   1.396 -0.7557  0.8498  0.1829
  747MOL0     H 3037   5.186  10.178   1.242  0.8268  0.7105  2.0469
  747MOL0     H 3038   5.165   9.949   1.430 -3.1334  2.3327 -1.9119
  747MOL0     H 3039   5.255   9.942   1.296 -3.9377 -1.3151 -0.4975
  747MOL0     H 3040   5.342  10.086   1.547 -1.9863  1.3199 -0.6414
  747MOL0     H 3041   5.421   9.970   1.442 -0.0837  0.3937 -0.5140
  747MOL0     H 3042   5.378  10.264   1.366  0.8030  0.4056  0.2962
  747MOL0     H 3043   5.530  10.200   1.418 -0.4135  1.7505  1.6661
  747MOL0     H 3044   5.476   9.883   1.198 -0.7930  0.6401  0.6024
  747MOL0     H 3045   5.668   9.669   1.073 -0.2175  1.2378  0.1319
  747MOL0     H 3046   5.559   9.676   1.205 -0.8460  3.4812 -0.0960
  747MOL0     H 3047   5.742   9.638   1.225  1.6753  1.0029 -1.9806
  747MOL0     H 3048   6.172   9.662   1.074 -1.8159  2.2738 -0.4095
  747MOL0     H 3049   6.436   9.623   1.099  2.7388  2.4805  0.6405
  747MOL0     H 3050   6.653   9.975   1.108 -1.9060  0.5431  1.1966
  747MOL0     H 3051   6.687   9.935   1.282  1.4817 -2.0806 -0.2970
  747MOL0     H 3052   6.865   9.808   1.072  0.2848  0.1429 -0.8524
  747MOL0     H 3053   6.888   9.970   1.135  1.8397 -1.1047 -1.5065
  747MOL0     H 3054   6.854   9.735   1.335 -0.1074 -0.4666 -1.1736
  747MOL0     H 3055   6.892   9.899   1.365  1.8436 -1.8724  2.7078
  747MOL0     H 3056   7.100   9.866   1.229 -1.6658  0.1040  0.3190
  747MOL0     H 3057   7.054   9.701   1.200 -1.9454  1.2663 -2.1012
  747MOL0     H 3058   7.088   9.831   1.482  0.1747  1.9350 -2.0150
  747MOL0     H 3059   7.073   9.666   1.456 -1.8526  2.4710  1.3788
  747MOL0     H 3060   7.324   9.747   1.485 -0.2804 -0.8101  0.5414
  747MOL0     H 3061   7.306   9.824   1.330 -1.5835  1.1994  0.7598
  747MOL0     H 3062   7.281   9.626   1.226 -2.3413  2.3595  1.1284
  747MOL0     H 3063   7.244   9.530   1.379 -0.6487  0.0623  0.3088
  747MOL0     H 3064   7.519   9.651   1.268 -0.7803  0.2680  0.3809
  747MOL0     H 3065   7.470   9.487   1.270  0.2744 -1.4062  2.3056
  747MOL0     H 3066   6.475  10.027   1.204  0.6592 -0.6211 -1.2730
  747MOL0     H 3067   6.250  10.067   1.172 -2.4052 -1.3495 -3.0785
  747MOL0     H 3068   5.925  10.091   1.192  1.6028 -1.9474 -0.5218
  747MOL0     H 3069   5.722  10.213   1.257 -1.3397  1.0884 -1.9966
  747MOL0     H 3070   4.287   9.226   0.929 -0.3778 -1.1021 -0.4734
  747MOL0     H 3071   4.170   9.022   0.913  0.2862  0.4136  1.2567
  747MOL0     H 3072   3.872   8.799   0.712 -2.6300 -0.1550 -2.5691
  747MOL0     H 3073   3.730   8.612   0.651 -1.0474  0.4750 -0.6222
  747MOL0     H 3074   3.575   8.314   0.923  1.0916 -0.0841 -0.6170
  747MOL0     H 3075   3.466   8.438   0.981  1.1432 -1.2234  1.6851
  747MOL0     H 3076   3.419   8.256   0.738 -4.1859 -0.7899 -1.7933
  747MOL0     H 3077   3.324   8.400   0.788 -2.4935 -1.6197  1.0939
  747MOL0     H 3078   3.366   8.165   0.957  0.2258 -0.0248 -1.6332
  747MOL0     H 3079   3.262   8.298   1.006 -1.0048 -2.0392  1.7280
  747MOL0     H 3080   3.119   8.100   0.925  1.2352 -1.8478 -1.1013
  747MOL0     H 3081   3.197   8.114   0.769 -1.9197  0.9669 -0.6073
  747MOL0     H 3082   2.905   8.430   0.775  0.9116  0.2193 -2.5623
  747MOL0     H 3083   3.589   8.605   1.053 -0.4717  0.9771 -1.3280
  747MOL0     H 3084   3.702   8.882   1.189 -3.2017 -0.4713  0.4581
  747MOL0     H 3085   3.659   8.717   1.220  2.3840 -1.8732 -0.2833
  747MOL0     H 3086   3.827   8.759   1.192  1.0687 -0.4110 -3.8086
  748MOL0     O 3087   0.696   2.485   6.890 -0.1958 -0.7909 -0.0403
  748MOL0     C 3088   0.695   2.597   6.951  0.3333 -0.1341 -0.5626
  748MOL0     O 3089   0.801   2.683   6.971  0.3391 -0.4696  0.0353
  748MOL0     C 3090   0.927   2.672   6.912 -0.4034  0.4636  0.0939
  748MOL0     C 3091   0.955   2.580   6.806  0.1220  0.4104 -0.0848
  748MOL0     C 3092   1.085   2.573   6.759 -0.4549  0.1206  0.0379
  748MOL0     C 3093   1.189   2.650   6.807 -0.0179  0.4665 -0.6744
  748MOL0     O 3094   1.314   2.628   6.754 -0.5873 -0.7140 -0.2331
  748MOL0     C 3095   1.434   2.662   6.832 -0.2681 -0.9158  0.1432
  748MOL0     C 3096   1.570   2.607   6.781  0.0240  0.1593  0.0452
  748MOL0     C 3097   1.576   2.457   6.762 -0.7625 -0.2552  0.4404
  748MOL0     C 3098   1.571   2.381   6.898 -0.4308 -0.1747  0.2086
  748MOL0     C 3099   1.545   2.230   6.872  0.0808  0.9262 -0.4841
  748MOL0     C 3100   1.563   2.135   7.000  0.2768 -0.2130 -0.2182
  748MOL0     C 3101   1.491   2.178   7.130 -0.4436 -0.0167  0.0126
  748MOL0     C 3102   1.470   2.063   7.229 -1.6245 -0.1757  0.2027
  748MOL0     N 3103   1.424   2.110   7.360  0.6843 -0.0604  0.3538
  748MOL0     C 3104   1.295   2.113   7.418 -0.5951 -1.4749  0.9723
  748MOL0     C 3105   1.301   2.172   7.542 -0.1036 -0.0221  0.6904
  748MOL0     C 3106   1.195   2.177   7.648 -0.4068  0.4450  0.3869
  748MOL0     C 3107   1.170   2.049   7.729  0.4462  0.2679 -0.0837
  748MOL0     C 3108   1.271   2.006   7.832  0.0388 -0.1397  0.0275
  748MOL0     C 3109   1.318   2.106   7.933  1.0036  0.7312  0.3620
  748MOL0     O 3110   1.408   2.054   8.040 -0.0795  0.4014  0.1170
  748MOL0     C 3111   1.508   2.139   8.073  0.4158 -0.5033  0.4546
  748MOL0     C 3112   1.607   2.083   8.144  0.8958 -0.0141 -0.7292
  748MOL0     C 3113   1.705   2.160   8.204 -0.8866  0.6801 -0.6543
  748MOL0     C 3114   1.809   2.082   8.289  0.2418 -0.8555  0.6005
  748MOL0     C 3115   1.704   2.299   8.189 -1.0223 -0.4521  0.0585
  748MOL0     C 3116   1.813   2.395   8.233 -0.0065  0.4522  0.6849
  748MOL0     O 3117   1.789   2.527   8.233 -0.3688 -0.1651 -0.3163
  748MOL0     C 3118   1.884   2.626   8.265  1.2556 -1.2320 -0.4121
  748MOL0     C 3119   1.856   2.710   8.373 -0.3046 -0.2068  0.2501
  748MOL0     C 3120   1.959   2.792   8.439 -0.4699 -0.6558  1.0554
  748MOL0     C 3121   2.091   2.794   8.379 -0.3381  0.2727 -0.6904
  748MOL0     O 3122   2.202   2.856   8.427  0.6908  0.0666 -0.1739
  748MOL0     C 3123   2.183   2.935   8.551  1.1637  1.1918  0.2273
  748MOL0     C 3124   2.304   3.011   8.588 -0.2394 -0.9747 -0.2446
  748MOL0     C 3125   2.393   3.066   8.476 -0.1843  0.3826 -0.1788
  748MOL0     C 3126   2.529   3.115   8.529 -0.8912  0.0824  0.9696
  748MOL0     C 3127   2.612   3.153   8.405 -0.0788  0.8074  0.1363
  748MOL0     C 3128   2.758   3.169   8.446 -0.8429 -0.8846  0.6842
  748MOL0     C 3129   2.831   3.260   8.345 -0.3093 -1.2960  0.0266
  748MOL0     C 3130   2.981   3.267   8.386  1.1814 -0.6328  0.4237
  748MOL0    Cl 3131   3.074   3.389   8.292  0.2023  0.6596  0.0876
  748MOL0     C 3132   2.108   2.722   8.258 -0.3500 -0.8086 -0.6373
  748MOL0     C 3133   2.008   2.637   8.202 -0.1648 -0.4341 -0.0732
  748MOL0     O 3134   1.918   2.344   8.286  0.6220 -0.3914  0.5101
  748MOL0     C 3135   1.605   2.356   8.115 -0.8300 -0.0286  0.4799
  748MOL0     C 3136   1.511   2.277   8.055  0.5739  0.4157 -0.0773
  748MOL0     N 3137   1.431   2.211   7.557  0.4010  0.8878 -0.6665
  748MOL0     N 3138   1.501   2.173   7.456  0.4854  0.5130 -0.2372
  748MOL0     C 3139   1.168   2.742   6.906  1.0415  0.1177 -0.1479
  748MOL0     C 3140   1.037   2.749   6.963  0.0767 -0.0183  0.8203
  748MOL0     C 3141   0.563   2.633   7.003 -0.2494 -0.1185 -0.3694
  748MOL0     C 3142   0.458   2.538   6.999 -0.6158 -0.0573 -0.3169
  748MOL0     C 3143   0.326   2.576   7.029 -0.3680 -0.3181  0.6656
  748MOL0     C 3144   0.289   2.701   7.071  0.0683 -0.2481 -0.3387
  748MOL0     O 3145   0.160   2.734   7.100 -0.3019  0.7540  0.9236
  748MOL0     C 3146   0.056   2.672   7.014 -0.9052 -0.2598  0.6522
  748MOL0     C 3147  -0.054   2.768   6.984 -0.0317 -0.2240  0.4443
  748MOL0     C 3148  -0.121   2.802   7.115  0.2018 -0.8446  0.1529
  748MOL0     C 3149  -0.272   2.772   7.085 -0.0580  0.1449 -0.1815
  748MOL0     C 3150  -0.343   2.775   7.213 -0.5311  0.3451  0.1594
  748MOL0     C 3151  -0.400   2.776   7.322 -0.0863 -0.2477  1.1147
  748MOL0     C 3152   0.398   2.788   7.090 -0.4542 -0.2377  0.0174
  748MOL0     C 3153   0.530   2.762   7.050  1.1570 -0.3050  0.0846
  748MOL0     C 3154   0.624   2.880   7.057  0.1342 -0.3443 -0.6371
  748MOL0     H 3155   0.886   2.514   6.754  0.3581  1.1803 -1.4317
  748MOL0     H 3156   1.105   2.491   6.691  0.9424  0.1653  0.3816
  748MOL0     H 3157   1.407   2.628   6.933  0.4974 -0.7243  0.4228
  748MOL0     H 3158   1.443   2.771   6.831  2.0031 -0.9901  2.3842
  748MOL0     H 3159   1.577   2.657   6.684 -3.6097  0.0747 -0.4007
  748MOL0     H 3160   1.652   2.633   6.848 -1.3971  0.4483  1.7433
  748MOL0     H 3161   1.493   2.432   6.695  0.7229  1.4470 -2.2218
  748MOL0     H 3162   1.667   2.433   6.706 -1.6770 -1.8067 -0.4724
  748MOL0     H 3163   1.664   2.408   6.950  0.0558 -0.7451 -0.3469
  748MOL0     H 3164   1.487   2.422   6.954 -1.8924  1.2473 -2.8209
  748MOL0     H 3165   1.603   2.188   6.790 -0.0721  1.0097 -0.6364
  748MOL0     H 3166   1.439   2.218   6.848 -0.1646  0.1737  0.8270
  748MOL0     H 3167   1.533   2.033   6.976 -0.6617 -0.0141  0.0712
  748MOL0     H 3168   1.669   2.138   7.028 -0.4173 -1.4930  2.9689
  748MOL0     H 3169   1.390   2.218   7.115 -0.1047  1.7919  2.0260
  748MOL0     H 3170   1.552   2.253   7.181 -2.2937  1.0292  0.8261
  748MOL0     H 3171   1.423   1.974   7.187 -1.3094 -0.1172 -0.2839
  748MOL0     H 3172   1.575   2.030   7.231 -1.9271 -1.2139 -0.3375
  748MOL0     H 3173   1.201   2.089   7.369 -0.3196  2.3112 -1.8212
  748MOL0     H 3174   1.102   2.203   7.597 -1.1898 -0.0740  1.4841
  748MOL0     H 3175   1.221   2.261   7.714 -0.7508  2.8209 -2.3198
  748MOL0     H 3176   1.080   2.069   7.787  1.8079 -0.5778  2.4862
  748MOL0     H 3177   1.163   1.969   7.656 -1.6253  1.5865 -1.4287
  748MOL0     H 3178   1.221   1.927   7.889 -1.2549 -0.1440 -1.0767
  748MOL0     H 3179   1.355   1.959   7.780  1.3882  0.9975  1.0692
  748MOL0     H 3180   1.373   2.185   7.881  1.0453  0.1170 -0.5509
  748MOL0     H 3181   1.229   2.151   7.977  3.6302  4.3150  2.5200
  748MOL0     H 3182   1.607   1.977   8.166  3.2822  0.3223  1.3721
  748MOL0     H 3183   1.788   1.976   8.270  2.6883 -1.5881  1.6597
  748MOL0     H 3184   1.792   2.108   8.394  2.0651 -1.0145  0.9588
  748MOL0     H 3185   1.913   2.094   8.256  1.1591 -0.4818  3.4194
  748MOL0     H 3186   1.754   2.715   8.409  0.4090  3.6976  2.1724
  748MOL0     H 3187   1.941   2.854   8.527 -1.2317 -1.5958  1.5812
  748MOL0     H 3188   2.103   3.009   8.547  0.4172  0.4149  0.3785
  748MOL0     H 3189   2.163   2.877   8.642  0.2200  0.3968 -0.4703
  748MOL0     H 3190   2.265   3.090   8.654  1.6113 -1.8945  2.0862
  748MOL0     H 3191   2.354   2.948   8.661 -1.0902  0.3369  1.5651
  748MOL0     H 3192   2.342   3.150   8.428  1.4031  1.3941 -0.1497
  748MOL0     H 3193   2.398   2.982   8.407 -0.6349 -0.3918  0.7018
  748MOL0     H 3194   2.575   3.035   8.588  0.4138 -1.6746 -2.1648
  748MOL0     H 3195   2.525   3.208   8.586 -2.3680 -0.0434  1.1100
  748MOL0     H 3196   2.608   3.068   8.336  2.1229 -0.6066  1.6056
  748MOL0     H 3197   2.578   3.244   8.355  1.4907 -0.0916 -2.8197
  748MOL0     H 3198   2.805   3.070   8.436  1.7086  0.3621 -0.5479
  748MOL0     H 3199   2.780   3.218   8.541 -1.1786 -2.6471  1.7162
  748MOL0     H 3200   2.792   3.363   8.350  0.1183 -1.0412 -1.4405
  748MOL0     H 3201   2.811   3.222   8.245  0.6716  0.8495 -1.0521
  748MOL0     H 3202   3.033   3.171   8.388 -1.4227 -2.0982  0.8142
  748MOL0     H 3203   2.979   3.302   8.489 -3.4931 -0.5924  0.5043
  748MOL0     H 3204   2.211   2.728   8.224 -0.3846  1.5241 -0.5282
  748MOL0     H 3205   2.041   2.584   8.113 -0.2876 -0.7951  0.0949
  748MOL0     H 3206   1.591   2.463   8.107 -0.5992 -0.0933 -1.0093
  748MOL0     H 3207   1.426   2.330   8.012 -3.6125 -4.7265  0.7257
  748MOL0     H 3208   1.245   2.806   6.947  0.2814  1.2358 -0.4324
  748MOL0     H 3209   1.011   2.815   7.045  2.8226  0.4622  1.4117
  748MOL0     H 3210   0.478   2.436   6.967  1.1276 -0.0185  0.5192
  748MOL0     H 3211   0.258   2.494   7.005  0.6779 -0.4303 -2.3869
  748MOL0     H 3212   0.101   2.644   6.918  1.3766  3.1153  0.5686
  748MOL0     H 3213   0.014   2.583   7.061  3.8793 -1.3717  3.4174
  748MOL0     H 3214  -0.123   2.734   6.907  1.9042  2.4048 -2.6839
  748MOL0     H 3215  -0.002   2.855   6.944 -2.7944  1.4201  0.1500
  748MOL0     H 3216  -0.080   2.738   7.193 -2.9252 -0.5580  2.2115
  748MOL0     H 3217  -0.107   2.908   7.141 -1.6259 -0.8287  1.2372
  748MOL0     H 3218  -0.285   2.678   7.032  1.1821  0.5133 -1.1842
  748MOL0     H 3219  -0.311   2.847   7.015 -1.5598 -1.1843 -0.8208
  748MOL0     H 3220  -0.442   2.786   7.420  0.7390  0.0941  1.4398
  748MOL0     H 3221   0.386   2.887   7.132  3.8252 -0.1622  1.5487
  748MOL0     H 3222   0.578   2.962   7.114  2.0621 -0.4295  1.1656
  748MOL0     H 3223   0.709   2.843   7.115 -1.1244 -2.3570  0.0130
  748MOL0     H 3224   0.651   2.909   6.955 -2.0925  0.7508 -0.9641
  749MOL0     O 3225   3.114   1.861   2.488 -0.2458  0.2407 -0.0523
  749MOL0     C 3226   3.076   1.762   2.552 -0.2712  0.2173 -0.8116
  749MOL0     O 3227   3.152   1.656   2.579  0.0243  0.0649 -0.2810
  749MOL0     C 3228   3.289   1.667   2.551  0.0522  0.9315 -0.0041
  749MOL0     C 3229   3.362   1.777   2.587  0.4671 -0.2220 -1.2592
  749MOL0     C 3230   3.502   1.771   2.562  0.1595  0.1956  0.3522
  749MOL0     C 3231   3.563   1.659   2.502  0.7170 -0.7333  0.1479
  749MOL0     O 3232   3.701   1.667   2.489 -0.0986  0.4293 -0.3299
  749MOL0     C 3233   3.759   1.555   2.415  0.1947  0.2539 -0.9786
  749MOL0     C 3234   3.911   1.576   2.417 -0.0283 -0.6021  0.4348
  749MOL0     C 3235   3.982   1.583   2.561 -0.8900 -0.4924 -0.1071
  749MOL0     C 3236   4.118   1.663   2.559  0.1872 -0.7031  0.1252
  749MOL0     C 3237   4.198   1.669   2.693 -0.1600 -0.4547 -0.9392
  749MOL0     C 3238   4.280   1.541   2.746  0.9351 -0.2457 -0.1858
  749MOL0     C 3239   4.312   1.547   2.902  0.3148  0.4693 -0.2297
  749MOL0     C 3240   4.409   1.665   2.938 -0.4872  1.1131  1.1536
  749MOL0     N 3241   4.544   1.644   2.882  0.9019  0.7824  0.3378
  749MOL0     C 3242   4.640   1.599   2.963  0.0936  0.3406 -0.0331
  749MOL0     C 3243   4.753   1.626   2.889  0.7465 -0.4635  0.6057
  749MOL0     C 3244   4.893   1.599   2.921  0.2077 -0.1663  0.0288
  749MOL0     C 3245   4.976   1.729   2.930  1.0838  0.3754  0.3734
  749MOL0     C 3246   5.108   1.718   2.993  0.0950  0.2128  0.1832
  749MOL0     C 3247   5.207   1.672   2.891 -0.8858 -0.0397  0.2134
  749MOL0     O 3248   5.340   1.690   2.954  0.2836  0.0930 -0.0535
  749MOL0     C 3249   5.459   1.645   2.893  0.2376  0.1719  0.5408
  749MOL0     C 3250   5.471   1.625   2.757 -0.4229 -0.9159 -0.2323
  749MOL0     C 3251   5.580   1.588   2.692 -0.5198  0.1627  0.3034
  749MOL0     C 3252   5.585   1.564   2.547  1.1289  0.3462  0.4738
  749MOL0     C 3253   5.701   1.581   2.773  1.3679 -0.3882  0.8224
  749MOL0     C 3254   5.833   1.560   2.710 -1.2461  0.1842  0.9628
  749MOL0     O 3255   5.927   1.490   2.786 -0.8069 -0.2004 -0.3705
  749MOL0     C 3256   6.047   1.478   2.727 -1.0983  0.3985  0.9742
  749MOL0     C 3257   6.123   1.593   2.705 -0.1429  0.4713 -0.1150
  749MOL0     C 3258   6.243   1.588   2.637  0.6118  0.1996  0.2997
  749MOL0     C 3259   6.301   1.468   2.606  0.1527 -0.0685  0.3031
  749MOL0     O 3260   6.428   1.439   2.558 -0.0091 -0.9672  0.1029
  749MOL0     C 3261   6.482   1.541   2.469  0.1199  0.1007  0.0874
  749MOL0     C 3262   6.638   1.530   2.456  0.4880  0.1210  0.4000
  749MOL0     C 3263   6.675   1.383   2.421  0.3397 -0.4419  0.0528
  749MOL0     C 3264   6.801   1.385   2.337  0.3223  0.6025  0.8055
  749MOL0     C 3265   6.867   1.246   2.327  0.2117  0.1514  0.0885
  749MOL0     C 3266   6.990   1.258   2.256  0.9045 -0.7199  0.4134
  749MOL0     C 3267   7.073   1.136   2.279 -0.5262 -0.3739 -0.0070
  749MOL0     C 3268   7.192   1.134   2.177  0.6440  0.5222 -0.5706
  749MOL0    Cl 3269   7.124   1.087   2.017  0.4185  0.3731 -0.0360
  749MOL0     C 3270   6.228   1.351   2.634  0.1432 -0.3555  0.6151
  749MOL0     C 3271   6.096   1.355   2.686  0.9320 -1.2948 -1.3750
  749MOL0     O 3272   5.855   1.614   2.595  0.1812 -0.7491  0.1361
  749MOL0     C 3273   5.691   1.587   2.913 -0.2472  0.5623  0.1355
  749MOL0     C 3274   5.572   1.627   2.973  0.2080 -0.4322 -0.4658
  749MOL0     N 3275   4.719   1.682   2.773  0.7376 -0.0276  0.4161
  749MOL0     N 3276   4.591   1.691   2.770  0.2314 -0.1516  0.1980
  749MOL0     C 3277   3.485   1.549   2.472  0.2233 -0.3839  0.1941
  749MOL0     C 3278   3.353   1.559   2.490 -0.0527  0.4105  0.1837
  749MOL0     C 3279   2.960   1.770   2.649  0.4564 -0.1826 -0.3546
  749MOL0     C 3280   2.913   1.655   2.713 -0.3715 -0.3644  0.5989
  749MOL0     C 3281   2.803   1.648   2.785  0.7095 -0.6514 -0.4353
  749MOL0     C 3282   2.725   1.759   2.808 -0.0102  0.0394 -0.4300
  749MOL0     O 3283   2.611   1.739   2.886  1.0797 -0.0805  0.4537
  749MOL0     C 3284   2.505   1.835   2.876  0.5630 -1.3126 -1.0195
  749MOL0     C 3285   2.389   1.773   2.954  0.8335 -0.0707 -0.5548
  749MOL0     C 3286   2.422   1.706   3.095  0.0234  0.0232 -0.5521
  749MOL0     C 3287   2.476   1.797   3.203 -0.1560  0.8663  0.1649
  749MOL0     C 3288   2.386   1.906   3.241  0.6610  0.1742  0.0373
  749MOL0     C 3289   2.310   1.991   3.278  0.0910  0.1819 -0.4913
  749MOL0     C 3290   2.765   1.876   2.754  0.0673  0.0846  0.0537
  749MOL0     C 3291   2.881   1.887   2.672 -0.3288 -0.5688  0.1875
  749MOL0     C 3292   2.902   2.014   2.586  1.1838  0.5765 -0.5653
  749MOL0     H 3293   3.307   1.858   2.632 -0.3934 -1.1490 -0.5989
  749MOL0     H 3294   3.564   1.859   2.575  3.3313 -1.2886 -2.7640
  749MOL0     H 3295   3.723   1.535   2.314  2.0314 -1.9479 -1.2908
  749MOL0     H 3296   3.741   1.460   2.466  0.4057 -1.7633 -4.3626
  749MOL0     H 3297   3.956   1.501   2.351 -2.5015 -1.6788 -0.1516
  749MOL0     H 3298   3.925   1.670   2.363 -0.7137 -0.9080 -0.2957
  749MOL0     H 3299   3.923   1.636   2.636  0.3005  1.2944 -0.3790
  749MOL0     H 3300   3.999   1.482   2.598  1.7290  0.6554  2.0778
  749MOL0     H 3301   4.176   1.615   2.480  0.2633 -0.3110 -0.0636
  749MOL0     H 3302   4.092   1.764   2.523 -0.4469 -1.9268 -3.1995
  749MOL0     H 3303   4.124   1.704   2.766  1.6667  1.5661  0.0889
  749MOL0     H 3304   4.270   1.752   2.690 -1.4772  0.6952 -1.6504
  749MOL0     H 3305   4.226   1.448   2.727 -0.8549  0.3898  1.4200
  749MOL0     H 3306   4.374   1.521   2.694 -0.3173 -5.7919 -0.9090
  749MOL0     H 3307   4.338   1.450   2.944  1.1295  0.9429  0.3916
  749MOL0     H 3308   4.219   1.563   2.956  1.0016  1.6286  0.6616
  749MOL0     H 3309   4.372   1.760   2.898  0.6021  0.8813 -0.4907
  749MOL0     H 3310   4.419   1.681   3.045  1.1568  0.0448  1.1807
  749MOL0     H 3311   4.624   1.578   3.068 -2.0850  1.1846 -0.1440
  749MOL0     H 3312   4.944   1.545   2.840  2.6930  2.9080 -0.6258
  749MOL0     H 3313   4.898   1.538   3.012 -0.0453 -0.5705 -0.2251
  749MOL0     H 3314   4.980   1.764   2.827 -0.5834 -1.1048 -0.2540
  749MOL0     H 3315   4.921   1.802   2.991  1.1511  0.4688  0.3213
  749MOL0     H 3316   5.146   1.809   3.040  1.4949 -0.8384  1.1604
  749MOL0     H 3317   5.105   1.646   3.076  1.3613 -1.7349 -1.3613
  749MOL0     H 3318   5.191   1.566   2.868  1.2338 -0.3192 -0.2025
  749MOL0     H 3319   5.214   1.733   2.801  0.3382 -0.6769 -0.1533
  749MOL0     H 3320   5.389   1.644   2.688  1.1097  0.9634 -1.6748
  749MOL0     H 3321   5.634   1.655   2.508  1.4624  0.4012  1.0103
  749MOL0     H 3322   5.487   1.554   2.501  1.5664  1.5892 -0.8251
  749MOL0     H 3323   5.653   1.480   2.528  2.0278  0.8092  1.4980
  749MOL0     H 3324   6.066   1.680   2.735 -2.3418 -1.7305  2.6511
  749MOL0     H 3325   6.310   1.674   2.634 -0.0791  0.7451 -1.8662
  749MOL0     H 3326   6.440   1.524   2.369 -0.8626  1.1381  0.3160
  749MOL0     H 3327   6.460   1.645   2.494  1.2250  0.8323 -1.7058
  749MOL0     H 3328   6.669   1.605   2.383 -3.0762  1.0397 -0.3672
  749MOL0     H 3329   6.685   1.557   2.551  1.1508 -2.6563  0.9383
  749MOL0     H 3330   6.590   1.343   2.365 -1.9255 -0.3602  3.1906
  749MOL0     H 3331   6.673   1.321   2.511 -1.8414 -1.1597 -0.4279
  749MOL0     H 3332   6.876   1.453   2.378  1.0391  0.4589 -0.2618
  749MOL0     H 3333   6.767   1.415   2.238  0.9172 -2.0943 -0.3010
  749MOL0     H 3334   6.888   1.219   2.431 -1.4176  1.6615  0.8689
  749MOL0     H 3335   6.800   1.173   2.281 -1.4832  1.4125  0.4542
  749MOL0     H 3336   7.042   1.348   2.287  0.9148 -0.5818  0.0006
  749MOL0     H 3337   6.962   1.268   2.151 -0.5906  0.1068  0.8616
  749MOL0     H 3338   7.019   1.041   2.270 -1.1695 -0.1119  0.9292
  749MOL0     H 3339   7.113   1.122   2.380 -2.3245 -2.4460  0.4985
  749MOL0     H 3340   7.264   1.055   2.200  0.8761  0.3423 -1.8233
  749MOL0     H 3341   7.245   1.230   2.171  4.4687 -1.1849  2.1573
  749MOL0     H 3342   6.278   1.255   2.624  0.8513  0.0258  0.3973
  749MOL0     H 3343   6.048   1.263   2.718 -1.6079  1.3696  3.6587
  749MOL0     H 3344   5.770   1.566   2.984 -0.1790  0.9647  0.1812
  749MOL0     H 3345   5.564   1.639   3.081  1.6024  4.2970 -0.6683
  749MOL0     H 3346   3.538   1.464   2.431 -1.3410 -0.1074 -2.6377
  749MOL0     H 3347   3.287   1.481   2.454  0.4412  0.7269 -1.5146
  749MOL0     H 3348   2.966   1.561   2.703 -0.2981 -0.4101  1.3937
  749MOL0     H 3349   2.765   1.557   2.831  1.1980  0.1950  1.7352
  749MOL0     H 3350   2.540   1.933   2.910  0.9243 -1.9095  0.4167
  749MOL0     H 3351   2.479   1.842   2.770  2.8146  0.5163 -1.5364
  749MOL0     H 3352   2.330   1.701   2.897 -0.6411 -0.9935  1.9938
  749MOL0     H 3353   2.315   1.852   2.975  0.4558 -0.7000  0.5339
  749MOL0     H 3354   2.322   1.666   3.116  0.9177 -3.7201 -2.5243
  749MOL0     H 3355   2.485   1.620   3.074 -1.2111 -0.7722 -1.1601
  749MOL0     H 3356   2.566   1.842   3.161  0.8290  0.1157  1.4164
  749MOL0     H 3357   2.496   1.730   3.287 -0.5697 -3.0245 -2.5484
  749MOL0     H 3358   2.230   2.045   3.325  1.1557 -0.2107  1.9299
  749MOL0     H 3359   2.706   1.966   2.768  2.9166  2.5447 -2.3562
  749MOL0     H 3360   2.987   2.076   2.617  1.2857  0.3502 -0.3897
  749MOL0     H 3361   2.913   2.000   2.478  4.2816 -0.7774 -0.1815
  749MOL0     H 3362   2.810   2.073   2.590 -0.2394 -1.5333 -0.4971
  750MOL0     O 3363  11.189   2.451   7.168  0.4716  0.7120  0.4161
  750MOL0     C 3364  11.204   2.385   7.268  0.2594  0.5838 -0.2784
  750MOL0     O 3365  11.319   2.322   7.309  0.0708 -0.1134 -0.4383
  750MOL0     C 3366  11.414   2.293   7.219 -0.5374  0.3634 -0.5600
  750MOL0     C 3367  11.541   2.320   7.265 -0.1087  0.7200  0.0228
  750MOL0     C 3368  11.648   2.275   7.187  1.0763 -0.3372  0.1863
  750MOL0     C 3369  11.633   2.215   7.059 -0.9637  0.2994  0.2033
  750MOL0     O 3370  11.740   2.208   6.979 -0.1501 -0.0994 -0.3273
  750MOL0     C 3371  11.765   2.087   6.917 -0.6895  0.3871 -0.8359
  750MOL0     C 3372  11.911   2.060   6.968  0.4097 -0.1091 -0.6900
  750MOL0     C 3373  12.011   2.178   6.930 -0.0238  0.3213  0.2285
  750MOL0     C 3374  12.148   2.127   6.877 -0.1414  0.1974  0.2901
  750MOL0     C 3375  12.245   2.069   6.976  0.1324  0.4874 -0.6993
  750MOL0     C 3376  12.370   2.017   6.912 -0.1947 -0.0204  0.5943
  750MOL0     C 3377  12.472   1.979   7.020 -0.0816  0.9106 -0.0211
  750MOL0     C 3378  12.533   1.842   6.998 -0.3230  0.2794  0.1021
  750MOL0     N 3379  12.601   1.844   6.863  0.0527 -0.6828 -0.0331
  750MOL0     C 3380  12.713   1.915   6.824 -0.7156 -0.3718 -0.6360
  750MOL0     C 3381  12.740   1.863   6.704 -0.5915 -0.7221  0.4216
  750MOL0     C 3382  12.849   1.897   6.603 -0.5876  0.3661 -0.1280
  750MOL0     C 3383  12.831   2.025   6.523 -0.3044 -1.0786 -0.0038
  750MOL0     C 3384  12.932   2.027   6.408 -0.2966 -0.1259  0.0412
  750MOL0     C 3385  12.952   2.157   6.322  0.2880  0.4482 -0.6421
  750MOL0     O 3386  12.935   2.286   6.391  0.1993  0.4342 -0.0946
  750MOL0     C 3387  13.053   2.353   6.403  0.2497 -1.1885  0.3828
  750MOL0     C 3388  13.042   2.493   6.418 -0.0974 -0.2163 -0.2644
  750MOL0     C 3389  13.166   2.570   6.433  0.4425 -1.2458  0.1966
  750MOL0     C 3390  13.145   2.716   6.452 -0.5237  0.3908  0.1855
  750MOL0     C 3391  13.289   2.509   6.420 -0.0474  0.3546 -0.1628
  750MOL0     C 3392  13.422   2.577   6.425  0.1113 -0.4922 -0.5548
  750MOL0     O 3393  13.523   2.499   6.382  0.0548 -0.4003  0.2149
  750MOL0     C 3394  13.655   2.538   6.370 -1.2060  0.2370 -0.0650
  750MOL0     C 3395  13.717   2.661   6.415  0.2409  0.2874  1.2808
  750MOL0     C 3396  13.860   2.671   6.386  0.3543 -0.0723 -0.1199
  750MOL0     C 3397  13.933   2.579   6.318 -0.1333 -0.0177 -0.4377
  750MOL0     O 3398  14.072   2.608   6.297 -0.6595 -0.5763  0.0868
  750MOL0     C 3399  14.123   2.736   6.254  0.3313 -0.0431  0.6032
  750MOL0     C 3400  14.267   2.725   6.181  0.2847 -0.2973 -0.4551
  750MOL0     C 3401  14.240   2.675   6.043  0.3182 -1.4022  0.4325
  750MOL0     C 3402  14.367   2.615   5.983  0.4710 -0.4190 -0.3436
  750MOL0     C 3403  14.474   2.720   5.950 -1.3414  1.5990  0.6107
  750MOL0     C 3404  14.574   2.743   6.067 -0.4650  0.0195 -0.5236
  750MOL0     C 3405  14.655   2.873   6.053  0.5594 -0.1611  0.8024
  750MOL0     C 3406  14.756   2.896   6.165 -0.5167 -0.8054  0.1638
  750MOL0    Cl 3407  14.829   3.067   6.144 -0.5145  0.4513 -0.3847
  750MOL0     C 3408  13.871   2.456   6.284 -0.5822 -0.0210 -0.0944
  750MOL0     C 3409  13.732   2.434   6.311 -0.0811 -1.0190  0.3048
  750MOL0     O 3410  13.440   2.687   6.481  0.0002  0.1057 -0.0083
  750MOL0     C 3411  13.293   2.368   6.390 -0.1327 -0.7083 -0.1552
  750MOL0     C 3412  13.174   2.295   6.386 -0.1696  0.1008  0.6494
  750MOL0     N 3413  12.659   1.752   6.678  0.2950  0.3791 -0.3970
  750MOL0     N 3414  12.575   1.739   6.772 -0.4220  0.6163 -0.8233
  750MOL0     C 3415  11.498   2.207   7.006 -0.5247  0.4353 -0.1669
  750MOL0     C 3416  11.385   2.248   7.086 -0.2990  0.4767  0.2413
  750MOL0     C 3417  11.089   2.394   7.367 -0.1781 -0.1290  0.4288
  750MOL0     C 3418  11.106   2.369   7.502  0.0540 -0.4333  0.2502
  750MOL0     C 3419  10.998   2.389   7.584  0.6165  0.3130  0.4106
  750MOL0     C 3420  10.866   2.411   7.539 -0.2893  0.4410  0.5502
  750MOL0     O 3421  10.761   2.430   7.616 -0.5019  0.5206 -0.6978
  750MOL0     C 3422  10.768   2.396   7.757 -0.5250  0.2922  0.0465
  750MOL0     C 3423  10.783   2.241   7.791 -0.8066  0.2399  0.1695
  750MOL0     C 3424  10.695   2.145   7.707  0.6317 -0.3689  0.3377
  750MOL0     C 3425  10.702   1.998   7.749 -0.4154 -0.7806 -0.5172
  750MOL0     C 3426  10.634   1.961   7.870 -0.2272 -0.4194 -0.2152
  750MOL0     C 3427  10.601   1.923   7.978 -0.8929  0.5637 -0.2306
  750MOL0     C 3428  10.848   2.412   7.402  0.8762  0.5208 -0.0787
  750MOL0     C 3429  10.951   2.407   7.321 -0.7075 -0.1175  0.2578
  750MOL0     C 3430  10.917   2.421   7.170 -0.3381  0.1495 -0.6486
  750MOL0     H 3431  11.539   2.359   7.366  1.0232  0.7227  0.0594
  750MOL0     H 3432  11.744   2.293   7.235 -0.2135 -0.5081  3.0239
  750MOL0     H 3433  11.761   2.106   6.810 -1.9848 -2.4946 -1.3729
  750MOL0     H 3434  11.700   2.006   6.952 -2.2659  1.1122 -1.9748
  750MOL0     H 3435  11.914   2.057   7.077 -1.7954 -2.3661 -0.5984
  750MOL0     H 3436  11.953   1.969   6.923 -0.7074 -0.1064 -1.7883
  750MOL0     H 3437  11.968   2.233   6.846  0.8339 -2.6967 -2.3702
  750MOL0     H 3438  12.031   2.243   7.016 -1.7043  2.6081 -0.9940
  750MOL0     H 3439  12.129   2.057   6.795 -1.5013  0.6461  0.2079
  750MOL0     H 3440  12.196   2.214   6.830  1.2226 -1.1385 -0.8907
  750MOL0     H 3441  12.199   1.984   7.027  1.3143  0.1917 -0.0810
  750MOL0     H 3442  12.277   2.149   7.044  0.9074 -0.5708  0.2442
  750MOL0     H 3443  12.350   1.932   6.846  1.7209 -0.4012  0.4193
  750MOL0     H 3444  12.414   2.086   6.839 -0.3381 -2.0274 -1.5024
  750MOL0     H 3445  12.429   1.958   7.118  0.0554  0.4848 -0.0513
  750MOL0     H 3446  12.552   2.054   7.018  1.5960 -0.7963 -0.5672
  750MOL0     H 3447  12.603   1.813   7.077 -1.6113  0.6970  1.4339
  750MOL0     H 3448  12.457   1.763   6.995  0.8367 -0.8656 -1.5685
  750MOL0     H 3449  12.748   2.004   6.876 -3.5785  0.1587  0.5916
  750MOL0     H 3450  12.854   1.813   6.533 -0.9493 -0.4514  0.8028
  750MOL0     H 3451  12.945   1.885   6.654  0.1762  0.9177 -1.4007
  750MOL0     H 3452  12.730   2.032   6.482 -1.6032  0.8880  3.1187
  750MOL0     H 3453  12.844   2.111   6.590  0.5252 -1.2822  0.1111
  750MOL0     H 3454  13.027   1.982   6.439 -0.3530 -0.9027 -0.8610
  750MOL0     H 3455  12.880   1.955   6.343  1.2173  0.3305 -1.7777
  750MOL0     H 3456  13.028   2.157   6.243  1.6527 -0.0803  0.6324
  750MOL0     H 3457  12.864   2.159   6.257 -0.7421  2.9137  0.6724
  750MOL0     H 3458  12.950   2.552   6.421 -1.0551 -1.6734  2.3358
  750MOL0     H 3459  13.207   2.767   6.378  1.2268 -1.6825  0.1150
  750MOL0     H 3460  13.164   2.731   6.558  1.7587  1.6612 -0.3558
  750MOL0     H 3461  13.045   2.753   6.427 -0.1635  0.9607 -0.4397
  750MOL0     H 3462  13.675   2.745   6.469 -0.2419  0.6795  0.3243
  750MOL0     H 3463  13.912   2.760   6.422 -1.7569  0.8010  0.9845
  750MOL0     H 3464  14.047   2.779   6.188  0.6675 -1.5676 -0.8407
  750MOL0     H 3465  14.133   2.805   6.339  0.8769  2.1334 -1.1325
  750MOL0     H 3466  14.316   2.821   6.195 -1.3947  1.0596 -3.0827
  750MOL0     H 3467  14.321   2.649   6.237 -0.7045  1.0110  2.4526
  750MOL0     H 3468  14.203   2.746   5.969 -0.2834 -0.5521  1.5289
  750MOL0     H 3469  14.160   2.601   6.053 -0.4489 -0.6985 -0.3236
  750MOL0     H 3470  14.334   2.556   5.898  1.1467 -0.6898 -0.4171
  750MOL0     H 3471  14.416   2.549   6.055  0.2799  2.0784  2.2595
  750MOL0     H 3472  14.537   2.687   5.867 -2.9890 -3.5373  1.0492
  750MOL0     H 3473  14.430   2.819   5.933 -2.3634  1.5607  2.7179
  750MOL0     H 3474  14.641   2.656   6.070  0.2154  0.4442  3.7572
  750MOL0     H 3475  14.507   2.738   6.153 -0.4253 -3.1776 -0.5532
  750MOL0     H 3476  14.581   2.952   6.067  0.8695  0.0505  1.2539
  750MOL0     H 3477  14.710   2.889   5.960 -1.4240  1.9430 -0.1250
  750MOL0     H 3478  14.831   2.822   6.135  0.0379 -0.9707  1.8805
  750MOL0     H 3479  14.715   2.880   6.265  0.9458  1.9457  1.3265
  750MOL0     H 3480  13.919   2.372   6.234 -2.3343 -1.8067  1.0438
  750MOL0     H 3481  13.685   2.339   6.288  0.9384 -2.1222  2.5366
  750MOL0     H 3482  13.387   2.315   6.374  1.4124  2.4335 -2.8017
  750MOL0     H 3483  13.195   2.190   6.369 -0.3707  0.1690 -0.0390
  750MOL0     H 3484  11.486   2.174   6.903 -0.4168  1.8496 -0.6474
  750MOL0     H 3485  11.284   2.234   7.048 -1.1522 -1.1211  2.7917
  750MOL0     H 3486  11.208   2.359   7.538  0.2142 -0.1148 -0.1131
  750MOL0     H 3487  11.027   2.373   7.687  2.3068 -1.3199 -0.2594
  750MOL0     H 3488  10.837   2.462   7.808  0.0425  1.0126 -1.5874
  750MOL0     H 3489  10.668   2.424   7.793 -0.1466  0.6363  0.8461
  750MOL0     H 3490  10.748   2.232   7.895 -2.2992 -0.2814 -0.3477
  750MOL0     H 3491  10.882   2.196   7.784 -0.6879  0.6730 -1.2197
  750MOL0     H 3492  10.592   2.181   7.713  1.3373  1.7339  0.9763
  750MOL0     H 3493  10.733   2.157   7.605 -0.5642  3.6544  0.1895
  750MOL0     H 3494  10.805   1.962   7.737 -0.8218 -1.1328 -3.5509
  750MOL0     H 3495  10.648   1.945   7.670  0.4592  0.2696 -1.8675
  750MOL0     H 3496  10.592   1.895   8.081  2.7384  2.1498  0.6674
  750MOL0     H 3497  10.748   2.397   7.362  1.8886 -3.0475 -1.6548
  750MOL0     H 3498  10.814   2.389   7.149 -0.4387 -1.0078  1.2923
  750MOL0     H 3499  10.914   2.527   7.144 -3.5620  0.3699  0.0956
  750MOL0     H 3500  10.978   2.352   7.111  2.7285  1.9531  0.2068
  751MOL0     O 3501   7.084   7.369  11.128 -0.0509 -0.0795 -0.2241
  751MOL0     C 3502   7.004   7.379  11.226 -0.8771 -0.0703  0.4335
  751MOL0     O 3503   7.041   7.435  11.343 -0.0053 -0.6127 -0.5022
  751MOL0     C 3504   7.168   7.476  11.361  0.5400  0.1082  0.7723
  751MOL0     C 3505   7.278   7.388  11.339 -0.2124 -0.3444 -0.2787
  751MOL0     C 3506   7.401   7.445  11.375 -0.1296  0.2106 -0.5915
  751MOL0     C 3507   7.419   7.574  11.436  0.4197 -0.8409  0.0387
  751MOL0     O 3508   7.535   7.623  11.482  0.4503 -0.4225  0.2765
  751MOL0     C 3509   7.567   7.765  11.450 -0.2172  0.8069 -0.0379
  751MOL0     C 3510   7.724   7.785  11.415 -0.2546  0.7240  0.7926
  751MOL0     C 3511   7.815   7.725  11.532 -0.4308 -0.9053 -0.7936
  751MOL0     C 3512   7.959   7.771  11.498  0.8184 -0.6021  0.8555
  751MOL0     C 3513   8.034   7.770  11.632 -0.2464  0.1638  0.0527
  751MOL0     C 3514   8.052   7.625  11.681 -0.0439 -0.0294 -0.1738
  751MOL0     C 3515   8.133   7.608  11.816  0.0255 -0.1754  0.0712
  751MOL0     C 3516   8.281   7.661  11.800  0.3762 -0.2993  0.2941
  751MOL0     N 3517   8.353   7.615  11.681  0.0438  0.2177 -0.0474
  751MOL0     C 3518   8.414   7.496  11.682 -0.1003 -0.1225  0.5347
  751MOL0     C 3519   8.492   7.494  11.572  0.4854  0.8743  0.5277
  751MOL0     C 3520   8.584   7.383  11.527 -0.8987 -0.1955 -0.0104
  751MOL0     C 3521   8.714   7.444  11.468 -0.0774  0.0074  0.8480
  751MOL0     C 3522   8.797   7.534  11.562 -0.5246  0.1500  0.3607
  751MOL0     C 3523   8.932   7.561  11.493 -0.1772 -0.6588  0.3121
  751MOL0     O 3524   9.030   7.615  11.579  0.3283 -0.1744 -0.2519
  751MOL0     C 3525   9.144   7.676  11.521 -0.1385 -0.0315  0.0488
  751MOL0     C 3526   9.200   7.629  11.400 -0.5109  0.0241 -0.5226
  751MOL0     C 3527   9.335   7.674  11.359  0.1684 -0.5802 -0.8491
  751MOL0     C 3528   9.382   7.638  11.224 -0.4930 -0.2973  0.2567
  751MOL0     C 3529   9.397   7.776  11.444  0.3605 -0.2244  0.5760
  751MOL0     C 3530   9.528   7.835  11.402  0.3741  0.8434  0.1528
  751MOL0     O 3531   9.562   7.958  11.449 -0.2749  0.2002 -0.4582
  751MOL0     C 3532   9.688   8.013  11.440  0.5300 -0.1163 -0.0935
  751MOL0     C 3533   9.717   8.106  11.338  0.3341 -0.3079 -0.2895
  751MOL0     C 3534   9.844   8.159  11.329 -0.6802  0.3183  0.3848
  751MOL0     C 3535   9.950   8.122  11.406 -0.4935 -0.0923 -0.2719
  751MOL0     O 3536  10.065   8.192  11.385 -0.2399 -0.1200  0.4993
  751MOL0     C 3537  10.177   8.168  11.471  0.1799 -0.0404 -0.2979
  751MOL0     C 3538  10.293   8.241  11.413 -0.5180 -0.5748 -0.9085
  751MOL0     C 3539  10.409   8.238  11.513 -0.0136  0.1058  0.1661
  751MOL0     C 3540  10.546   8.258  11.452  0.1962  0.4678 -0.3826
  751MOL0     C 3541  10.660   8.231  11.566  1.0451  0.8872  1.1930
  751MOL0     C 3542  10.792   8.206  11.503 -0.3096 -0.0416  0.2891
  751MOL0     C 3543  10.855   8.340  11.476  0.1145  0.3161 -0.2590
  751MOL0     C 3544  10.998   8.341  11.428  0.2080  0.2187 -0.5800
  751MOL0    Cl 3545  11.111   8.293  11.553  0.0690 -0.1418  0.5492
  751MOL0     C 3546   9.931   8.013  11.497 -0.9699  0.7580  0.2800
  751MOL0     C 3547   9.803   7.960  11.517  0.1613  0.2063  0.4361
  751MOL0     O 3548   9.604   7.759  11.338 -0.3001 -0.4630 -0.2308
  751MOL0     C 3549   9.336   7.812  11.562 -0.6429 -0.0882  0.0288
  751MOL0     C 3550   9.209   7.771  11.597  0.4271  0.2365  0.0140
  751MOL0     N 3551   8.482   7.613  11.511 -0.4314  0.2520  0.8994
  751MOL0     N 3552   8.398   7.685  11.572 -0.6994  0.0534  0.8831
  751MOL0     C 3553   7.305   7.650  11.457  0.7352  0.1225 -0.0378
  751MOL0     C 3554   7.188   7.598  11.420 -0.1535 -0.5812  0.5692
  751MOL0     C 3555   6.867   7.322  11.213 -0.1208  0.8735 -0.3152
  751MOL0     C 3556   6.787   7.306  11.337  0.5767  0.0490 -1.1200
  751MOL0     C 3557   6.662   7.231  11.325 -0.3525  0.5423 -0.1547
  751MOL0     C 3558   6.608   7.192  11.202 -0.2535 -0.4288 -0.0361
  751MOL0     O 3559   6.490   7.137  11.196 -0.2598  0.2986  0.1236
  751MOL0     C 3560   6.472   7.059  11.075  0.6832 -0.1002  0.2078
  751MOL0     C 3561   6.385   6.939  11.115 -0.4007 -0.0280 -0.2023
  751MOL0     C 3562   6.242   6.987  11.128 -0.3825  0.2517  1.4176
  751MOL0     C 3563   6.169   6.972  10.996  0.1167  0.7904  0.1371
  751MOL0     C 3564   6.031   7.021  11.014  0.1849 -0.5981 -1.0498
  751MOL0     C 3565   5.929   7.057  11.065 -0.1508  0.4987 -0.7499
  751MOL0     C 3566   6.681   7.223  11.084 -0.6351  0.0182  0.1086
  751MOL0     C 3567   6.803   7.287  11.090  0.0037 -0.1760  0.3317
  751MOL0     C 3568   6.854   7.324  10.955 -0.0801  0.3691  1.5846
  751MOL0     H 3569   7.285   7.286  11.303  3.4611 -0.2813 -0.1394
  751MOL0     H 3570   7.489   7.384  11.358  0.2901  0.5845  0.1942
  751MOL0     H 3571   7.553   7.817  11.545  3.2419 -1.0204  1.6508
  751MOL0     H 3572   7.493   7.812  11.384  2.1476  1.8489 -2.0953
  751MOL0     H 3573   7.730   7.732  11.320  1.5789  0.5990  0.9554
  751MOL0     H 3574   7.744   7.891  11.395 -1.2794  0.2628 -3.7709
  751MOL0     H 3575   7.788   7.772  11.627  1.2601 -0.9864 -0.2430
  751MOL0     H 3576   7.818   7.616  11.538  2.1392 -0.8001  1.3343
  751MOL0     H 3577   8.010   7.709  11.424  0.3785  0.1898 -0.1489
  751MOL0     H 3578   7.958   7.875  11.465  0.9748 -1.4569 -2.0907
  751MOL0     H 3579   7.991   7.833  11.710  0.9910  2.7271 -1.1811
  751MOL0     H 3580   8.134   7.812  11.620  0.5963 -1.2043  1.8295
  751MOL0     H 3581   7.955   7.579  11.696 -0.7720  0.6665 -2.3452
  751MOL0     H 3582   8.107   7.578  11.599  0.5511  0.7947 -0.2652
  751MOL0     H 3583   8.129   7.506  11.855 -0.9968  1.0383  3.5005
  751MOL0     H 3584   8.087   7.671  11.892 -0.9344  0.1217 -0.7340
  751MOL0     H 3585   8.285   7.770  11.795  1.6877 -0.3520 -0.4038
  751MOL0     H 3586   8.345   7.627  11.881  2.6318  0.1513 -1.1841
  751MOL0     H 3587   8.406   7.419  11.757  0.7876 -0.2636  0.5040
  751MOL0     H 3588   8.551   7.325  11.441  0.2875 -0.2174 -0.4786
  751MOL0     H 3589   8.601   7.312  11.608  0.7235 -1.0547 -1.0399
  751MOL0     H 3590   8.785   7.367  11.434  0.2611 -0.1945  1.9774
  751MOL0     H 3591   8.695   7.512  11.384 -0.2493  1.3904  1.9615
  751MOL0     H 3592   8.748   7.632  11.567 -2.3850 -0.7824  1.6698
  751MOL0     H 3593   8.799   7.489  11.662  4.1670  0.2227  0.4873
  751MOL0     H 3594   8.971   7.460  11.480 -1.3285 -0.7375 -4.7331
  751MOL0     H 3595   8.925   7.618  11.400 -0.9472 -0.7235  0.3250
  751MOL0     H 3596   9.160   7.553  11.333  1.2952 -1.3499 -0.1457
  751MOL0     H 3597   9.301   7.599  11.161  0.2269 -0.8112 -0.3719
  751MOL0     H 3598   9.451   7.553  11.233 -2.0959 -2.2359 -3.3485
  751MOL0     H 3599   9.420   7.724  11.168 -3.1839 -1.6477 -4.1569
  751MOL0     H 3600   9.648   8.140  11.261 -2.0050 -1.7101  1.0747
  751MOL0     H 3601   9.866   8.226  11.247  1.0644  1.4929  1.7395
  751MOL0     H 3602  10.155   8.201  11.573  0.5602 -2.0208  0.4907
  751MOL0     H 3603  10.195   8.060  11.486 -0.2787  0.0949  1.5343
  751MOL0     H 3604  10.327   8.185  11.325 -1.3195 -1.7219 -0.5134
  751MOL0     H 3605  10.269   8.345  11.388  0.4964 -0.4247 -1.2862
  751MOL0     H 3606  10.413   8.140  11.563  3.6031  1.0646  2.1636
  751MOL0     H 3607  10.386   8.311  11.592  0.2830 -0.9917  1.3128
  751MOL0     H 3608  10.550   8.356  11.403 -2.1221  0.2925 -1.0497
  751MOL0     H 3609  10.556   8.185  11.371  0.7620 -1.3523  1.2494
  751MOL0     H 3610  10.669   8.308  11.643 -0.7813  1.0719  1.2655
  751MOL0     H 3611  10.625   8.144  11.623 -0.6910  2.9013  3.4129
  751MOL0     H 3612  10.784   8.150  11.410 -0.8666  4.9578 -3.0522
  751MOL0     H 3613  10.856   8.156  11.576 -3.4335  1.4486  4.4711
  751MOL0     H 3614  10.845   8.401  11.566 -1.9021 -1.5222  0.8812
  751MOL0     H 3615  10.802   8.384  11.391  1.3169  0.6233 -0.8566
  751MOL0     H 3616  11.022   8.445  11.407  2.0779  0.6304  2.8881
  751MOL0     H 3617  11.005   8.274  11.342 -2.7368 -0.0414 -0.7381
  751MOL0     H 3618  10.010   7.975  11.562  0.0020 -0.0760 -1.3037
  751MOL0     H 3619   9.788   7.885  11.594 -0.7513 -2.0399 -1.7945
  751MOL0     H 3620   9.389   7.875  11.633  0.3542 -0.8167 -0.0335
  751MOL0     H 3621   9.162   7.801  11.691 -1.0260 -0.9019 -0.3148
  751MOL0     H 3622   7.315   7.747  11.504  0.5174 -0.8358  2.1070
  751MOL0     H 3623   7.093   7.651  11.427  1.1263  2.5012 -2.1377
  751MOL0     H 3624   6.821   7.349  11.431  0.5364 -1.1712 -0.5242
  751MOL0     H 3625   6.613   7.202  11.417 -2.9110  1.9631 -0.9663
  751MOL0     H 3626   6.420   7.119  11.001  0.5482  0.2717  0.5964
  751MOL0     H 3627   6.566   7.030  11.028  0.7241  2.0332 -1.1463
  751MOL0     H 3628   6.426   6.889  11.204  2.5092  2.8028  0.2475
  751MOL0     H 3629   6.390   6.870  11.030 -0.6927 -2.5577  1.7126
  751MOL0     H 3630   6.208   6.925  11.212 -0.1987  0.5525  1.7202
  751MOL0     H 3631   6.231   7.093  11.153 -1.4349  0.3273  0.7024
  751MOL0     H 3632   6.177   6.866  10.968  0.6088  0.2574  2.0850
  751MOL0     H 3633   6.223   7.032  10.923  0.4783 -0.7032 -0.8702
  751MOL0     H 3634   5.849   7.102  11.119  0.8566  1.5694 -0.1059
  751MOL0     H 3635   6.642   7.211  10.983  2.4264  0.5912 -1.2422
  751MOL0     H 3636   6.932   7.258  10.915 -2.1152 -1.7962  0.9624
  751MOL0     H 3637   6.769   7.330  10.886  0.7652  0.6467  0.5368
  751MOL0     H 3638   6.895   7.426  10.958  0.8503  0.0677  0.2699
  752MOL0     O 3639   2.552  10.500  10.282 -0.1296  0.1498 -0.1042
  752MOL0     C 3640   2.556  10.384  10.324  0.2710 -0.4649  0.2723
  752MOL0     O 3641   2.448  10.319  10.395  0.1193 -0.2828  0.9025
  752MOL0     C 3642   2.309  10.345  10.385 -0.4138  0.1506  0.6392
  752MOL0     C 3643   2.239  10.434  10.298  0.0597 -0.0870 -1.5746
  752MOL0     C 3644   2.108  10.449  10.313  0.2364  0.5445 -0.4221
  752MOL0     C 3645   2.028  10.386  10.407 -0.9892 -0.1929 -0.1684
  752MOL0     O 3646   1.895  10.395  10.392 -0.2738  1.0767 -0.4260
  752MOL0     C 3647   1.811  10.329  10.494 -0.4569  0.3971 -0.3739
  752MOL0     C 3648   1.665  10.344  10.473  0.8541 -0.6635  0.2572
  752MOL0     C 3649   1.619  10.245  10.350  0.9857  0.3989  0.5817
  752MOL0     C 3650   1.683  10.286  10.216 -0.7940 -0.6492 -0.5100
  752MOL0     C 3651   1.602  10.256  10.089 -0.0672  0.4968 -0.3724
  752MOL0     C 3652   1.619  10.360   9.984  0.0567 -0.0514 -0.5029
  752MOL0     C 3653   1.761  10.392   9.944 -0.7709  0.1513 -0.7277
  752MOL0     C 3654   1.839  10.261   9.923 -0.6761  0.2271 -0.4329
  752MOL0     N 3655   1.984  10.279   9.885  0.6512 -0.3489  0.8426
  752MOL0     C 3656   2.091  10.254   9.970  0.2450 -0.2530  0.2095
  752MOL0     C 3657   2.192  10.251   9.875 -0.0200  0.0795  1.2929
  752MOL0     C 3658   2.340  10.227   9.899 -0.4263 -0.4436  0.4710
  752MOL0     C 3659   2.422  10.353   9.963 -0.4785  0.3547  0.9334
  752MOL0     C 3660   2.473  10.456   9.864 -0.3148  0.1962 -0.0061
  752MOL0     C 3661   2.562  10.557   9.941 -0.6059 -0.1722  0.1441
  752MOL0     O 3662   2.653  10.632   9.856  0.1914 -0.4038 -0.4319
  752MOL0     C 3663   2.754  10.583   9.796  0.3107  0.3156 -0.5479
  752MOL0     C 3664   2.862  10.545   9.867 -0.2772 -0.3834  0.5114
  752MOL0     C 3665   2.979  10.511   9.803 -0.0882 -0.2517  0.0059
  752MOL0     C 3666   3.097  10.488   9.896  0.4175 -0.0241  0.0966
  752MOL0     C 3667   2.989  10.520   9.669 -1.2453 -0.0344  0.5245
  752MOL0     C 3668   3.117  10.489   9.597  0.1407 -0.1170 -0.7620
  752MOL0     O 3669   3.191  10.392   9.642  0.0005  0.0703 -0.6331
  752MOL0     C 3670   3.326  10.399   9.614  0.7967  0.7253  0.4379
  752MOL0     C 3671   3.369  10.287   9.537 -0.1595 -0.3871  0.0381
  752MOL0     C 3672   3.505  10.260   9.518 -0.6343 -0.2512 -0.2248
  752MOL0     C 3673   3.602  10.339   9.579  0.4875 -0.3019 -0.3060
  752MOL0     O 3674   3.725  10.288   9.585 -0.4492  0.6196  0.1631
  752MOL0     C 3675   3.781  10.259   9.716  0.6820  0.3120 -0.4128
  752MOL0     C 3676   3.926  10.218   9.686 -0.7871  1.1618  0.5434
  752MOL0     C 3677   3.939  10.069   9.677  0.0363 -1.1088 -0.7786
  752MOL0     C 3678   4.076  10.035   9.627  0.5724 -0.2295 -0.5572
  752MOL0     C 3679   4.116   9.891   9.632 -0.6105  0.6291 -0.1285
  752MOL0     C 3680   4.255   9.861   9.569  0.4453  0.7356  0.9194
  752MOL0     C 3681   4.286   9.719   9.542  0.2524 -1.2110  0.3921
  752MOL0     C 3682   4.203   9.675   9.418 -0.2798  0.4010 -0.1549
  752MOL0    Cl 3683   4.275   9.528   9.349 -0.5404 -0.2792 -0.3444
  752MOL0     C 3684   3.559  10.457   9.648 -0.3671 -0.5691 -0.3384
  752MOL0     C 3685   3.425  10.489   9.667  0.5141  0.3212  0.0528
  752MOL0     O 3686   3.137  10.546   9.492 -0.1642 -0.0272 -0.1951
  752MOL0     C 3687   2.874  10.560   9.598 -0.1295  0.4186 -0.3146
  752MOL0     C 3688   2.754  10.579   9.667 -0.0824 -0.3989  0.8004
  752MOL0     N 3689   2.152  10.284   9.747 -0.4136  0.2893  0.3309
  752MOL0     N 3690   2.027  10.310   9.756 -1.0385 -0.1670  0.5599
  752MOL0     C 3691   2.100  10.304  10.496  0.3122  0.0636  0.2434
  752MOL0     C 3692   2.237  10.288  10.487 -0.7093 -0.3411  0.5296
  752MOL0     C 3693   2.695  10.330  10.312  0.0366 -0.3830 -0.4224
  752MOL0     C 3694   2.810  10.414  10.283 -0.4069 -0.3614 -0.3348
  752MOL0     C 3695   2.934  10.353  10.273  0.7616 -0.2714 -0.1219
  752MOL0     C 3696   2.954  10.215  10.274  0.4208  0.7607  1.1433
  752MOL0     O 3697   3.073  10.154  10.262  0.1860 -0.1757 -0.6428
  752MOL0     C 3698   3.189  10.211  10.326 -0.5206  0.7795  0.0707
  752MOL0     C 3699   3.282  10.255  10.208  0.7128 -0.9795 -1.1019
  752MOL0     C 3700   3.347  10.137  10.129  0.3818  0.2863  0.1937
  752MOL0     C 3701   3.430  10.188  10.012  0.4764  0.7351 -0.0837
  752MOL0     C 3702   3.519  10.086   9.975 -0.0502  1.0284  0.4242
  752MOL0     C 3703   3.608  10.010   9.939  0.9193  0.4418  0.4329
  752MOL0     C 3704   2.846  10.136  10.295  0.2013  1.1172  0.2916
  752MOL0     C 3705   2.712  10.191  10.317  0.6617  0.1716 -0.1485
  752MOL0     C 3706   2.600  10.095  10.339  0.0388  0.5012 -0.3098
  752MOL0     H 3707   2.285  10.488  10.216 -0.5435  0.5100 -1.5324
  752MOL0     H 3708   2.040  10.512  10.256 -3.4944  2.4829  5.2477
  752MOL0     H 3709   1.834  10.370  10.593 -2.1386 -1.2492  0.7537
  752MOL0     H 3710   1.826  10.221  10.504 -0.7962  0.3978  0.1887
  752MOL0     H 3711   1.612  10.307  10.562  3.7028 -2.0769  1.4882
  752MOL0     H 3712   1.648  10.447  10.442  2.2878 -0.7061 -0.7658
  752MOL0     H 3713   1.643  10.142  10.378 -2.7183 -0.7935 -0.0916
  752MOL0     H 3714   1.511  10.249  10.331  1.5216  1.4321 -2.8798
  752MOL0     H 3715   1.699  10.394  10.216 -1.5516 -0.4113  3.0522
  752MOL0     H 3716   1.784  10.242  10.215 -0.8469 -0.8795  1.0299
  752MOL0     H 3717   1.495  10.237  10.108 -0.3022  1.2567 -0.8842
  752MOL0     H 3718   1.638  10.163  10.045 -0.4706  0.5920 -0.9137
  752MOL0     H 3719   1.560  10.329   9.897 -0.2446 -0.2625 -0.2277
  752MOL0     H 3720   1.566  10.452  10.008  1.3148  0.7511 -0.7066
  752MOL0     H 3721   1.816  10.450  10.018  0.1472 -1.1670 -0.3304
  752MOL0     H 3722   1.754  10.448   9.851 -1.2762 -1.3661 -1.6426
  752MOL0     H 3723   1.846  10.199  10.012 -2.7932  1.6058  0.7659
  752MOL0     H 3724   1.788  10.205   9.844 -0.4396  1.2305 -1.3183
  752MOL0     H 3725   2.097  10.234  10.077  1.4438  3.5447  0.9841
  752MOL0     H 3726   2.390  10.189   9.809 -2.2072  1.5582 -1.4850
  752MOL0     H 3727   2.343  10.148   9.975  3.4240 -1.9378 -0.9852
  752MOL0     H 3728   2.349  10.394  10.034  0.4268 -0.4377  2.3757
  752MOL0     H 3729   2.510  10.314  10.015 -0.0363  0.6518  0.4154
  752MOL0     H 3730   2.533  10.403   9.790  0.3455 -0.5354  1.0341
  752MOL0     H 3731   2.394  10.506   9.807  1.0877  1.5006 -0.8970
  752MOL0     H 3732   2.483  10.624   9.975 -1.8577 -0.7008 -1.5757
  752MOL0     H 3733   2.618  10.523  10.028  2.0640  3.3161 -0.0026
  752MOL0     H 3734   2.855  10.551   9.975 -1.9809  1.6375  0.3514
  752MOL0     H 3735   3.060  10.450   9.992  2.5846 -2.1980  0.1770
  752MOL0     H 3736   3.154  10.580   9.908  1.0521 -0.2817 -0.8306
  752MOL0     H 3737   3.165  10.407   9.870 -0.0831 -0.7728  1.0420
  752MOL0     H 3738   3.301  10.210   9.502 -2.6713  2.0886 -0.9057
  752MOL0     H 3739   3.525  10.166   9.468 -1.0183 -0.3003 -0.2853
  752MOL0     H 3740   3.784  10.346   9.781  0.1849 -0.7721  1.1084
  752MOL0     H 3741   3.726  10.177   9.761 -0.7982  2.2661  1.5182
  752MOL0     H 3742   3.954  10.258   9.589 -2.2615 -1.1437 -0.9406
  752MOL0     H 3743   3.989  10.252   9.769  0.7930  1.4748 -0.7265
  752MOL0     H 3744   3.871  10.028   9.603 -0.7650  1.1110 -1.3537
  752MOL0     H 3745   3.917  10.023   9.774  1.8201 -1.2160 -0.3767
  752MOL0     H 3746   4.147  10.090   9.689  0.1443 -0.6472  0.3245
  752MOL0     H 3747   4.082  10.067   9.523  0.4715  0.5517 -0.3221
  752MOL0     H 3748   4.106   9.857   9.735 -2.9084 -0.8570 -0.7781
  752MOL0     H 3749   4.044   9.835   9.573 -0.1016 -2.1556  1.7188
  752MOL0     H 3750   4.338   9.906   9.623  0.0153  2.5522  0.1316
  752MOL0     H 3751   4.256   9.917   9.475  1.0370 -0.4421  0.2060
  752MOL0     H 3752   4.264   9.654   9.627  1.9850 -0.7717  1.2410
  752MOL0     H 3753   4.393   9.714   9.517  0.4211  0.6413  0.5686
  752MOL0     H 3754   4.203   9.760   9.349 -0.0102 -1.6806 -2.8743
  752MOL0     H 3755   4.106   9.655   9.463  0.8730  0.6932  2.7081
  752MOL0     H 3756   3.637  10.519   9.690 -0.1624  0.1332 -1.7018
  752MOL0     H 3757   3.395  10.576   9.724 -2.8777 -0.9182  0.4166
  752MOL0     H 3758   2.871  10.566   9.490  1.2163  0.4155 -0.3780
  752MOL0     H 3759   2.670  10.603   9.602  0.6895  2.3275  0.6643
  752MOL0     H 3760   2.038  10.251  10.568  0.8255 -1.1771 -0.1887
  752MOL0     H 3761   2.291  10.223  10.555 -1.7764  1.1946  3.0109
  752MOL0     H 3762   2.806  10.521  10.265  1.1150  0.0390  1.4381
  752MOL0     H 3763   3.017  10.418  10.247 -1.3809  2.7415  0.1116
  752MOL0     H 3764   3.163  10.298  10.386 -0.4263 -0.5031  2.0765
  752MOL0     H 3765   3.236  10.134  10.388  0.1535 -0.4495 -1.8318
  752MOL0     H 3766   3.366  10.320  10.236 -0.2202  1.5209 -3.6988
  752MOL0     H 3767   3.222  10.326  10.151 -1.4608  0.5230  2.6803
  752MOL0     H 3768   3.404  10.076  10.200  0.1776 -1.0386 -0.7349
  752MOL0     H 3769   3.262  10.081  10.088 -0.0616  1.5113 -0.6446
  752MOL0     H 3770   3.480  10.281  10.041 -1.6400  1.7789  0.4340
  752MOL0     H 3771   3.364  10.202   9.926  1.7211  0.0249 -1.1733
  752MOL0     H 3772   3.676   9.937   9.899 -1.7871 -1.7925 -0.4288
  752MOL0     H 3773   2.847  10.028  10.290 -2.2099  1.0806 -0.9847
  752MOL0     H 3774   2.553  10.087  10.438  0.6904 -1.2710 -0.1036
  752MOL0     H 3775   2.528  10.114  10.259  1.1737  0.2278 -1.4401
  752MOL0     H 3776   2.642   9.995  10.320  1.9453  1.4292 -1.3173
  753MOL0     O 3777   7.023  10.690   6.285  0.2575 -0.4829  0.9166
  753MOL0     C 3778   7.062  10.731   6.177 -0.0972  0.0190  0.2438
  753MOL0     O 3779   7.163  10.808   6.166  0.7507  0.1751  0.5267
  753MOL0     C 3780   7.278  10.801   6.244  0.6122  0.0330  0.5350
  753MOL0     C 3781   7.318  10.676   6.298 -0.7144  0.7860  0.1317
  753MOL0     C 3782   7.441  10.673   6.356  0.3086  0.5642 -0.1663
  753MOL0     C 3783   7.517  10.789   6.376  0.0449 -0.7263 -0.1231
  753MOL0     O 3784   7.639  10.787   6.435  0.3194 -0.0789 -0.0396
  753MOL0     C 3785   7.739  10.801   6.332  0.2053  0.4736  0.3400
  753MOL0     C 3786   7.887  10.773   6.376 -0.9374  0.2988 -0.5542
  753MOL0     C 3787   7.975  10.772   6.256  0.4224 -0.7164  0.9465
  753MOL0     C 3788   8.115  10.763   6.306  0.0511 -0.3088 -0.2499
  753MOL0     C 3789   8.222  10.780   6.197 -0.0331  0.3834 -0.5322
  753MOL0     C 3790   8.362  10.743   6.251  0.6491  0.3194 -0.6832
  753MOL0     C 3791   8.420  10.847   6.349  0.4190  0.0694 -1.0972
  753MOL0     C 3792   8.551  10.798   6.415  0.5938 -0.1425  0.0158
  753MOL0     N 3793   8.597  10.907   6.507 -0.4564  0.2015  0.2555
  753MOL0     C 3794   8.669  11.015   6.461 -0.2738 -0.3462  0.5641
  753MOL0     C 3795   8.656  11.105   6.560  0.2520 -0.0390  0.1686
  753MOL0     C 3796   8.718  11.240   6.558 -0.1601  0.7759  0.0064
  753MOL0     C 3797   8.630  11.339   6.640  0.9009 -0.3341  0.3931
  753MOL0     C 3798   8.655  11.485   6.580  0.0652 -0.2320 -0.2016
  753MOL0     C 3799   8.799  11.533   6.613  0.8589  0.7849  0.0431
  753MOL0     O 3800   8.899  11.505   6.519  0.5176 -0.3656 -0.3445
  753MOL0     C 3801   9.032  11.518   6.549 -0.1078  0.0653 -0.3402
  753MOL0     C 3802   9.085  11.606   6.645  0.1548  0.2576 -0.5583
  753MOL0     C 3803   9.217  11.605   6.675 -0.4161  0.7381  0.1610
  753MOL0     C 3804   9.242  11.700   6.795  0.0120 -0.3850  0.9362
  753MOL0     C 3805   9.304  11.530   6.601 -0.2713  0.7426  0.6404
  753MOL0     C 3806   9.450  11.533   6.625 -0.2963 -0.4541  0.5318
  753MOL0     O 3807   9.512  11.613   6.717 -0.3931  0.6474  0.4289
  753MOL0     C 3808   9.645  11.616   6.733 -0.6268  0.8787 -1.1026
  753MOL0     C 3809   9.739  11.616   6.632  0.3356  0.7308 -0.1963
  753MOL0     C 3810   9.876  11.594   6.662  0.7368 -0.2048  0.0135
  753MOL0     C 3811   9.911  11.584   6.794  1.2140 -0.0664 -0.0318
  753MOL0     O 3812  10.038  11.552   6.846 -0.5755 -0.4094 -0.7671
  753MOL0     C 3813  10.151  11.613   6.781 -0.0332 -0.7770  0.0886
  753MOL0     C 3814  10.280  11.573   6.841  0.8053  0.9620  0.0780
  753MOL0     C 3815  10.390  11.653   6.786 -0.2856 -0.2782 -0.0527
  753MOL0     C 3816  10.499  11.580   6.704 -0.3414 -0.5372  0.1997
  753MOL0     C 3817  10.621  11.671   6.679  0.6215 -0.1171  0.8178
  753MOL0     C 3818  10.589  11.806   6.609  0.0547 -0.3181 -0.9832
  753MOL0     C 3819  10.725  11.875   6.577 -0.4490  0.6055  0.7467
  753MOL0     C 3820  10.740  11.959   6.456  0.9987  0.2659  0.2537
  753MOL0    Cl 3821  10.643  11.890   6.326  0.0933 -0.3590 -0.0619
  753MOL0     C 3822   9.810  11.581   6.901 -0.5131 -0.0040  0.9490
  753MOL0     C 3823   9.680  11.607   6.866  0.3825 -0.2297  0.6269
  753MOL0     O 3824   9.510  11.447   6.553 -0.3279 -0.8425  0.1515
  753MOL0     C 3825   9.255  11.447   6.501 -0.4390  0.4553 -0.9895
  753MOL0     C 3826   9.120  11.438   6.476 -0.4178 -0.6232  1.3844
  753MOL0     N 3827   8.567  11.055   6.662 -0.0950  0.1328 -0.5119
  753MOL0     N 3828   8.537  10.938   6.629 -0.4378 -0.4926  0.0865
  753MOL0     C 3829   7.469  10.918   6.336 -0.3137 -0.0521 -0.8281
  753MOL0     C 3830   7.350  10.922   6.258  0.7631  1.1717  0.0443
  753MOL0     C 3831   6.978  10.711   6.050 -0.3631 -0.2015 -0.6670
  753MOL0     C 3832   6.983  10.817   5.960  0.1237  0.8423 -0.2560
  753MOL0     C 3833   6.897  10.816   5.852  1.0118 -0.0545  0.8040
  753MOL0     C 3834   6.800  10.717   5.832 -0.3094  0.1444 -0.6671
  753MOL0     O 3835   6.719  10.748   5.729  0.6139 -0.1021  0.8130
  753MOL0     C 3836   6.614  10.655   5.693 -0.5090  0.1069  1.0567
  753MOL0     C 3837   6.493  10.667   5.788 -0.8435  1.0211 -0.0900
  753MOL0     C 3838   6.405  10.787   5.755  1.0090 -0.1358  0.0773
  753MOL0     C 3839   6.473  10.926   5.753 -0.3479 -0.1972 -0.4579
  753MOL0     C 3840   6.545  10.951   5.876  0.2486 -0.4712  0.2218
  753MOL0     C 3841   6.575  11.005   5.980 -0.1704 -0.7329 -0.3342
  753MOL0     C 3842   6.800  10.611   5.925  0.3339  0.8573 -0.3101
  753MOL0     C 3843   6.888  10.600   6.033 -0.3745 -0.7204  0.2209
  753MOL0     C 3844   6.876  10.474   6.112  0.5271 -0.1737  0.1324
  753MOL0     H 3845   7.257  10.587   6.287  0.0743  0.4027 -1.3985
  753MOL0     H 3846   7.485  10.584   6.401  2.3659  3.0662  3.2227
  753MOL0     H 3847   7.728  10.898   6.282  2.0585  0.8402  0.5879
  753MOL0     H 3848   7.710  10.726   6.258 -0.2560  0.3018  0.6898
  753MOL0     H 3849   7.920  10.845   6.451 -1.7964 -1.0365  1.1744
  753MOL0     H 3850   7.887  10.679   6.431  0.3711 -1.6930 -3.6655
  753MOL0     H 3851   7.944  10.680   6.206 -0.7233 -0.4445  1.1333
  753MOL0     H 3852   7.953  10.862   6.198 -2.5356 -0.6197  2.0453
  753MOL0     H 3853   8.130  10.834   6.388 -0.3549  0.0841 -0.5125
  753MOL0     H 3854   8.125  10.665   6.354  1.2217 -0.3470 -0.5448
  753MOL0     H 3855   8.224  10.885   6.166 -1.0653  0.4088 -0.5589
  753MOL0     H 3856   8.192  10.717   6.112  0.1588  0.2887 -0.5299
  753MOL0     H 3857   8.368  10.641   6.292  2.4592  0.4316 -0.6010
  753MOL0     H 3858   8.434  10.744   6.170  0.4119  0.2846 -0.8975
  753MOL0     H 3859   8.345  10.891   6.416  1.4983  0.1085  0.1161
  753MOL0     H 3860   8.460  10.931   6.291  0.7546  0.0191 -0.9397
  753MOL0     H 3861   8.519  10.706   6.464  1.3959 -0.4230  0.0272
  753MOL0     H 3862   8.634  10.770   6.350 -0.6531  1.8148 -2.5729
  753MOL0     H 3863   8.734  11.037   6.376  1.0992  4.1502  2.4491
  753MOL0     H 3864   8.740  11.268   6.454 -1.7253  0.0004 -0.5700
  753MOL0     H 3865   8.812  11.233   6.613  0.4582  0.1161 -1.1029
  753MOL0     H 3866   8.525  11.307   6.636  0.8362 -0.0373 -0.4480
  753MOL0     H 3867   8.656  11.332   6.746  0.3242 -2.0016  0.4496
  753MOL0     H 3868   8.635  11.490   6.473  0.9358  1.8970 -0.3220
  753MOL0     H 3869   8.592  11.557   6.634  1.4371 -0.9637  2.5541
  753MOL0     H 3870   8.791  11.642   6.618  1.9797  0.8173  1.7706
  753MOL0     H 3871   8.835  11.497   6.709  0.1660  0.0776  0.0523
  753MOL0     H 3872   9.007  11.660   6.698 -0.2388  0.4152 -1.2928
  753MOL0     H 3873   9.304  11.651   6.870  1.2668 -1.7732 -0.9170
  753MOL0     H 3874   9.147  11.730   6.841 -1.7315  0.0110 -2.5704
  753MOL0     H 3875   9.288  11.790   6.754  0.2074 -1.8867 -2.4186
  753MOL0     H 3876   9.706  11.627   6.529 -1.0999 -2.1758 -0.1626
  753MOL0     H 3877   9.959  11.591   6.591  3.2376 -1.3038  2.7613
  753MOL0     H 3878  10.151  11.607   6.672  0.1765 -2.9294  0.1726
  753MOL0     H 3879  10.141  11.717   6.814  2.1406 -0.6575  0.5360
  753MOL0     H 3880  10.283  11.580   6.950 -0.3229 -1.3591  0.3191
  753MOL0     H 3881  10.295  11.467   6.821 -1.6858  0.6113 -0.2490
  753MOL0     H 3882  10.433  11.695   6.877 -0.7155 -2.7639  1.4071
  753MOL0     H 3883  10.345  11.734   6.728 -0.9420 -0.6375 -0.0549
  753MOL0     H 3884  10.460  11.556   6.605  0.5495 -0.1847 -0.2455
  753MOL0     H 3885  10.524  11.483   6.749 -2.7707 -1.4735 -0.3160
  753MOL0     H 3886  10.657  11.692   6.780  1.0012 -1.7421  1.0412
  753MOL0     H 3887  10.690  11.604   6.627 -0.9075 -0.7415 -0.5031
  753MOL0     H 3888  10.540  11.882   6.670  0.6985 -1.6244  1.2487
  753MOL0     H 3889  10.532  11.776   6.519 -0.5016  3.1771 -1.9374
  753MOL0     H 3890  10.796  11.795   6.554 -0.8276  0.7225 -0.9836
  753MOL0     H 3891  10.754  11.941   6.659 -0.0296  1.9735 -0.4772
  753MOL0     H 3892  10.842  11.963   6.417  1.0978 -1.4996  0.2584
  753MOL0     H 3893  10.720  12.064   6.481 -1.6900 -0.2409  0.5164
  753MOL0     H 3894   9.848  11.562   7.001  0.5446 -2.5930  0.1400
  753MOL0     H 3895   9.608  11.621   6.947 -0.7892 -1.1527 -0.2162
  753MOL0     H 3896   9.316  11.366   6.462 -2.4942 -1.1205 -1.1128
  753MOL0     H 3897   9.080  11.365   6.406  2.8213 -1.8192  0.5725
  753MOL0     H 3898   7.518  11.015   6.342 -0.4892 -0.0062 -0.0627
  753MOL0     H 3899   7.312  11.015   6.219 -2.6973 -0.2516 -0.4121
  753MOL0     H 3900   7.060  10.894   5.966  0.7582  0.3049 -1.2129
  753MOL0     H 3901   6.903  10.889   5.772  1.7326  0.9724  1.7619
  753MOL0     H 3902   6.579  10.666   5.590  0.7235  4.5821  0.9305
  753MOL0     H 3903   6.651  10.552   5.695 -1.6336 -0.3069  2.3171
  753MOL0     H 3904   6.516  10.672   5.895  0.4359 -0.0684 -0.2961
  753MOL0     H 3905   6.426  10.583   5.771  0.8152 -0.0639 -1.6801
  753MOL0     H 3906   6.365  10.770   5.654  1.6458 -1.2846  0.0041
  753MOL0     H 3907   6.326  10.785   5.830  0.5652  0.0452 -0.3754
  753MOL0     H 3908   6.404  11.004   5.721  0.8136  0.8144 -0.5569
  753MOL0     H 3909   6.556  10.918   5.682 -0.0731 -1.9804  0.0046
  753MOL0     H 3910   6.583  11.059   6.072 -2.5090  1.0188 -1.0735
  753MOL0     H 3911   6.724  10.534   5.914  1.3811 -0.3009  0.3513
  753MOL0     H 3912   6.788  10.478   6.176 -0.7767 -1.2024 -1.5240
  753MOL0     H 3913   6.858  10.398   6.036 -3.9700  0.2017  0.5684
  753MOL0     H 3914   6.962  10.450   6.177  0.4212 -0.9576 -0.0038
  754MOL0     O 3915   9.730   5.001   9.079  0.3294 -0.2527  0.1854
  754MOL0     C 3916   9.688   5.054   9.178  0.2329 -0.6258 -0.5164
  754MOL0     O 3917   9.740   5.166   9.248  0.5911  0.4994 -0.6345
  754MOL0     C 3918   9.861   5.204   9.217  0.8802  0.7483 -0.8563
  754MOL0     C 3919   9.890   5.314   9.148 -0.4140 -0.2589 -0.1171
  754MOL0     C 3920  10.026   5.353   9.126  0.1223 -0.4684  0.2901
  754MOL0     C 3921  10.126   5.289   9.190 -0.3512 -0.4790 -0.1121
  754MOL0     O 3922  10.252   5.336   9.185  0.6346 -0.1512 -0.2224
  754MOL0     C 3923  10.292   5.460   9.135  0.1784 -0.5405 -0.7440
  754MOL0     C 3924  10.274   5.570   9.241  0.1653 -0.2027  0.3461
  754MOL0     C 3925  10.300   5.718   9.179  1.2206  1.1459 -0.9948
  754MOL0     C 3926  10.204   5.772   9.075 -0.1167  1.0950 -0.6309
  754MOL0     C 3927  10.238   5.906   9.023  0.1470  0.1463  0.3321
  754MOL0     C 3928  10.230   6.026   9.111 -0.4928 -0.9024 -0.0638
  754MOL0     C 3929  10.267   6.157   9.040  0.5608  0.2797 -0.4630
  754MOL0     C 3930  10.409   6.203   9.074  0.4689 -0.2208  0.2394
  754MOL0     N 3931  10.508   6.111   9.023  0.1052  0.0695  0.3838
  754MOL0     C 3932  10.552   6.014   9.099 -0.6368  0.3742 -0.1393
  754MOL0     C 3933  10.644   5.965   9.006 -0.6506 -0.6637 -0.0197
  754MOL0     C 3934  10.752   5.875   9.034  0.1016  0.9105  0.1453
  754MOL0     C 3935  10.864   5.934   9.108  0.0085 -0.1701  0.0182
  754MOL0     C 3936  10.839   5.925   9.258 -0.3678 -0.2318  0.5427
  754MOL0     C 3937  10.937   6.006   9.339  0.2293  0.6168  0.4212
  754MOL0     O 3938  10.948   6.147   9.290 -0.2030  0.1745 -0.4714
  754MOL0     C 3939  10.836   6.214   9.319 -0.4700 -0.2417  0.0966
  754MOL0     C 3940  10.766   6.220   9.442 -0.1413  0.3707 -0.6568
  754MOL0     C 3941  10.650   6.292   9.463  0.7853 -0.0366 -0.4201
  754MOL0     C 3942  10.579   6.283   9.586  0.2589  1.0015  0.0106
  754MOL0     C 3943  10.608   6.373   9.351  0.2631  0.4034  0.2576
  754MOL0     C 3944  10.493   6.472   9.346 -0.6582 -0.1271  0.5338
  754MOL0     O 3945  10.438   6.503   9.222  0.4672 -0.5132  0.5259
  754MOL0     C 3946  10.343   6.603   9.199 -1.0220  0.4011  0.2896
  754MOL0     C 3947  10.368   6.729   9.148 -0.6903 -0.8295 -0.2086
  754MOL0     C 3948  10.270   6.816   9.120  0.4742 -0.0446  0.0749
  754MOL0     C 3949  10.135   6.793   9.155  0.2913  0.6938  0.1467
  754MOL0     O 3950  10.032   6.885   9.143 -0.2932  0.0174 -0.1521
  754MOL0     C 3951   9.956   6.917   9.265 -0.0917  0.1482  0.0038
  754MOL0     C 3952   9.843   7.020   9.238 -0.7312  1.1574 -1.1694
  754MOL0     C 3953   9.718   6.954   9.191  0.3956 -0.5091 -0.2481
  754MOL0     C 3954   9.597   7.039   9.183  1.1302  0.3847 -0.2799
  754MOL0     C 3955   9.462   6.977   9.130 -0.6380  0.0263 -0.1419
  754MOL0     C 3956   9.471   6.929   8.981 -0.7413 -0.1411  1.0231
  754MOL0     C 3957   9.338   6.913   8.903  0.5581 -0.0126  1.0620
  754MOL0     C 3958   9.250   6.794   8.953 -1.1172  0.3188  0.3813
  754MOL0    Cl 3959   9.338   6.649   8.911  0.2376  0.1079 -0.1305
  754MOL0     C 3960  10.110   6.672   9.203  0.9449 -0.1445 -1.2879
  754MOL0     C 3961  10.209   6.575   9.219 -0.1897 -0.7505 -0.4720
  754MOL0     O 3962  10.456   6.530   9.451 -0.2020  0.2643  0.5084
  754MOL0     C 3963  10.670   6.357   9.230  0.7564  0.0826 -0.8846
  754MOL0     C 3964  10.783   6.277   9.215  0.0806  0.2787 -0.2928
  754MOL0     N 3965  10.640   6.016   8.878  1.4012  0.2882 -0.9468
  754MOL0     N 3966  10.561   6.115   8.893 -0.3361  0.2066  0.1001
  754MOL0     C 3967  10.100   5.169   9.250  0.1814  0.2055 -0.1002
  754MOL0     C 3968   9.963   5.128   9.268  0.5849  0.1025 -0.1954
  754MOL0     C 3969   9.566   4.988   9.227 -0.2234  0.1814 -0.4085
  754MOL0     C 3970   9.487   4.903   9.149  0.4338  0.8638 -0.7235
  754MOL0     C 3971   9.374   4.834   9.201 -0.1210 -0.8590 -0.4387
  754MOL0     C 3972   9.338   4.848   9.337 -1.1144 -0.6888  0.2776
  754MOL0     O 3973   9.223   4.810   9.390 -0.4559  0.7343  0.2895
  754MOL0     C 3974   9.131   4.731   9.311  0.0190  0.3592 -0.2078
  754MOL0     C 3975   8.999   4.693   9.385  0.3332  0.0058 -0.3023
  754MOL0     C 3976   8.931   4.838   9.419  0.2381  0.1917 -0.3281
  754MOL0     C 3977   8.832   4.871   9.315  0.9541  0.8169 -0.0940
  754MOL0     C 3978   8.722   4.784   9.335 -0.7852  0.3613 -0.1016
  754MOL0     C 3979   8.626   4.723   9.364  0.0048  1.3499  1.0572
  754MOL0     C 3980   9.426   4.920   9.418  0.0693 -1.3872  0.2240
  754MOL0     C 3981   9.542   4.989   9.365  0.5307  0.4577 -0.7362
  754MOL0     C 3982   9.609   5.067   9.472  0.1299  0.4067  0.0956
  754MOL0     H 3983   9.814   5.379   9.106 -0.0212 -0.6149 -1.4109
  754MOL0     H 3984  10.035   5.450   9.079 -1.7728 -0.1527  0.5202
  754MOL0     H 3985  10.239   5.481   9.041 -1.0244 -0.3782 -0.0462
  754MOL0     H 3986  10.400   5.462   9.116  0.2358  3.2094 -0.9313
  754MOL0     H 3987  10.174   5.563   9.285  0.4182  1.5173  1.2968
  754MOL0     H 3988  10.341   5.552   9.325  1.0597  2.9147  0.4286
  754MOL0     H 3989  10.295   5.788   9.264  1.7314  1.6368 -1.3630
  754MOL0     H 3990  10.404   5.717   9.145  2.4360 -1.7577  2.2103
  754MOL0     H 3991  10.200   5.698   8.995  1.8794  0.5742 -0.3227
  754MOL0     H 3992  10.110   5.779   9.130  0.7633  2.2690  0.8044
  754MOL0     H 3993  10.166   5.922   8.942 -0.9590 -2.3706  0.7113
  754MOL0     H 3994  10.338   5.895   8.980 -0.5575 -1.7228 -0.9673
  754MOL0     H 3995  10.128   6.046   9.145  0.1186  0.8096  0.8608
  754MOL0     H 3996  10.292   6.010   9.199 -0.1566  0.5248 -0.0243
  754MOL0     H 3997  10.183   6.221   9.072 -0.3614 -2.0075  2.0348
  754MOL0     H 3998  10.262   6.139   8.932 -0.7523  0.6443 -0.4898
  754MOL0     H 3999  10.416   6.300   9.024  0.8623  0.6676  1.9717
  754MOL0     H 4000  10.427   6.213   9.181 -1.1644  1.4594  0.4124
  754MOL0     H 4001  10.533   5.982   9.201  2.5380  0.4507  0.5909
  754MOL0     H 4002  10.783   5.825   8.942 -2.1995 -2.2810  0.9173
  754MOL0     H 4003  10.711   5.789   9.088  0.2550  1.7838  1.7278
  754MOL0     H 4004  10.959   5.886   9.082 -0.2761 -0.2288 -0.9565
  754MOL0     H 4005  10.882   6.040   9.090  1.1233 -0.1020  1.3395
  754MOL0     H 4006  10.745   5.972   9.289 -0.0171  1.5723 -0.9924
  754MOL0     H 4007  10.840   5.818   9.282 -0.6607 -0.1965  0.7117
  754MOL0     H 4008  10.898   5.999   9.441  0.6705  0.0370  0.5578
  754MOL0     H 4009  11.036   5.959   9.340 -1.1977 -2.7101 -0.4630
  754MOL0     H 4010  10.807   6.181   9.534 -0.8681 -1.0756 -0.9056
  754MOL0     H 4011  10.474   6.258   9.566 -0.1253  0.5728  2.3480
  754MOL0     H 4012  10.568   6.375   9.644 -2.7165  0.2109  0.8512
  754MOL0     H 4013  10.621   6.210   9.655 -2.1139  0.0649  0.5605
  754MOL0     H 4014  10.473   6.747   9.125 -0.1775 -2.2961  0.8656
  754MOL0     H 4015  10.311   6.908   9.078 -0.0156  1.1586  2.0943
  754MOL0     H 4016   9.908   6.831   9.313 -1.0645  0.6369 -0.0706
  754MOL0     H 4017  10.025   6.949   9.344 -2.3102  0.1373  2.0374
  754MOL0     H 4018   9.817   7.080   9.326 -0.6769  0.7778 -0.8891
  754MOL0     H 4019   9.869   7.098   9.166  1.3021  3.0819  1.4382
  754MOL0     H 4020   9.704   6.867   9.255  0.8821 -1.4900 -1.4292
  754MOL0     H 4021   9.740   6.928   9.087  1.4286  3.3633 -1.1790
  754MOL0     H 4022   9.618   7.127   9.121 -2.2622  1.3658 -0.2414
  754MOL0     H 4023   9.584   7.074   9.286  2.9933 -0.3623  0.2522
  754MOL0     H 4024   9.430   6.889   9.186  0.2670 -0.7321 -0.7832
  754MOL0     H 4025   9.380   7.050   9.138 -0.3987  0.3084 -0.2499
  754MOL0     H 4026   9.522   6.833   8.985  0.3099  0.3779  0.3690
  754MOL0     H 4027   9.533   6.996   8.921 -1.1803 -0.5050  0.1472
  754MOL0     H 4028   9.364   6.888   8.800  0.4168 -4.5108  1.8825
  754MOL0     H 4029   9.279   7.005   8.911  1.1607  1.0867 -3.9300
  754MOL0     H 4030   9.150   6.789   8.908 -0.8124 -3.9940 -0.2456
  754MOL0     H 4031   9.241   6.805   9.061 -1.6836 -0.5814  0.4359
  754MOL0     H 4032  10.006   6.647   9.219  0.6235  2.9041  2.9622
  754MOL0     H 4033  10.184   6.473   9.246 -0.3690 -0.2670  1.3712
  754MOL0     H 4034  10.639   6.405   9.138 -0.6232  1.0099  0.0340
  754MOL0     H 4035  10.829   6.270   9.116 -1.7506 -0.7586 -1.1181
  754MOL0     H 4036  10.180   5.126   9.308  1.3247  3.8815  1.3118
  754MOL0     H 4037   9.935   5.038   9.322  0.8470 -0.2674 -0.6576
  754MOL0     H 4038   9.503   4.896   9.042  2.1218 -0.5002 -0.4205
  754MOL0     H 4039   9.309   4.780   9.133 -3.0529  1.2535  0.4740
  754MOL0     H 4040   9.108   4.788   9.220 -0.2367  0.5559 -0.0210
  754MOL0     H 4041   9.180   4.640   9.276 -0.6788  0.7887 -2.4366
  754MOL0     H 4042   9.030   4.638   9.475 -1.7556 -2.3229 -0.8793
  754MOL0     H 4043   8.934   4.616   9.341  0.7760 -1.9000  2.1436
  754MOL0     H 4044   8.878   4.840   9.515 -0.8760  2.2950 -0.9210
  754MOL0     H 4045   9.005   4.918   9.427 -1.0532  1.3659  0.1639
  754MOL0     H 4046   8.868   4.867   9.212  1.3659  2.5152 -0.0353
  754MOL0     H 4047   8.807   4.977   9.321 -0.1136  0.5363  0.7349
  754MOL0     H 4048   8.537   4.664   9.376  0.0604  1.3900  1.7574
  754MOL0     H 4049   9.390   4.938   9.519 -1.1125  2.2086 -0.6820
  754MOL0     H 4050   9.717   5.049   9.467  0.2916 -0.1215  3.3325
  754MOL0     H 4051   9.587   5.174   9.469  1.8903  0.8521  1.2623
  754MOL0     H 4052   9.565   5.038   9.568 -0.1024 -0.3162 -0.2282
  755MOL0     O 4053   7.449  10.440   9.983 -0.0792 -0.1526  0.1539
  755MOL0     C 4054   7.518  10.528  10.031  0.0165 -0.0839  0.8460
  755MOL0     O 4055   7.498  10.665  10.006 -0.5821  0.0692  0.1738
  755MOL0     C 4056   7.375  10.712   9.972 -0.0301 -0.2446 -0.2515
  755MOL0     C 4057   7.369  10.833   9.908  0.3161 -0.4188  0.3421
  755MOL0     C 4058   7.256  10.909   9.898 -0.2708  0.1065  0.2298
  755MOL0     C 4059   7.130  10.845   9.930  0.4013 -1.3482  0.1008
  755MOL0     O 4060   7.006  10.913   9.918 -0.3471  0.0649  0.0521
  755MOL0     C 4061   6.984  10.984   9.795 -0.1171  0.9151 -0.2665
  755MOL0     C 4062   6.833  11.022   9.816  0.3995 -0.2077  0.1032
  755MOL0     C 4063   6.737  10.918   9.763 -0.3836 -0.0826 -0.0033
  755MOL0     C 4064   6.598  10.942   9.819 -0.9050 -0.6126 -0.5851
  755MOL0     C 4065   6.504  10.827   9.767  0.1081  0.7099 -0.0755
  755MOL0     C 4066   6.433  10.871   9.635 -0.3882 -0.8392 -0.5664
  755MOL0     C 4067   6.374  10.766   9.554  0.9232  0.0778  0.3082
  755MOL0     C 4068   6.258  10.706   9.625  0.8347  0.2362  0.1128
  755MOL0     N 4069   6.148  10.668   9.534  0.3394 -0.8425  0.2366
  755MOL0     C 4070   6.100  10.542   9.526 -0.3509  0.9675 -0.1401
  755MOL0     C 4071   5.972  10.552   9.498 -0.0660 -0.3037  0.4191
  755MOL0     C 4072   5.873  10.446   9.460  0.7338 -0.7189  0.1733
  755MOL0     C 4073   5.879  10.417   9.313 -0.1234 -0.8436  0.6005
  755MOL0     C 4074   5.830  10.536   9.224 -0.5245  0.4720  0.1761
  755MOL0     C 4075   5.840  10.486   9.080 -0.4468 -0.3136  0.0873
  755MOL0     O 4076   5.741  10.386   9.054 -1.1599 -0.2039 -0.4941
  755MOL0     C 4077   5.740  10.324   8.939  0.9368 -0.3117  0.2710
  755MOL0     C 4078   5.786  10.373   8.818 -0.0941  0.0389 -0.5570
  755MOL0     C 4079   5.789  10.312   8.693  0.1324  0.0780  0.4968
  755MOL0     C 4080   5.839  10.393   8.579  0.1918  0.1606  0.3820
  755MOL0     C 4081   5.736  10.182   8.683  0.2874  0.3652  0.2582
  755MOL0     C 4082   5.715  10.116   8.548  0.9235  0.3673 -0.0512
  755MOL0     O 4083   5.818  10.131   8.454  0.1661 -0.2274 -0.0363
  755MOL0     C 4084   5.799  10.090   8.319  0.0016 -1.1594 -0.7185
  755MOL0     C 4085   5.724  10.175   8.230 -0.2329 -0.0349 -0.6442
  755MOL0     C 4086   5.708  10.143   8.097  0.2049  0.7657 -0.7959
  755MOL0     C 4087   5.762  10.026   8.034  0.2294 -0.2421 -0.1178
  755MOL0     O 4088   5.742  10.011   7.894 -0.0846 -0.5717  0.0626
  755MOL0     C 4089   5.780   9.887   7.833  0.2526 -0.1048  0.2956
  755MOL0     C 4090   5.722   9.886   7.691 -0.0776 -0.1807 -0.3952
  755MOL0     C 4091   5.788  10.000   7.609  0.6559 -0.6900 -0.6237
  755MOL0     C 4092   5.727  10.006   7.468 -0.7232 -0.4093  0.1708
  755MOL0     C 4093   5.792  10.113   7.379  0.1361  0.4134  0.3175
  755MOL0     C 4094   5.796  10.248   7.452  0.5066 -0.1058 -0.0646
  755MOL0     C 4095   5.815  10.379   7.363 -0.0507  0.4746 -0.0615
  755MOL0     C 4096   5.850  10.503   7.452  0.4796  0.3381  0.7093
  755MOL0    Cl 4097   5.817  10.651   7.342  0.2383 -0.2515 -0.1461
  755MOL0     C 4098   5.849   9.944   8.125  0.0792 -0.1649  0.4883
  755MOL0     C 4099   5.856   9.976   8.264 -0.3641  0.7226  0.2315
  755MOL0     O 4100   5.617  10.045   8.531  0.6202 -0.0503 -0.3817
  755MOL0     C 4101   5.688  10.125   8.801  0.6918  0.1246  0.3804
  755MOL0     C 4102   5.684  10.195   8.923 -0.5078 -0.0833 -0.1735
  755MOL0     N 4103   5.937  10.689   9.489 -0.8829 -0.3357  0.1646
  755MOL0     N 4104   6.042  10.755   9.524  0.4652  0.4309  0.4063
  755MOL0     C 4105   7.135  10.733  10.016 -1.2419  0.2534  0.0698
  755MOL0     C 4106   7.261  10.661  10.032 -0.8358  0.4171 -0.0876
  755MOL0     C 4107   7.617  10.500  10.136  0.0412 -0.2828  0.1824
  755MOL0     C 4108   7.602  10.380  10.216  0.6745  0.0807  0.3861
  755MOL0     C 4109   7.667  10.371  10.338  0.1644  0.2480  0.4477
  755MOL0     C 4110   7.749  10.474  10.388 -0.9866 -0.1268  0.1549
  755MOL0     O 4111   7.822  10.481  10.506  0.6109  0.1090 -0.0831
  755MOL0     C 4112   7.825  10.360  10.580 -0.3248  0.7953 -0.9751
  755MOL0     C 4113   7.927  10.366  10.692 -0.0868 -0.0310  0.7096
  755MOL0     C 4114   7.869  10.459  10.803  0.0949  0.4435  0.0880
  755MOL0     C 4115   7.967  10.486  10.923  0.5945 -0.3320  0.3876
  755MOL0     C 4116   7.892  10.514  11.047 -0.3958 -0.2176  0.2688
  755MOL0     C 4117   7.834  10.533  11.153  1.1762  0.0621 -0.6957
  755MOL0     C 4118   7.779  10.576  10.301  0.2658  1.3102  0.5302
  755MOL0     C 4119   7.723  10.585  10.176 -0.0982 -0.0763  0.2071
  755MOL0     C 4120   7.778  10.700  10.089 -0.1526 -0.4491 -0.2292
  755MOL0     H 4121   7.462  10.861   9.859  0.5635 -0.8227  0.5709
  755MOL0     H 4122   7.252  11.003   9.844 -0.0816  0.9868  1.6910
  755MOL0     H 4123   6.996  10.907   9.718 -0.0465  2.3351 -1.7117
  755MOL0     H 4124   7.059  11.062   9.786  3.2605 -2.2931 -3.0508
  755MOL0     H 4125   6.814  11.051   9.920  2.4249 -0.7655  0.6759
  755MOL0     H 4126   6.815  11.110   9.753 -0.7376  0.3082  1.1229
  755MOL0     H 4127   6.737  10.904   9.654  0.7076 -1.7184  0.1702
  755MOL0     H 4128   6.781  10.828   9.808  0.7276 -0.2398 -1.3458
  755MOL0     H 4129   6.615  10.934   9.927 -0.0342 -1.3550 -0.7578
  755MOL0     H 4130   6.573  11.043   9.785  2.5680  0.3923 -0.5584
  755MOL0     H 4131   6.433  10.802   9.847  1.0055 -3.1233 -0.3218
  755MOL0     H 4132   6.555  10.733   9.748  0.7122  1.0652 -0.2178
  755MOL0     H 4133   6.368  10.945   9.682  0.7577 -0.3636  0.3266
  755MOL0     H 4134   6.503  10.929   9.575  0.0106 -0.0224  0.6489
  755MOL0     H 4135   6.443  10.686   9.526 -0.6737 -0.7717 -1.4615
  755MOL0     H 4136   6.345  10.805   9.456  0.6241 -1.0586 -0.0758
  755MOL0     H 4137   6.288  10.626   9.692  1.4141  0.8954  0.6629
  755MOL0     H 4138   6.216  10.781   9.693  3.9452  3.3233 -1.0467
  755MOL0     H 4139   6.146  10.446   9.546 -2.9249  0.2358  3.3953
  755MOL0     H 4140   5.777  10.495   9.477  1.4921  1.3035 -0.9629
  755MOL0     H 4141   5.888  10.367   9.534 -1.2640 -2.8433 -1.5402
  755MOL0     H 4142   5.978  10.394   9.272  2.1023  0.7461  4.4665
  755MOL0     H 4143   5.825  10.323   9.304  0.4167 -1.1964  0.9997
  755MOL0     H 4144   5.725  10.562   9.242 -0.3359 -0.0450  2.2721
  755MOL0     H 4145   5.893  10.625   9.233 -0.5784  0.7094 -1.4903
  755MOL0     H 4146   5.818  10.573   9.017 -2.6192  0.0144  1.1837
  755MOL0     H 4147   5.938  10.440   9.066 -0.4012 -0.2355  0.1506
  755MOL0     H 4148   5.812  10.478   8.816  0.3238 -0.0469  0.0362
  755MOL0     H 4149   5.779  10.390   8.487  2.9613  0.7108 -1.5994
  755MOL0     H 4150   5.933  10.346   8.546 -0.1338 -0.6058  0.5244
  755MOL0     H 4151   5.864  10.499   8.589  1.2552  0.1794 -1.7749
  755MOL0     H 4152   5.665  10.255   8.274 -1.0502  0.0323 -1.8101
  755MOL0     H 4153   5.637  10.205   8.043 -1.1542 -0.6226 -0.6664
  755MOL0     H 4154   5.888   9.875   7.828  0.3120  0.1337  0.8778
  755MOL0     H 4155   5.742   9.807   7.897  1.6215 -3.4582 -2.7018
  755MOL0     H 4156   5.744   9.785   7.657 -3.5254 -0.7521 -1.2479
  755MOL0     H 4157   5.615   9.904   7.702 -0.1452  0.3986 -1.8154
  755MOL0     H 4158   5.895   9.987   7.595  1.1380 -1.1746  2.6789
  755MOL0     H 4159   5.775  10.094   7.665 -0.5081 -1.1561 -0.0854
  755MOL0     H 4160   5.620  10.028   7.468 -0.5536  0.4805  0.0817
  755MOL0     H 4161   5.753   9.910   7.423  2.5438 -0.6998  2.3059
  755MOL0     H 4162   5.884  10.068   7.340  0.0205 -0.4121  0.9634
  755MOL0     H 4163   5.729  10.128   7.291 -0.9370  1.9168  1.2954
  755MOL0     H 4164   5.877  10.258   7.525  0.4460  2.5149 -0.2417
  755MOL0     H 4165   5.697  10.262   7.495 -0.8340  0.9862 -3.1601
  755MOL0     H 4166   5.727  10.397   7.301  1.8143  2.4072 -2.3405
  755MOL0     H 4167   5.895  10.353   7.294  1.5663  1.3714  1.3836
  755MOL0     H 4168   5.950  10.484   7.491  0.5683 -3.8575 -1.0875
  755MOL0     H 4169   5.787  10.504   7.542 -1.9410 -1.7651 -0.8116
  755MOL0     H 4170   5.908   9.864   8.082  1.6233  0.5419  1.2118
  755MOL0     H 4171   5.922   9.917   8.327  1.1155 -2.7545 -4.0115
  755MOL0     H 4172   5.654  10.024   8.781  1.4256  0.1185 -0.9136
  755MOL0     H 4173   5.657  10.131   9.006 -0.3414  1.2169  0.9219
  755MOL0     H 4174   7.047  10.694  10.065 -1.0843  2.2771  2.1444
  755MOL0     H 4175   7.263  10.571  10.093 -1.2106  1.4443  1.5169
  755MOL0     H 4176   7.536  10.298  10.190  1.2333 -0.8242  1.7071
  755MOL0     H 4177   7.645  10.290  10.407  1.4108 -1.4087 -1.0233
  755MOL0     H 4178   7.728  10.335  10.624 -0.5232  3.2220  0.1600
  755MOL0     H 4179   7.849  10.275  10.516  0.3745  1.0641 -1.0813
  755MOL0     H 4180   8.017  10.408  10.646 -2.5369  2.5530 -2.1974
  755MOL0     H 4181   7.951  10.266  10.727  1.1520  0.0750  0.2218
  755MOL0     H 4182   7.838  10.557  10.767 -5.6085 -1.0591  0.0229
  755MOL0     H 4183   7.780  10.411  10.844 -1.0263  1.8942 -0.5800
  755MOL0     H 4184   8.024  10.573  10.890 -1.2739  0.8291  0.0543
  755MOL0     H 4185   8.035  10.401  10.930 -0.0113 -0.8521  0.1018
  755MOL0     H 4186   7.772  10.551  11.238  1.2415 -0.2861 -0.5718
  755MOL0     H 4187   7.830  10.663  10.343  0.0523 -0.0113  3.7714
  755MOL0     H 4188   7.882  10.723  10.113  0.5824 -2.2662 -1.4398
  755MOL0     H 4189   7.788  10.668   9.985  1.2614 -1.1876  0.1121
  755MOL0     H 4190   7.712  10.787  10.100 -1.6876 -1.6175  0.0930
  756MOL0     O 4191   2.956   7.301   3.091  0.3882 -0.2737 -0.9321
  756MOL0     C 4192   2.955   7.348   3.211 -0.0408  0.7183 -0.2587
  756MOL0     O 4193   3.065   7.384   3.277 -0.2228  0.2616 -1.0997
  756MOL0     C 4194   3.188   7.338   3.237 -0.5296 -0.2344  0.0572
  756MOL0     C 4195   3.205   7.209   3.191  0.1723 -0.3466  0.3782
  756MOL0     C 4196   3.329   7.163   3.160 -0.3462 -0.5856  0.5860
  756MOL0     C 4197   3.443   7.247   3.170 -0.3516 -0.8567  0.4396
  756MOL0     O 4198   3.570   7.201   3.138 -0.6069  0.4229  0.3915
  756MOL0     C 4199   3.610   7.072   3.188  0.2658 -0.2842  0.6610
  756MOL0     C 4200   3.744   7.093   3.264  0.2889  0.1460 -0.1988
  756MOL0     C 4201   3.854   7.152   3.170 -0.5335  0.4778 -0.5538
  756MOL0     C 4202   3.993   7.139   3.239  0.4828  0.3911 -0.4710
  756MOL0     C 4203   4.100   7.166   3.132 -0.2261 -0.1842  0.0261
  756MOL0     C 4204   4.239   7.174   3.202  0.4317  0.9380 -0.7085
  756MOL0     C 4205   4.353   7.169   3.107  0.0087 -0.5282  0.3203
  756MOL0     C 4206   4.341   7.290   3.007 -0.5693 -0.0326  1.1775
  756MOL0     N 4207   4.446   7.282   2.898 -0.3395 -0.2200 -0.4210
  756MOL0     C 4208   4.510   7.387   2.841 -0.1237 -0.0574  1.0452
  756MOL0     C 4209   4.602   7.326   2.761 -0.6016  0.2288 -0.7557
  756MOL0     C 4210   4.711   7.413   2.688  0.4932  0.0013 -0.1541
  756MOL0     C 4211   4.847   7.430   2.756 -0.1377 -0.6057 -0.1684
  756MOL0     C 4212   4.936   7.302   2.754 -0.7065 -0.2707  0.1335
  756MOL0     C 4213   5.089   7.315   2.786 -0.1996  0.0445  0.5569
  756MOL0     O 4214   5.096   7.357   2.922 -0.0035 -0.4046  0.3119
  756MOL0     C 4215   5.209   7.438   2.957  0.5239  0.1488 -0.3322
  756MOL0     C 4216   5.188   7.574   2.990  0.6662 -1.0050  0.4526
  756MOL0     C 4217   5.298   7.661   3.027  0.1375 -0.5694  0.6540
  756MOL0     C 4218   5.264   7.798   3.070 -0.3390 -0.9654 -0.4227
  756MOL0     C 4219   5.431   7.612   3.013  0.4003 -0.0073 -0.8459
  756MOL0     C 4220   5.555   7.687   3.057  0.5665 -0.2343  0.3967
  756MOL0     O 4221   5.662   7.602   3.065  0.1501 -0.2843 -0.6332
  756MOL0     C 4222   5.786   7.655   3.103 -0.0004 -0.4685 -0.5646
  756MOL0     C 4223   5.838   7.607   3.227 -0.0468  0.9807  0.5449
  756MOL0     C 4224   5.960   7.636   3.280 -1.1055  0.1226 -0.0510
  756MOL0     C 4225   6.020   7.747   3.219  0.5285 -0.1106  0.0403
  756MOL0     O 4226   6.130   7.803   3.278 -0.5647 -0.6346 -0.1742
  756MOL0     C 4227   6.152   7.949   3.279 -1.1254 -0.0381  0.6168
  756MOL0     C 4228   6.283   7.992   3.337  0.6592  0.0933 -0.0779
  756MOL0     C 4229   6.393   7.950   3.250 -0.0447 -0.5387  0.2111
  756MOL0     C 4230   6.447   7.806   3.278 -1.0701 -0.9523  0.4920
  756MOL0     C 4231   6.566   7.770   3.182 -0.3400 -0.4436 -0.3307
  756MOL0     C 4232   6.695   7.861   3.196  1.0216  0.0359  0.0570
  756MOL0     C 4233   6.830   7.801   3.180 -0.3019 -0.0158  0.5324
  756MOL0     C 4234   6.954   7.895   3.151  0.3869  0.1858 -0.2305
  756MOL0    Cl 4235   7.095   7.797   3.159 -0.2415  0.0532  0.1074
  756MOL0     C 4236   5.965   7.805   3.107  0.6148  0.1360  0.6743
  756MOL0     C 4237   5.853   7.757   3.047  0.2308  0.0268 -0.0849
  756MOL0     O 4238   5.561   7.808   3.076 -0.1052  0.2587 -0.0014
  756MOL0     C 4239   5.445   7.480   2.977  0.2490  0.7597  0.4937
  756MOL0     C 4240   5.337   7.391   2.952 -0.7046 -0.3048  0.0949
  756MOL0     N 4241   4.590   7.190   2.768  0.7860  0.2170  0.4331
  756MOL0     N 4242   4.499   7.168   2.853  0.2216 -0.3511  0.1886
  756MOL0     C 4243   3.420   7.380   3.207  0.0212 -0.3882 -0.9816
  756MOL0     C 4244   3.292   7.421   3.243  0.0386 -0.8495 -0.5445
  756MOL0     C 4245   2.822   7.390   3.267 -0.3291 -0.1254  0.3678
  756MOL0     C 4246   2.704   7.379   3.186 -0.1367 -0.2920 -0.7625
  756MOL0     C 4247   2.576   7.420   3.230  1.0757 -0.1770  0.0295
  756MOL0     C 4248   2.562   7.484   3.351 -0.0003  0.6392  0.7561
  756MOL0     O 4249   2.441   7.533   3.404  0.1889  0.2098  0.2840
  756MOL0     C 4250   2.314   7.483   3.358  0.0466  0.2322  0.1227
  756MOL0     C 4251   2.283   7.350   3.428  0.2934  0.0385  0.0318
  756MOL0     C 4252   2.157   7.297   3.375  0.0060  0.0105 -0.7107
  756MOL0     C 4253   2.086   7.182   3.453 -0.1129 -0.7205 -0.4877
  756MOL0     C 4254   2.178   7.102   3.534 -0.5377  0.0604  0.9107
  756MOL0     C 4255   2.240   7.023   3.602 -0.2322 -0.3265  0.4344
  756MOL0     C 4256   2.671   7.481   3.435 -0.0676 -0.3662 -1.0573
  756MOL0     C 4257   2.802   7.439   3.398 -0.3533  0.1409  0.3856
  756MOL0     C 4258   2.912   7.432   3.507  0.3562 -0.4674  0.2217
  756MOL0     H 4259   3.121   7.140   3.189 -0.7830  0.7287  1.4526
  756MOL0     H 4260   3.353   7.065   3.121 -0.4243 -0.2643 -0.2948
  756MOL0     H 4261   3.637   7.007   3.104  1.0235  2.7888 -1.6739
  756MOL0     H 4262   3.543   7.032   3.264  0.2430 -2.2187 -0.3378
  756MOL0     H 4263   3.728   7.165   3.345 -0.1660  0.7380 -0.7977
  756MOL0     H 4264   3.776   6.996   3.302  1.9847  1.3308  1.5864
  756MOL0     H 4265   3.874   7.089   3.083  4.2606 -0.5888  1.0130
  756MOL0     H 4266   3.837   7.257   3.147  2.4136  0.6741 -2.3313
  756MOL0     H 4267   4.001   7.208   3.324 -2.1964 -0.1946  0.3694
  756MOL0     H 4268   3.999   7.040   3.285 -3.1553  1.2717  2.3991
  756MOL0     H 4269   4.071   7.249   3.067  1.2730 -1.6428 -2.6469
  756MOL0     H 4270   4.098   7.077   3.069  0.0194  0.1793 -0.5028
  756MOL0     H 4271   4.249   7.256   3.274 -0.6499  1.7650 -1.4627
  756MOL0     H 4272   4.249   7.088   3.270 -1.0249  2.2843  1.3590
  756MOL0     H 4273   4.354   7.078   3.046  1.6682 -0.3284  0.0026
  756MOL0     H 4274   4.450   7.168   3.157 -0.7915 -0.3056  1.9100
  756MOL0     H 4275   4.245   7.288   2.955 -1.2332  0.0831  2.3796
  756MOL0     H 4276   4.341   7.387   3.058  0.7535  0.4601  0.3195
  756MOL0     H 4277   4.493   7.493   2.855 -0.9805  0.1015 -0.8442
  756MOL0     H 4278   4.665   7.512   2.677 -2.1404 -0.9928  0.9996
  756MOL0     H 4279   4.718   7.382   2.584 -0.8186  2.9854 -1.2642
  756MOL0     H 4280   4.896   7.507   2.695 -2.0629  1.2089  0.4584
  756MOL0     H 4281   4.829   7.466   2.858  0.5149 -1.3579  0.2232
  756MOL0     H 4282   4.887   7.223   2.813 -1.8490 -0.4074 -0.9553
  756MOL0     H 4283   4.931   7.274   2.649 -1.3640  1.2151 -0.2608
  756MOL0     H 4284   5.134   7.221   2.755  0.3393 -0.0729  1.6531
  756MOL0     H 4285   5.126   7.400   2.728 -1.0721  0.2444  0.2719
  756MOL0     H 4286   5.084   7.602   2.983  1.0467  0.3750 -0.0470
  756MOL0     H 4287   5.156   7.816   3.066  0.0907  2.0198 -0.6033
  756MOL0     H 4288   5.316   7.865   3.001  0.3615 -0.8967  0.1701
  756MOL0     H 4289   5.299   7.814   3.172 -1.5305 -3.3759  0.4270
  756MOL0     H 4290   5.775   7.543   3.288  2.3984 -2.8346 -0.5801
  756MOL0     H 4291   5.999   7.598   3.374 -1.4359 -0.5790 -0.1861
  756MOL0     H 4292   6.152   7.988   3.177 -0.1934 -2.0260 -0.1930
  756MOL0     H 4293   6.070   7.990   3.340 -0.1169  1.2441  1.1487
  756MOL0     H 4294   6.280   8.101   3.330 -2.2402 -0.0247 -3.6519
  756MOL0     H 4295   6.303   7.950   3.436  2.0066 -2.7323 -1.4060
  756MOL0     H 4296   6.478   8.017   3.265  0.8391 -1.3157 -1.1243
  756MOL0     H 4297   6.372   7.974   3.146 -1.2276 -1.7684  0.1298
  756MOL0     H 4298   6.371   7.727   3.273  1.3723 -3.3660 -1.2674
  756MOL0     H 4299   6.467   7.803   3.386  0.6053  1.6520  0.3229
  756MOL0     H 4300   6.598   7.675   3.227 -1.3255 -1.3318 -1.4430
  756MOL0     H 4301   6.525   7.747   3.084  0.3651 -1.2003 -0.4618
  756MOL0     H 4302   6.694   7.888   3.302 -3.1762  1.0276 -0.0687
  756MOL0     H 4303   6.692   7.958   3.146  0.9784 -0.2577 -0.5122
  756MOL0     H 4304   6.824   7.732   3.095 -0.6238 -0.3709  0.8429
  756MOL0     H 4305   6.850   7.742   3.270 -2.3539  0.9352  1.6661
  756MOL0     H 4306   6.966   7.973   3.227 -2.3391  2.9442 -2.3693
  756MOL0     H 4307   6.944   7.942   3.053  2.1810  2.6314  0.6829
  756MOL0     H 4308   6.004   7.899   3.068  1.2222 -0.5662 -0.4583
  756MOL0     H 4309   5.815   7.804   2.957 -0.9768 -0.5802  0.0905
  756MOL0     H 4310   5.543   7.434   2.974  0.2393  0.6619  1.5160
  756MOL0     H 4311   5.356   7.287   2.928  0.0349 -0.1426 -0.0720
  756MOL0     H 4312   3.504   7.450   3.210 -0.8854  0.8129 -2.4427
  756MOL0     H 4313   3.278   7.518   3.290 -0.0117 -0.6434 -0.9809
  756MOL0     H 4314   2.710   7.321   3.094  1.7764 -1.5064  0.0681
  756MOL0     H 4315   2.489   7.407   3.166 -0.1883  0.8837  1.4443
  756MOL0     H 4316   2.231   7.550   3.381  0.3516  1.1513 -1.3394
  756MOL0     H 4317   2.317   7.468   3.250  2.3479 -1.1126  0.3011
  756MOL0     H 4318   2.269   7.361   3.536  0.7247 -1.6274  0.2777
  756MOL0     H 4319   2.365   7.279   3.416 -0.1427 -0.8585  1.9201
  756MOL0     H 4320   2.084   7.374   3.351  0.3342  0.6452  0.2786
  756MOL0     H 4321   2.183   7.248   3.280 -0.1050  2.0088 -1.8271
  756MOL0     H 4322   2.048   7.107   3.383  1.9595 -2.2838 -0.0461
  756MOL0     H 4323   2.019   7.237   3.519 -0.8501 -1.3214 -0.7272
  756MOL0     H 4324   2.302   6.963   3.665 -1.6017  0.2141  2.4236
  756MOL0     H 4325   2.642   7.507   3.536 -0.6453 -2.1741 -0.7226
  756MOL0     H 4326   2.954   7.332   3.514  0.2185 -0.7787 -2.3898
  756MOL0     H 4327   2.992   7.503   3.486  1.6261 -2.0280 -0.4081
  756MOL0     H 4328   2.876   7.464   3.606  2.8186  0.8720  0.7729
  757MOL0     O 4329   7.187   9.116   3.421 -0.4536  0.4693  0.7495
  757MOL0     C 4330   7.244   9.038   3.493 -0.2943 -0.1554 -0.1553
  757MOL0     O 4331   7.370   9.062   3.552  0.2912 -0.1817 -0.3431
  757MOL0     C 4332   7.444   9.170   3.534 -0.7450 -0.6906  0.2457
  757MOL0     C 4333   7.392   9.294   3.574  0.0221  0.2776  0.3219
  757MOL0     C 4334   7.484   9.402   3.580  0.9298 -0.0385 -0.6325
  757MOL0     C 4335   7.609   9.394   3.529  0.0730  0.3615 -0.1424
  757MOL0     O 4336   7.683   9.514   3.527  0.3517  0.7751 -0.4820
  757MOL0     C 4337   7.818   9.514   3.472 -0.7300  0.2718 -0.6786
  757MOL0     C 4338   7.873   9.656   3.484 -0.2088  0.3530 -0.5676
  757MOL0     C 4339   8.016   9.683   3.436  0.2560  0.6457  0.3642
  757MOL0     C 4340   8.035   9.840   3.413  0.0768  0.4193 -0.6736
  757MOL0     C 4341   8.178   9.882   3.367 -0.3846 -0.7713 -0.3611
  757MOL0     C 4342   8.210  10.035   3.352 -0.2127 -0.3985  0.6851
  757MOL0     C 4343   8.181  10.092   3.210 -0.1973  0.1506 -0.5914
  757MOL0     C 4344   8.223  10.239   3.186 -0.2410 -0.1628  0.2152
  757MOL0     N 4345   8.141  10.336   3.266 -0.3463  0.0478  0.6723
  757MOL0     C 4346   8.032  10.410   3.226  0.8194  0.0170  0.7005
  757MOL0     C 4347   8.025  10.521   3.301 -0.7049 -0.4469 -0.9063
  757MOL0     C 4348   7.928  10.638   3.297  1.0381  0.4656  0.1399
  757MOL0     C 4349   7.780  10.591   3.281 -0.0126  0.3610  0.3294
  757MOL0     C 4350   7.698  10.712   3.287  0.2137  0.1573 -0.7781
  757MOL0     C 4351   7.556  10.655   3.278  0.0505  0.3773 -0.4658
  757MOL0     O 4352   7.526  10.572   3.396 -0.1516 -0.7295 -0.3879
  757MOL0     C 4353   7.417  10.491   3.400 -0.1814  0.2195  0.8835
  757MOL0     C 4354   7.305  10.514   3.313 -0.4609 -0.7041 -0.1964
  757MOL0     C 4355   7.187  10.439   3.331  0.3845 -0.5564 -0.1897
  757MOL0     C 4356   7.068  10.481   3.247  0.4767 -0.9194 -0.5417
  757MOL0     C 4357   7.185  10.334   3.428  0.2155  0.0455  0.5523
  757MOL0     C 4358   7.058  10.275   3.467  0.6632  0.2321  0.3433
  757MOL0     O 4359   7.003  10.176   3.392  0.3830 -0.2632  0.6329
  757MOL0     C 4360   6.872  10.141   3.420 -0.0035  1.2101 -0.5955
  757MOL0     C 4361   6.840  10.008   3.427 -0.2023 -0.2264  0.2857
  757MOL0     C 4362   6.716   9.969   3.481  0.1388 -0.5634  0.1569
  757MOL0     C 4363   6.620  10.070   3.502 -0.4536 -0.6636  1.4775
  757MOL0     O 4364   6.500  10.025   3.539 -0.5949  0.0336  0.0144
  757MOL0     C 4365   6.378  10.099   3.518 -0.7882 -0.2474  0.4815
  757MOL0     C 4366   6.339  10.100   3.370 -0.0430  0.3803  0.9898
  757MOL0     C 4367   6.208  10.170   3.357 -0.3493  0.6286  0.9730
  757MOL0     C 4368   6.139  10.105   3.238 -0.3602  0.0600  0.0271
  757MOL0     C 4369   6.023  10.191   3.181 -0.5456  0.1726 -0.4700
  757MOL0     C 4370   5.921  10.101   3.117  0.7771 -0.0236  0.1228
  757MOL0     C 4371   5.805  10.178   3.056  0.7868  0.3779 -0.1757
  757MOL0     C 4372   5.713  10.095   2.972  0.4665 -0.1632  0.5142
  757MOL0    Cl 4373   5.803  10.063   2.815 -0.1250 -0.3432 -0.2030
  757MOL0     C 4374   6.647  10.200   3.468  0.2423  0.7645 -0.8714
  757MOL0     C 4375   6.773  10.238   3.441  0.1934 -0.4563  0.1025
  757MOL0     O 4376   7.031  10.295   3.586  0.4267 -0.0405  0.0391
  757MOL0     C 4377   7.299  10.306   3.500 -0.4657  0.2863  0.0066
  757MOL0     C 4378   7.416  10.379   3.481 -0.6387  0.5184  0.2964
  757MOL0     N 4379   8.125  10.509   3.402 -0.2243  0.1971 -0.5953
  757MOL0     N 4380   8.191  10.402   3.377 -0.2544 -0.2664  0.0701
  757MOL0     C 4381   7.657   9.269   3.477  0.0853 -0.0350 -0.0909
  757MOL0     C 4382   7.572   9.164   3.483  0.2247  0.8741  1.0376
  757MOL0     C 4383   7.180   8.911   3.539 -0.4545 -0.0123  0.6131
  757MOL0     C 4384   7.263   8.801   3.554  0.3838 -1.0702 -0.1010
  757MOL0     C 4385   7.205   8.676   3.572  0.2525 -0.0492 -0.1845
  757MOL0     C 4386   7.059   8.655   3.591 -0.4284 -0.6373  0.0380
  757MOL0     O 4387   7.016   8.531   3.615  0.8683 -0.6031 -0.2893
  757MOL0     C 4388   6.876   8.502   3.641 -0.5866 -0.8646 -0.3863
  757MOL0     C 4389   6.842   8.352   3.635  0.1255 -0.9500 -0.3350
  757MOL0     C 4390   6.876   8.294   3.501  0.8453 -0.2415 -0.0390
  757MOL0     C 4391   6.795   8.171   3.458 -0.8820 -0.1628  0.2104
  757MOL0     C 4392   6.669   8.219   3.429 -0.0826 -0.4568  0.4269
  757MOL0     C 4393   6.550   8.249   3.413  0.2414  0.4339  0.4369
  757MOL0     C 4394   6.984   8.775   3.590  0.2463  0.4955 -0.4669
  757MOL0     C 4395   7.036   8.894   3.546 -0.4145 -0.4175 -0.4021
  757MOL0     C 4396   6.942   9.017   3.528 -0.4451  0.3078 -0.1539
  757MOL0     H 4397   7.292   9.308   3.615 -0.6081 -2.0861 -0.2908
  757MOL0     H 4398   7.452   9.501   3.612  1.6022 -1.3192  4.8160
  757MOL0     H 4399   7.818   9.487   3.366 -1.0940 -1.4900 -0.2612
  757MOL0     H 4400   7.877   9.440   3.526 -0.4727 -1.0220 -2.6321
  757MOL0     H 4401   7.805   9.730   3.441 -2.4201 -1.6000 -0.5757
  757MOL0     H 4402   7.875   9.683   3.590  0.5280 -0.3159 -0.4025
  757MOL0     H 4403   8.092   9.644   3.505 -0.8591  0.1621  1.3476
  757MOL0     H 4404   8.034   9.626   3.345 -0.1054  2.9693 -1.2398
  757MOL0     H 4405   7.968   9.858   3.328  1.3776  1.5433 -1.5033
  757MOL0     H 4406   7.998   9.899   3.497 -1.2992 -0.8673 -0.3395
  757MOL0     H 4407   8.193   9.835   3.270  0.5330  2.9602 -2.2337
  757MOL0     H 4408   8.248   9.836   3.437 -1.8138  1.2517  2.6058
  757MOL0     H 4409   8.152  10.098   3.419 -1.2138  0.9526 -1.3438
  757MOL0     H 4410   8.315  10.051   3.374 -0.1758 -0.8793  0.8845
  757MOL0     H 4411   8.075  10.089   3.183 -0.3165  1.4460 -0.3271
  757MOL0     H 4412   8.242  10.043   3.133  1.8105  4.6156 -2.2143
  757MOL0     H 4413   8.331  10.240   3.204  0.2866 -0.2354 -2.5264
  757MOL0     H 4414   8.194  10.278   3.088 -3.9647  2.4859  2.0964
  757MOL0     H 4415   7.969  10.395   3.139  0.2811 -2.4486  1.4219
  757MOL0     H 4416   7.955  10.700   3.211 -1.5955  0.7227 -0.5749
  757MOL0     H 4417   7.940  10.698   3.388 -1.3569 -0.0963  0.9070
  757MOL0     H 4418   7.764  10.547   3.182  2.3072  0.4412 -0.1256
  757MOL0     H 4419   7.759  10.518   3.359 -0.8135  1.9127  1.6310
  757MOL0     H 4420   7.698  10.778   3.375 -0.4229  1.9162 -2.0460
  757MOL0     H 4421   7.717  10.770   3.197 -0.8427 -0.9164 -1.7139
  757MOL0     H 4422   7.480  10.733   3.267 -0.0070  0.2704 -0.8339
  757MOL0     H 4423   7.552  10.588   3.192  0.4571 -2.7009  1.7282
  757MOL0     H 4424   7.315  10.580   3.228  0.7975 -2.8463 -1.8005
  757MOL0     H 4425   6.973  10.495   3.299  1.1079  1.5270  0.0927
  757MOL0     H 4426   7.051  10.408   3.167 -0.1678  1.1888 -2.4321
  757MOL0     H 4427   7.089  10.577   3.198  1.2547 -1.3980 -1.1725
  757MOL0     H 4428   6.909   9.931   3.398 -2.6408 -2.5133  0.1977
  757MOL0     H 4429   6.691   9.867   3.507  1.3221 -0.3553  2.4192
  757MOL0     H 4430   6.293  10.048   3.564 -1.1314 -0.6318 -0.5428
  757MOL0     H 4431   6.390  10.204   3.545  2.8146 -0.9515  2.2034
  757MOL0     H 4432   6.417  10.147   3.310 -1.6206  0.2241 -1.3317
  757MOL0     H 4433   6.338  10.000   3.325 -2.4968  0.1895  1.2987
  757MOL0     H 4434   6.216  10.278   3.338 -0.9404  0.3870 -0.9106
  757MOL0     H 4435   6.143  10.150   3.443 -0.4442  2.4334  1.3590
  757MOL0     H 4436   6.096  10.017   3.287 -1.1286  1.8001  2.7374
  757MOL0     H 4437   6.210  10.085   3.157  0.0268  0.0331  0.3712
  757MOL0     H 4438   5.977  10.252   3.259  0.6058  1.5056 -0.7940
  757MOL0     H 4439   6.060  10.264   3.108  0.2683  0.6711  0.4239
  757MOL0     H 4440   5.887  10.035   3.197 -0.8490  1.0061  0.3405
  757MOL0     H 4441   5.972  10.039   3.043  0.0083 -2.1135  1.2831
  757MOL0     H 4442   5.846  10.260   2.996 -0.7041  0.0146 -1.7707
  757MOL0     H 4443   5.739  10.215   3.134 -0.0186  1.4246 -1.3035
  757MOL0     H 4444   5.618  10.144   2.950  0.0359 -1.1010  0.2424
  757MOL0     H 4445   5.698   9.997   3.019  1.2944 -0.3623  0.3804
  757MOL0     H 4446   6.572  10.277   3.453  1.2848  1.4666 -2.9340
  757MOL0     H 4447   6.808  10.340   3.426  0.8639 -0.5311  1.0716
  757MOL0     H 4448   7.304  10.219   3.565  0.2655 -1.0465 -1.7639
  757MOL0     H 4449   7.513  10.355   3.523 -1.7942 -2.3726  1.5562
  757MOL0     H 4450   7.756   9.248   3.439 -0.8744 -2.5393 -1.4373
  757MOL0     H 4451   7.595   9.070   3.435 -2.5451  0.4994  0.2314
  757MOL0     H 4452   7.371   8.818   3.550  0.3198 -0.7532 -3.0743
  757MOL0     H 4453   7.276   8.594   3.575  1.6807  1.1455  0.0752
  757MOL0     H 4454   6.843   8.520   3.744 -2.4328 -0.0632 -1.0895
  757MOL0     H 4455   6.811   8.567   3.582 -0.2231  0.5413  0.7181
  757MOL0     H 4456   6.734   8.350   3.647  0.3335 -2.8223  1.7872
  757MOL0     H 4457   6.889   8.296   3.716 -1.1806 -1.8275 -0.1697
  757MOL0     H 4458   6.870   8.376   3.429  0.2493 -0.0604  0.2051
  757MOL0     H 4459   6.978   8.257   3.495 -0.2200 -3.3954 -0.9872
  757MOL0     H 4460   6.785   8.099   3.540 -0.2715  0.5804  0.9580
  757MOL0     H 4461   6.851   8.107   3.388 -0.1790 -1.8626  2.2132
  757MOL0     H 4462   6.454   8.280   3.376  1.0548  1.8407 -0.5404
  757MOL0     H 4463   6.881   8.764   3.621 -0.1857 -0.0049 -1.9962
  757MOL0     H 4464   6.858   8.999   3.596  0.3881 -0.7541  0.6154
  757MOL0     H 4465   6.986   9.108   3.570 -3.6208  1.5440  0.8336
  757MOL0     H 4466   6.901   9.031   3.427  1.1312  0.2989 -0.8197
  758MOL0     O 4467   1.487  11.300   4.245  0.7590 -0.0351 -0.6361
  758MOL0     C 4468   1.486  11.211   4.333 -0.2966 -0.2370  0.6063
  758MOL0     O 4469   1.585  11.123   4.356 -0.0953 -0.2374  0.8567
  758MOL0     C 4470   1.694  11.100   4.274 -0.3825  0.5529 -0.8988
  758MOL0     C 4471   1.705  11.116   4.142  0.3843  0.0810 -0.3646
  758MOL0     C 4472   1.823  11.094   4.077  0.2484  0.3653 -0.0826
  758MOL0     C 4473   1.936  11.054   4.147  0.2488 -0.9839 -0.1641
  758MOL0     O 4474   2.062  11.054   4.089  0.7222  0.1316  0.5163
  758MOL0     C 4475   2.066  10.930   4.009 -0.8282 -0.8023  0.0908
  758MOL0     C 4476   2.216  10.911   3.971 -0.0193  0.0252  0.4599
  758MOL0     C 4477   2.294  10.882   4.089 -0.2146  0.0587 -0.5166
  758MOL0     C 4478   2.436  10.902   4.054 -0.9767  0.4473  0.2413
  758MOL0     C 4479   2.534  10.837   4.150 -0.0861 -0.5476  0.1948
  758MOL0     C 4480   2.679  10.872   4.122  0.5031  0.3080  0.2838
  758MOL0     C 4481   2.773  10.859   4.248 -0.1629 -1.4171  0.2178
  758MOL0     C 4482   2.917  10.912   4.224 -0.0448 -0.0778 -0.1417
  758MOL0     N 4483   2.965  10.844   4.104  0.1321 -0.4078 -0.0583
  758MOL0     C 4484   2.988  10.889   3.972  0.8184 -1.0584  0.6245
  758MOL0     C 4485   3.057  10.796   3.908 -0.8252 -0.4499  0.2071
  758MOL0     C 4486   3.101  10.805   3.766 -0.5266  0.2913 -0.1287
  758MOL0     C 4487   3.246  10.857   3.756  0.1566 -1.2927  0.8364
  758MOL0     C 4488   3.272  10.997   3.810  0.7518 -0.0706  0.0151
  758MOL0     C 4489   3.395  11.054   3.754  0.2915 -0.0391  0.1760
  758MOL0     O 4490   3.510  11.027   3.842  0.4918 -0.0908  0.3114
  758MOL0     C 4491   3.610  11.115   3.838  0.1098 -0.6897 -0.3152
  758MOL0     C 4492   3.704  11.112   3.948  0.7091  0.1136 -0.4175
  758MOL0     C 4493   3.815  11.198   3.960 -0.2313 -0.7304 -0.3288
  758MOL0     C 4494   3.901  11.188   4.079 -0.5617 -0.0403 -0.4358
  758MOL0     C 4495   3.834  11.295   3.863 -0.2804  0.5010 -0.0382
  758MOL0     C 4496   3.953  11.389   3.857  1.0429  0.2725 -0.3107
  758MOL0     O 4497   3.937  11.496   3.771  0.0705  0.3834 -0.2836
  758MOL0     C 4498   4.055  11.564   3.732  0.0540 -0.1582 -0.5181
  758MOL0     C 4499   4.119  11.539   3.613 -0.1029  0.5304 -0.2183
  758MOL0     C 4500   4.238  11.612   3.575  1.0662 -0.6038  0.5690
  758MOL0     C 4501   4.291  11.712   3.654 -0.5960  0.1503  0.3780
  758MOL0     O 4502   4.391  11.787   3.602  0.4137  0.1032  0.2744
  758MOL0     C 4503   4.501  11.833   3.675 -0.4431  0.1127  0.0180
  758MOL0     C 4504   4.524  11.974   3.631 -0.6328 -0.4721  0.2324
  758MOL0     C 4505   4.402  12.062   3.660  0.0605 -0.2200 -0.2418
  758MOL0     C 4506   4.439  12.201   3.604 -0.0539 -0.1950 -0.2676
  758MOL0     C 4507   4.322  12.295   3.613 -0.0242  0.3563 -1.0015
  758MOL0     C 4508   4.357  12.433   3.545  0.8107  0.3130  0.0127
  758MOL0     C 4509   4.252  12.536   3.569  0.1992 -0.1175  0.6525
  758MOL0     C 4510   4.280  12.683   3.529  0.0368 -0.0129 -0.2175
  758MOL0    Cl 4511   4.410  12.738   3.645  0.0275  0.4549  0.4625
  758MOL0     C 4512   4.229  11.735   3.774 -0.0880 -0.8757 -0.6696
  758MOL0     C 4513   4.117  11.660   3.812 -0.9065 -0.9609  0.4018
  758MOL0     O 4514   4.053  11.363   3.924 -0.3337  0.5532  0.1689
  758MOL0     C 4515   3.742  11.301   3.754 -0.4350 -0.0035 -0.2509
  758MOL0     C 4516   3.634  11.213   3.740  0.1389 -0.0285 -0.2329
  758MOL0     N 4517   3.083  10.698   4.003  0.2568  0.0048  1.1415
  758MOL0     N 4518   3.036  10.730   4.111  0.3343  0.5002 -0.3639
  758MOL0     C 4519   1.926  11.022   4.278  0.1976 -0.1665 -0.2013
  758MOL0     C 4520   1.805  11.047   4.343  0.1774  0.3875 -0.4204
  758MOL0     C 4521   1.353  11.185   4.384  0.8089  0.0487  0.4252
  758MOL0     C 4522   1.312  11.050   4.397 -0.7976 -0.4926 -0.1905
  758MOL0     C 4523   1.187  11.010   4.426 -1.1704 -0.0579  0.4612
  758MOL0     C 4524   1.097  11.108   4.454 -0.1600  0.6119  0.0812
  758MOL0     O 4525   0.975  11.068   4.501  0.2226  0.4964  0.8563
  758MOL0     C 4526   0.906  11.142   4.600  0.2036 -0.3911  0.3031
  758MOL0     C 4527   0.817  11.041   4.684 -0.0447  0.1065  0.4455
  758MOL0     C 4528   0.695  11.003   4.608 -0.0338 -0.2151 -0.1696
  758MOL0     C 4529   0.571  11.093   4.620 -1.0850 -0.2998 -0.1379
  758MOL0     C 4530   0.455  11.048   4.543  0.3577  0.2547 -0.3545
  758MOL0     C 4531   0.365  10.991   4.493  0.6514  1.0226 -0.0764
  758MOL0     C 4532   1.129  11.242   4.451 -0.0540 -0.7569  0.1993
  758MOL0     C 4533   1.256  11.284   4.421  0.1241 -0.5032  0.5527
  758MOL0     C 4534   1.288  11.430   4.436 -0.0955  0.0848 -0.3657
  758MOL0     H 4535   1.623  11.151   4.081 -0.4569 -0.0367  0.6699
  758MOL0     H 4536   1.832  11.110   3.970 -0.6616 -0.8489 -0.3629
  758MOL0     H 4537   2.008  10.946   3.918 -1.6636 -2.6044  0.2403
  758MOL0     H 4538   2.020  10.848   4.066 -0.3712 -1.2735 -0.2030
  758MOL0     H 4539   2.216  10.822   3.908 -1.7630  0.3443 -0.0616
  758MOL0     H 4540   2.264  10.991   3.914  3.9273 -1.2019  1.7751
  758MOL0     H 4541   2.272  10.953   4.169 -0.3385  0.6215 -1.0452
  758MOL0     H 4542   2.277  10.781   4.127  1.4236 -0.4893 -1.1588
  758MOL0     H 4543   2.462  10.852   3.961  2.7300 -2.5250  2.5577
  758MOL0     H 4544   2.459  11.008   4.046  0.5746  0.1066 -0.0642
  758MOL0     H 4545   2.528  10.729   4.140  2.7125 -0.4967 -4.4667
  758MOL0     H 4546   2.509  10.874   4.250  0.1148  1.1543 -0.3519
  758MOL0     H 4547   2.722  10.819   4.036 -0.8431  1.3012 -1.0711
  758MOL0     H 4548   2.669  10.977   4.093 -3.3745 -0.4374 -1.7845
  758MOL0     H 4549   2.788  10.751   4.259  0.5462 -1.5317 -1.5686
  758MOL0     H 4550   2.732  10.905   4.338 -0.4785  1.1288 -1.1194
  758MOL0     H 4551   2.922  11.021   4.221 -0.6778 -0.0566 -0.9203
  758MOL0     H 4552   2.984  10.877   4.303  2.3166 -0.7778 -2.3228
  758MOL0     H 4553   2.962  10.985   3.927  1.0659 -1.6188 -0.7509
  758MOL0     H 4554   3.035  10.874   3.714 -1.6395 -2.5283 -2.7999
  758MOL0     H 4555   3.092  10.710   3.712  1.8854  0.1791 -0.4249
  758MOL0     H 4556   3.318  10.786   3.799 -0.5707 -4.5903 -2.8265
  758MOL0     H 4557   3.276  10.832   3.654 -3.2447 -2.8261  0.0860
  758MOL0     H 4558   3.186  11.051   3.771 -1.7337 -4.2999 -0.9884
  758MOL0     H 4559   3.274  10.995   3.919 -1.5700 -1.8185  0.1027
  758MOL0     H 4560   3.408  11.001   3.659 -1.6515 -3.6315  1.6806
  758MOL0     H 4561   3.382  11.161   3.738 -3.2786 -0.7112 -2.8003
  758MOL0     H 4562   3.680  11.041   4.027  2.7377  2.4679  2.5527
  758MOL0     H 4563   3.882  11.093   4.130 -3.9941  1.3239  1.1735
  758MOL0     H 4564   3.878  11.269   4.149 -1.3028  0.0853 -0.8058
  758MOL0     H 4565   4.008  11.183   4.056  0.0808  1.4227  1.8794
  758MOL0     H 4566   4.081  11.463   3.546  1.4311 -1.5580  1.1710
  758MOL0     H 4567   4.266  11.596   3.471 -0.3233  1.1789 -0.1370
  758MOL0     H 4568   4.484  11.830   3.783 -1.7695 -1.8908 -0.1868
  758MOL0     H 4569   4.596  11.781   3.662  0.8257  0.9929  4.2843
  758MOL0     H 4570   4.610  12.016   3.683 -1.1837  1.6147 -0.4505
  758MOL0     H 4571   4.554  11.980   3.526  0.2080 -2.0058  0.3520
  758MOL0     H 4572   4.384  12.061   3.768 -1.3557  2.4143 -0.3809
  758MOL0     H 4573   4.308  12.022   3.621 -0.2228 -0.1154  0.3235
  758MOL0     H 4574   4.457  12.197   3.496 -3.8048 -1.1892 -0.9979
  758MOL0     H 4575   4.521  12.237   3.667  2.2229 -5.0744  0.0437
  758MOL0     H 4576   4.235  12.254   3.562  0.5273 -0.1628 -1.5457
  758MOL0     H 4577   4.300  12.311   3.719  0.7768 -0.2872 -0.7281
  758MOL0     H 4578   4.367  12.418   3.437 -1.8855  0.1362 -0.2893
  758MOL0     H 4579   4.451  12.460   3.594  0.9371  1.1722 -0.7012
  758MOL0     H 4580   4.210  12.544   3.670 -0.4048  2.2203  0.2759
  758MOL0     H 4581   4.165  12.522   3.505 -0.6907  2.1107  1.2739
  758MOL0     H 4582   4.187  12.741   3.528 -0.1009 -0.2171  0.3182
  758MOL0     H 4583   4.306  12.684   3.423 -0.8301 -2.1300 -0.4808
  758MOL0     H 4584   4.260  11.812   3.844 -2.9828 -0.6480  0.5185
  758MOL0     H 4585   4.061  11.678   3.903 -0.5597 -2.4549  0.9357
  758MOL0     H 4586   3.753  11.381   3.682  1.5164 -1.3277 -1.5516
  758MOL0     H 4587   3.568  11.242   3.659 -0.2070  2.6332  0.8799
  758MOL0     H 4588   2.013  10.979   4.326  1.7958 -0.1617 -2.9133
  758MOL0     H 4589   1.782  11.028   4.448 -0.2217  1.6308 -0.2717
  758MOL0     H 4590   1.384  10.972   4.374 -0.8312 -0.0858 -1.7828
  758MOL0     H 4591   1.164  10.905   4.412  2.0358 -0.7077 -0.9263
  758MOL0     H 4592   0.973  11.186   4.675  2.8507 -1.4724 -1.2707
  758MOL0     H 4593   0.843  11.219   4.557 -1.2473 -0.5765  1.9662
  758MOL0     H 4594   0.805  11.081   4.785  1.8103  0.1695  0.6756
  758MOL0     H 4595   0.878  10.952   4.700 -0.3627 -0.3350 -0.6926
  758MOL0     H 4596   0.723  10.986   4.504 -0.7734  1.7930 -0.7352
  758MOL0     H 4597   0.658  10.909   4.651  0.7276 -1.2541 -1.6683
  758MOL0     H 4598   0.591  11.197   4.593 -0.7787 -0.3326 -0.0374
  758MOL0     H 4599   0.524  11.088   4.719 -0.3480 -4.0469  0.1644
  758MOL0     H 4600   0.293  10.941   4.432  0.9662 -2.2069  1.9824
  758MOL0     H 4601   1.062  11.321   4.483 -1.2041 -0.4103 -2.8113
  758MOL0     H 4602   1.264  11.483   4.344  0.8253 -1.3020 -1.4426
  758MOL0     H 4603   1.232  11.482   4.514  1.8741 -0.0354  1.2233
  758MOL0     H 4604   1.395  11.444   4.452 -0.5079  3.9684 -0.2125
  759MOL0     O 4605  10.814   4.503   2.928  0.3537 -0.7285  0.4844
  759MOL0     C 4606  10.832   4.382   2.897 -0.7079 -0.4225  0.8304
  759MOL0     O 4607  10.734   4.305   2.861 -0.0423  0.0776 -0.7079
  759MOL0     C 4608  10.606   4.355   2.841  0.2007 -0.2060  0.2230
  759MOL0     C 4609  10.502   4.306   2.923  0.6028  0.0778  0.2502
  759MOL0     C 4610  10.372   4.358   2.910 -0.1495  0.5160  0.5809
  759MOL0     C 4611  10.353   4.460   2.826  1.2405 -0.0652  0.6177
  759MOL0     O 4612  10.221   4.509   2.827  0.1060 -0.1653 -0.5739
  759MOL0     C 4613  10.188   4.613   2.725  0.6210 -0.0772  0.0364
  759MOL0     C 4614  10.038   4.635   2.735 -0.4081  1.3032 -0.2878
  759MOL0     C 4615   9.982   4.726   2.842 -0.2033 -0.3047 -0.4976
  759MOL0     C 4616   9.937   4.647   2.970  0.1755 -0.0647 -0.0919
  759MOL0     C 4617   9.820   4.552   2.941  0.0715  0.4694 -0.3096
  759MOL0     C 4618   9.746   4.495   3.067 -0.0352  0.3600  0.2839
  759MOL0     C 4619   9.671   4.598   3.137 -0.2239 -0.5304 -0.0006
  759MOL0     C 4620   9.612   4.541   3.262  0.8454  1.3180 -0.3613
  759MOL0     N 4621   9.704   4.574   3.368 -0.1608  0.2833 -0.1193
  759MOL0     C 4622   9.818   4.510   3.393  0.4024  0.0202 -0.8824
  759MOL0     C 4623   9.884   4.591   3.487 -0.8117  0.2990 -0.6148
  759MOL0     C 4624  10.024   4.590   3.544 -1.1251 -0.2140  0.3393
  759MOL0     C 4625  10.028   4.541   3.692  0.0622  0.5754  0.8012
  759MOL0     C 4626  10.168   4.569   3.752  0.2669  0.3107 -0.0436
  759MOL0     C 4627  10.197   4.489   3.879  0.1096 -0.7778  0.2870
  759MOL0     O 4628  10.273   4.377   3.835 -0.4686 -0.4534 -0.4901
  759MOL0     C 4629  10.411   4.382   3.822  0.3537  0.0814 -0.2310
  759MOL0     C 4630  10.481   4.271   3.790 -0.1146  0.9872 -0.2518
  759MOL0     C 4631  10.623   4.266   3.787 -0.8233  0.1034 -0.6484
  759MOL0     C 4632  10.681   4.126   3.779  0.2840  1.1544  0.1004
  759MOL0     C 4633  10.697   4.385   3.808 -0.1894 -0.3089  0.7380
  759MOL0     C 4634  10.840   4.386   3.792 -0.9368 -0.9978 -0.1066
  759MOL0     O 4635  10.879   4.520   3.775 -0.3287 -0.3970 -0.0539
  759MOL0     C 4636  11.007   4.544   3.810  0.3001  0.5052 -0.2997
  759MOL0     C 4637  11.035   4.537   3.947 -0.1201  1.4420 -0.3447
  759MOL0     C 4638  11.163   4.572   3.991 -0.1170 -0.5934  0.5074
  759MOL0     C 4639  11.266   4.629   3.906  0.0237  0.3126 -0.0093
  759MOL0     O 4640  11.388   4.664   3.962  0.3074 -1.0047 -0.8441
  759MOL0     C 4641  11.498   4.705   3.891 -0.3998 -0.2796 -0.0886
  759MOL0     C 4642  11.564   4.600   3.802  0.6515  0.4356  0.3980
  759MOL0     C 4643  11.718   4.622   3.773  0.0230  0.2191  0.4945
  759MOL0     C 4644  11.782   4.504   3.724  0.3936 -0.2369  1.3446
  759MOL0     C 4645  11.929   4.532   3.702 -0.2280  0.0232  0.1784
  759MOL0     C 4646  12.015   4.523   3.826 -0.3579  0.0441 -1.1348
  759MOL0     C 4647  12.160   4.514   3.786 -0.4903 -0.4636 -0.3762
  759MOL0     C 4648  12.259   4.562   3.891 -0.4224  0.5306  0.0508
  759MOL0    Cl 4649  12.430   4.519   3.845 -0.1629 -0.2024  0.0699
  759MOL0     C 4650  11.229   4.642   3.765  0.7204  0.4651  0.7384
  759MOL0     C 4651  11.107   4.585   3.721 -0.6083  0.0369  0.8221
  759MOL0     O 4652  10.909   4.286   3.801  0.6463 -0.1876  0.5417
  759MOL0     C 4653  10.625   4.505   3.822  0.0277  0.5639  0.5789
  759MOL0     C 4654  10.485   4.501   3.834 -0.4058  0.0279 -0.0381
  759MOL0     N 4655   9.795   4.688   3.526 -0.2476 -0.3706 -0.3246
  759MOL0     N 4656   9.689   4.675   3.457  0.5817  0.1649 -0.2791
  759MOL0     C 4657  10.459   4.509   2.746  1.5982 -0.6689  0.2047
  759MOL0     C 4658  10.582   4.449   2.745 -0.1021  0.3212  0.7616
  759MOL0     C 4659  10.966   4.321   2.922 -0.6992 -0.3843  0.2471
  759MOL0     C 4660  11.080   4.406   2.936 -0.2370 -0.4656  0.8376
  759MOL0     C 4661  11.208   4.360   2.953 -0.1686 -0.0540  0.4509
  759MOL0     C 4662  11.222   4.231   2.978  0.3377 -0.3862 -0.3792
  759MOL0     O 4663  11.345   4.182   3.021 -0.5664  0.4346 -0.9613
  759MOL0     C 4664  11.453   4.194   2.934  0.1564 -0.4647  0.1563
  759MOL0     C 4665  11.533   4.067   2.933  0.4220  0.4071 -0.1109
  759MOL0     C 4666  11.447   3.952   2.866 -0.4577 -0.4007  0.7424
  759MOL0     C 4667  11.516   3.819   2.857  0.0247  0.3465 -0.4511
  759MOL0     C 4668  11.445   3.728   2.763 -0.0400 -1.2974  0.3275
  759MOL0     C 4669  11.393   3.667   2.675 -0.8952  0.3533 -1.1506
  759MOL0     C 4670  11.117   4.141   2.980 -0.0478  0.8123  0.8476
  759MOL0     C 4671  10.991   4.185   2.957 -0.3199 -0.0166 -0.0998
  759MOL0     C 4672  10.882   4.089   2.966  0.1650 -0.6408  0.4921
  759MOL0     H 4673  10.505   4.228   2.998  2.3446  2.0124  2.3565
  759MOL0     H 4674  10.293   4.322   2.975 -1.2709  2.7280  0.5244
  759MOL0     H 4675  10.225   4.573   2.630 -1.8268 -3.3648  0.2626
  759MOL0     H 4676  10.245   4.703   2.745  2.6176 -1.3713  0.4681
  759MOL0     H 4677  10.018   4.679   2.637  1.3510 -2.2737 -2.5092
  759MOL0     H 4678  10.001   4.532   2.743 -1.0743  1.5858  0.3999
  759MOL0     H 4679  10.060   4.798   2.866 -0.3066 -0.5481  0.6831
  759MOL0     H 4680   9.904   4.796   2.811  1.3349  1.4786 -0.4771
  759MOL0     H 4681  10.021   4.595   3.018 -0.6160 -0.9141  0.4127
  759MOL0     H 4682   9.911   4.716   3.050 -0.9671 -2.0180  1.3093
  759MOL0     H 4683   9.860   4.462   2.893  0.1966  1.4383 -2.0697
  759MOL0     H 4684   9.739   4.601   2.888 -1.0350 -1.1183 -0.1603
  759MOL0     H 4685   9.684   4.409   3.043  1.4831 -0.0793 -2.4380
  759MOL0     H 4686   9.826   4.456   3.131  2.5281 -0.9097 -3.3390
  759MOL0     H 4687   9.587   4.631   3.074  1.3623  1.2680 -1.2674
  759MOL0     H 4688   9.723   4.690   3.164 -0.7081  0.0987 -1.1367
  759MOL0     H 4689   9.522   4.602   3.277 -0.1821 -0.4979  1.1827
  759MOL0     H 4690   9.589   4.434   3.260 -0.7633  1.6295  0.3923
  759MOL0     H 4691   9.870   4.427   3.348  0.4071 -0.3009 -0.2949
  759MOL0     H 4692  10.056   4.694   3.548 -2.7372  0.4870 -2.5014
  759MOL0     H 4693  10.097   4.545   3.476 -1.1808  0.2984 -0.0653
  759MOL0     H 4694   9.941   4.576   3.748  1.2481 -0.7109  3.6082
  759MOL0     H 4695  10.019   4.432   3.680  1.4253  0.6883 -2.4772
  759MOL0     H 4696  10.246   4.559   3.676  0.7091  0.5747  0.3659
  759MOL0     H 4697  10.167   4.672   3.787 -0.7608 -0.1128  1.2506
  759MOL0     H 4698  10.247   4.553   3.952 -2.0440  1.0806  0.2367
  759MOL0     H 4699  10.103   4.473   3.932  0.7258  2.5041  2.6734
  759MOL0     H 4700  10.430   4.177   3.776 -0.7319  0.9325  1.9092
  759MOL0     H 4701  10.601   4.053   3.793 -0.4235  1.5244 -1.7781
  759MOL0     H 4702  10.742   4.106   3.867 -1.4273 -1.1800  0.8379
  759MOL0     H 4703  10.729   4.096   3.685  2.0248  1.4750  0.8447
  759MOL0     H 4704  10.954   4.519   4.017  0.4899 -1.4344 -0.2523
  759MOL0     H 4705  11.176   4.568   4.099  0.8835  0.9932  0.4808
  759MOL0     H 4706  11.456   4.782   3.826 -1.9080 -1.6688 -0.8209
  759MOL0     H 4707  11.572   4.754   3.955  0.3139 -1.1231 -0.2554
  759MOL0     H 4708  11.554   4.506   3.857  1.2635 -0.6061 -1.1953
  759MOL0     H 4709  11.513   4.586   3.707  0.7156 -1.9501  0.6374
  759MOL0     H 4710  11.770   4.659   3.862  1.2469 -4.6737  2.1194
  759MOL0     H 4711  11.740   4.698   3.698 -2.4987  1.6577  1.1118
  759MOL0     H 4712  11.732   4.480   3.629  2.6679  0.7540 -0.1891
  759MOL0     H 4713  11.764   4.432   3.804  0.5158  0.8713  2.4011
  759MOL0     H 4714  11.962   4.449   3.639 -1.5248 -1.3036  1.1643
  759MOL0     H 4715  11.944   4.621   3.641 -1.6488 -1.4152 -2.4536
  759MOL0     H 4716  11.989   4.440   3.893  0.0038  0.2669 -0.7121
  759MOL0     H 4717  12.006   4.610   3.891  2.2854 -0.9618  0.7579
  759MOL0     H 4718  12.179   4.550   3.685 -1.0998  0.6709 -0.1059
  759MOL0     H 4719  12.176   4.407   3.776  1.6284 -0.5526  2.5293
  759MOL0     H 4720  12.232   4.516   3.986 -0.6296  0.5640  0.0088
  759MOL0     H 4721  12.250   4.670   3.910 -0.6908  0.4431  0.4309
  759MOL0     H 4722  11.303   4.684   3.698  0.7916 -1.3762 -0.4084
  759MOL0     H 4723  11.077   4.582   3.616 -0.2080 -5.9822  0.5463
  759MOL0     H 4724  10.670   4.603   3.823  2.8410 -0.5237 -2.0863
  759MOL0     H 4725  10.435   4.597   3.845  3.1949  1.8780  1.9767
  759MOL0     H 4726  10.446   4.598   2.685  0.3447  1.3270  3.1629
  759MOL0     H 4727  10.663   4.476   2.679 -1.7781  0.6414 -1.2581
  759MOL0     H 4728  11.076   4.514   2.926 -0.4728 -0.4482  1.1316
  759MOL0     H 4729  11.292   4.429   2.955  1.8617 -2.3995  0.9112
  759MOL0     H 4730  11.411   4.212   2.835 -0.4098 -2.2876  0.0153
  759MOL0     H 4731  11.511   4.278   2.972 -5.0109  2.3714  2.8953
  759MOL0     H 4732  11.562   4.042   3.035 -3.9092  2.0551  1.7652
  759MOL0     H 4733  11.627   4.073   2.878  0.2204 -0.4185 -0.5547
  759MOL0     H 4734  11.356   3.952   2.927 -0.1452  3.9536  1.5776
  759MOL0     H 4735  11.417   3.981   2.764  2.1144  0.9300  0.2910
  759MOL0     H 4736  11.507   3.787   2.961 -1.6051  3.3779  0.4540
  759MOL0     H 4737  11.622   3.833   2.832  0.1832  1.0971  0.5692
  759MOL0     H 4738  11.338   3.609   2.603  0.0814  0.1002 -1.7183
  759MOL0     H 4739  11.131   4.035   3.001  0.1841  0.2119 -1.8933
  759MOL0     H 4740  10.906   3.997   3.022 -1.8290 -1.4027  0.1698
  759MOL0     H 4741  10.800   4.137   3.018 -0.5861 -1.7868  0.4078
  759MOL0     H 4742  10.847   4.060   2.866 -1.8134  1.3329  0.5477
  760MOL0     O 4743   1.068   5.887   4.808 -0.7226 -0.2263 -0.5852
  760MOL0     C 4744   1.119   5.857   4.921 -0.1729 -0.4919  0.2234
  760MOL0     O 4745   1.210   5.762   4.940 -0.7923  0.8111 -0.0156
  760MOL0     C 4746   1.236   5.671   4.845  0.4052 -0.3911 -0.4338
  760MOL0     C 4747   1.142   5.574   4.823 -0.9111  0.6600 -0.0752
  760MOL0     C 4748   1.169   5.483   4.718 -0.3532  0.3886 -0.4577
  760MOL0     C 4749   1.283   5.489   4.638  0.5759 -0.2367 -0.0394
  760MOL0     O 4750   1.307   5.400   4.541  0.3922 -0.1646 -0.0818
  760MOL0     C 4751   1.222   5.289   4.514 -0.2299 -0.6364  1.2285
  760MOL0     C 4752   1.247   5.267   4.360 -0.0702  0.2504 -0.5901
  760MOL0     C 4753   1.140   5.187   4.278  0.3670  0.4844  0.0415
  760MOL0     C 4754   1.154   5.033   4.298  0.4004  0.4712  0.4228
  760MOL0     C 4755   1.053   4.952   4.226  0.2161  0.3481  0.4566
  760MOL0     C 4756   1.056   4.955   4.067 -0.7508  0.3729 -0.5463
  760MOL0     C 4757   1.194   4.909   4.004 -0.2884  0.1768  0.5660
  760MOL0     C 4758   1.176   4.872   3.855 -0.3159 -0.1891  0.0920
  760MOL0     N 4759   1.310   4.850   3.790  0.2088 -0.0311  0.3892
  760MOL0     C 4760   1.341   4.743   3.707  0.3564 -0.4507  0.1371
  760MOL0     C 4761   1.473   4.773   3.671  0.1160 -0.0219  0.1333
  760MOL0     C 4762   1.565   4.693   3.578  0.3338  0.4733 -0.1681
  760MOL0     C 4763   1.709   4.730   3.583 -0.4275  0.3358 -1.3201
  760MOL0     C 4764   1.786   4.665   3.705  0.4772 -0.5151 -0.9788
  760MOL0     C 4765   1.933   4.641   3.694  0.3051  0.8149 -0.8604
  760MOL0     O 4766   1.946   4.540   3.596 -0.0228 -0.5103 -0.7272
  760MOL0     C 4767   2.060   4.547   3.518  0.7547  0.2546 -0.2030
  760MOL0     C 4768   2.173   4.629   3.532 -1.1845  0.1470  0.2862
  760MOL0     C 4769   2.278   4.624   3.439 -0.0451  0.0065 -0.3557
  760MOL0     C 4770   2.398   4.720   3.458  0.4115  0.2466 -0.6126
  760MOL0     C 4771   2.265   4.522   3.333  0.0838 -0.1130 -0.1682
  760MOL0     C 4772   2.375   4.498   3.238 -0.4439  0.0065 -0.1104
  760MOL0     O 4773   2.346   4.487   3.106 -0.4829  0.6049 -0.4760
  760MOL0     C 4774   2.430   4.550   3.011 -0.3605  0.0309  0.6845
  760MOL0     C 4775   2.439   4.494   2.883 -0.6955  0.4341 -0.7805
  760MOL0     C 4776   2.507   4.548   2.768  0.4054  0.4344 -1.0058
  760MOL0     C 4777   2.584   4.664   2.791  1.1682 -0.2179  0.1420
  760MOL0     O 4778   2.632   4.736   2.684  0.0741 -0.3367  0.4274
  760MOL0     C 4779   2.654   4.673   2.553  0.5263  0.9351 -0.5261
  760MOL0     C 4780   2.625   4.785   2.452  0.1010 -0.3982 -0.8511
  760MOL0     C 4781   2.645   4.724   2.315  1.1363  0.9486  0.3150
  760MOL0     C 4782   2.527   4.631   2.276  0.6239  0.0195 -0.6153
  760MOL0     C 4783   2.531   4.580   2.133  0.0486  0.8355 -0.6313
  760MOL0     C 4784   2.408   4.482   2.110 -0.0870  0.6526  0.3932
  760MOL0     C 4785   2.276   4.560   2.093  0.3218  0.0552 -0.0091
  760MOL0     C 4786   2.157   4.459   2.061  1.0514  0.5820 -0.7170
  760MOL0    Cl 4787   2.182   4.377   1.901 -0.8266 -0.2335 -0.1858
  760MOL0     C 4788   2.585   4.721   2.919  0.3531 -0.1599 -0.2401
  760MOL0     C 4789   2.512   4.665   3.027  1.1189 -0.2516 -0.5767
  760MOL0     O 4790   2.489   4.492   3.287  0.3225 -0.4330 -0.1562
  760MOL0     C 4791   2.158   4.435   3.333  0.0293  0.7007  0.1917
  760MOL0     C 4792   2.057   4.452   3.417  0.3107 -0.2143 -0.6514
  760MOL0     N 4793   1.507   4.890   3.727  0.0248 -0.5109  0.5826
  760MOL0     N 4794   1.410   4.943   3.798 -0.1642  0.2862 -0.1954
  760MOL0     C 4795   1.382   5.584   4.672 -0.3698  0.1656  0.9245
  760MOL0     C 4796   1.348   5.687   4.757  0.9575 -0.3687  0.1747
  760MOL0     C 4797   1.073   5.947   5.021 -0.6383  0.1313 -0.4572
  760MOL0     C 4798   0.984   6.054   4.994 -0.0570  0.5051  0.0346
  760MOL0     C 4799   0.942   6.139   5.091 -0.0057 -0.7905  0.3523
  760MOL0     C 4800   0.971   6.117   5.225 -0.3825 -0.6713 -0.0133
  760MOL0     O 4801   0.940   6.197   5.331  0.1880 -0.0846  0.3453
  760MOL0     C 4802   0.802   6.223   5.346  0.2608 -0.1642  0.3823
  760MOL0     C 4803   0.767   6.302   5.466  0.1249  0.0532 -0.7166
  760MOL0     C 4804   0.783   6.456   5.440 -0.0261 -0.1019  1.6027
  760MOL0     C 4805   0.738   6.537   5.555 -0.3073 -0.1762  0.4010
  760MOL0     C 4806   0.817   6.519   5.678 -0.6493 -0.1189  0.2412
  760MOL0     C 4807   0.882   6.507   5.783 -0.2238  0.3075 -0.3295
  760MOL0     C 4808   1.061   6.021   5.259 -0.0861  0.7851 -0.1702
  760MOL0     C 4809   1.109   5.934   5.162 -0.4266  0.5001  0.0052
  760MOL0     C 4810   1.221   5.848   5.220  0.2576  0.5244 -0.4045
  760MOL0     H 4811   1.045   5.595   4.868 -0.3383  0.8467  1.1206
  760MOL0     H 4812   1.089   5.411   4.704 -0.7736  1.2476 -3.0132
  760MOL0     H 4813   1.119   5.323   4.522  1.2642  5.7067 -0.8990
  760MOL0     H 4814   1.245   5.194   4.564 -0.1104 -1.8458 -1.0010
  760MOL0     H 4815   1.262   5.368   4.322  1.3527  1.3034  2.4255
  760MOL0     H 4816   1.347   5.226   4.343  0.3707  0.9493  0.2387
  760MOL0     H 4817   1.041   5.229   4.297 -0.0439 -0.6450  0.4974
  760MOL0     H 4818   1.158   5.209   4.173 -0.7724 -0.4405 -0.3776
  760MOL0     H 4819   1.258   5.011   4.272  1.7521  5.3232  0.7939
  760MOL0     H 4820   1.147   5.004   4.403  0.6853 -0.8787  0.0883
  760MOL0     H 4821   0.952   4.987   4.253 -0.8135 -1.2646 -1.1367
  760MOL0     H 4822   1.075   4.851   4.259  0.2854  0.7880  1.8502
  760MOL0     H 4823   0.974   4.896   4.025 -0.1971  0.4547 -1.8004
  760MOL0     H 4824   1.046   5.061   4.042 -1.5415  1.1218  2.5257
  760MOL0     H 4825   1.223   4.818   4.056 -0.3467  0.0224  0.3290
  760MOL0     H 4826   1.273   4.983   4.018 -0.3497  0.2470  0.5438
  760MOL0     H 4827   1.121   4.777   3.849  1.1183 -1.1948  1.9642
  760MOL0     H 4828   1.114   4.943   3.799 -3.2830 -0.7944  2.3225
  760MOL0     H 4829   1.276   4.656   3.695 -1.2884  0.4676  1.8919
  760MOL0     H 4830   1.541   4.711   3.472  0.2475  0.5753 -0.1322
  760MOL0     H 4831   1.554   4.586   3.594 -1.4827  0.6130 -0.2450
  760MOL0     H 4832   1.759   4.712   3.488  1.0940  0.1779 -0.5081
  760MOL0     H 4833   1.712   4.837   3.605 -0.9488  0.2556 -0.8257
  760MOL0     H 4834   1.765   4.736   3.785 -0.3015  0.5670 -2.1240
  760MOL0     H 4835   1.738   4.575   3.746  0.0611  1.0885  2.4484
  760MOL0     H 4836   1.979   4.738   3.671  0.0842  1.4848  1.2841
  760MOL0     H 4837   1.977   4.610   3.790 -0.9471  3.9461  0.8689
  760MOL0     H 4838   2.187   4.712   3.601  0.0092 -0.0270  0.2848
  760MOL0     H 4839   2.485   4.665   3.494 -0.1725 -2.7907 -3.3437
  760MOL0     H 4840   2.370   4.806   3.519 -0.8683 -1.1186  0.8211
  760MOL0     H 4841   2.428   4.762   3.362  0.2043 -0.7466 -1.1358
  760MOL0     H 4842   2.409   4.390   2.874  3.2620 -0.7092 -4.1535
  760MOL0     H 4843   2.481   4.497   2.676 -4.3216 -0.0258  0.3092
  760MOL0     H 4844   2.749   4.621   2.536 -1.2752 -2.8482  0.0084
  760MOL0     H 4845   2.579   4.596   2.536 -0.7142  2.0897 -0.4651
  760MOL0     H 4846   2.528   4.834   2.463  0.4081 -0.0938  0.8648
  760MOL0     H 4847   2.699   4.865   2.464 -1.7528  1.0897  1.4745
  760MOL0     H 4848   2.731   4.659   2.297 -2.0837 -3.5871 -0.4519
  760MOL0     H 4849   2.654   4.796   2.232 -1.6644  1.5748  0.4474
  760MOL0     H 4850   2.434   4.682   2.301  0.8831 -0.7439  2.2283
  760MOL0     H 4851   2.530   4.540   2.338  0.1842  1.1305  1.0962
  760MOL0     H 4852   2.531   4.665   2.064 -3.3571  2.4907  1.1292
  760MOL0     H 4853   2.626   4.529   2.116  0.7239  2.1835 -1.0276
  760MOL0     H 4854   2.397   4.402   2.184 -1.2952 -0.4037 -0.8877
  760MOL0     H 4855   2.432   4.432   2.016  2.1643  1.2091  0.5992
  760MOL0     H 4856   2.280   4.628   2.007 -2.9293  0.5508  0.1220
  760MOL0     H 4857   2.255   4.608   2.189 -2.3157 -1.7301  0.4075
  760MOL0     H 4858   2.065   4.517   2.063 -1.3704 -2.8482 -2.4952
  760MOL0     H 4859   2.142   4.378   2.132  0.1948  0.1252 -1.4000
  760MOL0     H 4860   2.635   4.817   2.920  1.6227 -0.8134  0.6348
  760MOL0     H 4861   2.521   4.712   3.125  0.5925 -2.1999  0.4404
  760MOL0     H 4862   2.158   4.355   3.259 -0.9082  0.1603  0.7535
  760MOL0     H 4863   1.978   4.380   3.430  0.6821 -0.2687  1.7931
  760MOL0     H 4864   1.474   5.598   4.616 -1.5544  2.6950 -0.5589
  760MOL0     H 4865   1.416   5.769   4.779 -0.7911  1.4934 -1.0040
  760MOL0     H 4866   0.938   6.063   4.896  0.9279 -5.5171 -1.3689
  760MOL0     H 4867   0.869   6.216   5.070  2.5774  2.0522  1.0761
  760MOL0     H 4868   0.765   6.277   5.258 -1.5077 -2.7401 -0.5856
  760MOL0     H 4869   0.752   6.126   5.349  0.8586 -0.5760 -1.3947
  760MOL0     H 4870   0.828   6.276   5.553 -3.2349 -1.6817  1.3167
  760MOL0     H 4871   0.661   6.285   5.484 -0.4665  1.5379 -2.4424
  760MOL0     H 4872   0.889   6.468   5.419 -0.9025  3.1556 -2.0663
  760MOL0     H 4873   0.729   6.483   5.349  1.3587  1.9068  1.3165
  760MOL0     H 4874   0.632   6.515   5.573 -1.2770  2.4318 -1.6273
  760MOL0     H 4875   0.741   6.643   5.529 -1.0315 -0.3012 -0.2237
  760MOL0     H 4876   0.927   6.493   5.879 -1.0083  0.3093  0.0423
  760MOL0     H 4877   1.080   6.011   5.365 -0.2712  0.4914 -0.1638
  760MOL0     H 4878   1.181   5.748   5.239  1.2911  0.4277  1.4519
  760MOL0     H 4879   1.304   5.839   5.149 -0.1784 -3.0604 -0.6531
  760MOL0     H 4880   1.261   5.879   5.317 -0.5173 -0.7765  0.3645
  761MOL0     O 4881   2.714   7.560   7.552 -0.4804 -0.1219 -0.2507
  761MOL0     C 4882   2.595   7.592   7.560 -0.3059  0.3750 -1.1054
  761MOL0     O 4883   2.510   7.629   7.457 -0.4334  0.1455 -0.2885
  761MOL0     C 4884   2.566   7.646   7.335 -0.0151 -0.1674  0.5108
  761MOL0     C 4885   2.593   7.537   7.259  0.2603  0.3773 -0.1888
  761MOL0     C 4886   2.661   7.552   7.132  0.9794 -0.8696  0.3537
  761MOL0     C 4887   2.687   7.686   7.082  0.1431  0.9974 -0.1089
  761MOL0     O 4888   2.754   7.708   6.963  0.2091  0.6030 -0.6919
  761MOL0     C 4889   2.749   7.616   6.858 -0.3426  0.9897 -0.1734
  761MOL0     C 4890   2.823   7.675   6.731  0.1846  0.1074 -0.6821
  761MOL0     C 4891   2.977   7.673   6.760 -0.6467  0.5167 -0.1081
  761MOL0     C 4892   3.054   7.780   6.680  0.7760  0.3203 -0.4624
  761MOL0     C 4893   3.192   7.806   6.731 -0.5410  0.0429  0.7555
  761MOL0     C 4894   3.297   7.693   6.691 -0.3667 -0.0856 -1.1192
  761MOL0     C 4895   3.324   7.687   6.534  0.9385 -0.1530  0.1148
  761MOL0     C 4896   3.389   7.817   6.483  0.4834  0.4210  0.4081
  761MOL0     N 4897   3.428   7.803   6.346  0.2180  0.3258 -0.5095
  761MOL0     C 4898   3.347   7.793   6.226 -0.4706 -0.0494  0.2858
  761MOL0     C 4899   3.432   7.764   6.122  0.3814  0.0910  0.6628
  761MOL0     C 4900   3.387   7.716   5.988 -0.5779  0.0951 -0.2855
  761MOL0     C 4901   3.492   7.717   5.879  0.2616 -0.3518 -0.0095
  761MOL0     C 4902   3.470   7.851   5.804  0.4197 -0.3824 -0.2408
  761MOL0     C 4903   3.561   7.863   5.680 -0.2244  0.5147 -0.2835
  761MOL0     O 4904   3.536   7.752   5.590 -0.7152  0.0930 -0.3399
  761MOL0     C 4905   3.586   7.751   5.461 -0.5905 -0.6092  0.0233
  761MOL0     C 4906   3.655   7.855   5.404  0.3900  0.5857  0.4803
  761MOL0     C 4907   3.693   7.851   5.268  0.7383 -0.4852 -0.7070
  761MOL0     C 4908   3.786   7.969   5.223  0.1267  0.1521 -0.5750
  761MOL0     C 4909   3.661   7.742   5.182  0.1136  0.0628  0.1804
  761MOL0     C 4910   3.704   7.726   5.042  0.0649  0.1777  0.1551
  761MOL0     O 4911   3.753   7.836   4.983  0.2468 -0.3973  0.2532
  761MOL0     C 4912   3.785   7.836   4.852 -0.2174 -0.1119 -0.7916
  761MOL0     C 4913   3.919   7.860   4.812  0.5596 -0.2456 -0.0784
  761MOL0     C 4914   3.947   7.879   4.678  0.6216  0.5393 -0.6544
  761MOL0     C 4915   3.848   7.878   4.580  0.1148 -0.1089 -0.4184
  761MOL0     O 4916   3.886   7.913   4.451 -0.3248  0.2573  0.2468
  761MOL0     C 4917   3.849   7.806   4.358  0.1829  0.4662  0.2568
  761MOL0     C 4918   3.932   7.812   4.227 -0.3713  0.1276  0.0798
  761MOL0     C 4919   3.886   7.938   4.145 -0.6065  0.0008  0.1432
  761MOL0     C 4920   3.976   8.069   4.166  0.0044  0.3354 -0.0722
  761MOL0     C 4921   4.118   8.072   4.128 -0.4056  0.0450 -0.3904
  761MOL0     C 4922   4.190   8.160   4.230 -1.0127  0.5979 -0.1790
  761MOL0     C 4923   4.347   8.153   4.208  0.8559  0.1425 -0.0108
  761MOL0     C 4924   4.387   8.245   4.081  0.2798  0.8341  0.6184
  761MOL0    Cl 4925   4.566   8.233   4.086  0.1181 -0.0460 -0.0366
  761MOL0     C 4926   3.716   7.860   4.620 -0.3192  0.9486  0.1869
  761MOL0     C 4927   3.688   7.821   4.754  0.0256  0.1900 -0.4718
  761MOL0     O 4928   3.687   7.615   4.982  0.1141 -0.4670 -0.4387
  761MOL0     C 4929   3.601   7.627   5.244  0.0085 -0.7712  0.2147
  761MOL0     C 4930   3.566   7.639   5.386 -0.2810 -1.0607  1.1627
  761MOL0     N 4931   3.566   7.760   6.175  0.5644  0.0661  0.7693
  761MOL0     N 4932   3.559   7.780   6.304 -0.2404 -0.1829 -0.9515
  761MOL0     C 4933   2.653   7.796   7.170 -0.4681 -0.0943  1.3448
  761MOL0     C 4934   2.598   7.773   7.294 -0.9231 -0.5660 -0.3510
  761MOL0     C 4935   2.528   7.604   7.698  0.0943  0.3991 -0.2268
  761MOL0     C 4936   2.440   7.709   7.726  0.5236  0.2075 -0.4815
  761MOL0     C 4937   2.368   7.722   7.845 -0.7642  0.2307  0.2938
  761MOL0     C 4938   2.381   7.627   7.946 -0.1401  1.2754 -0.6423
  761MOL0     O 4939   2.310   7.640   8.065  0.2611 -0.0699  0.4437
  761MOL0     C 4940   2.298   7.530   8.151 -0.1652  0.1605  0.0706
  761MOL0     C 4941   2.173   7.546   8.238 -0.6208 -0.0233  1.0762
  761MOL0     C 4942   2.041   7.558   8.146 -0.2040  0.7929 -0.1148
  761MOL0     C 4943   1.958   7.660   8.218  0.3176 -0.1685 -0.2808
  761MOL0     C 4944   1.813   7.645   8.183 -0.6937  0.0642 -1.0147
  761MOL0     C 4945   1.696   7.634   8.160  0.3862  0.4955 -0.3211
  761MOL0     C 4946   2.482   7.528   7.930  0.4146 -0.3673  0.3577
  761MOL0     C 4947   2.553   7.516   7.811 -0.4349 -0.4999 -1.0633
  761MOL0     C 4948   2.626   7.381   7.784  0.0130  0.5128  0.4742
  761MOL0     H 4949   2.569   7.444   7.309  0.4930  2.0022  3.2691
  761MOL0     H 4950   2.702   7.470   7.075 -0.3839 -0.0265 -1.9738
  761MOL0     H 4951   2.649   7.579   6.835  0.7210 -0.6600 -2.5439
  761MOL0     H 4952   2.804   7.526   6.887 -2.5301 -0.3217  0.0807
  761MOL0     H 4953   2.788   7.627   6.639 -5.2648  1.8214  0.0885
  761MOL0     H 4954   2.788   7.778   6.716 -2.2055 -0.6039 -0.4751
  761MOL0     H 4955   2.992   7.687   6.867  0.8672  0.3119 -0.2737
  761MOL0     H 4956   3.020   7.577   6.729  1.2752  1.3534 -0.1464
  761MOL0     H 4957   3.064   7.756   6.574 -2.7333  1.1805 -1.0971
  761MOL0     H 4958   2.999   7.874   6.687 -1.3067 -0.9328  1.3040
  761MOL0     H 4959   3.182   7.816   6.839  0.2143  2.5592  0.6527
  761MOL0     H 4960   3.220   7.904   6.693  0.8003  0.4408  2.6473
  761MOL0     H 4961   3.392   7.719   6.740 -1.1723 -2.2190  1.8519
  761MOL0     H 4962   3.273   7.592   6.724  3.1318 -1.6842 -2.8941
  761MOL0     H 4963   3.227   7.672   6.486  0.9732 -1.9123  0.5138
  761MOL0     H 4964   3.382   7.603   6.493  0.5814  0.3002 -1.3824
  761MOL0     H 4965   3.315   7.898   6.477 -2.9521 -2.5979 -2.2913
  761MOL0     H 4966   3.474   7.847   6.545  0.4638  0.7786  0.2649
  761MOL0     H 4967   3.239   7.793   6.219 -0.7914  1.3820  3.3864
  761MOL0     H 4968   3.291   7.765   5.969 -1.1060 -0.1225  1.5947
  761MOL0     H 4969   3.345   7.616   5.998 -1.2433  0.4989  1.3771
  761MOL0     H 4970   3.593   7.711   5.922  0.1168 -3.9898  0.1344
  761MOL0     H 4971   3.476   7.622   5.826 -0.4869 -0.5757  0.6054
  761MOL0     H 4972   3.367   7.859   5.770  1.0824  0.2093 -2.2449
  761MOL0     H 4973   3.494   7.930   5.876 -0.3185 -0.5433  0.1910
  761MOL0     H 4974   3.536   7.955   5.626  0.3967  1.2161  0.5867
  761MOL0     H 4975   3.664   7.870   5.715  0.0012 -0.1383 -0.7946
  761MOL0     H 4976   3.685   7.944   5.460  2.3801 -1.7446  3.4203
  761MOL0     H 4977   3.889   7.936   5.208 -0.1596 -1.6361  0.9749
  761MOL0     H 4978   3.786   8.051   5.296  1.3094  0.7896 -1.2493
  761MOL0     H 4979   3.749   8.003   5.126  1.1196  0.8719 -0.7226
  761MOL0     H 4980   3.990   7.890   4.889 -0.7827  1.1576  0.6736
  761MOL0     H 4981   4.048   7.902   4.645  1.4541 -1.9625 -0.1187
  761MOL0     H 4982   3.859   7.708   4.406 -2.3639  0.0223  0.0184
  761MOL0     H 4983   3.749   7.836   4.325  0.1111  2.2431  1.8925
  761MOL0     H 4984   4.041   7.817   4.231 -0.4318  0.2762  2.9405
  761MOL0     H 4985   3.907   7.719   4.174  0.6220 -1.2253  1.8787
  761MOL0     H 4986   3.782   7.962   4.172  0.1632  2.1477  1.4808
  761MOL0     H 4987   3.885   7.928   4.037 -2.2198  1.9210 -0.0825
  761MOL0     H 4988   3.964   8.091   4.272  1.0700 -4.0852  1.2053
  761MOL0     H 4989   3.932   8.154   4.113  0.9924 -0.5873 -2.5261
  761MOL0     H 4990   4.162   7.972   4.138 -0.4662  0.0364 -0.2152
  761MOL0     H 4991   4.129   8.107   4.025  1.5890 -0.2252 -0.3194
  761MOL0     H 4992   4.162   8.136   4.333  1.3741  1.8889  0.8411
  761MOL0     H 4993   4.167   8.267   4.219 -0.1241  1.1194  2.3841
  761MOL0     H 4994   4.372   8.046   4.203 -0.8964 -0.4815  2.2316
  761MOL0     H 4995   4.394   8.176   4.304  1.0349 -0.5365  0.0759
  761MOL0     H 4996   4.352   8.347   4.096 -2.4449 -0.1835  1.6394
  761MOL0     H 4997   4.344   8.213   3.985  2.3733 -1.3795  0.3131
  761MOL0     H 4998   3.636   7.848   4.547  0.4087 -0.5977 -0.3988
  761MOL0     H 4999   3.589   7.795   4.790  0.2351 -2.4206 -1.5708
  761MOL0     H 5000   3.574   7.534   5.194  0.4571 -0.5822 -0.3801
  761MOL0     H 5001   3.518   7.555   5.434 -4.4863  0.0106 -0.7302
  761MOL0     H 5002   2.668   7.895   7.129 -0.8496 -1.3054 -2.0253
  761MOL0     H 5003   2.575   7.854   7.362 -0.2648  2.6145 -3.5900
  761MOL0     H 5004   2.424   7.780   7.645 -0.8094 -0.4212 -0.8024
  761MOL0     H 5005   2.286   7.791   7.860 -1.0229  0.4879 -1.9547
  761MOL0     H 5006   2.277   7.444   8.086 -1.3477  1.1292 -0.8717
  761MOL0     H 5007   2.383   7.524   8.221  1.8317  1.9167 -2.0572
  761MOL0     H 5008   2.188   7.632   8.303  1.5449 -1.0168  2.0032
  761MOL0     H 5009   2.156   7.464   8.309 -1.7386 -0.6630  0.1151
  761MOL0     H 5010   2.050   7.585   8.041 -1.7899 -0.4563 -0.6143
  761MOL0     H 5011   1.981   7.468   8.135 -2.3522  1.5573  3.4953
  761MOL0     H 5012   1.995   7.760   8.192  0.2968  0.4040  1.6982
  761MOL0     H 5013   1.944   7.638   8.324  0.4371 -0.9580 -0.4237
  761MOL0     H 5014   1.590   7.616   8.152  0.4544  0.3710 -0.9938
  761MOL0     H 5015   2.487   7.452   8.008 -0.2181  0.0642  0.8312
  761MOL0     H 5016   2.732   7.407   7.776  0.8198 -2.4614  0.2577
  761MOL0     H 5017   2.610   7.307   7.863  1.1433  0.3218  0.5500
  761MOL0     H 5018   2.592   7.343   7.687  0.1398  0.2258  0.5427
  762MOL0     O 5019   5.118   5.510   6.792 -0.0534  0.1154  0.0558
  762MOL0     C 5020   5.020   5.449   6.838 -0.9515 -0.6122  0.8537
  762MOL0     O 5021   4.918   5.504   6.905  0.2279  0.6334 -0.2041
  762MOL0     C 5022   4.926   5.632   6.941 -0.0785  0.2308 -0.1915
  762MOL0     C 5023   4.802   5.696   6.943  0.0835 -0.1233 -0.5896
  762MOL0     C 5024   4.792   5.831   6.985  0.0628 -0.0123 -0.5061
  762MOL0     C 5025   4.902   5.903   7.020  0.3038 -0.9384  0.1066
  762MOL0     O 5026   4.869   6.038   7.053 -0.6381  0.2185 -0.5928
  762MOL0     C 5027   4.976   6.136   7.062  0.1291 -0.2658 -0.3881
  762MOL0     C 5028   4.918   6.271   7.071  0.5418 -0.4961  0.5633
  762MOL0     C 5029   4.883   6.314   6.928  0.1703 -0.9039 -0.3165
  762MOL0     C 5030   4.782   6.437   6.928  0.2093  0.4316  0.0712
  762MOL0     C 5031   4.774   6.500   6.789  0.1170 -0.0533 -0.2669
  762MOL0     C 5032   4.710   6.413   6.675 -0.8294 -0.5985 -0.0752
  762MOL0     C 5033   4.755   6.450   6.530 -0.4857  0.6295 -0.3793
  762MOL0     C 5034   4.902   6.476   6.498 -0.6978 -0.2272  0.0130
  762MOL0     N 5035   4.993   6.378   6.541  0.3612 -0.8040  0.4566
  762MOL0     C 5036   4.985   6.249   6.498 -0.1866 -0.8515  0.1231
  762MOL0     C 5037   5.096   6.200   6.556 -0.5010 -0.1105 -0.3760
  762MOL0     C 5038   5.128   6.056   6.548 -0.3836  0.9274  0.4876
  762MOL0     C 5039   5.175   6.000   6.681 -0.4126 -0.4135  0.0311
  762MOL0     C 5040   5.185   5.848   6.668  0.7101 -0.3076  0.1013
  762MOL0     C 5041   5.302   5.800   6.580 -0.5934  0.9141  0.7677
  762MOL0     O 5042   5.420   5.827   6.671 -0.4020 -0.4906  0.7775
  762MOL0     C 5043   5.538   5.785   6.621  0.2179  0.4615 -0.4008
  762MOL0     C 5044   5.643   5.742   6.702  0.2759 -0.2273  0.1955
  762MOL0     C 5045   5.761   5.693   6.651 -0.1464 -0.1890  0.1738
  762MOL0     C 5046   5.873   5.671   6.760 -0.0109 -1.2141 -0.2325
  762MOL0     C 5047   5.783   5.705   6.508  0.0731  0.5519 -0.2864
  762MOL0     C 5048   5.910   5.674   6.443 -0.1694 -0.3117  0.4117
  762MOL0     O 5049   5.913   5.709   6.308 -0.0942 -0.2058  0.3294
  762MOL0     C 5050   5.990   5.643   6.217  0.1686 -0.5094 -0.5037
  762MOL0     C 5051   6.132   5.645   6.225  0.5695 -0.4749  0.3337
  762MOL0     C 5052   6.203   5.569   6.140 -0.3865  1.1776  0.9103
  762MOL0     C 5053   6.133   5.498   6.033  0.2508  0.7544 -0.0406
  762MOL0     O 5054   6.200   5.421   5.939 -0.0962  0.7414  0.0072
  762MOL0     C 5055   6.335   5.386   5.971  0.8659 -0.2224 -0.3788
  762MOL0     C 5056   6.415   5.299   5.876  0.5043 -0.1652  0.8630
  762MOL0     C 5057   6.425   5.344   5.725 -0.6690  0.9193 -0.2511
  762MOL0     C 5058   6.510   5.254   5.624  1.0028  0.4917  0.0993
  762MOL0     C 5059   6.647   5.219   5.673  0.2930  0.5079  0.7143
  762MOL0     C 5060   6.711   5.118   5.583  0.1993 -0.1418  0.1268
  762MOL0     C 5061   6.666   4.969   5.591 -0.4003 -0.0498  0.8321
  762MOL0     C 5062   6.776   4.886   5.509 -0.3478  0.0515 -0.3318
  762MOL0    Cl 5063   6.772   4.932   5.325  0.7623 -0.0146 -0.4400
  762MOL0     C 5064   5.994   5.497   6.027  0.3456 -0.0383 -0.2391
  762MOL0     C 5065   5.928   5.575   6.119  0.7480  0.8381 -0.0956
  762MOL0     O 5066   5.996   5.604   6.498  0.3821  0.0287  0.3377
  762MOL0     C 5067   5.675   5.734   6.422 -0.4781  1.0221 -0.2530
  762MOL0     C 5068   5.561   5.774   6.480 -0.6472 -0.7329  0.0007
  762MOL0     N 5069   5.161   6.299   6.636 -0.1191  0.6767  1.5435
  762MOL0     N 5070   5.089   6.401   6.632  0.0781 -0.3941  0.1618
  762MOL0     C 5071   5.026   5.838   7.039  0.5653  0.9551 -0.1921
  762MOL0     C 5072   5.037   5.706   6.990  0.3347  0.4191  0.0130
  762MOL0     C 5073   5.010   5.309   6.809  0.1049  0.6903 -0.1518
  762MOL0     C 5074   4.913   5.231   6.882 -0.0332 -0.2118  0.2891
  762MOL0     C 5075   4.900   5.094   6.865 -0.6228  0.3084  0.7436
  762MOL0     C 5076   4.973   5.022   6.769  0.9432  0.5107  0.4105
  762MOL0     O 5077   4.967   4.886   6.754  0.4711  0.2713 -0.7577
  762MOL0     C 5078   4.846   4.802   6.787 -0.5054 -0.9124  0.1085
  762MOL0     C 5079   4.875   4.659   6.765 -0.0820  0.1587  0.0467
  762MOL0     C 5080   5.000   4.617   6.841 -0.3553  0.7258 -0.9430
  762MOL0     C 5081   5.045   4.465   6.822 -0.2149 -0.1853  1.2658
  762MOL0     C 5082   4.944   4.386   6.884  0.7729 -0.5694 -0.7919
  762MOL0     C 5083   4.845   4.338   6.926 -0.3474  0.7153  0.2350
  762MOL0     C 5084   5.062   5.096   6.692 -0.6795 -0.9356 -0.6654
  762MOL0     C 5085   5.089   5.235   6.716 -0.0186 -0.0047  0.8756
  762MOL0     C 5086   5.192   5.299   6.624  0.4280 -0.3206  0.3195
  762MOL0     H 5087   4.712   5.638   6.925  0.4333 -0.2706 -1.9596
  762MOL0     H 5088   4.691   5.868   6.978 -0.8690 -1.9717  1.4253
  762MOL0     H 5089   5.047   6.128   6.979 -2.4211 -0.8506 -2.6524
  762MOL0     H 5090   5.038   6.112   7.149 -0.2340 -0.3772 -0.1623
  762MOL0     H 5091   4.826   6.275   7.130  1.0070  2.1913  1.2563
  762MOL0     H 5092   4.983   6.340   7.125  0.3119 -1.0043  1.5139
  762MOL0     H 5093   4.977   6.348   6.885  1.0452 -1.2659  1.2445
  762MOL0     H 5094   4.849   6.238   6.856  2.7336 -1.4987 -0.9883
  762MOL0     H 5095   4.688   6.401   6.969  0.9433  1.8776  3.4025
  762MOL0     H 5096   4.820   6.510   7.001  2.5108  1.1761 -1.7620
  762MOL0     H 5097   4.877   6.517   6.756  0.2037 -2.9234 -1.7973
  762MOL0     H 5098   4.719   6.591   6.817 -1.6865 -1.1897  0.0473
  762MOL0     H 5099   4.736   6.308   6.694  0.7537 -0.8592 -3.1015
  762MOL0     H 5100   4.601   6.409   6.689 -0.7397 -3.5623  0.4805
  762MOL0     H 5101   4.692   6.536   6.504  0.0026  0.6987 -1.3808
  762MOL0     H 5102   4.719   6.369   6.466 -0.4686  1.0553 -0.9394
  762MOL0     H 5103   4.908   6.498   6.391  0.9919  2.8186  0.6413
  762MOL0     H 5104   4.925   6.575   6.537  1.7598  0.0820 -1.9209
  762MOL0     H 5105   4.917   6.198   6.431  0.1349  1.4590 -2.1189
  762MOL0     H 5106   5.199   6.045   6.465  0.6817 -1.8044  1.6166
  762MOL0     H 5107   5.039   6.001   6.518  1.5301 -2.9449  1.2997
  762MOL0     H 5108   5.266   6.042   6.725 -1.4879  0.8767  1.0979
  762MOL0     H 5109   5.091   6.029   6.744 -0.4880 -0.4921 -0.0330
  762MOL0     H 5110   5.197   5.813   6.770 -1.5934 -3.4000 -0.5563
  762MOL0     H 5111   5.092   5.809   6.626  0.5662  1.7415 -1.6767
  762MOL0     H 5112   5.299   5.695   6.548 -0.2527  1.1585 -0.0988
  762MOL0     H 5113   5.314   5.867   6.494 -0.1885  3.0371  2.4187
  762MOL0     H 5114   5.618   5.739   6.807 -0.7541 -1.3595 -0.0582
  762MOL0     H 5115   5.949   5.750   6.764  1.0651 -2.2373  0.0603
  762MOL0     H 5116   5.928   5.580   6.733  2.1213  0.0783 -0.4390
  762MOL0     H 5117   5.827   5.660   6.859 -0.6464  2.5583  0.0342
  762MOL0     H 5118   6.174   5.700   6.309 -2.2064  0.9715  0.8779
  762MOL0     H 5119   6.311   5.574   6.154 -0.2103 -1.0050  0.6669
  762MOL0     H 5120   6.386   5.482   5.986 -0.0856  0.1926  0.3193
  762MOL0     H 5121   6.330   5.327   6.063  2.0198  1.3218  0.7331
  762MOL0     H 5122   6.511   5.280   5.925 -0.5507 -1.7818  2.4268
  762MOL0     H 5123   6.363   5.203   5.884  0.0894  0.1219  1.8682
  762MOL0     H 5124   6.478   5.440   5.723 -1.8800  1.6061 -1.5703
  762MOL0     H 5125   6.326   5.361   5.680 -0.8539  1.3490  0.3099
  762MOL0     H 5126   6.519   5.318   5.535 -0.2450  4.5409  2.5982
  762MOL0     H 5127   6.462   5.159   5.599  1.3574 -0.1756  1.8362
  762MOL0     H 5128   6.709   5.309   5.681  0.9002  0.1873 -0.1612
  762MOL0     H 5129   6.635   5.174   5.772 -2.5615  0.4871  0.4538
  762MOL0     H 5130   6.817   5.106   5.606  0.1683 -2.1647 -0.5306
  762MOL0     H 5131   6.699   5.154   5.480  1.9212  0.6719  0.1785
  762MOL0     H 5132   6.563   4.960   5.558  0.1546  0.9882 -1.3668
  762MOL0     H 5133   6.663   4.944   5.697  1.4892 -0.5570  0.8157
  762MOL0     H 5134   6.764   4.780   5.532 -0.1659  0.5300  2.1782
  762MOL0     H 5135   6.872   4.919   5.549  0.3433 -1.9408 -0.2293
  762MOL0     H 5136   5.946   5.437   5.951  2.0463  0.3566 -1.6896
  762MOL0     H 5137   5.819   5.580   6.120  0.6764 -0.3876 -0.2156
  762MOL0     H 5138   5.693   5.712   6.317  0.4992  2.9668 -0.5196
  762MOL0     H 5139   5.481   5.804   6.412  1.4126  0.7281 -1.9399
  762MOL0     H 5140   5.116   5.881   7.082  2.1646 -1.8835 -0.4836
  762MOL0     H 5141   5.133   5.657   6.998  0.2599  0.5295  3.2069
  762MOL0     H 5142   4.846   5.268   6.960  1.5780  2.5019  0.5098
  762MOL0     H 5143   4.823   5.039   6.919  1.5341 -1.6105  2.0502
  762MOL0     H 5144   4.820   4.812   6.893  0.4636 -1.0108  0.3720
  762MOL0     H 5145   4.761   4.842   6.730 -0.2249  0.7184  0.7597
  762MOL0     H 5146   4.892   4.645   6.657  0.6574  1.7002 -0.0637
  762MOL0     H 5147   4.788   4.600   6.795 -2.2098  3.2167  0.3359
  762MOL0     H 5148   5.080   4.688   6.819 -0.2054  1.2538  1.1034
  762MOL0     H 5149   4.983   4.625   6.949  0.4335  0.4885 -0.7928
  762MOL0     H 5150   5.140   4.456   6.876  0.9030 -1.0303 -0.7449
  762MOL0     H 5151   5.053   4.436   6.717 -1.0764  1.0401  0.8504
  762MOL0     H 5152   4.749   4.308   6.963  0.2487  0.3765  1.5742
  762MOL0     H 5153   5.125   5.043   6.622  0.6261  0.7357 -0.8456
  762MOL0     H 5154   5.164   5.400   6.594  1.1341  0.3877  1.9733
  762MOL0     H 5155   5.288   5.317   6.673 -0.4522  0.5269  1.8028
  762MOL0     H 5156   5.214   5.243   6.532 -0.0736  1.3740 -0.8844
  763MOL0     O 5157   0.103   7.432   3.415 -0.3712 -0.4280 -0.3105
  763MOL0     C 5158  -0.008   7.470   3.447 -0.7632 -0.0991  0.7614
  763MOL0     O 5159  -0.034   7.584   3.516 -0.3035  0.1609  0.0743
  763MOL0     C 5160   0.077   7.643   3.564  0.5155  0.0385  0.7082
  763MOL0     C 5161   0.167   7.714   3.488 -0.4691 -0.2859  0.5109
  763MOL0     C 5162   0.274   7.777   3.541 -0.1374 -1.4153  0.0311
  763MOL0     C 5163   0.297   7.776   3.690  1.3866  0.3255 -0.3517
  763MOL0     O 5164   0.400   7.854   3.739  0.5537  0.1613  0.5040
  763MOL0     C 5165   0.431   7.862   3.880 -0.1396 -0.6203  0.2892
  763MOL0     C 5166   0.521   7.982   3.918  0.1379  0.2696  0.5945
  763MOL0     C 5167   0.607   8.025   3.796 -0.4952  0.8788 -0.5263
  763MOL0     C 5168   0.713   8.127   3.836 -0.4443 -0.4304  0.2218
  763MOL0     C 5169   0.800   8.174   3.716  0.4660 -0.0332 -0.0179
  763MOL0     C 5170   0.900   8.273   3.766  0.1727  0.2603  0.0194
  763MOL0     C 5171   0.997   8.315   3.662 -0.0262 -0.3165  0.0171
  763MOL0     C 5172   1.090   8.444   3.695 -0.1707  0.9275 -0.1920
  763MOL0     N 5173   1.173   8.416   3.817  0.2277 -0.2558 -0.0468
  763MOL0     C 5174   1.151   8.457   3.947  0.9098 -0.2636  0.0036
  763MOL0     C 5175   1.224   8.370   4.031  0.0548  0.1019 -0.1565
  763MOL0     C 5176   1.219   8.371   4.178 -0.0550 -0.2471  0.0973
  763MOL0     C 5177   1.339   8.292   4.241 -0.8757  0.0428 -0.6400
  763MOL0     C 5178   1.465   8.363   4.267 -0.3578  0.2143  0.5064
  763MOL0     C 5179   1.569   8.274   4.332 -0.7440 -0.1017 -0.4226
  763MOL0     O 5180   1.518   8.168   4.405  0.1723 -0.1614  0.0165
  763MOL0     C 5181   1.605   8.065   4.440 -0.0657  0.1285 -0.1963
  763MOL0     C 5182   1.582   7.938   4.395  0.0351  0.3760  0.7823
  763MOL0     C 5183   1.660   7.829   4.441 -0.2388 -0.4543  0.2515
  763MOL0     C 5184   1.646   7.696   4.368 -0.8638 -1.3762 -0.0056
  763MOL0     C 5185   1.765   7.848   4.541  0.7212 -0.4432  1.1717
  763MOL0     C 5186   1.837   7.734   4.608  0.5009 -0.1729  0.7638
  763MOL0     O 5187   1.922   7.777   4.712 -0.7826  1.1612  0.1337
  763MOL0     C 5188   2.000   7.699   4.795 -0.4848  0.3361  0.4785
  763MOL0     C 5189   2.120   7.760   4.822  0.9562 -0.2194  0.2647
  763MOL0     C 5190   2.212   7.692   4.906 -0.5950  0.5663  0.1484
  763MOL0     C 5191   2.176   7.572   4.969 -0.9908 -0.7991  0.1591
  763MOL0     O 5192   2.276   7.503   5.040 -0.5288 -0.9533  0.5880
  763MOL0     C 5193   2.244   7.376   5.089 -0.3361  0.7629 -0.6087
  763MOL0     C 5194   2.171   7.372   5.226 -0.1402  0.2762  0.4117
  763MOL0     C 5195   2.196   7.232   5.296  0.3246 -0.6350  0.2250
  763MOL0     C 5196   2.120   7.122   5.223 -0.7226  0.2665 -0.0185
  763MOL0     C 5197   2.143   6.995   5.303  0.0427  0.4833 -0.0641
  763MOL0     C 5198   2.091   6.878   5.214  0.2358  0.3450 -0.3430
  763MOL0     C 5199   2.112   6.744   5.297 -0.6087 -0.5636 -0.2051
  763MOL0     C 5200   2.063   6.631   5.214 -0.1246 -0.2920  0.3814
  763MOL0    Cl 5201   1.900   6.660   5.142  0.2062 -0.1864  0.1034
  763MOL0     C 5202   2.051   7.516   4.945 -0.0910  0.4005  0.6498
  763MOL0     C 5203   1.960   7.585   4.860 -0.4293 -0.2286  0.3700
  763MOL0     O 5204   1.805   7.620   4.586  0.0460 -0.4721 -0.1963
  763MOL0     C 5205   1.785   7.983   4.579  0.4853 -0.9228  0.4283
  763MOL0     C 5206   1.702   8.083   4.542 -0.0900 -0.3170 -0.7055
  763MOL0     N 5207   1.283   8.273   3.944  0.6306 -0.1943 -0.2392
  763MOL0     N 5208   1.263   8.314   3.825  0.0877 -0.7439  0.4003
  763MOL0     C 5209   0.201   7.701   3.766 -0.6503 -0.5247  0.3696
  763MOL0     C 5210   0.097   7.631   3.703 -0.4272 -0.1119  0.0272
  763MOL0     C 5211  -0.122   7.404   3.385  0.6432 -0.2000  0.8448
  763MOL0     C 5212  -0.246   7.469   3.399  1.2074  0.7034 -0.1754
  763MOL0     C 5213  -0.367   7.419   3.357  0.2425  0.1136 -0.1415
  763MOL0     C 5214  -0.373   7.294   3.295 -0.4548  0.6192 -0.2750
  763MOL0     O 5215  -0.498   7.234   3.264 -0.2496 -0.0859  1.3632
  763MOL0     C 5216  -0.619   7.307   3.219 -0.1734 -0.2564 -0.5310
  763MOL0     C 5217  -0.606   7.345   3.069  0.0308  0.1480 -0.1288
  763MOL0     C 5218  -0.727   7.426   3.017  0.9348  0.0378 -0.1862
  763MOL0     C 5219  -0.715   7.444   2.868 -0.2494  0.6514 -0.1941
  763MOL0     C 5220  -0.600   7.526   2.831  0.1233  0.6425  0.4669
  763MOL0     C 5221  -0.501   7.581   2.796 -0.4553  0.4031 -1.1156
  763MOL0     C 5222  -0.251   7.229   3.267  0.6270 -0.7155 -0.0032
  763MOL0     C 5223  -0.124   7.281   3.307  0.5619 -0.3351  0.0691
  763MOL0     C 5224  -0.008   7.194   3.264  0.0292  0.2402 -0.6260
  763MOL0     H 5225   0.158   7.709   3.380 -1.5091 -0.7100  0.6028
  763MOL0     H 5226   0.335   7.849   3.487 -1.8103  1.5858  1.8622
  763MOL0     H 5227   0.483   7.769   3.905  2.9344  0.9269  0.1259
  763MOL0     H 5228   0.342   7.866   3.943  0.6588 -1.3578  1.5011
  763MOL0     H 5229   0.446   8.060   3.935 -4.6705 -3.2665 -1.7824
  763MOL0     H 5230   0.584   7.959   4.004  1.9905  2.5000 -0.0717
  763MOL0     H 5231   0.660   7.934   3.765 -1.7635  0.2815 -1.0053
  763MOL0     H 5232   0.556   8.069   3.710  0.9084 -0.3963 -2.0960
  763MOL0     H 5233   0.661   8.216   3.873 -1.2614 -1.3233  1.2628
  763MOL0     H 5234   0.779   8.089   3.915 -1.9513 -0.2781  1.5921
  763MOL0     H 5235   0.741   8.207   3.630 -1.9017 -0.9407  1.1697
  763MOL0     H 5236   0.855   8.085   3.685  0.2108  0.0596 -0.7510
  763MOL0     H 5237   0.842   8.362   3.790 -1.1452  0.1266 -2.4309
  763MOL0     H 5238   0.949   8.239   3.858  3.4472  0.3243 -1.5525
  763MOL0     H 5239   0.949   8.342   3.567 -0.6959 -0.8162  0.2082
  763MOL0     H 5240   1.057   8.229   3.629  0.0814  0.0257 -0.6893
  763MOL0     H 5241   1.160   8.445   3.610  1.3407  0.0617  0.9958
  763MOL0     H 5242   1.023   8.530   3.701 -2.0869 -0.5778  1.4331
  763MOL0     H 5243   1.089   8.542   3.972  1.2957 -0.3296  1.2504
  763MOL0     H 5244   1.129   8.315   4.207 -0.9835  0.4580 -1.3117
  763MOL0     H 5245   1.213   8.473   4.218  0.2927 -0.2758  0.2325
  763MOL0     H 5246   1.303   8.267   4.341  0.4151  3.5909  0.8716
  763MOL0     H 5247   1.361   8.198   4.189 -0.8654  0.2474 -1.0103
  763MOL0     H 5248   1.510   8.411   4.179 -2.0583  1.8424  0.4568
  763MOL0     H 5249   1.447   8.451   4.330 -3.1299 -0.4817  0.8053
  763MOL0     H 5250   1.631   8.237   4.249  0.3301  1.6721 -0.4599
  763MOL0     H 5251   1.630   8.333   4.401  1.2953  0.8650 -2.9006
  763MOL0     H 5252   1.506   7.918   4.321  0.3268  1.7013  0.0951
  763MOL0     H 5253   1.580   7.718   4.284 -0.3821  1.1084  0.1863
  763MOL0     H 5254   1.607   7.633   4.447 -0.4227 -1.8681 -0.1743
  763MOL0     H 5255   1.747   7.670   4.334 -0.9095 -2.1342  0.4341
  763MOL0     H 5256   2.158   7.847   4.771  0.4344 -0.5283 -0.6659
  763MOL0     H 5257   2.308   7.743   4.917  0.2261 -0.8887  0.0447
  763MOL0     H 5258   2.203   7.315   5.008  1.1615 -2.8776  1.1384
  763MOL0     H 5259   2.340   7.327   5.104  0.1059  1.6804 -0.3324
  763MOL0     H 5260   2.200   7.456   5.289  1.0321  1.3196 -1.4216
  763MOL0     H 5261   2.065   7.394   5.208  0.0474 -0.4244 -1.9488
  763MOL0     H 5262   2.155   7.234   5.398  0.6636 -0.5449  0.3593
  763MOL0     H 5263   2.301   7.204   5.299  0.8365  0.7804 -2.0413
  763MOL0     H 5264   2.160   7.103   5.123  1.8599 -1.6486  1.2605
  763MOL0     H 5265   2.017   7.153   5.204 -0.2591  1.3359 -0.9277
  763MOL0     H 5266   2.250   6.978   5.315  0.2600  1.3787 -0.6437
  763MOL0     H 5267   2.100   7.002   5.404 -0.7515  1.7542 -0.4654
  763MOL0     H 5268   2.155   6.874   5.125  1.0581 -2.5031  0.2613
  763MOL0     H 5269   1.989   6.894   5.180 -0.3425 -2.2626 -0.0467
  763MOL0     H 5270   2.069   6.751   5.397  0.0699  2.1368 -0.0340
  763MOL0     H 5271   2.219   6.727   5.316 -0.3723 -0.8405 -1.6659
  763MOL0     H 5272   2.053   6.542   5.276  2.5568 -0.7572  0.2650
  763MOL0     H 5273   2.138   6.600   5.140  1.2050 -0.9134  1.9351
  763MOL0     H 5274   2.013   7.434   5.005  2.6571 -0.5945  1.1781
  763MOL0     H 5275   1.864   7.538   4.841  1.4029 -4.8577  1.1335
  763MOL0     H 5276   1.879   8.014   4.624 -0.7291  2.6980  0.7489
  763MOL0     H 5277   1.735   8.185   4.561 -0.5906  0.1402 -2.1326
  763MOL0     H 5278   0.207   7.699   3.875 -3.5101  1.7951  0.7177
  763MOL0     H 5279   0.035   7.577   3.774 -2.2761  1.2819 -0.4542
  763MOL0     H 5280  -0.255   7.564   3.451 -1.2287 -0.3191  1.4352
  763MOL0     H 5281  -0.457   7.479   3.361 -0.2403 -0.5009  4.5672
  763MOL0     H 5282  -0.702   7.235   3.222 -2.2121  1.9330 -1.2689
  763MOL0     H 5283  -0.644   7.391   3.284 -1.6278  1.1337 -2.7493
  763MOL0     H 5284  -0.587   7.251   3.017  0.5016  0.0105  0.2802
  763MOL0     H 5285  -0.515   7.404   3.059 -0.9729  1.3548 -3.4485
  763MOL0     H 5286  -0.816   7.372   3.050  0.7519 -0.2812 -1.1498
  763MOL0     H 5287  -0.716   7.519   3.072 -0.7158 -2.2921  4.6288
  763MOL0     H 5288  -0.803   7.487   2.820 -1.5462  0.0975  1.5787
  763MOL0     H 5289  -0.701   7.349   2.815 -0.4428  0.2545  0.4467
  763MOL0     H 5290  -0.403   7.624   2.791  1.3966 -3.2664 -0.3789
  763MOL0     H 5291  -0.246   7.131   3.221  0.7220 -0.4945 -0.4642
  763MOL0     H 5292   0.080   7.259   3.254  0.5085  0.2095  2.3102
  763MOL0     H 5293   0.009   7.132   3.352 -0.8070 -0.4008 -0.9091
  763MOL0     H 5294  -0.033   7.126   3.183  0.3283 -0.2490 -0.3110
  764MOL0     O 5295   9.695   3.374   1.296  0.2382  0.3718 -0.0990
  764MOL0     C 5296   9.684   3.286   1.208  0.0068  0.3284  0.5564
  764MOL0     O 5297   9.789   3.233   1.139 -0.3708 -0.5680  0.2959
  764MOL0     C 5298   9.913   3.270   1.180  0.5600  0.4359 -0.1569
  764MOL0     C 5299   9.966   3.201   1.281  0.0890 -0.0954 -0.9101
  764MOL0     C 5300  10.087   3.236   1.351  0.0751 -0.5983 -0.1691
  764MOL0     C 5301  10.162   3.344   1.303  0.9279 -0.0715 -0.3381
  764MOL0     O 5302  10.279   3.380   1.360  0.9465  1.3069  0.8870
  764MOL0     C 5303  10.381   3.281   1.383  0.7618 -0.0602 -0.1147
  764MOL0     C 5304  10.481   3.256   1.268 -0.3455  0.0847  0.0437
  764MOL0     C 5305  10.563   3.382   1.217  0.3360 -0.5049  1.0244
  764MOL0     C 5306  10.489   3.451   1.099 -0.4860 -0.4516 -0.3708
  764MOL0     C 5307  10.554   3.582   1.050 -0.3039  0.4546  0.7414
  764MOL0     C 5308  10.450   3.677   0.984  0.0259 -0.3333 -0.1745
  764MOL0     C 5309  10.525   3.809   0.916 -0.8844  0.3416 -0.2302
  764MOL0     C 5310  10.589   3.893   1.017  0.1779 -0.4511 -0.0467
  764MOL0     N 5311  10.636   4.019   0.964 -0.1109  0.4174  0.7089
  764MOL0     C 5312  10.554   4.126   0.948 -0.1908 -0.5277 -0.5194
  764MOL0     C 5313  10.637   4.227   0.897 -0.3774  0.6659 -1.5191
  764MOL0     C 5314  10.589   4.367   0.855 -0.1787 -0.2080 -0.1490
  764MOL0     C 5315  10.549   4.459   0.969 -0.1436  0.2158 -0.3468
  764MOL0     C 5316  10.519   4.602   0.926  0.1290 -1.1903  0.1679
  764MOL0     C 5317  10.647   4.682   0.874 -0.3145 -0.1861 -0.4934
  764MOL0     O 5318  10.752   4.713   0.974  0.0743  0.6200  0.1464
  764MOL0     C 5319  10.853   4.801   0.938 -0.0697 -0.2593 -0.4540
  764MOL0     C 5320  10.861   4.886   0.824  0.6357 -0.4491 -0.7077
  764MOL0     C 5321  10.962   4.984   0.812  0.3500 -0.0714 -0.8069
  764MOL0     C 5322  10.951   5.064   0.688  0.2069 -0.6193 -0.3719
  764MOL0     C 5323  11.066   4.988   0.915  0.0465 -0.1299 -0.1710
  764MOL0     C 5324  11.179   5.084   0.905 -0.1895  0.2252 -0.3384
  764MOL0     O 5325  11.269   5.083   1.012 -0.1723 -0.1225 -0.4397
  764MOL0     C 5326  11.351   5.190   1.034 -0.2095  0.6081  0.5142
  764MOL0     C 5327  11.481   5.162   1.066  0.5074 -0.6793  0.7156
  764MOL0     C 5328  11.565   5.268   1.102 -0.1329 -0.3329  0.4446
  764MOL0     C 5329  11.528   5.403   1.092  0.5651  0.2972 -0.1207
  764MOL0     O 5330  11.630   5.500   1.104  0.6845 -0.3135  0.2626
  764MOL0     C 5331  11.603   5.642   1.082  0.5959 -0.1473 -0.4082
  764MOL0     C 5332  11.565   5.673   0.939  0.0147 -0.0217 -0.4430
  764MOL0     C 5333  11.695   5.728   0.866  0.9686  0.7727 -0.1366
  764MOL0     C 5334  11.666   5.768   0.725  0.3355 -0.0905  0.6685
  764MOL0     C 5335  11.726   5.909   0.690  0.3218 -0.1039  1.0032
  764MOL0     C 5336  11.876   5.911   0.697  0.5195 -0.4684 -0.0409
  764MOL0     C 5337  11.938   5.815   0.596 -0.4874  0.7960  0.8170
  764MOL0     C 5338  12.082   5.850   0.563  0.3793  0.0175 -0.7958
  764MOL0    Cl 5339  12.184   5.851   0.703 -0.1035 -0.2078 -0.2932
  764MOL0     C 5340  11.393   5.436   1.059 -0.4396  0.4474  0.4142
  764MOL0     C 5341  11.308   5.328   1.027 -0.1079  0.4150  0.1167
  764MOL0     O 5342  11.165   5.181   0.824  0.2014 -0.1592 -0.4726
  764MOL0     C 5343  11.060   4.891   1.020  0.0152  0.0236 -0.4158
  764MOL0     C 5344  10.956   4.803   1.032 -0.3375 -0.3899  0.1657
  764MOL0     N 5345  10.759   4.174   0.870  0.1223  1.4872 -0.4387
  764MOL0     N 5346  10.761   4.051   0.917 -0.6964  0.8791  0.3091
  764MOL0     C 5347  10.103   3.415   1.197  0.3597 -0.1049  0.5328
  764MOL0     C 5348   9.984   3.385   1.131 -0.7083  1.2404  0.0554
  764MOL0     C 5349   9.551   3.254   1.169  0.8430 -0.4283  0.4657
  764MOL0     C 5350   9.465   3.366   1.144 -0.3117  0.5029 -0.5183
  764MOL0     C 5351   9.334   3.351   1.097  0.4497 -0.4808 -0.1899
  764MOL0     C 5352   9.282   3.226   1.076  0.7037 -0.2614 -0.2179
  764MOL0     O 5353   9.154   3.201   1.026  0.7035  0.1715  0.2053
  764MOL0     C 5354   9.081   3.304   0.952  1.4309  0.2213 -0.0415
  764MOL0     C 5355   8.957   3.234   0.891 -0.4438 -0.0338  0.7387
  764MOL0     C 5356   8.907   3.316   0.772 -0.7810 -0.2713 -0.7339
  764MOL0     C 5357   8.772   3.268   0.723  0.9293 -0.1234  0.1162
  764MOL0     C 5358   8.780   3.157   0.634 -0.1324 -1.4440 -0.1490
  764MOL0     C 5359   8.802   3.068   0.559  0.6756  0.0619  0.2275
  764MOL0     C 5360   9.350   3.113   1.120 -0.8137  0.6540  0.1498
  764MOL0     C 5361   9.488   3.126   1.166 -0.5057  0.1194 -1.4043
  764MOL0     C 5362   9.575   3.001   1.180  0.0808 -0.4213 -0.1865
  764MOL0     H 5363   9.902   3.130   1.333  1.1084 -1.5735 -1.6090
  764MOL0     H 5364  10.115   3.171   1.434 -0.1233 -1.1640 -0.5396
  764MOL0     H 5365  10.330   3.191   1.420  3.7848 -1.1298  1.8363
  764MOL0     H 5366  10.443   3.313   1.467  1.9377  0.8016 -1.2717
  764MOL0     H 5367  10.548   3.171   1.287 -1.5643 -0.2856  3.5953
  764MOL0     H 5368  10.430   3.233   1.174  1.6810  2.7385 -1.8538
  764MOL0     H 5369  10.561   3.452   1.301  0.9259  0.7818  0.0033
  764MOL0     H 5370  10.670   3.364   1.201  0.7437  2.5624 -0.3324
  764MOL0     H 5371  10.491   3.376   1.019 -2.0564 -1.5768  0.5860
  764MOL0     H 5372  10.382   3.459   1.119 -0.1231 -0.9675  2.1524
  764MOL0     H 5373  10.630   3.542   0.982 -0.5102 -0.7573  1.1911
  764MOL0     H 5374  10.609   3.646   1.120  1.9545  1.9736 -2.2185
  764MOL0     H 5375  10.404   3.618   0.905 -1.4969  2.1885 -1.2983
  764MOL0     H 5376  10.371   3.713   1.050  0.5725 -0.7378  0.7144
  764MOL0     H 5377  10.453   3.879   0.873  1.4024  3.6457  0.8923
  764MOL0     H 5378  10.593   3.775   0.837  1.5393  1.4627  1.2593
  764MOL0     H 5379  10.520   3.907   1.100  0.9272 -0.3269  0.5711
  764MOL0     H 5380  10.680   3.847   1.058  1.8156 -0.4980 -3.3650
  764MOL0     H 5381  10.449   4.122   0.974 -0.3080 -3.0486 -1.0547
  764MOL0     H 5382  10.510   4.358   0.780 -0.9450 -0.6640  0.7029
  764MOL0     H 5383  10.681   4.404   0.808 -1.3109  1.4533 -1.1467
  764MOL0     H 5384  10.454   4.423   1.011  0.6723  1.6642  3.1035
  764MOL0     H 5385  10.624   4.456   1.049 -2.0347  1.2571  1.5524
  764MOL0     H 5386  10.438   4.610   0.853 -2.9590 -3.8967  2.9422
  764MOL0     H 5387  10.483   4.654   1.015  2.0095  0.3135  0.1222
  764MOL0     H 5388  10.696   4.637   0.787 -1.0616 -0.3189 -0.8524
  764MOL0     H 5389  10.597   4.774   0.842 -1.1964 -0.5452 -0.1872
  764MOL0     H 5390  10.775   4.873   0.758  0.1949  1.7653 -0.6290
  764MOL0     H 5391  10.878   5.021   0.618  0.8039 -1.8836 -0.2433
  764MOL0     H 5392  11.046   5.066   0.635  2.9722 -0.5262  4.0882
  764MOL0     H 5393  10.929   5.170   0.706  3.2114  0.1820 -0.9656
  764MOL0     H 5394  11.520   5.061   1.056 -1.2865 -1.2706 -0.7695
  764MOL0     H 5395  11.669   5.252   1.130  0.1438 -0.3006 -0.5288
  764MOL0     H 5396  11.526   5.676   1.152  1.0287  2.7956 -1.2076
  764MOL0     H 5397  11.690   5.703   1.109  1.9569 -1.8735 -0.7155
  764MOL0     H 5398  11.529   5.586   0.884  0.4012  0.3193 -1.2537
  764MOL0     H 5399  11.485   5.747   0.933 -0.4362 -0.5920 -1.5882
  764MOL0     H 5400  11.766   5.647   0.886 -2.1477 -2.4038 -0.9814
  764MOL0     H 5401  11.724   5.819   0.919  0.8963  1.7516 -1.7212
  764MOL0     H 5402  11.558   5.765   0.710  0.3107  0.2339  0.7659
  764MOL0     H 5403  11.709   5.690   0.661  1.9176  0.4292  1.0537
  764MOL0     H 5404  11.713   5.936   0.585  3.9602  0.6260  0.5944
  764MOL0     H 5405  11.684   5.992   0.749 -1.1185  0.5163 -0.8154
  764MOL0     H 5406  11.901   5.904   0.803 -2.1356  2.0838  0.8811
  764MOL0     H 5407  11.915   6.011   0.678  2.9169 -1.2682  0.3206
  764MOL0     H 5408  11.884   5.823   0.501 -1.1852  0.7410  1.2024
  764MOL0     H 5409  11.925   5.708   0.619  2.4177  0.5539  1.8220
  764MOL0     H 5410  12.091   5.946   0.512  0.2041  0.6841  0.3891
  764MOL0     H 5411  12.122   5.780   0.489 -3.4412 -0.7827 -2.3562
  764MOL0     H 5412  11.362   5.540   1.060 -2.5817 -0.1453  0.4864
  764MOL0     H 5413  11.207   5.344   0.991 -0.1378  0.3664  0.1826
  764MOL0     H 5414  11.138   4.901   1.093 -0.9168 -0.2533  0.6431
  764MOL0     H 5415  10.941   4.746   1.123 -0.7234  0.5237  0.6891
  764MOL0     H 5416  10.156   3.494   1.145  1.1677  0.1455  1.7011
  764MOL0     H 5417   9.945   3.435   1.043 -3.1934  2.2270  1.6103
  764MOL0     H 5418   9.505   3.467   1.154  1.9730 -0.4433  0.7406
  764MOL0     H 5419   9.294   3.444   1.059  1.7025  0.1420 -0.0489
  764MOL0     H 5420   9.041   3.375   1.026 -1.1759 -0.2993 -0.8504
  764MOL0     H 5421   9.143   3.354   0.878 -0.1379  0.0179 -1.5434
  764MOL0     H 5422   8.874   3.233   0.962 -0.4105  1.9252  0.8534
  764MOL0     H 5423   8.980   3.128   0.873  1.9691  0.1747  2.1455
  764MOL0     H 5424   8.890   3.416   0.813 -0.1794 -0.4288 -0.0886
  764MOL0     H 5425   8.980   3.317   0.691  0.1422 -0.2193  0.0848
  764MOL0     H 5426   8.718   3.343   0.665 -0.6860 -0.8172  0.6821
  764MOL0     H 5427   8.703   3.236   0.801 -0.6521 -0.4757 -1.3624
  764MOL0     H 5428   8.819   2.981   0.498  1.5457  1.3854 -1.4861
  764MOL0     H 5429   9.316   3.011   1.105 -1.5276  1.0940 -1.4488
  764MOL0     H 5430   9.529   2.917   1.233  0.8473 -0.4696  0.4121
  764MOL0     H 5431   9.623   2.976   1.085  2.9079  0.9045  0.7870
  764MOL0     H 5432   9.656   3.031   1.246 -0.8394 -0.0457  0.8039
  765MOL0     O 5433   3.398   5.995   2.702  0.6802 -0.1623 -0.4347
  765MOL0     C 5434   3.356   6.111   2.686  0.2467  0.5684 -0.0158
  765MOL0     O 5435   3.223   6.151   2.675 -0.3991  0.2249  0.0380
  765MOL0     C 5436   3.115   6.067   2.682 -0.7446  0.5777 -0.5950
  765MOL0     C 5437   3.103   5.959   2.777 -0.2060  0.0210 -0.5610
  765MOL0     C 5438   2.989   5.884   2.782  0.0900  0.3199 -0.6882
  765MOL0     C 5439   2.879   5.904   2.698  0.5715 -0.2573 -0.8734
  765MOL0     O 5440   2.759   5.844   2.699 -0.4309 -0.8869  0.1424
  765MOL0     C 5441   2.740   5.717   2.763  0.4399 -0.5041 -0.2250
  765MOL0     C 5442   2.801   5.595   2.681  0.3080  0.7702 -0.2825
  765MOL0     C 5443   2.752   5.461   2.730  0.2860 -0.1403  0.1587
  765MOL0     C 5444   2.827   5.410   2.863  0.7108 -0.0305  1.8489
  765MOL0     C 5445   2.975   5.382   2.833  0.2301 -0.0135  0.1008
  765MOL0     C 5446   3.031   5.298   2.947 -0.0193  0.6919  0.8736
  765MOL0     C 5447   3.172   5.253   2.909  0.1868 -0.3312 -1.3795
  765MOL0     C 5448   3.262   5.219   3.022 -0.0918  0.0843  0.4984
  765MOL0     N 5449   3.390   5.174   2.974  0.7159  0.2251  0.0909
  765MOL0     C 5450   3.492   5.266   2.960  0.4712  0.7524 -0.2700
  765MOL0     C 5451   3.597   5.181   2.932 -0.9435 -0.6464  0.0481
  765MOL0     C 5452   3.734   5.218   2.897  0.3168  0.4572 -0.0785
  765MOL0     C 5453   3.810   5.254   3.020 -0.0838 -0.0109 -0.3812
  765MOL0     C 5454   3.930   5.332   3.009 -0.0380  0.5991  0.4568
  765MOL0     C 5455   4.032   5.259   2.922  0.3287 -0.1965  0.1782
  765MOL0     O 5456   4.093   5.144   2.984 -1.1315  0.2905  0.0850
  765MOL0     C 5457   4.209   5.090   2.944 -0.1067 -1.1639 -0.3590
  765MOL0     C 5458   4.255   4.985   3.016 -0.3708  0.7656 -0.3432
  765MOL0     C 5459   4.382   4.922   2.988 -0.0028 -0.6344 -0.2562
  765MOL0     C 5460   4.437   4.819   3.083  0.5723  1.2008  0.5873
  765MOL0     C 5461   4.460   4.956   2.874  1.2630  0.0454  0.3121
  765MOL0     C 5462   4.589   4.903   2.831 -0.4084  0.1862  0.7956
  765MOL0     O 5463   4.655   4.975   2.735  0.2061 -0.5387  0.1463
  765MOL0     C 5464   4.764   4.931   2.670  0.0389 -0.1437  0.1366
  765MOL0     C 5465   4.799   5.018   2.577  0.7144 -0.6795  0.5884
  765MOL0     C 5466   4.891   4.987   2.483 -0.8208 -0.1639 -0.4363
  765MOL0     C 5467   4.961   4.868   2.490 -0.2765 -0.8045  0.2076
  765MOL0     O 5468   5.044   4.813   2.394  0.9497 -0.2869 -0.1398
  765MOL0     C 5469   5.056   4.896   2.274  0.7161  0.3505  0.3486
  765MOL0     C 5470   5.133   4.819   2.169  0.7303  0.6740 -0.3584
  765MOL0     C 5471   5.280   4.822   2.221 -0.7634  0.1952  0.4036
  765MOL0     C 5472   5.370   4.746   2.121 -0.5295 -0.5811  0.9084
  765MOL0     C 5473   5.504   4.705   2.185  0.1874 -0.5219 -0.1703
  765MOL0     C 5474   5.568   4.587   2.106  0.2929  0.4534 -0.1652
  765MOL0     C 5475   5.716   4.541   2.144  0.0213 -0.6257 -1.1184
  765MOL0     C 5476   5.799   4.459   2.045  0.4002 -0.1503 -0.0748
  765MOL0    Cl 5477   5.743   4.283   2.043  0.0482 -0.2500  0.0044
  765MOL0     C 5478   4.937   4.779   2.595  0.0807  0.3454  0.5430
  765MOL0     C 5479   4.832   4.805   2.681  0.2492 -0.3262 -0.2185
  765MOL0     O 5480   4.617   4.791   2.873  0.0683  0.1942  0.1836
  765MOL0     C 5481   4.398   5.060   2.788 -0.6225 -0.2098 -0.0822
  765MOL0     C 5482   4.278   5.120   2.830  0.5640 -0.1003 -0.2616
  765MOL0     N 5483   3.558   5.053   2.939  0.4418  0.4770 -0.0227
  765MOL0     N 5484   3.436   5.048   2.961  0.4162  0.0333 -0.2121
  765MOL0     C 5485   2.879   6.016   2.617  0.0974 -0.7483  0.2340
  765MOL0     C 5486   2.998   6.093   2.607  0.4549 -0.3063 -0.1807
  765MOL0     C 5487   3.452   6.221   2.651  0.0678  0.4759  0.2607
  765MOL0     C 5488   3.411   6.344   2.601  0.4941  0.3096  0.1997
  765MOL0     C 5489   3.505   6.454   2.594  0.6267 -0.4954  0.2943
  765MOL0     C 5490   3.645   6.428   2.593  0.1360 -0.5136  0.0208
  765MOL0     O 5491   3.753   6.513   2.593 -0.2343  0.8276 -0.1576
  765MOL0     C 5492   3.730   6.645   2.628 -0.1276 -1.2387  0.4409
  765MOL0     C 5493   3.695   6.723   2.492 -0.3521  0.3791  0.5894
  765MOL0     C 5494   3.693   6.877   2.512  0.4105 -0.3712 -0.4343
  765MOL0     C 5495   3.644   6.970   2.397 -0.5652  0.1095 -0.0482
  765MOL0     C 5496   3.501   6.972   2.397 -0.1972  0.0963  0.7646
  765MOL0     C 5497   3.380   6.959   2.417 -0.6012 -0.5506 -0.1883
  765MOL0     C 5498   3.683   6.302   2.631  0.4373  0.5884  0.6264
  765MOL0     C 5499   3.590   6.207   2.671  0.1042  0.3059  0.2413
  765MOL0     C 5500   3.671   6.102   2.739  0.2036 -0.0447  0.3190
  765MOL0     H 5501   3.181   5.935   2.849  0.9083  0.8467 -1.4702
  765MOL0     H 5502   2.983   5.797   2.847  2.2394  1.0811  0.6116
  765MOL0     H 5503   2.630   5.719   2.771  0.5680  1.8937  2.1425
  765MOL0     H 5504   2.782   5.720   2.863 -0.3486 -3.7832  0.3514
  765MOL0     H 5505   2.756   5.611   2.583  0.8331  0.5132 -0.5640
  765MOL0     H 5506   2.909   5.598   2.667  0.2088  1.1810 -1.0026
  765MOL0     H 5507   2.644   5.472   2.739  0.2738  1.5514 -1.4509
  765MOL0     H 5508   2.760   5.388   2.649 -3.1986  1.8908 -2.3067
  765MOL0     H 5509   2.826   5.477   2.949  1.7179 -1.2413  2.8241
  765MOL0     H 5510   2.781   5.314   2.887  0.2238 -1.2744 -2.8930
  765MOL0     H 5511   3.034   5.473   2.818 -2.0285  1.7747  1.4522
  765MOL0     H 5512   2.976   5.321   2.742  0.2481  0.1470 -0.0072
  765MOL0     H 5513   3.032   5.356   3.039  0.8346  1.2430  0.5228
  765MOL0     H 5514   2.971   5.209   2.970 -0.9844  1.3875  1.1479
  765MOL0     H 5515   3.230   5.330   2.856 -1.6428  1.4240 -0.9823
  765MOL0     H 5516   3.180   5.166   2.843  3.3847 -2.1890  1.1589
  765MOL0     H 5517   3.283   5.302   3.090  1.5142 -2.0173  2.7574
  765MOL0     H 5518   3.213   5.143   3.082  2.0494 -1.5635  0.2729
  765MOL0     H 5519   3.488   5.374   2.966 -0.5420  0.8258 -1.8842
  765MOL0     H 5520   3.733   5.304   2.830 -1.7006 -0.9432 -1.9909
  765MOL0     H 5521   3.785   5.142   2.837 -3.4104 -0.1152 -2.8801
  765MOL0     H 5522   3.747   5.323   3.077 -1.4698  0.1784 -2.0606
  765MOL0     H 5523   3.822   5.168   3.087  2.0501  2.3645  2.5870
  765MOL0     H 5524   3.898   5.426   2.962 -0.8127  0.1675  0.1092
  765MOL0     H 5525   3.984   5.356   3.101  0.8609 -1.7383  0.5971
  765MOL0     H 5526   3.994   5.219   2.828  1.3397  1.0443 -0.7980
  765MOL0     H 5527   4.107   5.335   2.896  0.2067  1.1609  3.3457
  765MOL0     H 5528   4.209   4.958   3.110 -1.9712  2.0373 -0.7137
  765MOL0     H 5529   4.388   4.811   3.181 -1.0422 -2.1336 -0.3732
  765MOL0     H 5530   4.544   4.833   3.102  0.6915  1.3038 -0.1353
  765MOL0     H 5531   4.430   4.719   3.039  2.2591  0.9154  0.8934
  765MOL0     H 5532   4.757   5.119   2.577  2.0679  0.0211  3.8454
  765MOL0     H 5533   4.908   5.060   2.405  2.7922  1.6717  1.8139
  765MOL0     H 5534   4.955   4.917   2.237  1.2024 -2.1730 -2.8308
  765MOL0     H 5535   5.100   4.995   2.294 -1.2274  1.6900 -1.4891
  765MOL0     H 5536   5.099   4.715   2.163  0.7585  0.7718 -3.8688
  765MOL0     H 5537   5.132   4.867   2.071  0.6083  1.0673 -0.1677
  765MOL0     H 5538   5.287   4.767   2.315  0.3444 -2.0380 -0.9026
  765MOL0     H 5539   5.321   4.922   2.239  4.7404 -1.1623 -2.4126
  765MOL0     H 5540   5.394   4.824   2.048  1.4071 -1.2855  0.7261
  765MOL0     H 5541   5.313   4.662   2.080 -0.8502  0.7344 -1.5667
  765MOL0     H 5542   5.567   4.792   2.207  0.0240 -0.7547  1.3664
  765MOL0     H 5543   5.472   4.667   2.282  0.2715 -2.3799 -0.8403
  765MOL0     H 5544   5.567   4.613   1.999 -3.4284 -3.7238 -1.4216
  765MOL0     H 5545   5.500   4.502   2.113 -0.6501  0.9625 -2.2105
  765MOL0     H 5546   5.715   4.496   2.244  1.8053  3.6782  1.1092
  765MOL0     H 5547   5.778   4.630   2.151  1.4704 -1.7279  2.2828
  765MOL0     H 5548   5.906   4.472   2.059  0.5126  1.8780 -2.1756
  765MOL0     H 5549   5.778   4.510   1.950  0.5557 -0.4340 -0.2639
  765MOL0     H 5550   4.978   4.679   2.607 -0.3471  0.2676  1.4445
  765MOL0     H 5551   4.801   4.738   2.761 -0.8086 -0.4243 -0.7064
  765MOL0     H 5552   4.443   5.083   2.692  0.0753 -2.1912 -0.2807
  765MOL0     H 5553   4.232   5.199   2.772 -0.6859  1.5347  2.7441
  765MOL0     H 5554   2.791   6.036   2.558 -1.1590 -2.6025  1.3664
  765MOL0     H 5555   3.001   6.182   2.544 -2.2819 -1.9083 -2.8375
  765MOL0     H 5556   3.305   6.355   2.586 -0.6746 -4.5973  2.9049
  765MOL0     H 5557   3.467   6.554   2.572  0.5276 -0.7270 -0.6494
  765MOL0     H 5558   3.656   6.658   2.708  1.0131 -2.0975  1.7043
  765MOL0     H 5559   3.823   6.684   2.672 -0.3051 -2.4647  2.0333
  765MOL0     H 5560   3.601   6.686   2.450  0.5015  0.2383 -1.3092
  765MOL0     H 5561   3.766   6.684   2.419  1.1396 -0.4576  2.3949
  765MOL0     H 5562   3.631   6.904   2.598  0.9681  1.2552 -0.5088
  765MOL0     H 5563   3.790   6.916   2.545  0.2992 -0.8931  0.5817
  765MOL0     H 5564   3.690   6.926   2.308  0.6537 -0.6335  0.9097
  765MOL0     H 5565   3.681   7.072   2.409  0.5985 -0.3224  0.2208
  765MOL0     H 5566   3.274   6.947   2.428 -0.5698 -2.2520 -1.2741
  765MOL0     H 5567   3.788   6.280   2.643  0.2682 -0.1517  0.8189
  765MOL0     H 5568   3.682   6.016   2.671 -1.6385  2.2844 -3.2416
  765MOL0     H 5569   3.774   6.131   2.761 -0.2285  0.9297  1.0978
  765MOL0     H 5570   3.629   6.057   2.829  1.7499 -0.0168  1.1003
  766MOL0     O 5571  10.716   4.122   9.752 -0.2835 -0.6710 -0.1431
  766MOL0     C 5572  10.729   4.076   9.865  0.3618 -0.3814  0.3584
  766MOL0     O 5573  10.839   4.018   9.917  0.4815  0.3089 -0.1581
  766MOL0     C 5574  10.934   3.976   9.825 -0.6523 -0.7188 -0.5969
  766MOL0     C 5575  10.948   3.838   9.806  0.2744 -0.4236  0.4276
  766MOL0     C 5576  11.042   3.790   9.717  0.2025  0.1295  0.6185
  766MOL0     C 5577  11.133   3.865   9.650 -0.8009 -0.5159  0.7409
  766MOL0     O 5578  11.230   3.818   9.562 -0.7532  0.3429  0.9442
  766MOL0     C 5579  11.276   3.685   9.558  0.1893 -0.1424 -0.1807
  766MOL0     C 5580  11.399   3.682   9.467 -0.7589  0.5324  0.7543
  766MOL0     C 5581  11.464   3.552   9.481 -0.5208  0.1745  0.1119
  766MOL0     C 5582  11.587   3.534   9.394 -0.5579  0.4108  0.4237
  766MOL0     C 5583  11.656   3.400   9.401  0.4436  0.5053 -0.7682
  766MOL0     C 5584  11.806   3.415   9.359 -0.6052 -0.0497 -0.3112
  766MOL0     C 5585  11.894   3.305   9.434  1.3708  0.0037 -0.2575
  766MOL0     C 5586  12.046   3.349   9.441 -0.4193  0.0834 -0.5878
  766MOL0     N 5587  12.102   3.378   9.311  0.1096 -0.1095  0.0524
  766MOL0     C 5588  12.111   3.505   9.252 -0.9150  0.7762  0.1162
  766MOL0     C 5589  12.155   3.476   9.137  0.4604 -0.6262  0.0763
  766MOL0     C 5590  12.176   3.573   9.028  0.8093 -1.2782  0.5070
  766MOL0     C 5591  12.309   3.656   9.032 -0.1561  0.2267  0.5496
  766MOL0     C 5592  12.423   3.552   9.025  0.2068 -0.2045  0.1848
  766MOL0     C 5593  12.558   3.608   9.077 -0.4776  0.6807 -0.9133
  766MOL0     O 5594  12.602   3.738   9.046 -0.0949 -0.1351 -0.1620
  766MOL0     C 5595  12.594   3.784   8.914  0.4660  0.2350  0.0666
  766MOL0     C 5596  12.592   3.696   8.809 -0.0930  0.2058 -0.7218
  766MOL0     C 5597  12.586   3.740   8.677 -0.4945 -0.3734 -0.1446
  766MOL0     C 5598  12.586   3.640   8.569 -0.6423  0.8736  0.2828
  766MOL0     C 5599  12.565   3.875   8.652 -0.8116  0.5406 -0.6000
  766MOL0     C 5600  12.559   3.930   8.519  0.9176  0.1739  0.7194
  766MOL0     O 5601  12.430   3.971   8.484 -0.3902 -0.2999 -0.1554
  766MOL0     C 5602  12.400   4.044   8.374 -0.5103  0.9653 -0.0223
  766MOL0     C 5603  12.284   4.019   8.308  0.5084  0.1691  0.3419
  766MOL0     C 5604  12.244   4.069   8.178  0.2054 -0.6414  0.3285
  766MOL0     C 5605  12.322   4.169   8.119  0.1924  0.0342 -0.2014
  766MOL0     O 5606  12.288   4.214   7.996 -0.2644  0.2544  0.1568
  766MOL0     C 5607  12.397   4.234   7.905  0.2281 -0.4028  0.2747
  766MOL0     C 5608  12.362   4.255   7.758  0.2050 -0.9766  0.7937
  766MOL0     C 5609  12.495   4.255   7.671 -1.0453  1.0102 -0.1356
  766MOL0     C 5610  12.482   4.268   7.513 -0.1650  0.0431 -0.5075
  766MOL0     C 5611  12.384   4.368   7.461  1.0400 -0.2510  0.2759
  766MOL0     C 5612  12.382   4.356   7.302 -0.2189  0.2519  0.5405
  766MOL0     C 5613  12.257   4.434   7.247 -1.0140  0.0185 -0.5316
  766MOL0     C 5614  12.278   4.586   7.226  0.1628  0.7148  0.0990
  766MOL0    Cl 5615  12.397   4.628   7.103 -0.5811  0.2920 -0.0855
  766MOL0     C 5616  12.443   4.205   8.187  0.0104 -0.0974  0.0066
  766MOL0     C 5617  12.475   4.154   8.316  0.7146 -0.0929 -0.6565
  766MOL0     O 5618  12.658   3.943   8.448 -0.2323 -0.2760 -0.3455
  766MOL0     C 5619  12.558   3.969   8.762  0.3096 -0.5133 -0.4122
  766MOL0     C 5620  12.584   3.921   8.895  0.2240 -0.4408 -0.5195
  766MOL0     N 5621  12.172   3.339   9.115  0.4723 -0.4140 -0.0668
  766MOL0     N 5622  12.149   3.285   9.224 -0.6043  0.5671  0.8173
  766MOL0     C 5623  11.116   4.011   9.654 -0.4122  0.3548 -1.0986
  766MOL0     C 5624  11.028   4.063   9.754  0.7071  0.1539  0.5018
  766MOL0     C 5625  10.623   4.106   9.960  0.5306 -0.3683 -0.0494
  766MOL0     C 5626  10.650   4.100  10.102 -0.0855 -0.4716  0.1894
  766MOL0     C 5627  10.550   4.123  10.191  0.3284 -0.2805 -0.4710
  766MOL0     C 5628  10.420   4.155  10.156 -0.0780 -0.0271  0.4985
  766MOL0     O 5629  10.332   4.195  10.252 -0.5157  0.0825 -0.0175
  766MOL0     C 5630  10.205   4.125  10.256 -0.3662 -0.0227  0.4669
  766MOL0     C 5631  10.138   4.150  10.389 -0.6585  0.3971 -1.0647
  766MOL0     C 5632  10.215   4.132  10.522  0.4965 -0.0174  0.4111
  766MOL0     C 5633  10.123   4.160  10.641 -0.4933 -0.6009  0.8073
  766MOL0     C 5634  10.036   4.047  10.668 -0.0454  0.5108 -0.3044
  766MOL0     C 5635   9.955   3.961  10.699  0.4367  0.0280  0.7329
  766MOL0     C 5636  10.387   4.157  10.023 -0.7910 -0.3608  0.4996
  766MOL0     C 5637  10.484   4.129   9.924 -0.1299  0.8707 -0.4133
  766MOL0     C 5638  10.419   4.093   9.787 -0.7394 -0.8172  0.2501
  766MOL0     H 5639  10.890   3.765   9.862 -0.3905 -0.7640 -0.6741
  766MOL0     H 5640  11.051   3.683   9.698 -0.7105  0.1920 -0.2242
  766MOL0     H 5641  11.204   3.607   9.530  0.9474 -1.5049  1.5017
  766MOL0     H 5642  11.309   3.666   9.661 -1.9399  1.8053  0.9686
  766MOL0     H 5643  11.368   3.722   9.370 -1.0276  0.5269  0.8357
  766MOL0     H 5644  11.472   3.755   9.502 -1.4409  1.2612  0.6839
  766MOL0     H 5645  11.493   3.541   9.586 -0.6583 -2.4638 -0.0499
  766MOL0     H 5646  11.394   3.473   9.451  0.5265 -0.2779 -1.2297
  766MOL0     H 5647  11.560   3.566   9.293 -0.4199  0.6065  0.4468
  766MOL0     H 5648  11.664   3.605   9.429  0.8551 -1.6285  1.6981
  766MOL0     H 5649  11.609   3.331   9.330  0.9205 -3.3305  2.3122
  766MOL0     H 5650  11.640   3.358   9.500  0.5889  0.9166 -0.5694
  766MOL0     H 5651  11.814   3.404   9.251 -4.1743  0.2951 -0.7317
  766MOL0     H 5652  11.852   3.512   9.380  1.5028 -0.5877 -2.0862
  766MOL0     H 5653  11.876   3.214   9.375  1.7214  0.5744 -1.2619
  766MOL0     H 5654  11.849   3.291   9.533 -0.4575 -1.5257 -1.2300
  766MOL0     H 5655  12.051   3.442   9.498 -1.2665  0.5704 -1.2718
  766MOL0     H 5656  12.107   3.273   9.489  0.1969  0.7060 -0.3713
  766MOL0     H 5657  12.101   3.604   9.297  0.8031  0.2082  1.8976
  766MOL0     H 5658  12.096   3.647   9.020  0.1621 -2.1240 -1.9982
  766MOL0     H 5659  12.174   3.522   8.931 -0.4188  2.5548 -1.7167
  766MOL0     H 5660  12.308   3.731   8.952 -3.1241  0.1026  0.3456
  766MOL0     H 5661  12.310   3.719   9.121  0.1212 -0.9831  1.4235
  766MOL0     H 5662  12.396   3.463   9.083  0.3531  0.8034  1.8704
  766MOL0     H 5663  12.432   3.514   8.923 -2.7284 -0.1708 -0.1794
  766MOL0     H 5664  12.566   3.618   9.185  1.6919  1.1558 -1.0768
  766MOL0     H 5665  12.635   3.536   9.048  1.0285  1.5613  0.7480
  766MOL0     H 5666  12.620   3.595   8.836  2.7572  1.7100  2.7595
  766MOL0     H 5667  12.547   3.543   8.603 -2.6206  1.3551 -0.4966
  766MOL0     H 5668  12.690   3.635   8.534 -0.3438  2.4088  0.8843
  766MOL0     H 5669  12.517   3.671   8.490  1.1443  3.2912 -0.4344
  766MOL0     H 5670  12.231   3.939   8.358  1.5953 -1.3288 -0.7833
  766MOL0     H 5671  12.150   4.038   8.132 -1.9778  1.0134  3.2689
  766MOL0     H 5672  12.458   4.317   7.941  0.5917 -1.0187  1.1175
  766MOL0     H 5673  12.455   4.141   7.905 -0.3774 -0.7954 -0.6549
  766MOL0     H 5674  12.301   4.172   7.721  1.2965 -1.6230  0.3795
  766MOL0     H 5675  12.313   4.352   7.746 -1.0451 -1.4871  1.6280
  766MOL0     H 5676  12.546   4.163   7.698 -1.7981  0.7970  0.6002
  766MOL0     H 5677  12.560   4.336   7.707 -0.3156  1.6580 -2.7039
  766MOL0     H 5678  12.452   4.174   7.465 -2.2969  0.5355 -0.2023
  766MOL0     H 5679  12.584   4.290   7.479 -0.4765  0.5834 -1.1142
  766MOL0     H 5680  12.288   4.335   7.501  0.7149  0.4598  0.0919
  766MOL0     H 5681  12.397   4.472   7.492 -1.0988  0.2641 -0.4443
  766MOL0     H 5682  12.367   4.252   7.272 -0.4493 -0.3333  2.5022
  766MOL0     H 5683  12.475   4.392   7.258 -0.6152  3.7645  2.2026
  766MOL0     H 5684  12.167   4.404   7.301 -1.7434 -0.2613 -1.8596
  766MOL0     H 5685  12.239   4.393   7.147  1.7136  0.5066 -1.3068
  766MOL0     H 5686  12.328   4.622   7.316  1.2411 -0.5107  0.0190
  766MOL0     H 5687  12.189   4.639   7.193 -1.0060 -1.3216 -0.1872
  766MOL0     H 5688  12.519   4.265   8.139 -1.2944 -0.7924 -3.1669
  766MOL0     H 5689  12.571   4.177   8.361 -0.7827  0.4921  2.5477
  766MOL0     H 5690  12.537   4.074   8.742  0.4474 -0.2754  0.6300
  766MOL0     H 5691  12.578   3.978   8.987 -1.1648 -0.5923 -0.4997
  766MOL0     H 5692  11.173   4.081   9.592 -1.7182 -0.1137 -2.9220
  766MOL0     H 5693  11.028   4.168   9.782 -2.0799  0.5765 -0.6962
  766MOL0     H 5694  10.750   4.077  10.139 -0.6433 -0.6925  1.6380
  766MOL0     H 5695  10.569   4.120  10.298 -0.2688 -3.6179 -0.3734
  766MOL0     H 5696  10.145   4.173  10.179 -0.6532 -1.6221 -0.3585
  766MOL0     H 5697  10.210   4.017  10.239  0.2761  0.1636 -0.5768
  766MOL0     H 5698  10.047   4.089  10.400  0.3219 -0.6700  2.1154
  766MOL0     H 5699  10.099   4.252  10.381 -0.0603  0.6673 -0.5748
  766MOL0     H 5700  10.248   4.028  10.520 -0.7148 -0.4408 -2.5236
  766MOL0     H 5701  10.294   4.207  10.526 -1.2409  1.8599  1.2048
  766MOL0     H 5702  10.069   4.253  10.627  0.6834 -0.2558 -2.0855
  766MOL0     H 5703  10.192   4.171  10.726 -0.7373  4.6173  0.6192
  766MOL0     H 5704   9.886   3.883  10.723 -0.8396  0.6893 -0.6383
  766MOL0     H 5705  10.286   4.181   9.990 -0.2859  1.2879  0.0742
  766MOL0     H 5706  10.447   4.172   9.715  2.0388 -0.0054  2.0478
  766MOL0     H 5707  10.467   4.000   9.755 -1.0861 -0.8537 -0.1709
  766MOL0     H 5708  10.310   4.089   9.790 -0.7536 -0.6634  0.0389
  767MOL0     O 5709   4.772   1.244  10.670 -0.5026  0.3100 -0.1617
  767MOL0     C 5710   4.730   1.136  10.623 -0.0631 -0.5257 -0.2984
  767MOL0     O 5711   4.802   1.026  10.605  0.1231  0.4383  0.0724
  767MOL0     C 5712   4.931   1.039  10.625 -0.0716  0.1406  0.0503
  767MOL0     C 5713   4.982   0.998  10.755 -0.2397 -0.4073 -0.2637
  767MOL0     C 5714   5.121   1.006  10.770  0.8700 -0.3784 -0.5192
  767MOL0     C 5715   5.201   1.049  10.672 -0.3745  0.0660  0.1883
  767MOL0     O 5716   5.331   1.086  10.707 -0.1639 -0.0096 -0.3801
  767MOL0     C 5717   5.428   0.976  10.690  0.4198 -0.4666  0.3488
  767MOL0     C 5718   5.556   1.037  10.736  0.2364  0.7594  0.6644
  767MOL0     C 5719   5.672   0.944  10.718  0.0411  0.0058 -0.0601
  767MOL0     C 5720   5.800   1.027  10.718  0.3451 -0.1253 -0.0020
  767MOL0     C 5721   5.922   0.929  10.729 -0.2675 -0.0146  0.1596
  767MOL0     C 5722   6.055   1.009  10.741 -0.0454  0.5012 -0.9275
  767MOL0     C 5723   6.179   0.912  10.756  0.5735  0.0479  0.1616
  767MOL0     C 5724   6.296   1.000  10.750 -0.4411 -0.8218  0.7898
  767MOL0     N 5725   6.421   0.935  10.789 -0.5752 -0.4573  0.3313
  767MOL0     C 5726   6.518   1.000  10.862 -0.6950  0.1996  0.4786
  767MOL0     C 5727   6.634   0.921  10.853 -0.0801  0.8615  0.1335
  767MOL0     C 5728   6.772   0.945  10.903 -0.3176  0.3319 -0.9244
  767MOL0     C 5729   6.874   0.966  10.792 -0.7006 -0.6332 -0.4179
  767MOL0     C 5730   6.908   0.835  10.705  0.4030  0.4396 -1.2791
  767MOL0     C 5731   6.910   0.700  10.777 -0.1122 -0.0467 -0.9546
  767MOL0     O 5732   7.000   0.698  10.893  0.1238 -0.5108  0.4601
  767MOL0     C 5733   7.132   0.734  10.875  0.1001 -0.4299  0.2384
  767MOL0     C 5734   7.212   0.727  10.758  0.4999 -0.0178 -0.0358
  767MOL0     C 5735   7.351   0.753  10.759 -0.6520  0.2340 -0.0631
  767MOL0     C 5736   7.427   0.753  10.626  0.3147 -0.2169 -0.0962
  767MOL0     C 5737   7.421   0.767  10.886  0.7176  1.1150  0.3780
  767MOL0     C 5738   7.572   0.786  10.897 -0.0130  0.8993 -0.4596
  767MOL0     O 5739   7.624   0.719  11.000 -0.0064  0.4282  0.2042
  767MOL0     C 5740   7.751   0.748  11.052 -0.3316 -0.1579 -0.3385
  767MOL0     C 5741   7.863   0.716  10.981  0.3191 -0.1662  0.0175
  767MOL0     C 5742   7.998   0.737  11.033  0.1384  0.0824  0.0841
  767MOL0     C 5743   8.016   0.795  11.153  0.1188 -0.4271 -0.0911
  767MOL0     O 5744   8.141   0.824  11.184 -0.0058 -0.4121 -0.1868
  767MOL0     C 5745   8.166   0.897  11.305 -1.5152 -0.2126 -0.3067
  767MOL0     C 5746   8.327   0.904  11.334 -0.1082  0.1525  0.0423
  767MOL0     C 5747   8.377   0.767  11.405  0.8115 -0.0463 -0.0916
  767MOL0     C 5748   8.519   0.724  11.366  0.7210 -1.1591  0.0475
  767MOL0     C 5749   8.578   0.631  11.473 -0.2875  0.4221  0.6069
  767MOL0     C 5750   8.728   0.621  11.459 -0.3505 -0.7374 -0.2290
  767MOL0     C 5751   8.781   0.510  11.549 -0.7220 -0.3816  0.5462
  767MOL0     C 5752   8.790   0.549  11.696  0.2778 -0.7803 -0.2010
  767MOL0    Cl 5753   8.888   0.700  11.731 -0.0768  0.0069 -0.0263
  767MOL0     C 5754   7.897   0.838  11.228 -0.7504 -0.2950  0.0348
  767MOL0     C 5755   7.770   0.813  11.175  0.5388 -0.6574 -0.2450
  767MOL0     O 5756   7.630   0.854  10.812 -0.0832 -0.6228  0.7250
  767MOL0     C 5757   7.341   0.779  10.998  0.6144  0.3174 -0.4132
  767MOL0     C 5758   7.205   0.752  10.996  0.2146  0.0803 -0.3778
  767MOL0     N 5759   6.591   0.807  10.779  0.8271 -0.3420  0.5660
  767MOL0     N 5760   6.471   0.825  10.737  0.2872  0.1378  0.7889
  767MOL0     C 5761   5.151   1.077  10.546 -0.7496 -0.7071 -0.2645
  767MOL0     C 5762   5.017   1.080  10.525 -0.2181 -0.2913  0.6280
  767MOL0     C 5763   4.583   1.130  10.589 -0.5026  0.3037 -1.3071
  767MOL0     C 5764   4.495   1.184  10.692 -0.5264 -0.3077 -0.6906
  767MOL0     C 5765   4.363   1.200  10.669  0.7511  0.6947  0.2166
  767MOL0     C 5766   4.306   1.161  10.549  0.0509 -0.5976  0.3981
  767MOL0     O 5767   4.175   1.176  10.536  0.1238  0.0777  0.4367
  767MOL0     C 5768   4.098   1.061  10.568  0.8294  0.0964  0.2107
  767MOL0     C 5769   4.068   0.980  10.443  0.3066  0.5335 -0.9184
  767MOL0     C 5770   4.002   1.060  10.330 -0.4184  0.6362 -0.3202
  767MOL0     C 5771   3.915   0.970  10.237 -0.5761 -0.0798  0.2171
  767MOL0     C 5772   3.857   1.036  10.110  0.2500  0.5592 -0.2526
  767MOL0     C 5773   3.804   1.077  10.006  0.4884 -0.2687  0.1570
  767MOL0     C 5774   4.390   1.116  10.449 -0.2880 -0.0031  0.1547
  767MOL0     C 5775   4.529   1.091  10.468  0.3535  0.5830 -0.6250
  767MOL0     C 5776   4.608   1.032  10.356  0.1408 -0.3598  0.7537
  767MOL0     H 5777   4.908   0.955  10.821  0.0360 -2.1718 -1.0367
  767MOL0     H 5778   5.151   1.007  10.874  1.2990  4.5997 -0.4836
  767MOL0     H 5779   5.448   0.943  10.587  4.9009  0.8294  0.5885
  767MOL0     H 5780   5.392   0.888  10.744 -1.7327 -0.4478 -0.9286
  767MOL0     H 5781   5.567   1.127  10.674 -2.2807 -0.2614 -1.4755
  767MOL0     H 5782   5.542   1.070  10.840  0.5542  1.2368  0.5610
  767MOL0     H 5783   5.682   0.864  10.791  2.9459  1.6460  1.5143
  767MOL0     H 5784   5.664   0.893  10.622  0.0427  1.2140 -0.7321
  767MOL0     H 5785   5.813   1.086  10.627 -2.4001 -2.9776 -2.4567
  767MOL0     H 5786   5.796   1.087  10.810  1.0609  0.1107 -0.1157
  767MOL0     H 5787   5.921   0.856  10.648 -0.3860  1.1213 -0.8866
  767MOL0     H 5788   5.909   0.873  10.822 -0.2456  1.4548  1.0878
  767MOL0     H 5789   6.056   1.077  10.655 -1.2821 -0.6013 -1.8396
  767MOL0     H 5790   6.053   1.074  10.829  0.6762 -0.8837  0.1596
  767MOL0     H 5791   6.173   0.835  10.679 -3.3378  0.8801 -0.5864
  767MOL0     H 5792   6.175   0.863  10.853  4.0926 -2.8317 -0.8967
  767MOL0     H 5793   6.320   1.033  10.648  1.2842 -0.3112  1.3191
  767MOL0     H 5794   6.279   1.090  10.810  0.0614 -1.0213  1.2398
  767MOL0     H 5795   6.501   1.099  10.904 -4.2084 -0.5176  1.0735
  767MOL0     H 5796   6.811   0.870  10.972 -2.5868  0.6145  0.8081
  767MOL0     H 5797   6.785   1.036  10.963 -2.8288 -0.9930  1.9108
  767MOL0     H 5798   6.833   1.039  10.721  0.2717  0.0273 -0.3194
  767MOL0     H 5799   6.969   1.000  10.832 -0.1749 -0.5907 -1.6511
  767MOL0     H 5800   6.829   0.836  10.629 -0.7775  0.9005 -0.0889
  767MOL0     H 5801   6.999   0.856  10.648  0.2581  0.9940 -1.3101
  767MOL0     H 5802   6.810   0.678  10.814  0.3712  0.5856  0.8483
  767MOL0     H 5803   6.943   0.625  10.704  1.8376  2.4707 -2.8481
  767MOL0     H 5804   7.174   0.706  10.658  0.3134 -2.6857  0.5400
  767MOL0     H 5805   7.483   0.659  10.617 -1.5293 -1.3637 -0.1163
  767MOL0     H 5806   7.493   0.837  10.603 -0.1820 -0.1549 -1.3832
  767MOL0     H 5807   7.356   0.764  10.544  0.6623  3.4486 -0.0445
  767MOL0     H 5808   7.853   0.675  10.881  3.9892 -1.3609  0.0192
  767MOL0     H 5809   8.080   0.712  10.966  1.7853 -2.0756  2.6999
  767MOL0     H 5810   8.124   0.998  11.305 -0.7464  0.1131 -0.3655
  767MOL0     H 5811   8.114   0.849  11.389  0.6687 -0.4527  0.9701
  767MOL0     H 5812   8.376   0.910  11.236 -4.3019 -2.5301 -2.5357
  767MOL0     H 5813   8.354   0.988  11.399 -1.8665  0.7558  0.0450
  767MOL0     H 5814   8.300   0.689  11.398  0.4434  0.2877  0.1713
  767MOL0     H 5815   8.378   0.779  11.514  0.4107 -3.2865  0.3620
  767MOL0     H 5816   8.578   0.815  11.352 -2.3449  0.8306 -0.8566
  767MOL0     H 5817   8.514   0.685  11.264 -0.0204  0.5606 -0.6166
  767MOL0     H 5818   8.554   0.669  11.572  0.7085 -0.6129  1.2758
  767MOL0     H 5819   8.542   0.529  11.458  3.0865 -0.5457 -2.3931
  767MOL0     H 5820   8.784   0.712  11.485  1.6239 -1.6076 -1.2457
  767MOL0     H 5821   8.758   0.610  11.355  0.8144  1.4441 -0.1988
  767MOL0     H 5822   8.882   0.477  11.522 -0.1946 -0.5524  2.5160
  767MOL0     H 5823   8.708   0.430  11.533  0.4580 -1.1516 -1.2012
  767MOL0     H 5824   8.827   0.468  11.760 -0.5859 -4.0055 -3.4687
  767MOL0     H 5825   8.690   0.581  11.726  0.4884  4.5609 -3.8374
  767MOL0     H 5826   7.911   0.898  11.318  2.7527 -2.7237  1.3557
  767MOL0     H 5827   7.685   0.854  11.227  0.2169 -1.1890 -0.3370
  767MOL0     H 5828   7.390   0.815  11.088 -0.3740  0.6013  0.0255
  767MOL0     H 5829   7.160   0.752  11.094  0.3150 -3.2887 -0.2428
  767MOL0     H 5830   5.228   1.110  10.477 -0.4505  2.5673  1.4464
  767MOL0     H 5831   4.978   1.096  10.424  3.0181 -2.6289 -1.1575
  767MOL0     H 5832   4.539   1.232  10.778  0.0798 -1.0814 -0.5550
  767MOL0     H 5833   4.293   1.239  10.742 -0.0606 -0.0118 -0.1669
  767MOL0     H 5834   4.156   1.001  10.638 -0.0065  0.4845  1.2722
  767MOL0     H 5835   4.001   1.091  10.609 -0.4031 -2.3029 -0.7683
  767MOL0     H 5836   4.000   0.899  10.469  1.9912 -2.3867 -4.6002
  767MOL0     H 5837   4.161   0.938  10.404 -0.7344 -1.8013 -1.0403
  767MOL0     H 5838   3.940   1.143  10.364 -2.4879 -1.0246  0.1495
  767MOL0     H 5839   4.084   1.088  10.263  0.9771 -1.4911  0.3773
  767MOL0     H 5840   3.837   0.929  10.301 -0.1154 -2.0846 -0.4357
  767MOL0     H 5841   3.984   0.889  10.212 -0.1409 -0.4769  2.5016
  767MOL0     H 5842   3.744   1.116   9.926  0.2273 -0.2210  0.3761
  767MOL0     H 5843   4.354   1.097  10.348 -0.0811  1.2618 -0.1693
  767MOL0     H 5844   4.667   0.944  10.384 -1.3322 -2.0700 -1.2061
  767MOL0     H 5845   4.552   1.016  10.264  2.5849 -0.8004 -0.7688
  767MOL0     H 5846   4.686   1.098  10.317  1.1376 -1.0979  1.4225
  768MOL0     O 5847   8.369   2.945   1.486  0.8501 -0.2113  0.5860
  768MOL0     C 5848   8.347   3.003   1.388 -0.2787 -0.7077  1.0270
  768MOL0     O 5849   8.444   3.055   1.296 -0.1890 -0.2659 -0.8231
  768MOL0     C 5850   8.575   3.043   1.332  0.4267 -0.0992 -0.1224
  768MOL0     C 5851   8.656   3.015   1.223 -0.1671 -1.5233 -0.4128
  768MOL0     C 5852   8.794   2.988   1.238 -0.4471 -0.0020  0.2971
  768MOL0     C 5853   8.859   2.988   1.364  0.3298 -0.9430  0.2863
  768MOL0     O 5854   8.987   2.963   1.361  0.2192 -0.1205 -0.0364
  768MOL0     C 5855   9.052   2.954   1.493 -0.3200 -0.5488 -0.1551
  768MOL0     C 5856   9.199   2.953   1.482  0.8766 -0.3822  0.2294
  768MOL0     C 5857   9.269   2.928   1.622 -0.0508  0.3522  0.0088
  768MOL0     C 5858   9.421   2.962   1.622  0.4818 -0.2669 -0.4162
  768MOL0     C 5859   9.446   3.114   1.629  0.0045 -0.2049 -0.1273
  768MOL0     C 5860   9.596   3.134   1.636 -0.5963 -0.2988 -0.2935
  768MOL0     C 5861   9.650   3.272   1.655  1.0333  0.5396 -0.4558
  768MOL0     C 5862   9.797   3.280   1.613 -0.4616 -0.3507  0.6493
  768MOL0     N 5863   9.844   3.416   1.613 -0.6631 -0.2328 -0.7023
  768MOL0     C 5864   9.896   3.491   1.507  0.1836  0.3273  0.1415
  768MOL0     C 5865   9.929   3.605   1.563 -0.0228 -0.4240  0.3431
  768MOL0     C 5866   9.999   3.704   1.480 -0.2687  0.9887 -0.0650
  768MOL0     C 5867  10.154   3.692   1.511  0.2890  0.8247 -0.2468
  768MOL0     C 5868  10.235   3.747   1.396 -0.0163 -0.0491 -0.6544
  768MOL0     C 5869  10.256   3.897   1.400 -0.6350 -0.9895  0.1336
  768MOL0     O 5870  10.310   3.939   1.272  0.3330 -0.8830 -0.2327
  768MOL0     C 5871  10.348   4.071   1.282  0.2611 -1.0014 -1.3001
  768MOL0     C 5872  10.487   4.103   1.297  0.1610 -0.5057 -0.8381
  768MOL0     C 5873  10.534   4.233   1.309  1.1466 -0.3051  0.3432
  768MOL0     C 5874  10.686   4.258   1.330 -0.1177 -0.6973  0.2515
  768MOL0     C 5875  10.434   4.335   1.318  0.9997  0.2308  0.1290
  768MOL0     C 5876  10.462   4.481   1.357 -0.4922  0.0853  0.2231
  768MOL0     O 5877  10.578   4.541   1.310  0.0342  0.3277 -0.0334
  768MOL0     C 5878  10.647   4.607   1.404  0.1048 -0.0848 -0.3648
  768MOL0     C 5879  10.635   4.592   1.536  0.0076 -0.4335 -1.0185
  768MOL0     C 5880  10.720   4.669   1.623  0.1671  0.1782 -0.2032
  768MOL0     C 5881  10.823   4.752   1.572  0.1110 -0.1413  0.0050
  768MOL0     O 5882  10.889   4.825   1.672  0.7045 -0.2355 -0.1113
  768MOL0     C 5883  10.994   4.908   1.628 -0.3326 -0.1851  0.1762
  768MOL0     C 5884  11.094   4.940   1.742 -0.4378  0.4120  0.6696
  768MOL0     C 5885  11.209   4.836   1.755 -0.7147  0.0843  0.2484
  768MOL0     C 5886  11.160   4.711   1.836 -0.1424  0.0988 -0.0644
  768MOL0     C 5887  11.123   4.749   1.982 -0.0563 -0.1310 -0.1490
  768MOL0     C 5888  11.094   4.626   2.068 -0.4624  0.1388  0.2299
  768MOL0     C 5889  11.038   4.668   2.206 -0.2269  0.2976  0.0314
  768MOL0     C 5890  11.074   4.577   2.316 -0.0441  0.7583 -0.5716
  768MOL0    Cl 5891  11.030   4.411   2.289 -0.5545 -0.0257  0.1291
  768MOL0     C 5892  10.833   4.757   1.428 -1.1117 -1.3780 -0.1566
  768MOL0     C 5893  10.737   4.694   1.350  0.4040  1.2179 -0.4672
  768MOL0     O 5894  10.369   4.537   1.415  0.4540 -0.1551 -0.0360
  768MOL0     C 5895  10.301   4.302   1.305 -0.2414 -0.5735 -0.0533
  768MOL0     C 5896  10.260   4.174   1.278 -0.9934  0.2687  0.6442
  768MOL0     N 5897   9.910   3.602   1.705 -0.1834 -0.0495 -0.3277
  768MOL0     N 5898   9.853   3.486   1.732 -0.3748 -0.7548  0.3662
  768MOL0     C 5899   8.777   3.010   1.477  0.9815  0.0036 -1.2125
  768MOL0     C 5900   8.637   3.045   1.458 -0.2657 -0.3112  0.3281
  768MOL0     C 5901   8.201   3.016   1.344  0.7236 -0.4404  0.2496
  768MOL0     C 5902   8.184   3.027   1.203  0.4629 -0.2740  0.7832
  768MOL0     C 5903   8.059   2.996   1.148  0.0923 -0.1011  0.8038
  768MOL0     C 5904   7.944   2.983   1.231 -0.5517  0.0651  0.4176
  768MOL0     O 5905   7.811   2.964   1.195 -0.0152 -0.0295 -0.8184
  768MOL0     C 5906   7.779   2.946   1.058  0.7579  0.1018 -0.0799
  768MOL0     C 5907   7.638   2.963   1.017  0.0233 -0.8675 -0.2457
  768MOL0     C 5908   7.592   3.111   1.041  0.3858  1.0441  0.2881
  768MOL0     C 5909   7.463   3.136   0.961  0.3352  0.0298 -0.2491
  768MOL0     C 5910   7.341   3.073   1.018  0.0870  0.1852 -0.5568
  768MOL0     C 5911   7.238   3.030   1.064  0.4680  0.7599 -0.7304
  768MOL0     C 5912   7.965   2.983   1.371 -0.3306 -1.1761  0.3733
  768MOL0     C 5913   8.089   3.001   1.429  0.5342 -0.0783  0.0086
  768MOL0     C 5914   8.109   2.999   1.584 -0.1154  0.7797  0.2275
  768MOL0     H 5915   8.614   3.018   1.123  2.0751  1.5569 -1.4070
  768MOL0     H 5916   8.849   2.974   1.144 -0.0852  3.0286 -0.0184
  768MOL0     H 5917   9.026   2.863   1.548  2.5351 -0.2745  1.8747
  768MOL0     H 5918   9.025   3.040   1.555  1.1945 -2.8200  4.0340
  768MOL0     H 5919   9.225   2.871   1.414 -0.6347 -1.5522  1.0204
  768MOL0     H 5920   9.239   3.047   1.443 -2.5184  1.6742  1.3315
  768MOL0     H 5921   9.215   2.987   1.696 -0.4494  0.4546 -0.3603
  768MOL0     H 5922   9.252   2.821   1.637 -2.1092  0.3626 -1.7187
  768MOL0     H 5923   9.473   2.905   1.699 -0.0922  1.5190  1.3831
  768MOL0     H 5924   9.457   2.925   1.526  0.0409  0.2115 -0.7693
  768MOL0     H 5925   9.390   3.150   1.716  0.4727 -0.2325  0.1921
  768MOL0     H 5926   9.400   3.166   1.545 -1.2839  0.1395  0.7671
  768MOL0     H 5927   9.634   3.072   1.718  1.8540  1.8716  0.3824
  768MOL0     H 5928   9.639   3.114   1.538  1.2684 -0.0141  0.4165
  768MOL0     H 5929   9.638   3.313   1.755 -0.9918  2.3158 -1.3553
  768MOL0     H 5930   9.591   3.335   1.588  0.6405  0.3808 -0.2648
  768MOL0     H 5931   9.855   3.217   1.682 -2.1990 -1.6250  1.0294
  768MOL0     H 5932   9.810   3.232   1.515  2.2892 -0.7002  1.0990
  768MOL0     H 5933   9.899   3.469   1.401 -1.5018  2.2642 -0.3742
  768MOL0     H 5934   9.951   3.800   1.498 -0.2369  0.6884  1.8344
  768MOL0     H 5935   9.978   3.671   1.378  1.5526 -4.6307  1.0276
  768MOL0     H 5936  10.170   3.744   1.605 -1.2844  1.5376 -0.3409
  768MOL0     H 5937  10.174   3.585   1.527 -1.5569  0.6978  1.6967
  768MOL0     H 5938  10.335   3.702   1.399  1.2234  2.5597  1.0999
  768MOL0     H 5939  10.189   3.722   1.301 -0.5265  3.9928 -1.6135
  768MOL0     H 5940  10.163   3.955   1.399 -0.6134 -0.9574 -0.3099
  768MOL0     H 5941  10.318   3.926   1.485  1.0294 -1.5390 -0.8417
  768MOL0     H 5942  10.555   4.018   1.301 -0.3460 -0.9078 -0.7417
  768MOL0     H 5943  10.698   4.328   1.414 -1.1594 -2.1629  1.6888
  768MOL0     H 5944  10.738   4.291   1.240  1.7236 -2.8369  0.4552
  768MOL0     H 5945  10.734   4.165   1.363  1.4015  0.0836  0.3333
  768MOL0     H 5946  10.570   4.516   1.578  1.7288 -2.0279 -1.0836
  768MOL0     H 5947  10.724   4.654   1.730  5.0840 -2.5716 -0.4741
  768MOL0     H 5948  11.056   4.861   1.551  1.9894 -1.9614  2.9013
  768MOL0     H 5949  10.946   5.000   1.594 -1.2998  0.1882  2.3942
  768MOL0     H 5950  11.150   5.032   1.723  1.9795 -1.1323 -0.0809
  768MOL0     H 5951  11.031   4.958   1.830  0.8870 -1.5373  2.0938
  768MOL0     H 5952  11.295   4.878   1.808 -0.6082 -0.4634  0.5119
  768MOL0     H 5953  11.246   4.799   1.659  0.1477  0.3825  0.4590
  768MOL0     H 5954  11.234   4.630   1.843 -0.8353 -0.6291 -0.9292
  768MOL0     H 5955  11.066   4.669   1.800  1.6417 -3.6169 -0.8654
  768MOL0     H 5956  11.205   4.806   2.028  0.3481 -0.9572  0.1951
  768MOL0     H 5957  11.030   4.806   1.974  0.3807  0.4788 -1.0229
  768MOL0     H 5958  11.186   4.570   2.083 -0.6359  0.0239  0.8909
  768MOL0     H 5959  11.024   4.554   2.025  0.0296 -1.1838  1.5637
  768MOL0     H 5960  10.929   4.669   2.199 -0.4550  1.9817  2.6441
  768MOL0     H 5961  11.069   4.772   2.220 -2.0734  1.2814 -2.4891
  768MOL0     H 5962  11.031   4.618   2.408  1.9054  0.2582  0.6301
  768MOL0     H 5963  11.183   4.574   2.328 -0.2692 -0.4506  2.2665
  768MOL0     H 5964  10.904   4.814   1.368  0.6045 -1.0600  2.0276
  768MOL0     H 5965  10.744   4.706   1.243 -0.7333 -1.4962 -0.9198
  768MOL0     H 5966  10.214   4.368   1.299  0.7794  0.8272  0.1306
  768MOL0     H 5967  10.154   4.160   1.256  0.0781 -3.0428 -4.0272
  768MOL0     H 5968   8.810   3.001   1.580  0.4703 -2.0750 -1.1713
  768MOL0     H 5969   8.586   3.061   1.552 -0.4027 -1.3954  0.4436
  768MOL0     H 5970   8.264   3.052   1.133  1.9065 -2.4638  1.5309
  768MOL0     H 5971   8.064   2.996   1.039 -0.0793  0.4713  0.7946
  768MOL0     H 5972   7.843   3.008   0.995  0.0740  1.5352  0.5824
  768MOL0     H 5973   7.780   2.837   1.046 -5.6294 -0.2032 -1.6127
  768MOL0     H 5974   7.580   2.895   1.080  3.1823  0.1751  4.3069
  768MOL0     H 5975   7.622   2.944   0.911 -0.8814  0.0156 -0.2854
  768MOL0     H 5976   7.576   3.142   1.145  0.5090 -1.2638  1.0527
  768MOL0     H 5977   7.669   3.171   0.993  0.0030  0.7678 -0.6905
  768MOL0     H 5978   7.474   3.086   0.864 -0.0222  0.8627 -0.7319
  768MOL0     H 5979   7.461   3.244   0.942  0.2633 -0.2386 -1.9243
  768MOL0     H 5980   7.144   2.981   1.082  0.1863  0.7670 -2.0687
  768MOL0     H 5981   7.880   2.976   1.438 -1.2066 -0.0566 -0.5772
  768MOL0     H 5982   8.144   2.900   1.614  1.9983  1.0708 -1.0429
  768MOL0     H 5983   8.186   3.070   1.618  0.0449 -0.2286  2.0840
  768MOL0     H 5984   8.017   3.028   1.636 -0.2409  1.6117 -0.4265
  769MOL0     O 5985   0.820   1.572   9.881  0.2896 -0.1326  0.0956
  769MOL0     C 5986   0.739   1.665   9.864  0.4436  1.2528 -0.7906
  769MOL0     O 5987   0.761   1.784   9.806  0.4096 -0.2611  0.4867
  769MOL0     C 5988   0.877   1.804   9.744 -0.7624  0.6034 -1.2356
  769MOL0     C 5989   0.941   1.712   9.657 -0.0901  0.1298 -0.2300
  769MOL0     C 5990   1.068   1.731   9.608 -0.4642 -0.7517  0.7114
  769MOL0     C 5991   1.131   1.852   9.630  0.9791  0.1752  0.3768
  769MOL0     O 5992   1.239   1.898   9.560  0.4593  0.0744 -0.0532
  769MOL0     C 5993   1.277   1.837   9.431 -0.3243 -0.3322 -0.1913
  769MOL0     C 5994   1.408   1.904   9.381  0.6408 -0.2751  0.1295
  769MOL0     C 5995   1.528   1.838   9.450 -0.4198 -0.0143  0.4403
  769MOL0     C 5996   1.657   1.872   9.371  0.2557 -1.0110 -1.2785
  769MOL0     C 5997   1.772   1.770   9.389  1.0689 -0.0951  0.5413
  769MOL0     C 5998   1.801   1.756   9.540 -0.0022 -0.1439 -0.2354
  769MOL0     C 5999   1.941   1.720   9.572 -0.5768 -0.4731 -0.3462
  769MOL0     C 6000   1.969   1.579   9.537  0.3068 -0.5345 -0.1987
  769MOL0     N 6001   2.112   1.555   9.553 -0.5886  0.6658  0.2600
  769MOL0     C 6002   2.191   1.514   9.664 -0.4389  0.4342 -0.4200
  769MOL0     C 6003   2.321   1.518   9.627 -0.1009 -0.5345  0.9391
  769MOL0     C 6004   2.440   1.486   9.714  0.3452  0.3870 -0.6646
  769MOL0     C 6005   2.544   1.412   9.628 -0.4801  1.1039  0.4538
  769MOL0     C 6006   2.650   1.326   9.707 -0.7519 -1.2774  0.3246
  769MOL0     C 6007   2.680   1.371   9.850  0.1008 -0.0734 -1.2323
  769MOL0     O 6008   2.779   1.270   9.903  0.1283 -0.5535  0.3262
  769MOL0     C 6009   2.902   1.309   9.962  0.8750 -0.0941  0.2647
  769MOL0     C 6010   2.934   1.435  10.014 -0.2184 -0.2056 -0.2973
  769MOL0     C 6011   3.064   1.461  10.070 -0.5016  0.4265 -0.0645
  769MOL0     C 6012   3.086   1.606  10.137 -0.0289  0.2785  0.4242
  769MOL0     C 6013   3.155   1.356  10.093  0.0326  0.9180 -0.4409
  769MOL0     C 6014   3.278   1.362  10.176 -0.1094  0.2354  1.1393
  769MOL0     O 6015   3.344   1.241  10.210  0.3616 -0.1166  0.4870
  769MOL0     C 6016   3.444   1.246  10.298  1.0548  0.7962 -0.0528
  769MOL0     C 6017   3.424   1.188  10.423  0.2459 -0.4864  0.4446
  769MOL0     C 6018   3.532   1.189  10.519 -0.1437 -0.1631 -0.6083
  769MOL0     C 6019   3.657   1.240  10.486 -0.0006 -0.2323  0.1820
  769MOL0     O 6020   3.756   1.256  10.575 -0.2455  0.0671 -0.0612
  769MOL0     C 6021   3.733   1.226  10.718 -0.9735 -0.4124 -0.7083
  769MOL0     C 6022   3.843   1.296  10.807 -0.2004 -0.9026  0.3510
  769MOL0     C 6023   3.800   1.257  10.949  0.2910 -0.1225 -0.1607
  769MOL0     C 6024   3.922   1.283  11.052 -0.0299  0.7425  0.2410
  769MOL0     C 6025   3.910   1.210  11.189  0.1848 -1.0848 -1.0276
  769MOL0     C 6026   4.059   1.168  11.228 -0.2815  0.2692 -0.0638
  769MOL0     C 6027   4.072   1.104  11.361  0.7148  0.7392  0.0815
  769MOL0     C 6028   3.978   1.167  11.465  0.0651  0.4165 -0.6946
  769MOL0    Cl 6029   3.996   1.060  11.617 -0.1521 -0.2082 -0.5229
  769MOL0     C 6030   3.681   1.284  10.349  0.8308  0.7795  0.8074
  769MOL0     C 6031   3.575   1.283  10.253 -0.0082  0.4127  0.3079
  769MOL0     O 6032   3.310   1.470  10.225 -0.7448  0.2573 -0.4210
  769MOL0     C 6033   3.113   1.227  10.047  0.3012  0.9388 -0.0768
  769MOL0     C 6034   2.994   1.211   9.978  0.3515 -0.1960 -0.2823
  769MOL0     N 6035   2.325   1.570   9.501  0.3387 -0.1818  0.2277
  769MOL0     N 6036   2.204   1.587   9.458  0.6640  0.1580 -0.5477
  769MOL0     C 6037   1.059   1.956   9.699  0.0555  0.0316  0.7389
  769MOL0     C 6038   0.935   1.929   9.760 -0.2745  0.7257  0.4428
  769MOL0     C 6039   0.604   1.632   9.912  0.5567  0.5392  0.0226
  769MOL0     C 6040   0.525   1.731   9.984 -0.3663 -0.0584 -0.6190
  769MOL0     C 6041   0.398   1.713  10.026 -0.5379 -0.4596 -0.0552
  769MOL0     C 6042   0.333   1.596   9.991  0.2080  0.6425 -0.0565
  769MOL0     O 6043   0.206   1.555  10.020 -0.0298 -0.4677 -0.1411
  769MOL0     C 6044   0.139   1.629  10.119  0.2307 -0.1628  0.1739
  769MOL0     C 6045  -0.004   1.573  10.121  0.5719  0.8394 -0.4606
  769MOL0     C 6046  -0.086   1.676  10.214 -0.0001 -0.0230  0.5216
  769MOL0     C 6047  -0.219   1.619  10.261 -0.5006 -0.6077 -0.0412
  769MOL0     C 6048  -0.294   1.725  10.328  0.3705 -0.5875  0.6335
  769MOL0     C 6049  -0.356   1.819  10.376  0.7059 -0.8100  0.3321
  769MOL0     C 6050   0.406   1.500   9.915  0.5313 -0.3145 -0.2442
  769MOL0     C 6051   0.541   1.513   9.872 -0.4843 -0.4430  0.3308
  769MOL0     C 6052   0.588   1.412   9.771 -0.0538  0.2337 -0.9899
  769MOL0     H 6053   0.887   1.619   9.642  3.1143 -1.8442 -0.4941
  769MOL0     H 6054   1.112   1.652   9.548 -1.6160 -1.2203  0.4428
  769MOL0     H 6055   1.202   1.850   9.353  1.3403 -3.5563 -2.5968
  769MOL0     H 6056   1.291   1.729   9.441 -0.9366 -0.1894  3.9574
  769MOL0     H 6057   1.411   1.886   9.273  0.4978 -1.7172  0.3473
  769MOL0     H 6058   1.416   2.012   9.390  1.0406 -0.2733 -0.1946
  769MOL0     H 6059   1.525   1.865   9.556 -1.1975 -0.7299  0.6087
  769MOL0     H 6060   1.522   1.729   9.450  0.5956 -0.0812  0.3413
  769MOL0     H 6061   1.649   1.879   9.262 -0.1055 -1.4254 -1.2799
  769MOL0     H 6062   1.690   1.967   9.414  0.1748 -1.7400  0.4593
  769MOL0     H 6063   1.864   1.794   9.335  1.6147 -2.7831  0.0944
  769MOL0     H 6064   1.735   1.676   9.347 -1.6439 -0.4380  3.3696
  769MOL0     H 6065   1.790   1.854   9.588  0.5245  1.6130 -3.4037
  769MOL0     H 6066   1.731   1.693   9.595  1.7996 -0.2416  2.1342
  769MOL0     H 6067   1.973   1.737   9.675 -2.0170 -0.0911  0.0596
  769MOL0     H 6068   2.007   1.779   9.508 -1.3560  0.3718 -0.3952
  769MOL0     H 6069   1.920   1.517   9.612 -0.8108  0.7383  0.1622
  769MOL0     H 6070   1.930   1.552   9.438  3.0119  3.6365 -2.7252
  769MOL0     H 6071   2.148   1.474   9.755 -0.8122  0.4299 -0.5952
  769MOL0     H 6072   2.401   1.429   9.798 -0.9041  1.2266 -0.6355
  769MOL0     H 6073   2.491   1.575   9.752  0.1047  0.0589  0.4574
  769MOL0     H 6074   2.495   1.335   9.569 -0.2516  0.0178  1.6251
  769MOL0     H 6075   2.599   1.483   9.565 -1.2019  1.8480  0.6398
  769MOL0     H 6076   2.602   1.228   9.711  0.3862 -1.8247  1.9411
  769MOL0     H 6077   2.744   1.325   9.651 -0.3306  2.6630  0.6292
  769MOL0     H 6078   2.721   1.472   9.859  1.5159 -0.4794 -2.5759
  769MOL0     H 6079   2.587   1.374   9.908  2.3774  1.5885  2.7656
  769MOL0     H 6080   2.868   1.520  10.017 -1.5737 -1.2505  1.8939
  769MOL0     H 6081   3.010   1.676  10.102  0.2909  0.6114  0.3837
  769MOL0     H 6082   3.181   1.650  10.106  0.2396  0.5404  1.5887
  769MOL0     H 6083   3.075   1.613  10.245 -1.0865 -2.2340  0.5569
  769MOL0     H 6084   3.319   1.177  10.448 -0.2542  2.9021  0.2926
  769MOL0     H 6085   3.506   1.174  10.624 -2.0272  1.9351 -0.6910
  769MOL0     H 6086   3.633   1.243  10.760 -1.3638 -1.7255 -1.0413
  769MOL0     H 6087   3.751   1.118  10.729  2.0447  0.1720  0.8284
  769MOL0     H 6088   3.939   1.256  10.774 -0.1792  0.3343 -1.2319
  769MOL0     H 6089   3.851   1.404  10.790  2.4368 -1.1332 -0.2770
  769MOL0     H 6090   3.764   1.154  10.964 -2.6610  0.9677  0.8648
  769MOL0     H 6091   3.715   1.317  10.984  0.7214  0.0445  0.6197
  769MOL0     H 6092   3.927   1.389  11.081 -1.0370  0.7175  0.5433
  769MOL0     H 6093   4.011   1.252  10.997 -1.8984 -2.2231 -1.3674
  769MOL0     H 6094   3.869   1.285  11.257 -0.7352 -0.2187 -2.4766
  769MOL0     H 6095   3.830   1.135  11.194 -0.6403 -0.1351  2.4956
  769MOL0     H 6096   4.116   1.261  11.234  1.8898 -1.0936  2.4213
  769MOL0     H 6097   4.102   1.103  11.151 -2.3504 -0.8314 -0.3581
  769MOL0     H 6098   4.175   1.100  11.396  0.7273  0.2617 -0.0043
  769MOL0     H 6099   4.030   1.004  11.346 -4.4565  2.3886  1.3237
  769MOL0     H 6100   3.872   1.167  11.435  0.2653  0.7952 -1.4355
  769MOL0     H 6101   4.004   1.268  11.497  0.4085 -0.9779  4.2645
  769MOL0     H 6102   3.780   1.318  10.318  0.6081  1.1721  0.5090
  769MOL0     H 6103   3.591   1.321  10.152 -0.8584 -0.8780 -0.3447
  769MOL0     H 6104   3.179   1.144  10.067 -1.4479 -0.6823 -0.7771
  769MOL0     H 6105   2.980   1.116   9.929  1.0114 -0.3132 -0.2506
  769MOL0     H 6106   1.105   2.054   9.697 -0.2233  0.1563 -0.8998
  769MOL0     H 6107   0.883   2.006   9.816  0.0628  0.5304  1.0421
  769MOL0     H 6108   0.581   1.821  10.007  0.1925 -0.2073 -1.3588
  769MOL0     H 6109   0.360   1.803  10.072 -2.8986 -0.5849 -1.6029
  769MOL0     H 6110   0.196   1.631  10.212  0.4979  2.0830  0.0334
  769MOL0     H 6111   0.124   1.737  10.101 -1.2859 -0.2604  0.7018
  769MOL0     H 6112  -0.016   1.472  10.159  2.1104  0.2090 -1.5409
  769MOL0     H 6113  -0.046   1.582  10.020  1.8124  3.1932 -0.8408
  769MOL0     H 6114  -0.022   1.698  10.300 -1.3145 -0.7581  1.7410
  769MOL0     H 6115  -0.089   1.773  10.165 -1.2083  0.0479  0.7081
  769MOL0     H 6116  -0.205   1.538  10.333  1.4856 -0.1921  0.0849
  769MOL0     H 6117  -0.289   1.585  10.184 -0.9238  0.4263 -0.1289
  769MOL0     H 6118  -0.414   1.906  10.398  0.7784 -0.6246 -0.1853
  769MOL0     H 6119   0.365   1.409   9.872  2.6216  0.3760 -4.1768
  769MOL0     H 6120   0.672   1.448   9.711 -1.2672  1.4242 -2.0458
  769MOL0     H 6121   0.613   1.314   9.811 -0.6583 -0.0083 -1.1933
  769MOL0     H 6122   0.502   1.403   9.703 -0.6548 -1.5400 -0.0476
  770MOL0     O 6123   9.874  11.065   3.698 -0.3193 -0.4590  0.5273
  770MOL0     C 6124   9.913  11.072   3.815 -0.1042 -0.1431  0.5379
  770MOL0     O 6125  10.041  11.097   3.855  0.0560 -0.4078  0.0573
  770MOL0     C 6126  10.140  11.122   3.762 -0.7209 -0.1437 -0.0548
  770MOL0     C 6127  10.224  11.231   3.792 -0.8360 -0.0914 -0.1283
  770MOL0     C 6128  10.344  11.251   3.725  0.1628 -0.1933 -0.3999
  770MOL0     C 6129  10.373  11.170   3.611  1.0376 -0.4211 -0.5982
  770MOL0     O 6130  10.491  11.195   3.549 -0.4419 -0.1125 -0.3319
  770MOL0     C 6131  10.569  11.087   3.500  0.2104  0.1533  0.7498
  770MOL0     C 6132  10.714  11.102   3.533 -0.7933  0.4047  0.1382
  770MOL0     C 6133  10.805  11.028   3.448 -0.4390 -0.0859  0.3827
  770MOL0     C 6134  10.797  10.880   3.476  1.2791  0.7980  0.4379
  770MOL0     C 6135  10.900  10.809   3.381  0.3331 -0.2824 -1.2340
  770MOL0     C 6136  10.876  10.665   3.394  0.1816  0.1154 -0.1504
  770MOL0     C 6137  10.995  10.582   3.332 -0.0035 -0.1640 -0.8077
  770MOL0     C 6138  10.945  10.442   3.301 -0.0903 -0.3047 -0.7057
  770MOL0     N 6139  11.061  10.372   3.237  0.6747 -0.1033 -1.0861
  770MOL0     C 6140  11.145  10.275   3.299  0.1509 -0.1145 -0.4169
  770MOL0     C 6141  11.228  10.235   3.202  0.2576 -0.5678  0.3807
  770MOL0     C 6142  11.350  10.155   3.209  0.0816  0.3434 -0.5178
  770MOL0     C 6143  11.378  10.070   3.086 -0.1246  0.4342  0.3034
  770MOL0     C 6144  11.506   9.985   3.093 -0.6923 -0.2596 -0.5734
  770MOL0     C 6145  11.627  10.067   3.080  0.0344  0.3470 -0.4294
  770MOL0     O 6146  11.744   9.985   3.068 -0.2391 -0.2729 -0.0064
  770MOL0     C 6147  11.867  10.053   3.079 -0.2383  1.5311  0.2927
  770MOL0     C 6148  11.884  10.191   3.089 -0.0885  0.4367  0.1607
  770MOL0     C 6149  12.009  10.245   3.111 -1.5732 -1.1753 -0.2908
  770MOL0     C 6150  12.012  10.383   3.179 -0.2998  0.4161  0.6855
  770MOL0     C 6151  12.131  10.167   3.108 -0.3334  0.8563  0.7665
  770MOL0     C 6152  12.271  10.216   3.128  0.6306  0.5298 -0.1185
  770MOL0     O 6153  12.372  10.122   3.139  0.1346 -0.2859  0.0037
  770MOL0     C 6154  12.503  10.154   3.145 -0.9927  0.0204  0.3732
  770MOL0     C 6155  12.579  10.073   3.062  0.3022  0.4891 -0.0644
  770MOL0     C 6156  12.714  10.088   3.049 -0.3446 -0.6152 -0.1278
  770MOL0     C 6157  12.776  10.196   3.132 -0.1004 -0.1936 -0.6565
  770MOL0     O 6158  12.909  10.218   3.147  0.2394 -0.8145  0.3626
  770MOL0     C 6159  13.008  10.137   3.070  1.4189 -0.7586 -0.6404
  770MOL0     C 6160  13.145  10.196   3.087 -0.2863 -0.2133 -0.0639
  770MOL0     C 6161  13.205  10.171   3.225 -0.6183 -0.4237 -0.1100
  770MOL0     C 6162  13.123  10.232   3.339 -0.2800  0.4335 -1.0052
  770MOL0     C 6163  13.192  10.216   3.475 -0.8155 -0.5364  0.4767
  770MOL0     C 6164  13.121  10.278   3.592  0.3311  0.8034 -0.2652
  770MOL0     C 6165  12.971  10.255   3.590 -0.0098 -0.9278  0.5347
  770MOL0     C 6166  12.911  10.321   3.721 -1.0217  0.0585 -0.1846
  770MOL0    Cl 6167  12.918  10.503   3.697  0.1534  0.6186 -0.2251
  770MOL0     C 6168  12.702  10.285   3.212 -0.8270  1.1952  0.2186
  770MOL0     C 6169  12.565  10.264   3.210 -0.1965  0.6049  0.4207
  770MOL0     O 6170  12.288  10.339   3.137 -0.1951  0.2966 -0.2601
  770MOL0     C 6171  12.115  10.027   3.101 -0.0819  0.1996  1.4166
  770MOL0     C 6172  11.981   9.975   3.088  0.1834 -0.1044  0.0774
  770MOL0     N 6173  11.194  10.303   3.095 -0.3097  0.0707 -0.1604
  770MOL0     N 6174  11.103  10.395   3.112 -0.6718 -0.8024  0.4269
  770MOL0     C 6175  10.295  11.061   3.589 -0.3213  0.8010 -0.2889
  770MOL0     C 6176  10.171  11.039   3.656  0.0554 -0.4742  0.5093
  770MOL0     C 6177   9.812  11.046   3.925 -0.3304 -0.3928  1.1254
  770MOL0     C 6178   9.790  11.152   4.015  0.2636  0.2309 -0.5111
  770MOL0     C 6179   9.709  11.126   4.125 -0.2637 -0.4523  0.4824
  770MOL0     C 6180   9.638  11.002   4.146 -0.5585  0.0759  0.2856
  770MOL0     O 6181   9.547  10.962   4.239 -0.2679  0.4491  0.1000
  770MOL0     C 6182   9.524  11.050   4.350 -0.4064 -0.5437 -0.7203
  770MOL0     C 6183   9.407  11.143   4.324 -0.4355  0.3523 -0.5696
  770MOL0     C 6184   9.278  11.070   4.356 -0.5900  1.0981  0.1945
  770MOL0     C 6185   9.143  11.139   4.340 -0.5731 -0.2602  0.1855
  770MOL0     C 6186   9.025  11.076   4.395 -0.7239 -0.1200 -0.1886
  770MOL0     C 6187   8.945  10.989   4.440  0.2157 -0.1604 -0.0187
  770MOL0     C 6188   9.661  10.899   4.050 -0.1871 -0.1701  0.5960
  770MOL0     C 6189   9.750  10.919   3.940  0.0478  0.6786 -0.3654
  770MOL0     C 6190   9.788  10.806   3.858 -0.5663 -0.8409 -0.0771
  770MOL0     H 6191  10.191  11.299   3.869 -2.3444 -0.8198 -0.1000
  770MOL0     H 6192  10.408  11.334   3.753 -0.5108  0.4965 -0.8469
  770MOL0     H 6193  10.547  11.063   3.396  1.5372  0.0605  0.4717
  770MOL0     H 6194  10.536  11.007   3.567 -0.1721 -0.7503 -0.4884
  770MOL0     H 6195  10.726  11.210   3.517 -1.2352  0.4150 -0.1701
  770MOL0     H 6196  10.734  11.082   3.639  0.9763  1.3655  0.0279
  770MOL0     H 6197  10.791  11.042   3.341  3.3346  1.8689 -0.0216
  770MOL0     H 6198  10.903  11.072   3.467 -0.3423  0.1643 -0.6562
  770MOL0     H 6199  10.794  10.849   3.581  0.5699  2.8198  1.0688
  770MOL0     H 6200  10.697  10.850   3.443  1.1307 -2.7663  3.5081
  770MOL0     H 6201  10.998  10.834   3.422 -0.0296 -0.1351 -0.4243
  770MOL0     H 6202  10.910  10.830   3.274  4.2706 -3.3936 -1.7177
  770MOL0     H 6203  10.868  10.644   3.501  0.1521  1.9725  0.2571
  770MOL0     H 6204  10.779  10.640   3.351  0.4568 -0.0419 -0.6828
  770MOL0     H 6205  11.073  10.575   3.408 -1.0017 -4.0393  0.0951
  770MOL0     H 6206  11.037  10.634   3.245  1.1843  0.9524  0.3965
  770MOL0     H 6207  10.925  10.381   3.389  0.8713 -0.8320 -0.8348
  770MOL0     H 6208  10.864  10.431   3.229  1.2172 -1.7645 -2.0250
  770MOL0     H 6209  11.135  10.247   3.403 -2.6796  4.1085  0.7212
  770MOL0     H 6210  11.331  10.085   3.291  0.5984  0.9975  0.1741
  770MOL0     H 6211  11.433  10.217   3.244  1.2909 -1.8781  0.7954
  770MOL0     H 6212  11.288  10.011   3.066  0.5819 -0.8241  0.7219
  770MOL0     H 6213  11.408  10.125   2.996  2.5952  1.5412  1.7665
  770MOL0     H 6214  11.508   9.924   3.184  2.9774  0.3790 -0.0668
  770MOL0     H 6215  11.501   9.915   3.009 -1.2264  1.2076 -1.8070
  770MOL0     H 6216  11.619  10.127   2.989 -2.7298 -2.3575 -2.1669
  770MOL0     H 6217  11.636  10.138   3.163  0.3591  0.1709 -0.3135
  770MOL0     H 6218  11.807  10.262   3.062  0.2817  1.2825  1.2988
  770MOL0     H 6219  12.053  10.384   3.280 -2.5316  1.2537  1.6682
  770MOL0     H 6220  11.909  10.417   3.197 -0.9460 -0.8881 -0.3433
  770MOL0     H 6221  12.066  10.455   3.116 -1.0132 -1.3724 -2.1940
  770MOL0     H 6222  12.523   9.993   3.015 -0.2114  0.3814  0.7109
  770MOL0     H 6223  12.766  10.026   2.977 -3.4162 -1.3948 -1.8692
  770MOL0     H 6224  13.004  10.040   3.121 -2.5506 -1.3200 -1.7371
  770MOL0     H 6225  12.981  10.128   2.965  0.1076 -1.8558 -0.2357
  770MOL0     H 6226  13.209  10.139   3.019  1.6160  1.7861 -0.0470
  770MOL0     H 6227  13.144  10.302   3.059 -1.6402 -0.1991 -0.0473
  770MOL0     H 6228  13.303  10.218   3.235 -0.0699 -1.3297 -1.1193
  770MOL0     H 6229  13.210  10.063   3.239 -0.9390 -0.3158  1.0067
  770MOL0     H 6230  13.034  10.169   3.347 -1.4537  1.9620 -1.4968
  770MOL0     H 6231  13.104  10.337   3.317 -0.1952 -0.1467 -4.4115
  770MOL0     H 6232  13.234  10.118   3.498 -0.6096 -0.1411  1.9036
  770MOL0     H 6233  13.284  10.273   3.457 -1.5853  0.3737 -0.7609
  770MOL0     H 6234  13.137  10.386   3.582 -1.5149  1.0772 -0.7441
  770MOL0     H 6235  13.174  10.256   3.685 -0.5858  1.1990  0.3660
  770MOL0     H 6236  12.961  10.146   3.598 -3.0812 -0.8714 -1.2321
  770MOL0     H 6237  12.919  10.293   3.502 -0.3086 -0.4828  0.8974
  770MOL0     H 6238  12.983  10.304   3.802 -0.6688  0.2411 -0.4536
  770MOL0     H 6239  12.808  10.292   3.739 -1.4457  0.2798 -2.0246
  770MOL0     H 6240  12.741  10.363   3.276  1.6863 -0.3302  0.7277
  770MOL0     H 6241  12.502  10.335   3.263  0.6406  0.1069  2.1921
  770MOL0     H 6242  12.197   9.956   3.097  1.7933  2.2853 -0.1461
  770MOL0     H 6243  11.952   9.870   3.094 -1.3462  0.3582  1.7501
  770MOL0     H 6244  10.311  10.983   3.515 -1.1392 -0.2067  0.5701
  770MOL0     H 6245  10.123  10.942   3.646  1.5854 -1.3270  1.0128
  770MOL0     H 6246   9.832  11.252   4.004  4.7828 -1.1273  1.7265
  770MOL0     H 6247   9.689  11.215   4.183 -3.0526  0.2006 -1.2693
  770MOL0     H 6248   9.497  10.992   4.438  0.4155  2.2527  1.4959
  770MOL0     H 6249   9.613  11.105   4.378 -1.0480  1.2337 -1.9800
  770MOL0     H 6250   9.413  11.186   4.224 -1.3050  3.2986  0.5562
  770MOL0     H 6251   9.421  11.225   4.395  2.0545  1.0227 -1.7005
  770MOL0     H 6252   9.284  10.980   4.294  1.8021  1.1547  0.2669
  770MOL0     H 6253   9.291  11.022   4.453  2.2879 -0.0829 -0.6587
  770MOL0     H 6254   9.130  11.155   4.233  1.9464  0.4804 -0.0623
  770MOL0     H 6255   9.143  11.240   4.383  1.3627  0.4274 -1.3144
  770MOL0     H 6256   8.867  10.931   4.487 -0.1095  0.5172  0.2870
  770MOL0     H 6257   9.626  10.798   4.070  0.3442 -0.7045 -1.0100
  770MOL0     H 6258   9.829  10.730   3.925 -0.1199 -0.6786 -0.1662
  770MOL0     H 6259   9.693  10.779   3.811 -0.1459 -4.0931  0.6672
  770MOL0     H 6260   9.865  10.840   3.788  0.2054  2.4489  2.1471
  771MOL0     O 6261   3.190   8.257   0.218 -0.0572 -0.2191 -0.2602
  771MOL0     C 6262   3.222   8.190   0.310  0.7404 -0.1069 -0.9616
  771MOL0     O 6263   3.337   8.198   0.380 -0.0921 -0.7139 -0.2327
  771MOL0     C 6264   3.439   8.286   0.349  0.2955 -0.4285  0.8799
  771MOL0     C 6265   3.498   8.379   0.433 -0.3475  0.1131 -0.4603
  771MOL0     C 6266   3.600   8.460   0.391 -0.9326  0.1830 -0.0963
  771MOL0     C 6267   3.657   8.445   0.266  0.7732 -0.3010  0.7523
  771MOL0     O 6268   3.767   8.529   0.240  0.7450 -0.2596 -0.5634
  771MOL0     C 6269   3.805   8.571   0.112 -0.8009  0.0902 -0.2319
  771MOL0     C 6270   3.935   8.640   0.134 -0.8332 -1.2027 -0.5182
  771MOL0     C 6271   4.001   8.664   0.002 -0.2646  0.1883  0.0312
  771MOL0     C 6272   4.130   8.740   0.006  0.3628 -0.0409  0.2277
  771MOL0     C 6273   4.264   8.660   0.029  0.3798  0.3724  0.8126
  771MOL0     C 6274   4.394   8.745   0.024 -0.1237  0.8719 -0.2629
  771MOL0     C 6275   4.517   8.650   0.037 -0.1935 -0.3710  0.1688
  771MOL0     C 6276   4.651   8.718   0.015  0.3627  1.0251 -0.3224
  771MOL0     N 6277   4.681   8.810   0.123  0.3079 -0.1722  0.4546
  771MOL0     C 6278   4.714   8.772   0.249  0.0363 -0.4280 -0.6515
  771MOL0     C 6279   4.711   8.893   0.309 -0.2290 -0.4308 -0.3957
  771MOL0     C 6280   4.746   8.903   0.454  0.3524 -0.2252  0.3436
  771MOL0     C 6281   4.838   8.784   0.507  0.1442  0.6372  0.3256
  771MOL0     C 6282   4.863   8.786   0.662  0.1242 -0.3704 -0.1360
  771MOL0     C 6283   4.988   8.713   0.709  0.4212  0.3285 -0.1138
  771MOL0     O 6284   5.010   8.780   0.840 -0.5583 -0.2165 -0.1725
  771MOL0     C 6285   5.114   8.737   0.919 -0.1039  0.4416 -0.3902
  771MOL0     C 6286   5.218   8.659   0.873 -0.6135  0.1263  0.0534
  771MOL0     C 6287   5.335   8.634   0.949  0.0355  0.1853  0.8151
  771MOL0     C 6288   5.456   8.574   0.884 -0.8756 -0.5837 -0.4064
  771MOL0     C 6289   5.326   8.677   1.086 -0.7879 -0.0472 -0.2263
  771MOL0     C 6290   5.439   8.669   1.183  0.4503 -0.4921 -0.1206
  771MOL0     O 6291   5.433   8.761   1.292 -0.0331  0.8052 -0.0668
  771MOL0     C 6292   5.520   8.767   1.399 -0.4958  0.6678  0.8749
  771MOL0     C 6293   5.641   8.692   1.415 -0.6450  0.1573  0.2658
  771MOL0     C 6294   5.723   8.696   1.526  0.1295  1.0813  0.3281
  771MOL0     C 6295   5.683   8.776   1.640 -0.2717  0.7879  0.0182
  771MOL0     O 6296   5.761   8.770   1.757  0.3952  0.1251 -0.7437
  771MOL0     C 6297   5.899   8.733   1.751 -0.4586 -0.7025 -1.7931
  771MOL0     C 6298   5.938   8.642   1.869  0.1190 -0.3738  0.5932
  771MOL0     C 6299   5.920   8.499   1.822  0.8967 -0.7200 -0.0651
  771MOL0     C 6300   6.046   8.432   1.753 -0.2794  0.9628 -0.1384
  771MOL0     C 6301   6.161   8.424   1.857 -0.0444 -0.2693  0.1438
  771MOL0     C 6302   6.272   8.328   1.816  0.1931 -0.3390 -0.1826
  771MOL0     C 6303   6.384   8.322   1.924  0.1153  0.3585  0.7558
  771MOL0     C 6304   6.476   8.219   1.870  0.0359  0.4025 -0.3354
  771MOL0    Cl 6305   6.629   8.234   1.969 -0.1940 -0.0879 -0.1932
  771MOL0     C 6306   5.568   8.846   1.626  1.2121  0.8466 -0.9850
  771MOL0     C 6307   5.493   8.853   1.507 -0.1554 -0.2475 -0.7793
  771MOL0     O 6308   5.525   8.585   1.165 -0.4630  0.6937  0.1129
  771MOL0     C 6309   5.211   8.742   1.136  0.6202 -0.3840  0.1042
  771MOL0     C 6310   5.106   8.771   1.059  0.5820  0.7062 -0.1914
  771MOL0     N 6311   4.679   8.991   0.216  0.7343  0.2066 -0.4196
  771MOL0     N 6312   4.662   8.939   0.101 -0.3390  0.7210 -0.1178
  771MOL0     C 6313   3.595   8.360   0.169 -0.1382  0.4744 -0.7577
  771MOL0     C 6314   3.490   8.277   0.215  0.1486 -0.1643  0.1099
  771MOL0     C 6315   3.125   8.082   0.351 -0.2113 -0.7982 -0.1924
  771MOL0     C 6316   3.083   8.081   0.488 -0.1460  0.9904 -0.0303
  771MOL0     C 6317   3.002   7.983   0.549 -0.1109  0.6934 -0.7437
  771MOL0     C 6318   2.932   7.893   0.469  0.2379  0.3248  0.8405
  771MOL0     O 6319   2.841   7.808   0.537 -1.0623  0.1253  0.5987
  771MOL0     C 6320   2.786   7.694   0.469 -0.9291  0.1541  0.4068
  771MOL0     C 6321   2.651   7.656   0.524  0.5716  0.3567  0.2945
  771MOL0     C 6322   2.659   7.627   0.668  0.0011 -0.3136  0.6182
  771MOL0     C 6323   2.523   7.611   0.736 -0.2432  0.2701 -0.0340
  771MOL0     C 6324   2.450   7.495   0.677  0.7637 -0.8173  0.4657
  771MOL0     C 6325   2.391   7.402   0.619  0.0897  0.0189 -0.5731
  771MOL0     C 6326   2.954   7.901   0.320 -0.7993 -0.5320 -0.4869
  771MOL0     C 6327   3.053   7.991   0.269 -0.6126  0.6101 -0.0975
  771MOL0     C 6328   3.068   7.997   0.124  0.4486  0.5743  0.1660
  771MOL0     H 6329   3.448   8.373   0.529 -0.3679  2.8831 -0.1960
  771MOL0     H 6330   3.636   8.532   0.464 -0.9273  1.6534 -1.4842
  771MOL0     H 6331   3.732   8.640   0.069 -0.5427  0.3508 -0.2487
  771MOL0     H 6332   3.803   8.480   0.051 -1.4959 -1.3561  1.8591
  771MOL0     H 6333   3.926   8.738   0.182 -0.4478  0.9530 -4.4734
  771MOL0     H 6334   4.002   8.577   0.193  0.5491  2.1529  1.7690
  771MOL0     H 6335   4.000   8.578  -0.066  1.5360 -1.3174  1.7712
  771MOL0     H 6336   3.937   8.736  -0.049  0.3381  0.4195 -0.4034
  771MOL0     H 6337   4.134   8.808  -0.080  0.2510  1.3881  1.3100
  771MOL0     H 6338   4.122   8.813   0.087  2.2862  0.5172 -0.0175
  771MOL0     H 6339   4.269   8.578  -0.044  1.4911 -0.2027  1.5158
  771MOL0     H 6340   4.260   8.607   0.125  1.1601  1.9216  1.7333
  771MOL0     H 6341   4.405   8.803  -0.069  1.0837 -0.7400 -1.1695
  771MOL0     H 6342   4.388   8.816   0.107  0.9232  0.9934 -0.2898
  771MOL0     H 6343   4.511   8.575  -0.043 -0.8868  1.2236 -1.3411
  771MOL0     H 6344   4.527   8.597   0.133  5.4816  0.0753  0.1587
  771MOL0     H 6345   4.730   8.643   0.004 -0.4953 -0.2842  1.7329
  771MOL0     H 6346   4.648   8.771  -0.080  3.2911  1.2116 -0.4128
  771MOL0     H 6347   4.730   8.670   0.280 -0.5906 -0.2854  0.1655
  771MOL0     H 6348   4.651   8.909   0.507 -0.7954  0.3035 -1.6773
  771MOL0     H 6349   4.798   8.999   0.465 -2.0738  1.2637 -0.4035
  771MOL0     H 6350   4.803   8.686   0.474 -2.1943  1.9145 -1.2660
  771MOL0     H 6351   4.937   8.797   0.462  0.1999 -5.0661 -2.0266
  771MOL0     H 6352   4.877   8.892   0.684  1.5693 -0.3956 -0.8503
  771MOL0     H 6353   4.777   8.749   0.719  0.8688  0.7718  1.8095
  771MOL0     H 6354   4.973   8.605   0.719  0.9183  0.3634  1.2344
  771MOL0     H 6355   5.074   8.733   0.645  2.8251 -2.6553  1.8450
  771MOL0     H 6356   5.238   8.628   0.771  0.4575  2.2731 -0.4586
  771MOL0     H 6357   5.467   8.466   0.892  0.3158 -0.7928 -3.4949
  771MOL0     H 6358   5.546   8.622   0.922 -0.5256 -1.0796 -0.5964
  771MOL0     H 6359   5.442   8.595   0.777 -0.9807 -1.6839 -0.6195
  771MOL0     H 6360   5.681   8.629   1.335  2.1641  1.7515  0.3018
  771MOL0     H 6361   5.803   8.624   1.532 -2.1040 -1.5392  0.5970
  771MOL0     H 6362   5.923   8.681   1.658  0.5370 -1.5179 -1.1128
  771MOL0     H 6363   5.963   8.821   1.754 -1.4010  0.0127  0.8746
  771MOL0     H 6364   6.040   8.670   1.897 -0.0558  5.4192 -2.9684
  771MOL0     H 6365   5.881   8.669   1.958  0.8515  0.4479  0.8344
  771MOL0     H 6366   5.826   8.489   1.766  1.1384 -0.3565 -0.5376
  771MOL0     H 6367   5.899   8.443   1.914 -2.5890  0.6115  0.1013
  771MOL0     H 6368   6.086   8.493   1.672  0.5040  0.5397 -0.0764
  771MOL0     H 6369   6.029   8.328   1.722 -0.1655  1.0576 -0.5254
  771MOL0     H 6370   6.207   8.523   1.852  0.4042 -0.5384 -1.7479
  771MOL0     H 6371   6.126   8.399   1.957  1.6474  0.5546  0.9830
  771MOL0     H 6372   6.319   8.366   1.724 -0.8697  1.4983 -0.0172
  771MOL0     H 6373   6.231   8.230   1.791 -1.2109  0.3794 -0.7824
  771MOL0     H 6374   6.344   8.299   2.023 -0.4721  0.7898  0.6206
  771MOL0     H 6375   6.435   8.418   1.917  0.0660  0.4000  0.9910
  771MOL0     H 6376   6.503   8.226   1.764  1.9595  1.5645  0.1728
  771MOL0     H 6377   6.431   8.121   1.888  1.0007  0.3621  2.4351
  771MOL0     H 6378   5.532   8.910   1.706 -0.3602 -1.9903  0.7589
  771MOL0     H 6379   5.410   8.923   1.499 -0.1293 -0.3035 -1.5924
  771MOL0     H 6380   5.201   8.779   1.238  0.8576  0.4702 -0.1770
  771MOL0     H 6381   5.020   8.820   1.103  0.4664  0.5664 -0.2585
  771MOL0     H 6382   3.649   8.356   0.075  0.7404  0.4290 -0.2693
  771MOL0     H 6383   3.438   8.218   0.140  1.3903  0.4872 -1.3377
  771MOL0     H 6384   3.124   8.155   0.556 -0.3837  0.8917  0.2225
  771MOL0     H 6385   2.980   7.986   0.655 -0.4527 -0.0318 -0.7880
  771MOL0     H 6386   2.772   7.705   0.361  0.9194 -1.3754 -0.0492
  771MOL0     H 6387   2.855   7.609   0.474 -2.2149 -0.8369  2.1522
  771MOL0     H 6388   2.618   7.574   0.460 -0.5624  1.4937 -0.6304
  771MOL0     H 6389   2.577   7.736   0.511 -2.5760 -2.5848 -1.1412
  771MOL0     H 6390   2.717   7.534   0.677 -1.8935 -1.8755 -1.9359
  771MOL0     H 6391   2.703   7.720   0.706  2.3586 -1.6954  1.5329
  771MOL0     H 6392   2.458   7.698   0.730 -0.2697  0.1522 -2.0808
  771MOL0     H 6393   2.541   7.603   0.844 -1.5013 -1.2838  0.1042
  771MOL0     H 6394   2.335   7.322   0.576  2.5982 -1.7842 -0.7188
  771MOL0     H 6395   2.904   7.829   0.256 -2.2775 -2.1606  2.3210
  771MOL0     H 6396   3.015   8.087   0.094  0.1998 -0.0206 -1.2549
  771MOL0     H 6397   3.172   8.012   0.092  1.1970 -1.3545  1.4412
  771MOL0     H 6398   3.026   7.905   0.081  1.5565  0.7592 -1.4065
  772MOL0     O 6399   7.516   1.218   1.789 -0.3376  0.0719  0.1878
  772MOL0     C 6400   7.624   1.158   1.790  0.4123 -0.6998 -0.2705
  772MOL0     O 6401   7.647   1.022   1.781 -0.7245 -0.4806  0.0848
  772MOL0     C 6402   7.540   0.939   1.751  0.0651  0.0736  0.5025
  772MOL0     C 6403   7.539   0.812   1.804  0.5998  0.1102 -0.1344
  772MOL0     C 6404   7.437   0.721   1.781 -0.0807 -0.2854  0.7386
  772MOL0     C 6405   7.345   0.750   1.680  0.8542  0.2925 -0.2127
  772MOL0     O 6406   7.242   0.662   1.658  0.2390 -0.2497  0.1123
  772MOL0     C 6407   7.114   0.728   1.660 -0.7025 -0.3539  0.3102
  772MOL0     C 6408   7.009   0.612   1.671 -0.4923  0.6688 -0.6047
  772MOL0     C 6409   7.036   0.513   1.783 -0.0219  0.1772 -0.3295
  772MOL0     C 6410   6.924   0.399   1.777  0.6132 -0.5675 -0.1462
  772MOL0     C 6411   6.791   0.436   1.843  0.7589  0.0467  0.0541
  772MOL0     C 6412   6.673   0.334   1.840  1.0044  1.9246  0.1385
  772MOL0     C 6413   6.555   0.378   1.936  0.2982  0.0115  1.0423
  772MOL0     C 6414   6.486   0.509   1.893 -0.3312 -0.5640  0.2994
  772MOL0     N 6415   6.345   0.512   1.942  0.2227 -1.2186  0.5954
  772MOL0     C 6416   6.319   0.582   2.059  0.5803  0.4254  0.3396
  772MOL0     C 6417   6.184   0.594   2.062  0.5316 -0.6178  0.5774
  772MOL0     C 6418   6.103   0.656   2.171  0.8699 -0.6358  0.2759
  772MOL0     C 6419   6.060   0.561   2.280  0.1987  0.5609 -0.3809
  772MOL0     C 6420   6.036   0.642   2.415  0.6396  1.8533 -0.1431
  772MOL0     C 6421   6.157   0.698   2.487 -0.2774  0.1206  0.2700
  772MOL0     O 6422   6.252   0.592   2.484 -0.5969  0.1099 -0.1158
  772MOL0     C 6423   6.385   0.619   2.463 -0.3651  0.2893  0.1889
  772MOL0     C 6424   6.460   0.741   2.478 -0.1814 -0.0060 -0.3835
  772MOL0     C 6425   6.595   0.752   2.443 -0.6279  0.3087 -0.3178
  772MOL0     C 6426   6.666   0.894   2.452 -0.1665  0.1568  1.0402
  772MOL0     C 6427   6.662   0.640   2.389  1.2137  0.0693 -0.4268
  772MOL0     C 6428   6.808   0.641   2.349 -0.3511 -0.3122  0.4271
  772MOL0     O 6429   6.864   0.747   2.276  0.3022 -0.7361 -0.1469
  772MOL0     C 6430   6.997   0.746   2.250 -0.2725  0.5736 -0.0430
  772MOL0     C 6431   7.099   0.700   2.338  0.8072  0.3446  0.5640
  772MOL0     C 6432   7.224   0.667   2.296  0.5865 -0.4688  0.1354
  772MOL0     C 6433   7.279   0.717   2.179  1.3523  0.0260  0.2723
  772MOL0     O 6434   7.408   0.696   2.147 -0.3113 -0.0633  0.5054
  772MOL0     C 6435   7.488   0.621   2.235 -0.0723 -0.0454  0.2947
  772MOL0     C 6436   7.617   0.611   2.158  0.1324 -0.4306  0.2498
  772MOL0     C 6437   7.737   0.566   2.238  0.0255 -0.3445 -0.4007
  772MOL0     C 6438   7.857   0.564   2.141 -0.8040 -0.2284  0.8296
  772MOL0     C 6439   7.987   0.508   2.202  0.4977  0.5388 -0.2195
  772MOL0     C 6440   7.976   0.361   2.257 -1.3504 -0.9618 -0.1817
  772MOL0     C 6441   8.110   0.312   2.310 -0.1310 -0.4545 -0.6928
  772MOL0     C 6442   8.120   0.333   2.462  0.5552  0.1761 -0.1475
  772MOL0    Cl 6443   8.288   0.290   2.501  0.1014 -0.1650 -0.1711
  772MOL0     C 6444   7.193   0.787   2.095 -0.3772 -0.5953 -0.3767
  772MOL0     C 6445   7.046   0.789   2.124 -0.8035 -0.3998 -0.0522
  772MOL0     O 6446   6.867   0.530   2.363  1.1461 -0.2264 -0.0968
  772MOL0     C 6447   6.591   0.512   2.390 -0.1916 -0.4099 -0.9316
  772MOL0     C 6448   6.451   0.503   2.421  0.8483  0.3233 -0.0114
  772MOL0     N 6449   6.140   0.543   1.942 -0.0755  0.6381 -0.4223
  772MOL0     N 6450   6.234   0.499   1.872 -0.3487 -0.0048  0.6087
  772MOL0     C 6451   7.355   0.876   1.607 -0.5769  0.2987 -0.1675
  772MOL0     C 6452   7.454   0.962   1.643 -0.0116 -0.6023 -0.0781
  772MOL0     C 6453   7.745   1.242   1.798  0.0416  0.0019 -0.1981
  772MOL0     C 6454   7.853   1.201   1.721  0.8974  0.5060  0.2331
  772MOL0     C 6455   7.962   1.286   1.701  0.2101  0.1982  0.6273
  772MOL0     C 6456   7.977   1.406   1.774 -0.0110 -0.8205  0.1900
  772MOL0     O 6457   8.090   1.482   1.745 -0.0436  0.0668 -0.6527
  772MOL0     C 6458   8.144   1.571   1.842  0.3203  0.1790 -0.3451
  772MOL0     C 6459   8.296   1.598   1.807  0.1229 -0.2500 -0.1665
  772MOL0     C 6460   8.380   1.692   1.890 -0.4684 -0.4619  0.7068
  772MOL0     C 6461   8.491   1.761   1.807  1.0597 -0.3892  0.7193
  772MOL0     C 6462   8.432   1.870   1.723  1.2230 -0.0242 -0.3630
  772MOL0     C 6463   8.391   1.950   1.636  1.0472  0.0508 -0.3991
  772MOL0     C 6464   7.873   1.444   1.862  0.6282  0.0189  0.5137
  772MOL0     C 6465   7.762   1.364   1.881  0.5703  0.1431 -0.6549
  772MOL0     C 6466   7.664   1.392   1.989 -0.1592 -0.6592 -0.4634
  772MOL0     H 6467   7.613   0.788   1.879 -2.0850  1.0163  3.0412
  772MOL0     H 6468   7.434   0.636   1.850 -0.3493  1.2099  2.6557
  772MOL0     H 6469   7.095   0.777   1.564  0.2059 -0.5624  0.0100
  772MOL0     H 6470   7.111   0.791   1.750 -1.0101 -0.0134  0.0642
  772MOL0     H 6471   6.915   0.667   1.686 -0.3485  1.6090 -2.7971
  772MOL0     H 6472   7.022   0.570   1.571  0.6832  1.5692 -0.8509
  772MOL0     H 6473   7.134   0.465   1.782 -1.0915 -2.2250  1.1180
  772MOL0     H 6474   7.025   0.568   1.877 -0.4064 -0.6026  0.0886
  772MOL0     H 6475   6.912   0.357   1.677 -3.9164  1.2757 -0.6072
  772MOL0     H 6476   6.952   0.318   1.845  2.9033 -0.1388 -0.4994
  772MOL0     H 6477   6.750   0.527   1.798 -3.6441 -0.4493  2.4772
  772MOL0     H 6478   6.817   0.471   1.943  0.9978  2.4296 -0.7853
  772MOL0     H 6479   6.636   0.328   1.737  1.6020 -3.8606 -0.1093
  772MOL0     H 6480   6.699   0.230   1.864  0.7315  1.5400 -1.1339
  772MOL0     H 6481   6.590   0.389   2.039  1.2702  1.4388  0.5977
  772MOL0     H 6482   6.486   0.293   1.939 -1.2695  1.2610  1.5600
  772MOL0     H 6483   6.540   0.598   1.929  3.9013 -1.7483 -2.4092
  772MOL0     H 6484   6.486   0.518   1.784  0.1426 -1.1528  0.2451
  772MOL0     H 6485   6.392   0.619   2.131  1.4702  1.4404 -1.0341
  772MOL0     H 6486   6.012   0.710   2.142  1.9244 -0.1232 -2.3540
  772MOL0     H 6487   6.168   0.735   2.210  0.6575  0.0638 -0.7372
  772MOL0     H 6488   5.969   0.510   2.247  2.2287 -3.7054 -0.0204
  772MOL0     H 6489   6.135   0.483   2.291 -0.8577 -0.3604  0.4808
  772MOL0     H 6490   5.972   0.728   2.399 -3.0024 -0.0376  2.6969
  772MOL0     H 6491   5.991   0.579   2.492  4.9251 -1.5380  0.0138
  772MOL0     H 6492   6.193   0.788   2.436  0.3957 -0.1981  0.1674
  772MOL0     H 6493   6.140   0.735   2.589  1.0106  3.2402 -0.5280
  772MOL0     H 6494   6.409   0.832   2.508 -1.2673 -0.9316  0.7010
  772MOL0     H 6495   6.610   0.962   2.516 -1.4344  1.0014 -0.8915
  772MOL0     H 6496   6.687   0.936   2.354 -1.2149  2.0726  1.5918
  772MOL0     H 6497   6.762   0.880   2.504  0.0108 -0.9300  0.4560
  772MOL0     H 6498   7.067   0.662   2.435  2.0514 -0.8614  0.5367
  772MOL0     H 6499   7.285   0.629   2.377  1.8084  1.6725  0.3180
  772MOL0     H 6500   7.507   0.671   2.330  2.1184 -2.4981  1.2541
  772MOL0     H 6501   7.443   0.523   2.254  0.3202 -0.2562  0.1578
  772MOL0     H 6502   7.603   0.539   2.077  2.6519  0.5278 -1.1635
  772MOL0     H 6503   7.641   0.711   2.123  1.8132 -0.7648  0.3350
  772MOL0     H 6504   7.709   0.468   2.278  0.1693 -0.9408 -1.7328
  772MOL0     H 6505   7.755   0.638   2.319  1.0266  1.5902 -2.2308
  772MOL0     H 6506   7.887   0.664   2.109  2.8068 -2.0056 -2.0019
  772MOL0     H 6507   7.833   0.505   2.052  1.5983  0.5044 -0.3804
  772MOL0     H 6508   8.065   0.508   2.125 -0.9109  1.7851 -1.7321
  772MOL0     H 6509   8.009   0.574   2.286  0.0956  2.9851 -1.9462
  772MOL0     H 6510   7.930   0.305   2.175 -0.7276  1.5136 -2.3558
  772MOL0     H 6511   7.909   0.362   2.345  0.2121  2.1787  1.1182
  772MOL0     H 6512   8.189   0.351   2.246  0.3165 -0.3525 -0.0855
  772MOL0     H 6513   8.120   0.204   2.297  2.1035 -0.2051 -1.4836
  772MOL0     H 6514   8.063   0.261   2.522  0.8951  0.3827  0.4338
  772MOL0     H 6515   8.093   0.434   2.494  0.3500 -0.3104  1.2770
  772MOL0     H 6516   7.242   0.830   2.008  2.1411  1.2133  1.7577
  772MOL0     H 6517   6.977   0.832   2.052 -0.0046 -0.6072 -0.9558
  772MOL0     H 6518   6.654   0.425   2.374 -0.8898 -1.6574  2.3735
  772MOL0     H 6519   6.394   0.411   2.417 -1.1309  1.2823  2.7753
  772MOL0     H 6520   7.289   0.899   1.524  0.6971  0.2551 -1.2183
  772MOL0     H 6521   7.458   1.058   1.593  0.2583  1.1191  3.0244
  772MOL0     H 6522   7.851   1.114   1.657 -0.8629 -1.5450  2.8748
  772MOL0     H 6523   8.042   1.256   1.635 -1.6374 -1.5750 -0.9602
  772MOL0     H 6524   8.095   1.668   1.838 -0.2165  0.0371  1.6683
  772MOL0     H 6525   8.145   1.521   1.939  2.5859  2.1420  0.7465
  772MOL0     H 6526   8.288   1.631   1.703 -1.2222 -0.1267 -0.0464
  772MOL0     H 6527   8.336   1.498   1.790  1.4307  0.4916 -1.6791
  772MOL0     H 6528   8.321   1.776   1.929  0.8242  1.1925 -0.7369
  772MOL0     H 6529   8.430   1.641   1.974  3.7312  2.4009  0.2789
  772MOL0     H 6530   8.550   1.689   1.750  0.9834  0.7562 -0.8580
  772MOL0     H 6531   8.561   1.809   1.876 -0.0468  1.6573  0.4861
  772MOL0     H 6532   8.362   2.018   1.559  2.0141  1.1926  0.2237
  772MOL0     H 6533   7.881   1.537   1.917 -1.0015  1.1036 -0.9713
  772MOL0     H 6534   7.623   1.297   2.022  2.2685 -0.6305  3.3400
  772MOL0     H 6535   7.707   1.444   2.076 -0.6877  0.2076 -0.7037
  772MOL0     H 6536   7.585   1.450   1.940 -0.0108 -0.0184  0.0330
  773MOL0     O 6537  10.494  10.968   5.579 -0.0386 -0.0729  0.0838
  773MOL0     C 6538  10.391  11.009   5.535  0.3716 -0.5885  0.3745
  773MOL0     O 6539  10.270  10.992   5.597  0.2840 -0.6209  0.1232
  773MOL0     C 6540  10.264  10.984   5.736  1.0449  0.0166  1.1424
  773MOL0     C 6541  10.298  11.104   5.810  0.7774 -0.0886  1.7343
  773MOL0     C 6542  10.291  11.103   5.947  1.0028  0.1169  0.5884
  773MOL0     C 6543  10.243  10.985   6.015 -0.8472  0.7462  0.5471
  773MOL0     O 6544  10.262  10.970   6.149 -0.0052  0.2425 -0.1185
  773MOL0     C 6545  10.138  10.955   6.216 -0.4738  0.0106 -0.4336
  773MOL0     C 6546  10.131  10.836   6.312  0.0988 -0.9698 -0.2080
  773MOL0     C 6547   9.996  10.768   6.298  0.2857  0.7780 -0.3752
  773MOL0     C 6548   9.982  10.649   6.394 -0.5822 -0.5449 -0.5171
  773MOL0     C 6549   9.989  10.700   6.539 -0.5856  0.5287  0.0216
  773MOL0     C 6550   9.948  10.593   6.646  0.1264  0.7928  0.1555
  773MOL0     C 6551   9.968  10.639   6.784 -0.3252  0.2579 -1.4299
  773MOL0     C 6552   9.891  10.569   6.891  0.7026 -0.5081  0.7145
  773MOL0     N 6553   9.973  10.461   6.945 -0.2802 -0.1152  0.1206
  773MOL0     C 6554  10.094  10.487   7.001  0.0350 -0.2765 -0.1443
  773MOL0     C 6555  10.141  10.364   7.042  0.7697  0.5419 -0.1316
  773MOL0     C 6556  10.267  10.338   7.115  0.1684 -0.3794  0.3232
  773MOL0     C 6557  10.235  10.310   7.258  0.1596  0.1424 -0.3804
  773MOL0     C 6558  10.349  10.230   7.321  0.4255 -0.4644 -0.2378
  773MOL0     C 6559  10.335  10.219   7.477  0.3072  0.4415  0.5100
  773MOL0     O 6560  10.413  10.111   7.533  0.2917 -0.0996 -0.3084
  773MOL0     C 6561  10.547  10.101   7.499  1.0232 -0.1092  0.0739
  773MOL0     C 6562  10.586   9.981   7.450  0.5288 -0.0260  0.3523
  773MOL0     C 6563  10.714   9.954   7.404  0.6429 -0.1808 -0.9909
  773MOL0     C 6564  10.752   9.815   7.352 -0.3407 -0.1275 -0.2550
  773MOL0     C 6565  10.816  10.059   7.429  0.1490  0.3836  0.5224
  773MOL0     C 6566  10.964  10.046   7.389  0.5393  0.5177  0.0710
  773MOL0     O 6567  10.990   9.971   7.277  0.0786  0.3845 -0.2338
  773MOL0     C 6568  11.117   9.971   7.225 -0.5371 -0.1567  0.5171
  773MOL0     C 6569  11.221   9.908   7.295  0.6318  0.0193  0.2005
  773MOL0     C 6570  11.348   9.894   7.241 -0.4531 -0.0822 -0.0705
  773MOL0     C 6571  11.389   9.956   7.127 -0.5455  0.2223 -0.1194
  773MOL0     O 6572  11.515   9.941   7.086  0.1880 -0.3787  0.1769
  773MOL0     C 6573  11.555  10.007   6.961  0.0664  0.0937 -0.7537
  773MOL0     C 6574  11.696   9.961   6.927  0.2304 -0.7133  0.5322
  773MOL0     C 6575  11.789  10.016   7.034 -0.6140 -0.3732  0.1941
  773MOL0     C 6576  11.938   9.985   7.003 -0.7414  0.1848 -0.0750
  773MOL0     C 6577  12.031  10.053   7.100  0.5537  0.8190  0.0239
  773MOL0     C 6578  12.083  10.179   7.027  0.6399 -0.5081 -0.2441
  773MOL0     C 6579  12.159  10.269   7.123 -0.5294  0.2373 -1.2337
  773MOL0     C 6580  12.234  10.390   7.061 -0.6803 -1.1449 -0.6361
  773MOL0    Cl 6581  12.356  10.339   6.943  0.1339 -0.2549  0.0769
  773MOL0     C 6582  11.288  10.027   7.061 -0.0345 -0.0479  0.6162
  773MOL0     C 6583  11.152  10.036   7.110 -0.1357  0.1471  0.5848
  773MOL0     O 6584  11.046  10.114   7.448  1.1601  0.1134 -0.5837
  773MOL0     C 6585  10.781  10.175   7.500  0.5910 -0.0860 -0.0512
  773MOL0     C 6586  10.644  10.198   7.535 -0.2201  0.2333  0.6208
  773MOL0     N 6587  10.045  10.265   7.005 -0.8874  0.0844  0.0635
  773MOL0     N 6588   9.947  10.330   6.942  0.1360  0.3530 -0.2724
  773MOL0     C 6589  10.197  10.870   5.937 -0.5627 -0.8769 -0.4324
  773MOL0     C 6590  10.201  10.882   5.799  1.3292  0.1289 -0.7576
  773MOL0     C 6591  10.398  11.063   5.392 -0.9789 -0.0749  0.0604
  773MOL0     C 6592  10.511  11.048   5.307 -0.0783 -0.4432  0.0926
  773MOL0     C 6593  10.517  11.095   5.172 -0.2761 -0.3740  0.8807
  773MOL0     C 6594  10.402  11.158   5.121  0.0589 -0.0946 -0.2131
  773MOL0     O 6595  10.383  11.210   4.992  0.3788  0.5866 -1.2452
  773MOL0     C 6596  10.498  11.203   4.901  0.4112 -0.3441  0.4168
  773MOL0     C 6597  10.471  11.264   4.771 -0.3217  0.1633  0.2710
  773MOL0     C 6598  10.388  11.184   4.676  1.1119  0.4084 -0.7978
  773MOL0     C 6599  10.455  11.058   4.616 -0.2135 -0.4484  0.6151
  773MOL0     C 6600  10.362  10.951   4.581 -0.8473 -0.0359  0.4450
  773MOL0     C 6601  10.307  10.840   4.556 -0.5104 -0.9318 -0.6298
  773MOL0     C 6602  10.289  11.174   5.205 -0.1132  0.6542  0.4532
  773MOL0     C 6603  10.281  11.132   5.339  0.9958  0.7751 -0.3356
  773MOL0     C 6604  10.148  11.168   5.418  1.0812  0.0852 -0.4339
  773MOL0     H 6605  10.318  11.200   5.763 -1.0736 -0.9255 -0.9859
  773MOL0     H 6606  10.334  11.184   6.004  1.4549 -0.6002  1.2935
  773MOL0     H 6607  10.053  10.968   6.149 -0.7799  0.9124  0.1084
  773MOL0     H 6608  10.135  11.050   6.271  0.0175  0.5737 -1.3517
  773MOL0     H 6609  10.218  10.771   6.301  1.4109  0.7151 -0.1834
  773MOL0     H 6610  10.133  10.878   6.413  2.3265  1.5108 -1.1733
  773MOL0     H 6611   9.917  10.841   6.318  1.9464  2.3220  0.8854
  773MOL0     H 6612   9.992  10.743   6.191 -2.1296  3.5974 -1.0601
  773MOL0     H 6613   9.886  10.604   6.368 -0.1615 -0.5980 -2.0852
  773MOL0     H 6614  10.062  10.579   6.368  1.4708  1.0939  1.0347
  773MOL0     H 6615   9.919  10.783   6.542 -0.3636  0.8225 -1.8147
  773MOL0     H 6616  10.091  10.737   6.558  1.3352 -2.2580 -3.4806
  773MOL0     H 6617   9.843  10.567   6.633  0.0582  0.0496  1.9851
  773MOL0     H 6618  10.009  10.503   6.634 -1.8562 -0.6653  0.5919
  773MOL0     H 6619   9.937  10.744   6.788  3.4576  1.5441  1.4950
  773MOL0     H 6620  10.076  10.640   6.804  0.0645  0.3050 -3.4001
  773MOL0     H 6621   9.862  10.647   6.963  2.2130  1.6098 -0.8297
  773MOL0     H 6622   9.797  10.536   6.847 -0.2376  3.1509 -0.3497
  773MOL0     H 6623  10.148  10.580   7.011  0.9599 -0.4102 -2.9844
  773MOL0     H 6624  10.336  10.423   7.115  0.7934 -0.8425  2.5382
  773MOL0     H 6625  10.323  10.251   7.079  2.2910  0.3518  1.6453
  773MOL0     H 6626  10.213  10.396   7.322  0.7424 -0.6709  0.9668
  773MOL0     H 6627  10.149  10.247   7.284  1.5168 -1.0241  1.5741
  773MOL0     H 6628  10.342  10.130   7.278  0.1144 -0.3290 -0.5082
  773MOL0     H 6629  10.449  10.268   7.300  0.0746  0.1267 -0.8874
  773MOL0     H 6630  10.372  10.311   7.523 -1.2865  0.6288  1.4927
  773MOL0     H 6631  10.232  10.204   7.513 -0.3777 -0.5241 -1.6947
  773MOL0     H 6632  10.512   9.902   7.450 -0.0261  0.4529  2.1378
  773MOL0     H 6633  10.774   9.833   7.246  0.9311 -2.6187 -0.4885
  773MOL0     H 6634  10.667   9.749   7.368 -0.6164  0.2584 -0.1059
  773MOL0     H 6635  10.839   9.776   7.404 -0.2888 -0.2682 -0.4493
  773MOL0     H 6636  11.190   9.850   7.382  0.6643 -0.4973 -0.1313
  773MOL0     H 6637  11.427   9.837   7.289  1.7459  0.7875 -2.4426
  773MOL0     H 6638  11.487   9.986   6.878 -1.7303 -2.0074  1.1064
  773MOL0     H 6639  11.554  10.116   6.973  1.9728 -0.0808  2.1934
  773MOL0     H 6640  11.698   9.852   6.920  0.6239 -0.5907 -4.2189
  773MOL0     H 6641  11.731   9.992   6.828  1.3563 -1.6059  0.6181
  773MOL0     H 6642  11.759   9.975   7.131 -1.3604 -0.8021 -0.2117
  773MOL0     H 6643  11.785  10.126   7.034  2.1402 -0.1661  1.6223
  773MOL0     H 6644  11.960   9.991   6.896  0.4430 -2.0640 -0.0250
  773MOL0     H 6645  11.941   9.879   7.030  0.5975  0.0589 -0.6502
  773MOL0     H 6646  11.987  10.071   7.199 -0.3546 -1.3668  0.0640
  773MOL0     H 6647  12.107   9.980   7.131 -1.4290 -2.4563 -2.2501
  773MOL0     H 6648  11.994  10.225   6.983  0.0178  0.6186  2.0259
  773MOL0     H 6649  12.156  10.140   6.955  1.5968  1.1832 -0.2502
  773MOL0     H 6650  12.225  10.216   7.193 -1.8338 -0.5870 -0.5943
  773MOL0     H 6651  12.086  10.307   7.195  0.1493  0.1828 -0.4945
  773MOL0     H 6652  12.283  10.445   7.142 -0.8841 -0.7700 -0.7639
  773MOL0     H 6653  12.161  10.462   7.022  1.5604  2.9792  1.9599
  773MOL0     H 6654  11.303  10.064   6.960  0.3676  1.5791  1.2343
  773MOL0     H 6655  11.075  10.086   7.052  2.4366  1.0714 -2.3634
  773MOL0     H 6656  10.855  10.246   7.535 -0.1721  0.5558  0.2836
  773MOL0     H 6657  10.618  10.286   7.592  0.0183 -0.8911  2.5621
  773MOL0     H 6658  10.163  10.777   5.982 -1.6569 -0.3013 -0.0571
  773MOL0     H 6659  10.157  10.799   5.745  1.5931  0.4973 -1.5572
  773MOL0     H 6660  10.603  11.010   5.350 -0.4030  0.3173  1.5233
  773MOL0     H 6661  10.604  11.084   5.108 -0.1193  1.1961  0.7746
  773MOL0     H 6662  10.584  11.253   4.947  1.6285 -2.6573  0.7600
  773MOL0     H 6663  10.531  11.100   4.885 -1.3579 -2.0956  5.8702
  773MOL0     H 6664  10.570  11.285   4.730 -1.5229  1.9931 -1.9635
  773MOL0     H 6665  10.418  11.360   4.781 -2.6332 -0.9470 -0.6262
  773MOL0     H 6666  10.300  11.144   4.726  1.2531 -0.8267 -1.5116
  773MOL0     H 6667  10.354  11.241   4.589 -2.6413 -3.6542 -2.3864
  773MOL0     H 6668  10.535  11.019   4.680  1.9084  0.5601 -1.2836
  773MOL0     H 6669  10.505  11.083   4.522 -0.7494 -2.6164 -0.3001
  773MOL0     H 6670  10.281  10.742   4.520 -1.7363 -0.6567 -0.5629
  773MOL0     H 6671  10.202  11.222   5.161  0.1807  1.3543  0.6286
  773MOL0     H 6672  10.092  11.245   5.364  3.1581  1.8081 -0.2576
  773MOL0     H 6673  10.081  11.081   5.422  1.8709 -0.4928  0.8952
  773MOL0     H 6674  10.165  11.201   5.521  6.0312  0.7089 -1.2247
  774MOL0     O 6675  11.303   5.109   3.228 -0.4240  0.2877 -0.3828
  774MOL0     C 6676  11.280   5.130   3.108 -0.2971  0.3617  0.1772
  774MOL0     O 6677  11.373   5.141   3.006  0.2156 -0.9380  0.1508
  774MOL0     C 6678  11.508   5.101   3.021  0.7683  0.5494  0.2128
  774MOL0     C 6679  11.562   5.017   3.122 -0.1054 -0.5833 -1.0717
  774MOL0     C 6680  11.696   4.978   3.124  0.2016 -0.0691  0.2589
  774MOL0     C 6681  11.784   5.023   3.029  0.7230  0.7751 -0.1453
  774MOL0     O 6682  11.912   4.987   3.027 -0.5372 -0.3528  0.1337
  774MOL0     C 6683  11.982   5.039   3.143  0.9511 -0.5371 -0.0789
  774MOL0     C 6684  12.130   5.001   3.143  0.4124  0.7372  0.3519
  774MOL0     C 6685  12.183   5.043   3.008 -0.0419 -0.3433 -1.0025
  774MOL0     C 6686  12.334   5.028   3.017 -0.0691  0.5207 -0.6158
  774MOL0     C 6687  12.407   4.995   2.886  0.0372 -0.5352 -1.2273
  774MOL0     C 6688  12.399   5.111   2.782  0.3535  0.4679 -0.5774
  774MOL0     C 6689  12.486   5.097   2.656  0.2707 -0.0062 -0.6998
  774MOL0     C 6690  12.642   5.079   2.690 -0.0308  0.0618 -0.8513
  774MOL0     N 6691  12.716   5.057   2.568  0.7977  0.2571  0.7960
  774MOL0     C 6692  12.773   5.160   2.494  0.1161  0.6834 -0.6365
  774MOL0     C 6693  12.847   5.098   2.402  0.3515  0.5306  0.4606
  774MOL0     C 6694  12.941   5.175   2.304  0.4100  0.0884 -0.6140
  774MOL0     C 6695  13.061   5.090   2.274 -0.1635 -0.1458  0.0551
  774MOL0     C 6696  13.155   5.169   2.168  0.6018  0.4180 -0.8862
  774MOL0     C 6697  13.307   5.132   2.164  0.0405 -0.4715  0.0058
  774MOL0     O 6698  13.348   5.170   2.298  0.2716  0.2855  0.0579
  774MOL0     C 6699  13.482   5.168   2.316 -0.8145 -0.4280  0.4457
  774MOL0     C 6700  13.568   5.078   2.255  0.0230  0.1057 -0.1306
  774MOL0     C 6701  13.704   5.088   2.287 -0.7486 -0.9685  0.0622
  774MOL0     C 6702  13.787   4.978   2.226 -0.0849 -0.6594  0.4113
  774MOL0     C 6703  13.759   5.199   2.362  0.3499  0.4377  0.4398
  774MOL0     C 6704  13.906   5.219   2.385  0.7947  0.4185 -0.2280
  774MOL0     O 6705  13.985   5.168   2.294 -0.2352 -0.2330  0.3540
  774MOL0     C 6706  14.122   5.171   2.307 -0.1859  0.2215  0.3208
  774MOL0     C 6707  14.203   5.274   2.363 -0.3210  0.6237  0.0577
  774MOL0     C 6708  14.343   5.267   2.373 -0.0611 -0.0804 -0.2388
  774MOL0     C 6709  14.413   5.164   2.316 -0.2388 -0.3162  0.0985
  774MOL0     O 6710  14.551   5.154   2.326 -0.2179  0.3402 -0.0115
  774MOL0     C 6711  14.611   5.181   2.455 -0.2710 -0.6028 -0.3439
  774MOL0     C 6712  14.741   5.104   2.469 -0.1361 -0.5757 -0.2394
  774MOL0     C 6713  14.850   5.128   2.362  0.1334  0.5064  0.8592
  774MOL0     C 6714  14.967   5.030   2.370  0.8680  0.1600 -0.8333
  774MOL0     C 6715  15.075   5.072   2.263  0.9838 -0.2370 -0.0358
  774MOL0     C 6716  15.058   5.002   2.130 -0.0189 -0.6621 -0.5758
  774MOL0     C 6717  15.157   5.052   2.027 -0.7238 -0.0592  0.7098
  774MOL0     C 6718  15.280   4.965   2.034  0.4160 -0.1026 -0.9134
  774MOL0    Cl 6719  15.368   4.990   1.885 -0.4426  0.4267  0.2373
  774MOL0     C 6720  14.339   5.067   2.247  0.6640  1.0027  0.1701
  774MOL0     C 6721  14.192   5.064   2.254 -0.4346 -0.6338  0.5410
  774MOL0     O 6722  13.928   5.292   2.478 -0.6381 -0.0308  0.3245
  774MOL0     C 6723  13.671   5.281   2.417  0.5914 -0.6200 -0.4115
  774MOL0     C 6724  13.532   5.255   2.407  0.1379  0.0499  0.1897
  774MOL0     N 6725  12.829   4.958   2.430  0.7352 -0.7182  0.0451
  774MOL0     N 6726  12.748   4.937   2.515  0.1163 -0.7802  0.1881
  774MOL0     C 6727  11.733   5.110   2.931 -0.3937  0.0049  0.0973
  774MOL0     C 6728  11.598   5.144   2.928 -0.0150 -0.4237  0.3010
  774MOL0     C 6729  11.139   5.094   3.079 -0.8668  0.0224 -0.2943
  774MOL0     C 6730  11.113   5.034   2.952 -0.5479  0.9028 -0.2757
  774MOL0     C 6731  10.980   4.999   2.929 -1.0478  0.8002 -0.7100
  774MOL0     C 6732  10.884   4.997   3.034  0.2539  0.8552  0.9241
  774MOL0     O 6733  10.758   4.943   3.019 -0.1823  0.3182  0.3871
  774MOL0     C 6734  10.746   4.825   2.937  0.1723  0.5506 -0.0557
  774MOL0     C 6735  10.604   4.772   2.935 -0.7528  0.1458 -0.0282
  774MOL0     C 6736  10.535   4.795   3.070 -0.2656 -0.4457 -0.1384
  774MOL0     C 6737  10.400   4.718   3.070  0.0453  0.9996 -1.3124
  774MOL0     C 6738  10.334   4.733   3.199 -0.0701 -1.7584  0.0261
  774MOL0     C 6739  10.289   4.758   3.312  0.1221  0.3827  0.2499
  774MOL0     C 6740  10.916   5.052   3.152 -0.1507 -0.7155  0.2779
  774MOL0     C 6741  11.040   5.096   3.181  0.3084  0.1041  0.3688
  774MOL0     C 6742  11.053   5.169   3.315  0.2912 -0.6463  0.0557
  774MOL0     H 6743  11.496   4.976   3.197 -3.3600  3.9150 -1.1062
  774MOL0     H 6744  11.715   4.894   3.190 -1.6163 -1.7251 -1.2411
  774MOL0     H 6745  11.945   4.994   3.235 -3.6375  2.1064 -0.2973
  774MOL0     H 6746  11.962   5.147   3.147 -0.7381 -0.8470  0.9301
  774MOL0     H 6747  12.181   5.045   3.229  1.7475  0.6724 -0.3770
  774MOL0     H 6748  12.136   4.892   3.142  2.2278  0.8034 -0.2069
  774MOL0     H 6749  12.143   4.986   2.924 -1.0593  1.2239 -1.6044
  774MOL0     H 6750  12.161   5.149   2.996 -1.9476 -0.3340  1.7435
  774MOL0     H 6751  12.385   5.113   3.064  0.7867 -0.7370  0.8598
  774MOL0     H 6752  12.346   4.936   3.077 -1.2284  0.7210 -0.0596
  774MOL0     H 6753  12.371   4.899   2.847  0.5664 -2.2543  2.1480
  774MOL0     H 6754  12.510   4.972   2.913  0.1530 -0.1391 -1.3311
  774MOL0     H 6755  12.296   5.117   2.747  0.0838 -0.2285  0.0642
  774MOL0     H 6756  12.434   5.203   2.830  2.0217  1.1044 -2.8220
  774MOL0     H 6757  12.471   5.193   2.607  0.0109  2.5124  3.7361
  774MOL0     H 6758  12.446   5.018   2.592  0.2264  1.0991 -2.0928
  774MOL0     H 6759  12.678   5.169   2.739 -0.2070 -0.3551  0.0553
  774MOL0     H 6760  12.666   4.996   2.756  0.9393 -0.0986 -1.3939
  774MOL0     H 6761  12.775   5.266   2.514  1.6435  0.9431 -1.9797
  774MOL0     H 6762  12.970   5.268   2.354  0.8932 -0.8943  0.9906
  774MOL0     H 6763  12.883   5.181   2.211 -0.3433 -0.4618 -0.1935
  774MOL0     H 6764  13.115   5.071   2.367 -0.5989  2.2059  0.8697
  774MOL0     H 6765  13.036   4.989   2.243 -1.2445 -0.3721  1.5280
  774MOL0     H 6766  13.115   5.145   2.069  0.0917 -3.1553  0.0442
  774MOL0     H 6767  13.152   5.274   2.198 -1.6245 -0.2789  1.7131
  774MOL0     H 6768  13.320   5.027   2.140  0.1431 -0.1698 -1.3076
  774MOL0     H 6769  13.360   5.190   2.088  2.4401 -2.0709  0.3629
  774MOL0     H 6770  13.534   5.006   2.180  0.5769 -0.2137 -0.0819
  774MOL0     H 6771  13.727   4.892   2.197 -1.7911 -0.9186  4.1361
  774MOL0     H 6772  13.851   4.935   2.304 -0.7474 -1.6781  0.4130
  774MOL0     H 6773  13.852   5.013   2.145 -1.4167  2.5434  0.6030
  774MOL0     H 6774  14.151   5.362   2.400 -2.9010 -1.7827  2.6498
  774MOL0     H 6775  14.408   5.343   2.414  2.5587 -1.6167 -1.2588
  774MOL0     H 6776  14.630   5.288   2.467  0.8937 -0.8071 -0.2234
  774MOL0     H 6777  14.545   5.153   2.538 -2.8494 -0.7566 -2.3324
  774MOL0     H 6778  14.789   5.130   2.564 -2.4374 -2.1126  1.4670
  774MOL0     H 6779  14.727   4.996   2.478 -2.1948 -0.2350  1.5255
  774MOL0     H 6780  14.883   5.232   2.369  0.2216  0.4578  1.1361
  774MOL0     H 6781  14.808   5.106   2.263  1.3862 -3.8188  1.0815
  774MOL0     H 6782  14.951   4.926   2.342 -0.9974  0.6858 -1.8698
  774MOL0     H 6783  15.006   5.033   2.472  0.4935  0.9483 -0.7036
  774MOL0     H 6784  15.084   5.181   2.262  2.4828 -0.3443  0.2427
  774MOL0     H 6785  15.172   5.039   2.301  0.2490 -1.7731  0.6107
  774MOL0     H 6786  14.960   5.015   2.083  0.1142 -2.2127 -1.3485
  774MOL0     H 6787  15.069   4.894   2.145 -1.2758 -0.5726  1.2847
  774MOL0     H 6788  15.187   5.153   2.057 -2.0539  1.3285 -2.1443
  774MOL0     H 6789  15.117   5.072   1.927  4.4131  2.2220 -1.2122
  774MOL0     H 6790  15.245   4.864   2.057 -2.5663  1.0048 -0.2112
  774MOL0     H 6791  15.331   5.001   2.124 -0.9716 -0.6763  0.1387
  774MOL0     H 6792  14.379   4.980   2.196 -2.3816 -0.9831  0.8870
  774MOL0     H 6793  14.126   4.994   2.204  0.0658  2.6256 -5.5925
  774MOL0     H 6794  13.696   5.363   2.484 -0.1177  1.2707 -2.3416
  774MOL0     H 6795  13.461   5.330   2.440 -0.1200  0.7626 -1.8642
  774MOL0     H 6796  11.810   5.148   2.866 -0.1692  0.0765  0.4009
  774MOL0     H 6797  11.567   5.203   2.842  2.6462 -1.4001 -1.4489
  774MOL0     H 6798  11.193   5.020   2.881 -1.7763 -0.6952 -1.4295
  774MOL0     H 6799  10.954   4.959   2.832  0.5034  0.2550 -0.9251
  774MOL0     H 6800  10.781   4.832   2.834  1.0724 -0.6866  0.1384
  774MOL0     H 6801  10.811   4.747   2.979  0.1786 -0.8632 -2.4883
  774MOL0     H 6802  10.610   4.665   2.912  0.7057 -0.0610  1.0973
  774MOL0     H 6803  10.549   4.823   2.856  0.5845 -0.5773 -1.4967
  774MOL0     H 6804  10.595   4.786   3.161  0.7675  0.9143 -0.6527
  774MOL0     H 6805  10.501   4.899   3.061  0.7998 -0.1706 -1.2357
  774MOL0     H 6806  10.423   4.611   3.067 -1.8117  0.5037  0.2162
  774MOL0     H 6807  10.340   4.751   2.985  0.2252  3.3770 -0.6026
  774MOL0     H 6808  10.232   4.790   3.397 -1.8880  0.3025 -0.9936
  774MOL0     H 6809  10.841   5.048   3.231 -1.1931  0.0196 -0.6278
  774MOL0     H 6810  11.123   5.253   3.306  0.8539 -1.3384 -3.1090
  774MOL0     H 6811  10.955   5.205   3.345  0.1670 -2.0843  1.5523
  774MOL0     H 6812  11.091   5.102   3.393  2.0586  0.7763  0.4909
  775MOL0     O 6813   2.235   7.059   0.606  0.2496  0.3745 -0.0923
  775MOL0     C 6814   2.255   6.991   0.711  0.7097 -0.0337 -0.2511
  775MOL0     O 6815   2.373   6.944   0.755  0.2056 -0.5600 -0.5524
  775MOL0     C 6816   2.498   6.998   0.719  0.4044  0.4335 -0.2278
  775MOL0     C 6817   2.515   7.133   0.708 -0.5522 -0.0991  0.0482
  775MOL0     C 6818   2.630   7.191   0.656  0.3769  0.5932 -0.0886
  775MOL0     C 6819   2.742   7.115   0.631  0.5070  0.0519 -0.4166
  775MOL0     O 6820   2.855   7.175   0.569 -0.0151  0.9704 -0.4376
  775MOL0     C 6821   2.933   7.078   0.501 -0.1297 -0.6383  0.3568
  775MOL0     C 6822   3.020   7.126   0.392 -0.4981  0.0011 -0.2035
  775MOL0     C 6823   3.136   7.205   0.466  0.1144 -0.0917 -0.1626
  775MOL0     C 6824   3.203   7.294   0.354  0.1137 -0.4513 -0.6482
  775MOL0     C 6825   3.355   7.330   0.367 -0.0389  0.5560 -0.2621
  775MOL0     C 6826   3.385   7.433   0.484 -0.9145  0.5132  0.2438
  775MOL0     C 6827   3.529   7.487   0.477  0.2158 -0.3355  0.4865
  775MOL0     C 6828   3.638   7.394   0.550  0.9296  0.0566 -0.5457
  775MOL0     N 6829   3.765   7.435   0.503 -0.8245 -0.1797  0.8867
  775MOL0     C 6830   3.829   7.560   0.534  0.3950 -0.2213 -0.3247
  775MOL0     C 6831   3.944   7.561   0.460  0.0359 -0.0328  0.2563
  775MOL0     C 6832   4.046   7.663   0.457  0.7960 -0.5151 -0.3142
  775MOL0     C 6833   4.003   7.792   0.526  0.1686 -0.8005 -0.8226
  775MOL0     C 6834   4.118   7.893   0.508  0.8163  0.5436  0.4916
  775MOL0     C 6835   4.244   7.869   0.589  0.6367 -0.8044 -0.6310
  775MOL0     O 6836   4.303   8.001   0.590  0.0629  0.1536 -0.6245
  775MOL0     C 6837   4.386   8.033   0.487 -0.7604 -0.0690 -1.0626
  775MOL0     C 6838   4.355   8.162   0.429  0.4761 -0.2843  0.2955
  775MOL0     C 6839   4.446   8.209   0.326 -0.4371  0.7781  0.3720
  775MOL0     C 6840   4.394   8.323   0.246 -0.7444  0.5057 -0.2427
  775MOL0     C 6841   4.566   8.139   0.287 -0.1449 -0.2668 -0.2161
  775MOL0     C 6842   4.660   8.178   0.176 -0.3075 -0.0359 -0.5531
  775MOL0     O 6843   4.771   8.085   0.162 -0.3934  0.1504 -0.5842
  775MOL0     C 6844   4.875   8.133   0.082 -0.5886  0.1516  0.8532
  775MOL0     C 6845   4.939   8.257   0.087 -0.1692 -0.6793 -0.3122
  775MOL0     C 6846   5.050   8.289   0.010  0.2940 -0.0202  0.1821
  775MOL0     C 6847   5.099   8.195  -0.088  0.5544  0.3452  0.3824
  775MOL0     O 6848   5.214   8.215  -0.163  0.0121 -0.3128 -0.0102
  775MOL0     C 6849   5.195   8.314  -0.260 -0.2206  0.0538 -1.3692
  775MOL0     C 6850   5.332   8.343  -0.317 -0.2018 -0.6788  0.2483
  775MOL0     C 6851   5.396   8.467  -0.263 -0.5451 -0.6718 -0.5594
  775MOL0     C 6852   5.541   8.483  -0.307 -0.0125 -0.8864 -1.0457
  775MOL0     C 6853   5.588   8.628  -0.275  0.4301  0.1623  0.3526
  775MOL0     C 6854   5.734   8.646  -0.322 -0.5493 -0.5648 -0.3067
  775MOL0     C 6855   5.770   8.684  -0.464 -0.2301 -0.3898 -0.1773
  775MOL0     C 6856   5.923   8.694  -0.486  0.7572  0.4314  0.3441
  775MOL0    Cl 6857   6.000   8.536  -0.508  0.2476 -0.1724 -0.2620
  775MOL0     C 6858   5.049   8.066  -0.089  0.3641  0.2847  0.7268
  775MOL0     C 6859   4.939   8.041  -0.002 -0.4317  0.1234 -0.4135
  775MOL0     O 6860   4.650   8.276   0.109 -0.1080  0.0652 -0.6258
  775MOL0     C 6861   4.591   8.021   0.358 -0.0167 -0.2482 -0.0359
  775MOL0     C 6862   4.505   7.972   0.458  0.2922  1.0060  0.9916
  775MOL0     N 6863   3.953   7.434   0.404  0.1861  0.1497  0.9115
  775MOL0     N 6864   3.851   7.361   0.433 -0.9411  0.2267  0.0349
  775MOL0     C 6865   2.733   6.974   0.653  0.2411 -0.0057  0.1390
  775MOL0     C 6866   2.613   6.917   0.693 -0.6591  0.7300  0.4901
  775MOL0     C 6867   2.129   6.950   0.786 -0.1639  0.3427  0.3730
  775MOL0     C 6868   2.018   7.033   0.789  0.0633  0.8946 -1.1941
  775MOL0     C 6869   1.902   6.990   0.852  0.4953 -0.0731 -0.3977
  775MOL0     C 6870   1.884   6.867   0.903 -1.2521  0.3885  0.4000
  775MOL0     O 6871   1.759   6.836   0.954  0.0892  0.5434  0.0220
  775MOL0     C 6872   1.695   6.730   0.892  0.7475  0.3554 -0.0259
  775MOL0     C 6873   1.554   6.694   0.942 -0.4867 -0.0453 -0.5138
  775MOL0     C 6874   1.566   6.640   1.090 -0.2776 -0.7923  0.3465
  775MOL0     C 6875   1.435   6.624   1.161  0.2368 -0.5224 -0.7568
  775MOL0     C 6876   1.362   6.754   1.180  0.3863 -1.1332  0.8029
  775MOL0     C 6877   1.305   6.864   1.179  0.0537 -0.2518 -0.4422
  775MOL0     C 6878   1.994   6.785   0.901 -0.2089 -0.9223  0.3632
  775MOL0     C 6879   2.117   6.820   0.842  0.9311 -0.2505 -0.4051
  775MOL0     C 6880   2.220   6.713   0.818  0.3783  0.2801 -0.3924
  775MOL0     H 6881   2.430   7.194   0.736 -1.2866 -0.4048 -1.3907
  775MOL0     H 6882   2.642   7.293   0.619  0.5836  0.1510 -1.2583
  775MOL0     H 6883   2.863   7.013   0.449 -0.1392 -1.6310  1.5603
  775MOL0     H 6884   3.006   7.029   0.567 -0.7804 -1.3771  0.5481
  775MOL0     H 6885   3.069   7.048   0.333 -0.2961 -1.8673  2.3009
  775MOL0     H 6886   2.972   7.204   0.332 -0.2097 -1.0202 -1.8217
  775MOL0     H 6887   3.096   7.272   0.543  1.3759  3.4798 -2.3536
  775MOL0     H 6888   3.213   7.139   0.507  0.8045 -0.2138 -1.5933
  775MOL0     H 6889   3.200   7.259   0.250  2.3608  1.6116 -1.5108
  775MOL0     H 6890   3.152   7.391   0.363 -0.3556 -0.8685  2.1458
  775MOL0     H 6891   3.378   7.373   0.269 -0.7906 -0.2567 -0.8034
  775MOL0     H 6892   3.414   7.238   0.375 -1.3159 -0.2609 -0.0600
  775MOL0     H 6893   3.309   7.510   0.474  1.0883  2.5183 -0.5426
  775MOL0     H 6894   3.372   7.392   0.584 -0.4060 -1.7214 -0.5509
  775MOL0     H 6895   3.523   7.582   0.530  0.5716  0.6548 -1.1743
  775MOL0     H 6896   3.554   7.502   0.371 -1.0718 -1.0842  0.0522
  775MOL0     H 6897   3.629   7.400   0.658  0.0615  0.4964 -0.6352
  775MOL0     H 6898   3.623   7.289   0.522 -1.3112  1.3587 -5.4406
  775MOL0     H 6899   3.805   7.644   0.598  1.9055  1.6930 -2.1241
  775MOL0     H 6900   4.064   7.683   0.351  1.6097 -4.3506 -1.0378
  775MOL0     H 6901   4.136   7.616   0.498  0.4936  0.5506  1.6790
  775MOL0     H 6902   3.913   7.834   0.481 -0.5116  0.8545  1.9098
  775MOL0     H 6903   3.975   7.778   0.630  0.4941  0.2321 -0.5895
  775MOL0     H 6904   4.146   7.909   0.403 -1.4757  0.6447 -0.1666
  775MOL0     H 6905   4.077   7.989   0.540  0.7322  1.6408 -2.5170
  775MOL0     H 6906   4.221   7.841   0.692  2.4062  1.4824  0.4932
  775MOL0     H 6907   4.298   7.791   0.535 -0.8374 -0.3962 -2.8104
  775MOL0     H 6908   4.271   8.225   0.458  1.4344  0.2942  1.9353
  775MOL0     H 6909   4.460   8.409   0.235 -1.0618  0.9521  1.0815
  775MOL0     H 6910   4.296   8.350   0.287 -1.6914 -2.0435 -0.6435
  775MOL0     H 6911   4.364   8.273   0.153  1.3530 -1.3011 -0.0430
  775MOL0     H 6912   4.894   8.333   0.151  0.4396 -0.7499  0.2073
  775MOL0     H 6913   5.096   8.385   0.028  1.7817 -0.6078 -0.3872
  775MOL0     H 6914   5.130   8.279  -0.341 -3.0962  0.7852  0.4731
  775MOL0     H 6915   5.150   8.404  -0.217 -0.7154 -0.7236 -0.2285
  775MOL0     H 6916   5.401   8.259  -0.300 -1.0232 -0.8218  3.6252
  775MOL0     H 6917   5.329   8.356  -0.425  3.9751  0.8774  0.1192
  775MOL0     H 6918   5.399   8.455  -0.154  0.2993  2.2787 -0.1703
  775MOL0     H 6919   5.332   8.553  -0.288 -1.4579 -1.2739 -0.3512
  775MOL0     H 6920   5.551   8.475  -0.416  0.1491 -0.9651 -1.0249
  775MOL0     H 6921   5.613   8.409  -0.272  1.1460  1.8370  3.0452
  775MOL0     H 6922   5.530   8.711  -0.317  1.0866  0.4099 -0.0916
  775MOL0     H 6923   5.583   8.632  -0.166  0.6550 -0.0798  0.3745
  775MOL0     H 6924   5.788   8.555  -0.297 -0.9021 -0.4260  1.0291
  775MOL0     H 6925   5.772   8.727  -0.260  1.4398 -1.9487  0.3944
  775MOL0     H 6926   5.729   8.781  -0.493  1.3185 -0.4355 -2.9358
  775MOL0     H 6927   5.738   8.598  -0.523 -0.2714 -1.6651  1.6205
  775MOL0     H 6928   5.971   8.753  -0.407 -1.9739  2.3563  0.7289
  775MOL0     H 6929   5.927   8.755  -0.576  1.7847  0.0989  0.1613
  775MOL0     H 6930   5.084   7.982  -0.148  0.5272  1.4939 -0.9980
  775MOL0     H 6931   4.892   7.943  -0.002  0.2859 -0.2324 -1.2195
  775MOL0     H 6932   4.675   7.958   0.332 -0.4023 -0.6318 -0.3867
  775MOL0     H 6933   4.537   7.882   0.510  1.7763  1.6941  1.3382
  775MOL0     H 6934   2.816   6.905   0.654  0.8746  0.7224 -0.6532
  775MOL0     H 6935   2.612   6.811   0.717  0.4266  0.8803  1.2634
  775MOL0     H 6936   2.018   7.129   0.738 -0.8780  1.4015 -0.2583
  775MOL0     H 6937   1.809   7.045   0.845  1.7430  1.9139 -3.1299
  775MOL0     H 6938   1.687   6.752   0.785 -1.0134 -1.4499 -0.3133
  775MOL0     H 6939   1.758   6.645   0.917 -1.0219 -0.1547  3.1587
  775MOL0     H 6940   1.508   6.619   0.877 -2.1676 -0.3469  0.9299
  775MOL0     H 6941   1.488   6.781   0.944  1.2900  1.4004 -1.6769
  775MOL0     H 6942   1.625   6.548   1.084  0.8063 -0.0436 -1.4053
  775MOL0     H 6943   1.633   6.701   1.152 -1.9898 -0.4600  1.9500
  775MOL0     H 6944   1.441   6.580   1.261  0.5494  1.5236  0.1917
  775MOL0     H 6945   1.374   6.558   1.099  0.9795 -1.9628  0.0094
  775MOL0     H 6946   1.242   6.950   1.168  1.2059  0.3127 -3.4419
  775MOL0     H 6947   1.980   6.691   0.954  2.8408 -0.1574  2.8827
  775MOL0     H 6948   2.169   6.618   0.839  0.6496  0.2981  0.3695
  775MOL0     H 6949   2.276   6.719   0.724  1.8804  2.7068  0.5477
  775MOL0     H 6950   2.298   6.722   0.894 -1.0278  1.9472  0.9429
  776MOL0     O 6951   5.791   0.832   0.369  1.3130  0.3060 -0.2373
  776MOL0     C 6952   5.752   0.873   0.480 -1.2092 -0.2977 -0.5896
  776MOL0     O 6953   5.831   0.886   0.591  0.1178  0.0186 -0.4424
  776MOL0     C 6954   5.959   0.847   0.586  0.0181  0.2292  0.2146
  776MOL0     C 6955   6.074   0.937   0.577 -0.1254 -0.8922  0.7132
  776MOL0     C 6956   6.203   0.885   0.587  0.0017 -0.0103 -1.5542
  776MOL0     C 6957   6.220   0.747   0.587  0.6409  1.1665 -0.7255
  776MOL0     O 6958   6.337   0.672   0.589  0.4015 -0.2386 -0.0997
  776MOL0     C 6959   6.444   0.743   0.539  0.1996 -0.0182  0.4423
  776MOL0     C 6960   6.565   0.651   0.504 -0.4050 -0.4821  0.1612
  776MOL0     C 6961   6.694   0.731   0.484 -0.2772 -0.2019  0.2044
  776MOL0     C 6962   6.816   0.630   0.463 -0.2195  0.2282  0.5575
  776MOL0     C 6963   6.950   0.685   0.459 -0.3343  1.0356 -0.3544
  776MOL0     C 6964   7.002   0.726   0.595 -0.0414  0.1961 -0.2868
  776MOL0     C 6965   7.033   0.610   0.687 -0.6549  0.2611  0.0350
  776MOL0     C 6966   7.074   0.662   0.829  1.3512 -0.0858 -0.1360
  776MOL0     N 6967   7.214   0.701   0.840  0.1116  0.6166 -0.4740
  776MOL0     C 6968   7.309   0.631   0.779  0.4846  0.6618  0.3445
  776MOL0     C 6969   7.422   0.695   0.786 -0.2081 -0.4299  0.1088
  776MOL0     C 6970   7.550   0.652   0.734  0.4044 -0.7399  0.6614
  776MOL0     C 6971   7.675   0.713   0.795  0.3125  0.9211  0.3500
  776MOL0     C 6972   7.800   0.675   0.713 -0.5601  0.1184 -0.7665
  776MOL0     C 6973   7.930   0.679   0.803  0.0006  1.1117  0.8307
  776MOL0     O 6974   8.032   0.593   0.748 -0.1727  0.7571 -0.1230
  776MOL0     C 6975   8.144   0.567   0.812 -0.5552  0.2947  0.5904
  776MOL0     C 6976   8.190   0.589   0.937  0.3897  0.3320  0.0835
  776MOL0     C 6977   8.314   0.549   0.982  0.5256  0.5987  0.1630
  776MOL0     C 6978   8.356   0.590   1.120 -0.4747 -0.2581  0.4347
  776MOL0     C 6979   8.400   0.463   0.904  0.1265  0.1088  0.8933
  776MOL0     C 6980   8.537   0.409   0.941  0.4680 -0.1388  0.0484
  776MOL0     O 6981   8.571   0.405   1.071  0.1033 -0.2266 -1.0197
  776MOL0     C 6982   8.693   0.351   1.101 -1.2808 -0.2956 -0.6757
  776MOL0     C 6983   8.710   0.213   1.099 -0.3621  1.0567 -0.1293
  776MOL0     C 6984   8.835   0.156   1.134 -0.7057  0.2402 -0.6081
  776MOL0     C 6985   8.948   0.233   1.162  0.7754 -0.5945 -0.5185
  776MOL0     O 6986   9.067   0.168   1.184 -0.1302 -0.1754  0.3782
  776MOL0     C 6987   9.180   0.249   1.219  0.0057  0.2940  0.3111
  776MOL0     C 6988   9.168   0.293   1.367 -0.2931 -0.5637 -0.2686
  776MOL0     C 6989   9.247   0.203   1.460  0.1629  0.0201 -0.5751
  776MOL0     C 6990   9.250   0.272   1.601  1.0646 -0.5936 -0.5750
  776MOL0     C 6991   9.320   0.185   1.709  0.4465  0.0464  0.4529
  776MOL0     C 6992   9.323   0.246   1.853 -0.4742 -0.1944  0.5293
  776MOL0     C 6993   9.377   0.152   1.961 -0.0160 -0.1383 -0.1200
  776MOL0     C 6994   9.264   0.097   2.046 -0.0400  0.0834  0.2266
  776MOL0    Cl 6995   9.312  -0.001   2.192 -0.3664  0.1169 -0.0019
  776MOL0     C 6996   8.923   0.377   1.167  0.3962  0.1552 -0.0314
  776MOL0     C 6997   8.798   0.432   1.139  0.5870 -0.6616 -0.2111
  776MOL0     O 6998   8.617   0.398   0.845 -0.3597  0.4767  0.3854
  776MOL0     C 6999   8.352   0.447   0.777  0.0458 -0.3263  0.2669
  776MOL0     C 7000   8.228   0.488   0.734  0.3354  0.5625 -0.0118
  776MOL0     N 7001   7.402   0.804   0.873 -0.2649 -0.1462  0.0067
  776MOL0     N 7002   7.274   0.810   0.899 -0.5145 -0.0967  0.0398
  776MOL0     C 7003   6.109   0.658   0.580  0.3811  0.1737  0.3645
  776MOL0     C 7004   5.977   0.708   0.586  0.2544 -0.1650  0.6578
  776MOL0     C 7005   5.606   0.905   0.507 -0.6361  0.5054  0.3545
  776MOL0     C 7006   5.563   0.909   0.644 -0.3329  0.2001 -0.5286
  776MOL0     C 7007   5.442   0.964   0.677 -0.7266  0.6834  0.3470
  776MOL0     C 7008   5.345   0.984   0.581 -0.8179  0.0363 -0.8612
  776MOL0     O 7009   5.219   1.033   0.614  0.4202  0.1823  0.4968
  776MOL0     C 7010   5.145   0.933   0.687 -0.0285  0.9354 -0.2055
  776MOL0     C 7011   5.006   0.991   0.716  0.7575 -0.8152  0.7181
  776MOL0     C 7012   4.930   0.997   0.580 -0.7527 -0.5713  0.2323
  776MOL0     C 7013   4.833   0.869   0.565 -0.4722 -0.4116  0.4716
  776MOL0     C 7014   4.775   0.883   0.432  0.1819  0.0625  0.3326
  776MOL0     C 7015   4.719   0.893   0.322 -0.3107 -0.5572  0.3312
  776MOL0     C 7016   5.375   0.971   0.453  0.1337  0.3149 -0.4726
  776MOL0     C 7017   5.503   0.926   0.416  0.2270 -0.5063 -0.1286
  776MOL0     C 7018   5.514   0.905   0.272  0.5138  0.1277 -0.0814
  776MOL0     H 7019   6.062   1.044   0.567  0.5550 -0.8711  0.0565
  776MOL0     H 7020   6.287   0.952   0.570 -2.3651  3.0851 -2.0253
  776MOL0     H 7021   6.487   0.805   0.617  3.2007 -2.0723  0.5775
  776MOL0     H 7022   6.415   0.803   0.452 -0.6066 -5.0028 -3.1654
  776MOL0     H 7023   6.576   0.586   0.591  2.1340 -1.4042 -0.7377
  776MOL0     H 7024   6.539   0.587   0.420  0.8231 -2.6370  1.3201
  776MOL0     H 7025   6.676   0.796   0.398 -1.5336 -0.6457  0.1103
  776MOL0     H 7026   6.712   0.791   0.574  3.2764  0.8213 -1.0209
  776MOL0     H 7027   6.817   0.557   0.544 -0.5942  0.9899  1.2674
  776MOL0     H 7028   6.814   0.588   0.362  1.6377 -0.6549  0.8504
  776MOL0     H 7029   6.955   0.769   0.388  0.7560  1.4444  0.1824
  776MOL0     H 7030   7.020   0.609   0.423 -0.0254  0.3266  1.6650
  776MOL0     H 7031   7.095   0.782   0.584  1.7490 -2.7273 -1.3095
  776MOL0     H 7032   6.918   0.777   0.642 -0.0587 -1.6660  1.8656
  776MOL0     H 7033   7.108   0.544   0.644 -0.7102 -1.2093  2.0895
  776MOL0     H 7034   6.946   0.546   0.700  0.3717 -1.1975 -0.0905
  776MOL0     H 7035   7.016   0.751   0.855  0.0095 -1.8839  3.6578
  776MOL0     H 7036   7.047   0.594   0.909  1.4611  1.0975  0.9435
  776MOL0     H 7037   7.307   0.532   0.733 -3.5024  1.4763 -1.6238
  776MOL0     H 7038   7.563   0.669   0.627  0.2567  0.2242  0.7883
  776MOL0     H 7039   7.560   0.545   0.750  0.7228 -0.7341  0.5135
  776MOL0     H 7040   7.654   0.821   0.792 -0.9423  0.6922  0.3651
  776MOL0     H 7041   7.679   0.685   0.900  2.0196  1.9791  0.6128
  776MOL0     H 7042   7.780   0.577   0.670  1.0662 -0.0797 -1.1472
  776MOL0     H 7043   7.818   0.750   0.635 -1.9694  0.9906 -0.2801
  776MOL0     H 7044   7.965   0.781   0.821  0.2166  0.7198  2.8537
  776MOL0     H 7045   7.893   0.645   0.900  4.0407 -1.3238  1.7519
  776MOL0     H 7046   8.132   0.647   1.008 -0.2560 -1.9951  1.5701
  776MOL0     H 7047   8.458   0.629   1.108 -0.5961 -0.6621 -2.5249
  776MOL0     H 7048   8.358   0.492   1.168 -0.2813 -0.4567  0.0232
  776MOL0     H 7049   8.285   0.656   1.171  0.5816  0.3511  1.1537
  776MOL0     H 7050   8.630   0.150   1.060  2.2665 -1.9941 -1.0154
  776MOL0     H 7051   8.849   0.049   1.138  0.5971  0.3854 -0.7133
  776MOL0     H 7052   9.267   0.186   1.200 -1.6086 -2.5724  1.7712
  776MOL0     H 7053   9.186   0.332   1.148  0.4634 -0.0089 -0.0037
  776MOL0     H 7054   9.209   0.394   1.380  0.4680 -0.9615  0.5657
  776MOL0     H 7055   9.069   0.304   1.412  0.3849  0.1028  1.1167
  776MOL0     H 7056   9.351   0.199   1.425  0.1244 -0.0018 -0.6871
  776MOL0     H 7057   9.202   0.105   1.474 -0.7990  0.7011  1.3534
  776MOL0     H 7058   9.146   0.295   1.627  0.4288 -1.0917 -2.5272
  776MOL0     H 7059   9.304   0.366   1.585  1.6697 -0.9741 -0.7832
  776MOL0     H 7060   9.272   0.086   1.718  2.5290 -1.1534 -0.8766
  776MOL0     H 7061   9.420   0.161   1.673 -0.0311 -1.1484 -0.1435
  776MOL0     H 7062   9.218   0.262   1.881 -0.5590 -2.5830  1.8250
  776MOL0     H 7063   9.385   0.336   1.860  0.2314 -0.6284  0.0020
  776MOL0     H 7064   9.452   0.197   2.028 -0.8284 -0.0332  0.7357
  776MOL0     H 7065   9.429   0.066   1.917 -0.9038 -0.9195  0.3408
  776MOL0     H 7066   9.201   0.039   1.979 -1.3910  4.3807 -2.6801
  776MOL0     H 7067   9.206   0.181   2.085  2.3651  2.2094 -0.4374
  776MOL0     H 7068   8.999   0.444   1.205 -0.5048  1.0388  0.2625
  776MOL0     H 7069   8.786   0.539   1.157 -0.3266 -0.8681  0.4764
  776MOL0     H 7070   8.416   0.392   0.708 -1.3405 -2.0214  0.2652
  776MOL0     H 7071   8.199   0.460   0.634  0.2505 -1.0476  0.4452
  776MOL0     H 7072   6.119   0.550   0.572 -1.5775  0.0634 -2.0180
  776MOL0     H 7073   5.896   0.636   0.594  1.0746 -1.2993 -0.7059
  776MOL0     H 7074   5.631   0.890   0.727  3.5827 -0.8358 -3.6809
  776MOL0     H 7075   5.427   0.989   0.781 -0.0233  1.0000  0.3787
  776MOL0     H 7076   5.150   0.849   0.617  5.0089  0.6618  0.1548
  776MOL0     H 7077   5.191   0.902   0.781 -0.8956  2.0255  0.6123
  776MOL0     H 7078   5.021   1.093   0.753  2.0701 -1.0146  0.7720
  776MOL0     H 7079   4.950   0.934   0.791 -0.8907  2.3069  2.0546
  776MOL0     H 7080   4.860   1.080   0.592  1.3862  1.3620 -0.1537
  776MOL0     H 7081   4.998   1.020   0.498 -1.0714 -0.1215  0.0888
  776MOL0     H 7082   4.758   0.868   0.645 -0.3671 -0.8535  0.5672
  776MOL0     H 7083   4.894   0.779   0.562  2.6009  1.5389 -0.3164
  776MOL0     H 7084   4.656   0.907   0.236 -2.3941  0.4986  1.9271
  776MOL0     H 7085   5.301   0.996   0.379 -0.3700  0.5625  0.1035
  776MOL0     H 7086   5.417   0.902   0.221 -1.0584  1.8230  2.5890
  776MOL0     H 7087   5.577   0.981   0.225  1.6695  1.0119  2.7198
  776MOL0     H 7088   5.568   0.811   0.257  2.0827  1.2482 -1.7993
  777MOL0     O 7089  10.127   6.517   3.615  0.6707 -0.1943 -0.3300
  777MOL0     C 7090  10.063   6.581   3.698  0.4045 -0.6041 -0.0214
  777MOL0     O 7091  10.112   6.613   3.825  0.1356  0.1992  0.2332
  777MOL0     C 7092  10.241   6.579   3.851 -0.3016  0.3112 -0.9134
  777MOL0     C 7093  10.345   6.648   3.782  0.2506 -0.1617 -0.2215
  777MOL0     C 7094  10.477   6.608   3.803 -0.2392 -0.0205 -0.5462
  777MOL0     C 7095  10.510   6.506   3.901 -0.7871 -0.1275 -1.1346
  777MOL0     O 7096  10.635   6.470   3.939  0.1860  0.2339 -0.0260
  777MOL0     C 7097  10.757   6.543   3.920  0.1232  0.9391 -0.0660
  777MOL0     C 7098  10.869   6.448   3.944  0.7418  0.1831 -0.0540
  777MOL0     C 7099  11.006   6.512   3.914  0.6086 -0.2197  0.1716
  777MOL0     C 7100  11.120   6.410   3.906 -0.3281  0.0581 -0.7993
  777MOL0     C 7101  11.234   6.464   3.821  0.2580  0.2018  0.6447
  777MOL0     C 7102  11.354   6.367   3.810  0.1960  0.4313 -0.2168
  777MOL0     C 7103  11.466   6.389   3.712 -0.7651  0.3296 -0.5832
  777MOL0     C 7104  11.607   6.384   3.771 -0.4384 -0.6018  0.2933
  777MOL0     N 7105  11.717   6.403   3.671 -0.1047 -0.3753  0.4687
  777MOL0     C 7106  11.839   6.335   3.659  0.3385 -0.6664 -0.0707
  777MOL0     C 7107  11.893   6.376   3.545 -0.2869 -0.1831  0.4394
  777MOL0     C 7108  11.992   6.298   3.478 -0.6638  0.2195 -0.1811
  777MOL0     C 7109  12.130   6.365   3.474  0.3573  0.1398 -0.4503
  777MOL0     C 7110  12.218   6.300   3.578 -0.9990  0.2976 -0.6618
  777MOL0     C 7111  12.368   6.362   3.559 -0.0707  1.3331  0.2698
  777MOL0     O 7112  12.424   6.288   3.448  0.3185 -0.2658 -0.2254
  777MOL0     C 7113  12.552   6.321   3.404 -0.8666  0.0679  0.4983
  777MOL0     C 7114  12.630   6.429   3.448  0.2361  0.6742  0.4055
  777MOL0     C 7115  12.766   6.440   3.412 -0.1070  0.2371 -0.4967
  777MOL0     C 7116  12.842   6.540   3.491 -0.0247 -0.5955  0.1316
  777MOL0     C 7117  12.820   6.344   3.323  0.7466  0.4229 -0.1508
  777MOL0     C 7118  12.958   6.336   3.282  0.5701 -1.2975  0.7810
  777MOL0     O 7119  13.003   6.213   3.241  0.1672  0.6342 -0.2644
  777MOL0     C 7120  13.127   6.219   3.179  0.1641 -0.1753 -0.6556
  777MOL0     C 7121  13.134   6.143   3.065 -0.1513  0.5088  0.9559
  777MOL0     C 7122  13.256   6.120   3.001  0.7622 -0.6365  0.5299
  777MOL0     C 7123  13.372   6.163   3.065 -0.0020 -1.0797  0.2782
  777MOL0     O 7124  13.496   6.145   3.012 -0.1154  0.0359  0.5009
  777MOL0     C 7125  13.508   6.022   2.935  0.0097  0.2912 -0.0039
  777MOL0     C 7126  13.655   5.986   2.906  0.1842 -0.8304  0.1262
  777MOL0     C 7127  13.736   6.101   2.849  0.2748  0.0852 -0.4023
  777MOL0     C 7128  13.878   6.035   2.814  0.2094 -0.0388 -1.0720
  777MOL0     C 7129  13.972   6.134   2.745 -1.5056  0.2606 -0.2769
  777MOL0     C 7130  14.020   6.260   2.831 -0.6356  0.4930  0.0146
  777MOL0     C 7131  14.107   6.350   2.743 -0.1044  0.3050  0.3612
  777MOL0     C 7132  14.170   6.475   2.806  0.1719 -0.7140  0.4157
  777MOL0    Cl 7133  14.057   6.598   2.858  0.3189  0.0387  0.5450
  777MOL0     C 7134  13.368   6.247   3.172  0.3419 -0.2193 -0.4922
  777MOL0     C 7135  13.244   6.268   3.231  0.3465 -0.6572  0.2288
  777MOL0     O 7136  13.020   6.438   3.280  0.3886 -0.4633 -0.1889
  777MOL0     C 7137  12.742   6.240   3.276  0.9597  0.1244 -0.9125
  777MOL0     C 7138  12.603   6.240   3.308 -0.0543  0.5478 -0.7006
  777MOL0     N 7139  11.818   6.488   3.496 -0.5223 -0.1373 -0.6368
  777MOL0     N 7140  11.718   6.497   3.582 -0.4468  0.7304  1.3815
  777MOL0     C 7141  10.407   6.446   3.975  0.1947  0.1120 -0.7936
  777MOL0     C 7142  10.280   6.491   3.952  0.1986  0.2466 -0.3796
  777MOL0     C 7143   9.926   6.620   3.677  0.0408  0.3385  0.1002
  777MOL0     C 7144   9.877   6.726   3.742 -0.4274 -0.0214  0.5018
  777MOL0     C 7145   9.744   6.767   3.725 -1.8737 -0.4393  0.1684
  777MOL0     C 7146   9.653   6.699   3.638 -0.8105  0.0130  0.4485
  777MOL0     O 7147   9.534   6.758   3.627  0.1726 -0.7213  0.7708
  777MOL0     C 7148   9.417   6.686   3.579 -0.1666 -0.2136 -1.0323
  777MOL0     C 7149   9.301   6.789   3.572 -0.4967  1.0657 -1.1062
  777MOL0     C 7150   9.163   6.727   3.591  0.2602  0.1769 -0.2228
  777MOL0     C 7151   9.051   6.840   3.599 -0.4796  0.0509  0.1903
  777MOL0     C 7152   9.015   6.889   3.467 -0.0637 -0.3610  0.6613
  777MOL0     C 7153   8.982   6.907   3.351 -0.0881 -0.6007  0.0212
  777MOL0     C 7154   9.706   6.589   3.573  0.1873  0.3156  0.5081
  777MOL0     C 7155   9.837   6.548   3.592 -0.5660 -0.5833 -0.0509
  777MOL0     C 7156   9.878   6.430   3.497 -0.7240  0.1841  0.2247
  777MOL0     H 7157  10.328   6.720   3.703  1.3442  1.1936  0.7203
  777MOL0     H 7158  10.557   6.658   3.751 -0.6722 -0.7326 -1.9515
  777MOL0     H 7159  10.759   6.627   3.991 -0.1234  0.9723 -0.0980
  777MOL0     H 7160  10.763   6.574   3.815  0.4932 -0.8078 -0.5908
  777MOL0     H 7161  10.868   6.406   4.045  0.3999 -0.5493 -0.3537
  777MOL0     H 7162  10.855   6.359   3.881  0.6679  0.1008  0.0786
  777MOL0     H 7163  11.014   6.573   3.823  1.2431 -1.7102 -0.8115
  777MOL0     H 7164  11.039   6.571   4.000 -0.9713 -1.3147  1.5964
  777MOL0     H 7165  11.160   6.396   4.007 -0.9908 -2.9023 -0.8514
  777MOL0     H 7166  11.089   6.311   3.869  2.8219 -1.6951  0.7889
  777MOL0     H 7167  11.275   6.555   3.866  3.1626 -0.8897  0.4659
  777MOL0     H 7168  11.196   6.488   3.721 -1.0776  0.0190  1.0966
  777MOL0     H 7169  11.388   6.344   3.911  0.0604 -2.6555 -0.7813
  777MOL0     H 7170  11.313   6.268   3.787  0.6135  0.2434 -0.1708
  777MOL0     H 7171  11.457   6.487   3.665  0.2697  0.2293 -1.0228
  777MOL0     H 7172  11.459   6.312   3.634  0.1078  1.6092 -1.9882
  777MOL0     H 7173  11.620   6.447   3.859  1.0578  0.4421 -0.6103
  777MOL0     H 7174  11.629   6.288   3.817 -0.3405 -1.1316 -0.8140
  777MOL0     H 7175  11.870   6.244   3.711  0.7117 -0.9342 -0.7485
  777MOL0     H 7176  11.965   6.292   3.372 -0.1722  1.6154 -0.4071
  777MOL0     H 7177  12.004   6.198   3.519  0.6703  2.1733  4.8622
  777MOL0     H 7178  12.172   6.343   3.375 -0.2764  2.4061 -1.2767
  777MOL0     H 7179  12.135   6.474   3.480  1.8043  0.3474 -3.4608
  777MOL0     H 7180  12.179   6.331   3.675  0.2452 -1.5200  0.4708
  777MOL0     H 7181  12.218   6.191   3.567 -0.1255  0.2159  0.0916
  777MOL0     H 7182  12.359   6.469   3.536  1.8004  1.0535 -2.1324
  777MOL0     H 7183  12.423   6.346   3.652  0.2862  1.9977  0.1787
  777MOL0     H 7184  12.585   6.490   3.526 -1.0982 -0.7915  0.8345
  777MOL0     H 7185  12.802   6.641   3.480  1.7253  0.0342 -0.6815
  777MOL0     H 7186  12.951   6.541   3.489  0.1623 -2.9408  2.5495
  777MOL0     H 7187  12.823   6.508   3.594 -1.1312 -2.9955 -0.7384
  777MOL0     H 7188  13.043   6.097   3.027  1.3489 -1.5623 -0.3756
  777MOL0     H 7189  13.242   6.058   2.913 -3.9978 -0.0110  0.5868
  777MOL0     H 7190  13.459   5.938   2.985 -0.6729  0.6453 -0.0700
  777MOL0     H 7191  13.462   6.036   2.836 -1.2549 -1.0033  0.3636
  777MOL0     H 7192  13.699   5.951   3.000  0.2656  1.0014  0.7943
  777MOL0     H 7193  13.643   5.904   2.834 -0.5632 -1.7569  1.2578
  777MOL0     H 7194  13.745   6.187   2.915 -1.0634 -0.8282  1.0220
  777MOL0     H 7195  13.683   6.134   2.759 -0.5237  0.6857  0.2856
  777MOL0     H 7196  13.865   5.943   2.757 -1.5516  0.3986 -1.4410
  777MOL0     H 7197  13.927   5.992   2.902 -1.5643 -4.5596 -1.9928
  777MOL0     H 7198  14.064   6.077   2.726 -1.7884 -0.0299 -0.7864
  777MOL0     H 7199  13.930   6.174   2.653 -0.4783 -0.1340 -0.9312
  777MOL0     H 7200  14.067   6.213   2.918  1.0674  0.1036 -1.0831
  777MOL0     H 7201  13.941   6.328   2.864 -1.1152  1.5790 -3.0291
  777MOL0     H 7202  14.033   6.395   2.677 -0.3382 -0.5481  0.0363
  777MOL0     H 7203  14.181   6.289   2.690  1.4827  1.3724  1.2544
  777MOL0     H 7204  14.235   6.520   2.730 -1.4176 -0.7987 -1.0556
  777MOL0     H 7205  14.239   6.453   2.888  3.3054  0.6435 -1.6788
  777MOL0     H 7206  13.455   6.276   3.228 -0.5602 -0.1429  0.9193
  777MOL0     H 7207  13.226   6.303   3.332 -0.6737  0.7372 -0.4009
  777MOL0     H 7208  12.775   6.169   3.200  1.8333 -0.1240 -0.3184
  777MOL0     H 7209  12.538   6.167   3.261 -1.0221 -0.5240  2.1003
  777MOL0     H 7210  10.433   6.367   4.045 -0.4730 -0.3461 -1.0536
  777MOL0     H 7211  10.204   6.443   4.013 -0.6851 -1.1595 -2.4332
  777MOL0     H 7212   9.948   6.782   3.801 -0.2328  0.8412 -0.5242
  777MOL0     H 7213   9.721   6.862   3.771  4.1001  1.4262  0.0717
  777MOL0     H 7214   9.437   6.642   3.481 -0.3319  0.6951 -1.4816
  777MOL0     H 7215   9.403   6.605   3.651  2.2766 -0.6641 -0.9752
  777MOL0     H 7216   9.298   6.832   3.472  0.0599  1.9610 -0.7522
  777MOL0     H 7217   9.301   6.866   3.650 -3.0483  1.4392 -1.4036
  777MOL0     H 7218   9.130   6.660   3.511  0.5163  0.6808 -0.7474
  777MOL0     H 7219   9.162   6.677   3.689  3.8361 -1.9931 -1.1238
  777MOL0     H 7220   9.070   6.923   3.669 -4.0995  1.0905  0.1824
  777MOL0     H 7221   8.958   6.791   3.628  1.6177 -3.4031  1.6636
  777MOL0     H 7222   8.934   6.909   3.255  0.4110 -0.9394 -0.2428
  777MOL0     H 7223   9.638   6.525   3.518  0.5269 -0.7415  1.2770
  777MOL0     H 7224   9.926   6.466   3.405 -1.2250  0.5253  0.0920
  777MOL0     H 7225   9.957   6.367   3.538 -0.8155 -2.4893 -3.1996
  777MOL0     H 7226   9.789   6.372   3.469  0.0011 -0.9086  0.1410
  778MOL0     O 7227   5.868   4.644   7.236  0.2918  0.1582  0.1602
  778MOL0     C 7228   5.781   4.634   7.150  0.0018  0.9017  1.0462
  778MOL0     O 7229   5.715   4.743   7.102  0.2411  0.1969 -0.1514
  778MOL0     C 7230   5.703   4.859   7.175 -0.2855  0.7086  0.4803
  778MOL0     C 7231   5.672   4.858   7.314 -1.1240 -1.0638 -0.0935
  778MOL0     C 7232   5.664   4.981   7.388 -0.6393  1.1744 -0.0339
  778MOL0     C 7233   5.682   5.097   7.326 -0.2129  0.2827  0.8418
  778MOL0     O 7234   5.679   5.218   7.396 -0.3045  0.0554  0.2517
  778MOL0     C 7235   5.654   5.228   7.539  0.4809 -0.0161  0.3638
  778MOL0     C 7236   5.769   5.179   7.630 -0.1003  0.9312  0.5558
  778MOL0     C 7237   5.865   5.294   7.635 -1.0728  0.4654 -0.4854
  778MOL0     C 7238   5.955   5.267   7.763 -0.0832  0.2255 -0.2375
  778MOL0     C 7239   6.056   5.382   7.764 -0.0285 -0.6000 -0.9171
  778MOL0     C 7240   5.995   5.509   7.828 -0.1306  0.7802 -0.1413
  778MOL0     C 7241   6.081   5.630   7.808  0.5184  0.3011 -1.0025
  778MOL0     C 7242   6.005   5.746   7.887  0.3067  0.7311 -0.9722
  778MOL0     N 7243   6.084   5.867   7.885  0.5115 -0.7101 -0.5756
  778MOL0     C 7244   6.184   5.903   7.790  0.0839  0.8210  0.1426
  778MOL0     C 7245   6.203   6.035   7.811 -0.1332 -0.5604 -0.8003
  778MOL0     C 7246   6.293   6.098   7.716  0.7441  0.4726  0.1656
  778MOL0     C 7247   6.373   6.213   7.761 -0.3704 -1.1855 -0.4561
  778MOL0     C 7248   6.481   6.176   7.860 -0.4706  0.8136  0.8175
  778MOL0     C 7249   6.611   6.145   7.795  0.4549 -0.5902 -0.1036
  778MOL0     O 7250   6.705   6.082   7.881 -0.4262  0.2085 -0.4904
  778MOL0     C 7251   6.843   6.085   7.841  0.5910 -0.4554 -0.8252
  778MOL0     C 7252   6.912   6.207   7.833 -0.4724 -0.2263 -0.2177
  778MOL0     C 7253   7.051   6.210   7.822  0.3788 -0.1760 -0.3194
  778MOL0     C 7254   7.113   6.347   7.831 -0.5013 -0.2563  0.2110
  778MOL0     C 7255   7.120   6.083   7.807  0.2206  0.8095 -0.6226
  778MOL0     C 7256   7.263   6.060   7.771 -0.0964  0.2657  0.0597
  778MOL0     O 7257   7.308   5.929   7.747 -0.3400  0.0890 -0.6024
  778MOL0     C 7258   7.435   5.912   7.695  0.1922 -0.4960 -0.4004
  778MOL0     C 7259   7.442   5.847   7.577 -0.3869  0.0449  0.4291
  778MOL0     C 7260   7.565   5.822   7.524 -0.1261  0.9832  0.0722
  778MOL0     C 7261   7.682   5.861   7.595  0.4551 -1.3567  0.2933
  778MOL0     O 7262   7.797   5.799   7.548 -0.6621  0.2152  0.1652
  778MOL0     C 7263   7.922   5.847   7.583  0.2550 -0.0784  0.2702
  778MOL0     C 7264   8.024   5.814   7.474  0.5107 -0.4025  0.0534
  778MOL0     C 7265   7.993   5.903   7.356  0.3681 -0.1427  0.5275
  778MOL0     C 7266   8.101   5.890   7.244 -0.4744  0.1043  0.3285
  778MOL0     C 7267   8.076   5.969   7.127 -0.8759 -0.5313  0.1604
  778MOL0     C 7268   8.200   5.984   7.046  0.1946  0.5192  0.5646
  778MOL0     C 7269   8.160   6.072   6.927  0.4582  0.4494 -0.1172
  778MOL0     C 7270   8.276   6.103   6.829 -0.1211  0.3273  0.4093
  778MOL0    Cl 7271   8.233   6.209   6.696  0.2058 -0.1153  0.0364
  778MOL0     C 7272   7.670   5.929   7.722  0.1180 -0.8873 -0.0682
  778MOL0     C 7273   7.548   5.960   7.774 -0.4159  0.3326  0.2794
  778MOL0     O 7274   7.337   6.154   7.774  1.2050 -0.0198  0.1569
  778MOL0     C 7275   7.047   5.962   7.819  0.5583  0.6378  0.2362
  778MOL0     C 7276   6.912   5.966   7.839 -0.1551  0.4295  0.6794
  778MOL0     N 7277   6.131   6.076   7.922 -0.6007 -0.2309  0.0454
  778MOL0     N 7278   6.060   5.977   7.961  0.7817  0.1572  0.8083
  778MOL0     C 7279   5.707   5.103   7.186  1.2532 -0.1008  0.0546
  778MOL0     C 7280   5.708   4.981   7.111  0.0601 -0.2641  0.7811
  778MOL0     C 7281   5.787   4.516   7.067  0.5896 -0.1647  0.3963
  778MOL0     C 7282   5.776   4.531   6.925  0.2033 -0.0315  0.2574
  778MOL0     C 7283   5.778   4.423   6.833  0.4440 -0.6252 -1.1579
  778MOL0     C 7284   5.768   4.289   6.880  0.2302 -0.5089 -0.7752
  778MOL0     O 7285   5.761   4.184   6.798 -0.5779 -0.2833 -0.6760
  778MOL0     C 7286   5.668   4.083   6.827  0.3652  0.5996  0.2649
  778MOL0     C 7287   5.635   3.999   6.703  0.0467 -0.2070  0.3464
  778MOL0     C 7288   5.751   3.902   6.666 -0.7266 -0.0852  0.2532
  778MOL0     C 7289   5.743   3.774   6.761 -0.0540  0.0214  0.4238
  778MOL0     C 7290   5.857   3.691   6.718  0.0193  0.3192  0.1534
  778MOL0     C 7291   5.944   3.615   6.691  0.5365  1.0013  0.2333
  778MOL0     C 7292   5.774   4.271   7.019  0.0081 -0.7078 -0.2501
  778MOL0     C 7293   5.780   4.381   7.112  0.1912  0.0285 -0.0536
  778MOL0     C 7294   5.758   4.335   7.258 -0.1527 -0.4130 -0.5349
  778MOL0     H 7295   5.661   4.759   7.355 -2.0632 -1.0465 -0.2838
  778MOL0     H 7296   5.640   4.990   7.493 -2.2697  0.1414 -0.2779
  778MOL0     H 7297   5.557   5.185   7.566 -1.7827  3.9772 -0.4669
  778MOL0     H 7298   5.647   5.337   7.548 -3.8438  0.2413 -2.8839
  778MOL0     H 7299   5.730   5.151   7.728 -0.6280  0.8826  0.3406
  778MOL0     H 7300   5.827   5.099   7.583  0.7432  1.0881  1.3229
  778MOL0     H 7301   5.935   5.289   7.552  0.2969  1.0882  0.6026
  778MOL0     H 7302   5.815   5.392   7.637  0.4936  1.3104 -0.8148
  778MOL0     H 7303   5.890   5.265   7.850 -0.1189 -2.1706 -0.2708
  778MOL0     H 7304   6.011   5.173   7.758  0.2454  0.2052  2.4485
  778MOL0     H 7305   6.098   5.408   7.667 -0.6975 -1.2562 -1.3926
  778MOL0     H 7306   6.148   5.363   7.820  1.3321  0.7659 -2.5955
  778MOL0     H 7307   5.892   5.516   7.790 -0.6931 -1.7743  0.7484
  778MOL0     H 7308   5.979   5.498   7.936  0.0103  1.7572 -0.0119
  778MOL0     H 7309   6.081   5.654   7.702 -2.2341 -1.4252 -1.5079
  778MOL0     H 7310   6.180   5.608   7.849  1.3318 -4.1316 -4.6293
  778MOL0     H 7311   5.911   5.776   7.840  1.2072 -1.8042 -4.9428
  778MOL0     H 7312   5.993   5.704   7.987  3.7243  0.7204 -0.4488
  778MOL0     H 7313   6.222   5.846   7.706  0.7188  1.7704 -0.2364
  778MOL0     H 7314   6.239   6.128   7.626  1.0251 -0.2785 -0.2638
  778MOL0     H 7315   6.355   6.014   7.683 -0.6671 -0.0326 -1.3134
  778MOL0     H 7316   6.418   6.274   7.681 -0.1155 -1.6926 -0.7025
  778MOL0     H 7317   6.311   6.290   7.809  1.4182 -0.8855  1.5140
  778MOL0     H 7318   6.495   6.262   7.926  0.8039  1.4307 -0.2149
  778MOL0     H 7319   6.445   6.093   7.921 -2.8623  2.1317  1.3409
  778MOL0     H 7320   6.604   6.082   7.706 -0.2656 -0.3791 -0.2002
  778MOL0     H 7321   6.635   6.249   7.769 -0.1860 -0.5040 -0.3689
  778MOL0     H 7322   6.862   6.302   7.852 -2.2160 -1.0772 -0.3587
  778MOL0     H 7323   7.044   6.429   7.811  0.8518  0.8659 -0.0806
  778MOL0     H 7324   7.182   6.344   7.746 -1.6600  2.6412 -0.9591
  778MOL0     H 7325   7.171   6.374   7.920  0.3874 -0.4113 -0.3046
  778MOL0     H 7326   7.356   5.814   7.520  0.0796  0.3022 -0.4472
  778MOL0     H 7327   7.570   5.771   7.429 -2.1890 -0.9056  0.8791
  778MOL0     H 7328   7.932   5.953   7.608  1.1639 -0.3897  1.3219
  778MOL0     H 7329   7.973   5.790   7.661 -0.0611  0.4385  0.8617
  778MOL0     H 7330   8.128   5.825   7.506  1.2075 -3.0642 -1.0185
  778MOL0     H 7331   8.013   5.708   7.448  0.2031 -1.0205  2.5077
  778MOL0     H 7332   7.986   6.007   7.389  3.2927 -0.1387  1.3803
  778MOL0     H 7333   7.895   5.869   7.321  0.6071 -0.4951  0.2019
  778MOL0     H 7334   8.106   5.786   7.209  1.5113  1.1183 -2.7133
  778MOL0     H 7335   8.194   5.918   7.293  0.3133 -1.0106 -0.4978
  778MOL0     H 7336   7.993   5.929   7.067 -1.0405  0.5543 -0.3712
  778MOL0     H 7337   8.054   6.070   7.163 -2.4718 -0.9493  0.4107
  778MOL0     H 7338   8.249   5.892   7.014  0.7094  1.3823 -1.2799
  778MOL0     H 7339   8.283   6.027   7.104  2.3172 -0.9978 -1.1958
  778MOL0     H 7340   8.119   6.169   6.956  2.3370  1.7375 -1.5893
  778MOL0     H 7341   8.078   6.020   6.875 -2.9522  0.4074  4.6013
  778MOL0     H 7342   8.298   6.008   6.778  0.6279  1.0243 -0.6079
  778MOL0     H 7343   8.365   6.137   6.882 -0.0747  1.3983 -0.3351
  778MOL0     H 7344   7.761   5.941   7.781 -0.4393 -2.1001  1.0934
  778MOL0     H 7345   7.529   6.001   7.873 -0.3764 -1.0275  0.8866
  778MOL0     H 7346   7.095   5.866   7.806 -2.7576 -1.0352 -1.0132
  778MOL0     H 7347   6.859   5.875   7.866  0.5418  0.1124  0.9954
  778MOL0     H 7348   5.723   5.198   7.137  0.1562 -0.7021 -1.5576
  778MOL0     H 7349   5.708   4.996   7.003 -0.1200  0.1414  0.8339
  778MOL0     H 7350   5.762   4.631   6.886 -1.2638 -1.1905 -2.4602
  778MOL0     H 7351   5.775   4.433   6.725  2.3317  0.0865 -1.1883
  778MOL0     H 7352   5.706   4.014   6.902  1.0752  1.9324  1.1684
  778MOL0     H 7353   5.570   4.120   6.856 -1.0869 -1.7337 -1.2490
  778MOL0     H 7354   5.609   4.055   6.613 -0.5153 -0.1327  0.5531
  778MOL0     H 7355   5.551   3.934   6.729 -1.2530  0.5568 -1.6988
  778MOL0     H 7356   5.761   3.875   6.560  2.2659  0.0968  0.4050
  778MOL0     H 7357   5.849   3.944   6.689 -0.4407 -1.1523  1.0522
  778MOL0     H 7358   5.651   3.719   6.738  1.0638 -1.9976  0.5711
  778MOL0     H 7359   5.769   3.802   6.864 -0.9757 -0.6967  0.8714
  778MOL0     H 7360   6.014   3.540   6.661  1.4061  2.6006 -2.0436
  778MOL0     H 7361   5.777   4.167   7.050  2.1677 -0.8828 -0.8596
  778MOL0     H 7362   5.830   4.264   7.301  1.1783  1.8383  1.2077
  778MOL0     H 7363   5.748   4.421   7.324  1.6775  0.8048 -1.7556
  778MOL0     H 7364   5.662   4.284   7.249 -0.3177 -0.0794 -0.6340
  779MOL0     O 7365  11.302   0.077   3.976  0.1907 -0.0876  0.2986
  779MOL0     C 7366  11.216  -0.010   3.988  0.2039  0.2902  0.0336
  779MOL0     O 7367  11.249  -0.144   4.005 -0.2462 -0.7575 -0.3716
  779MOL0     C 7368  11.384  -0.183   4.023  0.8053 -0.4924  0.9056
  779MOL0     C 7369  11.460  -0.127   4.125 -0.2099 -0.7169  1.0310
  779MOL0     C 7370  11.587  -0.167   4.143 -0.3394 -0.1096  0.0904
  779MOL0     C 7371  11.657  -0.246   4.047  0.4525  0.1656 -0.8541
  779MOL0     O 7372  11.787  -0.283   4.072 -0.0040  0.6997 -0.0886
  779MOL0     C 7373  11.870  -0.220   4.162 -0.0100 -0.3538 -0.1527
  779MOL0     C 7374  12.005  -0.293   4.155 -0.0128  0.3463 -0.3777
  779MOL0     C 7375  12.118  -0.194   4.190  0.2393 -0.3281 -0.3011
  779MOL0     C 7376  12.260  -0.255   4.168 -0.3718  0.9361  0.1599
  779MOL0     C 7377  12.357  -0.143   4.120 -0.9847  0.0154  0.0110
  779MOL0     C 7378  12.490  -0.187   4.063  0.4519  0.0324 -0.6013
  779MOL0     C 7379  12.562  -0.085   3.976 -0.0317  0.3267 -0.0625
  779MOL0     C 7380  12.633   0.009   4.064 -0.1477  0.3196  0.2604
  779MOL0     N 7381  12.736   0.091   3.999 -0.5817 -0.7897 -0.0876
  779MOL0     C 7382  12.876   0.088   4.017  0.0718 -0.4572 -0.1328
  779MOL0     C 7383  12.927   0.179   3.938  0.5438  0.5442 -0.2049
  779MOL0     C 7384  13.078   0.216   3.926  1.0174 -0.0923  0.5746
  779MOL0     C 7385  13.097   0.273   3.786 -0.0798 -0.6988  0.0498
  779MOL0     C 7386  13.250   0.278   3.754 -0.5387  0.7376 -0.4683
  779MOL0     C 7387  13.337   0.375   3.839 -1.6648 -0.3322 -0.1244
  779MOL0     O 7388  13.324   0.370   3.979  0.1260 -0.2755 -0.3594
  779MOL0     C 7389  13.417   0.423   4.062  0.8414 -0.0126  0.4376
  779MOL0     C 7390  13.416   0.388   4.201  1.1190 -0.1805 -0.3462
  779MOL0     C 7391  13.522   0.418   4.286 -0.5569 -0.9501 -0.5970
  779MOL0     C 7392  13.519   0.356   4.422 -0.1072  0.3618  0.1807
  779MOL0     C 7393  13.633   0.493   4.235 -0.1464  0.1201  0.4953
  779MOL0     C 7394  13.755   0.517   4.308 -0.7413  1.2572 -1.1566
  779MOL0     O 7395  13.870   0.516   4.234 -0.5506 -0.1499  0.5633
  779MOL0     C 7396  13.974   0.592   4.280 -0.6026  0.7922 -0.1960
  779MOL0     C 7397  14.006   0.703   4.206 -0.0033 -0.5960 -0.0912
  779MOL0     C 7398  14.119   0.784   4.250 -0.3057  0.0848  0.0916
  779MOL0     C 7399  14.189   0.756   4.365  0.1810  0.2628  0.1621
  779MOL0     O 7400  14.297   0.829   4.412 -0.0772 -0.2319  0.0180
  779MOL0     C 7401  14.355   0.943   4.329  0.8914  0.5090 -0.2613
  779MOL0     C 7402  14.447   0.893   4.216  0.2076 -0.3873 -0.0944
  779MOL0     C 7403  14.593   0.847   4.267  0.4651 -0.0235  0.0333
  779MOL0     C 7404  14.703   0.955   4.267  0.0226 -0.2138 -0.2961
  779MOL0     C 7405  14.843   0.905   4.310 -0.0030  0.6278  0.8502
  779MOL0     C 7406  14.946   1.026   4.333  0.4394 -0.5130  0.5808
  779MOL0     C 7407  15.079   0.984   4.375 -0.1622  0.5829 -0.6083
  779MOL0     C 7408  15.192   1.085   4.374  0.1289  0.4629  0.6161
  779MOL0    Cl 7409  15.294   1.050   4.222  0.0490 -0.1577  0.2129
  779MOL0     C 7410  14.160   0.637   4.431 -0.4359 -0.6432 -0.4493
  779MOL0     C 7411  14.060   0.544   4.385 -0.1294  0.2941 -0.3161
  779MOL0     O 7412  13.743   0.551   4.425 -0.4979 -0.1926  0.0245
  779MOL0     C 7413  13.629   0.536   4.103  0.2073 -0.3927 -0.5166
  779MOL0     C 7414  13.523   0.513   4.012  0.5886  0.3242 -0.3899
  779MOL0     N 7415  12.822   0.222   3.858 -0.0668  0.2107  0.2767
  779MOL0     N 7416  12.720   0.179   3.900 -0.3487 -0.1683  0.4560
  779MOL0     C 7417  11.577  -0.293   3.936  0.9060 -0.5927  0.1086
  779MOL0     C 7418  11.442  -0.270   3.930  0.1927 -0.2508 -0.5567
  779MOL0     C 7419  11.071   0.026   3.975 -0.2330  0.6550  0.2476
  779MOL0     C 7420  10.980  -0.079   3.956 -0.3997 -0.4343 -0.3198
  779MOL0     C 7421  10.852  -0.063   3.915  0.2728 -0.1703  0.2846
  779MOL0     C 7422  10.793   0.069   3.906  0.2526  0.3801 -0.5132
  779MOL0     O 7423  10.659   0.082   3.870 -0.0016  0.2020  0.2603
  779MOL0     C 7424  10.630   0.119   3.739 -0.2017 -0.2013 -0.4668
  779MOL0     C 7425  10.501   0.196   3.740  0.3447 -0.0155 -1.0123
  779MOL0     C 7426  10.502   0.328   3.822  0.7346  0.0696 -0.1952
  779MOL0     C 7427  10.355   0.361   3.861  0.7395 -0.4449 -0.4848
  779MOL0     C 7428  10.257   0.377   3.754 -0.1905  0.6068  0.5059
  779MOL0     C 7429  10.159   0.377   3.678 -0.6974  0.1803  0.0666
  779MOL0     C 7430  10.877   0.177   3.931 -0.2773  0.9901 -0.3543
  779MOL0     C 7431  11.015   0.156   3.959 -0.0688  0.4425  0.1180
  779MOL0     C 7432  11.087   0.278   3.991 -0.0761 -0.1867  0.2907
  779MOL0     H 7433  11.424  -0.041   4.181  2.4012  1.3700 -0.2365
  779MOL0     H 7434  11.643  -0.110   4.216 -1.1672  1.3752 -0.4032
  779MOL0     H 7435  11.832  -0.224   4.265 -0.1605  0.2254 -0.1813
  779MOL0     H 7436  11.879  -0.115   4.134 -3.2016  0.0373 -0.1455
  779MOL0     H 7437  12.012  -0.385   4.213  2.5491  1.7043  1.6602
  779MOL0     H 7438  12.022  -0.324   4.051 -0.3898 -0.5459 -0.1839
  779MOL0     H 7439  12.108  -0.105   4.127  3.9267 -0.8210 -1.8228
  779MOL0     H 7440  12.119  -0.146   4.288  1.2645 -1.9761  0.5472
  779MOL0     H 7441  12.292  -0.312   4.256 -1.1738 -1.5131 -1.0292
  779MOL0     H 7442  12.251  -0.336   4.095 -1.9591 -0.3821  1.7078
  779MOL0     H 7443  12.378  -0.073   4.202  2.5536 -0.7924 -0.0730
  779MOL0     H 7444  12.297  -0.084   4.051  0.7114  1.9529  0.1186
  779MOL0     H 7445  12.553  -0.209   4.149  0.0904 -0.9729 -0.5756
  779MOL0     H 7446  12.467  -0.278   4.006 -1.6906  0.4855 -0.5448
  779MOL0     H 7447  12.492  -0.024   3.917  1.8780  1.9891 -0.7257
  779MOL0     H 7448  12.630  -0.141   3.911  1.3799 -1.1411  2.5463
  779MOL0     H 7449  12.562   0.066   4.124  0.9863  2.0579  0.0467
  779MOL0     H 7450  12.686  -0.055   4.135 -1.1384 -0.5033  0.2729
  779MOL0     H 7451  12.951   0.022   4.059 -0.0890 -0.1436  0.6627
  779MOL0     H 7452  13.136   0.127   3.953  2.6084  0.1175 -1.7610
  779MOL0     H 7453  13.106   0.293   3.998  0.6496  0.7190 -0.1249
  779MOL0     H 7454  13.047   0.213   3.709 -1.7583  0.4342  0.2086
  779MOL0     H 7455  13.068   0.379   3.779 -0.3892 -0.8873 -2.3414
  779MOL0     H 7456  13.293   0.182   3.780  0.8840  1.7337  1.0552
  779MOL0     H 7457  13.269   0.300   3.648 -1.1634 -1.0414 -0.9737
  779MOL0     H 7458  13.443   0.354   3.821 -1.5160 -1.1565  1.4996
  779MOL0     H 7459  13.325   0.478   3.804 -2.2760 -0.1320  0.6452
  779MOL0     H 7460  13.336   0.328   4.243  1.4637 -2.1014 -2.2352
  779MOL0     H 7461  13.507   0.436   4.496 -0.4128  3.1891 -2.7340
  779MOL0     H 7462  13.608   0.294   4.438  0.4022  1.0854  0.1822
  779MOL0     H 7463  13.432   0.290   4.434  0.1943 -0.3782 -1.5001
  779MOL0     H 7464  13.953   0.724   4.113 -2.1027  1.7293  1.5029
  779MOL0     H 7465  14.149   0.867   4.188  0.7769  1.1026  1.9114
  779MOL0     H 7466  14.273   0.998   4.281  1.4613  2.2813  0.7186
  779MOL0     H 7467  14.405   1.007   4.402  1.3187  1.4791 -1.3742
  779MOL0     H 7468  14.403   0.808   4.163  2.0571 -2.4019  1.4469
  779MOL0     H 7469  14.454   0.983   4.154 -3.4004 -0.3130 -0.6345
  779MOL0     H 7470  14.621   0.769   4.195 -0.8980 -2.3535  1.8578
  779MOL0     H 7471  14.583   0.797   4.364  0.9721 -0.4238 -0.1165
  779MOL0     H 7472  14.681   1.042   4.330  0.1972  0.6960 -1.4621
  779MOL0     H 7473  14.702   0.990   4.164  2.6411 -0.0304 -0.3227
  779MOL0     H 7474  14.827   0.831   4.389 -0.0194 -3.2151 -2.5047
  779MOL0     H 7475  14.883   0.845   4.228 -2.0575  0.8799 -0.3998
  779MOL0     H 7476  14.899   1.097   4.401  3.5490  0.6114  1.7434
  779MOL0     H 7477  14.959   1.073   4.235  0.1191 -2.5131 -0.4910
  779MOL0     H 7478  15.118   0.906   4.310  1.4209  0.6704  0.1857
  779MOL0     H 7479  15.062   0.943   4.474 -2.5893  0.8728 -0.8390
  779MOL0     H 7480  15.252   1.063   4.463 -1.0963 -4.4084  0.4865
  779MOL0     H 7481  15.158   1.189   4.381 -4.2455 -0.5174 -2.0107
  779MOL0     H 7482  14.225   0.614   4.515  0.8874  1.1365 -0.9065
  779MOL0     H 7483  14.036   0.451   4.435 -1.4557  2.2165  2.9126
  779MOL0     H 7484  13.715   0.589   4.062  0.9773 -0.4559  0.9528
  779MOL0     H 7485  13.524   0.550   3.910 -1.4078 -0.0889 -0.5936
  779MOL0     H 7486  11.628  -0.349   3.859  0.4046 -0.8969 -0.0085
  779MOL0     H 7487  11.387  -0.310   3.845  3.1128  2.8137 -4.3005
  779MOL0     H 7488  11.014  -0.177   3.987 -0.8245  0.0957  1.9969
  779MOL0     H 7489  10.804  -0.156   3.886 -0.6162  1.0087 -2.2987
  779MOL0     H 7490  10.703   0.195   3.707  1.4255 -0.9186  1.3848
  779MOL0     H 7491  10.626   0.032   3.673  0.6028 -1.2044  0.7524
  779MOL0     H 7492  10.417   0.136   3.778  0.3972  1.1899  1.1465
  779MOL0     H 7493  10.467   0.212   3.637 -3.0691 -0.8289 -0.1383
  779MOL0     H 7494  10.561   0.318   3.914 -1.0027 -0.5475  0.9193
  779MOL0     H 7495  10.552   0.401   3.758  2.4939  0.3475  1.3924
  779MOL0     H 7496  10.363   0.459   3.909  2.4045  1.3595 -4.0702
  779MOL0     H 7497  10.314   0.289   3.933  1.2947 -0.1502  0.1350
  779MOL0     H 7498  10.062   0.402   3.640 -0.9716  0.3147  0.8423
  779MOL0     H 7499  10.838   0.277   3.943 -0.1625  0.9912  0.0106
  779MOL0     H 7500  11.025   0.368   4.000  2.2159  1.4240  0.9561
  779MOL0     H 7501  11.141   0.260   4.084  0.1938 -2.4415 -0.2499
  779MOL0     H 7502  11.169   0.300   3.922  1.1388 -0.5399  1.5708
  780MOL0     O 7503   2.516   4.552   8.927 -0.1731  0.4692 -0.3719
  780MOL0     C 7504   2.417   4.560   8.859  0.0464 -0.5883  0.1711
  780MOL0     O 7505   2.290   4.564   8.910  0.0747  0.0519  0.4952
  780MOL0     C 7506   2.263   4.509   9.026  0.6826 -0.9567 -0.1113
  780MOL0     C 7507   2.161   4.582   9.095 -0.7346  0.3080  0.0299
  780MOL0     C 7508   2.148   4.562   9.237  0.8330  0.5594  0.6093
  780MOL0     C 7509   2.217   4.461   9.294 -1.0032  0.0013 -0.9409
  780MOL0     O 7510   2.240   4.430   9.424  0.2206 -0.5993 -0.1861
  780MOL0     C 7511   2.215   4.524   9.527 -0.8070  0.0450  0.2542
  780MOL0     C 7512   2.292   4.479   9.651  0.1803 -0.8314 -0.2692
  780MOL0     C 7513   2.438   4.433   9.609  0.0212 -0.6592 -0.2867
  780MOL0     C 7514   2.519   4.567   9.584  0.1116 -0.2298  0.1804
  780MOL0     C 7515   2.564   4.571   9.439  0.5046 -1.6602 -0.1517
  780MOL0     C 7516   2.650   4.700   9.423  0.8646 -0.3026 -0.4324
  780MOL0     C 7517   2.707   4.733   9.282 -0.2002 -0.8323 -0.1001
  780MOL0     C 7518   2.821   4.640   9.249 -0.6896  0.4376  0.1220
  780MOL0     N 7519   2.887   4.669   9.118  0.2536 -0.2479  0.0603
  780MOL0     C 7520   2.838   4.630   8.994  0.1287 -0.3462  0.3356
  780MOL0     C 7521   2.942   4.681   8.915  0.0232 -0.4590 -0.3146
  780MOL0     C 7522   2.963   4.689   8.774  0.3748  0.5623 -0.7620
  780MOL0     C 7523   2.927   4.830   8.739 -0.5052 -0.0768 -0.2969
  780MOL0     C 7524   2.963   4.844   8.585  0.5429 -0.3252 -0.6969
  780MOL0     C 7525   3.121   4.863   8.572  0.5893 -0.3357  0.1821
  780MOL0     O 7526   3.147   4.915   8.446  0.2231  0.6693  1.7541
  780MOL0     C 7527   3.273   4.894   8.399 -0.1800  0.0238 -0.2994
  780MOL0     C 7528   3.300   4.873   8.265  0.0023  0.4295 -0.0569
  780MOL0     C 7529   3.432   4.829   8.218 -0.3145  0.2231  0.2089
  780MOL0     C 7530   3.430   4.789   8.069 -0.2155  0.0145 -0.8319
  780MOL0     C 7531   3.541   4.815   8.312  0.5684  0.4756 -0.5500
  780MOL0     C 7532   3.686   4.774   8.281  0.1660  0.7089  0.9202
  780MOL0     O 7533   3.774   4.774   8.386  0.1795 -0.3293  0.1873
  780MOL0     C 7534   3.907   4.740   8.359 -0.2298  1.0195  0.2872
  780MOL0     C 7535   4.007   4.840   8.326  0.3372  0.6980 -0.0530
  780MOL0     C 7536   4.134   4.806   8.297 -0.1825 -0.2376 -0.0067
  780MOL0     C 7537   4.174   4.678   8.304 -0.3188 -0.1478 -1.3351
  780MOL0     O 7538   4.309   4.664   8.282  0.1160  0.4993  0.2074
  780MOL0     C 7539   4.377   4.539   8.302  0.4025  0.5746  0.7588
  780MOL0     C 7540   4.410   4.470   8.166  0.1448 -0.7922 -0.1039
  780MOL0     C 7541   4.549   4.404   8.163 -0.9024 -0.5765 -0.4410
  780MOL0     C 7542   4.568   4.325   8.035  0.4882  0.1012 -0.1066
  780MOL0     C 7543   4.693   4.229   8.041  0.9201 -0.3163 -0.1208
  780MOL0     C 7544   4.816   4.307   8.012  0.3263  0.1993  1.2580
  780MOL0     C 7545   4.934   4.221   7.963  0.0426  0.3451  0.8682
  780MOL0     C 7546   5.036   4.318   7.900 -0.1217 -0.2878 -0.8061
  780MOL0    Cl 7547   5.207   4.236   7.885 -0.3352  0.0493  0.0795
  780MOL0     C 7548   4.081   4.573   8.337  0.1000 -0.0104  0.2255
  780MOL0     C 7549   3.944   4.612   8.362 -0.4295  0.4807  0.1744
  780MOL0     O 7550   3.714   4.730   8.170  0.2234  0.3885 -0.3464
  780MOL0     C 7551   3.514   4.847   8.447  0.2820  0.5502 -0.8286
  780MOL0     C 7552   3.383   4.884   8.491 -0.2025  0.0034 -0.1332
  780MOL0     N 7553   3.039   4.743   8.999 -0.3279 -0.0678 -0.0844
  780MOL0     N 7554   3.010   4.721   9.122  0.2240 -0.2673 -0.3524
  780MOL0     C 7555   2.298   4.380   9.220 -0.1124 -0.9037  0.0895
  780MOL0     C 7556   2.325   4.397   9.088  0.0889 -0.2605 -0.8468
  780MOL0     C 7557   2.432   4.588   8.710  0.7137 -0.1785  0.0413
  780MOL0     C 7558   2.558   4.618   8.659 -0.1158 -0.1727 -0.2001
  780MOL0     C 7559   2.583   4.666   8.524 -0.6448 -0.7966  0.2925
  780MOL0     C 7560   2.470   4.666   8.435 -0.5319  1.0061  0.6333
  780MOL0     O 7561   2.495   4.685   8.306 -0.1456 -0.4006  0.0395
  780MOL0     C 7562   2.396   4.662   8.203  0.0105 -0.0193  0.3049
  780MOL0     C 7563   2.432   4.743   8.075 -0.0569  0.5840 -0.4762
  780MOL0     C 7564   2.341   4.712   7.951  0.2135 -0.0213  0.1237
  780MOL0     C 7565   2.410   4.779   7.823  0.5917 -0.0457 -0.0171
  780MOL0     C 7566   2.539   4.723   7.781  0.8227 -0.1818 -0.3167
  780MOL0     C 7567   2.643   4.678   7.748  0.0569  0.2152 -0.4310
  780MOL0     C 7568   2.347   4.607   8.484  0.1794 -0.3694  0.0109
  780MOL0     C 7569   2.323   4.580   8.616 -0.1152  0.1271  0.2236
  780MOL0     C 7570   2.187   4.527   8.649 -0.8295  0.7356  1.1118
  780MOL0     H 7571   2.103   4.656   9.041 -2.5980 -1.6225 -0.7843
  780MOL0     H 7572   2.079   4.628   9.288 -1.7539  0.7121 -2.7544
  780MOL0     H 7573   2.108   4.514   9.548 -0.5268 -0.7321  1.4041
  780MOL0     H 7574   2.246   4.622   9.491  0.9661 -1.6906 -3.5889
  780MOL0     H 7575   2.297   4.547   9.737  3.2622 -0.1978 -0.8283
  780MOL0     H 7576   2.228   4.401   9.693  1.6594 -1.2668  1.2660
  780MOL0     H 7577   2.487   4.381   9.692  0.0528 -1.4971 -0.8287
  780MOL0     H 7578   2.445   4.364   9.524  0.3607 -0.2929 -0.5632
  780MOL0     H 7579   2.458   4.654   9.607 -1.5855 -0.8821 -1.5673
  780MOL0     H 7580   2.614   4.571   9.640  0.8783 -0.0475 -1.0893
  780MOL0     H 7581   2.476   4.576   9.375  1.4955  2.5607 -1.5273
  780MOL0     H 7582   2.627   4.484   9.420 -0.2596 -2.0485 -0.9748
  780MOL0     H 7583   2.582   4.782   9.444 -0.5570 -1.5895  0.1401
  780MOL0     H 7584   2.741   4.700   9.484  0.1887  2.1240  0.6747
  780MOL0     H 7585   2.742   4.836   9.285  1.7058 -1.4748  1.4725
  780MOL0     H 7586   2.631   4.733   9.203  0.5538  1.7264 -0.9200
  780MOL0     H 7587   2.896   4.657   9.327 -0.8282  1.3363  0.0744
  780MOL0     H 7588   2.786   4.537   9.245 -2.2097  0.8928  0.7756
  780MOL0     H 7589   2.743   4.585   8.968 -1.0368 -1.0156  4.8410
  780MOL0     H 7590   2.895   4.617   8.727  0.9549  0.2264 -1.0919
  780MOL0     H 7591   3.069   4.677   8.752  0.7931 -0.2804  1.4701
  780MOL0     H 7592   2.822   4.855   8.757 -0.7226 -0.6714 -0.6910
  780MOL0     H 7593   2.980   4.903   8.801  1.2714 -1.5434 -0.0113
  780MOL0     H 7594   2.920   4.758   8.532  0.2155 -2.3641  2.5250
  780MOL0     H 7595   2.925   4.937   8.543  2.9800 -0.0784 -2.5818
  780MOL0     H 7596   3.155   4.932   8.649  0.8393 -0.8426  0.5286
  780MOL0     H 7597   3.170   4.765   8.573 -2.7088 -2.3384 -3.5395
  780MOL0     H 7598   3.207   4.887   8.211  0.0731 -1.5362 -0.7735
  780MOL0     H 7599   3.331   4.811   8.028 -2.1363  1.5816  3.8467
  780MOL0     H 7600   3.444   4.681   8.069 -1.5506 -0.3782  3.5569
  780MOL0     H 7601   3.505   4.844   8.012 -0.7714  0.9602 -0.6743
  780MOL0     H 7602   3.975   4.939   8.295 -4.0612 -0.9359 -1.4487
  780MOL0     H 7603   4.191   4.886   8.252  1.2755 -0.9886  0.4256
  780MOL0     H 7604   4.469   4.562   8.356  3.2018 -2.6218 -2.2048
  780MOL0     H 7605   4.321   4.468   8.363  3.1064  0.4256  3.2761
  780MOL0     H 7606   4.327   4.400   8.168  1.1271 -2.0873  4.0212
  780MOL0     H 7607   4.400   4.544   8.085  0.0459 -3.1684 -2.3891
  780MOL0     H 7608   4.554   4.329   8.243  0.7074  0.4290  0.4533
  780MOL0     H 7609   4.633   4.471   8.183 -1.6639 -0.1999  1.7087
  780MOL0     H 7610   4.570   4.399   7.954  0.2811  1.3997  1.0291
  780MOL0     H 7611   4.482   4.261   8.015  0.0531  0.3358  0.9395
  780MOL0     H 7612   4.706   4.182   8.139  0.1493  0.4859  0.3780
  780MOL0     H 7613   4.680   4.161   7.956 -1.1887  0.7675 -0.7408
  780MOL0     H 7614   4.848   4.353   8.106  2.9551 -1.1414  1.1229
  780MOL0     H 7615   4.792   4.385   7.939 -2.1494 -1.1390  0.5318
  780MOL0     H 7616   4.892   4.144   7.897 -1.6948 -0.0707  2.3762
  780MOL0     H 7617   4.979   4.167   8.047  1.0324  1.7074  1.2361
  780MOL0     H 7618   5.042   4.411   7.956 -0.2463 -0.6206 -0.2368
  780MOL0     H 7619   5.001   4.349   7.801  1.1514 -1.6768 -1.7576
  780MOL0     H 7620   4.087   4.468   8.312  0.1775 -0.2979  1.3770
  780MOL0     H 7621   3.864   4.541   8.374 -1.4467  1.4435 -0.7475
  780MOL0     H 7622   3.597   4.856   8.516 -1.8410 -0.2770  2.0815
  780MOL0     H 7623   3.368   4.930   8.588  1.7878  1.0509 -0.2613
  780MOL0     H 7624   2.339   4.298   9.278  0.3746 -0.0775  0.9466
  780MOL0     H 7625   2.393   4.323   9.049  2.1524  0.4163  1.2464
  780MOL0     H 7626   2.648   4.606   8.719  0.5905  1.4315 -0.8866
  780MOL0     H 7627   2.680   4.697   8.488 -0.7049  2.0387  2.2881
  780MOL0     H 7628   2.387   4.557   8.173 -1.4046  0.0541  0.3787
  780MOL0     H 7629   2.295   4.688   8.239  0.4177  2.6601 -0.2900
  780MOL0     H 7630   2.530   4.710   8.038  0.2775  0.2689  0.6444
  780MOL0     H 7631   2.429   4.851   8.091 -0.7599  0.3929  0.9139
  780MOL0     H 7632   2.322   4.607   7.927  2.2430 -0.0230 -1.8362
  780MOL0     H 7633   2.246   4.758   7.977  1.3033  1.5683  1.5289
  780MOL0     H 7634   2.435   4.885   7.832  1.6791 -0.0459 -2.1830
  780MOL0     H 7635   2.341   4.764   7.739 -1.5176  0.7763  1.5135
  780MOL0     H 7636   2.730   4.624   7.718 -0.0442 -1.0065  1.3377
  780MOL0     H 7637   2.257   4.592   8.426  0.4354  1.6399 -0.9981
  780MOL0     H 7638   2.205   4.453   8.728  1.1903 -0.6240 -0.5208
  780MOL0     H 7639   2.117   4.604   8.684  1.0064  2.1721  1.7599
  780MOL0     H 7640   2.137   4.471   8.569  1.2894  0.2225  0.0927
  781MOL0     O 7641   8.730   2.450  10.721  0.5036  0.3642 -0.5571
  781MOL0     C 7642   8.715   2.463  10.605  0.1317 -0.2747  1.2462
  781MOL0     O 7643   8.817   2.447  10.512  0.3157  0.3877 -0.2714
  781MOL0     C 7644   8.949   2.428  10.552  0.8248 -0.2083  0.9040
  781MOL0     C 7645   9.007   2.518  10.635  0.1061  0.3757 -0.4262
  781MOL0     C 7646   9.141   2.504  10.670  0.6323  0.2322  0.3119
  781MOL0     C 7647   9.209   2.391  10.621  0.8960  0.6440 -0.4462
  781MOL0     O 7648   9.340   2.390  10.646 -0.7071  0.2879 -0.0393
  781MOL0     C 7649   9.418   2.273  10.626 -0.5924  0.0816 -0.4955
  781MOL0     C 7650   9.558   2.312  10.655 -0.2564 -0.9182 -0.2756
  781MOL0     C 7651   9.652   2.197  10.627 -0.0357 -0.6796 -0.4925
  781MOL0     C 7652   9.805   2.230  10.650 -0.3963 -0.0654  0.0630
  781MOL0     C 7653   9.906   2.112  10.624  0.1461  1.6939 -0.7372
  781MOL0     C 7654  10.023   2.135  10.714  0.0752  0.4186  0.5072
  781MOL0     C 7655  10.130   2.028  10.691 -0.4320 -0.0563  0.6289
  781MOL0     C 7656  10.177   2.032  10.546 -0.7823  0.5228  0.4455
  781MOL0     N 7657  10.287   1.937  10.530 -0.2127  0.5050 -0.6858
  781MOL0     C 7658  10.418   1.974  10.527  0.1561  1.0052 -0.0187
  781MOL0     C 7659  10.483   1.860  10.494 -0.0100 -0.3231 -0.1105
  781MOL0     C 7660  10.630   1.833  10.470  0.6587  0.5737  0.6167
  781MOL0     C 7661  10.673   1.911  10.351 -0.2528 -0.8434 -0.8860
  781MOL0     C 7662  10.628   1.855  10.214  0.2643 -0.0680 -0.5132
  781MOL0     C 7663  10.673   1.707  10.192 -0.3230 -0.4239  0.0626
  781MOL0     O 7664  10.690   1.668  10.058  0.6810  0.3869 -0.2500
  781MOL0     C 7665  10.797   1.711   9.977  0.5998  0.5840  0.2882
  781MOL0     C 7666  10.793   1.679   9.839  0.4944 -0.3592 -0.3765
  781MOL0     C 7667  10.899   1.723   9.754 -0.8264 -0.3047 -0.7560
  781MOL0     C 7668  10.891   1.657   9.617  0.7753 -0.0866 -0.6329
  781MOL0     C 7669  11.008   1.796   9.802  0.0860 -0.3659  0.1990
  781MOL0     C 7670  11.124   1.838   9.720  0.1294 -0.1651 -0.0276
  781MOL0     O 7671  11.214   1.933   9.775  0.5540  0.0274  0.3605
  781MOL0     C 7672  11.345   1.923   9.735 -0.4937  0.3328  1.1517
  781MOL0     C 7673  11.383   1.974   9.612 -0.5656  0.0350  0.1822
  781MOL0     C 7674  11.517   1.973   9.569 -0.9467 -0.1211 -0.3454
  781MOL0     C 7675  11.609   1.913   9.652 -0.3302 -0.6914 -0.4432
  781MOL0     O 7676  11.740   1.923   9.612 -0.5894  0.1783  0.0705
  781MOL0     C 7677  11.816   1.800   9.613 -0.4574 -0.0505 -0.2599
  781MOL0     C 7678  11.926   1.812   9.505 -0.5999 -0.0739  0.6608
  781MOL0     C 7679  11.997   1.947   9.519 -0.5374 -0.9773  0.7373
  781MOL0     C 7680  12.124   1.951   9.433  0.6816 -0.8518 -0.0171
  781MOL0     C 7681  12.186   2.088   9.455 -0.1973 -0.1563 -0.6263
  781MOL0     C 7682  12.303   2.107   9.363 -0.2026  0.6751 -0.6692
  781MOL0     C 7683  12.366   2.236   9.400  0.0387 -0.7780  0.1793
  781MOL0     C 7684  12.519   2.243   9.401 -0.1252 -0.2313  0.2569
  781MOL0    Cl 7685  12.609   2.202   9.251  0.1148  0.0460  0.3018
  781MOL0     C 7686  11.578   1.849   9.771  0.3805  0.3000  0.2306
  781MOL0     C 7687  11.441   1.866   9.814  0.3084 -0.4627  0.3874
  781MOL0     O 7688  11.144   1.790   9.609 -0.0120 -0.0756 -0.1829
  781MOL0     C 7689  11.007   1.840   9.936  0.2764  0.0328 -0.1803
  781MOL0     C 7690  10.900   1.795  10.024 -0.4152 -0.4814 -0.1774
  781MOL0     N 7691  10.390   1.754  10.476 -1.0258 -0.5122 -0.2814
  781MOL0     N 7692  10.273   1.811  10.491 -0.4209  1.1056 -0.5779
  781MOL0     C 7693   9.136   2.288  10.550 -0.5299 -0.6734  0.1237
  781MOL0     C 7694   9.004   2.306  10.520  0.1932  0.0143 -0.7079
  781MOL0     C 7695   8.588   2.502  10.557 -0.1171 -0.1124 -0.4653
  781MOL0     C 7696   8.491   2.546  10.661 -0.6688  0.1139  0.1962
  781MOL0     C 7697   8.376   2.611  10.638 -0.0739  0.0727 -0.5185
  781MOL0     C 7698   8.338   2.624  10.495  0.3816  0.1635 -0.8510
  781MOL0     O 7699   8.215   2.675  10.453  0.5220 -0.1227 -0.0987
  781MOL0     C 7700   8.124   2.699  10.560 -0.1379  0.6824  0.8049
  781MOL0     C 7701   8.058   2.565  10.605 -0.7613  0.3042  0.2646
  781MOL0     C 7702   7.974   2.581  10.736 -0.3022 -0.4166  0.6881
  781MOL0     C 7703   8.000   2.465  10.830 -0.0538 -0.3537 -0.2860
  781MOL0     C 7704   8.141   2.451  10.871  0.4632  0.1301 -0.1682
  781MOL0     C 7705   8.253   2.433  10.896 -0.4194  0.2183 -0.5713
  781MOL0     C 7706   8.421   2.571  10.401 -0.5794 -0.2647  0.4109
  781MOL0     C 7707   8.549   2.513  10.425  0.3972 -0.2121  0.2672
  781MOL0     C 7708   8.633   2.483  10.300 -0.4091  0.1023  0.1800
  781MOL0     H 7709   8.944   2.603  10.661 -2.1568 -0.7824 -1.8665
  781MOL0     H 7710   9.199   2.568  10.736 -0.6939  1.5929  0.2047
  781MOL0     H 7711   9.413   2.243  10.521 -0.4610  1.0592 -0.7927
  781MOL0     H 7712   9.392   2.191  10.694  1.0392  0.3067  0.4491
  781MOL0     H 7713   9.579   2.390  10.581 -1.0257 -0.8524 -0.4401
  781MOL0     H 7714   9.565   2.353  10.756 -2.3927 -0.6439 -0.1993
  781MOL0     H 7715   9.631   2.109  10.690 -0.9777  1.2447  2.0875
  781MOL0     H 7716   9.641   2.165  10.523  0.5977 -1.6432 -0.2795
  781MOL0     H 7717   9.834   2.307  10.577  2.3457 -0.8283  0.2604
  781MOL0     H 7718   9.816   2.270  10.751  0.8889 -2.5160  0.9643
  781MOL0     H 7719   9.930   2.109  10.517 -0.0464  4.0723 -0.8890
  781MOL0     H 7720   9.872   2.010  10.645 -0.3907  1.7454 -1.3399
  781MOL0     H 7721  10.067   2.233  10.695  1.2175  0.2120  1.9305
  781MOL0     H 7722   9.981   2.145  10.814 -1.8125  0.1110 -0.2126
  781MOL0     H 7723  10.099   1.929  10.725  1.3462 -1.3356 -1.2705
  781MOL0     H 7724  10.213   2.067  10.749 -1.5643  1.5052  1.2803
  781MOL0     H 7725  10.105   1.989  10.475  0.3442 -0.2532 -0.2572
  781MOL0     H 7726  10.199   2.134  10.514  1.7262  0.0230  0.4107
  781MOL0     H 7727  10.453   2.076  10.541  2.8938  0.2115 -0.4467
  781MOL0     H 7728  10.657   1.732  10.440  1.9696  0.6760  1.3487
  781MOL0     H 7729  10.680   1.848  10.566  0.9446  0.7950  0.4378
  781MOL0     H 7730  10.641   2.015  10.357  0.9101 -0.3828 -2.1275
  781MOL0     H 7731  10.782   1.918  10.357 -0.3184 -0.0391 -0.5157
  781MOL0     H 7732  10.518   1.857  10.215  0.1661  3.6780 -2.2924
  781MOL0     H 7733  10.657   1.925  10.135  1.3690  2.0001  1.6150
  781MOL0     H 7734  10.763   1.683  10.249 -0.0184 -0.8156 -0.5635
  781MOL0     H 7735  10.589   1.649  10.233  0.6796 -1.7915  0.2760
  781MOL0     H 7736  10.710   1.613   9.816 -2.5002  2.4605  1.3138
  781MOL0     H 7737  10.957   1.570   9.619  1.1472  0.1550  2.4346
  781MOL0     H 7738  10.924   1.728   9.541  0.5244 -1.1230 -1.7318
  781MOL0     H 7739  10.786   1.634   9.598  0.2228 -1.4287  3.0808
  781MOL0     H 7740  11.314   2.028   9.549 -1.1449 -0.1795  0.6261
  781MOL0     H 7741  11.554   2.019   9.478  0.6603  0.7524  0.6960
  781MOL0     H 7742  11.865   1.785   9.709  2.3432  2.1572 -1.1897
  781MOL0     H 7743  11.744   1.719   9.597 -0.0053 -1.1434  2.6285
  781MOL0     H 7744  12.001   1.736   9.525 -1.2480 -1.1367 -0.7475
  781MOL0     H 7745  11.881   1.808   9.405 -1.9919 -1.0866  1.2907
  781MOL0     H 7746  12.026   1.977   9.620 -0.5746  0.2611  0.3968
  781MOL0     H 7747  11.925   2.019   9.481 -1.4257 -2.0007  0.4289
  781MOL0     H 7748  12.104   1.934   9.327  0.9020 -1.0778 -0.0231
  781MOL0     H 7749  12.199   1.884   9.477  2.9221 -0.1081 -2.4134
  781MOL0     H 7750  12.118   2.171   9.433 -1.3583 -0.8922  0.0631
  781MOL0     H 7751  12.214   2.109   9.558  0.6729 -1.1080 -0.6502
  781MOL0     H 7752  12.271   2.103   9.258 -0.1557  0.2171 -0.6658
  781MOL0     H 7753  12.375   2.026   9.370  1.7622  2.3556 -0.4829
  781MOL0     H 7754  12.331   2.255   9.501  0.5460 -0.7983  0.3659
  781MOL0     H 7755  12.328   2.315   9.335  0.4234 -0.6921  0.0506
  781MOL0     H 7756  12.567   2.173   9.470  3.6489  0.8964 -1.0005
  781MOL0     H 7757  12.547   2.347   9.421  0.5038  0.4755 -3.5535
  781MOL0     H 7758  11.646   1.788   9.830  1.7610  2.4436  0.9503
  781MOL0     H 7759  11.409   1.824   9.908 -2.6313 -0.6869 -0.6059
  781MOL0     H 7760  11.081   1.911   9.972 -1.2698  0.7655  1.7706
  781MOL0     H 7761  10.907   1.823  10.128 -2.7421  2.1865 -0.5996
  781MOL0     H 7762   9.183   2.196  10.519  2.3249  1.6479 -3.3674
  781MOL0     H 7763   8.949   2.234  10.459 -0.4827 -2.7036  2.8171
  781MOL0     H 7764   8.524   2.535  10.763  1.5643  0.0537 -0.4645
  781MOL0     H 7765   8.318   2.639  10.725 -0.7428 -1.1804 -0.5367
  781MOL0     H 7766   8.168   2.756  10.642  3.2000 -1.3393  0.6234
  781MOL0     H 7767   8.037   2.752  10.522 -0.9010  0.1631  1.7940
  781MOL0     H 7768   8.132   2.486  10.617 -3.7479 -2.3677  2.7885
  781MOL0     H 7769   7.989   2.525  10.530 -1.2386  1.2436  0.1936
  781MOL0     H 7770   7.992   2.675  10.789  1.2708  0.2175 -0.8850
  781MOL0     H 7771   7.867   2.581  10.714 -0.3421 -0.4444  0.8849
  781MOL0     H 7772   7.968   2.371  10.783  0.7405 -0.3518 -0.8635
  781MOL0     H 7773   7.935   2.483  10.916 -1.2574  0.6321 -1.3698
  781MOL0     H 7774   8.351   2.412  10.933 -0.6173  1.2367  0.6063
  781MOL0     H 7775   8.385   2.578  10.299  2.6381 -2.0524 -0.9943
  781MOL0     H 7776   8.687   2.576  10.278 -3.0609  2.1322  1.5964
  781MOL0     H 7777   8.699   2.397  10.309 -2.5395 -1.6776 -0.4572
  781MOL0     H 7778   8.564   2.456  10.220 -0.5376 -0.0486  0.3399
  782MOL0     O 7779   3.934   9.346  10.775 -0.0445  0.1043 -0.3486
  782MOL0     C 7780   3.821   9.396  10.788 -0.5809 -0.7870 -0.5118
  782MOL0     O 7781   3.807   9.520  10.851 -0.1210  0.3688 -0.6535
  782MOL0     C 7782   3.925   9.568  10.908  0.4944 -0.5776  0.0295
  782MOL0     C 7783   3.999   9.658  10.841  1.2714  0.0018  0.4323
  782MOL0     C 7784   4.117   9.704  10.886  0.6486  0.3115 -0.0360
  782MOL0     C 7785   4.169   9.665  11.011  0.7354 -0.4331 -0.5282
  782MOL0     O 7786   4.290   9.707  11.060  0.7624 -0.0324  0.4099
  782MOL0     C 7787   4.398   9.713  10.960 -0.6313 -0.7409  0.1448
  782MOL0     C 7788   4.516   9.662  11.025 -0.3783  0.9100 -0.1512
  782MOL0     C 7789   4.643   9.690  10.950 -0.3638 -0.3585 -0.1516
  782MOL0     C 7790   4.768   9.626  11.019  0.9806  0.3449  0.2962
  782MOL0     C 7791   4.900   9.658  10.948  0.2070 -0.9649  0.6096
  782MOL0     C 7792   5.026   9.625  11.032 -0.0412  0.4553 -0.4558
  782MOL0     C 7793   5.161   9.643  10.955  1.4672 -0.8303  0.3597
  782MOL0     C 7794   5.195   9.791  10.918 -0.7383  0.4961 -0.5703
  782MOL0     N 7795   5.330   9.815  10.864 -0.2310  0.0210 -0.2820
  782MOL0     C 7796   5.346   9.864  10.732 -0.0515 -0.0516 -0.4256
  782MOL0     C 7797   5.475   9.905  10.726 -0.1172  0.2161 -0.4091
  782MOL0     C 7798   5.562   9.954  10.608 -0.0999  0.3546  0.1875
  782MOL0     C 7799   5.698   9.892  10.620 -0.0636  0.4117  0.1979
  782MOL0     C 7800   5.794   9.983  10.697  0.1229 -0.2422 -0.1520
  782MOL0     C 7801   5.936   9.934  10.672  0.3712 -0.3439 -1.1248
  782MOL0     O 7802   6.019  10.045  10.714 -0.3870  0.0768 -0.1566
  782MOL0     C 7803   6.087  10.025  10.834  0.5187  0.0520 -0.2882
  782MOL0     C 7804   6.027  10.051  10.960 -0.3001 -0.7817 -0.6238
  782MOL0     C 7805   6.098  10.060  11.076 -0.8694  0.5342 -0.3262
  782MOL0     C 7806   6.020  10.090  11.204 -0.7611 -0.3146  0.6844
  782MOL0     C 7807   6.233  10.022  11.072 -0.5939  0.6057 -0.0768
  782MOL0     C 7808   6.323  10.018  11.190 -0.2884 -0.5097  0.3475
  782MOL0     O 7809   6.458  10.026  11.168 -0.4789 -0.0847 -0.0157
  782MOL0     C 7810   6.537   9.960  11.262 -0.3515  0.8619  0.6512
  782MOL0     C 7811   6.600  10.042  11.356  0.2754  0.3024 -0.4258
  782MOL0     C 7812   6.700   9.989  11.438  0.6396 -0.2612 -0.0743
  782MOL0     C 7813   6.715   9.846  11.450  0.4102 -0.2233 -0.0006
  782MOL0     O 7814   6.790   9.782  11.539  0.0998 -0.2744 -0.3517
  782MOL0     C 7815   6.882   9.860  11.610  1.2781 -0.4087  0.5876
  782MOL0     C 7816   6.966   9.783  11.705 -0.0458  0.7781  0.3603
  782MOL0     C 7817   6.879   9.728  11.822  0.0990  0.1336 -0.1110
  782MOL0     C 7818   6.937   9.631  11.935 -0.6557 -0.8374  0.2288
  782MOL0     C 7819   7.030   9.711  12.030  0.3518  0.1496  0.1720
  782MOL0     C 7820   7.103   9.623  12.139  0.3189  0.3883  0.7687
  782MOL0     C 7821   7.171   9.711  12.239  0.8481 -0.0156  0.1485
  782MOL0     C 7822   7.264   9.640  12.329 -0.6671 -0.0408  0.8784
  782MOL0    Cl 7823   7.358   9.778  12.406 -0.3627 -0.0057 -0.1318
  782MOL0     C 7824   6.649   9.766  11.352 -0.1645  0.4477 -1.1010
  782MOL0     C 7825   6.569   9.824  11.259  0.3579  0.4161  0.6343
  782MOL0     O 7826   6.271   9.987  11.300  0.5529 -0.9231 -0.0156
  782MOL0     C 7827   6.297   9.997  10.945 -0.8130 -0.1404  0.2459
  782MOL0     C 7828   6.226  10.007  10.826 -0.3010 -0.9753 -0.2058
  782MOL0     N 7829   5.538   9.866  10.844  1.1480  0.0324  0.2219
  782MOL0     N 7830   5.448   9.816  10.930 -1.0958 -0.1110 -0.1212
  782MOL0     C 7831   4.085   9.584  11.088  0.2699  0.3811  0.6632
  782MOL0     C 7832   3.956   9.546  11.042  0.1826 -1.1511  0.7261
  782MOL0     C 7833   3.700   9.315  10.744 -0.1678 -0.4913  0.8035
  782MOL0     C 7834   3.730   9.204  10.661 -1.1250 -0.2712  0.5067
  782MOL0     C 7835   3.630   9.121  10.600  0.4284 -0.2545  0.0372
  782MOL0     C 7836   3.497   9.161  10.615 -1.2937 -0.2320 -0.2875
  782MOL0     O 7837   3.387   9.113  10.565  0.3242 -0.5309 -0.2709
  782MOL0     C 7838   3.402   9.033  10.449 -0.0708  0.6944 -0.1909
  782MOL0     C 7839   3.267   8.955  10.436 -1.5660  0.3385  0.7421
  782MOL0     C 7840   3.287   8.853  10.315 -0.2831  0.4007 -0.4898
  782MOL0     C 7841   3.149   8.790  10.273  0.0380  0.1055  0.7673
  782MOL0     C 7842   3.150   8.728  10.135 -0.6482  0.7373  0.5144
  782MOL0     C 7843   3.151   8.706  10.010 -0.2651 -0.1528 -0.3160
  782MOL0     C 7844   3.468   9.271  10.691 -0.2770  1.0649  0.3267
  782MOL0     C 7845   3.566   9.343  10.766 -0.2855 -0.2209 -0.2296
  782MOL0     C 7846   3.512   9.457  10.848  0.4250 -0.0161 -0.5183
  782MOL0     H 7847   3.952   9.680  10.745  1.8097 -0.1110  0.1391
  782MOL0     H 7848   4.182   9.767  10.826  2.4597 -2.0085 -0.6363
  782MOL0     H 7849   4.425   9.808  10.914 -1.9214 -0.5914 -0.3701
  782MOL0     H 7850   4.371   9.648  10.876 -1.4957 -0.8255  0.4695
  782MOL0     H 7851   4.524   9.703  11.126 -1.8936  0.4996  0.1595
  782MOL0     H 7852   4.511   9.555  11.044  3.6036  0.6578  0.3668
  782MOL0     H 7853   4.632   9.669  10.843 -1.1076 -3.5031  0.4343
  782MOL0     H 7854   4.670   9.795  10.966  0.2604 -0.7723  1.8403
  782MOL0     H 7855   4.767   9.650  11.126 -0.2200 -0.3950  0.4670
  782MOL0     H 7856   4.756   9.518  11.012  0.1550  0.4437  0.0873
  782MOL0     H 7857   4.909   9.764  10.925  3.4534  0.0164  5.1019
  782MOL0     H 7858   4.898   9.609  10.850 -3.9418 -1.0149  0.5288
  782MOL0     H 7859   5.029   9.693  11.117 -0.9282 -0.4257  0.2982
  782MOL0     H 7860   5.026   9.521  11.065  1.1157  0.1229 -1.4168
  782MOL0     H 7861   5.152   9.586  10.862 -1.8929 -3.4844  2.0430
  782MOL0     H 7862   5.240   9.609  11.022  1.7571 -1.6866 -0.3966
  782MOL0     H 7863   5.114   9.808  10.847 -2.7253 -3.4068  0.4404
  782MOL0     H 7864   5.176   9.860  11.001  1.8096 -0.1997  0.7011
  782MOL0     H 7865   5.272   9.875  10.654 -0.6873 -0.9616  0.0310
  782MOL0     H 7866   5.568  10.063  10.622  0.7470  0.2338  0.8778
  782MOL0     H 7867   5.511   9.925  10.516  0.9538  0.2124 -0.3652
  782MOL0     H 7868   5.696   9.792  10.663 -1.0557 -0.6211 -2.1048
  782MOL0     H 7869   5.736   9.892  10.518 -0.6398  2.0707 -0.0604
  782MOL0     H 7870   5.777  10.083  10.656 -2.4455  0.3227  1.9899
  782MOL0     H 7871   5.769   9.989  10.804  0.1012  0.6700 -0.2048
  782MOL0     H 7872   5.937   9.856  10.749 -0.8903  0.1173 -0.6157
  782MOL0     H 7873   5.957   9.901  10.570 -1.1701  0.0407 -1.5823
  782MOL0     H 7874   5.920  10.070  10.961  0.1441  2.0889 -0.1914
  782MOL0     H 7875   5.994   9.996  11.255 -0.8272 -1.3799 -1.2165
  782MOL0     H 7876   5.934  10.139  11.155 -1.8343 -1.7170  1.0890
  782MOL0     H 7877   6.067  10.169  11.263  3.7822 -0.6468 -2.0529
  782MOL0     H 7878   6.581  10.147  11.374 -0.2435  0.5245 -2.1239
  782MOL0     H 7879   6.751  10.062  11.500 -2.2073  1.8449 -0.0417
  782MOL0     H 7880   6.957   9.896  11.539  0.2623 -1.4134 -1.0673
  782MOL0     H 7881   6.834   9.934  11.675  0.6571 -1.3329  1.2267
  782MOL0     H 7882   7.010   9.697  11.655  1.4571  3.4515 -3.3452
  782MOL0     H 7883   7.048   9.846  11.741  0.4725  0.0458  0.4726
  782MOL0     H 7884   6.791   9.673  11.788 -2.1311  2.4784  1.4661
  782MOL0     H 7885   6.834   9.813  11.875  0.5957 -1.0292  2.3413
  782MOL0     H 7886   7.011   9.562  11.893 -0.0845 -0.7805  1.1099
  782MOL0     H 7887   6.866   9.569  11.989  2.2627 -4.2693  0.4926
  782MOL0     H 7888   7.091   9.775  11.966  1.4010  0.5281  1.4926
  782MOL0     H 7889   6.969   9.778  12.091 -0.3891 -0.7168  0.3997
  782MOL0     H 7890   7.171   9.546  12.101  2.0144  1.5133  1.4139
  782MOL0     H 7891   7.023   9.565  12.187 -0.0923  0.4319  0.1513
  782MOL0     H 7892   7.100   9.763  12.303 -0.7293 -2.0480  0.1569
  782MOL0     H 7893   7.215   9.796  12.186 -0.1260 -0.1564 -0.9080
  782MOL0     H 7894   7.335   9.576  12.276 -0.6318  0.3171  0.4904
  782MOL0     H 7895   7.203   9.583  12.400 -1.3745 -1.3056 -0.6949
  782MOL0     H 7896   6.664   9.659  11.357  2.4588  0.8085  1.6879
  782MOL0     H 7897   6.536   9.749  11.188 -0.1733 -1.4227  2.6849
  782MOL0     H 7898   6.404   9.982  10.945 -0.6170  1.0056  1.8794
  782MOL0     H 7899   6.262   9.998  10.724 -2.5090 -2.0557 -0.9500
  782MOL0     H 7900   4.125   9.559  11.186  0.5742 -0.8066  0.2504
  782MOL0     H 7901   3.905   9.481  11.112  0.6885  0.0144  2.2416
  782MOL0     H 7902   3.832   9.182  10.631 -0.8384  2.5911 -1.0113
  782MOL0     H 7903   3.655   9.025  10.554 -1.1203 -1.2013  1.0711
  782MOL0     H 7904   3.427   9.101  10.367  2.9907  2.1402  1.7795
  782MOL0     H 7905   3.478   8.956  10.465  0.8316  1.1899 -1.9010
  782MOL0     H 7906   3.189   9.027  10.410 -0.6799  0.3584 -2.3197
  782MOL0     H 7907   3.246   8.907  10.532  2.5620 -1.8070  0.8006
  782MOL0     H 7908   3.320   8.913  10.230 -0.3842  1.7111  0.3684
  782MOL0     H 7909   3.352   8.771  10.348 -3.1470 -1.2569  1.4882
  782MOL0     H 7910   3.076   8.871  10.266 -0.0935  0.1755  2.5752
  782MOL0     H 7911   3.105   8.717  10.342  0.6298 -0.5711  0.4457
  782MOL0     H 7912   3.130   8.713   9.905 -1.7114  2.9703  0.0704
  782MOL0     H 7913   3.361   9.290  10.699 -0.5469  0.5095 -1.5788
  782MOL0     H 7914   3.506   9.542  10.779  1.1473 -0.3538 -1.0031
  782MOL0     H 7915   3.408   9.442  10.880  0.3664  2.3616  0.6014
  782MOL0     H 7916   3.571   9.466  10.940  1.8946  0.8238 -1.5215
  783MOL0     O 7917   6.251   3.345   8.378 -0.0974  0.1264 -0.5861
  783MOL0     C 7918   6.355   3.292   8.364 -0.9680 -0.7251  0.0962
  783MOL0     O 7919   6.418   3.218   8.460  0.2536 -0.2683  0.2103
  783MOL0     C 7920   6.519   3.125   8.435 -0.4325  0.1066 -0.4986
  783MOL0     C 7921   6.493   2.995   8.397  0.3344 -0.1015  0.7051
  783MOL0     C 7922   6.581   2.895   8.395 -0.2698  0.1711 -0.6568
  783MOL0     C 7923   6.718   2.920   8.434 -0.3693  1.1208 -0.2751
  783MOL0     O 7924   6.801   2.811   8.436  0.8866 -0.2417  0.7355
  783MOL0     C 7925   6.938   2.827   8.484  0.5664  0.2615  0.4717
  783MOL0     C 7926   7.012   2.692   8.479  0.1269 -1.0039  0.8887
  783MOL0     C 7927   7.147   2.715   8.527  0.9047  0.6033  0.2411
  783MOL0     C 7928   7.203   2.587   8.596 -0.5478 -0.4073 -0.0948
  783MOL0     C 7929   7.355   2.612   8.630  0.3946 -0.8792  0.2646
  783MOL0     C 7930   7.396   2.488   8.703  0.4357  0.7047 -0.1731
  783MOL0     C 7931   7.543   2.476   8.745  0.0172 -0.0125  0.1815
  783MOL0     C 7932   7.642   2.413   8.640 -0.6144  0.4814 -0.5781
  783MOL0     N 7933   7.785   2.417   8.686 -0.0206  0.8256 -0.4370
  783MOL0     C 7934   7.859   2.533   8.698 -0.0037 -0.4004  0.0194
  783MOL0     C 7935   7.983   2.487   8.722  0.2016  0.7275 -0.6553
  783MOL0     C 7936   8.102   2.581   8.725 -0.8736  0.0929 -0.8594
  783MOL0     C 7937   8.131   2.629   8.870  0.1118  0.5203 -0.0148
  783MOL0     C 7938   8.190   2.507   8.950 -0.8017 -0.6290 -0.0954
  783MOL0     C 7939   8.236   2.555   9.093  0.1743  0.1869  0.2945
  783MOL0     O 7940   8.289   2.449   9.177 -0.0415  0.1738 -0.5615
  783MOL0     C 7941   8.421   2.441   9.223 -0.3861  0.1714 -0.7575
  783MOL0     C 7942   8.525   2.504   9.155 -0.4926 -0.8235 -0.4868
  783MOL0     C 7943   8.662   2.508   9.199 -0.8873 -0.0351 -1.0467
  783MOL0     C 7944   8.763   2.580   9.113 -1.1957  0.2081  0.1919
  783MOL0     C 7945   8.693   2.439   9.322 -0.2042 -0.1349  0.4802
  783MOL0     C 7946   8.828   2.413   9.383  0.4544  0.0672 -0.6217
  783MOL0     O 7947   8.829   2.361   9.513  0.2156  1.0123 -0.1206
  783MOL0     C 7948   8.938   2.299   9.573 -0.7408  1.1134 -0.2623
  783MOL0     C 7949   9.051   2.244   9.504 -0.9480  0.8831  0.4260
  783MOL0     C 7950   9.153   2.177   9.576  0.7195 -0.4720  0.2168
  783MOL0     C 7951   9.148   2.157   9.715  0.6132 -0.0929 -0.1500
  783MOL0     O 7952   9.237   2.087   9.790  0.8478 -0.0520 -0.2139
  783MOL0     C 7953   9.321   1.998   9.722  0.4578  1.2444 -0.8124
  783MOL0     C 7954   9.385   1.899   9.824  0.8844 -0.1704 -0.5117
  783MOL0     C 7955   9.479   1.796   9.758  0.0707 -1.0946 -0.8237
  783MOL0     C 7956   9.573   1.738   9.868  0.3089 -0.3367 -0.2079
  783MOL0     C 7957   9.645   1.599   9.842  0.2908  0.3399 -0.8996
  783MOL0     C 7958   9.716   1.554   9.965 -0.2313 -0.1865  0.0150
  783MOL0     C 7959   9.788   1.424   9.938 -0.4060 -0.7957  0.0297
  783MOL0     C 7960   9.930   1.452   9.899 -0.0640  0.1210 -0.9682
  783MOL0    Cl 7961  10.005   1.296   9.827  0.2837  0.2347  0.4559
  783MOL0     C 7962   9.030   2.205   9.777  0.3381 -0.1267  0.0521
  783MOL0     C 7963   8.923   2.264   9.708 -0.3217 -0.3576  0.4399
  783MOL0     O 7964   8.928   2.453   9.327  0.6795 -0.3002 -0.4946
  783MOL0     C 7965   8.584   2.385   9.398 -0.7088  0.7453 -0.2150
  783MOL0     C 7966   8.458   2.374   9.342 -0.3015 -0.0166 -0.3663
  783MOL0     N 7967   7.983   2.347   8.732  0.5194 -0.1933  0.1041
  783MOL0     N 7968   7.859   2.305   8.717  0.5290 -0.1739  0.1333
  783MOL0     C 7969   6.747   3.046   8.462  0.2105 -0.1634 -0.3533
  783MOL0     C 7970   6.653   3.150   8.464  0.4806 -0.9785  0.4826
  783MOL0     C 7971   6.418   3.307   8.231 -0.0906  0.0364  0.5401
  783MOL0     C 7972   6.527   3.390   8.216  0.3885 -0.0944  0.5713
  783MOL0     C 7973   6.605   3.380   8.099  0.2536 -0.3054  0.9277
  783MOL0     C 7974   6.563   3.287   7.998  0.4998  0.1843  0.0605
  783MOL0     O 7975   6.624   3.260   7.876 -0.3949 -0.6254 -1.2459
  783MOL0     C 7976   6.766   3.283   7.857  0.6365 -0.4111  0.7906
  783MOL0     C 7977   6.775   3.385   7.733  0.3498  0.7101 -0.8826
  783MOL0     C 7978   6.766   3.528   7.769 -0.2855  0.4444  0.3347
  783MOL0     C 7979   6.907   3.590   7.802 -0.3696  0.4118 -0.3005
  783MOL0     C 7980   6.892   3.724   7.856 -0.1638 -0.7635 -0.5446
  783MOL0     C 7981   6.902   3.835   7.905  1.2162 -0.3087 -0.4548
  783MOL0     C 7982   6.441   3.216   8.012  0.2488  0.6373  0.5254
  783MOL0     C 7983   6.369   3.227   8.133  0.8633 -0.5003  0.8044
  783MOL0     C 7984   6.246   3.133   8.141 -0.2044 -0.9691 -0.5882
  783MOL0     H 7985   6.394   2.967   8.363  0.5647 -0.9598  0.7279
  783MOL0     H 7986   6.548   2.797   8.364 -0.6121  0.4203 -1.0987
  783MOL0     H 7987   6.936   2.859   8.588  1.3693  0.9295  0.2907
  783MOL0     H 7988   6.993   2.894   8.417  0.1842 -1.1237 -1.3154
  783MOL0     H 7989   6.956   2.622   8.542 -3.0484  2.5424  2.3549
  783MOL0     H 7990   7.010   2.659   8.375 -0.0894  2.0825 -0.1703
  783MOL0     H 7991   7.205   2.744   8.439 -1.6823  1.2848 -1.3435
  783MOL0     H 7992   7.158   2.798   8.597  2.1756  1.6564 -1.1555
  783MOL0     H 7993   7.139   2.572   8.683 -0.8063 -1.3157 -0.4404
  783MOL0     H 7994   7.186   2.510   8.521  2.0805  1.0473 -2.3384
  783MOL0     H 7995   7.365   2.698   8.698  1.6270 -0.8085  0.0051
  783MOL0     H 7996   7.410   2.636   8.539  1.8887 -2.6399  0.6551
  783MOL0     H 7997   7.341   2.488   8.797 -1.6341 -1.9630 -1.2413
  783MOL0     H 7998   7.366   2.408   8.634  0.2695 -0.1292  0.8439
  783MOL0     H 7999   7.559   2.419   8.837  3.1897 -0.8009 -0.7237
  783MOL0     H 8000   7.581   2.576   8.765  0.5336 -0.6510  2.8017
  783MOL0     H 8001   7.627   2.307   8.616  0.0687 -0.2264  1.8208
  783MOL0     H 8002   7.633   2.470   8.547 -0.0958  0.6434 -0.5334
  783MOL0     H 8003   7.827   2.636   8.691 -3.9870 -1.3552  1.4077
  783MOL0     H 8004   8.084   2.666   8.657  1.5641  1.6777  0.3260
  783MOL0     H 8005   8.189   2.531   8.682 -0.8297 -0.5307 -0.0542
  783MOL0     H 8006   8.205   2.709   8.871  0.5965  0.2080 -2.6121
  783MOL0     H 8007   8.042   2.659   8.925 -0.4069 -2.5493  1.0206
  783MOL0     H 8008   8.114   2.432   8.975 -0.1514 -1.7492 -1.3675
  783MOL0     H 8009   8.272   2.463   8.892  2.8717  3.4674  1.3749
  783MOL0     H 8010   8.309   2.636   9.085  0.1479  0.2199  0.3851
  783MOL0     H 8011   8.152   2.591   9.153  0.1480  2.1283 -0.8441
  783MOL0     H 8012   8.506   2.559   9.064 -0.6361 -0.0944 -0.0310
  783MOL0     H 8013   8.744   2.687   9.108 -1.7170  0.0944 -3.6183
  783MOL0     H 8014   8.763   2.535   9.013  2.0913  0.9735 -0.2617
  783MOL0     H 8015   8.865   2.557   9.144 -2.2539 -0.6470  3.3404
  783MOL0     H 8016   9.068   2.241   9.397  1.1248  2.0281  0.6803
  783MOL0     H 8017   9.237   2.145   9.515  1.4389  1.9915 -0.2032
  783MOL0     H 8018   9.262   1.935   9.654 -0.8431 -1.0595  2.2191
  783MOL0     H 8019   9.395   2.066   9.681  0.1122  2.6655  0.8225
  783MOL0     H 8020   9.434   1.956   9.903 -0.8726 -0.9977  1.2791
  783MOL0     H 8021   9.318   1.834   9.882  0.2200  2.2648  1.6438
  783MOL0     H 8022   9.533   1.845   9.676  1.6182 -2.0049 -0.3974
  783MOL0     H 8023   9.421   1.716   9.712  0.0231 -1.3555 -0.3170
  783MOL0     H 8024   9.516   1.743   9.961  0.9325 -4.3343  0.5772
  783MOL0     H 8025   9.656   1.809   9.874 -1.2896  1.9546 -2.6994
  783MOL0     H 8026   9.571   1.519   9.828  1.3151 -1.0072  1.0013
  783MOL0     H 8027   9.726   1.602   9.769  3.7174 -0.5600  2.5575
  783MOL0     H 8028   9.654   1.539  10.053  3.4081 -5.2714  2.2220
  783MOL0     H 8029   9.782   1.636   9.994  0.7600 -0.2282 -1.9773
  783MOL0     H 8030   9.747   1.371   9.851 -1.0376 -3.0728  1.6003
  783MOL0     H 8031   9.781   1.364  10.029  0.8480 -1.2659 -0.1608
  783MOL0     H 8032   9.990   1.472   9.988  1.0013 -1.9685 -1.1505
  783MOL0     H 8033   9.933   1.536   9.829 -2.0373  0.6775 -0.4485
  783MOL0     H 8034   9.029   2.170   9.880  2.5508 -1.3910 -0.2889
  783MOL0     H 8035   8.833   2.276   9.767  0.5186  0.4139  1.6051
  783MOL0     H 8036   8.589   2.341   9.497 -4.3344  2.4636  0.9133
  783MOL0     H 8037   8.384   2.311   9.390  2.2056 -1.6227  1.6395
  783MOL0     H 8038   6.850   3.076   8.479 -0.1092  0.0945  1.3178
  783MOL0     H 8039   6.674   3.255   8.483 -2.0899 -0.2983 -0.0985
  783MOL0     H 8040   6.570   3.453   8.294  0.7716  0.7111 -0.2726
  783MOL0     H 8041   6.686   3.449   8.080 -1.2305  0.9335 -1.3714
  783MOL0     H 8042   6.817   3.321   7.947  0.0029  1.0629  0.5685
  783MOL0     H 8043   6.804   3.182   7.840  0.5921 -0.1470 -1.0977
  783MOL0     H 8044   6.701   3.359   7.657 -1.3272  2.3215  0.1352
  783MOL0     H 8045   6.877   3.362   7.699  0.3475  0.3753 -0.6667
  783MOL0     H 8046   6.736   3.584   7.680 -0.8247  1.4592  1.1332
  783MOL0     H 8047   6.695   3.535   7.852  0.5474 -2.5862  1.4358
  783MOL0     H 8048   6.969   3.600   7.713  1.8932  0.3948  1.1775
  783MOL0     H 8049   6.963   3.532   7.877 -1.7220  1.2288  1.4060
  783MOL0     H 8050   6.909   3.938   7.932  4.0150 -0.5921  0.1781
  783MOL0     H 8051   6.408   3.151   7.932  4.1051  0.3897 -1.1085
  783MOL0     H 8052   6.268   3.026   8.132  0.2839 -1.0120  0.8718
  783MOL0     H 8053   6.179   3.159   8.223 -1.0718  0.8511 -1.8068
  783MOL0     H 8054   6.186   3.158   8.053 -2.1556  1.1640  1.2200
  784MOL0     O 8055  10.092   6.504   2.417 -0.6509  0.2543  0.2187
  784MOL0     C 8056  10.064   6.583   2.498  0.0726 -1.0106 -0.2721
  784MOL0     O 8057  10.132   6.696   2.530 -0.2846 -0.3283 -0.2286
  784MOL0     C 8058  10.256   6.724   2.466  0.4247  0.2192 -0.1635
  784MOL0     C 8059  10.270   6.806   2.352 -0.0093 -0.4741 -0.1233
  784MOL0     C 8060  10.399   6.814   2.293 -0.3535 -0.5078 -0.4236
  784MOL0     C 8061  10.511   6.748   2.342 -0.0333 -0.0014  0.6078
  784MOL0     O 8062  10.635   6.774   2.274  0.2166 -0.3530  0.1548
  784MOL0     C 8063  10.753   6.697   2.312 -0.1006 -0.1906  1.5570
  784MOL0     C 8064  10.858   6.677   2.202 -1.0844 -0.1948 -0.6917
  784MOL0     C 8065  10.987   6.635   2.274  0.0756  0.0456 -0.0730
  784MOL0     C 8066  11.098   6.639   2.166  0.6601 -0.1118  0.8783
  784MOL0     C 8067  11.236   6.591   2.208  0.0475  0.2805 -0.3509
  784MOL0     C 8068  11.350   6.624   2.125  0.9748 -0.3015 -1.1730
  784MOL0     C 8069  11.353   6.558   1.989 -0.0850 -0.0611 -0.2085
  784MOL0     C 8070  11.456   6.623   1.888  0.6688 -0.6382  0.2056
  784MOL0     N 8071  11.604   6.606   1.913  0.0867 -0.5906 -0.4898
  784MOL0     C 8072  11.676   6.488   1.901  0.0394 -0.4049  0.2299
  784MOL0     C 8073  11.800   6.522   1.952  0.4576  0.0075  0.6819
  784MOL0     C 8074  11.918   6.425   1.953 -0.6577 -0.0258 -0.5592
  784MOL0     C 8075  12.021   6.467   1.841  0.5190 -0.2156 -0.8263
  784MOL0     C 8076  12.152   6.381   1.837  0.5597  0.6399 -0.4356
  784MOL0     C 8077  12.218   6.370   1.973  0.1913 -0.5131 -0.2456
  784MOL0     O 8078  12.325   6.268   1.959 -0.1283 -0.1545  0.6763
  784MOL0     C 8079  12.444   6.298   1.890  0.3748 -0.3771  1.1597
  784MOL0     C 8080  12.505   6.425   1.879 -0.5413  0.3870 -0.4724
  784MOL0     C 8081  12.633   6.442   1.813 -0.6585  0.4398  0.8615
  784MOL0     C 8082  12.680   6.585   1.787 -0.6490  0.2535  1.1640
  784MOL0     C 8083  12.691   6.326   1.743  0.4476  0.9378 -1.3491
  784MOL0     C 8084  12.818   6.338   1.664 -0.8950 -0.3683  0.5618
  784MOL0     O 8085  12.833   6.233   1.572  0.1862 -1.3065 -0.2268
  784MOL0     C 8086  12.927   6.254   1.469 -0.4234  0.0718  0.4648
  784MOL0     C 8087  12.880   6.250   1.337  0.1740 -0.2109 -0.5633
  784MOL0     C 8088  12.972   6.271   1.231 -0.5567  0.0691 -0.2074
  784MOL0     C 8089  13.107   6.302   1.259  0.3569 -0.8485  0.1387
  784MOL0     O 8090  13.191   6.333   1.152 -0.8567  0.8829  0.5991
  784MOL0     C 8091  13.315   6.269   1.157  0.2695 -0.2731  0.1973
  784MOL0     C 8092  13.419   6.331   1.055  0.4539 -0.0329 -0.4188
  784MOL0     C 8093  13.559   6.271   1.067  0.0718  0.2021 -0.6445
  784MOL0     C 8094  13.665   6.340   0.985 -0.4489 -0.7243  0.2327
  784MOL0     C 8095  13.781   6.244   0.959 -0.2977 -0.5101 -0.0686
  784MOL0     C 8096  13.848   6.198   1.098 -0.2960  0.2278  0.4198
  784MOL0     C 8097  13.981   6.121   1.073 -0.9405  0.6767  0.0751
  784MOL0     C 8098  13.991   6.030   1.197  0.3872 -0.5945  0.0905
  784MOL0    Cl 8099  14.139   5.938   1.181  0.1502  0.2360 -0.1841
  784MOL0     C 8100  13.151   6.300   1.396 -0.4630 -0.2810  1.0195
  784MOL0     C 8101  13.063   6.268   1.497 -0.3774  0.1218  1.3034
  784MOL0     O 8102  12.884   6.441   1.663 -0.4432  0.2777  0.0560
  784MOL0     C 8103  12.620   6.205   1.750 -0.0505  0.3292 -0.2034
  784MOL0     C 8104  12.505   6.195   1.820  0.6528 -0.7668 -1.2222
  784MOL0     N 8105  11.797   6.656   1.986 -0.1325  0.2021  0.3156
  784MOL0     N 8106  11.685   6.707   1.955 -0.0224  0.2595 -0.1654
  784MOL0     C 8107  10.493   6.671   2.458 -0.5990 -0.7163  0.5746
  784MOL0     C 8108  10.370   6.657   2.518  0.4117  0.3312 -0.3739
  784MOL0     C 8109   9.944   6.556   2.577  0.5410  0.5397 -0.1914
  784MOL0     C 8110   9.888   6.431   2.577 -0.1424 -0.2749 -0.0511
  784MOL0     C 8111   9.756   6.403   2.629  0.4673  0.7418  0.2010
  784MOL0     C 8112   9.679   6.497   2.694  0.1032 -0.0807 -0.0649
  784MOL0     O 8113   9.542   6.484   2.747 -0.1639  0.6435 -0.2789
  784MOL0     C 8114   9.458   6.356   2.730 -0.2212 -0.6617  0.1744
  784MOL0     C 8115   9.421   6.317   2.582  0.7758  0.1489  1.0718
  784MOL0     C 8116   9.317   6.411   2.524  0.1750  0.5548 -0.2175
  784MOL0     C 8117   9.358   6.555   2.488  0.9651  0.2349  0.0635
  784MOL0     C 8118   9.256   6.620   2.404 -0.3301  0.0685  0.5314
  784MOL0     C 8119   9.172   6.679   2.339  0.9089 -0.0589  0.7115
  784MOL0     C 8120   9.743   6.623   2.702 -1.2855 -1.2167  0.1178
  784MOL0     C 8121   9.873   6.655   2.645  0.7638 -0.2858  0.1167
  784MOL0     C 8122   9.902   6.806   2.640  0.5577  0.2802  0.1368
  784MOL0     H 8123  10.189   6.858   2.302 -0.4750  0.5943  1.6665
  784MOL0     H 8124  10.420   6.866   2.200 -0.3872 -1.2935 -0.8713
  784MOL0     H 8125  10.717   6.600   2.346 -2.6332  1.3419  3.6139
  784MOL0     H 8126  10.801   6.749   2.396  2.2720  3.3133 -1.5861
  784MOL0     H 8127  10.827   6.596   2.135  0.4229  0.8144 -2.6871
  784MOL0     H 8128  10.873   6.767   2.143 -2.5152 -0.0080 -0.8134
  784MOL0     H 8129  11.018   6.704   2.353  0.6775 -1.6172  1.2040
  784MOL0     H 8130  10.975   6.535   2.316  0.0060 -1.3366 -3.1285
  784MOL0     H 8131  11.062   6.595   2.072  0.3105 -1.2213  1.5135
  784MOL0     H 8132  11.099   6.745   2.141 -2.3681 -0.2665 -0.3736
  784MOL0     H 8133  11.231   6.482   2.211  0.8140  0.1693 -1.9967
  784MOL0     H 8134  11.262   6.634   2.306  0.5956  4.7669 -2.2159
  784MOL0     H 8135  11.348   6.733   2.116  0.0496 -0.2574 -0.5470
  784MOL0     H 8136  11.438   6.593   2.182 -0.4693  0.2305  1.5100
  784MOL0     H 8137  11.252   6.558   1.947  0.0505 -0.4320 -0.5475
  784MOL0     H 8138  11.374   6.452   2.006  0.3623 -0.5186 -3.0217
  784MOL0     H 8139  11.433   6.585   1.788 -1.1527 -2.0911  1.0996
  784MOL0     H 8140  11.437   6.731   1.891  2.5883 -0.1605 -2.0587
  784MOL0     H 8141  11.643   6.390   1.868  2.7156 -0.7749 -1.6604
  784MOL0     H 8142  11.881   6.324   1.932 -2.8628  0.6777 -0.2810
  784MOL0     H 8143  11.968   6.419   2.050 -0.1930  0.5685 -0.7560
  784MOL0     H 8144  11.971   6.457   1.744 -2.6641  3.0702  0.2381
  784MOL0     H 8145  12.042   6.574   1.845  2.2327 -0.5321 -0.7098
  784MOL0     H 8146  12.118   6.286   1.795  1.3255  0.8635 -1.6098
  784MOL0     H 8147  12.221   6.420   1.762  0.3347  0.0483 -0.9551
  784MOL0     H 8148  12.261   6.465   2.004  2.8550 -2.0490  1.2052
  784MOL0     H 8149  12.144   6.332   2.045  2.1641 -3.8966  0.2606
  784MOL0     H 8150  12.468   6.510   1.935  1.6746  2.2733 -1.6976
  784MOL0     H 8151  12.769   6.605   1.847  0.2352 -1.2329  0.4116
  784MOL0     H 8152  12.599   6.655   1.810 -1.6793 -0.7915  0.8412
  784MOL0     H 8153  12.695   6.607   1.681  1.3030  0.9707  1.5425
  784MOL0     H 8154  12.774   6.244   1.315  0.7923  0.8335 -4.5574
  784MOL0     H 8155  12.952   6.276   1.124  5.1149  3.3060 -1.4614
  784MOL0     H 8156  13.353   6.265   1.260 -2.0121  0.7166  1.1492
  784MOL0     H 8157  13.305   6.162   1.133  2.8914 -0.5422  0.0013
  784MOL0     H 8158  13.374   6.309   0.958  0.7186 -0.0713 -0.5329
  784MOL0     H 8159  13.425   6.439   1.068  0.2673  0.2969 -2.7745
  784MOL0     H 8160  13.555   6.165   1.041  1.5672 -0.3264  1.1234
  784MOL0     H 8161  13.591   6.285   1.170 -1.0228  0.6916 -0.3528
  784MOL0     H 8162  13.697   6.436   1.028 -0.0495  0.5119 -2.5694
  784MOL0     H 8163  13.609   6.363   0.894 -0.5604 -0.0429  0.4666
  784MOL0     H 8164  13.762   6.149   0.908  2.4670  0.0872 -2.5461
  784MOL0     H 8165  13.852   6.300   0.898 -0.1870  1.6976  1.9485
  784MOL0     H 8166  13.779   6.129   1.148  0.6765 -2.1553 -1.3182
  784MOL0     H 8167  13.860   6.283   1.165  2.1297  2.4572 -2.5193
  784MOL0     H 8168  14.060   6.196   1.061 -0.4707  0.0257 -1.0998
  784MOL0     H 8169  13.978   6.058   0.984 -0.5773  0.7742 -0.0100
  784MOL0     H 8170  13.907   5.960   1.203 -1.2807  1.1319 -1.7625
  784MOL0     H 8171  13.983   6.098   1.283 -0.9826  1.5745 -1.6231
  784MOL0     H 8172  13.256   6.312   1.422 -0.0568 -0.3010 -0.5247
  784MOL0     H 8173  13.090   6.256   1.602 -1.2044  1.2062  1.6550
  784MOL0     H 8174  12.662   6.137   1.676  1.0536  2.0557 -1.2427
  784MOL0     H 8175  12.454   6.099   1.817 -0.3683 -0.2699 -0.5634
  784MOL0     H 8176  10.580   6.624   2.503 -0.6369 -0.7002  0.6663
  784MOL0     H 8177  10.365   6.597   2.608  0.0500  1.7577  0.5962
  784MOL0     H 8178   9.944   6.354   2.525  0.6706 -0.0786  0.5174
  784MOL0     H 8179   9.715   6.303   2.623  1.4612  0.3707 -0.9011
  784MOL0     H 8180   9.510   6.273   2.779  1.4190  0.5847  0.6315
  784MOL0     H 8181   9.371   6.388   2.789  0.0437  3.3653 -1.3519
  784MOL0     H 8182   9.370   6.220   2.575  1.0646 -0.1617  2.8184
  784MOL0     H 8183   9.512   6.306   2.522  0.5860  0.0722  0.7927
  784MOL0     H 8184   9.263   6.371   2.438  2.0521 -1.6064 -0.4847
  784MOL0     H 8185   9.236   6.408   2.598  0.5567 -3.4953  0.2646
  784MOL0     H 8186   9.458   6.561   2.444  1.5654  0.3425  1.3706
  784MOL0     H 8187   9.365   6.598   2.588 -1.9048 -1.8445  1.2885
  784MOL0     H 8188   9.109   6.742   2.279  0.5186 -0.8351  0.2886
  784MOL0     H 8189   9.688   6.712   2.730  2.2295  2.0394 -2.3014
  784MOL0     H 8190   9.807   6.859   2.637 -0.6848 -1.8860 -1.2076
  784MOL0     H 8191   9.962   6.842   2.725 -2.2612  1.7701  1.6478
  784MOL0     H 8192   9.951   6.838   2.548 -1.0199 -0.3723 -0.9579
  785MOL0     O 8193   7.484   0.191   6.591 -0.0876  0.2210  0.1796
  785MOL0     C 8194   7.524   0.079   6.594 -0.2560  0.4621  0.2385
  785MOL0     O 8195   7.653   0.042   6.567  0.2858 -0.3423 -0.5937
  785MOL0     C 8196   7.733   0.149   6.537  0.3941 -0.3337  0.0877
  785MOL0     C 8197   7.820   0.198   6.635 -0.3320 -0.1236  0.5420
  785MOL0     C 8198   7.898   0.315   6.610  0.5171  0.2432 -0.1311
  785MOL0     C 8199   7.879   0.388   6.489 -0.5819  0.1615  0.5199
  785MOL0     O 8200   7.959   0.498   6.461 -0.0615  0.3843  0.6278
  785MOL0     C 8201   8.026   0.573   6.567 -0.1183  0.0643  0.8457
  785MOL0     C 8202   8.114   0.680   6.499 -0.6451  0.5949 -0.2091
  785MOL0     C 8203   8.248   0.622   6.442  0.7941  0.3998 -0.3941
  785MOL0     C 8204   8.372   0.665   6.524 -1.2392 -0.1980 -0.5325
  785MOL0     C 8205   8.499   0.594   6.476 -0.3938 -0.6649  0.1775
  785MOL0     C 8206   8.629   0.664   6.540 -0.3724 -0.2112  0.0019
  785MOL0     C 8207   8.737   0.566   6.516 -1.3467  1.1443  0.4573
  785MOL0     C 8208   8.875   0.609   6.572  0.3273 -0.4114  0.0023
  785MOL0     N 8209   8.929   0.731   6.508 -0.5724 -0.2012 -0.7614
  785MOL0     C 8210   8.972   0.750   6.380 -0.2310 -0.1187 -0.1302
  785MOL0     C 8211   9.020   0.874   6.374 -0.1593  0.5221 -0.0300
  785MOL0     C 8212   9.082   0.938   6.247  1.0333 -0.1504 -0.7648
  785MOL0     C 8213   9.222   0.992   6.282  0.0548 -0.1294  0.4364
  785MOL0     C 8214   9.325   0.883   6.320  0.0065  1.0267  0.7510
  785MOL0     C 8215   9.354   0.780   6.210 -0.6105 -0.5006  0.3418
  785MOL0     O 8216   9.388   0.861   6.094  0.4576  0.3550 -0.4231
  785MOL0     C 8217   9.516   0.846   6.060 -0.8751  0.6187 -0.0828
  785MOL0     C 8218   9.634   0.839   6.132  0.1628 -0.5502  0.2351
  785MOL0     C 8219   9.758   0.801   6.070 -0.2507 -0.1003  0.4492
  785MOL0     C 8220   9.876   0.810   6.158 -0.0415 -0.7086  0.4397
  785MOL0     C 8221   9.771   0.774   5.931 -0.1117 -0.3799  0.3176
  785MOL0     C 8222   9.900   0.751   5.862  0.2219  0.2475  0.7752
  785MOL0     O 8223  10.014   0.775   5.923 -0.1514  0.6526  0.4793
  785MOL0     C 8224  10.135   0.781   5.850  0.4194  0.1888  0.5280
  785MOL0     C 8225  10.216   0.666   5.852  0.4560  0.4142 -0.5103
  785MOL0     C 8226  10.343   0.661   5.791 -0.2808 -0.0032  0.3906
  785MOL0     C 8227  10.387   0.787   5.738 -1.1591  0.3125  1.1758
  785MOL0     O 8228  10.513   0.784   5.672 -0.0033 -0.0435  0.7031
  785MOL0     C 8229  10.508   0.814   5.531 -0.3424  1.0399  0.2331
  785MOL0     C 8230  10.656   0.803   5.476 -0.0211 -0.4648 -0.0503
  785MOL0     C 8231  10.753   0.905   5.543  0.4579  0.7396 -0.4994
  785MOL0     C 8232  10.898   0.856   5.557  0.0378  0.2792 -0.3518
  785MOL0     C 8233  10.971   0.929   5.668 -0.5300  0.4594  0.0219
  785MOL0     C 8234  11.106   0.854   5.697  0.0152  0.4287  0.4765
  785MOL0     C 8235  11.181   0.812   5.571 -0.3819  0.2779 -0.3100
  785MOL0     C 8236  11.321   0.760   5.599 -0.3160 -0.7024  0.2523
  785MOL0    Cl 8237  11.307   0.602   5.672  0.5212  0.0159 -0.6456
  785MOL0     C 8238  10.303   0.896   5.728  0.0983 -0.3485 -0.3123
  785MOL0     C 8239  10.179   0.894   5.787  0.4970  0.1136  0.0634
  785MOL0     O 8240   9.896   0.709   5.745  0.1259  0.3598 -0.0679
  785MOL0     C 8241   9.658   0.792   5.856 -0.0497 -0.4916  0.2949
  785MOL0     C 8242   9.532   0.828   5.925 -0.7577 -0.6728  0.2066
  785MOL0     N 8243   8.994   0.938   6.492  0.3492  0.3086  0.0619
  785MOL0     N 8244   8.935   0.851   6.574  0.2191 -1.3955  1.0312
  785MOL0     C 8245   7.797   0.333   6.385  0.3462  0.7377 -0.6283
  785MOL0     C 8246   7.720   0.214   6.416 -0.0055  0.4891  0.2430
  785MOL0     C 8247   7.438  -0.022   6.634  0.3094 -0.8586  0.2904
  785MOL0     C 8248   7.416  -0.135   6.554  0.4638  0.5260 -0.4394
  785MOL0     C 8249   7.312  -0.232   6.585  0.2343 -1.6465 -0.2133
  785MOL0     C 8250   7.223  -0.209   6.690  0.3878 -0.1309  0.1437
  785MOL0     O 8251   7.109  -0.277   6.720 -0.4899 -0.4573 -0.2002
  785MOL0     C 8252   7.110  -0.416   6.682  0.2294  0.6090 -0.3522
  785MOL0     C 8253   7.184  -0.519   6.769 -0.3337 -0.5934 -0.8462
  785MOL0     C 8254   7.303  -0.574   6.707 -0.5821 -0.3920  0.6991
  785MOL0     C 8255   7.352  -0.709   6.763  0.9457  0.2150 -0.2152
  785MOL0     C 8256   7.498  -0.740   6.733 -1.0052 -0.0311  0.8128
  785MOL0     C 8257   7.619  -0.764   6.712  0.5688  0.3516  0.0937
  785MOL0     C 8258   7.248  -0.096   6.772 -0.2134 -0.2835  0.7161
  785MOL0     C 8259   7.357  -0.014   6.752 -0.8449  0.0064  0.4755
  785MOL0     C 8260   7.367   0.107   6.840 -0.5896 -0.5537 -0.0822
  785MOL0     H 8261   7.827   0.146   6.730  0.5630 -1.9841 -0.4873
  785MOL0     H 8262   7.957   0.344   6.697 -0.5581 -0.7808  0.9800
  785MOL0     H 8263   8.084   0.506   6.631 -0.3528 -1.7416 -0.7544
  785MOL0     H 8264   7.947   0.626   6.623 -1.4701 -3.0181  2.1088
  785MOL0     H 8265   8.070   0.737   6.417  0.4495  3.3896  1.0169
  785MOL0     H 8266   8.135   0.750   6.581  0.5870 -0.6795  0.6239
  785MOL0     H 8267   8.241   0.513   6.431  0.9846  0.4740 -1.3159
  785MOL0     H 8268   8.254   0.663   6.340 -0.6588  2.1624  0.1683
  785MOL0     H 8269   8.391   0.773   6.522 -2.2972 -0.0160 -1.4447
  785MOL0     H 8270   8.362   0.631   6.627  2.1006  0.2606  0.0724
  785MOL0     H 8271   8.509   0.603   6.368  1.9621  0.8576  0.4547
  785MOL0     H 8272   8.491   0.490   6.510  0.4579 -1.1086 -0.9328
  785MOL0     H 8273   8.642   0.757   6.484 -1.2993 -0.4436 -0.6278
  785MOL0     H 8274   8.607   0.690   6.644  0.6208 -1.9951  0.7216
  785MOL0     H 8275   8.747   0.541   6.410  1.0012 -0.3257  0.9418
  785MOL0     H 8276   8.718   0.475   6.574  2.5752 -0.3216 -0.1909
  785MOL0     H 8277   8.850   0.624   6.677 -3.3405 -3.0844 -0.3249
  785MOL0     H 8278   8.950   0.529   6.567  1.0658  0.1801  1.2161
  785MOL0     H 8279   8.973   0.690   6.290  0.4724 -0.2968 -0.0094
  785MOL0     H 8280   9.017   1.025   6.229 -0.1665 -1.0844 -1.0471
  785MOL0     H 8281   9.071   0.861   6.170 -1.2145 -0.2764 -0.3867
  785MOL0     H 8282   9.254   1.040   6.189  0.7390 -1.3635  0.0006
  785MOL0     H 8283   9.217   1.060   6.367 -1.5067 -0.2672  0.4796
  785MOL0     H 8284   9.414   0.945   6.337  1.4263 -0.0079 -2.1227
  785MOL0     H 8285   9.291   0.828   6.408 -1.4108  0.0417 -0.3841
  785MOL0     H 8286   9.437   0.713   6.233 -1.0239  0.0032  3.7976
  785MOL0     H 8287   9.272   0.710   6.195  0.0396 -1.3174  0.5671
  785MOL0     H 8288   9.629   0.863   6.237  1.5954 -0.6509  0.3438
  785MOL0     H 8289   9.942   0.726   6.134 -1.0868 -1.1417 -1.0890
  785MOL0     H 8290   9.845   0.803   6.263 -4.5247 -2.0116 -0.7454
  785MOL0     H 8291   9.936   0.898   6.133  0.8711 -1.5370 -0.3816
  785MOL0     H 8292  10.182   0.573   5.897 -0.8885 -0.2995 -2.8190
  785MOL0     H 8293  10.402   0.570   5.796 -3.9219 -2.6120  0.2327
  785MOL0     H 8294  10.452   0.740   5.472  2.9443 -0.9546 -0.6302
  785MOL0     H 8295  10.479   0.917   5.509 -0.3614  1.5724  2.5565
  785MOL0     H 8296  10.691   0.702   5.499 -2.7081 -1.2617  0.9723
  785MOL0     H 8297  10.649   0.815   5.368  2.1558  0.9660 -0.0863
  785MOL0     H 8298  10.724   0.923   5.646 -2.4581 -0.1523 -1.0836
  785MOL0     H 8299  10.759   0.997   5.484  0.1695 -0.0858 -1.8863
  785MOL0     H 8300  10.955   0.865   5.464  0.2932  2.6758 -0.0225
  785MOL0     H 8301  10.883   0.752   5.588 -0.6142 -0.7227 -3.6886
  785MOL0     H 8302  10.995   1.031   5.637  0.6758  0.0066 -0.6025
  785MOL0     H 8303  10.909   0.943   5.757 -1.2808 -0.1923 -0.3857
  785MOL0     H 8304  11.074   0.764   5.751 -1.4916 -0.0331 -1.0898
  785MOL0     H 8305  11.177   0.915   5.753  3.4657 -0.5052 -2.4716
  785MOL0     H 8306  11.186   0.906   5.515  0.8741  0.8760  0.7767
  785MOL0     H 8307  11.132   0.728   5.519  0.3516  0.5891 -1.5388
  785MOL0     H 8308  11.383   0.825   5.661  0.7730 -0.8750 -0.6350
  785MOL0     H 8309  11.382   0.739   5.511 -0.0558 -0.2270  0.3208
  785MOL0     H 8310  10.342   0.989   5.687  0.1719  0.9930  2.5710
  785MOL0     H 8311  10.112   0.980   5.785  0.5678  0.2264  1.5153
  785MOL0     H 8312   9.658   0.761   5.752  0.2719  0.4097  0.0179
  785MOL0     H 8313   9.452   0.831   5.851  0.9275  0.0614 -1.6858
  785MOL0     H 8314   7.806   0.402   6.301  1.1469  1.1978 -0.1829
  785MOL0     H 8315   7.653   0.171   6.342 -0.0545  0.8220  0.0913
  785MOL0     H 8316   7.473  -0.149   6.463 -0.5332 -1.3720 -0.8274
  785MOL0     H 8317   7.304  -0.318   6.520  0.0688 -0.3378 -1.9977
  785MOL0     H 8318   7.008  -0.454   6.678  0.5864 -0.5254  0.6115
  785MOL0     H 8319   7.141  -0.423   6.578 -1.2252 -0.5119 -0.7408
  785MOL0     H 8320   7.126  -0.609   6.794  0.4729 -0.9653 -0.2910
  785MOL0     H 8321   7.210  -0.468   6.863 -3.7632  0.9116 -0.5391
  785MOL0     H 8322   7.287  -0.582   6.599  0.2058  3.1093  0.2083
  785MOL0     H 8323   7.379  -0.497   6.721 -2.7115  1.8810  0.2659
  785MOL0     H 8324   7.290  -0.789   6.722 -1.6940  1.2958  1.3830
  785MOL0     H 8325   7.343  -0.704   6.872 -1.0554  0.0406 -0.3351
  785MOL0     H 8326   7.722  -0.793   6.706  0.2392 -0.8111 -0.2919
  785MOL0     H 8327   7.163  -0.073   6.835 -1.0411 -2.2683  0.4085
  785MOL0     H 8328   7.462   0.161   6.840 -0.7038 -0.2745  1.9041
  785MOL0     H 8329   7.280   0.170   6.819  0.0740  1.3433  2.4244
  785MOL0     H 8330   7.362   0.087   6.947 -0.3238  1.3928  0.3310
  786MOL0     O 8331   8.842  10.689   4.201  0.5630 -1.3952  0.2905
  786MOL0     C 8332   8.804  10.809   4.177 -1.0096 -0.3189 -0.9966
  786MOL0     O 8333   8.884  10.895   4.099 -0.0745  0.1249 -0.3365
  786MOL0     C 8334   8.996  10.848   4.044 -0.3788 -0.6521  0.1229
  786MOL0     C 8335   9.119  10.834   4.111  0.2018  0.3524  0.0246
  786MOL0     C 8336   9.231  10.787   4.045 -0.4173 -0.4605 -0.1085
  786MOL0     C 8337   9.223  10.749   3.902  0.6540 -1.3645 -0.2470
  786MOL0     O 8338   9.339  10.708   3.844  0.9291 -0.2790 -0.3699
  786MOL0     C 8339   9.328  10.704   3.701  0.5313  0.2398  0.0056
  786MOL0     C 8340   9.461  10.671   3.634 -0.1659  0.4263 -0.3384
  786MOL0     C 8341   9.472  10.699   3.483 -0.0201 -0.0177  0.0070
  786MOL0     C 8342   9.622  10.684   3.443  0.3553 -0.6793 -1.0722
  786MOL0     C 8343   9.642  10.741   3.305  0.5808 -0.5656 -0.1771
  786MOL0     C 8344   9.777  10.722   3.240 -1.4592 -0.3927 -0.7241
  786MOL0     C 8345   9.894  10.776   3.325 -0.8726 -0.0835 -0.3994
  786MOL0     C 8346  10.009  10.810   3.222  0.2760  0.1813 -0.6004
  786MOL0     N 8347  10.069  10.690   3.151 -0.2136 -0.3840  0.3102
  786MOL0     C 8348  10.082  10.562   3.200  0.0975 -0.0363 -0.2033
  786MOL0     C 8349  10.148  10.489   3.110  0.0457 -0.6614 -0.2195
  786MOL0     C 8350  10.189  10.346   3.112 -0.1970 -0.5954  0.3150
  786MOL0     C 8351  10.167  10.283   2.976 -0.4577 -0.8331 -0.5477
  786MOL0     C 8352  10.212  10.136   2.970  0.2047 -0.3394  0.3651
  786MOL0     C 8353  10.336  10.105   3.051  0.6312  0.3083  0.5706
  786MOL0     O 8354  10.398   9.981   3.018 -0.3186 -0.3805 -0.7873
  786MOL0     C 8355  10.540   9.976   3.023  0.2120 -0.8678 -0.5270
  786MOL0     C 8356  10.629  10.088   3.044 -0.2407 -0.5796 -0.3602
  786MOL0     C 8357  10.766  10.057   3.045  0.2911  0.0794 -0.0789
  786MOL0     C 8358  10.867  10.178   3.067 -0.2019  0.7149 -0.0462
  786MOL0     C 8359  10.817   9.923   3.015 -0.3559  1.0348 -0.1652
  786MOL0     C 8360  10.966   9.884   3.009  0.8402  0.1340 -0.0917
  786MOL0     O 8361  11.003   9.788   2.930  0.3148  0.2072 -0.7230
  786MOL0     C 8362  11.135   9.762   2.903 -0.3998 -0.2465 -0.2713
  786MOL0     C 8363  11.220   9.859   2.857  0.0320 -0.4593  0.0271
  786MOL0     C 8364  11.346   9.820   2.819  0.6335 -1.1060 -0.1882
  786MOL0     C 8365  11.397   9.693   2.849 -0.0313  0.8212  0.1452
  786MOL0     O 8366  11.519   9.645   2.811  0.3377  0.5868  0.6334
  786MOL0     C 8367  11.635   9.735   2.818 -0.1246 -0.7346 -0.2052
  786MOL0     C 8368  11.757   9.674   2.747 -0.5133  1.2084  0.3727
  786MOL0     C 8369  11.883   9.765   2.741  0.3097  0.8359 -0.2333
  786MOL0     C 8370  11.860   9.894   2.653 -0.3392 -0.0987  0.2809
  786MOL0     C 8371  11.984   9.966   2.612  0.8028  0.6517  0.3109
  786MOL0     C 8372  12.091   9.989   2.711 -0.5322  0.2160  0.3818
  786MOL0     C 8373  12.190  10.097   2.665  0.0614 -0.2408  0.5658
  786MOL0     C 8374  12.297  10.117   2.758  0.5845 -1.2679  0.0080
  786MOL0    Cl 8375  12.419   9.984   2.739  0.0987  0.2920  0.1228
  786MOL0     C 8376  11.316   9.600   2.914 -0.2394  0.3650 -0.0718
  786MOL0     C 8377  11.183   9.632   2.926  0.8711 -0.2874 -0.3183
  786MOL0     O 8378  11.029   9.920   3.112  1.0856  0.4632 -0.2298
  786MOL0     C 8379  10.725   9.817   3.001  0.3966  0.0937 -0.1200
  786MOL0     C 8380  10.589   9.847   2.999  0.3034 -0.1126 -0.4042
  786MOL0     N 8381  10.174  10.576   3.006 -0.2519  0.2361  1.0393
  786MOL0     N 8382  10.128  10.694   3.032 -0.0435  0.4150  0.3055
  786MOL0     C 8383   9.094  10.757   3.841  0.3591 -0.6238  0.8768
  786MOL0     C 8384   8.984  10.807   3.910  0.1082 -0.6324  0.7315
  786MOL0     C 8385   8.678  10.870   4.240 -1.0534 -0.1412  1.1631
  786MOL0     C 8386   8.658  11.008   4.233  0.0743 -0.0664  0.9837
  786MOL0     C 8387   8.539  11.075   4.274  0.1203  0.3652 -0.7820
  786MOL0     C 8388   8.443  11.001   4.335 -0.5982  0.7094  0.8251
  786MOL0     O 8389   8.340  11.070   4.389 -0.3702 -0.0789  0.1751
  786MOL0     C 8390   8.216  11.010   4.411  0.6163  0.5804 -0.3509
  786MOL0     C 8391   8.129  11.111   4.483 -1.1766 -0.8908 -0.4873
  786MOL0     C 8392   8.000  11.051   4.515  0.4749  0.3024  0.1658
  786MOL0     C 8393   7.889  11.140   4.447 -1.2120 -0.0684  0.2065
  786MOL0     C 8394   7.752  11.087   4.459  0.4453 -1.0140 -0.1636
  786MOL0     C 8395   7.633  11.058   4.474 -0.2305 -0.4016 -1.6214
  786MOL0     C 8396   8.460  10.860   4.341 -0.5018 -0.4509 -0.2825
  786MOL0     C 8397   8.574  10.792   4.289 -0.2592 -1.1956 -0.5995
  786MOL0     C 8398   8.577  10.643   4.295  0.1910 -0.8708 -0.1961
  786MOL0     H 8399   9.122  10.848   4.218  1.0714 -0.1352  0.0782
  786MOL0     H 8400   9.326  10.779   4.097 -1.5496 -1.1082  2.0085
  786MOL0     H 8401   9.292  10.801   3.665 -0.1976  0.7239  1.8979
  786MOL0     H 8402   9.254  10.632   3.663  0.9274 -1.2112  1.8178
  786MOL0     H 8403   9.533  10.736   3.685 -0.2516 -0.7700  1.4021
  786MOL0     H 8404   9.491  10.566   3.639  0.6180  0.6518 -0.1215
  786MOL0     H 8405   9.424  10.624   3.420  2.3316 -3.3020  1.8023
  786MOL0     H 8406   9.436  10.800   3.462 -0.5147  0.0143  0.9985
  786MOL0     H 8407   9.687  10.748   3.503  2.2074 -2.0680 -1.5097
  786MOL0     H 8408   9.646  10.578   3.461 -0.8172 -1.0589 -1.6492
  786MOL0     H 8409   9.622  10.848   3.300  0.9546 -0.5455 -1.6188
  786MOL0     H 8410   9.572  10.694   3.236  0.6438 -1.9505  0.6525
  786MOL0     H 8411   9.802  10.618   3.218 -0.2271 -0.3467  0.2984
  786MOL0     H 8412   9.793  10.771   3.144  0.1476  1.5749  0.4514
  786MOL0     H 8413   9.927  10.706   3.402  0.5923 -1.3698 -2.0924
  786MOL0     H 8414   9.874  10.875   3.366  2.0029 -0.3347  1.9569
  786MOL0     H 8415   9.981  10.883   3.146  0.9438 -0.1058 -1.1268
  786MOL0     H 8416  10.087  10.851   3.286 -0.4917 -2.5633  2.3745
  786MOL0     H 8417  10.033  10.520   3.288 -1.3584 -2.4277 -2.0235
  786MOL0     H 8418  10.136  10.294   3.193 -1.0266 -1.6249 -0.8328
  786MOL0     H 8419  10.293  10.345   3.144 -0.6775  0.8451  2.0728
  786MOL0     H 8420  10.064  10.290   2.939  0.1640 -1.4318 -2.5458
  786MOL0     H 8421  10.229  10.349   2.915 -2.1506  3.6485  2.0898
  786MOL0     H 8422  10.132  10.068   3.001 -0.2111 -0.0622 -0.0773
  786MOL0     H 8423  10.230  10.119   2.863 -2.3424  1.3865 -0.4250
  786MOL0     H 8424  10.399  10.191   3.023  2.2690 -1.2983 -0.9487
  786MOL0     H 8425  10.312  10.103   3.157 -0.4698 -1.1235  0.3222
  786MOL0     H 8426  10.602  10.193   3.052 -1.0160 -0.8119  0.1840
  786MOL0     H 8427  10.884  10.214   3.169  0.3743 -0.9254  0.4668
  786MOL0     H 8428  10.844  10.265   3.005 -0.2048  0.1445 -0.8639
  786MOL0     H 8429  10.967  10.145   3.035  0.3700 -1.2530  3.3230
  786MOL0     H 8430  11.189   9.960   2.833  2.8542  0.5667  0.2968
  786MOL0     H 8431  11.409   9.890   2.765 -1.7389  0.8852 -0.5685
  786MOL0     H 8432  11.613   9.827   2.762  1.3333  0.2151  0.7027
  786MOL0     H 8433  11.641   9.773   2.921 -0.2023  3.2789 -1.4823
  786MOL0     H 8434  11.791   9.582   2.795  2.2681  0.3674 -2.8953
  786MOL0     H 8435  11.728   9.646   2.646  2.6039 -1.8063  0.1324
  786MOL0     H 8436  11.953   9.700   2.688 -0.6877  1.5134 -2.5134
  786MOL0     H 8437  11.911   9.799   2.841 -1.4809  1.0819  0.2214
  786MOL0     H 8438  11.808   9.959   2.724 -1.0998 -0.0534 -0.3007
  786MOL0     H 8439  11.800   9.873   2.564 -0.4832  0.3632  0.2630
  786MOL0     H 8440  12.038   9.911   2.535 -0.1158  0.5339 -0.2623
  786MOL0     H 8441  11.953  10.060   2.566  0.3109 -0.5447 -1.9543
  786MOL0     H 8442  12.144   9.896   2.732  1.6288  0.5935 -2.6938
  786MOL0     H 8443  12.048  10.028   2.804  3.1210 -2.6570  3.6601
  786MOL0     H 8444  12.146  10.197   2.674  1.4331  0.5822 -1.0837
  786MOL0     H 8445  12.230  10.085   2.564  0.0067 -1.3855  0.6689
  786MOL0     H 8446  12.253  10.119   2.858  0.2004  1.4649 -0.1274
  786MOL0     H 8447  12.339  10.214   2.728 -2.5557  0.7956  1.6819
  786MOL0     H 8448  11.344   9.501   2.947 -1.0038 -0.2366 -1.1713
  786MOL0     H 8449  11.111   9.567   2.975  2.0264 -1.5161 -0.1937
  786MOL0     H 8450  10.759   9.715   2.992 -2.8485 -0.9615 -2.1189
  786MOL0     H 8451  10.519   9.769   2.973  0.9935  0.1883 -3.5729
  786MOL0     H 8452   9.076  10.719   3.741  1.1311 -2.4008  1.3657
  786MOL0     H 8453   8.888  10.821   3.862  2.4191  0.0553 -4.2839
  786MOL0     H 8454   8.737  11.069   4.191  1.8652 -3.8221 -1.7243
  786MOL0     H 8455   8.539  11.184   4.275 -0.3409  0.3673 -0.5760
  786MOL0     H 8456   8.183  10.987   4.309 -2.0498 -1.6531  0.8660
  786MOL0     H 8457   8.215  10.921   4.475  1.6368  1.7883  1.4226
  786MOL0     H 8458   8.120  11.190   4.407 -2.1720 -1.3239 -0.8285
  786MOL0     H 8459   8.178  11.145   4.575  2.1300 -0.5625 -2.1958
  786MOL0     H 8460   7.998  10.949   4.476 -1.4196 -0.6486  2.5639
  786MOL0     H 8461   7.990  11.061   4.623  1.7211 -0.7495  0.4073
  786MOL0     H 8462   7.910  11.139   4.339  2.8971 -0.5735  0.8460
  786MOL0     H 8463   7.906  11.237   4.494  1.1122  0.0561 -0.7863
  786MOL0     H 8464   7.534  11.020   4.493  0.0593 -0.7345 -0.7402
  786MOL0     H 8465   8.377  10.803   4.381 -3.2703  1.2908 -3.0301
  786MOL0     H 8466   8.657  10.611   4.362  1.2076  1.5380 -0.1434
  786MOL0     H 8467   8.485  10.604   4.339  0.7652 -1.4874  0.4861
  786MOL0     H 8468   8.601  10.599   4.198  0.8416  2.3048 -1.6089
  787MOL0     O 8469   7.616   2.923   1.553 -0.4225  0.1577  0.3486
  787MOL0     C 8470   7.535   2.873   1.629  0.4591 -1.0400 -1.4670
  787MOL0     O 8471   7.567   2.823   1.753 -0.2165  0.0171 -0.0851
  787MOL0     C 8472   7.696   2.817   1.786 -0.1340  0.5136 -1.4152
  787MOL0     C 8473   7.741   2.878   1.902 -0.6633 -0.2603  0.0411
  787MOL0     C 8474   7.880   2.870   1.939  0.2031  0.2072  0.4697
  787MOL0     C 8475   7.971   2.784   1.863  0.3441 -0.1149 -0.1149
  787MOL0     O 8476   8.106   2.771   1.881  0.5990  0.4238  0.0087
  787MOL0     C 8477   8.155   2.825   2.003  0.5990  0.2633 -0.9018
  787MOL0     C 8478   8.213   2.969   1.997 -0.3412  0.1089  0.3328
  787MOL0     C 8479   8.210   3.044   2.138 -0.0691  0.1081  0.6166
  787MOL0     C 8480   8.210   3.196   2.114  0.0383 -0.8952 -0.2398
  787MOL0     C 8481   8.240   3.267   2.252  0.4406  0.0551  0.2091
  787MOL0     C 8482   8.129   3.269   2.361 -0.0846 -0.4169  0.1298
  787MOL0     C 8483   8.014   3.379   2.342 -0.8832 -0.4701  0.0701
  787MOL0     C 8484   7.939   3.413   2.476  1.0842 -0.0979 -0.6540
  787MOL0     N 8485   8.030   3.466   2.578  0.2059 -0.2830  0.4879
  787MOL0     C 8486   8.014   3.439   2.716  0.4127  0.4233  0.5604
  787MOL0     C 8487   8.140   3.468   2.773  0.7150 -0.1040 -0.1778
  787MOL0     C 8488   8.183   3.447   2.918 -0.7358  0.9886  0.3773
  787MOL0     C 8489   8.272   3.559   2.978 -0.1735  0.3174 -0.1998
  787MOL0     C 8490   8.423   3.527   2.965 -0.5655 -0.3867 -0.0697
  787MOL0     C 8491   8.504   3.624   3.053 -0.5349  0.9378  0.7772
  787MOL0     O 8492   8.651   3.583   3.054  0.1747 -0.4078 -0.5782
  787MOL0     C 8493   8.740   3.668   3.125 -1.4946 -0.1508  0.4231
  787MOL0     C 8494   8.879   3.658   3.101 -0.2035  0.7181  0.3442
  787MOL0     C 8495   8.984   3.740   3.140  0.1906  0.5006 -0.1509
  787MOL0     C 8496   9.123   3.715   3.083  0.8175 -0.6735  0.2728
  787MOL0     C 8497   8.948   3.849   3.231  0.5597 -1.0301  0.3587
  787MOL0     C 8498   9.057   3.951   3.278  0.7966 -0.3758  0.4911
  787MOL0     O 8499   8.998   4.061   3.341  0.4674 -1.2013 -0.5030
  787MOL0     C 8500   9.081   4.154   3.403  0.8909  0.1898  0.1357
  787MOL0     C 8501   9.118   4.144   3.534  0.1019  0.3073  0.0107
  787MOL0     C 8502   9.208   4.229   3.591  0.5754  0.1946 -0.3372
  787MOL0     C 8503   9.291   4.309   3.510 -0.3026  0.6848  0.6017
  787MOL0     O 8504   9.391   4.401   3.556  0.8235  0.2952  0.0244
  787MOL0     C 8505   9.427   4.372   3.695 -0.1056  0.0088  0.5329
  787MOL0     C 8506   9.569   4.428   3.723 -0.0018 -0.4213 -0.6174
  787MOL0     C 8507   9.579   4.462   3.874 -0.1031  0.2577 -0.4004
  787MOL0     C 8508   9.694   4.558   3.895  0.0324 -0.5960  0.3570
  787MOL0     C 8509   9.674   4.619   4.027  0.3320 -0.1617 -0.0303
  787MOL0     C 8510   9.792   4.714   4.057  0.2159  0.0132  1.1855
  787MOL0     C 8511   9.779   4.746   4.199 -0.5546  0.9573  0.4128
  787MOL0     C 8512   9.884   4.852   4.235 -0.0490  0.1004  0.4191
  787MOL0    Cl 8513  10.050   4.799   4.211 -0.5490  0.3233 -0.1534
  787MOL0     C 8514   9.268   4.317   3.380  0.0984  0.4717  0.6978
  787MOL0     C 8515   9.160   4.244   3.327  0.2507  0.8639  0.7941
  787MOL0     O 8516   9.176   3.919   3.281 -0.4018  1.0052  0.6053
  787MOL0     C 8517   8.801   3.872   3.248 -0.5344  0.6532 -0.6064
  787MOL0     C 8518   8.712   3.777   3.196 -0.6334  0.2738  0.2788
  787MOL0     N 8519   8.220   3.515   2.678 -1.6239 -0.1417 -0.3039
  787MOL0     N 8520   8.160   3.514   2.556 -0.0345 -0.9429  0.4705
  787MOL0     C 8521   7.914   2.716   1.752  0.0269  0.1496  0.4173
  787MOL0     C 8522   7.783   2.738   1.709  0.1628 -1.0943 -0.4000
  787MOL0     C 8523   7.398   2.867   1.596  0.2945  0.7211 -0.0074
  787MOL0     C 8524   7.294   2.875   1.689  0.1843 -0.1922  0.2733
  787MOL0     C 8525   7.158   2.886   1.641 -0.5383  0.8345  0.0196
  787MOL0     C 8526   7.124   2.872   1.504  0.0721 -0.3260 -0.0585
  787MOL0     O 8527   6.990   2.883   1.465  0.4471 -0.6719  0.1974
  787MOL0     C 8528   6.955   2.914   1.332  0.1810 -0.4657  0.3003
  787MOL0     C 8529   6.801   2.940   1.325  0.1713  0.0719  0.3875
  787MOL0     C 8530   6.734   2.809   1.345  1.2675 -0.4461  0.2214
  787MOL0     C 8531   6.589   2.835   1.389  0.2798  0.1908  0.6348
  787MOL0     C 8532   6.487   2.826   1.281 -1.1091  0.1508 -0.6196
  787MOL0     C 8533   6.398   2.815   1.199 -0.1980  0.1679  0.3107
  787MOL0     C 8534   7.226   2.866   1.414  0.6868  0.7449  0.8403
  787MOL0     C 8535   7.361   2.861   1.453 -0.2050 -0.3175 -1.2190
  787MOL0     C 8536   7.456   2.856   1.338 -1.3912  1.0723  0.0313
  787MOL0     H 8537   7.682   2.943   1.966 -1.1598  0.1317 -0.7939
  787MOL0     H 8538   7.917   2.935   2.018 -1.2917  0.2734  1.1516
  787MOL0     H 8539   8.230   2.756   2.042 -0.2344 -0.2822 -0.2011
  787MOL0     H 8540   8.078   2.822   2.082  1.0382  0.2784 -0.4685
  787MOL0     H 8541   8.310   2.971   1.947 -1.4996  3.5967 -2.1335
  787MOL0     H 8542   8.156   3.029   1.925  2.2848 -0.8053 -2.7287
  787MOL0     H 8543   8.124   3.010   2.197 -0.3160  1.7026  1.2093
  787MOL0     H 8544   8.303   3.027   2.194  0.4279 -2.6985 -0.8572
  787MOL0     H 8545   8.281   3.222   2.035  1.1062  1.2541  1.3035
  787MOL0     H 8546   8.110   3.233   2.090 -0.3742 -1.7336  0.1777
  787MOL0     H 8547   8.278   3.368   2.232  0.1843  0.1597  0.2424
  787MOL0     H 8548   8.323   3.225   2.309  0.2644  2.6750  2.6049
  787MOL0     H 8549   8.081   3.172   2.372 -0.6941 -0.0456  0.9001
  787MOL0     H 8550   8.185   3.293   2.453 -0.5454  0.5099  0.1856
  787MOL0     H 8551   7.940   3.346   2.268  0.8035 -0.8962 -1.5027
  787MOL0     H 8552   8.047   3.479   2.310 -2.7802  0.8776  2.0119
  787MOL0     H 8553   7.857   3.486   2.466  0.5450 -0.7515 -1.0779
  787MOL0     H 8554   7.897   3.322   2.518 -0.5775  1.5802  1.5662
  787MOL0     H 8555   7.920   3.398   2.753  0.7351  0.0617  0.9942
  787MOL0     H 8556   8.232   3.349   2.924 -2.0947  0.2282 -0.5183
  787MOL0     H 8557   8.093   3.435   2.979 -1.2029 -0.4320 -0.5399
  787MOL0     H 8558   8.247   3.655   2.931  1.0548  0.8393  0.1784
  787MOL0     H 8559   8.245   3.568   3.084  0.6917 -2.6257  0.3521
  787MOL0     H 8560   8.438   3.425   3.002  3.1393  0.2435  0.5571
  787MOL0     H 8561   8.455   3.541   2.862 -0.6817  1.0438  0.0645
  787MOL0     H 8562   8.481   3.725   3.018  0.7721  0.5628 -1.3687
  787MOL0     H 8563   8.476   3.624   3.159 -4.4464  0.8122 -0.1216
  787MOL0     H 8564   8.881   3.568   3.041  0.4733  1.6884 -1.1587
  787MOL0     H 8565   9.106   3.642   3.003 -1.9207  0.0227  0.1472
  787MOL0     H 8566   9.194   3.673   3.156  2.5795  2.6441  0.6517
  787MOL0     H 8567   9.168   3.805   3.041 -0.2151 -1.4184 -2.6144
  787MOL0     H 8568   9.052   4.072   3.581  1.2325 -2.2254 -2.0095
  787MOL0     H 8569   9.213   4.234   3.699  1.8013  1.3263 -0.4161
  787MOL0     H 8570   9.348   4.420   3.754 -2.2239 -1.4963 -0.9491
  787MOL0     H 8571   9.429   4.268   3.727  1.5347  0.5797  2.6072
  787MOL0     H 8572   9.648   4.357   3.696 -0.7515 -2.0119  1.1463
  787MOL0     H 8573   9.575   4.518   3.661 -0.9368  0.3938  0.4388
  787MOL0     H 8574   9.595   4.371   3.933  0.1254  2.2055  2.7750
  787MOL0     H 8575   9.486   4.509   3.909 -0.8493 -0.5910 -1.1968
  787MOL0     H 8576   9.689   4.630   3.813 -2.4241 -0.8325  0.2395
  787MOL0     H 8577   9.772   4.481   3.888 -0.0802 -0.5952 -0.9995
  787MOL0     H 8578   9.587   4.685   4.029 -1.7384 -2.5498 -2.2012
  787MOL0     H 8579   9.651   4.547   4.106  0.6427  2.6040  2.7556
  787MOL0     H 8580   9.782   4.804   3.996  0.1811 -0.0171  1.1461
  787MOL0     H 8581   9.889   4.674   4.027  0.0427  1.5593 -1.7678
  787MOL0     H 8582   9.802   4.658   4.260  0.8381  2.6471  2.5286
  787MOL0     H 8583   9.682   4.787   4.227 -1.0183  0.0116  0.2364
  787MOL0     H 8584   9.863   4.870   4.341 -0.5618  0.4050  0.2675
  787MOL0     H 8585   9.866   4.948   4.186  1.0177  1.4093  2.4431
  787MOL0     H 8586   9.321   4.388   3.318 -0.2369 -0.8822 -1.2231
  787MOL0     H 8587   9.156   4.243   3.219 -0.3309  2.4527  0.7819
  787MOL0     H 8588   8.784   3.967   3.297 -0.2869  0.3460  0.0977
  787MOL0     H 8589   8.608   3.786   3.225 -0.9165  0.5126 -0.7773
  787MOL0     H 8590   7.968   2.639   1.699  1.9274 -0.1326  2.6002
  787MOL0     H 8591   7.758   2.695   1.612 -0.3960  0.7073 -1.0884
  787MOL0     H 8592   7.318   2.884   1.795  4.2233 -2.2478 -0.2830
  787MOL0     H 8593   7.078   2.896   1.713  0.3367  1.9321  0.8861
  787MOL0     H 8594   7.001   3.009   1.302 -0.7739  0.1816  0.8310
  787MOL0     H 8595   6.985   2.842   1.255  0.4398  1.2471 -1.2951
  787MOL0     H 8596   6.782   2.986   1.227  4.1487  0.0318 -0.5527
  787MOL0     H 8597   6.779   3.015   1.402  0.4801  0.0886  0.4587
  787MOL0     H 8598   6.720   2.749   1.255  1.5281 -0.5517  0.2503
  787MOL0     H 8599   6.774   2.748   1.427 -1.9860  0.0395  2.3658
  787MOL0     H 8600   6.573   2.934   1.431  1.2267  1.2981 -1.4751
  787MOL0     H 8601   6.550   2.758   1.457 -1.0893 -1.8447 -2.2275
  787MOL0     H 8602   6.331   2.830   1.117 -1.6602  1.7276  1.7179
  787MOL0     H 8603   7.199   2.868   1.309  1.7349  2.9650  0.5567
  787MOL0     H 8604   7.546   2.804   1.370  0.1980  4.0422  0.7548
  787MOL0     H 8605   7.417   2.815   1.244 -1.5181  3.3110 -0.9422
  787MOL0     H 8606   7.488   2.957   1.310  0.2095  0.5882  0.0466
  788MOL0     O 8607   7.585   3.926   8.064 -0.9271 -0.3718 -0.5756
  788MOL0     C 8608   7.611   3.837   7.988  0.4818  0.1527 -0.4788
  788MOL0     O 8609   7.728   3.830   7.924  0.2161 -0.1102 -0.4712
  788MOL0     C 8610   7.850   3.883   7.981  1.0738  0.4238 -0.4418
  788MOL0     C 8611   7.889   3.842   8.106  0.2634 -0.9276  0.7869
  788MOL0     C 8612   8.012   3.888   8.152  0.1726 -0.3440  0.1415
  788MOL0     C 8613   8.082   3.987   8.083 -0.0657 -0.6319 -1.3229
  788MOL0     O 8614   8.206   4.032   8.132  0.6300  0.4415 -0.7971
  788MOL0     C 8615   8.281   4.138   8.070  0.0167  0.0111  0.2716
  788MOL0     C 8616   8.408   4.172   8.151  0.1086 -0.6219 -0.4021
  788MOL0     C 8617   8.491   4.287   8.093  0.2953 -0.6404  0.1593
  788MOL0     C 8618   8.630   4.313   8.143  0.0749  0.8453  0.6570
  788MOL0     C 8619   8.695   4.435   8.085  0.7887 -0.6131 -0.2300
  788MOL0     C 8620   8.715   4.427   7.933  0.1872 -0.2878  0.8003
  788MOL0     C 8621   8.819   4.521   7.871  0.1622  0.5812 -0.1039
  788MOL0     C 8622   8.957   4.489   7.938 -0.2124  0.1504  0.8046
  788MOL0     N 8623   9.059   4.562   7.863  0.5202 -0.2365  0.4902
  788MOL0     C 8624   9.147   4.640   7.932 -0.0868  0.1094  0.4412
  788MOL0     C 8625   9.225   4.696   7.833  0.3204  0.0865 -0.4099
  788MOL0     C 8626   9.340   4.790   7.857 -0.0213 -0.5802  0.0493
  788MOL0     C 8627   9.480   4.738   7.862  0.1867  0.9221 -0.5956
  788MOL0     C 8628   9.600   4.839   7.874  0.3674  0.3997  0.4001
  788MOL0     C 8629   9.574   4.931   8.002 -0.0667 -0.2150 -0.2818
  788MOL0     O 8630   9.690   4.995   8.051  0.7316  0.3953 -0.6570
  788MOL0     C 8631   9.803   4.928   8.092  0.0557 -0.1333  0.1731
  788MOL0     C 8632   9.837   4.796   8.102  1.1357  0.2182 -0.3830
  788MOL0     C 8633   9.967   4.762   8.139  0.2866  0.0964 -0.1367
  788MOL0     C 8634   9.997   4.616   8.139 -0.0428  0.3872  0.5841
  788MOL0     C 8635  10.063   4.856   8.168 -0.1642  0.9216  0.3501
  788MOL0     C 8636  10.203   4.820   8.207  0.5844  1.0528  0.3956
  788MOL0     O 8637  10.277   4.923   8.246 -0.2659 -0.5773 -0.5954
  788MOL0     C 8638  10.412   4.905   8.264  0.7610  0.0089  0.2358
  788MOL0     C 8639  10.477   4.901   8.393 -0.0399 -0.1438  0.3955
  788MOL0     C 8640  10.608   4.879   8.395 -0.0133  0.1136  1.1016
  788MOL0     C 8641  10.689   4.890   8.289 -0.1501 -0.0573 -0.3496
  788MOL0     O 8642  10.821   4.871   8.315  0.7332  0.0816  0.3160
  788MOL0     C 8643  10.896   4.807   8.209  0.0048 -0.2206  0.8844
  788MOL0     C 8644  11.044   4.824   8.228 -0.6783  0.0256 -0.1857
  788MOL0     C 8645  11.132   4.849   8.101 -0.3486 -0.1716 -0.1923
  788MOL0     C 8646  11.213   4.720   8.061 -0.5274 -0.2577 -0.5345
  788MOL0     C 8647  11.322   4.736   7.949 -0.1923  0.1654  0.2908
  788MOL0     C 8648  11.444   4.821   8.004  0.5710 -0.0929  0.0204
  788MOL0     C 8649  11.563   4.807   7.907  0.0097 -0.5445  0.2451
  788MOL0     C 8650  11.657   4.687   7.930 -0.6429 -0.0075  1.2154
  788MOL0    Cl 8651  11.561   4.536   7.898 -0.4877  0.2120 -0.1070
  788MOL0     C 8652  10.630   4.910   8.165 -0.0730 -0.9942 -0.2377
  788MOL0     C 8653  10.493   4.914   8.153  0.7424 -0.5059  0.8560
  788MOL0     O 8654  10.244   4.704   8.212  0.6467 -0.4174  0.0110
  788MOL0     C 8655  10.027   4.988   8.157 -0.0266 -0.3199  0.2988
  788MOL0     C 8656   9.903   5.023   8.112  0.0981  0.3599 -0.0823
  788MOL0     N 8657   9.178   4.648   7.713 -1.1320 -0.4322  0.0147
  788MOL0     N 8658   9.079   4.570   7.734 -0.0084 -0.0098  1.1097
  788MOL0     C 8659   8.037   4.026   7.960  0.1240 -0.0258  0.6151
  788MOL0     C 8660   7.918   3.978   7.904  0.0909 -0.4744 -0.1556
  788MOL0     C 8661   7.500   3.746   7.933 -0.8285 -0.7614 -0.3884
  788MOL0     C 8662   7.551   3.621   7.891  0.4138  0.0476 -0.6521
  788MOL0     C 8663   7.469   3.523   7.839  1.3163 -0.1290 -0.6943
  788MOL0     C 8664   7.330   3.553   7.819  0.3398  0.1388 -0.3092
  788MOL0     O 8665   7.238   3.468   7.775 -0.6465 -0.7949 -0.0944
  788MOL0     C 8666   7.278   3.346   7.713  0.0122  0.3605  0.5696
  788MOL0     C 8667   7.143   3.275   7.674 -0.9378  0.6057  0.6449
  788MOL0     C 8668   7.178   3.141   7.621 -0.9051  0.3997  0.3856
  788MOL0     C 8669   7.069   3.075   7.545  0.0258 -0.4502 -0.0046
  788MOL0     C 8670   6.983   2.996   7.630  0.4590 -0.3019  0.0296
  788MOL0     C 8671   6.914   2.936   7.711 -0.9086  0.7002 -0.0757
  788MOL0     C 8672   7.282   3.674   7.859 -0.3342  0.1029 -0.1562
  788MOL0     C 8673   7.366   3.775   7.916  0.2001  0.6455  0.2662
  788MOL0     C 8674   7.298   3.896   7.975  0.2187  0.3409  0.4162
  788MOL0     H 8675   7.846   3.762   8.166 -0.5016  0.1668  1.7166
  788MOL0     H 8676   8.059   3.838   8.236 -0.2695 -0.0994  0.5465
  788MOL0     H 8677   8.221   4.227   8.051  1.1949  0.5830 -0.9960
  788MOL0     H 8678   8.311   4.100   7.971 -0.2670 -3.0557  1.2590
  788MOL0     H 8679   8.394   4.197   8.256  2.9855  0.3176 -0.1309
  788MOL0     H 8680   8.475   4.086   8.162  0.4990 -0.0302  2.7970
  788MOL0     H 8681   8.498   4.282   7.984  0.7990  1.5656  0.0587
  788MOL0     H 8682   8.427   4.374   8.111  1.5596 -0.2911  3.9429
  788MOL0     H 8683   8.614   4.334   8.249 -0.5781  1.9870  0.3492
  788MOL0     H 8684   8.698   4.228   8.139 -1.6198 -0.5802  0.6602
  788MOL0     H 8685   8.793   4.439   8.133  1.4449 -1.4261 -1.4717
  788MOL0     H 8686   8.638   4.526   8.109  0.7781 -0.6615 -0.0702
  788MOL0     H 8687   8.747   4.325   7.908 -0.1958  0.2442 -2.2559
  788MOL0     H 8688   8.624   4.439   7.874  0.0543 -1.5067  0.7277
  788MOL0     H 8689   8.790   4.626   7.881  0.8448  1.1149 -2.8838
  788MOL0     H 8690   8.815   4.509   7.763 -3.2231  3.1688 -0.4578
  788MOL0     H 8691   8.976   4.510   8.043  2.7658  0.8047  0.2198
  788MOL0     H 8692   8.988   4.385   7.924 -0.4761  0.3837 -2.3373
  788MOL0     H 8693   9.169   4.670   8.034  1.9468 -1.8192  0.6529
  788MOL0     H 8694   9.316   4.847   7.947  1.8700  2.5287 -1.2764
  788MOL0     H 8695   9.336   4.865   7.778 -1.2319 -1.1324 -0.4462
  788MOL0     H 8696   9.482   4.686   7.958 -0.6728  2.1969  0.1591
  788MOL0     H 8697   9.492   4.668   7.779 -0.7485  0.1007 -0.0578
  788MOL0     H 8698   9.698   4.791   7.876  1.8103  3.1107  2.0461
  788MOL0     H 8699   9.590   4.900   7.784  2.3285 -0.7429 -0.6597
  788MOL0     H 8700   9.490   4.995   7.976  0.5795  0.6135 -0.3713
  788MOL0     H 8701   9.528   4.868   8.079 -0.3558  0.6253  0.2418
  788MOL0     H 8702   9.767   4.715   8.086  0.1765  0.9054  0.2647
  788MOL0     H 8703  10.071   4.607   8.059  1.5413  0.8401  1.9705
  788MOL0     H 8704   9.910   4.550   8.123  0.4917  0.0159 -1.0132
  788MOL0     H 8705  10.039   4.577   8.232  0.6989  0.1923  0.1750
  788MOL0     H 8706  10.413   4.894   8.481  2.3157 -0.7846  2.1397
  788MOL0     H 8707  10.642   4.848   8.493  2.3564 -1.8646 -0.2287
  788MOL0     H 8708  10.872   4.700   8.212 -0.8261 -0.1941 -2.0877
  788MOL0     H 8709  10.875   4.845   8.109 -1.2118 -3.1124 -0.0491
  788MOL0     H 8710  11.054   4.912   8.291 -0.0809  0.0656 -0.3308
  788MOL0     H 8711  11.077   4.735   8.281 -0.1167 -0.6210 -1.5541
  788MOL0     H 8712  11.207   4.920   8.138  1.9861 -2.1479 -0.8690
  788MOL0     H 8713  11.072   4.888   8.018 -4.3906 -0.4572  2.3129
  788MOL0     H 8714  11.146   4.637   8.035  1.1321 -3.4481  3.9559
  788MOL0     H 8715  11.267   4.687   8.150  1.6202  0.3044 -1.5844
  788MOL0     H 8716  11.358   4.638   7.915  1.2340  1.0920 -1.0081
  788MOL0     H 8717  11.283   4.776   7.855  0.1216  1.6757  0.7846
  788MOL0     H 8718  11.463   4.810   8.111  0.7421  0.0149  0.0011
  788MOL0     H 8719  11.410   4.925   7.999 -0.7270 -0.1761  3.8931
  788MOL0     H 8720  11.621   4.897   7.929 -0.7990  0.4253 -1.3805
  788MOL0     H 8721  11.528   4.809   7.803  0.8192 -3.1124 -0.1613
  788MOL0     H 8722  11.703   4.691   8.028  1.7182 -0.4537  0.1908
  788MOL0     H 8723  11.745   4.690   7.864 -0.2289 -1.6484  1.6408
  788MOL0     H 8724  10.684   4.935   8.074 -0.2240 -4.3828 -1.4221
  788MOL0     H 8725  10.446   4.937   8.059  0.1080 -0.7220  1.1165
  788MOL0     H 8726  10.085   5.076   8.182  2.7943 -1.5850 -1.2866
  788MOL0     H 8727   9.871   5.127   8.101  2.3549  1.1108 -0.1682
  788MOL0     H 8728   8.081   4.112   7.910 -1.1797  1.9780  2.6864
  788MOL0     H 8729   7.879   4.010   7.807  1.0879 -0.8620 -0.6943
  788MOL0     H 8730   7.656   3.597   7.903  0.8745  2.0136 -0.3732
  788MOL0     H 8731   7.510   3.431   7.799 -3.1551 -1.1613 -3.6796
  788MOL0     H 8732   7.345   3.358   7.627  2.0762 -2.1567  1.6741
  788MOL0     H 8733   7.342   3.297   7.786  0.1252 -0.8799 -0.3289
  788MOL0     H 8734   7.098   3.339   7.597  0.1527  0.4200 -0.1782
  788MOL0     H 8735   7.083   3.264   7.765  0.9489 -0.1825  1.8520
  788MOL0     H 8736   7.263   3.154   7.554 -0.8380  0.6222  0.5150
  788MOL0     H 8737   7.207   3.072   7.701  0.8394  0.1603 -0.4082
  788MOL0     H 8738   7.110   3.004   7.473 -1.5870 -0.3099 -1.0898
  788MOL0     H 8739   7.008   3.148   7.491  0.7591  0.9922  1.0209
  788MOL0     H 8740   6.865   2.890   7.794  0.8031  1.3388  1.3385
  788MOL0     H 8741   7.176   3.692   7.876 -1.0794 -2.8536 -1.1163
  788MOL0     H 8742   7.360   3.983   7.999  2.7748 -1.4120  0.5482
  788MOL0     H 8743   7.221   3.933   7.906 -0.3651  0.9156  1.3549
  788MOL0     H 8744   7.245   3.865   8.065  2.7165 -1.5766  1.3329
  789MOL0     O 8745   7.888   0.371   1.719 -0.0509  0.4517 -0.2898
  789MOL0     C 8746   7.859   0.282   1.801  0.5261  0.4654 -0.6459
  789MOL0     O 8747   7.946   0.190   1.854  0.1729  0.1756 -0.2745
  789MOL0     C 8748   8.067   0.182   1.792 -0.0612 -0.9674 -0.1333
  789MOL0     C 8749   8.077   0.164   1.652 -0.1939 -0.2887  0.7886
  789MOL0     C 8750   8.207   0.171   1.594 -0.6874 -0.1127  0.1315
  789MOL0     C 8751   8.329   0.191   1.668  0.7978  1.0346 -0.2125
  789MOL0     O 8752   8.457   0.192   1.613  0.5763 -0.4034  0.7337
  789MOL0     C 8753   8.476   0.215   1.472 -1.0785  0.1962 -0.5655
  789MOL0     C 8754   8.492   0.359   1.428  0.1763 -0.4784 -0.3970
  789MOL0     C 8755   8.607   0.428   1.499 -0.6861 -0.5271  0.2765
  789MOL0     C 8756   8.615   0.579   1.483 -0.2323  0.0883  0.0480
  789MOL0     C 8757   8.738   0.617   1.551 -0.2323  0.8581  0.0405
  789MOL0     C 8758   8.868   0.590   1.468  0.3242  0.2294  0.0993
  789MOL0     C 8759   8.988   0.660   1.531  0.6656 -0.9013 -0.1387
  789MOL0     C 8760   9.034   0.782   1.453  0.2717  0.0010  1.1176
  789MOL0     N 8761   9.096   0.754   1.319 -0.8537  0.6901 -0.9610
  789MOL0     C 8762   9.058   0.812   1.205 -0.5181 -1.4466  0.0004
  789MOL0     C 8763   9.137   0.747   1.108  0.5247 -0.7432 -0.7605
  789MOL0     C 8764   9.118   0.772   0.955  0.2947  0.5246 -0.0722
  789MOL0     C 8765   9.047   0.654   0.882 -0.2721 -0.5932  0.1451
  789MOL0     C 8766   9.084   0.656   0.734 -0.0967  0.1518 -0.7518
  789MOL0     C 8767   9.024   0.539   0.657  0.1728 -0.1942 -0.6433
  789MOL0     O 8768   9.052   0.550   0.517  0.1266  0.6318 -0.1664
  789MOL0     C 8769   9.170   0.495   0.468 -0.7123 -0.3238  0.6115
  789MOL0     C 8770   9.177   0.366   0.418  1.4537  0.6713 -0.8522
  789MOL0     C 8771   9.300   0.324   0.370 -0.1738  0.2506 -0.0620
  789MOL0     C 8772   9.308   0.188   0.306 -0.7365  0.2833 -0.1288
  789MOL0     C 8773   9.413   0.406   0.377 -0.0170 -0.0509 -0.3392
  789MOL0     C 8774   9.542   0.380   0.309  0.3191 -0.2409 -0.0150
  789MOL0     O 8775   9.611   0.487   0.273 -0.1389  0.5736  0.2618
  789MOL0     C 8776   9.731   0.499   0.202 -0.3226  0.4081 -0.5901
  789MOL0     C 8777   9.787   0.397   0.126 -0.1428  0.0836  0.9745
  789MOL0     C 8778   9.908   0.422   0.054  0.2865  0.0958  0.3570
  789MOL0     C 8779   9.969   0.545   0.074 -0.1963 -0.7580  0.4037
  789MOL0     O 8780  10.093   0.554   0.017  0.2762  0.1462  0.4765
  789MOL0     C 8781  10.146   0.680  -0.041 -0.2331 -0.5404  0.1238
  789MOL0     C 8782  10.054   0.756  -0.130  0.0644  0.5596  0.2413
  789MOL0     C 8783  10.131   0.884  -0.188  0.1044 -0.9385  0.6325
  789MOL0     C 8784  10.027   0.942  -0.284  0.3449 -0.5586  0.0249
  789MOL0     C 8785  10.077   1.060  -0.360  0.0844 -0.0442  0.2358
  789MOL0     C 8786  10.006   1.082  -0.498  0.1392 -0.2808 -0.5065
  789MOL0     C 8787   9.860   1.114  -0.495  0.8434  0.4163  0.3674
  789MOL0     C 8788   9.780   1.093  -0.629  0.4424  0.5920 -0.4182
  789MOL0    Cl 8789   9.862   1.179  -0.753  0.4840  0.1892  0.0388
  789MOL0     C 8790   9.921   0.640   0.153 -0.1531  0.1957 -1.4681
  789MOL0     C 8791   9.799   0.622   0.225  0.0011  0.0228 -0.3526
  789MOL0     O 8792   9.579   0.263   0.298  0.7243  0.4144 -0.2698
  789MOL0     C 8793   9.399   0.543   0.419  0.1494 -0.5909  0.0661
  789MOL0     C 8794   9.275   0.590   0.457 -1.2738  0.2871  0.5898
  789MOL0     N 8795   9.227   0.669   1.178 -0.2388 -0.0098  0.6347
  789MOL0     N 8796   9.196   0.667   1.296  0.0846  0.0456  0.3170
  789MOL0     C 8797   8.316   0.183   1.809 -0.0036 -0.1075 -0.1848
  789MOL0     C 8798   8.185   0.181   1.868 -0.8657 -0.3304  0.3040
  789MOL0     C 8799   7.722   0.280   1.859  0.3952 -0.3941  0.2573
  789MOL0     C 8800   7.707   0.210   1.977 -0.0875  0.6590  1.0891
  789MOL0     C 8801   7.589   0.222   2.050 -0.5472  0.7843 -0.5656
  789MOL0     C 8802   7.482   0.295   2.012 -0.1741 -0.4477  0.5384
  789MOL0     O 8803   7.377   0.314   2.099  0.6761  0.5281  0.2694
  789MOL0     C 8804   7.248   0.357   2.055  0.4251 -0.3429  0.3373
  789MOL0     C 8805   7.153   0.348   2.164  0.6707  0.4731  0.0018
  789MOL0     C 8806   7.134   0.199   2.212 -0.7417 -0.3193 -0.0259
  789MOL0     C 8807   6.999   0.174   2.278 -0.2430  0.0989  0.2193
  789MOL0     C 8808   6.988   0.028   2.308 -0.2530 -0.2572 -0.6837
  789MOL0     C 8809   6.981  -0.094   2.324  0.9242 -0.4083  1.0169
  789MOL0     C 8810   7.496   0.363   1.890 -0.1316  0.3651  0.5155
  789MOL0     C 8811   7.613   0.359   1.813  0.8703 -0.0147 -0.0288
  789MOL0     C 8812   7.622   0.432   1.677  0.9873 -0.0199  0.2943
  789MOL0     H 8813   7.995   0.143   1.584  0.4509  0.4689 -0.2486
  789MOL0     H 8814   8.220   0.176   1.486  1.5372  3.4917  0.4068
  789MOL0     H 8815   8.390   0.170   1.421 -1.5804 -2.6525  2.4258
  789MOL0     H 8816   8.559   0.151   1.444  0.0602  2.3562 -2.4540
  789MOL0     H 8817   8.497   0.373   1.320 -2.0804  1.1029 -0.3504
  789MOL0     H 8818   8.397   0.408   1.450 -0.4907 -1.4356 -1.0512
  789MOL0     H 8819   8.622   0.388   1.600 -0.7633 -0.5622  0.2740
  789MOL0     H 8820   8.693   0.388   1.446 -0.2178  1.6182 -0.6784
  789MOL0     H 8821   8.610   0.611   1.379 -3.2182 -0.8187 -0.1531
  789MOL0     H 8822   8.533   0.629   1.534 -1.7771 -2.7106  0.5148
  789MOL0     H 8823   8.746   0.565   1.647 -2.2752 -1.3060 -0.8386
  789MOL0     H 8824   8.732   0.722   1.580 -4.5766  0.8446 -0.0935
  789MOL0     H 8825   8.888   0.484   1.479  2.1911  0.6769  1.4064
  789MOL0     H 8826   8.852   0.608   1.361 -4.0555  1.9902  0.8275
  789MOL0     H 8827   9.072   0.590   1.536  2.3219  1.0092 -0.3624
  789MOL0     H 8828   8.969   0.680   1.637  1.6554 -1.2492  0.1106
  789MOL0     H 8829   8.943   0.841   1.445 -0.4646 -1.2814 -0.7026
  789MOL0     H 8830   9.105   0.838   1.515 -2.0464 -0.2008  4.1850
  789MOL0     H 8831   8.975   0.876   1.178 -0.4978 -1.2233  0.4517
  789MOL0     H 8832   9.207   0.799   0.898  0.2061  0.2391 -0.3491
  789MOL0     H 8833   9.042   0.849   0.935 -0.3450  0.2854  1.2701
  789MOL0     H 8834   9.084   0.560   0.923 -2.0639 -1.4386 -0.0946
  789MOL0     H 8835   8.940   0.673   0.895  0.2285  1.8572  1.4116
  789MOL0     H 8836   9.059   0.753   0.691 -0.9239  0.0307 -0.5694
  789MOL0     H 8837   9.193   0.648   0.732  0.0841  0.2364  2.7353
  789MOL0     H 8838   9.061   0.441   0.691 -0.0885 -0.5018 -1.2464
  789MOL0     H 8839   8.916   0.530   0.664  0.3327 -1.1298  1.9789
  789MOL0     H 8840   9.096   0.296   0.429  1.7404  0.3907 -0.5046
  789MOL0     H 8841   9.209   0.153   0.275 -1.6766  2.2124  0.5284
  789MOL0     H 8842   9.354   0.116   0.374 -0.9338  0.1786 -0.1074
  789MOL0     H 8843   9.368   0.205   0.216  0.2133  1.8150  0.7424
  789MOL0     H 8844   9.733   0.303   0.121  0.9831 -0.6616  2.1121
  789MOL0     H 8845   9.957   0.351  -0.011  3.9967  1.6756  1.1806
  789MOL0     H 8846  10.178   0.749   0.038  1.1925 -2.0257  0.9013
  789MOL0     H 8847  10.239   0.657  -0.094 -0.1383 -1.8707  0.8413
  789MOL0     H 8848  10.006   0.693  -0.205  0.6812  2.5812 -1.9682
  789MOL0     H 8849   9.962   0.785  -0.078 -0.4219 -0.2693 -0.1393
  789MOL0     H 8850  10.225   0.864  -0.240 -1.2228 -3.1155 -1.0782
  789MOL0     H 8851  10.150   0.944  -0.098  2.8613 -1.1921  0.2879
  789MOL0     H 8852   9.943   0.986  -0.228  1.3766  0.8289  0.5487
  789MOL0     H 8853   9.993   0.868  -0.357 -0.0376 -1.2985  0.9358
  789MOL0     H 8854  10.063   1.150  -0.300  2.9222  1.6107 -1.4094
  789MOL0     H 8855  10.184   1.051  -0.379  0.2225 -2.0228  1.6189
  789MOL0     H 8856  10.019   0.994  -0.562 -2.2374 -1.1824  0.1420
  789MOL0     H 8857  10.065   1.167  -0.535  0.4834 -0.5375 -0.5539
  789MOL0     H 8858   9.852   1.221  -0.473  1.5412  0.3651  0.8989
  789MOL0     H 8859   9.811   1.041  -0.430  2.6679 -1.1027  0.1098
  789MOL0     H 8860   9.677   1.130  -0.628 -0.9004 -2.7444 -1.3397
  789MOL0     H 8861   9.795   0.986  -0.645 -0.3418  0.3231  0.5759
  789MOL0     H 8862   9.964   0.739   0.159 -0.6864  0.3580  1.1254
  789MOL0     H 8863   9.759   0.687   0.301 -2.6429 -1.1195 -0.6579
  789MOL0     H 8864   9.488   0.605   0.420  1.9088 -2.9810 -0.2789
  789MOL0     H 8865   9.259   0.695   0.480  0.8181  1.4864 -2.7155
  789MOL0     H 8866   8.407   0.195   1.868  0.9332  3.7466 -2.0713
  789MOL0     H 8867   8.180   0.188   1.976  0.7276 -3.2235  0.6695
  789MOL0     H 8868   7.787   0.154   2.024 -0.4316 -0.6289  0.1959
  789MOL0     H 8869   7.574   0.161   2.139  0.2691  3.2739  1.4186
  789MOL0     H 8870   7.253   0.458   2.014 -0.3442 -0.7316 -0.7727
  789MOL0     H 8871   7.216   0.300   1.967  0.7784 -1.9439  1.2211
  789MOL0     H 8872   7.056   0.382   2.125  1.7435 -0.7681 -4.3697
  789MOL0     H 8873   7.183   0.404   2.253  0.2553 -1.6031  1.5061
  789MOL0     H 8874   7.143   0.144   2.118  2.4094  1.7536 -1.0804
  789MOL0     H 8875   7.208   0.158   2.281  1.3358 -0.2938 -2.1353
  789MOL0     H 8876   6.922   0.201   2.206 -0.0462 -0.5425 -0.2408
  789MOL0     H 8877   6.984   0.227   2.372 -1.3096 -1.1454  0.7841
  789MOL0     H 8878   6.965  -0.199   2.338  1.7217 -0.9540 -1.5292
  789MOL0     H 8879   7.421   0.436   1.861 -0.0874  1.6794  3.4352
  789MOL0     H 8880   7.635   0.537   1.705 -1.6578  0.3543  0.4219
  789MOL0     H 8881   7.688   0.399   1.597 -2.7042 -1.1176 -2.5913
  789MOL0     H 8882   7.528   0.405   1.629  1.3402 -1.3620  0.3230
  790MOL0     O 8883  10.865   8.043   2.238  0.8023  0.4162  0.0374
  790MOL0     C 8884  10.787   8.002   2.150 -0.2897  0.2862 -0.2421
  790MOL0     O 8885  10.823   7.977   2.022 -0.0191 -0.3621  0.0520
  790MOL0     C 8886  10.950   7.985   1.971  0.4084 -0.2423  0.2359
  790MOL0     C 8887  11.065   7.938   2.041 -0.0922 -0.0044  0.6186
  790MOL0     C 8888  11.192   7.940   1.991 -0.4292  0.1024 -0.7629
  790MOL0     C 8889  11.218   7.997   1.865 -0.3119 -0.1517  0.6034
  790MOL0     O 8890  11.349   8.020   1.817 -0.2785  0.0234  0.4966
  790MOL0     C 8891  11.471   8.012   1.897  0.0352 -0.5973  0.0011
  790MOL0     C 8892  11.583   8.093   1.834 -0.3767 -0.1998  0.2620
  790MOL0     C 8893  11.631   8.031   1.710 -0.2452 -0.1169  1.1261
  790MOL0     C 8894  11.763   8.102   1.659 -0.1066  0.3680  0.1252
  790MOL0     C 8895  11.829   8.019   1.546  0.1728  0.8325  1.1650
  790MOL0     C 8896  11.940   8.103   1.468  0.2720  0.5570  0.1276
  790MOL0     C 8897  12.008   8.015   1.351  0.3614 -0.6690  0.4014
  790MOL0     C 8898  12.109   7.912   1.401  0.0062  0.4095  0.5711
  790MOL0     N 8899  12.226   7.984   1.460 -0.4207 -0.7246  0.2320
  790MOL0     C 8900  12.331   8.029   1.386  0.0865  0.0497 -0.4322
  790MOL0     C 8901  12.425   8.047   1.476  0.1460  0.2434 -0.0742
  790MOL0     C 8902  12.567   8.070   1.426  0.1177 -0.3234  0.8989
  790MOL0     C 8903  12.622   7.938   1.365 -0.3501 -0.7874 -0.3045
  790MOL0     C 8904  12.755   7.961   1.286  0.0281  0.6100 -0.0071
  790MOL0     C 8905  12.789   7.828   1.215  0.6528  1.0994  0.0795
  790MOL0     O 8906  12.920   7.826   1.153 -0.1860  0.4574  0.1325
  790MOL0     C 8907  12.930   7.901   1.036  0.0203 -0.2582 -0.1621
  790MOL0     C 8908  12.899   7.838   0.915 -0.0141  1.0651 -0.4661
  790MOL0     C 8909  12.910   7.907   0.795  0.6569  0.3319  0.1259
  790MOL0     C 8910  12.893   7.818   0.676 -0.1528 -0.0761  0.4487
  790MOL0     C 8911  12.951   8.044   0.792  0.0735  1.1815  0.8623
  790MOL0     C 8912  12.965   8.121   0.664  0.8249 -0.7242 -0.2188
  790MOL0     O 8913  12.889   8.091   0.564  0.1742  0.5729 -0.2025
  790MOL0     C 8914  12.878   8.164   0.445 -0.0816  0.5367 -0.2785
  790MOL0     C 8915  12.988   8.183   0.358 -0.6518 -0.1145 -0.4694
  790MOL0     C 8916  12.973   8.264   0.251 -0.0946 -0.6052  0.5565
  790MOL0     C 8917  12.856   8.334   0.224 -0.1477  0.3381  0.3488
  790MOL0     O 8918  12.850   8.420   0.122  0.2899 -0.0493  0.1542
  790MOL0     C 8919  12.831   8.559   0.153 -0.0888 -1.0661 -0.4210
  790MOL0     C 8920  12.928   8.664   0.095 -0.7921 -0.6533 -0.4494
  790MOL0     C 8921  13.068   8.659   0.164  0.0686  0.1333 -0.8545
  790MOL0     C 8922  13.074   8.750   0.279  0.8199 -0.6479  0.5481
  790MOL0     C 8923  13.202   8.761   0.362 -0.1707  0.5255 -0.6013
  790MOL0     C 8924  13.308   8.846   0.292  0.5365  0.4822 -0.4093
  790MOL0     C 8925  13.434   8.891   0.375 -0.3619 -0.0660 -0.4093
  790MOL0     C 8926  13.538   8.956   0.292  0.0405 -0.0231  0.2739
  790MOL0    Cl 8927  13.665   9.017   0.405 -0.0857 -0.0287 -0.0213
  790MOL0     C 8928  12.748   8.303   0.295  0.1720  0.3296 -0.5350
  790MOL0     C 8929  12.759   8.221   0.410  0.2652  0.0914  0.1337
  790MOL0     O 8930  13.043   8.214   0.665  0.8156 -1.6666  0.6409
  790MOL0     C 8931  12.992   8.096   0.917  0.5140 -0.0580 -0.1234
  790MOL0     C 8932  12.986   8.029   1.040 -0.0827 -0.4916  0.7689
  790MOL0     N 8933  12.386   8.017   1.602 -0.2162  0.2206  0.1879
  790MOL0     N 8934  12.261   7.981   1.589  0.3112 -0.0874  0.7224
  790MOL0     C 8935  11.109   8.057   1.798 -0.5444  0.7418  0.4971
  790MOL0     C 8936  10.981   8.034   1.843  0.6012 -0.6578  0.7332
  790MOL0     C 8937  10.653   7.951   2.193 -0.8042  0.1156 -0.0826
  790MOL0     C 8938  10.585   7.858   2.110 -0.4197 -0.6524 -0.0375
  790MOL0     C 8939  10.450   7.827   2.125  0.6678 -0.5925  0.3663
  790MOL0     C 8940  10.369   7.886   2.228  0.7516 -0.5017  0.1234
  790MOL0     O 8941  10.232   7.870   2.252 -0.6343  0.3113  0.3621
  790MOL0     C 8942  10.149   7.785   2.168 -0.7170  0.3209  0.0881
  790MOL0     C 8943   9.996   7.827   2.183 -0.3347 -0.5163  0.2939
  790MOL0     C 8944   9.951   7.829   2.333 -0.4552 -0.0224 -0.9774
  790MOL0     C 8945   9.816   7.784   2.367  0.4004 -0.7749  0.5157
  790MOL0     C 8946   9.815   7.781   2.516  0.3178  0.1327  0.3009
  790MOL0     C 8947   9.791   7.784   2.709 -0.2761  0.6251  0.3101
  790MOL0     C 8948  10.440   7.966   2.325 -0.3989 -0.1512 -0.2473
  790MOL0     C 8949  10.574   8.001   2.306 -0.4076  0.2665  0.5243
  790MOL0     C 8950  10.623   8.099   2.406  0.0621 -0.0869  0.2240
  790MOL0     H 8951  11.049   7.891   2.138 -2.7172 -0.1707  0.1930
  790MOL0     H 8952  11.253   7.886   2.063 -1.2834  0.0046 -0.0979
  790MOL0     H 8953  11.498   7.906   1.909  0.7491 -0.6478 -1.7411
  790MOL0     H 8954  11.463   8.060   1.995 -0.8570 -0.2905 -0.2206
  790MOL0     H 8955  11.545   8.194   1.812 -0.2215  0.2910  2.0387
  790MOL0     H 8956  11.664   8.108   1.906 -0.9496  2.0487  0.5363
  790MOL0     H 8957  11.650   7.925   1.725  0.5428 -0.2804 -0.8053
  790MOL0     H 8958  11.558   8.043   1.630  0.1262  0.4156  0.8596
  790MOL0     H 8959  11.738   8.206   1.638  0.8898  1.1845  2.7252
  790MOL0     H 8960  11.837   8.125   1.735 -1.1212  3.3697  0.3166
  790MOL0     H 8961  11.750   8.001   1.474 -0.3710  3.1663  1.1092
  790MOL0     H 8962  11.870   7.928   1.592  0.1055  0.9506  1.4590
  790MOL0     H 8963  11.896   8.195   1.429 -0.5692  0.1954  0.2047
  790MOL0     H 8964  12.022   8.133   1.533 -1.2231  0.6896  2.0274
  790MOL0     H 8965  12.056   8.077   1.274 -3.3756 -0.5525 -2.0762
  790MOL0     H 8966  11.926   7.958   1.307 -0.4929  0.5270  0.4157
  790MOL0     H 8967  12.069   7.858   1.487 -0.5833  1.9427  1.2853
  790MOL0     H 8968  12.149   7.846   1.323  0.9843 -0.6224  1.8911
  790MOL0     H 8969  12.322   8.050   1.280  1.4882  0.8817 -0.4193
  790MOL0     H 8970  12.634   8.078   1.512  0.2927 -0.5207  0.7793
  790MOL0     H 8971  12.579   8.159   1.363 -1.9802  0.4835  1.5371
  790MOL0     H 8972  12.631   7.858   1.439  1.4768 -0.1042  0.2759
  790MOL0     H 8973  12.553   7.903   1.288 -0.8136 -1.0533  0.2262
  790MOL0     H 8974  12.753   8.038   1.208 -0.9482 -1.0720 -1.7268
  790MOL0     H 8975  12.838   7.982   1.355  2.8982 -0.1547 -2.9251
  790MOL0     H 8976  12.791   7.741   1.282  1.8102  1.2064  0.2109
  790MOL0     H 8977  12.709   7.796   1.148  0.5283 -1.5458  1.3426
  790MOL0     H 8978  12.859   7.738   0.922 -2.1927  1.8864 -0.4818
  790MOL0     H 8979  12.946   7.858   0.588 -1.6917 -4.4634 -2.8315
  790MOL0     H 8980  12.786   7.801   0.661  0.0618 -1.8948  0.7675
  790MOL0     H 8981  12.936   7.719   0.692  1.3877  0.3941 -0.4893
  790MOL0     H 8982  13.079   8.127   0.379 -0.9719  0.1371  1.9145
  790MOL0     H 8983  13.054   8.271   0.179 -0.3105  2.1298  0.4551
  790MOL0     H 8984  12.732   8.586   0.113 -1.4567 -1.9798  2.1244
  790MOL0     H 8985  12.813   8.579   0.259 -0.6074  4.2458 -1.2415
  790MOL0     H 8986  12.954   8.641  -0.009  3.0221 -1.0693  0.4591
  790MOL0     H 8987  12.875   8.759   0.106 -1.0270 -0.7746 -0.5164
  790MOL0     H 8988  13.142   8.670   0.084  3.7222 -1.5115  2.0019
  790MOL0     H 8989  13.078   8.553   0.189 -1.0504 -0.4555 -2.6625
  790MOL0     H 8990  12.986   8.726   0.340 -0.0326 -0.0671 -0.4128
  790MOL0     H 8991  13.060   8.849   0.236 -0.0368 -1.5362 -1.3557
  790MOL0     H 8992  13.180   8.799   0.462 -1.5017 -1.5742 -0.0127
  790MOL0     H 8993  13.240   8.662   0.389 -2.8864 -0.3593  0.3921
  790MOL0     H 8994  13.262   8.939   0.255  0.6608  0.0687 -1.6582
  790MOL0     H 8995  13.336   8.791   0.202 -2.4991 -2.2843  0.1819
  790MOL0     H 8996  13.473   8.799   0.418 -1.0419  0.6456  1.8893
  790MOL0     H 8997  13.403   8.947   0.464  0.9784 -4.1179  2.8989
  790MOL0     H 8998  13.504   9.042   0.234  0.4259  0.9781  1.4999
  790MOL0     H 8999  13.573   8.881   0.220 -1.6519  0.5425 -1.2228
  790MOL0     H 9000  12.647   8.335   0.270 -0.7136 -1.5324  0.4185
  790MOL0     H 9001  12.671   8.207   0.472  0.2232  1.8414  0.5095
  790MOL0     H 9002  13.037   8.195   0.923  1.8511 -0.7089  1.6689
  790MOL0     H 9003  13.009   8.079   1.134 -1.6125  3.5599 -0.8178
  790MOL0     H 9004  11.125   8.097   1.698  0.3397 -1.2726 -0.2092
  790MOL0     H 9005  10.893   8.053   1.783 -0.7799 -3.6150  1.6522
  790MOL0     H 9006  10.639   7.806   2.032  1.6191 -2.5561  2.4565
  790MOL0     H 9007  10.412   7.758   2.051 -1.4792 -2.0546  2.6646
  790MOL0     H 9008  10.185   7.810   2.068  1.1002  1.4685  0.9723
  790MOL0     H 9009  10.154   7.677   2.184  0.3735  0.5318  1.3851
  790MOL0     H 9010   9.918   7.769   2.134 -0.5903 -0.5528  0.7370
  790MOL0     H 9011   9.990   7.929   2.145  0.6980  0.5124  2.6681
  790MOL0     H 9012  10.031   7.776   2.385 -0.4286  1.2061  0.2859
  790MOL0     H 9013   9.970   7.930   2.370 -0.0176 -1.3029  2.6979
  790MOL0     H 9014   9.787   7.686   2.327  1.4397  0.2016 -2.9848
  790MOL0     H 9015   9.740   7.855   2.332  0.9818  0.2076  1.2320
  790MOL0     H 9016   9.793   7.801   2.815  2.1785  2.2959  0.0695
  790MOL0     H 9017  10.383   8.008   2.407 -0.0424  0.2669 -0.2148
  790MOL0     H 9018  10.550   8.114   2.486  1.4785  0.7432  1.4295
  790MOL0     H 9019  10.709   8.066   2.466 -0.3335  1.3378  1.6630
  790MOL0     H 9020  10.638   8.191   2.349  0.8307 -2.0915 -3.0658
  791MOL0     O 9021   9.081   2.303   6.825  0.1243  0.6783 -0.8012
  791MOL0     C 9022   9.003   2.363   6.758  0.4632 -1.1190 -1.1082
  791MOL0     O 9023   9.034   2.455   6.659  0.1881  0.1287  0.4014
  791MOL0     C 9024   9.165   2.454   6.618 -0.4094  0.8391  0.1854
  791MOL0     C 9025   9.272   2.516   6.679  0.1807 -0.0933  0.2515
  791MOL0     C 9026   9.397   2.522   6.614  0.6630  0.1391 -0.2317
  791MOL0     C 9027   9.413   2.462   6.493  0.6358  0.5520 -0.7127
  791MOL0     O 9028   9.530   2.465   6.425 -0.7481  0.1712  0.8006
  791MOL0     C 9029   9.628   2.578   6.407 -0.1154  0.7924  0.3973
  791MOL0     C 9030   9.734   2.537   6.301 -1.0002 -0.4918  0.0343
  791MOL0     C 9031   9.831   2.654   6.280  0.1459  0.0721  0.2201
  791MOL0     C 9032   9.925   2.623   6.158 -0.2317  1.2112 -0.7495
  791MOL0     C 9033  10.031   2.731   6.136 -0.4222  0.0742  0.4641
  791MOL0     C 9034  10.128   2.698   6.013  0.3277  0.9374  0.7570
  791MOL0     C 9035  10.229   2.801   5.986  0.3549 -1.0266 -0.2407
  791MOL0     C 9036  10.160   2.922   5.912 -0.3884  0.2707  1.1803
  791MOL0     N 9037  10.242   3.048   5.924  0.0270  0.1309  0.3007
  791MOL0     C 9038  10.214   3.172   5.971 -0.0420  0.0078  0.6302
  791MOL0     C 9039  10.331   3.235   5.957 -0.3898 -1.3561 -0.4816
  791MOL0     C 9040  10.369   3.369   6.012 -0.1139  0.0269  0.7068
  791MOL0     C 9041  10.384   3.373   6.164  0.2042 -0.6843  0.5251
  791MOL0     C 9042  10.469   3.265   6.229  0.2572  0.6684 -0.0885
  791MOL0     C 9043  10.613   3.248   6.169 -0.6044  0.2579  0.4149
  791MOL0     O 9044  10.691   3.159   6.243 -1.1880 -0.1005  0.0117
  791MOL0     C 9045  10.818   3.133   6.201  1.0202  0.2760 -0.4530
  791MOL0     C 9046  10.866   3.180   6.083  0.0272 -0.9302 -0.0697
  791MOL0     C 9047  10.992   3.158   6.032  0.0231  0.1097 -0.6867
  791MOL0     C 9048  11.033   3.232   5.904  0.0520  0.2584  0.6021
  791MOL0     C 9049  11.073   3.067   6.108 -0.7771  0.3498  0.3026
  791MOL0     C 9050  11.216   3.028   6.064 -0.1743  0.5341 -0.1344
  791MOL0     O 9051  11.258   3.065   5.940 -0.4756 -0.4383 -0.4622
  791MOL0     C 9052  11.384   3.045   5.900  0.0184  0.3861  0.1037
  791MOL0     C 9053  11.415   2.928   5.834  1.0221 -0.8780 -0.3257
  791MOL0     C 9054  11.540   2.886   5.808 -0.6738 -0.3118 -0.2660
  791MOL0     C 9055  11.648   2.974   5.838  0.5993 -0.2696  0.8674
  791MOL0     O 9056  11.783   2.941   5.808 -0.2511 -1.1512 -0.2120
  791MOL0     C 9057  11.820   2.814   5.755  0.2764  0.0630  0.5186
  791MOL0     C 9058  11.970   2.809   5.740  0.6341 -0.1445  0.4253
  791MOL0     C 9059  12.001   2.664   5.735 -0.2095  0.2365  0.4063
  791MOL0     C 9060  12.156   2.646   5.726  0.1250 -1.1667 -0.4468
  791MOL0     C 9061  12.179   2.493   5.698 -0.6959  0.7796 -0.2707
  791MOL0     C 9062  12.322   2.461   5.729  0.3206 -0.5320  1.0901
  791MOL0     C 9063  12.350   2.314   5.749 -0.3960  0.3238  0.2816
  791MOL0     C 9064  12.493   2.272   5.763 -0.1849 -0.3812 -0.4477
  791MOL0    Cl 9065  12.502   2.107   5.829  0.3342  0.0070 -0.2551
  791MOL0     C 9066  11.619   3.092   5.910  0.8020 -0.1770  0.2954
  791MOL0     C 9067  11.490   3.124   5.942 -0.7669  0.9430 -0.4422
  791MOL0     O 9068  11.283   2.968   6.149  0.1656  0.2309  0.2486
  791MOL0     C 9069  11.019   3.011   6.225  0.7430  0.4694 -1.1446
  791MOL0     C 9070  10.887   3.048   6.276  0.0531 -0.7653 -0.0399
  791MOL0     N 9071  10.420   3.158   5.890 -0.4535 -0.4763  0.6961
  791MOL0     N 9072  10.365   3.044   5.872  0.4604 -1.0059  0.4659
  791MOL0     C 9073   9.294   2.407   6.426 -0.6032  0.1028 -0.3821
  791MOL0     C 9074   9.173   2.398   6.493  0.2834  0.2001 -0.5734
  791MOL0     C 9075   8.864   2.372   6.817  0.1127 -0.0313  0.0551
  791MOL0     C 9076   8.787   2.488   6.792 -0.3477 -0.3889 -0.6506
  791MOL0     C 9077   8.653   2.494   6.825  1.0351  0.7481  0.9449
  791MOL0     C 9078   8.585   2.379   6.871  0.8756  0.6487  0.2984
  791MOL0     O 9079   8.451   2.387   6.914  0.1433 -0.3439 -0.0844
  791MOL0     C 9080   8.370   2.321   6.815  0.3615  0.8343 -0.5376
  791MOL0     C 9081   8.225   2.300   6.855  1.0185 -0.2639 -0.9956
  791MOL0     C 9082   8.154   2.213   6.749  0.7349 -0.3840 -0.1136
  791MOL0     C 9083   8.009   2.228   6.781  0.3175 -0.3139 -0.1855
  791MOL0     C 9084   7.926   2.172   6.671 -0.2253  0.3097  0.5707
  791MOL0     C 9085   7.853   2.135   6.581  0.1682 -0.3660 -0.1439
  791MOL0     C 9086   8.660   2.265   6.902 -0.7287  0.0755  0.0798
  791MOL0     C 9087   8.796   2.259   6.873  0.6788 -0.3531 -0.2703
  791MOL0     C 9088   8.859   2.131   6.882 -0.1475  0.1914 -0.1806
  791MOL0     H 9089   9.253   2.570   6.771 -0.5070  0.7724 -0.3944
  791MOL0     H 9090   9.482   2.577   6.653  1.4024  0.9689 -2.7948
  791MOL0     H 9091   9.681   2.589   6.502  0.9348  1.0676 -0.2073
  791MOL0     H 9092   9.564   2.663   6.381 -1.6872 -0.6133 -0.5943
  791MOL0     H 9093   9.790   2.448   6.329  0.0896 -1.2903 -4.1096
  791MOL0     H 9094   9.680   2.506   6.211  1.6474  0.0272 -1.8490
  791MOL0     H 9095   9.779   2.747   6.255  1.3962  0.1463 -2.5085
  791MOL0     H 9096   9.899   2.665   6.365 -1.3885 -2.2056  1.8538
  791MOL0     H 9097   9.970   2.526   6.182 -1.6514 -0.1785 -3.3116
  791MOL0     H 9098   9.858   2.601   6.075 -1.1254  0.2604  0.1855
  791MOL0     H 9099  10.099   2.732   6.222 -0.1315  0.6407  0.2298
  791MOL0     H 9100   9.981   2.826   6.119  1.0422  0.8580  0.3058
  791MOL0     H 9101  10.178   2.604   6.041 -0.1300 -0.2813 -2.1562
  791MOL0     H 9102  10.073   2.684   5.920  2.2996  0.8356 -0.4467
  791MOL0     H 9103  10.301   2.760   5.914  0.7195 -0.0616 -0.4447
  791MOL0     H 9104  10.289   2.823   6.074 -0.1553  0.8359 -0.3264
  791MOL0     H 9105  10.147   2.900   5.806 -0.9138  4.3302  0.2617
  791MOL0     H 9106  10.057   2.938   5.945 -1.4477 -5.9607  2.1669
  791MOL0     H 9107  10.123   3.207   6.018 -0.5130  1.0775 -0.9868
  791MOL0     H 9108  10.289   3.439   5.986 -0.8788 -0.7139  1.0326
  791MOL0     H 9109  10.462   3.401   5.963 -0.6200  0.2842 -0.1224
  791MOL0     H 9110  10.421   3.471   6.196  3.1924 -1.6194  0.3240
  791MOL0     H 9111  10.284   3.362   6.205  0.6214 -0.7579  1.5691
  791MOL0     H 9112  10.470   3.302   6.332 -2.2400  1.6290 -0.3373
  791MOL0     H 9113  10.415   3.170   6.220  0.0087  0.8737 -0.7968
  791MOL0     H 9114  10.598   3.234   6.062 -0.2233 -1.0659  0.5258
  791MOL0     H 9115  10.665   3.343   6.187  2.1821 -1.0879 -0.0508
  791MOL0     H 9116  10.801   3.240   6.020 -0.4177 -0.1586  1.0786
  791MOL0     H 9117  11.129   3.284   5.918 -0.0375  1.1476 -1.5787
  791MOL0     H 9118  10.968   3.314   5.872  2.3088  0.2292 -5.3315
  791MOL0     H 9119  11.047   3.160   5.823  1.1683  1.8271 -0.6853
  791MOL0     H 9120  11.331   2.866   5.802 -0.9459 -1.0724  4.4362
  791MOL0     H 9121  11.563   2.786   5.774 -1.2012 -1.0858  1.5408
  791MOL0     H 9122  11.777   2.731   5.811  0.3337  0.1401  0.6774
  791MOL0     H 9123  11.773   2.799   5.658  0.7047  2.4559 -0.1357
  791MOL0     H 9124  11.986   2.866   5.648  2.3121 -3.0652 -1.2569
  791MOL0     H 9125  12.034   2.841   5.822  0.4543 -3.5775  2.0871
  791MOL0     H 9126  11.955   2.607   5.654  2.0508  0.8157 -1.3823
  791MOL0     H 9127  11.972   2.618   5.830  3.1078 -3.7731 -0.2140
  791MOL0     H 9128  12.202   2.667   5.823  1.8788 -4.0892 -0.5119
  791MOL0     H 9129  12.191   2.710   5.645 -3.1263  0.8232 -0.4417
  791MOL0     H 9130  12.115   2.438   5.768  1.9234 -1.3180  0.6821
  791MOL0     H 9131  12.160   2.468   5.593  0.4783 -0.0277 -0.3113
  791MOL0     H 9132  12.350   2.510   5.822  4.1042  0.1353 -0.2137
  791MOL0     H 9133  12.383   2.504   5.648 -1.6596 -1.1481 -0.8146
  791MOL0     H 9134  12.318   2.257   5.661  0.4124 -1.6761  1.2367
  791MOL0     H 9135  12.286   2.288   5.833  0.9837 -0.9489  0.9895
  791MOL0     H 9136  12.531   2.348   5.831 -2.2779 -1.8860  2.6246
  791MOL0     H 9137  12.542   2.272   5.665 -1.2539 -0.5906 -0.9995
  791MOL0     H 9138  11.707   3.154   5.923  0.0231  1.0230 -0.0272
  791MOL0     H 9139  11.469   3.204   6.013  0.4188 -1.7992  3.3564
  791MOL0     H 9140  11.078   2.938   6.280 -2.2523 -0.3157  1.3032
  791MOL0     H 9141  10.842   2.998   6.361  1.6444 -0.7504  0.8643
  791MOL0     H 9142   9.305   2.359   6.329  0.9047 -3.0488  1.2016
  791MOL0     H 9143   9.084   2.347   6.455 -0.5870 -0.3170  1.9745
  791MOL0     H 9144   8.816   2.583   6.748  0.1731 -0.5741 -0.7128
  791MOL0     H 9145   8.592   2.583   6.815 -0.1721  0.0437  1.7853
  791MOL0     H 9146   8.368   2.367   6.716  0.0086  1.5431 -0.2065
  791MOL0     H 9147   8.401   2.216   6.811 -1.4344 -0.0076  3.3728
  791MOL0     H 9148   8.182   2.400   6.846  1.4639  0.2259  1.5164
  791MOL0     H 9149   8.219   2.258   6.956 -0.4935  2.3235  0.0880
  791MOL0     H 9150   8.178   2.242   6.647 -1.4900  0.5080 -0.4537
  791MOL0     H 9151   8.186   2.109   6.759  2.3163  0.1506  0.8007
  791MOL0     H 9152   7.978   2.333   6.794  1.0541  0.1823 -2.1308
  791MOL0     H 9153   7.983   2.172   6.871  1.8455  1.5807  1.5351
  791MOL0     H 9154   7.795   2.085   6.506  0.1491  1.3282 -1.3015
  791MOL0     H 9155   8.627   2.175   6.954 -0.0730  1.6397  3.4936
  791MOL0     H 9156   8.941   2.122   6.954  1.9422  2.0792 -2.1535
  791MOL0     H 9157   8.787   2.052   6.901 -1.2437  0.7719 -1.7356
  791MOL0     H 9158   8.906   2.105   6.787  2.4011  0.1928  0.9924
  792MOL0     O 9159   3.623   6.083  10.891 -0.6656 -0.1754 -0.1111
  792MOL0     C 9160   3.679   5.975  10.901 -0.3564  0.2609 -0.6650
  792MOL0     O 9161   3.718   5.921  11.021 -0.0861 -0.1017  0.1179
  792MOL0     C 9162   3.731   6.000  11.130  0.4655 -1.0200 -0.2668
  792MOL0     C 9163   3.640   5.995  11.232 -0.3088  0.6242  0.8347
  792MOL0     C 9164   3.670   6.064  11.355  0.5167 -0.0132  0.2013
  792MOL0     C 9165   3.785   6.143  11.360 -0.2453  1.2034 -0.0121
  792MOL0     O 9166   3.835   6.192  11.472 -0.3233  0.1922 -0.7354
  792MOL0     C 9167   3.762   6.210  11.598  0.1279  0.5942 -0.2031
  792MOL0     C 9168   3.829   6.116  11.710 -0.2088 -0.1742  0.0951
  792MOL0     C 9169   3.958   6.181  11.767 -1.1143 -0.8841  0.5135
  792MOL0     C 9170   4.057   6.068  11.808 -0.0936 -0.3118  0.2203
  792MOL0     C 9171   4.173   6.132  11.888  0.7864 -0.6157  0.7214
  792MOL0     C 9172   4.257   6.028  11.961  0.1588 -0.5458  0.1763
  792MOL0     C 9173   4.389   6.086  12.016 -0.1806  0.9397  1.2208
  792MOL0     C 9174   4.511   6.084  11.925  0.3657 -0.1975  1.0482
  792MOL0     N 9175   4.640   6.132  11.978 -0.1307 -0.1896  0.5386
  792MOL0     C 9176   4.650   6.214  12.089 -1.1024  0.0032 -0.2808
  792MOL0     C 9177   4.789   6.215  12.115  0.6721  0.1098 -0.2567
  792MOL0     C 9178   4.856   6.282  12.231  0.5984  0.0424  0.7447
  792MOL0     C 9179   4.995   6.226  12.271  0.6525 -0.4839 -0.0113
  792MOL0     C 9180   4.982   6.077  12.310 -1.0404 -0.0477 -0.1581
  792MOL0     C 9181   5.106   6.014  12.382  0.1194 -0.1936  0.5440
  792MOL0     O 9182   5.137   6.104  12.491  0.5500  0.7790  0.1376
  792MOL0     C 9183   5.256   6.100  12.560  0.0283  0.9125  0.1427
  792MOL0     C 9184   5.350   5.987  12.548 -0.3257  0.2956 -0.0611
  792MOL0     C 9185   5.471   5.981  12.622  0.1900 -0.5378 -0.3108
  792MOL0     C 9186   5.564   5.874  12.585  0.4903 -0.2326 -0.0837
  792MOL0     C 9187   5.496   6.078  12.722  0.1534 -0.1635  0.4079
  792MOL0     C 9188   5.614   6.082  12.808 -1.0860  0.4304 -0.1739
  792MOL0     O 9189   5.637   6.198  12.876 -0.4238 -0.5107 -0.6857
  792MOL0     C 9190   5.744   6.200  12.965  0.3169  0.4173  0.4015
  792MOL0     C 9191   5.770   6.104  13.065 -0.8698  0.8689 -0.4930
  792MOL0     C 9192   5.879   6.117  13.149 -0.7972  0.3984  0.3133
  792MOL0     C 9193   5.959   6.230  13.153  0.6125  0.2094 -1.1901
  792MOL0     O 9194   6.072   6.235  13.229  0.2736 -0.6974 -0.2244
  792MOL0     C 9195   6.132   6.362  13.263  0.0928  0.2270  0.3994
  792MOL0     C 9196   6.251   6.331  13.342  0.0211 -1.2014  0.4778
  792MOL0     C 9197   6.205   6.263  13.479 -0.5698 -0.2754  0.9980
  792MOL0     C 9198   6.316   6.296  13.587  0.1687  0.4128  0.0449
  792MOL0     C 9199   6.294   6.190  13.700 -0.2165 -0.7483 -1.2064
  792MOL0     C 9200   6.358   6.053  13.666  0.4506 -0.8137 -0.1049
  792MOL0     C 9201   6.321   5.958  13.777  0.5197  0.0099 -0.5788
  792MOL0     C 9202   6.420   5.843  13.767 -0.5766 -0.3313 -0.4053
  792MOL0    Cl 9203   6.564   5.880  13.871  0.1196 -0.2244  0.1171
  792MOL0     C 9204   5.925   6.335  13.055 -1.1040 -0.2346 -0.9633
  792MOL0     C 9205   5.813   6.320  12.978  0.3283 -0.2998  0.4943
  792MOL0     O 9206   5.687   5.980  12.813  0.9956  0.1376  0.3552
  792MOL0     C 9207   5.409   6.191  12.725  0.7647 -0.6811 -0.1182
  792MOL0     C 9208   5.294   6.203  12.649 -0.9310  0.8154  0.2772
  792MOL0     N 9209   4.846   6.145  12.015  0.4662  0.0211  0.4887
  792MOL0     N 9210   4.760   6.086  11.937  0.1723  0.2228  0.7009
  792MOL0     C 9211   3.869   6.162  11.252  0.0916  0.0081 -0.2417
  792MOL0     C 9212   3.837   6.088  11.138 -0.0365 -0.4085 -0.0502
  792MOL0     C 9213   3.697   5.898  10.777  0.0190  0.5136  0.7170
  792MOL0     C 9214   3.623   5.939  10.664 -0.1642 -0.1524 -0.5244
  792MOL0     C 9215   3.630   5.865  10.544  0.6414 -0.2237 -0.3064
  792MOL0     C 9216   3.718   5.762  10.529  0.2553  0.6749 -0.5968
  792MOL0     O 9217   3.724   5.713  10.398  0.1643 -0.0916 -0.8657
  792MOL0     C 9218   3.812   5.611  10.358  0.4146  0.0635  0.3332
  792MOL0     C 9219   3.810   5.604  10.209  0.2225 -0.1855 -0.7279
  792MOL0     C 9220   3.876   5.728  10.156 -0.7047 -0.4099 -0.4823
  792MOL0     C 9221   3.858   5.733  10.002  0.3879  0.2928 -0.7380
  792MOL0     C 9222   3.936   5.621   9.942 -0.6212 -0.2317 -0.4928
  792MOL0     C 9223   3.997   5.524   9.892  0.5688  0.3968  0.2097
  792MOL0     C 9224   3.794   5.722  10.634 -0.6271 -0.6302 -0.2684
  792MOL0     C 9225   3.779   5.779  10.755 -0.1152  0.3466 -0.5728
  792MOL0     C 9226   3.860   5.719  10.870 -0.0306  0.1787  0.1643
  792MOL0     H 9227   3.565   5.918  11.217  1.9518 -1.4218 -0.8864
  792MOL0     H 9228   3.608   6.048  11.443 -2.0459  2.1107 -1.0738
  792MOL0     H 9229   3.656   6.182  11.597  0.4492 -0.7784  1.1455
  792MOL0     H 9230   3.780   6.309  11.639 -0.2225  0.1194  1.1641
  792MOL0     H 9231   3.752   6.121  11.788 -1.0439  1.0080 -0.7674
  792MOL0     H 9232   3.840   6.014  11.671 -0.1507  0.8525 -2.8552
  792MOL0     H 9233   4.007   6.251  11.698 -2.3560  0.1886  0.6599
  792MOL0     H 9234   3.930   6.238  11.856  2.0829  1.7902 -0.0104
  792MOL0     H 9235   4.013   5.992  11.872 -3.2010  1.7375  0.7325
  792MOL0     H 9236   4.088   5.999  11.729  0.8817 -0.4610  0.7115
  792MOL0     H 9237   4.146   6.213  11.957  0.7078  1.0532 -1.1714
  792MOL0     H 9238   4.248   6.176  11.822 -0.5742  0.4304 -0.1822
  792MOL0     H 9239   4.204   5.991  12.049 -0.4265 -2.1156 -0.7896
  792MOL0     H 9240   4.271   5.945  11.892 -0.6977  0.0063 -0.6877
  792MOL0     H 9241   4.411   6.038  12.112 -0.8162  1.3959  1.6059
  792MOL0     H 9242   4.384   6.188  12.057 -2.3192 -0.3122  4.5615
  792MOL0     H 9243   4.527   5.981  11.891 -2.9564 -0.7627  0.8745
  792MOL0     H 9244   4.496   6.133  11.829 -0.0300 -2.7225 -0.2550
  792MOL0     H 9245   4.577   6.276  12.140 -1.0155  0.4118 -0.6406
  792MOL0     H 9246   4.790   6.266  12.317  0.4236 -3.5654  0.0734
  792MOL0     H 9247   4.850   6.390  12.214 -0.6788  0.1064  1.5183
  792MOL0     H 9248   5.047   6.231  12.175  0.2761  1.5066 -0.1487
  792MOL0     H 9249   5.051   6.287  12.343  1.1162  0.2646 -0.9845
  792MOL0     H 9250   4.897   6.060  12.376  0.0768  0.7422  1.5589
  792MOL0     H 9251   4.959   6.022  12.218 -2.2165  0.7256 -0.3397
  792MOL0     H 9252   5.088   5.912  12.418  0.8675 -0.7372 -0.5503
  792MOL0     H 9253   5.189   6.019  12.311  0.5513  0.5367  1.0845
  792MOL0     H 9254   5.336   5.915  12.467  1.0451 -0.1242  0.0408
  792MOL0     H 9255   5.653   5.910  12.532 -0.2566  1.7212 -0.1250
  792MOL0     H 9256   5.525   5.801  12.514  1.0348  1.0422 -1.7717
  792MOL0     H 9257   5.581   5.809  12.671 -1.4763  1.5266  1.7692
  792MOL0     H 9258   5.702   6.020  13.073  2.4297 -1.8452  2.1521
  792MOL0     H 9259   5.901   6.031  13.212 -0.3880 -0.0458 -0.4254
  792MOL0     H 9260   6.162   6.411  13.171  0.3191 -2.9711 -1.3867
  792MOL0     H 9261   6.058   6.427  13.312  0.1211  2.1756 -1.9854
  792MOL0     H 9262   6.330   6.279  13.287  1.1201 -0.8752  1.6955
  792MOL0     H 9263   6.291   6.429  13.369  0.3622 -1.0338 -0.5827
  792MOL0     H 9264   6.186   6.156  13.478  2.1050 -0.8195  0.2824
  792MOL0     H 9265   6.109   6.313  13.494 -1.0997 -0.3705 -1.5732
  792MOL0     H 9266   6.303   6.396  13.629  3.1651 -0.1968  2.8742
  792MOL0     H 9267   6.420   6.292  13.554 -0.3737 -0.8931 -1.6544
  792MOL0     H 9268   6.349   6.220  13.790  3.3494 -0.6179 -3.2119
  792MOL0     H 9269   6.186   6.185  13.716 -0.5142  0.3255 -2.6175
  792MOL0     H 9270   6.466   6.069  13.665  0.0466  2.6722 -0.9253
  792MOL0     H 9271   6.332   6.023  13.564  0.5553  2.0265 -1.0661
  792MOL0     H 9272   6.224   5.913  13.756  1.1284 -0.8332 -1.7240
  792MOL0     H 9273   6.325   6.003  13.876 -1.1399 -0.6249 -0.1952
  792MOL0     H 9274   6.462   5.838  13.666  0.3382 -0.0238 -0.0507
  792MOL0     H 9275   6.378   5.747  13.795 -2.1923  0.4273 -0.1158
  792MOL0     H 9276   5.992   6.419  13.041 -0.4911 -0.0565  2.4083
  792MOL0     H 9277   5.794   6.401  12.908 -1.3229 -1.7964 -0.8859
  792MOL0     H 9278   5.442   6.274  12.786  2.4953 -1.8510  0.6239
  792MOL0     H 9279   5.242   6.295  12.669  0.4194  1.6556  0.0386
  792MOL0     H 9280   3.957   6.224  11.253 -2.5304  4.2153 -2.5921
  792MOL0     H 9281   3.902   6.110  11.054  1.4207 -0.3541  1.0554
  792MOL0     H 9282   3.572   6.035  10.654  1.3885  0.6936 -0.7829
  792MOL0     H 9283   3.572   5.897  10.458  1.3390 -0.4268 -0.8662
  792MOL0     H 9284   3.916   5.631  10.386  0.7358  0.2365 -0.9560
  792MOL0     H 9285   3.782   5.511  10.394 -0.4589 -0.1729 -0.9899
  792MOL0     H 9286   3.707   5.590  10.175  0.3016  0.9592 -1.4824
  792MOL0     H 9287   3.873   5.519  10.180 -0.1778 -0.7218 -0.0506
  792MOL0     H 9288   3.841   5.820  10.205  0.8791 -0.6993  1.3431
  792MOL0     H 9289   3.984   5.727  10.174 -0.8924 -2.8559  0.9348
  792MOL0     H 9290   3.909   5.821   9.961 -0.3050  0.9066 -0.2998
  792MOL0     H 9291   3.755   5.737   9.967 -0.4905 -2.4565  1.1842
  792MOL0     H 9292   4.034   5.435   9.845  2.4883  0.6231  1.1714
  792MOL0     H 9293   3.864   5.641  10.620 -0.0648 -0.7674  2.5942
  792MOL0     H 9294   3.910   5.795  10.930  1.6025 -1.8072  1.4777
  792MOL0     H 9295   3.795   5.665  10.940 -1.9029  1.6648 -0.3427
  792MOL0     H 9296   3.936   5.652  10.828 -0.0856  1.0880 -1.4554
  793MOL0     O 9297  10.918   0.235   1.456 -0.4713  0.0554  0.1650
  793MOL0     C 9298  10.826   0.315   1.454 -1.2919  0.4293 -0.2926
  793MOL0     O 9299  10.711   0.302   1.387 -0.3510  0.0507 -0.2379
  793MOL0     C 9300  10.661   0.175   1.365  1.1329 -0.3079  0.1305
  793MOL0     C 9301  10.664   0.121   1.235 -1.1609 -0.0867  0.1991
  793MOL0     C 9302  10.591   0.003   1.202 -0.3612 -0.3538 -0.4747
  793MOL0     C 9303  10.533  -0.067   1.313  1.0384 -0.1503  0.9233
  793MOL0     O 9304  10.466  -0.191   1.298  0.3901  0.1242  0.5203
  793MOL0     C 9305  10.382  -0.204   1.170 -0.8878 -0.4396 -0.1045
  793MOL0     C 9306  10.270  -0.317   1.183 -0.2452  0.7089  0.9730
  793MOL0     C 9307  10.320  -0.463   1.201  0.1404 -0.2482  0.1479
  793MOL0     C 9308  10.203  -0.567   1.185  0.2897  0.0972  0.7092
  793MOL0     C 9309  10.250  -0.711   1.230  1.0308 -1.3287 -0.7016
  793MOL0     C 9310  10.293  -0.802   1.117 -0.4988 -0.2016 -0.0776
  793MOL0     C 9311  10.335  -0.936   1.157 -0.4212  0.6460  0.5845
  793MOL0     C 9312  10.467  -0.930   1.243  0.1531  0.6122 -0.0840
  793MOL0     N 9313  10.531  -1.058   1.246 -0.6523  0.1619  0.0442
  793MOL0     C 9314  10.668  -1.076   1.254  0.3058 -0.5111 -0.5179
  793MOL0     C 9315  10.683  -1.207   1.268  0.2406  0.2221 -0.1517
  793MOL0     C 9316  10.823  -1.268   1.293  0.2402 -0.4914 -0.3860
  793MOL0     C 9317  10.890  -1.190   1.400  0.1196  0.3825 -0.7697
  793MOL0     C 9318  11.008  -1.273   1.460 -0.6069  0.0916  0.7524
  793MOL0     C 9319  11.108  -1.183   1.540 -0.1771 -0.2524 -0.5425
  793MOL0     O 9320  11.170  -1.089   1.458 -0.0295 -0.7131  0.0942
  793MOL0     C 9321  11.258  -1.001   1.512  0.6400  0.5584  0.1766
  793MOL0     C 9322  11.293  -0.985   1.646 -0.5369  1.1349 -0.7032
  793MOL0     C 9323  11.383  -0.885   1.693 -0.8631  0.2272  0.5859
  793MOL0     C 9324  11.425  -0.875   1.833  0.1662 -1.6075 -1.1431
  793MOL0     C 9325  11.442  -0.794   1.596  0.4230  0.4494 -0.1174
  793MOL0     C 9326  11.544  -0.691   1.628  0.3405 -0.8558  0.3564
  793MOL0     O 9327  11.556  -0.589   1.534 -0.0239 -1.1747  0.4553
  793MOL0     C 9328  11.654  -0.490   1.534 -0.3494 -0.4876 -0.7522
  793MOL0     C 9329  11.708  -0.432   1.421 -0.1186 -0.5546 -0.2091
  793MOL0     C 9330  11.811  -0.334   1.419  1.1473 -0.0436 -0.1759
  793MOL0     C 9331  11.855  -0.297   1.544 -0.3319  0.7239 -0.3637
  793MOL0     O 9332  11.959  -0.205   1.553  0.4473 -0.0330  0.4284
  793MOL0     C 9333  11.957  -0.107   1.656 -0.5116  0.2054 -0.5898
  793MOL0     C 9334  12.073  -0.006   1.630  0.0245 -0.2172  0.6663
  793MOL0     C 9335  12.074   0.110   1.729 -0.1957  0.2068  0.0001
  793MOL0     C 9336  12.195   0.197   1.698 -0.5434 -0.5046 -0.2840
  793MOL0     C 9337  12.182   0.344   1.741  0.3994 -0.4975  0.9087
  793MOL0     C 9338  12.180   0.354   1.891  0.4868 -0.7226 -0.3357
  793MOL0     C 9339  12.148   0.488   1.956 -0.1837 -0.6054 -1.4163
  793MOL0     C 9340  12.262   0.590   1.938  0.3845 -0.3160  0.2520
  793MOL0    Cl 9341  12.236   0.743   2.006  0.1157 -0.2227  0.1337
  793MOL0     C 9342  11.791  -0.340   1.665 -0.3110 -0.5175  1.2782
  793MOL0     C 9343  11.689  -0.432   1.661  0.3284  0.8290  0.8269
  793MOL0     O 9344  11.626  -0.718   1.715 -0.9246  0.3908 -0.6016
  793MOL0     C 9345  11.405  -0.810   1.463 -0.0958  0.0089  0.8343
  793MOL0     C 9346  11.312  -0.910   1.419 -0.7586  0.4280 -0.7083
  793MOL0     N 9347  10.554  -1.264   1.278  0.5846 -0.2832 -0.8283
  793MOL0     N 9348  10.466  -1.175   1.259 -0.6355  0.5226 -0.3053
  793MOL0     C 9349  10.533  -0.017   1.444 -0.0621 -0.3997 -0.1753
  793MOL0     C 9350  10.597   0.106   1.467 -0.1169  0.2425 -0.6334
  793MOL0     C 9351  10.841   0.428   1.549  0.2702 -0.2911  0.6051
  793MOL0     C 9352  10.775   0.546   1.514 -0.1917  0.5918 -0.0430
  793MOL0     C 9353  10.784   0.658   1.589 -0.2072  0.4910 -0.4370
  793MOL0     C 9354  10.855   0.662   1.715  0.7862 -0.1631 -0.4592
  793MOL0     O 9355  10.861   0.760   1.813  0.1157  0.3931  0.5773
  793MOL0     C 9356  10.768   0.866   1.795 -0.3710  0.0599 -0.1841
  793MOL0     C 9357  10.716   0.907   1.929  0.0359  0.3524 -0.5979
  793MOL0     C 9358  10.629   0.798   1.995  0.9292 -0.4163 -0.8910
  793MOL0     C 9359  10.477   0.802   1.959  0.3917 -0.3192  0.1978
  793MOL0     C 9360  10.407   0.739   2.067  0.9929  0.9833  0.3992
  793MOL0     C 9361  10.336   0.668   2.133 -0.6327 -0.5913  0.8966
  793MOL0     C 9362  10.923   0.542   1.745  1.4284  0.5829  0.9064
  793MOL0     C 9363  10.919   0.422   1.671 -0.7445 -0.9079  0.0695
  793MOL0     C 9364  10.990   0.303   1.721 -1.0834  0.1261  0.0486
  793MOL0     H 9365  10.725   0.178   1.165  0.2614  0.5714  1.8826
  793MOL0     H 9366  10.588  -0.033   1.100  1.9403 -0.4404 -0.5744
  793MOL0     H 9367  10.441  -0.227   1.081 -1.2608 -3.2248  0.2689
  793MOL0     H 9368  10.334  -0.109   1.145  0.0223 -0.7159 -3.4018
  793MOL0     H 9369  10.202  -0.296   1.266 -2.8352  2.2267 -1.3440
  793MOL0     H 9370  10.197  -0.313   1.101  0.9133 -1.3495 -0.2655
  793MOL0     H 9371  10.397  -0.487   1.126  0.9743  3.0802 -0.2198
  793MOL0     H 9372  10.357  -0.480   1.302 -0.6768 -1.5469  0.2492
  793MOL0     H 9373  10.123  -0.529   1.248  0.5681  0.2025  0.9998
  793MOL0     H 9374  10.166  -0.577   1.082  0.1085 -0.0171  0.7852
  793MOL0     H 9375  10.165  -0.766   1.270  0.9523  0.5388  1.9755
  793MOL0     H 9376  10.314  -0.697   1.318 -0.6592  3.2570  0.0582
  793MOL0     H 9377  10.208  -0.804   1.047  0.2912 -1.2401 -1.0496
  793MOL0     H 9378  10.373  -0.747   1.066 -1.2525  1.7263  0.7136
  793MOL0     H 9379  10.344  -1.010   1.077  0.0201  1.0539  0.2524
  793MOL0     H 9380  10.255  -0.974   1.222  0.2719 -1.9135  0.0817
  793MOL0     H 9381  10.532  -0.861   1.189 -0.4163 -0.5758 -2.4235
  793MOL0     H 9382  10.445  -0.902   1.346 -3.3110 -1.9545  0.0814
  793MOL0     H 9383  10.743  -0.999   1.241  1.2643 -1.0473  1.4627
  793MOL0     H 9384  10.885  -1.263   1.203  0.6468 -1.0565 -0.1477
  793MOL0     H 9385  10.809  -1.373   1.322  1.1707 -0.4750  0.1787
  793MOL0     H 9386  10.927  -1.096   1.359  2.0732  0.7382  1.5544
  793MOL0     H 9387  10.828  -1.167   1.487 -0.7829 -0.8651 -1.0491
  793MOL0     H 9388  10.966  -1.345   1.531  0.5446  1.9208  3.4491
  793MOL0     H 9389  11.072  -1.313   1.380 -1.7931 -2.1918  0.8574
  793MOL0     H 9390  11.050  -1.129   1.615 -1.8147  0.2416 -2.0974
  793MOL0     H 9391  11.190  -1.240   1.585  0.2822  0.3560 -0.5868
  793MOL0     H 9392  11.245  -1.050   1.718  0.4203  0.1972 -0.8803
  793MOL0     H 9393  11.506  -0.947   1.850  1.8068 -0.0456 -2.0201
  793MOL0     H 9394  11.345  -0.905   1.902  1.3474 -2.2440 -0.0079
  793MOL0     H 9395  11.450  -0.774   1.867 -1.0431 -2.6600  3.6432
  793MOL0     H 9396  11.652  -0.469   1.335 -4.8359 -1.2797  2.7813
  793MOL0     H 9397  11.833  -0.271   1.333 -1.5844  0.6091 -0.5001
  793MOL0     H 9398  11.858  -0.060   1.652 -0.9950 -0.6808  0.3772
  793MOL0     H 9399  11.979  -0.140   1.758 -0.0681  3.1536  0.3587
  793MOL0     H 9400  12.171  -0.055   1.622  0.4643  0.8504 -1.4394
  793MOL0     H 9401  12.070   0.031   1.527  5.1511 -1.9646 -0.4266
  793MOL0     H 9402  12.076   0.064   1.828  4.4266 -1.4184 -0.6366
  793MOL0     H 9403  11.985   0.166   1.697  0.9619 -0.0549 -4.3233
  793MOL0     H 9404  12.216   0.187   1.591  0.7017  2.2438 -0.3819
  793MOL0     H 9405  12.287   0.154   1.739  0.1264  0.8030 -0.3588
  793MOL0     H 9406  12.269   0.395   1.701 -0.0726  1.3784  2.1440
  793MOL0     H 9407  12.091   0.396   1.708  0.8735  0.6767  1.4037
  793MOL0     H 9408  12.277   0.320   1.929 -0.1789 -2.5640 -0.1800
  793MOL0     H 9409  12.101   0.284   1.918 -1.8751  2.5280  1.9989
  793MOL0     H 9410  12.143   0.475   2.065 -1.0123  1.3629 -1.1727
  793MOL0     H 9411  12.059   0.536   1.914 -1.8654  0.7770  3.0797
  793MOL0     H 9412  12.292   0.607   1.834 -0.2504  3.8605  0.5891
  793MOL0     H 9413  12.343   0.533   1.985 -0.4652 -1.4338  0.4043
  793MOL0     H 9414  11.829  -0.297   1.757  0.6326  1.6526 -0.0421
  793MOL0     H 9415  11.638  -0.468   1.750 -1.1239 -0.4725 -0.4705
  793MOL0     H 9416  11.431  -0.755   1.373 -0.1656  0.0745  0.8538
  793MOL0     H 9417  11.279  -0.918   1.316 -2.5693 -2.0064 -0.0280
  793MOL0     H 9418  10.482  -0.060   1.530 -0.1389 -0.9841 -0.5087
  793MOL0     H 9419  10.592   0.149   1.567 -0.1718 -0.3147 -0.3962
  793MOL0     H 9420  10.729   0.552   1.416 -0.2819  5.6199  0.0026
  793MOL0     H 9421  10.728   0.739   1.544 -1.4136  0.1723  0.4399
  793MOL0     H 9422  10.827   0.952   1.761  0.4798 -1.0633 -1.6863
  793MOL0     H 9423  10.687   0.845   1.725 -1.0506 -1.9212  1.1345
  793MOL0     H 9424  10.656   0.998   1.917 -1.0787 -0.6251 -3.0402
  793MOL0     H 9425  10.797   0.928   2.000  0.9764  1.5311 -1.9727
  793MOL0     H 9426  10.670   0.697   1.986  1.0627 -0.6372  1.5633
  793MOL0     H 9427  10.624   0.809   2.104 -1.4285 -2.4950 -0.6895
  793MOL0     H 9428  10.439   0.764   1.864 -1.6114 -1.1395  1.2639
  793MOL0     H 9429  10.457   0.909   1.969 -1.7228 -0.8124  2.0231
  793MOL0     H 9430  10.269   0.602   2.185 -0.5139 -2.3342 -1.0304
  793MOL0     H 9431  10.992   0.542   1.829 -0.4015 -1.4732  2.5428
  793MOL0     H 9432  10.926   0.217   1.740  0.8871 -1.0086  2.0419
  793MOL0     H 9433  11.075   0.273   1.660 -0.7100 -1.5734  1.3308
  793MOL0     H 9434  11.042   0.337   1.811 -1.3641 -0.6243  0.4980
  794MOL0     O 9435   2.985   2.500   7.250 -0.7956 -0.8474  0.6753
  794MOL0     C 9436   2.896   2.448   7.322 -0.6050 -0.0799 -0.2545
  794MOL0     O 9437   2.916   2.364   7.428  0.2059  0.1121 -0.1403
  794MOL0     C 9438   3.053   2.354   7.463 -0.2929  0.1965 -0.3758
  794MOL0     C 9439   3.100   2.432   7.571 -1.2539 -0.4975 -1.2091
  794MOL0     C 9440   3.236   2.421   7.615  0.3910  0.8743  0.4226
  794MOL0     C 9441   3.325   2.338   7.548  0.0689  0.6037 -0.2781
  794MOL0     O 9442   3.462   2.325   7.574  1.2865  0.1513  0.1480
  794MOL0     C 9443   3.530   2.427   7.646 -0.4474 -0.5358 -0.3164
  794MOL0     C 9444   3.686   2.420   7.651  0.5874  0.1009 -0.4070
  794MOL0     C 9445   3.714   2.309   7.763 -0.5337  0.1432  0.1009
  794MOL0     C 9446   3.863   2.318   7.802  0.8849  0.1777  0.1407
  794MOL0     C 9447   3.959   2.262   7.693 -0.1413 -0.0469  0.1278
  794MOL0     C 9448   4.101   2.288   7.739 -0.3274 -0.0354 -0.5750
  794MOL0     C 9449   4.192   2.227   7.638 -1.1885  0.0969  0.1178
  794MOL0     C 9450   4.331   2.194   7.689 -0.5462 -0.3047 -0.3135
  794MOL0     N 9451   4.408   2.174   7.567 -0.4856  0.1830  0.0824
  794MOL0     C 9452   4.434   2.052   7.519  0.3782 -1.0367 -0.0997
  794MOL0     C 9453   4.527   2.065   7.423 -0.0485 -0.1848  0.5382
  794MOL0     C 9454   4.603   1.953   7.339 -0.1413 -0.7323 -0.7880
  794MOL0     C 9455   4.515   1.909   7.225 -1.1735  0.4710  0.3914
  794MOL0     C 9456   4.581   1.790   7.142  0.8589  0.0577  0.5996
  794MOL0     C 9457   4.479   1.682   7.099  0.1860 -0.6652 -0.2099
  794MOL0     O 9458   4.386   1.636   7.201 -0.2541  0.0897  0.2046
  794MOL0     C 9459   4.421   1.519   7.268 -0.5579 -0.5966  0.6209
  794MOL0     C 9460   4.318   1.430   7.293  0.7329  0.4509  0.7207
  794MOL0     C 9461   4.341   1.307   7.358  0.0626  0.3786  0.1368
  794MOL0     C 9462   4.224   1.214   7.380  0.7193 -0.5620 -0.5898
  794MOL0     C 9463   4.476   1.269   7.384 -0.0795 -0.4336 -0.3368
  794MOL0     C 9464   4.509   1.140   7.442  0.7641 -0.5745  0.9979
  794MOL0     O 9465   4.599   1.079   7.362 -0.0679  0.1244  0.2783
  794MOL0     C 9466   4.574   0.945   7.338 -0.2879  0.0650 -0.4082
  794MOL0     C 9467   4.682   0.858   7.349  0.6928  0.7987 -0.2531
  794MOL0     C 9468   4.659   0.717   7.326  0.5172 -0.7235  0.1983
  794MOL0     C 9469   4.535   0.662   7.277  1.1155  0.5068  0.4789
  794MOL0     O 9470   4.529   0.526   7.272 -0.5175 -0.3769 -0.0864
  794MOL0     C 9471   4.403   0.459   7.261  0.2020 -0.7637 -0.4171
  794MOL0     C 9472   4.428   0.314   7.240 -0.3641  0.1209 -0.7574
  794MOL0     C 9473   4.299   0.228   7.289  0.3567 -0.3636 -0.3445
  794MOL0     C 9474   4.338   0.083   7.304 -0.1607  0.2879 -0.4825
  794MOL0     C 9475   4.438   0.061   7.425 -0.2478 -0.4526 -0.6423
  794MOL0     C 9476   4.462  -0.083   7.470 -0.4745 -0.2846  0.1557
  794MOL0     C 9477   4.343  -0.175   7.502 -0.5691  0.5328 -0.9874
  794MOL0     C 9478   4.387  -0.306   7.569  0.0789 -0.2054  0.3912
  794MOL0    Cl 9479   4.456  -0.427   7.456 -0.2885 -0.2167 -0.1216
  794MOL0     C 9480   4.433   0.754   7.246 -0.8816 -0.5773  0.5573
  794MOL0     C 9481   4.461   0.898   7.268  0.9017 -0.3740 -0.4940
  794MOL0     O 9482   4.443   1.089   7.538 -0.5722  0.0369 -0.0620
  794MOL0     C 9483   4.579   1.351   7.350  0.3424 -0.3659  0.0231
  794MOL0     C 9484   4.550   1.479   7.285 -0.3857 -0.1561  0.0218
  794MOL0     N 9485   4.561   2.199   7.417  0.3265  0.6494 -0.9192
  794MOL0     N 9486   4.496   2.265   7.511  0.2437 -0.3381 -0.6397
  794MOL0     C 9487   3.276   2.253   7.447 -0.5312 -0.3637 -0.0580
  794MOL0     C 9488   3.139   2.256   7.399  0.1268  0.7384 -0.9201
  794MOL0     C 9489   2.758   2.477   7.288  0.0252  0.0597  0.7652
  794MOL0     C 9490   2.679   2.369   7.276  0.5756 -0.1872 -0.1358
  794MOL0     C 9491   2.542   2.385   7.237 -0.3451  0.5028  0.1634
  794MOL0     C 9492   2.489   2.504   7.191  0.4628  1.4543  1.4118
  794MOL0     O 9493   2.361   2.523   7.159 -0.0439  0.3202 -0.6681
  794MOL0     C 9494   2.260   2.418   7.191 -0.1019  0.6210  0.9894
  794MOL0     C 9495   2.233   2.391   7.342  0.5075  0.6999 -0.1240
  794MOL0     C 9496   2.227   2.519   7.427  0.2391 -1.2771 -0.6338
  794MOL0     C 9497   2.290   2.510   7.567  0.6534 -0.5300  0.9438
  794MOL0     C 9498   2.240   2.386   7.635  0.4913 -0.4558 -0.2490
  794MOL0     C 9499   2.217   2.288   7.704  0.3012 -0.0080 -0.7829
  794MOL0     C 9500   2.570   2.609   7.191 -0.0514 -0.6315 -0.3803
  794MOL0     C 9501   2.703   2.601   7.236 -0.8238  0.4775 -0.4148
  794MOL0     C 9502   2.785   2.730   7.251 -0.4079 -0.1384 -0.1651
  794MOL0     H 9503   3.036   2.503   7.623  0.7370 -0.7040  1.7732
  794MOL0     H 9504   3.276   2.484   7.694  0.5258  1.0610  0.2073
  794MOL0     H 9505   3.491   2.428   7.748  1.6834 -2.0094  0.5941
  794MOL0     H 9506   3.521   2.524   7.596  2.5771  0.6619  1.1955
  794MOL0     H 9507   3.731   2.415   7.551  1.6796  1.0154  0.0147
  794MOL0     H 9508   3.720   2.518   7.685  1.7003  0.4668 -2.4137
  794MOL0     H 9509   3.656   2.322   7.854 -2.3582  0.2173 -1.0189
  794MOL0     H 9510   3.700   2.206   7.727  4.1450 -0.6543 -0.1611
  794MOL0     H 9511   3.884   2.423   7.823 -0.5701  0.8744 -1.5977
  794MOL0     H 9512   3.881   2.265   7.896  1.0054  0.5991  0.3569
  794MOL0     H 9513   3.939   2.320   7.603 -2.0721  1.0978  1.2296
  794MOL0     H 9514   3.939   2.156   7.677 -0.0720 -0.2261  1.1582
  794MOL0     H 9515   4.119   2.395   7.757  1.9545 -0.6619  1.4386
  794MOL0     H 9516   4.127   2.244   7.836 -0.5103 -1.5489 -1.1840
  794MOL0     H 9517   4.206   2.295   7.553  0.5343  0.5575  0.7088
  794MOL0     H 9518   4.162   2.132   7.593 -2.2857  0.2903  0.4171
  794MOL0     H 9519   4.373   2.275   7.748 -4.5397  3.2155 -1.7834
  794MOL0     H 9520   4.333   2.107   7.755  1.9188 -0.2929 -0.2996
  794MOL0     H 9521   4.405   1.954   7.556 -0.3326 -0.2361  1.5780
  794MOL0     H 9522   4.636   1.874   7.408 -0.5379 -0.3876 -0.1929
  794MOL0     H 9523   4.695   1.992   7.293 -0.2156 -1.9655 -2.0666
  794MOL0     H 9524   4.420   1.882   7.272 -1.5072 -1.6095 -1.3330
  794MOL0     H 9525   4.497   1.994   7.158  0.4183  0.3143 -0.2762
  794MOL0     H 9526   4.625   1.838   7.054 -0.7531  0.2318 -0.1355
  794MOL0     H 9527   4.657   1.747   7.208  1.1310 -1.3368 -0.5475
  794MOL0     H 9528   4.423   1.749   7.034  1.8555 -0.2475 -1.2797
  794MOL0     H 9529   4.508   1.601   7.030 -1.6670 -0.1889 -1.6233
  794MOL0     H 9530   4.214   1.456   7.284 -0.5733 -2.5171  4.3975
  794MOL0     H 9531   4.213   1.213   7.489  1.2761  0.4606 -0.5096
  794MOL0     H 9532   4.254   1.115   7.343  0.4071 -1.8319  2.3145
  794MOL0     H 9533   4.136   1.248   7.325  2.8991  3.7447 -1.8802
  794MOL0     H 9534   4.775   0.910   7.369  1.1062  1.2008 -2.8700
  794MOL0     H 9535   4.744   0.656   7.356 -0.8249 -2.3127  0.9609
  794MOL0     H 9536   4.351   0.488   7.352 -0.4140  2.1278 -1.5709
  794MOL0     H 9537   4.347   0.510   7.182  1.6367  1.1171 -0.2795
  794MOL0     H 9538   4.444   0.288   7.135 -2.1099 -0.8814 -0.8151
  794MOL0     H 9539   4.526   0.295   7.285  0.3336  1.4766 -1.6749
  794MOL0     H 9540   4.225   0.239   7.209  1.2224  0.9784 -1.0190
  794MOL0     H 9541   4.255   0.272   7.378 -3.1041  1.3983 -2.7111
  794MOL0     H 9542   4.371   0.038   7.210  1.0865  1.9956 -0.9054
  794MOL0     H 9543   4.245   0.028   7.325  0.3032 -0.1081  0.5919
  794MOL0     H 9544   4.530   0.108   7.390 -0.7013  1.6861  0.7969
  794MOL0     H 9545   4.404   0.124   7.508  5.7619  0.8638  1.2594
  794MOL0     H 9546   4.510  -0.076   7.567 -0.5437  1.6757  0.0880
  794MOL0     H 9547   4.523  -0.132   7.393 -0.1845 -1.0935  0.8947
  794MOL0     H 9548   4.281  -0.208   7.418 -0.9531 -1.1279 -0.0969
  794MOL0     H 9549   4.271  -0.116   7.560 -0.7354  0.4677 -1.1263
  794MOL0     H 9550   4.293  -0.344   7.611  1.5607 -2.5464  1.8257
  794MOL0     H 9551   4.442  -0.289   7.662  2.4058 -0.8174 -0.8084
  794MOL0     H 9552   4.333   0.725   7.214 -0.9066 -1.1475  1.1444
  794MOL0     H 9553   4.384   0.966   7.236  0.6242  0.5623  1.9396
  794MOL0     H 9554   4.681   1.326   7.375  1.4558  2.6768 -1.0822
  794MOL0     H 9555   4.639   1.532   7.254 -0.2795  0.0986  0.7428
  794MOL0     H 9556   3.348   2.185   7.403 -0.7234 -1.3056  1.0506
  794MOL0     H 9557   3.098   2.209   7.310  1.5702  5.4031 -4.4693
  794MOL0     H 9558   2.710   2.267   7.298  1.4542 -0.1174 -0.9601
  794MOL0     H 9559   2.486   2.293   7.239 -1.7739  1.3145 -1.0420
  794MOL0     H 9560   2.161   2.436   7.147 -0.3717  3.0700  2.3997
  794MOL0     H 9561   2.286   2.322   7.145 -0.3606  1.1829 -0.3785
  794MOL0     H 9562   2.317   2.332   7.380 -1.5714 -0.5451  2.8755
  794MOL0     H 9563   2.141   2.333   7.349 -0.0594  1.6711  0.6093
  794MOL0     H 9564   2.280   2.593   7.366 -1.6085 -0.7999 -1.7328
  794MOL0     H 9565   2.127   2.560   7.438  0.7882  0.0764 -0.5207
  794MOL0     H 9566   2.266   2.603   7.620  2.2358  0.2539  0.3643
  794MOL0     H 9567   2.398   2.493   7.558  0.3173 -3.4938  1.5925
  794MOL0     H 9568   2.197   2.197   7.758  2.4074 -0.8447 -1.3005
  794MOL0     H 9569   2.522   2.703   7.166  0.1214 -0.2943  0.5285
  794MOL0     H 9570   2.840   2.729   7.345 -1.6679 -0.6065  0.5898
  794MOL0     H 9571   2.851   2.739   7.164  0.8295 -0.5289  0.6900
  794MOL0     H 9572   2.721   2.818   7.245 -0.3259 -0.1394 -1.1732
  795MOL0     O 9573   5.504   2.565   0.251 -0.3043  0.1567 -0.0218
  795MOL0     C 9574   5.520   2.508   0.358 -0.5420 -0.0632 -1.4237
  795MOL0     O 9575   5.646   2.488   0.419  0.5643 -0.6887  0.3919
  795MOL0     C 9576   5.766   2.523   0.355  0.1630  0.1737 -0.6069
  795MOL0     C 9577   5.783   2.506   0.214  0.0636  0.8270  0.1108
  795MOL0     C 9578   5.897   2.547   0.150 -1.0158 -0.1450  0.4575
  795MOL0     C 9579   5.999   2.593   0.223 -0.8571  0.2046 -0.1600
  795MOL0     O 9580   6.107   2.646   0.164  0.4641  0.1790  0.4345
  795MOL0     C 9581   6.224   2.692   0.229  0.8874 -0.6570 -0.0562
  795MOL0     C 9582   6.315   2.750   0.119  1.0137  0.6154 -0.0269
  795MOL0     C 9583   6.433   2.824   0.159  0.5434 -0.7900  0.2499
  795MOL0     C 9584   6.516   2.837   0.032  0.7240  0.1147  0.1871
  795MOL0     C 9585   6.659   2.885   0.065  0.4397  0.6413  0.7212
  795MOL0     C 9586   6.761   2.867  -0.051  0.1758 -0.1980 -0.5800
  795MOL0     C 9587   6.898   2.939  -0.007 -0.3501 -1.2205 -0.1662
  795MOL0     C 9588   6.996   2.927  -0.120 -0.3968  0.2022 -0.4580
  795MOL0     N 9589   7.046   2.791  -0.134  0.0831 -0.5426  0.1157
  795MOL0     C 9590   7.151   2.745  -0.049 -0.2219  0.3031  0.8618
  795MOL0     C 9591   7.170   2.623  -0.101 -0.4185 -0.7104 -0.1456
  795MOL0     C 9592   7.272   2.517  -0.066  0.1903  0.0987  0.5932
  795MOL0     C 9593   7.400   2.513  -0.157 -0.2221  0.0023  0.0236
  795MOL0     C 9594   7.521   2.473  -0.080 -0.1846  0.7182  0.0285
  795MOL0     C 9595   7.635   2.457  -0.187 -0.7662  0.4014  0.4156
  795MOL0     O 9596   7.741   2.376  -0.124 -0.4875  0.0451 -0.7986
  795MOL0     C 9597   7.814   2.428  -0.019  0.0306  0.0736  0.2662
  795MOL0     C 9598   7.792   2.559   0.041 -0.5445  0.6807  0.5360
  795MOL0     C 9599   7.853   2.591   0.160 -0.2360 -0.8327  0.9686
  795MOL0     C 9600   7.803   2.714   0.226  0.0072 -1.0578  0.0915
  795MOL0     C 9601   7.943   2.499   0.223 -0.3917  0.1378  0.1969
  795MOL0     C 9602   8.028   2.531   0.345  1.0079 -0.0047  0.1405
  795MOL0     O 9603   8.060   2.412   0.413  0.1635  0.1613 -0.1340
  795MOL0     C 9604   8.148   2.405   0.518 -0.6399 -0.3180  0.5335
  795MOL0     C 9605   8.223   2.502   0.583 -0.3009 -1.1513 -0.1607
  795MOL0     C 9606   8.328   2.478   0.671 -1.0712  0.4809 -0.1599
  795MOL0     C 9607   8.365   2.342   0.702  0.0416 -0.4129  0.7029
  795MOL0     O 9608   8.475   2.302   0.775  0.6220 -1.0037  0.2382
  795MOL0     C 9609   8.576   2.393   0.818 -0.1877 -0.4103 -0.9062
  795MOL0     C 9610   8.675   2.313   0.894 -0.1705  0.4039  0.1611
  795MOL0     C 9611   8.803   2.391   0.924 -0.0272 -0.6628 -0.4547
  795MOL0     C 9612   8.900   2.303   1.014 -0.3717  0.2095  0.6937
  795MOL0     C 9613   8.956   2.181   0.937  0.3913  0.3548  0.2048
  795MOL0     C 9614   9.087   2.129   0.989 -0.0671 -0.1821 -0.1343
  795MOL0     C 9615   9.149   2.014   0.903  0.4300  0.7533 -0.4906
  795MOL0     C 9616   9.261   1.943   0.982  0.1974 -0.0660  0.4036
  795MOL0    Cl 9617   9.393   2.057   0.989  0.5861 -0.0519 -0.6271
  795MOL0     C 9618   8.285   2.249   0.644  0.1057  0.6540 -0.0650
  795MOL0     C 9619   8.180   2.273   0.558  0.0397  0.1224 -0.4181
  795MOL0     O 9620   8.081   2.642   0.364 -0.0010  0.1596  0.5425
  795MOL0     C 9621   7.962   2.374   0.157  0.3023  0.0210  0.0742
  795MOL0     C 9622   7.909   2.343   0.040 -0.0849 -0.4462  0.3938
  795MOL0     N 9623   7.072   2.595  -0.203  0.3070 -0.5028  0.3782
  795MOL0     N 9624   6.994   2.698  -0.214 -0.3513  0.6016 -0.3396
  795MOL0     C 9625   5.983   2.600   0.372 -0.0956  0.4888  0.5989
  795MOL0     C 9626   5.870   2.561   0.437  0.3522  0.7801  0.4963
  795MOL0     C 9627   5.406   2.466   0.437 -0.4352 -0.0965  0.1214
  795MOL0     C 9628   5.415   2.483   0.581  0.0932  0.2469 -0.4130
  795MOL0     C 9629   5.324   2.437   0.668 -0.1517  0.3581  0.1693
  795MOL0     C 9630   5.212   2.384   0.621  0.1148  0.6215  0.1996
  795MOL0     O 9631   5.110   2.339   0.701 -0.9544  0.7372  0.5465
  795MOL0     C 9632   5.137   2.326   0.842  0.3244 -0.8611  0.2323
  795MOL0     C 9633   5.018   2.251   0.904 -0.9666 -0.1479  0.4141
  795MOL0     C 9634   4.879   2.307   0.875 -0.2957 -0.5603 -0.3208
  795MOL0     C 9635   4.772   2.200   0.911  0.0182 -0.6020 -0.6436
  795MOL0     C 9636   4.768   2.162   1.054  0.3272  0.7554  0.7385
  795MOL0     C 9637   4.742   2.140   1.170 -0.4690  0.1205 -0.1528
  795MOL0     C 9638   5.190   2.373   0.489 -0.0194  0.6062  0.0140
  795MOL0     C 9639   5.282   2.414   0.392  0.8569 -0.2009 -0.0451
  795MOL0     C 9640   5.250   2.404   0.245  0.1758  0.3472 -0.0120
  795MOL0     H 9641   5.708   2.467   0.146  0.1882 -0.7697  0.8610
  795MOL0     H 9642   5.894   2.538   0.042 -1.7708 -1.0528  0.5351
  795MOL0     H 9643   6.280   2.610   0.275 -0.8645 -1.0534  1.5124
  795MOL0     H 9644   6.186   2.761   0.304 -0.3774  0.2774 -1.4894
  795MOL0     H 9645   6.341   2.661   0.062 -3.1193  0.4135 -1.9552
  795MOL0     H 9646   6.250   2.804   0.049  1.0210 -2.1733 -2.4085
  795MOL0     H 9647   6.403   2.922   0.197  0.4710 -0.9266  0.5519
  795MOL0     H 9648   6.489   2.765   0.233  0.4659  1.6404  2.3760
  795MOL0     H 9649   6.531   2.748  -0.030  0.9539  1.6910 -2.1375
  795MOL0     H 9650   6.472   2.917  -0.027  0.5171  0.4860  0.8342
  795MOL0     H 9651   6.689   2.835   0.158 -2.2965 -1.8803  0.4250
  795MOL0     H 9652   6.657   2.989   0.097 -0.7034 -0.1894  3.7530
  795MOL0     H 9653   6.779   2.761  -0.073  0.9236 -0.0903 -0.5226
  795MOL0     H 9654   6.724   2.914  -0.142  0.5846 -0.5152 -0.9210
  795MOL0     H 9655   6.929   2.905   0.092 -0.0046 -0.4005  0.0162
  795MOL0     H 9656   6.881   3.045   0.009  3.2230 -0.7706  1.7464
  795MOL0     H 9657   6.939   2.956  -0.208  0.0883  0.7552 -0.5902
  795MOL0     H 9658   7.080   2.996  -0.112 -1.6137  2.3548 -3.9866
  795MOL0     H 9659   7.187   2.782   0.047  1.1117 -2.0802  1.3789
  795MOL0     H 9660   7.223   2.420  -0.080 -0.9078  0.8926 -1.4763
  795MOL0     H 9661   7.294   2.522   0.041 -2.7679 -1.4433  1.3982
  795MOL0     H 9662   7.393   2.436  -0.235  0.7687  1.5817 -1.6932
  795MOL0     H 9663   7.427   2.608  -0.204  0.7620 -0.9456 -1.4131
  795MOL0     H 9664   7.538   2.549  -0.004  1.7958  0.6405 -0.2862
  795MOL0     H 9665   7.509   2.380  -0.023 -0.2288  0.3323 -0.5966
  795MOL0     H 9666   7.600   2.405  -0.277  0.8549  1.2749 -0.7887
  795MOL0     H 9667   7.673   2.554  -0.220 -0.8317 -0.9465 -4.3842
  795MOL0     H 9668   7.720   2.633   0.008 -0.2616  0.6821 -0.1011
  795MOL0     H 9669   7.698   2.709   0.254 -0.5054 -1.0184 -1.6671
  795MOL0     H 9670   7.828   2.793   0.154  0.7237 -1.4258 -0.0760
  795MOL0     H 9671   7.860   2.740   0.316 -0.8738 -3.4858  1.4489
  795MOL0     H 9672   8.203   2.606   0.558 -1.1440 -0.1774  3.8491
  795MOL0     H 9673   8.376   2.565   0.713 -1.2597 -0.5283  2.3158
  795MOL0     H 9674   8.615   2.437   0.725  0.1258  1.7533  0.1850
  795MOL0     H 9675   8.533   2.467   0.886  0.0666 -0.0634 -1.1164
  795MOL0     H 9676   8.636   2.279   0.990 -1.7093  1.1288 -0.1848
  795MOL0     H 9677   8.707   2.228   0.832 -1.2650  0.7500 -0.9148
  795MOL0     H 9678   8.783   2.480   0.984  2.3020  0.3989 -1.1246
  795MOL0     H 9679   8.870   2.427   0.845  3.3343 -1.8517  1.6057
  795MOL0     H 9680   8.857   2.259   1.105  2.7361 -0.7721  1.8035
  795MOL0     H 9681   8.983   2.369   1.038 -0.5739  1.4649 -1.8061
  795MOL0     H 9682   8.893   2.093   0.945 -0.3550  1.0059  2.0595
  795MOL0     H 9683   8.965   2.207   0.831 -1.0824 -2.9002 -0.8451
  795MOL0     H 9684   9.065   2.083   1.086 -0.0696 -1.6794 -0.8165
  795MOL0     H 9685   9.163   2.207   0.996  1.4060 -1.5554 -0.1106
  795MOL0     H 9686   9.182   2.047   0.804  3.2385  1.6625  0.6378
  795MOL0     H 9687   9.068   1.943   0.886  0.4550  1.2334 -3.0119
  795MOL0     H 9688   9.302   1.854   0.933  1.5796  0.2783  0.8861
  795MOL0     H 9689   9.224   1.919   1.082 -1.8256 -2.6033 -0.8188
  795MOL0     H 9690   8.307   2.144   0.660  1.5657  0.2551 -3.7794
  795MOL0     H 9691   8.113   2.197   0.519 -0.3132  1.2351 -2.0727
  795MOL0     H 9692   8.032   2.301   0.198  1.6061  2.1013  1.8033
  795MOL0     H 9693   7.924   2.251  -0.016 -0.9344 -0.6477  0.4931
  795MOL0     H 9694   6.063   2.633   0.436  1.3201 -1.4611 -0.0721
  795MOL0     H 9695   5.851   2.563   0.544 -0.2177 -1.0923  0.4739
  795MOL0     H 9696   5.504   2.533   0.617 -1.3144  2.7418 -0.1531
  795MOL0     H 9697   5.350   2.447   0.773  2.7165  2.3414 -0.6106
  795MOL0     H 9698   5.229   2.272   0.865  0.1652 -0.0391  3.3913
  795MOL0     H 9699   5.123   2.428   0.881 -1.3280 -0.7959 -0.4344
  795MOL0     H 9700   5.034   2.238   1.011 -4.3548 -2.5492  0.7971
  795MOL0     H 9701   5.031   2.151   0.860  4.3009  0.8836 -1.0808
  795MOL0     H 9702   4.868   2.395   0.939  0.2718 -2.1503  2.0932
  795MOL0     H 9703   4.850   2.335   0.773  0.5008  1.0307 -0.1472
  795MOL0     H 9704   4.766   2.109   0.851 -4.1438  0.0886 -1.6387
  795MOL0     H 9705   4.673   2.243   0.891  0.1290  0.2403  0.5300
  795MOL0     H 9706   4.723   2.093   1.264 -0.0737  0.5616  0.1610
  795MOL0     H 9707   5.090   2.342   0.458  0.7524 -2.3134  0.0977
  795MOL0     H 9708   5.146   2.369   0.241 -1.4510  4.6258 -0.9109
  795MOL0     H 9709   5.251   2.504   0.201  0.3128  0.7747  0.9424
  795MOL0     H 9710   5.327   2.354   0.186  0.7640  2.0623 -0.7639
  796MOL0     O 9711  11.194   0.942   6.752  0.7431 -0.4554 -0.4315
  796MOL0     C 9712  11.119   0.870   6.814 -0.2211 -0.3510  0.1491
  796MOL0     O 9713  11.062   0.768   6.754  0.2272  0.8559 -0.1174
  796MOL0     C 9714  11.097   0.725   6.626 -0.7840 -0.1868 -0.9628
  796MOL0     C 9715  11.203   0.634   6.614 -0.3373  0.3731 -0.2318
  796MOL0     C 9716  11.242   0.608   6.481 -0.2550  0.3234 -0.3790
  796MOL0     C 9717  11.178   0.658   6.369  0.5716  0.2912 -0.4883
  796MOL0     O 9718  11.232   0.624   6.241  0.1727 -0.0300  0.1147
  796MOL0     C 9719  11.226   0.729   6.140  0.0591  0.7781 -0.9451
  796MOL0     C 9720  11.331   0.690   6.020  0.1864 -0.3081 -0.0616
  796MOL0     C 9721  11.478   0.685   6.069  0.3921 -1.1375 -0.4647
  796MOL0     C 9722  11.561   0.585   5.985 -0.9059 -0.8520  0.0191
  796MOL0     C 9723  11.674   0.503   6.067  0.3230 -0.3295 -0.4138
  796MOL0     C 9724  11.612   0.413   6.174  0.0016 -0.6506 -0.3593
  796MOL0     C 9725  11.710   0.309   6.228 -0.0545  0.4450  0.2218
  796MOL0     C 9726  11.810   0.365   6.321 -0.5649  0.0314  0.4692
  796MOL0     N 9727  11.904   0.263   6.370  0.5984  0.6008  0.3596
  796MOL0     C 9728  11.953   0.265   6.498  1.0711 -0.2563  0.0431
  796MOL0     C 9729  12.027   0.148   6.506 -0.9834 -1.2533  0.3387
  796MOL0     C 9730  12.122   0.117   6.620 -0.5126  0.0534 -0.2016
  796MOL0     C 9731  12.232   0.212   6.580 -0.4866 -0.2995  0.3831
  796MOL0     C 9732  12.345   0.188   6.665  0.1706  0.2626  0.7379
  796MOL0     C 9733  12.462   0.282   6.643 -1.2244  0.1185 -0.7660
  796MOL0     O 9734  12.449   0.411   6.713 -0.0468 -0.5801  0.0508
  796MOL0     C 9735  12.549   0.503   6.703 -0.1199 -0.4531 -0.5338
  796MOL0     C 9736  12.541   0.630   6.771  0.4661 -0.3237 -0.5246
  796MOL0     C 9737  12.659   0.715   6.787 -0.1305 -0.4685  0.1952
  796MOL0     C 9738  12.636   0.837   6.873 -0.5650 -0.4540  0.1610
  796MOL0     C 9739  12.782   0.688   6.718  0.7530  0.3391  0.8869
  796MOL0     C 9740  12.904   0.763   6.724  0.3354  0.3602  0.2051
  796MOL0     O 9741  12.996   0.743   6.622 -0.4119  0.3679 -0.1386
  796MOL0     C 9742  13.130   0.772   6.651  0.8482 -0.4093  0.6186
  796MOL0     C 9743  13.168   0.903   6.688 -0.5406 -0.1232 -0.0258
  796MOL0     C 9744  13.301   0.933   6.719 -0.4775  0.4228 -0.5695
  796MOL0     C 9745  13.399   0.822   6.724  0.0010 -0.4947  0.3737
  796MOL0     O 9746  13.528   0.840   6.777  1.3720 -0.3889  0.1334
  796MOL0     C 9747  13.553   0.963   6.850 -0.1141 -0.1964 -0.4163
  796MOL0     C 9748  13.706   0.971   6.879  0.8054  0.5847 -0.1351
  796MOL0     C 9749  13.756   0.859   6.970 -0.4206  0.3757  0.6421
  796MOL0     C 9750  13.900   0.888   7.007 -0.3060  0.1767  0.6618
  796MOL0     C 9751  13.962   0.800   7.115 -0.7050 -0.6872 -0.4419
  796MOL0     C 9752  13.897   0.828   7.252  0.2901 -0.0123 -0.0045
  796MOL0     C 9753  13.963   0.746   7.361 -0.0673 -0.5714  1.7434
  796MOL0     C 9754  13.900   0.780   7.500 -0.0639  0.0631  0.5633
  796MOL0    Cl 9755  13.925   0.951   7.539 -0.1338  0.1792 -0.1110
  796MOL0     C 9756  13.360   0.695   6.700  1.0305 -0.0302 -0.5548
  796MOL0     C 9757  13.225   0.667   6.671  0.4325 -0.6841  0.4050
  796MOL0     O 9758  12.917   0.827   6.829 -0.0360  0.1481 -0.2538
  796MOL0     C 9759  12.784   0.571   6.640  0.7075 -0.0201  0.4615
  796MOL0     C 9760  12.673   0.482   6.629 -0.1559 -0.3562  0.5322
  796MOL0     N 9761  12.027   0.087   6.383  0.2598 -0.5213 -0.2414
  796MOL0     N 9762  11.957   0.156   6.302 -0.0938  0.2693  0.4645
  796MOL0     C 9763  11.063   0.736   6.389 -0.4880  0.5088  0.2697
  796MOL0     C 9764  11.029   0.773   6.517  0.0142  0.3707  0.2170
  796MOL0     C 9765  11.051   0.910   6.944 -0.6789  0.0921 -0.6260
  796MOL0     C 9766  10.909   0.907   6.952  0.4026 -0.7740  1.1690
  796MOL0     C 9767  10.838   0.953   7.062 -0.5467 -0.1966 -0.0588
  796MOL0     C 9768  10.901   0.991   7.177  0.2399  0.5962  0.3595
  796MOL0     O 9769  10.833   1.031   7.285 -0.5251 -0.1376  0.6835
  796MOL0     C 9770  10.899   1.122   7.372 -0.8411 -0.0641  0.4552
  796MOL0     C 9771  10.795   1.136   7.479  0.8563  0.3349 -0.4001
  796MOL0     C 9772  10.859   1.205   7.607  0.0072  0.1371  0.1918
  796MOL0     C 9773  10.747   1.245   7.700 -0.1258  0.7818  0.2954
  796MOL0     C 9774  10.701   1.136   7.775  0.3739  0.0304 -0.2456
  796MOL0     C 9775  10.655   1.033   7.825 -0.2640  0.5889 -0.0980
  796MOL0     C 9776  11.043   0.976   7.172 -0.9602  0.4186  0.7535
  796MOL0     C 9777  11.122   0.941   7.060  0.1118  0.2875  0.1136
  796MOL0     C 9778  11.271   0.952   7.085  0.2239  0.2392 -0.4436
  796MOL0     H 9779  11.262   0.608   6.702  0.7035  1.5605 -0.5586
  796MOL0     H 9780  11.329   0.547   6.462 -0.6524 -0.2879 -0.2621
  796MOL0     H 9781  11.254   0.827   6.179  1.4779  0.7021 -1.6961
  796MOL0     H 9782  11.124   0.735   6.102 -0.7432 -0.9693  0.7874
  796MOL0     H 9783  11.302   0.589   5.989  0.8036 -0.0445 -1.5627
  796MOL0     H 9784  11.330   0.758   5.934  1.1512  0.0860  0.2356
  796MOL0     H 9785  11.531   0.777   6.043  1.9942 -2.1639 -0.9299
  796MOL0     H 9786  11.492   0.674   6.177 -0.5156 -0.1520 -0.2251
  796MOL0     H 9787  11.492   0.512   5.943 -3.0505  0.1885  1.5603
  796MOL0     H 9788  11.611   0.628   5.898  3.1802 -1.3045  1.8858
  796MOL0     H 9789  11.755   0.571   6.097  1.3312  0.0114 -3.5028
  796MOL0     H 9790  11.729   0.437   5.999  0.4697  1.3690 -2.0177
  796MOL0     H 9791  11.578   0.477   6.256 -1.3587  1.0955 -2.2006
  796MOL0     H 9792  11.527   0.355   6.137  1.4296 -2.1336 -1.4395
  796MOL0     H 9793  11.762   0.265   6.143  0.8481  1.5326  0.1853
  796MOL0     H 9794  11.659   0.238   6.293  0.2920  2.5499  2.9703
  796MOL0     H 9795  11.875   0.438   6.272  0.2432 -0.9958 -0.0156
  796MOL0     H 9796  11.758   0.408   6.407 -1.3032 -2.1316  1.1605
  796MOL0     H 9797  11.929   0.337   6.576  1.2276  0.1666 -0.2951
  796MOL0     H 9798  12.153   0.012   6.613 -1.4205 -0.2567  0.2618
  796MOL0     H 9799  12.080   0.151   6.715  0.7418  0.4613  0.2280
  796MOL0     H 9800  12.246   0.209   6.472 -6.2223  2.7662 -0.8680
  796MOL0     H 9801  12.203   0.314   6.605 -1.1982  0.1636 -2.0892
  796MOL0     H 9802  12.327   0.184   6.773 -4.5980 -3.0544  0.1051
  796MOL0     H 9803  12.380   0.086   6.643  0.1497  0.5401 -0.6760
  796MOL0     H 9804  12.560   0.243   6.674 -2.3107 -1.3522  0.9673
  796MOL0     H 9805  12.483   0.293   6.536 -0.3711 -2.4172 -0.9237
  796MOL0     H 9806  12.453   0.650   6.831  0.8127 -0.1234 -0.0820
  796MOL0     H 9807  12.531   0.836   6.903 -0.4796 -2.7887  0.5634
  796MOL0     H 9808  12.652   0.929   6.816  0.3241  0.0634  1.2005
  796MOL0     H 9809  12.691   0.841   6.967 -3.3345  1.0523  1.8272
  796MOL0     H 9810  13.092   0.980   6.687  0.8736  1.3998 -2.7236
  796MOL0     H 9811  13.317   1.037   6.746 -0.9506  0.7063 -1.3521
  796MOL0     H 9812  13.521   1.048   6.790 -2.0248 -0.1396  0.5925
  796MOL0     H 9813  13.491   0.964   6.940  1.2379  3.3546  0.6409
  796MOL0     H 9814  13.765   0.970   6.787  0.0523  0.8031 -0.6274
  796MOL0     H 9815  13.728   1.067   6.927  2.9635  0.5281 -0.8863
  796MOL0     H 9816  13.742   0.765   6.916  0.6093  0.5952 -0.0338
  796MOL0     H 9817  13.697   0.858   7.063  0.4625 -0.1443  1.2064
  796MOL0     H 9818  13.909   0.993   7.037 -1.0586  1.1623 -2.2169
  796MOL0     H 9819  13.961   0.894   6.916  0.5610  1.3237  1.2942
  796MOL0     H 9820  13.953   0.696   7.082 -0.9841 -0.7143 -0.2918
  796MOL0     H 9821  14.066   0.831   7.117 -0.7391 -0.5780  1.1680
  796MOL0     H 9822  13.789   0.816   7.257  0.4453 -0.8948  1.6918
  796MOL0     H 9823  13.920   0.933   7.275  1.0664 -0.4470  1.2956
  796MOL0     H 9824  14.070   0.770   7.362  0.0995 -0.7766 -1.3586
  796MOL0     H 9825  13.950   0.639   7.344  0.3430 -0.3455 -0.2279
  796MOL0     H 9826  13.947   0.726   7.583 -0.9214 -0.8333  0.4807
  796MOL0     H 9827  13.791   0.767   7.495 -0.0735  0.3505 -0.1399
  796MOL0     H 9828  13.421   0.605   6.695 -1.1030 -1.7182  1.3032
  796MOL0     H 9829  13.188   0.567   6.651  2.5365 -1.4899  0.2315
  796MOL0     H 9830  12.875   0.532   6.595  1.1985  1.3637  0.2153
  796MOL0     H 9831  12.689   0.398   6.562 -0.4565 -0.6451  0.8192
  796MOL0     H 9832  11.017   0.772   6.298  0.6278  1.3196 -0.0125
  796MOL0     H 9833  10.944   0.835   6.545 -0.3704 -0.2550  0.4519
  796MOL0     H 9834  10.854   0.875   6.864  1.6526  0.8990 -0.2922
  796MOL0     H 9835  10.730   0.961   7.062 -0.4933  0.6292 -0.5764
  796MOL0     H 9836  10.991   1.079   7.410 -0.0932 -2.4151 -3.4055
  796MOL0     H 9837  10.922   1.222   7.333  1.3213  0.2142  2.2539
  796MOL0     H 9838  10.748   1.043   7.509 -2.8637  2.1614  0.0021
  796MOL0     H 9839  10.714   1.198   7.440  0.4960  0.7873  1.0019
  796MOL0     H 9840  10.933   1.135   7.646  0.3250 -0.9368 -2.1670
  796MOL0     H 9841  10.916   1.297   7.588  2.3858 -1.3378 -0.2061
  796MOL0     H 9842  10.664   1.281   7.637 -1.0503 -1.6439 -0.0166
  796MOL0     H 9843  10.782   1.332   7.755  0.2264 -0.2747  1.7980
  796MOL0     H 9844  10.603   0.942   7.846 -0.4638  0.4352 -1.1954
  796MOL0     H 9845  11.105   0.987   7.260 -2.5234  3.2413  1.6445
  796MOL0     H 9846  11.294   1.059   7.090 -0.9688  0.4847  0.1465
  796MOL0     H 9847  11.293   0.908   7.183  0.7558  0.4605 -0.4600
  796MOL0     H 9848  11.325   0.910   7.000 -1.0286  0.9262 -1.6268
  797MOL0     O 9849   5.597   6.025  10.834 -0.3419  0.5210  0.6612
  797MOL0     C 9850   5.568   6.142  10.798  0.1151 -0.2172  0.5178
  797MOL0     O 9851   5.642   6.252  10.821 -0.0064  0.4738 -0.2289
  797MOL0     C 9852   5.762   6.240  10.880 -1.2617 -0.1695  0.6245
  797MOL0     C 9853   5.873   6.280  10.801 -1.1273 -0.3235 -0.1431
  797MOL0     C 9854   5.997   6.288  10.845  0.3519  0.0914  0.8029
  797MOL0     C 9855   6.024   6.236  10.970 -0.2604 -0.6294 -0.3095
  797MOL0     O 9856   6.153   6.237  11.014  0.2795  0.5663 -0.0751
  797MOL0     C 9857   6.189   6.165  11.135  0.0069  0.9505  0.4705
  797MOL0     C 9858   6.339   6.138  11.158 -0.8529 -0.2118  0.3707
  797MOL0     C 9859   6.428   6.102  11.030 -0.4249 -0.4102 -0.0011
  797MOL0     C 9860   6.577   6.069  11.070 -0.0164 -0.7291  0.0410
  797MOL0     C 9861   6.660   6.198  11.082  0.9380 -1.3797  0.2560
  797MOL0     C 9862   6.805   6.165  11.119  0.1932  0.6416  0.1192
  797MOL0     C 9863   6.885   6.296  11.104  0.0468  0.4156 -0.9505
  797MOL0     C 9864   7.029   6.255  11.136 -0.3465  0.5215 -0.0998
  797MOL0     N 9865   7.124   6.369  11.122  0.1754 -0.4034  0.0899
  797MOL0     C 9866   7.194   6.413  11.224 -0.0274 -0.0579  0.2640
  797MOL0     C 9867   7.248   6.532  11.180  0.0605  0.1489 -0.5001
  797MOL0     C 9868   7.323   6.616  11.272 -0.2698 -0.1333  0.5707
  797MOL0     C 9869   7.463   6.552  11.303 -0.1943  0.1472 -0.1481
  797MOL0     C 9870   7.553   6.645  11.387  0.6081 -0.5790 -1.4235
  797MOL0     C 9871   7.537   6.640  11.537 -0.0529  0.4285  0.9990
  797MOL0     O 9872   7.566   6.502  11.580 -0.5829  0.3334 -0.4950
  797MOL0     C 9873   7.588   6.486  11.712 -0.5734  0.6670 -1.2457
  797MOL0     C 9874   7.656   6.368  11.759 -0.0554 -0.0348  0.5542
  797MOL0     C 9875   7.680   6.342  11.895 -0.1409  0.3177 -0.1460
  797MOL0     C 9876   7.767   6.224  11.929 -0.6781 -0.5200 -0.3467
  797MOL0     C 9877   7.630   6.427  11.991 -0.4024 -0.5562  0.2859
  797MOL0     C 9878   7.656   6.409  12.138 -0.5254  0.0274  0.4871
  797MOL0     O 9879   7.648   6.529  12.216 -0.9309  0.1527  0.1139
  797MOL0     C 9880   7.664   6.522  12.352 -0.2389  0.4191 -0.8668
  797MOL0     C 9881   7.781   6.555  12.414 -0.4056 -0.7346  0.6583
  797MOL0     C 9882   7.802   6.553  12.555  0.5670  0.5126  0.1124
  797MOL0     C 9883   7.690   6.524  12.639  0.6152 -1.1255  0.0553
  797MOL0     O 9884   7.687   6.528  12.779 -0.3427 -0.7670 -0.0794
  797MOL0     C 9885   7.814   6.549  12.845 -0.2272 -0.0320 -0.7736
  797MOL0     C 9886   7.770   6.539  12.995 -0.4440  0.5564 -0.0096
  797MOL0     C 9887   7.896   6.567  13.074 -0.3169 -0.7376  0.8136
  797MOL0     C 9888   7.883   6.586  13.232  0.9765  0.4069 -0.1754
  797MOL0     C 9889   8.014   6.608  13.304 -0.3491  0.1479 -0.1332
  797MOL0     C 9890   8.134   6.523  13.252  0.1677  0.9547 -0.8387
  797MOL0     C 9891   8.236   6.508  13.358 -0.5460 -0.3364 -0.6389
  797MOL0     C 9892   8.369   6.447  13.314 -1.1276  0.5362  0.3455
  797MOL0    Cl 9893   8.474   6.567  13.234 -0.0617  0.0615  0.2096
  797MOL0     C 9894   7.571   6.494  12.573 -0.2477 -0.1627  0.0997
  797MOL0     C 9895   7.557   6.509  12.435  0.0312  0.6382 -0.3912
  797MOL0     O 9896   7.666   6.294  12.180 -0.1075 -1.0082  0.5186
  797MOL0     C 9897   7.557   6.534  11.943  0.1747 -0.3076 -0.2973
  797MOL0     C 9898   7.528   6.565  11.810  0.8564 -0.1114  0.0349
  797MOL0     N 9899   7.222   6.544  11.049  0.1203 -0.0152  0.8017
  797MOL0     N 9900   7.128   6.461  11.011 -0.5933 -0.0288 -0.8978
  797MOL0     C 9901   5.920   6.173  11.051 -0.6684  0.0369 -0.3864
  797MOL0     C 9902   5.787   6.180  11.006 -0.3168  1.5363  0.2235
  797MOL0     C 9903   5.449   6.173  10.723 -0.8574 -0.1772 -1.2390
  797MOL0     C 9904   5.464   6.216  10.598 -0.7502  0.9604  0.6890
  797MOL0     C 9905   5.350   6.227  10.515 -0.8820 -0.9659 -0.7239
  797MOL0     C 9906   5.221   6.201  10.570 -0.9392 -0.6544  0.5096
  797MOL0     O 9907   5.113   6.208  10.497  0.6849  0.0223  0.1792
  797MOL0     C 9908   5.072   6.085  10.436  1.1950 -0.7984 -0.0218
  797MOL0     C 9909   4.993   6.095  10.297  0.6034 -0.8417  0.4340
  797MOL0     C 9910   5.097   6.131  10.185  0.0725 -0.3346 -0.3275
  797MOL0     C 9911   5.025   6.151  10.047 -0.2389  1.0558 -0.6530
  797MOL0     C 9912   4.981   6.012  10.007 -0.7465 -0.5018  1.0849
  797MOL0     C 9913   4.960   5.900   9.957  0.0636 -0.0637  0.5120
  797MOL0     C 9914   5.205   6.161  10.702 -0.0279 -0.2844 -0.5690
  797MOL0     C 9915   5.320   6.141  10.781  0.2380  0.7356 -0.8987
  797MOL0     C 9916   5.307   6.070  10.911  0.1502 -0.4806 -0.0068
  797MOL0     H 9917   5.857   6.334  10.709 -0.7856  0.5376  0.2925
  797MOL0     H 9918   6.075   6.338  10.788  0.0126 -1.8047 -1.4635
  797MOL0     H 9919   6.140   6.068  11.120 -0.6755  1.2237  0.8843
  797MOL0     H 9920   6.147   6.209  11.226 -2.2667 -2.8831  1.5147
  797MOL0     H 9921   6.391   6.230  11.187  2.7254 -1.0247 -2.7102
  797MOL0     H 9922   6.353   6.063  11.236  0.3071 -0.3917  0.0130
  797MOL0     H 9923   6.379   6.013  10.990  0.4375 -1.4538  1.1790
  797MOL0     H 9924   6.425   6.177  10.952 -0.2219 -1.0537 -0.6372
  797MOL0     H 9925   6.572   6.025  11.170  0.1803 -1.9207 -0.4534
  797MOL0     H 9926   6.622   6.001  10.998  0.7802 -0.9735  0.7476
  797MOL0     H 9927   6.614   6.257  11.162  0.0062 -1.7320 -0.0026
  797MOL0     H 9928   6.652   6.249  10.986 -0.7697  0.2696  1.2054
  797MOL0     H 9929   6.815   6.124  11.219 -0.4987  0.9023  0.3058
  797MOL0     H 9930   6.839   6.093  11.044 -0.7312  1.2792 -0.9620
  797MOL0     H 9931   6.847   6.368  11.177  2.1524  1.1674 -0.5136
  797MOL0     H 9932   6.877   6.349  11.009 -0.1473  2.4241  0.1165
  797MOL0     H 9933   7.020   6.213  11.237  0.5554  1.9633  0.6255
  797MOL0     H 9934   7.063   6.171  11.074 -1.1739 -1.6495  2.2015
  797MOL0     H 9935   7.206   6.356  11.316  0.9794 -1.1581 -0.5155
  797MOL0     H 9936   7.267   6.626  11.366 -1.8308 -2.1288 -0.0761
  797MOL0     H 9937   7.329   6.713  11.222  1.1630 -0.0164  0.9524
  797MOL0     H 9938   7.454   6.460  11.361 -0.0546  0.7223  0.7965
  797MOL0     H 9939   7.508   6.517  11.209 -0.8535 -2.1612  0.3321
  797MOL0     H 9940   7.659   6.624  11.368  1.0986  1.2577 -0.9069
  797MOL0     H 9941   7.541   6.749  11.358  1.2479  0.2344  0.9742
  797MOL0     H 9942   7.607   6.716  11.572  1.5611  0.1245 -1.3112
  797MOL0     H 9943   7.435   6.674  11.556 -1.0644 -1.7361 -0.0967
  797MOL0     H 9944   7.682   6.279  11.701  0.8730  0.3463  0.3813
  797MOL0     H 9945   7.835   6.204  11.845 -0.2317  0.0905 -0.1330
  797MOL0     H 9946   7.704   6.137  11.952  0.6778 -1.3495  0.3852
  797MOL0     H 9947   7.831   6.229  12.017 -3.1940 -2.5638  1.7829
  797MOL0     H 9948   7.867   6.582  12.353 -2.2903  2.0661 -0.9833
  797MOL0     H 9949   7.905   6.566  12.588  0.6221 -1.0845  0.6916
  797MOL0     H 9950   7.892   6.480  12.811 -0.3545 -0.9462  0.7257
  797MOL0     H 9951   7.840   6.651  12.815  2.5160 -1.2699 -3.2263
  797MOL0     H 9952   7.707   6.627  13.013  2.3989  2.4509  1.4996
  797MOL0     H 9953   7.724   6.445  13.026 -0.5064  1.2617  2.2322
  797MOL0     H 9954   7.936   6.662  13.037 -0.9508 -0.7627  0.0357
  797MOL0     H 9955   7.970   6.491  13.047  0.1815 -0.0812  0.3117
  797MOL0     H 9956   7.844   6.494  13.275  2.4903 -0.0846  0.1961
  797MOL0     H 9957   7.814   6.668  13.254  0.7682  0.4434 -0.9225
  797MOL0     H 9958   8.043   6.713  13.289 -0.8177  0.3541  0.4027
  797MOL0     H 9959   8.000   6.587  13.410  3.2126  1.2000  0.6711
  797MOL0     H 9960   8.191   6.559  13.165  3.6978 -1.1374  0.4084
  797MOL0     H 9961   8.085   6.427  13.234  2.1694 -0.0335 -1.3995
  797MOL0     H 9962   8.206   6.441  13.439  0.5107 -3.0502 -2.3752
  797MOL0     H 9963   8.253   6.607  13.401 -2.0562 -1.3067  2.5533
  797MOL0     H 9964   8.352   6.365  13.244  1.3634  1.0406 -0.9456
  797MOL0     H 9965   8.415   6.413  13.407 -1.3746 -2.0182 -0.3927
  797MOL0     H 9966   7.490   6.459  12.636  0.8023 -1.8544  0.5704
  797MOL0     H 9967   7.457   6.490  12.397 -0.7647 -1.5098  2.4395
  797MOL0     H 9968   7.511   6.610  12.004 -1.9988  1.2351 -3.5663
  797MOL0     H 9969   7.452   6.638  11.787  1.1895  0.0453 -0.5870
  797MOL0     H 9970   5.947   6.129  11.146  0.4253  0.3287 -0.5479
  797MOL0     H 9971   5.706   6.142  11.067  0.4010  0.1416  0.3670
  797MOL0     H 9972   5.566   6.241  10.570  0.2220 -0.5369  2.6246
  797MOL0     H 9973   5.358   6.258  10.411  0.5654  0.5677 -0.2036
  797MOL0     H 9974   5.155   6.015  10.422  3.0712  1.1841  0.6524
  797MOL0     H 9975   5.008   6.031  10.507  2.1116 -0.8298  0.8052
  797MOL0     H 9976   4.917   6.173  10.299  1.1328 -0.3254  1.9147
  797MOL0     H 9977   4.954   5.997  10.269  1.2255 -1.2322  0.9063
  797MOL0     H 9978   5.143   6.229  10.200  2.2602 -1.2154 -0.7643
  797MOL0     H 9979   5.178   6.057  10.176 -0.8284 -1.6309  1.4677
  797MOL0     H 9980   5.087   6.203   9.974 -0.1278  1.6456 -0.1543
  797MOL0     H 9981   4.936   6.213  10.064  0.1806  1.5904 -0.3642
  797MOL0     H 9982   4.936   5.804   9.918 -2.6422  0.1995  1.3524
  797MOL0     H 9983   5.104   6.142  10.738 -1.1052  0.2063 -3.1060
  797MOL0     H 9984   5.352   5.971  10.901 -2.3812 -1.5900 -1.5078
  797MOL0     H 9985   5.369   6.127  10.981  0.6422 -1.1773  0.1233
  797MOL0     H 9986   5.205   6.063  10.950  0.1526  3.6244  1.2145
  798MOL0     O 9987   2.419   8.011   4.990  1.1003 -0.5456  0.4770
  798MOL0     C 9988   2.362   8.092   5.063 -0.0568  0.1356  0.0754
  798MOL0     O 9989   2.426   8.173   5.158  0.1991  0.7636  0.4247
  798MOL0     C 9990   2.561   8.150   5.174  0.9605  0.6969  0.3708
  798MOL0     C 9991   2.610   8.050   5.260 -0.3970  1.0702  0.4918
  798MOL0     C 9992   2.749   8.042   5.287 -0.1540 -0.2113 -0.3995
  798MOL0     C 9993   2.834   8.141   5.244  0.5917  0.5811  0.5024
  798MOL0     O 9994   2.965   8.141   5.282 -0.3545 -0.3592 -0.3543
  798MOL0     C 9995   2.990   8.209   5.403  0.0887 -0.7450 -0.3147
  798MOL0     C 9996   3.112   8.306   5.403 -0.1360  0.4141  0.3907
  798MOL0     C 9997   3.070   8.424   5.316  0.3449  0.7208  1.5944
  798MOL0     C 9998   3.187   8.523   5.308 -0.1475 -0.2679  0.8489
  798MOL0     C 9999   3.153   8.652   5.228  0.0662  0.0403 -0.6197
  798MOL0     C10000   3.281   8.742   5.188  0.5976  0.2151  0.1608
  798MOL0     C10001   3.248   8.845   5.075  0.4624  0.7182  0.9439
  798MOL0     C10002   3.208   8.984   5.119  0.6486  0.0465 -0.0715
  798MOL0     N10003   3.080   8.976   5.196  0.3055  0.1939 -0.2120
  798MOL0     C10004   2.967   8.902   5.172 -0.0288  0.8562  0.1688
  798MOL0     C10005   2.883   8.924   5.278 -0.3511 -0.9827  0.6141
  798MOL0     C10006   2.737   8.884   5.273 -0.2561 -0.2681 -0.2436
  798MOL0     C10007   2.647   8.970   5.195  0.1289 -0.5219  0.7242
  798MOL0     C10008   2.501   8.984   5.234 -0.4138 -1.2820  0.4497
  798MOL0     C10009   2.432   8.856   5.264 -0.1964 -0.1461  0.1203
  798MOL0     O10010   2.306   8.883   5.337  0.1283  0.6313  0.6002
  798MOL0     C10011   2.191   8.906   5.257  0.2805 -0.3906 -0.2862
  798MOL0     C10012   2.187   8.949   5.123  0.2128  0.0094 -0.1847
  798MOL0     C10013   2.057   8.955   5.057  0.6433  0.1929 -0.5154
  798MOL0     C10014   2.058   9.005   4.918 -0.3796 -0.7648  0.0954
  798MOL0     C10015   1.934   8.916   5.126  0.1099  0.2607 -0.3627
  798MOL0     C10016   1.796   8.891   5.068 -0.5804  0.2086 -0.5943
  798MOL0     O10017   1.682   8.900   5.145  0.2080  0.0110 -0.3174
  798MOL0     C10018   1.555   8.892   5.092  0.2871 -0.1866 -0.0080
  798MOL0     C10019   1.447   8.862   5.177 -0.4810 -0.6937  1.0040
  798MOL0     C10020   1.318   8.856   5.133  0.0963 -0.4980 -0.0229
  798MOL0     C10021   1.285   8.889   4.998 -1.2418  0.1039 -0.6078
  798MOL0     O10022   1.161   8.885   4.941  0.7612  0.2501 -0.2816
  798MOL0     C10023   1.053   8.879   5.039 -0.7074  0.1369  0.3959
  798MOL0     C10024   0.934   8.915   4.962  0.2072  0.0652  0.2821
  798MOL0     C10025   0.823   8.893   5.061  1.0371 -0.1608  0.3612
  798MOL0     C10026   0.710   8.994   5.026  0.0831 -0.9794 -0.0066
  798MOL0     C10027   0.661   8.980   4.884 -0.0503 -0.1296 -0.9240
  798MOL0     C10028   0.555   9.099   4.859 -0.0621  0.2050  0.2933
  798MOL0     C10029   0.595   9.247   4.882 -0.9961  0.2227 -0.0658
  798MOL0     C10030   0.490   9.349   4.833  0.3359  0.6002 -0.3031
  798MOL0    Cl10031   0.491   9.344   4.650 -0.2670  0.2011 -0.0611
  798MOL0     C10032   1.392   8.921   4.911 -0.7587 -0.5763 -0.2635
  798MOL0     C10033   1.525   8.926   4.959  0.4590  0.3795  0.9133
  798MOL0     O10034   1.805   8.844   4.954 -0.2511 -0.6170 -1.2552
  798MOL0     C10035   1.947   8.893   5.265  1.5365 -0.7416 -0.2913
  798MOL0     C10036   2.073   8.876   5.321 -0.1908 -0.1621  0.1036
  798MOL0     N10037   2.946   9.006   5.365 -0.4920  0.2794 -0.5932
  798MOL0     N10038   3.059   9.045   5.311  0.1365 -0.5996 -0.2993
  798MOL0     C10039   2.783   8.239   5.156  0.3230 -0.1549 -0.4628
  798MOL0     C10040   2.650   8.232   5.112 -0.4737  0.0362 -0.0148
  798MOL0     C10041   2.223   8.123   5.049 -0.5002 -0.5127 -0.7831
  798MOL0     C10042   2.155   8.108   4.924  1.3394  0.1302  0.9800
  798MOL0     C10043   2.013   8.132   4.903  0.2315  0.2934 -0.7262
  798MOL0     C10044   1.941   8.174   5.014 -0.0995 -0.1281 -1.1399
  798MOL0     O10045   1.808   8.190   5.006 -0.3626  0.1383 -0.2877
  798MOL0     C10046   1.732   8.146   4.891  1.2441  0.0031 -0.0801
  798MOL0     C10047   1.582   8.151   4.943  0.1217 -0.4698  0.4427
  798MOL0     C10048   1.479   8.075   4.869  0.0735  0.5603 -0.3182
  798MOL0     C10049   1.343   8.072   4.933  0.4564  0.3817  0.0788
  798MOL0     C10050   1.342   8.041   5.075 -0.3123 -0.6969  0.6159
  798MOL0     C10051   1.338   7.999   5.188 -0.1316  0.7429 -0.8748
  798MOL0     C10052   2.005   8.190   5.139 -0.4888  0.2840  0.2065
  798MOL0     C10053   2.138   8.160   5.154 -1.1215 -0.8605 -0.3809
  798MOL0     C10054   2.181   8.135   5.302  0.1862  0.7833  0.6506
  798MOL0     H10055   2.529   7.994   5.305  0.0122  3.2052  4.3199
  798MOL0     H10056   2.780   7.968   5.361 -1.1595 -0.6657 -0.4109
  798MOL0     H10057   3.010   8.128   5.474 -0.1781  0.2150  0.8852
  798MOL0     H10058   2.898   8.257   5.438  0.8416 -0.5274  1.4944
  798MOL0     H10059   3.141   8.327   5.506  0.8189 -1.3776  0.5301
  798MOL0     H10060   3.192   8.247   5.357  0.1134  0.3613  0.8917
  798MOL0     H10061   3.048   8.390   5.214  1.4314  2.7633  0.6237
  798MOL0     H10062   2.980   8.475   5.353  0.4399  0.4873  2.1492
  798MOL0     H10063   3.224   8.545   5.409  0.0829  0.8017  0.5428
  798MOL0     H10064   3.268   8.467   5.260  1.4659  0.0187  3.0976
  798MOL0     H10065   3.081   8.716   5.278  2.0177  2.8477 -1.1396
  798MOL0     H10066   3.106   8.623   5.133  1.0894 -0.9074 -0.8681
  798MOL0     H10067   3.318   8.798   5.275 -1.6501  2.4401 -0.2080
  798MOL0     H10068   3.360   8.671   5.162 -0.5580 -1.2541  0.5150
  798MOL0     H10069   3.192   8.813   4.986  0.0142  1.2117  1.0404
  798MOL0     H10070   3.342   8.868   5.023  0.3686 -0.3495  0.2596
  798MOL0     H10071   3.290   9.024   5.179  0.9528  1.7335 -1.5002
  798MOL0     H10072   3.201   9.041   5.025  0.7165 -0.8711 -0.6400
  798MOL0     H10073   2.948   8.847   5.080 -1.6856  2.5000 -0.5350
  798MOL0     H10074   2.700   8.896   5.375 -1.1777  0.2948 -0.6323
  798MOL0     H10075   2.716   8.779   5.249 -3.0578  0.0349  0.5036
  798MOL0     H10076   2.691   9.070   5.196  0.5577 -0.6683 -0.7667
  798MOL0     H10077   2.649   8.942   5.089 -0.8580 -1.1314  0.8543
  798MOL0     H10078   2.517   9.033   5.331  4.8861 -3.6793  1.1062
  798MOL0     H10079   2.454   9.044   5.156 -2.0724 -0.1826  2.1822
  798MOL0     H10080   2.414   8.799   5.173 -2.8787  0.0213  0.4667
  798MOL0     H10081   2.485   8.798   5.340  0.3817  3.5086  2.7853
  798MOL0     H10082   2.275   8.976   5.067 -1.1836 -0.2439 -2.6273
  798MOL0     H10083   1.956   9.033   4.891  0.1050  1.1972  0.1496
  798MOL0     H10084   2.095   8.928   4.850 -3.3947 -1.0882 -1.3373
  798MOL0     H10085   2.117   9.097   4.914 -3.3672  1.2356 -1.8008
  798MOL0     H10086   1.472   8.832   5.278  2.0118 -0.0323  0.6573
  798MOL0     H10087   1.242   8.812   5.196  0.6167 -0.4828  0.6305
  798MOL0     H10088   1.057   8.777   5.080  0.7717 -0.0899 -0.2491
  798MOL0     H10089   1.063   8.954   5.117 -1.0692 -0.7837  1.3435
  798MOL0     H10090   0.933   9.010   4.909 -1.0101 -0.1023 -0.0145
  798MOL0     H10091   0.911   8.839   4.887  0.6117  1.5635 -1.4395
  798MOL0     H10092   0.858   8.931   5.157  0.0252  3.3988 -0.5568
  798MOL0     H10093   0.779   8.793   5.071 -1.7347  1.1581  2.5657
  798MOL0     H10094   0.751   9.095   5.034 -1.5970 -0.3468  1.1114
  798MOL0     H10095   0.628   8.998   5.098 -0.8367 -0.4373 -1.0530
  798MOL0     H10096   0.740   8.981   4.808 -1.0975 -1.6676 -2.1126
  798MOL0     H10097   0.609   8.885   4.872  2.4238 -1.6422 -0.3121
  798MOL0     H10098   0.479   9.076   4.935  1.9203 -2.9099  1.5612
  798MOL0     H10099   0.518   9.087   4.757  1.6989 -0.5070 -0.3009
  798MOL0     H10100   0.684   9.259   4.820 -1.7287  0.8631 -1.0165
  798MOL0     H10101   0.615   9.265   4.988 -0.3477  0.4130 -0.2186
  798MOL0     H10102   0.499   9.453   4.865 -1.3558  0.4242  0.8951
  798MOL0     H10103   0.392   9.318   4.872  0.8464 -0.4764  0.1691
  798MOL0     H10104   1.351   8.935   4.811 -0.0044 -4.2753 -1.2744
  798MOL0     H10105   1.606   8.936   4.888  0.4982  0.4928  0.9733
  798MOL0     H10106   1.854   8.870   5.316  0.6533 -1.3308 -2.0949
  798MOL0     H10107   2.086   8.832   5.419 -2.8425 -1.3172  0.0405
  798MOL0     H10108   2.849   8.323   5.134  1.2264 -0.9819 -1.0265
  798MOL0     H10109   2.613   8.296   5.032 -0.3795  0.7587  0.5035
  798MOL0     H10110   2.220   8.084   4.841  0.0034  3.9037 -1.4166
  798MOL0     H10111   1.962   8.109   4.811  0.0212  0.9558 -0.7839
  798MOL0     H10112   1.750   8.207   4.802 -1.7142  0.5388 -0.4174
  798MOL0     H10113   1.762   8.046   4.859 -0.7604 -0.9131  0.7473
  798MOL0     H10114   1.544   8.254   4.943  2.2630  0.4028 -0.6107
  798MOL0     H10115   1.587   8.129   5.050 -0.1759  2.4873  1.1600
  798MOL0     H10116   1.471   8.128   4.774 -0.0130  2.3137  0.6121
  798MOL0     H10117   1.518   7.976   4.844 -1.8048 -0.1276 -0.6515
  798MOL0     H10118   1.280   7.996   4.884 -1.6525  0.5763  2.2893
  798MOL0     H10119   1.291   8.166   4.911 -1.0702 -0.1746  1.1191
  798MOL0     H10120   1.349   7.963   5.288 -1.0519  1.8780 -0.3435
  798MOL0     H10121   1.945   8.218   5.225  0.2594 -3.1057  2.0138
  798MOL0     H10122   2.093   8.110   5.361  1.0753 -0.9693  1.3125
  798MOL0     H10123   2.257   8.057   5.308 -1.8154 -1.2894  0.4886
  798MOL0     H10124   2.226   8.222   5.349  0.5872  2.0264 -1.8339
  799MOL0     O10125   1.734   0.120   1.978  0.0713  0.6366 -0.2121
  799MOL0     C10126   1.713   0.215   2.049  0.2390  0.6535 -0.2833
  799MOL0     O10127   1.636   0.206   2.161  0.7042  0.6388 -0.3372
  799MOL0     C10128   1.540   0.111   2.183 -0.0244 -0.4604  0.0022
  799MOL0     C10129   1.420   0.127   2.120 -0.2060  0.0501  0.3069
  799MOL0     C10130   1.313   0.043   2.163  0.2830  0.6076  0.3317
  799MOL0     C10131   1.327  -0.050   2.264 -0.8490  0.6615 -0.6118
  799MOL0     O10132   1.233  -0.142   2.299 -0.8100  0.0457  0.5629
  799MOL0     C10133   1.155  -0.191   2.191 -0.2320 -0.0416  0.3783
  799MOL0     C10134   1.068  -0.301   2.239 -0.1729  1.0814  0.5257
  799MOL0     C10135   1.062  -0.425   2.147  0.1121  0.0596  0.4952
  799MOL0     C10136   1.009  -0.541   2.239 -0.5921  0.5708 -0.4247
  799MOL0     C10137   0.946  -0.658   2.160 -1.2140  0.1391 -1.1748
  799MOL0     C10138   0.895  -0.769   2.256  0.1953 -0.4900  0.7201
  799MOL0     C10139   1.011  -0.827   2.336 -1.1192 -0.0148 -0.3877
  799MOL0     C10140   1.007  -0.770   2.489  0.5497 -0.1364  0.6729
  799MOL0     N10141   1.093  -0.855   2.573  0.0956 -0.2259 -0.4895
  799MOL0     C10142   1.232  -0.861   2.559  0.0057  0.0522  0.2524
  799MOL0     C10143   1.264  -0.976   2.632 -0.4359  0.6196  0.0614
  799MOL0     C10144   1.404  -1.038   2.662 -0.6222 -0.0083  0.0419
  799MOL0     C10145   1.423  -1.046   2.815  0.0190 -0.4101 -0.6810
  799MOL0     C10146   1.385  -0.910   2.890  0.0140 -0.6579 -0.1703
  799MOL0     C10147   1.473  -0.789   2.855 -0.2365  0.1251  0.3332
  799MOL0     O10148   1.578  -0.784   2.950 -0.2843 -0.0637 -0.5023
  799MOL0     C10149   1.685  -0.697   2.939 -0.5116 -0.2789 -0.4527
  799MOL0     C10150   1.685  -0.591   2.854  0.2200 -0.3587 -0.4640
  799MOL0     C10151   1.776  -0.485   2.859 -0.0678  0.3671 -0.8840
  799MOL0     C10152   1.752  -0.372   2.758  0.0357  0.6881 -0.3037
  799MOL0     C10153   1.876  -0.494   2.961 -0.4847  0.1547  0.7615
  799MOL0     C10154   1.996  -0.401   2.961  0.4048 -0.3671 -0.2107
  799MOL0     O10155   2.079  -0.409   3.070  0.1017  0.2308 -0.7207
  799MOL0     C10156   2.191  -0.329   3.079  0.5169  0.5508  0.2782
  799MOL0     C10157   2.293  -0.339   2.987 -0.4781  0.0758  0.2167
  799MOL0     C10158   2.397  -0.249   2.999 -0.8504  0.7409 -0.0339
  799MOL0     C10159   2.419  -0.168   3.112  0.4030 -1.0488  0.3145
  799MOL0     O10160   2.521  -0.080   3.121 -0.0520  0.4523  0.2614
  799MOL0     C10161   2.618  -0.140   3.213 -0.4422  0.3638 -0.3734
  799MOL0     C10162   2.686  -0.032   3.287  0.3049  0.2553  0.5386
  799MOL0     C10163   2.793   0.054   3.209  0.6210 -0.5678 -0.3756
  799MOL0     C10164   2.883   0.143   3.299  0.8475 -0.2271 -0.2559
  799MOL0     C10165   2.998   0.184   3.215 -0.4849 -0.3736  1.0693
  799MOL0     C10166   3.113   0.221   3.307  0.1412 -0.3387  0.3659
  799MOL0     C10167   3.237   0.285   3.243  0.8212 -0.3143 -0.4013
  799MOL0     C10168   3.327   0.188   3.156  0.5397 -0.4964 -0.1379
  799MOL0    Cl10169   3.390   0.063   3.264  0.6178 -0.2542  0.7146
  799MOL0     C10170   2.320  -0.163   3.206  0.2229 -0.0322  0.0132
  799MOL0     C10171   2.214  -0.252   3.197  0.3009  0.5130  0.3895
  799MOL0     O10172   2.011  -0.325   2.867  0.0029 -0.5423  0.4071
  799MOL0     C10173   1.862  -0.596   3.060  0.3126 -0.1683  0.3600
  799MOL0     C10174   1.774  -0.703   3.039 -0.1462  0.0504  0.4857
  799MOL0     N10175   1.153  -1.035   2.675  0.5980 -0.1109 -0.4863
  799MOL0     N10176   1.050  -0.969   2.633 -0.4142 -0.0888  0.1988
  799MOL0     C10177   1.445  -0.053   2.337  0.1730  0.6564  0.8568
  799MOL0     C10178   1.548   0.022   2.288  0.4505  0.2607  0.5939
  799MOL0     C10179   1.803   0.326   2.033  0.9339 -0.2187  0.5018
  799MOL0     C10180   1.935   0.304   2.037 -1.0803  0.6780 -0.2046
  799MOL0     C10181   2.020   0.396   1.998  0.2759 -0.8516  0.0707
  799MOL0     C10182   1.975   0.518   1.944  0.0280 -0.0042 -0.3249
  799MOL0     O10183   2.067   0.604   1.892 -0.6250 -0.0249 -0.5707
  799MOL0     C10184   2.051   0.744   1.917  0.0002 -0.1966 -0.5734
  799MOL0     C10185   2.181   0.829   1.938 -0.1211  0.5057 -0.2693
  799MOL0     C10186   2.294   0.764   2.024  0.7669  0.4757 -0.3181
  799MOL0     C10187   2.427   0.833   2.004 -0.6644 -0.3185 -0.0492
  799MOL0     C10188   2.417   0.977   2.015  0.5187  0.0337 -0.5406
  799MOL0     C10189   2.429   1.096   2.012  0.1214 -0.4776 -0.7505
  799MOL0     C10190   1.840   0.550   1.943 -0.8639 -0.8374 -0.3824
  799MOL0     C10191   1.759   0.452   1.990  1.2055  0.7127  0.5316
  799MOL0     C10192   1.616   0.482   1.979  0.3325  0.1763 -0.5459
  799MOL0     H10193   1.411   0.195   2.036 -2.1072  0.1729  0.5491
  799MOL0     H10194   1.220   0.069   2.113  1.0984  0.6461 -1.2212
  799MOL0     H10195   1.218  -0.226   2.109  0.1285 -2.1322  1.4797
  799MOL0     H10196   1.092  -0.111   2.149 -2.0206 -2.1978 -1.3002
  799MOL0     H10197   1.104  -0.333   2.338 -0.6384 -1.3809 -0.0471
  799MOL0     H10198   0.970  -0.256   2.255 -1.8551 -2.3536  0.7107
  799MOL0     H10199   1.004  -0.401   2.058  1.4884 -0.3544 -0.5484
  799MOL0     H10200   1.165  -0.448   2.119  0.7127  1.8100  1.1196
  799MOL0     H10201   1.090  -0.580   2.301 -1.9146 -0.6718  0.5675
  799MOL0     H10202   0.936  -0.508   2.313  3.1494  0.1157  3.9283
  799MOL0     H10203   1.023  -0.707   2.100  0.1537  2.5902 -1.5150
  799MOL0     H10204   0.874  -0.621   2.086 -1.6752 -0.4471 -1.0304
  799MOL0     H10205   0.811  -0.744   2.322  1.4511 -2.0815  3.0494
  799MOL0     H10206   0.861  -0.851   2.191  1.4519  0.8585 -1.7879
  799MOL0     H10207   1.109  -0.802   2.295  0.9757 -0.4003  3.8708
  799MOL0     H10208   0.989  -0.934   2.342 -3.2832  0.4650  1.5547
  799MOL0     H10209   1.049  -0.669   2.491 -1.3578  0.8304 -2.0500
  799MOL0     H10210   0.904  -0.776   2.526  0.5097 -1.7780  0.3643
  799MOL0     H10211   1.295  -0.789   2.509  1.3593 -0.2935  1.3958
  799MOL0     H10212   1.484  -0.973   2.626 -0.0008 -0.3616  0.7635
  799MOL0     H10213   1.418  -1.139   2.622  2.1982  0.6020 -0.7413
  799MOL0     H10214   1.352  -1.122   2.846 -0.9938 -0.5585 -3.1358
  799MOL0     H10215   1.524  -1.082   2.836  1.2580  1.8106 -2.3031
  799MOL0     H10216   1.281  -0.878   2.877  0.2020 -0.1742 -0.4853
  799MOL0     H10217   1.395  -0.921   2.998 -0.2640 -1.3831 -0.2114
  799MOL0     H10218   1.506  -0.794   2.751 -0.0936 -1.4577  0.4251
  799MOL0     H10219   1.416  -0.698   2.875 -2.4456 -1.0019 -0.4749
  799MOL0     H10220   1.618  -0.571   2.771 -1.4102 -1.7962  0.4370
  799MOL0     H10221   1.645  -0.347   2.759  0.3494  2.2876  1.8783
  799MOL0     H10222   1.772  -0.398   2.654 -1.9170  1.7625 -0.9946
  799MOL0     H10223   1.793  -0.275   2.788 -0.6739  0.7216  0.6236
  799MOL0     H10224   2.282  -0.403   2.901 -3.4521 -1.1380  1.3745
  799MOL0     H10225   2.461  -0.267   2.913  0.1276 -1.8296  1.1180
  799MOL0     H10226   2.569  -0.217   3.274  0.0666  1.5136  1.5825
  799MOL0     H10227   2.698  -0.203   3.172 -0.4885 -1.8364  2.5964
  799MOL0     H10228   2.614   0.040   3.326  2.3355  1.9864  1.3062
  799MOL0     H10229   2.731  -0.077   3.376 -0.4755 -0.9824  0.3287
  799MOL0     H10230   2.748   0.127   3.141 -0.9756  0.6347  1.8659
  799MOL0     H10231   2.858  -0.015   3.154  2.7443 -1.2386  2.6938
  799MOL0     H10232   2.915   0.078   3.380  0.4300 -1.0283 -0.7254
  799MOL0     H10233   2.813   0.219   3.335  1.0738 -1.0039  1.9369
  799MOL0     H10234   3.028   0.111   3.140 -1.5543 -0.4733  0.7241
  799MOL0     H10235   2.983   0.277   3.159 -0.6713 -0.8833  0.2473
  799MOL0     H10236   3.146   0.129   3.356  0.6101 -1.0230 -1.1619
  799MOL0     H10237   3.078   0.297   3.377  2.0267  1.1950 -0.2937
  799MOL0     H10238   3.302   0.323   3.323  0.6104  0.9989 -0.8431
  799MOL0     H10239   3.190   0.366   3.187 -0.1416  1.3370  2.5330
  799MOL0     H10240   3.410   0.243   3.111 -0.0424 -0.1807 -0.8515
  799MOL0     H10241   3.255   0.161   3.077 -0.6155 -1.5383  1.2168
  799MOL0     H10242   2.336  -0.102   3.294  1.7546 -1.4961  0.8161
  799MOL0     H10243   2.148  -0.269   3.281 -0.6568 -1.7224 -0.7492
  799MOL0     H10244   1.940  -0.596   3.136  0.1953 -1.7083  0.4991
  799MOL0     H10245   1.763  -0.781   3.114 -2.5655  1.0842  1.3011
  799MOL0     H10246   1.448  -0.117   2.425  0.8615  1.1679  1.2142
  799MOL0     H10247   1.638   0.020   2.349  0.5478 -0.6284  0.4267
  799MOL0     H10248   1.978   0.213   2.079  1.2516  1.7392 -0.1335
  799MOL0     H10249   2.127   0.380   1.990  0.3246  0.2970 -2.3311
  799MOL0     H10250   1.994   0.787   1.834 -0.7778 -1.3968 -0.6921
  799MOL0     H10251   1.995   0.750   2.011 -0.8211 -1.3269 -0.9542
  799MOL0     H10252   2.147   0.919   1.989  0.9845 -0.2512  1.9224
  799MOL0     H10253   2.221   0.848   1.838  3.0790  1.9830  1.1412
  799MOL0     H10254   2.271   0.787   2.129 -3.4344  2.3427 -1.4357
  799MOL0     H10255   2.295   0.657   2.004 -1.9247  0.4845 -0.7764
  799MOL0     H10256   2.477   0.808   1.910 -1.1759  1.0645 -0.7175
  799MOL0     H10257   2.499   0.806   2.082 -1.6297  1.2447  1.4580
  799MOL0     H10258   2.430   1.202   1.995  0.2327 -0.3912 -0.2115
  799MOL0     H10259   1.802   0.649   1.918  2.9168  1.2037  1.1889
  799MOL0     H10260   1.559   0.399   1.937  3.1017 -1.3865 -1.4518
  799MOL0     H10261   1.573   0.496   2.079  0.5667  1.6443 -0.6241
  799MOL0     H10262   1.590   0.574   1.925 -1.3182  0.6182  0.9169
  800MOL0     O10263   6.717   7.723   9.691 -0.1483  0.1456 -0.0713
  800MOL0     C10264   6.797   7.653   9.630  0.0389  0.8334  0.8231
  800MOL0     O10265   6.857   7.681   9.510  0.8746 -0.3912 -0.3760
  800MOL0     C10266   6.831   7.801   9.446  0.0654 -1.7943 -0.8075
  800MOL0     C10267   6.809   7.794   9.311 -0.0585 -0.7681  0.6832
  800MOL0     C10268   6.773   7.906   9.242  0.5443  0.1801 -0.5707
  800MOL0     C10269   6.727   8.025   9.299  0.0338 -0.0233 -0.3487
  800MOL0     O10270   6.688   8.120   9.215 -0.0033 -0.0060  0.0792
  800MOL0     C10271   6.652   8.245   9.269 -0.0164  0.4323  0.5033
  800MOL0     C10272   6.632   8.357   9.163  0.1279  0.7603 -1.2136
  800MOL0     C10273   6.761   8.408   9.100  0.5693  0.7226 -0.7303
  800MOL0     C10274   6.727   8.542   9.028 -0.2216 -0.2569 -0.6616
  800MOL0     C10275   6.860   8.599   8.989 -0.9440 -0.7979  0.1594
  800MOL0     C10276   6.847   8.704   8.862 -0.5857  0.4745 -0.8508
  800MOL0     C10277   6.975   8.788   8.868 -0.1133  0.6851  0.4089
  800MOL0     C10278   7.104   8.721   8.839  0.6571  0.2938  0.1138
  800MOL0     N10279   7.217   8.807   8.789  0.0449 -0.0918  0.2936
  800MOL0     C10280   7.282   8.901   8.862 -0.0540 -0.7749 -0.3767
  800MOL0     C10281   7.382   8.946   8.784  0.5518 -0.5678  0.5457
  800MOL0     C10282   7.490   9.031   8.824 -0.9230  0.3798  0.5505
  800MOL0     C10283   7.601   8.948   8.890  0.1891  0.2101  0.0489
  800MOL0     C10284   7.687   8.880   8.776  0.4939 -0.4016  0.0288
  800MOL0     C10285   7.807   8.809   8.828  0.7938  0.4742 -0.8047
  800MOL0     O10286   7.897   8.908   8.871 -0.1410 -0.4489  0.5096
  800MOL0     C10287   8.018   8.866   8.920 -0.5593  0.3152  0.1430
  800MOL0     C10288   8.095   8.956   8.992  0.0410  0.0104  0.2735
  800MOL0     C10289   8.222   8.913   9.035 -0.3999 -0.2674  0.0209
  800MOL0     C10290   8.303   9.022   9.110 -0.9951 -0.6292  0.0508
  800MOL0     C10291   8.270   8.783   9.014  0.9871 -0.2046  0.5121
  800MOL0     C10292   8.376   8.716   9.075 -0.5696 -0.2578  0.4918
  800MOL0     O10293   8.408   8.601   9.021 -0.3318  0.7936  0.2471
  800MOL0     C10294   8.544   8.570   9.026 -0.0372 -0.0155  0.0532
  800MOL0     C10295   8.583   8.438   9.039  0.4156  0.0221 -0.0270
  800MOL0     C10296   8.709   8.408   9.040 -0.1450 -0.3411  0.5483
  800MOL0     C10297   8.806   8.509   9.021 -0.4597 -0.2486 -0.0019
  800MOL0     O10298   8.937   8.487   9.013 -0.1330  0.0605  0.0571
  800MOL0     C10299   8.995   8.381   9.081 -0.0747 -0.2256 -0.8182
  800MOL0     C10300   9.155   8.379   9.068 -0.0349 -0.3177 -0.5348
  800MOL0     C10301   9.209   8.281   9.173 -0.3376  0.1428 -0.3793
  800MOL0     C10302   9.357   8.252   9.130 -0.4713  0.3498  0.3107
  800MOL0     C10303   9.439   8.157   9.216  0.1569  0.6573  0.0171
  800MOL0     C10304   9.585   8.191   9.211  0.7932  0.1054  0.6453
  800MOL0     C10305   9.669   8.069   9.247 -0.3054 -0.3003 -0.5317
  800MOL0     C10306   9.812   8.096   9.187  0.0846  0.6165  0.2719
  800MOL0    Cl10307   9.923   7.953   9.201 -0.3745  0.0338 -0.2818
  800MOL0     C10308   8.774   8.637   8.985  0.0221 -0.0814  0.4322
  800MOL0     C10309   8.639   8.664   8.989 -0.5303  0.5900 -0.2490
  800MOL0     O10310   8.429   8.772   9.171  0.6223  0.5458 -0.2636
  800MOL0     C10311   8.179   8.692   8.955 -0.6052  0.2574  0.6819
  800MOL0     C10312   8.062   8.736   8.901 -0.2294 -0.3700 -0.2979
  800MOL0     N10313   7.373   8.887   8.656 -0.6715  0.6129  0.6472
  800MOL0     N10314   7.272   8.805   8.664  0.0990  0.3685  0.4930
  800MOL0     C10315   6.753   8.032   9.440  0.3159 -0.3948 -0.8215
  800MOL0     C10316   6.808   7.931   9.516  0.0305  0.0905 -0.1278
  800MOL0     C10317   6.855   7.533   9.704  0.3979 -0.2451  0.2517
  800MOL0     C10318   6.878   7.549   9.841  1.0917 -0.5072  0.7959
  800MOL0     C10319   6.898   7.436   9.923  0.0289  0.7691  0.5576
  800MOL0     C10320   6.912   7.311   9.871  0.6422  0.4403  1.1248
  800MOL0     O10321   6.948   7.218   9.962 -0.0533 -0.2116 -0.4141
  800MOL0     C10322   6.973   7.087   9.910  0.5760 -0.1894  0.3500
  800MOL0     C10323   7.033   6.984  10.002  0.5156 -0.4139  0.6091
  800MOL0     C10324   7.173   7.012  10.049 -0.3819 -1.0723  0.1545
  800MOL0     C10325   7.239   6.904  10.144  0.5554 -0.5752  0.1432
  800MOL0     C10326   7.258   6.771  10.078  0.5345  0.0567  0.6152
  800MOL0     C10327   7.270   6.664  10.016 -0.6442  0.1887 -0.7969
  800MOL0     C10328   6.903   7.298   9.728  0.2600 -0.1747 -0.0785
  800MOL0     C10329   6.870   7.405   9.643  0.2006 -0.5609  0.0507
  800MOL0     C10330   6.860   7.387   9.494  0.0207 -0.4597 -0.8172
  800MOL0     H10331   6.855   7.712   9.258  1.3826  0.3480  0.1335
  800MOL0     H10332   6.772   7.910   9.133  1.9902  0.6065 -0.5842
  800MOL0     H10333   6.726   8.286   9.338  1.7699  1.5401 -1.9264
  800MOL0     H10334   6.550   8.240   9.309 -1.7406  1.5723 -3.2432
  800MOL0     H10335   6.567   8.322   9.082  0.6312  1.4964 -1.9523
  800MOL0     H10336   6.566   8.429   9.212 -0.0498 -0.2626  0.1183
  800MOL0     H10337   6.839   8.427   9.173 -2.0450  0.4031  2.3716
  800MOL0     H10338   6.792   8.330   9.030  5.4405  2.9043 -1.3712
  800MOL0     H10339   6.672   8.538   8.933  0.5906  3.7039 -1.4912
  800MOL0     H10340   6.676   8.617   9.088 -1.0138 -2.3306  1.3737
  800MOL0     H10341   6.923   8.518   8.950 -1.5058 -0.9823 -0.3829
  800MOL0     H10342   6.910   8.643   9.076 -1.0219 -1.3435  0.4897
  800MOL0     H10343   6.843   8.661   8.761  0.6176  1.2288 -1.2517
  800MOL0     H10344   6.751   8.757   8.871 -0.1665  1.5639 -2.3307
  800MOL0     H10345   6.972   8.831   8.969 -1.5076 -2.6532  1.9505
  800MOL0     H10346   6.959   8.874   8.802 -2.5449  2.0766  2.5876
  800MOL0     H10347   7.135   8.684   8.937 -2.0749  2.3259  1.9069
  800MOL0     H10348   7.085   8.632   8.778  1.6676  0.7852 -0.9563
  800MOL0     H10349   7.266   8.927   8.966 -1.1680  3.7676 -1.4571
  800MOL0     H10350   7.452   9.107   8.892 -1.4424  0.5957  0.0239
  800MOL0     H10351   7.529   9.098   8.746 -0.4998  1.8530  1.9651
  800MOL0     H10352   7.667   9.014   8.947  0.7055  1.9717 -2.4009
  800MOL0     H10353   7.560   8.868   8.952  0.8640 -1.6320 -1.7436
  800MOL0     H10354   7.621   8.818   8.714 -0.8043  0.1662  0.7920
  800MOL0     H10355   7.720   8.962   8.712 -1.8582 -0.8476 -1.9173
  800MOL0     H10356   7.782   8.746   8.913 -1.7935 -0.5415 -2.2082
  800MOL0     H10357   7.843   8.742   8.749  2.0747  0.0313  0.1201
  800MOL0     H10358   8.064   9.057   9.014  0.8466 -0.4100  3.9884
  800MOL0     H10359   8.411   9.007   9.119 -1.0946 -1.3926  0.0097
  800MOL0     H10360   8.269   9.019   9.214  0.9608 -3.2194  0.7388
  800MOL0     H10361   8.291   9.125   9.075  0.6265 -0.2382  0.5426
  800MOL0     H10362   8.515   8.355   9.047  1.4324 -1.1123 -2.3233
  800MOL0     H10363   8.743   8.305   9.045  0.3933 -0.2624 -0.8737
  800MOL0     H10364   8.974   8.394   9.188 -2.0616  0.5335 -1.2500
  800MOL0     H10365   8.955   8.287   9.042  1.0785 -1.5532  1.0005
  800MOL0     H10366   9.170   8.341   8.967 -1.0508  1.1914 -1.2901
  800MOL0     H10367   9.198   8.478   9.085 -1.5248  0.5215 -1.5276
  800MOL0     H10368   9.153   8.187   9.164  0.8581 -0.4638 -1.8478
  800MOL0     H10369   9.197   8.308   9.278 -0.2824 -2.7018  0.4415
  800MOL0     H10370   9.404   8.350   9.129 -1.3937  0.7961 -0.0949
  800MOL0     H10371   9.372   8.218   9.028  0.8453  0.0827  0.5746
  800MOL0     H10372   9.405   8.163   9.320 -0.6876  1.5332 -0.2951
  800MOL0     H10373   9.419   8.056   9.178 -0.8218  0.3828  1.1875
  800MOL0     H10374   9.613   8.285   9.259 -2.6613  1.4632  0.2475
  800MOL0     H10375   9.601   8.197   9.103  0.2857 -2.1220  0.3976
  800MOL0     H10376   9.635   7.974   9.204  0.6798 -0.1120 -1.7895
  800MOL0     H10377   9.689   8.056   9.354  1.6418  2.4805 -0.4538
  800MOL0     H10378   9.855   8.186   9.232  1.3062  1.0382 -1.6099
  800MOL0     H10379   9.809   8.118   9.080 -0.9437  0.5155  0.2740
  800MOL0     H10380   8.858   8.700   8.958  0.6235  0.1587  2.7319
  800MOL0     H10381   8.595   8.750   8.938  2.2176  1.0454 -2.0432
  800MOL0     H10382   8.197   8.587   8.935  1.2478  0.3239  1.7820
  800MOL0     H10383   7.995   8.667   8.850 -0.5567  1.2143 -2.1212
  800MOL0     H10384   6.725   8.124   9.492 -2.3336 -0.3378 -2.2350
  800MOL0     H10385   6.813   7.949   9.623  1.0056  0.7340 -0.2692
  800MOL0     H10386   6.864   7.645   9.890 -1.6765 -2.2020  3.7549
  800MOL0     H10387   6.914   7.453  10.028 -2.1528  2.1810  0.7259
  800MOL0     H10388   6.879   7.039   9.883  1.3694 -1.1766 -0.7633
  800MOL0     H10389   7.049   7.088   9.831  1.8797 -1.7443  1.5133
  800MOL0     H10390   7.026   6.887   9.951 -1.4250 -0.2082  0.4399
  800MOL0     H10391   6.963   6.978  10.086  1.2982 -1.2433  1.2357
  800MOL0     H10392   7.240   7.029   9.964  2.4157 -0.9839  2.2346
  800MOL0     H10393   7.176   7.111  10.097 -3.1429 -0.8233 -0.0326
  800MOL0     H10394   7.182   6.893  10.237 -0.9174  0.1066 -0.6533
  800MOL0     H10395   7.338   6.935  10.179  0.1524 -1.7321  2.5448
  800MOL0     H10396   7.282   6.581   9.950 -1.6005 -1.2843  0.8063
  800MOL0     H10397   6.919   7.212   9.665  2.0853 -0.7316  1.0442
  800MOL0     H10398   6.919   7.471   9.456 -0.0793  1.5420  2.9317
  800MOL0     H10399   6.911   7.299   9.454 -1.2213 -1.1485 -0.9180
  800MOL0     H10400   6.757   7.400   9.459 -0.1749  2.2494  0.4750
  801MOL0     O10401   2.315   0.052  10.909 -0.2387  0.0561 -0.4224
  801MOL0     C10402   2.308   0.093  11.021 -0.3025  0.1896 -0.0055
  801MOL0     O10403   2.417   0.124  11.099  0.8131 -0.0765  0.7140
  801MOL0     C10404   2.543   0.105  11.034  0.4161  0.2125 -0.4654
  801MOL0     C10405   2.643   0.032  11.098  0.0247  0.0289  0.3368
  801MOL0     C10406   2.778   0.019  11.053  0.3094  0.9039 -0.1542
  801MOL0     C10407   2.809   0.063  10.926  0.6605 -0.5582  1.1646
  801MOL0     O10408   2.935   0.053  10.882 -0.7894  0.2921 -0.1501
  801MOL0     C10409   2.955   0.071  10.744 -0.1722  0.0338 -0.4279
  801MOL0     C10410   3.079  -0.004  10.703  0.1510  0.0518  0.0389
  801MOL0     C10411   3.213   0.036  10.776  0.5661 -0.4175 -0.6107
  801MOL0     C10412   3.333  -0.020  10.705  0.2349  0.5373 -0.0842
  801MOL0     C10413   3.470   0.018  10.749  0.8061 -0.4407 -0.3911
  801MOL0     C10414   3.506  -0.043  10.890 -0.1294  0.3448  0.9092
  801MOL0     C10415   3.634   0.013  10.951 -0.9621  0.7524 -0.9306
  801MOL0     C10416   3.621   0.083  11.084 -0.6163  0.5467  0.3250
  801MOL0     N10417   3.753   0.140  11.140 -0.5063  0.3708  0.2658
  801MOL0     C10418   3.788   0.265  11.166 -0.3590  0.2346  0.7393
  801MOL0     C10419   3.902   0.251  11.241  0.4770 -0.4218 -0.1830
  801MOL0     C10420   3.972   0.364  11.327  0.0282  0.1465  0.5746
  801MOL0     C10421   4.012   0.327  11.472  0.5462  0.5943 -0.2332
  801MOL0     C10422   3.885   0.307  11.551 -0.2499  0.0549 -0.4289
  801MOL0     C10423   3.914   0.280  11.696 -0.9395  0.3638  0.0079
  801MOL0     O10424   3.993   0.162  11.718  0.5791 -0.1081 -0.1712
  801MOL0     C10425   4.114   0.180  11.780  0.1512 -1.5708  1.2193
  801MOL0     C10426   4.233   0.162  11.714  0.0587 -0.1981  0.7246
  801MOL0     C10427   4.359   0.168  11.770  0.4177 -0.0122 -0.8539
  801MOL0     C10428   4.481   0.159  11.683 -0.2403  0.6285 -0.3822
  801MOL0     C10429   4.370   0.178  11.920  0.2246  0.1635  0.3792
  801MOL0     C10430   4.493   0.213  11.992 -0.5963 -1.2330  1.0858
  801MOL0     O10431   4.613   0.170  11.945  0.0898 -0.0047  0.2086
  801MOL0     C10432   4.734   0.179  12.010  0.0317 -0.3610  0.0721
  801MOL0     C10433   4.760   0.193  12.150  0.2922  0.5786  0.5623
  801MOL0     C10434   4.887   0.216  12.193  0.5741  0.5796  0.4783
  801MOL0     C10435   4.993   0.206  12.104 -0.9055  0.5673  0.4553
  801MOL0     O10436   5.127   0.211  12.151  0.5992  0.4351  0.1602
  801MOL0     C10437   5.154   0.209  12.289  0.6834  0.2426 -0.2963
  801MOL0     C10438   5.301   0.184  12.322 -0.2465  0.6672 -0.1608
  801MOL0     C10439   5.307   0.174  12.477  1.0873  0.7173  0.5032
  801MOL0     C10440   5.451   0.139  12.524 -0.9248 -0.3582  0.4037
  801MOL0     C10441   5.455   0.092  12.676 -0.6494  0.0310  0.5256
  801MOL0     C10442   5.420   0.198  12.778  0.9527 -0.2300 -0.2609
  801MOL0     C10443   5.512   0.326  12.779 -0.8927  0.4180  0.5096
  801MOL0     C10444   5.479   0.436  12.882 -0.4419  0.3092  0.3422
  801MOL0    Cl10445   5.613   0.565  12.878  0.3783  0.2310 -0.5377
  801MOL0     C10446   4.976   0.176  11.965 -0.0618 -0.4104 -0.2794
  801MOL0     C10447   4.846   0.174  11.923  0.4417 -0.1941 -0.0339
  801MOL0     O10448   4.480   0.282  12.090 -0.8915 -0.1111 -0.4317
  801MOL0     C10449   4.247   0.186  11.989  0.1670 -0.9297  0.7221
  801MOL0     C10450   4.124   0.202  11.919 -0.3683 -0.3295  0.7183
  801MOL0     N10451   3.944   0.122  11.250 -0.1669 -0.6211 -0.0146
  801MOL0     N10452   3.843   0.053  11.203 -0.8236  1.3439 -0.2993
  801MOL0     C10453   2.710   0.141  10.859 -0.5183 -0.1768 -0.0896
  801MOL0     C10454   2.578   0.165  10.918 -0.1703  0.3679  0.0276
  801MOL0     C10455   2.177   0.115  11.081 -0.5926 -0.5206 -0.9210
  801MOL0     C10456   2.160   0.228  11.164 -0.5584  0.7036  0.3363
  801MOL0     C10457   2.036   0.260  11.211 -0.3018  0.6906  0.1578
  801MOL0     C10458   1.922   0.185  11.183 -0.6468 -0.6415 -0.4733
  801MOL0     O10459   1.804   0.221  11.235  0.8373  1.2457 -0.2183
  801MOL0     C10460   1.797   0.340  11.319 -0.7486 -0.3115 -0.1690
  801MOL0     C10461   1.651   0.357  11.349  0.7618  0.2969 -0.2459
  801MOL0     C10462   1.633   0.453  11.468  0.7665 -0.1723 -0.1881
  801MOL0     C10463   1.489   0.449  11.511 -0.1858 -0.2971  0.7622
  801MOL0     C10464   1.465   0.570  11.589  0.4914 -0.1347  0.0983
  801MOL0     C10465   1.480   0.660  11.665  0.1653 -0.4401  0.0461
  801MOL0     C10466   1.944   0.068  11.120  0.1265  0.0362 -0.0907
  801MOL0     C10467   2.064   0.027  11.064 -0.2627  0.3590 -0.4132
  801MOL0     C10468   2.067  -0.106  11.011  0.3114  0.4729  0.2694
  801MOL0     H10469   2.622  -0.017  11.192 -2.8713 -1.7134 -1.0441
  801MOL0     H10470   2.852  -0.034  11.112  1.0075  0.8074 -1.1007
  801MOL0     H10471   2.968   0.178  10.731 -0.4077  0.6014  3.1227
  801MOL0     H10472   2.873   0.036  10.680 -0.7497  1.8587 -0.7213
  801MOL0     H10473   3.062  -0.112  10.707 -0.7261  0.1708 -0.3059
  801MOL0     H10474   3.092   0.016  10.596  0.4753  2.2476  0.4449
  801MOL0     H10475   3.231   0.144  10.779 -0.2937 -0.2834  0.4962
  801MOL0     H10476   3.202   0.003  10.880  0.5731 -0.5738 -0.6591
  801MOL0     H10477   3.332  -0.128  10.721 -2.2273  0.5567  0.1995
  801MOL0     H10478   3.326   0.010  10.600  1.7186 -1.1849 -0.7260
  801MOL0     H10479   3.468   0.128  10.747  4.1280 -0.2434 -3.6612
  801MOL0     H10480   3.541  -0.026  10.679 -1.5992 -2.7132 -1.5709
  801MOL0     H10481   3.421  -0.031  10.958  0.4365  1.3715  1.4660
  801MOL0     H10482   3.521  -0.150  10.878  1.0709  0.4917  0.9392
  801MOL0     H10483   3.684   0.078  10.878  0.7629  1.5483  0.8941
  801MOL0     H10484   3.714  -0.059  10.967 -0.7048  1.4557  1.1869
  801MOL0     H10485   3.547   0.163  11.073 -3.0555 -1.0361  3.4192
  801MOL0     H10486   3.572   0.006  11.145  0.7574 -1.5158 -1.0571
  801MOL0     H10487   3.732   0.357  11.155 -1.1787 -0.0429  2.3363
  801MOL0     H10488   3.905   0.451  11.323  2.6338  2.3591  1.4946
  801MOL0     H10489   4.065   0.389  11.276 -1.0831  2.1634 -0.6277
  801MOL0     H10490   4.069   0.234  11.471 -0.2085  0.1155  0.0569
  801MOL0     H10491   4.072   0.409  11.514 -0.2926  1.0815  0.0365
  801MOL0     H10492   3.822   0.396  11.557 -3.0055 -1.8171  0.5211
  801MOL0     H10493   3.823   0.234  11.499  3.6412 -2.2571 -2.3163
  801MOL0     H10494   3.963   0.364  11.744 -0.4601 -0.4757  1.0242
  801MOL0     H10495   3.820   0.262  11.749 -0.3323 -0.3631  0.8667
  801MOL0     H10496   4.232   0.152  11.606 -0.8578 -0.0916  0.7136
  801MOL0     H10497   4.450   0.124  11.584  0.6660 -1.7449  0.0988
  801MOL0     H10498   4.565   0.097  11.717  2.3358  3.0397 -2.0389
  801MOL0     H10499   4.529   0.257  11.676 -0.4124  0.6680 -1.0730
  801MOL0     H10500   4.683   0.195  12.226 -3.0922  1.0206 -2.5600
  801MOL0     H10501   4.905   0.230  12.299 -1.1525 -0.3442  0.9354
  801MOL0     H10502   5.126   0.302  12.338 -4.0521 -2.0298  2.0400
  801MOL0     H10503   5.096   0.128  12.335 -0.0750  0.1921 -1.3116
  801MOL0     H10504   5.335   0.090  12.279 -1.8486  0.0697 -0.1675
  801MOL0     H10505   5.364   0.267  12.288 -0.0688  1.0675  1.0853
  801MOL0     H10506   5.234   0.101  12.513 -0.1633  0.6896 -1.8954
  801MOL0     H10507   5.285   0.270  12.525  1.4475  1.1269 -0.1391
  801MOL0     H10508   5.515   0.228  12.524  5.2483 -4.1301  2.0211
  801MOL0     H10509   5.497   0.065  12.457  0.0685 -0.8131  1.5518
  801MOL0     H10510   5.386   0.008  12.688 -0.0126 -0.4157  1.1314
  801MOL0     H10511   5.562   0.072  12.691 -0.1031  1.0748 -1.5953
  801MOL0     H10512   5.435   0.142  12.871 -0.5901 -0.6250 -0.2323
  801MOL0     H10513   5.318   0.236  12.777  1.1165  0.2121 -0.9070
  801MOL0     H10514   5.503   0.378  12.683 -0.4378 -0.9624 -0.3206
  801MOL0     H10515   5.613   0.288  12.797 -0.1561  1.0709 -1.8529
  801MOL0     H10516   5.470   0.387  12.980 -1.1719  2.5033  1.4376
  801MOL0     H10517   5.377   0.472  12.866 -0.3052  0.4999 -0.0885
  801MOL0     H10518   5.071   0.167  11.913  2.1745  0.9362  3.2247
  801MOL0     H10519   4.820   0.166  11.817 -0.0898 -4.3125  0.2300
  801MOL0     H10520   4.236   0.196  12.096  0.1777  0.6044  0.6002
  801MOL0     H10521   4.039   0.229  11.980  0.1099  2.4421  0.2892
  801MOL0     H10522   2.732   0.195  10.768  0.0761  0.0114  0.1564
  801MOL0     H10523   2.500   0.212  10.859 -1.1733  0.3284  1.2802
  801MOL0     H10524   2.246   0.286  11.197  0.6237  2.1189 -4.3979
  801MOL0     H10525   2.029   0.348  11.274 -0.5561  0.8066 -0.0286
  801MOL0     H10526   1.859   0.333  11.409 -0.7463 -0.2348 -0.1648
  801MOL0     H10527   1.834   0.427  11.265  1.0829  1.0641  3.0084
  801MOL0     H10528   1.616   0.261  11.388 -0.8783  1.2468  0.7505
  801MOL0     H10529   1.594   0.390  11.261  1.3340  3.7937  0.5434
  801MOL0     H10530   1.694   0.433  11.556 -0.8139 -0.7034  0.8173
  801MOL0     H10531   1.660   0.556  11.441  0.2560  0.1006  0.3095
  801MOL0     H10532   1.477   0.365  11.579  1.5956 -0.2370  1.1913
  801MOL0     H10533   1.423   0.444  11.424 -3.5047  2.5605  2.8039
  801MOL0     H10534   1.480   0.741  11.735 -2.2504  0.7016 -1.1273
  801MOL0     H10535   1.863  -0.004  11.122 -1.0426  1.1993 -2.1691
  801MOL0     H10536   1.996  -0.168  11.067  1.4686  0.0643  1.3370
  801MOL0     H10537   2.033  -0.081  10.910  0.0639  1.9986  0.7160
  801MOL0     H10538   2.161  -0.163  11.004 -1.2246 -2.0896 -4.5366
  802MOL0     O10539   6.164   2.935   2.930 -0.3319  0.1469 -0.0460
  802MOL0     C10540   6.164   3.003   3.039  0.4594 -0.6077  0.2953
  802MOL0     O10541   6.271   3.055   3.103  0.0849 -0.5993  0.2396
  802MOL0     C10542   6.397   3.039   3.058 -0.0140  0.0655 -1.2999
  802MOL0     C10543   6.438   3.007   2.921 -0.5733 -0.2934 -0.0391
  802MOL0     C10544   6.573   2.988   2.892  0.2932  0.7252 -0.9430
  802MOL0     C10545   6.664   3.002   2.992 -0.1776  0.2557 -0.5229
  802MOL0     O10546   6.798   3.001   2.974 -0.3311 -0.8724  0.4286
  802MOL0     C10547   6.863   3.117   2.915  1.1263 -0.4337 -0.4630
  802MOL0     C10548   6.951   3.183   3.015  0.1183 -0.2088 -0.7217
  802MOL0     C10549   7.064   3.082   3.070 -0.0953  0.6904 -0.5386
  802MOL0     C10550   7.138   3.008   2.960 -0.0282  0.1436 -0.0564
  802MOL0     C10551   7.267   2.941   3.015  0.3747  0.3599  0.6007
  802MOL0     C10552   7.364   2.886   2.910  0.9777  0.0539  0.0040
  802MOL0     C10553   7.416   2.987   2.821 -0.8388  0.9705 -0.4032
  802MOL0     C10554   7.545   2.929   2.752 -0.2869 -0.0472 -0.6972
  802MOL0     N10555   7.574   3.017   2.643 -0.4642  0.2528 -1.1957
  802MOL0     C10556   7.525   3.008   2.523  0.4394 -0.1313 -0.2477
  802MOL0     C10557   7.573   3.118   2.455  0.0199 -0.7095 -0.2541
  802MOL0     C10558   7.535   3.154   2.311 -0.2409 -0.1595 -0.3677
  802MOL0     C10559   7.400   3.220   2.307  0.9378  0.0145 -0.1893
  802MOL0     C10560   7.409   3.369   2.288 -0.5664 -0.1756 -0.1419
  802MOL0     C10561   7.278   3.418   2.241  0.2231 -0.1808  0.7729
  802MOL0     O10562   7.292   3.531   2.155 -0.6568 -0.6656  0.0914
  802MOL0     C10563   7.183   3.601   2.116  0.4220 -0.1222  0.2245
  802MOL0     C10564   7.186   3.729   2.084 -0.8184 -0.1718 -0.1837
  802MOL0     C10565   7.080   3.812   2.050  0.0472  0.3794  0.5160
  802MOL0     C10566   7.101   3.951   2.006  0.1076  0.5563 -0.5400
  802MOL0     C10567   6.951   3.751   2.053  0.1149  0.7282 -0.3601
  802MOL0     C10568   6.825   3.824   2.056  0.6222  0.4500 -0.5570
  802MOL0     O10569   6.774   3.851   2.180  0.3606 -0.6455 -0.5042
  802MOL0     C10570   6.667   3.937   2.185 -0.4571  0.6355  0.4317
  802MOL0     C10571   6.678   4.075   2.206 -0.9776  0.2575 -0.1183
  802MOL0     C10572   6.568   4.166   2.210 -0.5545  0.0035  1.2867
  802MOL0     C10573   6.436   4.115   2.192 -1.2116 -0.1610 -0.0988
  802MOL0     O10574   6.328   4.198   2.191  0.1310 -0.2834  0.3029
  802MOL0     C10575   6.268   4.205   2.061 -0.0150  0.2283 -0.0977
  802MOL0     C10576   6.348   4.274   1.952  0.7440 -0.7344  0.5059
  802MOL0     C10577   6.370   4.432   1.974  0.4344  1.0016  0.3842
  802MOL0     C10578   6.242   4.508   1.956  0.4780 -1.1765 -0.3674
  802MOL0     C10579   6.268   4.658   1.940  0.3458  0.1441  0.2991
  802MOL0     C10580   6.133   4.736   1.930  0.0526 -0.2199 -0.3371
  802MOL0     C10581   6.081   4.776   2.068 -0.0819  0.0362 -0.9833
  802MOL0     C10582   5.981   4.894   2.062  0.0605 -0.4551  0.2293
  802MOL0    Cl10583   5.840   4.849   1.965  0.2856 -0.2074  0.0238
  802MOL0     C10584   6.421   3.980   2.175 -0.2400 -0.1271 -0.2082
  802MOL0     C10585   6.537   3.896   2.172 -0.2693 -0.3794  0.6878
  802MOL0     O10586   6.779   3.874   1.952 -0.5634 -0.0925 -0.4089
  802MOL0     C10587   6.943   3.616   2.078 -0.1849 -0.1872  0.3445
  802MOL0     C10588   7.054   3.545   2.120 -0.4349 -0.0098 -0.4744
  802MOL0     N10589   7.671   3.179   2.536  0.3702  1.0805 -0.2819
  802MOL0     N10590   7.665   3.118   2.652 -0.1643 -0.4266  0.2685
  802MOL0     C10591   6.629   3.039   3.123  0.5244  0.0578  0.5372
  802MOL0     C10592   6.497   3.051   3.155 -0.0037  0.3567 -0.1110
  802MOL0     C10593   6.024   3.015   3.105  1.8281 -0.3733 -0.5552
  802MOL0     C10594   5.910   2.945   3.043 -0.0056 -0.4296 -0.4522
  802MOL0     C10595   5.778   2.963   3.073  0.7187  0.3787  0.7012
  802MOL0     C10596   5.742   3.059   3.159 -0.4795 -0.4715  0.7379
  802MOL0     O10597   5.605   3.076   3.178  1.0951  0.2148  0.1916
  802MOL0     C10598   5.576   3.142   3.300 -0.1025 -0.1378 -0.0442
  802MOL0     C10599   5.426   3.172   3.316 -0.3635  0.0307  0.6101
  802MOL0     C10600   5.374   3.278   3.221  0.3240 -0.0667  0.0429
  802MOL0     C10601   5.218   3.296   3.222 -0.7075  0.3520  0.4732
  802MOL0     C10602   5.170   3.369   3.095  0.1038  0.4984 -0.7611
  802MOL0     C10603   5.133   3.424   2.998 -0.5747  0.3924  0.5093
  802MOL0     C10604   5.847   3.126   3.233  0.0109 -0.0483  0.8583
  802MOL0     C10605   5.986   3.097   3.212  0.3090 -0.0016  0.8207
  802MOL0     C10606   6.090   3.177   3.287  0.1711 -0.2043  0.5210
  802MOL0     H10607   6.378   2.991   2.831  0.3241 -0.8754 -0.5568
  802MOL0     H10608   6.615   2.956   2.797  1.9096 -0.0399 -0.0170
  802MOL0     H10609   6.784   3.182   2.875  0.8035 -0.9016 -0.5956
  802MOL0     H10610   6.923   3.086   2.829 -0.3456  0.7511 -1.9839
  802MOL0     H10611   6.997   3.263   2.957 -3.4054 -0.2415 -3.9065
  802MOL0     H10612   6.897   3.226   3.101  1.8145 -3.0645  1.9795
  802MOL0     H10613   7.140   3.136   3.127  1.5515  0.5303 -2.4916
  802MOL0     H10614   7.014   3.012   3.139 -0.2425  1.7285  0.4464
  802MOL0     H10615   7.064   2.940   2.918 -1.9810  2.0999  0.0033
  802MOL0     H10616   7.159   3.078   2.878 -0.6224 -1.2314 -1.4424
  802MOL0     H10617   7.244   2.866   3.091 -2.0789  1.2411  0.8376
  802MOL0     H10618   7.319   3.021   3.069  1.1087 -0.1674  0.6870
  802MOL0     H10619   7.449   2.836   2.957  1.1856  2.4610  2.4528
  802MOL0     H10620   7.308   2.819   2.844 -0.0222 -0.2327  1.1025
  802MOL0     H10621   7.445   3.074   2.880  0.5112 -0.1141  0.6101
  802MOL0     H10622   7.338   3.008   2.748  0.4834  0.9589 -1.8799
  802MOL0     H10623   7.629   2.914   2.821 -1.0317 -1.1273  0.0092
  802MOL0     H10624   7.521   2.829   2.715  0.2123 -0.8358  1.0054
  802MOL0     H10625   7.444   2.943   2.490 -2.8910  2.6611  1.7459
  802MOL0     H10626   7.528   3.067   2.245 -0.0089  0.6125 -1.4378
  802MOL0     H10627   7.613   3.209   2.256 -2.5530  1.6177 -2.1080
  802MOL0     H10628   7.341   3.180   2.224 -0.8491  2.3995 -0.1667
  802MOL0     H10629   7.336   3.194   2.392 -1.2232  1.1323 -1.4053
  802MOL0     H10630   7.436   3.426   2.377 -1.9479  1.0877 -0.4962
  802MOL0     H10631   7.491   3.385   2.218  0.0295 -1.1973  0.2977
  802MOL0     H10632   7.223   3.337   2.193  0.8178  0.3409 -0.8896
  802MOL0     H10633   7.213   3.448   2.324 -0.5574 -0.5584  0.3108
  802MOL0     H10634   7.283   3.773   2.101 -1.0821  0.2542  0.2483
  802MOL0     H10635   7.021   4.019   2.037  1.1424  2.3910 -1.6511
  802MOL0     H10636   7.101   3.965   1.897 -1.4742  4.2202 -0.2341
  802MOL0     H10637   7.192   3.989   2.054 -1.8913  1.0809  3.1447
  802MOL0     H10638   6.776   4.118   2.227 -0.6828  0.3735 -1.5918
  802MOL0     H10639   6.564   4.274   2.221  2.7497  0.4434 -0.5775
  802MOL0     H10640   6.259   4.101   2.028 -0.2971  0.7406 -1.7071
  802MOL0     H10641   6.165   4.242   2.070 -0.1297  0.0711 -0.7177
  802MOL0     H10642   6.445   4.225   1.944  0.5660 -1.3455  1.8380
  802MOL0     H10643   6.289   4.266   1.860 -0.8407  4.4738  0.7596
  802MOL0     H10644   6.449   4.459   1.903 -0.7224  0.7128 -1.0506
  802MOL0     H10645   6.415   4.449   2.073 -1.4232 -5.9049  3.0041
  802MOL0     H10646   6.177   4.505   2.044  1.7820  1.2695  0.7800
  802MOL0     H10647   6.186   4.474   1.869  2.1607  2.1053 -2.9879
  802MOL0     H10648   6.325   4.703   2.022  1.6272  1.7568 -1.3703
  802MOL0     H10649   6.336   4.663   1.854  1.2155 -3.2952  0.6136
  802MOL0     H10650   6.058   4.683   1.869 -1.3213 -0.1132  1.1940
  802MOL0     H10651   6.155   4.831   1.880 -1.6663  1.2030  1.4416
  802MOL0     H10652   6.160   4.792   2.141  0.2289 -0.9062 -1.1002
  802MOL0     H10653   6.029   4.692   2.115 -2.0820  1.4761 -0.4928
  802MOL0     H10654   6.029   4.978   2.011 -0.8285 -0.3301 -0.4270
  802MOL0     H10655   5.940   4.924   2.159 -1.0754  0.3820 -0.4832
  802MOL0     H10656   6.322   3.937   2.179  0.1957 -1.0867  1.2094
  802MOL0     H10657   6.519   3.791   2.150 -0.8038  0.1955 -1.9695
  802MOL0     H10658   6.849   3.562   2.067 -0.0588 -0.3748  0.1774
  802MOL0     H10659   7.018   3.445   2.143 -0.0278  0.1625  0.9766
  802MOL0     H10660   6.710   3.051   3.195  1.6484  0.0166 -0.6735
  802MOL0     H10661   6.476   3.079   3.258 -1.6677 -3.2464  0.7158
  802MOL0     H10662   5.927   2.881   2.957 -1.3019 -2.4933  0.7389
  802MOL0     H10663   5.702   2.910   3.016  1.5722  0.7354 -0.8120
  802MOL0     H10664   5.597   3.066   3.375  0.8554  1.4164  1.3110
  802MOL0     H10665   5.620   3.239   3.323 -3.6602  1.5757  0.3008
  802MOL0     H10666   5.391   3.198   3.416 -1.4602 -0.5704  0.4047
  802MOL0     H10667   5.376   3.078   3.290  0.8403 -0.4657  0.0355
  802MOL0     H10668   5.417   3.374   3.251 -2.2778  0.1779  3.7118
  802MOL0     H10669   5.408   3.251   3.121 -1.4944 -1.0548 -0.3582
  802MOL0     H10670   5.189   3.346   3.315 -3.0594  0.3269 -0.1971
  802MOL0     H10671   5.167   3.199   3.222 -0.9404  0.4068 -1.9954
  802MOL0     H10672   5.122   3.457   2.896  3.1325 -0.5843 -0.3400
  802MOL0     H10673   5.826   3.197   3.312 -3.3147  0.9396 -0.7376
  802MOL0     H10674   6.128   3.260   3.226 -0.5564  0.6044  1.1305
  802MOL0     H10675   6.049   3.227   3.375 -2.9622  2.5846 -2.2026
  802MOL0     H10676   6.172   3.108   3.308 -1.0684 -1.2935  1.9420
  803MOL0     O10677   9.104   9.494   9.150  0.7022 -0.3611 -0.9157
  803MOL0     C10678   9.155   9.384   9.128 -0.2008  0.6519  0.1151
  803MOL0     O10679   9.076   9.274   9.105 -0.8199  0.2294  0.4225
  803MOL0     C10680   8.939   9.283   9.132  0.0139 -0.5588  0.2555
  803MOL0     C10681   8.854   9.268   9.020  0.3358 -0.0168  1.0055
  803MOL0     C10682   8.716   9.281   9.034  0.2155  1.1485  0.1130
  803MOL0     C10683   8.661   9.286   9.169 -0.1579 -0.0627  0.7889
  803MOL0     O10684   8.525   9.289   9.177  0.1514  0.6792  0.0640
  803MOL0     C10685   8.487   9.422   9.216 -0.0840 -0.0856 -0.4431
  803MOL0     C10686   8.338   9.436   9.193  0.8418  0.0126  0.0571
  803MOL0     C10687   8.285   9.414   9.049 -0.5643  0.6093  0.1091
  803MOL0     C10688   8.341   9.541   8.982 -0.6742 -0.4247 -0.8294
  803MOL0     C10689   8.340   9.547   8.828  0.0643 -0.2215 -0.0064
  803MOL0     C10690   8.457   9.472   8.772  1.1987  0.0174 -0.2519
  803MOL0     C10691   8.480   9.503   8.630 -0.0540  0.7419  0.1754
  803MOL0     C10692   8.590   9.425   8.570 -1.0404  0.3723  0.2573
  803MOL0     N10693   8.720   9.443   8.631 -1.4237  0.8650  0.3515
  803MOL0     C10694   8.812   9.349   8.659 -0.9482  0.6050 -1.0133
  803MOL0     C10695   8.933   9.412   8.654 -0.2929 -0.0181 -0.6159
  803MOL0     C10696   9.056   9.343   8.680  0.0726  0.5042 -0.4519
  803MOL0     C10697   9.122   9.330   8.550 -0.3482  0.0946  0.0344
  803MOL0     C10698   9.249   9.244   8.574  0.5631  0.0922  0.9292
  803MOL0     C10699   9.303   9.198   8.441  0.6207 -0.0455 -0.0734
  803MOL0     O10700   9.392   9.083   8.461 -0.2445 -0.0989 -0.4506
  803MOL0     C10701   9.476   9.049   8.356  0.0374 -0.6310 -1.4063
  803MOL0     C10702   9.465   9.098   8.227 -0.2170  0.4249 -0.1501
  803MOL0     C10703   9.555   9.063   8.121 -0.6780  0.0227 -0.0156
  803MOL0     C10704   9.540   9.113   7.988  0.5705 -0.4535  0.7587
  803MOL0     C10705   9.661   8.977   8.151  0.2302 -0.3928 -0.2134
  803MOL0     C10706   9.760   8.926   8.049 -0.2470  0.5849 -0.5622
  803MOL0     O10707   9.724   8.890   7.917  0.2978 -0.0938  0.4185
  803MOL0     C10708   9.834   8.844   7.843 -0.1457 -0.4910  0.1767
  803MOL0     C10709   9.921   8.928   7.778  0.2104 -1.0586  0.2532
  803MOL0     C10710  10.032   8.894   7.697  0.2533  0.5444 -0.6506
  803MOL0     C10711  10.058   8.764   7.670  0.2400  0.1708 -0.1289
  803MOL0     O10712  10.163   8.737   7.581 -0.1369 -0.0404  0.7538
  803MOL0     C10713  10.166   8.603   7.524  0.5752 -0.3785  0.1016
  803MOL0     C10714  10.270   8.595   7.418  0.5330  0.1766  0.0619
  803MOL0     C10715  10.411   8.613   7.464  0.7511  0.0407 -0.3767
  803MOL0     C10716  10.513   8.563   7.357  0.4086 -1.6080  1.1911
  803MOL0     C10717  10.648   8.583   7.406  0.0467  0.5699  0.5951
  803MOL0     C10718  10.754   8.533   7.314 -0.5269 -0.1576  0.1639
  803MOL0     C10719  10.894   8.543   7.387 -0.0155  0.3482  0.8390
  803MOL0     C10720  11.011   8.564   7.295 -0.6979 -0.2870  1.2061
  803MOL0    Cl10721  11.031   8.422   7.183 -0.5384  0.4524 -0.4540
  803MOL0     C10722   9.971   8.673   7.732 -0.0253  1.1188 -0.4043
  803MOL0     C10723   9.863   8.710   7.816 -0.1138  0.6405  0.0243
  803MOL0     O10724   9.882   8.925   8.089 -0.1730 -0.3872 -0.2850
  803MOL0     C10725   9.674   8.933   8.287 -0.8795 -1.1666  0.3822
  803MOL0     C10726   9.586   8.968   8.385 -0.0093 -0.9275 -0.8265
  803MOL0     N10727   8.907   9.549   8.633  0.5481  1.2504  0.2989
  803MOL0     N10728   8.782   9.562   8.629  0.2742 -0.7760  0.0464
  803MOL0     C10729   8.745   9.292   9.274  0.2220  0.2541 -0.0630
  803MOL0     C10730   8.885   9.295   9.263  0.2506 -0.0050 -0.6581
  803MOL0     C10731   9.310   9.370   9.123  0.2421  0.9894  0.0745
  803MOL0     C10732   9.387   9.484   9.144  0.1333 -0.8593 -0.6244
  803MOL0     C10733   9.522   9.482   9.150  0.0387  0.7628 -0.5504
  803MOL0     C10734   9.597   9.364   9.110  0.1854 -0.5588  0.2385
  803MOL0     O10735   9.736   9.339   9.108 -0.0981 -0.3071  0.5168
  803MOL0     C10736   9.825   9.447   9.127 -0.7508 -0.4785 -0.2783
  803MOL0     C10737   9.960   9.414   9.061  0.1981  0.4396 -0.8280
  803MOL0     C10738  10.033   9.318   9.158 -0.3658  0.1938  0.7467
  803MOL0     C10739  10.191   9.293   9.115 -0.2067 -0.4588  0.1723
  803MOL0     C10740  10.186   9.233   8.979 -0.7323  0.7687  0.2327
  803MOL0     C10741  10.201   9.183   8.868  0.0614  0.3578  0.1958
  803MOL0     C10742   9.517   9.258   9.076 -0.5649  0.0702 -0.1060
  803MOL0     C10743   9.376   9.255   9.087 -0.3096 -0.9434 -0.3417
  803MOL0     C10744   9.306   9.123   9.073 -0.6125  0.4552  0.1031
  803MOL0     H10745   8.892   9.246   8.921  0.6579 -0.1057  1.1472
  803MOL0     H10746   8.653   9.265   8.946 -1.7450  0.0950  1.6360
  803MOL0     H10747   8.541   9.493   9.152 -2.7187  1.4148 -1.1953
  803MOL0     H10748   8.521   9.445   9.318  0.1205  0.8258 -0.7076
  803MOL0     H10749   8.276   9.376   9.261 -0.8652 -0.8346 -2.1540
  803MOL0     H10750   8.311   9.540   9.216  4.7077  0.8496  1.7842
  803MOL0     H10751   8.329   9.330   8.995 -0.8993  2.1134 -2.6892
  803MOL0     H10752   8.176   9.400   9.046 -0.6433  1.3109 -1.4557
  803MOL0     H10753   8.273   9.622   9.010 -1.9935 -0.8726 -2.5738
  803MOL0     H10754   8.435   9.581   9.021 -2.1744  2.6640 -0.1198
  803MOL0     H10755   8.353   9.652   8.799 -0.7112 -0.3688 -0.9337
  803MOL0     H10756   8.248   9.507   8.784 -0.3475 -0.9719  1.4928
  803MOL0     H10757   8.547   9.488   8.831  0.4967 -0.8438  1.1345
  803MOL0     H10758   8.442   9.363   8.779 -0.7017  0.2080 -0.8387
  803MOL0     H10759   8.506   9.608   8.611  2.6438  0.0016 -0.7752
  803MOL0     H10760   8.392   9.470   8.574  0.4408  0.4386 -0.4337
  803MOL0     H10761   8.563   9.320   8.587  0.0445 -0.0545 -0.5141
  803MOL0     H10762   8.603   9.450   8.464  1.2274 -0.4436  0.3000
  803MOL0     H10763   8.804   9.241   8.667 -1.0012  0.6890  0.1781
  803MOL0     H10764   9.047   9.243   8.723  0.3856  0.7838  0.2764
  803MOL0     H10765   9.122   9.406   8.740  1.7545  1.2695 -2.9373
  803MOL0     H10766   9.050   9.287   8.479  0.8473  0.3360 -1.3702
  803MOL0     H10767   9.147   9.432   8.517  0.6246  0.1690  0.9587
  803MOL0     H10768   9.332   9.294   8.623  0.8026  2.5533 -1.7410
  803MOL0     H10769   9.233   9.150   8.628 -2.0214 -0.3594 -0.4606
  803MOL0     H10770   9.233   9.169   8.362  2.6374  0.4673 -2.1614
  803MOL0     H10771   9.355   9.285   8.398  0.5288 -1.3813 -3.1687
  803MOL0     H10772   9.379   9.162   8.207 -1.9795 -0.5868  3.4006
  803MOL0     H10773   9.512   9.037   7.915  0.3210 -0.8143  1.2311
  803MOL0     H10774   9.633   9.160   7.955  0.6202 -0.3266  1.0699
  803MOL0     H10775   9.464   9.193   7.989  3.1799  2.2113 -0.0197
  803MOL0     H10776   9.893   9.032   7.793 -0.0687 -0.7159 -2.2423
  803MOL0     H10777  10.089   8.974   7.652 -0.9452  1.3714 -0.7425
  803MOL0     H10778  10.195   8.540   7.609  0.7974 -0.6429 -0.1712
  803MOL0     H10779  10.066   8.578   7.489  0.5866  1.7283 -1.6363
  803MOL0     H10780  10.258   8.495   7.375 -2.7507  0.2352  0.6314
  803MOL0     H10781  10.253   8.670   7.340 -0.2564 -1.0637 -1.0091
  803MOL0     H10782  10.430   8.565   7.561 -0.6025  1.3305  0.5828
  803MOL0     H10783  10.430   8.715   7.499 -0.4891  0.3980 -0.7036
  803MOL0     H10784  10.498   8.618   7.264 -1.0248  0.1022  2.3724
  803MOL0     H10785  10.500   8.459   7.328 -2.2272 -0.7562 -1.0563
  803MOL0     H10786  10.655   8.691   7.417 -3.7168  1.1187 -0.7333
  803MOL0     H10787  10.657   8.546   7.508 -1.0875  0.8255  0.8031
  803MOL0     H10788  10.769   8.603   7.231  1.8694  1.8401  2.1313
  803MOL0     H10789  10.725   8.434   7.276 -1.1716  0.4622 -1.0103
  803MOL0     H10790  10.899   8.442   7.428  1.0959  0.3522  0.7494
  803MOL0     H10791  10.890   8.623   7.461 -1.7240  2.7032 -1.5994
  803MOL0     H10792  11.105   8.584   7.346  0.2941  0.5292 -0.8247
  803MOL0     H10793  10.998   8.658   7.240  2.8533 -0.9351 -1.0328
  803MOL0     H10794   9.981   8.565   7.729  0.1350  1.0589  1.2831
  803MOL0     H10795   9.795   8.635   7.856  2.7176 -0.3986  3.3249
  803MOL0     H10796   9.759   8.873   8.315  0.5409  0.0139 -1.2424
  803MOL0     H10797   9.592   8.941   8.490 -1.3539  4.2585  0.8681
  803MOL0     H10798   8.696   9.295   9.370  0.6222  1.7249  0.1275
  803MOL0     H10799   8.954   9.302   9.346  1.1513 -2.4471 -1.1141
  803MOL0     H10800   9.335   9.575   9.174 -1.2145 -1.5014 -0.9434
  803MOL0     H10801   9.581   9.561   9.195 -0.0586 -0.2831  1.5204
  803MOL0     H10802   9.784   9.532   9.072 -3.4118 -2.5884 -1.8549
  803MOL0     H10803   9.826   9.477   9.232 -2.0445  1.9138 -0.8876
  803MOL0     H10804  10.021   9.500   9.034  1.9101 -0.6003 -0.4341
  803MOL0     H10805   9.949   9.354   8.970  1.9412 -2.5569  0.7416
  803MOL0     H10806  10.029   9.353   9.261  0.8647  0.3126  0.7772
  803MOL0     H10807   9.981   9.223   9.171  2.6057 -1.9588 -1.5937
  803MOL0     H10808  10.244   9.233   9.190  0.0402 -0.7533 -0.2352
  803MOL0     H10809  10.242   9.389   9.111 -2.1832  0.5953 -2.7308
  803MOL0     H10810  10.203   9.143   8.768  1.8975  1.3796 -0.2050
  803MOL0     H10811   9.564   9.164   9.050 -0.3953  0.5494 -1.6650
  803MOL0     H10812   9.246   9.115   8.982  1.0391  2.5185 -1.2717
  803MOL0     H10813   9.379   9.043   9.088  2.8797  3.0899 -1.3574
  803MOL0     H10814   9.240   9.117   9.160 -2.3052  2.0566 -1.0090
  804MOL0     O10815   6.544  10.211   0.930 -0.0994 -0.7969 -0.5495
  804MOL0     C10816   6.444  10.263   0.993 -1.0073  0.3579 -0.3219
  804MOL0     O10817   6.454  10.365   1.075 -0.0111 -0.0754 -0.3930
  804MOL0     C10818   6.562  10.389   1.155  0.7034 -0.6045  0.1641
  804MOL0     C10819   6.664  10.296   1.177 -0.2626 -0.6822 -0.5976
  804MOL0     C10820   6.776  10.335   1.249 -0.1493 -0.3943 -0.4372
  804MOL0     C10821   6.778  10.458   1.313 -0.2520 -0.1424 -0.5366
  804MOL0     O10822   6.868  10.494   1.406  0.3346 -0.2603 -0.0841
  804MOL0     C10823   7.008  10.471   1.371  0.4772  0.6312 -0.3089
  804MOL0     C10824   7.068  10.354   1.456  0.2865 -0.0096 -0.6847
  804MOL0     C10825   7.220  10.357   1.447  0.7118  0.4401  0.1176
  804MOL0     C10826   7.271  10.233   1.521 -0.4482  0.2262  0.2313
  804MOL0     C10827   7.423  10.232   1.503 -0.0097 -0.6681 -1.1170
  804MOL0     C10828   7.496  10.143   1.610  0.4412  0.4027  0.0120
  804MOL0     C10829   7.641  10.140   1.595 -0.3693 -0.9549  0.9933
  804MOL0     C10830   7.692  10.071   1.470  0.4656  0.0211 -0.8363
  804MOL0     N10831   7.817   9.999   1.490  0.4475 -0.1640 -0.0195
  804MOL0     C10832   7.914   9.996   1.388 -0.3198  0.2017 -0.6630
  804MOL0     C10833   7.991   9.889   1.423 -0.1596  0.3036  0.3650
  804MOL0     C10834   8.118   9.841   1.350  0.2899 -0.0712  0.2360
  804MOL0     C10835   8.240   9.914   1.401 -1.3183  0.7049 -0.1374
  804MOL0     C10836   8.362   9.817   1.381  0.6203 -0.0142 -0.3365
  804MOL0     C10837   8.393   9.771   1.234 -0.6234  0.2706  0.1024
  804MOL0     O10838   8.455   9.875   1.155 -0.4780  0.6641 -0.7612
  804MOL0     C10839   8.459   9.875   1.012 -0.5082 -0.2729 -0.2704
  804MOL0     C10840   8.421   9.762   0.938 -0.4791 -0.2682 -0.0959
  804MOL0     C10841   8.412   9.763   0.793 -0.1025 -0.6243 -0.1509
  804MOL0     C10842   8.356   9.647   0.718  0.5689 -0.1097 -0.6684
  804MOL0     C10843   8.456   9.881   0.730 -0.0978 -0.8447 -1.0692
  804MOL0     C10844   8.451   9.897   0.577 -0.0087  0.3701 -0.0456
  804MOL0     O10845   8.393  10.006   0.527  0.2932 -0.1209  0.2432
  804MOL0     C10846   8.400  10.023   0.388 -0.1044 -0.1906 -0.0766
  804MOL0     C10847   8.295   9.976   0.314 -0.4130 -0.0817  0.1218
  804MOL0     C10848   8.288  10.005   0.181 -0.3473  0.4988  0.8595
  804MOL0     C10849   8.388  10.065   0.112  0.3923 -0.8756 -0.0735
  804MOL0     O10850   8.395  10.082  -0.030 -0.6688  0.2106 -0.2640
  804MOL0     C10851   8.303  10.014  -0.113 -0.5483  0.8850  0.5086
  804MOL0     C10852   8.335  10.051  -0.256  0.5036 -0.9059 -0.0135
  804MOL0     C10853   8.208  10.024  -0.342  0.4021 -0.0209  0.1274
  804MOL0     C10854   8.243  10.022  -0.494  0.7809 -1.2638  0.1382
  804MOL0     C10855   8.116   9.997  -0.578 -0.1823 -0.3700  0.6927
  804MOL0     C10856   8.155   9.972  -0.731  0.0353 -0.6348  0.6646
  804MOL0     C10857   8.029   9.948  -0.806  0.0770 -0.5413  0.4240
  804MOL0     C10858   8.040   9.947  -0.961  0.1912 -0.4150 -1.0199
  804MOL0    Cl10859   8.117  10.087  -1.031 -0.3042 -0.1893 -0.2120
  804MOL0     C10860   8.489  10.123   0.189 -0.8925  0.7669 -0.9086
  804MOL0     C10861   8.496  10.110   0.330  0.0155  0.5716 -1.0265
  804MOL0     O10862   8.510   9.814   0.509  0.1804  0.4261  0.0579
  804MOL0     C10863   8.487   9.992   0.805  0.5242  0.2540 -0.2041
  804MOL0     C10864   8.494   9.989   0.944 -0.0853 -0.8959  0.0491
  804MOL0     N10865   7.935   9.826   1.535 -0.2793 -0.3378  0.0109
  804MOL0     N10866   7.828   9.881   1.564  0.0655 -0.4550  0.4593
  804MOL0     C10867   6.684  10.552   1.282  0.5990 -0.3490 -0.3969
  804MOL0     C10868   6.583  10.519   1.201 -0.7322  0.6966  1.1753
  804MOL0     C10869   6.314  10.212   0.950 -0.2480 -0.1936  1.5419
  804MOL0     C10870   6.200  10.278   0.998  0.2008  0.1800  0.9246
  804MOL0     C10871   6.071  10.237   0.963 -0.1803 -0.5047 -0.1160
  804MOL0     C10872   6.046  10.122   0.888 -0.1927 -0.3207  0.1449
  804MOL0     O10873   5.924  10.084   0.843 -0.4978 -0.1947 -0.1057
  804MOL0     C10874   5.810  10.173   0.858 -0.5320 -0.2766  0.1179
  804MOL0     C10875   5.698  10.081   0.816 -0.6039  0.4911  1.2493
  804MOL0     C10876   5.562  10.146   0.831 -0.1681  0.0124  0.1932
  804MOL0     C10877   5.444  10.047   0.857  0.2878 -0.5169  0.0034
  804MOL0     C10878   5.411   9.973   0.732  0.1973  0.2901 -0.6029
  804MOL0     C10879   5.377   9.914   0.637 -0.4885  0.0170  0.6829
  804MOL0     C10880   6.159  10.052   0.850 -0.3545  0.3686 -0.2980
  804MOL0     C10881   6.290  10.097   0.873  0.9895  0.4412  0.3437
  804MOL0     C10882   6.392   9.999   0.816 -0.2137  0.1284 -0.9156
  804MOL0     H10883   6.663  10.189   1.158 -3.3219 -1.1148  1.2052
  804MOL0     H10884   6.839  10.253   1.282 -0.5181 -1.0121 -1.2271
  804MOL0     H10885   7.048  10.567   1.404  0.2544  0.1833  1.3766
  804MOL0     H10886   7.024  10.460   1.263  0.0316  0.3410 -0.3512
  804MOL0     H10887   7.039  10.357   1.561 -0.9800 -5.0648 -0.6407
  804MOL0     H10888   7.023  10.261   1.419 -3.0063  0.6211  1.3786
  804MOL0     H10889   7.261  10.361   1.346  1.9213  1.0315  0.6164
  804MOL0     H10890   7.256  10.444   1.502 -1.0984  0.5299  1.2442
  804MOL0     H10891   7.246  10.239   1.628  0.0643  0.0075  0.3698
  804MOL0     H10892   7.237  10.139   1.477  1.2440  0.6487 -2.1757
  804MOL0     H10893   7.459  10.335   1.505 -3.2261  0.5754 -0.2332
  804MOL0     H10894   7.439  10.195   1.401 -1.3659 -2.2750 -0.7898
  804MOL0     H10895   7.475  10.182   1.710 -4.8109 -1.1304 -0.1799
  804MOL0     H10896   7.451  10.043   1.615 -1.5436  1.3171  2.2432
  804MOL0     H10897   7.663  10.075   1.680 -0.8293 -1.1010  1.0002
  804MOL0     H10898   7.690  10.233   1.625 -1.2523 -0.1953  0.1560
  804MOL0     H10899   7.626  10.001   1.419  1.5510 -0.2249 -1.9612
  804MOL0     H10900   7.699  10.152   1.397  4.2822 -1.6553 -2.6127
  804MOL0     H10901   7.919  10.058   1.299  1.1713  3.4918  1.5135
  804MOL0     H10902   8.102   9.873   1.246  0.7098  2.2810  0.8213
  804MOL0     H10903   8.117   9.734   1.372 -0.6160 -0.8600 -3.0475
  804MOL0     H10904   8.253  10.007   1.345  0.6841  1.6392  1.7125
  804MOL0     H10905   8.235   9.932   1.509  0.1179 -2.3854  0.5625
  804MOL0     H10906   8.453   9.859   1.425  2.1565 -1.8641 -1.5790
  804MOL0     H10907   8.339   9.728   1.440  0.0858  0.1794 -0.2519
  804MOL0     H10908   8.468   9.693   1.251  0.9220  2.2222  3.2233
  804MOL0     H10909   8.305   9.726   1.188 -0.0726 -1.6513  0.8151
  804MOL0     H10910   8.393   9.668   0.984 -0.0808 -1.0627 -1.4511
  804MOL0     H10911   8.252   9.671   0.691 -0.2335  0.5932  2.5648
  804MOL0     H10912   8.349   9.560   0.784 -2.4889  1.3536  1.1953
  804MOL0     H10913   8.427   9.614   0.642  2.0480 -0.4095  0.7959
  804MOL0     H10914   8.214   9.921   0.360 -0.6932 -0.7845 -1.1488
  804MOL0     H10915   8.198   9.974   0.127  2.1838 -2.5112 -2.0429
  804MOL0     H10916   8.330   9.910  -0.096 -0.8156  0.5844 -0.7569
  804MOL0     H10917   8.199  10.044  -0.097 -0.7547  1.2144 -1.1780
  804MOL0     H10918   8.352  10.159  -0.257 -1.4916 -0.5035 -3.1471
  804MOL0     H10919   8.419   9.987  -0.285  1.2251 -0.9749  2.0879
  804MOL0     H10920   8.133  10.100  -0.320 -1.3287  0.0181 -4.7707
  804MOL0     H10921   8.161   9.930  -0.314 -1.4998  0.6439 -0.6750
  804MOL0     H10922   8.304   9.934  -0.512  0.9608 -1.2301  0.5633
  804MOL0     H10923   8.303  10.109  -0.521  0.6149 -0.7911  1.2253
  804MOL0     H10924   8.070   9.903  -0.547 -0.7371 -1.0862 -2.0064
  804MOL0     H10925   8.058  10.089  -0.566  3.8015  2.2683  1.5973
  804MOL0     H10926   8.218   9.883  -0.741 -0.5718 -0.8621 -1.9422
  804MOL0     H10927   8.211  10.053  -0.777  1.5528 -1.9136  0.1521
  804MOL0     H10928   7.951  10.018  -0.775  0.0521 -0.0567 -0.7064
  804MOL0     H10929   7.992   9.850  -0.773  0.6651 -0.4925  1.2536
  804MOL0     H10930   7.950   9.912  -1.011  0.7314 -1.3851 -1.3492
  804MOL0     H10931   8.103   9.860  -0.983  1.8063  0.5533 -0.4183
  804MOL0     H10932   8.576  10.164   0.139  0.9584 -1.4628  0.3031
  804MOL0     H10933   8.551  10.175   0.398 -1.0715 -0.6987  1.1917
  804MOL0     H10934   8.502  10.092   0.765 -1.9470  0.4406 -0.8144
  804MOL0     H10935   8.505  10.085   0.994  0.9935 -1.1279  0.2824
  804MOL0     H10936   6.695  10.649   1.330  0.5821  0.2705 -1.6125
  804MOL0     H10937   6.514  10.598   1.174 -3.4789 -0.2213  4.7619
  804MOL0     H10938   6.201  10.371   1.054 -2.3736  2.2553 -2.1179
  804MOL0     H10939   5.985  10.287   1.005  0.1648 -0.0563  0.0568
  804MOL0     H10940   5.798  10.207   0.961 -1.1057 -0.8511  0.2407
  804MOL0     H10941   5.825  10.254   0.785 -2.8012 -1.9175 -2.3534
  804MOL0     H10942   5.702   9.993   0.881  0.6659 -0.9862 -0.7217
  804MOL0     H10943   5.708  10.042   0.714 -1.1769 -0.2018  1.4458
  804MOL0     H10944   5.570  10.218   0.914 -2.0876 -0.4617  0.8512
  804MOL0     H10945   5.532  10.215   0.752 -0.4291 -1.7070 -1.2591
  804MOL0     H10946   5.355  10.100   0.893  0.6540 -0.0817  0.2820
  804MOL0     H10947   5.478   9.984   0.939  1.7769  1.9770  1.4353
  804MOL0     H10948   5.362   9.847   0.554  0.3766 -0.1583  0.6495
  804MOL0     H10949   6.141   9.960   0.795  0.1650  0.3180 -0.3878
  804MOL0     H10950   6.452  10.054   0.743 -0.7714  1.9155 -0.0974
  804MOL0     H10951   6.455   9.965   0.899  1.0198  0.8354 -1.5362
  804MOL0     H10952   6.345   9.909   0.777 -0.8928 -2.3574  4.6357
  805MOL0     O10953   0.021   4.252   9.253 -0.0210  0.6864 -0.3682
  805MOL0     C10954   0.026   4.134   9.226  0.2499 -0.0485  0.4300
  805MOL0     O10955   0.120   4.045   9.270 -0.2103 -0.0043  0.1364
  805MOL0     C10956   0.220   4.078   9.374 -0.0954 -0.0346  0.5875
  805MOL0     C10957   0.192   4.176   9.479 -0.7111 -0.3833  0.1378
  805MOL0     C10958   0.292   4.200   9.574  0.3936 -0.1957  0.0817
  805MOL0     C10959   0.421   4.141   9.566  0.0610  0.8760  0.7780
  805MOL0     O10960   0.527   4.161   9.650  0.0828  0.2367 -0.2415
  805MOL0     C10961   0.494   4.236   9.771 -0.8439  0.0450 -0.2808
  805MOL0     C10962   0.627   4.262   9.837 -0.2431 -0.1083 -0.3798
  805MOL0     C10963   0.700   4.134   9.887 -0.4925  0.3301  0.4662
  805MOL0     C10964   0.849   4.153   9.850  0.6273  0.1613  0.3226
  805MOL0     C10965   0.942   4.056   9.915  0.2532  0.5461 -0.0303
  805MOL0     C10966   1.068   4.029   9.847 -0.6363  0.5776 -0.1251
  805MOL0     C10967   1.142   4.164   9.816  0.5764  0.3818 -0.2312
  805MOL0     C10968   1.282   4.137   9.753 -0.0956  0.3140 -0.2036
  805MOL0     N10969   1.260   4.110   9.611  0.1698  0.2088  0.4844
  805MOL0     C10970   1.253   3.986   9.551 -0.8287  0.4856  0.0730
  805MOL0     C10971   1.278   4.010   9.422 -0.7935  0.0487  0.1809
  805MOL0     C10972   1.256   3.900   9.323  0.6477 -0.0121 -0.1179
  805MOL0     C10973   1.386   3.831   9.285  0.3804  0.3322 -0.3070
  805MOL0     C10974   1.444   3.902   9.157 -0.5330  0.1894 -0.1296
  805MOL0     C10975   1.585   3.846   9.112 -0.1176 -0.7226 -0.3549
  805MOL0     O10976   1.695   3.901   9.197  0.5438 -0.0844  0.8480
  805MOL0     C10977   1.823   3.886   9.153 -0.2696  0.1293  0.8723
  805MOL0     C10978   1.919   3.967   9.208  0.0356  0.0444  0.4117
  805MOL0     C10979   2.048   3.963   9.172 -0.4709 -0.6489 -0.1254
  805MOL0     C10980   2.149   4.051   9.245 -0.4886  0.1901 -0.3011
  805MOL0     C10981   2.087   3.882   9.059 -0.2064  0.6914 -0.0819
  805MOL0     C10982   2.226   3.887   8.996 -1.0570 -0.5267 -0.8995
  805MOL0     O10983   2.334   3.944   9.072  0.1597  0.7929  0.2826
  805MOL0     C10984   2.450   3.922   9.018  0.2988 -0.2359 -0.1381
  805MOL0     C10985   2.496   3.953   8.885  0.3627 -0.0728  0.4771
  805MOL0     C10986   2.623   3.918   8.845  0.4317 -0.8838 -0.2143
  805MOL0     C10987   2.712   3.857   8.932 -0.0859  0.0575  0.0919
  805MOL0     O10988   2.839   3.824   8.882  0.0175 -0.1871 -0.1193
  805MOL0     C10989   2.945   3.764   8.966  0.7031 -0.4734  0.0384
  805MOL0     C10990   3.034   3.869   9.019 -1.0427  0.0238 -0.3108
  805MOL0     C10991   3.175   3.829   9.065 -0.0282  0.1673 -0.3201
  805MOL0     C10992   3.267   3.954   9.084  0.4431  0.2340  0.0584
  805MOL0     C10993   3.409   3.935   9.116  0.3798 -0.2820 -0.6217
  805MOL0     C10994   3.492   3.885   8.994  0.4823  0.2801  0.0217
  805MOL0     C10995   3.638   3.845   9.040  0.3795  0.1414  0.4600
  805MOL0     C10996   3.716   3.977   9.062 -0.3756  0.0030 -0.8823
  805MOL0    Cl10997   3.732   4.079   8.919 -0.0745 -0.3730  0.3857
  805MOL0     C10998   2.669   3.827   9.065  0.8607 -0.7318 -0.2133
  805MOL0     C10999   2.540   3.858   9.103 -0.5943  0.4658 -0.2447
  805MOL0     O11000   2.238   3.837   8.888 -0.4443  0.8778  0.3434
  805MOL0     C11001   1.984   3.799   9.002  0.0933 -0.3944  0.1272
  805MOL0     C11002   1.855   3.802   9.047  0.3986 -0.2450 -1.1834
  805MOL0     N11003   1.294   4.142   9.394  0.8889 -0.5882 -0.4303
  805MOL0     N11004   1.271   4.203   9.505  0.0453  0.5159 -0.0193
  805MOL0     C11005   0.437   4.040   9.474 -0.5570 -0.6623 -0.0808
  805MOL0     C11006   0.341   4.011   9.376  0.3801 -0.0178 -1.1120
  805MOL0     C11007  -0.074   4.070   9.138  0.5576 -0.0969 -0.0994
  805MOL0     C11008  -0.126   3.944   9.178 -0.3851  0.0524  0.1306
  805MOL0     C11009  -0.222   3.877   9.110  0.7003  1.2264  1.0005
  805MOL0     C11010  -0.273   3.918   8.990  0.1542 -1.1592  0.6644
  805MOL0     O11011  -0.369   3.849   8.923 -0.2515 -0.3755  0.3241
  805MOL0     C11012  -0.424   3.906   8.806  0.7844 -0.2336 -0.7722
  805MOL0     C11013  -0.531   3.812   8.746  0.0942  0.3391  0.8254
  805MOL0     C11014  -0.637   3.757   8.839 -0.2922 -0.3862 -0.1838
  805MOL0     C11015  -0.585   3.671   8.949 -0.3736  0.0157 -0.0780
  805MOL0     C11016  -0.675   3.567   9.004 -0.2675 -0.0893  0.4985
  805MOL0     C11017  -0.749   3.491   9.054  0.6749  0.2440 -0.4427
  805MOL0     C11018  -0.219   4.042   8.944  0.3723  0.6211 -0.1655
  805MOL0     C11019  -0.123   4.118   9.015  0.3094  0.6674 -0.0783
  805MOL0     C11020  -0.072   4.243   8.951 -0.1479 -0.4273  0.0789
  805MOL0     H11021   0.104   4.239   9.477 -0.8302 -0.5192 -2.4660
  805MOL0     H11022   0.280   4.272   9.655 -2.3669 -0.1849 -0.2354
  805MOL0     H11023   0.432   4.180   9.841 -0.4646 -1.4863 -1.1270
  805MOL0     H11024   0.449   4.330   9.737 -2.5887 -1.8253 -3.6687
  805MOL0     H11025   0.695   4.322   9.775 -0.7430 -0.1896 -1.0085
  805MOL0     H11026   0.615   4.335   9.918  1.0220  1.7449 -1.7564
  805MOL0     H11027   0.697   4.136   9.997 -1.5720 -0.9386  0.4852
  805MOL0     H11028   0.651   4.045   9.848  0.7071  0.1613 -0.7279
  805MOL0     H11029   0.867   4.153   9.743  0.5023 -0.3368  0.3014
  805MOL0     H11030   0.882   4.249   9.893 -0.7908 -0.2100  2.4401
  805MOL0     H11031   0.894   3.958   9.923  4.3167 -1.5941  0.5107
  805MOL0     H11032   0.952   4.081  10.021 -1.5025  1.2029  0.0305
  805MOL0     H11033   1.115   3.953   9.911  1.1061  0.4958 -1.4235
  805MOL0     H11034   1.049   3.974   9.754 -4.2456  0.5103  0.5179
  805MOL0     H11035   1.156   4.224   9.907  1.9503  0.2725 -0.3405
  805MOL0     H11036   1.089   4.229   9.745  0.7106  1.0146  0.2336
  805MOL0     H11037   1.355   4.217   9.770  0.3697  0.7520 -3.6525
  805MOL0     H11038   1.330   4.050   9.798 -0.7793 -1.0569 -2.0197
  805MOL0     H11039   1.231   3.890   9.597  0.8874 -0.0605 -0.1511
  805MOL0     H11040   1.199   3.930   9.234 -2.9673 -4.8414  0.1707
  805MOL0     H11041   1.202   3.822   9.377  1.0019 -0.1219  0.0813
  805MOL0     H11042   1.448   3.842   9.374 -1.4765  2.5442  0.8409
  805MOL0     H11043   1.373   3.725   9.264  2.2407 -0.1539  0.7872
  805MOL0     H11044   1.383   3.896   9.066 -2.9718  3.6245  1.0599
  805MOL0     H11045   1.455   4.008   9.180  1.7062  0.0584 -0.4351
  805MOL0     H11046   1.587   3.737   9.118  2.3722 -0.8630 -2.1313
  805MOL0     H11047   1.602   3.872   9.007 -0.8666  0.1048 -0.2893
  805MOL0     H11048   1.888   4.021   9.297  1.6183  2.5823 -0.4871
  805MOL0     H11049   2.095   4.114   9.315  3.3214  1.3801  1.8834
  805MOL0     H11050   2.191   4.126   9.178 -1.9436  1.7273  0.4325
  805MOL0     H11051   2.230   3.998   9.295 -0.2216 -2.2747 -3.0660
  805MOL0     H11052   2.441   4.012   8.811  1.2735  0.7932  0.4667
  805MOL0     H11053   2.644   3.928   8.739 -0.3634 -2.5050 -0.5539
  805MOL0     H11054   2.896   3.699   9.039 -1.3632  0.7334 -0.1904
  805MOL0     H11055   3.005   3.693   8.908  1.7403  0.0180  0.4868
  805MOL0     H11056   3.040   3.947   8.942  0.6155  0.0179 -0.2144
  805MOL0     H11057   2.989   3.919   9.105  0.8203  0.3220  0.5487
  805MOL0     H11058   3.217   3.767   8.985  0.2051 -0.3524  0.1962
  805MOL0     H11059   3.174   3.777   9.161  1.4406  1.4809  0.4458
  805MOL0     H11060   3.217   4.028   9.147 -0.2122 -2.0423  2.4117
  805MOL0     H11061   3.261   4.005   8.987 -1.6380 -3.5531 -2.0702
  805MOL0     H11062   3.445   4.036   9.139  0.2551 -0.4768  0.4988
  805MOL0     H11063   3.418   3.865   9.199 -3.5170 -1.9264 -1.3908
  805MOL0     H11064   3.510   3.965   8.921 -0.0995  0.9596  0.6173
  805MOL0     H11065   3.452   3.799   8.939 -0.4414  1.4497 -1.1772
  805MOL0     H11066   3.690   3.787   8.963  0.3610 -0.1445  0.6619
  805MOL0     H11067   3.645   3.788   9.133 -3.4141  0.0062  0.8138
  805MOL0     H11068   3.816   3.962   9.102  0.5191  0.3194 -2.8613
  805MOL0     H11069   3.665   4.031   9.143  0.0309 -0.3055 -0.4207
  805MOL0     H11070   2.723   3.772   9.142  0.5841 -1.8526 -0.7893
  805MOL0     H11071   2.493   3.832   9.198 -2.6439 -0.5022 -1.4473
  805MOL0     H11072   2.008   3.735   8.917 -1.5344  0.2163 -0.8435
  805MOL0     H11073   1.785   3.729   9.008 -0.6416  0.7378 -1.1905
  805MOL0     H11074   0.533   3.989   9.470  2.0513  3.7924 -0.0809
  805MOL0     H11075   0.365   3.937   9.299  1.3272 -0.3537 -0.5178
  805MOL0     H11076  -0.092   3.908   9.275 -2.0820 -2.8535 -0.2203
  805MOL0     H11077  -0.258   3.786   9.158 -1.1417  1.0069 -0.6587
  805MOL0     H11078  -0.465   4.006   8.823  2.7947  0.2490  1.6815
  805MOL0     H11079  -0.347   3.918   8.729  2.9746 -0.3492  1.2881
  805MOL0     H11080  -0.483   3.729   8.693  2.3331  1.7546  0.5301
  805MOL0     H11081  -0.586   3.871   8.672  1.2025  0.8790  0.4104
  805MOL0     H11082  -0.681   3.845   8.886  0.9468  1.1862 -1.8319
  805MOL0     H11083  -0.720   3.708   8.787  1.3636 -1.9211 -1.5042
  805MOL0     H11084  -0.564   3.740   9.032 -0.0813  0.7379 -0.7338
  805MOL0     H11085  -0.496   3.626   8.905 -0.3855  0.9898 -1.1318
  805MOL0     H11086  -0.823   3.432   9.104  0.4200  3.0162  2.8545
  805MOL0     H11087  -0.246   4.079   8.845  2.1009  1.0958 -0.4886
  805MOL0     H11088  -0.146   4.322   8.963 -0.7415 -0.5725 -2.0998
  805MOL0     H11089   0.017   4.272   9.007  2.3456 -1.7976 -2.8507
  805MOL0     H11090  -0.047   4.240   8.844 -0.1063  0.5327  0.0508
  806MOL0     O11091   7.025   9.590   5.348  0.0098 -0.2335  0.3047
  806MOL0     C11092   6.915   9.619   5.395  0.4965 -0.6185 -0.2251
  806MOL0     O11093   6.899   9.688   5.519 -0.5608  0.7422 -0.5700
  806MOL0     C11094   6.999   9.678   5.614 -0.3079  0.6413  0.4018
  806MOL0     C11095   7.092   9.569   5.631  0.0519 -0.5564  0.1709
  806MOL0     C11096   7.188   9.572   5.734  0.4743  0.4810  0.4415
  806MOL0     C11097   7.192   9.674   5.828  0.6975 -0.2169 -1.0579
  806MOL0     O11098   7.285   9.700   5.923 -0.4451  0.1671  0.2429
  806MOL0     C11099   7.419   9.641   5.918  0.3826 -0.5710 -0.0511
  806MOL0     C11100   7.509   9.702   6.024 -0.3071 -0.9965 -0.0551
  806MOL0     C11101   7.577   9.833   5.965  0.5841 -0.5740  0.1109
  806MOL0     C11102   7.678   9.894   6.072  0.2405 -0.8910  0.5848
  806MOL0     C11103   7.776   9.999   6.027  0.5108  0.0057  0.9288
  806MOL0     C11104   7.897   9.953   5.944 -0.1412 -0.2606  0.5677
  806MOL0     C11105   8.009  10.059   5.950 -0.5954  0.1968  0.5431
  806MOL0     C11106   7.970  10.204   5.896 -0.5199  0.0813  0.8938
  806MOL0     N11107   8.087  10.293   5.917  1.3609  0.2679 -0.4709
  806MOL0     C11108   8.208  10.297   5.868 -0.1830 -0.0482  0.5727
  806MOL0     C11109   8.263  10.422   5.909  0.8491 -0.2734 -0.1893
  806MOL0     C11110   8.410  10.442   5.889 -0.4531 -0.7069  0.4270
  806MOL0     C11111   8.488  10.339   5.977  0.1159  0.7803 -0.0344
  806MOL0     C11112   8.480  10.388   6.127 -0.5648 -0.3070 -0.2382
  806MOL0     C11113   8.619  10.411   6.178 -0.5340 -1.1145  0.3338
  806MOL0     O11114   8.624  10.408   6.322  0.5078 -0.0282  0.6222
  806MOL0     C11115   8.731  10.462   6.385  0.3121 -0.0120 -0.6020
  806MOL0     C11116   8.707  10.521   6.510 -0.0170  0.6326  0.0693
  806MOL0     C11117   8.812  10.558   6.595 -0.5737 -1.0325 -1.0474
  806MOL0     C11118   8.773  10.599   6.729 -0.2970  0.3804 -0.3501
  806MOL0     C11119   8.941  10.564   6.546 -0.6713 -0.5556 -0.8072
  806MOL0     C11120   9.064  10.614   6.622 -0.7717  0.5688 -0.1787
  806MOL0     O11121   9.187  10.570   6.574 -0.1797 -0.2930 -0.0377
  806MOL0     C11122   9.288  10.656   6.607 -0.7088 -0.6113  0.1770
  806MOL0     C11123   9.334  10.760   6.515 -0.3329 -0.6083 -0.6601
  806MOL0     C11124   9.440  10.849   6.545  0.2048  0.4449  0.4263
  806MOL0     C11125   9.509  10.838   6.672 -0.3250  0.0807  0.1425
  806MOL0     O11126   9.622  10.915   6.697  0.0676  0.4033 -0.4090
  806MOL0     C11127   9.615  11.048   6.647  0.1632  1.1639 -0.4423
  806MOL0     C11128   9.714  11.147   6.726 -0.3386  0.3920  0.8502
  806MOL0     C11129   9.858  11.125   6.680 -0.0970  0.0568 -1.1439
  806MOL0     C11130   9.946  11.225   6.734 -0.1990 -1.1209  0.8220
  806MOL0     C11131  10.078  11.215   6.662  0.1020  0.1949  0.3895
  806MOL0     C11132  10.181  11.118   6.730  0.6635 -1.0101 -0.6638
  806MOL0     C11133  10.313  11.118   6.662 -0.5704 -0.5362 -0.6661
  806MOL0     C11134  10.403  11.000   6.701 -0.0865  0.1859 -0.1514
  806MOL0    Cl11135  10.443  11.000   6.874 -0.1268  0.1654 -0.5016
  806MOL0     C11136   9.465  10.738   6.761  0.2864 -0.0185  0.5378
  806MOL0     C11137   9.355  10.651   6.729 -0.0647  1.1252  0.5547
  806MOL0     O11138   9.047  10.675   6.728 -0.0668  0.4451  0.4442
  806MOL0     C11139   8.959  10.508   6.411  0.1873  0.5910 -0.8717
  806MOL0     C11140   8.852  10.471   6.323 -0.2890 -0.4058  0.5653
  806MOL0     N11141   8.173  10.484   5.986 -0.2275 -0.4333  0.6760
  806MOL0     N11142   8.074  10.400   6.000  0.3525 -0.0079  0.4445
  806MOL0     C11143   7.092   9.774   5.819 -0.3653 -0.5720  0.4188
  806MOL0     C11144   6.996   9.775   5.711 -0.3411 -0.3740  0.2663
  806MOL0     C11145   6.792   9.586   5.325 -0.2310  0.3229 -0.1548
  806MOL0     C11146   6.677   9.596   5.399 -0.1708  0.2914 -0.2378
  806MOL0     C11147   6.559   9.553   5.349  1.1284 -0.0988  0.7090
  806MOL0     C11148   6.549   9.491   5.224  0.7152  0.2912 -0.0924
  806MOL0     O11149   6.424   9.435   5.204 -0.6688  0.1721 -0.2418
  806MOL0     C11150   6.409   9.350   5.088  0.0858 -0.4831 -0.3353
  806MOL0     C11151   6.355   9.429   4.969 -0.3661 -0.0911 -0.2259
  806MOL0     C11152   6.211   9.483   5.001 -0.2444  0.4148 -0.7667
  806MOL0     C11153   6.149   9.562   4.883  0.2579 -0.4654  0.1833
  806MOL0     C11154   6.193   9.696   4.871 -0.8129  0.0163 -0.3407
  806MOL0     C11155   6.219   9.810   4.847  0.8580  0.7038  0.3492
  806MOL0     C11156   6.669   9.483   5.151  0.8712  0.0181  0.0015
  806MOL0     C11157   6.786   9.538   5.194 -0.1442  0.2880  0.4239
  806MOL0     C11158   6.894   9.546   5.095 -0.4227 -0.2427 -0.4214
  806MOL0     H11159   7.105   9.498   5.551 -0.9295  2.2445 -2.6663
  806MOL0     H11160   7.264   9.494   5.738 -0.0178 -0.0019  0.3999
  806MOL0     H11161   7.465   9.666   5.821 -0.2509  0.1917 -0.1683
  806MOL0     H11162   7.411   9.534   5.939 -2.2271 -0.6397 -1.0524
  806MOL0     H11163   7.453   9.726   6.115  0.3667 -1.5453  0.5103
  806MOL0     H11164   7.583   9.630   6.057 -0.3308 -0.3734  1.4166
  806MOL0     H11165   7.635   9.809   5.875 -0.5696 -1.8213 -0.3365
  806MOL0     H11166   7.490   9.894   5.944  0.8336  0.5308  2.0689
  806MOL0     H11167   7.614   9.943   6.146 -1.2229 -2.9078  0.7655
  806MOL0     H11168   7.723   9.806   6.118  0.0050 -1.4810 -0.2770
  806MOL0     H11169   7.810  10.039   6.123  2.2689  0.2670  0.2364
  806MOL0     H11170   7.720  10.074   5.970  1.3457 -1.2237 -1.6621
  806MOL0     H11171   7.927   9.863   5.998 -1.9530 -0.1185  1.8876
  806MOL0     H11172   7.880   9.918   5.842 -1.6116 -1.7066  1.2731
  806MOL0     H11173   8.096  10.021   5.895 -0.2326 -2.8428  2.9138
  806MOL0     H11174   8.026  10.069   6.058 -0.5618 -1.2763  0.7050
  806MOL0     H11175   7.931  10.201   5.794 -1.9851  3.8989  1.1699
  806MOL0     H11176   7.891  10.249   5.956  1.4436  0.6487  3.1923
  806MOL0     H11177   8.255  10.222   5.805 -0.5031  0.6540 -0.5306
  806MOL0     H11178   8.449  10.541   5.911  1.5840 -0.9011 -1.8989
  806MOL0     H11179   8.439  10.424   5.785  3.5404 -2.3654  1.6366
  806MOL0     H11180   8.442  10.240   5.975 -1.1771  1.3595 -0.0897
  806MOL0     H11181   8.589  10.327   5.935  0.2498  0.8914  0.2476
  806MOL0     H11182   8.415  10.475   6.134 -1.3680 -0.8466 -0.7892
  806MOL0     H11183   8.436  10.310   6.190 -3.8878  0.8690 -0.9139
  806MOL0     H11184   8.673  10.324   6.139  0.3312 -0.2630 -0.4089
  806MOL0     H11185   8.661  10.500   6.131 -4.5535 -0.6912 -3.0188
  806MOL0     H11186   8.604  10.517   6.542 -0.1538 -0.5073 -0.4850
  806MOL0     H11187   8.828  10.552   6.810  1.1589  0.1181 -1.4532
  806MOL0     H11188   8.666  10.589   6.752 -0.4048 -2.0416 -1.6208
  806MOL0     H11189   8.798  10.706   6.725  1.1190  0.0426 -3.6383
  806MOL0     H11190   9.286  10.778   6.419 -2.3915  0.8557  0.5901
  806MOL0     H11191   9.470  10.907   6.458 -0.4839 -0.8677 -0.7170
  806MOL0     H11192   9.637  11.053   6.540 -1.0301 -0.3032 -0.7963
  806MOL0     H11193   9.518  11.093   6.668 -0.0872  1.4585 -2.0814
  806MOL0     H11194   9.686  11.245   6.686  0.6006  0.0667 -0.6766
  806MOL0     H11195   9.687  11.130   6.830  0.3014  0.1118  0.9779
  806MOL0     H11196   9.863  11.116   6.571  2.7619  2.2524 -1.3109
  806MOL0     H11197   9.890  11.026   6.713  1.2521  0.9301  0.2753
  806MOL0     H11198   9.963  11.213   6.842  3.3825  0.1557  0.5534
  806MOL0     H11199   9.917  11.330   6.722  2.8121 -0.1806  0.8403
  806MOL0     H11200  10.066  11.190   6.556 -1.8139 -0.8161  0.8013
  806MOL0     H11201  10.132  11.310   6.663  1.9309 -0.7816 -0.1206
  806MOL0     H11202  10.137  11.019   6.713 -1.3987 -0.0649 -1.1524
  806MOL0     H11203  10.191  11.141   6.836  0.2129 -0.0954 -0.8173
  806MOL0     H11204  10.362  11.213   6.684  0.4375 -1.1639 -0.1103
  806MOL0     H11205  10.298  11.113   6.554 -0.7394  2.5123 -0.8655
  806MOL0     H11206  10.491  11.002   6.636 -2.2976  2.1723 -3.3360
  806MOL0     H11207  10.341  10.911   6.686  1.7117 -1.0269 -0.7759
  806MOL0     H11208   9.527  10.718   6.848  4.5437  1.2044 -1.8816
  806MOL0     H11209   9.322  10.573   6.797 -0.1109  0.5780 -0.0835
  806MOL0     H11210   9.056  10.486   6.368  1.2749 -0.1491  1.7744
  806MOL0     H11211   8.875  10.427   6.226 -3.3729 -0.9774 -0.0219
  806MOL0     H11212   7.078   9.850   5.895 -0.9182 -0.1752 -0.0652
  806MOL0     H11213   6.914   9.846   5.711 -0.0138  0.1163 -2.8082
  806MOL0     H11214   6.673   9.642   5.497  3.2408 -0.2465  0.3005
  806MOL0     H11215   6.465   9.569   5.400  2.0106  2.5690  1.6816
  806MOL0     H11216   6.507   9.309   5.062 -0.1047 -1.4360  0.3688
  806MOL0     H11217   6.338   9.272   5.118  2.3863 -1.8420  1.9631
  806MOL0     H11218   6.358   9.369   4.878  1.1189 -0.3502 -0.0335
  806MOL0     H11219   6.422   9.514   4.957  1.1918 -1.1196  0.7752
  806MOL0     H11220   6.143   9.400   5.021  0.4204  0.1203  0.3351
  806MOL0     H11221   6.194   9.542   5.092 -2.9073 -1.8770  0.3643
  806MOL0     H11222   6.040   9.562   4.895  0.2044 -0.1417 -0.2846
  806MOL0     H11223   6.185   9.506   4.796  2.1609 -0.7755  1.1292
  806MOL0     H11224   6.250   9.911   4.828 -0.0935  1.5059  2.6897
  806MOL0     H11225   6.657   9.446   5.050 -0.1625  1.5708 -0.4805
  806MOL0     H11226   6.868   9.516   4.993 -2.3619 -1.2878  0.3384
  806MOL0     H11227   6.920   9.652   5.084  2.1516 -0.8119 -0.5854
  806MOL0     H11228   6.985   9.493   5.125  0.0219  1.4558  1.4477
  807MOL0     O11229   7.146   2.622   1.217  0.0210  1.2685 -0.2114
  807MOL0     C11230   7.138   2.501   1.249  0.0015 -0.9040  0.9695
  807MOL0     O11231   7.221   2.429   1.319  0.0974  0.0072  0.0897
  807MOL0     C11232   7.359   2.457   1.306  0.3977  0.5902 -0.2005
  807MOL0     C11233   7.427   2.489   1.422 -0.0918 -0.7582 -0.3378
  807MOL0     C11234   7.564   2.521   1.419  0.7170 -0.5396  0.1355
  807MOL0     C11235   7.642   2.527   1.301 -0.7234  0.6888 -0.1145
  807MOL0     O11236   7.778   2.537   1.334  0.5995 -0.2245  0.1827
  807MOL0     C11237   7.859   2.615   1.241  0.2452 -0.1042  0.4783
  807MOL0     C11238   8.019   2.632   1.260  0.4482 -0.1119  0.2568
  807MOL0     C11239   8.057   2.636   1.412 -0.0660 -0.4586 -0.4561
  807MOL0     C11240   8.199   2.606   1.433 -0.5200 -0.1843  0.0464
  807MOL0     C11241   8.246   2.599   1.580  0.8557  0.4604  0.6002
  807MOL0     C11242   8.390   2.562   1.595 -0.3678 -0.0221  1.1782
  807MOL0     C11243   8.435   2.539   1.736 -0.3434 -0.3760 -1.0606
  807MOL0     C11244   8.581   2.571   1.773 -0.1136 -0.0683  0.6229
  807MOL0     N11245   8.619   2.712   1.774  0.9653  0.1844 -0.3099
  807MOL0     C11246   8.543   2.829   1.795 -0.3155 -0.6171  0.8236
  807MOL0     C11247   8.634   2.932   1.821  0.4629  0.0728  0.2721
  807MOL0     C11248   8.593   3.070   1.863 -0.4232 -0.1759 -1.0709
  807MOL0     C11249   8.596   3.085   2.018 -0.0476 -0.3691  0.2100
  807MOL0     C11250   8.732   3.110   2.073 -0.2620 -0.1329 -0.6147
  807MOL0     C11251   8.735   3.160   2.221  0.7718 -0.6369 -0.2101
  807MOL0     O11252   8.705   3.049   2.307 -0.9354  0.3132 -0.3502
  807MOL0     C11253   8.702   3.088   2.440  0.5608 -0.4253 -0.2743
  807MOL0     C11254   8.603   3.156   2.501  0.6381  0.0222  0.8553
  807MOL0     C11255   8.588   3.180   2.638 -0.5801  1.0048  0.4590
  807MOL0     C11256   8.466   3.254   2.682 -1.0745  0.4261  0.4218
  807MOL0     C11257   8.696   3.130   2.726 -0.3079  0.1106  1.0819
  807MOL0     C11258   8.694   3.138   2.876 -0.1021  0.0296  0.7215
  807MOL0     O11259   8.804   3.089   2.947  0.5900  0.0512  1.0982
  807MOL0     C11260   8.819   3.109   3.085 -0.1666 -0.2183  0.6292
  807MOL0     C11261   8.782   3.223   3.159 -0.1601  0.2310 -0.1427
  807MOL0     C11262   8.784   3.223   3.300 -0.4153 -0.4855  0.4522
  807MOL0     C11263   8.824   3.108   3.359  0.0181  0.0711 -0.9504
  807MOL0     O11264   8.796   3.109   3.498 -0.4849  0.7454 -0.1762
  807MOL0     C11265   8.845   3.004   3.585 -0.3710  0.2023  0.4851
  807MOL0     C11266   8.784   3.047   3.723 -0.0746 -0.5641 -0.1563
  807MOL0     C11267   8.630   3.056   3.724 -0.2836  0.1767 -0.0582
  807MOL0     C11268   8.561   2.995   3.853 -0.1210  0.3370 -0.6164
  807MOL0     C11269   8.405   2.990   3.840  0.0801 -1.0562  0.0998
  807MOL0     C11270   8.358   2.871   3.741  0.0316  0.5980 -0.0338
  807MOL0     C11271   8.203   2.876   3.727 -0.1139  0.2920  0.3413
  807MOL0     C11272   8.157   2.793   3.610  0.5892  0.2142  0.7839
  807MOL0    Cl11273   8.214   2.622   3.616  0.0946  0.7471 -0.1101
  807MOL0     C11274   8.865   3.000   3.292  0.4871  0.9042 -0.3871
  807MOL0     C11275   8.857   2.989   3.155 -0.2212 -0.9834  0.0204
  807MOL0     O11276   8.595   3.182   2.925 -0.3439 -0.0545  0.2845
  807MOL0     C11277   8.799   3.060   2.669  0.0529 -0.1605  0.3973
  807MOL0     C11278   8.798   3.038   2.528 -0.4567  0.2685  0.9855
  807MOL0     N11279   8.757   2.879   1.790  0.5011  0.5346 -0.8591
  807MOL0     N11280   8.748   2.754   1.766 -0.2074  0.0813 -0.6293
  807MOL0     C11281   7.571   2.508   1.182  0.3233 -0.8994 -0.0287
  807MOL0     C11282   7.431   2.474   1.187  0.8457 -0.8390 -0.8870
  807MOL0     C11283   7.016   2.427   1.221 -0.3112 -0.4067 -0.1668
  807MOL0     C11284   6.895   2.487   1.262 -0.5059 -0.3269 -0.4774
  807MOL0     C11285   6.779   2.421   1.246  0.1459 -0.6429  0.6157
  807MOL0     C11286   6.782   2.297   1.190 -0.3783  0.8040 -0.0518
  807MOL0     O11287   6.655   2.239   1.177 -0.1278 -0.2308  0.4186
  807MOL0     C11288   6.635   2.095   1.158 -0.0640  0.1494 -0.3333
  807MOL0     C11289   6.499   2.058   1.207 -0.0779 -0.1272 -0.5709
  807MOL0     C11290   6.474   1.895   1.221  0.4434  0.1896  0.3532
  807MOL0     C11291   6.328   1.853   1.214 -0.6649 -0.3906 -0.6160
  807MOL0     C11292   6.285   1.867   1.072 -0.0315 -1.0947  0.0294
  807MOL0     C11293   6.263   1.892   0.952  0.1090 -0.3763  0.2372
  807MOL0     C11294   6.898   2.234   1.148 -0.1549 -0.2421  0.2338
  807MOL0     C11295   7.019   2.300   1.161  0.8225 -0.0250 -0.1471
  807MOL0     C11296   7.142   2.228   1.126 -0.2873  0.0180 -0.1402
  807MOL0     H11297   7.379   2.471   1.518 -0.2584  0.6277 -0.1396
  807MOL0     H11298   7.615   2.525   1.515  2.2644  0.9896 -0.6827
  807MOL0     H11299   7.819   2.716   1.252  1.6065  0.5171 -0.0645
  807MOL0     H11300   7.836   2.586   1.138 -5.4183 -1.9463  1.8658
  807MOL0     H11301   8.060   2.543   1.211 -1.9920 -0.5780 -1.1128
  807MOL0     H11302   8.067   2.720   1.215  3.1337 -0.8561  1.4798
  807MOL0     H11303   8.022   2.725   1.466 -1.5470 -1.6028  0.5291
  807MOL0     H11304   7.994   2.562   1.461 -0.4724  0.4228  0.3897
  807MOL0     H11305   8.221   2.507   1.391  0.9154 -0.2553  0.8768
  807MOL0     H11306   8.265   2.682   1.390 -2.3234  2.4617  1.6692
  807MOL0     H11307   8.185   2.528   1.636 -1.4673  1.8646 -0.0117
  807MOL0     H11308   8.235   2.694   1.633  1.1248  0.4269  0.7170
  807MOL0     H11309   8.418   2.471   1.541 -2.0687  0.8736 -1.3444
  807MOL0     H11310   8.449   2.642   1.549 -1.7998  0.0850 -0.5406
  807MOL0     H11311   8.419   2.431   1.749  1.0905 -0.6654 -1.5916
  807MOL0     H11312   8.369   2.598   1.801 -0.0734 -0.1457 -0.9957
  807MOL0     H11313   8.608   2.533   1.872 -1.3817  1.3824  1.5747
  807MOL0     H11314   8.638   2.522   1.693  2.0529  0.8006  1.5574
  807MOL0     H11315   8.435   2.839   1.785 -0.3515 -1.6312  0.0147
  807MOL0     H11316   8.496   3.084   1.814 -1.0357  0.4963  0.2645
  807MOL0     H11317   8.664   3.144   1.826  1.2796 -1.7777 -1.1461
  807MOL0     H11318   8.546   3.180   2.040  0.4390 -0.0510 -0.0257
  807MOL0     H11319   8.544   3.004   2.068 -1.6665  2.3760  3.3666
  807MOL0     H11320   8.798   3.024   2.055 -0.5321 -0.3409 -0.6211
  807MOL0     H11321   8.775   3.201   2.031 -1.6571  0.3677 -0.9950
  807MOL0     H11322   8.836   3.201   2.227  1.1578 -1.2502 -1.8974
  807MOL0     H11323   8.659   3.235   2.243  1.1909 -0.4638  0.7262
  807MOL0     H11324   8.538   3.191   2.422  2.2011  0.9208 -0.0888
  807MOL0     H11325   8.497   3.343   2.739 -0.5568 -0.7837  2.0926
  807MOL0     H11326   8.390   3.190   2.727  1.2134 -3.7761 -1.1590
  807MOL0     H11327   8.419   3.299   2.594 -0.2390 -0.3289 -0.4288
  807MOL0     H11328   8.749   3.309   3.102 -0.4713 -0.5534 -1.1881
  807MOL0     H11329   8.743   3.302   3.362  1.4767 -1.6485  3.4154
  807MOL0     H11330   8.819   2.903   3.551  0.4525  0.1286  0.0627
  807MOL0     H11331   8.953   3.013   3.598 -0.3308  0.3762  0.0555
  807MOL0     H11332   8.831   2.997   3.808 -1.6702 -0.1509  1.0030
  807MOL0     H11333   8.822   3.150   3.734 -1.7246  0.3990 -2.5527
  807MOL0     H11334   8.606   3.010   3.628  0.6319  0.8094 -0.6013
  807MOL0     H11335   8.599   3.161   3.723 -0.9849 -0.0154  0.5969
  807MOL0     H11336   8.598   3.059   3.935 -1.4625 -0.7515  0.9038
  807MOL0     H11337   8.597   2.892   3.859  2.6647  1.2234 -0.5121
  807MOL0     H11338   8.364   2.981   3.940 -1.0180  2.4865  0.0946
  807MOL0     H11339   8.369   3.086   3.802  0.6305 -0.2282  1.6014
  807MOL0     H11340   8.383   2.769   3.769  0.1381  0.3440 -1.0216
  807MOL0     H11341   8.414   2.893   3.650  2.5573  2.0122  1.7064
  807MOL0     H11342   8.158   2.975   3.727 -1.6297 -0.3669 -0.1004
  807MOL0     H11343   8.163   2.816   3.810 -0.5159  2.3157  1.6890
  807MOL0     H11344   8.170   2.845   3.515 -1.2473  3.0738  1.9363
  807MOL0     H11345   8.048   2.794   3.611  0.5638 -1.0489  0.7386
  807MOL0     H11346   8.914   2.914   3.337  0.6705  0.5720 -1.2013
  807MOL0     H11347   8.883   2.904   3.092  0.1620 -1.5607  0.9304
  807MOL0     H11348   8.885   3.017   2.719 -0.1627 -0.6249  0.3770
  807MOL0     H11349   8.882   2.985   2.483 -0.9594 -0.0937  0.4597
  807MOL0     H11350   7.615   2.512   1.082 -0.9395 -1.5050 -0.6308
  807MOL0     H11351   7.374   2.458   1.096  2.0976  0.0361 -1.8657
  807MOL0     H11352   6.904   2.580   1.318  0.8820  3.0708 -5.6709
  807MOL0     H11353   6.687   2.469   1.280 -0.0803 -1.1320  0.7019
  807MOL0     H11354   6.642   2.075   1.051 -1.1511 -2.3725  0.0093
  807MOL0     H11355   6.710   2.040   1.216  0.5800  0.5857 -0.7366
  807MOL0     H11356   6.423   2.089   1.134  0.4049  0.7099 -0.7342
  807MOL0     H11357   6.485   2.098   1.308 -1.1806  0.6633 -1.0128
  807MOL0     H11358   6.534   1.843   1.146  2.5977 -1.6577  3.1001
  807MOL0     H11359   6.503   1.859   1.320 -1.0352  1.1995  1.1988
  807MOL0     H11360   6.269   1.899   1.294 -0.3965 -0.1548 -0.5531
  807MOL0     H11361   6.328   1.749   1.248  0.8154 -0.0176  0.6883
  807MOL0     H11362   6.253   1.927   0.851  3.0390  0.8855  0.2865
  807MOL0     H11363   6.889   2.143   1.089  0.1575 -0.2190  0.1498
  807MOL0     H11364   7.199   2.210   1.217  1.8209  0.4486 -1.3079
  807MOL0     H11365   7.115   2.127   1.093  1.1583 -0.0257 -1.3049
  807MOL0     H11366   7.196   2.264   1.037 -1.6777 -1.9964 -1.9203
  808MOL0     O11367   6.632   7.305   6.050  0.6312  0.1247  0.3302
  808MOL0     C11368   6.516   7.351   6.039 -0.4376  0.0895 -0.7854
  808MOL0     O11369   6.452   7.379   5.920  0.3258 -0.0393 -0.1324
  808MOL0     C11370   6.481   7.284   5.825  0.4782  0.0485  0.3488
  808MOL0     C11371   6.386   7.193   5.780 -0.4294 -0.4004  0.2934
  808MOL0     C11372   6.416   7.105   5.671 -0.3743 -0.5706  0.3719
  808MOL0     C11373   6.542   7.105   5.617  0.4814 -0.2601  0.0399
  808MOL0     O11374   6.571   7.032   5.504  0.4262  0.1057  0.2696
  808MOL0     C11375   6.582   7.126   5.393  0.2047  0.0669 -0.4378
  808MOL0     C11376   6.559   7.047   5.264  0.2324  0.1633 -0.1196
  808MOL0     C11377   6.595   7.122   5.126 -0.4619 -0.3414 -0.4844
  808MOL0     C11378   6.605   7.017   5.019  0.4778  0.0771 -0.2068
  808MOL0     C11379   6.633   7.078   4.880 -0.1247  0.1612 -0.1387
  808MOL0     C11380   6.778   7.144   4.872 -0.1666  0.1445 -0.3349
  808MOL0     C11381   6.828   7.165   4.729 -0.2431  0.0180  0.2384
  808MOL0     C11382   6.964   7.228   4.726 -0.4843  0.0359 -0.0796
  808MOL0     N11383   6.962   7.372   4.741  0.0959 -0.0925  0.9173
  808MOL0     C11384   6.988   7.465   4.638 -0.7171 -0.1472 -0.3631
  808MOL0     C11385   7.027   7.576   4.706  0.2840  0.4056  0.2265
  808MOL0     C11386   7.075   7.702   4.637 -0.1633 -0.2286  0.1042
  808MOL0     C11387   7.229   7.727   4.647  0.0302  0.0850 -0.5466
  808MOL0     C11388   7.327   7.644   4.559  0.4403  0.5275  0.1182
  808MOL0     C11389   7.383   7.513   4.615  1.1227 -0.2208 -0.9794
  808MOL0     O11390   7.446   7.430   4.514 -0.1323  0.1478  0.1177
  808MOL0     C11391   7.570   7.477   4.467  1.3270  0.0391 -0.6898
  808MOL0     C11392   7.678   7.493   4.543 -0.3734  0.3036 -0.7893
  808MOL0     C11393   7.794   7.539   4.483 -0.2174 -0.0887  0.1125
  808MOL0     C11394   7.911   7.574   4.577 -0.4209  0.1484  0.5847
  808MOL0     C11395   7.804   7.564   4.349  0.6224  0.0298  0.8237
  808MOL0     C11396   7.926   7.591   4.276 -0.4842 -0.6926 -0.8434
  808MOL0     O11397   8.043   7.538   4.326 -0.4276  0.0735 -0.0545
  808MOL0     C11398   8.162   7.557   4.268 -0.4237  0.2394  0.2766
  808MOL0     C11399   8.191   7.541   4.130  0.2207  0.0500 -0.2854
  808MOL0     C11400   8.319   7.568   4.084 -1.0624 -0.1566 -0.6289
  808MOL0     C11401   8.423   7.605   4.169 -0.7996  0.3482 -0.2190
  808MOL0     O11402   8.546   7.624   4.103  0.3050 -0.1242 -0.2280
  808MOL0     C11403   8.601   7.493   4.072  0.9074  0.4310  0.0462
  808MOL0     C11404   8.725   7.455   4.165  0.5655 -0.4997 -0.1478
  808MOL0     C11405   8.722   7.305   4.187 -0.7115 -0.0760  0.0230
  808MOL0     C11406   8.609   7.266   4.281 -0.6064 -1.1851 -0.2227
  808MOL0     C11407   8.649   7.154   4.365 -0.3985 -0.0008 -0.8590
  808MOL0     C11408   8.684   7.023   4.288  0.3636  0.8143 -0.4419
  808MOL0     C11409   8.724   6.911   4.392 -0.1068  0.2640 -0.1195
  808MOL0     C11410   8.774   6.783   4.335  0.0590 -0.5645  1.0183
  808MOL0    Cl11411   8.811   6.669   4.470  0.0732 -0.0940  0.1075
  808MOL0     C11412   8.397   7.620   4.301  0.8990 -0.0341 -0.6578
  808MOL0     C11413   8.265   7.604   4.354  0.3466  0.1709  0.4679
  808MOL0     O11414   7.903   7.634   4.160 -0.1870 -0.2122  0.2748
  808MOL0     C11415   7.682   7.544   4.269  0.4278  1.1311 -0.1413
  808MOL0     C11416   7.565   7.511   4.333  0.1721  0.2887 -0.8325
  808MOL0     N11417   7.019   7.553   4.836 -0.0794 -0.4693 -0.0739
  808MOL0     N11418   6.975   7.438   4.858  0.0045  0.0579  0.1765
  808MOL0     C11419   6.637   7.195   5.661 -0.0456 -0.6869  0.3551
  808MOL0     C11420   6.603   7.288   5.769  0.0192 -0.3943  0.2337
  808MOL0     C11421   6.466   7.389   6.177  0.2252 -0.2024  0.3128
  808MOL0     C11422   6.526   7.344   6.301  0.5181  0.0740  0.8274
  808MOL0     C11423   6.472   7.365   6.427  0.5653 -0.4431 -0.0120
  808MOL0     C11424   6.346   7.438   6.434 -0.7192  0.8318  0.1844
  808MOL0     O11425   6.280   7.476   6.549  1.0702 -0.1157  0.7953
  808MOL0     C11426   6.208   7.373   6.610  0.1651 -0.1853  0.0088
  808MOL0     C11427   6.279   7.324   6.735  0.2619  0.0287 -0.6208
  808MOL0     C11428   6.302   7.431   6.846 -0.2595 -0.1225  0.0535
  808MOL0     C11429   6.368   7.371   6.966 -0.6737 -0.0368 -0.1447
  808MOL0     C11430   6.491   7.297   6.934  0.6949  0.2511  0.3434
  808MOL0     C11431   6.598   7.252   6.890  0.2736 -0.2436 -0.4979
  808MOL0     C11432   6.298   7.508   6.317 -0.6281  0.2627 -1.0848
  808MOL0     C11433   6.347   7.476   6.195 -0.6757 -0.0171 -0.2128
  808MOL0     C11434   6.269   7.522   6.077  0.2256 -0.2159  0.4793
  808MOL0     H11435   6.285   7.204   5.817 -0.8523  0.9021 -1.1502
  808MOL0     H11436   6.351   7.028   5.633  0.4020 -2.2797  2.2984
  808MOL0     H11437   6.679   7.175   5.388  1.7160 -2.6248  0.5710
  808MOL0     H11438   6.506   7.204   5.406  1.0582  0.9977 -0.9489
  808MOL0     H11439   6.616   6.955   5.279 -0.8957 -0.8304 -1.6056
  808MOL0     H11440   6.456   7.009   5.257  0.7133 -1.1500 -0.4284
  808MOL0     H11441   6.521   7.197   5.098  0.7867  0.4864 -1.6987
  808MOL0     H11442   6.694   7.167   5.138  0.9188 -3.1479 -0.5132
  808MOL0     H11443   6.683   6.945   5.045  2.6843  1.6621 -2.0541
  808MOL0     H11444   6.513   6.957   5.022 -1.8498  3.3103 -1.1189
  808MOL0     H11445   6.555   7.147   4.847 -0.2326 -0.1197 -0.4762
  808MOL0     H11446   6.627   6.993   4.812  0.5880  0.4978 -0.6342
  808MOL0     H11447   6.773   7.239   4.926  1.1343 -1.2389  2.4409
  808MOL0     H11448   6.844   7.083   4.935 -0.8382 -2.0907 -1.6801
  808MOL0     H11449   6.756   7.224   4.671 -0.9362 -0.7691  0.2820
  808MOL0     H11450   6.835   7.070   4.676 -1.4942  1.5961 -3.0457
  808MOL0     H11451   7.024   7.177   4.803 -1.7188  1.0041  1.6107
  808MOL0     H11452   7.014   7.200   4.633 -1.9826 -0.8572 -0.6526
  808MOL0     H11453   6.990   7.444   4.532  0.1857 -1.3294 -0.1284
  808MOL0     H11454   7.041   7.788   4.695  1.0885  1.2817 -1.2794
  808MOL0     H11455   7.054   7.712   4.530 -0.3652 -0.4718  0.1202
  808MOL0     H11456   7.244   7.831   4.620  1.5086  1.0563  3.3196
  808MOL0     H11457   7.271   7.719   4.748  0.0665  1.8982 -0.3911
  808MOL0     H11458   7.282   7.610   4.465  0.6351 -2.1765  0.9410
  808MOL0     H11459   7.406   7.714   4.529  0.8525  0.2163  0.4684
  808MOL0     H11460   7.454   7.541   4.692 -0.2427  1.4529 -0.2581
  808MOL0     H11461   7.294   7.467   4.659  0.7574  1.4013  0.0695
  808MOL0     H11462   7.672   7.487   4.651  2.8497  2.3561 -0.3383
  808MOL0     H11463   7.988   7.496   4.582  1.3123  1.8463  2.1149
  808MOL0     H11464   7.888   7.586   4.683  1.4356 -1.1765  1.1846
  808MOL0     H11465   7.968   7.665   4.556  3.2244 -1.8515  0.9315
  808MOL0     H11466   8.111   7.514   4.061  0.0152  0.5708 -0.2558
  808MOL0     H11467   8.344   7.559   3.979  3.5921 -3.2292  0.4346
  808MOL0     H11468   8.526   7.414   4.071 -0.6715  1.8883 -0.2156
  808MOL0     H11469   8.635   7.494   3.968 -1.8004  1.8616 -0.9173
  808MOL0     H11470   8.813   7.496   4.116  0.4494 -0.5910 -0.4310
  808MOL0     H11471   8.708   7.498   4.265 -2.2891 -1.3633 -0.1660
  808MOL0     H11472   8.818   7.267   4.224 -0.0419  0.5455 -1.0288
  808MOL0     H11473   8.708   7.253   4.092  1.3679 -0.3584 -0.1704
  808MOL0     H11474   8.527   7.226   4.220  0.5752  0.7202 -3.3541
  808MOL0     H11475   8.570   7.353   4.335 -0.6867 -1.5478  0.3052
  808MOL0     H11476   8.736   7.176   4.427 -1.1437 -1.2822  0.7235
  808MOL0     H11477   8.568   7.132   4.435 -1.2991  2.0890 -1.1757
  808MOL0     H11478   8.763   7.039   4.215  2.1448  2.0895  1.6325
  808MOL0     H11479   8.589   6.995   4.241  1.0992 -3.2333  0.0683
  808MOL0     H11480   8.639   6.896   4.459 -0.2317 -1.6664 -0.6700
  808MOL0     H11481   8.800   6.956   4.456 -2.3533 -1.1178  3.8549
  808MOL0     H11482   8.861   6.800   4.270 -0.9703 -0.5466 -0.4109
  808MOL0     H11483   8.698   6.734   4.273  0.4662 -0.5319  0.4819
  808MOL0     H11484   8.480   7.647   4.365 -0.9302  0.5439  1.5875
  808MOL0     H11485   8.245   7.629   4.457 -0.7723 -1.5843  0.7098
  808MOL0     H11486   7.679   7.552   4.161  0.6920  2.0888 -0.0881
  808MOL0     H11487   7.481   7.481   4.270  1.0812 -3.7839 -0.4196
  808MOL0     H11488   6.737   7.200   5.619  0.6155 -0.1690  1.9046
  808MOL0     H11489   6.678   7.360   5.802  0.0113 -1.2174  2.1891
  808MOL0     H11490   6.618   7.287   6.312 -0.6257 -1.6131  2.2338
  808MOL0     H11491   6.507   7.316   6.517  0.7867  2.7695  1.7963
  808MOL0     H11492   6.107   7.406   6.637  0.0199 -0.9317  0.4136
  808MOL0     H11493   6.194   7.282   6.551  2.2296  0.1981 -1.1362
  808MOL0     H11494   6.376   7.279   6.711  1.4446  2.4975 -0.8239
  808MOL0     H11495   6.220   7.244   6.781 -0.4283  1.6729  1.5156
  808MOL0     H11496   6.358   7.514   6.804 -0.6321  0.5431  0.8507
  808MOL0     H11497   6.207   7.475   6.878  0.4979  0.5336  1.5037
  808MOL0     H11498   6.305   7.292   7.008  2.6946 -0.7309  4.3132
  808MOL0     H11499   6.376   7.445   7.046 -0.9888  0.4854 -0.5837
  808MOL0     H11500   6.697   7.225   6.860  0.6827  2.1417 -1.4913
  808MOL0     H11501   6.216   7.579   6.327 -0.2412  0.8262 -1.7668
  808MOL0     H11502   6.177   7.569   6.112 -2.4617 -3.9794 -0.8071
  808MOL0     H11503   6.322   7.590   6.011 -1.7034  1.1185  0.2413
  808MOL0     H11504   6.239   7.431   6.024  1.1799 -0.4850  0.3795
  809MOL0     O11505   5.824   8.369   4.568  0.0796 -0.2242 -0.0879
  809MOL0     C11506   5.795   8.335   4.459 -0.5241  0.3381  0.2349
  809MOL0     O11507   5.885   8.278   4.366  1.2151  0.0136 -0.8301
  809MOL0     C11508   6.010   8.260   4.412 -0.4931  0.8011  0.0215
  809MOL0     C11509   6.112   8.350   4.397  0.0889  0.4721 -1.0750
  809MOL0     C11510   6.246   8.335   4.432  0.1207  0.4637  1.4386
  809MOL0     C11511   6.280   8.205   4.472 -0.4529  0.0171 -0.4391
  809MOL0     O11512   6.414   8.175   4.474  0.7378  0.8247 -0.5454
  809MOL0     C11513   6.464   8.096   4.583 -0.3263  0.0901 -0.1111
  809MOL0     C11514   6.553   7.984   4.528  0.0027  0.2405  0.5138
  809MOL0     C11515   6.694   8.030   4.495  0.3865 -0.2106 -0.2766
  809MOL0     C11516   6.791   8.030   4.611 -0.2733  0.9391  0.0848
  809MOL0     C11517   6.918   8.098   4.557 -0.6277 -0.1996  0.8656
  809MOL0     C11518   7.022   8.101   4.664  0.1109 -0.8342 -0.0178
  809MOL0     C11519   7.157   8.160   4.631  0.2673 -0.3929  0.0631
  809MOL0     C11520   7.174   8.313   4.628  0.3307  0.1246 -0.8347
  809MOL0     N11521   7.159   8.366   4.760  0.1909 -0.3118  0.0366
  809MOL0     C11522   7.047   8.448   4.788  1.2237  0.5862  0.1753
  809MOL0     C11523   7.053   8.468   4.922 -0.9403 -1.1937  0.4404
  809MOL0     C11524   6.946   8.547   4.996  0.1595 -0.8360  0.2574
  809MOL0     C11525   6.982   8.698   5.027  0.5254 -0.2361 -0.1463
  809MOL0     C11526   7.067   8.713   5.151 -1.3141  0.8852  0.5007
  809MOL0     C11527   7.143   8.851   5.148  0.5171  1.0547  0.1128
  809MOL0     O11528   7.215   8.858   5.260 -0.1941  0.7281  0.0826
  809MOL0     C11529   7.338   8.793   5.264 -0.5717  0.0678  0.1377
  809MOL0     C11530   7.385   8.712   5.157 -0.4353  0.2482  0.3176
  809MOL0     C11531   7.511   8.663   5.162 -0.3528  0.2071  1.2091
  809MOL0     C11532   7.551   8.591   5.041 -0.0576  0.8314  0.2995
  809MOL0     C11533   7.595   8.682   5.273 -0.1223  0.2121 -0.1192
  809MOL0     C11534   7.737   8.638   5.280  0.3360  0.0465 -0.3796
  809MOL0     O11535   7.793   8.651   5.402  0.1100 -0.1953 -0.2588
  809MOL0     C11536   7.932   8.638   5.410 -0.8376  0.5541  0.5892
  809MOL0     C11537   8.003   8.512   5.395  0.1340  0.4166  0.3634
  809MOL0     C11538   8.141   8.510   5.428  0.7747  0.0492  1.0258
  809MOL0     C11539   8.212   8.616   5.486  0.3756 -0.4154 -0.3777
  809MOL0     O11540   8.343   8.609   5.541 -0.8428  0.2472  0.1153
  809MOL0     C11541   8.407   8.486   5.556 -0.5459  0.5043  0.4194
  809MOL0     C11542   8.548   8.489   5.506  0.0557 -0.5714 -0.4893
  809MOL0     C11543   8.653   8.542   5.611 -0.2836  0.0536  0.5203
  809MOL0     C11544   8.781   8.587   5.531 -0.6873  0.4470 -0.4042
  809MOL0     C11545   8.871   8.684   5.617  0.6113 -0.2784  0.6566
  809MOL0     C11546   9.009   8.725   5.563  0.1324 -0.0404 -0.2779
  809MOL0     C11547   9.070   8.828   5.655  0.4795 -0.1453 -0.4116
  809MOL0     C11548   9.203   8.890   5.605 -1.0327 -0.4391  0.4130
  809MOL0    Cl11549   9.271   8.994   5.738  0.1506 -0.1980  0.2728
  809MOL0     C11550   8.144   8.740   5.500 -0.5946  0.2801 -0.6929
  809MOL0     C11551   8.007   8.746   5.467  0.6490  0.1660  0.5115
  809MOL0     O11552   7.795   8.596   5.184 -0.1039  0.0753  0.1448
  809MOL0     C11553   7.540   8.748   5.383 -0.2148 -0.2748 -0.3910
  809MOL0     C11554   7.413   8.806   5.374 -0.4290  0.0693 -1.1612
  809MOL0     N11555   7.176   8.425   4.960 -0.5333 -0.1278 -0.0970
  809MOL0     N11556   7.240   8.360   4.865 -0.3596 -0.5852  0.2053
  809MOL0     C11557   6.179   8.108   4.494  1.3702  0.3185  0.1750
  809MOL0     C11558   6.046   8.141   4.456 -0.7269  1.4951 -0.5300
  809MOL0     C11559   5.653   8.354   4.431  0.6913 -0.1283 -0.6816
  809MOL0     C11560   5.592   8.251   4.351 -0.2696  0.1314 -0.3949
  809MOL0     C11561   5.450   8.251   4.336 -0.4055  0.2856  0.0999
  809MOL0     C11562   5.369   8.350   4.391 -0.1363  0.2100  0.5150
  809MOL0     O11563   5.237   8.340   4.368 -1.0539  0.0367  0.0297
  809MOL0     C11564   5.164   8.340   4.491 -1.2777  0.1210  0.2475
  809MOL0     C11565   5.014   8.325   4.456 -0.3512  0.6017 -0.5205
  809MOL0     C11566   4.961   8.429   4.358  0.5617 -0.3656  0.0503
  809MOL0     C11567   4.817   8.387   4.321  0.4842  0.5526  0.7490
  809MOL0     C11568   4.729   8.398   4.431 -0.0765  1.3038 -0.7801
  809MOL0     C11569   4.654   8.380   4.525 -0.6220 -0.0351 -0.3932
  809MOL0     C11570   5.430   8.446   4.468  1.1429  0.2115 -0.2597
  809MOL0     C11571   5.569   8.455   4.490 -0.2172  0.6122  0.5657
  809MOL0     C11572   5.617   8.566   4.580 -0.3620  0.0659  0.3242
  809MOL0     H11573   6.091   8.445   4.350  0.1299 -0.4865 -3.1020
  809MOL0     H11574   6.313   8.419   4.415  0.9797 -0.6378 -0.9390
  809MOL0     H11575   6.384   8.047   4.639  0.7370 -3.4399 -1.3741
  809MOL0     H11576   6.522   8.167   4.644  0.5035 -0.6746  0.0217
  809MOL0     H11577   6.557   7.897   4.594  0.4520  0.2425  0.4902
  809MOL0     H11578   6.499   7.955   4.437  1.5190 -4.2916  0.7962
  809MOL0     H11579   6.744   7.969   4.419  1.6629 -1.5872  1.5765
  809MOL0     H11580   6.688   8.125   4.442  0.8754 -0.7176 -1.2588
  809MOL0     H11581   6.749   8.084   4.696 -0.3218 -0.1227  0.7475
  809MOL0     H11582   6.814   7.927   4.637 -2.4554 -0.2309 -2.2498
  809MOL0     H11583   6.885   8.194   4.514 -0.1702 -1.5392 -2.7782
  809MOL0     H11584   6.969   8.039   4.480  0.5654 -0.3218  1.7279
  809MOL0     H11585   6.981   8.162   4.745  1.8328  1.3980 -0.7391
  809MOL0     H11586   7.029   8.001   4.709  0.2985 -0.5810  0.5260
  809MOL0     H11587   7.195   8.116   4.538 -2.6874 -0.4961 -1.1841
  809MOL0     H11588   7.220   8.123   4.713  2.3786 -1.0031 -1.7476
  809MOL0     H11589   7.274   8.339   4.591  0.8372  2.2988  1.7124
  809MOL0     H11590   7.102   8.357   4.558 -1.5617 -0.3099  0.7358
  809MOL0     H11591   6.965   8.467   4.718  0.7475 -2.6688 -0.3206
  809MOL0     H11592   6.933   8.507   5.097  1.5084  2.3251  1.8583
  809MOL0     H11593   6.858   8.538   4.932  1.0877  1.2081 -1.4449
  809MOL0     H11594   7.019   8.752   4.939 -0.4392 -2.0244 -1.7210
  809MOL0     H11595   6.885   8.744   5.046  1.8127  3.2885 -1.2869
  809MOL0     H11596   7.012   8.699   5.245 -0.1321 -2.2604  0.8545
  809MOL0     H11597   7.137   8.629   5.147 -0.2348  1.8082 -0.9046
  809MOL0     H11598   7.203   8.874   5.060  0.7253 -1.2773 -0.4058
  809MOL0     H11599   7.064   8.927   5.147 -0.2295  0.2915 -0.0696
  809MOL0     H11600   7.324   8.694   5.068  1.3976 -0.5656 -0.8376
  809MOL0     H11601   7.471   8.570   4.969  2.0046 -0.9483 -1.6049
  809MOL0     H11602   7.598   8.499   5.075 -1.3891  0.7154  2.0025
  809MOL0     H11603   7.627   8.643   4.982  1.2779 -1.8380 -0.4585
  809MOL0     H11604   7.944   8.426   5.364  3.1020 -1.8486  0.5275
  809MOL0     H11605   8.181   8.410   5.421  1.6808  0.2818  2.4587
  809MOL0     H11606   8.412   8.463   5.663  1.8642 -0.4748  0.1692
  809MOL0     H11607   8.357   8.410   5.496  2.3886  0.6038 -2.4040
  809MOL0     H11608   8.581   8.390   5.472 -0.9325 -0.5736 -1.5206
  809MOL0     H11609   8.538   8.544   5.412 -3.0673 -1.2767 -0.7095
  809MOL0     H11610   8.688   8.468   5.684 -0.5051  0.2396  0.8135
  809MOL0     H11611   8.604   8.625   5.661  0.7261  2.1830 -1.7974
  809MOL0     H11612   8.754   8.637   5.438 -1.9041 -0.4587 -0.5691
  809MOL0     H11613   8.841   8.498   5.514  0.6837  1.5532 -1.6603
  809MOL0     H11614   8.808   8.771   5.631  1.1303  0.3719 -0.8717
  809MOL0     H11615   8.891   8.641   5.716  2.3802 -0.1349  0.3982
  809MOL0     H11616   9.002   8.765   5.462 -2.3028  0.9579  0.1911
  809MOL0     H11617   9.070   8.634   5.564  0.0068 -0.1980 -2.7663
  809MOL0     H11618   9.097   8.781   5.750  1.7848 -0.4736 -0.9081
  809MOL0     H11619   9.003   8.913   5.665 -1.2934 -1.4097 -0.9794
  809MOL0     H11620   9.183   8.957   5.521 -0.8797 -1.7819 -0.7181
  809MOL0     H11621   9.272   8.809   5.581 -1.7471 -0.4134 -1.8843
  809MOL0     H11622   8.199   8.828   5.530 -0.0938  0.0320 -0.8711
  809MOL0     H11623   7.946   8.836   5.474 -0.1915  0.0655 -3.2777
  809MOL0     H11624   7.605   8.767   5.468  0.3014 -0.1060 -0.8211
  809MOL0     H11625   7.364   8.862   5.453 -1.0063  1.1073 -2.2303
  809MOL0     H11626   6.197   8.006   4.529  1.3567 -0.0258 -0.8011
  809MOL0     H11627   5.965   8.069   4.457 -0.0239  0.6896 -0.7188
  809MOL0     H11628   5.654   8.175   4.305 -2.3860 -1.0057 -1.5451
  809MOL0     H11629   5.400   8.176   4.277 -2.7501  1.8729 -0.0490
  809MOL0     H11630   5.202   8.260   4.555 -0.6375  0.2508  0.0395
  809MOL0     H11631   5.182   8.431   4.548  2.5271 -0.9916  1.1274
  809MOL0     H11632   4.963   8.330   4.553 -0.2072 -3.3885 -0.0617
  809MOL0     H11633   4.994   8.220   4.432 -1.9833 -0.1905  3.5247
  809MOL0     H11634   4.952   8.531   4.396  2.3471 -0.1398 -0.0264
  809MOL0     H11635   5.025   8.442   4.271 -1.4279  0.3213 -1.3655
  809MOL0     H11636   4.814   8.286   4.280  0.2867  1.0580 -0.5416
  809MOL0     H11637   4.777   8.451   4.242  1.1782  2.0657  1.5812
  809MOL0     H11638   4.582   8.379   4.604  0.7029 -1.7736  0.8704
  809MOL0     H11639   5.379   8.530   4.514  1.4936  0.3508 -0.1146
  809MOL0     H11640   5.613   8.543   4.686  0.5804  2.4180  0.9368
  809MOL0     H11641   5.719   8.597   4.551 -1.2226  2.7904 -0.1302
  809MOL0     H11642   5.572   8.663   4.554 -0.1006  0.3426  0.8943
  810MOL0     O11643   2.564   6.953   6.065 -0.4040 -0.4235 -0.5661
  810MOL0     C11644   2.584   6.832   6.097 -0.6089 -1.1901  0.0501
  810MOL0     O11645   2.700   6.765   6.085  0.0234 -0.0797  1.0404
  810MOL0     C11646   2.811   6.843   6.067  0.3059 -1.0008  0.0757
  810MOL0     C11647   2.910   6.795   5.976  0.1186 -0.3540 -0.4422
  810MOL0     C11648   3.023   6.868   5.966 -0.2919 -0.7669 -0.3474
  810MOL0     C11649   3.047   6.986   6.036  0.5150  0.1673 -0.2763
  810MOL0     O11650   3.168   7.054   6.024  0.1502  0.7444  0.3012
  810MOL0     C11651   3.163   7.196   5.996  0.0660 -0.4584  0.6766
  810MOL0     C11652   3.277   7.228   5.890  0.0065  0.6466  0.0698
  810MOL0     C11653   3.278   7.369   5.830 -0.8592  0.4711 -0.1937
  810MOL0     C11654   3.226   7.374   5.687  0.4136  0.3000  0.2831
  810MOL0     C11655   3.237   7.512   5.630  0.4969  0.2196  0.3378
  810MOL0     C11656   3.116   7.592   5.662 -0.0077 -0.9349 -0.3217
  810MOL0     C11657   3.131   7.733   5.603  0.8260  0.1863  0.9499
  810MOL0     C11658   3.006   7.818   5.638  0.9476  1.1587  0.1964
  810MOL0     N11659   3.005   7.865   5.774 -0.2728  0.8804  0.0520
  810MOL0     C11660   2.935   7.810   5.876  0.8934  0.3764  0.6322
  810MOL0     C11661   2.967   7.882   5.988 -0.3747 -0.4181 -0.7304
  810MOL0     C11662   2.895   7.867   6.123  0.3783  0.4198 -0.0307
  810MOL0     C11663   2.857   8.002   6.180 -0.1215  0.4701  0.1891
  810MOL0     C11664   2.836   8.002   6.326 -0.1005 -0.4733 -0.3405
  810MOL0     C11665   2.972   8.020   6.406 -0.3448  0.3120 -0.0751
  810MOL0     O11666   3.033   8.150   6.393 -0.6101 -0.0099  0.6617
  810MOL0     C11667   3.171   8.152   6.381 -0.5659  1.4271 -0.4843
  810MOL0     C11668   3.251   8.129   6.265 -0.7019  0.6100  0.2564
  810MOL0     C11669   3.395   8.125   6.284  0.2490  0.2674  0.5153
  810MOL0     C11670   3.471   8.104   6.155 -1.2262  0.4454 -0.4488
  810MOL0     C11671   3.459   8.140   6.412 -0.0487  0.1076 -0.9354
  810MOL0     C11672   3.608   8.119   6.441  0.3894 -0.1246  0.3195
  810MOL0     O11673   3.684   8.055   6.352 -0.1562 -0.0385  0.6119
  810MOL0     C11674   3.813   8.010   6.379  0.6718  0.3394  0.1203
  810MOL0     C11675   3.838   7.886   6.445 -0.1839  0.5568  0.4482
  810MOL0     C11676   3.967   7.826   6.445 -0.2964 -0.4478 -0.2436
  810MOL0     C11677   4.073   7.902   6.389 -0.1294  0.5187  0.8027
  810MOL0     O11678   4.209   7.874   6.413  0.2761  0.0972  0.2283
  810MOL0     C11679   4.254   7.738   6.432  0.6256 -0.2946 -0.6533
  810MOL0     C11680   4.375   7.724   6.525 -0.3575 -0.0157 -0.0526
  810MOL0     C11681   4.413   7.574   6.541 -0.2978 -0.0584 -0.6128
  810MOL0     C11682   4.531   7.535   6.448  0.1373  0.8840  0.1858
  810MOL0     C11683   4.540   7.381   6.465  0.5379  0.6829  0.5149
  810MOL0     C11684   4.668   7.301   6.440 -1.0866 -0.3944 -0.0397
  810MOL0     C11685   4.717   7.321   6.300  0.0473 -1.4503  0.3336
  810MOL0     C11686   4.840   7.243   6.265 -0.9149 -0.5883  0.6959
  810MOL0    Cl11687   4.975   7.326   6.355 -0.0651  0.3179  0.4530
  810MOL0     C11688   4.046   8.033   6.331  0.5960  0.0277 -0.1864
  810MOL0     C11689   3.919   8.083   6.321 -0.3677  0.0277  0.2330
  810MOL0     O11690   3.646   8.159   6.552 -0.2925  0.0424  0.8441
  810MOL0     C11691   3.376   8.168   6.521 -0.4983 -1.2059  0.2727
  810MOL0     C11692   3.237   8.183   6.502 -0.9813 -0.1875  0.1698
  810MOL0     N11693   3.046   7.983   5.946 -0.4569 -0.3969 -0.1684
  810MOL0     N11694   3.078   7.969   5.817  0.2264  0.0235 -1.1102
  810MOL0     C11695   2.957   7.026   6.135 -0.0834 -0.3176 -0.9461
  810MOL0     C11696   2.831   6.960   6.144 -1.0820 -0.3461 -0.1069
  810MOL0     C11697   2.457   6.762   6.133 -1.0049  0.4223 -0.9270
  810MOL0     C11698   2.349   6.833   6.195  0.2182 -0.2473 -0.4100
  810MOL0     C11699   2.232   6.768   6.237 -0.3340  0.3627  0.0302
  810MOL0     C11700   2.212   6.623   6.209 -0.4541 -0.4371  0.1358
  810MOL0     O11701   2.095   6.546   6.235  0.1591 -0.5130  0.4175
  810MOL0     C11702   2.073   6.415   6.179 -0.0194  0.4033  0.6867
  810MOL0     C11703   2.042   6.423   6.023  0.2971  0.3387 -0.8716
  810MOL0     C11704   1.890   6.433   5.998 -1.2441  0.4443 -0.0348
  810MOL0     C11705   1.819   6.542   6.068 -0.2201 -0.1013  0.8661
  810MOL0     C11706   1.679   6.539   6.025  0.0068 -0.5460  0.2674
  810MOL0     C11707   1.571   6.539   5.975 -0.1067 -0.8043 -0.5756
  810MOL0     C11708   2.325   6.561   6.150 -1.0282  0.7419 -0.4392
  810MOL0     C11709   2.443   6.625   6.112 -0.8435  0.9254 -0.3573
  810MOL0     C11710   2.534   6.532   6.042  0.7652 -0.3540  0.2328
  810MOL0     H11711   2.888   6.702   5.923  0.0627 -1.7518  1.8844
  810MOL0     H11712   3.097   6.833   5.894 -1.4852 -0.9521 -1.5106
  810MOL0     H11713   3.161   7.250   6.091  3.0964 -1.9875  1.7521
  810MOL0     H11714   3.073   7.216   5.938  0.4989 -0.8323 -0.1509
  810MOL0     H11715   3.372   7.220   5.943  1.2349  0.2607 -2.0651
  810MOL0     H11716   3.288   7.142   5.823  0.0754 -3.9203  5.2552
  810MOL0     H11717   3.212   7.422   5.899 -1.8382 -1.4320  0.4050
  810MOL0     H11718   3.375   7.419   5.837 -0.7830  0.2123  0.7960
  810MOL0     H11719   3.284   7.305   5.626  0.4453  0.5322  0.0506
  810MOL0     H11720   3.122   7.339   5.685  0.5873 -0.5727  2.6592
  810MOL0     H11721   3.241   7.499   5.521  1.2208 -0.0403  0.3891
  810MOL0     H11722   3.330   7.561   5.660  0.9901  0.0698 -0.8624
  810MOL0     H11723   3.034   7.541   5.611  1.1335 -1.3899 -1.7528
  810MOL0     H11724   3.101   7.620   5.767 -0.1488  2.9279 -1.2289
  810MOL0     H11725   3.129   7.725   5.494  0.9272 -1.4549  1.0452
  810MOL0     H11726   3.228   7.776   5.630  1.3199 -0.6451  0.5345
  810MOL0     H11727   2.995   7.906   5.574 -3.1557  0.2473 -0.6272
  810MOL0     H11728   2.923   7.750   5.620  1.9306 -0.0705  0.1975
  810MOL0     H11729   2.866   7.727   5.866 -0.2109  1.4949 -2.3843
  810MOL0     H11730   2.955   7.804   6.188  0.5025  0.3077 -0.2547
  810MOL0     H11731   2.801   7.814   6.101  1.1188 -0.7140 -0.5358
  810MOL0     H11732   2.933   8.078   6.158 -0.1187  0.2473 -0.6026
  810MOL0     H11733   2.766   8.033   6.129 -1.2434 -1.4489  0.9145
  810MOL0     H11734   2.781   8.095   6.346 -1.4463 -0.5202 -3.2984
  810MOL0     H11735   2.775   7.919   6.363 -1.7459  0.0815 -1.6892
  810MOL0     H11736   2.958   8.005   6.513  0.0296  1.8945  0.2130
  810MOL0     H11737   3.047   7.948   6.372  1.9925  2.3045  0.5847
  810MOL0     H11738   3.204   8.090   6.175 -0.7089  1.7311 -0.2462
  810MOL0     H11739   3.513   8.197   6.116  1.2124  0.0667  1.0894
  810MOL0     H11740   3.414   8.056   6.075 -0.8698 -2.3353  0.8397
  810MOL0     H11741   3.554   8.034   6.163 -0.6843  0.2750 -5.0426
  810MOL0     H11742   3.757   7.841   6.502  0.2461 -0.2919  0.3982
  810MOL0     H11743   3.982   7.733   6.498  1.2915 -0.9745 -1.5188
  810MOL0     H11744   4.175   7.683   6.483  0.0503  2.5820  1.8533
  810MOL0     H11745   4.269   7.693   6.333  0.0110 -0.7895 -0.5241
  810MOL0     H11746   4.458   7.787   6.494 -1.8804  1.2946 -1.6264
  810MOL0     H11747   4.343   7.770   6.620 -0.2294 -2.4227  1.2410
  810MOL0     H11748   4.323   7.520   6.512 -1.0155  0.5415  0.4125
  810MOL0     H11749   4.441   7.559   6.646  1.7983 -0.3739 -1.1620
  810MOL0     H11750   4.624   7.587   6.473  0.3832 -0.9788  3.7706
  810MOL0     H11751   4.501   7.572   6.349  0.0973  3.4840  1.0880
  810MOL0     H11752   4.504   7.351   6.564  1.6358 -1.7648  0.2340
  810MOL0     H11753   4.462   7.336   6.403  0.8141 -1.8151  1.8710
  810MOL0     H11754   4.649   7.193   6.446 -0.6504 -0.4473  0.4461
  810MOL0     H11755   4.737   7.323   6.522 -1.0295 -0.3142 -0.1088
  810MOL0     H11756   4.737   7.426   6.280  0.1185 -1.3667  0.8393
  810MOL0     H11757   4.634   7.286   6.238 -0.3590  0.2119 -0.0857
  810MOL0     H11758   4.856   7.240   6.157 -2.1433  0.8502  0.4458
  810MOL0     H11759   4.835   7.138   6.297  0.6674 -1.0776 -0.5163
  810MOL0     H11760   4.131   8.098   6.311  1.4756 -0.6601  1.1828
  810MOL0     H11761   3.896   8.180   6.279  0.5071  0.6546  1.1482
  810MOL0     H11762   3.412   8.190   6.621  6.3268  0.0207 -1.9362
  810MOL0     H11763   3.166   8.192   6.584 -5.4572  1.0458 -3.4062
  810MOL0     H11764   2.971   7.103   6.211 -2.3089 -0.5618 -0.2002
  810MOL0     H11765   2.763   6.987   6.224 -2.6139  0.6381 -1.6693
  810MOL0     H11766   2.357   6.935   6.233 -0.5301 -1.4825  3.5567
  810MOL0     H11767   2.151   6.830   6.274  1.2238  4.4423 -2.6426
  810MOL0     H11768   2.160   6.350   6.189  2.7955  3.0930 -3.4085
  810MOL0     H11769   1.985   6.378   6.233 -0.0957  2.6456  2.2456
  810MOL0     H11770   2.093   6.345   5.965  0.5551  0.4162 -0.7473
  810MOL0     H11771   2.087   6.514   5.983  1.2782 -0.4829 -1.6976
  810MOL0     H11772   1.872   6.433   5.891  0.1780 -0.7093 -0.3070
  810MOL0     H11773   1.857   6.335   6.034  0.2558 -1.7650 -4.0761
  810MOL0     H11774   1.861   6.637   6.034 -2.2043  0.0680 -1.3021
  810MOL0     H11775   1.822   6.548   6.177 -0.8366  1.3712  0.8231
  810MOL0     H11776   1.469   6.544   5.943 -0.6005 -2.3277  0.6302
  810MOL0     H11777   2.336   6.453   6.145  0.6651  0.8243  0.6612
  810MOL0     H11778   2.553   6.569   5.941  1.4998 -1.0356  0.1127
  810MOL0     H11779   2.627   6.511   6.094  0.9716  1.0529  0.4659
  810MOL0     H11780   2.490   6.433   6.024  1.5176 -0.4344 -1.3248
  811MOL0     O11781   2.969  10.253   7.891  0.3947  0.1903  0.8400
  811MOL0     C11782   2.900  10.219   7.985 -0.0117 -0.5718  0.2097
  811MOL0     O11783   2.893  10.097   8.034 -0.3371 -0.0177  0.3756
  811MOL0     C11784   2.939   9.990   7.957  0.3912 -0.3501 -0.7648
  811MOL0     C11785   3.075   9.938   7.988  0.4496  1.0602 -0.7319
  811MOL0     C11786   3.127   9.838   7.911 -0.1076 -0.8397  0.0485
  811MOL0     C11787   3.056   9.779   7.806  0.6330  0.6376 -0.1637
  811MOL0     O11788   3.109   9.679   7.729 -0.0478 -0.2932  0.3353
  811MOL0     C11789   3.026   9.557   7.711  0.7375 -0.0144  0.1650
  811MOL0     C11790   3.125   9.450   7.651  0.2117 -0.3192 -0.7729
  811MOL0     C11791   3.242   9.421   7.749 -0.9335 -0.2846 -0.2743
  811MOL0     C11792   3.373   9.376   7.674 -0.4145  0.3135  0.2174
  811MOL0     C11793   3.480   9.323   7.772 -0.4314 -0.1844 -0.8113
  811MOL0     C11794   3.612   9.326   7.702 -0.7698 -0.1589  0.6085
  811MOL0     C11795   3.614   9.193   7.619 -0.1048 -0.0006  0.2599
  811MOL0     C11796   3.734   9.196   7.530 -0.1619 -0.2008  0.8830
  811MOL0     N11797   3.749   9.082   7.443  0.9261 -0.1678  0.2224
  811MOL0     C11798   3.663   9.079   7.328 -0.9442  0.9555  0.9047
  811MOL0     C11799   3.711   8.965   7.256  0.4901 -0.0963 -0.5654
  811MOL0     C11800   3.663   8.901   7.127 -0.5283  0.0912  0.4721
  811MOL0     C11801   3.695   9.002   7.012 -0.0911 -0.8563 -0.0781
  811MOL0     C11802   3.607   8.964   6.888 -0.2915 -0.1489  0.2015
  811MOL0     C11803   3.584   9.089   6.800  0.3942 -0.4163  0.5165
  811MOL0     O11804   3.706   9.134   6.736 -0.7187 -0.2951  0.0619
  811MOL0     C11805   3.762   9.262   6.759  0.4730 -0.6710 -0.4844
  811MOL0     C11806   3.730   9.349   6.865  0.1533 -0.4687 -0.0571
  811MOL0     C11807   3.806   9.464   6.900 -0.6598  0.7435  0.2119
  811MOL0     C11808   3.764   9.546   7.012  0.7627 -0.8811  0.0161
  811MOL0     C11809   3.922   9.494   6.811 -0.5627 -0.3731  0.2275
  811MOL0     C11810   4.003   9.621   6.821  0.1850  0.0255 -0.3584
  811MOL0     O11811   4.133   9.620   6.775 -0.2014 -0.1126  0.5052
  811MOL0     C11812   4.213   9.732   6.760 -0.0654 -0.2223  0.4914
  811MOL0     C11813   4.170   9.851   6.708 -0.4262 -0.6401 -0.0704
  811MOL0     C11814   4.255   9.966   6.698  0.7022 -0.5554 -0.3591
  811MOL0     C11815   4.386   9.953   6.734 -0.1896  0.2728  0.5454
  811MOL0     O11816   4.470  10.060   6.705  0.0259 -0.1361 -0.6738
  811MOL0     C11817   4.615  10.040   6.688 -0.3873  0.6892  0.0070
  811MOL0     C11818   4.675  10.152   6.605 -0.5254 -0.4059  0.2843
  811MOL0     C11819   4.582  10.195   6.491  1.0019 -0.2096 -0.3513
  811MOL0     C11820   4.651  10.302   6.393 -0.5416  0.0075 -0.0629
  811MOL0     C11821   4.756  10.232   6.310  0.2809 -0.0589  0.3233
  811MOL0     C11822   4.862  10.324   6.272 -0.5264 -0.7605  0.3196
  811MOL0     C11823   4.978  10.268   6.172 -0.2832 -0.0620 -0.5579
  811MOL0     C11824   5.095  10.190   6.230  0.2884  1.3480  0.0361
  811MOL0    Cl11825   5.243  10.212   6.132  0.2785  0.0396  0.0802
  811MOL0     C11826   4.431   9.833   6.793  0.3420  0.6951 -0.0868
  811MOL0     C11827   4.345   9.719   6.800 -1.0908 -0.0272  0.3574
  811MOL0     O11828   3.943   9.722   6.855 -0.6814  0.3111 -0.5009
  811MOL0     C11829   3.961   9.403   6.717  0.3263  0.5784 -0.7358
  811MOL0     C11830   3.881   9.294   6.694 -0.2206  0.4967  0.8602
  811MOL0     N11831   3.799   8.901   7.338 -0.8068  0.3228  1.0001
  811MOL0     N11832   3.826   8.972   7.442  0.6407 -0.4501 -0.3463
  811MOL0     C11833   2.918   9.821   7.784 -0.2226  0.4636  0.0592
  811MOL0     C11834   2.866   9.930   7.860  0.6383  0.8959  0.2849
  811MOL0     C11835   2.826  10.330   8.042  0.9309  1.0824 -1.0558
  811MOL0     C11836   2.791  10.441   7.968 -0.5589  0.3665  0.0102
  811MOL0     C11837   2.701  10.539   8.016  0.7073  0.1866  0.8659
  811MOL0     C11838   2.651  10.523   8.149 -0.3328 -0.2479  1.3952
  811MOL0     O11839   2.576  10.612   8.222 -0.5810 -0.5961  0.0848
  811MOL0     C11840   2.607  10.748   8.198  0.1644 -0.5873  0.3681
  811MOL0     C11841   2.596  10.842   8.322  0.0171  1.1935 -1.4318
  811MOL0     C11842   2.459  10.830   8.391  1.1943 -0.6651  0.0664
  811MOL0     C11843   2.436  10.927   8.508  0.2990 -0.4109  0.4901
  811MOL0     C11844   2.543  10.915   8.606  0.1058  0.5763 -1.0751
  811MOL0     C11845   2.629  10.898   8.697  0.5055 -0.7970  0.5498
  811MOL0     C11846   2.698  10.420   8.225 -0.2980 -0.5979 -0.4336
  811MOL0     C11847   2.777  10.316   8.180  0.0118  0.3235  0.5880
  811MOL0     C11848   2.815  10.207   8.279 -0.3784 -0.1587  0.1526
  811MOL0     H11849   3.126   9.990   8.069 -1.2962  0.9365  0.5052
  811MOL0     H11850   3.227   9.801   7.934  0.0335  0.1872  1.1766
  811MOL0     H11851   2.938   9.572   7.649 -1.7491  3.5619  4.0176
  811MOL0     H11852   2.994   9.511   7.805  0.2113  0.0484  0.0180
  811MOL0     H11853   3.076   9.355   7.629 -1.4171  0.3291 -0.0956
  811MOL0     H11854   3.155   9.495   7.556  0.4433  0.0039 -0.5527
  811MOL0     H11855   3.265   9.510   7.808 -0.7210 -0.7261  0.3223
  811MOL0     H11856   3.215   9.344   7.822  0.0466 -1.5526 -1.1848
  811MOL0     H11857   3.350   9.303   7.597  1.5603  1.3815 -1.4945
  811MOL0     H11858   3.417   9.467   7.632 -0.9090  1.0909  1.3209
  811MOL0     H11859   3.456   9.220   7.796  2.4750 -1.4210 -2.5916
  811MOL0     H11860   3.485   9.394   7.855 -0.6277  0.8307 -1.6302
  811MOL0     H11861   3.622   9.419   7.646 -0.5137 -1.1342 -1.0293
  811MOL0     H11862   3.699   9.328   7.768 -0.2814  1.0967 -0.0440
  811MOL0     H11863   3.529   9.189   7.551  1.1307  1.7543 -1.4823
  811MOL0     H11864   3.612   9.099   7.676  2.6781  0.0703  0.6127
  811MOL0     H11865   3.730   9.287   7.469  1.1357  0.0387  1.1262
  811MOL0     H11866   3.821   9.199   7.596  0.2141 -0.4561  0.4099
  811MOL0     H11867   3.578   9.137   7.293 -0.2297  0.7327 -1.2950
  811MOL0     H11868   3.555   8.883   7.134 -0.1818 -2.3950  0.2807
  811MOL0     H11869   3.713   8.806   7.107  1.1549  1.3557 -1.7763
  811MOL0     H11870   3.666   9.103   7.043 -0.0856 -0.4639 -1.2871
  811MOL0     H11871   3.801   8.998   6.986 -0.1170 -4.8923 -0.2493
  811MOL0     H11872   3.660   8.887   6.831 -2.0431  0.0317 -1.7540
  811MOL0     H11873   3.510   8.923   6.918  0.2366 -0.2211  1.9589
  811MOL0     H11874   3.512   9.080   6.718 -0.7654 -2.4794  1.6680
  811MOL0     H11875   3.534   9.164   6.863  0.3250 -0.4314  0.4799
  811MOL0     H11876   3.658   9.310   6.937  0.8411 -1.7952 -0.0645
  811MOL0     H11877   3.850   9.592   7.062  1.5460 -1.2656 -0.9376
  811MOL0     H11878   3.693   9.500   7.082 -0.3503  0.0705 -0.4477
  811MOL0     H11879   3.705   9.627   6.969  1.3605 -1.0383 -1.1454
  811MOL0     H11880   4.066   9.866   6.680 -0.7562 -3.2879 -0.5392
  811MOL0     H11881   4.220  10.062   6.662  0.1056 -0.1699  1.1783
  811MOL0     H11882   4.669  10.036   6.783 -0.0609  0.8520 -0.1722
  811MOL0     H11883   4.632   9.942   6.642 -0.3115  1.1472 -0.9598
  811MOL0     H11884   4.687  10.239   6.670  0.9518 -0.9219  0.7517
  811MOL0     H11885   4.771  10.116   6.566 -0.5083 -0.6239  0.5213
  811MOL0     H11886   4.484  10.232   6.521  0.8880 -0.5179 -0.3370
  811MOL0     H11887   4.559  10.107   6.429  1.4453 -0.9921  0.5726
  811MOL0     H11888   4.702  10.373   6.459  0.3919 -1.7488  1.1851
  811MOL0     H11889   4.576  10.353   6.331 -1.6710  0.1532  1.3579
  811MOL0     H11890   4.801  10.150   6.366 -1.2076 -1.8269 -0.9374
  811MOL0     H11891   4.709  10.185   6.223 -0.7328 -3.4459  2.5197
  811MOL0     H11892   4.903  10.362   6.366  0.3576 -0.5142 -0.1511
  811MOL0     H11893   4.817  10.408   6.217  1.0382 -0.0160  0.1300
  811MOL0     H11894   5.035  10.353   6.133 -0.5399  0.7473  0.8014
  811MOL0     H11895   4.940  10.220   6.081  1.5570 -0.4427 -1.1698
  811MOL0     H11896   5.068  10.085   6.246  0.3016  1.4135  0.5121
  811MOL0     H11897   5.120  10.224   6.331  0.6175 -0.9943  0.8043
  811MOL0     H11898   4.532   9.828   6.831 -0.4036  0.2594  1.9935
  811MOL0     H11899   4.384   9.625   6.837  0.5579  0.4008 -0.2146
  811MOL0     H11900   4.051   9.408   6.657  1.0579 -2.8514 -0.1387
  811MOL0     H11901   3.906   9.218   6.620 -2.5607 -0.5727  1.0662
  811MOL0     H11902   2.855   9.790   7.702  0.9364  0.7107 -0.9494
  811MOL0     H11903   2.774   9.970   7.818 -0.8643 -2.9463 -0.5168
  811MOL0     H11904   2.816  10.456   7.863 -0.3985  5.9750  0.5271
  811MOL0     H11905   2.679  10.622   7.949  3.7306  1.0047  0.7720
  811MOL0     H11906   2.710  10.753   8.161 -0.6439 -1.8806 -2.2847
  811MOL0     H11907   2.554  10.796   8.115 -0.6986 -2.2293 -0.0650
  811MOL0     H11908   2.619  10.943   8.289 -2.4748  1.4564 -2.6602
  811MOL0     H11909   2.677  10.806   8.385 -2.3815 -0.9283  0.6743
  811MOL0     H11910   2.382  10.847   8.314  1.8160  0.7803 -0.2808
  811MOL0     H11911   2.441  10.730   8.431 -0.4010  0.1977  1.6645
  811MOL0     H11912   2.344  10.905   8.564  1.9344 -0.9761  3.1096
  811MOL0     H11913   2.433  11.031   8.473  1.0939 -0.7031 -0.4876
  811MOL0     H11914   2.716  10.895   8.760 -0.4440  0.6051  1.9959
  811MOL0     H11915   2.676  10.419   8.331  2.0228  3.2520  0.2634
  811MOL0     H11916   2.925  10.211   8.281 -0.4183  2.8932  0.3955
  811MOL0     H11917   2.783  10.226   8.382  1.0960 -0.4241  0.6981
  811MOL0     H11918   2.771  10.112   8.246 -0.3435 -0.1548  0.0934
  812MOL0     O11919   1.290   0.632  10.370  0.2407  0.7739 -0.1459
  812MOL0     C11920   1.301   0.573  10.474  0.3231  0.2434  0.2671
  812MOL0     O11921   1.425   0.551  10.540 -0.4993  0.1581  0.0836
  812MOL0     C11922   1.551   0.603  10.492  0.0704  0.2029 -0.2750
  812MOL0     C11923   1.671   0.566  10.567 -0.2478  0.5176  0.5426
  812MOL0     C11924   1.791   0.623  10.545 -0.5390 -1.4885 -0.6131
  812MOL0     C11925   1.804   0.711  10.431 -0.7234 -0.1768 -0.5974
  812MOL0     O11926   1.911   0.773  10.386 -0.1394  0.2013  0.4305
  812MOL0     C11927   2.027   0.757  10.464 -0.8606 -0.7786  0.3824
  812MOL0     C11928   2.146   0.844  10.407  0.6816  0.2301  0.7606
  812MOL0     C11929   2.269   0.857  10.495 -0.8698 -0.1869  0.1899
  812MOL0     C11930   2.398   0.891  10.420  0.6899  0.0206 -0.4340
  812MOL0     C11931   2.527   0.874  10.502  0.6569  0.4717 -0.5385
  812MOL0     C11932   2.517   0.931  10.645  0.4897 -0.1582  0.9889
  812MOL0     C11933   2.651   0.943  10.698  0.2751 -0.2487 -0.9907
  812MOL0     C11934   2.651   0.982  10.843  0.2780 -0.2481 -0.5387
  812MOL0     N11935   2.779   0.974  10.899  0.5440 -0.2926 -0.0555
  812MOL0     C11936   2.861   1.086  10.900  0.0287 -0.6435  0.2646
  812MOL0     C11937   2.967   1.052  10.970  0.4692 -0.5518 -1.2167
  812MOL0     C11938   3.091   1.130  10.992 -0.0092  0.2147  0.1694
  812MOL0     C11939   3.216   1.056  10.953 -0.0071  0.0816 -0.3580
  812MOL0     C11940   3.350   1.144  10.951  0.6661 -0.2951 -0.2473
  812MOL0     C11941   3.385   1.206  11.088 -0.2837  0.1756  0.1301
  812MOL0     O11942   3.384   1.090  11.185  0.0533 -0.6489  0.6092
  812MOL0     C11943   3.411   1.119  11.317 -0.2556  0.4578  1.1254
  812MOL0     C11944   3.489   1.227  11.354  0.2463 -0.4566  0.2231
  812MOL0     C11945   3.535   1.246  11.488 -0.0163 -0.3360  0.5461
  812MOL0     C11946   3.619   1.368  11.504 -0.5354 -0.0953  0.5155
  812MOL0     C11947   3.492   1.154  11.591  0.4959 -0.9658  0.0272
  812MOL0     C11948   3.535   1.162  11.732 -0.3602  0.6246  0.4184
  812MOL0     O11949   3.512   1.056  11.807 -0.1557  0.4188 -0.4533
  812MOL0     C11950   3.572   1.059  11.930 -1.0025  0.3792 -1.0559
  812MOL0     C11951   3.687   0.984  11.950  0.2795 -0.4963 -0.7679
  812MOL0     C11952   3.742   0.965  12.082  0.5611 -0.0987 -0.1921
  812MOL0     C11953   3.680   1.022  12.193  0.4311  0.3946 -0.0449
  812MOL0     O11954   3.739   1.001  12.312  0.1685  0.1926 -1.3418
  812MOL0     C11955   3.709   1.097  12.420  0.9312 -0.6953 -0.6055
  812MOL0     C11956   3.795   1.064  12.543  0.0145 -0.8885  0.0684
  812MOL0     C11957   3.776   1.169  12.651 -0.8382  0.8025 -0.0657
  812MOL0     C11958   3.855   1.126  12.780  0.5586  0.1320  0.0810
  812MOL0     C11959   3.877   1.244  12.873  0.2286 -0.9936 -0.1229
  812MOL0     C11960   3.743   1.304  12.921  0.9766 -0.1343 -0.2204
  812MOL0     C11961   3.757   1.428  13.020 -0.0328  0.5754  0.1432
  812MOL0     C11962   3.631   1.442  13.102  0.4434 -0.6649  0.1388
  812MOL0    Cl11963   3.612   1.318  13.223 -0.1204  0.0818 -0.2806
  812MOL0     C11964   3.565   1.088  12.177  0.1616 -0.5629  0.7306
  812MOL0     C11965   3.515   1.117  12.049  0.0132  0.8359  0.3645
  812MOL0     O11966   3.607   1.254  11.766 -0.2128 -0.7159 -0.1021
  812MOL0     C11967   3.415   1.044  11.552  1.0287 -0.0149  0.2877
  812MOL0     C11968   3.377   1.023  11.419 -0.9640 -0.2259 -0.4437
  812MOL0     N11969   2.941   0.926  11.016  0.2498  0.1225 -0.2022
  812MOL0     N11970   2.834   0.879  10.974  0.1343  0.2304 -0.6490
  812MOL0     C11971   1.694   0.740  10.358  0.2619 -1.0672 -0.4706
  812MOL0     C11972   1.573   0.689  10.382  1.2086  0.3713 -0.4736
  812MOL0     C11973   1.183   0.531  10.560  0.2308 -0.2285  0.5079
  812MOL0     C11974   1.205   0.468  10.685  0.0878 -0.6588  0.0199
  812MOL0     C11975   1.108   0.443  10.773 -0.0561  0.0577  0.2451
  812MOL0     C11976   0.973   0.472  10.740 -0.1295  0.2652  0.5315
  812MOL0     O11977   0.871   0.452  10.824 -0.6178  0.0434 -0.2566
  812MOL0     C11978   0.891   0.405  10.960 -0.3881  0.1206 -0.0365
  812MOL0     C11979   0.761   0.369  11.028  0.0470 -0.1713  0.2818
  812MOL0     C11980   0.707   0.494  11.097 -0.1017 -0.2877 -0.0730
  812MOL0     C11981   0.548   0.487  11.104 -0.5234 -0.4117 -0.5627
  812MOL0     C11982   0.502   0.382  11.199 -0.2938 -1.2659 -0.7696
  812MOL0     C11983   0.468   0.298  11.280 -0.6308 -0.4787 -0.1866
  812MOL0     C11984   0.954   0.537  10.619  0.7582  0.3155  0.0198
  812MOL0     C11985   1.047   0.560  10.522  1.0635 -0.5946 -0.0269
  812MOL0     C11986   0.995   0.631  10.398  0.2268  0.5078 -0.7195
  812MOL0     H11987   1.664   0.490  10.645 -0.9510  0.6594  0.6260
  812MOL0     H11988   1.876   0.600  10.608 -0.5048  0.2706  0.0518
  812MOL0     H11989   2.066   0.655  10.471 -1.3649 -1.3571 -3.2647
  812MOL0     H11990   2.018   0.785  10.569  1.6473 -0.3478  0.5262
  812MOL0     H11991   2.168   0.793  10.313 -0.9023  0.3826  0.2790
  812MOL0     H11992   2.107   0.943  10.379  0.7732  0.3048  0.8960
  812MOL0     H11993   2.246   0.942  10.560  0.6548 -0.7498  1.5285
  812MOL0     H11994   2.278   0.764  10.553 -2.1480 -0.8605 -0.6406
  812MOL0     H11995   2.403   0.839  10.324  1.2633 -0.2271 -0.2752
  812MOL0     H11996   2.383   0.996  10.391 -1.7054  0.5317  2.1935
  812MOL0     H11997   2.619   0.912  10.456  1.8490  0.2334  1.5329
  812MOL0     H11998   2.550   0.768  10.513  0.1151  0.5601  1.9748
  812MOL0     H11999   2.468   1.028  10.651  2.4840  1.2604 -2.4771
  812MOL0     H12000   2.465   0.862  10.713  0.1751 -0.3512  0.5608
  812MOL0     H12001   2.720   1.002  10.637 -0.3580  0.0263 -1.4509
  812MOL0     H12002   2.694   0.843  10.690 -1.1632 -1.0266  0.4106
  812MOL0     H12003   2.605   1.080  10.855 -0.6863 -0.4375 -2.3538
  812MOL0     H12004   2.578   0.915  10.889 -0.8395  1.6862  0.6140
  812MOL0     H12005   2.840   1.183  10.856 -1.7127 -1.4036 -0.6787
  812MOL0     H12006   3.105   1.156  11.097 -0.9682 -0.8015  0.5659
  812MOL0     H12007   3.080   1.224  10.937 -0.0771 -0.6998 -1.4297
  812MOL0     H12008   3.237   0.966  11.012  1.7445 -0.3824 -1.6342
  812MOL0     H12009   3.191   1.009  10.858  0.7829 -3.2558  0.9278
  812MOL0     H12010   3.441   1.085  10.937  1.4882  0.9079 -0.1242
  812MOL0     H12011   3.348   1.229  10.882 -0.7984  1.5184  1.8738
  812MOL0     H12012   3.487   1.241  11.072 -0.1157  1.5495  3.3479
  812MOL0     H12013   3.325   1.293  11.115  0.3220  1.0993 -1.3941
  812MOL0     H12014   3.523   1.293  11.274 -2.3568 -2.4020 -2.7364
  812MOL0     H12015   3.602   1.442  11.425 -1.5767 -0.6428  0.2109
  812MOL0     H12016   3.727   1.349  11.512 -0.0251  2.9208  2.4614
  812MOL0     H12017   3.593   1.418  11.597 -0.0533  1.3348 -0.0881
  812MOL0     H12018   3.739   0.934  11.869  0.4269 -2.7605  0.6207
  812MOL0     H12019   3.828   0.900  12.091 -1.3411 -3.0349 -1.6855
  812MOL0     H12020   3.737   1.198  12.390  0.9010  0.4181  2.7451
  812MOL0     H12021   3.606   1.107  12.456  1.1224  0.3324 -0.3223
  812MOL0     H12022   3.766   0.967  12.585 -0.1253  0.8167  4.3639
  812MOL0     H12023   3.901   1.070  12.515 -0.3492  0.3872 -1.1482
  812MOL0     H12024   3.670   1.176  12.673 -0.6132  1.1824  0.9624
  812MOL0     H12025   3.813   1.265  12.615  0.1937  0.0297 -1.1483
  812MOL0     H12026   3.955   1.093  12.753  0.2133 -1.3859  0.5362
  812MOL0     H12027   3.808   1.039  12.828  1.2121  0.3473  1.1462
  812MOL0     H12028   3.937   1.228  12.964 -0.5349 -1.2163  0.3517
  812MOL0     H12029   3.928   1.326  12.820  0.9527 -1.5815 -0.3536
  812MOL0     H12030   3.674   1.225  12.952  0.0037  1.6723  2.5533
  812MOL0     H12031   3.690   1.342  12.833 -0.8618 -2.6010 -0.3068
  812MOL0     H12032   3.784   1.520  12.968  0.3882  1.2188  1.4437
  812MOL0     H12033   3.836   1.403  13.091  1.1408  3.9669  0.2070
  812MOL0     H12034   3.552   1.440  13.026 -0.4236 -0.7309  1.0168
  812MOL0     H12035   3.639   1.534  13.160 -0.3778 -1.9285  2.3694
  812MOL0     H12036   3.514   1.141  12.256  2.2795  0.8416  1.2304
  812MOL0     H12037   3.422   1.171  12.033  0.7566  2.3353  0.8953
  812MOL0     H12038   3.384   0.957  11.609  0.0538  0.3165  0.2964
  812MOL0     H12039   3.330   0.930  11.389  0.9104 -1.5500  0.5829
  812MOL0     H12040   1.719   0.797  10.269 -0.6206  1.0879  0.5844
  812MOL0     H12041   1.491   0.697  10.311  0.0012 -1.1038  0.6870
  812MOL0     H12042   1.307   0.459  10.722 -0.8264 -1.1161  2.6183
  812MOL0     H12043   1.141   0.396  10.865  2.1337 -0.7813 -0.9131
  812MOL0     H12044   0.948   0.311  10.956 -0.0725  0.1923  1.9281
  812MOL0     H12045   0.951   0.465  11.028  0.2965 -2.8826  2.1964
  812MOL0     H12046   0.779   0.294  11.107 -0.9848  1.8473  2.5715
  812MOL0     H12047   0.693   0.322  10.957 -1.4587 -0.2815  1.7323
  812MOL0     H12048   0.746   0.491  11.199  2.5497  0.4777 -0.9824
  812MOL0     H12049   0.759   0.579  11.051 -0.4085  1.2813  2.2725
  812MOL0     H12050   0.507   0.461  11.006 -0.8455  0.0862 -0.5635
  812MOL0     H12051   0.499   0.580  11.134 -0.4561 -0.6802  0.3946
  812MOL0     H12052   0.452   0.232  11.364  2.8477  0.3529  1.3312
  812MOL0     H12053   0.849   0.552  10.594  0.4629  0.1443  1.0972
  812MOL0     H12054   0.889   0.612  10.378  0.2513 -0.8397  0.2739
  812MOL0     H12055   1.009   0.739  10.406 -3.1705  0.9600  1.0024
  812MOL0     H12056   1.049   0.591  10.312  0.7516 -0.8456  0.2015
  813MOL0     O12057   0.983   0.477   1.493  0.1174 -0.2125 -0.7949
  813MOL0     C12058   1.103   0.464   1.474  0.0357  0.8473 -0.9195
  813MOL0     O12059   1.152   0.365   1.396 -0.1227  0.1788 -0.2180
  813MOL0     C12060   1.060   0.277   1.353  0.1830  0.1977  0.4797
  813MOL0     C12061   1.037   0.161   1.426 -0.8982 -0.4388 -0.2158
  813MOL0     C12062   0.939   0.066   1.388 -0.2897  0.2542 -0.9951
  813MOL0     C12063   0.869   0.092   1.274 -0.1323  0.6835 -0.2789
  813MOL0     O12064   0.759   0.025   1.232 -0.2336  0.3460  0.1517
  813MOL0     C12065   0.741  -0.116   1.280 -0.7148  0.4951 -0.1669
  813MOL0     C12066   0.641  -0.182   1.188 -0.0319  0.0736 -0.2377
  813MOL0     C12067   0.693  -0.208   1.038 -0.0459 -0.1173  0.7526
  813MOL0     C12068   0.682  -0.076   0.955 -0.5389 -0.1769  0.7789
  813MOL0     C12069   0.713  -0.107   0.803 -0.7275 -0.2307 -0.7344
  813MOL0     C12070   0.608  -0.192   0.732 -0.0920 -0.9858 -0.5439
  813MOL0     C12071   0.615  -0.221   0.588  0.1020 -0.4172  0.2443
  813MOL0     C12072   0.483  -0.301   0.552  0.6540  0.5168  0.5762
  813MOL0     N12073   0.506  -0.374   0.423 -0.4713  0.1668 -0.0417
  813MOL0     C12074   0.498  -0.507   0.401 -0.4517  0.7783  0.3246
  813MOL0     C12075   0.507  -0.531   0.268 -0.6180 -0.2938 -0.2312
  813MOL0     C12076   0.494  -0.663   0.197 -0.7608  0.4506 -0.1798
  813MOL0     C12077   0.628  -0.730   0.142 -0.1071 -0.2105  0.7912
  813MOL0     C12078   0.731  -0.740   0.253  0.4215  0.0075  0.1913
  813MOL0     C12079   0.871  -0.772   0.216 -0.6602 -0.2703  0.0906
  813MOL0     O12080   0.918  -0.672   0.119  0.2503 -0.0800  0.0451
  813MOL0     C12081   1.001  -0.706   0.016  0.3455  1.1965  0.2038
  813MOL0     C12082   1.087  -0.607  -0.015  0.0763 -0.5621 -0.5977
  813MOL0     C12083   1.195  -0.625  -0.101 -1.2251  0.2280 -0.7265
  813MOL0     C12084   1.294  -0.510  -0.113  0.1605  0.1617 -0.8752
  813MOL0     C12085   1.209  -0.749  -0.161  0.2071  0.7820 -0.2882
  813MOL0     C12086   1.312  -0.769  -0.265 -0.6429 -0.0062 -0.7354
  813MOL0     O12087   1.363  -0.897  -0.288  0.0577  0.0030  0.0493
  813MOL0     C12088   1.471  -0.893  -0.373  0.0161 -0.0066  0.4896
  813MOL0     C12089   1.597  -0.890  -0.313 -0.2126 -0.6903 -0.3051
  813MOL0     C12090   1.706  -0.880  -0.395 -0.4707 -0.3170  0.1355
  813MOL0     C12091   1.697  -0.875  -0.540  0.2546 -0.6012 -0.0167
  813MOL0     O12092   1.797  -0.880  -0.629  0.3388 -0.8038 -0.3902
  813MOL0     C12093   1.910  -0.800  -0.590 -0.0994 -0.3628  0.0020
  813MOL0     C12094   2.022  -0.816  -0.700  0.3721  0.7560 -0.4575
  813MOL0     C12095   2.143  -0.742  -0.659  0.6183 -0.2562  0.1045
  813MOL0     C12096   2.261  -0.775  -0.764 -0.0252  0.4270 -0.2230
  813MOL0     C12097   2.392  -0.734  -0.699  0.5963  0.4957  0.6067
  813MOL0     C12098   2.493  -0.758  -0.807  0.6864 -0.5213 -0.1781
  813MOL0     C12099   2.635  -0.708  -0.780  0.2207 -0.4717  0.0420
  813MOL0     C12100   2.734  -0.753  -0.889  1.1884 -0.6339 -0.3709
  813MOL0    Cl12101   2.893  -0.669  -0.864  0.0983 -0.2028  0.3576
  813MOL0     C12102   1.565  -0.876  -0.597 -0.8514  0.0735 -0.0221
  813MOL0     C12103   1.456  -0.894  -0.513 -0.3017  0.3983  0.4418
  813MOL0     O12104   1.332  -0.679  -0.351  0.4082 -0.1630 -0.6190
  813MOL0     C12105   1.132  -0.853  -0.125  0.7692 -0.7841  0.2332
  813MOL0     C12106   1.022  -0.837  -0.036  0.4381  0.4129 -0.4442
  813MOL0     N12107   0.508  -0.410   0.203  0.4678 -0.0186  0.7023
  813MOL0     N12108   0.505  -0.324   0.297 -0.0876  0.0346  0.9113
  813MOL0     C12109   0.899   0.204   1.193  0.9753 -0.6033  0.0844
  813MOL0     C12110   0.994   0.293   1.233  0.1666 -0.0940  0.0884
  813MOL0     C12111   1.195   0.555   1.544 -0.7816 -0.1799  0.7724
  813MOL0     C12112   1.142   0.650   1.635 -0.4929 -0.2402 -0.4760
  813MOL0     C12113   1.231   0.745   1.697  0.3234  0.3111 -0.2624
  813MOL0     C12114   1.362   0.745   1.656 -0.1986 -0.0844 -0.0803
  813MOL0     O12115   1.437   0.842   1.725  0.0730  0.0592  0.1076
  813MOL0     C12116   1.564   0.889   1.666 -0.4080 -0.3898  0.6153
  813MOL0     C12117   1.544   0.969   1.534  0.5232  0.0726 -0.2121
  813MOL0     C12118   1.499   1.116   1.556 -0.2648  0.3252 -0.3255
  813MOL0     C12119   1.399   1.154   1.660  0.1943 -0.9712  0.4558
  813MOL0     C12120   1.361   1.298   1.649  0.1450 -0.6540 -0.8809
  813MOL0     C12121   1.343   1.421   1.660 -0.1984  0.9705  0.2597
  813MOL0     C12122   1.413   0.652   1.573 -0.2118  0.5903  0.5647
  813MOL0     C12123   1.334   0.558   1.511  0.3065  0.6880 -0.8835
  813MOL0     C12124   1.409   0.464   1.417  0.0767 -0.2028 -1.1371
  813MOL0     H12125   1.104   0.139   1.509 -1.0164  0.3915  0.1071
  813MOL0     H12126   0.929  -0.024   1.448  0.7317 -1.2138 -2.9287
  813MOL0     H12127   0.691  -0.121   1.377 -1.7684  1.2478 -0.6564
  813MOL0     H12128   0.837  -0.169   1.277 -0.2971  1.0521  1.8001
  813MOL0     H12129   0.627  -0.276   1.242  2.1181  2.0017  4.1221
  813MOL0     H12130   0.546  -0.129   1.182  0.7791  1.9038  1.8827
  813MOL0     H12131   0.798  -0.239   1.040  0.2537  0.5077 -1.6641
  813MOL0     H12132   0.640  -0.296   1.001 -0.3447 -1.3224  3.8049
  813MOL0     H12133   0.581  -0.041   0.977 -0.4626 -0.0214  0.8827
  813MOL0     H12134   0.754  -0.002   0.991  1.1372 -0.4908 -1.6956
  813MOL0     H12135   0.808  -0.161   0.804  0.3283  1.4903 -2.3732
  813MOL0     H12136   0.716  -0.010   0.752 -2.2228  0.1443 -0.1588
  813MOL0     H12137   0.610  -0.291   0.779  1.3345 -0.1045  1.3646
  813MOL0     H12138   0.516  -0.138   0.753  1.7833  2.5236 -0.6468
  813MOL0     H12139   0.702  -0.288   0.587  0.3976 -0.0568  0.9033
  813MOL0     H12140   0.627  -0.140   0.515  0.7343  1.0475  1.8813
  813MOL0     H12141   0.461  -0.373   0.632 -2.6911  1.6379  0.8356
  813MOL0     H12142   0.394  -0.237   0.546 -0.4585 -1.0569 -0.8121
  813MOL0     H12143   0.488  -0.573   0.487 -1.9773  1.5202  0.7564
  813MOL0     H12144   0.426  -0.656   0.111  0.7471 -2.9965 -1.8788
  813MOL0     H12145   0.452  -0.739   0.264  0.3636  0.5786  0.6923
  813MOL0     H12146   0.604  -0.831   0.108 -1.9612  0.1710  0.8928
  813MOL0     H12147   0.669  -0.670   0.059  2.1862  1.3554  2.9059
  813MOL0     H12148   0.745  -0.643   0.301  2.2987  0.1623 -0.5840
  813MOL0     H12149   0.699  -0.820   0.321  2.0626 -0.8500  0.0172
  813MOL0     H12150   0.940  -0.779   0.301  1.2857  0.3636 -1.3424
  813MOL0     H12151   0.872  -0.875   0.181  1.0843 -0.4858  0.6610
  813MOL0     H12152   1.073  -0.503   0.014 -0.0009 -0.0062 -2.5151
  813MOL0     H12153   1.379  -0.548  -0.170 -0.7042  1.8784 -3.4906
  813MOL0     H12154   1.334  -0.482  -0.015 -0.6086  0.8207 -0.7344
  813MOL0     H12155   1.251  -0.424  -0.167  1.5070  1.9723  0.7916
  813MOL0     H12156   1.614  -0.895  -0.206 -1.5731  0.6379  0.0198
  813MOL0     H12157   1.802  -0.879  -0.345  0.7155 -1.2861 -1.9657
  813MOL0     H12158   1.875  -0.696  -0.589 -0.0982 -0.3423  2.2270
  813MOL0     H12159   1.947  -0.827  -0.491 -1.3780  0.6859  0.8102
  813MOL0     H12160   2.035  -0.924  -0.697  0.0446  0.7336  1.1833
  813MOL0     H12161   1.987  -0.789  -0.800  0.6185  0.8093 -0.5278
  813MOL0     H12162   2.167  -0.774  -0.557 -0.1265  0.5343  0.5390
  813MOL0     H12163   2.119  -0.636  -0.668 -1.4242 -0.7027 -0.0216
  813MOL0     H12164   2.242  -0.710  -0.851 -1.8704 -2.9648 -2.5745
  813MOL0     H12165   2.266  -0.883  -0.779 -1.4599  0.3550 -0.2852
  813MOL0     H12166   2.382  -0.628  -0.672  3.3648  0.7258  1.0058
  813MOL0     H12167   2.404  -0.805  -0.616 -4.4480 -2.8368 -1.0734
  813MOL0     H12168   2.451  -0.715  -0.898  1.1065 -0.6613 -0.4384
  813MOL0     H12169   2.491  -0.867  -0.817 -1.2302 -0.4120 -1.4384
  813MOL0     H12170   2.660  -0.747  -0.681 -0.0270  3.2391  1.7163
  813MOL0     H12171   2.645  -0.599  -0.780 -0.7997 -0.3310  1.8883
  813MOL0     H12172   2.712  -0.724  -0.992  1.2545  0.7154 -0.0327
  813MOL0     H12173   2.733  -0.862  -0.886 -2.7051 -0.7104  0.0526
  813MOL0     H12174   1.549  -0.887  -0.704 -0.8099  0.6243 -0.0895
  813MOL0     H12175   1.365  -0.914  -0.569  1.4854  0.6555 -2.8544
  813MOL0     H12176   1.147  -0.952  -0.167  0.1280 -0.3641 -1.0407
  813MOL0     H12177   0.952  -0.918  -0.018 -1.3084  2.0570  0.5236
  813MOL0     H12178   0.836   0.216   1.106 -0.5031 -2.6025  0.8236
  813MOL0     H12179   1.013   0.382   1.173  1.1614  0.1562  0.7556
  813MOL0     H12180   1.039   0.649   1.670 -0.2450 -0.1856  0.2895
  813MOL0     H12181   1.185   0.814   1.767  0.0740 -1.3230  1.2478
  813MOL0     H12182   1.624   0.951   1.732 -0.7723 -1.4972  2.0338
  813MOL0     H12183   1.632   0.808   1.635  0.6492  0.9059 -0.5793
  813MOL0     H12184   1.468   0.932   1.464  0.4327  3.1012 -1.9070
  813MOL0     H12185   1.643   0.973   1.488 -0.2208  0.2381 -1.8750
  813MOL0     H12186   1.592   1.171   1.573  0.7869 -1.5522  0.3105
  813MOL0     H12187   1.458   1.144   1.459 -0.5107  0.7294 -0.1122
  813MOL0     H12188   1.443   1.142   1.760 -1.2777  1.7430  1.5480
  813MOL0     H12189   1.311   1.092   1.642  1.0733 -1.8904 -0.9044
  813MOL0     H12190   1.320   1.525   1.669 -0.2691  1.1114 -1.3089
  813MOL0     H12191   1.520   0.647   1.558 -0.1177  0.2334  1.3020
  813MOL0     H12192   1.373   0.462   1.314  2.9666 -3.7308 -2.3212
  813MOL0     H12193   1.512   0.499   1.403 -0.4748  0.5613 -3.8085
  813MOL0     H12194   1.422   0.367   1.466  1.5825  1.2485  1.6326
  814MOL0     O12195   0.791   4.799   5.828 -0.1773 -0.0800  0.2683
  814MOL0     C12196   0.755   4.746   5.932 -0.3073 -0.6946  0.9659
  814MOL0     O12197   0.835   4.690   6.028  0.5253 -0.0526 -0.1794
  814MOL0     C12198   0.974   4.709   6.026 -0.0766  0.0465 -0.6593
  814MOL0     C12199   1.047   4.602   6.078  0.6343 -0.5255  0.3938
  814MOL0     C12200   1.186   4.606   6.085 -0.1132 -0.0927 -0.3984
  814MOL0     C12201   1.248   4.716   6.040 -0.8207 -1.4204  0.0735
  814MOL0     O12202   1.382   4.704   6.066  0.1357  0.9215 -0.1310
  814MOL0     C12203   1.462   4.822   6.050 -0.0844 -0.2106  0.0480
  814MOL0     C12204   1.606   4.807   6.115  0.0293  0.1432 -0.1156
  814MOL0     C12205   1.675   4.675   6.085  0.1091 -0.0357 -0.0526
  814MOL0     C12206   1.790   4.653   6.182  0.1840 -0.0576  0.2511
  814MOL0     C12207   1.890   4.774   6.194 -0.2407 -0.0583  0.7217
  814MOL0     C12208   2.011   4.719   6.268 -0.4312 -0.0889 -0.3083
  814MOL0     C12209   2.131   4.807   6.236  0.5993 -0.9163 -0.3291
  814MOL0     C12210   2.206   4.822   6.370 -0.0940 -0.3646  0.0707
  814MOL0     N12211   2.302   4.939   6.358 -0.3732  0.6742 -0.1778
  814MOL0     C12212   2.390   4.952   6.251  0.6566  0.3223  0.6036
  814MOL0     C12213   2.450   5.070   6.286 -0.0952 -1.0276  0.3117
  814MOL0     C12214   2.565   5.136   6.224 -0.3931  0.6790 -0.0012
  814MOL0     C12215   2.698   5.088   6.285  0.9304 -0.4610 -0.9154
  814MOL0     C12216   2.805   5.164   6.215 -0.0942 -0.2049 -0.6093
  814MOL0     C12217   2.907   5.202   6.313  0.8692 -0.2168  0.4917
  814MOL0     O12218   2.873   5.316   6.390  0.0327  0.4620 -0.0449
  814MOL0     C12219   2.967   5.413   6.419 -0.0395 -0.1059 -0.2796
  814MOL0     C12220   3.084   5.453   6.356 -0.3340  0.4599  0.5114
  814MOL0     C12221   3.157   5.562   6.396 -0.4965 -0.0968  0.0190
  814MOL0     C12222   3.270   5.593   6.305  1.6269  0.2646  0.1590
  814MOL0     C12223   3.120   5.633   6.507 -0.2906 -0.2654  0.3355
  814MOL0     C12224   3.189   5.756   6.552  0.4688 -0.0585 -0.1341
  814MOL0     O12225   3.190   5.772   6.687 -1.1593  0.6196 -0.1930
  814MOL0     C12226   3.261   5.874   6.743 -0.2972  0.2315  0.5134
  814MOL0     C12227   3.213   6.001   6.762  0.0886  0.4938  0.0433
  814MOL0     C12228   3.293   6.106   6.817  0.1651  0.3936  0.7327
  814MOL0     C12229   3.428   6.086   6.848 -0.4144 -0.3963 -0.3135
  814MOL0     O12230   3.490   6.210   6.882 -0.3904 -0.8705 -0.0769
  814MOL0     C12231   3.622   6.198   6.934 -0.3387  0.1534 -0.3019
  814MOL0     C12232   3.731   6.191   6.817  0.4186  0.6270 -0.1689
  814MOL0     C12233   3.847   6.273   6.852  0.1307 -0.6725 -0.0327
  814MOL0     C12234   3.943   6.289   6.741 -0.4734 -0.1381  0.1375
  814MOL0     C12235   4.087   6.304   6.800  0.1295 -0.2600  0.2423
  814MOL0     C12236   4.197   6.269   6.696 -0.0651 -0.5752 -0.4551
  814MOL0     C12237   4.334   6.303   6.755  0.2432  1.0194 -0.1651
  814MOL0     C12238   4.375   6.256   6.900  0.3187  0.7016 -0.5720
  814MOL0    Cl12239   4.307   6.369   7.020  0.3133  0.3001 -0.2328
  814MOL0     C12240   3.478   5.955   6.844  0.6835  0.1207 -0.0761
  814MOL0     C12241   3.395   5.850   6.792  0.4654 -0.1043  0.0267
  814MOL0     O12242   3.241   5.834   6.466  0.8620 -0.0842 -0.5171
  814MOL0     C12243   3.006   5.588   6.577 -0.8857 -0.4795 -0.2964
  814MOL0     C12244   2.927   5.483   6.530  0.8810 -0.2436 -0.1189
  814MOL0     N12245   2.392   5.123   6.396 -0.0924  0.7779 -0.0368
  814MOL0     N12246   2.299   5.045   6.437 -0.3573 -0.6409  0.0280
  814MOL0     C12247   1.182   4.823   5.984  0.4088 -0.8370 -0.1332
  814MOL0     C12248   1.041   4.821   6.001 -0.9276 -0.7241  0.5835
  814MOL0     C12249   0.608   4.765   5.973  0.0684  0.1542  0.9948
  814MOL0     C12250   0.586   4.725   6.111 -0.7488  0.4665 -0.0104
  814MOL0     C12251   0.451   4.729   6.155 -0.3061 -0.4818 -0.0749
  814MOL0     C12252   0.354   4.778   6.072  0.0649  0.5551  0.3745
  814MOL0     O12253   0.226   4.774   6.113  0.7017 -0.4258 -0.1209
  814MOL0     C12254   0.174   4.646   6.155  0.4623 -0.0791 -0.0866
  814MOL0     C12255   0.027   4.637   6.105 -0.0562  0.0851  0.3594
  814MOL0     C12256  -0.073   4.722   6.176  0.2349  0.1823 -0.2318
  814MOL0     C12257  -0.070   4.872   6.143 -0.7447 -0.4563 -0.6611
  814MOL0     C12258  -0.184   4.940   6.198  0.0749  0.6188  0.3589
  814MOL0     C12259  -0.284   5.004   6.243  0.6171 -0.6496  1.0533
  814MOL0     C12260   0.387   4.844   5.956  0.0203  0.1712  0.3499
  814MOL0     C12261   0.511   4.836   5.899  0.4888  0.4796 -0.2149
  814MOL0     C12262   0.526   4.899   5.767  0.0417  0.4990 -0.3587
  814MOL0     H12263   0.994   4.518   6.122  0.5914 -0.0232  1.3399
  814MOL0     H12264   1.245   4.520   6.113 -2.4371 -1.1937  1.4069
  814MOL0     H12265   1.402   4.904   6.091 -1.5106 -1.1921  0.0132
  814MOL0     H12266   1.485   4.850   5.947  0.6989  1.7566  0.7024
  814MOL0     H12267   1.663   4.895   6.084 -0.1999 -0.2397 -1.7233
  814MOL0     H12268   1.593   4.809   6.224  0.4807 -2.3535  0.0491
  814MOL0     H12269   1.604   4.592   6.095  0.4652 -0.2256  1.0253
  814MOL0     H12270   1.719   4.688   5.986  3.0225 -0.4813  1.0716
  814MOL0     H12271   1.751   4.643   6.284 -2.7108  1.0650 -0.6647
  814MOL0     H12272   1.844   4.565   6.145 -0.3917 -0.6545  0.8155
  814MOL0     H12273   1.840   4.854   6.249  1.0708  1.1230  0.2574
  814MOL0     H12274   1.923   4.817   6.099  0.7186 -2.5333 -0.1421
  814MOL0     H12275   1.991   4.721   6.376 -1.2920 -0.8642 -0.4403
  814MOL0     H12276   2.029   4.613   6.247  1.0803 -0.1435  1.0465
  814MOL0     H12277   2.092   4.907   6.214 -1.2159 -1.2891  0.9927
  814MOL0     H12278   2.195   4.772   6.155  0.3313  1.8424 -1.8500
  814MOL0     H12279   2.140   4.846   6.454 -0.1844  0.1496 -0.1433
  814MOL0     H12280   2.270   4.736   6.392  3.0989  1.9126  0.2720
  814MOL0     H12281   2.423   4.891   6.168 -0.5016  1.6124 -0.8955
  814MOL0     H12282   2.574   5.240   6.255  1.4870  0.9595 -1.3219
  814MOL0     H12283   2.570   5.116   6.117  0.6721 -3.1236  0.5848
  814MOL0     H12284   2.692   5.116   6.391 -1.6246  0.5951 -1.2809
  814MOL0     H12285   2.717   4.980   6.289 -0.6681 -0.7355  1.5518
  814MOL0     H12286   2.861   5.087   6.161 -0.4496 -2.4968  2.0705
  814MOL0     H12287   2.773   5.251   6.157  0.4882  1.1745  1.0335
  814MOL0     H12288   2.929   5.125   6.388 -1.1286  1.4866  3.0123
  814MOL0     H12289   2.997   5.233   6.260  0.2192  1.2177  0.1753
  814MOL0     H12290   3.123   5.405   6.267  2.7577  4.3785 -0.6086
  814MOL0     H12291   3.230   5.636   6.213  0.1319 -0.7222  0.3116
  814MOL0     H12292   3.334   5.507   6.286  0.5572  0.1664 -4.0143
  814MOL0     H12293   3.340   5.664   6.350  2.8438 -1.3645  0.9104
  814MOL0     H12294   3.111   6.025   6.733  0.6588  3.0266 -0.1339
  814MOL0     H12295   3.249   6.203   6.835 -3.7984 -0.7263 -1.6628
  814MOL0     H12296   3.637   6.285   7.000  1.3402  0.0755 -0.5318
  814MOL0     H12297   3.620   6.114   7.003  0.8046 -0.4309 -0.9493
  814MOL0     H12298   3.759   6.086   6.803  1.9045  0.4477  3.1098
  814MOL0     H12299   3.691   6.226   6.721  1.5232  1.2385 -0.4171
  814MOL0     H12300   3.897   6.234   6.942  0.3370  1.2400  0.7215
  814MOL0     H12301   3.811   6.372   6.882  0.6090 -1.6349  4.5342
  814MOL0     H12302   3.919   6.372   6.674 -1.9732 -0.5777  0.0807
  814MOL0     H12303   3.938   6.201   6.677 -1.1465  1.3400 -1.9430
  814MOL0     H12304   4.090   6.407   6.835 -0.3445  0.6119 -2.0745
  814MOL0     H12305   4.088   6.235   6.885  0.5497 -0.6065 -0.0366
  814MOL0     H12306   4.180   6.319   6.600  1.1605  1.9735  0.5288
  814MOL0     H12307   4.183   6.162   6.679 -1.5313 -0.5132  0.2608
  814MOL0     H12308   4.352   6.410   6.737  2.1600  0.4522 -2.1465
  814MOL0     H12309   4.404   6.254   6.686 -0.5888  1.6141 -1.4904
  814MOL0     H12310   4.476   6.234   6.936 -0.8308 -0.9349  2.0030
  814MOL0     H12311   4.315   6.165   6.903 -0.3079  1.0201 -2.5406
  814MOL0     H12312   3.577   5.932   6.880 -1.1176 -2.2090  4.0797
  814MOL0     H12313   3.441   5.752   6.795  2.1919  0.6037 -1.4716
  814MOL0     H12314   2.960   5.652   6.652  1.3357 -1.9018  2.4855
  814MOL0     H12315   2.840   5.451   6.587 -0.2035  0.7500 -1.1807
  814MOL0     H12316   1.231   4.907   5.937  1.1656 -0.7753  0.7481
  814MOL0     H12317   0.983   4.910   5.977 -1.0619 -1.4529 -2.2114
  814MOL0     H12318   0.652   4.686   6.187 -1.9344  2.3610  2.1033
  814MOL0     H12319   0.424   4.701   6.256  1.5340 -2.7299 -0.1331
  814MOL0     H12320   0.233   4.567   6.109 -1.8116 -0.5890 -2.3757
  814MOL0     H12321   0.182   4.641   6.264 -1.1987 -3.2567 -0.0113
  814MOL0     H12322  -0.006   4.535   6.125  0.7856 -0.7796 -2.1859
  814MOL0     H12323   0.026   4.661   5.998  1.2142 -0.0704  0.2863
  814MOL0     H12324  -0.168   4.675   6.151  0.8415 -0.4964 -1.3285
  814MOL0     H12325  -0.055   4.712   6.283 -0.6850  1.9718  0.1287
  814MOL0     H12326  -0.048   4.881   6.036  0.9120 -0.9006 -0.3835
  814MOL0     H12327   0.018   4.906   6.197 -0.3807  0.4020 -1.7748
  814MOL0     H12328  -0.372   5.062   6.259  1.4120  1.9033 -2.5175
  814MOL0     H12329   0.305   4.893   5.904  0.8543 -0.4543 -1.6757
  814MOL0     H12330   0.429   4.904   5.718  0.0369 -4.2093 -1.3268
  814MOL0     H12331   0.576   4.995   5.781  0.0837  0.3250  0.8093
  814MOL0     H12332   0.585   4.831   5.705 -3.1738  0.0970 -3.2424
  815MOL0     O12333   1.396  10.513   9.052 -0.4797 -0.1117  0.5765
  815MOL0     C12334   1.386  10.608   9.132 -0.1896 -0.4405 -0.0246
  815MOL0     O12335   1.472  10.703   9.162 -0.7393  0.7199 -0.1267
  815MOL0     C12336   1.602  10.706   9.112 -0.3536 -0.4182 -0.1739
  815MOL0     C12337   1.699  10.771   9.196  0.0420 -0.6249 -0.6868
  815MOL0     C12338   1.829  10.789   9.154  0.3544  0.0214 -0.4052
  815MOL0     C12339   1.874  10.743   9.029  0.5430  0.1590 -0.4349
  815MOL0     O12340   2.012  10.742   8.999 -0.6244 -0.0763 -0.3504
  815MOL0     C12341   2.075  10.652   9.079 -0.4927  0.7200  0.0448
  815MOL0     C12342   2.226  10.661   9.047 -0.5261  0.4766  0.4593
  815MOL0     C12343   2.260  10.608   8.903  0.2467  0.5558 -0.1505
  815MOL0     C12344   2.411  10.611   8.892  0.5476 -0.0466  0.4037
  815MOL0     C12345   2.443  10.533   8.767 -0.4349 -0.1490  0.4469
  815MOL0     C12346   2.591  10.555   8.720 -0.8703  0.8266  1.4704
  815MOL0     C12347   2.701  10.542   8.834  0.3680 -0.4474 -0.2827
  815MOL0     C12348   2.844  10.533   8.775 -0.4458 -0.6558  0.1266
  815MOL0     N12349   2.957  10.532   8.875  0.7022 -0.9415 -0.0943
  815MOL0     C12350   2.976  10.639   8.967 -0.4022  0.2725  0.3738
  815MOL0     C12351   3.098  10.609   9.028 -0.4912 -0.0743  0.2651
  815MOL0     C12352   3.183  10.682   9.130  0.1840 -0.2312  0.3681
  815MOL0     C12353   3.312  10.605   9.171  0.1743 -0.4232  0.4067
  815MOL0     C12354   3.400  10.680   9.268  0.5151 -0.0903 -0.1138
  815MOL0     C12355   3.517  10.588   9.297  0.0964  0.1618  0.0390
  815MOL0     O12356   3.615  10.606   9.193  0.1142 -0.0794 -0.5160
  815MOL0     C12357   3.744  10.578   9.218 -0.0739 -0.1010  0.5138
  815MOL0     C12358   3.834  10.612   9.110  0.3884  0.6983 -0.2734
  815MOL0     C12359   3.975  10.602   9.127 -0.0487  0.2459 -0.0390
  815MOL0     C12360   4.058  10.656   9.013  0.1887  0.7223  0.6073
  815MOL0     C12361   4.027  10.532   9.235 -0.3896  0.0186  0.0148
  815MOL0     C12362   4.174  10.509   9.266  0.7318  0.0611 -0.0441
  815MOL0     O12363   4.262  10.489   9.158  0.6584  0.4636 -0.2657
  815MOL0     C12364   4.388  10.440   9.166  0.4425  0.1194  0.4736
  815MOL0     C12365   4.460  10.406   9.281 -0.0059  0.7828  0.5624
  815MOL0     C12366   4.592  10.372   9.279 -0.5763  0.7514 -0.5136
  815MOL0     C12367   4.665  10.375   9.160 -0.4312 -1.0070  0.4282
  815MOL0     O12368   4.799  10.347   9.146  0.5074 -0.1081  0.3832
  815MOL0     C12369   4.821  10.221   9.068  0.2001 -0.7449  0.7179
  815MOL0     C12370   4.897  10.110   9.148 -0.0658 -0.1071  0.1627
  815MOL0     C12371   4.881  10.106   9.294  0.4207 -0.2436  0.1693
  815MOL0     C12372   4.987  10.019   9.364  0.1375  0.8693 -0.5791
  815MOL0     C12373   5.018  10.087   9.503 -0.4028  0.1843 -0.3826
  815MOL0     C12374   5.123  10.014   9.593  0.0881 -0.7531 -0.4976
  815MOL0     C12375   5.179  10.106   9.708  0.0847  0.2282  0.8426
  815MOL0     C12376   5.310  10.049   9.770  0.0177  0.4436  0.6409
  815MOL0    Cl12377   5.276   9.891   9.839 -0.0781  0.3122 -0.0224
  815MOL0     C12378   4.594  10.407   9.041  0.1546  0.0829  0.1471
  815MOL0     C12379   4.453  10.440   9.045 -0.7178  0.4347  0.0420
  815MOL0     O12380   4.203  10.504   9.386 -0.5768  0.4389  0.0855
  815MOL0     C12381   3.934  10.496   9.338 -1.3366 -0.6527 -0.6138
  815MOL0     C12382   3.799  10.518   9.329  0.1593 -0.4554  0.9270
  815MOL0     N12383   3.140  10.489   8.971  0.2799  0.1045  0.0389
  815MOL0     N12384   3.061  10.447   8.881  0.6741  0.1087  0.0527
  815MOL0     C12385   1.787  10.680   8.950 -0.7085  0.4833  0.0782
  815MOL0     C12386   1.650  10.654   8.984  0.7682 -0.2383 -1.1529
  815MOL0     C12387   1.250  10.623   9.186 -0.6323 -0.2351  0.5690
  815MOL0     C12388   1.143  10.558   9.125 -0.6207 -0.8150 -0.6011
  815MOL0     C12389   1.011  10.578   9.163  0.9693  1.0205 -0.2054
  815MOL0     C12390   0.980  10.657   9.274  0.8329  0.7263  0.5828
  815MOL0     O12391   0.857  10.708   9.307 -0.3109  0.1411 -0.2569
  815MOL0     C12392   0.758  10.612   9.307  0.0879  0.2961  0.7713
  815MOL0     C12393   0.646  10.635   9.413  0.4299 -0.0271  0.5250
  815MOL0     C12394   0.546  10.525   9.387 -0.8002  0.3532  0.3213
  815MOL0     C12395   0.449  10.504   9.505  0.0260 -0.9125 -0.4576
  815MOL0     C12396   0.506  10.486   9.636  0.3176  0.1154  0.4289
  815MOL0     C12397   0.551  10.475   9.746  0.3457 -0.7151 -0.4059
  815MOL0     C12398   1.089  10.716   9.344 -0.2113 -0.5389 -0.3353
  815MOL0     C12399   1.221  10.704   9.305 -0.0289  0.4199 -0.0487
  815MOL0     C12400   1.327  10.780   9.390  0.5943  0.8504 -0.1870
  815MOL0     H12401   1.667  10.814   9.290 -0.2006 -1.0253 -0.5830
  815MOL0     H12402   1.891  10.851   9.218 -0.7819  0.9380 -0.1607
  815MOL0     H12403   2.058  10.546   9.061  0.1086  0.1461  2.4479
  815MOL0     H12404   2.059  10.668   9.186  0.7105 -1.0515  0.5245
  815MOL0     H12405   2.248  10.768   9.053 -3.7499  1.3334 -0.6807
  815MOL0     H12406   2.274  10.598   9.123 -1.7217  0.5714  1.3298
  815MOL0     H12407   2.225  10.505   8.893 -2.3576  1.3334  0.1947
  815MOL0     H12408   2.216  10.671   8.825  0.7760 -0.2896 -1.1478
  815MOL0     H12409   2.452  10.712   8.889  1.1155 -0.2552  0.9129
  815MOL0     H12410   2.455  10.558   8.977 -2.1285  1.1855  2.7054
  815MOL0     H12411   2.384  10.576   8.686  1.7215  1.0470 -0.6006
  815MOL0     H12412   2.432  10.426   8.787  1.2770 -0.2944  0.7610
  815MOL0     H12413   2.627  10.474   8.655  0.4095  1.9582  0.7070
  815MOL0     H12414   2.601  10.643   8.656  0.4080 -1.7752 -2.2835
  815MOL0     H12415   2.677  10.459   8.901 -0.5127  1.0618  1.3677
  815MOL0     H12416   2.696  10.640   8.884 -0.2850 -0.0426 -1.1178
  815MOL0     H12417   2.850  10.448   8.707 -1.3045 -0.5400 -0.1059
  815MOL0     H12418   2.858  10.617   8.707  2.8183 -2.0873 -1.1642
  815MOL0     H12419   2.923  10.731   8.988  0.5555  0.6901  1.0677
  815MOL0     H12420   3.130  10.702   9.224 -1.4180  0.7697 -0.7037
  815MOL0     H12421   3.202  10.781   9.087  1.1913 -0.9716 -0.9644
  815MOL0     H12422   3.270  10.511   9.210  1.2567 -0.7590  0.8144
  815MOL0     H12423   3.365  10.571   9.082  0.8350  0.0452  0.6153
  815MOL0     H12424   3.428  10.783   9.243  0.6670 -0.1259 -0.0914
  815MOL0     H12425   3.338  10.678   9.359 -2.7834  1.6706 -2.1254
  815MOL0     H12426   3.558  10.610   9.395 -2.0913  1.1005  0.8001
  815MOL0     H12427   3.490  10.483   9.312  2.8286 -0.3795  1.8639
  815MOL0     H12428   3.781  10.652   9.024 -1.6989 -0.4318  0.4185
  815MOL0     H12429   4.057  10.581   8.933 -3.7630  0.0154  1.0735
  815MOL0     H12430   4.159  10.687   9.041  1.8292 -0.6026 -3.2386
  815MOL0     H12431   4.009  10.744   8.971  2.0470  0.9685 -1.2076
  815MOL0     H12432   4.400  10.406   9.372 -1.8886  1.3144 -0.6327
  815MOL0     H12433   4.636  10.336   9.372  2.7050 -1.6424 -2.7604
  815MOL0     H12434   4.726  10.178   9.035 -0.4348  0.1180  1.3734
  815MOL0     H12435   4.876  10.248   8.977 -1.8206 -1.4214 -0.7925
  815MOL0     H12436   4.858  10.013   9.113  1.6207 -0.2416 -1.4475
  815MOL0     H12437   5.000  10.088   9.120  0.2970 -0.8684  1.9421
  815MOL0     H12438   4.782  10.065   9.315  0.4990 -0.4520  0.1399
  815MOL0     H12439   4.885  10.211   9.325  1.5427 -0.6858  1.6842
  815MOL0     H12440   5.080   9.998   9.312 -0.1363 -3.4760  0.3619
  815MOL0     H12441   4.945   9.920   9.383  0.9904  0.7301  0.6399
  815MOL0     H12442   5.060  10.180   9.464  0.7874  1.6660  3.9133
  815MOL0     H12443   4.929  10.111   9.562  2.2642  3.9505  2.5572
  815MOL0     H12444   5.194   9.984   9.515 -1.5676 -1.4026 -1.8009
  815MOL0     H12445   5.078   9.928   9.641  1.4269  0.6876  3.7730
  815MOL0     H12446   5.093  10.112   9.776  0.3493 -1.5544  1.4128
  815MOL0     H12447   5.207  10.202   9.664 -0.9006 -0.6818 -2.0118
  815MOL0     H12448   5.338  10.111   9.856  2.8641 -2.1107  1.7336
  815MOL0     H12449   5.393  10.033   9.700  0.1356 -0.3148  0.9442
  815MOL0     H12450   4.653  10.407   8.949  0.1339 -1.7560  0.1140
  815MOL0     H12451   4.401  10.476   8.956 -1.5705  1.7811  1.0549
  815MOL0     H12452   3.972  10.445   9.426 -3.1389 -1.1906 -0.1015
  815MOL0     H12453   3.733  10.469   9.401 -1.6146 -1.6503 -1.3873
  815MOL0     H12454   1.814  10.651   8.849  0.9093  0.9713  0.3444
  815MOL0     H12455   1.578  10.607   8.918 -0.8179 -0.8769  0.9427
  815MOL0     H12456   1.152  10.497   9.035 -1.1853  0.5917 -1.6509
  815MOL0     H12457   0.935  10.532   9.101  1.2951 -1.5482  1.1662
  815MOL0     H12458   0.705  10.605   9.212 -1.5619 -0.1568  1.6700
  815MOL0     H12459   0.800  10.511   9.318 -1.0982 -0.3800 -0.6434
  815MOL0     H12460   0.589  10.728   9.407 -2.5558 -1.7484 -0.3225
  815MOL0     H12461   0.690  10.632   9.513 -0.0564 -0.4321  0.7370
  815MOL0     H12462   0.487  10.530   9.295  2.1335 -0.5836 -1.7885
  815MOL0     H12463   0.601  10.432   9.368 -3.7594 -1.4001 -0.2940
  815MOL0     H12464   0.390  10.416   9.478 -2.4651  0.2811  0.7619
  815MOL0     H12465   0.376  10.584   9.517 -0.9078 -1.3547 -2.8084
  815MOL0     H12466   0.601  10.468   9.840  1.5395 -2.4783 -1.1236
  815MOL0     H12467   1.062  10.787   9.422 -0.5438 -1.1906  0.1556
  815MOL0     H12468   1.296  10.792   9.495  1.3663 -1.5847  0.3659
  815MOL0     H12469   1.425  10.733   9.395  0.1992  0.0801  0.5611
  815MOL0     H12470   1.333  10.883   9.353  1.1560 -0.0237 -2.7387
  816MOL0     O12471   0.455  10.340   2.598 -0.6313 -0.4583  0.2525
  816MOL0     C12472   0.383  10.382   2.690 -0.0178  0.4575  0.6831
  816MOL0     O12473   0.424  10.470   2.787 -0.4291  0.2602 -0.0756
  816MOL0     C12474   0.548  10.515   2.760  0.1250  0.0509 -0.0405
  816MOL0     C12475   0.563  10.638   2.687 -0.3007  0.4477  0.5185
  816MOL0     C12476   0.689  10.700   2.685 -0.0764  0.3057 -0.8098
  816MOL0     C12477   0.796  10.641   2.760 -0.3372 -0.6200  0.7584
  816MOL0     O12478   0.903  10.729   2.778  0.2810  0.4767 -0.0982
  816MOL0     C12479   0.989  10.699   2.891  0.4484 -0.3405  1.2570
  816MOL0     C12480   1.076  10.820   2.922 -0.1328 -0.3726  0.6800
  816MOL0     C12481   1.165  10.842   2.797 -0.2128  0.5522  0.1799
  816MOL0     C12482   1.280  10.945   2.809 -0.7872  0.0115 -0.3219
  816MOL0     C12483   1.235  11.091   2.826  0.2095  0.2469 -0.5000
  816MOL0     C12484   1.177  11.141   2.694 -0.3455  0.0192  0.4190
  816MOL0     C12485   1.138  11.286   2.710  0.8394  0.3325  0.5822
  816MOL0     C12486   0.999  11.310   2.655 -0.5714  0.4216 -0.0624
  816MOL0     N12487   0.891  11.211   2.703 -0.3438 -0.6701  0.2549
  816MOL0     C12488   0.872  11.173   2.833 -0.4699  0.1978 -0.1145
  816MOL0     C12489   0.766  11.085   2.833 -0.7645  0.7220  0.9093
  816MOL0     C12490   0.715  10.996   2.941  0.2033 -0.3993  0.2571
  816MOL0     C12491   0.581  10.944   2.923 -1.2542 -0.6887 -0.4771
  816MOL0     C12492   0.550  10.838   3.030 -0.1581 -0.1333  0.5229
  816MOL0     C12493   0.429  10.757   3.017  0.7072 -0.0408 -0.2889
  816MOL0     O12494   0.415  10.669   3.133 -0.1492 -0.3504 -0.2093
  816MOL0     C12495   0.302  10.708   3.208 -0.9307  0.4332  0.7081
  816MOL0     C12496   0.181  10.655   3.177  1.0704  1.0832  0.4379
  816MOL0     C12497   0.061  10.683   3.246 -0.3201  0.1428 -0.5678
  816MOL0     C12498  -0.067  10.604   3.198  0.1503 -0.1530 -0.8101
  816MOL0     C12499   0.065  10.777   3.350  0.2712  0.2609  0.1102
  816MOL0     C12500  -0.055  10.820   3.432 -0.2342  0.6021 -0.3324
  816MOL0     O12501  -0.043  10.889   3.550 -0.2598  0.0304  0.0087
  816MOL0     C12502  -0.161  10.901   3.622 -0.7950  0.5231 -0.3796
  816MOL0     C12503  -0.257  11.009   3.598  0.3585 -0.0060 -0.6721
  816MOL0     C12504  -0.352  11.027   3.696 -0.4635 -0.6541  0.0106
  816MOL0     C12505  -0.359  10.957   3.813 -0.3081 -0.2436 -0.4205
  816MOL0     O12506  -0.461  11.000   3.891 -0.2545  0.0817 -0.1630
  816MOL0     C12507  -0.460  10.957   4.025  0.6931 -0.4115 -0.2279
  816MOL0     C12508  -0.584  11.004   4.109  0.8751 -0.9188 -0.0805
  816MOL0     C12509  -0.700  10.906   4.094  0.6972 -0.7126 -0.3538
  816MOL0     C12510  -0.828  10.919   4.183  0.0415 -0.6028 -0.9186
  816MOL0     C12511  -0.880  11.066   4.184  0.5973  0.4892  0.2456
  816MOL0     C12512  -0.968  11.099   4.068  0.2679  0.1751 -0.2171
  816MOL0     C12513  -1.053  11.225   4.111 -0.3344 -0.4919 -0.9164
  816MOL0     C12514  -1.201  11.198   4.138 -0.2792  0.0501 -0.6778
  816MOL0    Cl12515  -1.295  11.353   4.136  0.1886  0.0014  0.0191
  816MOL0     C12516  -0.265  10.854   3.841  0.2154  0.3489 -0.1577
  816MOL0     C12517  -0.166  10.831   3.743 -0.4177  0.2923 -0.1652
  816MOL0     O12518  -0.166  10.781   3.387  0.4606  0.4457  0.3178
  816MOL0     C12519   0.195  10.836   3.385  0.5463  0.0319 -0.1551
  816MOL0     C12520   0.312  10.798   3.313 -0.1983  0.2707  0.1416
  816MOL0     N12521   0.719  11.070   2.703  0.6017 -0.6767  0.8047
  816MOL0     N12522   0.801  11.145   2.627 -0.0441  0.0288  0.1763
  816MOL0     C12523   0.784  10.512   2.810 -0.4395 -0.3693 -0.0841
  816MOL0     C12524   0.659  10.460   2.825 -0.3268  0.1899  0.2277
  816MOL0     C12525   0.233  10.344   2.698 -0.7894 -0.1460 -0.7004
  816MOL0     C12526   0.159  10.406   2.803 -0.1011  0.2790 -0.1845
  816MOL0     C12527   0.027  10.380   2.821 -0.4362  0.4600  0.1569
  816MOL0     C12528  -0.033  10.291   2.736 -0.8868  0.2640 -0.0694
  816MOL0     O12529  -0.167  10.255   2.757  0.6737 -0.4713 -0.1943
  816MOL0     C12530  -0.267  10.364   2.758  0.9199  0.0975 -0.6589
  816MOL0     C12531  -0.320  10.403   2.621  0.8162 -0.6051  0.6701
  816MOL0     C12532  -0.396  10.541   2.634 -0.8695  0.6112 -0.2188
  816MOL0     C12533  -0.430  10.586   2.486  0.5137 -0.5291 -0.1985
  816MOL0     C12534  -0.531  10.691   2.507  0.1407  0.5031  0.3770
  816MOL0     C12535  -0.615  10.779   2.498  0.4389 -0.1461 -0.0373
  816MOL0     C12536   0.031  10.231   2.632 -0.5104 -0.0458 -0.3831
  816MOL0     C12537   0.172  10.253   2.613 -0.0211 -0.3338  0.2295
  816MOL0     C12538   0.243  10.166   2.517 -0.5928 -0.2595 -0.2253
  816MOL0     H12539   0.481  10.684   2.632 -0.2514 -0.9322 -0.7505
  816MOL0     H12540   0.704  10.796   2.636  0.9686 -0.1755 -1.4669
  816MOL0     H12541   1.058  10.614   2.879  1.5273  0.0877  3.7854
  816MOL0     H12542   0.931  10.671   2.979  1.4826  1.1264  2.4437
  816MOL0     H12543   1.016  10.911   2.926  1.0128  0.5266 -1.0124
  816MOL0     H12544   1.145  10.819   3.007  2.0830 -3.1316 -0.9686
  816MOL0     H12545   1.200  10.742   2.768 -2.4278  0.1615 -1.4637
  816MOL0     H12546   1.101  10.863   2.711  0.0319 -2.3357 -0.8425
  816MOL0     H12547   1.352  10.932   2.890 -0.7272  1.5190 -0.1139
  816MOL0     H12548   1.346  10.933   2.722  0.0327  1.8313  0.0152
  816MOL0     H12549   1.324  11.149   2.850 -0.2822  0.7628  0.1211
  816MOL0     H12550   1.170  11.119   2.909  2.0300  1.0077  0.7247
  816MOL0     H12551   1.250  11.126   2.614  0.0226 -0.1191  0.7795
  816MOL0     H12552   1.094  11.074   2.668  2.2739 -2.9724 -0.9554
  816MOL0     H12553   1.212  11.333   2.644  1.2167 -0.4997  0.3944
  816MOL0     H12554   1.144  11.339   2.806  0.1973 -1.2369  1.5437
  816MOL0     H12555   0.972  11.413   2.681 -0.0795 -0.0628  2.6275
  816MOL0     H12556   1.009  11.300   2.546  3.5393 -0.3224  0.2093
  816MOL0     H12557   0.933  11.194   2.920 -0.8364  0.6685  0.0397
  816MOL0     H12558   0.716  11.059   3.031 -1.2865 -0.2443  0.1784
  816MOL0     H12559   0.784  10.911   2.952 -1.0289 -1.3653  0.7677
  816MOL0     H12560   0.505  11.022   2.937 -1.5380 -1.2611  1.6346
  816MOL0     H12561   0.571  10.887   2.830 -1.3295  0.4626 -1.1951
  816MOL0     H12562   0.631  10.768   3.053  0.7444  0.1174 -1.6941
  816MOL0     H12563   0.544  10.892   3.125 -1.1472  0.7536 -0.0213
  816MOL0     H12564   0.349  10.831   3.008 -1.3122 -2.2539 -2.2268
  816MOL0     H12565   0.442  10.695   2.928 -1.7788 -1.1479  0.0394
  816MOL0     H12566   0.172  10.582   3.097  0.5498  0.9246  0.6375
  816MOL0     H12567  -0.038  10.518   3.137 -1.4867 -1.4817  0.2132
  816MOL0     H12568  -0.121  10.667   3.127  0.7204  2.0905  0.6245
  816MOL0     H12569  -0.131  10.562   3.275 -0.0213 -2.7518 -2.2590
  816MOL0     H12570  -0.254  11.071   3.509 -0.7116 -0.5900 -1.1410
  816MOL0     H12571  -0.428  11.099   3.670  2.0634  2.0328 -0.5168
  816MOL0     H12572  -0.459  10.849   4.042 -1.1972 -0.4433 -0.1056
  816MOL0     H12573  -0.372  11.000   4.072  0.5434 -0.1119 -0.2158
  816MOL0     H12574  -0.550  11.015   4.212 -0.6443  2.5739  0.1928
  816MOL0     H12575  -0.617  11.101   4.070  1.5142 -1.2043 -1.4222
  816MOL0     H12576  -0.655  10.807   4.109 -0.4632 -1.0494  1.1732
  816MOL0     H12577  -0.742  10.899   3.994  2.0476  0.4363 -1.0248
  816MOL0     H12578  -0.805  10.880   4.283  2.4212  2.0283 -0.3172
  816MOL0     H12579  -0.911  10.854   4.153 -0.6772  0.8500 -2.2079
  816MOL0     H12580  -0.942  11.086   4.272 -1.2655 -1.8362 -0.4407
  816MOL0     H12581  -0.798  11.138   4.189 -0.5216  1.8326 -0.0414
  816MOL0     H12582  -1.037  11.021   4.035  0.4367 -0.6386  1.2662
  816MOL0     H12583  -0.908  11.135   3.984 -2.0361  3.4104 -0.6839
  816MOL0     H12584  -1.051  11.306   4.038  1.6025  0.6521  0.3177
  816MOL0     H12585  -1.013  11.263   4.206  0.8942 -4.1476  0.1919
  816MOL0     H12586  -1.216  11.141   4.231 -4.5567  2.0342  0.0815
  816MOL0     H12587  -1.239  11.139   4.055 -0.5307  2.3595 -2.2906
  816MOL0     H12588  -0.266  10.800   3.935  0.0636  1.0747  0.2636
  816MOL0     H12589  -0.081  10.767   3.769  2.5414  3.3418 -1.5791
  816MOL0     H12590   0.204  10.905   3.468  1.9074 -0.8140  0.4411
  816MOL0     H12591   0.408  10.840   3.340 -1.3489  1.7479  2.2317
  816MOL0     H12592   0.864  10.454   2.855 -2.0451 -1.1875  1.8801
  816MOL0     H12593   0.650  10.365   2.877  0.9400 -0.4229 -0.6171
  816MOL0     H12594   0.205  10.472   2.875 -0.1829 -0.2660  0.3747
  816MOL0     H12595  -0.033  10.427   2.898  0.6868  2.6213 -0.1981
  816MOL0     H12596  -0.349  10.319   2.815  1.2861  1.5878  1.1308
  816MOL0     H12597  -0.240  10.453   2.816  0.5741 -1.0635  1.3830
  816MOL0     H12598  -0.378  10.320   2.580 -0.9740  1.1722 -0.6148
  816MOL0     H12599  -0.230  10.430   2.565  0.5651  2.0908  1.3993
  816MOL0     H12600  -0.490  10.521   2.686  0.7045 -1.6562  2.0040
  816MOL0     H12601  -0.341  10.620   2.686 -2.2051  0.3998  1.5698
  816MOL0     H12602  -0.465  10.510   2.416  1.0417  3.0512 -4.9192
  816MOL0     H12603  -0.339  10.630   2.443 -0.2747  0.4465 -0.9208
  816MOL0     H12604  -0.689  10.855   2.481  1.6158  0.9059 -0.5258
  816MOL0     H12605  -0.022  10.167   2.562  1.6855  0.4966 -2.6777
  816MOL0     H12606   0.273  10.214   2.423 -1.6963 -0.1026 -0.5158
  816MOL0     H12607   0.326  10.128   2.576 -1.5606 -0.3027  1.1592
  816MOL0     H12608   0.182  10.080   2.489  0.2883 -1.2949  0.9700
  817MOL0     O12609  10.833  10.985  10.548 -0.2125  1.0251  0.4700
  817MOL0     C12610  10.751  11.047  10.475 -0.4094  0.3039 -0.1636
  817MOL0     O12611  10.636  11.102  10.520 -0.3271 -0.0969 -0.5078
  817MOL0     C12612  10.606  11.121  10.651  0.4544 -0.5187  0.2129
  817MOL0     C12613  10.480  11.081  10.706  1.1706 -0.0741  0.0105
  817MOL0     C12614  10.458  11.103  10.846  0.1985  0.3084  1.3159
  817MOL0     C12615  10.543  11.178  10.921  0.8965 -0.2902 -0.1434
  817MOL0     O12616  10.508  11.200  11.049 -1.0591 -0.2365 -0.5671
  817MOL0     C12617  10.460  11.089  11.134 -0.4037  0.1343 -0.3206
  817MOL0     C12618  10.518  11.112  11.280 -0.2010 -0.3099 -0.8727
  817MOL0     C12619  10.494  10.983  11.369 -0.2420  0.2168 -0.9046
  817MOL0     C12620  10.572  10.866  11.300  0.3306 -0.9262  0.6274
  817MOL0     C12621  10.587  10.775  11.421  0.4588 -0.3545 -0.1391
  817MOL0     C12622  10.647  10.637  11.366  0.1964 -0.0751 -0.2316
  817MOL0     C12623  10.656  10.545  11.487 -0.0823  0.3991  0.0456
  817MOL0     C12624  10.699  10.406  11.447 -0.4536  0.8230 -0.1756
  817MOL0     N12625  10.769  10.332  11.554 -0.2648  0.6659  0.2938
  817MOL0     C12626  10.900  10.289  11.560  0.1664  0.3257 -0.7333
  817MOL0     C12627  10.906  10.219  11.678 -0.5957 -0.2907  0.6124
  817MOL0     C12628  11.033  10.169  11.743 -0.0020 -0.2068 -0.3356
  817MOL0     C12629  11.065  10.260  11.858 -0.8981 -0.1704 -0.7137
  817MOL0     C12630  11.179  10.210  11.953 -0.2363 -0.5907 -0.7551
  817MOL0     C12631  11.313  10.235  11.879 -0.9334 -0.3099 -0.3151
  817MOL0     O12632  11.421  10.175  11.950  0.3494  0.5429 -0.2702
  817MOL0     C12633  11.551  10.217  11.922  0.2370 -0.0382 -0.0221
  817MOL0     C12634  11.590  10.267  11.800 -0.1465  0.8619  0.1406
  817MOL0     C12635  11.718  10.297  11.766 -0.2654  0.1524 -0.1291
  817MOL0     C12636  11.739  10.359  11.627  0.0256  0.2260 -0.8985
  817MOL0     C12637  11.823  10.256  11.853  0.3610  0.3335  0.3845
  817MOL0     C12638  11.971  10.282  11.815 -0.6714 -0.5740 -0.5633
  817MOL0     O12639  12.063  10.202  11.879  0.4521  0.4578 -0.1143
  817MOL0     C12640  12.194  10.238  11.873 -0.0568 -0.4222 -0.5235
  817MOL0     C12641  12.238  10.366  11.919  0.0343 -0.1313  0.1236
  817MOL0     C12642  12.367  10.406  11.908 -0.3668 -0.1083 -0.1616
  817MOL0     C12643  12.458  10.306  11.858  0.0052 -0.4676  0.2657
  817MOL0     O12644  12.589  10.335  11.856 -0.1160 -0.3857 -0.4830
  817MOL0     C12645  12.634  10.345  11.726  0.8774  0.0615  0.9738
  817MOL0     C12646  12.781  10.380  11.728 -0.0678 -0.4273  0.5086
  817MOL0     C12647  12.817  10.423  11.586  0.2142  1.3423 -0.4018
  817MOL0     C12648  12.957  10.474  11.580 -0.9713  1.0812 -0.5894
  817MOL0     C12649  12.973  10.606  11.494 -0.3126 -0.0525  0.1755
  817MOL0     C12650  13.120  10.659  11.498 -0.4990  0.0591  0.2203
  817MOL0     C12651  13.228  10.588  11.418  0.2030 -0.0264 -0.1297
  817MOL0     C12652  13.365  10.638  11.449  0.4343 -0.3886  0.0957
  817MOL0    Cl12653  13.445  10.559  11.575  0.0146  0.0641 -0.4742
  817MOL0     C12654  12.416  10.180  11.814 -0.1508  1.1790  0.5443
  817MOL0     C12655  12.283  10.139  11.826  0.7548 -0.6253 -0.1297
  817MOL0     O12656  11.999  10.375  11.742  0.2938 -0.3367 -0.7105
  817MOL0     C12657  11.787  10.188  11.972 -1.0203 -0.6980  0.1793
  817MOL0     C12658  11.655  10.171  12.005  0.1894  0.1819 -0.3593
  817MOL0     N12659  10.780  10.218  11.737 -0.1860  0.0404 -1.2042
  817MOL0     N12660  10.702  10.280  11.662  0.5311 -0.2724 -0.6989
  817MOL0     C12661  10.666  11.229  10.869  0.5799  1.2277 -0.0549
  817MOL0     C12662  10.700  11.188  10.733  0.6251 -0.9828 -0.4229
  817MOL0     C12663  10.789  11.047  10.333  0.7940  0.5850  0.9832
  817MOL0     C12664  10.684  11.063  10.245 -0.6042 -0.4308  0.2491
  817MOL0     C12665  10.701  11.070  10.103 -0.2927  0.3276  0.2410
  817MOL0     C12666  10.826  11.048  10.054 -0.5253 -0.5379  0.0854
  817MOL0     O12667  10.852  11.040   9.916 -0.9308  0.4889  0.1095
  817MOL0     C12668  10.774  11.122   9.831 -0.0870  0.0956 -0.6654
  817MOL0     C12669  10.840  11.157   9.698 -0.2727  0.5334  0.2040
  817MOL0     C12670  10.755  11.263   9.619 -0.0831  0.3716 -0.4530
  817MOL0     C12671  10.845  11.342   9.530 -0.6766  0.3421 -0.2100
  817MOL0     C12672  10.928  11.257   9.445  1.1659  0.4919  0.2701
  817MOL0     C12673  10.979  11.174   9.368  0.6336  0.0355 -0.3176
  817MOL0     C12674  10.934  11.026  10.140  0.4251  0.1003 -0.4657
  817MOL0     C12675  10.913  11.030  10.277 -0.3589  0.1605  0.0090
  817MOL0     C12676  11.041  11.022  10.356  0.0376  0.6698 -0.1821
  817MOL0     H12677  10.399  11.028  10.656  0.6207 -0.3076  1.1138
  817MOL0     H12678  10.377  11.051  10.896 -0.3601 -0.7640 -0.6138
  817MOL0     H12679  10.497  10.996  11.089 -1.3569 -1.3990  1.8987
  817MOL0     H12680  10.352  11.099  11.145 -0.4940  0.2957 -1.2825
  817MOL0     H12681  10.621  11.147  11.289 -0.1142 -0.6986 -0.2799
  817MOL0     H12682  10.458  11.194  11.320 -1.1923 -1.8960  1.0683
  817MOL0     H12683  10.527  11.009  11.470 -2.3583 -2.4033  0.6000
  817MOL0     H12684  10.387  10.965  11.379 -0.5183  2.0711 -0.3118
  817MOL0     H12685  10.512  10.815  11.223 -1.2356  0.0015  1.1891
  817MOL0     H12686  10.664  10.910  11.261 -2.5497  2.4862 -3.1539
  817MOL0     H12687  10.492  10.758  11.471  0.5083  1.4617  0.6403
  817MOL0     H12688  10.642  10.815  11.507 -2.0127 -1.8600  2.2933
  817MOL0     H12689  10.587  10.594  11.286 -1.9059  0.3120  1.0610
  817MOL0     H12690  10.752  10.652  11.338  1.0425  1.3597  3.1699
  817MOL0     H12691  10.556  10.539  11.531 -0.7108 -2.0122 -1.4966
  817MOL0     H12692  10.719  10.592  11.563 -0.0020 -2.1771  1.7128
  817MOL0     H12693  10.610  10.349  11.418 -1.4248  2.3848 -0.3636
  817MOL0     H12694  10.770  10.417  11.365  1.9512  2.2882  1.9325
  817MOL0     H12695  10.983  10.306  11.491 -0.1763  2.0667 -0.7630
  817MOL0     H12696  11.106  10.171  11.661 -0.3288 -0.1117 -0.6303
  817MOL0     H12697  11.015  10.065  11.774 -2.5483 -0.1471 -1.3694
  817MOL0     H12698  11.088  10.362  11.824  0.1670 -0.9078 -2.3310
  817MOL0     H12699  10.974  10.255  11.919 -0.2733 -0.2957  0.2248
  817MOL0     H12700  11.172  10.268  12.045 -2.8611  1.2107 -1.9687
  817MOL0     H12701  11.164  10.108  11.989 -0.8711 -0.0762  0.5206
  817MOL0     H12702  11.319  10.174  11.788  2.0847 -2.4278  1.1096
  817MOL0     H12703  11.316  10.341  11.851  0.3474  0.1201  1.3041
  817MOL0     H12704  11.523  10.299  11.721 -1.1891  1.7712  1.3386
  817MOL0     H12705  11.831  10.315  11.587  0.0574 -0.7960  0.2331
  817MOL0     H12706  11.751  10.468  11.631  1.2185  0.3434 -4.5100
  817MOL0     H12707  11.660  10.331  11.557 -0.6535  0.6503 -0.3213
  817MOL0     H12708  12.175  10.443  11.962 -2.9292 -2.3089 -0.0458
  817MOL0     H12709  12.405  10.500  11.946  2.4718 -0.3478 -2.1339
  817MOL0     H12710  12.624  10.249  11.674  1.7098  0.8862 -0.7490
  817MOL0     H12711  12.585  10.418  11.662  0.8678 -0.6294  0.1688
  817MOL0     H12712  12.802  10.464  11.795  2.8638 -1.0302  0.4457
  817MOL0     H12713  12.835  10.291  11.762 -0.3746  0.2813  3.0690
  817MOL0     H12714  12.747  10.499  11.549 -1.5140 -0.6807 -1.5712
  817MOL0     H12715  12.811  10.339  11.516  2.4633  0.8374 -0.0673
  817MOL0     H12716  13.034  10.403  11.548  0.9833  1.8743  1.9776
  817MOL0     H12717  12.990  10.497  11.681 -1.2750 -1.8903  0.2793
  817MOL0     H12718  12.939  10.582  11.393  2.5308  0.3417 -0.9745
  817MOL0     H12719  12.917  10.693  11.527  3.6002  2.5705  0.5482
  817MOL0     H12720  13.163  10.672  11.598 -2.4511 -0.3441  1.1630
  817MOL0     H12721  13.126  10.762  11.464  0.9586 -0.4662 -1.2708
  817MOL0     H12722  13.204  10.599  11.312 -0.6234  0.0210  0.0488
  817MOL0     H12723  13.224  10.482  11.446  4.3174 -0.1151  0.6184
  817MOL0     H12724  13.358  10.744  11.474  0.8693 -1.1648  4.2518
  817MOL0     H12725  13.444  10.630  11.374  0.9812 -0.3628  0.6626
  817MOL0     H12726  12.481  10.101  11.777 -2.7136  0.2331 -2.4468
  817MOL0     H12727  12.255  10.035  11.811 -0.8265 -0.4013  0.9664
  817MOL0     H12728  11.874  10.156  12.027 -1.2485  1.9216  2.3009
  817MOL0     H12729  11.634  10.125  12.101  0.7637 -1.9150 -1.1660
  817MOL0     H12730  10.726  11.282  10.942  0.8595  2.1669 -0.9378
  817MOL0     H12731  10.800  11.198  10.693 -0.3705  1.1102 -2.6541
  817MOL0     H12732  10.587  11.082  10.289 -1.6458 -2.3701 -1.0619
  817MOL0     H12733  10.618  11.088  10.035  1.3481  1.9648 -1.4347
  817MOL0     H12734  10.681  11.071   9.801 -0.8516  0.4846  0.9286
  817MOL0     H12735  10.738  11.214   9.877  1.7315  0.6993 -0.3937
  817MOL0     H12736  10.851  11.070   9.632 -2.5659 -0.7563  1.3748
  817MOL0     H12737  10.940  11.195   9.720  0.6494 -1.6679  0.1409
  817MOL0     H12738  10.683  11.213   9.554  0.4777 -4.0707  1.8932
  817MOL0     H12739  10.697  11.330   9.683 -1.1304  1.1957 -2.2045
  817MOL0     H12740  10.904  11.420   9.577 -1.6262 -0.3324  2.2544
  817MOL0     H12741  10.774  11.399   9.468 -2.5390 -1.0348  0.5364
  817MOL0     H12742  11.030  11.104   9.304 -2.6304 -2.6783 -0.2021
  817MOL0     H12743  11.035  11.015  10.101  1.6321 -1.9755  2.7820
  817MOL0     H12744  11.051  11.119  10.406  1.8188  0.3192  0.1889
  817MOL0     H12745  11.027  10.945  10.432 -0.8585  2.4345  1.5190
  817MOL0     H12746  11.132  11.008  10.297 -0.1022  0.5834 -0.3796
  818MOL0     O12747   0.790   2.593   9.183 -0.1727 -0.5743  0.4425
  818MOL0     C12748   0.827   2.604   9.300 -0.2598  1.1619 -0.2543
  818MOL0     O12749   0.934   2.672   9.356  0.3333  0.1495 -0.5680
  818MOL0     C12750   1.053   2.680   9.280  0.6196  0.1227  0.3445
  818MOL0     C12751   1.100   2.811   9.269 -0.3533  0.6805 -0.1139
  818MOL0     C12752   1.197   2.841   9.172 -0.1294 -0.1426  0.6941
  818MOL0     C12753   1.259   2.737   9.101  0.1278 -0.1127 -1.2300
  818MOL0     O12754   1.365   2.769   9.022 -0.5161  0.3986  0.9521
  818MOL0     C12755   1.491   2.791   9.074 -0.2096 -0.1775 -0.1416
  818MOL0     C12756   1.592   2.823   8.960 -0.5690  0.1110 -0.4006
  818MOL0     C12757   1.528   2.923   8.864  0.2339  0.1746 -0.2966
  818MOL0     C12758   1.633   2.974   8.766  0.2505 -0.5434 -0.2731
  818MOL0     C12759   1.751   3.058   8.827 -0.7044  0.5374  0.3306
  818MOL0     C12760   1.853   3.081   8.717  0.7338 -0.1703 -0.1697
  818MOL0     C12761   1.968   3.169   8.773 -0.2632  0.4860 -0.1669
  818MOL0     C12762   2.060   3.103   8.878 -0.3271  0.5422 -0.8417
  818MOL0     N12763   2.156   3.205   8.931  0.2993 -0.1597 -0.1614
  818MOL0     C12764   2.284   3.213   8.892  0.6918 -0.5869 -1.1475
  818MOL0     C12765   2.323   3.333   8.941 -0.6261 -0.4567 -0.6143
  818MOL0     C12766   2.453   3.406   8.931 -0.6015 -0.3121 -0.5156
  818MOL0     C12767   2.593   3.327   8.925  0.0129  0.6236  0.1571
  818MOL0     C12768   2.705   3.423   8.945 -0.5380 -0.0709  0.1146
  818MOL0     C12769   2.835   3.348   8.915  1.0330  0.8995  1.2090
  818MOL0     O12770   2.942   3.426   8.967 -0.5170  0.7597  0.3478
  818MOL0     C12771   3.069   3.380   8.943 -0.3052 -0.2400  0.0316
  818MOL0     C12772   3.109   3.311   8.824  0.3219 -0.0630  0.8387
  818MOL0     C12773   3.239   3.242   8.831  0.0617 -0.6883 -0.0922
  818MOL0     C12774   3.263   3.155   8.717 -0.1424  0.1140 -0.2480
  818MOL0     C12775   3.330   3.262   8.936  0.1576  0.0142 -0.4808
  818MOL0     C12776   3.462   3.200   8.948 -0.0229  0.1863  0.1972
  818MOL0     O12777   3.501   3.149   9.067 -0.1387  0.6206  1.0179
  818MOL0     C12778   3.611   3.061   9.061 -0.1525 -0.0790  0.7889
  818MOL0     C12779   3.730   3.096   9.114  1.0074  0.0974 -0.3434
  818MOL0     C12780   3.838   3.010   9.113  0.1482 -0.4002 -0.0579
  818MOL0     C12781   3.830   2.885   9.063  0.2379 -0.4814 -0.2433
  818MOL0     O12782   3.932   2.796   9.049 -0.2449 -0.5185 -0.1671
  818MOL0     C12783   4.062   2.825   9.111  0.2694  0.8232  0.4583
  818MOL0     C12784   4.161   2.915   9.028  0.2447  0.0804 -0.2134
  818MOL0     C12785   4.198   2.838   8.900  0.4560  0.1524  0.0136
  818MOL0     C12786   4.344   2.846   8.854  0.9540 -0.3011 -0.5427
  818MOL0     C12787   4.439   2.758   8.938 -0.4818 -0.5741  0.1175
  818MOL0     C12788   4.563   2.705   8.864 -0.1083 -0.3847 -0.4494
  818MOL0     C12789   4.656   2.809   8.800  0.5766 -0.5529  1.4477
  818MOL0     C12790   4.765   2.748   8.718 -0.6619  0.3618  0.0703
  818MOL0    Cl12791   4.725   2.737   8.537  0.2781 -0.2853  0.5582
  818MOL0     C12792   3.709   2.845   9.005  0.2580 -0.2839  0.7292
  818MOL0     C12793   3.594   2.930   9.001 -0.7738 -0.1422 -0.0386
  818MOL0     O12794   3.527   3.202   8.842  0.5951 -0.2677  0.0403
  818MOL0     C12795   3.292   3.341   9.043 -0.6907 -0.1100 -0.6208
  818MOL0     C12796   3.159   3.392   9.048  0.0126  0.0900  0.2180
  818MOL0     N12797   2.213   3.392   8.997 -0.2571  1.0491 -0.4826
  818MOL0     N12798   2.113   3.313   8.989  0.2652 -0.1810 -0.5529
  818MOL0     C12799   1.216   2.602   9.110  0.1897  0.5896 -0.0399
  818MOL0     C12800   1.109   2.574   9.202 -1.5196  0.5109  0.5264
  818MOL0     C12801   0.735   2.547   9.403 -0.5649  0.5972 -0.0953
  818MOL0     C12802   0.787   2.519   9.533 -0.2796 -0.1855 -0.5566
  818MOL0     C12803   0.706   2.479   9.636  0.3919  0.1510 -0.5306
  818MOL0     C12804   0.576   2.430   9.610  0.4534  1.2276 -0.7002
  818MOL0     O12805   0.514   2.381   9.721 -0.7573  0.3166 -0.1551
  818MOL0     C12806   0.386   2.309   9.711 -0.2718 -0.1780 -0.0702
  818MOL0     C12807   0.258   2.391   9.709 -0.1876 -0.2649 -0.7285
  818MOL0     C12808   0.234   2.453   9.840  0.0673  0.3830 -0.5808
  818MOL0     C12809   0.250   2.600   9.830  0.3210 -0.4545  0.2522
  818MOL0     C12810   0.253   2.657   9.962  0.2236  0.1569 -0.0941
  818MOL0     C12811   0.246   2.713  10.067  0.5884  0.0555  0.0703
  818MOL0     C12812   0.516   2.439   9.485  0.9040 -0.0413 -0.6658
  818MOL0     C12813   0.598   2.501   9.383  0.0055 -0.5087  0.1269
  818MOL0     C12814   0.528   2.520   9.249  0.1434  0.3177 -0.2611
  818MOL0     H12815   1.022   2.871   9.315  0.6961  1.0878  1.1693
  818MOL0     H12816   1.233   2.943   9.163  1.4624 -0.8230 -1.7526
  818MOL0     H12817   1.529   2.696   9.111  0.9085 -1.0639 -3.3265
  818MOL0     H12818   1.488   2.865   9.155 -0.5080 -0.2190 -0.1098
  818MOL0     H12819   1.681   2.864   9.009 -0.2940  0.7006 -1.3543
  818MOL0     H12820   1.619   2.730   8.907  1.5549  1.4774 -1.9138
  818MOL0     H12821   1.451   2.874   8.804 -0.7799  2.7853 -1.2842
  818MOL0     H12822   1.502   3.018   8.913  0.8175 -0.1392  0.6440
  818MOL0     H12823   1.669   2.897   8.697  2.0479  0.3345 -0.3654
  818MOL0     H12824   1.571   3.042   8.707  0.9102  0.1316 -0.1881
  818MOL0     H12825   1.793   3.009   8.915  0.5029 -3.1838 -2.1034
  818MOL0     H12826   1.700   3.152   8.852 -2.4657 -0.0932 -0.6977
  818MOL0     H12827   1.891   2.981   8.693  0.6050 -0.1757 -0.3483
  818MOL0     H12828   1.810   3.120   8.625  0.8682  1.5725  0.4670
  818MOL0     H12829   1.927   3.261   8.816  0.7056  1.1105 -0.5573
  818MOL0     H12830   2.033   3.209   8.694  0.6963 -0.7277 -0.0110
  818MOL0     H12831   2.009   3.055   8.961 -0.4123  1.4834 -0.3324
  818MOL0     H12832   2.122   3.025   8.832  1.7080  1.4760  0.2055
  818MOL0     H12833   2.341   3.132   8.848  0.6268 -0.6362 -1.1409
  818MOL0     H12834   2.442   3.465   9.023 -1.5995 -0.4367 -0.5483
  818MOL0     H12835   2.454   3.478   8.848  1.8397  1.4539  0.9068
  818MOL0     H12836   2.595   3.250   9.003  0.0269  0.4177 -0.0473
  818MOL0     H12837   2.602   3.285   8.825 -1.3342 -0.6059  0.5080
  818MOL0     H12838   2.687   3.503   8.872 -0.4498  1.0885  1.3194
  818MOL0     H12839   2.713   3.476   9.041  1.6185  2.2744 -1.2264
  818MOL0     H12840   2.823   3.250   8.962  0.0175 -0.2422 -1.2880
  818MOL0     H12841   2.845   3.343   8.806  1.6449 -0.9832  1.3236
  818MOL0     H12842   3.031   3.293   8.751 -0.5433  1.2504  1.4095
  818MOL0     H12843   3.297   3.202   8.625 -1.9544  0.8588 -0.5916
  818MOL0     H12844   3.165   3.117   8.686  0.4915 -0.3458 -1.7857
  818MOL0     H12845   3.325   3.069   8.744  1.9402  2.3599  2.6865
  818MOL0     H12846   3.732   3.187   9.173 -4.3863  0.2495  0.1489
  818MOL0     H12847   3.933   3.046   9.152  0.3395 -0.7599 -0.1846
  818MOL0     H12848   4.050   2.870   9.210 -0.5556  0.2266  0.6296
  818MOL0     H12849   4.111   2.731   9.138 -1.7953 -0.5019 -0.1917
  818MOL0     H12850   4.111   3.009   9.001 -2.1125 -0.8591  0.5984
  818MOL0     H12851   4.250   2.943   9.085  0.8417  0.1537 -1.1489
  818MOL0     H12852   4.137   2.884   8.822  0.0873  1.9674  1.3318
  818MOL0     H12853   4.162   2.737   8.923  3.1491 -0.2957  2.9380
  818MOL0     H12854   4.370   2.952   8.863  3.0407 -0.7838 -0.2607
  818MOL0     H12855   4.354   2.804   8.754  2.4260  0.7540 -0.8820
  818MOL0     H12856   4.473   2.819   9.023  1.4662  1.4496 -1.9895
  818MOL0     H12857   4.392   2.666   8.972 -0.3462 -0.5347  0.4155
  818MOL0     H12858   4.533   2.628   8.792 -3.0056  0.2833 -0.0693
  818MOL0     H12859   4.618   2.645   8.938 -0.4069 -0.2038 -0.0795
  818MOL0     H12860   4.699   2.875   8.875 -0.2270  1.4592  0.2293
  818MOL0     H12861   4.595   2.874   8.736  0.1098 -2.2470  0.0772
  818MOL0     H12862   4.791   2.647   8.751  0.5445  2.0058  5.1757
  818MOL0     H12863   4.859   2.805   8.724  1.0294 -2.1786 -0.5666
  818MOL0     H12864   3.704   2.752   8.951  1.5093 -0.3544  0.6945
  818MOL0     H12865   3.504   2.893   8.954 -0.1602 -4.0101  1.4579
  818MOL0     H12866   3.359   3.365   9.125 -1.8646 -1.0104  0.6636
  818MOL0     H12867   3.116   3.441   9.135 -1.5634 -0.8635  0.0160
  818MOL0     H12868   1.260   2.517   9.059 -1.4762 -0.0775 -0.4496
  818MOL0     H12869   1.074   2.472   9.210  1.4074 -0.5696  0.8357
  818MOL0     H12870   0.888   2.537   9.569 -0.8188  4.7962 -0.8061
  818MOL0     H12871   0.745   2.475   9.737  0.7243 -0.1486 -0.6719
  818MOL0     H12872   0.385   2.240   9.626 -2.6271 -0.9126  0.4713
  818MOL0     H12873   0.376   2.240   9.796 -1.2112 -1.3820 -1.1281
  818MOL0     H12874   0.183   2.315   9.685  0.0737 -0.4523 -0.9680
  818MOL0     H12875   0.279   2.458   9.625  3.6669 -0.9290 -0.4721
  818MOL0     H12876   0.128   2.440   9.861  0.0229 -2.1729 -1.9966
  818MOL0     H12877   0.290   2.403   9.919  1.9732  1.2897 -1.2980
  818MOL0     H12878   0.166   2.640   9.773  1.1095  4.2130  1.9259
  818MOL0     H12879   0.343   2.628   9.780 -1.1841  2.7485 -1.0283
  818MOL0     H12880   0.256   2.768  10.158  2.0627  0.7558 -0.4804
  818MOL0     H12881   0.413   2.410   9.467  1.1336 -2.7506  1.6219
  818MOL0     H12882   0.581   2.459   9.175  0.5948  0.5128 -0.1018
  818MOL0     H12883   0.421   2.498   9.255  0.0017  1.3004  1.4351
  818MOL0     H12884   0.525   2.627   9.225 -2.7560  0.8636  1.9301
  819MOL0     O12885   7.522   2.931   9.106 -0.3716  0.0126 -0.0195
  819MOL0     C12886   7.447   2.853   9.152 -0.0209  0.0778 -0.5591
  819MOL0     O12887   7.475   2.787   9.263  0.5134  0.0909  0.0217
  819MOL0     C12888   7.605   2.743   9.296 -0.1477 -0.3032  0.5400
  819MOL0     C12889   7.702   2.720   9.196  0.3040 -0.3255  0.3643
  819MOL0     C12890   7.833   2.697   9.229  0.1795 -0.8277  0.6927
  819MOL0     C12891   7.875   2.681   9.355 -0.1878 -0.0404  0.9138
  819MOL0     O12892   8.005   2.638   9.369  0.0222  0.1827  1.0257
  819MOL0     C12893   8.085   2.654   9.489 -0.0113 -0.1307 -0.2108
  819MOL0     C12894   8.230   2.646   9.457 -0.2338  0.1180  0.2743
  819MOL0     C12895   8.308   2.694   9.575 -0.0745 -0.4598  0.8894
  819MOL0     C12896   8.303   2.586   9.678 -0.0329 -0.2327 -0.1598
  819MOL0     C12897   8.397   2.603   9.793  0.0793  0.8190  0.8606
  819MOL0     C12898   8.548   2.585   9.764  0.1319 -0.8027  0.3103
  819MOL0     C12899   8.633   2.645   9.883 -0.8140  1.1591  0.3467
  819MOL0     C12900   8.783   2.662   9.841 -0.2951  0.5397 -0.2988
  819MOL0     N12901   8.869   2.622   9.950 -0.7660 -0.8544  0.0061
  819MOL0     C12902   8.895   2.706  10.057 -0.7844 -0.4062 -0.1058
  819MOL0     C12903   8.984   2.630  10.136  0.6507  0.1209 -0.5720
  819MOL0     C12904   9.063   2.674  10.256 -0.7591  0.3817 -0.9912
  819MOL0     C12905   9.194   2.753  10.242  0.1904 -0.6039  0.8554
  819MOL0     C12906   9.307   2.656  10.225  0.6187  0.4187  0.6802
  819MOL0     C12907   9.355   2.597  10.364  0.0995  0.2786  0.1500
  819MOL0     O12908   9.484   2.539  10.353 -1.2248 -0.1764 -0.5643
  819MOL0     C12909   9.604   2.614  10.352  0.2869  1.0765  0.3958
  819MOL0     C12910   9.620   2.747  10.370 -0.3401 -0.4732  0.2282
  819MOL0     C12911   9.741   2.813  10.387 -0.7389 -0.3188  0.1948
  819MOL0     C12912   9.723   2.957  10.388 -0.3597 -0.2208  0.1191
  819MOL0     C12913   9.864   2.742  10.387 -0.0175 -0.3792  0.4935
  819MOL0     C12914   9.990   2.818  10.377  0.4910  0.8350 -0.2300
  819MOL0     O12915  10.090   2.752  10.310 -0.5527 -0.4639  0.3595
  819MOL0     C12916  10.189   2.829  10.261  0.4886 -1.1659  0.0120
  819MOL0     C12917  10.166   2.924  10.166  0.0470 -0.0167 -0.3109
  819MOL0     C12918  10.272   3.016  10.137 -0.5042  0.8037 -0.3963
  819MOL0     C12919  10.399   3.002  10.191 -0.1207  0.3211 -1.1303
  819MOL0     O12920  10.501   3.083  10.131  0.2487  0.3205 -0.0286
  819MOL0     C12921  10.626   3.085  10.188 -0.5214 -0.0663  0.2679
  819MOL0     C12922  10.731   3.027  10.095  0.0498 -0.2457 -0.9495
  819MOL0     C12923  10.870   3.058  10.148  0.4432 -0.3904 -0.0969
  819MOL0     C12924  10.980   3.037  10.032  0.0295  0.8301 -0.5032
  819MOL0     C12925  11.129   3.063  10.052 -0.0874 -0.1074  0.2237
  819MOL0     C12926  11.204   3.061   9.913  1.0263  0.6466 -0.8746
  819MOL0     C12927  11.325   3.149   9.927 -0.2965 -0.0971 -1.1106
  819MOL0     C12928  11.419   3.164   9.808 -0.2424  0.3401  0.7721
  819MOL0    Cl12929  11.351   3.284   9.690 -0.0455 -0.0372  0.2968
  819MOL0     C12930  10.417   2.902  10.291 -0.3279 -1.1386  0.1024
  819MOL0     C12931  10.312   2.816  10.314 -0.2041 -0.2347 -0.3386
  819MOL0     O12932   9.998   2.923  10.433  0.1184 -0.4117 -0.1347
  819MOL0     C12933   9.857   2.602  10.379  0.0310  0.0073  0.7826
  819MOL0     C12934   9.727   2.544  10.360 -0.7092 -0.5437 -0.3590
  819MOL0     N12935   8.986   2.499  10.072  0.0749 -0.1754 -0.5535
  819MOL0     N12936   8.904   2.497   9.968 -0.3597  0.5692  0.3633
  819MOL0     C12937   7.780   2.692   9.456 -0.8901 -0.1688 -0.6248
  819MOL0     C12938   7.648   2.729   9.428  0.1054  0.2422  0.3414
  819MOL0     C12939   7.313   2.849   9.092  0.0440 -0.3769  0.9727
  819MOL0     C12940   7.210   2.799   9.182 -0.3972 -0.0463  0.9034
  819MOL0     C12941   7.078   2.799   9.137  0.6039 -0.6472  0.0247
  819MOL0     C12942   7.048   2.843   9.011  0.4576 -0.4214  0.8629
  819MOL0     O12943   6.923   2.854   8.957  0.2569  0.4559 -0.1752
  819MOL0     C12944   6.814   2.773   9.007 -0.0466  0.8672  0.8023
  819MOL0     C12945   6.702   2.770   8.904 -0.1153 -0.6401  0.2109
  819MOL0     C12946   6.626   2.901   8.897 -0.4349  0.3633  0.1589
  819MOL0     C12947   6.681   3.003   8.798  0.2450  0.1417 -0.6236
  819MOL0     C12948   6.599   3.125   8.784 -0.2620  0.4433 -0.1942
  819MOL0     C12949   6.537   3.228   8.766 -0.2152  0.0086 -0.8648
  819MOL0     C12950   7.146   2.884   8.920 -0.5950 -0.3123  0.0903
  819MOL0     C12951   7.280   2.891   8.954 -1.0288  0.3541 -0.3882
  819MOL0     C12952   7.370   2.950   8.849 -0.3585 -0.0900  0.5347
  819MOL0     H12953   7.674   2.712   9.092 -0.3564 -1.8879  0.6394
  819MOL0     H12954   7.899   2.679   9.145 -1.8710 -1.9937 -0.7561
  819MOL0     H12955   8.054   2.578   9.562 -0.2555 -0.2194 -0.4076
  819MOL0     H12956   8.062   2.751   9.535  0.6354  0.4577 -1.0961
  819MOL0     H12957   8.268   2.546   9.435  0.1955 -0.2096  2.3014
  819MOL0     H12958   8.254   2.711   9.372 -0.0633 -0.5246 -0.1793
  819MOL0     H12959   8.407   2.709   9.531 -0.8211 -0.8100 -0.9733
  819MOL0     H12960   8.269   2.782   9.626 -1.0779 -0.6530  0.4943
  819MOL0     H12961   8.203   2.583   9.722  0.7553 -1.8569  1.7029
  819MOL0     H12962   8.309   2.488   9.631  0.1395  0.1808 -1.0186
  819MOL0     H12963   8.368   2.521   9.859 -2.3251  2.1306  1.5411
  819MOL0     H12964   8.385   2.703   9.835  0.5652  1.2995 -0.1144
  819MOL0     H12965   8.561   2.477   9.749 -0.5498 -0.4941 -3.4143
  819MOL0     H12966   8.582   2.629   9.670  1.6193 -0.7516  0.8564
  819MOL0     H12967   8.626   2.567   9.960  0.6801  0.8593  0.2165
  819MOL0     H12968   8.598   2.742   9.920  1.4474  1.6558  1.4011
  819MOL0     H12969   8.796   2.606   9.748  1.7866  2.8384 -1.5277
  819MOL0     H12970   8.803   2.766   9.812 -0.2992  0.2365 -1.4402
  819MOL0     H12971   8.870   2.810  10.072  2.5002  0.3678  0.6119
  819MOL0     H12972   9.084   2.582  10.310  2.6720  1.0637 -0.9222
  819MOL0     H12973   9.003   2.739  10.321  0.7104 -1.0882  2.0133
  819MOL0     H12974   9.189   2.815  10.152  1.9325 -0.2000  1.0015
  819MOL0     H12975   9.212   2.827  10.321 -0.2218  0.2835  0.1409
  819MOL0     H12976   9.281   2.569  10.164  0.7347  0.3605  0.7138
  819MOL0     H12977   9.388   2.715  10.181 -0.1818  0.6551 -0.5509
  819MOL0     H12978   9.358   2.680  10.435 -1.2539  0.0588  0.4911
  819MOL0     H12979   9.288   2.520  10.403 -3.2515  0.7445 -3.9667
  819MOL0     H12980   9.524   2.798  10.369 -1.2756 -2.1635 -0.4869
  819MOL0     H12981   9.618   2.986  10.380 -0.7337 -1.4516  0.2448
  819MOL0     H12982   9.785   3.008  10.315 -1.7725  0.0614 -0.9391
  819MOL0     H12983   9.756   2.984  10.488  2.0518 -0.8467 -0.4359
  819MOL0     H12984  10.072   2.929  10.111  1.0948 -0.6865 -2.2631
  819MOL0     H12985  10.258   3.099  10.069  2.1094 -0.8916 -3.2167
  819MOL0     H12986  10.650   3.190  10.207  2.0044 -0.4038 -0.5750
  819MOL0     H12987  10.634   3.036  10.285 -0.8104  2.4320  1.6525
  819MOL0     H12988  10.721   2.919  10.078 -1.3022  0.1174 -2.8384
  819MOL0     H12989  10.727   3.079   9.999 -1.7102  1.4180 -0.0390
  819MOL0     H12990  10.886   3.007  10.244 -0.6197 -1.2256 -0.3448
  819MOL0     H12991  10.865   3.166  10.169  0.4819 -0.3456 -0.3208
  819MOL0     H12992  10.946   3.096   9.946 -0.8478 -0.6127 -1.1779
  819MOL0     H12993  10.978   2.932  10.003 -3.2676  0.7099 -0.2117
  819MOL0     H12994  11.134   3.158  10.105 -2.7714  0.5697 -0.5672
  819MOL0     H12995  11.171   2.986  10.118 -1.7049 -2.1417 -0.9812
  819MOL0     H12996  11.136   3.083   9.830 -1.6768 -1.7798  0.4845
  819MOL0     H12997  11.228   2.956   9.892 -0.2201  0.3235 -0.7744
  819MOL0     H12998  11.385   3.115  10.012 -0.8161 -0.2793 -0.8092
  819MOL0     H12999  11.291   3.251   9.947 -1.6940 -0.4974 -1.2794
  819MOL0     H13000  11.440   3.068   9.760 -0.2988 -0.0976  1.6090
  819MOL0     H13001  11.510   3.215   9.841 -0.4846  0.9897  0.4696
  819MOL0     H13002  10.511   2.881  10.343  1.2889  2.6328 -0.9658
  819MOL0     H13003  10.328   2.737  10.386  1.4626  1.4583  1.2534
  819MOL0     H13004   9.947   2.543  10.363  0.6524  1.1168  0.0245
  819MOL0     H13005   9.733   2.435  10.357 -0.7483 -0.5986  1.1567
  819MOL0     H13006   7.818   2.669   9.556  2.0352 -2.0258 -2.0197
  819MOL0     H13007   7.582   2.739   9.513  0.9782 -1.2374  1.2220
  819MOL0     H13008   7.235   2.768   9.282 -1.7426 -0.4469  1.1294
  819MOL0     H13009   6.995   2.770   9.200  0.3358 -1.0346 -0.4973
  819MOL0     H13010   6.845   2.669   9.020  0.5696  1.0710  1.0068
  819MOL0     H13011   6.776   2.816   9.100 -3.1566  1.3361 -0.5619
  819MOL0     H13012   6.631   2.696   8.942  0.5654 -1.6070 -0.3531
  819MOL0     H13013   6.741   2.741   8.806  0.6645  1.1670 -0.0442
  819MOL0     H13014   6.526   2.870   8.867 -0.8070  1.3113  0.3865
  819MOL0     H13015   6.622   2.958   8.991  0.3866  2.2021 -0.8691
  819MOL0     H13016   6.698   2.960   8.699 -0.2946  2.1301 -1.6306
  819MOL0     H13017   6.778   3.041   8.833  0.0209  2.1494 -1.9909
  819MOL0     H13018   6.480   3.318   8.763  1.3661  1.5123  4.0720
  819MOL0     H13019   7.122   2.914   8.818 -0.9216 -0.3920  0.1414
  819MOL0     H13020   7.384   3.056   8.868 -0.9546  0.5211 -2.0003
  819MOL0     H13021   7.470   2.908   8.839  0.1452  1.4567 -1.5592
  819MOL0     H13022   7.319   2.937   8.753  0.5993 -1.0828  0.1341
  820MOL0     O13023   3.263   3.201   4.976 -0.1462 -0.4291 -0.2970
  820MOL0     C13024   3.233   3.212   5.094 -0.2660 -0.3344 -0.0642
  820MOL0     O13025   3.311   3.162   5.194  0.3182 -0.4628  0.2264
  820MOL0     C13026   3.439   3.119   5.171  0.6011  0.3851 -0.0186
  820MOL0     C13027   3.528   3.139   5.283  0.0728  0.5016  0.7663
  820MOL0     C13028   3.660   3.089   5.275  0.0363 -0.4126  0.5427
  820MOL0     C13029   3.703   3.020   5.165 -0.3648 -1.0372 -0.3273
  820MOL0     O13030   3.832   2.980   5.164  0.2165 -0.3745  0.3707
  820MOL0     C13031   3.882   2.921   5.039  0.0083  0.0002  0.5842
  820MOL0     C13032   4.034   2.909   5.047  0.5837 -0.1966  0.1865
  820MOL0     C13033   4.097   2.895   4.908 -0.2839  0.6096  0.1884
  820MOL0     C13034   4.248   2.915   4.909 -1.2014 -0.2741  0.1523
  820MOL0     C13035   4.312   2.907   4.772  0.0185 -0.2134 -0.3404
  820MOL0     C13036   4.466   2.909   4.789 -0.0826  0.3510  0.2021
  820MOL0     C13037   4.537   2.891   4.660  0.7471 -0.6388 -0.9132
  820MOL0     C13038   4.680   2.942   4.679  0.1877  1.2640 -0.1660
  820MOL0     N13039   4.754   2.894   4.792  0.2085 -0.3258 -0.2998
  820MOL0     C13040   4.756   2.763   4.829 -0.4813  0.0585  0.0083
  820MOL0     C13041   4.809   2.752   4.950  1.1134 -0.5914 -0.8235
  820MOL0     C13042   4.822   2.617   5.011 -0.2498 -0.1104  0.3960
  820MOL0     C13043   4.962   2.559   4.992  0.6441 -0.0783 -0.3146
  820MOL0     C13044   5.051   2.579   5.121  1.0025  0.4501 -0.6803
  820MOL0     C13045   5.196   2.544   5.099  0.4154 -0.5680 -0.4446
  820MOL0     O13046   5.263   2.531   5.227  0.2703 -0.6680  0.4273
  820MOL0     C13047   5.381   2.456   5.230 -0.1680  0.0532  0.6838
  820MOL0     C13048   5.377   2.319   5.233 -0.9855  0.2845 -0.6310
  820MOL0     C13049   5.496   2.250   5.239  0.3472  1.0428  0.0049
  820MOL0     C13050   5.473   2.097   5.254 -0.4783 -0.7792 -0.3138
  820MOL0     C13051   5.626   2.308   5.238  0.2601 -0.5192 -0.1189
  820MOL0     C13052   5.755   2.246   5.233 -0.6416  0.6699 -0.1442
  820MOL0     O13053   5.868   2.329   5.218 -0.7646  0.5250 -0.4947
  820MOL0     C13054   6.003   2.286   5.231 -0.1604 -0.2828  0.7718
  820MOL0     C13055   6.099   2.367   5.160 -0.5712  0.0216  0.0360
  820MOL0     C13056   6.237   2.336   5.178 -0.9386  0.2533  0.7370
  820MOL0     C13057   6.283   2.234   5.262 -0.1340 -0.2975 -0.6697
  820MOL0     O13058   6.411   2.202   5.271  0.1011  0.4790  0.2699
  820MOL0     C13059   6.473   2.144   5.153  0.2383 -0.0781  0.0854
  820MOL0     C13060   6.461   1.994   5.151  0.1726  0.6682 -0.9343
  820MOL0     C13061   6.528   1.933   5.024 -0.3818  0.1741 -0.3430
  820MOL0     C13062   6.476   1.790   5.006 -0.1076  0.4939  0.7135
  820MOL0     C13063   6.500   1.729   4.862 -0.7091 -0.3754  0.4406
  820MOL0     C13064   6.652   1.723   4.819 -0.3867  0.2246 -0.6894
  820MOL0     C13065   6.665   1.696   4.669  0.3103  0.0939  0.5274
  820MOL0     C13066   6.803   1.692   4.628  0.6086  0.5281 -0.0715
  820MOL0    Cl13067   6.857   1.537   4.688 -0.5246  0.0960 -0.1202
  820MOL0     C13068   6.187   2.162   5.325  0.5449  0.5090  0.7997
  820MOL0     C13069   6.051   2.186   5.314  1.0492  0.7159 -0.8986
  820MOL0     O13070   5.759   2.125   5.226 -0.0714 -0.4931 -0.6499
  820MOL0     C13071   5.627   2.447   5.225 -0.1188  0.0221  0.2015
  820MOL0     C13072   5.501   2.521   5.215 -0.9964  0.2205  0.3022
  820MOL0     N13073   4.837   2.879   4.993 -0.1852  0.3508 -0.7361
  820MOL0     N13074   4.814   2.970   4.902  0.2106 -0.4971  0.5862
  820MOL0     C13075   3.612   2.998   5.050  0.2616  0.0480 -0.1442
  820MOL0     C13076   3.486   3.045   5.061 -0.5156 -0.0681  0.3097
  820MOL0     C13077   3.108   3.278   5.133  0.0387 -0.5181  0.0254
  820MOL0     C13078   3.111   3.339   5.259  0.3177 -0.1570 -0.9265
  820MOL0     C13079   2.995   3.394   5.315 -0.2096  0.0598 -0.3692
  820MOL0     C13080   2.871   3.392   5.242 -0.5228  0.2468  0.3529
  820MOL0     O13081   2.764   3.456   5.299  0.3054  0.3083 -0.3634
  820MOL0     C13082   2.641   3.445   5.229 -0.0357 -0.2843 -1.2470
  820MOL0     C13083   2.547   3.557   5.277 -0.5636  0.1691  0.4580
  820MOL0     C13084   2.511   3.557   5.429  0.8712  0.0556  1.0390
  820MOL0     C13085   2.447   3.683   5.479  0.2044  0.2444 -0.0417
  820MOL0     C13086   2.324   3.722   5.409 -0.9922 -0.2075  0.1560
  820MOL0     C13087   2.215   3.743   5.365  0.4632  0.3440  0.3143
  820MOL0     C13088   2.872   3.328   5.128 -0.0096  0.4449  0.3840
  820MOL0     C13089   2.987   3.274   5.065  0.2823  0.3119 -1.1284
  820MOL0     C13090   2.981   3.205   4.934  0.7257  0.0529 -0.7244
  820MOL0     H13091   3.506   3.186   5.378  2.6861 -1.7338  2.6116
  820MOL0     H13092   3.732   3.117   5.352 -0.2839  0.4472  0.5369
  820MOL0     H13093   3.861   2.987   4.953  2.3133  1.1341  0.8028
  820MOL0     H13094   3.824   2.829   5.028 -3.1651  2.0837 -2.4959
  820MOL0     H13095   4.080   2.993   5.099 -0.3927 -2.2942  5.0462
  820MOL0     H13096   4.055   2.818   5.105  1.2761  0.1551  0.5015
  820MOL0     H13097   4.078   2.800   4.857  4.0297  0.0596 -0.8526
  820MOL0     H13098   4.067   2.980   4.845  1.4882  0.5082 -0.8682
  820MOL0     H13099   4.274   3.008   4.960 -1.9297 -0.2209  0.4515
  820MOL0     H13100   4.288   2.833   4.970 -4.4586 -1.6778  0.6541
  820MOL0     H13101   4.296   2.999   4.714  1.7450  0.0576 -0.4452
  820MOL0     H13102   4.283   2.819   4.714 -1.1718  1.1903 -1.9780
  820MOL0     H13103   4.486   3.006   4.836  2.2976 -0.3664  0.7803
  820MOL0     H13104   4.492   2.836   4.866 -2.5981 -0.8286  0.0276
  820MOL0     H13105   4.486   2.950   4.584 -0.2464 -0.7655 -0.3551
  820MOL0     H13106   4.531   2.787   4.627 -1.0570 -1.1706  0.8578
  820MOL0     H13107   4.739   2.920   4.590  2.7507  1.8438  1.2851
  820MOL0     H13108   4.675   3.050   4.696 -3.5463  1.3116 -0.5684
  820MOL0     H13109   4.714   2.685   4.767 -1.1155  1.7577 -1.8097
  820MOL0     H13110   4.748   2.557   4.958 -0.8898  0.1876  0.9427
  820MOL0     H13111   4.785   2.627   5.114  0.3071 -0.3947  0.6311
  820MOL0     H13112   4.946   2.454   4.968  1.4232  0.0821 -1.6316
  820MOL0     H13113   5.009   2.601   4.903  1.3090 -0.8762 -0.3612
  820MOL0     H13114   5.039   2.684   5.147  0.3754  0.8154 -2.3123
  820MOL0     H13115   5.002   2.515   5.194  0.3337 -1.2930 -2.5424
  820MOL0     H13116   5.197   2.446   5.049 -1.1551 -0.5290 -0.6306
  820MOL0     H13117   5.242   2.612   5.027 -1.6553 -1.3852 -2.6906
  820MOL0     H13118   5.276   2.281   5.247 -1.0081 -2.0620 -5.1926
  820MOL0     H13119   5.368   2.068   5.260 -0.3621 -1.5716 -1.6628
  820MOL0     H13120   5.523   2.060   5.344  1.7444 -1.4116 -1.7099
  820MOL0     H13121   5.520   2.045   5.170 -3.9517 -2.2799 -1.5038
  820MOL0     H13122   6.068   2.443   5.089  1.1529  0.8088  0.0779
  820MOL0     H13123   6.315   2.388   5.123 -0.5871  0.2902  1.2711
  820MOL0     H13124   6.422   2.181   5.064 -0.3002  3.5433  1.6996
  820MOL0     H13125   6.580   2.168   5.153  0.5317 -1.2840 -1.4459
  820MOL0     H13126   6.507   1.941   5.235 -0.7077 -0.9129 -1.4044
  820MOL0     H13127   6.354   1.975   5.155  0.6110 -1.9051  0.9693
  820MOL0     H13128   6.635   1.932   5.043  0.1844  1.1995 -3.0229
  820MOL0     H13129   6.511   1.998   4.938  0.2819  3.0328  1.5406
  820MOL0     H13130   6.373   1.775   5.038  0.1301  1.7202  2.2071
  820MOL0     H13131   6.538   1.731   5.074  2.5079 -0.0351 -1.9491
  820MOL0     H13132   6.457   1.629   4.853 -1.1100 -0.2776  1.2359
  820MOL0     H13133   6.447   1.785   4.784 -1.0698 -0.9237  0.2854
  820MOL0     H13134   6.683   1.632   4.871 -1.4566 -0.4249 -1.1532
  820MOL0     H13135   6.712   1.807   4.856  1.5278 -1.1782 -0.4237
  820MOL0     H13136   6.603   1.772   4.620  2.3986  0.2355 -2.0757
  820MOL0     H13137   6.617   1.600   4.647 -0.6091  0.4970  0.7133
  820MOL0     H13138   6.862   1.776   4.666  1.2993  1.3467 -2.6936
  820MOL0     H13139   6.806   1.696   4.518  2.9460 -2.0553 -0.1987
  820MOL0     H13140   6.223   2.073   5.375  1.8635  0.7665  0.3691
  820MOL0     H13141   5.989   2.132   5.385  3.7725  0.9500  1.8702
  820MOL0     H13142   5.716   2.506   5.208 -0.0017 -0.0265  0.6297
  820MOL0     H13143   5.502   2.630   5.209 -0.1073  0.1521 -1.3069
  820MOL0     H13144   3.652   2.953   4.960  1.4221 -0.5602  0.6399
  820MOL0     H13145   3.412   3.027   4.984 -0.7025 -2.0206  0.9097
  820MOL0     H13146   3.200   3.344   5.320 -1.3333  0.4512  1.6146
  820MOL0     H13147   2.998   3.445   5.410  0.9279  0.1482 -0.4405
  820MOL0     H13148   2.650   3.464   5.122  1.3309  0.3422 -1.0349
  820MOL0     H13149   2.581   3.355   5.247  0.3197 -0.4726 -1.0062
  820MOL0     H13150   2.463   3.540   5.210  0.2184  2.0697 -1.1026
  820MOL0     H13151   2.586   3.656   5.250  0.5731 -0.2390  0.5575
  820MOL0     H13152   2.446   3.473   5.455 -2.1226  0.8685 -2.7483
  820MOL0     H13153   2.603   3.542   5.486  1.1299 -0.8431  0.4177
  820MOL0     H13154   2.514   3.770   5.471 -1.0468  1.0874 -1.8916
  820MOL0     H13155   2.408   3.676   5.581 -1.8490  1.5547 -0.6779
  820MOL0     H13156   2.114   3.759   5.335 -0.1346 -0.4051  1.8316
  820MOL0     H13157   2.780   3.323   5.070  0.7908  1.0063 -0.9749
  820MOL0     H13158   3.020   3.258   4.846 -0.0091  0.4682 -0.8125
  820MOL0     H13159   3.023   3.105   4.938  1.6103  0.4580  1.9797
  820MOL0     H13160   2.874   3.186   4.921  1.3136 -2.0296 -3.2043
  821MOL0     O13161   1.299   9.005   8.470 -0.4158 -0.3221  0.0775
  821MOL0     C13162   1.365   8.976   8.572 -0.2039  0.2940 -0.0958
  821MOL0     O13163   1.497   8.964   8.587 -0.0441  0.1898  0.5398
  821MOL0     C13164   1.580   8.982   8.474  0.7755  0.8354  0.7395
  821MOL0     C13165   1.579   9.106   8.409 -0.2373 -0.3021  0.2984
  821MOL0     C13166   1.685   9.149   8.325  0.3726 -0.9620  0.1424
  821MOL0     C13167   1.796   9.070   8.311 -0.5455 -0.1478  0.3130
  821MOL0     O13168   1.891   9.113   8.220 -0.3477  0.0411  0.4914
  821MOL0     C13169   1.908   9.251   8.187  0.3346 -0.7515 -0.2150
  821MOL0     C13170   2.038   9.296   8.112  0.2588  0.1780 -0.4239
  821MOL0     C13171   2.023   9.426   8.043 -0.5263  0.2155  0.0291
  821MOL0     C13172   2.003   9.532   8.149  0.4483  0.1311  0.1368
  821MOL0     C13173   2.021   9.667   8.098 -0.4165  0.4265  0.0903
  821MOL0     C13174   2.165   9.705   8.061 -0.0761 -0.3233 -0.6088
  821MOL0     C13175   2.184   9.856   8.033 -0.0698 -0.3683 -0.0792
  821MOL0     C13176   2.336   9.900   8.065  0.3251 -0.0963  0.0297
  821MOL0     N13177   2.446   9.829   7.992 -0.1985  0.1797 -0.3780
  821MOL0     C13178   2.478   9.699   8.009  0.2566  1.1658  0.0356
  821MOL0     C13179   2.565   9.684   7.910 -0.5598  0.2542  0.8482
  821MOL0     C13180   2.620   9.544   7.864  0.4233 -0.5081 -1.4205
  821MOL0     C13181   2.551   9.505   7.732  0.2586  1.1309 -0.2926
  821MOL0     C13182   2.430   9.409   7.743  0.6062 -0.1515  0.2086
  821MOL0     C13183   2.485   9.268   7.774  0.3063  0.0278  0.2062
  821MOL0     O13184   2.601   9.231   7.696  0.3971  0.0028  0.6633
  821MOL0     C13185   2.669   9.118   7.717  0.1292 -0.4528  0.0950
  821MOL0     C13186   2.631   9.023   7.810 -0.2581 -0.4654 -0.3876
  821MOL0     C13187   2.702   8.902   7.833  1.1820 -0.4470 -0.2616
  821MOL0     C13188   2.639   8.807   7.943 -0.0034  0.1184  0.4270
  821MOL0     C13189   2.812   8.869   7.754 -0.3488  0.4809  0.0422
  821MOL0     C13190   2.888   8.745   7.759 -0.3544  0.2356 -0.0792
  821MOL0     O13191   2.964   8.714   7.646  0.6225 -0.6034 -0.4404
  821MOL0     C13192   3.029   8.592   7.631 -0.1209 -0.1873 -0.5178
  821MOL0     C13193   3.162   8.599   7.582  0.6525 -0.2974 -0.5904
  821MOL0     C13194   3.228   8.489   7.541 -0.6818 -0.7340 -0.7496
  821MOL0     C13195   3.169   8.362   7.549 -0.0667  0.9631 -0.0813
  821MOL0     O13196   3.234   8.241   7.534  0.2352 -0.1174  0.3684
  821MOL0     C13197   3.330   8.250   7.421  0.0037  0.6299 -0.4352
  821MOL0     C13198   3.343   8.101   7.378  0.2520 -0.3761  0.2558
  821MOL0     C13199   3.377   8.000   7.500 -0.6887 -0.5629  0.3890
  821MOL0     C13200   3.257   7.950   7.579 -0.6107 -0.3157 -0.3905
  821MOL0     C13201   3.118   7.914   7.516 -0.0946  0.4899 -0.1052
  821MOL0     C13202   3.120   7.783   7.433  0.0159 -1.0931  0.4136
  821MOL0     C13203   2.982   7.731   7.395  1.1176 -0.2814 -0.5994
  821MOL0     C13204   3.000   7.607   7.306 -0.2104  0.3466  0.0320
  821MOL0    Cl13205   3.059   7.650   7.142  0.5349 -0.7466 -0.5279
  821MOL0     C13206   3.033   8.352   7.602 -1.1659 -1.1243  0.9629
  821MOL0     C13207   2.966   8.473   7.640  0.3308  0.0574 -0.1822
  821MOL0     O13208   2.906   8.690   7.871  0.1352 -0.4624 -0.2976
  821MOL0     C13209   2.867   8.969   7.667  0.3462 -0.3844 -0.0596
  821MOL0     C13210   2.788   9.091   7.647 -1.3062 -0.1506 -0.8335
  821MOL0     N13211   2.576   9.802   7.834 -0.5381 -0.0225 -0.2915
  821MOL0     N13212   2.505   9.892   7.892  0.4064  0.6663  0.2291
  821MOL0     C13213   1.795   8.946   8.376 -0.1786 -0.8906  0.6510
  821MOL0     C13214   1.691   8.904   8.459  0.3548 -0.7277 -0.1704
  821MOL0     C13215   1.283   8.925   8.690  0.1490  0.1888  0.0174
  821MOL0     C13216   1.340   8.844   8.790 -0.3512  0.5767 -0.3752
  821MOL0     C13217   1.275   8.778   8.893 -0.2090 -0.6459 -0.6486
  821MOL0     C13218   1.137   8.806   8.908 -0.0009  0.0390 -0.4960
  821MOL0     O13219   1.060   8.740   9.003  0.0474 -0.1140  0.6432
  821MOL0     C13220   1.107   8.611   9.057  0.0997  0.3867  0.6254
  821MOL0     C13221   0.991   8.542   9.135  0.0385  0.0963  0.0160
  821MOL0     C13222   1.024   8.394   9.177 -0.2482  0.1601  0.2303
  821MOL0     C13223   0.908   8.338   9.265  1.3751  0.9071 -0.6221
  821MOL0     C13224   0.789   8.304   9.180 -0.5719 -0.4146 -0.5550
  821MOL0     C13225   0.692   8.287   9.112  0.4679 -0.1066 -0.2265
  821MOL0     C13226   1.079   8.896   8.824  0.6445  0.4584  0.7377
  821MOL0     C13227   1.146   8.954   8.713  0.5519  0.2479 -0.7819
  821MOL0     C13228   1.050   9.034   8.609  0.4580 -1.3561 -0.3786
  821MOL0     H13229   1.492   9.167   8.431  0.2194  0.5218 -0.1397
  821MOL0     H13230   1.662   9.246   8.283 -0.2633 -0.6560  1.1697
  821MOL0     H13231   1.894   9.305   8.281 -2.4533 -1.7316  0.0362
  821MOL0     H13232   1.818   9.276   8.130 -2.9753  1.6559  5.1685
  821MOL0     H13233   2.126   9.300   8.178 -0.0877  0.5827  0.0166
  821MOL0     H13234   2.057   9.220   8.036 -0.5873  0.4577 -0.9156
  821MOL0     H13235   2.120   9.437   7.995  0.4655 -3.8993  0.7354
  821MOL0     H13236   1.943   9.422   7.969 -0.6548 -0.0750  0.1806
  821MOL0     H13237   1.904   9.513   8.189  1.8226 -1.4734  3.1285
  821MOL0     H13238   2.070   9.511   8.233  0.8667  0.2312 -0.1675
  821MOL0     H13239   1.990   9.740   8.173 -1.8114  0.2244 -0.2603
  821MOL0     H13240   1.955   9.682   8.012 -0.2234 -0.7476 -0.2888
  821MOL0     H13241   2.215   9.676   8.154 -3.0992 -0.8499  0.9513
  821MOL0     H13242   2.198   9.644   7.976 -0.1747 -1.8544  0.4221
  821MOL0     H13243   2.110   9.911   8.092 -0.0291 -0.7132  0.3046
  821MOL0     H13244   2.140   9.872   7.935 -2.0755 -1.0944  0.6518
  821MOL0     H13245   2.352  10.007   8.055 -0.3012  0.0075  0.1399
  821MOL0     H13246   2.337   9.882   8.173  0.8388  1.4681  0.3148
  821MOL0     H13247   2.440   9.625   8.079  1.2893  2.6359  2.2974
  821MOL0     H13248   2.606   9.475   7.948 -0.1289  1.3034  0.0478
  821MOL0     H13249   2.728   9.552   7.849  0.5898 -0.9462 -0.5519
  821MOL0     H13250   2.518   9.599   7.687  0.0508  1.3261  0.2628
  821MOL0     H13251   2.623   9.460   7.663 -0.0723 -1.9833  1.2102
  821MOL0     H13252   2.359   9.437   7.822  2.4319  2.0580  1.2023
  821MOL0     H13253   2.386   9.405   7.643  0.8016  3.1360 -0.1355
  821MOL0     H13254   2.508   9.254   7.880  0.1582  0.9341  0.3743
  821MOL0     H13255   2.405   9.197   7.753 -1.2541  1.9694 -0.8054
  821MOL0     H13256   2.538   9.032   7.865  0.2916 -2.6369  1.0031
  821MOL0     H13257   2.548   8.841   7.993  0.5514 -0.1219  1.6434
  821MOL0     H13258   2.714   8.784   8.019  0.9382  2.8598  0.4209
  821MOL0     H13259   2.613   8.714   7.891  1.4559  0.9455 -1.9524
  821MOL0     H13260   3.203   8.700   7.580 -1.5852  0.7067  0.3890
  821MOL0     H13261   3.335   8.503   7.529 -1.0181  2.3498 -0.8719
  821MOL0     H13262   3.294   8.311   7.338 -0.2803 -2.9699 -3.2441
  821MOL0     H13263   3.423   8.300   7.450 -0.9680  1.0897  2.0916
  821MOL0     H13264   3.242   8.080   7.342  0.1463  0.3211  0.1366
  821MOL0     H13265   3.415   8.091   7.296 -0.1660 -0.9780 -0.0544
  821MOL0     H13266   3.446   8.045   7.572  2.7541 -1.6202 -1.9703
  821MOL0     H13267   3.422   7.905   7.471 -1.5210 -0.3046 -1.9735
  821MOL0     H13268   3.244   8.031   7.650 -2.4855 -0.4074 -0.5751
  821MOL0     H13269   3.296   7.874   7.647  0.3334  0.3238 -0.2036
  821MOL0     H13270   3.054   7.905   7.605 -1.0685  0.8870 -0.7520
  821MOL0     H13271   3.077   7.994   7.455 -2.3639 -1.0736 -0.7418
  821MOL0     H13272   3.182   7.709   7.484  0.7027 -1.7993 -1.3612
  821MOL0     H13273   3.166   7.800   7.336  0.6534 -0.0844  0.8858
  821MOL0     H13274   2.930   7.814   7.346  2.1406 -0.0025 -1.2358
  821MOL0     H13275   2.933   7.704   7.489  0.6227 -2.6855 -1.4726
  821MOL0     H13276   2.899   7.567   7.298 -1.4766  2.9768  1.4579
  821MOL0     H13277   3.066   7.528   7.343  0.1548  0.4312 -0.4205
  821MOL0     H13278   2.992   8.252   7.616 -2.1861 -1.0789 -1.2991
  821MOL0     H13279   2.872   8.463   7.692  0.1748 -1.4067 -0.6827
  821MOL0     H13280   2.958   8.954   7.610 -0.4855 -1.4108 -1.1946
  821MOL0     H13281   2.832   9.168   7.584  1.9558 -1.7737 -0.7571
  821MOL0     H13282   1.886   8.888   8.367 -0.2049 -0.6687 -1.8974
  821MOL0     H13283   1.685   8.820   8.528 -0.4967  0.4644  1.2850
  821MOL0     H13284   1.446   8.821   8.797 -0.6360 -0.6837 -0.0869
  821MOL0     H13285   1.318   8.708   8.964  0.4051  3.8863  3.9581
  821MOL0     H13286   1.148   8.546   8.980  2.8652 -0.2185  2.4605
  821MOL0     H13287   1.185   8.630   9.131 -0.5579  2.7483  0.7896
  821MOL0     H13288   0.900   8.546   9.074 -1.9135  1.8275  2.7893
  821MOL0     H13289   0.973   8.599   9.227  2.4350 -0.0896  0.6526
  821MOL0     H13290   1.041   8.332   9.088 -1.1012 -1.4210  1.1112
  821MOL0     H13291   1.119   8.383   9.229 -0.5335 -4.5986  0.1685
  821MOL0     H13292   0.877   8.412   9.338  1.0116 -1.2684  1.5419
  821MOL0     H13293   0.923   8.247   9.324 -3.0071  1.2827  1.4607
  821MOL0     H13294   0.598   8.275   9.062 -1.3757  3.0053  2.1429
  821MOL0     H13295   0.980   8.935   8.845  1.2078  1.4657  1.6639
  821MOL0     H13296   1.083   9.137   8.592 -2.7622 -0.5446 -2.6562
  821MOL0     H13297   1.054   8.981   8.514  1.5191  1.6192 -2.0827
  821MOL0     H13298   0.945   9.036   8.641  0.8384  0.7556  0.9175
  822MOL0     O13299   9.827   8.032   1.116  0.8197 -0.0520 -0.1630
  822MOL0     C13300   9.909   8.052   1.206 -1.0785 -0.8844  0.1619
  822MOL0     O13301   9.879   8.113   1.328  0.7257  0.7309 -0.3666
  822MOL0     C13302   9.765   8.080   1.396  0.5602 -0.9348 -0.8146
  822MOL0     C13303   9.681   7.962   1.377  0.0246  0.3605  0.2209
  822MOL0     C13304   9.566   7.939   1.454 -0.5940 -0.6828 -0.2963
  822MOL0     C13305   9.525   8.032   1.551 -0.0812  0.3420  0.2087
  822MOL0     O13306   9.404   8.033   1.616  0.1737 -0.1357  0.6047
  822MOL0     C13307   9.310   7.935   1.580  0.8193  0.7658  0.4797
  822MOL0     C13308   9.166   7.965   1.614  0.6440 -0.1051 -0.1893
  822MOL0     C13309   9.150   8.013   1.762 -0.4155  0.3045  0.5517
  822MOL0     C13310   9.003   8.012   1.798  0.1155 -0.6990  0.5469
  822MOL0     C13311   8.988   8.056   1.946 -0.4575  0.5086  0.0029
  822MOL0     C13312   9.036   7.940   2.040 -0.2051 -0.0489  0.1320
  822MOL0     C13313   9.015   7.978   2.187  0.0150  0.3428  0.0637
  822MOL0     C13314   9.095   7.883   2.284  0.6201  0.3259  0.2775
  822MOL0     N13315   9.244   7.893   2.270  0.1917 -0.4214  0.2620
  822MOL0     C13316   9.314   8.013   2.262  0.1807 -0.0043 -0.2649
  822MOL0     C13317   9.448   7.976   2.269  0.4545  0.7790 -0.0542
  822MOL0     C13318   9.565   8.075   2.281 -0.0954 -0.3537 -0.1645
  822MOL0     C13319   9.637   8.089   2.145  0.0936  0.5106 -1.2248
  822MOL0     C13320   9.691   8.223   2.117  0.8119 -0.0913 -0.3697
  822MOL0     C13321   9.775   8.248   1.987 -0.1146 -0.7390  0.2449
  822MOL0     O13322   9.888   8.160   1.989  0.1302  0.1047 -0.7066
  822MOL0     C13323  10.018   8.190   1.938  1.0796  0.3707  0.2504
  822MOL0     C13324  10.040   8.257   1.816  0.6451 -0.1140 -0.5715
  822MOL0     C13325  10.169   8.270   1.763 -0.0952 -0.4532  0.1122
  822MOL0     C13326  10.180   8.338   1.626 -0.2340  0.3173 -0.9542
  822MOL0     C13327  10.279   8.214   1.841  0.5192 -0.4450  0.2572
  822MOL0     C13328  10.411   8.220   1.800 -0.0282  0.2537 -0.1176
  822MOL0     O13329  10.495   8.276   1.891  0.0693  0.1650  0.0146
  822MOL0     C13330  10.630   8.292   1.869  0.0266  0.3992  1.3968
  822MOL0     C13331  10.689   8.334   1.750 -0.6845 -0.0536  0.2651
  822MOL0     C13332  10.821   8.364   1.742  0.0566  0.3968  0.1458
  822MOL0     C13333  10.910   8.352   1.852  0.2270 -0.2323 -0.1895
  822MOL0     O13334  11.046   8.383   1.835  0.0058  0.0579 -0.0323
  822MOL0     C13335  11.133   8.371   1.949  0.2014  0.0542 -0.3296
  822MOL0     C13336  11.271   8.396   1.900  0.1177 -0.5804 -0.5101
  822MOL0     C13337  11.382   8.387   2.013  0.3275  0.2737 -0.1505
  822MOL0     C13338  11.346   8.293   2.123  0.1098 -0.1774 -0.4344
  822MOL0     C13339  11.467   8.264   2.208  0.0738 -0.0834  0.4363
  822MOL0     C13340  11.413   8.205   2.335  0.1466 -0.9602 -1.0454
  822MOL0     C13341  11.334   8.073   2.332 -0.1897  0.9333 -0.5031
  822MOL0     C13342  11.413   7.952   2.282  0.1930  0.1356  0.4940
  822MOL0    Cl13343  11.579   7.921   2.370 -0.3709 -0.1938 -0.1192
  822MOL0     C13344  10.854   8.301   1.969 -0.5927 -0.7454 -0.2115
  822MOL0     C13345  10.713   8.277   1.978 -0.1840 -0.0662 -0.2329
  822MOL0     O13346  10.436   8.188   1.684  0.1910  0.0915 -0.0736
  822MOL0     C13347  10.249   8.174   1.973  0.2457 -0.4910 -0.4895
  822MOL0     C13348  10.121   8.153   2.024 -0.3223  1.0547 -0.3808
  822MOL0     N13349   9.447   7.834   2.267 -0.0839  0.9045  0.0192
  822MOL0     N13350   9.328   7.790   2.273 -0.3163 -0.1065  1.0393
  822MOL0     C13351   9.600   8.140   1.574 -0.5722 -0.2333 -0.7384
  822MOL0     C13352   9.711   8.171   1.495  0.4769 -0.8551  0.2304
  822MOL0     C13353  10.051   8.021   1.165 -0.4140  0.4131  0.5976
  822MOL0     C13354  10.077   8.019   1.026  0.3271 -0.3213  0.1549
  822MOL0     C13355  10.211   7.997   0.981 -0.5310 -0.4841 -0.4904
  822MOL0     C13356  10.308   7.960   1.074 -0.1202 -0.2402 -0.2763
  822MOL0     O13357  10.431   7.929   1.029  0.7420  0.1277  0.4129
  822MOL0     C13358  10.548   7.916   1.105 -0.4920 -0.7257 -0.1802
  822MOL0     C13359  10.675   7.865   1.022  0.3064 -0.0038 -0.3937
  822MOL0     C13360  10.719   7.966   0.917 -0.0491  0.4642 -0.8534
  822MOL0     C13361  10.820   7.906   0.817 -0.3186 -0.1396  0.8175
  822MOL0     C13362  10.954   7.869   0.874 -0.3558  0.0880 -0.5725
  822MOL0     C13363  11.071   7.840   0.917  1.6061  0.5756 -0.5028
  822MOL0     C13364  10.279   7.957   1.210 -0.1746  0.2740  0.3885
  822MOL0     C13365  10.156   8.001   1.259  0.2460 -0.1935 -0.1389
  822MOL0     C13366  10.140   7.999   1.413 -0.2777  0.5914 -0.1541
  822MOL0     H13367   9.715   7.903   1.292 -0.2537  1.3641 -0.5991
  822MOL0     H13368   9.511   7.847   1.438  0.5920 -1.7619  1.4865
  822MOL0     H13369   9.334   7.836   1.622 -0.1371  0.4727  0.3539
  822MOL0     H13370   9.312   7.918   1.472  0.1442 -1.2579  0.7312
  822MOL0     H13371   9.128   8.040   1.544 -2.1074 -0.8873  0.3138
  822MOL0     H13372   9.103   7.879   1.591  3.1542 -1.5447 -2.0934
  822MOL0     H13373   9.209   7.943   1.822  2.0441  0.7995 -1.0963
  822MOL0     H13374   9.203   8.110   1.761  0.3090 -0.0660 -1.0068
  822MOL0     H13375   8.949   8.089   1.741  0.5773 -1.0394 -0.3728
  822MOL0     H13376   8.961   7.914   1.773  1.4763 -0.8755 -1.2136
  822MOL0     H13377   8.883   8.073   1.971 -0.5798 -1.2246  0.8343
  822MOL0     H13378   9.046   8.144   1.972 -1.1107  0.5992  1.2118
  822MOL0     H13379   8.989   7.845   2.014  3.6572 -2.3557  0.8871
  822MOL0     H13380   9.141   7.914   2.024  0.1526  1.2118  0.3065
  822MOL0     H13381   8.910   7.965   2.216  0.0467  0.6345  0.3142
  822MOL0     H13382   9.033   8.084   2.207 -2.5355  0.6291  1.3194
  822MOL0     H13383   9.065   7.919   2.383 -1.5546  0.6155 -0.4156
  822MOL0     H13384   9.051   7.784   2.270 -0.7497  1.2225 -2.3280
  822MOL0     H13385   9.266   8.110   2.251 -2.4162 -0.9496  1.6732
  822MOL0     H13386   9.629   8.042   2.364  1.1709 -0.0529 -1.0046
  822MOL0     H13387   9.514   8.165   2.314 -0.2301 -0.5573  0.1924
  822MOL0     H13388   9.710   8.007   2.141 -1.5158 -1.1281  0.6283
  822MOL0     H13389   9.555   8.070   2.076 -2.6551 -1.8863  2.2941
  822MOL0     H13390   9.604   8.290   2.109  0.1761 -0.9086 -0.5044
  822MOL0     H13391   9.761   8.247   2.197 -1.7517 -0.8747  2.3093
  822MOL0     H13392   9.713   8.237   1.897 -2.4885 -1.2873  1.8570
  822MOL0     H13393   9.820   8.347   1.988 -0.3979 -0.5455 -1.6767
  822MOL0     H13394   9.945   8.275   1.765 -0.6722 -2.4700  0.8491
  822MOL0     H13395  10.254   8.288   1.564 -2.1644 -2.1426 -1.4096
  822MOL0     H13396  10.198   8.446   1.628 -0.9472  0.4618 -1.8751
  822MOL0     H13397  10.079   8.347   1.585  0.0334 -0.0047 -1.6893
  822MOL0     H13398  10.627   8.354   1.663  0.2045  3.6158  0.3215
  822MOL0     H13399  10.849   8.423   1.655  0.5191 -2.0122 -1.4168
  822MOL0     H13400  11.112   8.450   2.022 -0.9251 -2.1885  1.9270
  822MOL0     H13401  11.116   8.272   1.994 -0.6460 -0.0012 -0.7422
  822MOL0     H13402  11.295   8.333   1.814  0.0362 -0.4931 -0.5975
  822MOL0     H13403  11.286   8.498   1.863 -1.1764 -0.3462 -0.4266
  822MOL0     H13404  11.413   8.485   2.051  1.3954  0.4707 -1.4364
  822MOL0     H13405  11.474   8.348   1.969  0.0790  1.9010 -2.3150
  822MOL0     H13406  11.301   8.198   2.092  2.1361 -1.6591  0.9003
  822MOL0     H13407  11.264   8.342   2.178 -2.2504 -3.2018 -0.9584
  822MOL0     H13408  11.522   8.184   2.159 -4.3926 -2.3823 -1.4090
  822MOL0     H13409  11.517   8.361   2.224 -0.0295  0.0841 -0.2265
  822MOL0     H13410  11.357   8.289   2.378  0.3944 -1.4315  0.2215
  822MOL0     H13411  11.494   8.203   2.408 -1.0659  1.1607  0.4542
  822MOL0     H13412  11.245   8.082   2.269 -0.2119 -0.5992 -0.7155
  822MOL0     H13413  11.311   8.049   2.436  1.3931 -2.3077 -0.7868
  822MOL0     H13414  11.439   7.983   2.180  0.1858  1.5116  0.8935
  822MOL0     H13415  11.357   7.858   2.277 -0.3752  0.5269 -1.2625
  822MOL0     H13416  10.917   8.291   2.056  1.6757 -0.5600 -1.7379
  822MOL0     H13417  10.674   8.242   2.073  1.5319 -1.6995 -0.0679
  822MOL0     H13418  10.332   8.153   2.039  1.0755 -0.2678 -1.4280
  822MOL0     H13419  10.095   8.120   2.124  0.8180  2.9106  0.5865
  822MOL0     H13420   9.581   8.220   1.645  1.9632  0.1182 -0.3517
  822MOL0     H13421   9.764   8.265   1.507  0.2516 -0.6029 -0.6640
  822MOL0     H13422  10.010   8.058   0.950 -2.1222 -1.9248  1.3774
  822MOL0     H13423  10.236   8.009   0.876  2.3774  0.2160  0.1938
  822MOL0     H13424  10.566   8.019   1.139 -1.4430 -1.3084  2.3006
  822MOL0     H13425  10.532   7.854   1.194  1.5140  0.7447  1.3163
  822MOL0     H13426  10.646   7.769   0.978 -3.7857  0.6601  0.4464
  822MOL0     H13427  10.759   7.851   1.090  0.3183 -1.3870 -0.6690
  822MOL0     H13428  10.637   8.012   0.860 -0.6689  0.0970 -0.2703
  822MOL0     H13429  10.776   8.050   0.958 -0.1468  0.1882 -0.1386
  822MOL0     H13430  10.833   7.995   0.755 -3.0826  0.3287  0.7996
  822MOL0     H13431  10.772   7.819   0.771 -1.0399  0.1161  1.0770
  822MOL0     H13432  11.173   7.830   0.946  1.9709 -1.5351 -2.2488
  822MOL0     H13433  10.369   7.945   1.270 -0.1199  0.5492  0.3654
  822MOL0     H13434  10.114   8.100   1.446  0.5726  0.1019  2.2226
  822MOL0     H13435  10.060   7.933   1.450 -1.3137  2.2109  0.6019
  822MOL0     H13436  10.230   7.962   1.464 -0.9825 -1.4704 -0.2821
  823MOL0     O13437   1.691   1.623   6.210  0.1241  0.0075  0.1191
  823MOL0     C13438   1.723   1.716   6.292 -0.1592 -0.6526 -0.0421
  823MOL0     O13439   1.688   1.719   6.421 -0.0748  0.0014  0.6428
  823MOL0     C13440   1.650   1.597   6.470  0.1916  0.2981 -0.4906
  823MOL0     C13441   1.754   1.502   6.491 -0.3503 -0.3569  0.1176
  823MOL0     C13442   1.723   1.360   6.511  0.8992  0.8452 -0.0059
  823MOL0     C13443   1.589   1.321   6.511 -0.1183 -0.1474 -0.5150
  823MOL0     O13444   1.564   1.192   6.551  0.0327  0.2990  0.3362
  823MOL0     C13445   1.512   1.109   6.447  0.8120  1.2032  0.7345
  823MOL0     C13446   1.368   1.065   6.483  0.0239 -0.2099 -0.4333
  823MOL0     C13447   1.313   0.943   6.403 -0.0537 -0.0660  0.2156
  823MOL0     C13448   1.188   0.906   6.468  0.1242 -0.4281 -0.0047
  823MOL0     C13449   1.110   0.798   6.396 -0.0327  0.1847 -0.5763
  823MOL0     C13450   0.969   0.777   6.448 -0.2475  0.3666  0.5969
  823MOL0     C13451   0.888   0.661   6.394 -0.2781  0.5127 -0.2042
  823MOL0     C13452   0.751   0.651   6.470 -0.1035  0.3149  0.7915
  823MOL0     N13453   0.662   0.737   6.400 -0.1425  0.0693 -0.2933
  823MOL0     C13454   0.622   0.861   6.441  0.4696  0.1161 -0.1528
  823MOL0     C13455   0.516   0.896   6.354  0.0932  0.0925 -0.4704
  823MOL0     C13456   0.416   1.012   6.356  0.3181  1.1043 -0.5652
  823MOL0     C13457   0.355   1.043   6.218  0.3382 -0.2753  0.2121
  823MOL0     C13458   0.248   1.153   6.237 -0.3181 -0.8361 -0.4974
  823MOL0     C13459   0.249   1.260   6.128  0.7956  0.4666 -1.2107
  823MOL0     O13460   0.161   1.367   6.151  0.4239 -0.0554  0.4285
  823MOL0     C13461   0.034   1.377   6.104 -0.0375 -0.6668  0.1625
  823MOL0     C13462  -0.041   1.271   6.059 -0.0382  0.6770 -0.2129
  823MOL0     C13463  -0.170   1.278   6.016 -0.2530  0.2780 -0.0243
  823MOL0     C13464  -0.227   1.146   5.979  0.0688 -0.0268  0.2138
  823MOL0     C13465  -0.241   1.396   6.013 -0.5133 -0.1427 -0.4902
  823MOL0     C13466  -0.388   1.404   6.018 -1.4096 -0.1285 -0.1852
  823MOL0     O13467  -0.446   1.525   6.061  0.5425 -0.9089  0.1135
  823MOL0     C13468  -0.586   1.535   6.068 -1.3659 -0.4410 -0.2892
  823MOL0     C13469  -0.657   1.602   5.966 -0.7763 -0.3994 -0.0260
  823MOL0     C13470  -0.797   1.610   5.973 -0.1776 -0.5112  0.0987
  823MOL0     C13471  -0.860   1.553   6.086 -0.1134 -0.0746 -0.1608
  823MOL0     O13472  -1.000   1.565   6.080 -0.3917 -0.5128 -0.1692
  823MOL0     C13473  -1.087   1.558   6.193  0.2798  0.9097 -0.1644
  823MOL0     C13474  -1.149   1.412   6.228 -0.0609 -0.2066  0.4987
  823MOL0     C13475  -1.242   1.435   6.341  0.1076 -0.0337  0.0236
  823MOL0     C13476  -1.381   1.445   6.281  0.4912 -0.1766 -0.3975
  823MOL0     C13477  -1.470   1.498   6.397  0.5855 -0.2219  0.4498
  823MOL0     C13478  -1.595   1.579   6.354 -0.7479  1.2975  0.8393
  823MOL0     C13479  -1.694   1.496   6.267 -0.4587  0.2927 -0.1235
  823MOL0     C13480  -1.663   1.507   6.113 -1.0378  0.4298 -1.0441
  823MOL0    Cl13481  -1.674   1.679   6.066  0.4760  0.0113  0.0340
  823MOL0     C13482  -0.789   1.481   6.182  0.4809  0.0604 -0.4113
  823MOL0     C13483  -0.647   1.478   6.175  0.2630  0.1289  0.0343
  823MOL0     O13484  -0.451   1.308   5.981 -0.3024  0.1631  0.4558
  823MOL0     C13485  -0.167   1.512   6.052 -0.1116 -0.4075 -0.2917
  823MOL0     C13486  -0.030   1.500   6.099 -0.4607  0.8322 -0.2433
  823MOL0     N13487   0.529   0.802   6.248 -0.5279 -0.1537 -0.0432
  823MOL0     N13488   0.616   0.707   6.280 -1.1052 -0.4913  0.0450
  823MOL0     C13489   1.482   1.419   6.509 -0.1755 -0.0481 -1.3243
  823MOL0     C13490   1.513   1.552   6.480 -0.5289 -0.0394  0.6369
  823MOL0     C13491   1.787   1.836   6.232 -0.4695 -0.1174  0.1256
  823MOL0     C13492   1.759   1.866   6.097  0.7823 -0.0127 -0.0261
  823MOL0     C13493   1.816   1.980   6.035 -0.3950  0.7556  0.3721
  823MOL0     C13494   1.908   2.062   6.097  0.4725 -0.1829  0.0202
  823MOL0     O13495   1.936   2.174   6.029  0.1503 -0.3544  0.6971
  823MOL0     C13496   2.062   2.248   6.067 -0.3062  0.7930 -0.4465
  823MOL0     C13497   2.104   2.335   5.948 -0.4518  0.3710 -0.5791
  823MOL0     C13498   2.171   2.257   5.837  0.0705  0.2252 -0.2376
  823MOL0     C13499   2.315   2.188   5.875  0.1309 -0.4341 -0.4740
  823MOL0     C13500   2.422   2.280   5.913  0.3383  0.0394  0.0955
  823MOL0     C13501   2.513   2.360   5.935  0.9241 -0.6247  0.6569
  823MOL0     C13502   1.940   2.029   6.223 -0.1182  0.2379  0.2848
  823MOL0     C13503   1.881   1.921   6.294 -0.7021 -0.7905 -0.3205
  823MOL0     C13504   1.936   1.896   6.439  1.0363 -0.7615 -0.2257
  823MOL0     H13505   1.858   1.530   6.479 -0.1600 -0.4557  1.3594
  823MOL0     H13506   1.806   1.291   6.518  2.3738  2.6379  1.2141
  823MOL0     H13507   1.580   1.024   6.434  0.1304  0.9920 -2.0305
  823MOL0     H13508   1.513   1.152   6.347  0.0948  2.0166  1.0713
  823MOL0     H13509   1.373   1.053   6.592  0.0013 -1.9429 -0.5910
  823MOL0     H13510   1.296   1.147   6.477 -0.4344 -0.6227 -0.7639
  823MOL0     H13511   1.284   0.952   6.298 -0.6150  0.3814  0.4087
  823MOL0     H13512   1.392   0.866   6.402  1.0447  0.9453 -2.5921
  823MOL0     H13513   1.210   0.884   6.572 -1.5416  2.0873  0.9587
  823MOL0     H13514   1.129   0.997   6.478  4.6588  3.6677 -4.5779
  823MOL0     H13515   1.170   0.711   6.426 -0.8459  0.2513  1.3641
  823MOL0     H13516   1.098   0.797   6.288 -1.1951 -0.2349 -0.4558
  823MOL0     H13517   0.965   0.777   6.557 -0.2709  1.5063  0.6084
  823MOL0     H13518   0.910   0.866   6.425 -1.7401 -0.8505 -0.4795
  823MOL0     H13519   0.948   0.576   6.427 -0.5720  0.8052  1.1606
  823MOL0     H13520   0.878   0.665   6.285  2.7454 -0.1860 -0.5866
  823MOL0     H13521   0.706   0.552   6.455 -1.2411  1.0555 -1.1981
  823MOL0     H13522   0.757   0.689   6.572  5.1229 -1.0176  1.2618
  823MOL0     H13523   0.658   0.914   6.529 -0.6991 -1.2893  1.2119
  823MOL0     H13524   0.465   1.100   6.397  1.0987  1.5731 -2.4118
  823MOL0     H13525   0.336   0.983   6.424  2.1561  1.4118  1.8524
  823MOL0     H13526   0.437   1.059   6.147  0.7312 -1.3520  0.4030
  823MOL0     H13527   0.300   0.957   6.178 -1.1986 -0.6408  2.8698
  823MOL0     H13528   0.155   1.098   6.226 -1.5450  0.8916  0.7453
  823MOL0     H13529   0.255   1.198   6.336 -4.1393 -1.0373  0.0156
  823MOL0     H13530   0.347   1.305   6.110  0.7562  0.5872 -1.1279
  823MOL0     H13531   0.232   1.207   6.034  2.2777 -1.7647 -0.3352
  823MOL0     H13532  -0.007   1.168   6.068  0.2689  0.7662 -0.3445
  823MOL0     H13533  -0.276   1.104   6.068 -0.3976  1.2775  0.5887
  823MOL0     H13534  -0.145   1.080   5.951  0.2637 -0.2871  1.3575
  823MOL0     H13535  -0.300   1.148   5.897  0.9846 -1.1472 -0.6633
  823MOL0     H13536  -0.604   1.659   5.891  0.2227 -0.9994  0.1999
  823MOL0     H13537  -0.860   1.649   5.894  0.0267  1.0550  0.6584
  823MOL0     H13538  -1.034   1.590   6.283  2.8367  1.1407 -1.6614
  823MOL0     H13539  -1.172   1.626   6.177 -1.4717 -1.1630 -0.2481
  823MOL0     H13540  -1.188   1.366   6.137  2.4095  0.8611 -1.2176
  823MOL0     H13541  -1.067   1.350   6.265  1.4753  2.1381  1.2635
  823MOL0     H13542  -1.208   1.514   6.409  0.6204  0.4754 -0.8034
  823MOL0     H13543  -1.244   1.349   6.408  2.8054  1.2785  1.9476
  823MOL0     H13544  -1.412   1.351   6.233 -1.2571 -0.4847  1.2545
  823MOL0     H13545  -1.361   1.521   6.204  0.9299  0.2207  0.1052
  823MOL0     H13546  -1.497   1.417   6.465  2.7036 -0.7079  0.7740
  823MOL0     H13547  -1.407   1.566   6.457  1.1579 -0.2200 -0.1451
  823MOL0     H13548  -1.555   1.660   6.292 -1.1360 -0.7194 -2.2780
  823MOL0     H13549  -1.651   1.616   6.439 -2.0376  0.4721  0.3789
  823MOL0     H13550  -1.787   1.553   6.267 -0.3197  0.6122 -2.6373
  823MOL0     H13551  -1.695   1.395   6.309 -4.0655  1.1004  2.1591
  823MOL0     H13552  -1.741   1.446   6.066 -1.3130 -0.9439  1.0767
  823MOL0     H13553  -1.565   1.472   6.079 -0.4529  0.7007  0.3219
  823MOL0     H13554  -0.822   1.411   6.258  4.4537 -2.4999 -0.7572
  823MOL0     H13555  -0.593   1.432   6.257 -1.4664 -0.9680  0.6246
  823MOL0     H13556  -0.210   1.611   6.065 -1.1177 -0.8425 -0.2261
  823MOL0     H13557   0.033   1.583   6.126 -0.5790  0.6102  0.7638
  823MOL0     H13558   1.380   1.387   6.527 -0.4475  0.6469 -1.5680
  823MOL0     H13559   1.434   1.626   6.479  0.5520  1.1706 -0.1199
  823MOL0     H13560   1.698   1.801   6.035  0.7459  0.2135 -0.2287
  823MOL0     H13561   1.781   2.005   5.935  0.5513 -3.3846 -1.2061
  823MOL0     H13562   2.028   2.308   6.152  0.6706  1.1706 -0.3114
  823MOL0     H13563   2.141   2.188   6.112 -0.9389  1.7423  2.1285
  823MOL0     H13564   2.161   2.418   5.992  1.2301 -0.5157 -1.0117
  823MOL0     H13565   2.012   2.380   5.909 -1.0846 -1.3596 -1.1899
  823MOL0     H13566   2.100   2.184   5.798 -2.5595  2.2313  0.5355
  823MOL0     H13567   2.188   2.336   5.763 -0.6731  0.7434  0.1352
  823MOL0     H13568   2.337   2.113   5.799 -0.4608 -1.9005  0.7610
  823MOL0     H13569   2.297   2.129   5.965 -2.5515 -0.9537 -1.2800
  823MOL0     H13570   2.596   2.425   5.918 -1.0466  1.4784 -1.5371
  823MOL0     H13571   2.013   2.080   6.284 -0.8449 -0.0583  1.4399
  823MOL0     H13572   1.980   1.796   6.446  0.9695 -0.7999 -0.3634
  823MOL0     H13573   2.017   1.967   6.457  2.0870 -1.4619 -1.9526
  823MOL0     H13574   1.851   1.901   6.508  0.9045 -1.1117 -0.3619
  824MOL0     O13575   0.009   3.488   2.334  0.2965 -0.5515  0.7375
  824MOL0     C13576  -0.087   3.562   2.307 -0.0477 -0.1594 -0.3606
  824MOL0     O13577  -0.072   3.694   2.260 -0.3176  0.3953 -0.7394
  824MOL0     C13578   0.045   3.760   2.237  0.6939 -0.0387  0.4571
  824MOL0     C13579   0.060   3.843   2.127  0.4953  0.4444 -0.2877
  824MOL0     C13580   0.171   3.927   2.113 -0.1398 -0.1697 -0.3941
  824MOL0     C13581   0.275   3.922   2.202 -0.1023 -0.3314  0.0854
  824MOL0     O13582   0.351   4.031   2.203 -0.1065 -0.5835 -0.0942
  824MOL0     C13583   0.483   4.024   2.276 -0.5025  0.8545  0.2556
  824MOL0     C13584   0.586   3.937   2.199 -0.1319  0.4225  0.4332
  824MOL0     C13585   0.709   3.895   2.281 -0.0165 -0.1243  0.4417
  824MOL0     C13586   0.819   3.826   2.189 -0.2761 -0.4150 -0.9074
  824MOL0     C13587   0.898   3.943   2.126 -0.5259  1.1170 -1.1633
  824MOL0     C13588   1.015   3.885   2.040  0.4930  0.5110  0.4149
  824MOL0     C13589   0.966   3.787   1.937  0.4839 -0.6405  0.3818
  824MOL0     C13590   1.092   3.741   1.858  1.4746  0.4880  1.1681
  824MOL0     N13591   1.125   3.852   1.771 -0.7939 -0.1595 -0.3503
  824MOL0     C13592   1.249   3.909   1.762  0.7319  0.3618 -0.3099
  824MOL0     C13593   1.239   4.001   1.664 -0.3890  0.2325 -0.4197
  824MOL0     C13594   1.360   4.083   1.616 -0.1980 -0.7461 -0.2735
  824MOL0     C13595   1.464   3.999   1.540 -0.1957 -0.4182  0.7082
  824MOL0     C13596   1.537   4.079   1.434 -0.0140 -0.1315 -1.0275
  824MOL0     C13597   1.648   4.003   1.382 -0.5841 -0.4708 -0.3534
  824MOL0     O13598   1.753   3.977   1.484 -0.2416 -0.7335 -0.1802
  824MOL0     C13599   1.884   3.995   1.442  0.1354  0.1457 -0.5442
  824MOL0     C13600   1.974   4.037   1.538 -0.4284 -0.6846 -0.2437
  824MOL0     C13601   2.105   4.087   1.516  0.2856  0.3613  0.8009
  824MOL0     C13602   2.181   4.151   1.629 -0.2234 -0.0064  0.4158
  824MOL0     C13603   2.165   4.045   1.390  0.3462  0.9208  0.2137
  824MOL0     C13604   2.308   4.061   1.349  0.7758  0.7335 -0.3453
  824MOL0     O13605   2.339   4.028   1.218 -0.5763 -0.2016 -0.2766
  824MOL0     C13606   2.464   4.022   1.166  0.6818 -0.4652 -0.0539
  824MOL0     C13607   2.581   4.056   1.230 -0.3296 -0.0400  0.3505
  824MOL0     C13608   2.707   4.041   1.163 -0.0733  0.5209 -0.5871
  824MOL0     C13609   2.721   3.968   1.045  0.4906  0.5929  0.6784
  824MOL0     O13610   2.832   3.941   0.968  0.5703  0.1299 -0.6459
  824MOL0     C13611   2.946   4.022   1.003 -1.2094 -0.2166 -0.0122
  824MOL0     C13612   3.051   4.004   0.890  1.2589  0.0563 -0.2320
  824MOL0     C13613   3.077   4.143   0.814  0.1201 -0.1486  0.6874
  824MOL0     C13614   3.178   4.112   0.712 -0.1424 -0.4489  0.5875
  824MOL0     C13615   3.213   4.240   0.640 -0.2415 -0.0426  0.3214
  824MOL0     C13616   3.332   4.222   0.554 -0.2707 -1.4321  0.1497
  824MOL0     C13617   3.347   4.334   0.438  0.1569 -0.1774  0.1609
  824MOL0     C13618   3.473   4.318   0.350  0.2331  0.8842 -0.1981
  824MOL0    Cl13619   3.463   4.414   0.205 -0.4051  0.0315 -0.1407
  824MOL0     C13620   2.603   3.939   0.980 -0.2888 -0.2212  0.3549
  824MOL0     C13621   2.475   3.970   1.038 -0.1639 -0.1006 -0.2348
  824MOL0     O13622   2.385   4.081   1.440  0.0198  0.7006 -0.2138
  824MOL0     C13623   2.079   3.976   1.301 -0.1936  0.9407  0.3149
  824MOL0     C13624   1.943   3.951   1.320 -0.1292 -0.5100  0.1088
  824MOL0     N13625   1.106   3.998   1.625 -0.4039 -0.5440  0.2642
  824MOL0     N13626   1.044   3.914   1.685  0.5810 -0.6914 -0.1085
  824MOL0     C13627   0.269   3.813   2.296  0.8064 -0.3855 -0.2257
  824MOL0     C13628   0.147   3.746   2.319  0.0618  0.5838 -0.0084
  824MOL0     C13629  -0.230   3.524   2.350 -0.3699  0.0859  0.3789
  824MOL0     C13630  -0.311   3.616   2.415  0.3144  0.9897 -0.0799
  824MOL0     C13631  -0.431   3.571   2.463 -0.1918 -0.1557 -0.8051
  824MOL0     C13632  -0.471   3.438   2.454 -0.0317  0.5155  0.5344
  824MOL0     O13633  -0.576   3.401   2.535  0.1741  0.4541 -0.4537
  824MOL0     C13634  -0.624   3.269   2.534  0.3274  0.2155 -0.3425
  824MOL0     C13635  -0.686   3.253   2.682 -0.2152  0.3423  0.6088
  824MOL0     C13636  -0.790   3.364   2.725  0.2994 -0.5547 -0.5661
  824MOL0     C13637  -0.897   3.417   2.630  0.0317  0.6285  0.1092
  824MOL0     C13638  -1.006   3.311   2.611 -0.2888  0.0257 -0.5621
  824MOL0     C13639  -1.101   3.237   2.589 -0.0928 -0.2836 -0.1985
  824MOL0     C13640  -0.391   3.353   2.376  0.0958  0.7596 -0.3210
  824MOL0     C13641  -0.269   3.388   2.321  0.0496  0.6618 -0.0011
  824MOL0     C13642  -0.187   3.289   2.233 -0.2909 -0.4415  1.2741
  824MOL0     H13643  -0.021   3.847   2.055  0.5518  0.8659 -0.3305
  824MOL0     H13644   0.160   3.996   2.030  1.8923 -2.2730 -2.5531
  824MOL0     H13645   0.470   3.989   2.379 -0.9000 -1.8898 -0.6351
  824MOL0     H13646   0.520   4.127   2.281 -1.0496  1.0542  0.2482
  824MOL0     H13647   0.535   3.846   2.167  2.6430 -2.5588  3.5706
  824MOL0     H13648   0.618   3.996   2.113  2.6623  1.7644  2.2558
  824MOL0     H13649   0.750   3.969   2.351  0.8814 -2.1523  2.1635
  824MOL0     H13650   0.674   3.820   2.353 -0.3244 -0.5163 -0.1144
  824MOL0     H13651   0.889   3.761   2.244  1.9277  4.2459  2.4620
  824MOL0     H13652   0.767   3.763   2.116  0.4929  0.2231 -2.0356
  824MOL0     H13653   0.940   4.020   2.190 -0.6061  0.3579 -0.1799
  824MOL0     H13654   0.846   4.007   2.053  0.7228  3.5142 -0.0511
  824MOL0     H13655   1.064   3.969   1.990  1.4991 -1.3895 -1.9831
  824MOL0     H13656   1.084   3.833   2.107  0.8829 -1.6364 -1.5186
  824MOL0     H13657   0.884   3.830   1.879  0.3636 -1.8585 -0.3639
  824MOL0     H13658   0.930   3.700   1.991  0.8570 -0.2255  1.3372
  824MOL0     H13659   1.174   3.710   1.924  0.5119  1.7138  3.0289
  824MOL0     H13660   1.069   3.653   1.796  0.5675 -0.9896  3.4808
  824MOL0     H13661   1.340   3.877   1.812 -1.3176 -5.3256  0.5095
  824MOL0     H13662   1.414   4.128   1.700 -0.8842 -1.6111  0.6589
  824MOL0     H13663   1.325   4.163   1.550  1.7798  0.1690 -0.2917
  824MOL0     H13664   1.537   3.954   1.608 -1.8779 -1.0354  2.1713
  824MOL0     H13665   1.412   3.913   1.497  0.3093 -2.7465  4.3072
  824MOL0     H13666   1.471   4.105   1.351 -0.3185  2.0735 -0.1464
  824MOL0     H13667   1.573   4.168   1.486  2.9809 -1.4517 -0.6518
  824MOL0     H13668   1.619   3.901   1.354 -1.3900 -0.3105 -0.1114
  824MOL0     H13669   1.677   4.046   1.286 -2.1165  0.1141 -0.5803
  824MOL0     H13670   1.935   4.066   1.635  0.9311 -2.4230  0.9002
  824MOL0     H13671   2.251   4.224   1.588 -0.8947  1.2883  1.5047
  824MOL0     H13672   2.230   4.075   1.690 -2.0256 -0.8870  0.8234
  824MOL0     H13673   2.123   4.219   1.691  0.0355 -0.2008  0.8706
  824MOL0     H13674   2.592   4.106   1.326 -2.3700  0.7964  0.1990
  824MOL0     H13675   2.797   4.071   1.216 -2.1649  2.0148  2.4272
  824MOL0     H13676   2.903   4.121   0.987 -0.1337  0.1339 -0.8087
  824MOL0     H13677   2.989   4.014   1.103  0.2611 -0.9305 -0.6729
  824MOL0     H13678   3.146   3.970   0.934  0.9964 -0.6413 -0.1998
  824MOL0     H13679   3.024   3.926   0.819  0.8558  0.9516 -1.0864
  824MOL0     H13680   3.118   4.211   0.889  0.4137  0.1760  0.2333
  824MOL0     H13681   2.989   4.181   0.761 -0.0757 -0.4693  0.7832
  824MOL0     H13682   3.143   4.036   0.641 -1.2379 -2.8550  3.4698
  824MOL0     H13683   3.265   4.065   0.758  0.8749  0.2667 -0.5367
  824MOL0     H13684   3.125   4.270   0.583 -0.3872  1.2262  1.1805
  824MOL0     H13685   3.220   4.328   0.704 -2.4806  1.3925 -1.2664
  824MOL0     H13686   3.335   4.125   0.504  0.4984 -2.9001  2.8843
  824MOL0     H13687   3.417   4.235   0.622  0.2755  2.6612 -1.0096
  824MOL0     H13688   3.348   4.430   0.491 -1.2024  0.7280 -1.3439
  824MOL0     H13689   3.259   4.318   0.374 -0.1322  1.5381  0.0711
  824MOL0     H13690   3.487   4.210   0.335  1.0838  0.7065  1.5909
  824MOL0     H13691   3.554   4.352   0.415 -0.6096  1.1473  0.7475
  824MOL0     H13692   2.600   3.884   0.886 -2.1747 -1.9791  1.3556
  824MOL0     H13693   2.383   3.944   0.987 -2.1157 -1.7459  3.6829
  824MOL0     H13694   2.118   3.938   1.207 -1.6242 -1.3960  0.5653
  824MOL0     H13695   1.887   3.898   1.244  1.7279  1.6524 -2.9618
  824MOL0     H13696   0.351   3.805   2.367  0.1963 -0.1133  0.5269
  824MOL0     H13697   0.142   3.681   2.406  1.1566  0.4070 -0.0574
  824MOL0     H13698  -0.272   3.713   2.442 -1.9911  1.0589  3.7078
  824MOL0     H13699  -0.501   3.627   2.523 -0.0556 -0.9410  0.1166
  824MOL0     H13700  -0.707   3.267   2.463 -1.4546  2.3998  1.5236
  824MOL0     H13701  -0.547   3.192   2.522  0.3559  0.3855 -1.3358
  824MOL0     H13702  -0.602   3.247   2.751 -0.6186 -1.2018  1.0160
  824MOL0     H13703  -0.738   3.157   2.693  1.1226 -0.3679  1.0269
  824MOL0     H13704  -0.838   3.332   2.817 -2.3962  0.2377 -1.5964
  824MOL0     H13705  -0.725   3.451   2.739 -1.8819  1.0451  0.1202
  824MOL0     H13706  -0.856   3.445   2.532 -0.3259 -1.0807 -0.5627
  824MOL0     H13707  -0.949   3.504   2.670 -0.2726  0.4303  0.1494
  824MOL0     H13708  -1.166   3.155   2.565  3.2379 -2.4721 -2.6077
  824MOL0     H13709  -0.429   3.253   2.361 -0.0367  0.7929 -0.2102
  824MOL0     H13710  -0.148   3.326   2.137  0.0343 -1.0510  1.1643
  824MOL0     H13711  -0.113   3.232   2.290 -1.5219  0.3776  3.8039
  824MOL0     H13712  -0.268   3.220   2.210 -2.4772  1.8548  1.6208
  825MOL0     O13713   3.321   7.771   2.999  0.2775 -0.0002 -0.5170
  825MOL0     C13714   3.367   7.752   3.112 -0.5633 -0.4768  0.6000
  825MOL0     O13715   3.300   7.782   3.227  0.1388  0.5829 -0.4079
  825MOL0     C13716   3.165   7.821   3.225  0.5134 -0.2877 -0.6900
  825MOL0     C13717   3.120   7.951   3.180  0.0369 -0.1739 -0.4752
  825MOL0     C13718   2.981   7.995   3.186  0.5159 -0.4528  0.6311
  825MOL0     C13719   2.885   7.905   3.240 -0.9905  1.0529 -0.4608
  825MOL0     O13720   2.754   7.942   3.236 -0.6139 -0.1457  0.3947
  825MOL0     C13721   2.656   7.847   3.250  1.1701 -0.5727 -0.2452
  825MOL0     C13722   2.519   7.897   3.220  0.4870  0.1643  0.0388
  825MOL0     C13723   2.502   7.951   3.079  0.2601 -0.6082 -0.6476
  825MOL0     C13724   2.385   8.056   3.072 -0.0774 -0.8361  0.2656
  825MOL0     C13725   2.434   8.198   3.100 -0.3326  0.0483 -0.5075
  825MOL0     C13726   2.539   8.256   3.004 -1.0046 -0.4874 -1.6525
  825MOL0     C13727   2.593   8.387   3.056  0.2321 -0.1155 -0.5215
  825MOL0     C13728   2.680   8.461   2.947  0.8901 -0.6727  0.4494
  825MOL0     N13729   2.768   8.381   2.866  0.0085  0.1933 -0.8385
  825MOL0     C13730   2.884   8.318   2.900  0.0395  0.4221 -0.3071
  825MOL0     C13731   2.913   8.233   2.799  0.2976 -0.1723 -0.6858
  825MOL0     C13732   3.038   8.155   2.808 -0.0676  0.9061 -0.1309
  825MOL0     C13733   3.137   8.188   2.696 -0.4968  0.6428  0.2861
  825MOL0     C13734   3.204   8.056   2.652  0.2472  0.5561  0.1018
  825MOL0     C13735   3.295   8.003   2.764 -0.6590  1.0070 -0.2082
  825MOL0     O13736   3.381   8.115   2.788  0.3283  0.0918  0.1602
  825MOL0     C13737   3.506   8.108   2.846  0.2530  0.0254 -1.2506
  825MOL0     C13738   3.579   8.228   2.849  0.3184  0.1287  0.2703
  825MOL0     C13739   3.706   8.233   2.918 -0.3230 -0.3779 -0.2880
  825MOL0     C13740   3.781   8.359   2.935 -0.5129  0.7480 -0.0504
  825MOL0     C13741   3.759   8.115   2.966 -0.4243  0.1090  0.7472
  825MOL0     C13742   3.869   8.099   3.052  0.1347 -0.1402 -0.8921
  825MOL0     O13743   3.963   8.004   3.022  0.0527 -0.2015 -0.7017
  825MOL0     C13744   4.072   8.002   3.107 -0.1636 -0.3542 -0.6788
  825MOL0     C13745   4.185   8.084   3.075 -0.7301 -0.5162  0.3711
  825MOL0     C13746   4.292   8.088   3.166  0.4494 -0.8261 -0.8146
  825MOL0     C13747   4.290   8.023   3.289 -0.4998  0.7593  0.6511
  825MOL0     O13748   4.387   8.015   3.385  0.0289 -0.0212  0.7890
  825MOL0     C13749   4.419   8.138   3.461  0.3034 -0.3831  0.1970
  825MOL0     C13750   4.404   8.116   3.610 -0.0406  0.0243  0.6114
  825MOL0     C13751   4.419   7.972   3.659 -0.5503 -1.0029  0.5399
  825MOL0     C13752   4.435   7.972   3.810 -0.4233  0.6422  0.3300
  825MOL0     C13753   4.418   7.838   3.882 -0.0617 -0.4928  0.2477
  825MOL0     C13754   4.279   7.783   3.868  0.5040 -1.3920  0.4787
  825MOL0     C13755   4.243   7.662   3.946 -0.7825 -1.0204 -0.0681
  825MOL0     C13756   4.101   7.602   3.937  0.0964  0.4267 -0.4703
  825MOL0    Cl13757   4.089   7.459   4.041 -0.4581 -0.1420 -0.3966
  825MOL0     C13758   4.186   7.940   3.320  0.6138 -0.3624  0.6545
  825MOL0     C13759   4.073   7.929   3.226 -0.3552 -0.0827 -0.3231
  825MOL0     O13760   3.870   8.171   3.155 -0.0683  0.4875 -0.0828
  825MOL0     C13761   3.685   7.991   2.954  0.3116 -0.3463 -0.3512
  825MOL0     C13762   3.561   7.989   2.902  0.4690 -0.2020  0.1733
  825MOL0     N13763   2.809   8.225   2.707 -0.3174  0.6073 -0.4020
  825MOL0     N13764   2.725   8.320   2.747 -0.1639  0.7009  0.4414
  825MOL0     C13765   2.928   7.789   3.292 -0.7169 -0.3929  0.5910
  825MOL0     C13766   3.063   7.754   3.291 -0.1857  0.0766  1.2309
  825MOL0     C13767   3.507   7.705   3.096  0.6025  0.3856  0.1811
  825MOL0     C13768   3.551   7.627   2.984  0.4914 -0.2549  0.4456
  825MOL0     C13769   3.673   7.571   2.982 -0.2562  1.0933 -0.0075
  825MOL0     C13770   3.771   7.587   3.080 -0.4204 -0.3532  0.3084
  825MOL0     O13771   3.893   7.537   3.082  0.6684 -0.2405  0.8048
  825MOL0     C13772   3.950   7.502   2.962  0.0865  0.3768  0.0545
  825MOL0     C13773   3.984   7.628   2.883  0.4451 -0.1622  0.7268
  825MOL0     C13774   4.136   7.647   2.863 -0.2755 -0.5728  0.2785
  825MOL0     C13775   4.178   7.776   2.786  0.5492  0.3133  0.0137
  825MOL0     C13776   4.104   7.770   2.658 -0.4875  0.6552  0.7596
  825MOL0     C13777   4.059   7.761   2.539  0.1185  1.1032  0.5492
  825MOL0     C13778   3.727   7.659   3.198  0.6254 -0.3933  0.9104
  825MOL0     C13779   3.598   7.718   3.200 -0.4603  0.7988 -0.6772
  825MOL0     C13780   3.578   7.811   3.321  0.4696  0.8032  0.0683
  825MOL0     H13781   3.198   8.017   3.145  0.9159 -1.2980 -0.6865
  825MOL0     H13782   2.967   8.097   3.152  0.7431 -1.1136 -1.6683
  825MOL0     H13783   2.671   7.795   3.344  1.3217 -0.5285 -0.2449
  825MOL0     H13784   2.663   7.760   3.184 -0.6959 -1.2230  0.3379
  825MOL0     H13785   2.443   7.819   3.206 -0.7075  1.5080 -1.4194
  825MOL0     H13786   2.489   7.975   3.290 -0.6580  2.5376 -2.8424
  825MOL0     H13787   2.598   7.986   3.041  1.9181 -1.9925  2.0351
  825MOL0     H13788   2.468   7.866   3.018  0.7664 -0.2101 -1.5002
  825MOL0     H13789   2.345   8.069   2.971 -2.1135  2.4409  1.3390
  825MOL0     H13790   2.300   8.039   3.138 -0.2368  1.8679  0.8603
  825MOL0     H13791   2.481   8.191   3.199 -0.9962  0.7175 -0.1362
  825MOL0     H13792   2.350   8.268   3.109  1.1573  2.0693 -1.4541
  825MOL0     H13793   2.627   8.192   2.991  1.9086  3.2377 -1.8790
  825MOL0     H13794   2.502   8.268   2.902 -1.3554 -1.3341 -1.6335
  825MOL0     H13795   2.662   8.381   3.140  1.4572  0.5882 -1.4503
  825MOL0     H13796   2.504   8.441   3.091 -0.5539 -1.3264 -0.5877
  825MOL0     H13797   2.610   8.509   2.878  0.5098  0.0794  1.3397
  825MOL0     H13798   2.742   8.540   2.989 -1.0839  1.2131  0.0038
  825MOL0     H13799   2.948   8.337   2.986  0.7035 -7.6967  1.8528
  825MOL0     H13800   3.009   8.050   2.798 -0.8560  1.0941  0.1347
  825MOL0     H13801   3.084   8.170   2.907 -0.3631  0.2275  0.1141
  825MOL0     H13802   3.080   8.228   2.611  0.7801  2.1070  0.0888
  825MOL0     H13803   3.205   8.267   2.727 -1.2823  1.1026  0.8744
  825MOL0     H13804   3.134   7.976   2.625  0.3652  0.5289 -0.1316
  825MOL0     H13805   3.269   8.070   2.565  1.2440 -0.3167  0.6840
  825MOL0     H13806   3.238   7.971   2.852  1.1029  0.4093  0.7556
  825MOL0     H13807   3.347   7.913   2.733 -1.2074  0.6594 -0.1342
  825MOL0     H13808   3.531   8.309   2.796  1.9319  0.2606 -1.0479
  825MOL0     H13809   3.733   8.440   2.879 -0.4909  1.3422  0.7762
  825MOL0     H13810   3.887   8.342   2.913 -0.5656  0.9445 -0.4627
  825MOL0     H13811   3.782   8.393   3.039 -0.8536 -0.4809  0.3642
  825MOL0     H13812   4.189   8.143   2.984  3.0477 -0.9360  0.1092
  825MOL0     H13813   4.383   8.136   3.134  0.4176 -1.1121 -1.3534
  825MOL0     H13814   4.523   8.161   3.434 -0.2510  0.3629 -1.4292
  825MOL0     H13815   4.380   8.234   3.427  0.9838 -0.0497  0.3391
  825MOL0     H13816   4.473   8.177   3.670  0.0859  1.2731 -0.7322
  825MOL0     H13817   4.303   8.140   3.644 -1.3164 -0.5280 -2.4929
  825MOL0     H13818   4.508   7.931   3.611 -1.1851  0.0965 -1.7145
  825MOL0     H13819   4.340   7.908   3.619 -0.5325 -1.0894  0.6427
  825MOL0     H13820   4.349   8.029   3.847 -1.4822 -0.4097 -0.4375
  825MOL0     H13821   4.535   8.009   3.833  0.8065 -2.6811  0.8527
  825MOL0     H13822   4.486   7.764   3.840 -0.6429 -2.5171  2.6403
  825MOL0     H13823   4.443   7.860   3.986 -0.4473  1.9450 -0.1031
  825MOL0     H13824   4.266   7.749   3.765  1.9157 -1.0987  0.1783
  825MOL0     H13825   4.197   7.855   3.878 -0.3602 -2.5196  1.9115
  825MOL0     H13826   4.254   7.694   4.050 -0.4806 -0.8894 -0.1370
  825MOL0     H13827   4.313   7.580   3.924 -2.3944 -2.6230  0.5050
  825MOL0     H13828   4.090   7.566   3.834 -0.6176  0.1492 -0.2996
  825MOL0     H13829   4.027   7.680   3.954  0.4662  1.0205 -1.5090
  825MOL0     H13830   4.214   7.878   3.405  0.3694  0.8436  1.6460
  825MOL0     H13831   4.000   7.852   3.248 -0.8559  0.9986  2.0693
  825MOL0     H13832   3.726   7.899   2.993 -0.0762 -0.8944 -1.2223
  825MOL0     H13833   3.501   7.899   2.897 -2.1808  1.4268  0.5626
  825MOL0     H13834   2.867   7.717   3.345  0.6722 -1.8687  0.2615
  825MOL0     H13835   3.107   7.671   3.346 -0.9566  0.0551  1.8320
  825MOL0     H13836   3.476   7.605   2.910  0.2218 -1.3015  1.0229
  825MOL0     H13837   3.691   7.499   2.903  1.1492 -1.5822  2.5574
  825MOL0     H13838   4.042   7.450   2.988  0.3946  1.2576  0.7915
  825MOL0     H13839   3.893   7.440   2.892  1.0756 -1.4834  0.8360
  825MOL0     H13840   3.937   7.719   2.920  0.2191  0.1978 -0.4076
  825MOL0     H13841   3.948   7.616   2.780  2.3500 -2.4624  0.2283
  825MOL0     H13842   4.184   7.658   2.961  1.0221  1.8695 -0.5382
  825MOL0     H13843   4.182   7.562   2.811  2.9747  0.8960  0.4567
  825MOL0     H13844   4.285   7.798   2.771  0.1545  1.5340 -1.2478
  825MOL0     H13845   4.144   7.867   2.836 -1.0568  0.8192 -1.8661
  825MOL0     H13846   4.019   7.766   2.440 -1.0495  2.0741  1.0479
  825MOL0     H13847   3.803   7.664   3.275  0.8681  2.8971  0.6174
  825MOL0     H13848   3.674   7.834   3.368  0.7126  2.4359 -1.1488
  825MOL0     H13849   3.531   7.901   3.281 -0.8073 -0.4922 -1.4869
  825MOL0     H13850   3.512   7.763   3.393  1.1212  1.8834  1.4289
  826MOL0     O13851   5.252  10.899   8.247 -0.2850  0.5792 -0.1241
  826MOL0     C13852   5.270  10.861   8.129 -0.4181  0.0672 -0.2811
  826MOL0     O13853   5.372  10.892   8.047  1.1526  0.5274  0.4748
  826MOL0     C13854   5.456  10.992   8.074 -0.4187 -0.8226 -0.1048
  826MOL0     C13855   5.410  11.121   8.094  0.0519  0.4746 -0.1033
  826MOL0     C13856   5.507  11.222   8.113  0.1786  0.6513 -0.3344
  826MOL0     C13857   5.649  11.207   8.115 -0.1845  0.6322 -0.1756
  826MOL0     O13858   5.735  11.320   8.124 -0.6010 -0.1578  0.5986
  826MOL0     C13859   5.860  11.324   8.050 -0.1119  0.0852 -0.7335
  826MOL0     C13860   5.995  11.318   8.125 -0.4055  0.2900 -0.1618
  826MOL0     C13861   6.015  11.416   8.243 -0.0872  0.2135  0.6010
  826MOL0     C13862   6.082  11.347   8.362  0.4349 -0.1853  0.1468
  826MOL0     C13863   6.067  11.424   8.494 -0.6280 -0.4309 -0.1035
  826MOL0     C13864   6.117  11.563   8.484  0.5964  0.0824 -0.6396
  826MOL0     C13865   6.115  11.640   8.612 -0.3498 -0.6594  0.7881
  826MOL0     C13866   6.137  11.794   8.619  1.1660 -0.3241 -0.4966
  826MOL0     N13867   6.255  11.849   8.554 -0.3519  0.0261  0.3781
  826MOL0     C13868   6.382  11.866   8.605 -0.5060 -0.4279  0.3896
  826MOL0     C13869   6.447  11.919   8.493  0.2495 -0.2293  1.0843
  826MOL0     C13870   6.588  11.960   8.480 -0.0018 -0.1691 -0.2408
  826MOL0     C13871   6.667  11.848   8.405 -1.0906  0.1497 -0.0100
  826MOL0     C13872   6.804  11.897   8.355 -0.8484  0.2599  0.1352
  826MOL0     C13873   6.888  11.783   8.311 -0.6160 -0.5923 -0.7018
  826MOL0     O13874   7.006  11.835   8.263 -0.2757 -0.0505  0.8146
  826MOL0     C13875   7.109  11.783   8.322 -0.7773 -0.0379  1.1567
  826MOL0     C13876   7.149  11.803   8.453 -0.9731 -0.0069 -0.3027
  826MOL0     C13877   7.261  11.739   8.516  0.2557  0.4237  0.4081
  826MOL0     C13878   7.266  11.748   8.670 -0.6440  0.6084  0.9202
  826MOL0     C13879   7.336  11.641   8.439 -0.6023  0.4538  0.8647
  826MOL0     C13880   7.465  11.576   8.483 -0.0615 -0.4935 -0.8938
  826MOL0     O13881   7.514  11.467   8.417 -0.2423  0.2389  0.2708
  826MOL0     C13882   7.649  11.435   8.406 -0.6263 -0.2907  1.0120
  826MOL0     C13883   7.680  11.314   8.341 -0.2535 -0.4883 -0.2284
  826MOL0     C13884   7.816  11.275   8.331  0.1005 -0.0241  0.2684
  826MOL0     C13885   7.916  11.350   8.390  0.2795 -0.3259  0.1751
  826MOL0     O13886   8.044  11.307   8.377  0.0281  0.8101  0.2812
  826MOL0     C13887   8.092  11.241   8.493 -1.3343  0.5439  0.4654
  826MOL0     C13888   8.238  11.254   8.525 -0.2494 -0.4388  0.2170
  826MOL0     C13889   8.311  11.389   8.501 -0.6701  0.0695  0.0596
  826MOL0     C13890   8.275  11.490   8.598  0.3532 -0.3219 -0.2464
  826MOL0     C13891   8.327  11.632   8.569 -0.1637  0.8379 -0.2982
  826MOL0     C13892   8.261  11.740   8.654 -0.3389  0.0722 -1.2392
  826MOL0     C13893   8.296  11.875   8.598  0.5079 -0.6823 -0.6236
  826MOL0     C13894   8.214  11.986   8.660 -0.4898  0.0802  0.1641
  826MOL0    Cl13895   8.259  12.013   8.824 -0.6265  0.1819  0.0683
  826MOL0     C13896   7.881  11.472   8.444 -0.8567  0.3986 -0.3531
  826MOL0     C13897   7.758  11.516   8.442  0.1548  0.8141  0.3291
  826MOL0     O13898   7.519  11.625   8.583  0.1557 -0.2786 -0.0040
  826MOL0     C13899   7.293  11.623   8.304 -0.0075  0.1230  0.6876
  826MOL0     C13900   7.189  11.694   8.249  0.6480 -0.3391  0.0994
  826MOL0     N13901   6.359  11.926   8.384  0.3233 -0.7071  0.7041
  826MOL0     N13902   6.247  11.880   8.424  0.5676 -0.6256  0.7057
  826MOL0     C13903   5.689  11.076   8.101  0.2465  0.0122 -0.0047
  826MOL0     C13904   5.599  10.967   8.077 -0.5872 -0.4815 -0.7319
  826MOL0     C13905   5.181  10.762   8.066  0.0135  0.5061  0.5974
  826MOL0     C13906   5.234  10.655   7.993  0.4494 -0.0793  0.3520
  826MOL0     C13907   5.147  10.564   7.925  0.2268  0.8006 -0.5829
  826MOL0     C13908   5.007  10.584   7.934 -0.3236 -0.4321  0.3294
  826MOL0     O13909   4.929  10.504   7.858 -0.4752  0.3806 -0.3761
  826MOL0     C13910   4.838  10.429   7.935 -0.2030  0.6636 -0.1955
  826MOL0     C13911   4.789  10.311   7.850  0.3614 -0.4272  0.2146
  826MOL0     C13912   4.745  10.358   7.706 -0.5539  0.5965  0.5185
  826MOL0     C13913   4.627  10.450   7.710  1.1422  0.6597 -0.4099
  826MOL0     C13914   4.509  10.375   7.747  0.8626 -0.0756 -0.1375
  826MOL0     C13915   4.421  10.308   7.798 -0.5707 -0.0722 -0.8253
  826MOL0     C13916   4.952  10.682   8.013 -0.2278 -0.9183 -0.2698
  826MOL0     C13917   5.037  10.787   8.067 -0.3414 -0.2120 -0.0849
  826MOL0     C13918   4.973  10.921   8.101  0.2397 -0.3942  0.0694
  826MOL0     H13919   5.304  11.144   8.100  0.0076  0.1999  0.2011
  826MOL0     H13920   5.467  11.322   8.130  1.9622  1.0892  1.9116
  826MOL0     H13921   5.848  11.423   8.006  1.5713  1.5105  1.7917
  826MOL0     H13922   5.869  11.252   7.968  0.2724  0.4190 -0.9856
  826MOL0     H13923   6.010  11.211   8.143 -2.7797 -0.3324 -1.5037
  826MOL0     H13924   6.073  11.346   8.052 -1.6175  2.0144 -0.8647
  826MOL0     H13925   6.079  11.501   8.213  0.2055  0.0022  0.6194
  826MOL0     H13926   5.919  11.461   8.268 -1.4326 -0.0214 -3.4948
  826MOL0     H13927   6.020  11.257   8.366 -2.5524  1.7502  0.4692
  826MOL0     H13928   6.188  11.329   8.340  0.0876  0.4817 -2.3099
  826MOL0     H13929   6.117  11.370   8.574  1.0546 -1.7071 -1.9122
  826MOL0     H13930   5.960  11.432   8.518 -0.3654 -0.1849  1.0313
  826MOL0     H13931   6.217  11.566   8.440  1.3478 -0.9286  0.9096
  826MOL0     H13932   6.054  11.618   8.414 -0.1448  0.5387  0.3641
  826MOL0     H13933   6.188  11.600   8.684 -1.0010  1.1132  2.5304
  826MOL0     H13934   6.015  11.617   8.652 -0.4562 -1.4145  0.1092
  826MOL0     H13935   6.048  11.845   8.580  1.7265  1.7888  0.8537
  826MOL0     H13936   6.144  11.816   8.726 -0.9417 -1.2082 -0.1172
  826MOL0     H13937   6.413  11.840   8.706 -0.3667 -1.6667  0.0466
  826MOL0     H13938   6.618  11.986   8.582 -2.7897 -1.2297  0.9338
  826MOL0     H13939   6.608  12.056   8.430 -2.6307  0.4748 -0.1878
  826MOL0     H13940   6.682  11.769   8.479  3.4355 -0.4624 -1.2516
  826MOL0     H13941   6.608  11.823   8.316 -0.8068  0.0316 -0.1648
  826MOL0     H13942   6.795  11.972   8.276 -2.2296  1.5109  1.4302
  826MOL0     H13943   6.855  11.943   8.440  1.8572 -0.4786 -0.9562
  826MOL0     H13944   6.894  11.710   8.392 -0.8098  0.8144  0.6320
  826MOL0     H13945   6.831  11.739   8.229  0.6652 -1.1821 -1.2863
  826MOL0     H13946   7.088  11.871   8.513  0.9375  0.4371  1.2216
  826MOL0     H13947   7.186  11.688   8.716 -0.1918 -1.8518 -1.2332
  826MOL0     H13948   7.243  11.850   8.700 -1.8599 -0.7523  5.4256
  826MOL0     H13949   7.355  11.708   8.718  1.1707 -0.1929 -2.7446
  826MOL0     H13950   7.592  11.260   8.308 -0.6245 -0.7377  1.1062
  826MOL0     H13951   7.832  11.181   8.279 -0.1053  0.2704 -0.3368
  826MOL0     H13952   8.040  11.272   8.584  0.7320 -1.0427  2.2823
  826MOL0     H13953   8.076  11.133   8.486  0.2772  0.3824 -1.4635
  826MOL0     H13954   8.248  11.225   8.630 -2.8074 -0.7453  0.4428
  826MOL0     H13955   8.290  11.172   8.474 -1.5789 -0.8353 -0.5480
  826MOL0     H13956   8.281  11.434   8.407  1.2590  2.2309  0.4017
  826MOL0     H13957   8.420  11.379   8.505 -0.5298  0.6665 -1.5310
  826MOL0     H13958   8.297  11.448   8.697  0.6173 -1.5567 -0.8065
  826MOL0     H13959   8.165  11.494   8.601  0.3800  0.0813  0.3163
  826MOL0     H13960   8.436  11.635   8.575 -0.1483  1.2026 -0.7222
  826MOL0     H13961   8.290  11.656   8.469 -3.5651  0.1714  0.6735
  826MOL0     H13962   8.292  11.741   8.759 -3.3079 -0.1152 -0.2734
  826MOL0     H13963   8.152  11.739   8.657 -0.5061  3.9732  0.0820
  826MOL0     H13964   8.276  11.878   8.491 -0.2880 -0.2190 -0.4691
  826MOL0     H13965   8.403  11.894   8.611  0.8124 -0.6504 -2.8270
  826MOL0     H13966   8.108  11.962   8.651  0.2792 -3.1792 -2.0213
  826MOL0     H13967   8.227  12.080   8.605 -0.7048  1.2429  2.0132
  826MOL0     H13968   7.960  11.536   8.478 -0.2476 -0.1033 -0.7974
  826MOL0     H13969   7.732  11.607   8.495 -3.6316 -1.0859  2.1431
  826MOL0     H13970   7.348  11.543   8.255  0.8619  0.8527  0.4432
  826MOL0     H13971   7.161  11.691   8.145  0.6891 -1.1138  0.1007
  826MOL0     H13972   5.795  11.050   8.099  0.3621  0.4149  0.7652
  826MOL0     H13973   5.632  10.866   8.051  1.3833  0.2507 -1.2351
  826MOL0     H13974   5.341  10.633   7.993  0.0667 -2.4058 -1.8208
  826MOL0     H13975   5.168  10.463   7.889 -1.3622 -0.6921  2.2983
  826MOL0     H13976   4.877  10.393   8.030 -2.3648  1.9190  1.2597
  826MOL0     H13977   4.754  10.494   7.962 -2.0809 -2.3033  1.7427
  826MOL0     H13978   4.710  10.262   7.907  0.2019  1.8718  2.1214
  826MOL0     H13979   4.870  10.239   7.838 -0.3363 -1.6747  2.4626
  826MOL0     H13980   4.834  10.405   7.663  2.2880 -3.4301  1.4387
  826MOL0     H13981   4.727  10.273   7.640  1.3918  0.1520  0.4911
  826MOL0     H13982   4.617  10.493   7.610 -0.8234  0.2828 -0.4020
  826MOL0     H13983   4.633  10.536   7.778 -2.6531  2.1530 -1.7295
  826MOL0     H13984   4.342  10.256   7.849 -1.1505  1.2483 -0.3153
  826MOL0     H13985   4.844  10.682   8.012 -0.2991 -1.3739 -3.7187
  826MOL0     H13986   4.928  10.958   8.008 -1.5075 -1.2408  0.5209
  826MOL0     H13987   4.888  10.905   8.169 -0.6783 -2.1201 -1.3690
  826MOL0     H13988   5.044  10.996   8.135  0.2092 -0.9552  1.4383
  827MOL0     O13989   6.805   8.096   7.584 -0.7614  0.2234  0.1775
  827MOL0     C13990   6.793   8.157   7.476  0.4094 -1.1302  0.3077
  827MOL0     O13991   6.880   8.237   7.411  0.7043  1.1444 -0.3724
  827MOL0     C13992   6.994   8.264   7.483 -0.6744 -1.1388 -0.1902
  827MOL0     C13993   7.126   8.214   7.452 -0.1270 -0.5318  0.5395
  827MOL0     C13994   7.242   8.261   7.519  0.7149  0.0527 -0.3941
  827MOL0     C13995   7.229   8.341   7.633 -0.5919  0.5542 -0.1124
  827MOL0     O13996   7.336   8.399   7.685  0.5189  0.8039  0.3007
  827MOL0     C13997   7.447   8.317   7.725  0.0427  0.1943  0.2267
  827MOL0     C13998   7.561   8.393   7.788 -0.2603  0.1078  0.8168
  827MOL0     C13999   7.560   8.416   7.945 -0.7625  0.4331 -0.9283
  827MOL0     C14000   7.436   8.488   7.990 -0.4846  0.2586 -0.4412
  827MOL0     C14001   7.416   8.482   8.144  0.5050 -0.3451 -0.0539
  827MOL0     C14002   7.523   8.560   8.217  0.1929  0.7716 -0.3451
  827MOL0     C14003   7.508   8.528   8.371 -0.3790  0.5563 -0.2172
  827MOL0     C14004   7.628   8.573   8.464 -0.1381 -0.8710  0.1377
  827MOL0     N14005   7.623   8.513   8.590  0.6027 -0.6537 -0.6148
  827MOL0     C14006   7.537   8.547   8.691 -0.5821 -0.6012 -0.0013
  827MOL0     C14007   7.595   8.495   8.804 -0.8736 -0.1828  0.3604
  827MOL0     C14008   7.559   8.516   8.947  0.2537 -0.7896 -0.1823
  827MOL0     C14009   7.452   8.414   8.999 -0.1696 -1.0317  1.1548
  827MOL0     C14010   7.502   8.338   9.124  0.1373  0.1838 -0.4211
  827MOL0     C14011   7.594   8.222   9.085  0.4274 -0.0395 -0.6923
  827MOL0     O14012   7.604   8.124   9.183  0.6483  0.5618 -0.0765
  827MOL0     C14013   7.701   8.022   9.162  0.5978  0.0413 -0.1127
  827MOL0     C14014   7.719   7.931   9.270  1.1912  0.9847  0.0882
  827MOL0     C14015   7.807   7.821   9.268 -0.4575  0.3116  0.3690
  827MOL0     C14016   7.815   7.725   9.388  0.0965 -0.1613 -0.5764
  827MOL0     C14017   7.884   7.803   9.152 -0.1961  0.1470  0.2591
  827MOL0     C14018   7.989   7.694   9.148 -0.7720 -0.1242  0.6492
  827MOL0     O14019   8.011   7.635   9.030  0.6391 -0.1967 -0.1594
  827MOL0     C14020   8.133   7.577   9.017  0.1358  1.1199 -0.2573
  827MOL0     C14021   8.155   7.452   9.078  0.8454 -0.1719 -0.4377
  827MOL0     C14022   8.284   7.398   9.079 -0.1422  1.2094 -0.2562
  827MOL0     C14023   8.391   7.463   9.014  0.1467 -0.4343  1.0365
  827MOL0     O14024   8.513   7.399   9.004  0.6727  0.0315 -0.4350
  827MOL0     C14025   8.618   7.450   8.910  0.6188 -0.1328 -0.2254
  827MOL0     C14026   8.711   7.336   8.862 -0.5033 -0.0441 -0.8454
  827MOL0     C14027   8.846   7.400   8.819  0.5219 -0.4752 -0.5572
  827MOL0     C14028   8.947   7.403   8.931 -0.4306  0.7090 -0.7770
  827MOL0     C14029   9.090   7.446   8.883  0.2388  0.4271 -0.0371
  827MOL0     C14030   9.186   7.435   9.005  0.0716 -0.1612 -1.1478
  827MOL0     C14031   9.323   7.479   8.973  1.0957  0.1967 -0.9356
  827MOL0     C14032   9.399   7.358   8.929 -0.3762 -0.1375  0.7001
  827MOL0    Cl14033   9.561   7.422   8.868 -0.2182  0.1489  0.0852
  827MOL0     C14034   8.365   7.585   8.945 -0.4572  0.1992  0.1326
  827MOL0     C14035   8.239   7.635   8.941 -0.0025  1.0938 -0.3466
  827MOL0     O14036   8.064   7.684   9.246  0.3907  0.4707  0.7353
  827MOL0     C14037   7.864   7.884   9.038  0.6671 -0.7088 -0.2373
  827MOL0     C14038   7.768   7.989   9.046 -1.7877 -0.1274 -0.4518
  827MOL0     N14039   7.705   8.424   8.772  0.7918 -0.1743 -0.7215
  827MOL0     N14040   7.728   8.441   8.651 -1.2060  0.3663 -0.1361
  827MOL0     C14041   7.100   8.384   7.666 -0.0661 -0.1067  0.6568
  827MOL0     C14042   6.986   8.352   7.590 -0.5691  0.2185  0.0658
  827MOL0     C14043   6.665   8.144   7.409  1.3113 -0.0070 -0.2254
  827MOL0     C14044   6.659   8.152   7.269 -0.8360  0.6836 -0.6051
  827MOL0     C14045   6.546   8.158   7.200  0.6633 -0.2150  0.6534
  827MOL0     C14046   6.424   8.150   7.262 -0.1663 -0.0031  0.4954
  827MOL0     O14047   6.304   8.141   7.188  0.0665 -0.2117 -0.4439
  827MOL0     C14048   6.310   8.181   7.046 -0.0438  0.4080  0.3844
  827MOL0     C14049   6.178   8.221   6.987 -0.5884  0.1615  0.6535
  827MOL0     C14050   6.091   8.311   7.073  0.4199  0.0081 -0.7098
  827MOL0     C14051   5.976   8.359   6.978  0.3147 -0.0694 -0.3626
  827MOL0     C14052   5.984   8.502   6.931 -0.2178 -0.3211  0.7653
  827MOL0     C14053   5.987   8.611   6.881 -0.5137  0.9141  0.0658
  827MOL0     C14054   6.424   8.126   7.398 -0.3651 -0.3495  1.5211
  827MOL0     C14055   6.544   8.121   7.481 -0.0960 -0.3182  0.6688
  827MOL0     C14056   6.521   8.095   7.626  0.6276 -0.1158 -0.0850
  827MOL0     H14057   7.129   8.149   7.365 -4.8698 -1.5620  0.8753
  827MOL0     H14058   7.335   8.220   7.482  0.2182 -1.9163  0.3623
  827MOL0     H14059   7.483   8.266   7.635 -3.0321 -1.8239 -0.0331
  827MOL0     H14060   7.408   8.239   7.791  1.1887  0.5951  1.4144
  827MOL0     H14061   7.653   8.337   7.769 -1.2286 -1.5882  0.8818
  827MOL0     H14062   7.571   8.490   7.740 -0.0224 -1.0694 -1.6738
  827MOL0     H14063   7.553   8.318   7.994  2.1432  0.4736 -0.2674
  827MOL0     H14064   7.656   8.461   7.974 -0.8975  0.1598 -0.0420
  827MOL0     H14065   7.423   8.592   7.959 -3.1430  0.0882 -0.1927
  827MOL0     H14066   7.344   8.448   7.945 -0.4474 -2.3393  1.5594
  827MOL0     H14067   7.407   8.376   8.170  2.2202 -0.9209 -1.6346
  827MOL0     H14068   7.322   8.533   8.168  1.2168  0.0554  2.1173
  827MOL0     H14069   7.622   8.534   8.180 -1.1804 -1.6562 -2.6112
  827MOL0     H14070   7.512   8.667   8.196 -0.2915  1.0738  1.3057
  827MOL0     H14071   7.506   8.419   8.382 -0.6166  0.4696 -1.0552
  827MOL0     H14072   7.416   8.566   8.415 -0.8838  0.7428 -1.4064
  827MOL0     H14073   7.721   8.536   8.420  0.8231  0.6481  0.8350
  827MOL0     H14074   7.623   8.681   8.477 -1.2469 -0.7180 -1.2103
  827MOL0     H14075   7.457   8.621   8.685  0.2981  0.8288  3.3905
  827MOL0     H14076   7.532   8.622   8.958  3.1893  0.0988 -0.6664
  827MOL0     H14077   7.643   8.497   9.014  1.5440 -1.5764 -1.9459
  827MOL0     H14078   7.358   8.461   9.027 -0.0083 -0.5511  0.8935
  827MOL0     H14079   7.422   8.340   8.925 -1.2755  0.5126  0.0108
  827MOL0     H14080   7.545   8.409   9.195  1.2097 -2.8623  2.2337
  827MOL0     H14081   7.408   8.295   9.159  0.5400 -0.3143  0.0548
  827MOL0     H14082   7.548   8.171   9.000  1.9225 -1.9534 -0.4202
  827MOL0     H14083   7.690   8.263   9.054  0.2108 -0.8413 -2.5637
  827MOL0     H14084   7.651   7.954   9.351 -0.7992  2.2106 -1.7974
  827MOL0     H14085   7.790   7.621   9.366  1.7624 -1.1095  1.6776
  827MOL0     H14086   7.754   7.752   9.475  0.3423  0.5430 -0.6102
  827MOL0     H14087   7.917   7.728   9.428  0.5259  0.9587 -1.6744
  827MOL0     H14088   8.071   7.408   9.131  1.0733 -0.7875 -0.5805
  827MOL0     H14089   8.311   7.314   9.143 -0.7655  2.5697  1.8797
  827MOL0     H14090   8.575   7.501   8.824  0.5105  1.9220  0.9580
  827MOL0     H14091   8.677   7.522   8.968  1.5334 -0.7397 -0.3854
  827MOL0     H14092   8.735   7.267   8.944 -0.2763  0.0113 -0.8671
  827MOL0     H14093   8.662   7.281   8.781  0.2312 -3.1332  0.6656
  827MOL0     H14094   8.825   7.500   8.779  0.7728  0.0520  0.6011
  827MOL0     H14095   8.888   7.340   8.738  3.2995 -2.2647  2.0538
  827MOL0     H14096   8.951   7.307   8.983  3.1068  1.3712  0.4690
  827MOL0     H14097   8.922   7.474   9.010  4.6582 -2.0092  4.0001
  827MOL0     H14098   9.126   7.380   8.804 -0.0377  0.7355 -0.4259
  827MOL0     H14099   9.088   7.549   8.847 -0.5684  1.7049  3.3549
  827MOL0     H14100   9.186   7.333   9.044 -0.4514  0.8087  1.6523
  827MOL0     H14101   9.158   7.493   9.094  1.6764 -0.0310 -0.7011
  827MOL0     H14102   9.362   7.508   9.071 -0.0059  1.8488 -0.9431
  827MOL0     H14103   9.326   7.567   8.908  1.4123  1.0785  0.2445
  827MOL0     H14104   9.338   7.320   8.846 -0.3751 -0.4547  0.8478
  827MOL0     H14105   9.412   7.284   9.007 -2.5751  0.1289  1.4117
  827MOL0     H14106   8.440   7.644   8.893 -0.2665  2.0184  2.3386
  827MOL0     H14107   8.221   7.731   8.894  0.2829  0.6700 -1.3413
  827MOL0     H14108   7.925   7.873   8.949 -2.6147 -0.6552 -2.6616
  827MOL0     H14109   7.761   8.054   8.959  1.2527 -0.4396 -1.0317
  827MOL0     H14110   7.097   8.454   7.749 -1.4685  1.0939 -0.3323
  827MOL0     H14111   6.897   8.402   7.626 -1.1616 -0.1813 -0.8157
  827MOL0     H14112   6.755   8.142   7.220  0.4301 -1.1542  2.0070
  827MOL0     H14113   6.557   8.176   7.094 -2.1700 -0.8508  0.1616
  827MOL0     H14114   6.369   8.273   7.031 -1.3955  1.2359 -0.0462
  827MOL0     H14115   6.345   8.094   6.991 -1.1719 -0.3629  0.8604
  827MOL0     H14116   6.119   8.132   6.963 -1.5957  0.3525  2.2697
  827MOL0     H14117   6.211   8.276   6.898  2.2572  0.0779  1.5370
  827MOL0     H14118   6.054   8.249   7.154  2.9638 -1.8580 -0.8273
  827MOL0     H14119   6.153   8.394   7.109  2.1087 -0.4015 -2.4771
  827MOL0     H14120   5.885   8.350   7.038  0.8971 -2.3192  0.2767
  827MOL0     H14121   5.965   8.288   6.896  0.9820 -0.3959 -0.1723
  827MOL0     H14122   5.992   8.711   6.841 -0.5461 -0.2995 -3.2731
  827MOL0     H14123   6.324   8.106   7.434 -1.2246 -1.3503 -1.1793
  827MOL0     H14124   6.528   7.989   7.650 -1.4771 -0.6627 -1.6432
  827MOL0     H14125   6.598   8.156   7.675  2.1138 -2.0170  0.0583
  827MOL0     H14126   6.425   8.127   7.668  0.5244 -0.6388  0.0784
  828MOL0     O14127   0.949   9.083  10.304 -0.3069 -0.0292  0.0431
  828MOL0     C14128   1.020   9.183  10.317 -0.5336  1.0015  0.1067
  828MOL0     O14129   1.142   9.202  10.255  0.4188 -0.6849 -0.9819
  828MOL0     C14130   1.219   9.092  10.224  0.1357 -0.1428 -0.2790
  828MOL0     C14131   1.287   9.085  10.097 -0.2836  0.2743 -0.8770
  828MOL0     C14132   1.379   8.981  10.067  0.0268 -0.2797  0.3906
  828MOL0     C14133   1.418   8.894  10.167  0.3512  0.1310 -0.1010
  828MOL0     O14134   1.514   8.790  10.164  0.0507 -0.2238 -0.2406
  828MOL0     C14135   1.625   8.806  10.069 -0.3224 -0.5084  0.0239
  828MOL0     C14136   1.736   8.705  10.111 -0.1204  0.2299  0.3158
  828MOL0     C14137   1.828   8.690   9.993  0.3927  0.1415 -0.3888
  828MOL0     C14138   1.943   8.593  10.024 -1.7273 -0.1507 -0.5986
  828MOL0     C14139   2.032   8.555   9.906  0.1152  0.7567  0.0142
  828MOL0     C14140   2.154   8.472   9.951  0.5836 -0.2238  0.5319
  828MOL0     C14141   2.247   8.427   9.831  0.7278  0.6987 -0.0997
  828MOL0     C14142   2.342   8.538   9.805  0.0106 -0.0891  0.1342
  828MOL0     N14143   2.446   8.567   9.908 -0.6788  0.4243 -0.1539
  828MOL0     C14144   2.541   8.480   9.951  0.6907  0.0251  0.6283
  828MOL0     C14145   2.619   8.546  10.033 -0.0121 -0.1403  0.2626
  828MOL0     C14146   2.740   8.493  10.100  0.5369 -0.2443  0.8550
  828MOL0     C14147   2.817   8.387  10.021  0.1893  0.3691  0.0494
  828MOL0     C14148   2.951   8.376  10.083 -0.6806 -0.0159  0.8019
  828MOL0     C14149   3.038   8.268  10.022  0.2659  0.3130  0.0637
  828MOL0     O14150   3.053   8.275   9.881  0.3643 -0.3597  0.2448
  828MOL0     C14151   3.170   8.331   9.824 -0.1228 -0.5376  0.1106
  828MOL0     C14152   3.185   8.317   9.690 -0.3451  0.0203 -0.8455
  828MOL0     C14153   3.290   8.378   9.625 -0.4305  0.5643 -0.2131
  828MOL0     C14154   3.304   8.357   9.483 -0.1131 -0.1948  0.9468
  828MOL0     C14155   3.386   8.462   9.697  0.0807  0.0639  0.4620
  828MOL0     C14156   3.492   8.545   9.638  0.5765 -0.0292 -0.6068
  828MOL0     O14157   3.544   8.653   9.713  0.4136 -0.3421 -0.7323
  828MOL0     C14158   3.609   8.738   9.639 -0.4491  0.4551  0.4340
  828MOL0     C14159   3.552   8.834   9.563 -0.4188 -0.9845 -1.0210
  828MOL0     C14160   3.629   8.916   9.480 -0.4727 -0.5425  0.0213
  828MOL0     C14161   3.771   8.903   9.476  0.7301  0.0606  0.5540
  828MOL0     O14162   3.833   8.983   9.383  0.1949 -0.1453  0.1641
  828MOL0     C14163   3.962   8.931   9.335  0.0848 -0.3813 -0.1852
  828MOL0     C14164   4.019   9.002   9.222  0.9086 -0.2731  0.6279
  828MOL0     C14165   4.020   9.152   9.248 -1.0093  0.3178  0.0588
  828MOL0     C14166   4.152   9.204   9.304 -0.7498 -0.2262 -0.5983
  828MOL0     C14167   4.279   9.196   9.221 -0.2706  0.4305 -0.4888
  828MOL0     C14168   4.402   9.156   9.307 -0.3502 -0.0109  0.3375
  828MOL0     C14169   4.523   9.173   9.226  0.0465 -0.2574 -0.2801
  828MOL0     C14170   4.643   9.164   9.321 -0.2221  0.0443 -0.0100
  828MOL0    Cl14171   4.787   9.209   9.249 -0.6134  0.0379  0.3715
  828MOL0     C14172   3.831   8.816   9.559  0.6160 -0.1010 -0.0469
  828MOL0     C14173   3.754   8.733   9.645  0.3182 -0.2063 -0.6679
  828MOL0     O14174   3.529   8.509   9.534 -0.1111  0.7185  0.2905
  828MOL0     C14175   3.377   8.453   9.839 -0.0853 -0.1455  0.2041
  828MOL0     C14176   3.266   8.398   9.897  0.2341 -0.0834  0.5784
  828MOL0     N14177   2.569   8.679  10.041  0.4406  0.4930 -0.0842
  828MOL0     N14178   2.467   8.691   9.963 -0.2698 -0.2240 -1.1301
  828MOL0     C14179   1.337   8.888  10.280  1.0093  0.1363  0.5305
  828MOL0     C14180   1.245   8.994  10.321 -0.6159 -0.0552 -0.9573
  828MOL0     C14181   0.972   9.287  10.411 -0.5440 -0.9833 -0.1657
  828MOL0     C14182   1.069   9.387  10.445  0.4700 -0.0224  0.3856
  828MOL0     C14183   1.030   9.492  10.532 -0.0769 -0.4209  0.3771
  828MOL0     C14184   0.894   9.502  10.589  0.0162  0.2408  0.5080
  828MOL0     O14185   0.852   9.580  10.692  1.0600  0.4111 -0.1170
  828MOL0     C14186   0.918   9.702  10.723  0.8996  0.0500 -0.3081
  828MOL0     C14187   0.812   9.773  10.804 -0.4107  0.1653 -0.2963
  828MOL0     C14188   0.846   9.915  10.829 -0.1897  0.7904  0.1979
  828MOL0     C14189   0.725  10.002  10.845  0.1764 -0.1908 -0.1712
  828MOL0     C14190   0.660   9.977  10.977  0.1267 -0.4690  0.0341
  828MOL0     C14191   0.626   9.919  11.078  0.1393  0.3163  0.1401
  828MOL0     C14192   0.817   9.400  10.556 -0.2630 -0.5634  0.3156
  828MOL0     C14193   0.842   9.301  10.467 -0.0724  0.6161 -0.1721
  828MOL0     C14194   0.727   9.199  10.443  0.4814 -0.1041  0.3494
  828MOL0     H14195   1.271   9.163  10.024 -0.1767  0.4523 -0.7104
  828MOL0     H14196   1.426   8.982   9.969  1.2809  1.4919  0.9632
  828MOL0     H14197   1.667   8.905  10.049 -1.1059 -0.2037 -0.1518
  828MOL0     H14198   1.579   8.771   9.976 -1.9898  2.3965 -0.3440
  828MOL0     H14199   1.793   8.746  10.195 -0.1572 -1.0874  1.0165
  828MOL0     H14200   1.693   8.606  10.127 -0.0012  0.0748 -0.3321
  828MOL0     H14201   1.758   8.646   9.922 -0.0543 -1.2720  0.8661
  828MOL0     H14202   1.857   8.792   9.964  1.7369 -0.2847 -0.6426
  828MOL0     H14203   2.014   8.651  10.084 -2.9326  0.5993  0.1479
  828MOL0     H14204   1.911   8.501  10.074  0.3970 -1.0688 -0.8272
  828MOL0     H14205   2.063   8.649   9.858 -5.8242  2.1585 -1.8249
  828MOL0     H14206   1.960   8.502   9.845 -1.6092  2.2697  0.6491
  828MOL0     H14207   2.208   8.536  10.021  1.2179  1.6393 -1.5592
  828MOL0     H14208   2.115   8.387  10.008 -0.7468  0.4859  0.7282
  828MOL0     H14209   2.179   8.418   9.745 -0.9303  0.9370  1.1315
  828MOL0     H14210   2.293   8.332   9.859  0.9280  0.7871 -0.1309
  828MOL0     H14211   2.393   8.516   9.711 -0.2486  2.0779 -0.5850
  828MOL0     H14212   2.282   8.628   9.788  0.7003  0.1010 -1.5715
  828MOL0     H14213   2.552   8.378   9.915 -0.5557 -0.4799  1.5976
  828MOL0     H14214   2.707   8.443  10.192  1.8012 -0.2722  1.3013
  828MOL0     H14215   2.806   8.575  10.126  0.4368  0.0319  0.2481
  828MOL0     H14216   2.757   8.295  10.021  0.5731  0.1143  0.2266
  828MOL0     H14217   2.826   8.420   9.917 -1.6300 -3.8554 -1.6803
  828MOL0     H14218   3.012   8.467  10.090 -0.2133 -0.4546  3.9693
  828MOL0     H14219   2.936   8.355  10.189 -1.3385 -1.3518  0.4636
  828MOL0     H14220   3.132   8.247  10.074 -0.1233 -1.5585  0.0756
  828MOL0     H14221   2.987   8.173  10.040  2.8324 -1.5826 -1.8417
  828MOL0     H14222   3.103   8.256   9.653 -1.3327  1.3280 -0.8677
  828MOL0     H14223   3.406   8.340   9.448  0.1020  2.4193  0.0924
  828MOL0     H14224   3.256   8.437   9.426  1.1419 -0.2438 -0.2341
  828MOL0     H14225   3.267   8.262   9.443  1.7580 -1.1080  1.2687
  828MOL0     H14226   3.445   8.850   9.557 -0.4744 -1.1470 -0.5479
  828MOL0     H14227   3.594   8.995   9.414  3.3045  2.3413  1.1326
  828MOL0     H14228   4.032   8.932   9.419 -1.0347  1.6361  0.8025
  828MOL0     H14229   3.949   8.826   9.306 -4.4119 -0.8667  2.5400
  828MOL0     H14230   4.120   8.964   9.201  1.7450  0.8524  2.4639
  828MOL0     H14231   3.947   8.984   9.141  0.1422  0.6267  1.1041
  828MOL0     H14232   3.928   9.181   9.299 -2.2851  0.2142 -2.0507
  828MOL0     H14233   4.018   9.190   9.146 -0.1483  0.2668  0.0209
  828MOL0     H14234   4.170   9.146   9.395 -3.3162  1.9081  1.4407
  828MOL0     H14235   4.135   9.304   9.347  0.3316  0.3345 -1.4318
  828MOL0     H14236   4.276   9.122   9.140  2.0263 -0.5290  0.2098
  828MOL0     H14237   4.300   9.292   9.172 -0.7124  0.2339 -1.0772
  828MOL0     H14238   4.387   9.061   9.360 -0.6225  0.7497  1.6783
  828MOL0     H14239   4.403   9.237   9.382  3.0172 -1.9460  2.6561
  828MOL0     H14240   4.527   9.268   9.172  0.2928 -1.4654 -2.5089
  828MOL0     H14241   4.525   9.094   9.150  0.8934  0.4948 -1.0748
  828MOL0     H14242   4.654   9.062   9.359  5.0265  1.8125  4.8174
  828MOL0     H14243   4.626   9.231   9.406  2.2058 -1.0999  1.4879
  828MOL0     H14244   3.938   8.801   9.571  0.5031  0.6433  2.3933
  828MOL0     H14245   3.800   8.666   9.718 -0.9804  0.4503  0.8029
  828MOL0     H14246   3.458   8.500   9.893  0.7849  0.5264 -1.6211
  828MOL0     H14247   3.255   8.418  10.003 -0.7209  4.5875 -0.1749
  828MOL0     H14248   1.351   8.805  10.348 -0.3477  1.4198  2.4810
  828MOL0     H14249   1.197   8.985  10.418 -0.0161  1.8299 -0.4351
  828MOL0     H14250   1.172   9.383  10.413  0.3618 -3.2730  0.0629
  828MOL0     H14251   1.097   9.574  10.554  0.0821 -0.5139  0.2443
  828MOL0     H14252   1.002   9.687  10.792 -0.5702  1.5587  1.9942
  828MOL0     H14253   0.949   9.760  10.635  0.6966  2.1499  0.9263
  828MOL0     H14254   0.806   9.726  10.902  4.0159  1.6074  0.9405
  828MOL0     H14255   0.715   9.767  10.756 -1.2123  2.0085  0.9710
  828MOL0     H14256   0.908   9.931  10.917 -1.8583 -0.6042  1.7043
  828MOL0     H14257   0.896   9.944  10.736 -0.9350 -0.0889 -0.4951
  828MOL0     H14258   0.651   9.971  10.771 -0.8051 -1.4489  1.2665
  828MOL0     H14259   0.751  10.107  10.827  0.0123 -0.3625 -1.4664
  828MOL0     H14260   0.601   9.856  11.162  0.0738  0.6231  0.3514
  828MOL0     H14261   0.722   9.391  10.608 -1.6174  3.4478 -1.1129
  828MOL0     H14262   0.633   9.254  10.439 -0.4166 -1.6303 -0.2223
  828MOL0     H14263   0.729   9.160  10.340 -1.2034 -0.3392  0.3775
  828MOL0     H14264   0.733   9.109  10.505  0.2535  0.6012  1.4094
  829MOL0     O14265  11.001   2.815   8.709 -0.4090  0.3307  0.2421
  829MOL0     C14266  10.969   2.887   8.612  0.2442  0.5084  0.7396
  829MOL0     O14267  11.046   2.917   8.504  1.0547 -0.4764 -0.2426
  829MOL0     C14268  11.185   2.897   8.507 -0.3632  0.4051 -0.0161
  829MOL0     C14269  11.245   2.860   8.385 -0.1399 -0.6003 -0.2036
  829MOL0     C14270  11.380   2.837   8.374  0.2710 -0.9709 -0.6516
  829MOL0     C14271  11.464   2.843   8.482 -0.9304 -0.2748 -0.1543
  829MOL0     O14272  11.601   2.830   8.458 -0.6690  0.3533  0.3419
  829MOL0     C14273  11.682   2.821   8.576  0.4178 -0.3273 -0.5351
  829MOL0     C14274  11.827   2.808   8.517  1.0567  0.4437 -0.8667
  829MOL0     C14275  11.935   2.785   8.629  0.0192  0.1956  1.2826
  829MOL0     C14276  12.048   2.694   8.575 -0.0203  0.5079  0.2320
  829MOL0     C14277  12.175   2.692   8.665  0.1387 -0.4101 -0.3850
  829MOL0     C14278  12.238   2.556   8.708  0.3489 -0.2579 -0.0717
  829MOL0     C14279  12.301   2.472   8.595  0.4702 -0.2431  0.5160
  829MOL0     C14280  12.370   2.339   8.639  0.5806 -0.6931 -0.1966
  829MOL0     N14281  12.461   2.300   8.527  0.4080 -0.1177 -0.6419
  829MOL0     C14282  12.595   2.276   8.527  0.0283 -0.5024 -0.0291
  829MOL0     C14283  12.614   2.223   8.407  0.2083  0.3986  0.3230
  829MOL0     C14284  12.742   2.166   8.349 -0.4003  0.6540 -0.0329
  829MOL0     C14285  12.772   2.027   8.403 -0.5598 -0.8344 -0.7293
  829MOL0     C14286  12.878   2.025   8.514  0.5387  0.1830  0.5747
  829MOL0     C14287  12.910   1.879   8.552  0.1566  0.0565  0.0672
  829MOL0     O14288  13.013   1.866   8.652  0.2215 -0.1660  0.3484
  829MOL0     C14289  13.139   1.870   8.600 -0.0366 -0.0088 -0.5283
  829MOL0     C14290  13.182   1.799   8.488  0.0843 -0.4593  0.7735
  829MOL0     C14291  13.319   1.802   8.444 -0.4047 -0.3856  0.0469
  829MOL0     C14292  13.363   1.695   8.353 -0.3323 -0.2912  0.2267
  829MOL0     C14293  13.411   1.884   8.509  0.1752 -0.1395 -0.2280
  829MOL0     C14294  13.558   1.880   8.476  0.2338 -0.6946 -0.2374
  829MOL0     O14295  13.596   1.853   8.341 -0.0003  0.2838  0.3009
  829MOL0     C14296  13.736   1.847   8.322 -0.0793  0.2212 -0.4986
  829MOL0     C14297  13.813   1.960   8.349  0.6935  0.3978  0.1964
  829MOL0     C14298  13.945   1.940   8.348 -0.1948 -0.1441 -0.3230
  829MOL0     C14299  14.017   1.825   8.316  1.2099  0.6394  0.3027
  829MOL0     O14300  14.146   1.840   8.299 -0.4920  0.2373 -0.6631
  829MOL0     C14301  14.217   1.765   8.201  0.4954  0.2344 -0.2319
  829MOL0     C14302  14.179   1.786   8.060  0.1717 -0.7499 -0.0643
  829MOL0     C14303  14.178   1.934   8.016 -0.0379  0.7947  0.6408
  829MOL0     C14304  14.084   1.956   7.893  0.6102  0.7900  0.9379
  829MOL0     C14305  14.086   2.103   7.857 -0.2788  0.0319 -0.6642
  829MOL0     C14306  14.028   2.141   7.730 -0.3526  0.0848  0.4482
  829MOL0     C14307  14.017   2.292   7.736  0.0944 -1.0430  0.3196
  829MOL0     C14308  14.157   2.361   7.723 -0.6773 -0.1664  0.4852
  829MOL0    Cl14309  14.141   2.532   7.688 -0.0788  0.6607  0.1061
  829MOL0     C14310  13.937   1.711   8.294  0.3928  0.3026 -0.0739
  829MOL0     C14311  13.798   1.721   8.299  1.1317  0.2897  0.3164
  829MOL0     O14312  13.632   1.901   8.576  0.1777 -0.6989 -0.0493
  829MOL0     C14313  13.369   1.955   8.624 -0.4312 -0.2958 -0.2520
  829MOL0     C14314  13.234   1.946   8.665 -0.1772 -0.5462 -0.6624
  829MOL0     N14315  12.500   2.208   8.338 -0.1065  0.4266 -0.1082
  829MOL0     N14316  12.408   2.259   8.408 -0.2598 -0.6004  0.5881
  829MOL0     C14317  11.414   2.884   8.606  0.4609 -0.5374  1.2020
  829MOL0     C14318  11.269   2.904   8.621 -0.9385  0.0961  0.2670
  829MOL0     C14319  10.829   2.932   8.603  0.0120  0.5941 -0.9308
  829MOL0     C14320  10.740   2.891   8.708  0.3367 -0.1101 -0.3515
  829MOL0     C14321  10.609   2.926   8.704 -0.2958  0.1044 -0.6588
  829MOL0     C14322  10.546   2.989   8.593 -0.6185  0.6668  0.5251
  829MOL0     O14323  10.417   3.016   8.594  0.6848 -0.3853  0.0387
  829MOL0     C14324  10.344   3.019   8.714 -0.0704  0.2612 -0.0376
  829MOL0     C14325  10.199   3.073   8.700 -0.3612  0.3611 -0.4095
  829MOL0     C14326  10.203   3.233   8.687 -0.3038 -0.7561 -0.2542
  829MOL0     C14327  10.063   3.305   8.657 -0.5756  0.0654  0.0587
  829MOL0     C14328   9.971   3.327   8.772 -0.1262  0.2002  1.0705
  829MOL0     C14329   9.906   3.350   8.869 -0.2470 -0.4074 -0.7174
  829MOL0     C14330  10.629   3.012   8.483  0.3758 -1.1586  0.3105
  829MOL0     C14331  10.768   2.997   8.492  0.8592 -0.4715  0.7853
  829MOL0     C14332  10.838   3.044   8.372 -0.9974  0.3542  0.3071
  829MOL0     H14333  11.190   2.852   8.292 -0.4457  2.5967 -0.4094
  829MOL0     H14334  11.415   2.794   8.281 -0.2690  2.0742 -2.3976
  829MOL0     H14335  11.661   2.737   8.642  0.4758  0.9092  1.1236
  829MOL0     H14336  11.678   2.906   8.644 -0.9192 -0.6806 -0.1462
  829MOL0     H14337  11.820   2.735   8.436  1.9929  0.6309 -1.1271
  829MOL0     H14338  11.847   2.907   8.476 -0.3388  0.4101 -1.6557
  829MOL0     H14339  11.975   2.885   8.651  0.8069 -0.1565  1.4924
  829MOL0     H14340  11.896   2.745   8.723  1.7146 -0.1184  1.9036
  829MOL0     H14341  12.008   2.593   8.586 -1.9913  0.7458 -3.2279
  829MOL0     H14342  12.065   2.716   8.469  0.2598 -0.0616  0.1550
  829MOL0     H14343  12.138   2.740   8.756  2.1709 -0.8355  0.7202
  829MOL0     H14344  12.249   2.757   8.618  1.6441  0.2481  2.6365
  829MOL0     H14345  12.307   2.582   8.788 -2.0613  0.9191  1.7625
  829MOL0     H14346  12.166   2.482   8.744 -2.3525  0.3069 -3.6456
  829MOL0     H14347  12.380   2.535   8.553 -0.2540  1.2655  1.3543
  829MOL0     H14348  12.223   2.452   8.522 -0.9423 -2.9393  2.5824
  829MOL0     H14349  12.427   2.365   8.728  0.4892  0.2465 -0.4074
  829MOL0     H14350  12.294   2.263   8.661 -0.3547  1.1181  3.8644
  829MOL0     H14351  12.669   2.291   8.605 -0.7907 -0.1173  0.6801
  829MOL0     H14352  12.822   2.236   8.375 -1.8629  2.3962 -0.0563
  829MOL0     H14353  12.741   2.164   8.240  1.1563 -0.3235 -0.0705
  829MOL0     H14354  12.676   1.990   8.440 -0.9130  0.7530  0.0651
  829MOL0     H14355  12.802   1.961   8.322 -1.4914 -0.0292 -1.7573
  829MOL0     H14356  12.971   2.069   8.478  0.8869 -0.9822 -0.0076
  829MOL0     H14357  12.848   2.080   8.604  1.3152 -1.3434  1.8215
  829MOL0     H14358  12.818   1.840   8.597 -1.4317  3.3934  0.0833
  829MOL0     H14359  12.933   1.824   8.461  0.8269 -0.1200  0.3323
  829MOL0     H14360  13.127   1.714   8.450  0.4062 -0.5194  0.4393
  829MOL0     H14361  13.439   1.629   8.395 -0.5013 -1.4444 -1.2052
  829MOL0     H14362  13.403   1.728   8.257 -0.3613  1.9092  0.9155
  829MOL0     H14363  13.271   1.642   8.326 -2.0048  1.5729  1.9290
  829MOL0     H14364  13.771   2.059   8.365 -1.6533 -0.2933 -1.2237
  829MOL0     H14365  13.993   2.034   8.371 -3.4403  1.1853  1.6784
  829MOL0     H14366  14.320   1.800   8.210  1.1666 -1.4848 -0.7764
  829MOL0     H14367  14.214   1.658   8.225 -0.2455  0.1461 -0.6932
  829MOL0     H14368  14.251   1.739   7.992  1.3894  0.8932  0.0102
  829MOL0     H14369  14.080   1.745   8.039 -0.2861  1.0546 -1.7698
  829MOL0     H14370  14.278   1.977   8.019  0.7863 -1.0566  1.3075
  829MOL0     H14371  14.122   1.979   8.098  2.0722  4.0870  0.4852
  829MOL0     H14372  13.988   1.922   7.932  0.9766 -0.0068  1.1693
  829MOL0     H14373  14.122   1.893   7.812  2.3498  1.7521  0.9463
  829MOL0     H14374  14.050   2.164   7.940  1.1691 -0.8696  0.6924
  829MOL0     H14375  14.192   2.128   7.851  1.6916 -4.4660  5.3436
  829MOL0     H14376  13.930   2.092   7.722  0.8753 -2.8352  1.8959
  829MOL0     H14377  14.103   2.111   7.657  0.9211  3.5467  0.1567
  829MOL0     H14378  13.971   2.319   7.831  1.5334 -2.8824  1.6237
  829MOL0     H14379  13.946   2.329   7.662 -1.5798 -1.8529  1.4685
  829MOL0     H14380  14.237   2.322   7.660  1.4073  2.1245  1.5618
  829MOL0     H14381  14.207   2.360   7.820  0.9742  0.8250 -0.3244
  829MOL0     H14382  13.977   1.611   8.280 -1.2684 -0.8777  2.7925
  829MOL0     H14383  13.737   1.632   8.283 -0.4126  0.9890  1.9774
  829MOL0     H14384  13.443   2.007   8.684 -0.7912  1.2995 -1.1314
  829MOL0     H14385  13.212   1.999   8.757 -0.3414  0.6259 -1.3539
  829MOL0     H14386  11.470   2.901   8.697 -1.6132 -0.2778  2.5027
  829MOL0     H14387  11.235   2.933   8.720 -0.4885 -0.1875  0.5056
  829MOL0     H14388  10.763   2.828   8.793  0.3528 -1.9001 -1.6153
  829MOL0     H14389  10.545   2.907   8.791 -2.9724  0.4514 -2.4303
  829MOL0     H14390  10.334   2.919   8.756  0.6904 -0.0396 -0.5707
  829MOL0     H14391  10.397   3.083   8.786 -0.6854  1.0402 -0.2542
  829MOL0     H14392  10.166   3.049   8.802  1.0891 -0.3765 -0.0726
  829MOL0     H14393  10.144   3.014   8.626  2.2543  0.4435 -2.5811
  829MOL0     H14394  10.242   3.268   8.783 -0.8023 -1.6002  0.2699
  829MOL0     H14395  10.278   3.277   8.619  2.1364 -1.0993  2.0634
  829MOL0     H14396  10.011   3.244   8.582  1.0432 -1.7572  0.3391
  829MOL0     H14397  10.088   3.396   8.601 -0.2809 -0.2684 -0.3654
  829MOL0     H14398   9.838   3.382   8.946  0.2099 -0.7421 -0.1667
  829MOL0     H14399  10.574   3.056   8.401 -2.4578  2.0048  3.5635
  829MOL0     H14400  10.882   2.960   8.317 -0.8492  0.8112 -0.2795
  829MOL0     H14401  10.776   3.104   8.304  0.1442  1.3734  0.1295
  829MOL0     H14402  10.911   3.119   8.405 -2.2350  0.9972  1.7258
  830MOL0     O14403   7.885   5.076   0.180 -0.0532  0.1372  0.0066
  830MOL0     C14404   7.850   4.992   0.265  0.7896 -0.2816  0.9339
  830MOL0     O14405   7.929   4.897   0.311  0.3719 -0.6205 -0.3729
  830MOL0     C14406   8.069   4.906   0.307  0.4244  1.3486 -0.1880
  830MOL0     C14407   8.139   4.835   0.205  0.8230 -0.8978  0.3278
  830MOL0     C14408   8.274   4.848   0.194 -0.4068  0.3408  1.5330
  830MOL0     C14409   8.348   4.903   0.295 -0.6265  0.1991  0.3087
  830MOL0     O14410   8.484   4.874   0.288 -0.8850  0.0446 -0.0828
  830MOL0     C14411   8.576   4.966   0.344  0.3984 -0.0515 -0.3027
  830MOL0     C14412   8.689   4.985   0.242  0.4869  0.8208  0.6764
  830MOL0     C14413   8.768   5.118   0.275  0.4021  0.6618  0.0350
  830MOL0     C14414   8.900   5.137   0.195 -0.0077  0.5277  0.1639
  830MOL0     C14415   8.974   5.252   0.259 -1.2454 -0.3644 -0.6166
  830MOL0     C14416   9.113   5.259   0.185 -0.3898 -0.8317  0.1633
  830MOL0     C14417   9.226   5.335   0.269  0.8805  0.4874 -0.1508
  830MOL0     C14418   9.263   5.470   0.207  0.1374 -0.5804 -0.3815
  830MOL0     N14419   9.403   5.519   0.252  0.1308 -0.3308 -0.9010
  830MOL0     C14420   9.424   5.584   0.366  0.6820  0.0963  0.3602
  830MOL0     C14421   9.562   5.580   0.386  0.6885 -0.3438  0.0634
  830MOL0     C14422   9.617   5.620   0.521 -0.1288 -0.1669  0.7660
  830MOL0     C14423   9.625   5.767   0.536 -0.1232 -0.3794  0.1533
  830MOL0     C14424   9.673   5.811   0.678  0.2749  0.0323  0.5021
  830MOL0     C14425   9.651   5.958   0.699  1.1524  0.4719 -0.2176
  830MOL0     O14426   9.654   6.042   0.581  0.9609  0.0955 -0.5522
  830MOL0     C14427   9.769   6.096   0.530  0.3024  0.2932 -0.1771
  830MOL0     C14428   9.752   6.158   0.410 -0.1947  0.0748  0.6262
  830MOL0     C14429   9.864   6.203   0.338  1.0090 -0.4814 -0.7869
  830MOL0     C14430   9.825   6.264   0.200 -0.9868 -0.0129  0.5309
  830MOL0     C14431   9.992   6.194   0.393  0.9885 -0.1049  0.1885
  830MOL0     C14432  10.108   6.260   0.333  0.1614 -0.6375 -0.1539
  830MOL0     O14433  10.205   6.295   0.423 -0.0653  0.3198 -0.0566
  830MOL0     C14434  10.324   6.343   0.373 -0.0267  1.2913 -0.1242
  830MOL0     C14435  10.405   6.300   0.257  0.9707  0.2147  0.5263
  830MOL0     C14436  10.516   6.374   0.212 -0.3256  0.1768 -0.5180
  830MOL0     C14437  10.574   6.479   0.291 -0.8113  0.7253  0.4154
  830MOL0     O14438  10.697   6.536   0.265 -0.4062 -0.3511 -0.7359
  830MOL0     C14439  10.770   6.491   0.150 -0.0074  0.4116 -0.3358
  830MOL0     C14440  10.901   6.556   0.147  0.2594 -0.1354 -0.4397
  830MOL0     C14441  11.000   6.496   0.245  1.1076  0.3814  0.2426
  830MOL0     C14442  11.119   6.579   0.268 -0.0969 -0.0967 -0.4239
  830MOL0     C14443  11.241   6.500   0.322  0.4733  0.4720 -0.0066
  830MOL0     C14444  11.370   6.581   0.317  0.3632 -0.0633  0.7915
  830MOL0     C14445  11.479   6.521   0.412 -0.5381 -0.0312  0.2346
  830MOL0     C14446  11.504   6.371   0.380  0.0898  0.1398 -0.2885
  830MOL0    Cl14447  11.566   6.329   0.207 -0.0834  0.0224  0.2230
  830MOL0     C14448  10.495   6.518   0.400 -0.5582 -0.6652 -0.1783
  830MOL0     C14449  10.377   6.456   0.438 -0.6840  0.7660 -0.2619
  830MOL0     O14450  10.119   6.263   0.209  0.2169  0.1722 -0.1203
  830MOL0     C14451  10.000   6.140   0.522  0.3663 -0.3532 -0.1303
  830MOL0     C14452   9.893   6.086   0.588  0.3384  0.4155 -0.3216
  830MOL0     N14453   9.611   5.501   0.284 -0.3527  0.3008 -0.8835
  830MOL0     N14454   9.517   5.464   0.198 -0.5311 -0.5207 -0.7618
  830MOL0     C14455   8.278   4.964   0.408 -0.3488 -0.2560  0.1937
  830MOL0     C14456   8.136   4.969   0.402 -0.3554  0.0987 -0.2216
  830MOL0     C14457   7.699   5.001   0.299 -0.6252  0.2042  0.4033
  830MOL0     C14458   7.627   5.114   0.269  0.0933 -0.0202 -0.5720
  830MOL0     C14459   7.494   5.123   0.278 -0.6974 -0.3117 -0.2271
  830MOL0     C14460   7.421   5.019   0.333  0.2607  0.1665 -0.0077
  830MOL0     O14461   7.287   5.036   0.330 -0.3813 -0.3251 -0.5893
  830MOL0     C14462   7.206   4.944   0.405  0.2308 -0.2075  0.2183
  830MOL0     C14463   7.064   4.974   0.364  0.5713 -0.1597 -0.9956
  830MOL0     C14464   7.027   4.906   0.229  0.0853 -0.1396 -0.1973
  830MOL0     C14465   6.874   4.893   0.216 -0.3409 -0.2661  0.4234
  830MOL0     C14466   6.811   4.776   0.288  0.9089 -0.1693  0.1832
  830MOL0     C14467   6.763   4.677   0.349  0.3626 -0.2796 -0.3149
  830MOL0     C14468   7.489   4.899   0.368  1.0381 -0.7304 -0.1647
  830MOL0     C14469   7.624   4.891   0.342  0.3194  0.9186 -0.9638
  830MOL0     C14470   7.691   4.759   0.380  0.1551  0.0251 -0.0025
  830MOL0     H14471   8.088   4.776   0.129 -0.6602  0.2980  0.3560
  830MOL0     H14472   8.324   4.805   0.108  0.3202  1.3250  1.4460
  830MOL0     H14473   8.604   4.927   0.442  0.5120 -2.9786 -1.3886
  830MOL0     H14474   8.520   5.059   0.353 -3.3563 -1.8272 -2.5355
  830MOL0     H14475   8.754   4.897   0.245  0.0578  0.4225 -1.0314
  830MOL0     H14476   8.642   4.998   0.145  3.3989  1.2009 -0.7859
  830MOL0     H14477   8.714   5.212   0.262 -0.7783  0.5750  3.4408
  830MOL0     H14478   8.804   5.104   0.377 -0.2676  2.1502  0.5022
  830MOL0     H14479   8.960   5.045   0.192  2.9944  2.3636 -2.1515
  830MOL0     H14480   8.888   5.153   0.087  0.2516 -1.7262 -0.2644
  830MOL0     H14481   8.981   5.239   0.367  0.5011  0.6323 -0.5595
  830MOL0     H14482   8.921   5.348   0.250 -0.5184  0.3125  1.5893
  830MOL0     H14483   9.155   5.160   0.166  3.1899  0.2399  1.6464
  830MOL0     H14484   9.086   5.312   0.093 -2.5942  1.8323  2.1962
  830MOL0     H14485   9.309   5.263   0.263  0.1688 -0.2404 -3.0420
  830MOL0     H14486   9.197   5.348   0.373  0.4336  0.3612 -0.2589
  830MOL0     H14487   9.266   5.461   0.099 -1.9010  0.2476 -0.5611
  830MOL0     H14488   9.187   5.544   0.233 -0.6550 -0.7454 -2.1133
  830MOL0     H14489   9.341   5.618   0.426 -0.6620 -1.3857 -0.5587
  830MOL0     H14490   9.717   5.576   0.528 -0.6965 -1.9083 -1.0773
  830MOL0     H14491   9.554   5.586   0.604  0.1793 -0.9349  0.6908
  830MOL0     H14492   9.695   5.804   0.461  1.4118 -3.0860  0.1042
  830MOL0     H14493   9.527   5.808   0.512  0.2607  0.5679  0.1905
  830MOL0     H14494   9.637   5.751   0.762 -0.2825 -0.0343  0.2169
  830MOL0     H14495   9.782   5.812   0.686  0.1753 -1.0991  2.9697
  830MOL0     H14496   9.548   5.972   0.734  0.6899  1.3987 -1.8494
  830MOL0     H14497   9.710   5.994   0.784 -1.0613  2.1658  0.7073
  830MOL0     H14498   9.654   6.172   0.365 -0.9423  0.7753  2.3670
  830MOL0     H14499   9.895   6.245   0.119 -1.6370 -0.8990  0.1559
  830MOL0     H14500   9.819   6.372   0.214 -1.7777 -0.0995  0.9596
  830MOL0     H14501   9.730   6.225   0.162  0.6311 -1.0461 -2.8374
  830MOL0     H14502  10.373   6.214   0.199 -0.5651  0.7884  0.4830
  830MOL0     H14503  10.552   6.334   0.118  1.5350  1.9180 -0.6205
  830MOL0     H14504  10.789   6.384   0.165  2.3012  0.9413  1.0046
  830MOL0     H14505  10.714   6.517   0.060 -1.3832 -1.8617 -0.2310
  830MOL0     H14506  10.947   6.548   0.048  1.2990  2.0737 -0.1989
  830MOL0     H14507  10.891   6.660   0.179  0.5562 -0.6129  1.3161
  830MOL0     H14508  11.022   6.397   0.202  0.8327  0.1871  0.5427
  830MOL0     H14509  10.946   6.479   0.339  1.7184 -1.7720  0.2650
  830MOL0     H14510  11.105   6.664   0.335  2.0363  2.2449 -2.7358
  830MOL0     H14511  11.153   6.620   0.173  0.7568 -0.6988 -0.3888
  830MOL0     H14512  11.218   6.463   0.422 -1.1529  0.3969 -0.3814
  830MOL0     H14513  11.254   6.417   0.253 -2.5567  1.9798 -2.6784
  830MOL0     H14514  11.347   6.684   0.344 -2.9391 -0.5513  0.1862
  830MOL0     H14515  11.408   6.593   0.215  0.3634  0.8036  0.8861
  830MOL0     H14516  11.434   6.525   0.511  1.9820  0.5667  1.4572
  830MOL0     H14517  11.575   6.575   0.406 -0.9242  0.5302 -1.9349
  830MOL0     H14518  11.418   6.306   0.402 -0.8990  1.8197  1.1360
  830MOL0     H14519  11.576   6.340   0.456  1.0880  1.2017 -0.7880
  830MOL0     H14520  10.524   6.607   0.456  1.2260 -1.3031 -0.0089
  830MOL0     H14521  10.327   6.494   0.526  0.2820 -3.0667  2.1797
  830MOL0     H14522  10.098   6.148   0.569  0.0025  3.6868  0.2887
  830MOL0     H14523   9.898   6.035   0.683  1.9271  1.3580  0.1454
  830MOL0     H14524   8.341   5.022   0.474  1.0069 -1.0135 -0.3949
  830MOL0     H14525   8.081   5.026   0.475  4.1386  1.3691  2.5847
  830MOL0     H14526   7.684   5.203   0.244  0.6481 -0.8364 -2.3513
  830MOL0     H14527   7.448   5.217   0.250 -1.7217 -0.5651  0.5778
  830MOL0     H14528   7.230   4.838   0.391 -0.7189 -0.5839  1.2916
  830MOL0     H14529   7.221   4.958   0.513 -0.5432 -0.7314  0.4033
  830MOL0     H14530   7.032   5.078   0.373  3.3429  0.7182 -0.0894
  830MOL0     H14531   6.996   4.924   0.433  2.0247 -0.1577  0.5005
  830MOL0     H14532   7.047   4.969   0.142 -4.3545 -0.3850 -1.6464
  830MOL0     H14533   7.074   4.808   0.217 -0.3841 -0.5939  1.4164
  830MOL0     H14534   6.854   4.880   0.109  0.1784 -1.6226  0.4705
  830MOL0     H14535   6.813   4.981   0.239 -4.1898 -2.3593 -1.0609
  830MOL0     H14536   6.717   4.595   0.400 -0.9487 -0.4038 -1.6155
  830MOL0     H14537   7.431   4.820   0.414 -1.7309  3.1057  3.7988
  830MOL0     H14538   7.737   4.774   0.479 -0.6583  1.4892  0.1798
  830MOL0     H14539   7.618   4.677   0.379  0.8915 -0.6444 -0.3268
  830MOL0     H14540   7.764   4.723   0.307  1.0393 -1.9408  1.7093
  831MOL0     O14541   2.316   4.237   2.432 -0.1242 -0.3002 -0.2627
  831MOL0     C14542   2.355   4.163   2.521 -0.0121  0.2961  0.5617
  831MOL0     O14543   2.481   4.124   2.548 -1.0426 -0.2439  0.6952
  831MOL0     C14544   2.589   4.191   2.494 -0.1334  0.3864  0.3232
  831MOL0     C14545   2.605   4.225   2.356 -0.3185  0.4866  0.6269
  831MOL0     C14546   2.716   4.291   2.312 -0.5180  0.1433  0.3842
  831MOL0     C14547   2.817   4.328   2.400 -0.3077  0.5408 -0.0093
  831MOL0     O14548   2.928   4.409   2.359 -0.1002  0.5054 -0.2396
  831MOL0     C14549   2.943   4.455   2.221  0.4320  0.7073  0.1680
  831MOL0     C14550   3.070   4.538   2.202 -0.3861  0.7682 -0.4610
  831MOL0     C14551   3.199   4.455   2.159  0.6862 -0.5287  0.0832
  831MOL0     C14552   3.185   4.400   2.021 -0.3851  0.3298  0.2911
  831MOL0     C14553   3.302   4.300   2.000 -0.1501 -0.1882 -0.0633
  831MOL0     C14554   3.296   4.214   1.870 -0.3678  0.0309 -0.1726
  831MOL0     C14555   3.328   4.294   1.744  0.6519  0.6425 -0.0969
  831MOL0     C14556   3.298   4.206   1.620 -0.4902 -0.2931  0.4247
  831MOL0     N14557   3.320   4.294   1.504  0.0288  0.0233  0.0190
  831MOL0     C14558   3.417   4.281   1.414 -0.0681  0.5091 -1.0229
  831MOL0     C14559   3.396   4.382   1.326 -0.5544 -0.1361  0.4328
  831MOL0     C14560   3.488   4.420   1.216  0.0421 -0.0327  0.5559
  831MOL0     C14561   3.606   4.502   1.273 -0.5915  0.3854 -0.1908
  831MOL0     C14562   3.721   4.416   1.320 -0.1203  0.4103 -0.8072
  831MOL0     C14563   3.858   4.489   1.323  0.5923 -0.8166  0.5850
  831MOL0     O14564   3.893   4.525   1.190  0.3217  0.4958 -0.2760
  831MOL0     C14565   4.015   4.512   1.142 -0.7554 -0.2140  0.9022
  831MOL0     C14566   4.029   4.570   1.021 -0.1312  0.1223  0.1879
  831MOL0     C14567   4.153   4.574   0.957  0.5867 -0.4068 -0.1611
  831MOL0     C14568   4.166   4.624   0.815  0.3626  0.1664  0.1421
  831MOL0     C14569   4.269   4.525   1.022 -0.3659  0.2934 -0.2520
  831MOL0     C14570   4.413   4.526   0.964 -0.0918  0.5711  0.3591
  831MOL0     O14571   4.485   4.417   1.000  0.2806 -0.4485 -0.2856
  831MOL0     C14572   4.617   4.408   0.966 -0.0855  0.0303  0.0004
  831MOL0     C14573   4.651   4.406   0.831 -0.1480 -0.0502 -0.5825
  831MOL0     C14574   4.782   4.392   0.790 -0.9727 -0.0069 -0.4505
  831MOL0     C14575   4.884   4.387   0.876 -1.0224 -0.4820 -0.3534
  831MOL0     O14576   5.006   4.386   0.823 -0.8482  0.8243 -0.2266
  831MOL0     C14577   5.094   4.285   0.880  0.4822 -0.2478 -0.4795
  831MOL0     C14578   5.218   4.261   0.795  0.5011 -0.4520 -0.2791
  831MOL0     C14579   5.325   4.187   0.861 -0.8828 -0.0038 -0.0507
  831MOL0     C14580   5.302   4.037   0.852  0.5238 -0.8012  0.1908
  831MOL0     C14581   5.342   3.986   0.714 -0.5015  0.3010 -0.0419
  831MOL0     C14582   5.277   3.863   0.668  0.0223 -0.1063 -0.3079
  831MOL0     C14583   5.136   3.890   0.597 -0.5424 -0.0654 -0.9150
  831MOL0     C14584   5.074   3.754   0.559 -0.4425 -0.8151  0.9773
  831MOL0    Cl14585   5.029   3.650   0.694 -0.4298 -0.5376  0.1387
  831MOL0     C14586   4.850   4.387   1.011 -0.5673 -0.2323 -0.2611
  831MOL0     C14587   4.724   4.406   1.056  0.2318  1.2658 -0.1410
  831MOL0     O14588   4.455   4.616   0.900 -0.1470  0.3387  0.0043
  831MOL0     C14589   4.256   4.466   1.148  0.1467  0.2440 -0.6113
  831MOL0     C14590   4.134   4.478   1.213 -0.4687 -0.1560  0.1304
  831MOL0     N14591   3.276   4.442   1.352  0.3217 -0.4173  0.6233
  831MOL0     N14592   3.229   4.386   1.456  0.6509  0.1559 -0.0713
  831MOL0     C14593   2.797   4.311   2.539 -0.8793 -0.2347 -0.4670
  831MOL0     C14594   2.682   4.246   2.581 -0.5204  0.3638  0.4475
  831MOL0     C14595   2.254   4.087   2.597 -0.1955  0.7143 -0.4613
  831MOL0     C14596   2.267   3.946   2.596  0.1686 -0.4506 -0.3962
  831MOL0     C14597   2.172   3.871   2.658  0.5316 -0.2434 -0.5706
  831MOL0     C14598   2.057   3.929   2.724 -0.1696 -0.2081  0.5706
  831MOL0     O14599   1.959   3.837   2.772 -0.2679  0.2786  1.1797
  831MOL0     C14600   1.841   3.890   2.841 -0.0244 -0.4596  0.0566
  831MOL0     C14601   1.740   3.783   2.886  0.0464 -0.9683 -0.3189
  831MOL0     C14602   1.629   3.867   2.956  0.9391  0.2421 -0.5719
  831MOL0     C14603   1.513   3.775   2.998 -0.4149 -0.2238  0.0271
  831MOL0     C14604   1.416   3.728   2.900  0.0234  0.4292 -0.4738
  831MOL0     C14605   1.322   3.710   2.827  0.1646 -0.2420 -0.3816
  831MOL0     C14606   2.046   4.066   2.725  0.2117 -0.4384  0.4876
  831MOL0     C14607   2.135   4.146   2.650 -0.0322  0.4011  0.3256
  831MOL0     C14608   2.113   4.291   2.659 -0.3400 -0.0535  0.3602
  831MOL0     H14609   2.526   4.194   2.288 -2.3910  1.3958  2.4503
  831MOL0     H14610   2.726   4.322   2.208  2.0051  0.3445  0.6113
  831MOL0     H14611   2.857   4.518   2.197  0.7417  2.5514  3.3971
  831MOL0     H14612   2.948   4.372   2.149  1.2372  0.2956  0.6796
  831MOL0     H14613   3.038   4.624   2.144 -3.7154 -0.3318 -0.4693
  831MOL0     H14614   3.087   4.579   2.302 -3.3768  0.0122  0.4838
  831MOL0     H14615   3.275   4.531   2.176  0.5951 -0.2864 -0.5818
  831MOL0     H14616   3.211   4.376   2.234 -1.3430 -0.9675  0.0109
  831MOL0     H14617   3.103   4.328   2.025 -0.1112  0.0885  2.1978
  831MOL0     H14618   3.181   4.474   1.940  0.1762 -2.2346 -2.2617
  831MOL0     H14619   3.311   4.225   2.079  0.5660 -1.9095 -1.7029
  831MOL0     H14620   3.400   4.348   1.991 -0.2092 -0.4434 -2.8946
  831MOL0     H14621   3.377   4.142   1.882  1.2794  1.7869 -0.1766
  831MOL0     H14622   3.197   4.170   1.857 -0.2586 -2.4442  4.9453
  831MOL0     H14623   3.429   4.334   1.734  0.3037  1.8869  1.0590
  831MOL0     H14624   3.260   4.380   1.743  0.8524  0.8113 -1.7083
  831MOL0     H14625   3.383   4.137   1.624  1.3973  1.9635  2.1622
  831MOL0     H14626   3.200   4.158   1.627  0.1025 -1.3366  2.5733
  831MOL0     H14627   3.508   4.222   1.419 -0.1725  0.4449  0.7574
  831MOL0     H14628   3.448   4.497   1.150  1.4937  0.5612  0.3408
  831MOL0     H14629   3.530   4.336   1.159  3.1850  3.1278 -2.2547
  831MOL0     H14630   3.640   4.553   1.183 -5.4300  0.2109 -2.3862
  831MOL0     H14631   3.591   4.581   1.348  1.5435 -0.1238  0.8649
  831MOL0     H14632   3.699   4.389   1.424 -2.0792  0.4462 -1.1691
  831MOL0     H14633   3.731   4.318   1.272 -0.7475  0.7674 -1.7041
  831MOL0     H14634   3.849   4.578   1.385 -2.5117 -1.7094  1.6180
  831MOL0     H14635   3.925   4.422   1.376  1.2522  0.2690  1.1576
  831MOL0     H14636   3.947   4.615   0.964 -0.5419 -2.6330 -1.5759
  831MOL0     H14637   4.068   4.613   0.767  0.2023  2.3722 -0.1480
  831MOL0     H14638   4.239   4.574   0.751  0.4180  1.8279 -1.1595
  831MOL0     H14639   4.184   4.732   0.807 -1.5030  0.3541 -2.8544
  831MOL0     H14640   4.573   4.418   0.756  0.4670  0.2455 -1.1889
  831MOL0     H14641   4.798   4.389   0.683 -0.7962  0.6971 -0.4481
  831MOL0     H14642   5.135   4.322   0.974  1.1233 -0.1230 -0.7985
  831MOL0     H14643   5.030   4.198   0.897 -2.0861  1.2815 -1.6225
  831MOL0     H14644   5.184   4.205   0.708 -0.1523  0.1735 -0.4345
  831MOL0     H14645   5.254   4.362   0.773 -0.8467 -0.2863 -1.9351
  831MOL0     H14646   5.337   4.214   0.966  1.9453 -1.3831  0.0921
  831MOL0     H14647   5.421   4.219   0.819 -0.2276 -1.6992  0.0873
  831MOL0     H14648   5.199   4.015   0.883  1.6316 -0.3421  4.8529
  831MOL0     H14649   5.374   3.983   0.913  1.6115 -3.3008 -3.0106
  831MOL0     H14650   5.333   4.058   0.632 -1.1696 -1.7654 -1.8687
  831MOL0     H14651   5.448   3.962   0.723 -0.2299  0.6458 -1.8702
  831MOL0     H14652   5.266   3.792   0.750 -0.9383  0.6291  0.2131
  831MOL0     H14653   5.343   3.815   0.594  1.5559 -0.1585  1.0361
  831MOL0     H14654   5.145   3.960   0.514 -1.3154  0.5159 -0.5164
  831MOL0     H14655   5.062   3.935   0.664  0.2277  0.1257 -0.1696
  831MOL0     H14656   5.136   3.696   0.490 -0.4459  0.6585 -0.3132
  831MOL0     H14657   4.978   3.783   0.515  0.0202 -0.3981  0.2221
  831MOL0     H14658   4.936   4.376   1.077 -0.3122 -0.8661 -0.6817
  831MOL0     H14659   4.708   4.423   1.162  1.4492 -1.7703  0.6168
  831MOL0     H14660   4.339   4.431   1.207  2.6610  4.1523 -1.4712
  831MOL0     H14661   4.127   4.452   1.318  0.4336  0.7712  0.4383
  831MOL0     H14662   2.876   4.351   2.601 -0.9794 -0.9532  0.1263
  831MOL0     H14663   2.663   4.221   2.685  0.8466 -0.0064  0.6261
  831MOL0     H14664   2.355   3.897   2.556 -0.2293 -1.2086 -0.3608
  831MOL0     H14665   2.191   3.764   2.661  2.3459  0.0639 -0.1764
  831MOL0     H14666   1.871   3.943   2.932 -0.0937 -0.9809  0.3866
  831MOL0     H14667   1.803   3.964   2.769  4.0720  2.4438  0.5268
  831MOL0     H14668   1.784   3.717   2.961  1.9193 -0.9405 -1.3313
  831MOL0     H14669   1.688   3.725   2.809 -2.6989  0.5048  0.2553
  831MOL0     H14670   1.665   3.899   3.054  0.6547  1.1238 -0.7472
  831MOL0     H14671   1.589   3.951   2.898  1.1925  1.9812  1.6389
  831MOL0     H14672   1.457   3.831   3.074 -0.5899  1.3106 -1.1834
  831MOL0     H14673   1.551   3.681   3.040  2.9324  1.1250  0.3197
  831MOL0     H14674   1.237   3.681   2.767 -2.1657  2.2647  1.4592
  831MOL0     H14675   1.959   4.109   2.772  0.4780  0.2146  0.3998
  831MOL0     H14676   2.094   4.325   2.556 -1.7620 -3.0250 -0.4672
  831MOL0     H14677   2.031   4.312   2.729  0.6276  1.2672  1.1326
  831MOL0     H14678   2.198   4.342   2.706 -0.7997 -0.6542  1.8830
  832MOL0     O14679   8.496  10.433   5.062 -0.0513  0.8136 -0.6446
  832MOL0     C14680   8.424  10.362   4.992  0.0876  0.9925  0.2966
  832MOL0     O14681   8.476  10.275   4.903  0.2822 -0.4068  0.1136
  832MOL0     C14682   8.609  10.239   4.898 -0.2934  0.8963 -0.6351
  832MOL0     C14683   8.671  10.205   5.010 -0.7521  0.5328 -0.2898
  832MOL0     C14684   8.807  10.169   5.005 -0.7932  0.0247 -0.5584
  832MOL0     C14685   8.877  10.153   4.884 -0.3166  0.0264 -0.6321
  832MOL0     O14686   9.016  10.116   4.901  0.6722 -1.0843  0.6154
  832MOL0     C14687   9.096  10.130   4.791 -0.1079  0.0882 -0.2360
  832MOL0     C14688   9.069  10.030   4.674  0.4477 -0.2966 -0.0789
  832MOL0     C14689   9.197   9.984   4.605  0.2147  0.0270 -0.5414
  832MOL0     C14690   9.284  10.110   4.568 -0.3960 -0.2441  0.1356
  832MOL0     C14691   9.398  10.073   4.470 -0.5791 -0.7602  0.0497
  832MOL0     C14692   9.456  10.210   4.421 -0.1727  0.8171  0.6134
  832MOL0     C14693   9.539  10.198   4.293  0.1824  0.6090 -0.4063
  832MOL0     C14694   9.690  10.183   4.318 -0.4272  0.0412 -0.2315
  832MOL0     N14695   9.759  10.128   4.201 -0.0948  0.0028  0.3725
  832MOL0     C14696   9.852  10.021   4.207  0.2738 -0.4580 -0.3731
  832MOL0     C14697   9.886   9.995   4.076  0.4182  0.2923 -1.4349
  832MOL0     C14698   9.990   9.893   4.040  0.3484 -0.1840 -0.5713
  832MOL0     C14699  10.118   9.970   3.993 -0.9172 -0.2171 -0.7115
  832MOL0     C14700  10.175  10.065   4.097 -0.4254  0.0171  0.3853
  832MOL0     C14701  10.280  10.157   4.037  0.1254 -0.0169 -0.2349
  832MOL0     O14702  10.371  10.086   3.950 -0.0225 -0.4418  0.8607
  832MOL0     C14703  10.486  10.155   3.919  0.5580 -0.9911 -0.6444
  832MOL0     C14704  10.505  10.300   3.926  0.5175 -0.4732 -0.2804
  832MOL0     C14705  10.627  10.357   3.875  0.1494 -0.2021 -0.8766
  832MOL0     C14706  10.639  10.511   3.875  0.8961 -0.5042 -0.0816
  832MOL0     C14707  10.729  10.282   3.815 -1.0395  0.2441 -0.0655
  832MOL0     C14708  10.855  10.343   3.776  0.8942  1.0006 -0.4451
  832MOL0     O14709  10.961  10.267   3.785 -0.8005 -0.2364  0.3241
  832MOL0     C14710  11.088  10.309   3.743  0.0831 -0.1244 -0.4633
  832MOL0     C14711  11.122  10.391   3.640 -0.5540 -0.1671  0.2161
  832MOL0     C14712  11.250  10.408   3.607 -0.1810 -1.1323 -0.0023
  832MOL0     C14713  11.357  10.328   3.655  0.0296 -0.2849 -0.2817
  832MOL0     O14714  11.493  10.343   3.619 -0.0869  0.0550 -0.1976
  832MOL0     C14715  11.521  10.410   3.495 -0.3997  0.0836 -0.3965
  832MOL0     C14716  11.669  10.377   3.445  0.2216 -0.2448 -0.2185
  832MOL0     C14717  11.762  10.424   3.560 -0.4284  0.2828  0.3988
  832MOL0     C14718  11.912  10.426   3.519 -0.3788 -0.0556  0.1053
  832MOL0     C14719  12.017  10.473   3.624 -0.6551  0.3697 -0.2167
  832MOL0     C14720  12.168  10.421   3.611  0.3544 -0.4403  0.5923
  832MOL0     C14721  12.262  10.492   3.708 -0.5761  0.1100  0.0551
  832MOL0     C14722  12.407  10.459   3.706 -0.2526  0.0673  0.7706
  832MOL0    Cl14723  12.481  10.518   3.559 -0.1342  0.7925 -0.3588
  832MOL0     C14724  11.327  10.241   3.755 -0.7146 -0.0954  0.7825
  832MOL0     C14725  11.194  10.233   3.798  0.9690 -0.1963  1.0385
  832MOL0     O14726  10.847  10.446   3.718  0.2875 -0.0957  0.0081
  832MOL0     C14727  10.707  10.144   3.798  1.0292 -0.2444  0.5253
  832MOL0     C14728  10.585  10.082   3.847  0.3364  0.1170 -0.4188
  832MOL0     N14729   9.818  10.088   3.999 -0.2125  0.2990 -0.6932
  832MOL0     N14730   9.745  10.160   4.067 -0.1678  0.0966  0.4741
  832MOL0     C14731   8.807  10.198   4.771 -0.0693 -0.5561 -0.2078
  832MOL0     C14732   8.674  10.234   4.774 -0.3076 -0.6996  0.6691
  832MOL0     C14733   8.281  10.359   5.024  0.3768 -1.1806 -0.9348
  832MOL0     C14734   8.222  10.233   5.021 -0.2086  0.7724  0.6529
  832MOL0     C14735   8.086  10.222   5.040  0.2114  0.9986  0.6255
  832MOL0     C14736   8.013  10.327   5.089 -0.0202 -1.3696 -0.6047
  832MOL0     O14737   7.885  10.303   5.125  0.0060 -0.1412 -0.1133
  832MOL0     C14738   7.786  10.404   5.142 -0.1693  0.5641  1.1456
  832MOL0     C14739   7.748  10.471   5.013 -0.2023 -0.1900  0.7780
  832MOL0     C14740   7.713  10.383   4.888 -0.2480  0.5597 -0.2987
  832MOL0     C14741   7.624  10.449   4.778 -0.4908  0.2229  0.4671
  832MOL0     C14742   7.714  10.547   4.702 -0.1154  0.7269 -0.1997
  832MOL0     C14743   7.777  10.622   4.639  1.0724 -0.1223  0.6183
  832MOL0     C14744   8.074  10.451   5.093 -0.3788 -0.2697  0.0174
  832MOL0     C14745   8.204  10.473   5.056 -0.9117  0.6523 -1.0290
  832MOL0     C14746   8.264  10.609   5.049  0.1702 -0.0799  0.5743
  832MOL0     H14747   8.622  10.192   5.106  0.3626  2.5894  0.6378
  832MOL0     H14748   8.855  10.130   5.094  1.4426 -0.3211 -1.8376
  832MOL0     H14749   9.198  10.125   4.831 -0.6143 -0.8698  0.9909
  832MOL0     H14750   9.085  10.230   4.748 -0.0968 -0.0874 -0.6596
  832MOL0     H14751   9.029   9.935   4.710  0.3647 -0.2102  0.0549
  832MOL0     H14752   8.994  10.074   4.609 -1.9321 -2.3207  1.1267
  832MOL0     H14753   9.250   9.915   4.671  0.9069  2.1643  1.2564
  832MOL0     H14754   9.173   9.922   4.518 -0.2935 -1.6819  0.7420
  832MOL0     H14755   9.222  10.191   4.527  0.0156  0.9072  1.7038
  832MOL0     H14756   9.339  10.163   4.647  2.8997 -1.0097 -1.4524
  832MOL0     H14757   9.355  10.027   4.381 -1.0275 -0.0449 -0.1157
  832MOL0     H14758   9.468  10.005   4.517  0.3697  0.4439  0.4381
  832MOL0     H14759   9.371  10.270   4.389 -0.9169  0.1287  1.2586
  832MOL0     H14760   9.509  10.260   4.503  1.8341 -1.8625  1.1264
  832MOL0     H14761   9.520  10.287   4.232 -0.2626  1.1316  0.4706
  832MOL0     H14762   9.508  10.109   4.238 -0.7000 -0.0895  1.1356
  832MOL0     H14763   9.741  10.273   4.355  2.3656 -2.3040  2.1190
  832MOL0     H14764   9.702  10.111   4.400 -0.9807  1.7872  1.4798
  832MOL0     H14765   9.883   9.971   4.299  2.8661 -2.7452 -2.3221
  832MOL0     H14766   9.947   9.822   3.969 -0.6205 -0.6134  0.4210
  832MOL0     H14767  10.016   9.833   4.127 -2.3999 -4.2898 -2.2481
  832MOL0     H14768  10.194   9.894   3.968 -0.0951 -0.4975  2.2402
  832MOL0     H14769  10.094  10.033   3.907 -1.7204  1.4562  0.6956
  832MOL0     H14770  10.108  10.135   4.147 -0.4470  0.3717 -0.1283
  832MOL0     H14771  10.228  10.015   4.178  1.8895  2.3973  0.4914
  832MOL0     H14772  10.247  10.245   3.982 -3.2761 -1.6897 -1.1452
  832MOL0     H14773  10.335  10.204   4.119  1.8838 -1.5919 -0.4277
  832MOL0     H14774  10.420  10.360   3.957 -0.2510 -1.5945 -0.1380
  832MOL0     H14775  10.561  10.557   3.936  1.5064  0.4557 -0.0046
  832MOL0     H14776  10.620  10.552   3.775 -1.5886 -3.3766 -0.9471
  832MOL0     H14777  10.732  10.549   3.918  0.4283 -0.0104  0.5200
  832MOL0     H14778  11.039  10.447   3.596 -1.6875 -2.6239 -0.9824
  832MOL0     H14779  11.272  10.482   3.530 -0.8790 -1.7638 -0.8298
  832MOL0     H14780  11.449  10.380   3.419  0.5173  2.5282 -2.3497
  832MOL0     H14781  11.521  10.518   3.515  1.2234  0.6451 -2.9342
  832MOL0     H14782  11.661  10.269   3.430 -0.7802 -0.0927 -0.8982
  832MOL0     H14783  11.687  10.426   3.348 -1.9105 -1.4011 -1.2570
  832MOL0     H14784  11.733  10.376   3.654  2.7114 -0.7916  0.9126
  832MOL0     H14785  11.727  10.527   3.576 -0.7144  0.9339 -3.4534
  832MOL0     H14786  11.920  10.492   3.433 -2.3894  1.1885  0.8160
  832MOL0     H14787  11.941  10.324   3.490 -1.2607 -0.5827  0.9978
  832MOL0     H14788  12.010  10.582   3.635 -0.8839  0.1980  1.6102
  832MOL0     H14789  11.985  10.434   3.721  0.5725  1.5402  0.7076
  832MOL0     H14790  12.210  10.435   3.511 -3.3593 -2.1067 -1.4153
  832MOL0     H14791  12.165  10.313   3.631 -2.8365 -0.4409  0.6559
  832MOL0     H14792  12.237  10.460   3.810  1.5656 -0.1256  0.5455
  832MOL0     H14793  12.247  10.600   3.697  0.0371  0.2250  0.3392
  832MOL0     H14794  12.422  10.350   3.704 -0.5207  0.0264 -1.1483
  832MOL0     H14795  12.465  10.504   3.787  0.5295  0.2865  0.1046
  832MOL0     H14796  11.404  10.191   3.813 -1.2981 -1.2699  0.5688
  832MOL0     H14797  11.186  10.164   3.881  2.0996 -1.7399 -0.0888
  832MOL0     H14798  10.772  10.078   3.741 -2.0932 -1.1089 -2.3974
  832MOL0     H14799  10.569   9.975   3.836 -1.9336  0.1875  1.3872
  832MOL0     H14800   8.867  10.195   4.680  1.4620 -0.5960  0.7712
  832MOL0     H14801   8.612  10.259   4.689 -0.5420  0.1845  1.0806
  832MOL0     H14802   8.286  10.155   4.980 -0.1105  1.8110 -1.2833
  832MOL0     H14803   8.019  10.137   5.030 -1.2594  2.1376  0.5004
  832MOL0     H14804   7.696  10.356   5.183 -0.4741 -0.7845 -0.9483
  832MOL0     H14805   7.821  10.480   5.212 -0.4510 -0.7937  2.8322
  832MOL0     H14806   7.838  10.529   4.991 -0.7411  1.1047  1.8659
  832MOL0     H14807   7.664  10.537   5.034 -0.4130 -0.0946 -0.3187
  832MOL0     H14808   7.808  10.360   4.838  0.6492  0.0629  1.5498
  832MOL0     H14809   7.657  10.294   4.918 -1.6103 -0.3313 -4.6767
  832MOL0     H14810   7.545  10.507   4.827 -0.6156  1.0730 -0.7186
  832MOL0     H14811   7.585  10.367   4.717  1.2194  0.2689 -0.7645
  832MOL0     H14812   7.836  10.688   4.578 -1.4128  1.6654 -0.0203
  832MOL0     H14813   8.020  10.543   5.114  0.6196  0.8057 -1.8898
  832MOL0     H14814   8.319  10.625   4.956  0.2799 -0.3749  0.5884
  832MOL0     H14815   8.188  10.686   5.067  2.0983  2.4689 -1.3939
  832MOL0     H14816   8.343  10.614   5.124 -0.0295 -0.7446  0.8332
  833MOL0     O14817   3.017   4.474   6.981 -0.1064 -0.3475  0.5027
  833MOL0     C14818   3.084   4.443   7.078 -0.2852 -0.1408  0.3744
  833MOL0     O14819   3.064   4.321   7.151 -1.0898 -0.6194  0.2658
  833MOL0     C14820   2.958   4.251   7.114  0.2395 -0.1261  0.2383
  833MOL0     C14821   2.828   4.297   7.149  0.2172  0.4121 -0.4515
  833MOL0     C14822   2.718   4.213   7.126 -0.3095 -0.5521 -0.3379
  833MOL0     C14823   2.729   4.084   7.066  1.0052  0.5845 -0.7612
  833MOL0     O14824   2.613   4.003   7.055 -0.1339  0.3204  0.6656
  833MOL0     C14825   2.629   3.865   7.018  0.0676 -0.7863  0.1156
  833MOL0     C14826   2.659   3.849   6.871  0.4700  0.6431  0.3590
  833MOL0     C14827   2.719   3.706   6.851  0.2490 -0.4268  0.0228
  833MOL0     C14828   2.720   3.685   6.701 -0.6057 -0.0071 -0.8870
  833MOL0     C14829   2.745   3.541   6.669 -0.1578  0.8710 -0.1778
  833MOL0     C14830   2.750   3.515   6.516 -0.4761  0.4184 -0.4063
  833MOL0     C14831   2.867   3.564   6.443 -0.5964  0.7768  0.8762
  833MOL0     C14832   2.872   3.517   6.294  0.4117 -0.3447 -0.0603
  833MOL0     N14833   2.973   3.595   6.222 -0.4345 -0.5070 -0.2185
  833MOL0     C14834   2.995   3.730   6.235  0.0743 -0.8439  0.5134
  833MOL0     C14835   3.056   3.765   6.119  0.6814 -0.0317  0.8060
  833MOL0     C14836   3.076   3.904   6.080  0.0899 -0.5955 -0.4800
  833MOL0     C14837   3.226   3.941   6.074  0.6188 -0.4563 -0.0219
  833MOL0     C14838   3.236   4.092   6.123 -0.0229 -0.8352  0.1391
  833MOL0     C14839   3.377   4.154   6.117  0.2025  1.0278 -0.2142
  833MOL0     O14840   3.453   4.092   6.219  1.1191 -0.1608 -0.1152
  833MOL0     C14841   3.582   4.127   6.233  0.1388  0.1248  0.4459
  833MOL0     C14842   3.641   4.072   6.344 -0.4909  0.1556 -0.7085
  833MOL0     C14843   3.777   4.103   6.381 -0.3656 -0.8623 -0.0771
  833MOL0     C14844   3.831   4.036   6.509  0.2730  0.2177  0.0386
  833MOL0     C14845   3.845   4.197   6.295 -0.8479 -0.3863  0.4652
  833MOL0     C14846   3.982   4.246   6.322 -0.0361 -0.0258 -0.2633
  833MOL0     O14847   4.057   4.298   6.214 -0.3870 -0.6234 -0.2627
  833MOL0     C14848   4.192   4.323   6.230  0.2359 -0.4406  0.1912
  833MOL0     C14849   4.256   4.353   6.109 -0.9482  0.3547  0.5997
  833MOL0     C14850   4.396   4.379   6.100  0.7535 -0.4901 -0.1560
  833MOL0     C14851   4.463   4.396   6.218 -0.6048  0.3965 -0.2026
  833MOL0     O14852   4.597   4.418   6.190 -0.5553 -0.8548  0.1722
  833MOL0     C14853   4.687   4.412   6.297 -0.7293  0.0416  0.4267
  833MOL0     C14854   4.822   4.475   6.252 -0.0200  0.5888 -1.3927
  833MOL0     C14855   4.935   4.432   6.353  0.1090 -0.6508 -0.0437
  833MOL0     C14856   5.075   4.478   6.293 -0.9217  0.9088 -0.6635
  833MOL0     C14857   5.176   4.452   6.403  0.5476  0.6088 -0.7679
  833MOL0     C14858   5.320   4.439   6.364 -0.2186  0.5555  0.6395
  833MOL0     C14859   5.411   4.406   6.485  0.4762 -0.5822  0.2537
  833MOL0     C14860   5.374   4.297   6.587 -0.3682  0.0433  0.2570
  833MOL0    Cl14861   5.372   4.136   6.514 -0.4942 -0.1840 -0.6157
  833MOL0     C14862   4.403   4.371   6.340  0.2920 -0.2118 -0.1927
  833MOL0     C14863   4.266   4.331   6.352 -0.0056 -0.0106  0.1515
  833MOL0     O14864   4.018   4.233   6.438 -0.3650 -0.0019 -0.2939
  833MOL0     C14865   3.787   4.247   6.175 -0.0748  0.6715 -0.5733
  833MOL0     C14866   3.657   4.212   6.148  0.4507  0.2080  0.5603
  833MOL0     N14867   3.073   3.652   6.042 -0.1983 -0.4637  0.2970
  833MOL0     N14868   3.026   3.550   6.105 -0.0703 -0.6346  0.2289
  833MOL0     C14869   2.858   4.043   7.038  0.5311  0.5907 -0.9766
  833MOL0     C14870   2.975   4.121   7.067 -0.0554 -0.0177  0.1187
  833MOL0     C14871   3.168   4.555   7.116  0.1608  0.1572  0.4051
  833MOL0     C14872   3.200   4.650   7.023  0.3025 -0.4916  0.2551
  833MOL0     C14873   3.277   4.759   7.049  0.2305 -0.0667  0.9639
  833MOL0     C14874   3.320   4.785   7.177  0.6246  0.7073 -0.5300
  833MOL0     O14875   3.407   4.880   7.207 -0.1792 -0.5783  0.0792
  833MOL0     C14876   3.543   4.839   7.220 -0.0169 -0.7477 -0.4461
  833MOL0     C14877   3.641   4.961   7.221 -0.3829 -0.6827  0.7496
  833MOL0     C14878   3.628   5.069   7.108 -0.4300 -0.1198 -0.5408
  833MOL0     C14879   3.699   5.211   7.144  0.1256  0.1337  0.3098
  833MOL0     C14880   3.761   5.270   7.028 -0.1217  0.3999  0.1660
  833MOL0     C14881   3.824   5.309   6.933 -0.4741 -0.9482 -0.6883
  833MOL0     C14882   3.283   4.693   7.273  1.0420 -0.2282  0.4901
  833MOL0     C14883   3.214   4.575   7.238  0.3562  0.6273 -0.7970
  833MOL0     C14884   3.185   4.480   7.352  0.3127  0.2117 -0.0858
  833MOL0     H14885   2.815   4.390   7.203  0.8090  0.2201  0.0289
  833MOL0     H14886   2.619   4.254   7.145 -0.2919 -0.4532 -0.4549
  833MOL0     H14887   2.539   3.806   7.042 -0.7240  0.1889 -0.3978
  833MOL0     H14888   2.706   3.825   7.084 -1.6103 -1.5017  1.7486
  833MOL0     H14889   2.561   3.855   6.823  0.7454  0.0791 -0.2990
  833MOL0     H14890   2.733   3.920   6.833  3.8942 -1.5726  2.3163
  833MOL0     H14891   2.816   3.701   6.900  0.6205 -2.6219 -0.8009
  833MOL0     H14892   2.644   3.640   6.896 -0.1605 -1.7776 -2.4039
  833MOL0     H14893   2.621   3.700   6.658 -0.8078 -0.4133 -0.5665
  833MOL0     H14894   2.784   3.759   6.652  0.0177  1.0886  1.4303
  833MOL0     H14895   2.671   3.474   6.714  0.8789 -0.3698 -0.2543
  833MOL0     H14896   2.843   3.520   6.714  0.3961 -1.2531 -2.2000
  833MOL0     H14897   2.756   3.406   6.507  2.7883  0.1991  2.2852
  833MOL0     H14898   2.657   3.560   6.481 -1.7359  0.1612  2.3597
  833MOL0     H14899   2.963   3.528   6.482 -0.8573 -1.2393 -0.2270
  833MOL0     H14900   2.859   3.673   6.436  0.6905  0.7826 -1.9188
  833MOL0     H14901   2.900   3.412   6.292  0.2076 -0.4119  0.4554
  833MOL0     H14902   2.774   3.532   6.247 -0.0176  0.3440  0.9942
  833MOL0     H14903   2.958   3.807   6.302 -0.7954 -1.4322  0.7203
  833MOL0     H14904   3.018   3.977   6.137 -2.5219 -1.7159 -1.5313
  833MOL0     H14905   3.031   3.903   5.981  3.3317  3.3072 -2.2625
  833MOL0     H14906   3.294   3.867   6.118 -0.0566 -0.8877  0.3073
  833MOL0     H14907   3.264   3.950   5.972 -0.5809  4.8665 -0.2718
  833MOL0     H14908   3.170   4.165   6.075  0.4062  0.2677  1.1743
  833MOL0     H14909   3.196   4.091   6.225 -0.1011 -0.0608  0.1288
  833MOL0     H14910   3.416   4.121   6.021 -2.6634 -2.5963 -0.3557
  833MOL0     H14911   3.378   4.263   6.124  0.7913  1.0367 -0.4039
  833MOL0     H14912   3.579   4.016   6.414 -2.2349 -2.0283 -3.7462
  833MOL0     H14913   3.900   3.957   6.477 -0.8435 -0.5544 -0.5231
  833MOL0     H14914   3.746   4.004   6.570 -0.1392 -0.1208 -0.7116
  833MOL0     H14915   3.875   4.106   6.581 -0.3577  0.8422 -0.1815
  833MOL0     H14916   4.204   4.345   6.014  0.3972  1.3685 -0.2649
  833MOL0     H14917   4.439   4.379   6.001 -0.3929  0.4307 -0.6742
  833MOL0     H14918   4.656   4.455   6.393 -2.0721  1.9827 -0.8125
  833MOL0     H14919   4.708   4.307   6.319 -1.6090 -0.4017 -0.7485
  833MOL0     H14920   4.843   4.436   6.152  2.5309 -4.6468  0.8120
  833MOL0     H14921   4.799   4.582   6.257  1.6270  0.9041  0.5721
  833MOL0     H14922   4.925   4.325   6.373  1.1472 -0.5357  1.2175
  833MOL0     H14923   4.911   4.480   6.449  0.9608  0.7631 -0.5062
  833MOL0     H14924   5.077   4.581   6.256  1.8058  1.8311  1.6621
  833MOL0     H14925   5.093   4.407   6.212  1.2941  0.0332  0.4985
  833MOL0     H14926   5.170   4.523   6.485  0.3197 -0.5607  0.2561
  833MOL0     H14927   5.155   4.349   6.434  2.1963 -0.8738 -4.0208
  833MOL0     H14928   5.343   4.538   6.323  1.2026  0.6295  1.5533
  833MOL0     H14929   5.324   4.363   6.285 -1.9274  0.9713  0.1270
  833MOL0     H14930   5.410   4.491   6.555 -2.3951 -1.0549  0.9015
  833MOL0     H14931   5.512   4.389   6.446  1.1325  0.0965  1.5786
  833MOL0     H14932   5.281   4.314   6.642 -0.7559 -1.2317  0.0189
  833MOL0     H14933   5.459   4.302   6.655  0.9535  3.4612 -1.3831
  833MOL0     H14934   4.459   4.381   6.432 -1.0408  2.4158  0.4054
  833MOL0     H14935   4.235   4.308   6.453  0.2943  1.4283  0.5951
  833MOL0     H14936   3.839   4.317   6.110  0.5241  0.9079  0.1501
  833MOL0     H14937   3.624   4.238   6.047  4.2500  1.2647 -0.5713
  833MOL0     H14938   2.881   3.946   6.996  3.4400  0.5018  0.5832
  833MOL0     H14939   3.072   4.077   7.048 -0.0425  0.0714 -0.0228
  833MOL0     H14940   3.175   4.640   6.917 -2.6829  0.8393  0.7086
  833MOL0     H14941   3.325   4.818   6.971  0.8986 -1.9506 -0.1087
  833MOL0     H14942   3.557   4.787   7.315  2.1374 -0.5338 -0.5993
  833MOL0     H14943   3.582   4.769   7.147  1.2983 -1.2451  0.6887
  833MOL0     H14944   3.738   4.913   7.208 -0.0180  0.2075  0.0467
  833MOL0     H14945   3.643   5.013   7.318  0.5850  3.3118 -1.1702
  833MOL0     H14946   3.677   5.024   7.021  1.0528 -3.0985  1.6625
  833MOL0     H14947   3.520   5.082   7.097 -0.4312 -0.3843 -0.8449
  833MOL0     H14948   3.775   5.209   7.222  0.9879  0.4396 -0.4993
  833MOL0     H14949   3.621   5.278   7.183  0.4652  0.3791  0.5667
  833MOL0     H14950   3.869   5.345   6.842 -0.3225 -0.8719 -0.5821
  833MOL0     H14951   3.317   4.710   7.374 -0.0216  0.7167  0.7111
  833MOL0     H14952   3.079   4.453   7.355  0.2052 -0.3885 -3.7822
  833MOL0     H14953   3.248   4.392   7.337  0.3863  0.3593 -0.6713
  833MOL0     H14954   3.209   4.531   7.445 -0.3918 -1.4189  1.0496
  834MOL0     O14955   7.882   9.194  10.860 -0.1946 -0.5112 -0.5157
  834MOL0     C14956   7.764   9.175  10.860  0.4502 -0.1641 -0.2539
  834MOL0     O14957   7.696   9.062  10.877 -0.2524  0.2889  0.4716
  834MOL0     C14958   7.779   8.956  10.904  0.2378  0.2305  0.5519
  834MOL0     C14959   7.766   8.889  11.021 -0.9309  0.8313  0.3768
  834MOL0     C14960   7.848   8.778  11.047 -0.0355  0.5857  0.5630
  834MOL0     C14961   7.938   8.724  10.945  0.3187  0.2121 -0.4237
  834MOL0     O14962   8.028   8.619  10.963 -0.3466 -0.9397  0.3793
  834MOL0     C14963   8.073   8.607  11.101 -0.0403  0.5745 -1.1243
  834MOL0     C14964   8.207   8.537  11.119 -0.8812  0.5063  0.2144
  834MOL0     C14965   8.217   8.410  11.037 -0.6874  0.7665 -0.0992
  834MOL0     C14966   8.372   8.370  11.039 -0.1007 -0.2371  0.4215
  834MOL0     C14967   8.394   8.227  10.982 -0.6453  0.1533 -0.3163
  834MOL0     C14968   8.357   8.117  11.080 -0.7564  0.7374 -0.0415
  834MOL0     C14969   8.392   7.978  11.008 -0.0794  0.1961  0.7318
  834MOL0     C14970   8.340   7.851  11.064  0.1968  0.3424  0.2048
  834MOL0     N14971   8.193   7.852  11.071 -0.3819  0.0248  0.1205
  834MOL0     C14972   8.107   7.913  10.988  0.3188 -0.3248 -0.0689
  834MOL0     C14973   7.981   7.876  11.018  0.4777 -0.3334  0.3276
  834MOL0     C14974   7.859   7.919  10.935 -0.6161  0.3198 -0.6110
  834MOL0     C14975   7.821   7.815  10.840  0.6836  0.4868  0.7888
  834MOL0     C14976   7.742   7.876  10.723  1.1237 -0.7773 -0.3207
  834MOL0     C14977   7.641   7.776  10.665  0.6504  0.4433  0.4079
  834MOL0     O14978   7.574   7.845  10.555 -0.3298 -0.1234  0.6314
  834MOL0     C14979   7.448   7.897  10.576  1.1515  0.0176 -0.4280
  834MOL0     C14980   7.431   8.025  10.632 -0.2624 -0.5316 -0.1164
  834MOL0     C14981   7.309   8.078  10.658  1.2515  0.4567 -0.1780
  834MOL0     C14982   7.288   8.220  10.709  0.1243 -0.2908  0.4045
  834MOL0     C14983   7.189   8.007  10.625  0.1614  0.3022  0.5536
  834MOL0     C14984   7.044   8.046  10.646  0.3029  0.1222 -0.5713
  834MOL0     O14985   7.011   8.091  10.764  0.4014 -0.9675  0.5599
  834MOL0     C14986   6.888   8.118  10.818  0.2166  0.0020 -0.8582
  834MOL0     C14987   6.870   8.102  10.957  1.0328 -0.5098 -0.9146
  834MOL0     C14988   6.750   8.135  11.026 -0.1666  0.1997 -0.2786
  834MOL0     C14989   6.643   8.186  10.952 -0.4298  0.3870  0.0005
  834MOL0     O14990   6.539   8.221  11.031 -0.1063 -0.2138  0.4100
  834MOL0     C14991   6.480   8.349  10.997 -0.3287  0.1895  0.1837
  834MOL0     C14992   6.405   8.396  11.120 -0.0110 -0.2556 -0.3908
  834MOL0     C14993   6.264   8.332  11.121  0.2108  0.4158 -0.2205
  834MOL0     C14994   6.191   8.364  11.253  0.3645 -0.0051  0.5243
  834MOL0     C14995   6.072   8.280  11.266  0.1989  0.3523  0.7655
  834MOL0     C14996   6.001   8.311  11.401  0.0607 -0.6732  1.1061
  834MOL0     C14997   5.883   8.212  11.437  0.0793 -1.2785 -0.0496
  834MOL0     C14998   5.749   8.272  11.392  0.4831 -0.0253  0.3448
  834MOL0    Cl14999   5.677   8.396  11.505 -0.4682 -0.1674 -0.2027
  834MOL0     C15000   6.656   8.203  10.818 -0.2208 -1.1720  0.8666
  834MOL0     C15001   6.780   8.182  10.752 -0.6349 -0.2251 -0.3174
  834MOL0     O15002   6.965   8.039  10.550  0.5741  0.2715 -0.2840
  834MOL0     C15003   7.200   7.882  10.565 -0.0613  0.2754 -0.4690
  834MOL0     C15004   7.329   7.826  10.540  0.4894 -0.0618  0.3659
  834MOL0     N15005   8.003   7.811  11.142 -0.7436 -0.6043 -0.0539
  834MOL0     N15006   8.125   7.788  11.162  0.3441 -0.0743 -0.5177
  834MOL0     C15007   7.936   8.788  10.822  0.4680 -0.4237  0.4552
  834MOL0     C15008   7.862   8.908  10.798  0.1686  0.4539 -0.2097
  834MOL0     C15009   7.676   9.293  10.837 -0.6964 -0.1087  0.0768
  834MOL0     C15010   7.541   9.279  10.871  0.3456 -0.1073  0.9799
  834MOL0     C15011   7.443   9.367  10.839  0.4284 -0.2475  0.1155
  834MOL0     C15012   7.481   9.488  10.773 -0.1520 -0.8112 -0.9500
  834MOL0     O15013   7.386   9.590  10.752  0.4200 -0.2122  0.0707
  834MOL0     C15014   7.428   9.734  10.738  0.1274  0.5211 -0.8566
  834MOL0     C15015   7.296   9.816  10.748  0.4315  1.2633  0.9407
  834MOL0     C15016   7.183   9.763  10.654  1.3394  0.4858 -0.2225
  834MOL0     C15017   7.226   9.752  10.506  0.4545  0.0511 -0.1789
  834MOL0     C15018   7.105   9.728  10.430 -0.2610 -0.5098  0.1599
  834MOL0     C15019   7.017   9.703  10.346 -0.5405  0.3526  0.0658
  834MOL0     C15020   7.617   9.505  10.735 -0.1371 -0.4838 -0.4523
  834MOL0     C15021   7.710   9.408  10.759 -0.1211  0.3340  0.6161
  834MOL0     C15022   7.848   9.440  10.711 -0.6482 -0.6567 -0.0901
  834MOL0     H15023   7.691   8.912  11.097 -1.6514 -3.2842  1.1663
  834MOL0     H15024   7.832   8.731  11.143 -0.5460  1.9383  1.1536
  834MOL0     H15025   7.991   8.548  11.145  1.9455 -1.1675  0.4394
  834MOL0     H15026   8.086   8.695  11.164 -2.1150  0.0800  0.0956
  834MOL0     H15027   8.287   8.609  11.100  1.0699 -0.7865  2.8537
  834MOL0     H15028   8.199   8.515  11.226 -3.1806 -1.1440 -0.2131
  834MOL0     H15029   8.157   8.324  11.070  1.5899  0.4052  3.6047
  834MOL0     H15030   8.186   8.436  10.935  1.7919 -0.5494 -1.2744
  834MOL0     H15031   8.429   8.432  10.970 -0.0577 -2.1681 -1.3573
  834MOL0     H15032   8.416   8.373  11.139 -1.1514 -1.2811  0.9451
  834MOL0     H15033   8.503   8.231  10.977 -0.7026  0.8657 -1.1101
  834MOL0     H15034   8.347   8.213  10.885  0.9896  1.8537 -1.4170
  834MOL0     H15035   8.419   8.128  11.169 -2.9667 -2.0385  2.0465
  834MOL0     H15036   8.253   8.126  11.113 -0.3507  0.4868  1.3665
  834MOL0     H15037   8.501   7.975  11.008  0.1514  0.7859 -3.9798
  834MOL0     H15038   8.360   7.988  10.903 -2.3947 -0.2606  1.3277
  834MOL0     H15039   8.390   7.770  11.010  0.7873  1.3921 -0.8831
  834MOL0     H15040   8.363   7.840  11.170 -0.3697 -2.5471  0.1103
  834MOL0     H15041   8.127   7.979  10.904 -0.5263  0.1587  0.0926
  834MOL0     H15042   7.886   8.006  10.875 -3.4077  0.6034 -1.5842
  834MOL0     H15043   7.777   7.932  11.006  0.4367 -1.7198  1.0979
  834MOL0     H15044   7.905   7.755  10.803  0.0920 -0.7530  1.4062
  834MOL0     H15045   7.749   7.750  10.892 -0.5431  0.8053 -0.4669
  834MOL0     H15046   7.694   7.965  10.765  1.3514 -1.8581  2.3841
  834MOL0     H15047   7.815   7.909  10.648  1.8544 -1.1609  0.2042
  834MOL0     H15048   7.703   7.701  10.615  0.6428 -0.9378  2.3696
  834MOL0     H15049   7.575   7.731  10.740 -1.0531  0.6335 -0.9144
  834MOL0     H15050   7.518   8.077  10.671 -1.0918 -0.1578  1.3081
  834MOL0     H15051   7.213   8.257  10.639  1.9552 -1.0926 -2.1221
  834MOL0     H15052   7.375   8.283  10.689 -0.4778  0.3193 -0.3506
  834MOL0     H15053   7.262   8.215  10.815 -1.9668 -1.0960 -0.0890
  834MOL0     H15054   6.957   8.072  11.015  0.2678 -1.1649 -0.0782
  834MOL0     H15055   6.733   8.117  11.131 -2.4735  0.5220 -0.5403
  834MOL0     H15056   6.557   8.423  10.972 -0.3282  1.3032  3.0846
  834MOL0     H15057   6.421   8.334  10.906 -0.6324  2.5381 -0.0883
  834MOL0     H15058   6.461   8.353  11.203  0.5768 -1.4040 -1.3407
  834MOL0     H15059   6.410   8.505  11.119  2.6483 -0.2955 -0.7843
  834MOL0     H15060   6.272   8.223  11.111 -1.8991  0.1682  0.4357
  834MOL0     H15061   6.215   8.366  11.029  0.4176 -1.4868 -1.0931
  834MOL0     H15062   6.160   8.469  11.242  1.0575  0.0893 -0.6588
  834MOL0     H15063   6.260   8.365  11.339  0.9829  1.1050  0.0416
  834MOL0     H15064   6.011   8.292  11.176  0.0445 -1.2584  0.6335
  834MOL0     H15065   6.107   8.177  11.260  1.1630  0.6479  1.0563
  834MOL0     H15066   5.964   8.414  11.392 -0.2200 -0.7592  1.2523
  834MOL0     H15067   6.079   8.314  11.478  0.2436 -1.7625  0.9745
  834MOL0     H15068   5.876   8.199  11.546 -0.7376 -0.7746 -0.0391
  834MOL0     H15069   5.901   8.117  11.386 -0.2942 -0.6864 -1.3309
  834MOL0     H15070   5.679   8.191  11.369  0.0003  0.8320 -1.3028
  834MOL0     H15071   5.767   8.327  11.300  1.3038 -0.3084  0.3347
  834MOL0     H15072   6.574   8.251  10.765  2.9822  1.6655 -2.0310
  834MOL0     H15073   6.789   8.223  10.652  1.1019 -0.0768 -0.1333
  834MOL0     H15074   7.113   7.823  10.538  0.0991 -0.1512 -0.0709
  834MOL0     H15075   7.345   7.731  10.492 -2.2756 -0.8666  0.8220
  834MOL0     H15076   8.003   8.761  10.741  1.9520  0.1540  1.4444
  834MOL0     H15077   7.867   8.964  10.705 -4.1747 -0.1350 -0.9902
  834MOL0     H15078   7.517   9.193  10.932  0.9015 -2.6946 -2.2086
  834MOL0     H15079   7.342   9.340  10.868  0.3948 -0.6387 -0.3552
  834MOL0     H15080   7.496   9.771  10.815  1.8313  1.1825 -2.6114
  834MOL0     H15081   7.469   9.761  10.641  1.5907 -0.2130 -0.4696
  834MOL0     H15082   7.309   9.924  10.732  1.4562  1.5132  3.0194
  834MOL0     H15083   7.256   9.797  10.848 -1.9634  0.7317 -0.0520
  834MOL0     H15084   7.126   9.675  10.686 -2.5370  1.4079 -3.7371
  834MOL0     H15085   7.104   9.838  10.661 -2.9474 -3.6219  0.1302
  834MOL0     H15086   7.302   9.677  10.479  0.4049 -0.5640  1.3006
  834MOL0     H15087   7.258   9.850  10.469 -1.6585  0.8535  0.0029
  834MOL0     H15088   6.942   9.664  10.280 -1.3576  1.2185  0.4604
  834MOL0     H15089   7.661   9.601  10.707  1.7224 -1.4046 -0.8404
  834MOL0     H15090   7.881   9.346  10.666  0.3767 -0.5671  0.4323
  834MOL0     H15091   7.849   9.525  10.642 -2.5289 -0.3690  0.2073
  834MOL0     H15092   7.918   9.463  10.792  2.2939 -1.1249 -2.3113
  835MOL0     O15093   3.852   1.603   7.297  0.1144 -0.0726 -0.5045
  835MOL0     C15094   3.920   1.509   7.272  0.2725  0.2756 -1.0401
  835MOL0     O15095   3.964   1.420   7.363 -0.4166 -0.3314 -0.2610
  835MOL0     C15096   3.925   1.437   7.495 -0.2611 -0.9215 -0.0701
  835MOL0     C15097   4.019   1.432   7.593 -0.0629 -0.3045  0.8388
  835MOL0     C15098   3.982   1.448   7.724 -0.4489 -0.5627  0.2178
  835MOL0     C15099   3.848   1.456   7.757  0.2769 -0.0080  0.4113
  835MOL0     O15100   3.793   1.453   7.885  0.2757 -0.0876 -0.0624
  835MOL0     C15101   3.819   1.592   7.944 -0.0797  0.3719 -0.4315
  835MOL0     C15102   3.767   1.595   8.094  0.0391  0.4579 -0.0993
  835MOL0     C15103   3.615   1.564   8.081  0.0042  0.1106  0.0056
  835MOL0     C15104   3.555   1.534   8.219 -0.2662  0.5110 -0.1657
  835MOL0     C15105   3.418   1.473   8.208 -0.1930  0.3676 -0.0257
  835MOL0     C15106   3.342   1.461   8.341  0.4890  0.7364 -0.3376
  835MOL0     C15107   3.187   1.438   8.331 -0.0473 -0.7429 -1.1573
  835MOL0     C15108   3.117   1.396   8.466 -0.5783  0.3852 -0.4859
  835MOL0     N15109   2.971   1.389   8.455  0.9136  0.2302  1.1806
  835MOL0     C15110   2.909   1.324   8.341 -0.4869 -0.2231 -0.3361
  835MOL0     C15111   2.783   1.373   8.336  0.5339  0.3245  0.3688
  835MOL0     C15112   2.681   1.338   8.230  1.0337  0.5743  0.2282
  835MOL0     C15113   2.541   1.297   8.288 -0.4441  0.4513  0.4726
  835MOL0     C15114   2.551   1.167   8.372 -0.4422  0.1756 -0.5753
  835MOL0     C15115   2.562   1.039   8.285 -0.3930  0.2342  0.5774
  835MOL0     O15116   2.693   1.036   8.214 -0.0902  0.4896 -0.4074
  835MOL0     C15117   2.796   0.987   8.297  0.1779  0.1606  0.1602
  835MOL0     C15118   2.918   0.985   8.235 -0.3917  0.9858  0.3701
  835MOL0     C15119   3.040   0.955   8.306 -0.3683  0.0799  0.3668
  835MOL0     C15120   3.165   0.987   8.223  0.5851 -0.3629 -0.4509
  835MOL0     C15121   3.036   0.911   8.440 -0.5274  0.9234 -0.6972
  835MOL0     C15122   3.160   0.883   8.518  0.1403 -0.2940  0.6715
  835MOL0     O15123   3.140   0.800   8.630  0.9845 -0.1505  0.0437
  835MOL0     C15124   3.248   0.756   8.690 -0.3754 -0.4373 -0.2821
  835MOL0     C15125   3.350   0.675   8.625 -0.5573 -0.0995 -0.3257
  835MOL0     C15126   3.452   0.632   8.695 -0.2180 -0.0141 -0.8981
  835MOL0     C15127   3.462   0.641   8.833  0.1963  0.0152 -0.7970
  835MOL0     O15128   3.544   0.585   8.928  0.4470  0.0341  0.6894
  835MOL0     C15129   3.671   0.547   8.877 -1.2810 -0.0267 -0.2174
  835MOL0     C15130   3.777   0.524   8.993 -0.3084 -0.2769  1.2021
  835MOL0     C15131   3.920   0.528   8.936 -0.6266  0.7763  0.5540
  835MOL0     C15132   4.022   0.527   9.045 -0.3752 -0.4432 -0.6344
  835MOL0     C15133   4.166   0.531   8.988 -0.0687 -0.5689 -0.1656
  835MOL0     C15134   4.216   0.389   8.963 -0.3236  0.6563 -0.8215
  835MOL0     C15135   4.363   0.408   8.928 -0.0553 -0.1988 -0.3867
  835MOL0     C15136   4.433   0.277   8.875 -0.3819  0.6328 -0.2614
  835MOL0    Cl15137   4.617   0.303   8.871  0.3386  0.0135  0.0453
  835MOL0     C15138   3.352   0.703   8.899 -0.2569 -0.3053  0.9772
  835MOL0     C15139   3.250   0.769   8.832 -0.8034 -0.2467 -0.0160
  835MOL0     O15140   3.264   0.942   8.484 -0.6201 -0.3562  0.3219
  835MOL0     C15141   2.912   0.917   8.511  0.9158  0.5176  0.0023
  835MOL0     C15142   2.792   0.945   8.434  0.4073 -0.1461 -0.1020
  835MOL0     N15143   2.764   1.459   8.442 -0.4994  0.0797 -0.0680
  835MOL0     N15144   2.877   1.466   8.513 -0.5650 -0.1732  0.1130
  835MOL0     C15145   3.755   1.449   7.652 -0.4795  0.1835  0.1631
  835MOL0     C15146   3.793   1.440   7.525 -0.0533 -0.4118 -0.0462
  835MOL0     C15147   3.955   1.502   7.128 -0.8211  0.2238 -1.5069
  835MOL0     C15148   3.956   1.376   7.062 -0.4966 -0.6984 -0.0481
  835MOL0     C15149   3.992   1.358   6.931  0.3092 -0.4128 -0.6391
  835MOL0     C15150   4.017   1.467   6.849  0.6262  0.1473  0.4702
  835MOL0     O15151   4.049   1.434   6.725 -0.2048  0.3141 -0.1907
  835MOL0     C15152   4.173   1.474   6.679 -0.6814 -0.1246 -0.1837
  835MOL0     C15153   4.236   1.356   6.610 -0.2575 -0.1480 -0.3118
  835MOL0     C15154   4.377   1.407   6.563 -1.1630 -0.1354  0.4949
  835MOL0     C15155   4.450   1.327   6.453  0.4069  0.3100 -0.4271
  835MOL0     C15156   4.570   1.380   6.395 -0.9900  0.2891 -1.3992
  835MOL0     C15157   4.677   1.434   6.361  0.5039 -0.5548 -0.7852
  835MOL0     C15158   4.013   1.596   6.902  0.0659 -0.1889 -0.5254
  835MOL0     C15159   3.979   1.617   7.036 -0.3720  0.4329 -0.2808
  835MOL0     C15160   3.986   1.760   7.078 -0.4288  1.0146  1.3960
  835MOL0     H15161   4.122   1.428   7.559 -0.2589 -0.8650  0.3000
  835MOL0     H15162   4.059   1.444   7.801 -0.2948  0.7371  0.1394
  835MOL0     H15163   3.770   1.660   7.874 -0.0184 -1.5095 -2.4072
  835MOL0     H15164   3.927   1.609   7.937 -0.0047  0.1962  0.2406
  835MOL0     H15165   3.818   1.509   8.137  0.6762 -0.9184 -3.3670
  835MOL0     H15166   3.791   1.692   8.139  0.9371  0.8649 -1.4055
  835MOL0     H15167   3.551   1.624   8.016  0.2780 -2.9497 -3.4429
  835MOL0     H15168   3.606   1.474   8.019  0.6503  1.0026 -1.4524
  835MOL0     H15169   3.621   1.463   8.269 -0.6359  1.1032  1.2029
  835MOL0     H15170   3.548   1.628   8.276  1.6339  1.7428 -1.8291
  835MOL0     H15171   3.415   1.375   8.159  2.7369 -0.3436  0.9616
  835MOL0     H15172   3.358   1.544   8.150 -1.1606 -1.0989 -0.9067
  835MOL0     H15173   3.381   1.377   8.399  0.4185  0.8600 -0.1109
  835MOL0     H15174   3.357   1.549   8.404  1.4848  0.6229 -0.3958
  835MOL0     H15175   3.165   1.355   8.264 -2.9773 -2.2923  1.4248
  835MOL0     H15176   3.147   1.534   8.298 -0.2540  0.1118  1.3870
  835MOL0     H15177   3.151   1.301   8.508 -1.2528  0.8257  1.1259
  835MOL0     H15178   3.138   1.476   8.538 -2.3453  0.0448  0.4450
  835MOL0     H15179   2.961   1.258   8.273 -0.1646  0.7323 -1.0449
  835MOL0     H15180   2.723   1.275   8.151  2.0646  2.3051 -0.6801
  835MOL0     H15181   2.670   1.431   8.174  1.0236  0.4874  0.0849
  835MOL0     H15182   2.508   1.375   8.357 -0.5440  0.3672  0.5197
  835MOL0     H15183   2.480   1.291   8.196  2.7774  1.3573 -1.8997
  835MOL0     H15184   2.645   1.184   8.425 -0.3038 -1.1473 -0.3672
  835MOL0     H15185   2.464   1.157   8.438 -0.4088  0.3407 -0.5057
  835MOL0     H15186   2.538   0.955   8.350 -1.2700  2.4384  3.3420
  835MOL0     H15187   2.479   1.040   8.214  0.7059 -3.2314 -0.9417
  835MOL0     H15188   2.921   1.026   8.134  0.4228  0.1551  0.0405
  835MOL0     H15189   3.136   1.010   8.120 -0.2164 -2.9229 -0.8865
  835MOL0     H15190   3.239   0.906   8.226 -0.3688 -1.2153  1.0171
  835MOL0     H15191   3.211   1.072   8.274 -2.8956  2.0110 -0.9390
  835MOL0     H15192   3.349   0.654   8.518  0.0208 -2.5563  0.0892
  835MOL0     H15193   3.534   0.583   8.642  0.7541  1.1216 -0.4845
  835MOL0     H15194   3.669   0.459   8.812 -1.6670 -0.8422  0.8778
  835MOL0     H15195   3.727   0.631   8.835  1.2230 -0.5198  1.9183
  835MOL0     H15196   3.763   0.603   9.068  1.0554 -2.1763  3.6389
  835MOL0     H15197   3.771   0.431   9.051 -0.4990 -0.2867  1.1647
  835MOL0     H15198   3.940   0.620   8.881 -0.6445  0.8249  0.6291
  835MOL0     H15199   3.935   0.438   8.875  2.2734  1.7063 -0.3008
  835MOL0     H15200   4.008   0.441   9.111  1.3415 -0.4165 -0.1828
  835MOL0     H15201   4.006   0.619   9.104  1.7891 -0.4621  0.0847
  835MOL0     H15202   4.172   0.588   8.894 -2.4551  0.9003  0.4816
  835MOL0     H15203   4.236   0.572   9.062  1.1637 -3.1824  0.2485
  835MOL0     H15204   4.150   0.343   8.889 -0.4186 -0.7455  0.1061
  835MOL0     H15205   4.213   0.325   9.051  0.4649 -2.2809 -2.7646
  835MOL0     H15206   4.417   0.451   9.013 -0.2188 -0.3452 -0.2089
  835MOL0     H15207   4.373   0.490   8.856  0.3765  0.0699 -0.0277
  835MOL0     H15208   4.394   0.245   8.779 -2.8522  0.3454  0.7703
  835MOL0     H15209   4.414   0.196   8.947 -0.5788 -1.1994 -2.2895
  835MOL0     H15210   3.351   0.711   9.008  0.5093  1.7142  0.8769
  835MOL0     H15211   3.180   0.834   8.884 -1.4221  0.4342 -1.6321
  835MOL0     H15212   2.910   0.898   8.617  1.5953 -5.5607 -0.7187
  835MOL0     H15213   2.695   0.953   8.483 -0.2060 -2.2746 -0.8748
  835MOL0     H15214   3.648   1.449   7.674 -0.9212 -1.1069 -1.7271
  835MOL0     H15215   3.716   1.439   7.447  0.2541  2.8849 -0.5488
  835MOL0     H15216   3.929   1.292   7.125  1.6984  0.3309  2.5128
  835MOL0     H15217   3.995   1.256   6.893 -0.6074 -1.6112  2.2675
  835MOL0     H15218   4.164   1.556   6.608  1.6020  0.0327 -0.3830
  835MOL0     H15219   4.236   1.514   6.759 -1.2162  0.3455  0.0024
  835MOL0     H15220   4.177   1.320   6.525 -3.9637  0.4773  1.7576
  835MOL0     H15221   4.242   1.275   6.684 -3.4267 -0.5577 -0.3494
  835MOL0     H15222   4.360   1.499   6.507 -0.4039 -0.8134 -0.9136
  835MOL0     H15223   4.446   1.418   6.648 -1.1151 -1.6973  0.6900
  835MOL0     H15224   4.381   1.331   6.368 -0.4041  1.2119  0.2567
  835MOL0     H15225   4.471   1.224   6.483 -0.4464 -0.0193 -0.9167
  835MOL0     H15226   4.764   1.496   6.353 -0.6273  1.2438  0.1312
  835MOL0     H15227   4.043   1.671   6.829  1.1898 -1.0002 -0.9200
  835MOL0     H15228   3.899   1.792   7.136 -0.8383  1.8373  0.3560
  835MOL0     H15229   4.073   1.773   7.144 -0.4722 -2.8596  2.4414
  835MOL0     H15230   4.000   1.811   6.983 -0.1841 -1.1421  0.2080
  836MOL0     O15231   8.448  11.401   5.387  0.0795 -0.1713  0.6609
  836MOL0     C15232   8.500  11.394   5.275  0.7368  0.0085 -0.3228
  836MOL0     O15233   8.440  11.439   5.164 -0.4152 -0.2087  0.1847
  836MOL0     C15234   8.311  11.492   5.184 -0.6232  0.6590  0.0605
  836MOL0     C15235   8.209  11.402   5.197 -0.4692 -0.1425  0.1971
  836MOL0     C15236   8.073  11.439   5.213 -0.6138  0.1014 -0.7837
  836MOL0     C15237   8.057  11.575   5.239  0.5573  0.2384 -1.0983
  836MOL0     O15238   7.928  11.623   5.277  0.5024 -0.2948 -0.1218
  836MOL0     C15239   7.906  11.685   5.400  0.3146 -0.7386 -0.2364
  836MOL0     C15240   7.908  11.567   5.503  0.4957 -0.0623 -0.3638
  836MOL0     C15241   7.845  11.615   5.640  0.1872 -0.2668 -0.4883
  836MOL0     C15242   7.859  11.503   5.745  0.0578 -0.2975 -0.6711
  836MOL0     C15243   7.772  11.511   5.875 -0.2846 -0.4532  0.7731
  836MOL0     C15244   7.765  11.643   5.949  0.1549 -0.2675 -0.2698
  836MOL0     C15245   7.900  11.678   6.010 -0.2286 -0.0025 -0.4489
  836MOL0     C15246   7.960  11.586   6.117  0.2158  0.4233 -0.0267
  836MOL0     N15247   8.078  11.610   6.188 -0.2240 -0.8318 -0.1094
  836MOL0     C15248   8.125  11.532   6.289  0.1239  0.5257  0.1905
  836MOL0     C15249   8.225  11.600   6.341 -0.4006  0.2195 -0.6368
  836MOL0     C15250   8.331  11.545   6.438  0.2582  0.7114 -0.0183
  836MOL0     C15251   8.300  11.558   6.589  0.1676 -0.0847  0.0220
  836MOL0     C15252   8.293  11.699   6.639 -0.1708 -0.2230  0.0692
  836MOL0     C15253   8.273  11.701   6.793  0.4293 -0.9924  0.5049
  836MOL0     O15254   8.364  11.634   6.877  0.2370 -0.1730 -0.1750
  836MOL0     C15255   8.483  11.699   6.901  0.3789 -0.0678 -0.5664
  836MOL0     C15256   8.579  11.625   6.972  1.0121  0.3780 -0.4359
  836MOL0     C15257   8.705  11.671   6.984 -0.7336  0.2748  0.2248
  836MOL0     C15258   8.799  11.595   7.073 -0.2477  0.1032 -0.4268
  836MOL0     C15259   8.739  11.802   6.942  0.3376 -0.5338 -0.0094
  836MOL0     C15260   8.847  11.874   6.998  0.9066  0.4680  0.5003
  836MOL0     O15261   8.940  11.926   6.909  0.3809  0.1740 -0.1783
  836MOL0     C15262   9.054  11.995   6.942  0.5297  0.6493 -0.3850
  836MOL0     C15263   9.095  12.025   7.073  0.2848 -0.5944 -0.4115
  836MOL0     C15264   9.217  12.105   7.086  0.8817  0.3198 -0.7015
  836MOL0     C15265   9.297  12.137   6.980 -0.4762  0.6678  0.2543
  836MOL0     O15266   9.417  12.196   6.996 -0.5371 -0.0300 -0.8120
  836MOL0     C15267   9.506  12.141   7.092 -1.2079  0.0743  0.1388
  836MOL0     C15268   9.651  12.166   7.057  0.0661 -0.2333 -0.0186
  836MOL0     C15269   9.707  12.054   6.964  1.0127  0.2702 -0.6140
  836MOL0     C15270   9.840  12.091   6.918  0.4701 -0.0811  1.0031
  836MOL0     C15271   9.894  11.999   6.813 -0.9564  0.0662 -0.4673
  836MOL0     C15272   9.818  11.983   6.675 -0.5377  0.3364 -0.1612
  836MOL0     C15273   9.798  12.115   6.601 -0.3769 -0.6763 -0.3460
  836MOL0     C15274   9.656  12.183   6.629  0.5473  0.2513  0.5292
  836MOL0    Cl15275   9.521  12.093   6.548  0.8292 -0.2904  0.0338
  836MOL0     C15276   9.252  12.106   6.848 -1.1289 -0.0259  0.5326
  836MOL0     C15277   9.128  12.043   6.840 -0.2768 -0.4161  0.5374
  836MOL0     O15278   8.851  11.879   7.121 -0.8749 -0.6564  0.2597
  836MOL0     C15279   8.648  11.878   6.875  0.2446  0.0578 -0.5288
  836MOL0     C15280   8.518  11.828   6.855 -0.3418 -0.9511 -0.6742
  836MOL0     N15281   8.240  11.722   6.282 -0.1226  0.5694 -0.1626
  836MOL0     N15282   8.147  11.727   6.198  0.4076  0.6144  0.5310
  836MOL0     C15283   8.156  11.674   5.225 -0.6971 -0.0803 -0.2794
  836MOL0     C15284   8.289  11.629   5.195 -0.3273 -0.1407  0.4246
  836MOL0     C15285   8.641  11.336   5.252  0.4144 -0.3401 -0.1361
  836MOL0     C15286   8.669  11.268   5.130  0.0979 -0.1043 -0.6554
  836MOL0     C15287   8.789  11.198   5.104 -0.2359 -0.7589 -0.3234
  836MOL0     C15288   8.891  11.199   5.208  0.9836 -0.7118 -0.1601
  836MOL0     O15289   9.012  11.148   5.171 -0.1810  0.1855 -0.0155
  836MOL0     C15290   9.130  11.208   5.214 -0.7354 -1.4035 -0.0256
  836MOL0     C15291   9.230  11.100   5.262  0.1515  0.2729  0.4386
  836MOL0     C15292   9.371  11.161   5.274  1.0298  0.6543 -0.0506
  836MOL0     C15293   9.468  11.063   5.333  0.2979 -0.6479  0.9760
  836MOL0     C15294   9.604  11.107   5.327  0.3883  0.0207 -0.2611
  836MOL0     C15295   9.719  11.153   5.322  0.7136 -0.4595  0.0161
  836MOL0     C15296   8.864  11.269   5.331  0.6043  0.9653  0.5418
  836MOL0     C15297   8.743  11.341   5.356  0.0238  0.5436  1.2219
  836MOL0     C15298   8.722  11.408   5.485  0.0477  0.2231  0.7261
  836MOL0     H15299   8.228  11.295   5.198 -1.3094 -0.2967  0.5475
  836MOL0     H15300   7.993  11.367   5.229  0.1904 -0.5162  0.6781
  836MOL0     H15301   7.808  11.733   5.395  0.0719 -0.9774  1.5305
  836MOL0     H15302   7.980  11.758   5.435  0.0329 -0.5334 -0.0648
  836MOL0     H15303   7.846  11.483   5.469  1.2381 -1.1361  0.8190
  836MOL0     H15304   8.007  11.525   5.523  1.0323  2.4378  3.3008
  836MOL0     H15305   7.897  11.697   5.691 -3.9000  2.3238 -0.0181
  836MOL0     H15306   7.744  11.653   5.625  0.2287 -0.4983 -1.3968
  836MOL0     H15307   7.833  11.408   5.697 -3.3524  0.6008 -0.8447
  836MOL0     H15308   7.963  11.490   5.777 -0.8031 -1.6488  1.9109
  836MOL0     H15309   7.805  11.433   5.944  2.1744  0.1100  0.3135
  836MOL0     H15310   7.676  11.482   5.831  1.5240 -1.3396 -2.9477
  836MOL0     H15311   7.725  11.728   5.894 -2.6313 -0.4659  1.2898
  836MOL0     H15312   7.692  11.635   6.030  2.1723  0.9301  1.7736
  836MOL0     H15313   7.893  11.774   6.063  0.4417 -0.9681  1.4939
  836MOL0     H15314   7.963  11.679   5.920  1.7498 -2.4275  0.7896
  836MOL0     H15315   7.888  11.567   6.198  0.6936 -0.5200  0.1868
  836MOL0     H15316   7.991  11.496   6.064 -1.5201 -0.7236  0.8033
  836MOL0     H15317   8.079  11.441   6.327  0.6162  1.2586  2.7445
  836MOL0     H15318   8.429  11.584   6.406  0.9437 -2.1947 -1.8453
  836MOL0     H15319   8.340  11.437   6.423 -0.9085  0.3389  1.6545
  836MOL0     H15320   8.202  11.515   6.611  0.2986  0.8897  2.9624
  836MOL0     H15321   8.371  11.491   6.638  1.4221 -0.6044 -2.3596
  836MOL0     H15322   8.383  11.760   6.633 -0.1090 -0.2010  0.9671
  836MOL0     H15323   8.210  11.746   6.586 -1.5327 -3.0749 -0.5308
  836MOL0     H15324   8.246  11.802   6.827 -0.2642 -0.8813 -0.3338
  836MOL0     H15325   8.174  11.656   6.808 -0.1383 -0.4125 -1.2875
  836MOL0     H15326   8.538  11.529   7.001 -1.4924  0.5510 -2.8737
  836MOL0     H15327   8.767  11.490   7.072 -0.6508  0.2141 -1.6480
  836MOL0     H15328   8.810  11.640   7.172  0.2154 -0.8238 -0.0455
  836MOL0     H15329   8.900  11.592   7.033  0.6244 -0.9225  1.6851
  836MOL0     H15330   9.034  12.001   7.159  0.7075 -2.1933 -0.5127
  836MOL0     H15331   9.246  12.133   7.187  1.6191 -1.1828 -0.4611
  836MOL0     H15332   9.485  12.184   7.191  1.2926  2.1789 -0.1200
  836MOL0     H15333   9.489  12.033   7.099  0.9730 -0.4955 -1.9702
  836MOL0     H15334   9.654  12.259   6.999 -1.4062  0.9396  1.6538
  836MOL0     H15335   9.700  12.175   7.155  0.3824  0.6378 -0.2542
  836MOL0     H15336   9.639  12.045   6.879  0.4859 -0.5528 -0.1187
  836MOL0     H15337   9.698  11.957   7.014  0.4953  0.8466  0.4311
  836MOL0     H15338   9.905  12.100   7.006 -0.3864 -1.0874  1.7563
  836MOL0     H15339   9.822  12.188   6.871  3.1481 -0.0573 -0.2155
  836MOL0     H15340   9.990  12.041   6.784 -1.6020  1.7381 -0.2879
  836MOL0     H15341   9.913  11.898   6.851  2.4670  0.5420 -0.5949
  836MOL0     H15342   9.720  11.938   6.695 -1.2136  1.1145 -1.5248
  836MOL0     H15343   9.876  11.920   6.607  2.4247  2.0207  0.6633
  836MOL0     H15344   9.810  12.112   6.492  0.8058  0.4002 -0.2676
  836MOL0     H15345   9.871  12.187   6.640 -0.5769 -0.2496 -0.7516
  836MOL0     H15346   9.655  12.280   6.579 -1.8166 -0.5705 -1.2510
  836MOL0     H15347   9.652  12.200   6.737  1.5778 -0.3589  0.6756
  836MOL0     H15348   9.314  12.128   6.761 -3.5920 -2.0851 -1.9196
  836MOL0     H15349   9.099  12.029   6.736 -1.1722 -0.8219  0.8336
  836MOL0     H15350   8.669  11.980   6.842 -0.3007  1.6687  3.4892
  836MOL0     H15351   8.436  11.892   6.826 -0.2596 -0.7079 -0.3745
  836MOL0     H15352   8.142  11.779   5.248 -0.0546 -0.5412  2.5302
  836MOL0     H15353   8.376  11.694   5.187  1.1096 -2.0829 -0.7594
  836MOL0     H15354   8.592  11.259   5.054 -0.8262  0.6865  0.1518
  836MOL0     H15355   8.798  11.154   5.005  0.8981 -2.4771  0.4825
  836MOL0     H15356   9.181  11.263   5.134 -5.0252  0.8662 -1.5137
  836MOL0     H15357   9.116  11.275   5.299  1.9550 -2.1846  1.1580
  836MOL0     H15358   9.232  11.022   5.186  1.6466  0.7681 -0.0661
  836MOL0     H15359   9.184  11.059   5.352 -4.3020  0.1583 -1.6096
  836MOL0     H15360   9.418  11.166   5.175  0.9016  0.9065 -0.0979
  836MOL0     H15361   9.371  11.255   5.330 -0.5651  0.4606  0.3171
  836MOL0     H15362   9.473  10.971   5.275  2.2331  0.4591 -0.7348
  836MOL0     H15363   9.445  11.041   5.438  0.3740 -1.9184  0.7486
  836MOL0     H15364   9.821  11.185   5.319  1.0845 -1.5232  0.8093
  836MOL0     H15365   8.943  11.264   5.405  0.0863 -0.4693  1.0253
  836MOL0     H15366   8.817  11.432   5.534 -0.2697 -0.5396  1.7595
  836MOL0     H15367   8.656  11.493   5.472 -0.1501 -0.3766 -4.0413
  836MOL0     H15368   8.666  11.341   5.552 -1.3106  2.4964  1.9628
  837MOL0     O15369   6.271  10.627   7.125 -0.0463 -0.5706 -0.4332
  837MOL0     C15370   6.389  10.660   7.118  0.0656  0.2602  0.3738
  837MOL0     O15371   6.454  10.744   7.206 -0.3380 -0.7821 -0.1747
  837MOL0     C15372   6.392  10.824   7.297  0.3127 -0.4662  0.3964
  837MOL0     C15373   6.265  10.886   7.287 -0.1354  0.2857 -0.1021
  837MOL0     C15374   6.215  10.968   7.383 -0.6797  0.6480  0.0962
  837MOL0     C15375   6.287  11.009   7.500 -0.5136  0.3188  1.1570
  837MOL0     O15376   6.248  11.102   7.590 -0.9797 -0.2283 -0.3534
  837MOL0     C15377   6.146  11.203   7.546 -0.0221 -0.0354 -1.0407
  837MOL0     C15378   6.176  11.331   7.623  0.4938 -0.0611  0.4325
  837MOL0     C15379   6.319  11.397   7.606  0.3628  0.4186  0.5626
  837MOL0     C15380   6.370  11.403   7.457  0.1764  0.5219 -0.3928
  837MOL0     C15381   6.505  11.474   7.451 -0.1249  0.4186 -0.2808
  837MOL0     C15382   6.625  11.382   7.493 -0.7914  0.3899  0.6112
  837MOL0     C15383   6.744  11.475   7.499 -0.6273  0.2762  0.1026
  837MOL0     C15384   6.873  11.389   7.519 -0.6108 -1.1862  0.1275
  837MOL0     N15385   6.988  11.464   7.588  0.7495  0.1563  0.9069
  837MOL0     C15386   7.041  11.580   7.547  0.0060 -0.0446  0.1552
  837MOL0     C15387   7.136  11.612   7.636 -0.9116  1.5840 -0.0949
  837MOL0     C15388   7.223  11.740   7.647 -0.1249 -0.4596 -0.4292
  837MOL0     C15389   7.319  11.773   7.532  1.2016  0.6803  0.5429
  837MOL0     C15390   7.251  11.833   7.416 -0.8099 -0.0386 -0.0088
  837MOL0     C15391   7.335  11.840   7.294 -0.7509 -0.0668 -0.1085
  837MOL0     O15392   7.435  11.935   7.329 -0.5352  0.1535  0.3108
  837MOL0     C15393   7.541  11.945   7.238 -0.2534 -0.3292  0.2086
  837MOL0     C15394   7.560  11.872   7.115  0.6385  0.2253  0.1155
  837MOL0     C15395   7.673  11.890   7.036 -0.3755  0.0027 -0.3514
  837MOL0     C15396   7.687  11.789   6.929 -0.2110  0.6390  0.0632
  837MOL0     C15397   7.775  11.987   7.072  0.5846 -0.6777 -0.5963
  837MOL0     C15398   7.907  12.008   7.011 -0.2497  0.0938  0.2150
  837MOL0     O15399   7.989  12.103   7.058 -0.1610  0.3224 -0.2610
  837MOL0     C15400   8.114  12.116   7.008 -0.7575  0.5953  0.7772
  837MOL0     C15401   8.133  12.183   6.887 -0.2918  0.3907  0.8420
  837MOL0     C15402   8.272  12.198   6.848  0.1421  0.5895 -0.7265
  837MOL0     C15403   8.383  12.156   6.921  0.2645  0.4779  0.6179
  837MOL0     O15404   8.507  12.176   6.863 -0.2429 -0.1758 -0.2845
  837MOL0     C15405   8.598  12.265   6.935  0.7368  0.6596  0.4761
  837MOL0     C15406   8.714  12.305   6.842 -0.0819 -0.6214 -0.1882
  837MOL0     C15407   8.781  12.422   6.901  0.1902 -1.0115  0.0919
  837MOL0     C15408   8.924  12.451   6.851 -0.0240 -0.7543  0.8732
  837MOL0     C15409   8.998  12.560   6.924  0.0808 -0.5925  1.2531
  837MOL0     C15410   9.135  12.584   6.841 -0.2166  0.2680 -0.2378
  837MOL0     C15411   9.221  12.447   6.820 -0.1924 -0.3223  0.9919
  837MOL0     C15412   9.371  12.486   6.790  0.1104  0.4788  0.0968
  837MOL0    Cl15413   9.386  12.520   6.618 -0.2943  0.4185  0.0186
  837MOL0     C15414   8.359  12.094   7.042 -0.1066 -0.8617  0.1115
  837MOL0     C15415   8.225  12.080   7.087  0.1887 -0.6459  0.2006
  837MOL0     O15416   7.930  11.937   6.912 -0.4867 -0.2702 -0.3201
  837MOL0     C15417   7.752  12.068   7.186  0.1935  0.2977 -0.7553
  837MOL0     C15418   7.641  12.041   7.273  0.0602 -1.1176  0.7779
  837MOL0     N15419   7.157  11.498   7.719 -0.1334  0.6940 -0.1594
  837MOL0     N15420   7.062  11.414   7.691 -0.5631 -0.4829  1.2504
  837MOL0     C15421   6.422  10.966   7.498 -0.1400 -0.6372  0.4416
  837MOL0     C15422   6.469  10.865   7.410  0.0402  0.6701  0.7455
  837MOL0     C15423   6.472  10.595   7.016  0.2637  0.3422  0.4481
  837MOL0     C15424   6.583  10.658   6.968 -0.1603  0.6416 -0.2626
  837MOL0     C15425   6.664  10.607   6.867  0.5329 -0.4448 -0.0568
  837MOL0     C15426   6.642  10.486   6.812  0.0502  1.5069 -0.3848
  837MOL0     O15427   6.721  10.427   6.711  0.3106  0.1088 -0.4843
  837MOL0     C15428   6.791  10.518   6.626  1.4385 -0.3011 -0.0235
  837MOL0     C15429   6.867  10.437   6.514  0.3741 -0.3312  0.2950
  837MOL0     C15430   6.979  10.349   6.565 -0.1814 -0.0086  0.1353
  837MOL0     C15431   7.094  10.436   6.609 -0.3438  0.7908 -0.2016
  837MOL0     C15432   7.219  10.369   6.583  0.5604  0.5720 -0.1342
  837MOL0     C15433   7.318  10.307   6.555  0.0534  0.2996 -0.2746
  837MOL0     C15434   6.530  10.410   6.865 -0.8891 -0.4637  0.2826
  837MOL0     C15435   6.443  10.463   6.959  0.7125 -0.6024 -0.8778
  837MOL0     C15436   6.324  10.381   7.006  0.3844 -0.3913 -0.3970
  837MOL0     H15437   6.205  10.847   7.206 -0.8214 -1.7256  1.3193
  837MOL0     H15438   6.114  11.003   7.364 -1.4972 -1.5520  0.1324
  837MOL0     H15439   6.047  11.157   7.551  0.2728 -0.5218  1.1997
  837MOL0     H15440   6.157  11.230   7.440 -0.6699 -2.0510 -1.6583
  837MOL0     H15441   6.103  11.407   7.595  0.9276  0.3285  0.3376
  837MOL0     H15442   6.156  11.320   7.730  1.1223  0.1857  0.5793
  837MOL0     H15443   6.316  11.496   7.652 -2.0158  1.2047 -1.1092
  837MOL0     H15444   6.382  11.327   7.663 -1.7145 -0.8727  1.3844
  837MOL0     H15445   6.377  11.310   7.401 -2.5589  1.2666 -2.1787
  837MOL0     H15446   6.295  11.472   7.416 -0.0345  1.4956  1.5080
  837MOL0     H15447   6.510  11.571   7.502  1.3936 -0.3911  1.2197
  837MOL0     H15448   6.524  11.493   7.345  1.6493 -0.0978 -0.0841
  837MOL0     H15449   6.604  11.350   7.596 -0.6201  0.2814  0.6117
  837MOL0     H15450   6.636  11.289   7.437 -0.0059  0.9588 -0.1953
  837MOL0     H15451   6.724  11.550   7.577  0.0900  1.3403 -0.7123
  837MOL0     H15452   6.747  11.529   7.404  0.5299 -0.7084 -0.4330
  837MOL0     H15453   6.850  11.310   7.591  1.1776 -0.3895  1.6558
  837MOL0     H15454   6.892  11.337   7.425 -0.9259 -1.4761  0.2236
  837MOL0     H15455   7.003  11.646   7.471 -1.1315  1.4844  1.9678
  837MOL0     H15456   7.279  11.734   7.740 -2.6505 -1.5737  1.1339
  837MOL0     H15457   7.162  11.830   7.644  1.9715  1.0045 -2.0107
  837MOL0     H15458   7.393  11.848   7.561 -0.7616  2.3202  1.6048
  837MOL0     H15459   7.370  11.679   7.508  0.4874  0.2295  0.7557
  837MOL0     H15460   7.160  11.775   7.396 -1.3526  0.4486  0.9465
  837MOL0     H15461   7.223  11.931   7.457  0.2080  0.1987  0.1490
  837MOL0     H15462   7.377  11.742   7.271 -0.0513  0.0509  0.6224
  837MOL0     H15463   7.271  11.879   7.214 -2.5760 -0.8386  0.9141
  837MOL0     H15464   7.480  11.802   7.095 -0.6253  1.4278  0.7754
  837MOL0     H15465   7.771  11.721   6.948  0.0338  1.5087  2.5042
  837MOL0     H15466   7.704  11.839   6.834 -2.7842  0.4037 -0.6090
  837MOL0     H15467   7.593  11.733   6.919  0.5500 -1.6017  3.6165
  837MOL0     H15468   8.053  12.225   6.827 -0.2401 -1.7102 -0.8009
  837MOL0     H15469   8.289  12.250   6.755 -1.0848  2.3368 -0.0303
  837MOL0     H15470   8.532  12.347   6.964 -1.0368 -0.6318  0.2337
  837MOL0     H15471   8.642  12.221   7.026  0.0115 -0.4531  0.3070
  837MOL0     H15472   8.790  12.226   6.837  0.5790  0.0370 -0.8367
  837MOL0     H15473   8.678  12.333   6.743 -2.1049 -0.0192  0.6829
  837MOL0     H15474   8.785  12.415   7.010 -0.3066  0.6443  0.2541
  837MOL0     H15475   8.716  12.508   6.882  3.0068  1.7377  1.8976
  837MOL0     H15476   8.914  12.472   6.744 -2.3860  3.6147  1.7249
  837MOL0     H15477   8.981  12.358   6.858  0.7035 -0.2763  1.4403
  837MOL0     H15478   8.939  12.651   6.925  0.1959 -0.5016  0.5022
  837MOL0     H15479   9.018  12.529   7.027 -0.3216 -2.5755  0.7769
  837MOL0     H15480   9.188  12.670   6.883 -1.7414  0.2789  1.8203
  837MOL0     H15481   9.111  12.606   6.736  1.7059  0.5729 -0.6577
  837MOL0     H15482   9.180  12.389   6.737 -0.1063 -1.9132  2.0097
  837MOL0     H15483   9.213  12.396   6.916 -2.3546  0.9656  1.5533
  837MOL0     H15484   9.439  12.403   6.813 -1.0689  0.0394  2.3243
  837MOL0     H15485   9.390  12.570   6.857  2.6434 -0.5769  0.8102
  837MOL0     H15486   8.446  12.063   7.100  2.3912  1.3795 -2.1832
  837MOL0     H15487   8.191  12.027   7.176  1.9813 -1.6623  0.3275
  837MOL0     H15488   7.823  12.147   7.208 -0.8778  0.9178  0.6374
  837MOL0     H15489   7.626  12.081   7.373 -2.5269  0.0437 -0.0072
  837MOL0     H15490   6.488  10.995   7.579 -0.5343 -2.4496  1.4582
  837MOL0     H15491   6.563  10.813   7.423 -0.4839 -1.3851 -2.4203
  837MOL0     H15492   6.619  10.751   7.010  2.3782 -0.4492  0.1692
  837MOL0     H15493   6.751  10.666   6.839  2.0001 -2.0155  0.9450
  837MOL0     H15494   6.710  10.575   6.581 -0.9440 -2.4728  1.2771
  837MOL0     H15495   6.858  10.589   6.676 -1.7417  0.7570  3.1273
  837MOL0     H15496   6.898  10.512   6.441  0.3899 -1.0265 -0.4265
  837MOL0     H15497   6.789  10.372   6.475  0.0882 -0.2950  0.7940
  837MOL0     H15498   6.942  10.280   6.641 -1.1692  0.5645  0.1887
  837MOL0     H15499   7.018  10.282   6.488 -0.3710  1.4089 -1.2400
  837MOL0     H15500   7.085  10.450   6.717 -0.1913  2.2147 -0.3523
  837MOL0     H15501   7.099  10.530   6.552 -1.9975  0.4810 -0.9156
  837MOL0     H15502   7.402  10.242   6.543 -0.5857 -0.7639  0.7432
  837MOL0     H15503   6.529  10.308   6.826  2.0103 -0.3436 -0.3324
  837MOL0     H15504   6.326  10.377   7.116 -0.1325 -1.8650 -0.4179
  837MOL0     H15505   6.227  10.406   6.962  0.8329 -0.0755 -1.2074
  837MOL0     H15506   6.343  10.278   6.974  1.9268 -0.3765  0.3814
  838MOL0     O15507   5.318   3.513   6.917 -0.7046  0.3908 -0.8723
  838MOL0     C15508   5.232   3.456   6.849  0.4610 -0.1396  0.2292
  838MOL0     O15509   5.178   3.338   6.883 -0.6097 -0.0562 -0.3047
  838MOL0     C15510   5.237   3.263   6.977 -0.6876 -0.7857  1.0624
  838MOL0     C15511   5.233   3.303   7.114  0.3811 -0.3199  0.0972
  838MOL0     C15512   5.288   3.214   7.207 -0.3683 -0.1880  0.2627
  838MOL0     C15513   5.355   3.097   7.162 -0.0712  0.3784  0.1655
  838MOL0     O15514   5.409   3.021   7.264  0.2949  0.0658  0.1684
  838MOL0     C15515   5.512   2.914   7.234  0.1611  0.2964  0.0939
  838MOL0     C15516   5.640   2.973   7.163  0.6089  0.0205  0.7910
  838MOL0     C15517   5.742   2.861   7.127  0.2168  0.1187  0.0696
  838MOL0     C15518   5.837   2.934   7.036  0.3384 -0.4936 -0.2734
  838MOL0     C15519   5.952   2.839   6.982 -0.6733 -1.4650  0.2468
  838MOL0     C15520   5.889   2.732   6.888 -0.4977 -0.0456 -0.2887
  838MOL0     C15521   6.000   2.678   6.796  0.1166  0.7420  0.0947
  838MOL0     C15522   5.931   2.572   6.715  0.6439  0.2648  1.0537
  838MOL0     N15523   6.016   2.535   6.596  0.4389  0.3465 -0.0341
  838MOL0     C15524   6.123   2.451   6.595  0.2961  0.2550 -0.6532
  838MOL0     C15525   6.158   2.457   6.466 -0.6807 -0.6614 -0.6045
  838MOL0     C15526   6.282   2.382   6.409  0.2419  0.3924  0.1234
  838MOL0     C15527   6.412   2.449   6.468 -1.1210  0.2602 -0.5199
  838MOL0     C15528   6.524   2.384   6.386  0.6217  0.0203 -0.4791
  838MOL0     C15529   6.645   2.469   6.371 -0.2332 -0.2955  0.1169
  838MOL0     O15530   6.747   2.389   6.309  0.2241 -0.0123 -0.3931
  838MOL0     C15531   6.873   2.435   6.320  0.2939  0.1528 -0.2241
  838MOL0     C15532   6.985   2.354   6.282 -0.1218 -0.6218 -0.2147
  838MOL0     C15533   7.118   2.407   6.267  0.6352  0.7358  0.6640
  838MOL0     C15534   7.226   2.312   6.228  0.0627 -0.2571 -0.1753
  838MOL0     C15535   7.136   2.534   6.304  0.5065 -0.3303 -0.7735
  838MOL0     C15536   7.269   2.590   6.321  0.7287 -1.0274 -0.0531
  838MOL0     O15537   7.352   2.535   6.413  0.2753 -0.4412 -0.2132
  838MOL0     C15538   7.491   2.539   6.398  0.4022 -0.5525  0.2430
  838MOL0     C15539   7.559   2.478   6.505 -0.8238  0.0784 -0.6396
  838MOL0     C15540   7.704   2.476   6.507 -0.1170  0.2899  0.8088
  838MOL0     C15541   7.774   2.547   6.416  0.3505  0.3248 -0.4371
  838MOL0     O15542   7.910   2.534   6.408  0.2681  0.1446 -0.6718
  838MOL0     C15543   7.952   2.450   6.302  0.5814 -0.3801 -0.4326
  838MOL0     C15544   8.061   2.347   6.339  0.4081  0.1096  1.1362
  838MOL0     C15545   8.203   2.411   6.305 -0.3041 -0.3813 -0.5031
  838MOL0     C15546   8.317   2.335   6.371 -0.2372  0.6828  0.3461
  838MOL0     C15547   8.452   2.376   6.313  0.1818 -0.1167  0.4744
  838MOL0     C15548   8.559   2.356   6.423  0.9031 -0.0511 -0.0002
  838MOL0     C15549   8.696   2.413   6.393 -0.8015  0.7538 -0.2910
  838MOL0     C15550   8.696   2.565   6.403 -0.7216  0.3607 -0.4507
  838MOL0    Cl15551   8.856   2.641   6.388  1.0316 -0.2213 -0.0529
  838MOL0     C15552   7.700   2.609   6.314 -0.0576 -0.3932  0.3498
  838MOL0     C15553   7.563   2.600   6.294  0.0660  0.4886  0.8858
  838MOL0     O15554   7.288   2.686   6.245  0.3818 -0.2442 -0.4318
  838MOL0     C15555   7.034   2.614   6.353  0.3515 -0.0839 -0.3068
  838MOL0     C15556   6.905   2.564   6.357  0.5734  0.2462 -0.1924
  838MOL0     N15557   6.061   2.521   6.389 -0.5528  0.0423 -0.3580
  838MOL0     N15558   5.979   2.574   6.470  0.1111 -0.4769 -0.4442
  838MOL0     C15559   5.365   3.074   7.026 -0.1441  0.1118  0.4418
  838MOL0     C15560   5.309   3.154   6.929 -0.1134  0.6837  0.7909
  838MOL0     C15561   5.181   3.526   6.730 -0.2121  0.1116  0.2706
  838MOL0     C15562   5.072   3.457   6.663  0.2660 -0.7278  0.4119
  838MOL0     C15563   5.019   3.512   6.545 -0.3820  0.1070 -0.4868
  838MOL0     C15564   5.061   3.639   6.501  0.6939  0.2098  0.0495
  838MOL0     O15565   5.004   3.713   6.394  0.4632  0.1343 -0.3001
  838MOL0     C15566   4.895   3.658   6.317 -0.4746  0.1135 -0.1301
  838MOL0     C15567   4.892   3.729   6.181  0.2811 -0.2590 -0.0049
  838MOL0     C15568   4.764   3.706   6.097 -0.1437  0.5681  0.1379
  838MOL0     C15569   4.630   3.764   6.165 -0.2233 -0.1764 -0.1782
  838MOL0     C15570   4.623   3.906   6.159  0.4719 -0.1931 -0.0229
  838MOL0     C15571   4.596   4.028   6.167 -0.1666 -0.5191 -0.1542
  838MOL0     C15572   5.166   3.696   6.558  0.2165 -0.3486 -0.5898
  838MOL0     C15573   5.221   3.650   6.678  0.5163 -0.8236  0.2352
  838MOL0     C15574   5.327   3.736   6.737  1.1782 -0.0192  0.1018
  838MOL0     H15575   5.207   3.401   7.153  1.7106  0.3291 -0.5739
  838MOL0     H15576   5.302   3.240   7.312 -1.1848 -2.3538  0.9575
  838MOL0     H15577   5.465   2.839   7.170 -4.0325  1.1570  1.8377
  838MOL0     H15578   5.545   2.877   7.331 -2.8901 -1.5232  0.5703
  838MOL0     H15579   5.613   3.023   7.070 -0.2997  0.8572  1.4799
  838MOL0     H15580   5.687   3.039   7.237  0.6843  1.1280 -0.2273
  838MOL0     H15581   5.793   2.825   7.216  1.5199  1.5169 -0.0531
  838MOL0     H15582   5.685   2.784   7.075 -1.0540 -0.5385  2.3170
  838MOL0     H15583   5.786   2.983   6.953 -2.5091  0.0789  1.6841
  838MOL0     H15584   5.877   3.011   7.102 -1.1418  0.3861 -0.3726
  838MOL0     H15585   5.997   2.793   7.071 -1.9661 -4.1650 -0.3791
  838MOL0     H15586   6.027   2.900   6.931 -3.3685  1.0047 -0.9806
  838MOL0     H15587   5.844   2.650   6.945 -0.8358 -0.4882 -1.1724
  838MOL0     H15588   5.805   2.778   6.835 -0.7335  2.6504  2.1883
  838MOL0     H15589   6.074   2.625   6.858 -0.9289  0.4379  1.1308
  838MOL0     H15590   6.051   2.753   6.736  3.1274 -2.3246 -1.5634
  838MOL0     H15591   5.908   2.489   6.782  3.5423 -0.9919  0.6492
  838MOL0     H15592   5.836   2.607   6.675  0.7926 -2.0757 -1.6115
  838MOL0     H15593   6.173   2.391   6.671  1.4854 -0.5392 -2.0037
  838MOL0     H15594   6.275   2.380   6.300 -2.4320  3.0831  0.1262
  838MOL0     H15595   6.274   2.281   6.450  0.3120 -0.2180 -1.2852
  838MOL0     H15596   6.416   2.556   6.447 -0.9533  0.4366  0.3934
  838MOL0     H15597   6.416   2.415   6.571  2.5468 -1.9203 -1.2276
  838MOL0     H15598   6.557   2.289   6.429  2.2982  2.1852  3.5006
  838MOL0     H15599   6.485   2.368   6.285  0.9573 -0.5577 -0.5194
  838MOL0     H15600   6.624   2.550   6.301 -0.4863 -0.0538  0.4708
  838MOL0     H15601   6.674   2.510   6.469  0.3488  3.5950 -1.4797
  838MOL0     H15602   6.963   2.250   6.260  0.3001 -0.3227 -2.2393
  838MOL0     H15603   7.195   2.259   6.138 -2.4727 -2.0240  1.5936
  838MOL0     H15604   7.247   2.237   6.305  2.5372  0.2983 -0.1979
  838MOL0     H15605   7.316   2.369   6.204 -1.4446  1.8145 -1.2198
  838MOL0     H15606   7.500   2.425   6.579 -0.1857 -0.3878 -0.4617
  838MOL0     H15607   7.760   2.426   6.585  0.5705  1.5820  1.1696
  838MOL0     H15608   7.870   2.381   6.282  1.7440 -2.3100  1.0494
  838MOL0     H15609   7.975   2.508   6.212 -0.7808  0.7100 -0.1006
  838MOL0     H15610   8.053   2.313   6.443 -0.4195 -1.7365  0.5167
  838MOL0     H15611   8.041   2.263   6.272  0.4945  1.2420 -0.3707
  838MOL0     H15612   8.198   2.513   6.343 -0.0300  0.0429 -1.5740
  838MOL0     H15613   8.221   2.409   6.197 -3.0183 -0.7703 -1.0246
  838MOL0     H15614   8.302   2.227   6.357 -1.0513  0.5578  1.9140
  838MOL0     H15615   8.315   2.348   6.480  1.4166 -0.1341  0.5023
  838MOL0     H15616   8.483   2.317   6.227  2.5867  2.3513 -0.4938
  838MOL0     H15617   8.447   2.482   6.287  0.0979  0.4548  2.6189
  838MOL0     H15618   8.577   2.250   6.443  1.6206  0.3102  1.4396
  838MOL0     H15619   8.514   2.385   6.519 -0.7447 -1.6559 -0.2266
  838MOL0     H15620   8.734   2.384   6.295  1.1794  0.1513  0.6116
  838MOL0     H15621   8.760   2.376   6.473 -0.9642  1.4089  0.1557
  838MOL0     H15622   8.652   2.605   6.494 -0.5805 -0.7770  0.1265
  838MOL0     H15623   8.638   2.601   6.317 -1.1849 -2.2703 -1.3141
  838MOL0     H15624   7.756   2.673   6.247 -1.8935 -0.3988 -1.3152
  838MOL0     H15625   7.523   2.657   6.211  0.8081 -0.8684 -0.4559
  838MOL0     H15626   7.057   2.714   6.389 -1.0478 -0.6494  2.4020
  838MOL0     H15627   6.828   2.633   6.391  0.5195 -0.1958  0.6109
  838MOL0     H15628   5.407   2.981   6.991  0.5484  0.5457  0.1102
  838MOL0     H15629   5.315   3.130   6.823 -0.9023  2.2143  0.3686
  838MOL0     H15630   5.031   3.368   6.710  1.8466  0.3686  4.2519
  838MOL0     H15631   4.933   3.469   6.494 -1.3694  2.6147 -1.0719
  838MOL0     H15632   4.907   3.550   6.309 -1.4613 -0.0269  0.1988
  838MOL0     H15633   4.807   3.671   6.380 -1.5446  1.1382 -1.7586
  838MOL0     H15634   4.971   3.689   6.117 -2.1749 -0.8194 -2.9373
  838MOL0     H15635   4.913   3.837   6.184 -1.3886  0.1233 -0.6684
  838MOL0     H15636   4.769   3.765   6.005 -0.7164  0.2228 -0.1217
  838MOL0     H15637   4.757   3.600   6.071 -1.5938  0.6378  0.1449
  838MOL0     H15638   4.638   3.722   6.266  1.9998 -0.4464 -0.4113
  838MOL0     H15639   4.548   3.723   6.106 -0.1481  2.1700 -2.0575
  838MOL0     H15640   4.570   4.131   6.175  0.7263 -0.4548  3.4846
  838MOL0     H15641   5.200   3.790   6.515  0.0154  0.5822  1.1773
  838MOL0     H15642   5.414   3.679   6.770 -0.2369 -0.0031  4.3943
  838MOL0     H15643   5.364   3.811   6.666 -2.0829  0.8471 -0.8834
  838MOL0     H15644   5.277   3.793   6.816 -0.2281  1.8061 -1.9509
  839MOL0     O15645   0.067   1.217  10.280 -0.5528 -0.2437 -0.0852
  839MOL0     C15646   0.105   1.194  10.393  0.0242  1.1146  1.5285
  839MOL0     O15647   0.234   1.180  10.424  0.1079  0.5452  0.0262
  839MOL0     C15648   0.324   1.159  10.318 -0.1382 -0.5810 -0.0775
  839MOL0     C15649   0.355   1.033  10.274 -0.4474 -0.3849 -0.2628
  839MOL0     C15650   0.439   1.004  10.167 -1.0843  0.2818  0.0934
  839MOL0     C15651   0.511   1.117  10.112 -0.7503  0.2720 -0.6681
  839MOL0     O15652   0.610   1.105  10.009 -0.1590  0.2598  0.0103
  839MOL0     C15653   0.591   0.989   9.924  0.3187 -0.0962  0.1022
  839MOL0     C15654   0.683   0.997   9.806  0.7959  0.6722 -0.8813
  839MOL0     C15655   0.836   0.970   9.827  0.4893  0.0227  0.6376
  839MOL0     C15656   0.907   0.999   9.696 -0.2000  0.7576  0.5438
  839MOL0     C15657   1.060   0.977   9.727  0.7769 -0.0016 -0.2365
  839MOL0     C15658   1.137   0.982   9.591  0.6405 -0.1719  0.4207
  839MOL0     C15659   1.288   0.979   9.612  0.4172 -0.2041 -0.4452
  839MOL0     C15660   1.360   0.964   9.476  0.1970  0.5221 -1.8503
  839MOL0     N15661   1.490   1.025   9.479 -0.1554  0.2029 -1.1894
  839MOL0     C15662   1.540   1.134   9.415 -0.3321 -0.4078  0.0243
  839MOL0     C15663   1.656   1.166   9.478  0.9104  0.0766 -0.1133
  839MOL0     C15664   1.762   1.269   9.443 -0.2667  0.1888  0.2265
  839MOL0     C15665   1.804   1.253   9.293 -0.1204  0.0585 -0.0281
  839MOL0     C15666   1.912   1.348   9.249 -0.1442 -1.2087 -0.8701
  839MOL0     C15667   1.967   1.306   9.115  0.4479  1.1047  0.0544
  839MOL0     O15668   2.060   1.206   9.142 -0.0242  0.0448  0.4108
  839MOL0     C15669   2.193   1.239   9.145  0.2317  0.6463  0.2593
  839MOL0     C15670   2.278   1.126   9.149 -0.0630 -0.4151 -0.1654
  839MOL0     C15671   2.417   1.149   9.172 -0.4102 -0.1281  0.0505
  839MOL0     C15672   2.508   1.036   9.191  0.6162 -0.2041  0.1416
  839MOL0     C15673   2.475   1.280   9.179 -0.0093  0.4318 -0.3733
  839MOL0     C15674   2.622   1.316   9.189 -0.5032 -0.5267  0.3620
  839MOL0     O15675   2.650   1.441   9.245  0.2606  0.5295  0.0447
  839MOL0     C15676   2.790   1.469   9.257  0.2372 -0.6512  0.9778
  839MOL0     C15677   2.847   1.495   9.383 -0.3691 -1.0730  0.1295
  839MOL0     C15678   2.982   1.541   9.384 -0.1439  0.9627  0.4103
  839MOL0     C15679   3.057   1.554   9.264  0.7191  0.5714 -0.0069
  839MOL0     O15680   3.188   1.593   9.261  0.3516 -0.4677  0.1043
  839MOL0     C15681   3.242   1.639   9.387 -0.6437 -0.0188 -0.3643
  839MOL0     C15682   3.388   1.665   9.373 -0.5789 -0.2831  0.6011
  839MOL0     C15683   3.477   1.543   9.366  0.0914  0.2015  0.2730
  839MOL0     C15684   3.613   1.576   9.402 -0.2726 -0.4555  0.2347
  839MOL0     C15685   3.709   1.492   9.314 -0.0850 -0.1198  0.0379
  839MOL0     C15686   3.856   1.552   9.336 -0.2091 -0.4532 -0.1981
  839MOL0     C15687   3.959   1.459   9.280  0.7789  0.2611 -0.5976
  839MOL0     C15688   3.993   1.334   9.360 -0.3667 -0.5548  0.1576
  839MOL0    Cl15689   4.111   1.247   9.284 -0.0326  0.4451  0.1165
  839MOL0     C15690   2.995   1.531   9.140 -0.4179 -0.2054 -0.0320
  839MOL0     C15691   2.861   1.488   9.139  0.6747  0.0064 -0.5964
  839MOL0     O15692   2.710   1.240   9.150 -0.0359 -0.0843 -0.4589
  839MOL0     C15693   2.384   1.388   9.169  0.4736 -0.4800 -0.6271
  839MOL0     C15694   2.246   1.368   9.157 -0.7246 -0.0872  0.4471
  839MOL0     N15695   1.679   1.069   9.571 -0.3431 -0.3512  0.4467
  839MOL0     N15696   1.585   0.984   9.565 -0.1006  0.6248 -0.2247
  839MOL0     C15697   0.476   1.251  10.148 -0.7225 -0.8497  0.1487
  839MOL0     C15698   0.382   1.266  10.254  0.7435  0.0081  0.0460
  839MOL0     C15699   0.010   1.197  10.502 -0.4210  0.7797 -0.4839
  839MOL0     C15700   0.054   1.147  10.630 -0.5178 -0.2637 -0.4053
  839MOL0     C15701  -0.024   1.150  10.745  0.4906 -0.0781 -0.3038
  839MOL0     C15702  -0.154   1.202  10.744 -0.7022  0.2587 -0.2245
  839MOL0     O15703  -0.222   1.202  10.862  0.3240  0.2500 -1.4445
  839MOL0     C15704  -0.362   1.150  10.858  0.0832 -0.9621 -0.7247
  839MOL0     C15705  -0.457   1.261  10.906 -0.6950  0.1354 -0.3020
  839MOL0     C15706  -0.602   1.234  10.948  0.5276 -0.4585 -0.5857
  839MOL0     C15707  -0.693   1.170  10.846 -0.6849 -0.0040 -0.4098
  839MOL0     C15708  -0.723   1.255  10.735  0.3551  0.0781 -0.2559
  839MOL0     C15709  -0.752   1.304  10.626  0.2453 -0.8845 -0.0577
  839MOL0     C15710  -0.202   1.241  10.614  0.2085  0.1572  0.3750
  839MOL0     C15711  -0.129   1.233  10.494 -0.3039  0.4007 -0.1339
  839MOL0     C15712  -0.209   1.273  10.373  0.0189 -0.5136 -0.3159
  839MOL0     H15713   0.276   0.960  10.291 -0.1082 -1.1433 -1.7994
  839MOL0     H15714   0.434   0.899  10.140 -1.0666  0.0007  1.1440
  839MOL0     H15715   0.487   0.992   9.889  0.8147 -0.0197 -1.4346
  839MOL0     H15716   0.618   0.900   9.981  3.3351  0.8872  0.3794
  839MOL0     H15717   0.648   0.930   9.727 -0.7904  0.0870  0.2732
  839MOL0     H15718   0.675   1.104   9.783  1.3405  0.6973 -0.9743
  839MOL0     H15719   0.878   1.043   9.896 -0.0024 -0.0094  0.9759
  839MOL0     H15720   0.853   0.867   9.860 -0.8130 -0.8724 -1.2675
  839MOL0     H15721   0.878   0.926   9.620 -1.4881 -0.2693  1.9825
  839MOL0     H15722   0.892   1.100   9.655 -0.0404  1.7555  2.7961
  839MOL0     H15723   1.071   0.877   9.768 -3.7003 -0.4374  0.4211
  839MOL0     H15724   1.094   1.057   9.794 -0.7250  0.8555 -0.4616
  839MOL0     H15725   1.108   0.893   9.535 -0.0354  0.2816  0.0399
  839MOL0     H15726   1.114   1.071   9.533  1.7215 -1.4328 -2.1003
  839MOL0     H15727   1.309   0.898   9.683  0.1019  0.6640  0.6836
  839MOL0     H15728   1.308   1.080   9.650 -3.0333  0.8931 -1.1297
  839MOL0     H15729   1.375   0.858   9.454  1.7267 -0.5838  3.1656
  839MOL0     H15730   1.294   0.996   9.395  2.8423  2.5739 -3.3423
  839MOL0     H15731   1.498   1.208   9.347 -1.6812 -0.8464  0.3482
  839MOL0     H15732   1.854   1.276   9.502  0.2621  0.7267 -0.6331
  839MOL0     H15733   1.720   1.370   9.454 -0.8292  0.0837 -0.8393
  839MOL0     H15734   1.846   1.153   9.288 -1.4700 -0.5283 -0.1803
  839MOL0     H15735   1.716   1.258   9.228  1.0164  0.4741 -1.5845
  839MOL0     H15736   1.875   1.451   9.242  2.7394  0.2183  2.3243
  839MOL0     H15737   1.997   1.346   9.318 -1.7763 -1.2541  1.2395
  839MOL0     H15738   1.889   1.266   9.050  2.6106 -0.9144 -1.4335
  839MOL0     H15739   2.004   1.396   9.066 -0.0689  1.0117 -0.5121
  839MOL0     H15740   2.240   1.024   9.149  2.2715 -1.3295  0.2128
  839MOL0     H15741   2.547   1.048   9.293 -1.0456  2.5439  0.5493
  839MOL0     H15742   2.587   1.027   9.116 -0.1160 -1.5681 -0.4919
  839MOL0     H15743   2.448   0.946   9.173 -0.4847  0.5605 -0.1038
  839MOL0     H15744   2.788   1.499   9.474 -1.4889  1.7928 -0.6090
  839MOL0     H15745   3.018   1.564   9.484  1.8088 -1.1336  0.2867
  839MOL0     H15746   3.195   1.733   9.414  0.2929  0.3524  0.0441
  839MOL0     H15747   3.232   1.565   9.468 -1.4559  1.2842  0.7674
  839MOL0     H15748   3.412   1.719   9.281 -1.1040 -2.2341 -0.7402
  839MOL0     H15749   3.428   1.737   9.446  2.8426 -1.2205 -0.1701
  839MOL0     H15750   3.465   1.498   9.267 -0.7771 -0.0980  0.4999
  839MOL0     H15751   3.445   1.467   9.437  0.6320 -1.1179 -0.8579
  839MOL0     H15752   3.633   1.561   9.509  1.0454  0.8872  0.2186
  839MOL0     H15753   3.644   1.676   9.372  0.8249 -0.5101  1.1299
  839MOL0     H15754   3.714   1.386   9.341  1.8024 -0.0029  0.2519
  839MOL0     H15755   3.687   1.507   9.208 -0.1160 -1.8711 -0.2325
  839MOL0     H15756   3.885   1.567   9.440  0.8971 -3.6701  0.0901
  839MOL0     H15757   3.855   1.651   9.290 -2.6186  2.0300  4.4307
  839MOL0     H15758   4.056   1.507   9.287  2.4328 -2.7699 -0.9974
  839MOL0     H15759   3.936   1.435   9.175 -1.2290  1.9120 -0.6024
  839MOL0     H15760   3.903   1.272   9.373 -1.0316  0.0883 -1.1279
  839MOL0     H15761   4.025   1.346   9.464  2.2168 -0.6967 -0.5645
  839MOL0     H15762   3.035   1.536   9.039 -2.8850  1.2556 -1.0138
  839MOL0     H15763   2.808   1.471   9.045 -1.0547  1.3042  0.0901
  839MOL0     H15764   2.417   1.491   9.182  1.1100 -0.9819  2.6029
  839MOL0     H15765   2.186   1.459   9.154 -2.1662 -0.9119  2.3347
  839MOL0     H15766   0.527   1.335  10.102  0.5640 -1.1491  0.9849
  839MOL0     H15767   0.345   1.364  10.283  1.5026 -0.5462  3.4102
  839MOL0     H15768   0.153   1.102  10.633 -0.8259 -0.9957 -0.8503
  839MOL0     H15769   0.028   1.125  10.837  0.5995 -0.5563 -0.4923
  839MOL0     H15770  -0.396   1.113  10.761 -0.3010 -0.3241 -0.8367
  839MOL0     H15771  -0.352   1.067  10.929  1.4720 -1.4426 -1.4565
  839MOL0     H15772  -0.461   1.336  10.827  0.7556 -1.0047 -1.5216
  839MOL0     H15773  -0.406   1.304  10.993 -0.4969  1.2385 -0.9488
  839MOL0     H15774  -0.596   1.165  11.033 -0.3495 -3.4939 -2.7949
  839MOL0     H15775  -0.648   1.328  10.979 -0.4259 -0.8491 -0.7747
  839MOL0     H15776  -0.785   1.142  10.899 -1.1851  1.0567 -0.6942
  839MOL0     H15777  -0.661   1.073  10.806 -0.3093 -1.2426  2.5849
  839MOL0     H15778  -0.769   1.347  10.530  1.8538  0.2769  0.1439
  839MOL0     H15779  -0.306   1.269  10.603  0.9003  3.2374  0.5115
  839MOL0     H15780  -0.148   1.326  10.299 -0.9150  0.5246 -0.3586
  839MOL0     H15781  -0.239   1.180  10.323 -0.5839 -1.5377  1.8079
  839MOL0     H15782  -0.286   1.345  10.402  2.6243  2.8886 -1.2911
  840MOL0     O15783   5.233   4.543   5.411 -0.1474  0.4131  0.2630
  840MOL0     C15784   5.175   4.458   5.345 -0.3436 -0.7382  0.2417
  840MOL0     O15785   5.225   4.343   5.289  0.4536 -0.5231  0.6866
  840MOL0     C15786   5.347   4.292   5.328 -0.3528  0.3794 -0.2701
  840MOL0     C15787   5.410   4.208   5.236 -0.7147  0.0270 -0.4858
  840MOL0     C15788   5.539   4.150   5.262  0.5967  0.3031 -0.5728
  840MOL0     C15789   5.591   4.164   5.392 -0.2654  0.0589 -0.7239
  840MOL0     O15790   5.707   4.099   5.427 -0.1405  0.6416 -0.1096
  840MOL0     C15791   5.697   3.961   5.388 -0.4778 -0.4925 -0.1688
  840MOL0     C15792   5.819   3.899   5.443  0.3163  0.7397 -0.2189
  840MOL0     C15793   5.815   3.753   5.442  0.1699 -0.1564  0.2409
  840MOL0     C15794   5.926   3.687   5.522 -0.6195 -0.1123 -0.3367
  840MOL0     C15795   6.069   3.713   5.469 -0.1569  0.4670  0.1104
  840MOL0     C15796   6.176   3.685   5.578 -0.3540 -0.2895 -0.1602
  840MOL0     C15797   6.302   3.749   5.523  0.4764  0.5965 -0.0044
  840MOL0     C15798   6.415   3.731   5.623  0.1912 -0.4580  0.8854
  840MOL0     N15799   6.484   3.602   5.632 -0.3823  0.1386  0.3486
  840MOL0     C15800   6.446   3.517   5.725 -0.6298  0.6532  0.2793
  840MOL0     C15801   6.542   3.420   5.718  0.7335 -0.3458 -0.2949
  840MOL0     C15802   6.543   3.305   5.804  0.4249  0.0499  0.5786
  840MOL0     C15803   6.614   3.183   5.749 -0.4323 -0.3822 -0.3659
  840MOL0     C15804   6.768   3.203   5.767  1.8136 -0.6470  0.2683
  840MOL0     C15805   6.840   3.066   5.794  0.4334 -0.3988  0.3382
  840MOL0     O15806   6.844   2.993   5.665 -0.5440 -0.3269  0.4029
  840MOL0     C15807   6.956   2.925   5.618 -0.1205  0.7990 -0.4443
  840MOL0     C15808   6.930   2.871   5.500 -0.5370  0.0212 -0.1885
  840MOL0     C15809   7.024   2.803   5.428 -0.3309  0.5689  0.2477
  840MOL0     C15810   6.973   2.756   5.294  0.3444  0.3782 -0.0302
  840MOL0     C15811   7.150   2.777   5.485  0.1162  0.1526  0.4087
  840MOL0     C15812   7.245   2.675   5.430  0.5564  0.5384 -1.0076
  840MOL0     O15813   7.381   2.694   5.452  0.0344  0.0365  0.0374
  840MOL0     C15814   7.481   2.625   5.393  0.4368  0.3827  0.4447
  840MOL0     C15815   7.516   2.495   5.424  0.2204 -0.4896  0.3398
  840MOL0     C15816   7.609   2.424   5.345  0.5961 -0.3158  0.5250
  840MOL0     C15817   7.682   2.493   5.242  0.7008 -0.1003  0.9348
  840MOL0     O15818   7.770   2.433   5.158  0.2666 -0.1739 -0.2014
  840MOL0     C15819   7.791   2.292   5.183 -0.2261  0.2036  0.1425
  840MOL0     C15820   7.876   2.245   5.060 -0.7262  0.8249  0.1938
  840MOL0     C15821   8.025   2.287   5.054  0.3221 -0.3881 -0.2307
  840MOL0     C15822   8.107   2.220   5.163  0.1448  0.7839  0.4459
  840MOL0     C15823   8.237   2.303   5.191 -0.1537 -0.0679 -0.2521
  840MOL0     C15824   8.333   2.232   5.293  0.0586  0.2355 -0.7798
  840MOL0     C15825   8.474   2.296   5.281 -0.6650 -0.4076  0.3233
  840MOL0     C15826   8.557   2.273   5.406 -0.7516 -0.9354 -0.7088
  840MOL0    Cl15827   8.728   2.314   5.362 -0.1537  0.0771  0.0194
  840MOL0     C15828   7.664   2.631   5.225 -0.4479 -1.1815  0.3304
  840MOL0     C15829   7.554   2.693   5.296 -0.1335 -0.9774  0.0305
  840MOL0     O15830   7.193   2.572   5.379  0.0223  0.1546  0.8099
  840MOL0     C15831   7.173   2.824   5.616 -0.1433 -0.6653  0.0772
  840MOL0     C15832   7.076   2.902   5.680 -0.1533 -0.1494 -0.7362
  840MOL0     N15833   6.632   3.445   5.612  1.7343 -0.5746 -0.1603
  840MOL0     N15834   6.595   3.563   5.571 -0.2476  0.3734  0.2969
  840MOL0     C15835   5.529   4.243   5.487  0.0915  0.3293  0.7043
  840MOL0     C15836   5.413   4.303   5.451 -0.2751 -0.3839  0.8049
  840MOL0     C15837   5.035   4.482   5.336  0.0945 -0.2753  0.1368
  840MOL0     C15838   4.948   4.376   5.347  1.1691  0.1470 -0.0339
  840MOL0     C15839   4.804   4.395   5.339  0.6448 -0.3627 -0.2524
  840MOL0     C15840   4.748   4.523   5.313 -1.4467  0.0151 -0.2247
  840MOL0     O15841   4.614   4.552   5.312  0.6507 -0.0137 -0.3583
  840MOL0     C15842   4.516   4.472   5.378 -0.6441  0.5400  0.3032
  840MOL0     C15843   4.375   4.539   5.387  0.0852  0.1698 -0.3532
  840MOL0     C15844   4.366   4.656   5.491 -0.5692 -0.3049 -0.0712
  840MOL0     C15845   4.448   4.781   5.437  0.7776  0.3543 -0.4003
  840MOL0     C15846   4.400   4.908   5.511  0.0432  1.0946  0.5844
  840MOL0     C15847   4.354   5.004   5.565  0.8448 -0.6929 -0.5598
  840MOL0     C15848   4.843   4.624   5.292  0.2564 -0.4326 -0.7751
  840MOL0     C15849   4.979   4.605   5.302 -0.0354  0.7857 -0.7044
  840MOL0     C15850   5.070   4.722   5.284  0.4551  0.2920  0.2541
  840MOL0     H15851   5.359   4.209   5.140 -0.9658  3.2721 -0.4225
  840MOL0     H15852   5.605   4.108   5.186 -0.0713 -2.4977  0.3007
  840MOL0     H15853   5.705   3.961   5.279  2.0469  1.5433 -0.0874
  840MOL0     H15854   5.601   3.920   5.421  0.3362  0.1904  3.4219
  840MOL0     H15855   5.907   3.933   5.388  0.1026  1.8746  0.1303
  840MOL0     H15856   5.826   3.936   5.546 -0.4646  0.5258 -0.0877
  840MOL0     H15857   5.721   3.713   5.479  0.8580 -4.0083 -1.6606
  840MOL0     H15858   5.818   3.719   5.338 -2.5110  0.8420 -0.2397
  840MOL0     H15859   5.927   3.725   5.624 -0.8471 -2.0261  0.4276
  840MOL0     H15860   5.913   3.578   5.522 -0.4932 -0.1785  1.8405
  840MOL0     H15861   6.084   3.813   5.427  3.0058 -0.0079 -0.1245
  840MOL0     H15862   6.086   3.641   5.389  0.6082 -0.7985  1.3543
  840MOL0     H15863   6.147   3.740   5.668  0.6604  0.3183 -0.1864
  840MOL0     H15864   6.176   3.577   5.596 -0.4265 -0.3805 -0.7065
  840MOL0     H15865   6.287   3.856   5.506 -0.0518  0.1257 -2.9962
  840MOL0     H15866   6.330   3.702   5.429  0.2396 -0.3622  0.3951
  840MOL0     H15867   6.489   3.802   5.585 -0.2842 -0.1507  0.5107
  840MOL0     H15868   6.384   3.765   5.722 -2.6280  3.1060 -0.9752
  840MOL0     H15869   6.357   3.512   5.787 -1.1277  0.6674 -0.4163
  840MOL0     H15870   6.436   3.282   5.810  0.3772  0.3509  0.9121
  840MOL0     H15871   6.583   3.321   5.904  0.3927  0.3091  0.5506
  840MOL0     H15872   6.580   3.102   5.815 -0.5395  0.2346  0.3568
  840MOL0     H15873   6.589   3.161   5.645 -0.6219 -2.6267  0.0972
  840MOL0     H15874   6.804   3.242   5.672  0.2275  2.7258  0.9115
  840MOL0     H15875   6.791   3.276   5.845 -2.9260  0.0367  1.3116
  840MOL0     H15876   6.940   3.094   5.829  0.5399  1.1852 -1.1250
  840MOL0     H15877   6.789   3.003   5.868 -1.3192 -1.9663 -2.0580
  840MOL0     H15878   6.831   2.883   5.456 -0.2454 -0.7155 -1.0712
  840MOL0     H15879   6.908   2.829   5.245  0.0819  0.8179  0.9547
  840MOL0     H15880   6.922   2.662   5.320  2.4878 -0.6731  0.6117
  840MOL0     H15881   7.050   2.737   5.218  1.0761  1.0146  0.5428
  840MOL0     H15882   7.461   2.433   5.494  3.6875  0.1742  4.0344
  840MOL0     H15883   7.630   2.321   5.372  1.2668 -0.8163 -1.6369
  840MOL0     H15884   7.844   2.277   5.278 -2.9454 -1.7181  1.4640
  840MOL0     H15885   7.701   2.231   5.181 -0.4953  0.6170 -0.5291
  840MOL0     H15886   7.882   2.136   5.058  0.7040  0.8811  0.1933
  840MOL0     H15887   7.817   2.269   4.971 -2.5719 -1.0816  0.8110
  840MOL0     H15888   8.039   2.395   5.054 -1.1719 -0.1598 -0.6344
  840MOL0     H15889   8.071   2.241   4.966 -0.5238 -1.0911 -0.3260
  840MOL0     H15890   8.128   2.119   5.124 -0.2212  1.7823 -2.5633
  840MOL0     H15891   8.046   2.206   5.253 -1.4610  1.0211 -0.5601
  840MOL0     H15892   8.297   2.302   5.100 -0.1757 -2.5594 -0.3174
  840MOL0     H15893   8.215   2.406   5.218  1.4592 -0.2267  1.9223
  840MOL0     H15894   8.339   2.127   5.263 -3.0314  0.3600 -2.1963
  840MOL0     H15895   8.298   2.238   5.396  0.0341  0.7614 -0.8161
  840MOL0     H15896   8.463   2.403   5.260  3.1371  0.3535  1.5547
  840MOL0     H15897   8.534   2.253   5.200 -0.4547 -1.6522  1.1157
  840MOL0     H15898   8.547   2.167   5.430 -1.1785  0.0711  4.7840
  840MOL0     H15899   8.522   2.321   5.498 -1.4499 -1.2024 -0.8307
  840MOL0     H15900   7.729   2.684   5.157  0.6800 -1.4330  1.1727
  840MOL0     H15901   7.521   2.795   5.275 -1.9624 -1.9397 -2.2236
  840MOL0     H15902   7.257   2.784   5.671  0.2552  1.4935  1.1747
  840MOL0     H15903   7.095   2.928   5.783 -3.3981 -2.0480  0.4785
  840MOL0     H15904   5.563   4.265   5.588 -1.4319 -1.2794  1.6112
  840MOL0     H15905   5.360   4.364   5.524 -1.3804  1.7736 -1.6450
  840MOL0     H15906   4.983   4.275   5.369  2.1056  0.2404 -1.0088
  840MOL0     H15907   4.725   4.322   5.358 -1.8248  2.6064  1.9350
  840MOL0     H15908   4.503   4.380   5.319 -3.2306  1.5127 -0.7743
  840MOL0     H15909   4.547   4.442   5.479 -0.1999 -0.0480  0.0011
  840MOL0     H15910   4.303   4.463   5.417 -0.8647  1.2381  0.1453
  840MOL0     H15911   4.341   4.570   5.288 -2.1380 -0.5331  0.1404
  840MOL0     H15912   4.259   4.675   5.497 -0.4039  0.2646  2.1526
  840MOL0     H15913   4.395   4.634   5.595 -2.2520 -0.0809  0.4814
  840MOL0     H15914   4.420   4.791   5.332 -1.8861 -1.8121  0.0003
  840MOL0     H15915   4.556   4.774   5.456  0.3983 -1.6450  1.4813
  840MOL0     H15916   4.317   5.088   5.621 -2.0906 -2.6147  0.6530
  840MOL0     H15917   4.807   4.726   5.286  0.5719 -0.2670 -0.0344
  840MOL0     H15918   5.088   4.774   5.379 -0.3239  2.0113 -0.4942
  840MOL0     H15919   5.160   4.691   5.231 -0.0166 -1.6770  0.5463
  840MOL0     H15920   5.025   4.801   5.223  0.4816 -0.5323 -0.8668
  841MOL0     O15921   1.754  11.237   0.153 -0.4078 -0.2014 -0.6511
  841MOL0     C15922   1.666  11.250   0.069 -0.6240  0.3418 -0.2154
  841MOL0     O15923   1.677  11.214  -0.059  0.2320  0.4225  0.0321
  841MOL0     C15924   1.771  11.116  -0.099 -0.7116 -0.3153 -0.9662
  841MOL0     C15925   1.907  11.143  -0.097 -0.5761 -0.6223 -0.5316
  841MOL0     C15926   1.999  11.047  -0.145  0.8665  0.1584  0.2218
  841MOL0     C15927   1.957  10.922  -0.198 -0.0975  0.7954 -0.2029
  841MOL0     O15928   2.037  10.821  -0.245 -0.2411 -0.1417 -0.1371
  841MOL0     C15929   2.172  10.824  -0.207 -0.2161 -0.4568 -0.5997
  841MOL0     C15930   2.247  10.695  -0.249  0.1380  0.4925  0.9333
  841MOL0     C15931   2.400  10.696  -0.229  0.6803 -0.3206 -0.5452
  841MOL0     C15932   2.477  10.791  -0.325 -1.0667  0.0545  0.9253
  841MOL0     C15933   2.625  10.767  -0.328  0.5435  1.6679 -0.0793
  841MOL0     C15934   2.698  10.792  -0.200 -0.8898 -0.1880 -0.3030
  841MOL0     C15935   2.823  10.858  -0.244  0.0951  0.5195 -0.0002
  841MOL0     C15936   2.924  10.841  -0.126 -1.2279 -0.8623  0.9917
  841MOL0     N15937   3.045  10.914  -0.158 -0.1191  0.1674  0.3147
  841MOL0     C15938   3.064  11.043  -0.206  0.4324  1.0541  0.0295
  841MOL0     C15939   3.200  11.061  -0.213 -0.6019  0.1713 -0.2689
  841MOL0     C15940   3.279  11.189  -0.249 -0.0883  0.1478  0.1625
  841MOL0     C15941   3.247  11.299  -0.160  0.0655 -0.1888 -0.1406
  841MOL0     C15942   3.309  11.280  -0.015  0.5615  0.1537  0.9474
  841MOL0     C15943   3.243  11.384   0.071  0.2014 -0.0753 -0.0388
  841MOL0     O15944   3.095  11.382   0.083 -0.3221 -0.8288  0.2345
  841MOL0     C15945   3.032  11.468   0.168 -0.7517 -0.2741  0.4481
  841MOL0     C15946   3.096  11.542   0.262  0.7996  0.1864 -0.7925
  841MOL0     C15947   3.034  11.652   0.330  0.2507 -0.3995  0.0977
  841MOL0     C15948   3.120  11.731   0.414  0.0312  0.1786 -0.6729
  841MOL0     C15949   2.894  11.680   0.299  0.3606  0.1450 -0.0700
  841MOL0     C15950   2.805  11.770   0.364 -1.0498  0.6803 -0.3176
  841MOL0     O15951   2.672  11.779   0.320  0.7418 -0.4697  0.0750
  841MOL0     C15952   2.582  11.777   0.423 -0.4722 -0.8464  0.5430
  841MOL0     C15953   2.502  11.899   0.448 -0.9106  0.0644  0.0979
  841MOL0     C15954   2.405  11.909   0.541  0.1823  0.1907 -0.1354
  841MOL0     C15955   2.372  11.792   0.601  0.4234 -0.2575  0.2451
  841MOL0     O15956   2.266  11.804   0.681 -0.2771 -0.5933  0.5292
  841MOL0     C15957   2.141  11.761   0.622 -0.0785  0.6763  0.6228
  841MOL0     C15958   2.043  11.738   0.730  0.0737 -0.0487  0.1752
  841MOL0     C15959   2.010  11.881   0.789 -0.6318  0.0774  0.2621
  841MOL0     C15960   1.928  11.860   0.908  0.2397 -0.3421 -0.1543
  841MOL0     C15961   1.880  11.996   0.961  0.4706 -0.3839 -0.0582
  841MOL0     C15962   1.767  11.995   1.079 -0.0186  0.5029  0.1042
  841MOL0     C15963   1.745  12.136   1.120 -0.0774  0.2303  0.2193
  841MOL0     C15964   1.677  12.138   1.259 -0.2442  0.3601  1.0263
  841MOL0    Cl15965   1.783  12.101   1.391  0.0629 -0.2105 -0.2215
  841MOL0     C15966   2.432  11.672   0.587 -0.4271  0.6401  0.2302
  841MOL0     C15967   2.542  11.662   0.496 -0.3271 -0.7191  0.4321
  841MOL0     O15968   2.855  11.810   0.471 -0.2684 -0.0030 -0.2116
  841MOL0     C15969   2.833  11.596   0.201  0.3291 -0.3497 -0.3151
  841MOL0     C15970   2.907  11.501   0.133  0.2617 -0.5596 -0.0496
  841MOL0     N15971   3.258  10.944  -0.168 -0.2183 -1.2209  0.5308
  841MOL0     N15972   3.166  10.863  -0.132  0.0062 -0.4078  0.0072
  841MOL0     C15973   1.820  10.896  -0.195  0.2215 -0.1308 -0.3019
  841MOL0     C15974   1.727  10.988  -0.142 -0.0568  0.0218 -0.0331
  841MOL0     C15975   1.549  11.339   0.101 -1.2339 -0.1902  0.7485
  841MOL0     C15976   1.526  11.362   0.238  0.8049  0.5693 -0.9759
  841MOL0     C15977   1.426  11.447   0.282 -0.0406  0.3097  0.5213
  841MOL0     C15978   1.348  11.518   0.190  0.1952  0.0294 -0.2982
  841MOL0     O15979   1.260  11.621   0.224  0.9219  0.1657  0.3228
  841MOL0     C15980   1.170  11.580   0.328 -1.2505 -0.1305 -0.9441
  841MOL0     C15981   1.114  11.713   0.385 -0.6684 -0.4441  0.3652
  841MOL0     C15982   1.233  11.794   0.449 -0.2117  0.9525  1.0169
  841MOL0     C15983   1.177  11.882   0.557 -0.0850  0.8203 -0.0214
  841MOL0     C15984   1.123  11.810   0.673  0.7773 -0.0666 -0.3713
  841MOL0     C15985   1.089  11.756   0.779  0.2426  0.3764 -0.4584
  841MOL0     C15986   1.362  11.498   0.058  0.5026  0.0923 -0.4516
  841MOL0     C15987   1.458  11.402   0.007  0.0843  0.7318  0.7691
  841MOL0     C15988   1.464  11.376  -0.145 -0.2181 -0.1118  0.1856
  841MOL0     H15989   1.929  11.242  -0.059 -1.2028 -1.0978  1.1981
  841MOL0     H15990   2.104  11.074  -0.135  0.9071 -0.8869  3.7815
  841MOL0     H15991   2.183  10.835  -0.099  2.4879 -0.1579 -0.8436
  841MOL0     H15992   2.221  10.915  -0.243 -1.2471  0.0985 -0.6420
  841MOL0     H15993   2.196  10.608  -0.207  1.3385  0.0547  1.5058
  841MOL0     H15994   2.240  10.685  -0.358  0.4812  1.7025  0.7893
  841MOL0     H15995   2.418  10.717  -0.123 -0.1541  1.9660 -0.7873
  841MOL0     H15996   2.443  10.596  -0.231  1.5811  0.0595 -1.2539
  841MOL0     H15997   2.437  10.785  -0.426 -2.1585 -2.2179  1.4333
  841MOL0     H15998   2.460  10.898  -0.304 -0.3313 -0.0569  2.1794
  841MOL0     H15999   2.653  10.837  -0.407 -1.7702  5.1479  1.9001
  841MOL0     H16000   2.653  10.665  -0.355 -1.6888  0.8300  0.5120
  841MOL0     H16001   2.643  10.852  -0.126  0.8787 -1.2179  1.9886
  841MOL0     H16002   2.719  10.696  -0.151  0.3615 -0.1423 -0.7241
  841MOL0     H16003   2.808  10.965  -0.261  0.3095  1.0297  2.6355
  841MOL0     H16004   2.870  10.805  -0.328 -0.9409 -0.7648  0.1986
  841MOL0     H16005   2.882  10.882  -0.034 -0.3920 -0.9357  1.4079
  841MOL0     H16006   2.954  10.736  -0.118  0.7647 -0.3232  1.1421
  841MOL0     H16007   2.985  11.107  -0.242 -1.0860 -1.3455 -1.1861
  841MOL0     H16008   3.241  11.212  -0.349 -1.2143  1.0416  0.7751
  841MOL0     H16009   3.384  11.160  -0.258 -1.1042 -4.3356 -0.0168
  841MOL0     H16010   3.294  11.389  -0.202 -0.5583  1.2479  2.0400
  841MOL0     H16011   3.142  11.320  -0.138  0.5849 -0.7995  3.7098
  841MOL0     H16012   3.296  11.183   0.033  1.8131 -1.0875 -1.0616
  841MOL0     H16013   3.418  11.284  -0.009  0.7438 -0.9066 -0.7810
  841MOL0     H16014   3.296  11.385   0.167 -0.1317  2.6123  0.1856
  841MOL0     H16015   3.276  11.481   0.033  1.8576 -1.4615 -2.4476
  841MOL0     H16016   3.199  11.521   0.285  0.4910 -1.1575 -0.5566
  841MOL0     H16017   3.132  11.836   0.386  1.3096  0.7839  1.8751
  841MOL0     H16018   3.224  11.696   0.416 -0.4684 -1.4699 -1.5544
  841MOL0     H16019   3.084  11.728   0.517 -0.5975 -1.4324 -0.9110
  841MOL0     H16020   2.543  11.988   0.402  1.5815  0.1349  2.2231
  841MOL0     H16021   2.361  12.008   0.549  0.9023  0.6606 -1.4936
  841MOL0     H16022   2.105  11.823   0.540 -0.9694 -0.2295  0.3108
  841MOL0     H16023   2.168  11.664   0.580  1.0716  0.4543  1.8204
  841MOL0     H16024   1.951  11.695   0.691  2.1253 -3.0209 -1.7583
  841MOL0     H16025   2.087  11.659   0.791 -1.0576 -3.4743 -3.1144
  841MOL0     H16026   1.977  11.946   0.707 -0.0928 -1.1263 -0.9692
  841MOL0     H16027   2.097  11.936   0.826 -1.2554  1.4528 -0.2583
  841MOL0     H16028   1.981  11.808   0.988 -0.5379 -1.4529 -0.3362
  841MOL0     H16029   1.841  11.795   0.895 -0.7224  0.2140  2.7901
  841MOL0     H16030   1.966  12.055   0.995  0.2898  0.2845 -0.7531
  841MOL0     H16031   1.831  12.047   0.878  3.1406  0.0260 -1.5105
  841MOL0     H16032   1.806  11.939   1.165 -2.7909 -1.1231  0.4441
  841MOL0     H16033   1.676  11.947   1.042  1.2966  0.6664 -3.7162
  841MOL0     H16034   1.678  12.177   1.044  1.0608 -1.8825 -2.0775
  841MOL0     H16035   1.835  12.198   1.112 -1.2734  1.8698 -1.2418
  841MOL0     H16036   1.587  12.075   1.261 -0.2719  0.3888  2.6678
  841MOL0     H16037   1.639  12.240   1.263  3.0186  1.8814 -1.8130
  841MOL0     H16038   2.391  11.585   0.637 -2.6066 -0.8356 -3.7282
  841MOL0     H16039   2.600  11.572   0.479  0.0281 -0.5531  0.7645
  841MOL0     H16040   2.733  11.615   0.164  0.5943  0.2076 -0.7530
  841MOL0     H16041   2.868  11.441   0.052 -3.0597  2.0948 -0.6039
  841MOL0     H16042   1.783  10.804  -0.240  0.8056 -0.7198  0.4009
  841MOL0     H16043   1.622  10.961  -0.144  0.3103 -1.5158 -0.1817
  841MOL0     H16044   1.585  11.314   0.315 -1.3042 -1.5059 -0.5349
  841MOL0     H16045   1.402  11.475   0.384 -2.0430  1.9159 -0.3172
  841MOL0     H16046   1.093  11.524   0.274 -0.0936 -2.7927 -0.0178
  841MOL0     H16047   1.209  11.521   0.411 -1.0933  1.0374 -0.1713
  841MOL0     H16048   1.036  11.702   0.461  0.9093  2.9730  2.7579
  841MOL0     H16049   1.073  11.767   0.300  0.4449  1.2095  0.8295
  841MOL0     H16050   1.316  11.729   0.481  0.8082  0.0193 -2.9798
  841MOL0     H16051   1.265  11.862   0.370  2.1793 -0.6559  0.4782
  841MOL0     H16052   1.097  11.945   0.518 -1.0773  0.3417  1.1448
  841MOL0     H16053   1.253  11.953   0.589 -0.9232  1.0830  1.4819
  841MOL0     H16054   1.058  11.705   0.868  2.1675  1.2913  0.7987
  841MOL0     H16055   1.295  11.548  -0.011 -0.5734 -0.1090  0.4110
  841MOL0     H16056   1.396  11.433  -0.209 -0.1659  0.7989  0.9185
  841MOL0     H16057   1.566  11.410  -0.165  1.2108 -3.6495  0.7511
  841MOL0     H16058   1.452  11.272  -0.176  0.0447 -0.2713  0.6087
  842MOL0     O16059   1.020   3.402   7.339  0.2629 -0.0787 -0.0925
  842MOL0     C16060   0.949   3.445   7.429 -0.3774  0.2751  0.7229
  842MOL0     O16061   0.983   3.440   7.559  0.4548 -0.3768  0.2212
  842MOL0     C16062   1.110   3.396   7.593 -0.2644 -0.7367 -0.0829
  842MOL0     C16063   1.199   3.475   7.664  0.6400 -0.5807  0.2709
  842MOL0     C16064   1.321   3.436   7.691  0.3982  0.2036 -0.4578
  842MOL0     C16065   1.376   3.321   7.638 -0.1468  0.3174 -0.8281
  842MOL0     O16066   1.505   3.279   7.651  0.0948 -0.1522  0.8104
  842MOL0     C16067   1.598   3.364   7.710 -0.3630  0.4409 -0.2647
  842MOL0     C16068   1.636   3.329   7.856 -0.0674 -0.6268 -0.4119
  842MOL0     C16069   1.533   3.337   7.964  0.1170 -0.8552  0.9358
  842MOL0     C16070   1.424   3.222   7.956 -0.0949 -0.2959  0.1634
  842MOL0     C16071   1.315   3.230   8.057  1.1970  0.5763 -0.3690
  842MOL0     C16072   1.186   3.309   8.008  0.1462  0.8665  0.0623
  842MOL0     C16073   1.069   3.303   8.117  0.6616  0.2677  0.7032
  842MOL0     C16074   1.109   3.367   8.256  1.2463  0.2548 -0.3186
  842MOL0     N16075   1.134   3.514   8.224 -0.1861  0.0781  0.1891
  842MOL0     C16076   1.253   3.576   8.204 -0.5186  0.3098  0.0209
  842MOL0     C16077   1.235   3.708   8.186 -0.5703  0.3496 -0.3418
  842MOL0     C16078   1.343   3.806   8.167  0.3850  0.9068 -0.2270
  842MOL0     C16079   1.300   3.929   8.080  0.3562  0.4042  0.0439
  842MOL0     C16080   1.383   4.066   8.099  0.1095  1.2195 -0.3530
  842MOL0     C16081   1.526   4.056   8.125 -0.2793  0.4738  0.1965
  842MOL0     O16082   1.596   3.979   8.032  0.1566  0.3482  0.3175
  842MOL0     C16083   1.718   3.934   8.078  0.4124  0.2004  1.2153
  842MOL0     C16084   1.742   3.791   8.066  0.4195  0.2448  0.0208
  842MOL0     C16085   1.862   3.733   8.113  0.0875 -0.2127 -0.0453
  842MOL0     C16086   1.868   3.584   8.111 -0.5000 -0.8654  0.5835
  842MOL0     C16087   1.951   3.813   8.189  0.8529 -0.5100 -0.9444
  842MOL0     C16088   2.067   3.765   8.268  0.2110 -0.7444  0.1481
  842MOL0     O16089   2.155   3.857   8.313 -0.3665  0.1223  0.1956
  842MOL0     C16090   2.274   3.818   8.367  0.0030 -0.9252 -0.6837
  842MOL0     C16091   2.373   3.745   8.297  0.8730  0.2114 -0.1796
  842MOL0     C16092   2.490   3.698   8.356 -0.3236  0.8776  0.4865
  842MOL0     C16093   2.511   3.709   8.491 -0.0387  0.7648 -0.4331
  842MOL0     O16094   2.616   3.641   8.549 -0.4553  0.9238  0.8798
  842MOL0     C16095   2.745   3.674   8.500 -0.6376  0.6694  0.2039
  842MOL0     C16096   2.857   3.608   8.579 -0.0245  0.1175  0.2069
  842MOL0     C16097   2.997   3.668   8.538 -0.5562 -0.1464  0.8697
  842MOL0     C16098   3.103   3.611   8.627 -0.3774 -0.1684  0.2452
  842MOL0     C16099   3.241   3.666   8.592 -1.4546  0.1356  0.3198
  842MOL0     C16100   3.344   3.550   8.631 -0.3007 -0.7039  0.7909
  842MOL0     C16101   3.485   3.600   8.627 -0.9607 -0.1023  0.0017
  842MOL0     C16102   3.579   3.484   8.660 -0.5770  0.2624  0.4983
  842MOL0    Cl16103   3.745   3.511   8.589 -0.2226  0.9897  0.3993
  842MOL0     C16104   2.419   3.784   8.562  0.3304 -0.1647  0.6305
  842MOL0     C16105   2.311   3.838   8.502 -0.4298 -0.9455  0.1534
  842MOL0     O16106   2.081   3.644   8.277  0.6507  0.4847 -0.7295
  842MOL0     C16107   1.939   3.954   8.180  0.1403  0.7664 -0.3426
  842MOL0     C16108   1.820   4.014   8.127 -0.1473 -0.1410  0.5713
  842MOL0     N16109   1.098   3.727   8.215  0.1882  0.2948 -0.0703
  842MOL0     N16110   1.040   3.608   8.232 -0.6861  0.2119  0.5659
  842MOL0     C16111   1.296   3.236   7.566  0.1801  0.1222 -0.0127
  842MOL0     C16112   1.168   3.271   7.539  0.6704 -0.1880  0.3738
  842MOL0     C16113   0.817   3.502   7.399  0.1368  0.2631  0.4756
  842MOL0     C16114   0.748   3.572   7.498  0.0094 -0.1991  0.5683
  842MOL0     C16115   0.620   3.627   7.483  1.1521 -0.5939  0.3373
  842MOL0     C16116   0.549   3.599   7.369 -0.0394 -0.3119  0.6953
  842MOL0     O16117   0.427   3.655   7.359  0.2260 -0.0539 -0.0372
  842MOL0     C16118   0.336   3.611   7.260 -0.2903  0.9276 -0.4735
  842MOL0     C16119   0.228   3.717   7.263 -0.4611  0.6793 -0.1565
  842MOL0     C16120   0.120   3.685   7.158  0.6590  0.7580  0.0406
  842MOL0     C16121  -0.012   3.755   7.178  0.1777 -0.5735 -0.0799
  842MOL0     C16122  -0.006   3.899   7.160 -0.6218  0.2678 -0.6837
  842MOL0     C16123   0.005   4.018   7.133 -0.5617 -0.2231 -0.2180
  842MOL0     C16124   0.609   3.528   7.263  0.0094  0.3104 -0.6432
  842MOL0     C16125   0.746   3.479   7.278 -0.1218  0.6561 -0.3126
  842MOL0     C16126   0.800   3.408   7.154  0.1927 -0.7795  0.0812
  842MOL0     H16127   1.165   3.574   7.694 -0.2398  0.0844 -2.5675
  842MOL0     H16128   1.385   3.507   7.743 -0.5507  0.5906  0.2256
  842MOL0     H16129   1.574   3.471   7.702 -2.3795  0.1033  0.5678
  842MOL0     H16130   1.694   3.346   7.661  0.0967 -1.2714  1.2002
  842MOL0     H16131   1.674   3.227   7.865  2.2107  0.0233 -1.8445
  842MOL0     H16132   1.715   3.403   7.876 -1.2626  0.1287  1.9394
  842MOL0     H16133   1.567   3.327   8.068 -1.6539 -0.0354  1.6436
  842MOL0     H16134   1.492   3.438   7.955  1.6043 -0.2313  0.9205
  842MOL0     H16135   1.380   3.219   7.856  0.5849 -0.0708 -0.1534
  842MOL0     H16136   1.477   3.127   7.970 -1.8001 -1.1479  1.0085
  842MOL0     H16137   1.351   3.288   8.142  0.4612  3.7676 -2.0660
  842MOL0     H16138   1.281   3.128   8.079  0.9911  0.6997 -0.1082
  842MOL0     H16139   1.212   3.412   7.984 -1.3364  1.3331  0.3884
  842MOL0     H16140   1.148   3.265   7.915  1.0998  1.8214 -0.7914
  842MOL0     H16141   1.033   3.200   8.128  0.0831 -0.2880 -4.0707
  842MOL0     H16142   0.987   3.355   8.067  0.4702 -0.5357  0.1671
  842MOL0     H16143   1.021   3.364   8.322  1.5665  1.2050  0.1799
  842MOL0     H16144   1.195   3.320   8.303  0.7693  0.9169  1.3026
  842MOL0     H16145   1.350   3.526   8.210 -0.7907 -0.0803  1.6877
  842MOL0     H16146   1.436   3.760   8.132 -0.0973 -1.4913  1.4005
  842MOL0     H16147   1.363   3.842   8.268 -0.2211 -0.7730  0.5381
  842MOL0     H16148   1.297   3.896   7.975 -0.6046 -1.5420  0.6370
  842MOL0     H16149   1.198   3.959   8.105  1.2426  2.2409  1.7377
  842MOL0     H16150   1.374   4.135   8.015  0.9837  0.9386 -0.6932
  842MOL0     H16151   1.332   4.107   8.186  0.1062  0.3728  0.0584
  842MOL0     H16152   1.572   4.155   8.119  2.0783 -0.5463  0.3402
  842MOL0     H16153   1.544   4.026   8.229  0.1332  2.3118  0.6882
  842MOL0     H16154   1.663   3.736   8.016  1.1533  0.2514 -1.1661
  842MOL0     H16155   1.843   3.540   8.208 -0.4981 -2.3035 -0.0502
  842MOL0     H16156   1.967   3.562   8.070  0.8865  1.3058  2.4730
  842MOL0     H16157   1.788   3.551   8.044 -1.4863  0.0718  1.2663
  842MOL0     H16158   2.336   3.730   8.196 -2.1370  1.1750  0.6793
  842MOL0     H16159   2.552   3.636   8.292 -2.3667 -0.9649  0.1778
  842MOL0     H16160   2.749   3.623   8.403 -2.0304 -0.5324  0.7316
  842MOL0     H16161   2.757   3.783   8.496 -0.5335  0.6480 -0.1018
  842MOL0     H16162   2.846   3.638   8.683 -2.5994  2.0355 -0.5062
  842MOL0     H16163   2.850   3.499   8.574  0.8186  0.0609  0.0761
  842MOL0     H16164   2.990   3.777   8.550 -1.2399 -0.0958  0.0870
  842MOL0     H16165   3.022   3.645   8.435  0.3488 -0.6004  1.1879
  842MOL0     H16166   3.109   3.502   8.614  1.2939 -0.4594  2.8057
  842MOL0     H16167   3.082   3.632   8.732  1.8960  3.1615  0.1898
  842MOL0     H16168   3.250   3.690   8.486  2.2640 -1.7414  0.0313
  842MOL0     H16169   3.258   3.758   8.649 -2.4214  0.1159  0.6569
  842MOL0     H16170   3.329   3.465   8.564 -0.7775  0.3310 -0.4627
  842MOL0     H16171   3.323   3.522   8.734 -1.0996  0.0849  0.8515
  842MOL0     H16172   3.501   3.675   8.705  0.0183 -2.1723  1.9419
  842MOL0     H16173   3.500   3.649   8.531 -1.4151 -1.7294 -0.9337
  842MOL0     H16174   3.532   3.392   8.625 -0.3369 -0.8644  2.8695
  842MOL0     H16175   3.582   3.477   8.770 -2.4728  0.0217  0.5719
  842MOL0     H16176   2.429   3.790   8.670 -0.9723  1.9697  0.6843
  842MOL0     H16177   2.243   3.885   8.572 -1.2664 -2.1521  0.1864
  842MOL0     H16178   2.013   4.021   8.224  0.8177 -1.3306  1.9700
  842MOL0     H16179   1.796   4.120   8.129  0.2066  0.0284 -1.5675
  842MOL0     H16180   1.337   3.144   7.524  1.1132  0.4872  0.0674
  842MOL0     H16181   1.122   3.200   7.471 -1.7411  2.9639 -1.5629
  842MOL0     H16182   0.801   3.588   7.592 -1.4600  1.4383  1.1738
  842MOL0     H16183   0.575   3.679   7.567  2.6089  1.3019  0.0162
  842MOL0     H16184   0.378   3.604   7.159  1.2186 -0.0999  0.1926
  842MOL0     H16185   0.297   3.510   7.274  1.3558  0.1859 -0.9758
  842MOL0     H16186   0.273   3.815   7.244 -1.1939  0.8971 -0.8377
  842MOL0     H16187   0.192   3.725   7.366 -0.4066  2.8331 -0.2410
  842MOL0     H16188   0.166   3.692   7.059  3.1904  3.4571  1.2379
  842MOL0     H16189   0.089   3.584   7.183  0.7766  0.9926  1.1934
  842MOL0     H16190  -0.048   3.733   7.279 -2.3029 -3.8454 -1.4775
  842MOL0     H16191  -0.092   3.720   7.112  0.5750  0.4119 -1.1193
  842MOL0     H16192   0.011   4.121   7.107 -0.0672 -0.1665  0.0969
  842MOL0     H16193   0.560   3.505   7.169  2.1447  1.6786 -2.1932
  842MOL0     H16194   0.745   3.434   7.063  2.0479 -1.8630 -1.4104
  842MOL0     H16195   0.899   3.451   7.134 -0.3905  0.5181 -0.1340
  842MOL0     H16196   0.807   3.299   7.166 -2.5849 -1.1041 -0.5123
  843MOL0     O16197   4.920   9.346   6.262 -0.5764  0.5787 -0.1195
  843MOL0     C16198   4.957   9.403   6.156  0.4026 -0.7439 -0.1113
  843MOL0     O16199   4.865   9.437   6.053 -0.0197  0.3524  0.1845
  843MOL0     C16200   4.739   9.376   6.053 -1.1587  0.0851  0.6902
  843MOL0     C16201   4.634   9.436   6.123  0.2307 -0.5574 -0.5401
  843MOL0     C16202   4.510   9.362   6.122  0.5949  0.2871 -0.5985
  843MOL0     C16203   4.489   9.240   6.053 -0.3494 -0.6240 -0.1446
  843MOL0     O16204   4.370   9.165   6.050 -0.4136 -0.3297 -0.6039
  843MOL0     C16205   4.246   9.232   6.085 -0.8002  0.5179 -0.3464
  843MOL0     C16206   4.124   9.159   6.049  0.0698 -0.6061  0.3102
  843MOL0     C16207   4.075   9.064   6.155 -0.4364 -0.1040  0.0827
  843MOL0     C16208   3.958   8.979   6.100  0.5868  0.2303 -0.3123
  843MOL0     C16209   3.893   8.910   6.224  0.7499  0.5084 -0.8934
  843MOL0     C16210   3.770   8.820   6.185  0.2017  0.8194 -0.4621
  843MOL0     C16211   3.724   8.761   6.325  0.4234  0.4487 -0.0029
  843MOL0     C16212   3.577   8.714   6.333  0.0285  1.0842  0.4833
  843MOL0     N16213   3.521   8.713   6.461 -0.4446  0.0304 -0.0267
  843MOL0     C16214   3.574   8.645   6.570  0.2082 -0.1185 -0.1431
  843MOL0     C16215   3.484   8.672   6.675  0.2122 -0.3824  1.0194
  843MOL0     C16216   3.487   8.609   6.813  0.2125 -0.2655  0.1217
  843MOL0     C16217   3.398   8.488   6.830 -0.0466 -0.8218 -0.2541
  843MOL0     C16218   3.436   8.412   6.961  0.3311  0.0801 -0.3369
  843MOL0     C16219   3.328   8.304   6.971 -0.5749  0.2005 -0.3563
  843MOL0     O16220   3.382   8.195   7.041 -0.0506 -0.1536  0.1429
  843MOL0     C16221   3.441   8.091   6.974 -0.4655 -0.2689  0.0102
  843MOL0     C16222   3.422   7.974   7.038 -0.0142  0.5581  0.4445
  843MOL0     C16223   3.477   7.852   7.005 -0.1386  0.1804 -1.0350
  843MOL0     C16224   3.435   7.726   7.093 -0.3560 -0.5721 -0.4811
  843MOL0     C16225   3.579   7.850   6.900  0.4433 -0.0856 -0.3379
  843MOL0     C16226   3.654   7.727   6.854  0.0976  0.2956  0.5660
  843MOL0     O16227   3.742   7.749   6.750  0.0691 -0.4532  0.5884
  843MOL0     C16228   3.809   7.639   6.701  1.1580  0.1033  1.0210
  843MOL0     C16229   3.944   7.621   6.732  0.0248  0.5828  0.5648
  843MOL0     C16230   4.013   7.514   6.680  0.8282 -0.2382 -0.2516
  843MOL0     C16231   3.951   7.418   6.599  0.3249 -0.5401  0.2667
  843MOL0     O16232   4.016   7.305   6.558 -0.3073 -0.1933 -0.1085
  843MOL0     C16233   4.147   7.269   6.614  0.6876  0.5155  0.1488
  843MOL0     C16234   4.156   7.127   6.602 -0.5393  0.0995 -0.5999
  843MOL0     C16235   4.301   7.063   6.616  0.3511 -0.2685  0.5526
  843MOL0     C16236   4.283   6.912   6.585 -0.0177  0.3271  0.3402
  843MOL0     C16237   4.215   6.831   6.702 -0.1135  0.4499  0.4023
  843MOL0     C16238   4.307   6.812   6.817 -0.0073  0.1198 -0.0697
  843MOL0     C16239   4.244   6.720   6.927  0.3527  0.3690 -0.2242
  843MOL0     C16240   4.141   6.793   7.008 -0.2575  0.6325 -0.4399
  843MOL0    Cl16241   4.018   6.683   7.082  0.1402  0.6378  0.1757
  843MOL0     C16242   3.812   7.430   6.570  0.3873 -0.3002  0.5002
  843MOL0     C16243   3.748   7.541   6.621  0.5781 -0.2624 -0.1616
  843MOL0     O16244   3.629   7.620   6.906  0.3377 -0.7772 -0.0354
  843MOL0     C16245   3.591   7.973   6.832  1.6263  0.8279 -0.0265
  843MOL0     C16246   3.520   8.091   6.858  0.2192  0.8858  0.4386
  843MOL0     N16247   3.386   8.744   6.613  0.3527 -0.5403  0.5328
  843MOL0     N16248   3.415   8.787   6.496  0.0410 -0.2840  0.9444
  843MOL0     C16249   4.595   9.188   5.981  0.2376 -0.7172  0.7253
  843MOL0     C16250   4.723   9.259   5.984 -0.3795  0.4002  0.4834
  843MOL0     C16251   5.100   9.442   6.149 -1.0377  0.1706  0.3580
  843MOL0     C16252   5.167   9.392   6.033  0.5917 -0.3802  0.3977
  843MOL0     C16253   5.301   9.409   6.016 -0.6620 -0.1825 -0.1263
  843MOL0     C16254   5.382   9.464   6.116  0.5397  1.2256 -0.1858
  843MOL0     O16255   5.514   9.481   6.086  0.0139 -0.4134  0.8798
  843MOL0     C16256   5.605   9.555   6.173  0.2546 -0.3006 -0.7517
  843MOL0     C16257   5.741   9.567   6.100  0.4267 -0.3643  0.2198
  843MOL0     C16258   5.841   9.647   6.184 -0.0992  0.3723 -0.0696
  843MOL0     C16259   5.991   9.641   6.116 -0.0862  0.0143 -0.4826
  843MOL0     C16260   5.991   9.706   5.987 -0.8767  0.0903  0.4088
  843MOL0     C16261   5.966   9.744   5.869  0.5131  0.3214 -1.0086
  843MOL0     C16262   5.323   9.515   6.230 -0.0461 -0.8619 -0.2537
  843MOL0     C16263   5.184   9.507   6.252  0.1483  0.1550 -0.0924
  843MOL0     C16264   5.129   9.533   6.397 -0.6663  0.3778 -0.3238
  843MOL0     H16265   4.659   9.529   6.173  0.1989 -2.3978  3.2411
  843MOL0     H16266   4.429   9.395   6.186 -0.5448  0.6947 -2.1870
  843MOL0     H16267   4.238   9.328   6.031 -2.7083 -0.2524 -1.5450
  843MOL0     H16268   4.246   9.251   6.193 -0.3609  1.7322 -0.5398
  843MOL0     H16269   4.048   9.237   6.040  0.3178 -0.5657 -2.1995
  843MOL0     H16270   4.128   9.114   5.949  2.2422  0.8030 -0.3241
  843MOL0     H16271   4.153   8.992   6.181 -0.8098 -0.8620 -0.8046
  843MOL0     H16272   4.037   9.111   6.246 -2.0534 -0.9740 -0.1047
  843MOL0     H16273   3.889   9.047   6.050  1.2119  0.8801 -0.3156
  843MOL0     H16274   3.990   8.905   6.026  1.5310 -2.7468  2.8141
  843MOL0     H16275   3.867   8.975   6.307  1.5097 -1.2717  0.8142
  843MOL0     H16276   3.964   8.833   6.256 -0.3411 -1.6932 -3.3469
  843MOL0     H16277   3.696   8.875   6.126  0.2329 -0.5734 -1.8662
  843MOL0     H16278   3.796   8.743   6.112  2.7654  0.9638  0.2151
  843MOL0     H16279   3.733   8.846   6.393  0.0147  2.3244 -2.1289
  843MOL0     H16280   3.805   8.693   6.349  2.1429  1.8210 -1.5558
  843MOL0     H16281   3.513   8.769   6.263  0.2068 -0.2749 -0.7930
  843MOL0     H16282   3.568   8.608   6.306 -0.1711  0.6332  2.1845
  843MOL0     H16283   3.666   8.588   6.573  0.8614  0.8743 -0.7309
  843MOL0     H16284   3.460   8.682   6.889  0.1061  1.0397 -1.1231
  843MOL0     H16285   3.590   8.578   6.832 -0.1447 -1.5170  0.1026
  843MOL0     H16286   3.293   8.519   6.828 -1.6268 -5.4224 -0.3517
  843MOL0     H16287   3.410   8.417   6.748  2.3970 -1.3426  0.4905
  843MOL0     H16288   3.536   8.370   6.968 -0.2988 -1.2004  2.4125
  843MOL0     H16289   3.424   8.480   7.045  0.2267  0.0448 -0.3234
  843MOL0     H16290   3.244   8.344   7.029  1.2314  0.2039  2.4231
  843MOL0     H16291   3.301   8.273   6.869  0.7143 -0.1662 -0.5994
  843MOL0     H16292   3.367   7.964   7.132  0.7199 -0.6934  0.7671
  843MOL0     H16293   3.335   7.726   7.138 -0.3893  0.2721 -0.5393
  843MOL0     H16294   3.514   7.721   7.170 -1.3545 -0.1395  0.6113
  843MOL0     H16295   3.428   7.639   7.028  0.3380 -1.0433  0.0533
  843MOL0     H16296   3.995   7.704   6.779  0.8467  1.6745 -2.0758
  843MOL0     H16297   4.120   7.521   6.696  0.5780  0.3924  1.3757
  843MOL0     H16298   4.223   7.325   6.558  0.7792  1.2284  0.9606
  843MOL0     H16299   4.146   7.305   6.718 -0.4934 -0.7971  0.6257
  843MOL0     H16300   4.085   7.100   6.681 -1.3406 -0.4344 -1.4931
  843MOL0     H16301   4.109   7.097   6.508  0.5509 -0.9596 -0.8387
  843MOL0     H16302   4.336   7.079   6.718 -0.7603  5.1156  0.3768
  843MOL0     H16303   4.364   7.112   6.541 -0.8216 -0.1208 -0.3556
  843MOL0     H16304   4.384   6.882   6.557 -1.5935 -4.8184 -1.0134
  843MOL0     H16305   4.224   6.895   6.494 -0.4846 -0.3105  0.7475
  843MOL0     H16306   4.120   6.883   6.721 -0.8937  0.3171 -2.6062
  843MOL0     H16307   4.191   6.732   6.662 -0.3213  0.1904  1.1513
  843MOL0     H16308   4.331   6.910   6.859  1.9166 -0.8625  1.3189
  843MOL0     H16309   4.393   6.759   6.776 -0.6178 -0.5082 -0.5599
  843MOL0     H16310   4.325   6.678   6.987  0.5676 -0.5070 -1.1020
  843MOL0     H16311   4.200   6.633   6.879  1.3894 -1.6158  2.2337
  843MOL0     H16312   4.073   6.856   6.950 -1.6883 -0.2642  0.2224
  843MOL0     H16313   4.193   6.849   7.086  1.9108  1.0134 -2.0532
  843MOL0     H16314   3.752   7.358   6.516  1.2517  1.0587 -2.4917
  843MOL0     H16315   3.643   7.555   6.598  1.0563  2.6378 -1.0899
  843MOL0     H16316   3.655   7.975   6.745  2.2839 -0.7914  0.3760
  843MOL0     H16317   3.526   8.174   6.787  2.2127 -0.4734 -1.1003
  843MOL0     H16318   4.575   9.100   5.920  0.5339  1.3231 -2.5666
  843MOL0     H16319   4.805   9.226   5.921 -2.9032 -1.4902 -2.1314
  843MOL0     H16320   5.116   9.331   5.959  0.1221  0.6141 -0.1181
  843MOL0     H16321   5.346   9.380   5.922 -0.6629  3.9633 -1.6036
  843MOL0     H16322   5.564   9.656   6.184  1.7746  0.2047  0.7696
  843MOL0     H16323   5.608   9.499   6.267 -3.5493 -2.8087 -1.9211
  843MOL0     H16324   5.727   9.618   6.004 -3.2864  0.4302  1.0164
  843MOL0     H16325   5.756   9.461   6.081 -2.8312 -1.5342  3.0930
  843MOL0     H16326   5.814   9.753   6.176  0.4459  0.4915 -0.3772
  843MOL0     H16327   5.839   9.609   6.287 -1.1353  0.3022 -0.1067
  843MOL0     H16328   6.016   9.535   6.105 -0.1158 -0.0669  0.1877
  843MOL0     H16329   6.068   9.689   6.177 -1.1803 -0.4903  1.3709
  843MOL0     H16330   5.951   9.770   5.766  1.0641  0.1869 -1.1266
  843MOL0     H16331   5.386   9.549   6.311  1.7427 -3.7969 -0.2264
  843MOL0     H16332   5.181   9.616   6.445 -0.2940  0.1125 -0.2691
  843MOL0     H16333   5.022   9.555   6.388 -1.0993 -0.5977  1.7404
  843MOL0     H16334   5.135   9.443   6.460  0.2882  2.0132  2.0601
  844MOL0     O16335  11.210   5.930   8.139  0.1188 -0.7804  0.0182
  844MOL0     C16336  11.099   5.964   8.186  0.5522  1.1843  1.0236
  844MOL0     O16337  11.068   6.068   8.259 -0.0456 -0.1288 -0.0972
  844MOL0     C16338  11.171   6.125   8.332  0.3660 -0.2356 -0.7036
  844MOL0     C16339  11.221   6.054   8.447 -0.4121 -0.7669  0.4305
  844MOL0     C16340  11.316   6.118   8.525 -0.2947  0.8080 -0.8792
  844MOL0     C16341  11.368   6.238   8.502  0.4451 -0.5178  1.5081
  844MOL0     O16342  11.459   6.292   8.586  0.5600  0.2653 -0.2624
  844MOL0     C16343  11.541   6.409   8.552  1.1603 -0.4339 -0.4945
  844MOL0     C16344  11.652   6.429   8.648 -0.2495  0.3098 -0.1330
  844MOL0     C16345  11.749   6.544   8.615  0.0123 -0.4361  0.2398
  844MOL0     C16346  11.856   6.553   8.717 -0.6214  1.0098 -0.5881
  844MOL0     C16347  11.963   6.645   8.669  0.0609 -0.1211  0.5312
  844MOL0     C16348  11.935   6.787   8.720  0.0753 -0.1361 -0.3016
  844MOL0     C16349  12.021   6.888   8.641 -0.2652  0.2700  0.1193
  844MOL0     C16350  12.011   7.032   8.700 -0.3721 -0.3421 -0.1927
  844MOL0     N16351  12.097   7.130   8.620  0.8429  0.4396 -0.9063
  844MOL0     C16352  12.046   7.200   8.510 -0.8704 -1.1373  0.0565
  844MOL0     C16353  12.162   7.257   8.457  0.1035  1.3674 -0.2457
  844MOL0     C16354  12.177   7.305   8.314 -0.4485 -0.1227  0.2729
  844MOL0     C16355  12.060   7.245   8.226  0.6788  0.1429 -0.1887
  844MOL0     C16356  12.055   7.302   8.085  0.5485 -0.0727 -0.2054
  844MOL0     C16357  12.003   7.451   8.083 -0.2576 -0.4772  0.9837
  844MOL0     O16358  11.963   7.491   7.946  0.2267  0.5378 -0.6166
  844MOL0     C16359  12.057   7.564   7.884  0.5696 -0.3659  0.1730
  844MOL0     C16360  12.041   7.707   7.851 -0.6814  0.3018 -0.0779
  844MOL0     C16361  12.153   7.790   7.811  0.3733 -0.5549 -0.5759
  844MOL0     C16362  12.121   7.943   7.793 -0.0044  0.0283  0.3098
  844MOL0     C16363  12.279   7.726   7.783 -0.0762 -0.5896 -0.2829
  844MOL0     C16364  12.393   7.794   7.722 -0.5414 -0.1770 -0.7715
  844MOL0     O16365  12.456   7.722   7.632  0.0375 -0.2178 -0.2802
  844MOL0     C16366  12.573   7.764   7.576  0.4437 -0.7003 -0.4766
  844MOL0     C16367  12.622   7.669   7.477 -0.5331 -0.1353  0.3454
  844MOL0     C16368  12.736   7.690   7.407 -0.0202 -0.4756 -0.2115
  844MOL0     C16369  12.819   7.806   7.426  0.0554 -0.0247 -0.3453
  844MOL0     O16370  12.924   7.838   7.348 -0.7774 -0.1463 -0.7459
  844MOL0     C16371  12.971   7.764   7.238 -0.0258 -1.2540  0.4729
  844MOL0     C16372  13.104   7.805   7.186 -1.0121 -0.1918  0.1505
  844MOL0     C16373  13.116   7.942   7.131  0.1622 -0.2019  0.3537
  844MOL0     C16374  13.019   7.942   7.011  0.0442  0.2018  0.3849
  844MOL0     C16375  13.026   8.085   6.946  0.3171 -1.2250  0.6188
  844MOL0     C16376  12.919   8.096   6.833 -0.1641  0.9960 -0.4092
  844MOL0     C16377  12.958   8.200   6.738  0.2468  0.5636 -0.0855
  844MOL0     C16378  13.060   8.160   6.629 -0.2629 -0.7328 -0.3327
  844MOL0    Cl16379  12.962   8.088   6.493 -0.0858  0.2811  0.1847
  844MOL0     C16380  12.775   7.898   7.523  0.5633 -0.1774 -0.2719
  844MOL0     C16381  12.651   7.884   7.586  0.0510  0.1350 -0.9491
  844MOL0     O16382  12.424   7.905   7.758  0.2212 -0.5332 -0.0498
  844MOL0     C16383  12.290   7.587   7.803 -0.4926 -1.2711  0.3546
  844MOL0     C16384  12.185   7.505   7.846 -0.4252 -0.0562 -0.3431
  844MOL0     N16385  12.272   7.213   8.537  0.1766 -0.2122 -0.3135
  844MOL0     N16386  12.233   7.134   8.636  0.4981  0.0098 -0.1851
  844MOL0     C16387  11.314   6.306   8.396 -0.3494 -0.4159  0.0595
  844MOL0     C16388  11.219   6.256   8.308 -0.0897  0.6580 -0.0634
  844MOL0     C16389  10.994   5.857   8.171  0.5549 -0.1682  0.6193
  844MOL0     C16390  10.871   5.878   8.233  0.2101  0.2068  0.8674
  844MOL0     C16391  10.776   5.781   8.235 -0.5220  0.7473 -0.3087
  844MOL0     C16392  10.800   5.651   8.186 -0.7420  0.5369  0.1885
  844MOL0     O16393  10.724   5.544   8.198 -0.1634 -0.0574 -0.5980
  844MOL0     C16394  10.592   5.564   8.257 -0.4278  0.6968  0.1159
  844MOL0     C16395  10.532   5.421   8.258  0.0882  0.5237 -0.6183
  844MOL0     C16396  10.395   5.415   8.327 -0.2994 -0.9876 -0.3916
  844MOL0     C16397  10.345   5.271   8.315 -0.1700 -0.4126  0.7425
  844MOL0     C16398  10.207   5.257   8.360 -0.0694  0.6590  0.2348
  844MOL0     C16399  10.086   5.255   8.383 -0.6025  0.0021 -0.4558
  844MOL0     C16400  10.915   5.639   8.105 -0.1902  0.2224  0.0289
  844MOL0     C16401  11.018   5.733   8.098  0.4039 -0.6067  0.4932
  844MOL0     C16402  11.133   5.707   8.011  0.1934  0.3453 -0.0707
  844MOL0     H16403  11.181   5.957   8.475  1.5910 -2.1429 -1.1735
  844MOL0     H16404  11.352   6.073   8.617  0.8634  3.0376 -0.1559
  844MOL0     H16405  11.478   6.498   8.557  1.1089 -0.5381  1.9273
  844MOL0     H16406  11.579   6.403   8.449 -0.5702  0.0246 -1.1890
  844MOL0     H16407  11.602   6.467   8.738 -1.0636  4.1115 -1.9605
  844MOL0     H16408  11.701   6.334   8.671 -0.0821  0.1264 -1.1841
  844MOL0     H16409  11.790   6.547   8.514 -1.2904  3.8006 -0.3547
  844MOL0     H16410  11.682   6.631   8.618  1.2603  0.7269 -2.4428
  844MOL0     H16411  11.820   6.585   8.815  1.2901 -3.4558  1.9212
  844MOL0     H16412  11.888   6.450   8.739 -0.5299  1.6299  2.6973
  844MOL0     H16413  11.977   6.642   8.561 -1.9094  0.8026  0.2134
  844MOL0     H16414  12.057   6.598   8.700  1.4991  0.8917 -2.0304
  844MOL0     H16415  11.827   6.807   8.715 -0.1077 -1.2518 -1.1051
  844MOL0     H16416  11.961   6.788   8.826 -0.7143  0.4116 -0.1037
  844MOL0     H16417  11.993   6.889   8.535  0.4854  0.4175 -0.0841
  844MOL0     H16418  12.126   6.859   8.643 -0.6808 -1.7033  4.7680
  844MOL0     H16419  11.910   7.073   8.700 -0.7054 -1.1462 -0.9955
  844MOL0     H16420  12.051   7.033   8.802 -0.4986 -0.5850 -0.1418
  844MOL0     H16421  11.944   7.198   8.472 -1.2374 -3.0782  0.9876
  844MOL0     H16422  12.267   7.266   8.265 -0.5281  0.0734 -0.0338
  844MOL0     H16423  12.175   7.414   8.315  0.4660 -0.0502  3.0049
  844MOL0     H16424  12.077   7.137   8.225 -1.1895 -0.2135  0.9512
  844MOL0     H16425  11.964   7.269   8.273  0.3784 -0.8163 -0.2898
  844MOL0     H16426  12.153   7.288   8.040  0.0906  0.0616 -1.2718
  844MOL0     H16427  11.981   7.240   8.031 -1.2835 -0.5421  2.6143
  844MOL0     H16428  11.919   7.460   8.153 -0.0068 -4.0169  1.9696
  844MOL0     H16429  12.082   7.515   8.123 -0.6971 -0.0570  1.1851
  844MOL0     H16430  11.947   7.744   7.891  0.0219  0.3602  1.6177
  844MOL0     H16431  12.013   7.960   7.786 -0.2226 -1.9722 -2.7354
  844MOL0     H16432  12.167   7.980   7.702 -3.1201  0.7883 -1.0786
  844MOL0     H16433  12.151   8.004   7.879 -2.0894 -1.3264  2.1354
  844MOL0     H16434  12.576   7.574   7.452  0.8538 -0.6706 -0.2906
  844MOL0     H16435  12.766   7.620   7.330  0.4919 -0.0283 -0.4245
  844MOL0     H16436  13.003   7.666   7.275  1.4783 -0.6760  0.7716
  844MOL0     H16437  12.893   7.761   7.161  0.1134  1.1921  0.1443
  844MOL0     H16438  13.187   7.796   7.256  0.4561 -0.7620 -1.6121
  844MOL0     H16439  13.138   7.738   7.107 -0.7330  1.1301 -0.8803
  844MOL0     H16440  13.221   7.957   7.102 -0.2996  2.3203 -0.2844
  844MOL0     H16441  13.090   8.024   7.199 -0.3104  1.7848 -2.0496
  844MOL0     H16442  12.913   7.931   7.035 -0.6575  0.6582 -2.2109
  844MOL0     H16443  13.049   7.861   6.944 -0.8116  0.2441 -0.0648
  844MOL0     H16444  13.016   8.168   7.016  2.9506 -0.9799  0.8064
  844MOL0     H16445  13.126   8.101   6.905 -0.8925 -0.5423 -2.3271
  844MOL0     H16446  12.824   8.120   6.882  0.5540  1.9414  0.5616
  844MOL0     H16447  12.929   7.998   6.785 -0.2779  1.8470 -2.3004
  844MOL0     H16448  13.008   8.280   6.793 -2.4425  3.2990 -1.3623
  844MOL0     H16449  12.873   8.246   6.688 -0.1969 -1.7742 -1.6416
  844MOL0     H16450  13.138   8.092   6.664  0.6800 -0.4379 -1.7861
  844MOL0     H16451  13.112   8.249   6.592  0.8990 -1.9671 -1.7570
  844MOL0     H16452  12.843   7.975   7.557  1.8902 -0.4936 -2.0749
  844MOL0     H16453  12.632   7.958   7.663  2.6270 -1.0240  0.9667
  844MOL0     H16454  12.383   7.535   7.783  0.9628  0.9532  0.9899
  844MOL0     H16455  12.193   7.399   7.866  1.2518  0.1749  0.3637
  844MOL0     H16456  11.350   6.407   8.379  1.7872 -0.6497  2.6888
  844MOL0     H16457  11.183   6.310   8.221  0.2221 -1.1719 -1.3930
  844MOL0     H16458  10.840   5.975   8.271 -0.7167  1.2990 -2.3331
  844MOL0     H16459  10.681   5.804   8.282  1.2593 -0.2355  4.2803
  844MOL0     H16460  10.591   5.590   8.363 -1.9156 -0.0815  0.3114
  844MOL0     H16461  10.537   5.632   8.192  1.3620  2.6687  0.5541
  844MOL0     H16462  10.604   5.376   8.327 -0.4027  3.0009  1.6531
  844MOL0     H16463  10.528   5.379   8.156  1.7748 -1.4717  0.0620
  844MOL0     H16464  10.402   5.433   8.435  0.4340 -0.3586 -0.5406
  844MOL0     H16465  10.320   5.481   8.282 -1.1798 -1.3488  0.5043
  844MOL0     H16466  10.418   5.211   8.371 -0.0824 -0.6025  0.4316
  844MOL0     H16467  10.350   5.240   8.210  0.9304 -0.1339  0.6935
  844MOL0     H16468   9.981   5.237   8.385 -1.0020  2.0515 -1.0496
  844MOL0     H16469  10.937   5.553   8.043  3.5859 -0.0953  1.5489
  844MOL0     H16470  11.135   5.777   7.927 -1.3537  0.3248 -0.1506
  844MOL0     H16471  11.232   5.698   8.056  1.8259  1.3499 -3.1760
  844MOL0     H16472  11.123   5.605   7.972 -0.5822  0.2630  0.3260
  845MOL0     O16473   5.099   4.355   8.352  0.4307 -0.2527 -0.2129
  845MOL0     C16474   5.154   4.431   8.430 -0.1185  0.2509 -0.9253
  845MOL0     O16475   5.288   4.425   8.460 -0.6113  0.2898 -0.1268
  845MOL0     C16476   5.383   4.371   8.374  0.5503  0.2137  0.0450
  845MOL0     C16477   5.515   4.376   8.416 -0.8791  0.2112 -0.2918
  845MOL0     C16478   5.622   4.344   8.321  0.9873  0.6851  0.2922
  845MOL0     C16479   5.598   4.314   8.192  0.7616 -0.1785  0.0859
  845MOL0     O16480   5.697   4.268   8.110  0.1115  0.1704 -0.8837
  845MOL0     C16481   5.833   4.297   8.143 -0.6029 -0.0481 -0.5163
  845MOL0     C16482   5.925   4.280   8.020  0.4393 -0.0592 -0.0367
  845MOL0     C16483   5.922   4.128   7.985  0.8906  0.2129 -0.0350
  845MOL0     C16484   5.998   4.096   7.857 -0.5227  0.7648  0.2944
  845MOL0     C16485   6.005   3.942   7.827  0.3879  0.3664 -0.1402
  845MOL0     C16486   6.029   3.904   7.674 -1.2179  0.7791  0.3034
  845MOL0     C16487   6.169   3.938   7.631 -0.4030 -0.6501  0.5736
  845MOL0     C16488   6.186   3.958   7.477 -0.5331 -0.1977  0.5758
  845MOL0     N16489   6.319   3.997   7.423 -0.0172 -0.0164 -0.1670
  845MOL0     C16490   6.428   4.045   7.493 -0.1613 -0.4704  0.2241
  845MOL0     C16491   6.526   4.051   7.409 -0.1503 -0.2865  0.7918
  845MOL0     C16492   6.672   4.073   7.438 -0.3669  0.3886 -0.4863
  845MOL0     C16493   6.769   4.050   7.329 -0.2826  0.7034  0.1059
  845MOL0     C16494   6.764   4.165   7.229  0.1720 -0.0773  0.9979
  845MOL0     C16495   6.872   4.277   7.249  0.1741  0.2687 -0.1069
  845MOL0     O16496   6.898   4.341   7.133 -0.6192 -0.3991  0.5727
  845MOL0     C16497   6.974   4.275   7.041  0.3022 -0.2118  0.1505
  845MOL0     C16498   6.926   4.251   6.911 -0.1402  0.5783 -0.5208
  845MOL0     C16499   6.991   4.189   6.808  0.1231 -0.2230 -0.3087
  845MOL0     C16500   6.901   4.155   6.697 -0.4465 -0.4884  0.5028
  845MOL0     C16501   7.130   4.152   6.831 -0.2008 -0.5442 -0.2484
  845MOL0     C16502   7.216   4.102   6.724  0.4355  0.2776  0.8881
  845MOL0     O16503   7.344   4.063   6.757  0.0689  0.7990 -0.2158
  845MOL0     C16504   7.437   4.037   6.657 -0.5529  0.3905 -0.2363
  845MOL0     C16505   7.474   4.130   6.561 -0.2299  0.5196  0.0715
  845MOL0     C16506   7.592   4.109   6.482  0.5900  0.2197  0.1575
  845MOL0     C16507   7.657   3.985   6.477 -0.0520  0.5583 -1.2433
  845MOL0     O16508   7.759   3.969   6.386 -0.2229  0.1544 -0.1468
  845MOL0     C16509   7.834   3.841   6.387  0.0879 -0.3662 -1.2602
  845MOL0     C16510   7.965   3.858   6.314 -0.3182  0.1836  0.7909
  845MOL0     C16511   8.081   3.898   6.401 -0.6464 -0.5283  0.8753
  845MOL0     C16512   8.219   3.907   6.322 -0.2383  0.4776  0.1633
  845MOL0     C16513   8.336   3.934   6.408 -0.5150 -0.1663 -0.0657
  845MOL0     C16514   8.460   3.962   6.321  0.3641 -0.3041 -0.7218
  845MOL0     C16515   8.569   3.846   6.334  1.2661  0.4929 -1.2458
  845MOL0     C16516   8.696   3.894   6.273 -1.4576 -0.0227  0.6489
  845MOL0    Cl16517   8.826   3.766   6.261  0.2887 -0.1054 -0.6996
  845MOL0     C16518   7.604   3.885   6.561  0.5150 -1.0182  0.2913
  845MOL0     C16519   7.503   3.909   6.648 -0.1409 -0.0937  0.5393
  845MOL0     O16520   7.171   4.125   6.607 -0.5137 -0.1939  0.1414
  845MOL0     C16521   7.192   4.185   6.956 -0.6044  0.5454  1.7124
  845MOL0     C16522   7.112   4.241   7.060 -0.2404 -0.3834  0.2533
  845MOL0     N16523   6.479   4.018   7.283 -0.5999 -0.0012  0.2229
  845MOL0     N16524   6.354   4.003   7.289 -0.4333 -0.5375 -0.3365
  845MOL0     C16525   5.471   4.299   8.151  0.5696 -0.5867  0.6109
  845MOL0     C16526   5.363   4.326   8.240 -0.5519 -0.4765  0.0641
  845MOL0     C16527   5.089   4.554   8.481  0.2435 -0.1699  0.3099
  845MOL0     C16528   5.173   4.653   8.528  0.1848 -0.0284 -0.3393
  845MOL0     C16529   5.116   4.782   8.566  0.9597  0.3049  0.7547
  845MOL0     C16530   4.987   4.807   8.546 -0.1497 -0.4734 -0.0041
  845MOL0     O16531   4.947   4.936   8.574  0.2539  0.6556 -0.1363
  845MOL0     C16532   4.813   4.981   8.568  0.4611 -0.5216 -0.1782
  845MOL0     C16533   4.750   4.958   8.708 -0.2086 -0.9103 -0.3173
  845MOL0     C16534   4.599   4.970   8.711  0.3483 -0.5113 -0.2124
  845MOL0     C16535   4.562   5.119   8.693 -0.5743  0.8262  0.7230
  845MOL0     C16536   4.627   5.218   8.786  0.2077 -0.1674 -0.2032
  845MOL0     C16537   4.676   5.303   8.863  0.2923  0.4531  0.3333
  845MOL0     C16538   4.901   4.713   8.494 -1.0875  0.4448 -0.2075
  845MOL0     C16539   4.949   4.587   8.459  0.0227 -0.6141  0.0100
  845MOL0     C16540   4.844   4.498   8.396  0.5853  0.1783 -0.1406
  845MOL0     H16541   5.532   4.413   8.516 -0.3474 -0.3553 -0.1738
  845MOL0     H16542   5.727   4.338   8.350  1.6802 -0.3425 -2.1479
  845MOL0     H16543   5.876   4.233   8.220  2.1607  1.1809 -0.8950
  845MOL0     H16544   5.844   4.403   8.167 -0.4416 -0.1050 -0.3390
  845MOL0     H16545   5.887   4.345   7.940  0.0961  3.7728  2.9769
  845MOL0     H16546   6.027   4.312   8.041  0.0853  1.0955  0.0050
  845MOL0     H16547   5.964   4.071   8.068  1.7819 -0.2304 -0.7823
  845MOL0     H16548   5.817   4.097   7.975  1.1041 -0.4522 -0.2659
  845MOL0     H16549   5.951   4.147   7.772 -2.2781  0.1508  0.8586
  845MOL0     H16550   6.104   4.126   7.858 -0.2772 -0.0296 -0.4795
  845MOL0     H16551   5.908   3.902   7.859 -0.7522  3.1585  0.2037
  845MOL0     H16552   6.084   3.892   7.883 -0.0806  0.7938  0.9161
  845MOL0     H16553   6.017   3.798   7.650 -1.8592  0.8954  0.0979
  845MOL0     H16554   5.961   3.953   7.604 -0.0741 -0.8028 -2.0439
  845MOL0     H16555   6.251   3.879   7.671  3.2078  2.3749 -1.6902
  845MOL0     H16556   6.187   4.039   7.667  1.2868  0.3584 -2.6797
  845MOL0     H16557   6.158   3.859   7.438  0.0735 -1.3171  2.8137
  845MOL0     H16558   6.113   4.035   7.453  0.9034  1.2334  0.6291
  845MOL0     H16559   6.430   4.080   7.596 -0.4002  2.2125 -0.6000
  845MOL0     H16560   6.694   4.003   7.518 -1.3084  0.0521 -0.5208
  845MOL0     H16561   6.677   4.175   7.477 -0.4010  0.6096 -1.0425
  845MOL0     H16562   6.866   4.032   7.376 -0.3252 -0.8629 -0.3626
  845MOL0     H16563   6.742   3.957   7.279  1.3318 -0.5638  1.4751
  845MOL0     H16564   6.766   4.122   7.129  0.9385  0.5713  0.7279
  845MOL0     H16565   6.665   4.211   7.226 -1.5648 -3.5014  0.5620
  845MOL0     H16566   6.835   4.343   7.329 -1.2450 -0.1029 -0.4188
  845MOL0     H16567   6.962   4.226   7.284  0.0309 -0.4676 -0.7948
  845MOL0     H16568   6.825   4.287   6.896  0.1851  2.4210  1.2498
  845MOL0     H16569   6.949   4.082   6.631  2.4746 -1.9463  3.8719
  845MOL0     H16570   6.886   4.247   6.641 -1.6872  0.2696  2.0162
  845MOL0     H16571   6.801   4.126   6.731  0.6918 -0.4675  4.3219
  845MOL0     H16572   7.432   4.230   6.565  1.5375  1.2679  1.6028
  845MOL0     H16573   7.616   4.184   6.408 -2.9624  0.4359 -0.9600
  845MOL0     H16574   7.848   3.808   6.491 -3.8126  0.0565 -0.4481
  845MOL0     H16575   7.770   3.764   6.344  0.2174 -0.6597 -0.9346
  845MOL0     H16576   7.990   3.763   6.267 -1.8484 -0.6535  1.5860
  845MOL0     H16577   7.955   3.929   6.231  4.2167  0.7395  0.4949
  845MOL0     H16578   8.089   3.823   6.480  2.0210  0.3892  1.5853
  845MOL0     H16579   8.070   3.994   6.454  2.9150 -0.7267  2.2807
  845MOL0     H16580   8.211   3.985   6.246  1.3510  0.6909  0.1912
  845MOL0     H16581   8.246   3.817   6.266  2.7813  0.5226  1.3711
  845MOL0     H16582   8.316   4.035   6.445  0.0045  1.1202 -3.0465
  845MOL0     H16583   8.350   3.860   6.487 -1.7997  0.4007  0.7261
  845MOL0     H16584   8.502   4.061   6.341 -0.1215 -0.3134  0.3971
  845MOL0     H16585   8.440   3.956   6.214  1.4938 -1.3899 -0.8869
  845MOL0     H16586   8.532   3.757   6.283  2.7375 -0.4213 -0.7572
  845MOL0     H16587   8.581   3.823   6.440  1.7027  3.1305 -0.6468
  845MOL0     H16588   8.737   3.980   6.327 -1.0451  0.0298  0.2556
  845MOL0     H16589   8.664   3.942   6.181 -4.8522  1.7010  2.5478
  845MOL0     H16590   7.637   3.781   6.561 -4.0749 -2.7020  1.1230
  845MOL0     H16591   7.460   3.831   6.710 -1.7305  1.2619  1.2086
  845MOL0     H16592   7.292   4.143   6.967 -0.2630  0.4313 -1.1318
  845MOL0     H16593   7.156   4.259   7.157  0.2100 -1.6879  0.3086
  845MOL0     H16594   5.456   4.260   8.050 -1.4592 -0.7687  0.9415
  845MOL0     H16595   5.269   4.307   8.189 -0.6233 -2.8170  0.9504
  845MOL0     H16596   5.276   4.642   8.559 -0.0031  2.2324  1.3175
  845MOL0     H16597   5.189   4.853   8.604 -1.5538  1.1761  4.4558
  845MOL0     H16598   4.813   5.090   8.560  0.8232 -0.5289 -0.2536
  845MOL0     H16599   4.748   4.938   8.491 -0.1347  0.0642 -0.0133
  845MOL0     H16600   4.799   5.026   8.777  1.8890 -0.7344 -1.9009
  845MOL0     H16601   4.772   4.853   8.730 -1.6361 -0.9177  1.3015
  845MOL0     H16602   4.554   4.922   8.623  0.3265 -1.3684  0.2579
  845MOL0     H16603   4.561   4.939   8.809  0.0289  0.4660 -0.0157
  845MOL0     H16604   4.455   5.108   8.717 -0.6703 -0.3470 -0.1773
  845MOL0     H16605   4.575   5.154   8.590  2.5482  1.5664  1.2626
  845MOL0     H16606   4.709   5.394   8.908  1.0519  0.3321  0.0371
  845MOL0     H16607   4.796   4.733   8.474 -1.1705  0.8287  0.5522
  845MOL0     H16608   4.849   4.403   8.450 -1.1003  0.9115  1.3954
  845MOL0     H16609   4.743   4.541   8.404  1.7790  3.4689 -1.0444
  845MOL0     H16610   4.850   4.471   8.291 -1.2766 -1.7850  0.1888
  846MOL0     O16611  10.890   9.591   4.986 -0.8390  0.1173  0.0138
  846MOL0     C16612  10.880   9.574   5.105  0.5318  0.7914 -0.7318
  846MOL0     O16613  10.947   9.646   5.203  0.2769 -0.1811  1.0422
  846MOL0     C16614  11.043   9.725   5.153 -0.6036 -0.2294  0.3907
  846MOL0     C16615  11.020   9.862   5.158 -0.4332  0.2600  0.1980
  846MOL0     C16616  11.125   9.948   5.114 -0.7108  0.8292  0.5414
  846MOL0     C16617  11.246   9.897   5.058  0.0454  1.0918 -0.4345
  846MOL0     O16618  11.351   9.976   5.023  0.0640 -0.0205  0.9312
  846MOL0     C16619  11.315  10.106   4.980 -0.0492 -0.6717 -0.2568
  846MOL0     C16620  11.436  10.184   4.932  0.2667 -0.2729  0.4128
  846MOL0     C16621  11.423  10.335   4.949 -0.6190  0.6513 -0.0752
  846MOL0     C16622  11.559  10.405   4.901  1.4525  0.0188 -0.0703
  846MOL0     C16623  11.564  10.546   4.947 -0.0596  0.9313  0.1676
  846MOL0     C16624  11.694  10.605   4.900 -0.2979 -0.4072  0.2166
  846MOL0     C16625  11.704  10.751   4.958  0.6453  0.0755 -1.3836
  846MOL0     C16626  11.815  10.837   4.896 -0.3807 -0.6777  0.0084
  846MOL0     N16627  11.942  10.784   4.924 -0.3931  0.3017  0.4073
  846MOL0     C16628  11.996  10.782   5.052 -0.4950  0.0855 -0.3135
  846MOL0     C16629  12.104  10.697   5.038 -0.1143 -0.1648  0.5316
  846MOL0     C16630  12.190  10.648   5.151  0.7609 -0.0768 -0.3854
  846MOL0     C16631  12.308  10.739   5.189  0.4624  0.2695  0.5280
  846MOL0     C16632  12.277  10.867   5.261 -0.2149  0.5428 -0.4265
  846MOL0     C16633  12.390  10.911   5.353  0.4413 -0.9069 -0.5889
  846MOL0     O16634  12.436  10.801   5.446  0.0592 -0.3498  0.7686
  846MOL0     C16635  12.561  10.811   5.508  0.8789 -0.4701  0.9129
  846MOL0     C16636  12.606  10.696   5.572 -0.7339  0.0308 -0.2668
  846MOL0     C16637  12.727  10.698   5.644 -0.6254 -0.4906  0.4019
  846MOL0     C16638  12.767  10.578   5.728 -0.3976  0.2745  0.4992
  846MOL0     C16639  12.803  10.815   5.629 -1.0006  0.2724 -0.0988
  846MOL0     C16640  12.946  10.831   5.676  0.1359  0.7125 -0.0430
  846MOL0     O16641  13.041  10.861   5.591  0.2571 -0.5317  0.5870
  846MOL0     C16642  13.166  10.878   5.641 -0.1549 -0.1668  0.4777
  846MOL0     C16643  13.271  10.801   5.591  0.5857  0.2032  0.1148
  846MOL0     C16644  13.403  10.820   5.624  0.0425 -0.5820 -0.7454
  846MOL0     C16645  13.436  10.922   5.717  0.7015 -0.6541 -0.9299
  846MOL0     O16646  13.563  10.943   5.762  0.0455  0.7834  0.0824
  846MOL0     C16647  13.651  10.830   5.762 -0.0084  0.6226  0.3988
  846MOL0     C16648  13.776  10.868   5.831 -0.1835 -0.1066  0.7166
  846MOL0     C16649  13.896  10.773   5.799  0.1139 -0.6030  0.1919
  846MOL0     C16650  14.001  10.799   5.899 -0.7176  0.6397  0.8759
  846MOL0     C16651  14.121  10.706   5.887  0.1072  0.0104 -0.1853
  846MOL0     C16652  14.207  10.742   5.763 -0.1103  0.0553  0.2577
  846MOL0     C16653  14.340  10.669   5.760  0.3986  1.2836  0.2404
  846MOL0     C16654  14.422  10.715   5.638  0.3202  0.7022 -0.5957
  846MOL0    Cl16655  14.587  10.670   5.659  0.0089 -0.1495  0.1726
  846MOL0     C16656  13.327  11.005   5.768  0.7376 -0.5943  0.1952
  846MOL0     C16657  13.192  10.987   5.726 -0.2226  1.0148 -0.1716
  846MOL0     O16658  12.969  10.805   5.799  0.2723 -0.2351  0.3572
  846MOL0     C16659  12.759  10.928   5.563 -0.0343 -0.2628  0.3993
  846MOL0     C16660  12.640  10.925   5.490  0.5901  0.0233 -0.4509
  846MOL0     N16661  12.102  10.644   4.914 -0.4947  0.0691  0.2982
  846MOL0     N16662  12.008  10.692   4.846 -0.5761 -0.1400 -0.1158
  846MOL0     C16663  11.263   9.759   5.060 -0.7963  0.1773  0.1303
  846MOL0     C16664  11.164   9.668   5.106  0.1591  0.2006  0.3761
  846MOL0     C16665  10.772   9.487   5.148  0.0532 -0.1916  0.0120
  846MOL0     C16666  10.637   9.531   5.122 -0.0345  0.1986  0.0692
  846MOL0     C16667  10.520   9.457   5.169 -0.7216  0.1218 -0.5192
  846MOL0     C16668  10.550   9.351   5.248  0.0698  1.2700 -1.0426
  846MOL0     O16669  10.465   9.246   5.286 -0.5735  0.1542  0.5096
  846MOL0     C16670  10.345   9.233   5.209  0.1643  0.3059  0.1945
  846MOL0     C16671  10.259   9.120   5.273 -0.8287  0.1028  0.2039
  846MOL0     C16672  10.243   9.114   5.426 -0.0911 -0.1246  0.4212
  846MOL0     C16673  10.168   9.238   5.485 -0.8214  0.0689 -0.8353
  846MOL0     C16674  10.025   9.237   5.455  0.1850 -0.0412 -0.0062
  846MOL0     C16675   9.905   9.251   5.427  0.0017 -0.2694 -0.3394
  846MOL0     C16676  10.680   9.325   5.299 -0.1577 -0.2931  0.2571
  846MOL0     C16677  10.793   9.389   5.245  0.1014  0.1386 -0.6561
  846MOL0     C16678  10.928   9.359   5.299 -0.2643 -0.6276 -0.9423
  846MOL0     H16679  10.931   9.917   5.188 -0.5852  2.3261 -3.4550
  846MOL0     H16680  11.108  10.050   5.144 -0.2797  0.4984  1.9928
  846MOL0     H16681  11.279  10.167   5.063  5.4835 -0.4653  2.3731
  846MOL0     H16682  11.247  10.091   4.895  0.5706  0.4765 -0.9896
  846MOL0     H16683  11.529  10.153   4.981  0.7590  0.4305 -0.0736
  846MOL0     H16684  11.453  10.157   4.827  2.4873 -0.4038  0.7599
  846MOL0     H16685  11.345  10.365   4.878  0.1667  0.5160 -1.0061
  846MOL0     H16686  11.410  10.360   5.055  3.5374 -2.4823  1.4199
  846MOL0     H16687  11.642  10.344   4.936  1.6199 -0.4398 -1.2249
  846MOL0     H16688  11.563  10.409   4.791 -0.1544  0.8752 -0.1262
  846MOL0     H16689  11.557  10.546   5.056 -0.2857 -0.0970  0.1620
  846MOL0     H16690  11.482  10.603   4.904  1.5496  1.9351 -1.7815
  846MOL0     H16691  11.779  10.550   4.941 -0.5454 -1.8646 -1.1291
  846MOL0     H16692  11.696  10.603   4.791 -0.1407  1.3071  0.1594
  846MOL0     H16693  11.719  10.747   5.067  0.2035 -2.6610 -1.3587
  846MOL0     H16694  11.608  10.797   4.936  0.3637  0.3990  0.3672
  846MOL0     H16695  11.803  10.861   4.790 -2.4243  0.7697  0.5161
  846MOL0     H16696  11.812  10.935   4.944  0.3464  2.0066 -4.7725
  846MOL0     H16697  11.953  10.823   5.142 -1.1009 -0.7970 -0.1881
  846MOL0     H16698  12.224  10.552   5.110  1.3866 -0.0862  0.1414
  846MOL0     H16699  12.128  10.631   5.240 -1.1608 -2.3118 -2.0157
  846MOL0     H16700  12.374  10.670   5.242 -1.3970 -1.2089  1.0072
  846MOL0     H16701  12.356  10.765   5.094  2.5467 -0.2803  1.3649
  846MOL0     H16702  12.247  10.934   5.181 -2.0790  0.8473  0.4820
  846MOL0     H16703  12.188  10.852   5.322  0.0477  0.0447 -0.1585
  846MOL0     H16704  12.478  10.935   5.292  0.4169 -2.8243 -1.4505
  846MOL0     H16705  12.368  10.993   5.422  1.7572  0.5153 -1.7652
  846MOL0     H16706  12.543  10.608   5.579 -1.0091  0.2909  0.6729
  846MOL0     H16707  12.748  10.490   5.666 -0.7472  1.5283 -1.2364
  846MOL0     H16708  12.715  10.577   5.825 -1.1524  2.2780  0.1596
  846MOL0     H16709  12.874  10.572   5.751 -0.6286  0.2010  1.6206
  846MOL0     H16710  13.257  10.715   5.527  1.7100 -0.3129  0.5382
  846MOL0     H16711  13.480  10.761   5.575  1.4560  0.2814  0.3394
  846MOL0     H16712  13.610  10.741   5.811 -1.2889  0.1826 -1.3475
  846MOL0     H16713  13.667  10.795   5.659 -1.7010 -4.3508  1.5498
  846MOL0     H16714  13.810  10.968   5.804  1.1239 -0.7476 -0.0799
  846MOL0     H16715  13.747  10.869   5.937  1.5285  3.9519  1.3127
  846MOL0     H16716  13.932  10.791   5.697 -0.2717  0.7852  0.2816
  846MOL0     H16717  13.856  10.672   5.795 -1.0667 -0.0924 -2.1163
  846MOL0     H16718  13.958  10.779   5.998  0.7227 -1.3281  1.1627
  846MOL0     H16719  14.035  10.903   5.896 -1.2062  0.8076 -2.1217
  846MOL0     H16720  14.182  10.722   5.976  0.9129  1.2381 -0.9351
  846MOL0     H16721  14.092  10.600   5.891 -0.8805  0.2542 -0.5009
  846MOL0     H16722  14.223  10.850   5.758 -0.9794  0.2477  1.3631
  846MOL0     H16723  14.145  10.722   5.675 -1.5164  2.8939  0.5057
  846MOL0     H16724  14.316  10.562   5.760  1.5235  1.0135 -0.9012
  846MOL0     H16725  14.402  10.691   5.848 -0.6934 -2.0276  2.0508
  846MOL0     H16726  14.423  10.823   5.621  3.9530  0.8982  0.0236
  846MOL0     H16727  14.384  10.663   5.549 -1.3277  1.1195 -0.1659
  846MOL0     H16728  13.355  11.087   5.834  3.6043 -1.2218 -0.0871
  846MOL0     H16729  13.116  11.059   5.755 -0.9463 -0.7442  2.6992
  846MOL0     H16730  12.819  11.018   5.557 -0.9124  0.2908 -0.3318
  846MOL0     H16731  12.602  11.012   5.438 -2.1703 -0.4257  0.6233
  846MOL0     H16732  11.354   9.716   5.019 -0.1697 -0.6441  2.2429
  846MOL0     H16733  11.187   9.563   5.096  0.3470  0.3386 -0.8207
  846MOL0     H16734  10.618   9.611   5.051  0.8872 -1.4240 -2.1281
  846MOL0     H16735  10.423   9.489   5.133  0.2131  0.4570 -2.9173
  846MOL0     H16736  10.274   9.316   5.205 -0.3824 -0.1822 -0.3798
  846MOL0     H16737  10.366   9.212   5.104 -3.8403  1.6217 -1.0415
  846MOL0     H16738  10.305   9.025   5.247 -4.0681 -1.9769  1.4356
  846MOL0     H16739  10.158   9.120   5.229 -0.6620 -3.3286 -0.4581
  846MOL0     H16740  10.185   9.025   5.450 -0.7949  0.0159 -0.6949
  846MOL0     H16741  10.341   9.113   5.475  0.9353  0.8882 -1.5012
  846MOL0     H16742  10.213   9.330   5.447 -1.1779  0.0065 -1.4228
  846MOL0     H16743  10.182   9.254   5.592 -0.8025  1.5943 -1.0453
  846MOL0     H16744   9.801   9.255   5.401  0.1886 -0.3603 -1.1484
  846MOL0     H16745  10.697   9.238   5.361 -4.1182 -0.9716  0.6807
  846MOL0     H16746  10.926   9.342   5.407 -0.2300 -1.6937 -1.0973
  846MOL0     H16747  10.974   9.269   5.257  0.1769 -0.0731 -1.6791
  846MOL0     H16748  11.005   9.434   5.279 -0.2394 -0.8591 -1.7668
  847MOL0     O16749   0.063   9.003   2.334 -0.3257  0.5084  0.1854
  847MOL0     C16750   0.006   8.974   2.227  0.2352 -1.0433 -0.8142
  847MOL0     O16751   0.069   8.961   2.103 -0.0918  0.2506  1.6335
  847MOL0     C16752   0.204   8.980   2.085  0.1730  0.6033  0.5383
  847MOL0     C16753   0.303   8.881   2.095 -0.5298  1.0920 -0.4631
  847MOL0     C16754   0.439   8.910   2.065 -0.6016  0.1895  0.0840
  847MOL0     C16755   0.475   9.039   2.034  0.0649  0.0601 -0.4774
  847MOL0     O16756   0.611   9.070   2.020 -0.2550 -0.2077  0.0730
  847MOL0     C16757   0.645   9.201   1.987  0.4244 -0.1645  0.7073
  847MOL0     C16758   0.798   9.219   1.967 -1.0868 -0.0632 -0.0422
  847MOL0     C16759   0.894   9.235   2.093  0.8315  0.0311 -0.2587
  847MOL0     C16760   0.839   9.179   2.228 -0.1206 -0.9356  0.2998
  847MOL0     C16761   0.933   9.213   2.345 -0.2111  0.6919  0.1262
  847MOL0     C16762   1.076   9.158   2.317 -0.7676 -0.2619 -0.2055
  847MOL0     C16763   1.187   9.188   2.419 -0.8869  1.0025 -0.6332
  847MOL0     C16764   1.324   9.111   2.391 -0.3424  0.0574 -0.0822
  847MOL0     N16765   1.430   9.154   2.480 -0.4179 -0.7324 -0.5954
  847MOL0     C16766   1.433   9.148   2.618  0.0863 -0.3734 -0.0754
  847MOL0     C16767   1.562   9.159   2.653 -0.1960  0.1788  0.9878
  847MOL0     C16768   1.616   9.122   2.792  0.8927  0.1131  0.3769
  847MOL0     C16769   1.765   9.149   2.794  0.1178 -0.4251 -1.3111
  847MOL0     C16770   1.814   9.119   2.939  0.1472 -0.2018 -0.1474
  847MOL0     C16771   1.934   9.034   2.946 -0.9761  1.5597  0.4123
  847MOL0     O16772   2.036   9.106   2.873  1.3413 -0.7476  0.3931
  847MOL0     C16773   2.165   9.064   2.897 -0.0468  0.7468 -0.4828
  847MOL0     C16774   2.198   8.950   2.965  0.1838  0.8737 -0.4399
  847MOL0     C16775   2.330   8.899   2.976 -0.0125  0.0432 -0.3408
  847MOL0     C16776   2.354   8.766   3.042  0.8618  0.7837  0.2054
  847MOL0     C16777   2.430   8.967   2.905  0.7711  0.0910 -0.3436
  847MOL0     C16778   2.570   8.923   2.886  0.1141 -0.2176 -0.6968
  847MOL0     O16779   2.645   8.992   2.796  0.5444  0.7660  0.5117
  847MOL0     C16780   2.769   8.939   2.776 -0.5722 -0.4402 -0.0963
  847MOL0     C16781   2.800   8.843   2.681  0.1340  0.5144 -0.0417
  847MOL0     C16782   2.935   8.800   2.657  0.7299  0.1891 -0.2393
  847MOL0     C16783   3.045   8.875   2.718 -0.0585  0.1017 -0.5388
  847MOL0     O16784   3.179   8.839   2.720  0.2247  0.0644 -0.2349
  847MOL0     C16785   3.223   8.733   2.625  0.1826 -0.9436 -0.7890
  847MOL0     C16786   3.203   8.590   2.672  0.6923 -0.7301 -0.3734
  847MOL0     C16787   3.295   8.567   2.798  0.1368  0.2075  0.2140
  847MOL0     C16788   3.239   8.486   2.917 -0.2100  0.3384 -0.4120
  847MOL0     C16789   3.206   8.580   3.036 -0.8883 -0.5082 -0.6445
  847MOL0     C16790   3.069   8.649   3.015 -0.0792  0.5448 -0.4253
  847MOL0     C16791   3.050   8.754   3.127  1.0461  0.0079 -0.0060
  847MOL0     C16792   2.904   8.794   3.132  0.3746  0.7662 -0.3733
  847MOL0    Cl16793   2.912   8.926   3.253  0.1044  0.1693 -0.0720
  847MOL0     C16794   3.005   8.977   2.805  0.6181  0.2884 -0.4893
  847MOL0     C16795   2.872   9.012   2.830 -0.7375  0.2036 -0.5034
  847MOL0     O16796   2.603   8.818   2.946 -0.2056 -0.1166  1.0075
  847MOL0     C16797   2.396   9.083   2.829 -0.3028  0.4235  0.1006
  847MOL0     C16798   2.265   9.136   2.831 -0.3441  0.3724  0.1311
  847MOL0     N16799   1.625   9.206   2.535  0.3986 -0.6630 -0.4076
  847MOL0     N16800   1.549   9.191   2.429 -0.0625  0.0412 -0.3016
  847MOL0     C16801   0.380   9.138   2.032 -0.2166  0.3568 -0.9151
  847MOL0     C16802   0.243   9.108   2.048 -0.6900 -0.1115  0.3019
  847MOL0     C16803  -0.144   8.974   2.227  0.1355  0.5423  1.0391
  847MOL0     C16804  -0.215   8.980   2.101 -0.6631  0.3866 -0.3794
  847MOL0     C16805  -0.348   8.973   2.096 -0.4034  0.1783  0.5652
  847MOL0     C16806  -0.426   8.944   2.208 -0.1959  0.3280 -0.2074
  847MOL0     O16807  -0.558   8.912   2.185 -0.3798  0.3295  0.3871
  847MOL0     C16808  -0.653   8.871   2.282  0.3942 -0.1388 -0.4614
  847MOL0     C16809  -0.799   8.893   2.238  0.3694 -0.4074 -0.2048
  847MOL0     C16810  -0.907   8.849   2.337 -0.9073  0.2024  0.6334
  847MOL0     C16811  -1.046   8.907   2.316  0.4632 -0.2260 -0.0186
  847MOL0     C16812  -1.052   9.054   2.329 -0.3910  0.4048 -0.2389
  847MOL0     C16813  -1.057   9.178   2.341  0.0738 -0.4986 -0.3311
  847MOL0     C16814  -0.368   8.946   2.328 -0.5556 -0.1107  0.0360
  847MOL0     C16815  -0.229   8.973   2.337  0.5535 -0.2325  0.0616
  847MOL0     C16816  -0.171   8.973   2.486 -0.1607 -0.5172  1.0893
  847MOL0     H16817   0.270   8.780   2.114  1.9743  0.1658 -0.6840
  847MOL0     H16818   0.524   8.843   2.078  0.2955  1.2524 -0.1560
  847MOL0     H16819   0.614   9.270   2.066  2.1125  1.4753 -0.0092
  847MOL0     H16820   0.589   9.231   1.898  0.5793  1.0686  1.0131
  847MOL0     H16821   0.841   9.134   1.914  1.0980 -1.2314  3.2562
  847MOL0     H16822   0.817   9.310   1.910 -0.3268  0.6725  1.3233
  847MOL0     H16823   0.987   9.183   2.067  2.5001  1.6636  1.9834
  847MOL0     H16824   0.927   9.340   2.095  0.0088  0.2959 -0.4286
  847MOL0     H16825   0.745   9.221   2.264  0.3773  0.4987 -0.0069
  847MOL0     H16826   0.817   9.072   2.218  1.9389 -1.2977 -0.9784
  847MOL0     H16827   0.907   9.164   2.439 -2.2985 -2.0961 -1.7139
  847MOL0     H16828   0.940   9.322   2.356  0.2075  0.6016  0.8021
  847MOL0     H16829   1.059   9.051   2.331  0.7444 -0.5879 -0.6692
  847MOL0     H16830   1.114   9.188   2.219 -0.6455  0.0307 -0.0706
  847MOL0     H16831   1.144   9.165   2.517 -1.7915  0.0225 -1.2444
  847MOL0     H16832   1.212   9.295   2.418 -3.3548  1.6821 -2.7107
  847MOL0     H16833   1.301   9.005   2.409 -1.3409  0.9146  5.1579
  847MOL0     H16834   1.359   9.126   2.288  0.5251  2.1348  0.4684
  847MOL0     H16835   1.355   9.119   2.688  0.1202 -2.2195 -0.7427
  847MOL0     H16836   1.593   9.019   2.818  0.7122 -0.0495 -0.4069
  847MOL0     H16837   1.571   9.180   2.873 -0.3140 -2.3375  1.5755
  847MOL0     H16838   1.826   9.097   2.719  1.4110  0.2663 -0.7613
  847MOL0     H16839   1.792   9.254   2.779 -1.3212  0.7311  2.8052
  847MOL0     H16840   1.840   9.212   2.990  0.3901 -1.5788  2.4428
  847MOL0     H16841   1.728   9.078   2.994 -0.5104  0.9125 -0.3260
  847MOL0     H16842   1.947   9.007   3.051 -2.0473  1.8611  0.6378
  847MOL0     H16843   1.918   8.937   2.897  1.4559  0.4491  1.6264
  847MOL0     H16844   2.131   8.887   3.024  2.9635 -1.3684  0.5711
  847MOL0     H16845   2.418   8.754   3.130  2.2571 -3.0131 -1.1268
  847MOL0     H16846   2.392   8.693   2.970 -0.4317 -0.8511  1.1235
  847MOL0     H16847   2.259   8.727   3.078  0.3269  1.1472 -0.7720
  847MOL0     H16848   2.717   8.797   2.628  0.3326 -3.0842  2.3492
  847MOL0     H16849   2.959   8.718   2.590  1.0453  1.3869 -1.6359
  847MOL0     H16850   3.161   8.748   2.536  0.3418  1.1513 -0.6075
  847MOL0     H16851   3.329   8.750   2.603  0.3264  0.5783  0.8036
  847MOL0     H16852   3.101   8.569   2.706  0.5017 -1.8201 -1.5703
  847MOL0     H16853   3.242   8.518   2.601  1.3799 -0.6836 -0.0576
  847MOL0     H16854   3.317   8.671   2.824 -2.0382  1.4993 -2.5700
  847MOL0     H16855   3.389   8.518   2.771  0.2782  1.7084 -2.2464
  847MOL0     H16856   3.316   8.421   2.959 -1.6412 -0.8269  0.5150
  847MOL0     H16857   3.150   8.428   2.891  1.6251 -3.0972  0.3073
  847MOL0     H16858   3.201   8.529   3.133 -0.5013  0.0782 -0.3105
  847MOL0     H16859   3.288   8.652   3.045  1.1919 -2.8366  0.2851
  847MOL0     H16860   2.980   8.584   3.015 -0.5932  1.1606  2.0964
  847MOL0     H16861   3.078   8.690   2.914 -3.3693  1.5000 -0.4712
  847MOL0     H16862   3.102   8.849   3.109  1.5641 -0.4371 -0.9250
  847MOL0     H16863   3.083   8.713   3.223  0.9660  1.4661  0.6770
  847MOL0     H16864   2.835   8.713   3.159 -0.5516  1.3139 -1.0428
  847MOL0     H16865   2.875   8.840   3.037  0.5136 -1.3578 -1.5115
  847MOL0     H16866   3.081   9.034   2.857 -0.0255  0.7308 -0.0292
  847MOL0     H16867   2.853   9.093   2.899 -0.7037 -0.8438  0.7765
  847MOL0     H16868   2.469   9.138   2.771  1.2475 -0.8910  0.7286
  847MOL0     H16869   2.247   9.225   2.771  2.5703 -0.1063 -1.6710
  847MOL0     H16870   0.401   9.241   2.003 -4.4774  2.5790  2.6629
  847MOL0     H16871   0.171   9.189   2.045 -0.0211  0.5050  0.4865
  847MOL0     H16872  -0.164   8.965   2.006 -2.6185 -1.0027 -1.2810
  847MOL0     H16873  -0.405   8.973   2.003 -1.2892 -0.9962  1.0895
  847MOL0     H16874  -0.649   8.763   2.301 -0.6726 -0.4422 -1.8076
  847MOL0     H16875  -0.640   8.914   2.382 -1.1303 -3.7647  1.5125
  847MOL0     H16876  -0.815   8.829   2.151 -0.6503  0.5553 -0.7521
  847MOL0     H16877  -0.816   8.996   2.207  4.0956 -0.1884 -2.1261
  847MOL0     H16878  -0.926   8.742   2.332 -2.2070  0.3510  1.6895
  847MOL0     H16879  -0.880   8.886   2.436 -1.9731  2.1182  0.2654
  847MOL0     H16880  -1.115   8.863   2.388 -0.5937 -0.3428 -1.0654
  847MOL0     H16881  -1.090   8.880   2.219  1.3417  3.7124 -1.7330
  847MOL0     H16882  -1.083   9.280   2.360  0.9276 -0.1076 -1.1437
  847MOL0     H16883  -0.424   8.917   2.416 -1.4036 -3.6095 -1.4789
  847MOL0     H16884  -0.236   8.912   2.549 -0.5413 -3.5385 -1.9471
  847MOL0     H16885  -0.077   8.917   2.482  2.1519  3.0864  0.0796
  847MOL0     H16886  -0.134   9.072   2.515  2.6295 -0.9549 -0.5311
  848MOL0     O16887   4.055  10.464   8.664 -0.0882  0.1063  0.2929
  848MOL0     C16888   3.966  10.403   8.723 -0.0416 -0.3013  0.5049
  848MOL0     O16889   3.970  10.272   8.766  0.0188  0.1128 -0.1053
  848MOL0     C16890   4.095  10.212   8.770 -0.3916  0.4395 -0.7913
  848MOL0     C16891   4.128  10.119   8.675  0.3204 -0.1883 -0.6628
  848MOL0     C16892   4.242  10.037   8.688  0.5246 -0.5114  0.0708
  848MOL0     C16893   4.346  10.072   8.778  0.4894 -0.3529  0.1812
  848MOL0     O16894   4.473  10.008   8.778  0.0987  0.2844  0.2597
  848MOL0     C16895   4.500   9.897   8.684  0.1717 -0.0493 -0.0309
  848MOL0     C16896   4.639   9.843   8.732 -0.2318 -0.8319 -0.0106
  848MOL0     C16897   4.763   9.940   8.736 -0.2334 -0.5068  0.6222
  848MOL0     C16898   4.883   9.891   8.819 -0.7127  0.4329 -0.7229
  848MOL0     C16899   4.946   9.748   8.786  0.3067  0.2065  0.6256
  848MOL0     C16900   5.055   9.704   8.882 -0.1381  0.6811 -0.5362
  848MOL0     C16901   5.182   9.795   8.892  0.1774 -0.4517 -0.7200
  848MOL0     C16902   5.268   9.719   8.997 -0.0941 -0.4126 -0.1613
  848MOL0     N16903   5.395   9.784   9.038  0.1607  0.3129  0.8929
  848MOL0     C16904   5.519   9.759   8.984  0.2229 -0.4579  0.8378
  848MOL0     C16905   5.601   9.826   9.059  0.3076 -0.2575  0.8350
  848MOL0     C16906   5.748   9.854   9.031  0.4734  0.6736 -0.6121
  848MOL0     C16907   5.846   9.761   9.105  0.5413 -0.9743 -0.9312
  848MOL0     C16908   5.812   9.747   9.262  0.0001  1.1452  0.4070
  848MOL0     C16909   5.919   9.664   9.327 -0.8992  0.0489 -0.7398
  848MOL0     O16910   6.037   9.741   9.367 -0.1922  0.2233 -0.8570
  848MOL0     C16911   6.146   9.673   9.422 -0.4889 -1.1520 -0.2380
  848MOL0     C16912   6.268   9.731   9.437  0.8575 -0.6674 -0.0089
  848MOL0     C16913   6.382   9.665   9.492 -0.4198  0.8369  0.3415
  848MOL0     C16914   6.512   9.741   9.488 -0.1246  0.4450  0.4522
  848MOL0     C16915   6.368   9.528   9.542 -0.5174 -0.0808 -0.2526
  848MOL0     C16916   6.464   9.455   9.627 -0.6497  0.8637 -0.1821
  848MOL0     O16917   6.418   9.355   9.710 -0.3187 -0.7529 -0.3660
  848MOL0     C16918   6.513   9.288   9.780 -0.0141  0.8731  0.2618
  848MOL0     C16919   6.548   9.315   9.911 -0.6192 -1.0261 -0.6470
  848MOL0     C16920   6.657   9.256   9.978 -0.3685  0.2112 -0.0683
  848MOL0     C16921   6.726   9.155   9.915 -0.9945  0.0381 -0.6013
  848MOL0     O16922   6.833   9.087   9.975 -0.0525  0.3739 -0.0944
  848MOL0     C16923   6.877   9.132  10.104 -0.1992 -0.2242  0.6330
  848MOL0     C16924   7.007   9.050  10.135  0.3313  0.6428 -0.1023
  848MOL0     C16925   7.136   9.114  10.078  0.7242 -0.5523 -0.7679
  848MOL0     C16926   7.258   9.041  10.129 -0.2504 -0.4065  0.5680
  848MOL0     C16927   7.392   9.107  10.092  0.9746  0.7009 -0.5032
  848MOL0     C16928   7.421   9.076   9.942  0.2452 -0.2731 -0.4625
  848MOL0     C16929   7.556   9.139   9.908  0.1746  0.6395 -0.9275
  848MOL0     C16930   7.673   9.043   9.942 -0.1578 -0.7987  1.1066
  848MOL0    Cl16931   7.827   9.118   9.892 -0.0794 -0.5282  0.3483
  848MOL0     C16932   6.692   9.130   9.785  0.4674  0.4042  0.2357
  848MOL0     C16933   6.577   9.181   9.714 -0.5121  0.1254  0.0165
  848MOL0     O16934   6.577   9.498   9.635 -0.2747  0.4190 -0.5645
  848MOL0     C16935   6.235   9.474   9.529 -0.4331 -0.0432 -0.4951
  848MOL0     C16936   6.139   9.541   9.469  0.6791  0.3951 -1.4475
  848MOL0     N16937   5.525   9.897   9.151 -0.6783  0.0626 -0.1281
  848MOL0     N16938   5.403   9.865   9.138  0.6933 -0.8369  0.4281
  848MOL0     C16939   4.317  10.162   8.878  0.1916 -0.7509  0.9045
  848MOL0     C16940   4.193  10.238   8.871  0.2680 -0.2300  0.7948
  848MOL0     C16941   3.835  10.477   8.734  0.4097  0.1561 -0.6773
  848MOL0     C16942   3.812  10.576   8.636 -0.5876  0.4476 -0.4944
  848MOL0     C16943   3.697  10.651   8.641  0.1361  0.1256  0.3067
  848MOL0     C16944   3.597  10.628   8.742  0.5449  0.2342 -0.4168
  848MOL0     O16945   3.481  10.704   8.741  0.0815  0.0065 -0.6212
  848MOL0     C16946   3.409  10.712   8.622 -0.1837  0.5382 -0.3982
  848MOL0     C16947   3.323  10.835   8.632  0.4858 -0.2128 -0.6921
  848MOL0     C16948   3.236  10.817   8.768  0.2168  0.1923 -0.2603
  848MOL0     C16949   3.122  10.918   8.767  0.6472 -0.1409  0.6353
  848MOL0     C16950   3.021  10.869   8.672  0.4463 -0.1084  0.5293
  848MOL0     C16951   2.924  10.845   8.594 -1.0419  1.1368  0.2770
  848MOL0     C16952   3.618  10.528   8.834  0.5915  0.6511 -0.0932
  848MOL0     C16953   3.732  10.451   8.834 -0.2292  0.2031  0.2303
  848MOL0     C16954   3.747  10.345   8.943 -0.6339  0.9729 -0.7211
  848MOL0     H16955   4.056  10.088   8.600  1.8504 -0.8157 -1.9310
  848MOL0     H16956   4.243   9.957   8.614 -2.4238 -0.9351  0.3715
  848MOL0     H16957   4.516   9.935   8.582  0.0253  0.6764  0.2150
  848MOL0     H16958   4.421   9.822   8.692  0.6348 -0.4048  1.4296
  848MOL0     H16959   4.638   9.799   8.832  1.2903 -0.0107  0.3853
  848MOL0     H16960   4.669   9.758   8.668  1.7971 -1.2384  1.3979
  848MOL0     H16961   4.791   9.952   8.631 -0.4857 -0.6297  0.5408
  848MOL0     H16962   4.724  10.032   8.779 -3.6416 -0.3296 -2.3741
  848MOL0     H16963   4.956   9.970   8.800  0.6242  0.1373  2.5840
  848MOL0     H16964   4.851   9.889   8.923  2.6341  0.2239  0.4337
  848MOL0     H16965   4.977   9.752   8.681  1.9576  1.0778  1.0995
  848MOL0     H16966   4.862   9.680   8.801 -1.3848  2.2838  0.9793
  848MOL0     H16967   5.022   9.692   8.985  0.6024  1.3922 -0.2021
  848MOL0     H16968   5.086   9.603   8.854  0.6046  0.2284  1.7267
  848MOL0     H16969   5.160   9.901   8.905 -0.2591 -0.5952 -0.2826
  848MOL0     H16970   5.241   9.788   8.800  0.2930  0.0396 -0.6823
  848MOL0     H16971   5.199   9.726   9.082  0.2067  2.6280 -0.0441
  848MOL0     H16972   5.292   9.617   8.968  0.8824  0.1171 -1.3357
  848MOL0     H16973   5.554   9.700   8.900  4.0858 -0.9064  2.5137
  848MOL0     H16974   5.770   9.958   9.057  0.8700  0.3803  0.2714
  848MOL0     H16975   5.755   9.829   8.925 -1.3458 -1.5872 -0.2928
  848MOL0     H16976   5.852   9.667   9.050 -1.8699 -0.1543 -2.7988
  848MOL0     H16977   5.945   9.807   9.098  0.2697 -0.2339 -0.1288
  848MOL0     H16978   5.794   9.845   9.306  0.9000  1.9473 -0.9399
  848MOL0     H16979   5.721   9.689   9.282  0.5043  0.5512  1.0495
  848MOL0     H16980   5.869   9.632   9.419 -1.3459  2.1205 -0.1926
  848MOL0     H16981   5.942   9.571   9.276 -2.1422 -0.5922 -0.1741
  848MOL0     H16982   6.288   9.834   9.410 -1.5921  0.0980  0.8002
  848MOL0     H16983   6.508   9.837   9.437 -1.2597  0.3112  0.2669
  848MOL0     H16984   6.582   9.683   9.427  1.1831  1.1262  1.2632
  848MOL0     H16985   6.560   9.748   9.586  1.4581 -0.7990 -0.1695
  848MOL0     H16986   6.494   9.400   9.951 -1.7275 -1.3001 -1.4990
  848MOL0     H16987   6.681   9.301  10.074 -1.5473 -1.6434  1.1579
  848MOL0     H16988   6.891   9.240  10.104 -1.6954  0.0234  2.2898
  848MOL0     H16989   6.803   9.104  10.180  1.1861 -0.9851  1.7377
  848MOL0     H16990   7.008   9.041  10.244 -1.4085 -1.7280 -0.2127
  848MOL0     H16991   6.994   8.947  10.100 -0.5921  0.1231  1.6365
  848MOL0     H16992   7.144   9.214  10.121  1.4982 -1.6219  1.8149
  848MOL0     H16993   7.137   9.124   9.970  0.8490  2.2770 -0.5668
  848MOL0     H16994   7.250   8.941  10.083  1.3625 -0.6554  0.7847
  848MOL0     H16995   7.245   9.023  10.236  1.9137 -2.1231  0.6181
  848MOL0     H16996   7.396   9.214  10.115  1.9646  0.1892  2.1254
  848MOL0     H16997   7.471   9.078  10.162 -0.8397  0.6568  1.6570
  848MOL0     H16998   7.344   9.109   9.872  2.1465  0.0192 -2.5289
  848MOL0     H16999   7.426   8.968   9.925 -1.0089 -0.2443 -1.1043
  848MOL0     H17000   7.566   9.238   9.955 -1.3059  0.8444 -0.9852
  848MOL0     H17001   7.570   9.147   9.800  0.9292  0.0369 -0.8812
  848MOL0     H17002   7.663   8.947   9.892  1.9313 -1.7559  2.3620
  848MOL0     H17003   7.678   9.021  10.049 -0.1591 -0.3140  1.2099
  848MOL0     H17004   6.745   9.047   9.739  4.9423  3.1895 -0.1864
  848MOL0     H17005   6.548   9.157   9.613 -1.1471  3.1321 -0.6206
  848MOL0     H17006   6.215   9.375   9.569 -0.0195 -0.1491 -0.5502
  848MOL0     H17007   6.049   9.481   9.458  1.0369 -0.3129 -0.5777
  848MOL0     H17008   4.398  10.189   8.945  0.9092  0.3746 -0.3607
  848MOL0     H17009   4.175  10.320   8.940 -0.0577 -0.4828  1.0130
  848MOL0     H17010   3.875  10.586   8.548 -2.6511 -0.3648 -2.1682
  848MOL0     H17011   3.691  10.733   8.570  0.5532 -0.4351 -0.3856
  848MOL0     H17012   3.473  10.717   8.533  4.2977 -1.7340  2.2946
  848MOL0     H17013   3.347  10.623   8.611 -0.2520  0.4036  0.9162
  848MOL0     H17014   3.257  10.836   8.544 -0.2895  0.3733 -0.1221
  848MOL0     H17015   3.391  10.919   8.641 -1.0531  1.0337 -0.2771
  848MOL0     H17016   3.207  10.712   8.778 -0.9924  0.6147  1.1152
  848MOL0     H17017   3.286  10.828   8.865 -1.0261 -3.3948  0.9861
  848MOL0     H17018   3.156  11.016   8.733 -0.8143 -0.3943 -1.8190
  848MOL0     H17019   3.071  10.928   8.863 -3.0888  0.8725 -1.2699
  848MOL0     H17020   2.838  10.825   8.534  1.9310  0.2401 -4.1373
  848MOL0     H17021   3.539  10.500   8.903 -2.0656  1.6073 -2.5516
  848MOL0     H17022   3.754  10.242   8.907  1.4822  1.3771 -1.6647
  848MOL0     H17023   3.840  10.360   9.000 -2.1422  0.1630  2.1466
  848MOL0     H17024   3.676  10.339   9.025  0.0535 -0.0621 -0.1835
  849MOL0     O17025   7.849   2.950  10.632  0.0056 -0.5654  0.5727
  849MOL0     C17026   7.732   2.968  10.659  0.4133  0.4740  0.4318
  849MOL0     O17027   7.687   3.016  10.773  0.9039  0.2969 -0.0233
  849MOL0     C17028   7.770   3.056  10.872  0.9394  0.0560  0.5251
  849MOL0     C17029   7.880   3.141  10.846  0.2139 -0.4758 -0.0965
  849MOL0     C17030   7.948   3.203  10.946 -0.6175 -0.7620 -1.0133
  849MOL0     C17031   7.917   3.173  11.080 -0.0457  0.1412 -0.2364
  849MOL0     O17032   7.985   3.213  11.194  0.3005  0.0370 -0.3136
  849MOL0     C17033   8.121   3.245  11.180  0.4487 -0.1267  0.4951
  849MOL0     C17034   8.183   3.272  11.309  0.3085 -0.4926 -0.0014
  849MOL0     C17035   8.127   3.392  11.379 -0.1743 -0.0867  0.4186
  849MOL0     C17036   8.230   3.425  11.487 -0.1587  0.4888 -0.2712
  849MOL0     C17037   8.179   3.536  11.578  0.0279  1.0193  0.1428
  849MOL0     C17038   8.278   3.592  11.678  0.2904 -0.3542  0.3346
  849MOL0     C17039   8.218   3.727  11.726 -0.2130 -0.3026 -0.4756
  849MOL0     C17040   8.324   3.810  11.790  0.8173  0.0423  0.0706
  849MOL0     N17041   8.273   3.941  11.829  0.6302 -0.5937 -0.8661
  849MOL0     C17042   8.328   4.063  11.786 -0.6659 -1.8271 -0.6019
  849MOL0     C17043   8.302   4.150  11.885 -0.3796  0.3740 -0.1787
  849MOL0     C17044   8.329   4.289  11.889  0.2664  0.0259 -0.1039
  849MOL0     C17045   8.472   4.321  11.932 -0.2926  0.8997  0.0021
  849MOL0     C17046   8.492   4.472  11.950  0.2834  0.6826  0.3226
  849MOL0     C17047   8.642   4.510  11.979  0.1824  0.8511  0.1836
  849MOL0     O17048   8.640   4.654  11.992  0.7759  0.9806  0.0151
  849MOL0     C17049   8.759   4.716  12.017 -0.6714  0.3971 -1.3426
  849MOL0     C17050   8.874   4.676  11.956  0.1257  0.1116 -0.5298
  849MOL0     C17051   8.988   4.757  11.937  0.2263  0.1140 -0.4837
  849MOL0     C17052   9.096   4.705  11.846  0.0513 -0.1081  0.1892
  849MOL0     C17053   8.984   4.885  11.995 -0.3786  0.5619 -0.6759
  849MOL0     C17054   9.105   4.968  11.998  0.3331 -0.0210  0.4050
  849MOL0     O17055   9.154   5.024  12.113  0.1836 -0.1720  0.4096
  849MOL0     C17056   9.272   5.089  12.095 -0.2059  0.6799  0.4799
  849MOL0     C17057   9.273   5.217  12.043 -0.3263 -0.7555  0.4111
  849MOL0     C17058   9.393   5.276  12.011  0.3029  0.0116  1.2281
  849MOL0     C17059   9.515   5.208  12.026 -0.4524  0.1528 -0.4919
  849MOL0     O17060   9.632   5.281  11.992  0.6561  0.3352  0.1218
  849MOL0     C17061   9.750   5.213  11.971 -0.7150 -0.1642  0.7304
  849MOL0     C17062   9.842   5.300  11.889 -0.2865  0.1138  0.3497
  849MOL0     C17063   9.967   5.220  11.851 -0.0062 -0.4075 -0.0729
  849MOL0     C17064  10.077   5.310  11.792  0.1119  0.7806  0.6122
  849MOL0     C17065  10.167   5.222  11.708 -0.3561  0.2042  0.4656
  849MOL0     C17066  10.274   5.305  11.633  0.3217  0.0319  0.6517
  849MOL0     C17067  10.350   5.224  11.530 -0.2576 -0.6380  0.0709
  849MOL0     C17068  10.471   5.303  11.459  0.1980  0.1357  0.4158
  849MOL0    Cl17069  10.559   5.196  11.342  0.2131  0.1014 -0.5091
  849MOL0     C17070   9.514   5.076  12.092  0.2119 -0.1786  0.1196
  849MOL0     C17071   9.391   5.024  12.125  0.0946  0.4427  0.4523
  849MOL0     O17072   9.154   4.974  11.887  0.2991  0.9138  0.6136
  849MOL0     C17073   8.871   4.925  12.077 -0.4083 -0.1164  0.0460
  849MOL0     C17074   8.760   4.845  12.085  0.1303 -0.0999 -0.9599
  849MOL0     N17075   8.235   4.092  11.984 -0.1568  0.4032 -0.5923
  849MOL0     N17076   8.216   3.964  11.958 -0.6417  0.7422 -0.2539
  849MOL0     C17077   7.812   3.092  11.111  0.1660 -0.1974  0.6871
  849MOL0     C17078   7.728   3.037  11.002 -0.5393 -0.1561 -0.3961
  849MOL0     C17079   7.630   2.956  10.554  1.1433  0.6324 -0.6914
  849MOL0     C17080   7.504   3.034  10.568 -1.4230  0.0921 -0.6675
  849MOL0     C17081   7.399   3.035  10.477  0.9492 -1.7248 -0.1079
  849MOL0     C17082   7.413   2.957  10.361  1.1158 -0.5878 -0.7927
  849MOL0     O17083   7.308   2.975  10.269 -0.2026 -0.3235  0.1073
  849MOL0     C17084   7.311   2.895  10.148 -0.3768 -0.4955 -0.0323
  849MOL0     C17085   7.182   2.917  10.063  0.2966 -0.2486 -0.0197
  849MOL0     C17086   7.047   2.902  10.142 -0.0922  0.1381 -0.4044
  849MOL0     C17087   6.916   2.886  10.057 -0.3498 -1.0649  0.5217
  849MOL0     C17088   6.792   2.844  10.126 -0.2253 -0.0347 -0.6403
  849MOL0     C17089   6.690   2.817  10.179  0.0084  0.4272  0.0506
  849MOL0     C17090   7.525   2.884  10.339  0.1293 -0.8445 -0.4394
  849MOL0     C17091   7.638   2.887  10.423 -0.0577  0.0083 -1.7754
  849MOL0     C17092   7.751   2.799  10.398  0.2175  0.8469  0.4904
  849MOL0     H17093   7.902   3.151  10.740 -2.2923 -0.7353 -0.7098
  849MOL0     H17094   8.029   3.273  10.926 -2.6077  1.9233 -0.2479
  849MOL0     H17095   8.133   3.332  11.115 -1.4274  0.1026  0.4108
  849MOL0     H17096   8.166   3.162  11.124 -1.2142  0.1887 -1.4068
  849MOL0     H17097   8.160   3.184  11.369  0.7814  0.4918  1.6736
  849MOL0     H17098   8.290   3.277  11.284  0.6042  0.4041  1.3610
  849MOL0     H17099   8.110   3.477  11.312 -0.3530 -0.3083  0.1780
  849MOL0     H17100   8.031   3.372  11.427 -0.8418  5.2325  1.9042
  849MOL0     H17101   8.258   3.338  11.547 -2.7157 -0.5073 -0.4068
  849MOL0     H17102   8.320   3.452  11.430  0.7626 -0.8523  0.4916
  849MOL0     H17103   8.092   3.492  11.626  0.5432 -2.0899 -1.5209
  849MOL0     H17104   8.159   3.619  11.508  1.5122  2.2729  1.1460
  849MOL0     H17105   8.304   3.528  11.763  0.6312  0.4442  0.8477
  849MOL0     H17106   8.373   3.607  11.625  0.8478 -1.1818  1.0742
  849MOL0     H17107   8.136   3.715  11.798 -0.6553 -1.8530 -1.1855
  849MOL0     H17108   8.185   3.787  11.640 -1.7384 -1.5716 -0.8310
  849MOL0     H17109   8.364   3.758  11.877 -1.2209 -0.0263  1.0362
  849MOL0     H17110   8.397   3.830  11.710 -1.1612  0.5213 -1.7278
  849MOL0     H17111   8.367   4.097  11.691  1.0371  0.0025  0.6713
  849MOL0     H17112   8.258   4.331  11.960  2.9006  1.5639  1.8156
  849MOL0     H17113   8.302   4.326  11.789  2.1472 -1.2604 -1.1672
  849MOL0     H17114   8.501   4.277  12.027 -0.6161 -1.4573 -0.9136
  849MOL0     H17115   8.535   4.277  11.854 -1.4668 -2.3902  0.7411
  849MOL0     H17116   8.445   4.524  11.866  0.1242 -1.1495 -0.7613
  849MOL0     H17117   8.434   4.506  12.037 -2.6576  2.1706 -2.0488
  849MOL0     H17118   8.663   4.470  12.078 -1.2844  3.6856  1.7719
  849MOL0     H17119   8.698   4.468  11.896  0.7315 -0.4133  1.1664
  849MOL0     H17120   8.868   4.585  11.897 -0.9435  2.5178 -4.5412
  849MOL0     H17121   9.075   4.598  11.836  0.3098 -0.1571  0.1515
  849MOL0     H17122   9.199   4.722  11.881 -0.6924  0.8217  2.0694
  849MOL0     H17123   9.082   4.740  11.743 -1.8899  0.6565  0.6789
  849MOL0     H17124   9.178   5.270  12.042 -0.7788 -1.5261  1.0560
  849MOL0     H17125   9.384   5.366  11.953 -0.5564  2.3063  4.6164
  849MOL0     H17126   9.789   5.191  12.071 -1.7463 -1.8837  0.7791
  849MOL0     H17127   9.725   5.128  11.907  1.2026  0.8699 -1.5639
  849MOL0     H17128   9.784   5.328  11.800 -1.1069 -3.2638 -0.2975
  849MOL0     H17129   9.871   5.389  11.946  1.2302 -0.4189  0.4505
  849MOL0     H17130   9.934   5.150  11.773  0.9927  1.5731 -2.4227
  849MOL0     H17131   9.999   5.161  11.937 -0.7203  1.6060  1.6554
  849MOL0     H17132  10.124   5.364  11.875 -3.3867  0.1213  3.2890
  849MOL0     H17133  10.027   5.380  11.725 -1.7588 -3.1274 -2.4759
  849MOL0     H17134  10.213   5.151  11.777  1.2341  0.9591  0.2150
  849MOL0     H17135  10.123   5.164  11.627  1.6840  4.3594 -4.1364
  849MOL0     H17136  10.336   5.349  11.712 -2.5352  0.3104  2.9215
  849MOL0     H17137  10.224   5.386  11.579  1.9080  0.0615 -0.8476
  849MOL0     H17138  10.273   5.204  11.455 -1.6911  3.2765  0.2462
  849MOL0     H17139  10.390   5.131  11.570  1.2638  0.2927  0.7919
  849MOL0     H17140  10.542   5.335  11.536  1.0085  0.6698 -0.5315
  849MOL0     H17141  10.428   5.393  11.414 -3.1749  0.3239  3.5797
  849MOL0     H17142   9.602   5.017  12.115 -0.1928 -1.2008 -0.8736
  849MOL0     H17143   9.394   4.927  12.174 -1.0300 -0.5026 -1.2324
  849MOL0     H17144   8.874   5.020  12.128 -0.7580 -1.1014  1.9813
  849MOL0     H17145   8.671   4.869  12.142 -0.3375 -3.3361 -0.1414
  849MOL0     H17146   7.789   3.087  11.217 -2.8255  0.7383  0.1808
  849MOL0     H17147   7.637   2.983  11.023 -0.4369 -0.1902 -0.0316
  849MOL0     H17148   7.494   3.099  10.654  0.6899 -1.3259  0.7488
  849MOL0     H17149   7.316   3.105  10.488  3.3673  2.1297 -3.3584
  849MOL0     H17150   7.402   2.899  10.087 -0.2285  1.0904  0.2487
  849MOL0     H17151   7.302   2.794  10.188 -1.4369  0.0569  1.1720
  849MOL0     H17152   7.179   2.832   9.994  3.4712  1.7321 -2.8887
  849MOL0     H17153   7.191   3.013  10.012  0.3426  0.1019  0.6387
  849MOL0     H17154   7.058   2.808  10.196  2.2065  0.3171 -0.4400
  849MOL0     H17155   7.041   2.975  10.224  0.8745 -0.2992  0.0792
  849MOL0     H17156   6.936   2.817   9.974  0.1326  0.3485 -0.5679
  849MOL0     H17157   6.905   2.976   9.997 -0.4142 -1.9331 -0.8020
  849MOL0     H17158   6.598   2.794  10.229 -0.1806  0.4365 -0.2903
  849MOL0     H17159   7.519   2.822  10.250 -2.2809 -0.0213 -0.9101
  849MOL0     H17160   7.777   2.735  10.483 -1.1244 -0.6480 -0.1806
  849MOL0     H17161   7.742   2.728  10.316  0.9078  1.0510  0.2290
  849MOL0     H17162   7.832   2.867  10.372  1.4194 -0.8279 -0.3522
  850MOL0     O17163   3.697   2.877   2.464  0.3172  0.7924  0.0889
  850MOL0     C17164   3.792   2.931   2.407  0.3072 -0.5207  0.4648
  850MOL0     O17165   3.786   2.980   2.279 -0.3094  0.2189  0.5766
  850MOL0     C17166   3.709   2.924   2.185 -0.5377  0.6524 -0.3752
  850MOL0     C17167   3.706   2.998   2.069  0.4343 -0.6319 -0.1633
  850MOL0     C17168   3.630   2.959   1.956  0.1415 -0.6297  0.3339
  850MOL0     C17169   3.546   2.844   1.960  0.4582  0.5248 -0.3333
  850MOL0     O17170   3.487   2.791   1.850  0.5728 -0.1101  0.4808
  850MOL0     C17171   3.404   2.673   1.868  0.3198  0.2833 -0.7803
  850MOL0     C17172   3.364   2.643   1.724 -0.0868  0.4783 -0.6270
  850MOL0     C17173   3.313   2.777   1.649 -0.1650  0.0089 -0.4873
  850MOL0     C17174   3.254   2.744   1.509 -0.0395  0.2733 -0.6857
  850MOL0     C17175   3.102   2.699   1.526 -0.4875 -0.9534  0.0587
  850MOL0     C17176   3.032   2.676   1.390  0.6303 -0.4273  0.4129
  850MOL0     C17177   3.008   2.810   1.309 -0.0812 -0.0629 -1.1323
  850MOL0     C17178   3.061   2.804   1.160  0.0122 -0.6952 -1.0846
  850MOL0     N17179   3.034   2.679   1.079  0.3138 -0.1364 -0.4011
  850MOL0     C17180   2.918   2.608   1.085  0.6665  0.2936 -0.6427
  850MOL0     C17181   2.927   2.522   0.982 -1.0850 -0.1529  0.8483
  850MOL0     C17182   2.826   2.427   0.932 -0.6714 -0.2215  0.4474
  850MOL0     C17183   2.781   2.303   1.021 -0.0474  0.3076  1.1624
  850MOL0     C17184   2.689   2.355   1.126  0.6046 -0.0702  0.8239
  850MOL0     C17185   2.557   2.424   1.085  0.1518  0.2989  0.4746
  850MOL0     O17186   2.504   2.367   0.962 -0.7556 -0.0242  0.0827
  850MOL0     C17187   2.370   2.391   0.936 -1.0414 -0.1485  0.2435
  850MOL0     C17188   2.347   2.517   0.879 -0.6518 -0.1087 -0.4454
  850MOL0     C17189   2.217   2.556   0.843 -0.5064 -0.7774  0.4334
  850MOL0     C17190   2.224   2.689   0.779  1.0014  0.9617 -0.9315
  850MOL0     C17191   2.102   2.481   0.874 -0.8851  0.0162  0.1397
  850MOL0     C17192   1.965   2.526   0.842 -0.4528 -0.7101 -0.5093
  850MOL0     O17193   1.874   2.430   0.816  0.1614  0.3679 -0.3414
  850MOL0     C17194   1.752   2.468   0.796  0.6571 -0.8670 -0.1666
  850MOL0     C17195   1.684   2.436   0.681  0.3878  0.1191  1.0164
  850MOL0     C17196   1.552   2.452   0.662 -1.2151  0.2852 -0.6028
  850MOL0     C17197   1.479   2.514   0.765  0.6516  0.5980 -0.3590
  850MOL0     O17198   1.348   2.547   0.753  0.9504 -0.5255 -0.2879
  850MOL0     C17199   1.267   2.509   0.644  0.4936 -0.3867 -0.0718
  850MOL0     C17200   1.127   2.594   0.639 -0.9529  0.2126  0.7415
  850MOL0     C17201   1.143   2.740   0.676  0.0932 -0.0238 -0.7260
  850MOL0     C17202   1.010   2.817   0.686 -0.7573 -0.0784  0.0009
  850MOL0     C17203   1.040   2.963   0.709  0.0808  0.8481 -0.1447
  850MOL0     C17204   1.117   3.026   0.589 -0.5685 -0.8170  0.0382
  850MOL0     C17205   1.114   3.178   0.604  0.4092  0.1049  0.1563
  850MOL0     C17206   1.190   3.250   0.501  0.0206 -0.5930  0.7663
  850MOL0    Cl17207   1.368   3.207   0.507 -0.1084 -0.0634  0.1443
  850MOL0     C17208   1.540   2.555   0.884 -0.3076  0.5597 -0.1396
  850MOL0     C17209   1.675   2.532   0.899 -0.3290  1.1622 -0.1894
  850MOL0     O17210   1.950   2.644   0.819  0.0679 -0.7930  0.6412
  850MOL0     C17211   2.132   2.355   0.918  0.3016  0.1529  0.7533
  850MOL0     C17212   2.264   2.306   0.951  0.3588  0.1333  0.5095
  850MOL0     N17213   3.047   2.548   0.913 -0.4969  0.2370 -0.0275
  850MOL0     N17214   3.108   2.651   0.968 -0.0434  0.1349  0.1032
  850MOL0     C17215   3.536   2.778   2.084  0.7906 -0.2695 -0.0271
  850MOL0     C17216   3.617   2.821   2.192 -0.1141  0.5191 -0.4637
  850MOL0     C17217   3.923   2.937   2.487  0.4520  0.5374  0.3944
  850MOL0     C17218   3.932   2.926   2.631  0.1997 -0.9113  0.1147
  850MOL0     C17219   4.051   2.931   2.703  0.1994 -0.4705 -0.5466
  850MOL0     C17220   4.178   2.950   2.636 -0.0553  0.4285 -0.4988
  850MOL0     O17221   4.306   2.965   2.704  0.7179  0.0302  0.3425
  850MOL0     C17222   4.306   2.974   2.852  0.1979 -0.3568  0.5216
  850MOL0     C17223   4.447   3.023   2.887  0.5876  0.6294 -0.0116
  850MOL0     C17224   4.558   2.924   2.835 -0.0725  0.6135 -0.4021
  850MOL0     C17225   4.692   2.946   2.899  0.9971 -0.0711 -0.4675
  850MOL0     C17226   4.761   3.066   2.856 -0.6337 -0.7953 -0.6385
  850MOL0     C17227   4.823   3.166   2.830 -1.3514  0.0827 -0.5885
  850MOL0     C17228   4.169   2.963   2.497  1.0752 -0.2594 -0.3670
  850MOL0     C17229   4.051   2.931   2.422 -0.5920 -0.8191 -0.0181
  850MOL0     C17230   4.072   2.929   2.276  0.2475  0.3582  0.2165
  850MOL0     H17231   3.758   3.093   2.066 -0.9851  0.1578 -0.4755
  850MOL0     H17232   3.638   3.003   1.857  0.7513 -0.3168  0.5122
  850MOL0     H17233   3.310   2.690   1.922  1.9787  0.7277  2.2022
  850MOL0     H17234   3.463   2.590   1.908  0.7685  1.3702  0.9191
  850MOL0     H17235   3.458   2.611   1.677  0.3197  1.6457 -0.6424
  850MOL0     H17236   3.296   2.558   1.714 -2.0430  2.1403 -2.3775
  850MOL0     H17237   3.233   2.828   1.703  0.5491  0.8522 -0.2107
  850MOL0     H17238   3.386   2.859   1.644  1.9412 -1.6279  1.1288
  850MOL0     H17239   3.269   2.830   1.442  0.1577  1.0167  0.2905
  850MOL0     H17240   3.315   2.671   1.454  0.9851  1.3704 -1.0619
  850MOL0     H17241   3.045   2.779   1.574 -0.7155 -0.3295 -1.1981
  850MOL0     H17242   3.104   2.603   1.578  2.2843 -0.1497  1.6329
  850MOL0     H17243   3.107   2.619   1.335 -1.2153  0.0541 -2.8101
  850MOL0     H17244   2.943   2.615   1.407  0.5902 -0.8787 -1.2822
  850MOL0     H17245   3.066   2.887   1.361 -1.4911  2.3911 -3.0175
  850MOL0     H17246   2.905   2.846   1.306  0.5925  2.1126  0.0291
  850MOL0     H17247   3.025   2.893   1.109  0.2248  0.0724  0.0699
  850MOL0     H17248   3.169   2.819   1.164 -0.3358  2.5667 -1.4373
  850MOL0     H17249   2.833   2.616   1.152 -0.3670 -0.1087 -1.8826
  850MOL0     H17250   2.856   2.393   0.832 -3.5736  0.1729 -0.6642
  850MOL0     H17251   2.745   2.499   0.915  1.5788  1.9033 -2.1272
  850MOL0     H17252   2.742   2.226   0.953 -1.3325  3.0817 -1.4769
  850MOL0     H17253   2.872   2.264   1.067  0.4492  0.8110  0.6217
  850MOL0     H17254   2.662   2.269   1.187  1.0040 -1.1733 -0.5145
  850MOL0     H17255   2.756   2.417   1.186  1.2161 -0.7034  0.8084
  850MOL0     H17256   2.488   2.419   1.171  0.8035  3.5574  1.2972
  850MOL0     H17257   2.578   2.530   1.067 -3.2280  0.8663 -0.9698
  850MOL0     H17258   2.435   2.580   0.865  0.7973 -1.5042  1.7179
  850MOL0     H17259   2.162   2.684   0.690  0.6101  1.4139 -0.6928
  850MOL0     H17260   2.326   2.723   0.754  1.8030  0.0814  0.9134
  850MOL0     H17261   2.174   2.765   0.840 -1.6564 -1.1311 -0.3492
  850MOL0     H17262   1.736   2.395   0.595 -1.3793 -2.1598  0.9471
  850MOL0     H17263   1.517   2.426   0.563 -0.6187 -1.1723 -0.4572
  850MOL0     H17264   1.309   2.532   0.546  0.6230  0.5423  0.1986
  850MOL0     H17265   1.245   2.402   0.646 -0.4969 -0.2309 -1.1161
  850MOL0     H17266   1.087   2.589   0.537  0.9807 -2.5975  0.0087
  850MOL0     H17267   1.052   2.547   0.703  1.5206 -1.9814  2.2605
  850MOL0     H17268   1.213   2.768   0.596  0.8810 -2.4120 -0.9465
  850MOL0     H17269   1.186   2.723   0.775  1.5112 -1.8751 -1.6025
  850MOL0     H17270   0.953   2.776   0.770 -0.6454 -0.4033 -0.0791
  850MOL0     H17271   0.957   2.821   0.591 -0.0679 -0.8753 -0.4293
  850MOL0     H17272   0.945   3.013   0.728 -0.4509 -0.6848  1.5408
  850MOL0     H17273   1.101   2.969   0.800  1.7804  1.2575 -1.2447
  850MOL0     H17274   1.083   3.001   0.488 -0.3976 -0.9445  0.0106
  850MOL0     H17275   1.219   2.993   0.612 -0.2768  1.6623  2.9328
  850MOL0     H17276   1.140   3.216   0.704  1.3416 -0.4621  0.1407
  850MOL0     H17277   1.009   3.205   0.593  0.1978 -0.2424  1.2110
  850MOL0     H17278   1.175   3.357   0.515  2.4024 -0.0702 -0.1554
  850MOL0     H17279   1.148   3.221   0.404 -0.7295 -1.0500  1.2232
  850MOL0     H17280   1.493   2.606   0.967 -1.2269  3.4647 -2.3112
  850MOL0     H17281   1.722   2.557   0.994  1.3325  1.4930 -1.0732
  850MOL0     H17282   2.044   2.294   0.935 -0.8519  1.2558 -0.9092
  850MOL0     H17283   2.271   2.202   0.980 -1.8889 -0.0970  0.4271
  850MOL0     H17284   3.475   2.693   2.113 -1.9992  1.9502  1.0560
  850MOL0     H17285   3.608   2.758   2.280 -0.2239  0.7642 -0.2990
  850MOL0     H17286   3.844   2.937   2.694  0.9860  4.5142  0.7802
  850MOL0     H17287   4.055   2.919   2.811  0.9888 -0.8206 -0.6085
  850MOL0     H17288   4.239   3.053   2.887  0.0526  0.0625 -0.6390
  850MOL0     H17289   4.277   2.876   2.892 -1.8003 -1.5534 -3.3346
  850MOL0     H17290   4.464   3.042   2.994  2.3273 -0.4848 -0.0575
  850MOL0     H17291   4.456   3.118   2.833 -1.5430  0.6617 -0.3899
  850MOL0     H17292   4.528   2.820   2.855 -1.5828  0.4536 -3.1120
  850MOL0     H17293   4.568   2.926   2.726 -2.8984  3.8255 -0.7559
  850MOL0     H17294   4.753   2.859   2.875 -0.3203 -1.2119  0.2015
  850MOL0     H17295   4.678   2.944   3.007 -0.7478  0.3840 -0.6510
  850MOL0     H17296   4.866   3.264   2.829  0.9134 -0.3687  6.0891
  850MOL0     H17297   4.267   2.975   2.453  1.4966 -3.0916 -0.4022
  850MOL0     H17298   4.010   2.847   2.237  0.1792 -0.7070  2.3899
  850MOL0     H17299   4.053   3.023   2.224 -0.2448 -0.7507 -1.6768
  850MOL0     H17300   4.171   2.890   2.251  0.5184  1.1087  0.1141
  851MOL0     O17301   0.923   6.733   2.040  0.4630  0.5084 -0.5215
  851MOL0     C17302   0.932   6.792   2.150  0.3749  1.2605  0.9666
  851MOL0     O17303   1.045   6.873   2.178  0.5351 -0.3071 -0.0752
  851MOL0     C17304   1.146   6.880   2.085  0.3359 -1.4131 -0.8269
  851MOL0     C17305   1.156   6.988   2.014 -0.4309  0.4574 -0.0451
  851MOL0     C17306   1.264   7.009   1.926  0.4007  0.2177  0.5320
  851MOL0     C17307   1.373   6.912   1.927 -0.5056 -0.3625  0.4682
  851MOL0     O17308   1.479   6.913   1.837 -0.8248 -0.2251 -0.1239
  851MOL0     C17309   1.491   6.991   1.729 -0.1207  0.2803  0.2678
  851MOL0     C17310   1.406   6.937   1.620 -0.2317  0.7264 -0.7248
  851MOL0     C17311   1.440   7.025   1.500 -1.0093  0.3754  0.5969
  851MOL0     C17312   1.568   6.988   1.416 -0.0294  0.4447 -0.5555
  851MOL0     C17313   1.594   7.085   1.290  0.6220 -0.1501 -1.3412
  851MOL0     C17314   1.688   7.021   1.200  0.0758 -0.3955 -0.0027
  851MOL0     C17315   1.833   7.039   1.250 -0.7659 -0.2869  0.8447
  851MOL0     C17316   1.874   7.188   1.253 -0.9539 -0.3391  0.4980
  851MOL0     N17317   2.021   7.212   1.253 -0.8570 -0.6752 -0.6643
  851MOL0     C17318   2.118   7.136   1.182  1.0726  0.5512 -0.9339
  851MOL0     C17319   2.237   7.192   1.224  0.0058  0.4961 -0.4234
  851MOL0     C17320   2.372   7.149   1.176  0.6014  0.1975  0.3113
  851MOL0     C17321   2.435   7.267   1.127  0.8452 -0.0008 -0.7526
  851MOL0     C17322   2.566   7.240   1.058  0.1866  0.7904  0.0367
  851MOL0     C17323   2.651   7.353   1.029 -0.1698  0.5591  0.4259
  851MOL0     O17324   2.775   7.305   0.971  0.0066  0.1389 -0.0353
  851MOL0     C17325   2.856   7.406   0.912  0.2640 -0.4776 -0.5059
  851MOL0     C17326   2.833   7.541   0.946 -0.1065  0.8501  0.4891
  851MOL0     C17327   2.919   7.640   0.907  1.0857 -0.7934  1.0493
  851MOL0     C17328   2.872   7.778   0.959  0.1177 -0.0253 -0.0409
  851MOL0     C17329   3.032   7.608   0.833 -0.2168 -0.2239 -1.2778
  851MOL0     C17330   3.146   7.701   0.808 -0.2828  0.8608  0.4725
  851MOL0     O17331   3.240   7.662   0.709 -0.3519 -0.0192 -0.1316
  851MOL0     C17332   3.345   7.744   0.691 -0.6029 -0.1912 -0.7485
  851MOL0     C17333   3.344   7.855   0.600  0.8471 -0.0764  1.5703
  851MOL0     C17334   3.450   7.943   0.601  0.3235 -0.8931  0.4374
  851MOL0     C17335   3.555   7.936   0.684  0.7871 -0.9460 -0.0838
  851MOL0     O17336   3.646   8.036   0.685 -0.5697  0.0486 -0.3936
  851MOL0     C17337   3.760   8.034   0.775  0.4368  0.1109 -0.2391
  851MOL0     C17338   3.862   8.125   0.705 -0.5475  0.2036 -0.5537
  851MOL0     C17339   3.842   8.273   0.721 -0.0447 -0.1130  0.5339
  851MOL0     C17340   3.932   8.361   0.626  0.3924  0.7023  0.0086
  851MOL0     C17341   4.069   8.394   0.695 -0.1309 -1.5765 -0.3073
  851MOL0     C17342   4.149   8.487   0.596  0.4731  0.6284 -0.1248
  851MOL0     C17343   4.236   8.578   0.669 -0.3716 -0.0121 -0.8131
  851MOL0     C17344   4.358   8.515   0.738  0.0121 -0.0364 -0.4904
  851MOL0    Cl17345   4.512   8.594   0.698 -0.2868 -0.0698  0.0428
  851MOL0     C17346   3.550   7.830   0.772 -0.1234 -0.8724  0.5225
  851MOL0     C17347   3.451   7.727   0.773  0.1664  0.2921 -0.7415
  851MOL0     O17348   3.148   7.808   0.870 -0.1256  0.1359  0.2835
  851MOL0     C17349   3.045   7.477   0.787  0.3443  0.5055  0.1051
  851MOL0     C17350   2.958   7.374   0.823 -0.5767 -0.2799  0.0424
  851MOL0     N17351   2.218   7.288   1.319  0.2444  0.2183  0.9551
  851MOL0     N17352   2.092   7.306   1.326  0.4290  0.4001 -0.1053
  851MOL0     C17353   1.371   6.808   2.013 -0.7590 -0.1112 -0.7760
  851MOL0     C17354   1.258   6.796   2.097 -0.2923 -0.2712  0.0134
  851MOL0     C17355   0.808   6.771   2.243 -0.2225  0.1368  0.0554
  851MOL0     C17356   0.715   6.674   2.207  0.6642  1.0136 -0.3853
  851MOL0     C17357   0.617   6.629   2.293  0.1453  0.2207 -0.4283
  851MOL0     C17358   0.611   6.683   2.421 -0.6211  0.3760 -0.0098
  851MOL0     O17359   0.519   6.640   2.507  0.5331  0.2259 -0.1785
  851MOL0     C17360   0.385   6.635   2.464  0.6928 -0.4454  0.4544
  851MOL0     C17361   0.313   6.608   2.597 -0.7439  0.5061  0.0470
  851MOL0     C17362   0.173   6.559   2.572  0.0937  0.1936 -0.2954
  851MOL0     C17363   0.074   6.665   2.513  0.3447 -0.4474  0.0520
  851MOL0     C17364  -0.060   6.621   2.540  0.9603 -0.3042  0.2949
  851MOL0     C17365  -0.164   6.574   2.583 -0.3549  0.3802 -0.0202
  851MOL0     C17366   0.703   6.771   2.467  0.6556  0.0919 -0.0325
  851MOL0     C17367   0.797   6.822   2.374  1.0468  0.7402 -0.4043
  851MOL0     C17368   0.888   6.930   2.431 -0.0045  0.7438  0.5735
  851MOL0     H17369   1.082   7.067   2.020  0.0605  1.0494 -1.2927
  851MOL0     H17370   1.273   7.094   1.859  0.7262  1.3533  1.9628
  851MOL0     H17371   1.599   6.981   1.714 -0.3188  0.1162 -1.1527
  851MOL0     H17372   1.465   7.096   1.749 -2.6612 -0.4332  1.1223
  851MOL0     H17373   1.438   6.835   1.599  1.4054  1.1005 -0.2057
  851MOL0     H17374   1.298   6.937   1.636 -0.6078  1.6095 -2.8478
  851MOL0     H17375   1.360   7.027   1.426 -0.8963  0.9930  0.4800
  851MOL0     H17376   1.462   7.126   1.539 -1.0433  0.1176  1.3049
  851MOL0     H17377   1.658   6.990   1.477 -0.0401 -1.4132 -0.4219
  851MOL0     H17378   1.553   6.884   1.383  1.5322  0.3416 -1.0001
  851MOL0     H17379   1.617   7.188   1.319  0.5336 -0.4818 -0.0552
  851MOL0     H17380   1.494   7.090   1.246  1.5263  0.7130 -3.4353
  851MOL0     H17381   1.660   6.917   1.180  1.7128 -1.1976  1.6538
  851MOL0     H17382   1.677   7.069   1.102  1.1895 -0.6607 -0.2667
  851MOL0     H17383   1.892   6.971   1.188 -0.7566 -0.1155  0.6640
  851MOL0     H17384   1.843   7.005   1.353  1.1974  1.5996  1.3453
  851MOL0     H17385   1.846   7.222   1.153  1.4874  0.8333  0.1361
  851MOL0     H17386   1.825   7.248   1.330 -1.0666 -0.0494  0.2029
  851MOL0     H17387   2.099   7.056   1.111  0.5729 -0.9302  0.7991
  851MOL0     H17388   2.360   7.074   1.097 -1.6242 -0.3707  1.1124
  851MOL0     H17389   2.421   7.101   1.261 -0.8037 -1.0675  0.4602
  851MOL0     H17390   2.365   7.327   1.068  1.7014  0.8221 -0.9618
  851MOL0     H17391   2.468   7.319   1.217 -0.8148 -0.1150 -0.0302
  851MOL0     H17392   2.619   7.166   1.119 -2.2797 -0.4702  0.7513
  851MOL0     H17393   2.538   7.205   0.958  0.2756  0.4551  0.1290
  851MOL0     H17394   2.596   7.419   0.962  1.1660  0.0506 -1.2732
  851MOL0     H17395   2.668   7.402   1.125  0.8531 -0.0391  0.5750
  851MOL0     H17396   2.754   7.574   1.013 -0.8678  1.8536 -0.8681
  851MOL0     H17397   2.826   7.841   0.882  1.6104  0.8550 -0.2578
  851MOL0     H17398   2.952   7.835   1.006 -0.8635  0.7260  0.7446
  851MOL0     H17399   2.802   7.763   1.041 -2.6761  0.9652 -2.0648
  851MOL0     H17400   3.257   7.866   0.535  1.9765  0.8869  0.1606
  851MOL0     H17401   3.444   8.021   0.525  1.9411 -1.5671 -0.4198
  851MOL0     H17402   3.742   8.070   0.877  0.6262 -1.6348  0.4299
  851MOL0     H17403   3.792   7.930   0.783 -0.4148 -0.0450  1.7955
  851MOL0     H17404   3.960   8.107   0.750 -0.2211 -2.7804 -2.2052
  851MOL0     H17405   3.880   8.104   0.599  0.4911  0.6599 -0.4882
  851MOL0     H17406   3.857   8.309   0.823 -0.1546 -0.3171  0.6210
  851MOL0     H17407   3.738   8.291   0.694  0.2748  1.1042  0.0222
  851MOL0     H17408   3.874   8.447   0.591  0.1985 -0.3154 -2.4404
  851MOL0     H17409   3.956   8.305   0.535 -0.2440 -2.0219  1.4147
  851MOL0     H17410   4.042   8.451   0.784  1.5989  0.5720 -1.0674
  851MOL0     H17411   4.130   8.309   0.727 -0.0578 -1.3367  0.1811
  851MOL0     H17412   4.075   8.553   0.549 -2.4193 -2.0474  0.3293
  851MOL0     H17413   4.197   8.428   0.518 -0.6655 -1.8945  0.9600
  851MOL0     H17414   4.184   8.644   0.739 -2.4081  0.3994 -2.6094
  851MOL0     H17415   4.281   8.645   0.595  2.3984 -0.0790  0.6551
  851MOL0     H17416   4.357   8.408   0.715  1.2862 -0.1675 -0.0092
  851MOL0     H17417   4.352   8.516   0.847 -0.5733 -1.9396 -0.4745
  851MOL0     H17418   3.623   7.811   0.851  1.3917  0.5131 -0.4789
  851MOL0     H17419   3.448   7.646   0.845  0.7487  1.2542  0.4069
  851MOL0     H17420   3.130   7.438   0.732  0.7899 -1.5053  2.0492
  851MOL0     H17421   2.975   7.272   0.790  2.0050  1.0823 -3.3463
  851MOL0     H17422   1.458   6.743   2.024  0.1578  1.0826 -0.7946
  851MOL0     H17423   1.251   6.726   2.180  1.3257 -0.8963 -0.3578
  851MOL0     H17424   0.707   6.630   2.108 -0.2096  2.7056 -1.0951
  851MOL0     H17425   0.542   6.563   2.251  0.0156 -0.1433  0.3515
  851MOL0     H17426   0.362   6.731   2.417  1.1017 -0.3139  0.5203
  851MOL0     H17427   0.372   6.555   2.391 -2.6193  0.0612  0.3170
  851MOL0     H17428   0.314   6.703   2.651 -1.3099 -0.1828  1.3241
  851MOL0     H17429   0.365   6.529   2.653  1.5332  0.8703 -1.4396
  851MOL0     H17430   0.178   6.461   2.523  1.2958 -0.1372  0.4149
  851MOL0     H17431   0.137   6.550   2.675 -0.8170  4.4788 -0.0653
  851MOL0     H17432   0.107   6.675   2.409  0.3241 -0.1799  0.0710
  851MOL0     H17433   0.086   6.755   2.575  0.9653 -0.1056 -0.5541
  851MOL0     H17434  -0.264   6.561   2.618  0.6340  1.0693  3.4489
  851MOL0     H17435   0.692   6.790   2.574 -1.4306 -1.0505  0.0164
  851MOL0     H17436   0.921   7.000   2.354  0.7012 -1.6033 -1.3591
  851MOL0     H17437   0.832   6.986   2.507  0.0538  2.4564 -0.5887
  851MOL0     H17438   0.973   6.886   2.484 -0.9902 -1.8912  0.1231
  852MOL0     O17439   2.499   3.698   4.346 -0.2581 -0.2299 -0.4278
  852MOL0     C17440   2.448   3.781   4.421  0.0680 -0.3814  0.6008
  852MOL0     O17441   2.501   3.906   4.438 -0.0840  0.7953  0.3030
  852MOL0     C17442   2.601   3.953   4.351 -0.1452 -0.3078  0.2175
  852MOL0     C17443   2.582   4.045   4.244  0.0842 -0.1303  0.0693
  852MOL0     C17444   2.689   4.107   4.190  0.0535  0.3018 -0.7060
  852MOL0     C17445   2.814   4.082   4.234  0.1197  0.4967 -0.7680
  852MOL0     O17446   2.916   4.161   4.193  0.5577 -0.2580 -0.0726
  852MOL0     C17447   3.044   4.112   4.177 -1.0171  0.1926  0.1232
  852MOL0     C17448   3.128   4.235   4.160 -0.3874 -0.0509  0.4519
  852MOL0     C17449   3.155   4.302   4.296 -0.7039 -0.4986  1.0221
  852MOL0     C17450   3.223   4.441   4.284 -0.4549  1.1332 -0.3605
  852MOL0     C17451   3.251   4.508   4.422  0.1288  0.0919  0.1436
  852MOL0     C17452   3.361   4.427   4.499 -0.4285 -0.3256 -0.1153
  852MOL0     C17453   3.381   4.511   4.634 -0.0749  0.3872  0.2085
  852MOL0     C17454   3.481   4.630   4.630  0.0718 -0.5077  0.1618
  852MOL0     N17455   3.543   4.655   4.760 -0.6890 -0.0725  0.4578
  852MOL0     C17456   3.668   4.607   4.809 -0.8710 -1.3053  0.6756
  852MOL0     C17457   3.683   4.663   4.927 -0.6006 -0.0410  0.9942
  852MOL0     C17458   3.798   4.645   5.030  0.3348 -0.3488 -0.4377
  852MOL0     C17459   3.925   4.620   4.962 -0.4302 -0.2201  0.3967
  852MOL0     C17460   4.047   4.644   5.057  0.6333  0.1023  0.3292
  852MOL0     C17461   4.180   4.583   5.021 -0.1452  0.5833  0.0537
  852MOL0     O17462   4.170   4.445   4.996  0.6864  1.5690 -0.4691
  852MOL0     C17463   4.289   4.367   5.010 -0.3300  1.0820 -0.4939
  852MOL0     C17464   4.278   4.235   5.057  0.4583  0.5490 -0.0500
  852MOL0     C17465   4.387   4.160   5.095  0.4355  0.0615  0.7775
  852MOL0     C17466   4.352   4.029   5.159 -0.2986 -0.3728  0.1907
  852MOL0     C17467   4.512   4.215   5.071  0.4605  0.2476 -0.5456
  852MOL0     C17468   4.637   4.135   5.097 -0.7057  0.4750 -0.1894
  852MOL0     O17469   4.742   4.165   5.007 -0.2660 -0.0508  1.0143
  852MOL0     C17470   4.854   4.084   5.006  0.6347  0.2157  0.4986
  852MOL0     C17471   4.981   4.138   5.022 -0.1742  0.7506 -0.0630
  852MOL0     C17472   5.088   4.051   5.024  0.2409  0.1289 -0.1521
  852MOL0     C17473   5.076   3.913   5.013 -0.6342  0.6253  0.4693
  852MOL0     O17474   5.191   3.833   5.030  0.6137  0.0244 -0.1399
  852MOL0     C17475   5.166   3.697   5.058 -0.2527  0.0567  0.5828
  852MOL0     C17476   5.294   3.629   5.103  0.4945 -1.1353  0.8036
  852MOL0     C17477   5.245   3.501   5.171 -0.5465  0.4202  0.8606
  852MOL0     C17478   5.351   3.389   5.191  0.3590 -0.0689 -0.3287
  852MOL0     C17479   5.469   3.426   5.274 -0.8402  0.2301 -0.1357
  852MOL0     C17480   5.579   3.317   5.256  0.0165 -0.1462  0.0206
  852MOL0     C17481   5.724   3.360   5.300  0.3640 -0.6583 -0.6865
  852MOL0     C17482   5.820   3.419   5.192  0.5305 -0.2322 -0.0850
  852MOL0    Cl17483   5.735   3.526   5.085 -0.0087  0.3275 -0.1022
  852MOL0     C17484   4.943   3.862   4.990 -0.4499 -0.3851 -0.4163
  852MOL0     C17485   4.837   3.946   4.988  0.4295  0.1831  0.3328
  852MOL0     O17486   4.649   4.054   5.184 -0.1557  0.0609 -0.0288
  852MOL0     C17487   4.522   4.349   5.031  0.0180  0.0461  0.6132
  852MOL0     C17488   4.414   4.429   5.006  1.3571  0.2112 -0.8866
  852MOL0     N17489   3.571   4.747   4.947  0.3861  0.2534 -0.2798
  852MOL0     N17490   3.490   4.740   4.852  0.3010 -0.1525  0.9391
  852MOL0     C17491   2.832   3.981   4.331  0.0408 -0.0568  0.1543
  852MOL0     C17492   2.724   3.916   4.395 -0.1176 -0.7977 -0.3101
  852MOL0     C17493   2.317   3.744   4.501  0.0228 -0.2879  0.4572
  852MOL0     C17494   2.270   3.837   4.598  0.1447 -0.2824  0.5035
  852MOL0     C17495   2.152   3.808   4.670  0.1086 -0.4661  0.2387
  852MOL0     C17496   2.067   3.700   4.648  0.6382  0.7903  0.0585
  852MOL0     O17497   1.951   3.672   4.714  0.2431  0.5695  0.0173
  852MOL0     C17498   1.875   3.787   4.758  0.5980  0.1324 -0.1208
  852MOL0     C17499   1.725   3.761   4.792 -0.6387 -0.3003 -0.2537
  852MOL0     C17500   1.641   3.889   4.801  0.4955  0.2780  0.2667
  852MOL0     C17501   1.609   3.932   4.655 -0.1456  0.6989  0.7377
  852MOL0     C17502   1.483   3.869   4.609  0.0443 -0.2624  0.3499
  852MOL0     C17503   1.382   3.826   4.553  0.9520  0.7710  0.0163
  852MOL0     C17504   2.117   3.595   4.562  0.2803 -1.0956  0.3445
  852MOL0     C17505   2.239   3.619   4.482  0.4663  0.6002 -0.1305
  852MOL0     C17506   2.287   3.504   4.397  0.2998  0.0143  0.6596
  852MOL0     H17507   2.476   4.063   4.225 -0.4159 -1.8592  1.0141
  852MOL0     H17508   2.671   4.184   4.116 -1.1993 -0.2045 -0.9464
  852MOL0     H17509   3.042   4.043   4.092 -0.4195  0.3871 -0.0487
  852MOL0     H17510   3.081   4.055   4.262 -0.4601 -0.0444 -0.2711
  852MOL0     H17511   3.220   4.210   4.106 -0.7245 -1.6612  0.5741
  852MOL0     H17512   3.074   4.309   4.101 -0.4959  1.3298  2.1908
  852MOL0     H17513   3.062   4.326   4.348 -1.9978 -1.1319 -0.8912
  852MOL0     H17514   3.213   4.237   4.363  1.0844 -1.3599 -1.2052
  852MOL0     H17515   3.320   4.425   4.237  1.0143  1.2830  2.4243
  852MOL0     H17516   3.163   4.505   4.217  0.4393  2.7801  0.3551
  852MOL0     H17517   3.158   4.517   4.478 -0.5075 -1.1476 -0.6751
  852MOL0     H17518   3.274   4.615   4.416 -0.2801  0.1339 -0.8367
  852MOL0     H17519   3.325   4.325   4.515  0.3831 -0.4182  1.2845
  852MOL0     H17520   3.455   4.419   4.443 -0.3937 -1.8126  0.1175
  852MOL0     H17521   3.424   4.439   4.704 -0.7449  1.6640  1.9969
  852MOL0     H17522   3.290   4.542   4.686  0.3650  0.8102  0.7410
  852MOL0     H17523   3.555   4.624   4.550  0.4342  0.6853  0.4002
  852MOL0     H17524   3.416   4.717   4.617  0.1273 -0.0483  2.4933
  852MOL0     H17525   3.728   4.533   4.757 -4.4581 -2.5557 -2.0635
  852MOL0     H17526   3.769   4.562   5.095  0.0359 -0.2410 -0.4322
  852MOL0     H17527   3.809   4.728   5.100  2.0731 -2.6578  2.2391
  852MOL0     H17528   3.934   4.514   4.934 -0.2544 -0.0903 -0.0449
  852MOL0     H17529   3.939   4.685   4.876 -0.2355  1.7682  1.8780
  852MOL0     H17530   4.071   4.751   5.066 -0.9084  0.3640  2.0771
  852MOL0     H17531   4.016   4.605   5.154 -0.0812  1.0894  0.5080
  852MOL0     H17532   4.215   4.637   4.933  1.0334  0.0175  0.1476
  852MOL0     H17533   4.249   4.604   5.103 -0.4433  1.9163 -0.0123
  852MOL0     H17534   4.175   4.203   5.073  1.1364 -0.9848  1.5714
  852MOL0     H17535   4.370   4.034   5.267  0.0990  1.7596  0.0798
  852MOL0     H17536   4.419   3.956   5.113  0.5122  0.4585  0.0158
  852MOL0     H17537   4.252   3.999   5.128  0.0957 -2.4414  0.7440
  852MOL0     H17538   4.997   4.245   5.022 -0.4183  0.8058 -1.4141
  852MOL0     H17539   5.191   4.085   5.037  1.1344 -1.2286 -2.8573
  852MOL0     H17540   5.092   3.703   5.139  0.0994  1.0259  0.8520
  852MOL0     H17541   5.122   3.639   4.976  1.4289 -0.2638 -0.1266
  852MOL0     H17542   5.365   3.610   5.022  2.4492 -1.4358  2.4950
  852MOL0     H17543   5.349   3.686   5.179  1.8491 -2.0900  0.5739
  852MOL0     H17544   5.158   3.462   5.116 -1.5196  2.1168  1.1288
  852MOL0     H17545   5.206   3.526   5.270 -1.7699  1.0530  0.2548
  852MOL0     H17546   5.390   3.355   5.095  2.5995  2.5924 -0.5089
  852MOL0     H17547   5.300   3.307   5.242 -2.0020  1.5659  0.0646
  852MOL0     H17548   5.505   3.525   5.245 -1.0030  0.3631  0.1065
  852MOL0     H17549   5.428   3.436   5.375 -1.1520  1.4934 -0.3705
  852MOL0     H17550   5.587   3.293   5.150 -0.8520  2.9218 -0.8367
  852MOL0     H17551   5.551   3.229   5.315 -1.5218 -0.4271 -1.0684
  852MOL0     H17552   5.780   3.277   5.344  1.4082  1.0715  1.4245
  852MOL0     H17553   5.705   3.423   5.387  0.9438 -0.1647 -0.9115
  852MOL0     H17554   5.855   3.331   5.138  1.0809 -0.5089  0.7047
  852MOL0     H17555   5.904   3.473   5.237 -1.5819  2.6068  0.6993
  852MOL0     H17556   4.929   3.755   4.980 -2.1328 -0.1160 -1.3867
  852MOL0     H17557   4.742   3.896   5.008 -1.3190  3.8267  2.0738
  852MOL0     H17558   4.617   4.401   5.024 -1.2125  2.6946  1.8187
  852MOL0     H17559   4.438   4.528   4.968  1.3215  0.2878 -0.7126
  852MOL0     H17560   2.927   3.950   4.373 -0.0337  0.9376  1.0773
  852MOL0     H17561   2.734   3.839   4.471  0.8692 -0.0533  0.3373
  852MOL0     H17562   2.324   3.931   4.606 -1.6087  1.1747 -2.9629
  852MOL0     H17563   2.117   3.873   4.750  1.5058 -0.1215  0.6049
  852MOL0     H17564   1.923   3.837   4.842  0.1066  2.3539 -1.0892
  852MOL0     H17565   1.873   3.863   4.680 -1.4480  1.0607  0.7864
  852MOL0     H17566   1.723   3.704   4.885 -0.3140 -2.4184 -1.4936
  852MOL0     H17567   1.678   3.709   4.708 -0.5913 -0.2810 -0.2918
  852MOL0     H17568   1.547   3.880   4.857  1.3024  0.4425  1.6823
  852MOL0     H17569   1.698   3.968   4.850 -1.4346  0.7743  1.8158
  852MOL0     H17570   1.692   3.923   4.584 -1.9484 -1.1757 -1.3167
  852MOL0     H17571   1.598   4.041   4.656  1.7831  0.9381  0.2244
  852MOL0     H17572   1.301   3.778   4.501  1.1467 -1.3682  1.5651
  852MOL0     H17573   2.064   3.506   4.532 -1.1725  0.3450 -1.6222
  852MOL0     H17574   2.243   3.406   4.415  1.8913 -1.4913 -2.8120
  852MOL0     H17575   2.269   3.546   4.298 -0.2222  0.1064  0.7949
  852MOL0     H17576   2.396   3.493   4.405  0.3995 -0.3810 -0.9352
  853MOL0     O17577   2.348   0.277  10.140 -0.1669  0.7089  0.1667
  853MOL0     C17578   2.271   0.193  10.096 -0.1693  0.5692 -0.3089
  853MOL0     O17579   2.304   0.098  10.002 -0.7854 -0.4846  0.5855
  853MOL0     C17580   2.429   0.063   9.992 -0.0739  0.4220  0.0737
  853MOL0     C17581   2.457  -0.070  10.020 -0.7838 -0.2580  0.1470
  853MOL0     C17582   2.584  -0.122   9.984  0.2044 -0.3141 -1.0421
  853MOL0     C17583   2.685  -0.045   9.923  0.6122 -0.1137 -0.1375
  853MOL0     O17584   2.807  -0.096   9.885  0.1730 -0.0019 -0.1932
  853MOL0     C17585   2.899  -0.082   9.994 -0.3078 -0.8108 -0.7279
  853MOL0     C17586   3.038  -0.101   9.945  0.9631  0.0723  0.2323
  853MOL0     C17587   3.142  -0.152  10.041  0.0516 -0.8414 -0.2957
  853MOL0     C17588   3.285  -0.151   9.958  0.4110 -0.1649  0.0955
  853MOL0     C17589   3.404  -0.214  10.038  0.1651 -0.6454  0.8164
  853MOL0     C17590   3.529  -0.246   9.957  0.2576  0.5361  0.7807
  853MOL0     C17591   3.655  -0.245  10.035  0.3123 -0.6657  0.1739
  853MOL0     C17592   3.777  -0.298   9.964 -0.3565  1.0767  0.4008
  853MOL0     N17593   3.898  -0.328  10.054 -0.0615 -0.3912 -0.1451
  853MOL0     C17594   3.944  -0.222  10.129 -0.6103  0.8028 -1.2881
  853MOL0     C17595   4.039  -0.277  10.212  0.2129 -0.2121 -0.3810
  853MOL0     C17596   4.091  -0.188  10.321 -0.3452 -0.0465  0.4405
  853MOL0     C17597   4.211  -0.234  10.401 -0.7843  0.1843  0.5350
  853MOL0     C17598   4.330  -0.252  10.307 -0.2279  0.2432  0.7260
  853MOL0     C17599   4.462  -0.276  10.384  0.0073 -0.2280  0.5194
  853MOL0     O17600   4.462  -0.420  10.424  0.0579 -0.1916 -0.7164
  853MOL0     C17601   4.571  -0.476  10.485 -0.1781 -0.0174 -0.2179
  853MOL0     C17602   4.584  -0.614  10.473 -0.6460  0.6322  0.9274
  853MOL0     C17603   4.694  -0.689  10.521  0.6793  0.3462 -0.2732
  853MOL0     C17604   4.690  -0.834  10.514 -1.2651  0.6512  0.1741
  853MOL0     C17605   4.799  -0.609  10.587  0.6610 -0.3942 -0.7344
  853MOL0     C17606   4.934  -0.667  10.628  0.4953 -0.0040  0.9726
  853MOL0     O17607   5.041  -0.577  10.654  0.3262  0.6368 -0.6944
  853MOL0     C17608   5.168  -0.621  10.682 -0.5482 -0.3948 -0.0592
  853MOL0     C17609   5.193  -0.723  10.777 -0.1268 -0.5888  1.1722
  853MOL0     C17610   5.329  -0.754  10.798  0.7238  0.0460  0.2246
  853MOL0     C17611   5.436  -0.697  10.730  0.7184  0.0206  0.2318
  853MOL0     O17612   5.562  -0.738  10.765 -0.4666 -0.2171 -0.6228
  853MOL0     C17613   5.679  -0.659  10.717 -0.3331  0.3541 -0.2451
  853MOL0     C17614   5.811  -0.731  10.749 -0.5730 -0.1776  1.1192
  853MOL0     C17615   5.947  -0.655  10.712  0.0817 -0.2508  0.1866
  853MOL0     C17616   5.957  -0.642  10.554 -0.5932  0.1531  0.7888
  853MOL0     C17617   6.102  -0.606  10.516 -0.9692  0.3373 -0.5017
  853MOL0     C17618   6.134  -0.589  10.364  0.1638  0.0635  0.0236
  853MOL0     C17619   6.256  -0.501  10.328  0.1132 -1.1146  0.2485
  853MOL0     C17620   6.260  -0.434  10.186 -1.3119 -0.1901  0.1604
  853MOL0    Cl17621   6.435  -0.443  10.141  0.2714 -0.3835  0.1047
  853MOL0     C17622   5.405  -0.589  10.645 -0.4868  0.4225  0.0589
  853MOL0     C17623   5.269  -0.554  10.630  0.2528  0.3652 -0.1348
  853MOL0     O17624   4.942  -0.791  10.617  0.1763 -0.2444 -0.5449
  853MOL0     C17625   4.784  -0.476  10.603  0.1995 -0.7223 -0.8684
  853MOL0     C17626   4.673  -0.407  10.557 -0.2007 -0.5793 -0.4632
  853MOL0     N17627   4.062  -0.407  10.178  0.3171 -0.6797  0.6412
  853MOL0     N17628   3.965  -0.440  10.095  0.4595  0.5909 -0.0833
  853MOL0     C17629   2.654   0.089   9.893  0.6875  1.0100  0.2758
  853MOL0     C17630   2.528   0.141   9.924 -0.6112  0.2607  0.5131
  853MOL0     C17631   2.133   0.213  10.131 -0.9225  0.5444 -0.0413
  853MOL0     C17632   2.053   0.103  10.122 -0.1694  0.3082 -0.6638
  853MOL0     C17633   1.920   0.109  10.149 -0.1308  0.0572 -0.7783
  853MOL0     C17634   1.864   0.226  10.199 -0.4711  0.8073 -0.0501
  853MOL0     O17635   1.733   0.245  10.242 -0.1830  0.6201  0.1712
  853MOL0     C17636   1.643   0.136  10.249 -0.4662 -0.0136 -0.3232
  853MOL0     C17637   1.550   0.135  10.132  0.5028 -0.3919 -0.0312
  853MOL0     C17638   1.418   0.219  10.144 -0.4882  0.5317  0.5839
  853MOL0     C17639   1.300   0.117  10.159  0.5479 -1.2905  0.6337
  853MOL0     C17640   1.252   0.056  10.038  0.1686 -0.1037  0.8016
  853MOL0     C17641   1.241  -0.021   9.947  0.6012 -0.2346 -0.0315
  853MOL0     C17642   1.943   0.338  10.195 -0.2744  0.1817 -1.3683
  853MOL0     C17643   2.083   0.336  10.170  0.4027 -0.0631 -0.7044
  853MOL0     C17644   2.163   0.466  10.186  0.9646  0.1988 -0.1617
  853MOL0     H17645   2.399  -0.138  10.083  0.9339  1.2580  3.6517
  853MOL0     H17646   2.606  -0.227   9.997 -1.2065 -0.5028  0.1666
  853MOL0     H17647   2.889  -0.148  10.080  0.6494 -0.5966 -0.4503
  853MOL0     H17648   2.885   0.015  10.042 -1.6030 -0.6014 -1.4560
  853MOL0     H17649   3.035  -0.180   9.869 -0.5478 -1.6042  1.9527
  853MOL0     H17650   3.070  -0.010   9.892 -1.6372  0.9679  0.0629
  853MOL0     H17651   3.149  -0.087  10.128  2.2778 -0.1001 -0.9600
  853MOL0     H17652   3.123  -0.258  10.060  0.3487 -0.7641  0.4569
  853MOL0     H17653   3.272  -0.206   9.864  3.2707 -0.2515 -0.3181
  853MOL0     H17654   3.320  -0.048   9.945  2.5725 -1.0119 -1.2777
  853MOL0     H17655   3.370  -0.313  10.073 -1.0355 -0.2475  0.8334
  853MOL0     H17656   3.428  -0.151  10.124  3.7889  0.0453 -0.5230
  853MOL0     H17657   3.501  -0.345   9.918 -0.5337  1.0718 -0.0750
  853MOL0     H17658   3.532  -0.177   9.872 -0.1861 -2.2093 -1.6297
  853MOL0     H17659   3.638  -0.307  10.123 -0.7976 -1.3255 -0.4800
  853MOL0     H17660   3.675  -0.145  10.076  1.7132 -0.4530 -0.9789
  853MOL0     H17661   3.754  -0.385   9.903 -0.9637  1.7677 -0.3851
  853MOL0     H17662   3.814  -0.220   9.896  2.2157  2.3135  2.9787
  853MOL0     H17663   3.915  -0.118  10.128 -2.1484  0.4321  0.0277
  853MOL0     H17664   4.015  -0.159  10.393  0.6758 -2.5931  2.6853
  853MOL0     H17665   4.121  -0.095  10.270 -0.4861 -0.2398  0.0057
  853MOL0     H17666   4.224  -0.156  10.476 -0.9856  0.4021  0.3481
  853MOL0     H17667   4.197  -0.333  10.446  0.5046 -0.9067 -1.3034
  853MOL0     H17668   4.322  -0.325  10.225  1.2221  0.7520  0.1073
  853MOL0     H17669   4.341  -0.151  10.267 -1.7922  0.5778  1.0535
  853MOL0     H17670   4.546  -0.252  10.319 -0.7384 -0.6325 -0.6307
  853MOL0     H17671   4.450  -0.206  10.467 -1.5000  0.7873 -0.5084
  853MOL0     H17672   4.508  -0.665  10.415  0.8725  0.9875 -1.5363
  853MOL0     H17673   4.732  -0.882  10.603 -0.1471  0.3367 -0.4945
  853MOL0     H17674   4.751  -0.867  10.429 -1.7051 -1.3345  0.5665
  853MOL0     H17675   4.592  -0.877  10.493 -0.3823 -2.1889  1.3974
  853MOL0     H17676   5.124  -0.792  10.824 -0.8163  0.2883  1.4762
  853MOL0     H17677   5.347  -0.826  10.877 -0.0876  1.2488  1.5722
  853MOL0     H17678   5.665  -0.641  10.610 -0.6451  2.1436  0.0688
  853MOL0     H17679   5.686  -0.562  10.767  4.6994  0.1904 -0.1288
  853MOL0     H17680   5.816  -0.770  10.852  0.3802  0.1705  1.2087
  853MOL0     H17681   5.803  -0.823  10.689 -3.8127 -1.2257  2.8779
  853MOL0     H17682   6.034  -0.715  10.740  0.3702  1.3326  3.0981
  853MOL0     H17683   5.955  -0.560  10.767 -2.3937  0.9982 -1.4290
  853MOL0     H17684   5.895  -0.565  10.508  0.1062 -0.1933 -0.7924
  853MOL0     H17685   5.924  -0.738  10.515 -1.3547  1.0329 -0.8071
  853MOL0     H17686   6.116  -0.514  10.573 -2.1336  0.1664  0.1015
  853MOL0     H17687   6.164  -0.689  10.553  0.8184  1.8407 -0.0131
  853MOL0     H17688   6.043  -0.535  10.335  0.6409  0.1247 -1.4425
  853MOL0     H17689   6.138  -0.684  10.308  2.5173 -1.1064  1.9821
  853MOL0     H17690   6.339  -0.573  10.333 -0.9264 -2.4958 -1.2203
  853MOL0     H17691   6.269  -0.425  10.405 -0.8679 -0.9803  0.2986
  853MOL0     H17692   6.218  -0.333  10.187  1.5569  1.2099  3.9761
  853MOL0     H17693   6.204  -0.498  10.116 -2.2921  0.0615  0.6994
  853MOL0     H17694   5.487  -0.527  10.611 -3.7968  4.6298 -1.0559
  853MOL0     H17695   5.239  -0.464  10.577  0.4754 -0.4363 -1.7015
  853MOL0     H17696   4.861  -0.417  10.653 -0.8858  2.8156 -3.0152
  853MOL0     H17697   4.655  -0.299  10.558  0.0962 -0.4333 -3.4179
  853MOL0     H17698   2.731   0.139   9.834  0.4924  1.3901  0.3408
  853MOL0     H17699   2.508   0.242   9.889 -1.1318 -1.2435 -4.2101
  853MOL0     H17700   2.099   0.011  10.087 -0.3185 -0.5334  1.1962
  853MOL0     H17701   1.859   0.020  10.135  1.7459 -0.9778 -3.2189
  853MOL0     H17702   1.691   0.039  10.258 -0.4790  0.0649  0.6979
  853MOL0     H17703   1.597   0.149  10.348  0.5466 -1.5399  0.3731
  853MOL0     H17704   1.534   0.032  10.098 -1.3260 -0.9356  2.2461
  853MOL0     H17705   1.609   0.175  10.049  2.9003  0.0147  1.7661
  853MOL0     H17706   1.425   0.287  10.229 -0.6973 -0.0448  1.0662
  853MOL0     H17707   1.399   0.281  10.056  0.8465  1.3553  0.8346
  853MOL0     H17708   1.214   0.173  10.197 -0.6222 -0.9735 -2.2518
  853MOL0     H17709   1.329   0.036  10.226 -0.0374 -0.1266  2.3642
  853MOL0     H17710   1.225  -0.094   9.870 -0.0065  0.8899 -1.0079
  853MOL0     H17711   1.904   0.428  10.242  1.7020 -0.6086  2.1059
  853MOL0     H17712   2.251   0.445  10.248  0.0031 -2.5043  0.4579
  853MOL0     H17713   2.189   0.508  10.089  0.8424 -1.5700 -1.0057
  853MOL0     H17714   2.108   0.543  10.241  0.4548  0.1589 -0.6103
  854MOL0     O17715   0.514   2.008  10.606  0.0151 -0.6650  0.3125
  854MOL0     C17716   0.507   1.969  10.721  0.4922  0.0072  0.5834
  854MOL0     O17717   0.608   1.916  10.803  0.0934 -0.7731 -0.8961
  854MOL0     C17718   0.746   1.911  10.765 -0.1829 -0.7484  0.1162
  854MOL0     C17719   0.823   1.857  10.855  0.5298 -0.1875 -0.4549
  854MOL0     C17720   0.961   1.837  10.837  0.0634  0.0869 -0.2859
  854MOL0     C17721   1.021   1.878  10.719  0.9365  0.0856  0.2526
  854MOL0     O17722   1.156   1.863  10.705 -0.1984  0.6530 -0.5907
  854MOL0     C17723   1.215   1.875  10.579  0.4067  0.2585 -0.2678
  854MOL0     C17724   1.261   2.022  10.552  0.3717  0.1451  0.1219
  854MOL0     C17725   1.377   2.021  10.457  0.5004  0.8558  0.9900
  854MOL0     C17726   1.488   2.122  10.481  0.1829  0.1948  1.0708
  854MOL0     C17727   1.600   2.113  10.385  1.3177 -0.0060 -0.1840
  854MOL0     C17728   1.706   2.220  10.400  0.7079 -0.3828  0.2911
  854MOL0     C17729   1.799   2.224  10.271  0.6772 -0.1456  0.2680
  854MOL0     C17730   1.890   2.104  10.256 -0.2010  0.6552  0.4003
  854MOL0     N17731   1.983   2.096  10.378  0.3088 -0.2087  0.3487
  854MOL0     C17732   2.061   2.199  10.423  0.5111  1.4444 -0.5513
  854MOL0     C17733   2.125   2.142  10.528 -0.8633 -0.0028 -0.5564
  854MOL0     C17734   2.226   2.224  10.606 -0.3446  0.7854  0.5379
  854MOL0     C17735   2.361   2.164  10.611 -0.2290  0.2755 -0.8929
  854MOL0     C17736   2.434   2.177  10.477  0.9251  0.2852  0.2141
  854MOL0     C17737   2.571   2.104  10.488  0.4845 -0.0413 -0.8873
  854MOL0     O17738   2.670   2.198  10.464 -0.6220 -0.4361  0.0274
  854MOL0     C17739   2.804   2.158  10.473 -0.1778  0.3062  0.0954
  854MOL0     C17740   2.840   2.020  10.490 -0.3081  0.3144  0.4936
  854MOL0     C17741   2.974   1.985  10.496  0.0565 -0.7275  0.4404
  854MOL0     C17742   3.004   1.840  10.497 -0.5312  0.2668  0.1084
  854MOL0     C17743   3.075   2.088  10.487 -0.2824  0.4340 -0.7073
  854MOL0     C17744   3.218   2.064  10.505  0.1293  0.9800  0.0997
  854MOL0     O17745   3.265   1.930  10.524  0.6311 -0.0275  0.7623
  854MOL0     C17746   3.397   1.889  10.561  0.4715  0.4535  1.4764
  854MOL0     C17747   3.490   1.966  10.634  0.4423 -0.4950  0.1306
  854MOL0     C17748   3.617   1.921  10.660 -0.4023  0.0262  0.0423
  854MOL0     C17749   3.660   1.796  10.623  0.3207  0.0459 -0.7183
  854MOL0     O17750   3.790   1.758  10.660  0.5992  0.5157  0.3351
  854MOL0     C17751   3.847   1.642  10.590  0.1001 -0.5444 -0.6328
  854MOL0     C17752   4.001   1.651  10.624  0.3582 -0.0103  0.4129
  854MOL0     C17753   4.065   1.512  10.600 -0.1414  0.9078 -1.2844
  854MOL0     C17754   4.198   1.511  10.531 -0.1159  0.3870  0.6274
  854MOL0     C17755   4.185   1.535  10.379 -0.3497  1.5045 -0.9017
  854MOL0     C17756   4.135   1.409  10.300 -1.0866 -0.3946  0.5330
  854MOL0     C17757   4.122   1.442  10.151  0.3579 -0.5310  0.6912
  854MOL0     C17758   4.025   1.556  10.111 -0.4462 -0.3011 -0.2959
  854MOL0    Cl17759   3.864   1.558  10.203 -0.6470 -0.0465  0.1228
  854MOL0     C17760   3.570   1.717  10.545  0.3822 -0.4203 -0.1157
  854MOL0     C17761   3.437   1.761  10.521 -0.2518  1.2078 -1.0883
  854MOL0     O17762   3.282   2.161  10.517  0.1539  0.1112  0.0393
  854MOL0     C17763   3.034   2.223  10.477  0.0137  0.6669  0.3960
  854MOL0     C17764   2.898   2.256  10.462  0.1979  0.6627 -0.4726
  854MOL0     N17765   2.082   2.006  10.546  0.4193 -0.7427  0.0851
  854MOL0     N17766   1.995   1.985  10.453 -0.2257 -0.1675  0.2237
  854MOL0     C17767   0.938   1.926  10.616 -0.2209  0.2842  0.4818
  854MOL0     C17768   0.799   1.936  10.635 -0.4357  0.6998  0.1144
  854MOL0     C17769   0.374   1.970  10.789 -0.5377 -0.8948 -0.3810
  854MOL0     C17770   0.346   1.871  10.882 -0.2552 -0.3794  0.5513
  854MOL0     C17771   0.228   1.870  10.953  0.2386  0.3055 -0.2561
  854MOL0     C17772   0.142   1.988  10.951  0.3302  0.2884  0.4210
  854MOL0     O17773   0.030   1.993  11.031  0.3399  0.4327  0.3846
  854MOL0     C17774  -0.066   2.098  10.999 -0.4402 -0.5692  0.3958
  854MOL0     C17775  -0.200   2.075  11.058  0.9053  0.1194  0.0713
  854MOL0     C17776  -0.290   2.191  11.045  0.5363 -0.1210 -0.1866
  854MOL0     C17777  -0.427   2.158  11.110  0.6970 -0.0855  0.0817
  854MOL0     C17778  -0.534   2.256  11.117 -0.2967  0.5403  0.2331
  854MOL0     C17779  -0.620   2.340  11.112 -0.1920 -0.0966  0.1692
  854MOL0     C17780   0.165   2.088  10.853 -0.0127  0.1511  0.6647
  854MOL0     C17781   0.280   2.074  10.771 -0.2481  0.5830 -1.1282
  854MOL0     C17782   0.300   2.184  10.677  0.3841 -0.1096  0.0347
  854MOL0     H17783   0.772   1.835  10.948  0.2078 -0.6520 -0.7416
  854MOL0     H17784   1.010   1.773  10.909 -0.0772  0.2449 -0.0476
  854MOL0     H17785   1.157   1.832  10.497  0.5896 -2.6119  0.9892
  854MOL0     H17786   1.306   1.815  10.592  0.2648  0.0077 -0.4266
  854MOL0     H17787   1.174   2.074  10.512  0.3981  0.4007  0.3918
  854MOL0     H17788   1.281   2.075  10.645  1.8747 -3.5267  2.1018
  854MOL0     H17789   1.428   1.925  10.464 -1.0153 -0.0786 -0.2699
  854MOL0     H17790   1.333   2.024  10.357  0.0083 -0.1400  1.1672
  854MOL0     H17791   1.431   2.215  10.471 -2.4042 -1.2599  1.2853
  854MOL0     H17792   1.530   2.115  10.582  2.9921  1.3344  0.0710
  854MOL0     H17793   1.569   2.118  10.280 -0.1137  0.8300  0.2497
  854MOL0     H17794   1.632   2.009  10.393 -1.1122 -0.8491 -0.7193
  854MOL0     H17795   1.656   2.316  10.404  2.2749  0.7767 -3.6711
  854MOL0     H17796   1.759   2.210  10.496  0.7907  4.7175  1.0155
  854MOL0     H17797   1.859   2.312  10.295 -1.1214  0.8481  1.3652
  854MOL0     H17798   1.733   2.233  10.184  0.3656  0.3216  0.5507
  854MOL0     H17799   1.824   2.017  10.250 -2.2322  2.1621 -0.0533
  854MOL0     H17800   1.954   2.094  10.168  1.0413 -1.8580  1.4844
  854MOL0     H17801   2.083   2.299  10.387  1.3527  1.4152 -0.1353
  854MOL0     H17802   2.187   2.227  10.708 -1.9385  0.6116 -0.0442
  854MOL0     H17803   2.221   2.325  10.565  1.8735  0.5150 -0.5785
  854MOL0     H17804   2.427   2.207  10.688 -0.7238  0.9356 -0.8330
  854MOL0     H17805   2.351   2.057  10.635 -0.5248 -0.3129 -3.3432
  854MOL0     H17806   2.361   2.136  10.406 -1.8962  0.5320  2.7892
  854MOL0     H17807   2.442   2.284  10.455 -2.6071  0.9322  1.4067
  854MOL0     H17808   2.572   2.053  10.585 -2.1469 -0.5336 -1.0380
  854MOL0     H17809   2.577   2.020  10.418  4.2432 -1.1402  0.5190
  854MOL0     H17810   2.763   1.944  10.501 -0.2600  0.1157 -0.4953
  854MOL0     H17811   2.916   1.777  10.486  0.7154 -1.2317 -1.9264
  854MOL0     H17812   3.053   1.821  10.593  0.7301  2.1055 -0.1196
  854MOL0     H17813   3.069   1.822  10.411  2.0639 -0.3358  2.0436
  854MOL0     H17814   3.455   2.057  10.682 -1.0632 -1.7859  1.6439
  854MOL0     H17815   3.674   1.989  10.721  3.3188 -1.8283 -1.0370
  854MOL0     H17816   3.814   1.545  10.630 -0.2778  0.9640  3.0137
  854MOL0     H17817   3.827   1.659  10.483  2.9897  1.3432 -0.9717
  854MOL0     H17818   4.048   1.730  10.564 -2.3012  2.1561  1.0113
  854MOL0     H17819   4.014   1.679  10.728  4.8046  3.1894 -0.6867
  854MOL0     H17820   4.001   1.451  10.535  1.6637 -0.9845 -1.3728
  854MOL0     H17821   4.065   1.459  10.696 -0.6064  2.7745 -0.1998
  854MOL0     H17822   4.249   1.417  10.552  0.6413  0.4451 -0.8658
  854MOL0     H17823   4.257   1.594  10.571  1.3935 -1.2040  1.8879
  854MOL0     H17824   4.136   1.630  10.355 -0.2903  1.2758 -2.0217
  854MOL0     H17825   4.288   1.548  10.343  1.4648 -0.2111  3.1452
  854MOL0     H17826   4.039   1.376  10.341  0.6144 -2.2330  3.3420
  854MOL0     H17827   4.198   1.321  10.310 -0.1231  0.4060  1.7289
  854MOL0     H17828   4.084   1.349  10.107 -0.7240  0.3115 -0.2288
  854MOL0     H17829   4.213   1.474  10.099 -1.0872 -0.6127 -2.0688
  854MOL0     H17830   3.998   1.553  10.005  0.0104 -2.1712 -0.3963
  854MOL0     H17831   4.084   1.643  10.138 -1.8866  0.6821 -0.2307
  854MOL0     H17832   3.601   1.625  10.497 -1.9320 -1.6651  0.5940
  854MOL0     H17833   3.365   1.702  10.465  1.1920 -0.7093 -1.0198
  854MOL0     H17834   3.108   2.300  10.459  1.6461 -1.0287 -0.5689
  854MOL0     H17835   2.866   2.359  10.449 -0.0898  0.3248 -2.8891
  854MOL0     H17836   0.976   1.947  10.516 -0.0413 -2.6691 -0.1594
  854MOL0     H17837   0.738   1.954  10.547  2.0651  4.8647 -1.0666
  854MOL0     H17838   0.429   1.803  10.899  1.3705  1.9165  2.5605
  854MOL0     H17839   0.212   1.789  11.023  1.2910 -1.2161 -1.6915
  854MOL0     H17840  -0.023   2.193  11.033 -2.1652  0.7462 -0.9594
  854MOL0     H17841  -0.088   2.094  10.893 -1.2926 -1.8283  0.5985
  854MOL0     H17842  -0.184   2.044  11.162 -0.0885 -1.2647 -0.1585
  854MOL0     H17843  -0.251   1.988  11.017 -0.7611  0.8699  0.4483
  854MOL0     H17844  -0.259   2.288  11.085 -1.5469  2.4402 -4.2301
  854MOL0     H17845  -0.307   2.210  10.939 -0.8409  0.0717  0.0559
  854MOL0     H17846  -0.421   2.122  11.213 -0.5132 -1.5796 -0.3279
  854MOL0     H17847  -0.457   2.073  11.048 -0.1948 -1.4681  2.2930
  854MOL0     H17848  -0.714   2.391  11.107 -1.5357 -2.1310  2.2305
  854MOL0     H17849   0.096   2.171  10.838  0.4047  0.2357 -0.9844
  854MOL0     H17850   0.387   2.238  10.714  1.3139  0.1879 -2.4247
  854MOL0     H17851   0.320   2.137  10.580 -2.3565  0.5635 -0.9523
  854MOL0     H17852   0.211   2.248  10.670  0.0191 -0.6750 -0.5836
  855MOL0     O17853   3.976   0.059   6.891  0.4749 -0.1548  0.2459
  855MOL0     C17854   4.038   0.013   6.983 -0.5901 -0.3993  0.0369
  855MOL0     O17855   4.171   0.027   6.997  0.6768 -0.8098  0.5432
  855MOL0     C17856   4.246   0.091   6.900 -0.2116  0.2046 -0.0373
  855MOL0     C17857   4.322   0.016   6.809 -0.2160 -0.3779  0.2245
  855MOL0     C17858   4.396   0.085   6.715 -0.0774  0.5357  0.6661
  855MOL0     C17859   4.382   0.229   6.703 -0.0776  0.2352  0.0036
  855MOL0     O17860   4.445   0.282   6.599 -0.4437 -0.5358  0.3213
  855MOL0     C17861   4.477   0.423   6.582 -0.4871 -0.1555 -1.0422
  855MOL0     C17862   4.580   0.453   6.691  0.6098 -1.2132  0.4478
  855MOL0     C17863   4.614   0.601   6.705 -0.7800  0.4093 -0.4698
  855MOL0     C17864   4.682   0.627   6.837  0.0241 -0.5419  0.5813
  855MOL0     C17865   4.657   0.767   6.891  0.4689  0.5287 -0.2168
  855MOL0     C17866   4.791   0.807   6.959  0.1620 -0.1444 -0.8157
  855MOL0     C17867   4.787   0.958   7.003  0.1600 -0.1871  0.1043
  855MOL0     C17868   4.925   1.001   7.059  0.1694  0.2415  0.0895
  855MOL0     N17869   4.923   1.147   7.105  0.1335  0.4194  0.0599
  855MOL0     C17870   5.011   1.248   7.076  0.0503  0.0098 -0.6744
  855MOL0     C17871   4.991   1.351   7.162 -0.4673  0.5378  0.1597
  855MOL0     C17872   5.078   1.480   7.180 -0.3613 -0.4104 -0.4001
  855MOL0     C17873   5.199   1.473   7.270 -0.5384  0.1055 -0.1825
  855MOL0     C17874   5.262   1.624   7.284 -0.0426 -0.0039  0.3225
  855MOL0     C17875   5.349   1.625   7.415  0.3505  0.9697  0.3611
  855MOL0     O17876   5.446   1.530   7.390  0.2647 -0.2697 -0.1607
  855MOL0     C17877   5.516   1.487   7.498  0.4266  0.5280  0.1434
  855MOL0     C17878   5.489   1.367   7.565 -0.2072 -0.2574 -0.2936
  855MOL0     C17879   5.572   1.327   7.671  0.8656  1.5254  0.4680
  855MOL0     C17880   5.522   1.207   7.749  0.5257  1.3960 -0.0062
  855MOL0     C17881   5.687   1.406   7.713 -1.0244 -1.0047  0.4963
  855MOL0     C17882   5.790   1.381   7.818  0.6449 -0.1134 -0.5852
  855MOL0     O17883   5.884   1.476   7.838 -0.0059 -0.1740  0.2912
  855MOL0     C17884   5.973   1.451   7.933  0.4953 -0.1540 -0.5902
  855MOL0     C17885   6.095   1.387   7.905 -0.2973 -0.6921 -0.2550
  855MOL0     C17886   6.184   1.374   8.007 -0.1211  0.1514 -0.0240
  855MOL0     C17887   6.154   1.401   8.139 -0.8492 -0.3116  0.6342
  855MOL0     O17888   6.239   1.384   8.249 -0.5495 -0.1856  0.0786
  855MOL0     C17889   6.380   1.353   8.227 -0.2722  0.3839  0.2787
  855MOL0     C17890   6.471   1.386   8.356 -0.4775  0.2549  0.0847
  855MOL0     C17891   6.501   1.532   8.367 -0.7289  0.2785  0.4997
  855MOL0     C17892   6.366   1.598   8.388 -0.7484 -0.1045  0.3835
  855MOL0     C17893   6.368   1.741   8.455  0.2592 -0.3811  0.1259
  855MOL0     C17894   6.275   1.844   8.396 -0.0094  0.1911  0.3865
  855MOL0     C17895   6.129   1.810   8.418 -0.3805 -0.2919 -0.4774
  855MOL0     C17896   6.035   1.889   8.335  0.1567 -0.5690  0.9190
  855MOL0    Cl17897   5.867   1.852   8.351  0.4423  0.1709  0.0679
  855MOL0     C17898   6.045   1.465   8.167  0.0636  0.0060  0.2287
  855MOL0     C17899   5.947   1.491   8.068  0.2716  0.5915  0.6272
  855MOL0     O17900   5.788   1.274   7.881 -0.5976 -0.4746 -0.3222
  855MOL0     C17901   5.704   1.528   7.638  0.2361 -0.0964 -1.4545
  855MOL0     C17902   5.623   1.566   7.533  0.0916 -0.3561 -0.1603
  855MOL0     N17903   4.885   1.321   7.240  0.1262 -0.5457  0.2530
  855MOL0     N17904   4.851   1.203   7.208 -0.2711  0.5663 -0.2157
  855MOL0     C17905   4.316   0.296   6.798  0.0311 -0.7147 -0.1271
  855MOL0     C17906   4.246   0.228   6.897  0.8928 -0.0222  0.4996
  855MOL0     C17907   3.969  -0.067   7.082  0.0680  0.9592 -0.2803
  855MOL0     C17908   4.049  -0.169   7.145  0.0979 -0.0707 -0.0213
  855MOL0     C17909   3.996  -0.257   7.246 -0.0360 -0.0120 -0.0451
  855MOL0     C17910   3.863  -0.237   7.280 -0.2253  0.3663  0.0125
  855MOL0     O17911   3.799  -0.300   7.381 -0.3030  0.1755  0.0610
  855MOL0     C17912   3.852  -0.421   7.439 -0.3595 -0.1228 -0.3234
  855MOL0     C17913   3.966  -0.403   7.543 -0.3470 -0.5152 -0.2662
  855MOL0     C17914   3.975  -0.531   7.624  0.0290  0.7190  0.2712
  855MOL0     C17915   3.995  -0.666   7.553  0.1585 -0.0916  0.2337
  855MOL0     C17916   4.121  -0.651   7.479  0.2201 -0.0611 -0.3188
  855MOL0     C17917   4.226  -0.644   7.416  0.0250  0.1033 -0.0360
  855MOL0     C17918   3.785  -0.141   7.227  0.0444  0.8089  0.1248
  855MOL0     C17919   3.837  -0.057   7.127  0.0030  0.1593 -0.4267
  855MOL0     C17920   3.749   0.056   7.065  0.1300  0.1023  0.4855
  855MOL0     H17921   4.326  -0.092   6.818 -1.8866 -0.5378 -0.6662
  855MOL0     H17922   4.457   0.036   6.639 -3.3336  0.6077 -2.2485
  855MOL0     H17923   4.390   0.488   6.594 -1.6088 -1.8983  1.0844
  855MOL0     H17924   4.517   0.432   6.481 -1.1834 -0.4134 -1.3431
  855MOL0     H17925   4.555   0.398   6.782 -0.5704 -3.0679 -0.9280
  855MOL0     H17926   4.670   0.395   6.668  1.5388 -0.1661  1.3054
  855MOL0     H17927   4.688   0.629   6.630  0.4787 -1.8450 -0.1549
  855MOL0     H17928   4.532   0.669   6.680  0.7068  1.7613 -1.8941
  855MOL0     H17929   4.631   0.556   6.902 -2.4333 -0.0980 -0.7256
  855MOL0     H17930   4.789   0.603   6.829  0.2800 -0.5404  3.1807
  855MOL0     H17931   4.581   0.776   6.968  0.4146 -0.1378 -0.1913
  855MOL0     H17932   4.635   0.824   6.800  0.0675 -2.9450 -2.4852
  855MOL0     H17933   4.821   0.757   7.051  1.2015 -1.3221 -1.7806
  855MOL0     H17934   4.885   0.792   6.905  1.0930 -0.6132  0.8685
  855MOL0     H17935   4.703   0.967   7.073 -0.2478 -0.2798 -0.3729
  855MOL0     H17936   4.756   1.025   6.922 -1.4973  1.8574  2.2801
  855MOL0     H17937   4.938   0.934   7.145  0.2827 -0.1860 -0.2624
  855MOL0     H17938   5.011   0.994   6.992  0.5448 -1.6904  0.7191
  855MOL0     H17939   5.100   1.242   7.015  1.3094  3.5490  0.6080
  855MOL0     H17940   5.029   1.566   7.226  1.8060  1.6460 -1.7235
  855MOL0     H17941   5.113   1.504   7.080 -1.6521 -0.0107 -0.7773
  855MOL0     H17942   5.167   1.440   7.369  2.2458  0.0677  0.8183
  855MOL0     H17943   5.275   1.401   7.238 -1.3813 -0.3704 -1.1521
  855MOL0     H17944   5.324   1.633   7.195 -0.8604 -1.9943 -0.5147
  855MOL0     H17945   5.193   1.709   7.289 -0.1264 -0.0954  0.8759
  855MOL0     H17946   5.388   1.723   7.443  0.9029  0.5996  0.9255
  855MOL0     H17947   5.279   1.590   7.492  0.8457 -1.0428 -0.0462
  855MOL0     H17948   5.407   1.303   7.535 -1.1803  0.5194  0.6224
  855MOL0     H17949   5.528   1.116   7.688 -0.2438 -0.3944  2.4074
  855MOL0     H17950   5.427   1.220   7.802  0.3841 -3.1771  1.3671
  855MOL0     H17951   5.583   1.189   7.838  0.9835  1.5080 -0.2955
  855MOL0     H17952   6.123   1.342   7.810  0.3023 -0.3231 -0.2629
  855MOL0     H17953   6.278   1.326   7.981  0.3387 -0.6939  2.8283
  855MOL0     H17954   6.385   1.247   8.199  1.7110  0.9775 -1.9122
  855MOL0     H17955   6.421   1.413   8.145  2.2140 -1.3597  0.1611
  855MOL0     H17956   6.414   1.345   8.441 -1.7556  3.1532  0.7428
  855MOL0     H17957   6.563   1.327   8.346 -1.2875 -0.8894 -0.9391
  855MOL0     H17958   6.553   1.555   8.274 -1.8691 -3.7860 -1.3347
  855MOL0     H17959   6.574   1.549   8.447 -0.4804 -2.5629  0.9666
  855MOL0     H17960   6.308   1.533   8.455  0.3133 -1.4687  0.0197
  855MOL0     H17961   6.328   1.609   8.286  0.4168  0.6627  0.0075
  855MOL0     H17962   6.358   1.734   8.564  3.4611  2.8918  0.8462
  855MOL0     H17963   6.471   1.779   8.459  0.4171 -0.8752  1.8382
  855MOL0     H17964   6.295   1.849   8.288  3.1922  2.1193  0.9371
  855MOL0     H17965   6.294   1.949   8.421 -1.3555  0.8446 -1.1324
  855MOL0     H17966   6.096   1.824   8.522 -0.2130 -2.2386 -0.1171
  855MOL0     H17967   6.111   1.704   8.399  1.5217 -0.9060  0.8165
  855MOL0     H17968   6.064   1.883   8.230 -0.4031 -2.1113  0.8157
  855MOL0     H17969   6.043   1.996   8.357 -2.5745  1.1287 -4.5345
  855MOL0     H17970   6.027   1.483   8.272  1.4803  3.6308  0.0010
  855MOL0     H17971   5.850   1.539   8.077 -2.2275 -3.6741 -0.6214
  855MOL0     H17972   5.770   1.609   7.668 -0.5758  0.7736 -1.9618
  855MOL0     H17973   5.632   1.668   7.496  0.0160 -0.3316 -0.1101
  855MOL0     H17974   4.328   0.403   6.787  2.1804 -1.0243 -1.3697
  855MOL0     H17975   4.177   0.267   6.971  0.3586  0.5734 -0.2854
  855MOL0     H17976   4.154  -0.165   7.119 -0.2840  1.6945 -1.5677
  855MOL0     H17977   4.057  -0.322   7.308  0.7247  2.9741  2.6101
  855MOL0     H17978   3.765  -0.472   7.482 -0.9327  3.3392  3.2162
  855MOL0     H17979   3.887  -0.489   7.361  1.7401 -0.3290  0.7280
  855MOL0     H17980   3.934  -0.332   7.620 -1.9312 -0.7948 -0.6419
  855MOL0     H17981   4.058  -0.370   7.494 -0.3166  1.5318  1.0367
  855MOL0     H17982   4.048  -0.519   7.705  0.1286 -1.0751  0.4751
  855MOL0     H17983   3.883  -0.545   7.683 -0.5242 -1.7771 -1.0316
  855MOL0     H17984   3.915  -0.684   7.482  0.2393 -0.0435  0.1307
  855MOL0     H17985   4.004  -0.757   7.615 -2.9411 -1.1120 -0.6727
  855MOL0     H17986   4.325  -0.654   7.376  0.8691  1.1705  1.6703
  855MOL0     H17987   3.680  -0.122   7.247 -0.4365 -0.2773 -1.1878
  855MOL0     H17988   3.663   0.082   7.128  0.2629 -0.5470  0.9409
  855MOL0     H17989   3.807   0.146   7.042 -1.4754  1.6567  2.2142
  855MOL0     H17990   3.716   0.018   6.968  1.5951 -2.3581  0.8576
  856MOL0     O17991   5.414   4.421   0.333 -0.6298 -0.3350 -0.0295
  856MOL0     C17992   5.369   4.313   0.366 -0.5343  0.6124  0.0290
  856MOL0     O17993   5.432   4.199   0.353 -0.5968 -0.5360 -0.1352
  856MOL0     C17994   5.556   4.193   0.296 -0.5115 -0.1046 -0.3034
  856MOL0     C17995   5.658   4.126   0.366 -0.7298  0.4226  0.7444
  856MOL0     C17996   5.784   4.115   0.306 -0.0074 -0.2188  1.5064
  856MOL0     C17997   5.798   4.177   0.175 -0.0808  0.0906  0.0528
  856MOL0     O17998   5.911   4.155   0.105  0.1606 -0.0652  0.2357
  856MOL0     C17999   5.991   4.266   0.109 -0.3263  0.2129  0.4238
  856MOL0     C18000   6.119   4.245   0.032 -0.1961 -0.8886 -0.2915
  856MOL0     C18001   6.217   4.145   0.088 -0.3323 -0.1408  0.2459
  856MOL0     C18002   6.350   4.131   0.006  1.0198 -0.1267  1.5898
  856MOL0     C18003   6.305   4.079  -0.139  0.6174  0.0030  0.5157
  856MOL0     C18004   6.419   4.030  -0.229 -0.7181 -0.6075  1.6519
  856MOL0     C18005   6.477   3.892  -0.191  0.2806  0.6667  0.0237
  856MOL0     C18006   6.625   3.879  -0.241  0.1206 -0.4692 -0.2575
  856MOL0     N18007   6.697   3.773  -0.163 -0.1402 -0.5879  0.1352
  856MOL0     C18008   6.683   3.642  -0.170 -0.5063  0.4317 -0.3369
  856MOL0     C18009   6.762   3.596  -0.067 -0.1921 -0.0573 -0.1634
  856MOL0     C18010   6.777   3.459  -0.009  0.2330  0.3967 -0.1117
  856MOL0     C18011   6.908   3.374  -0.021 -0.0132 -0.2758  0.8447
  856MOL0     C18012   7.041   3.448   0.008 -0.0847  0.5572  0.3826
  856MOL0     C18013   7.041   3.504   0.146  0.8149  1.2788 -0.6920
  856MOL0     O18014   7.087   3.410   0.238  0.3283  0.3965 -0.1272
  856MOL0     C18015   7.135   3.432   0.361  0.5378  0.0088 -0.1281
  856MOL0     C18016   7.167   3.321   0.444  0.3018 -0.0277 -0.3144
  856MOL0     C18017   7.205   3.331   0.573  0.4351  0.0538  0.4007
  856MOL0     C18018   7.230   3.211   0.665  0.2967 -1.2321 -0.4791
  856MOL0     C18019   7.225   3.458   0.626  0.7267  0.5438 -0.0504
  856MOL0     C18020   7.283   3.486   0.755  0.2737 -0.5432 -0.1659
  856MOL0     O18021   7.195   3.525   0.852  0.1001 -0.7485 -0.9608
  856MOL0     C18022   7.258   3.588   0.959  0.0139  0.0213  0.1722
  856MOL0     C18023   7.259   3.728   0.951 -0.3175  0.2487 -0.6407
  856MOL0     C18024   7.341   3.802   1.038  0.5072  0.2020  0.0672
  856MOL0     C18025   7.417   3.741   1.131 -0.0926  0.3787  0.2534
  856MOL0     O18026   7.493   3.800   1.228 -0.2449  0.0049  0.0931
  856MOL0     C18027   7.550   3.930   1.210  0.6555  0.0029  0.5424
  856MOL0     C18028   7.696   3.911   1.180 -0.0495  0.0527  0.8152
  856MOL0     C18029   7.765   4.043   1.128 -0.0639 -0.4420 -1.0835
  856MOL0     C18030   7.893   4.027   1.051 -0.4911 -0.0453 -1.2304
  856MOL0     C18031   7.928   4.166   0.992  0.3453 -0.2019  0.5554
  856MOL0     C18032   8.074   4.196   0.959  0.2816  0.4089  0.9297
  856MOL0     C18033   8.091   4.332   0.880  0.1928 -0.4614  0.3132
  856MOL0     C18034   8.249   4.345   0.853  0.2258 -0.5684  0.5950
  856MOL0    Cl18035   8.346   4.371   1.003 -0.1177 -0.6841  0.2612
  856MOL0     C18036   7.415   3.601   1.141  0.5204  0.4965 -0.9192
  856MOL0     C18037   7.339   3.523   1.055  0.1554 -0.9630  0.0929
  856MOL0     O18038   7.401   3.450   0.772  0.1383 -0.3631 -0.4513
  856MOL0     C18039   7.185   3.573   0.552  0.4044  1.1281  0.1220
  856MOL0     C18040   7.153   3.559   0.412 -0.4823 -0.1040 -0.0360
  856MOL0     N18041   6.824   3.703  -0.022  0.2247  0.0306  0.0850
  856MOL0     N18042   6.783   3.810  -0.075 -0.0519 -0.0295 -0.0668
  856MOL0     C18043   5.690   4.232   0.105  0.3001 -0.2955 -0.4730
  856MOL0     C18044   5.567   4.243   0.166 -0.1848  0.3742  0.0114
  856MOL0     C18045   5.229   4.301   0.394  0.8925  0.2415  0.7005
  856MOL0     C18046   5.171   4.180   0.344 -0.1512  0.6756  0.5644
  856MOL0     C18047   5.029   4.162   0.357  0.7930 -0.5907 -0.4351
  856MOL0     C18048   4.940   4.263   0.406  0.3481 -0.2526 -0.9503
  856MOL0     O18049   4.800   4.252   0.426 -0.0717 -0.5025  0.3746
  856MOL0     C18050   4.733   4.134   0.386 -0.6102 -0.5645 -0.3915
  856MOL0     C18051   4.717   4.034   0.505 -0.0065 -0.8042  0.4876
  856MOL0     C18052   4.607   3.926   0.479 -0.3228  0.1819  0.8282
  856MOL0     C18053   4.650   3.820   0.382  0.1379  0.5780  0.1398
  856MOL0     C18054   4.657   3.860   0.237 -0.3025  0.1874 -0.6943
  856MOL0     C18055   4.674   3.876   0.120  0.1975 -0.3803 -0.5130
  856MOL0     C18056   5.005   4.382   0.462  0.0455  0.1445 -0.8957
  856MOL0     C18057   5.144   4.400   0.457 -0.1724 -0.3253 -0.0402
  856MOL0     C18058   5.203   4.526   0.524  1.2106  1.1939 -0.2627
  856MOL0     H18059   5.640   4.083   0.464  1.9336  0.6547  1.4145
  856MOL0     H18060   5.866   4.070   0.361 -0.0124 -2.3922 -0.1342
  856MOL0     H18061   6.018   4.283   0.214 -0.3964  2.5992  0.1166
  856MOL0     H18062   5.943   4.361   0.085  0.3731  0.8322  1.4101
  856MOL0     H18063   6.088   4.216  -0.068  0.0033  0.0701 -0.6509
  856MOL0     H18064   6.170   4.342   0.028  1.8112 -1.6476  3.0897
  856MOL0     H18065   6.231   4.173   0.193 -2.2251  1.4059  0.1507
  856MOL0     H18066   6.167   4.048   0.091  1.3773 -1.1493 -1.5112
  856MOL0     H18067   6.390   4.232   0.001 -1.3441  0.8230 -0.5437
  856MOL0     H18068   6.421   4.061   0.050  1.4867 -1.5579 -1.1767
  856MOL0     H18069   6.267   4.168  -0.189  2.3830  0.4951  0.0032
  856MOL0     H18070   6.223   4.007  -0.132 -0.3012  0.8567 -0.8949
  856MOL0     H18071   6.389   4.020  -0.333  2.5135  0.0502  0.5294
  856MOL0     H18072   6.502   4.101  -0.239 -0.1162 -1.5657 -0.8909
  856MOL0     H18073   6.409   3.818  -0.234 -0.8518  0.5499  1.8948
  856MOL0     H18074   6.470   3.880  -0.083 -0.0799 -1.0511 -0.1650
  856MOL0     H18075   6.619   3.860  -0.348 -2.2649  0.8907 -0.4470
  856MOL0     H18076   6.674   3.976  -0.226 -1.6816  0.2874  1.1692
  856MOL0     H18077   6.620   3.587  -0.240 -0.9847 -0.6973  0.9252
  856MOL0     H18078   6.697   3.399  -0.054  0.7042  0.5237 -1.1415
  856MOL0     H18079   6.748   3.467   0.096  0.1436 -0.3633 -0.0740
  856MOL0     H18080   6.910   3.288   0.047  4.1873  0.0453  1.3655
  856MOL0     H18081   6.904   3.348  -0.127 -0.8098  2.3731  0.1461
  856MOL0     H18082   7.131   3.387  -0.004 -0.3974  0.3170 -0.8550
  856MOL0     H18083   7.050   3.538  -0.053  0.4660 -0.4897 -1.1164
  856MOL0     H18084   7.110   3.589   0.145  2.9306 -0.3427 -0.0430
  856MOL0     H18085   6.954   3.555   0.186  0.7143 -0.8892  2.1365
  856MOL0     H18086   7.160   3.225   0.393 -1.5282 -1.0020  1.6230
  856MOL0     H18087   7.334   3.178   0.674  1.4329  1.3260 -2.7767
  856MOL0     H18088   7.164   3.130   0.633 -1.6928  1.1823 -2.9571
  856MOL0     H18089   7.199   3.238   0.767 -1.8618  1.8362 -1.7870
  856MOL0     H18090   7.204   3.783   0.876  1.3745  0.1643 -2.0220
  856MOL0     H18091   7.333   3.910   1.040  2.7771  0.4265  1.9377
  856MOL0     H18092   7.506   3.973   1.120 -0.2362  1.4509  1.6293
  856MOL0     H18093   7.538   4.003   1.291  1.1880 -0.0553  0.6781
  856MOL0     H18094   7.755   3.864   1.260  1.0219 -0.5414 -0.2912
  856MOL0     H18095   7.707   3.838   1.100  2.5747 -0.9623  1.9737
  856MOL0     H18096   7.788   4.090   1.225 -0.6046 -1.6325 -0.3557
  856MOL0     H18097   7.699   4.104   1.066 -2.3221 -3.2518 -1.6680
  856MOL0     H18098   7.885   3.956   0.968 -2.6415  1.5729 -2.5014
  856MOL0     H18099   7.976   4.008   1.120 -0.0878 -1.2815 -2.0129
  856MOL0     H18100   7.859   4.182   0.908 -1.5822 -1.4472  1.8225
  856MOL0     H18101   7.897   4.241   1.065 -1.0132 -1.7995  1.7259
  856MOL0     H18102   8.106   4.121   0.886 -0.8394  2.4844 -1.9078
  856MOL0     H18103   8.116   4.202   1.060 -0.9929  0.7650  1.4618
  856MOL0     H18104   8.059   4.413   0.947 -2.2355 -1.0460 -0.0461
  856MOL0     H18105   8.032   4.328   0.788 -2.3630  0.9052  1.7750
  856MOL0     H18106   8.265   4.426   0.781 -2.5122 -0.0283  0.4798
  856MOL0     H18107   8.287   4.256   0.803  1.2547 -1.3571  2.6696
  856MOL0     H18108   7.483   3.558   1.215 -0.4399  0.2491 -0.1574
  856MOL0     H18109   7.349   3.415   1.057 -0.8515 -1.0533  0.9601
  856MOL0     H18110   7.198   3.673   0.592  0.5429  2.0413 -2.0702
  856MOL0     H18111   7.131   3.656   0.368  0.0865  1.6137  3.1915
  856MOL0     H18112   5.690   4.251  -0.002 -2.5160  1.9435 -0.1945
  856MOL0     H18113   5.484   4.285   0.109  0.4077 -0.3417 -1.4048
  856MOL0     H18114   5.219   4.100   0.288 -2.4387  0.2122 -0.9033
  856MOL0     H18115   5.002   4.064   0.319  3.5299 -1.3759 -0.6400
  856MOL0     H18116   4.633   4.164   0.354 -0.0572  1.4512 -0.3870
  856MOL0     H18117   4.781   4.090   0.298  2.9366  1.7143  0.2070
  856MOL0     H18118   4.688   4.101   0.586 -2.0183  0.9897 -1.5727
  856MOL0     H18119   4.816   3.993   0.529  0.0249 -1.2938 -0.4324
  856MOL0     H18120   4.592   3.889   0.580 -3.1231 -1.3653 -0.0550
  856MOL0     H18121   4.515   3.970   0.439  0.3932  0.2431 -0.8703
  856MOL0     H18122   4.579   3.738   0.395  0.8305  0.4218  4.2465
  856MOL0     H18123   4.750   3.785   0.408  0.4032 -1.8157 -3.4577
  856MOL0     H18124   4.719   3.900   0.025  2.7477  0.8808  0.9044
  856MOL0     H18125   4.941   4.456   0.509  3.9275  3.6768 -0.6223
  856MOL0     H18126   5.245   4.596   0.451  1.9110 -0.5297 -1.5642
  856MOL0     H18127   5.123   4.577   0.579  0.8881  1.8221 -1.2861
  856MOL0     H18128   5.280   4.490   0.593  1.5456 -2.4080 -2.3077
  857MOL0     O18129  10.587   5.121   7.456  0.0232 -0.1816  1.0853
  857MOL0     C18130  10.579   5.032   7.364 -0.2539  0.4396 -0.7555
  857MOL0     O18131  10.680   4.981   7.300  0.1797 -0.5578  0.6177
  857MOL0     C18132  10.805   5.013   7.339 -0.4413  0.0172 -0.3462
  857MOL0     C18133  10.854   4.983   7.468 -0.6301  0.1474  0.5214
  857MOL0     C18134  10.989   4.995   7.489 -0.0989  0.2414 -0.1611
  857MOL0     C18135  11.078   5.042   7.386 -0.0845  0.3376 -0.0553
  857MOL0     O18136  11.204   5.058   7.425 -0.7627 -1.1381  0.2802
  857MOL0     C18137  11.312   5.018   7.345  0.4504  0.6293  0.1741
  857MOL0     C18138  11.421   4.975   7.437  0.1607  0.4829  0.1369
  857MOL0     C18139  11.539   4.909   7.365  0.6959 -0.5674  0.7327
  857MOL0     C18140  11.649   4.870   7.465  0.3896 -0.3511 -0.0479
  857MOL0     C18141  11.752   4.787   7.394  0.1333  0.3181  0.5538
  857MOL0     C18142  11.860   4.765   7.492  0.4358  0.7014 -0.3045
  857MOL0     C18143  11.984   4.682   7.433  0.2621  0.0170 -0.4245
  857MOL0     C18144  12.089   4.638   7.540  0.0974 -0.0649  0.0046
  857MOL0     N18145  12.047   4.520   7.615  0.2698 -0.7315  0.3119
  857MOL0     C18146  12.020   4.530   7.751 -0.8614  1.3532 -0.6632
  857MOL0     C18147  11.980   4.398   7.780 -0.9719 -0.4550 -0.5466
  857MOL0     C18148  11.917   4.355   7.916  0.4625 -0.1386  0.3524
  857MOL0     C18149  11.971   4.439   8.037 -0.0155 -0.1068 -0.3134
  857MOL0     C18150  11.944   4.390   8.174 -1.7525 -0.1856 -0.6056
  857MOL0     C18151  12.047   4.460   8.277 -0.3756 -0.7519  0.1185
  857MOL0     O18152  12.003   4.596   8.281  0.0068  0.2910  0.3514
  857MOL0     C18153  12.038   4.666   8.391 -0.1124  0.4575  0.1837
  857MOL0     C18154  11.943   4.687   8.490 -0.1908  0.1132  0.5898
  857MOL0     C18155  11.955   4.775   8.601 -0.1047  0.7309 -0.1692
  857MOL0     C18156  11.833   4.791   8.694 -1.6178 -0.1067  1.0642
  857MOL0     C18157  12.081   4.822   8.627 -0.3750  0.2845  0.4920
  857MOL0     C18158  12.119   4.919   8.733 -0.9292 -0.1955 -0.5838
  857MOL0     O18159  12.218   4.866   8.818  0.5709  0.7205 -0.4482
  857MOL0     C18160  12.296   4.934   8.911  0.4681  0.3947  0.2059
  857MOL0     C18161  12.266   5.062   8.958  0.3608  0.0530  0.1263
  857MOL0     C18162  12.368   5.113   9.047  0.1833 -0.4043 -0.0254
  857MOL0     C18163  12.479   5.051   9.093 -0.0623  0.8918  0.6347
  857MOL0     O18164  12.563   5.106   9.188 -0.2048 -0.2125  0.3756
  857MOL0     C18165  12.565   5.038   9.315 -0.0434 -0.3730  0.7734
  857MOL0     C18166  12.515   5.115   9.438  0.2064 -0.1538 -0.5012
  857MOL0     C18167  12.359   5.126   9.434 -0.2899  0.3401 -0.3363
  857MOL0     C18168  12.273   4.990   9.439 -0.2571 -0.4385  0.1572
  857MOL0     C18169  12.128   5.023   9.431 -0.1248 -0.7755 -0.6667
  857MOL0     C18170  12.043   4.903   9.397  0.4680 -1.2242  1.1208
  857MOL0     C18171  11.901   4.954   9.384  0.2479  0.0937  0.1729
  857MOL0     C18172  11.798   4.844   9.347  0.3458  0.4189  0.7144
  857MOL0    Cl18173  11.623   4.886   9.391 -0.4343 -0.0268 -0.0630
  857MOL0     C18174  12.501   4.917   9.045 -0.2336 -0.1334 -0.1961
  857MOL0     C18175  12.415   4.868   8.951  0.7839  0.1826  0.1423
  857MOL0     O18176  12.070   5.035   8.738 -0.3831  0.4453  0.0387
  857MOL0     C18177  12.176   4.801   8.524  0.4448 -0.9940 -0.2667
  857MOL0     C18178  12.159   4.727   8.405 -0.3477  0.1467  0.2065
  857MOL0     N18179  11.978   4.325   7.667 -0.0051  0.3417  1.0693
  857MOL0     N18180  12.025   4.398   7.569 -0.5700 -0.1891  0.4589
  857MOL0     C18181  11.031   5.075   7.258 -0.8656  0.0929  0.6861
  857MOL0     C18182  10.896   5.068   7.245  0.2220  0.4521 -0.4971
  857MOL0     C18183  10.441   4.996   7.338  0.9052  0.6975  0.0432
  857MOL0     C18184  10.341   5.023   7.442  0.5058 -0.9016  0.8905
  857MOL0     C18185  10.207   4.983   7.432 -0.2053 -0.7240  0.3968
  857MOL0     C18186  10.173   4.914   7.316  0.3443 -0.5974  0.7223
  857MOL0     O18187  10.050   4.849   7.314  0.6395 -0.2589 -0.7064
  857MOL0     C18188  10.004   4.771   7.430  0.4980 -0.2828 -0.0723
  857MOL0     C18189   9.851   4.780   7.434  0.1703  0.2383  0.6148
  857MOL0     C18190   9.794   4.662   7.359 -0.1866 -0.9541 -0.7206
  857MOL0     C18191   9.642   4.692   7.346 -0.3665  0.2905 -0.5990
  857MOL0     C18192   9.578   4.590   7.269  0.0148 -0.0280 -0.1707
  857MOL0     C18193   9.505   4.516   7.204 -0.9060 -0.3849  0.8615
  857MOL0     C18194  10.267   4.882   7.212  0.0970 -0.3998 -0.3988
  857MOL0     C18195  10.400   4.922   7.228  0.1948  0.2871  0.0726
  857MOL0     C18196  10.486   4.872   7.111 -0.6125 -0.6298  0.1093
  857MOL0     H18197  10.783   4.955   7.546 -0.2845 -2.3004  0.0289
  857MOL0     H18198  11.033   4.954   7.580 -0.4119  1.3841  0.5313
  857MOL0     H18199  11.345   5.088   7.267 -0.1683 -1.2327 -1.8713
  857MOL0     H18200  11.272   4.930   7.294 -0.7477  0.9403  0.5555
  857MOL0     H18201  11.455   5.060   7.497 -3.2894  1.1625  1.3777
  857MOL0     H18202  11.377   4.894   7.495  0.6538  0.8721  1.0714
  857MOL0     H18203  11.509   4.819   7.311  2.4248  0.0582 -1.4222
  857MOL0     H18204  11.578   4.970   7.283  0.6170 -1.2853  0.1555
  857MOL0     H18205  11.689   4.962   7.509  2.0425 -1.3273  0.6005
  857MOL0     H18206  11.609   4.812   7.549  0.3718  0.8724  0.8195
  857MOL0     H18207  11.787   4.839   7.305  0.2445 -0.4785  0.1157
  857MOL0     H18208  11.709   4.689   7.369  1.1192  0.1141 -0.4040
  857MOL0     H18209  11.907   4.858   7.527  2.5658 -0.9448  1.5814
  857MOL0     H18210  11.833   4.705   7.579  1.1951 -0.5098 -0.8799
  857MOL0     H18211  12.036   4.749   7.363  2.0743  1.8262  2.4411
  857MOL0     H18212  11.947   4.598   7.374 -1.5047  1.4380 -1.4656
  857MOL0     H18213  12.180   4.602   7.490  0.2448  0.3877 -0.0584
  857MOL0     H18214  12.122   4.731   7.586 -0.8280  0.6889 -0.7928
  857MOL0     H18215  12.028   4.618   7.814  2.5759  0.3313  0.5512
  857MOL0     H18216  11.950   4.253   7.938 -0.6687 -0.7243 -0.5724
  857MOL0     H18217  11.809   4.365   7.905  0.3569 -1.6481 -0.2255
  857MOL0     H18218  12.081   4.433   8.036  0.1221  1.6620 -1.3532
  857MOL0     H18219  11.939   4.543   8.029 -0.4090 -0.1919  0.1389
  857MOL0     H18220  11.844   4.427   8.197 -1.3082 -0.7789  2.9478
  857MOL0     H18221  11.951   4.281   8.183 -0.9305 -0.0571  0.5715
  857MOL0     H18222  12.026   4.421   8.377  0.8362 -0.4845  0.4928
  857MOL0     H18223  12.152   4.442   8.255 -0.4252 -2.0884  0.8265
  857MOL0     H18224  11.860   4.621   8.466  0.7681 -0.2813 -1.9244
  857MOL0     H18225  11.748   4.782   8.625  1.9371 -1.4103 -3.6594
  857MOL0     H18226  11.834   4.889   8.743 -1.2155  0.5731 -0.2465
  857MOL0     H18227  11.826   4.703   8.758 -0.7795 -0.8914  0.1116
  857MOL0     H18228  12.188   5.133   8.935 -0.5509 -0.4718  1.4549
  857MOL0     H18229  12.365   5.216   9.083 -1.2902 -0.1264 -0.8416
  857MOL0     H18230  12.513   4.943   9.304 -2.9928  1.3350 -1.3070
  857MOL0     H18231  12.671   5.021   9.338  0.6548  2.1451 -0.2599
  857MOL0     H18232  12.545   5.060   9.527  4.5393 -0.1323 -1.7208
  857MOL0     H18233  12.559   5.215   9.445 -2.2430  0.9531 -0.0871
  857MOL0     H18234  12.328   5.193   9.353 -1.3538 -0.5224 -0.6581
  857MOL0     H18235  12.337   5.178   9.528  0.4351 -1.5616  0.9452
  857MOL0     H18236  12.290   4.928   9.528  1.0363  0.3570  0.4917
  857MOL0     H18237  12.303   4.924   9.357 -0.1176 -3.7533  2.6524
  857MOL0     H18238  12.103   5.049   9.534 -0.3691 -0.9580 -0.6780
  857MOL0     H18239  12.102   5.112   9.374 -1.1803 -1.2207 -0.9000
  857MOL0     H18240  12.041   4.829   9.477  0.6251 -1.4852  0.8870
  857MOL0     H18241  12.070   4.866   9.297 -0.3866  2.3860 -0.6047
  857MOL0     H18242  11.900   5.039   9.315  0.7274  0.3320  0.4567
  857MOL0     H18243  11.877   4.999   9.481  1.8545  1.0007  0.1844
  857MOL0     H18244  11.815   4.745   9.391  0.5497 -1.8797 -3.9411
  857MOL0     H18245  11.804   4.820   9.241 -0.3871  0.9125  0.5568
  857MOL0     H18246  12.595   4.870   9.072 -2.0936 -2.5100  2.7550
  857MOL0     H18247  12.440   4.767   8.921 -1.3253 -0.5392  0.6263
  857MOL0     H18248  12.275   4.838   8.548 -0.9638  1.6323  2.0300
  857MOL0     H18249  12.232   4.709   8.327  0.3344 -0.0361  0.8740
  857MOL0     H18250  11.098   5.108   7.180 -1.2241  1.3247  0.8853
  857MOL0     H18251  10.855   5.094   7.148  0.2900  1.9390 -0.1555
  857MOL0     H18252  10.364   5.070   7.537  2.7055  1.2697 -0.5917
  857MOL0     H18253  10.139   5.001   7.515  2.1364  4.6646  1.5285
  857MOL0     H18254  10.017   4.662   7.433 -4.1421 -1.0766 -0.3843
  857MOL0     H18255  10.042   4.812   7.523  1.2501 -1.1924  0.0325
  857MOL0     H18256   9.819   4.878   7.398 -1.4393 -0.2936  0.5026
  857MOL0     H18257   9.803   4.772   7.532 -2.0565 -0.4506 -0.4705
  857MOL0     H18258   9.839   4.666   7.259  2.2575  2.7214  0.3025
  857MOL0     H18259   9.804   4.565   7.408 -1.8808 -0.3220  1.0022
  857MOL0     H18260   9.629   4.790   7.299  1.6515  1.2662  0.7223
  857MOL0     H18261   9.601   4.701   7.447  2.7398 -0.7402  0.8787
  857MOL0     H18262   9.440   4.453   7.146 -0.3014 -0.8647  0.6932
  857MOL0     H18263  10.242   4.817   7.128  1.1985 -3.7972  1.6953
  857MOL0     H18264  10.437   4.816   7.031  1.6094 -1.6147 -0.6434
  857MOL0     H18265  10.528   4.964   7.069 -1.5984  0.1349  0.7597
  857MOL0     H18266  10.572   4.818   7.151  0.0103  2.9672  4.4362
  858MOL0     O18267  10.496   0.129   3.375  0.1913 -0.0570  0.2480
  858MOL0     C18268  10.514   0.190   3.268 -0.0728  0.1248  0.6068
  858MOL0     O18269  10.636   0.194   3.204  0.2249 -0.6994  0.7284
  858MOL0     C18270  10.752   0.160   3.264 -0.4085  0.3318  1.4639
  858MOL0     C18271  10.797   0.228   3.373  0.8524 -0.0607  0.1593
  858MOL0     C18272  10.900   0.175   3.445 -0.6429  0.2891  0.1120
  858MOL0     C18273  10.959   0.055   3.409  0.8144  0.1281  0.0952
  858MOL0     O18274  11.055  -0.014   3.486 -0.2234  0.0741  0.1884
  858MOL0     C18275  11.094   0.025   3.621 -0.2771  0.1838 -0.2210
  858MOL0     C18276  11.237   0.088   3.630  0.9073 -0.6792  0.7215
  858MOL0     C18277  11.340  -0.015   3.587  0.1719  0.4842  0.2252
  858MOL0     C18278  11.476   0.051   3.597 -0.2196 -0.1610 -0.1003
  858MOL0     C18279  11.549   0.020   3.735 -0.1288  0.3993 -0.4331
  858MOL0     C18280  11.672   0.103   3.759  0.1046 -0.0194 -1.1249
  858MOL0     C18281  11.734   0.082   3.909 -0.2744 -0.2357  0.0271
  858MOL0     C18282  11.852   0.172   3.922  1.0460  0.7022 -0.4214
  858MOL0     N18283  11.974   0.110   3.868  0.0004 -0.1157  0.1126
  858MOL0     C18284  12.036   0.158   3.755 -1.0766 -0.2820 -0.2381
  858MOL0     C18285  12.137   0.066   3.740  0.3995 -0.4198 -0.6030
  858MOL0     C18286  12.237   0.082   3.635 -0.4660  0.2749 -0.1469
  858MOL0     C18287  12.323  -0.039   3.620  0.0845  0.0905 -0.2954
  858MOL0     C18288  12.453  -0.027   3.540 -0.1346  0.7312 -0.1931
  858MOL0     C18289  12.538   0.095   3.555  0.7547  0.4112  0.1852
  858MOL0     O18290  12.663   0.073   3.491 -0.1366  0.9505 -0.4859
  858MOL0     C18291  12.759   0.169   3.511 -1.0835 -0.1694  0.6820
  858MOL0     C18292  12.877   0.143   3.430  1.5352  0.1974 -0.1641
  858MOL0     C18293  12.969   0.246   3.410 -0.6564 -0.0546  0.0877
  858MOL0     C18294  13.088   0.212   3.322 -0.1552 -0.0552  0.3839
  858MOL0     C18295  12.952   0.370   3.472 -0.7299  0.0719  0.1693
  858MOL0     C18296  13.050   0.483   3.457  0.4709 -0.1269 -0.3860
  858MOL0     O18297  13.176   0.453   3.441  0.0350  0.1859 -0.2605
  858MOL0     C18298  13.263   0.542   3.396 -0.3290 -0.5001  0.5462
  858MOL0     C18299  13.380   0.554   3.470  0.0131  0.7236  0.4057
  858MOL0     C18300  13.483   0.634   3.415  0.2892  0.4352  0.2195
  858MOL0     C18301  13.475   0.698   3.286  0.2933  0.1855 -0.2165
  858MOL0     O18302  13.568   0.783   3.230 -0.3696 -0.3321  0.2112
  858MOL0     C18303  13.700   0.773   3.263 -1.1982 -0.7508  0.8985
  858MOL0     C18304  13.788   0.870   3.179 -0.4486 -0.1849  0.7329
  858MOL0     C18305  13.929   0.848   3.236 -0.0862  0.4484  0.4871
  858MOL0     C18306  14.033   0.914   3.148  0.0121 -0.1700 -0.2179
  858MOL0     C18307  14.167   0.881   3.205 -0.3414 -0.1028  0.7687
  858MOL0     C18308  14.280   0.945   3.122  0.3000 -0.6954 -1.1098
  858MOL0     C18309  14.426   0.918   3.186  0.3543 -0.1832 -1.0603
  858MOL0     C18310  14.519   1.032   3.150  0.7166  0.3586  0.2157
  858MOL0    Cl18311  14.555   1.004   2.976  0.3534 -0.3562 -0.0566
  858MOL0     C18312  13.352   0.682   3.210 -0.4490  0.4515 -0.2989
  858MOL0     C18313  13.255   0.592   3.265  0.0918  0.2641  0.2894
  858MOL0     O18314  13.011   0.603   3.481 -0.4926  1.0326  0.9082
  858MOL0     C18315  12.836   0.395   3.558  0.1568  0.0073  0.1145
  858MOL0     C18316  12.733   0.299   3.571 -0.0148 -0.7318 -1.2319
  858MOL0     N18317  12.114  -0.038   3.831  0.0525 -0.5436 -0.1504
  858MOL0     N18318  12.020  -0.014   3.903  0.4155 -0.3612  0.1421
  858MOL0     C18319  10.927   0.000   3.286  0.3175  0.5925  0.7723
  858MOL0     C18320  10.820   0.052   3.202 -0.1510  0.1347 -0.5208
  858MOL0     C18321  10.393   0.225   3.183 -0.6726 -0.2454 -0.3224
  858MOL0     C18322  10.384   0.170   3.049 -0.5137  0.7200  0.3958
  858MOL0     C18323  10.268   0.193   2.978  0.1165 -0.4850  0.5545
  858MOL0     C18324  10.169   0.271   3.033 -0.4200 -0.0273 -0.1881
  858MOL0     O18325  10.049   0.297   2.976 -0.3193 -0.3129 -0.1895
  858MOL0     C18326   9.939   0.225   3.035 -0.2838 -0.6150  0.4650
  858MOL0     C18327   9.878   0.145   2.927 -0.8315 -0.3403  0.3099
  858MOL0     C18328   9.777   0.051   2.994  0.4486 -0.4457 -0.2912
  858MOL0     C18329   9.694  -0.049   2.904  0.1292  0.9773  0.3275
  858MOL0     C18330   9.599   0.023   2.812  0.4881 -0.2440  0.9548
  858MOL0     C18331   9.524   0.082   2.741 -0.2468 -0.7200 -0.1505
  858MOL0     C18332  10.187   0.339   3.154 -0.6259 -0.4245 -0.9146
  858MOL0     C18333  10.297   0.312   3.234 -0.6650  0.7308 -0.5810
  858MOL0     C18334  10.318   0.393   3.367  0.1380  0.1499  0.2399
  858MOL0     H18335  10.746   0.320   3.401 -0.0272  0.0495 -1.6751
  858MOL0     H18336  10.923   0.233   3.534  0.7141  0.2138 -0.1743
  858MOL0     H18337  11.091  -0.070   3.675 -1.8461 -0.8265 -1.9854
  858MOL0     H18338  11.017   0.097   3.651  1.1999  1.8003 -0.1171
  858MOL0     H18339  11.253   0.163   3.553 -0.7350 -0.6754  0.3501
  858MOL0     H18340  11.244   0.138   3.727 -0.4938 -0.2286  0.6102
  858MOL0     H18341  11.333  -0.099   3.656 -0.3376 -0.4636 -0.9412
  858MOL0     H18342  11.317  -0.050   3.486 -3.5032 -3.8628  2.2287
  858MOL0     H18343  11.538   0.008   3.519 -0.6907  1.1360 -1.2194
  858MOL0     H18344  11.475   0.159   3.579 -1.3553  0.4073  2.7751
  858MOL0     H18345  11.569  -0.087   3.723 -1.9793  0.2380 -3.1585
  858MOL0     H18346  11.488   0.035   3.825  3.5447 -0.7617  2.5157
  858MOL0     H18347  11.745   0.072   3.683  0.0649 -0.4170 -1.0052
  858MOL0     H18348  11.644   0.208   3.747 -1.7704 -0.3979 -0.3881
  858MOL0     H18349  11.762  -0.023   3.917  3.1299  0.7186  3.2875
  858MOL0     H18350  11.652   0.108   3.977 -2.3947 -1.2444 -2.0152
  858MOL0     H18351  11.834   0.268   3.873  0.0590  0.5838 -0.3039
  858MOL0     H18352  11.871   0.192   4.028  0.3732  3.7572 -0.7912
  858MOL0     H18353  12.022   0.251   3.700 -2.4907 -0.6173 -0.4838
  858MOL0     H18354  12.286   0.179   3.647  1.8638 -0.8626  0.1193
  858MOL0     H18355  12.190   0.091   3.536 -0.7225 -1.2572 -0.1973
  858MOL0     H18356  12.361  -0.068   3.719  0.0526 -0.5861 -0.4772
  858MOL0     H18357  12.265  -0.122   3.578  1.4955  0.1162 -2.4449
  858MOL0     H18358  12.508  -0.119   3.563 -0.3261  1.0433  1.6680
  858MOL0     H18359  12.421  -0.027   3.436  1.2777  0.3069 -0.6562
  858MOL0     H18360  12.478   0.171   3.504 -0.4764 -0.3034  0.5287
  858MOL0     H18361  12.545   0.129   3.659 -1.6269  5.3720 -0.9333
  858MOL0     H18362  12.889   0.051   3.374  0.0696  0.6686 -1.3064
  858MOL0     H18363  13.074   0.112   3.280  1.2577 -0.0226 -0.1989
  858MOL0     H18364  13.178   0.212   3.383  0.6369 -0.3316 -0.7556
  858MOL0     H18365  13.103   0.284   3.242  3.1251 -2.1798 -1.1164
  858MOL0     H18366  13.392   0.502   3.564  1.6660 -0.7024 -0.5317
  858MOL0     H18367  13.572   0.644   3.476  0.3377  0.8906  0.0779
  858MOL0     H18368  13.706   0.796   3.370 -5.7413  1.6399  0.8792
  858MOL0     H18369  13.738   0.672   3.244 -0.6587 -1.0755  3.3186
  858MOL0     H18370  13.781   0.839   3.075  0.0801  0.7968  0.4000
  858MOL0     H18371  13.743   0.969   3.190  0.6277  0.0939  3.3997
  858MOL0     H18372  13.956   0.744   3.258  2.8898  1.2849  1.3531
  858MOL0     H18373  13.931   0.910   3.325  2.6620  1.2197  0.0057
  858MOL0     H18374  14.003   1.018   3.136 -1.1052 -0.5196 -0.5533
  858MOL0     H18375  14.032   0.881   3.044 -2.4227  0.4079 -0.4321
  858MOL0     H18376  14.180   0.910   3.309  1.8451 -1.3611  0.8941
  858MOL0     H18377  14.175   0.773   3.195 -2.2397 -0.0638 -3.0887
  858MOL0     H18378  14.264   1.052   3.108  0.6164 -0.8200 -2.5611
  858MOL0     H18379  14.283   0.902   3.021 -0.4664 -0.2994 -1.3064
  858MOL0     H18380  14.466   0.822   3.154  1.9162 -0.0498  0.3278
  858MOL0     H18381  14.417   0.925   3.295 -2.2377  0.8413 -1.2604
  858MOL0     H18382  14.613   1.021   3.206  0.7012 -0.8492  0.0335
  858MOL0     H18383  14.484   1.131   3.178 -0.0056  0.2379 -0.2326
  858MOL0     H18384  13.342   0.735   3.116  0.4476 -1.5661 -1.5987
  858MOL0     H18385  13.167   0.571   3.206  1.0785  0.3073 -1.2769
  858MOL0     H18386  12.826   0.491   3.608 -2.5337 -0.3755  0.4852
  858MOL0     H18387  12.650   0.316   3.638  1.0481 -1.3815  0.3191
  858MOL0     H18388  10.971  -0.097   3.267 -1.1593 -0.1051  0.8268
  858MOL0     H18389  10.780   0.007   3.111  1.4898  0.6165 -1.5052
  858MOL0     H18390  10.465   0.110   3.007  0.6807  2.0420  0.7167
  858MOL0     H18391  10.235   0.148   2.885 -2.2624 -1.7392  1.8971
  858MOL0     H18392   9.974   0.162   3.118 -0.7649 -0.2490  0.9528
  858MOL0     H18393   9.862   0.297   3.065 -1.9111 -2.7520  1.6477
  858MOL0     H18394   9.957   0.095   2.869 -0.6145  0.5485 -0.1793
  858MOL0     H18395   9.838   0.216   2.855  2.7271  2.0042  0.3747
  858MOL0     H18396   9.825  -0.009   3.072  0.4399 -0.9787 -0.6893
  858MOL0     H18397   9.707   0.120   3.042  0.6517 -2.0849  2.6005
  858MOL0     H18398   9.621  -0.108   2.961  0.6670  2.1751  2.3418
  858MOL0     H18399   9.764  -0.116   2.853 -1.5138 -1.2772  0.8489
  858MOL0     H18400   9.450   0.137   2.686  0.1141 -0.9906 -0.9343
  858MOL0     H18401  10.111   0.407   3.192 -0.5292  0.3111 -1.9997
  858MOL0     H18402  10.298   0.334   3.457  0.0987 -0.1999  0.0065
  858MOL0     H18403  10.420   0.431   3.365 -0.3541  1.5074 -1.0769
  858MOL0     H18404  10.256   0.483   3.356 -1.3357 -0.9948 -1.4148
  859MOL0     O18405  11.290  11.071   0.613  0.5299 -0.3660  0.1930
  859MOL0     C18406  11.318  11.140   0.705  0.0901 -0.4324  0.4768
  859MOL0     O18407  11.375  11.261   0.693  0.7416  0.7495 -0.2423
  859MOL0     C18408  11.435  11.308   0.578 -0.3329 -0.4871  0.4103
  859MOL0     C18409  11.445  11.446   0.558 -0.5134 -0.4994  0.5167
  859MOL0     C18410  11.516  11.504   0.452 -0.2110  0.6520 -0.4289
  859MOL0     C18411  11.581  11.414   0.363  0.8261 -0.4021  0.2741
  859MOL0     O18412  11.636  11.471   0.246 -0.4379 -0.1572 -0.4310
  859MOL0     C18413  11.690  11.391   0.137  0.1395 -0.2990 -1.0593
  859MOL0     C18414  11.571  11.315   0.076  0.1378  0.1229  0.3535
  859MOL0     C18415  11.459  11.414   0.035 -0.6930 -0.0017  0.0642
  859MOL0     C18416  11.486  11.500  -0.089 -0.1907  0.0782 -0.3091
  859MOL0     C18417  11.361  11.592  -0.116  0.3729  1.0368  0.1400
  859MOL0     C18418  11.403  11.690  -0.219  0.0582  0.1557  0.5250
  859MOL0     C18419  11.503  11.796  -0.173 -0.3484  0.7691 -0.0115
  859MOL0     C18420  11.520  11.909  -0.267  0.5043 -1.2423 -0.6128
  859MOL0     N18421  11.564  11.863  -0.401 -0.4952  0.1738  0.1355
  859MOL0     C18422  11.676  11.785  -0.426 -0.2447  0.5434  0.0808
  859MOL0     C18423  11.700  11.792  -0.557  0.1038 -0.1128  0.2586
  859MOL0     C18424  11.819  11.734  -0.635 -0.4545  0.0410 -0.2825
  859MOL0     C18425  11.771  11.685  -0.775 -0.1542 -0.6380 -0.6283
  859MOL0     C18426  11.690  11.547  -0.781 -0.0108 -0.1107  0.0956
  859MOL0     C18427  11.542  11.561  -0.752 -0.2025  0.0862  0.4650
  859MOL0     O18428  11.489  11.431  -0.725  0.4406 -0.0825  0.3059
  859MOL0     C18429  11.378  11.416  -0.646 -0.0377 -0.0182 -0.0539
  859MOL0     C18430  11.310  11.293  -0.655 -0.9440 -0.1163  0.9746
  859MOL0     C18431  11.198  11.263  -0.580 -0.4130 -0.9197  0.0263
  859MOL0     C18432  11.128  11.135  -0.607 -0.7549  0.1649  0.2437
  859MOL0     C18433  11.166  11.356  -0.476  0.5919 -0.0914  0.3456
  859MOL0     C18434  11.065  11.321  -0.363 -0.3165 -0.4578 -0.0242
  859MOL0     O18435  11.057  11.400  -0.253 -0.7389  0.1303 -0.0844
  859MOL0     C18436  10.961  11.395  -0.154  0.0747  0.6983  0.7146
  859MOL0     C18437  10.822  11.386  -0.185  0.1530 -0.1886  0.1202
  859MOL0     C18438  10.720  11.407  -0.085 -0.4765 -0.3379 -0.0795
  859MOL0     C18439  10.761  11.434   0.053 -0.2877  0.2552 -0.5431
  859MOL0     O18440  10.680  11.464   0.153  0.3383  0.2799 -0.3505
  859MOL0     C18441  10.537  11.433   0.136 -0.0361 -1.0561 -0.2995
  859MOL0     C18442  10.454  11.518   0.236 -0.4976  0.7219  0.1300
  859MOL0     C18443  10.471  11.672   0.217 -0.3313  0.5035 -1.1707
  859MOL0     C18444  10.361  11.747   0.291  0.0155  0.2081 -0.3607
  859MOL0     C18445  10.397  11.893   0.302  0.1602 -0.0762  0.1590
  859MOL0     C18446  10.285  11.967   0.380  0.5344 -0.1544 -0.2106
  859MOL0     C18447  10.335  12.112   0.405  0.1984  1.0214 -0.5398
  859MOL0     C18448  10.245  12.213   0.467 -0.1081  0.5528 -0.2771
  859MOL0    Cl18449  10.311  12.371   0.461  0.1951 -0.0049 -0.1229
  859MOL0     C18450  10.897  11.443   0.075 -0.0572 -0.1595 -0.4514
  859MOL0     C18451  10.996  11.419  -0.020  0.0632  0.4949  1.2143
  859MOL0     O18452  10.993  11.226  -0.383 -0.8370 -0.2269  0.5928
  859MOL0     C18453  11.228  11.483  -0.464 -0.2111  0.5493 -0.1517
  859MOL0     C18454  11.331  11.507  -0.548 -0.4499  0.3712 -0.1367
  859MOL0     N18455  11.599  11.868  -0.620 -0.3341  1.0070  0.1395
  859MOL0     N18456  11.516  11.907  -0.526  0.3487  0.0334  0.0257
  859MOL0     C18457  11.585  11.275   0.392 -0.0268 -0.4780  0.7707
  859MOL0     C18458  11.510  11.221   0.495 -1.2896  0.7550 -0.4266
  859MOL0     C18459  11.311  11.092   0.850 -0.5482 -0.1508  0.7826
  859MOL0     C18460  11.356  11.179   0.952  0.7178  0.4703  0.0171
  859MOL0     C18461  11.330  11.144   1.087 -0.3051 -0.4713 -0.3604
  859MOL0     C18462  11.247  11.041   1.124 -0.2372  0.6471 -0.4965
  859MOL0     O18463  11.222  11.032   1.260  0.5176 -0.5357  0.3656
  859MOL0     C18464  11.210  10.897   1.318 -0.4862 -0.5197 -0.4285
  859MOL0     C18465  11.068  10.864   1.365 -0.2278 -0.6375  0.0592
  859MOL0     C18466  11.014  10.728   1.333  0.6847 -0.7815 -0.9521
  859MOL0     C18467  10.860  10.705   1.349  0.8638  0.4202  0.3470
  859MOL0     C18468  10.766  10.788   1.276 -0.0989 -0.0159 -0.9991
  859MOL0     C18469  10.686  10.858   1.212 -1.2646  1.0734  0.0494
  859MOL0     C18470  11.197  10.963   1.023 -1.2688 -0.7191  0.2882
  859MOL0     C18471  11.228  10.980   0.887  0.3358 -1.2523 -1.2384
  859MOL0     C18472  11.169  10.869   0.797 -0.5454  0.1345  0.7024
  859MOL0     H18473  11.381  11.515   0.613  0.1663  1.6540 -1.2784
  859MOL0     H18474  11.513  11.612   0.445  1.8715  0.8265  0.4011
  859MOL0     H18475  11.774  11.330   0.172  0.0977  0.8358  1.2500
  859MOL0     H18476  11.728  11.468   0.070  1.5014  0.4186  0.4750
  859MOL0     H18477  11.608  11.257  -0.009  0.1637  0.4053  0.1672
  859MOL0     H18478  11.520  11.248   0.145  0.4485  1.1137  1.5777
  859MOL0     H18479  11.373  11.355   0.002 -1.6614  2.0592 -1.3421
  859MOL0     H18480  11.419  11.474   0.117 -0.9343  4.4362 -2.9498
  859MOL0     H18481  11.575  11.556  -0.057 -0.1263 -0.2739  0.1487
  859MOL0     H18482  11.522  11.452  -0.181 -0.2806  1.7468 -1.2531
  859MOL0     H18483  11.323  11.642  -0.027 -0.9724  0.9690 -0.3672
  859MOL0     H18484  11.280  11.532  -0.158  2.6214 -0.2041 -2.8688
  859MOL0     H18485  11.450  11.636  -0.302  1.6407 -0.2044  1.6134
  859MOL0     H18486  11.316  11.745  -0.256  0.1475  1.9984  2.8328
  859MOL0     H18487  11.602  11.753  -0.154 -0.7510 -0.8685 -1.3816
  859MOL0     H18488  11.468  11.839  -0.079  1.3689  4.7152 -0.9660
  859MOL0     H18489  11.422  11.956  -0.275  0.1653 -0.9970  3.2119
  859MOL0     H18490  11.602  11.977  -0.240 -0.5773 -0.3553  0.6004
  859MOL0     H18491  11.717  11.717  -0.352 -1.6134  0.9215  1.2174
  859MOL0     H18492  11.860  11.649  -0.581  2.9074  1.2723 -0.6396
  859MOL0     H18493  11.896  11.810  -0.646  0.2592 -0.6922 -0.4222
  859MOL0     H18494  11.713  11.766  -0.819 -2.1447 -0.2608  2.3534
  859MOL0     H18495  11.859  11.673  -0.839  1.5557  1.6340  1.1060
  859MOL0     H18496  11.700  11.504  -0.881 -2.4289  2.1416 -1.2459
  859MOL0     H18497  11.734  11.476  -0.709 -1.0083 -2.0595 -1.1375
  859MOL0     H18498  11.532  11.620  -0.661 -1.3726  0.5373  0.0571
  859MOL0     H18499  11.485  11.613  -0.829  0.9144 -1.0166 -1.1733
  859MOL0     H18500  11.352  11.231  -0.733  0.7109  0.5832  1.2471
  859MOL0     H18501  11.159  11.063  -0.531  2.7361 -1.0839 -2.1250
  859MOL0     H18502  11.147  11.103  -0.709 -1.6424  1.2790 -0.2964
  859MOL0     H18503  11.020  11.148  -0.595 -0.9783 -0.5189 -0.9102
  859MOL0     H18504  10.780  11.341  -0.274  1.5680 -1.4677  0.0615
  859MOL0     H18505  10.617  11.402  -0.117 -0.9549  2.4338  0.7225
  859MOL0     H18506  10.505  11.463   0.036  3.2976  0.2737 -1.0951
  859MOL0     H18507  10.515  11.326   0.149  0.3799 -1.5119 -2.7366
  859MOL0     H18508  10.349  11.497   0.218 -0.7564  0.2646  1.9682
  859MOL0     H18509  10.474  11.493   0.341  0.0821 -0.3483 -0.2294
  859MOL0     H18510  10.469  11.685   0.108 -2.1481 -1.6317 -1.4679
  859MOL0     H18511  10.570  11.702   0.252 -1.0442  0.4626  1.0204
  859MOL0     H18512  10.345  11.710   0.393 -0.3986 -0.4277 -0.6469
  859MOL0     H18513  10.274  11.728   0.226  1.0299 -0.7528 -1.4830
  859MOL0     H18514  10.494  11.905   0.350  0.2435 -1.1462  0.2695
  859MOL0     H18515  10.392  11.932   0.199  1.4175  0.5343  0.3023
  859MOL0     H18516  10.265  11.920   0.476 -0.7554  2.9714  1.1848
  859MOL0     H18517  10.193  11.960   0.322 -0.2923 -3.6659  1.2618
  859MOL0     H18518  10.352  12.143   0.302  0.6966 -0.9422 -1.0980
  859MOL0     H18519  10.428  12.124   0.461  1.0938  1.8199 -2.1366
  859MOL0     H18520  10.219  12.195   0.572  2.3485 -0.2934  0.2654
  859MOL0     H18521  10.146  12.216   0.422 -0.1786 -0.3150 -0.1894
  859MOL0     H18522  10.926  11.465   0.177  0.0723  0.5803 -0.6465
  859MOL0     H18523  11.099  11.432   0.009 -0.1019  4.2643  0.5161
  859MOL0     H18524  11.211  11.558  -0.387 -0.1652 -1.1941  1.6239
  859MOL0     H18525  11.365  11.610  -0.546 -0.9799  0.5413  1.3173
  859MOL0     H18526  11.635  11.214   0.316  0.2057  0.7290 -0.0746
  859MOL0     H18527  11.514  11.114   0.511  1.8263  0.6189 -1.5187
  859MOL0     H18528  11.409  11.270   0.925  0.3133  0.0481 -2.4240
  859MOL0     H18529  11.368  11.196   1.174 -0.7213 -3.2988  1.6285
  859MOL0     H18530  11.248  10.826   1.243  1.1152  0.1031 -0.2528
  859MOL0     H18531  11.281  10.886   1.400  0.9707  1.2314 -1.3735
  859MOL0     H18532  10.998  10.929   1.312  0.7069 -0.1667 -0.6251
  859MOL0     H18533  11.055  10.886   1.471 -2.8430 -0.6432 -0.2085
  859MOL0     H18534  11.035  10.709   1.227 -0.4196  2.3377 -1.8415
  859MOL0     H18535  11.064  10.650   1.390 -1.2330 -0.7387  0.8887
  859MOL0     H18536  10.831  10.707   1.455  0.8886 -0.7857  0.3886
  859MOL0     H18537  10.841  10.602   1.318  2.6519  0.0463  0.3772
  859MOL0     H18538  10.646  10.936   1.151 -1.1588 -0.6625 -2.3608
  859MOL0     H18539  11.128  10.888   1.059  0.3249 -2.8447 -0.8516
  859MOL0     H18540  11.117  10.910   0.711 -0.1389  0.5441  0.6425
  859MOL0     H18541  11.245  10.802   0.755  0.8766  3.1358 -1.9291
  859MOL0     H18542  11.097  10.812   0.856 -1.0052 -0.8992 -0.8173
  860MOL0     O18543   2.301   9.874   4.122 -0.5019  0.2696 -0.1142
  860MOL0     C18544   2.316   9.990   4.110 -0.4201 -0.9808  0.6034
  860MOL0     O18545   2.387  10.075   4.182  0.7988 -0.7297  0.9577
  860MOL0     C18546   2.503  10.032   4.227  0.2518  0.2773 -0.4899
  860MOL0     C18547   2.608  10.008   4.149 -0.4986 -0.2640 -0.3261
  860MOL0     C18548   2.735   9.960   4.193  0.1686 -1.1139  0.3577
  860MOL0     C18549   2.748   9.936   4.331  0.0014  0.3139 -1.5728
  860MOL0     O18550   2.872   9.895   4.396  0.4230  0.6681  1.1793
  860MOL0     C18551   2.989   9.904   4.310 -0.2647 -0.3284  0.6998
  860MOL0     C18552   3.111   9.891   4.403  0.0073 -0.5722 -0.6940
  860MOL0     C18553   3.123   9.992   4.518 -0.5667  0.1989 -0.7255
  860MOL0     C18554   3.259   9.992   4.596  0.4674 -0.4113  0.8493
  860MOL0     C18555   3.372  10.056   4.516 -0.9231 -0.4035 -0.0856
  860MOL0     C18556   3.491   9.959   4.474 -0.4287 -0.1448 -0.3184
  860MOL0     C18557   3.606  10.032   4.403  0.0652 -0.0952 -0.3216
  860MOL0     C18558   3.755   9.989   4.420  0.6106 -0.3522 -0.4261
  860MOL0     N18559   3.806  10.007   4.555  0.6683 -0.2613 -1.0422
  860MOL0     C18560   3.803   9.912   4.649 -0.3495 -0.3557 -0.6868
  860MOL0     C18561   3.910   9.936   4.737 -0.3669 -1.2317  0.7015
  860MOL0     C18562   3.949   9.864   4.860 -0.1902 -0.0603 -0.0392
  860MOL0     C18563   3.909   9.951   4.987 -0.8198 -0.2137 -0.8076
  860MOL0     C18564   3.915   9.873   5.115 -1.1413 -0.0207  0.1584
  860MOL0     C18565   4.058   9.836   5.153 -0.5429 -0.4293 -0.1321
  860MOL0     O18566   4.130   9.961   5.159 -0.5430  0.6207 -0.0926
  860MOL0     C18567   4.264   9.960   5.201  0.3089  0.3987  0.2514
  860MOL0     C18568   4.332  10.084   5.216  0.0711  0.0659 -0.3259
  860MOL0     C18569   4.469  10.086   5.242 -0.5481 -0.4175 -1.4232
  860MOL0     C18570   4.530  10.219   5.285  0.5812 -0.5445 -0.9629
  860MOL0     C18571   4.541   9.969   5.241  0.7457  1.1384 -0.2185
  860MOL0     C18572   4.686   9.953   5.245  0.0846  0.5441 -0.3287
  860MOL0     O18573   4.733   9.837   5.296 -1.0519 -0.4766 -0.0171
  860MOL0     C18574   4.869   9.831   5.312  0.1851  0.1055  0.2124
  860MOL0     C18575   4.937   9.917   5.396 -0.2250 -0.2445  0.2346
  860MOL0     C18576   5.079   9.907   5.427 -0.6828 -0.1931  0.4610
  860MOL0     C18577   5.150   9.805   5.380  0.1386  0.1695 -0.4228
  860MOL0     O18578   5.286   9.795   5.403  0.7699  0.6589 -0.5173
  860MOL0     C18579   5.346   9.884   5.498 -0.6193 -0.2049  0.2625
  860MOL0     C18580   5.491   9.843   5.517 -1.0383 -0.1827 -0.4171
  860MOL0     C18581   5.495   9.706   5.574 -0.1798  0.4396  0.8838
  860MOL0     C18582   5.631   9.653   5.611 -0.1292 -0.0327 -1.0993
  860MOL0     C18583   5.622   9.510   5.668 -0.1999 -0.2988 -0.2952
  860MOL0     C18584   5.758   9.459   5.712 -0.2699  0.1033 -0.6441
  860MOL0     C18585   5.743   9.319   5.787  0.0562 -0.0659  0.0053
  860MOL0     C18586   5.881   9.251   5.802  0.2912 -0.1476 -0.4264
  860MOL0    Cl18587   5.994   9.343   5.902 -0.0231  0.1788  0.4808
  860MOL0     C18588   5.082   9.720   5.296  0.5967 -0.4845  0.4173
  860MOL0     C18589   4.947   9.736   5.261 -0.5679 -0.6798  0.7921
  860MOL0     O18590   4.753  10.053   5.216  0.0045  0.8922  1.0193
  860MOL0     C18591   4.471   9.841   5.241  0.0364 -0.0869 -0.1699
  860MOL0     C18592   4.331   9.836   5.237 -0.7308  0.0710  0.2656
  860MOL0     N18593   3.959  10.056   4.696 -0.5739 -0.7512  0.5293
  860MOL0     N18594   3.907  10.096   4.586 -0.1622  0.3182  0.5862
  860MOL0     C18595   2.636   9.944   4.413  0.4480 -1.4883  0.4103
  860MOL0     C18596   2.514   9.996   4.364 -0.3195  0.5658  0.2925
  860MOL0     C18597   2.230  10.078   4.019  0.1792 -0.9305  0.0701
  860MOL0     C18598   2.290  10.198   3.964 -0.2816  0.4911 -0.4309
  860MOL0     C18599   2.217  10.271   3.868 -0.0562 -0.0938  0.0350
  860MOL0     C18600   2.093  10.228   3.823 -0.1605  0.1788  0.2066
  860MOL0     O18601   2.023  10.288   3.725 -0.5807  0.3421  0.2460
  860MOL0     C18602   2.057  10.411   3.680 -0.1072  0.0315  1.2318
  860MOL0     C18603   2.013  10.524   3.775 -0.2324 -0.6327  0.1758
  860MOL0     C18604   1.860  10.529   3.796  0.6116 -0.6243 -0.3430
  860MOL0     C18605   1.800  10.636   3.896  0.6036 -0.0211 -0.2049
  860MOL0     C18606   1.782  10.764   3.826 -0.2714 -0.5390  0.0837
  860MOL0     C18607   1.779  10.870   3.777 -0.9150 -1.1394  0.3457
  860MOL0     C18608   2.037  10.120   3.894 -0.4746 -0.2301 -0.9290
  860MOL0     C18609   2.096  10.043   3.989 -0.8961  0.7378  0.6195
  860MOL0     C18610   2.024   9.928   4.060 -0.2874  0.0146  0.3199
  860MOL0     H18611   2.601  10.021   4.041 -0.4130 -1.7079 -0.5331
  860MOL0     H18612   2.813   9.950   4.119  0.4653  1.7699  0.1480
  860MOL0     H18613   2.989  10.002   4.260 -0.5791 -0.0173  1.2945
  860MOL0     H18614   2.997   9.827   4.233 -2.9526  0.5222 -0.5420
  860MOL0     H18615   3.108   9.788   4.441 -2.2834  0.4834  2.4977
  860MOL0     H18616   3.199   9.897   4.338 -1.4188  0.1169 -2.6657
  860MOL0     H18617   3.102  10.093   4.482 -1.5685  0.2964  0.1161
  860MOL0     H18618   3.038   9.960   4.578 -0.0153 -1.5549 -0.8359
  860MOL0     H18619   3.252  10.036   4.696  2.8821 -0.0881  0.9375
  860MOL0     H18620   3.284   9.888   4.616 -0.3138 -1.1383 -1.6431
  860MOL0     H18621   3.411  10.136   4.580 -2.5324  0.7670 -0.5131
  860MOL0     H18622   3.340  10.106   4.424  1.6291  1.7948  0.0884
  860MOL0     H18623   3.536   9.907   4.560 -0.5363  0.4423  0.0965
  860MOL0     H18624   3.449   9.885   4.406 -4.0911  0.4097  1.1079
  860MOL0     H18625   3.609  10.139   4.428 -2.2388  0.0972 -0.6709
  860MOL0     H18626   3.578  10.032   4.298 -0.4288  3.3381 -0.3133
  860MOL0     H18627   3.762   9.888   4.378  0.5634  0.1642 -1.7421
  860MOL0     H18628   3.829  10.034   4.353  1.0224  2.5852  1.8135
  860MOL0     H18629   3.740   9.824   4.659 -0.9221  0.2372  1.4714
  860MOL0     H18630   4.057   9.847   4.857 -0.2174 -0.2697 -3.2272
  860MOL0     H18631   3.896   9.768   4.861  1.2653 -0.8816  0.4131
  860MOL0     H18632   3.965  10.045   4.995 -1.0204 -0.0284 -1.5424
  860MOL0     H18633   3.804   9.978   4.972 -0.0636  1.8599 -3.1272
  860MOL0     H18634   3.877   9.939   5.194  0.2016  1.5177 -0.4133
  860MOL0     H18635   3.855   9.782   5.117 -1.6890  0.3444  1.5524
  860MOL0     H18636   4.056   9.783   5.248  1.8430 -1.2122 -0.4550
  860MOL0     H18637   4.109   9.780   5.074  1.1117  2.8880 -1.6232
  860MOL0     H18638   4.283  10.175   5.181  0.2786  0.1266 -0.4586
  860MOL0     H18639   4.593  10.268   5.210  0.2010  2.0648  0.3064
  860MOL0     H18640   4.590  10.201   5.375 -1.8360 -1.0350  0.6534
  860MOL0     H18641   4.458  10.288   5.329  0.7919  0.8752 -2.7367
  860MOL0     H18642   4.886   9.995   5.451  1.3217  0.5700  0.5707
  860MOL0     H18643   5.113   9.990   5.489 -1.1884  0.7876 -0.5401
  860MOL0     H18644   5.346   9.983   5.452  1.6845 -0.1697  0.2595
  860MOL0     H18645   5.290   9.901   5.591 -1.9113  3.8715 -1.0554
  860MOL0     H18646   5.538   9.839   5.418  1.1848 -0.8875  0.5945
  860MOL0     H18647   5.545   9.911   5.583  0.9792 -1.2100 -0.9172
  860MOL0     H18648   5.450   9.632   5.508  2.5291 -0.0837 -0.5315
  860MOL0     H18649   5.443   9.706   5.670  0.1011 -0.3124  1.0418
  860MOL0     H18650   5.678   9.718   5.686 -3.1182  0.9349  0.0871
  860MOL0     H18651   5.700   9.649   5.526 -0.0629 -0.8473 -1.0108
  860MOL0     H18652   5.554   9.514   5.754 -1.1121 -1.5628 -0.9333
  860MOL0     H18653   5.581   9.447   5.589  1.8544 -1.3513 -0.5765
  860MOL0     H18654   5.809   9.533   5.774 -0.8961 -0.2051  0.2684
  860MOL0     H18655   5.826   9.453   5.627 -0.6857  2.3539 -1.1937
  860MOL0     H18656   5.675   9.263   5.722 -0.6885  0.5735  0.2145
  860MOL0     H18657   5.698   9.324   5.887 -0.8331 -1.7008 -0.2750
  860MOL0     H18658   5.921   9.236   5.701 -1.6183 -3.6469 -0.8224
  860MOL0     H18659   5.879   9.147   5.836  4.7321 -1.4982 -3.4747
  860MOL0     H18660   5.147   9.642   5.258  1.1744  0.3520 -0.3434
  860MOL0     H18661   4.910   9.656   5.198  0.3042 -2.5937  2.5887
  860MOL0     H18662   4.529   9.750   5.246 -1.6827 -1.1712  1.1339
  860MOL0     H18663   4.291   9.734   5.239  1.4800 -0.8612 -0.5872
  860MOL0     H18664   2.657   9.917   4.516  1.4175 -3.5785 -0.2915
  860MOL0     H18665   2.431  10.031   4.424 -1.3996 -0.6844 -0.4151
  860MOL0     H18666   2.389  10.225   3.999 -0.2909 -2.6131  2.4896
  860MOL0     H18667   2.269  10.358   3.829 -1.0831  0.9154  0.8935
  860MOL0     H18668   2.166  10.413   3.664 -0.1392 -3.6280 -0.6334
  860MOL0     H18669   2.004  10.423   3.586  2.1841 -0.6323 -0.2365
  860MOL0     H18670   2.052  10.619   3.736  0.9864 -0.1548  2.3748
  860MOL0     H18671   2.061  10.515   3.873  3.7168  1.2231 -1.3555
  860MOL0     H18672   1.815  10.543   3.697 -1.8509 -0.9362  0.6626
  860MOL0     H18673   1.829  10.428   3.825 -1.5459 -0.0963 -0.6564
  860MOL0     H18674   1.864  10.645   3.984  1.1184  1.8300 -0.7261
  860MOL0     H18675   1.703  10.604   3.937  0.9791  1.6767  2.2394
  860MOL0     H18676   1.768  10.963   3.725 -1.6628 -1.4295 -0.0235
  860MOL0     H18677   1.934  10.101   3.867 -0.9121  1.0676 -0.2566
  860MOL0     H18678   1.917   9.931   4.038 -0.7187 -2.5222  1.7074
  860MOL0     H18679   2.062   9.841   4.006  2.3505  0.3173  1.5520
  860MOL0     H18680   2.032   9.926   4.169  0.1100  1.9338  0.3627
  861MOL0     O18681   8.512   3.383   0.920 -0.7159 -0.3063 -0.2751
  861MOL0     C18682   8.459   3.488   0.949  0.4146 -0.4387  0.2990
  861MOL0     O18683   8.489   3.567   1.054 -0.0914 -0.0941  0.4550
  861MOL0     C18684   8.611   3.541   1.116 -0.6021  0.0804  0.9494
  861MOL0     C18685   8.712   3.638   1.117  0.0841 -0.7756 -0.2517
  861MOL0     C18686   8.837   3.628   1.177 -0.4418  0.1064  0.3157
  861MOL0     C18687   8.863   3.503   1.238  0.3527  0.3146  0.3538
  861MOL0     O18688   8.988   3.480   1.295  0.4975 -0.6801 -0.3536
  861MOL0     C18689   9.028   3.353   1.352  0.8354  0.0867  0.5869
  861MOL0     C18690   9.166   3.354   1.419  0.1973  0.7896 -0.5932
  861MOL0     C18691   9.173   3.453   1.534  0.6596  0.7001 -0.1364
  861MOL0     C18692   9.299   3.435   1.608  0.4732  0.0992 -0.2692
  861MOL0     C18693   9.330   3.546   1.715 -0.5379 -0.4432 -0.4195
  861MOL0     C18694   9.458   3.536   1.805 -0.8346  0.4060  0.2651
  861MOL0     C18695   9.501   3.659   1.875 -0.7364  0.4537 -0.0469
  861MOL0     C18696   9.409   3.710   1.989 -0.2866  0.7941 -0.7539
  861MOL0     N18697   9.410   3.596   2.088 -0.1069  0.4430  0.1373
  861MOL0     C18698   9.530   3.544   2.147 -0.1398  0.6136 -0.6673
  861MOL0     C18699   9.471   3.464   2.248 -1.1090  0.0554  0.9726
  861MOL0     C18700   9.551   3.390   2.347  0.2631 -0.1420 -0.7106
  861MOL0     C18701   9.470   3.324   2.469 -0.1203 -0.3831 -0.6392
  861MOL0     C18702   9.573   3.225   2.525 -0.1608  0.1120 -0.2712
  861MOL0     C18703   9.545   3.211   2.682  0.1190  0.0939  0.0029
  861MOL0     O18704   9.618   3.098   2.736 -0.0447  0.0046 -0.1550
  861MOL0     C18705   9.698   3.109   2.851 -0.4474 -0.3789 -0.9957
  861MOL0     C18706   9.686   3.020   2.953  0.6538  0.4199  0.0485
  861MOL0     C18707   9.747   3.031   3.069 -0.1876  0.1381  0.1052
  861MOL0     C18708   9.713   2.925   3.175  1.0552 -0.1417  0.3729
  861MOL0     C18709   9.840   3.132   3.092 -0.5761  0.7300 -0.2003
  861MOL0     C18710   9.915   3.152   3.215  0.0777  0.3809  0.8331
  861MOL0     O18711  10.053   3.123   3.206 -0.5962  0.6177  0.4764
  861MOL0     C18712  10.141   3.169   3.299  0.2959  0.1256 -1.0052
  861MOL0     C18713  10.180   3.303   3.313  0.0196 -0.1816 -0.3811
  861MOL0     C18714  10.271   3.342   3.410  0.2864  0.4518  0.3147
  861MOL0     C18715  10.331   3.246   3.495  1.6555  0.2723 -0.1793
  861MOL0     O18716  10.419   3.263   3.599 -0.5337 -0.2322  0.6684
  861MOL0     C18717  10.494   3.390   3.598 -0.4229  0.3853 -0.2354
  861MOL0     C18718  10.604   3.395   3.708  0.5208  0.4882  0.3226
  861MOL0     C18719  10.723   3.310   3.668  0.5005  0.4321  0.0991
  861MOL0     C18720  10.793   3.286   3.800 -0.6411 -0.1687  0.3378
  861MOL0     C18721  10.930   3.221   3.797  0.3917  1.0177  0.9338
  861MOL0     C18722  11.027   3.326   3.753 -0.5221 -0.7176  0.4111
  861MOL0     C18723  11.170   3.268   3.754  0.5409  0.0993 -1.2305
  861MOL0     C18724  11.274   3.383   3.753  0.4221 -0.2576  0.2105
  861MOL0    Cl18725  11.254   3.497   3.611  0.0945 -0.2023  0.2972
  861MOL0     C18726  10.286   3.115   3.484  0.6703  1.5911  0.1283
  861MOL0     C18727  10.197   3.073   3.385  0.1991  0.4383  0.3138
  861MOL0     O18728   9.861   3.183   3.319  0.4350  0.0372 -1.0600
  861MOL0     C18729   9.860   3.223   2.990 -0.2383 -0.2044  0.3055
  861MOL0     C18730   9.782   3.222   2.873  0.3713  0.5041  0.3504
  861MOL0     N18731   9.335   3.475   2.238 -0.8019 -0.2175  0.0370
  861MOL0     N18732   9.294   3.548   2.143  0.1263  0.2195 -0.3169
  861MOL0     C18733   8.771   3.401   1.225  0.8104  0.0182  0.0868
  861MOL0     C18734   8.638   3.421   1.182  0.0484  0.3905  1.4544
  861MOL0     C18735   8.356   3.533   0.868  0.5925  0.5639 -0.0085
  861MOL0     C18736   8.262   3.620   0.924  0.4503 -0.0257 -0.7397
  861MOL0     C18737   8.138   3.658   0.863  0.2260 -0.1170  0.7788
  861MOL0     C18738   8.121   3.623   0.733 -0.0290 -0.2872  0.5608
  861MOL0     O18739   8.009   3.664   0.664 -0.1600  0.1192 -0.1000
  861MOL0     C18740   7.922   3.769   0.722  0.2375 -0.7423 -0.2263
  861MOL0     C18741   7.823   3.793   0.608  0.2973 -0.1522 -0.0290
  861MOL0     C18742   7.734   3.902   0.656 -0.1473 -1.0440 -0.1528
  861MOL0     C18743   7.636   3.849   0.759  0.7678  0.6102 -0.0168
  861MOL0     C18744   7.516   3.931   0.760 -0.1842 -0.8556  0.6098
  861MOL0     C18745   7.408   3.989   0.767 -0.9391 -0.2719  0.5305
  861MOL0     C18746   8.219   3.545   0.670 -0.1228  0.1117  1.3383
  861MOL0     C18747   8.324   3.489   0.739 -0.2787 -0.2268 -1.1746
  861MOL0     C18748   8.420   3.410   0.655  0.5443  0.0205 -0.4031
  861MOL0     H18749   8.708   3.733   1.065 -0.1623 -0.9793 -0.6129
  861MOL0     H18750   8.916   3.701   1.193 -0.6236  0.5578 -0.7919
  861MOL0     H18751   9.041   3.268   1.284  1.9433  0.6158  0.1064
  861MOL0     H18752   8.958   3.323   1.430  1.0263 -0.5740  0.5106
  861MOL0     H18753   9.166   3.251   1.454 -1.7065  1.5097  1.8436
  861MOL0     H18754   9.250   3.369   1.351  0.4173  0.3238 -0.4222
  861MOL0     H18755   9.169   3.555   1.495  1.0063  0.5709 -0.5232
  861MOL0     H18756   9.080   3.448   1.591  1.2779  2.2242  1.0619
  861MOL0     H18757   9.281   3.336   1.651 -2.8746  1.2198  1.2416
  861MOL0     H18758   9.382   3.427   1.537  0.2212 -2.3795 -0.3719
  861MOL0     H18759   9.249   3.529   1.787 -0.1680 -0.1591  0.0726
  861MOL0     H18760   9.333   3.644   1.669  1.5904  0.2188  0.9348
  861MOL0     H18761   9.464   3.452   1.874 -3.2465 -0.6252 -0.6838
  861MOL0     H18762   9.536   3.514   1.731  1.6602 -0.0162  2.8517
  861MOL0     H18763   9.505   3.736   1.798 -1.1463  0.9811  0.4414
  861MOL0     H18764   9.602   3.648   1.915 -0.0744 -0.8470 -1.9554
  861MOL0     H18765   9.446   3.802   2.036  1.4310 -0.7003  0.9974
  861MOL0     H18766   9.305   3.731   1.960 -1.6521 -1.3802  2.0127
  861MOL0     H18767   9.635   3.562   2.124 -0.4554  2.0429 -1.0821
  861MOL0     H18768   9.633   3.450   2.388  1.5026 -0.2372 -2.9253
  861MOL0     H18769   9.599   3.309   2.292 -0.9696 -0.9091 -0.6817
  861MOL0     H18770   9.457   3.406   2.540  2.9932  1.1552 -1.6692
  861MOL0     H18771   9.370   3.282   2.454  0.2699 -2.4328  1.8006
  861MOL0     H18772   9.551   3.132   2.472 -0.7500 -1.9908  3.3282
  861MOL0     H18773   9.678   3.248   2.503  0.1458 -1.1083 -0.1594
  861MOL0     H18774   9.564   3.307   2.731  2.3523 -0.9015  1.2632
  861MOL0     H18775   9.440   3.183   2.697 -1.1963  1.9977 -4.1190
  861MOL0     H18776   9.610   2.944   2.935  1.3757  0.2175 -2.4832
  861MOL0     H18777   9.783   2.933   3.258  1.5472  3.4690 -0.2109
  861MOL0     H18778   9.717   2.821   3.143 -0.9091 -0.9898  2.6494
  861MOL0     H18779   9.612   2.930   3.218  0.3306 -2.2059 -0.9259
  861MOL0     H18780  10.128   3.379   3.256  1.8201  0.4949 -1.1773
  861MOL0     H18781  10.280   3.447   3.436  2.6006  0.1461  0.9705
  861MOL0     H18782  10.545   3.404   3.502  1.3343 -0.6085  0.5038
  861MOL0     H18783  10.431   3.477   3.619  0.3645  0.3756  2.5627
  861MOL0     H18784  10.647   3.495   3.722 -0.2370  0.7469  0.9018
  861MOL0     H18785  10.560   3.358   3.801  0.8671  1.4965  0.9030
  861MOL0     H18786  10.785   3.354   3.590  0.8718  4.8694  2.6036
  861MOL0     H18787  10.691   3.210   3.636  1.2137 -0.0683  0.9318
  861MOL0     H18788  10.731   3.212   3.852 -0.6822 -0.3675  0.0150
  861MOL0     H18789  10.797   3.378   3.859 -0.7118  0.2358 -0.2762
  861MOL0     H18790  10.953   3.187   3.899  1.0809 -0.8952  0.1879
  861MOL0     H18791  10.934   3.130   3.737 -2.9180  1.8570 -0.7778
  861MOL0     H18792  11.018   3.419   3.810 -0.0661  0.8685 -1.9697
  861MOL0     H18793  10.997   3.361   3.654  0.6515  0.3788  0.4339
  861MOL0     H18794  11.184   3.209   3.663 -0.2509  0.7255 -1.7751
  861MOL0     H18795  11.191   3.207   3.842 -1.2903  1.4230  0.2159
  861MOL0     H18796  11.378   3.353   3.765  0.9256  1.3885  0.0685
  861MOL0     H18797  11.253   3.443   3.842  2.4335  0.5397  0.1741
  861MOL0     H18798  10.318   3.041   3.557 -3.1197  0.2207  0.6243
  861MOL0     H18799  10.168   2.969   3.372 -0.0401  0.4312  0.9103
  861MOL0     H18800   9.939   3.297   3.000  0.1940 -0.3238 -1.7479
  861MOL0     H18801   9.789   3.304   2.802 -2.4832  2.0578  1.6942
  861MOL0     H18802   8.787   3.303   1.269 -0.1257 -0.8253 -1.3908
  861MOL0     H18803   8.566   3.340   1.190  2.2074 -1.8718 -0.2302
  861MOL0     H18804   8.266   3.657   1.026 -0.0160 -0.4365 -0.5704
  861MOL0     H18805   8.052   3.702   0.911  0.6805  1.1280  0.4893
  861MOL0     H18806   7.877   3.751   0.819 -0.5995 -0.2021 -0.5083
  861MOL0     H18807   7.975   3.860   0.751 -2.4234  0.5337  0.9343
  861MOL0     H18808   7.774   3.696   0.593  0.7688 -0.2002 -1.4426
  861MOL0     H18809   7.880   3.818   0.518  2.9104 -3.2578  0.6060
  861MOL0     H18810   7.790   3.982   0.706 -2.0958 -1.0679  2.2627
  861MOL0     H18811   7.680   3.953   0.576 -2.4525 -0.1914  1.8301
  861MOL0     H18812   7.678   3.852   0.860 -1.0106 -1.0744  0.8438
  861MOL0     H18813   7.609   3.745   0.744 -3.0340  1.4799 -0.2569
  861MOL0     H18814   7.311   4.033   0.771 -2.5911 -3.7003  1.6113
  861MOL0     H18815   8.208   3.532   0.563  2.7815 -0.7497  1.0608
  861MOL0     H18816   8.446   3.315   0.703 -0.1615 -0.5050 -1.0201
  861MOL0     H18817   8.385   3.392   0.553 -2.4438 -2.8911  0.9186
  861MOL0     H18818   8.512   3.465   0.635 -0.2456  1.2552 -0.7601
  862MOL0     O18819   3.929  11.286   3.478 -0.5081 -0.3590 -0.4050
  862MOL0     C18820   3.900  11.168   3.503 -0.4165  0.4386 -0.6438
  862MOL0     O18821   3.982  11.083   3.553 -0.2144 -0.0213 -0.2241
  862MOL0     C18822   4.104  11.127   3.596 -0.2168 -0.4105  0.1220
  862MOL0     C18823   4.209  11.155   3.496 -0.5463 -0.1416 -0.7909
  862MOL0     C18824   4.339  11.198   3.552  0.3878 -1.4294  0.7776
  862MOL0     C18825   4.351  11.222   3.689  0.0443  0.6773 -0.2902
  862MOL0     O18826   4.480  11.255   3.733 -0.5001  0.6204  0.0560
  862MOL0     C18827   4.486  11.398   3.771  0.3656  0.1335 -0.0152
  862MOL0     C18828   4.614  11.418   3.845 -0.3364 -0.4756 -0.0580
  862MOL0     C18829   4.729  11.446   3.748 -0.5877 -0.1472 -0.2320
  862MOL0     C18830   4.833  11.537   3.813  0.9702 -1.1112 -0.2703
  862MOL0     C18831   4.940  11.453   3.885  0.2730 -0.2400  0.2065
  862MOL0     C18832   5.027  11.542   3.972  0.1138 -0.0464 -0.5942
  862MOL0     C18833   5.161  11.487   4.011 -0.1988 -0.1178 -0.6106
  862MOL0     C18834   5.246  11.567   4.108 -0.0738  0.5819 -0.6433
  862MOL0     N18835   5.386  11.510   4.122  0.2216  0.0613 -0.4109
  862MOL0     C18836   5.428  11.382   4.127 -0.5619  0.1507  0.5699
  862MOL0     C18837   5.558  11.375   4.133 -0.9015 -0.0363  0.6606
  862MOL0     C18838   5.647  11.256   4.149  0.6851  0.6848 -0.7403
  862MOL0     C18839   5.613  11.139   4.054 -1.0945  0.1196 -1.2833
  862MOL0     C18840   5.741  11.058   4.014  0.2839  0.9810  0.4068
  862MOL0     C18841   5.724  11.012   3.863  0.4923 -0.5196 -0.5605
  862MOL0     O18842   5.819  10.912   3.833  0.3735  0.5175 -0.0814
  862MOL0     C18843   5.945  10.944   3.782  0.1614 -0.5400  0.7344
  862MOL0     C18844   6.007  11.063   3.789 -0.3685 -0.1610 -0.1691
  862MOL0     C18845   6.141  11.079   3.735  0.2804  0.3940 -0.4413
  862MOL0     C18846   6.194  11.214   3.763 -0.3101  0.1291 -0.6417
  862MOL0     C18847   6.210  10.965   3.679 -0.7289  0.0574  0.1547
  862MOL0     C18848   6.351  10.955   3.632  0.3845  0.2947 -0.2711
  862MOL0     O18849   6.398  11.079   3.597  0.4700  0.1936 -0.6558
  862MOL0     C18850   6.528  11.098   3.561  0.5378 -0.1416 -0.1296
  862MOL0     C18851   6.627  11.040   3.636 -0.8647 -0.0319 -0.7197
  862MOL0     C18852   6.765  11.059   3.608  0.0684  0.0380  0.0727
  862MOL0     C18853   6.801  11.155   3.515  0.1713  1.0997  0.3447
  862MOL0     O18854   6.936  11.192   3.521  0.6909  0.2912  0.3919
  862MOL0     C18855   6.977  11.322   3.476  0.0668  0.2136  0.1640
  862MOL0     C18856   7.117  11.353   3.533  0.3656  0.1990  0.2519
  862MOL0     C18857   7.110  11.352   3.687 -1.0494 -0.2112  0.6114
  862MOL0     C18858   7.223  11.441   3.754  0.0146  0.0991 -0.5505
  862MOL0     C18859   7.202  11.428   3.902  1.4110 -0.8745  0.3161
  862MOL0     C18860   7.078  11.502   3.947  0.2090  0.2340 -0.0093
  862MOL0     C18861   7.106  11.526   4.099  0.3221 -0.0946 -0.7942
  862MOL0     C18862   6.977  11.590   4.158  0.3972  0.1710  0.2779
  862MOL0    Cl18863   6.927  11.737   4.076 -0.2099 -0.0167  0.2548
  862MOL0     C18864   6.700  11.221   3.438 -0.7755  0.4400  0.3374
  862MOL0     C18865   6.568  11.189   3.457  0.7100 -0.1585  0.2367
  862MOL0     O18866   6.400  10.845   3.603  0.4179  0.2026 -0.2298
  862MOL0     C18867   6.142  10.845   3.673 -0.2692 -1.0407 -0.3392
  862MOL0     C18868   6.009  10.837   3.721 -0.5315 -0.3837 -0.2784
  862MOL0     N18869   5.606  11.499   4.109  0.2075 -0.0659 -0.2213
  862MOL0     N18870   5.498  11.579   4.096  0.0048  0.6540 -0.8210
  862MOL0     C18871   4.249  11.190   3.784 -0.2776 -0.2559  0.7706
  862MOL0     C18872   4.127  11.140   3.735  0.1989  0.2964  0.3724
  862MOL0     C18873   3.765  11.121   3.464 -0.3563  0.1078 -0.2929
  862MOL0     C18874   3.695  11.204   3.372 -1.0469  0.0881  0.6798
  862MOL0     C18875   3.590  11.150   3.298 -0.7326  0.0104 -0.3783
  862MOL0     C18876   3.538  11.023   3.326 -0.6218  0.4815 -0.2817
  862MOL0     O18877   3.437  10.973   3.258  0.2722 -0.3604  0.4158
  862MOL0     C18878   3.317  10.939   3.339 -0.0075  0.1618  0.2716
  862MOL0     C18879   3.235  10.819   3.276 -0.6362  0.1505  0.6432
  862MOL0     C18880   3.326  10.717   3.214 -0.0253  0.6274 -0.4355
  862MOL0     C18881   3.279  10.575   3.188 -0.3441  0.6880 -0.6502
  862MOL0     C18882   3.151  10.553   3.122 -0.8193  1.0261  0.6124
  862MOL0     C18883   3.045  10.548   3.066 -0.8068  0.7292  1.3984
  862MOL0     C18884   3.603  10.942   3.420 -0.0568 -0.5780  0.1197
  862MOL0     C18885   3.711  10.992   3.491  0.3240  0.4232 -0.8729
  862MOL0     C18886   3.783  10.903   3.598 -0.7657 -0.6718  0.3275
  862MOL0     H18887   4.190  11.135   3.391 -1.3370 -1.1528 -0.4781
  862MOL0     H18888   4.427  11.213   3.491 -0.5491  0.0620 -0.2928
  862MOL0     H18889   4.407  11.438   3.836  1.2100  2.2714 -0.2319
  862MOL0     H18890   4.484  11.474   3.693  0.1535  0.8192  0.6360
  862MOL0     H18891   4.609  11.510   3.904  0.7521  0.0833 -0.7893
  862MOL0     H18892   4.643  11.334   3.909 -0.3772  0.4013  1.1397
  862MOL0     H18893   4.779  11.354   3.717 -0.0978 -0.1436  0.5073
  862MOL0     H18894   4.700  11.488   3.652  0.8703 -2.6207 -1.8600
  862MOL0     H18895   4.876  11.598   3.734  1.5463 -0.0159  0.8661
  862MOL0     H18896   4.787  11.613   3.876  2.2703 -1.4246  1.0975
  862MOL0     H18897   5.003  11.403   3.812 -1.7597 -0.3431 -1.5833
  862MOL0     H18898   4.902  11.372   3.948  3.0785 -3.3333 -1.7826
  862MOL0     H18899   5.043  11.641   3.927  3.0499 -0.3133 -0.3436
  862MOL0     H18900   4.969  11.565   4.062  2.4731 -2.1935  1.6334
  862MOL0     H18901   5.225  11.467   3.924 -1.3776 -1.4929 -1.2209
  862MOL0     H18902   5.138  11.390   4.057 -0.7954  0.0995 -0.4473
  862MOL0     H18903   5.240  11.670   4.072 -3.8304  1.0379  0.7669
  862MOL0     H18904   5.199  11.592   4.204  3.8416 -0.9587  1.9433
  862MOL0     H18905   5.364  11.294   4.131 -0.9884  0.3308 -1.3123
  862MOL0     H18906   5.644  11.219   4.252 -1.0071 -1.2890 -1.4442
  862MOL0     H18907   5.750  11.292   4.135  0.7792  1.3878  1.3874
  862MOL0     H18908   5.532  11.081   4.098 -0.2787 -0.7965 -0.9387
  862MOL0     H18909   5.586  11.191   3.962  0.4804 -1.1025 -2.4904
  862MOL0     H18910   5.820  11.133   4.017  1.3531 -0.1048 -0.0038
  862MOL0     H18911   5.762  10.978   4.086  0.8735  0.7837  0.0219
  862MOL0     H18912   5.618  10.990   3.843 -0.0350  0.0742  1.4089
  862MOL0     H18913   5.740  11.105   3.808 -2.3237  1.7616  2.1537
  862MOL0     H18914   5.959  11.149   3.833  2.4360  1.1572  0.5625
  862MOL0     H18915   6.213  11.262   3.667 -1.9768 -0.6533 -1.4108
  862MOL0     H18916   6.287  11.213   3.820 -0.7095  1.0703  0.0438
  862MOL0     H18917   6.118  11.271   3.818 -1.2938 -0.8250 -0.9648
  862MOL0     H18918   6.602  10.966   3.712  0.3912 -1.4003 -1.5913
  862MOL0     H18919   6.844  11.001   3.653 -0.6663  0.7202  2.3693
  862MOL0     H18920   6.978  11.319   3.367 -2.0573  2.4166  0.0066
  862MOL0     H18921   6.910  11.404   3.504  1.7794  1.3330  1.2218
  862MOL0     H18922   7.178  11.268   3.501  0.2956 -0.2910  1.3849
  862MOL0     H18923   7.156  11.446   3.490  0.2841  0.5081  0.8401
  862MOL0     H18924   7.122  11.248   3.721 -4.3924 -0.2225  2.1853
  862MOL0     H18925   7.007  11.370   3.719 -1.6941 -3.9894  1.2013
  862MOL0     H18926   7.219  11.544   3.716 -0.1294 -0.8674 -3.4503
  862MOL0     H18927   7.325  11.411   3.728  1.2496  2.0407  1.7413
  862MOL0     H18928   7.203  11.321   3.924 -0.2517 -0.9318  0.2028
  862MOL0     H18929   7.289  11.475   3.951  0.3390 -1.0190  2.4881
  862MOL0     H18930   6.982  11.451   3.940 -0.4458  1.2982  0.8431
  862MOL0     H18931   7.075  11.598   3.893 -1.0173  0.3653  0.2631
  862MOL0     H18932   7.200  11.578   4.119  1.0552 -2.4038  2.6926
  862MOL0     H18933   7.120  11.428   4.146 -1.3127  0.5132  1.1109
  862MOL0     H18934   6.993  11.616   4.264 -1.8089  0.2245  0.6501
  862MOL0     H18935   6.892  11.522   4.155 -1.5888  2.3542  2.4732
  862MOL0     H18936   6.729  11.302   3.371  5.0747  0.3626  2.1513
  862MOL0     H18937   6.491  11.239   3.398  0.3377 -1.4032 -0.3740
  862MOL0     H18938   6.189  10.759   3.625 -0.3925 -1.7134  0.7174
  862MOL0     H18939   5.969  10.736   3.714  1.4020 -1.2717  0.6156
  862MOL0     H18940   4.261  11.195   3.892 -2.1877  3.1887  0.9635
  862MOL0     H18941   4.046  11.116   3.803  1.1227 -1.3077  0.9708
  862MOL0     H18942   3.738  11.298   3.338  2.1179 -1.3427  0.3992
  862MOL0     H18943   3.542  11.206   3.218  0.5031  0.9336 -0.4972
  862MOL0     H18944   3.346  10.925   3.443  1.8836  3.5703  0.3181
  862MOL0     H18945   3.253  11.027   3.337  0.1866  0.3531  1.7325
  862MOL0     H18946   3.175  10.852   3.190 -0.6966 -0.5469  0.4127
  862MOL0     H18947   3.155  10.786   3.344 -0.8061  1.3409  1.0436
  862MOL0     H18948   3.363  10.758   3.119  1.0264  0.9343  0.0868
  862MOL0     H18949   3.417  10.701   3.272 -0.0850 -0.1841 -0.5496
  862MOL0     H18950   3.274  10.521   3.283  2.1412  2.4327  0.5883
  862MOL0     H18951   3.354  10.529   3.123 -0.0476  0.0276  0.1363
  862MOL0     H18952   2.944  10.560   3.033 -1.2249  0.5644  2.5634
  862MOL0     H18953   3.561  10.847   3.453  0.3044 -0.2597  1.5839
  862MOL0     H18954   3.803  10.947   3.697  0.0311 -1.2883  0.4501
  862MOL0     H18955   3.726  10.811   3.616  0.2192 -1.5527 -0.8898
  862MOL0     H18956   3.873  10.861   3.554 -1.7265 -1.0137 -1.3870
  863MOL0     O18957   3.726   2.269   1.776 -0.1665  0.7268  0.8478
  863MOL0     C18958   3.803   2.250   1.867 -0.1798 -0.3575 -0.5470
  863MOL0     O18959   3.878   2.130   1.879  0.4185 -0.3995  0.2426
  863MOL0     C18960   3.894   2.058   1.762  0.2111 -0.5288  0.0745
  863MOL0     C18961   3.871   1.917   1.750 -0.1599  0.2263  0.3248
  863MOL0     C18962   3.907   1.848   1.638 -0.1865 -0.3171  0.5434
  863MOL0     C18963   3.957   1.916   1.524  0.3235 -0.5665 -0.8530
  863MOL0     O18964   3.971   1.837   1.417 -0.6474 -0.3710 -0.8992
  863MOL0     C18965   3.905   1.897   1.300 -0.0772  0.5851 -0.0170
  863MOL0     C18966   3.946   1.821   1.172  0.0986  0.0284 -0.3329
  863MOL0     C18967   4.103   1.816   1.164  0.2053 -0.7086  0.1707
  863MOL0     C18968   4.171   1.959   1.174  0.1719  0.3831 -0.4730
  863MOL0     C18969   4.315   1.944   1.099 -0.7615  0.5360 -0.5053
  863MOL0     C18970   4.304   1.994   0.954  0.3847  0.4093 -0.5404
  863MOL0     C18971   4.433   1.993   0.874  0.0774  0.8610 -0.5934
  863MOL0     C18972   4.410   2.021   0.725 -0.0275  0.0501  0.8109
  863MOL0     N18973   4.535   2.013   0.649 -0.2030  0.2911 -0.2060
  863MOL0     C18974   4.615   1.899   0.640  0.3119  0.5005  0.4195
  863MOL0     C18975   4.731   1.929   0.577 -1.4294  0.2251  0.0834
  863MOL0     C18976   4.850   1.841   0.542 -0.7301  0.3172  0.9080
  863MOL0     C18977   4.988   1.906   0.500 -0.6101  0.0301  0.3747
  863MOL0     C18978   5.048   1.996   0.608  0.2646 -0.0001 -0.9463
  863MOL0     C18979   5.189   2.031   0.581 -0.4081  0.5451  0.6720
  863MOL0     O18980   5.259   1.908   0.570 -0.3686  0.3074 -0.6566
  863MOL0     C18981   5.387   1.917   0.522  0.3247  0.9307 -0.3225
  863MOL0     C18982   5.450   2.035   0.479 -0.2199 -0.3032 -0.4359
  863MOL0     C18983   5.579   2.033   0.426  0.0311 -0.5864 -0.0765
  863MOL0     C18984   5.637   2.173   0.394  0.1275 -0.4597  0.2274
  863MOL0     C18985   5.653   1.916   0.407  0.1588 -1.0699 -0.4777
  863MOL0     C18986   5.794   1.899   0.348  0.5228  0.6786 -0.2433
  863MOL0     O18987   5.845   1.996   0.268  0.3329  0.3402 -0.4973
  863MOL0     C18988   5.976   2.008   0.254 -0.4569  0.6591  1.0084
  863MOL0     C18989   6.071   1.960   0.343 -0.5341 -0.4673  0.9167
  863MOL0     C18990   6.209   1.971   0.320  0.4585  0.1022  0.3231
  863MOL0     C18991   6.246   2.037   0.204  0.0154 -0.7013 -0.0387
  863MOL0     O18992   6.376   2.063   0.177 -0.7819  0.4295  0.5568
  863MOL0     C18993   6.478   2.011   0.263 -0.3232 -0.3272 -0.2379
  863MOL0     C18994   6.616   2.036   0.204 -0.1758  1.0064  1.5247
  863MOL0     C18995   6.716   2.032   0.318  0.0634 -0.3037  0.3963
  863MOL0     C18996   6.718   1.895   0.392 -0.3964 -0.5570  0.0642
  863MOL0     C18997   6.740   1.777   0.294  0.3322 -0.0899  0.2508
  863MOL0     C18998   6.740   1.639   0.359  0.2222  0.8839  0.5382
  863MOL0     C18999   6.790   1.519   0.275 -0.0955  0.4562 -0.0783
  863MOL0     C19000   6.940   1.523   0.251 -0.7930  0.2624  0.6418
  863MOL0    Cl19001   7.029   1.541   0.401 -0.0562  0.4803 -0.4063
  863MOL0     C19002   6.156   2.078   0.116  0.5418  0.3266 -0.1232
  863MOL0     C19003   6.016   2.073   0.140 -0.3774  0.0886  0.6119
  863MOL0     O19004   5.855   1.793   0.381  0.4341 -0.4312 -0.0022
  863MOL0     C19005   5.590   1.797   0.451 -0.2556 -0.9053 -0.2400
  863MOL0     C19006   5.458   1.797   0.500 -0.0592  0.2937 -0.0890
  863MOL0     N19007   4.726   2.066   0.551  0.1793  0.2242  0.5862
  863MOL0     N19008   4.617   2.108   0.588 -0.3113 -0.0007 -0.4432
  863MOL0     C19009   3.983   2.055   1.539  0.0097  0.1946  0.3122
  863MOL0     C19010   3.956   2.119   1.651  0.0713 -1.0850 -0.0257
  863MOL0     C19011   3.819   2.346   1.979  0.2213 -0.6713 -0.1548
  863MOL0     C19012   3.868   2.291   2.100 -0.3921  0.6547 -0.4282
  863MOL0     C19013   3.895   2.365   2.215  0.0294 -0.4489 -0.5088
  863MOL0     C19014   3.865   2.509   2.199 -0.2852 -0.6683 -0.0317
  863MOL0     O19015   3.869   2.595   2.307 -0.3867 -0.2522 -0.2649
  863MOL0     C19016   3.900   2.542   2.438  1.3531 -0.0119  0.4827
  863MOL0     C19017   4.053   2.542   2.469  0.1469  0.3949  0.8266
  863MOL0     C19018   4.098   2.564   2.618 -0.7054 -0.1086  0.7613
  863MOL0     C19019   4.252   2.586   2.624 -0.5846 -0.2312 -0.0996
  863MOL0     C19020   4.294   2.575   2.766  0.0364 -0.2307  0.1722
  863MOL0     C19021   4.297   2.577   2.892 -0.1949 -0.4534  0.0691
  863MOL0     C19022   3.819   2.563   2.080  0.0513  0.6917  0.0786
  863MOL0     C19023   3.783   2.483   1.965 -0.1253 -0.1164 -0.0041
  863MOL0     C19024   3.739   2.545   1.832  0.3387 -1.2130  0.0194
  863MOL0     H19025   3.828   1.868   1.836  1.8268 -3.8341 -0.7764
  863MOL0     H19026   3.902   1.739   1.630  2.0005 -0.3400 -2.0479
  863MOL0     H19027   3.940   1.998   1.278  0.4857  0.3190 -0.3829
  863MOL0     H19028   3.797   1.897   1.314  0.1419 -0.0594  2.0924
  863MOL0     H19029   3.903   1.721   1.160 -0.2274  0.4129 -3.0741
  863MOL0     H19030   3.906   1.890   1.097  0.1086  0.4977  0.0956
  863MOL0     H19031   4.140   1.748   1.241  1.4952  0.5109  0.6828
  863MOL0     H19032   4.131   1.770   1.069  1.9969  0.9623 -0.1805
  863MOL0     H19033   4.111   2.035   1.125 -1.1507 -0.8628 -0.8571
  863MOL0     H19034   4.185   1.992   1.278  2.0912  1.5765 -1.0474
  863MOL0     H19035   4.363   1.846   1.102  0.4972  1.1238 -0.5281
  863MOL0     H19036   4.388   1.997   1.161 -0.3029 -0.5595 -0.0870
  863MOL0     H19037   4.237   1.925   0.902  0.2142 -1.4706  2.0063
  863MOL0     H19038   4.267   2.097   0.949  0.8900  0.6205  0.0180
  863MOL0     H19039   4.473   1.891   0.877 -1.9115  0.0471 -0.0422
  863MOL0     H19040   4.512   2.059   0.912  1.7614 -2.3432  1.9669
  863MOL0     H19041   4.341   1.950   0.678  0.8131  1.5522 -3.1904
  863MOL0     H19042   4.367   2.122   0.730 -0.3928  0.0065 -0.7804
  863MOL0     H19043   4.597   1.802   0.685  3.0714 -0.7489 -0.9487
  863MOL0     H19044   4.813   1.774   0.464 -0.0266 -0.1543  0.9669
  863MOL0     H19045   4.870   1.774   0.626 -0.6950  0.9845  1.4420
  863MOL0     H19046   5.054   1.823   0.473  0.2580  0.9865 -0.5275
  863MOL0     H19047   4.964   1.972   0.416 -0.7973 -0.7251 -0.1671
  863MOL0     H19048   4.994   2.091   0.617  0.3066 -0.0558  0.0218
  863MOL0     H19049   5.033   1.949   0.706 -1.5283  1.3087 -0.5574
  863MOL0     H19050   5.195   2.087   0.488  2.6845  2.2103  1.7290
  863MOL0     H19051   5.211   2.094   0.668 -0.9179  0.1411  1.0972
  863MOL0     H19052   5.404   2.133   0.481  0.6189  0.1913 -2.7482
  863MOL0     H19053   5.651   2.191   0.287 -0.7148 -2.9808 -0.3789
  863MOL0     H19054   5.739   2.176   0.434  0.6793  3.0389 -1.0816
  863MOL0     H19055   5.584   2.256   0.441  0.6183  1.2610 -2.0443
  863MOL0     H19056   6.050   1.909   0.437  3.4690  0.0940  2.3148
  863MOL0     H19057   6.286   1.936   0.388  1.5971 -1.9387 -1.8479
  863MOL0     H19058   6.470   2.044   0.367 -2.2053 -2.0875  0.2637
  863MOL0     H19059   6.452   1.905   0.277 -2.1988  0.3782  2.2392
  863MOL0     H19060   6.638   1.963   0.126 -1.0813  2.9462 -0.6891
  863MOL0     H19061   6.618   2.141   0.171 -2.8066  0.9254  0.9449
  863MOL0     H19062   6.682   2.107   0.390  0.8318  1.2430 -0.7884
  863MOL0     H19063   6.813   2.056   0.274 -0.0543 -1.0684 -0.2987
  863MOL0     H19064   6.623   1.888   0.447 -1.7304  0.8692 -1.9304
  863MOL0     H19065   6.802   1.902   0.462  1.9544  2.4669 -2.7815
  863MOL0     H19066   6.662   1.785   0.217 -0.3229  1.4070  1.0413
  863MOL0     H19067   6.835   1.792   0.241  1.5486 -1.1491  2.0433
  863MOL0     H19068   6.640   1.601   0.379  1.6389 -4.3738 -0.6094
  863MOL0     H19069   6.801   1.640   0.449 -0.5238 -2.0277  1.1778
  863MOL0     H19070   6.735   1.528   0.180  1.5927 -1.3112 -1.3003
  863MOL0     H19071   6.761   1.424   0.321 -0.2777  0.9709  0.8857
  863MOL0     H19072   6.972   1.608   0.190  0.5350 -0.1948  0.6839
  863MOL0     H19073   6.973   1.434   0.197  1.8250  0.1735  2.2515
  863MOL0     H19074   6.186   2.130   0.025  1.2001  1.1377  0.5328
  863MOL0     H19075   5.952   2.127   0.071  1.9166  2.0517 -0.1064
  863MOL0     H19076   5.646   1.705   0.435 -2.8039 -2.5079 -0.5658
  863MOL0     H19077   5.416   1.698   0.516  1.3671 -0.7878 -2.4553
  863MOL0     H19078   4.020   2.115   1.457 -1.2831 -1.0470 -1.2469
  863MOL0     H19079   3.973   2.226   1.666 -3.1437 -0.5831  0.6118
  863MOL0     H19080   3.896   2.186   2.110 -0.7461  0.5587 -0.4068
  863MOL0     H19081   3.923   2.317   2.308 -2.4403  1.0075  1.1048
  863MOL0     H19082   3.864   2.613   2.512 -1.5342 -0.0310 -0.7760
  863MOL0     H19083   3.855   2.444   2.453 -2.2213  1.5084  0.6601
  863MOL0     H19084   4.088   2.624   2.407 -2.5011  2.3371  1.7265
  863MOL0     H19085   4.097   2.452   2.424 -0.3939  0.4982  0.0783
  863MOL0     H19086   4.036   2.645   2.658  1.5920  0.8304  2.6809
  863MOL0     H19087   4.076   2.476   2.679 -0.3812 -1.1002 -0.5152
  863MOL0     H19088   4.273   2.686   2.587 -2.7415 -0.0226 -0.9038
  863MOL0     H19089   4.309   2.512   2.567 -0.0873  0.1801 -0.1410
  863MOL0     H19090   4.292   2.581   2.999  0.5004  0.0905  0.0895
  863MOL0     H19091   3.820   2.672   2.085 -0.2741  0.6348  3.9143
  863MOL0     H19092   3.804   2.512   1.750  0.4373 -0.7176 -0.1030
  863MOL0     H19093   3.635   2.528   1.802  0.2862  0.7477 -1.0628
  863MOL0     H19094   3.744   2.654   1.834 -0.2399 -1.1903  1.1845
  864MOL0     O19095  10.689   7.338   5.557  0.0503 -0.6737 -0.5414
  864MOL0     C19096  10.673   7.419   5.468 -0.1910 -0.4911 -0.0646
  864MOL0     O19097  10.778   7.486   5.404  0.1231 -0.1885 -0.2203
  864MOL0     C19098  10.902   7.420   5.409  0.0637 -0.6831 -0.7417
  864MOL0     C19099  11.010   7.514   5.425 -0.1227 -0.2472  0.3636
  864MOL0     C19100  11.140   7.464   5.417  0.6568 -0.2566 -0.2789
  864MOL0     C19101  11.173   7.328   5.414 -0.1008  0.4250  0.6808
  864MOL0     O19102  11.301   7.276   5.397 -0.3144 -0.1458 -0.3714
  864MOL0     C19103  11.408   7.369   5.401 -0.4123  0.8530 -0.2365
  864MOL0     C19104  11.538   7.287   5.361  0.5125  0.0900  0.4181
  864MOL0     C19105  11.669   7.364   5.341  0.1431  0.4614 -0.0600
  864MOL0     C19106  11.782   7.260   5.326  0.7805  0.0713  0.3799
  864MOL0     C19107  11.911   7.337   5.296  0.7759 -1.2217 -0.3780
  864MOL0     C19108  11.954   7.421   5.417 -0.4137 -0.0751  0.0138
  864MOL0     C19109  12.097   7.448   5.406 -0.6272  0.1083  0.1368
  864MOL0     C19110  12.173   7.509   5.531 -0.1463  0.1503 -0.2843
  864MOL0     N19111  12.312   7.459   5.546  0.6352  0.1027  0.1930
  864MOL0     C19112  12.427   7.491   5.480 -0.4505  0.3718  0.4648
  864MOL0     C19113  12.523   7.409   5.524 -0.3561 -0.0982  0.1674
  864MOL0     C19114  12.668   7.397   5.493  0.9807  0.0493 -0.7160
  864MOL0     C19115  12.675   7.293   5.386 -0.1656 -0.1447  0.5001
  864MOL0     C19116  12.651   7.146   5.426 -1.3035  0.3986  0.1168
  864MOL0     C19117  12.726   7.050   5.324 -0.1941 -0.1484 -0.1793
  864MOL0     O19118  12.658   7.063   5.197 -0.2076  0.8031  0.2000
  864MOL0     C19119  12.687   6.976   5.092  0.2376 -0.8397  0.5139
  864MOL0     C19120  12.790   6.884   5.088 -0.8436 -0.2223 -0.4825
  864MOL0     C19121  12.812   6.808   4.978  0.3522 -0.9236 -0.0147
  864MOL0     C19122  12.945   6.739   4.965  0.7159  0.6414  0.0096
  864MOL0     C19123  12.713   6.812   4.879  0.4920  0.0372 -0.4353
  864MOL0     C19124  12.730   6.732   4.759  0.0021 -0.1364  0.1638
  864MOL0     O19125  12.844   6.765   4.693 -0.5619  0.2463 -0.9340
  864MOL0     C19126  12.897   6.693   4.590 -0.0250 -0.0912  0.4455
  864MOL0     C19127  12.866   6.562   4.554  0.4076  0.8851 -0.1866
  864MOL0     C19128  12.932   6.493   4.456 -1.0079  0.3376 -0.8344
  864MOL0     C19129  13.026   6.551   4.383  0.3211  0.5755  0.0549
  864MOL0     O19130  13.072   6.484   4.269 -0.1967 -0.6519 -0.1012
  864MOL0     C19131  13.211   6.490   4.246 -0.3477 -0.3688  0.4817
  864MOL0     C19132  13.260   6.407   4.134 -1.0392 -0.4019 -0.7438
  864MOL0     C19133  13.398   6.426   4.088  0.1802 -0.2228  0.4299
  864MOL0     C19134  13.448   6.297   4.016  0.1255 -0.6049  0.4032
  864MOL0     C19135  13.557   6.325   3.919 -0.0719 -0.5544  0.0590
  864MOL0     C19136  13.619   6.196   3.869 -0.0065 -0.3816 -0.0798
  864MOL0     C19137  13.757   6.235   3.812 -0.4973  0.5126  0.9552
  864MOL0     C19138  13.842   6.106   3.791  0.5704 -0.5018 -0.8329
  864MOL0    Cl19139  13.971   6.106   3.670 -0.2393  0.4037 -0.6600
  864MOL0     C19140  13.056   6.690   4.406  0.3699  0.9662  0.4136
  864MOL0     C19141  12.996   6.753   4.518  1.3030 -0.2846 -0.1008
  864MOL0     O19142  12.650   6.643   4.734  0.5054  0.9225  0.0998
  864MOL0     C19143  12.598   6.900   4.884  0.3525 -0.3540 -0.8926
  864MOL0     C19144  12.600   6.994   4.988 -0.3878  0.0005 -0.2878
  864MOL0     N19145  12.453   7.330   5.618 -0.2093  0.1986  0.5835
  864MOL0     N19146  12.331   7.356   5.627 -0.1978  0.0306  0.1427
  864MOL0     C19147  11.065   7.244   5.393 -0.0153  0.2712 -0.7707
  864MOL0     C19148  10.932   7.283   5.394 -0.1929  0.0365  0.3589
  864MOL0     C19149  10.522   7.452   5.444 -0.9622  1.1573  0.0242
  864MOL0     C19150  10.420   7.378   5.502 -0.2928  1.0979  0.4333
  864MOL0     C19151  10.288   7.407   5.472 -0.3421 -0.6200 -0.8595
  864MOL0     C19152  10.241   7.505   5.391  0.3527 -0.5846  1.0159
  864MOL0     O19153  10.107   7.517   5.355  0.6924  0.4314 -0.2633
  864MOL0     C19154  10.056   7.647   5.318  0.2299  0.5466  0.4581
  864MOL0     C19155   9.911   7.638   5.299 -0.3873  0.1258 -0.1859
  864MOL0     C19156   9.854   7.563   5.180  0.0324 -0.8299 -0.8695
  864MOL0     C19157   9.702   7.570   5.158 -0.0705 -0.5631  0.0936
  864MOL0     C19158   9.636   7.476   5.250 -0.0010  0.1463  0.2731
  864MOL0     C19159   9.561   7.401   5.305  0.4301 -0.0335  0.1992
  864MOL0     C19160  10.340   7.570   5.327 -1.0786 -0.9721 -0.0851
  864MOL0     C19161  10.478   7.547   5.341 -0.1385 -0.0064 -0.2411
  864MOL0     C19162  10.579   7.624   5.253 -0.4620 -1.1026  0.2483
  864MOL0     H19163  10.994   7.622   5.430  1.7343  0.1360 -0.8605
  864MOL0     H19164  11.219   7.538   5.425  0.9940 -0.8107  3.3275
  864MOL0     H19165  11.422   7.405   5.504 -2.6460 -1.1085  0.8609
  864MOL0     H19166  11.392   7.459   5.342 -4.4585  1.4816  1.4477
  864MOL0     H19167  11.561   7.217   5.442 -0.5269 -1.8714 -0.8988
  864MOL0     H19168  11.521   7.227   5.271  2.6523 -0.1863  0.1476
  864MOL0     H19169  11.670   7.429   5.253  0.2097  1.0627  0.3789
  864MOL0     H19170  11.679   7.434   5.425 -0.0019  0.9268 -0.4212
  864MOL0     H19171  11.791   7.209   5.422 -2.5553 -1.6143 -0.0546
  864MOL0     H19172  11.766   7.199   5.237 -0.1054  0.4614  0.2586
  864MOL0     H19173  11.905   7.393   5.203  2.9743  1.0057  0.6955
  864MOL0     H19174  11.987   7.261   5.276  3.0966  0.8387  0.1280
  864MOL0     H19175  11.895   7.514   5.418  0.2753  0.4107 -1.3876
  864MOL0     H19176  11.925   7.368   5.508 -0.1027  0.2208  0.2869
  864MOL0     H19177  12.111   7.508   5.316  1.2750 -1.2728 -0.5636
  864MOL0     H19178  12.157   7.359   5.384  1.5306  1.9385 -1.8269
  864MOL0     H19179  12.180   7.617   5.514  0.4743  0.2493  0.5371
  864MOL0     H19180  12.116   7.481   5.620 -1.9122  1.7706 -0.8542
  864MOL0     H19181  12.441   7.579   5.418  0.6625 -0.4033 -0.4201
  864MOL0     H19182  12.725   7.365   5.581  2.6490 -2.4628 -2.5541
  864MOL0     H19183  12.722   7.485   5.456  2.3487 -0.6027 -0.3332
  864MOL0     H19184  12.616   7.332   5.302 -0.0322 -2.5245 -0.7871
  864MOL0     H19185  12.777   7.304   5.347 -1.3456  2.4632 -2.2885
  864MOL0     H19186  12.685   7.121   5.527  0.9719  0.2440 -0.6260
  864MOL0     H19187  12.544   7.127   5.420 -1.2904  0.1352  0.7151
  864MOL0     H19188  12.827   7.092   5.324 -0.3216  0.1626  0.0562
  864MOL0     H19189  12.723   6.945   5.356 -2.6850 -0.5581 -1.4874
  864MOL0     H19190  12.859   6.883   5.172  1.4374  0.8069 -2.2418
  864MOL0     H19191  12.998   6.789   4.885 -1.9509  1.9690 -1.0481
  864MOL0     H19192  12.928   6.638   4.925 -0.8041  1.0247 -0.3618
  864MOL0     H19193  12.999   6.736   5.060  0.4771  0.7349  0.1490
  864MOL0     H19194  12.793   6.502   4.608  1.5879  1.2100  1.8884
  864MOL0     H19195  12.904   6.392   4.426 -0.9238  0.6247 -1.9469
  864MOL0     H19196  13.213   6.591   4.203 -3.3732 -0.6464 -0.5296
  864MOL0     H19197  13.270   6.485   4.338  2.8781  1.5089 -1.3077
  864MOL0     H19198  13.243   6.305   4.171 -0.5250  0.2220  1.3354
  864MOL0     H19199  13.194   6.432   4.051 -4.1343 -1.5518  1.1864
  864MOL0     H19200  13.470   6.453   4.165  3.0744 -1.0355 -1.8258
  864MOL0     H19201  13.397   6.502   4.009  0.8660 -0.5516  0.1038
  864MOL0     H19202  13.361   6.249   3.970 -0.1284  0.5505 -0.3667
  864MOL0     H19203  13.480   6.231   4.097  0.2990 -0.6459  0.3022
  864MOL0     H19204  13.515   6.375   3.832 -2.8638 -1.5815  0.7124
  864MOL0     H19205  13.634   6.391   3.961 -1.0910  0.0668  1.0277
  864MOL0     H19206  13.565   6.154   3.783  2.0048 -2.2034 -0.5193
  864MOL0     H19207  13.638   6.127   3.952  0.2938 -1.0080 -0.6621
  864MOL0     H19208  13.807   6.309   3.875  0.6453  0.4333  0.1754
  864MOL0     H19209  13.755   6.269   3.708  2.9757 -0.9365  0.2601
  864MOL0     H19210  13.779   6.020   3.769  1.4038 -1.1238 -0.8551
  864MOL0     H19211  13.890   6.087   3.888 -0.3046  1.4907  0.0411
  864MOL0     H19212  13.139   6.737   4.354  2.1859 -1.5810  0.8130
  864MOL0     H19213  13.014   6.857   4.545 -3.2620  0.6270  0.0972
  864MOL0     H19214  12.525   6.921   4.806 -0.7121  3.2606  0.8455
  864MOL0     H19215  12.529   7.077   4.987  1.1479  1.3735 -0.2592
  864MOL0     H19216  11.105   7.144   5.380 -0.9586  0.0092 -1.8166
  864MOL0     H19217  10.857   7.206   5.379 -0.3143 -0.2034  2.0815
  864MOL0     H19218  10.435   7.304   5.580  0.1091 -1.0041 -1.5318
  864MOL0     H19219  10.235   7.331   5.528  2.6089 -2.7712 -0.7391
  864MOL0     H19220  10.083   7.724   5.392  1.6596  0.1422  0.3960
  864MOL0     H19221  10.102   7.674   5.222 -0.1653 -0.0108  0.1093
  864MOL0     H19222   9.869   7.739   5.300  2.7635  1.5472 -0.8125
  864MOL0     H19223   9.861   7.593   5.386 -0.0025  0.1018  0.0252
  864MOL0     H19224   9.903   7.609   5.093  0.4067  0.3388 -0.0665
  864MOL0     H19225   9.890   7.460   5.183  3.2664  0.2085  1.6203
  864MOL0     H19226   9.681   7.548   5.053 -0.1517 -1.4040  0.2736
  864MOL0     H19227   9.660   7.669   5.175  1.2750  0.1887 -0.8082
  864MOL0     H19228   9.495   7.325   5.340  1.5318 -1.5059 -0.8009
  864MOL0     H19229  10.308   7.649   5.259  1.1827  1.1082  1.1246
  864MOL0     H19230  10.647   7.558   5.198 -1.4533 -1.2002 -0.8944
  864MOL0     H19231  10.521   7.660   5.168 -0.4590 -1.5157  0.0650
  864MOL0     H19232  10.633   7.701   5.308 -2.6753 -0.1919  1.2595
  865MOL0     O19233   2.440   5.524  11.400  0.0596 -0.2691 -0.1185
  865MOL0     C19234   2.513   5.590  11.483  0.3965 -0.0298  0.0408
  865MOL0     O19235   2.648   5.588  11.496 -0.4393 -0.5905  0.2166
  865MOL0     C19236   2.730   5.516  11.408 -0.5490  0.3130  0.4496
  865MOL0     C19237   2.691   5.461  11.280  0.5277  0.2741 -0.3099
  865MOL0     C19238   2.779   5.393  11.200 -0.4482 -0.4851 -0.3635
  865MOL0     C19239   2.912   5.380  11.243  0.2857  0.3472 -0.5444
  865MOL0     O19240   3.007   5.318  11.162  0.5682 -0.6701  0.6022
  865MOL0     C19241   3.094   5.406  11.096 -0.0616 -0.4527  0.2493
  865MOL0     C19242   3.167   5.324  10.991 -0.4259  1.3610  0.3603
  865MOL0     C19243   3.071   5.262  10.892 -0.2702  0.0517 -0.3119
  865MOL0     C19244   2.996   5.358  10.798 -0.2042 -0.5839  0.4609
  865MOL0     C19245   2.941   5.278  10.668  0.1575 -0.4390  0.0119
  865MOL0     C19246   3.053   5.266  10.564 -0.6044  0.1841 -0.1844
  865MOL0     C19247   3.009   5.167  10.447  0.1530  0.5134  0.2399
  865MOL0     C19248   3.112   5.152  10.341  0.0536  0.1397  0.6396
  865MOL0     N19249   3.234   5.099  10.389 -0.1792 -0.2049 -1.1266
  865MOL0     C19250   3.231   4.990  10.478  0.9746  0.7890 -0.1837
  865MOL0     C19251   3.343   4.999  10.550 -0.6256  0.2148 -0.2175
  865MOL0     C19252   3.373   4.894  10.658  0.0440  0.8546 -0.5824
  865MOL0     C19253   3.311   4.957  10.787  0.3319  1.1149 -0.0439
  865MOL0     C19254   3.320   4.861  10.907  0.2941 -0.2828 -0.0001
  865MOL0     C19255   3.227   4.740  10.892 -0.2640  0.1092  0.4884
  865MOL0     O19256   3.097   4.763  10.956 -0.3678  0.7189  0.4243
  865MOL0     C19257   3.002   4.822  10.887 -0.2847  0.5786  0.1432
  865MOL0     C19258   2.962   4.766  10.767 -0.9023 -0.3289 -0.3871
  865MOL0     C19259   2.857   4.810  10.693  0.2855  0.3967  0.3543
  865MOL0     C19260   2.819   4.759  10.549 -0.0879  0.2743 -0.2724
  865MOL0     C19261   2.777   4.924  10.743  0.0576 -0.0127 -0.3646
  865MOL0     C19262   2.654   4.982  10.683  0.0338  0.3709  0.0245
  865MOL0     O19263   2.642   5.109  10.716 -0.1401 -0.3994 -0.1403
  865MOL0     C19264   2.548   5.179  10.647  0.9522 -0.7473 -0.5185
  865MOL0     C19265   2.430   5.206  10.700  0.0409  0.4301 -0.0466
  865MOL0     C19266   2.337   5.285  10.635  0.3695 -0.5633 -0.3387
  865MOL0     C19267   2.368   5.326  10.506 -0.0459 -0.0875 -0.6830
  865MOL0     O19268   2.291   5.401  10.424  0.4762  0.8506 -0.0247
  865MOL0     C19269   2.157   5.427  10.465 -0.5219 -0.7062 -0.6060
  865MOL0     C19270   2.088   5.499  10.347  0.9307  0.0501  0.7766
  865MOL0     C19271   1.982   5.597  10.405  0.6042  0.1971  0.2566
  865MOL0     C19272   2.027   5.739  10.429  0.8508  0.4952 -0.4353
  865MOL0     C19273   2.148   5.756  10.527  0.0051  0.9755  0.0543
  865MOL0     C19274   2.166   5.905  10.574  0.1315 -0.2914  0.4367
  865MOL0     C19275   2.261   5.933  10.692  0.4248 -0.1999  0.8770
  865MOL0     C19276   2.275   6.089  10.710 -0.2513  0.4172  0.8591
  865MOL0    Cl19277   2.434   6.142  10.636 -0.9236  0.0119 -0.2743
  865MOL0     C19278   2.494   5.301  10.444  0.3061  0.1807 -0.3922
  865MOL0     C19279   2.580   5.224  10.520 -0.2560 -0.0444 -0.0967
  865MOL0     O19280   2.571   4.911  10.614 -0.9238 -0.1246 -0.8870
  865MOL0     C19281   2.818   4.981  10.864 -0.2587 -0.1140 -0.8237
  865MOL0     C19282   2.926   4.925  10.930  0.4745  0.3642 -0.1529
  865MOL0     N19283   3.413   5.111  10.508  0.3754  1.0555 -0.3439
  865MOL0     N19284   3.343   5.163  10.413  0.8843 -0.6343 -0.1653
  865MOL0     C19285   2.944   5.413  11.375 -0.6880 -0.7300 -0.3573
  865MOL0     C19286   2.857   5.483  11.455  0.0767  0.6255 -0.7324
  865MOL0     C19287   2.435   5.658  11.592  0.3343 -0.3693  0.1195
  865MOL0     C19288   2.311   5.707  11.556 -0.2606  0.4747 -0.5088
  865MOL0     C19289   2.223   5.770  11.642 -0.5647 -0.9090 -0.2034
  865MOL0     C19290   2.267   5.784  11.777 -0.1036  0.1921  0.0633
  865MOL0     O19291   2.199   5.863  11.860  0.3001 -0.1495 -0.1750
  865MOL0     C19292   2.171   5.995  11.811 -0.0330 -0.1370  0.3976
  865MOL0     C19293   2.025   6.026  11.833  0.5079 -0.0202 -0.1919
  865MOL0     C19294   1.992   6.039  11.981  0.0810  0.5662 -0.5729
  865MOL0     C19295   2.054   6.159  12.052  0.5785  0.1700  0.2579
  865MOL0     C19296   2.001   6.288  12.020  0.0303  0.3978 -0.1243
  865MOL0     C19297   1.948   6.397  12.026  0.0474  0.2630 -0.1288
  865MOL0     C19298   2.381   5.720  11.823  1.3550  0.0634 -0.4692
  865MOL0     C19299   2.465   5.655  11.734  0.3554  0.2270 -0.9130
  865MOL0     C19300   2.589   5.577  11.780  0.3846 -0.0612 -0.7173
  865MOL0     H19301   2.597   5.450  11.227  1.4804 -4.6681 -1.4731
  865MOL0     H19302   2.748   5.360  11.102 -0.9468 -0.3987 -0.2363
  865MOL0     H19303   3.173   5.450  11.158  2.2098 -1.3312 -1.8551
  865MOL0     H19304   3.042   5.488  11.046  0.7543 -0.7129 -1.0733
  865MOL0     H19305   3.240   5.395  10.951  0.5082  0.5482  0.5662
  865MOL0     H19306   3.230   5.246  11.034  0.3800  0.6756 -1.9051
  865MOL0     H19307   3.117   5.193  10.819  1.4111  1.7485 -0.9254
  865MOL0     H19308   2.988   5.210  10.941 -0.5354 -0.0762 -0.8893
  865MOL0     H19309   2.916   5.408  10.852 -0.9740 -2.2361  0.9338
  865MOL0     H19310   3.060   5.442  10.771 -2.1276  1.3144  1.5619
  865MOL0     H19311   2.848   5.324  10.634  0.6146  0.2034 -0.4009
  865MOL0     H19312   2.904   5.178  10.694  1.5546 -1.1216 -0.5140
  865MOL0     H19313   3.070   5.365  10.522  1.4996  0.5462  1.3746
  865MOL0     H19314   3.145   5.239  10.616  0.5271  2.3310 -0.9743
  865MOL0     H19315   2.931   5.218  10.391  4.0387  5.2160 -1.6294
  865MOL0     H19316   2.991   5.064  10.477 -3.4162 -0.0640 -3.1264
  865MOL0     H19317   3.073   5.090  10.260 -1.2729  1.5547  0.1729
  865MOL0     H19318   3.131   5.245  10.286 -3.1617 -0.0540 -1.0204
  865MOL0     H19319   3.151   4.917  10.477 -0.4119  2.1757 -2.7449
  865MOL0     H19320   3.478   4.863  10.663 -0.5378 -1.2081 -0.3556
  865MOL0     H19321   3.323   4.802  10.627 -0.8965  1.3242 -0.4895
  865MOL0     H19322   3.361   5.048  10.820  2.7105 -1.4021  4.1708
  865MOL0     H19323   3.204   4.973  10.773 -0.0152 -1.9649 -1.9064
  865MOL0     H19324   3.424   4.831  10.924  0.4767 -1.0048 -2.1148
  865MOL0     H19325   3.294   4.906  11.004  0.6819 -0.8670  0.3828
  865MOL0     H19326   3.222   4.699  10.790 -0.6619  2.7074 -0.6241
  865MOL0     H19327   3.272   4.664  10.956  1.3915 -0.0708 -0.8003
  865MOL0     H19328   3.019   4.683  10.728 -1.7565 -1.6902  1.1286
  865MOL0     H19329   2.719   4.718  10.568 -0.6847  2.2804  1.1847
  865MOL0     H19330   2.888   4.680  10.517  1.0242  1.5831 -1.2124
  865MOL0     H19331   2.823   4.839  10.475  1.9237  0.8786  0.4313
  865MOL0     H19332   2.401   5.172  10.799  2.2357 -1.0422  0.1572
  865MOL0     H19333   2.243   5.301  10.687 -0.4015 -1.8972 -1.2543
  865MOL0     H19334   2.103   5.335  10.489 -2.0180  0.2507 -0.1853
  865MOL0     H19335   2.164   5.494  10.551  2.9206  0.8741 -1.8977
  865MOL0     H19336   2.164   5.551  10.289 -0.9299  1.8751 -0.1345
  865MOL0     H19337   2.036   5.430  10.280 -0.4756 -0.4126  2.2717
  865MOL0     H19338   1.956   5.559  10.504  0.6839 -0.3416  0.0774
  865MOL0     H19339   1.893   5.599  10.341  0.9336 -0.2430 -0.2227
  865MOL0     H19340   1.949   5.800  10.477  2.5505  1.7313  0.9002
  865MOL0     H19341   2.051   5.778  10.330 -0.8053 -1.8903 -1.8829
  865MOL0     H19342   2.130   5.694  10.615  1.0758 -0.5142 -0.7307
  865MOL0     H19343   2.236   5.703  10.489 -2.3230 -3.1493 -0.1281
  865MOL0     H19344   2.064   5.934  10.597 -0.8901 -2.1434 -1.3947
  865MOL0     H19345   2.192   5.955  10.480  0.5798  0.9534  1.2002
  865MOL0     H19346   2.362   5.895  10.674 -0.3486 -1.8809 -0.2276
  865MOL0     H19347   2.227   5.883  10.783  2.7292 -2.4036  0.6401
  865MOL0     H19348   2.289   6.107  10.817  2.5006  1.5901  0.3983
  865MOL0     H19349   2.187   6.143  10.674  0.0169 -0.0893 -0.6148
  865MOL0     H19350   2.508   5.338  10.343  1.9525  1.4741  0.2783
  865MOL0     H19351   2.676   5.196  10.479  0.7424  2.5281  0.3219
  865MOL0     H19352   2.767   5.068  10.904 -0.6373  1.8007 -4.9988
  865MOL0     H19353   2.949   4.966  11.028 -0.2585 -0.8714  0.5578
  865MOL0     H19354   3.036   5.382  11.425 -1.2119  1.8558  2.5303
  865MOL0     H19355   2.884   5.527  11.550 -0.3789  1.1947 -0.8630
  865MOL0     H19356   2.279   5.714  11.453  0.1322  0.7865 -0.6148
  865MOL0     H19357   2.136   5.824  11.606  2.1336  2.4643 -2.3127
  865MOL0     H19358   2.239   6.068  11.856  0.0660 -0.6213  1.0496
  865MOL0     H19359   2.196   6.005  11.705  1.4093 -0.0377  0.7192
  865MOL0     H19360   1.958   5.953  11.787  1.2075 -0.5173 -0.4483
  865MOL0     H19361   1.995   6.120  11.787 -2.6148 -0.6768  0.3040
  865MOL0     H19362   1.882   6.037  11.987 -0.2046  0.3482 -3.9968
  865MOL0     H19363   2.035   5.952  12.032 -1.1494  0.1064 -0.2758
  865MOL0     H19364   2.163   6.164  12.045  0.6201 -0.2851  0.4963
  865MOL0     H19365   2.041   6.149  12.160  0.4067 -1.1046  0.1398
  865MOL0     H19366   1.910   6.497  12.037 -0.3595  0.1232 -0.2501
  865MOL0     H19367   2.407   5.730  11.928  0.6830 -0.7300 -0.2138
  865MOL0     H19368   2.572   5.540  11.882  1.4969  0.8093 -0.1984
  865MOL0     H19369   2.590   5.486  11.719 -3.6027 -0.4063 -0.5477
  865MOL0     H19370   2.681   5.636  11.781 -0.6533  1.6703 -2.1807
  866MOL0     O19371   5.954   3.915   0.518 -0.5241 -0.3139  0.0118
  866MOL0     C19372   6.068   3.967   0.534 -0.2518  1.0598 -0.3714
  866MOL0     O19373   6.091   4.059   0.627  0.3456 -0.0861 -0.1721
  866MOL0     C19374   5.997   4.082   0.721  0.3410  0.3470 -0.9255
  866MOL0     C19375   6.030   4.058   0.852 -0.1036 -0.3759 -0.6530
  866MOL0     C19376   5.939   4.078   0.961  0.2487  0.2891 -0.4164
  866MOL0     C19377   5.803   4.116   0.931  0.0179 -0.0104  0.4605
  866MOL0     O19378   5.698   4.123   1.020  0.2239  0.6457  0.6575
  866MOL0     C19379   5.717   4.066   1.147  0.3074  0.9787 -0.8926
  866MOL0     C19380   5.589   4.072   1.236 -0.1730 -0.2269  0.0762
  866MOL0     C19381   5.502   4.198   1.213  0.5669  0.7587 -0.4278
  866MOL0     C19382   5.388   4.218   1.320  0.6385 -0.0168  0.2470
  866MOL0     C19383   5.311   4.338   1.273  0.1322 -0.5617 -0.6303
  866MOL0     C19384   5.177   4.343   1.339 -0.7585  0.5655  0.6344
  866MOL0     C19385   5.140   4.496   1.354  0.4574 -1.2624 -0.7483
  866MOL0     C19386   5.000   4.529   1.422 -0.8696  0.5007  0.2347
  866MOL0     N19387   5.004   4.498   1.559 -0.0200  0.6252 -0.9241
  866MOL0     C19388   5.032   4.586   1.660 -0.2120  0.2843 -0.0638
  866MOL0     C19389   4.999   4.521   1.778  0.3208 -0.1043  0.3715
  866MOL0     C19390   5.005   4.576   1.924 -1.1484 -0.5787 -0.0959
  866MOL0     C19391   4.868   4.610   1.983  0.5066 -1.2851  0.8308
  866MOL0     C19392   4.800   4.702   1.875 -0.2239 -0.0111 -0.5718
  866MOL0     C19393   4.687   4.787   1.919  0.0299  0.0756  0.3559
  866MOL0     O19394   4.725   4.861   2.039  0.1124  0.7067 -0.1136
  866MOL0     C19395   4.621   4.908   2.107  0.0527 -0.1524 -0.3469
  866MOL0     C19396   4.508   4.973   2.054 -0.7619  0.6640 -0.1630
  866MOL0     C19397   4.405   5.020   2.136 -0.5645 -0.7414 -0.3204
  866MOL0     C19398   4.276   5.077   2.061 -0.3104  0.4837 -0.4552
  866MOL0     C19399   4.417   5.015   2.281 -0.2615 -0.5377 -0.2159
  866MOL0     C19400   4.311   5.052   2.365  0.3781  0.2106 -0.9211
  866MOL0     O19401   4.189   5.029   2.320 -0.3580  0.8352 -0.1595
  866MOL0     C19402   4.084   5.090   2.390  0.2421 -0.1947 -0.5258
  866MOL0     C19403   4.026   5.039   2.497  0.0498  0.0748  0.0294
  866MOL0     C19404   3.914   5.096   2.557 -0.2384 -1.1099  0.1706
  866MOL0     C19405   3.860   5.214   2.508  0.8312  0.4660  0.9640
  866MOL0     O19406   3.744   5.264   2.567  0.0445  0.3940 -0.2037
  866MOL0     C19407   3.696   5.392   2.521  0.3443 -0.2925 -0.0146
  866MOL0     C19408   3.572   5.432   2.605  0.4027  0.9183  0.3333
  866MOL0     C19409   3.485   5.551   2.552 -0.0658 -0.2032 -0.4561
  866MOL0     C19410   3.358   5.565   2.636  0.3250 -0.2716 -0.2395
  866MOL0     C19411   3.263   5.684   2.601 -0.5030 -0.3557  0.2357
  866MOL0     C19412   3.217   5.688   2.462 -0.2262  0.0878  0.8482
  866MOL0     C19413   3.098   5.772   2.451  0.0781  0.0183  0.2090
  866MOL0     C19414   3.033   5.792   2.316 -0.2204  0.2657 -1.1309
  866MOL0    Cl19415   2.953   5.644   2.266 -0.1015 -0.0522  0.1287
  866MOL0     C19416   3.930   5.275   2.402 -1.2942  0.7193 -0.2939
  866MOL0     C19417   4.041   5.219   2.346  0.3823 -0.2052  0.4260
  866MOL0     O19418   4.338   5.098   2.470 -0.7401 -0.2670 -0.2608
  866MOL0     C19419   4.537   4.962   2.331  0.0406 -0.1321  0.0592
  866MOL0     C19420   4.643   4.915   2.245  0.3585 -0.5502 -0.1335
  866MOL0     N19421   4.933   4.403   1.745  0.5674 -0.3769 -0.0087
  866MOL0     N19422   4.937   4.389   1.615 -1.0961  1.0231  0.4434
  866MOL0     C19423   5.771   4.148   0.798 -1.1347  0.0523 -0.0535
  866MOL0     C19424   5.871   4.130   0.697  0.2386 -0.1433  0.1899
  866MOL0     C19425   6.186   3.919   0.452  0.5843 -0.3433  0.6737
  866MOL0     C19426   6.314   3.957   0.488 -0.6718 -0.1912 -0.6039
  866MOL0     C19427   6.428   3.938   0.410  0.0792  0.5480 -0.1595
  866MOL0     C19428   6.415   3.865   0.295 -0.5392  0.8900 -0.9233
  866MOL0     O19429   6.517   3.828   0.216  0.6610 -0.0266 -0.2894
  866MOL0     C19430   6.649   3.861   0.250  0.5240 -0.0592 -0.5579
  866MOL0     C19431   6.715   3.760   0.347  0.3194 -0.0125  0.0155
  866MOL0     C19432   6.860   3.780   0.361  0.4830 -0.0365 -0.0372
  866MOL0     C19433   6.892   3.916   0.429  0.3092  0.3181  0.4084
  866MOL0     C19434   7.034   3.925   0.456 -0.0710  0.5564 -0.2354
  866MOL0     C19435   7.153   3.917   0.479  0.4207  0.1583 -0.9579
  866MOL0     C19436   6.296   3.806   0.262  0.2160  0.0796  0.7176
  866MOL0     C19437   6.177   3.840   0.329 -0.1689  0.3745 -0.4427
  866MOL0     C19438   6.052   3.769   0.285  0.8028 -0.2589 -0.0641
  866MOL0     H19439   6.133   4.025   0.863  0.2264  0.5195 -0.9533
  866MOL0     H19440   5.974   4.046   1.059  0.0724 -1.1488 -0.7991
  866MOL0     H19441   5.795   4.125   1.196 -0.0814 -0.7501  2.0152
  866MOL0     H19442   5.760   3.966   1.150  0.0294  0.8305  2.6265
  866MOL0     H19443   5.533   3.981   1.211  0.1647 -0.1767 -0.9015
  866MOL0     H19444   5.617   4.066   1.342  0.5122  3.2068  0.1888
  866MOL0     H19445   5.563   4.289   1.219 -0.3035  1.6336 -3.0898
  866MOL0     H19446   5.454   4.174   1.117  1.4005 -1.5515 -0.3210
  866MOL0     H19447   5.325   4.129   1.328 -0.4996  0.9014  2.7547
  866MOL0     H19448   5.429   4.248   1.417  1.3244  1.4393 -0.4510
  866MOL0     H19449   5.295   4.339   1.164  0.6125  1.4860 -0.7221
  866MOL0     H19450   5.374   4.424   1.296 -2.1814  1.1959 -0.4716
  866MOL0     H19451   5.103   4.284   1.283  0.4923 -0.7432  0.2975
  866MOL0     H19452   5.195   4.300   1.438 -2.6064  0.5527  1.0057
  866MOL0     H19453   5.136   4.539   1.254 -0.6274  3.9707  1.2167
  866MOL0     H19454   5.225   4.534   1.412  2.0149 -4.9976 -0.3036
  866MOL0     H19455   4.980   4.633   1.397  2.3572  1.5268  1.3580
  866MOL0     H19456   4.926   4.464   1.375 -1.1654  2.4090 -2.1012
  866MOL0     H19457   5.058   4.691   1.654 -0.6643  0.3326 -2.0617
  866MOL0     H19458   5.080   4.656   1.930 -0.9077 -0.8020 -0.0923
  866MOL0     H19459   5.042   4.498   1.991  0.0004  1.7326  2.1045
  866MOL0     H19460   4.808   4.521   2.001 -0.5289 -0.6304  0.6900
  866MOL0     H19461   4.881   4.654   2.082 -0.8738 -1.2496  1.0035
  866MOL0     H19462   4.881   4.767   1.840  1.7477 -1.5772  0.8151
  866MOL0     H19463   4.768   4.649   1.785 -1.0645 -0.1785 -0.1860
  866MOL0     H19464   4.650   4.853   1.840 -0.4880 -0.2797  0.2993
  866MOL0     H19465   4.600   4.722   1.931  0.0245 -0.2968 -1.4231
  866MOL0     H19466   4.501   4.994   1.948  0.7846 -0.0100 -0.4219
  866MOL0     H19467   4.200   5.001   2.081  0.8599 -0.4652  0.5593
  866MOL0     H19468   4.295   5.097   1.955  1.2699 -0.2537 -0.3391
  866MOL0     H19469   4.243   5.176   2.093 -1.1246  0.6363 -1.6870
  866MOL0     H19470   4.056   4.943   2.539 -2.3351 -0.9173 -0.3581
  866MOL0     H19471   3.865   5.058   2.646 -0.7299  2.1126  1.4159
  866MOL0     H19472   3.768   5.471   2.547 -2.4474  3.9388 -3.5871
  866MOL0     H19473   3.677   5.375   2.415  1.0806 -3.0675  0.2250
  866MOL0     H19474   3.507   5.344   2.597  0.9074  0.3342  2.2158
  866MOL0     H19475   3.594   5.443   2.712 -1.3033  3.0870  0.5342
  866MOL0     H19476   3.468   5.543   2.444 -2.2989 -1.2527 -0.0831
  866MOL0     H19477   3.538   5.646   2.568 -0.0055 -0.5375  1.4655
  866MOL0     H19478   3.381   5.570   2.743 -0.7675  1.3105 -0.0305
  866MOL0     H19479   3.289   5.481   2.622 -0.1536 -0.2221  1.5580
  866MOL0     H19480   3.180   5.678   2.671 -1.3609 -1.1070 -0.8222
  866MOL0     H19481   3.324   5.774   2.620  0.7661 -1.0818 -0.2702
  866MOL0     H19482   3.190   5.586   2.434  1.8810 -0.3418  0.2345
  866MOL0     H19483   3.296   5.718   2.393  0.3602 -0.7438  1.1336
  866MOL0     H19484   3.118   5.870   2.495  1.4403 -1.2311  2.5469
  866MOL0     H19485   3.016   5.731   2.510 -0.1829  0.4796  0.1685
  866MOL0     H19486   3.116   5.820   2.250  1.1371  1.9178  1.1568
  866MOL0     H19487   2.963   5.876   2.319  0.7021  1.0562 -1.0832
  866MOL0     H19488   3.905   5.369   2.354 -4.9708 -2.4627 -5.5663
  866MOL0     H19489   4.089   5.276   2.268 -0.4375  1.1840  0.9020
  866MOL0     H19490   4.551   4.969   2.439 -1.1639  0.8212  0.1837
  866MOL0     H19491   4.731   4.874   2.292  0.2847 -1.5417 -0.8085
  866MOL0     H19492   5.672   4.170   0.758 -1.7733 -3.0624 -0.4813
  866MOL0     H19493   5.847   4.161   0.596 -3.3650  0.5781  1.1338
  866MOL0     H19494   6.323   4.005   0.585 -4.2277 -0.6899  0.1279
  866MOL0     H19495   6.522   3.966   0.456  0.3737  0.5719 -0.7610
  866MOL0     H19496   6.705   3.877   0.158  2.8299 -3.3898  0.0697
  866MOL0     H19497   6.652   3.959   0.299 -0.1300 -0.7516  0.9464
  866MOL0     H19498   6.701   3.659   0.307  1.0514  0.8437 -2.6452
  866MOL0     H19499   6.668   3.772   0.445  0.4050  2.5453 -0.1901
  866MOL0     H19500   6.900   3.695   0.416 -0.2869 -1.4620 -1.5709
  866MOL0     H19501   6.920   3.778   0.269 -1.7650  0.1867 -1.5872
  866MOL0     H19502   6.841   3.937   0.524 -2.5110  2.2341 -1.3860
  866MOL0     H19503   6.869   3.998   0.361  0.9814 -1.2691 -1.8170
  866MOL0     H19504   7.254   3.917   0.514  0.2209  3.1633 -0.0542
  866MOL0     H19505   6.278   3.736   0.181 -0.2632  0.2851  0.6437
  866MOL0     H19506   6.007   3.700   0.358 -3.2690  1.1565 -0.9765
  866MOL0     H19507   5.980   3.847   0.258  1.7475  0.3237 -0.9488
  866MOL0     H19508   6.070   3.713   0.193  1.4498  0.1156 -0.1708
  867MOL0     O19509   5.338  10.595   6.122  0.3428  0.0508  0.5788
  867MOL0     C19510   5.314  10.520   6.223 -0.6500 -1.3134  0.2874
  867MOL0     O19511   5.392  10.417   6.268  0.7938 -0.6866  0.5775
  867MOL0     C19512   5.524  10.430   6.221  1.6389  0.3282 -0.2098
  867MOL0     C19513   5.604  10.536   6.260 -0.5165 -0.8805 -1.1540
  867MOL0     C19514   5.740  10.535   6.228 -0.0441  0.0148 -0.5916
  867MOL0     C19515   5.793  10.425   6.148 -0.1014 -0.4976 -0.2143
  867MOL0     O19516   5.918  10.413   6.106 -0.3849 -0.9358 -0.4666
  867MOL0     C19517   5.959  10.509   6.004  0.0243 -0.0287  0.4941
  867MOL0     C19518   6.095  10.462   5.959 -0.3123  1.0254 -0.0883
  867MOL0     C19519   6.206  10.458   6.068 -0.2506  0.3613 -0.9204
  867MOL0     C19520   6.334  10.385   6.020 -0.3264  0.5740  0.1730
  867MOL0     C19521   6.454  10.399   6.110 -0.6100 -0.2571  0.1946
  867MOL0     C19522   6.435  10.330   6.249 -0.0242  0.0800  0.2825
  867MOL0     C19523   6.566  10.280   6.305 -0.1311 -0.2736 -1.0754
  867MOL0     C19524   6.612  10.145   6.245  0.5238  0.5268  0.2043
  867MOL0     N19525   6.749  10.107   6.294 -0.4904 -0.5782  0.2005
  867MOL0     C19526   6.877  10.106   6.229  0.5363 -0.0460  0.3546
  867MOL0     C19527   6.961  10.058   6.324 -0.8743  0.6391 -0.8877
  867MOL0     C19528   7.119  10.048   6.311  0.3012  0.2247 -0.0620
  867MOL0     C19529   7.181   9.940   6.215 -0.7004 -0.5535  1.0035
  867MOL0     C19530   7.167   9.790   6.251  0.6654 -0.2215 -0.4468
  867MOL0     C19531   7.201   9.764   6.391 -0.8481  0.4717 -0.0632
  867MOL0     O19532   7.337   9.749   6.405 -0.0987  0.4130 -0.3255
  867MOL0     C19533   7.393   9.629   6.371 -0.7867  0.0337 -1.2883
  867MOL0     C19534   7.331   9.519   6.307  0.1674  0.4354  0.2158
  867MOL0     C19535   7.407   9.406   6.264  0.0103 -0.6806 -0.1333
  867MOL0     C19536   7.324   9.299   6.202  0.4868  0.3990  1.0578
  867MOL0     C19537   7.547   9.409   6.279  0.0893  0.3249  0.6368
  867MOL0     C19538   7.645   9.296   6.251  0.7191 -0.2316  0.9093
  867MOL0     O19539   7.763   9.342   6.201 -1.2048  0.1189 -0.6833
  867MOL0     C19540   7.877   9.267   6.207  0.3800  0.3912 -0.3077
  867MOL0     C19541   7.891   9.144   6.141  0.1679  0.1248  0.1423
  867MOL0     C19542   8.007   9.071   6.149 -0.1605  0.6523  0.0222
  867MOL0     C19543   8.119   9.121   6.214  0.9544  0.8774 -0.3598
  867MOL0     O19544   8.236   9.065   6.189 -0.8462 -0.2389 -0.1040
  867MOL0     C19545   8.294   9.016   6.314 -0.0581  0.0211 -0.3482
  867MOL0     C19546   8.425   9.086   6.311  0.4749  0.6899 -0.6458
  867MOL0     C19547   8.511   9.040   6.427  0.5352  0.6481 -0.2005
  867MOL0     C19548   8.627   9.130   6.441  0.4332 -0.4907  0.1448
  867MOL0     C19549   8.686   9.119   6.585  0.9952  0.3392  0.0167
  867MOL0     C19550   8.808   9.204   6.606 -0.2456 -0.5906 -0.0056
  867MOL0     C19551   8.933   9.155   6.530  1.1843  0.1444  0.5526
  867MOL0     C19552   9.058   9.233   6.557 -0.4837 -0.0073  1.0387
  867MOL0    Cl19553   9.037   9.408   6.497  0.0880  0.4942  0.1602
  867MOL0     C19554   8.115   9.248   6.267  0.1525 -0.4544  0.0138
  867MOL0     C19555   7.990   9.318   6.265 -0.2341 -0.4506  0.0332
  867MOL0     O19556   7.623   9.186   6.312 -0.5760  0.3374 -0.2267
  867MOL0     C19557   7.604   9.516   6.349 -0.5261 -0.8892  0.6023
  867MOL0     C19558   7.530   9.628   6.385  0.6010 -0.2330 -1.3935
  867MOL0     N19559   6.897  10.043   6.450  0.5989  0.5887 -0.4428
  867MOL0     N19560   6.773  10.075   6.423  0.9064  0.3470 -0.2882
  867MOL0     C19561   5.705  10.325   6.108  0.6887  0.0445  0.2072
  867MOL0     C19562   5.570  10.326   6.142  0.2073 -0.2941 -0.1093
  867MOL0     C19563   5.195  10.566   6.295 -0.1588  0.3078  0.1429
  867MOL0     C19564   5.180  10.516   6.427  0.0176  0.2078 -0.0210
  867MOL0     C19565   5.065  10.551   6.500 -0.2323  0.5342  0.2499
  867MOL0     C19566   4.960  10.623   6.447  0.9429 -0.5417  0.0997
  867MOL0     O19567   4.848  10.650   6.527  1.0132 -0.7171  0.2637
  867MOL0     C19568   4.726  10.713   6.466  0.5217  0.6641  0.3353
  867MOL0     C19569   4.611  10.659   6.553  0.5875 -0.0440  0.0277
  867MOL0     C19570   4.467  10.693   6.522 -0.0788 -0.8576  0.1461
  867MOL0     C19571   4.376  10.677   6.648  0.6092  0.4760  0.3766
  867MOL0     C19572   4.327  10.542   6.656  0.0881  0.3356 -0.3296
  867MOL0     C19573   4.307  10.422   6.666 -0.5232 -0.6884 -0.0574
  867MOL0     C19574   4.979  10.674   6.320 -0.4803 -0.7096  0.0228
  867MOL0     C19575   5.091  10.649   6.244  0.7518  0.3194 -0.4397
  867MOL0     C19576   5.099  10.706   6.099  0.2238 -0.2490 -1.2636
  867MOL0     H19577   5.564  10.614   6.324 -1.9503 -3.2229  1.0165
  867MOL0     H19578   5.803  10.617   6.260  1.2363 -0.7616 -1.0830
  867MOL0     H19579   5.963  10.614   6.035  1.8646  0.0726  0.0261
  867MOL0     H19580   5.893  10.500   5.918  0.7699  0.5473 -0.1500
  867MOL0     H19581   6.082  10.355   5.941 -0.0948  1.0063 -0.1311
  867MOL0     H19582   6.124  10.511   5.865 -1.6999  0.5604 -0.7971
  867MOL0     H19583   6.227  10.556   6.111  0.7859 -0.6538  1.0612
  867MOL0     H19584   6.168  10.406   6.157  2.8468 -1.0585 -0.2978
  867MOL0     H19585   6.321  10.276   6.009 -0.6102  0.5264  0.9095
  867MOL0     H19586   6.367  10.424   5.923  0.1933 -2.1301 -0.8242
  867MOL0     H19587   6.475  10.506   6.122 -0.8535 -0.0336 -1.1602
  867MOL0     H19588   6.544  10.360   6.061 -0.3632 -0.8496  1.1075
  867MOL0     H19589   6.405  10.408   6.319 -1.7715 -0.0406 -0.2640
  867MOL0     H19590   6.364  10.247   6.243  1.4002 -1.0599 -2.7024
  867MOL0     H19591   6.558  10.263   6.412  1.1127 -0.8046 -1.0523
  867MOL0     H19592   6.649  10.352   6.301  0.8521 -1.4151 -3.1661
  867MOL0     H19593   6.549  10.055   6.246  0.9874  0.2023  1.2000
  867MOL0     H19594   6.628  10.159   6.138  2.2785  0.9693  0.5025
  867MOL0     H19595   6.897  10.137   6.127  1.4149 -1.0486  0.2062
  867MOL0     H19596   7.169  10.051   6.408 -0.9766 -0.2887  0.6367
  867MOL0     H19597   7.142  10.141   6.259 -0.1056 -0.6341 -1.8713
  867MOL0     H19598   7.140   9.958   6.115 -2.2055  2.0794  1.9686
  867MOL0     H19599   7.290   9.954   6.216 -0.8474  0.9848 -0.1508
  867MOL0     H19600   7.066   9.755   6.227  0.5007  0.6325 -1.0212
  867MOL0     H19601   7.222   9.724   6.184 -0.0188 -0.3489 -0.8913
  867MOL0     H19602   7.165   9.837   6.464 -1.2425  0.5218 -0.3059
  867MOL0     H19603   7.154   9.673   6.429  1.8250 -0.6871  0.6947
  867MOL0     H19604   7.223   9.513   6.316  0.4114 -3.1230  3.6982
  867MOL0     H19605   7.250   9.259   6.272 -2.1100  2.6012 -0.2497
  867MOL0     H19606   7.393   9.229   6.155  1.3690  2.8620 -1.5546
  867MOL0     H19607   7.265   9.346   6.123 -0.3523  1.5715  2.3346
  867MOL0     H19608   7.805   9.104   6.089  0.3620 -0.3362  0.1741
  867MOL0     H19609   8.022   8.971   6.110  3.0093  1.2495 -0.5764
  867MOL0     H19610   8.240   9.042   6.405 -1.7816 -3.4071 -0.2426
  867MOL0     H19611   8.303   8.907   6.313  0.2708  0.0452 -0.1492
  867MOL0     H19612   8.480   9.051   6.223  1.5689 -3.1518  1.3324
  867MOL0     H19613   8.422   9.195   6.312  1.8327  0.7834  1.4615
  867MOL0     H19614   8.544   8.937   6.411  2.6212  1.4544 -1.3505
  867MOL0     H19615   8.450   9.041   6.518 -0.6325 -2.6238 -0.8019
  867MOL0     H19616   8.611   9.234   6.411 -0.6161 -0.4126  0.9151
  867MOL0     H19617   8.703   9.083   6.378 -0.2374 -0.7834 -0.4601
  867MOL0     H19618   8.611   9.158   6.654  0.5355  1.8227 -1.2747
  867MOL0     H19619   8.711   9.015   6.606 -0.5608  0.2589  1.6770
  867MOL0     H19620   8.826   9.201   6.714  2.1165  1.7609 -0.2337
  867MOL0     H19621   8.790   9.307   6.577 -0.1927 -0.4274  0.5252
  867MOL0     H19622   8.931   9.167   6.422  3.3876 -0.5818  0.3796
  867MOL0     H19623   8.945   9.049   6.553 -0.1934 -0.7325 -2.3697
  867MOL0     H19624   9.130   9.177   6.497 -0.2890  1.2027  0.1085
  867MOL0     H19625   9.092   9.229   6.661  3.6617  0.7915 -0.0868
  867MOL0     H19626   8.204   9.294   6.309 -1.1957  1.5329  0.8467
  867MOL0     H19627   7.994   9.409   6.324 -1.9443 -0.2140 -0.1819
  867MOL0     H19628   7.712   9.514   6.358 -0.3644 -2.2474 -1.0338
  867MOL0     H19629   7.580   9.703   6.446  1.1714 -1.2777 -0.5383
  867MOL0     H19630   5.747  10.250   6.041  0.7801 -0.1786  0.5080
  867MOL0     H19631   5.506  10.251   6.099  1.5726 -1.4462 -0.2082
  867MOL0     H19632   5.250  10.450   6.479  1.3118 -0.7452 -2.7824
  867MOL0     H19633   5.055  10.526   6.605  0.1974 -0.8563 -0.0151
  867MOL0     H19634   4.733  10.822   6.475 -0.9331  0.6459  2.2745
  867MOL0     H19635   4.701  10.695   6.361  0.2650  2.6834  0.0127
  867MOL0     H19636   4.634  10.694   6.654 -1.8523  2.3496 -0.1231
  867MOL0     H19637   4.618  10.550   6.554  1.8036 -0.0133  2.4540
  867MOL0     H19638   4.464  10.800   6.499 -0.0422 -0.5608  1.4492
  867MOL0     H19639   4.436  10.631   6.438  1.0112  0.5987 -1.3929
  867MOL0     H19640   4.291  10.745   6.638  1.9709  2.5831  2.1705
  867MOL0     H19641   4.423  10.698   6.744  2.5309 -1.0804 -0.1634
  867MOL0     H19642   4.296  10.317   6.651  2.2394 -1.1805  0.7416
  867MOL0     H19643   4.898  10.729   6.274 -0.3483 -0.4934  0.0454
  867MOL0     H19644   5.003  10.752   6.074  0.8364  2.1672  0.4387
  867MOL0     H19645   5.185  10.774   6.100  1.7390 -1.8574  2.9519
  867MOL0     H19646   5.125  10.620   6.037 -0.5162 -1.9571  0.6401
  868MOL0     O19647   4.098   2.917  10.551 -0.1078 -0.0526  0.2751
  868MOL0     C19648   4.014   2.872  10.471  0.4288 -0.1988  0.4397
  868MOL0     O19649   4.011   2.747  10.424  0.1588 -0.4012  0.0229
  868MOL0     C19650   4.112   2.664  10.469  0.3785 -0.6697 -0.5027
  868MOL0     C19651   4.227   2.647  10.394  0.3007 -0.4078 -0.9274
  868MOL0     C19652   4.324   2.561  10.448 -0.9845  0.1853  0.8407
  868MOL0     C19653   4.308   2.492  10.570 -0.1843  0.8366 -0.1373
  868MOL0     O19654   4.392   2.398  10.615 -0.1756  0.0154  0.5946
  868MOL0     C19655   4.526   2.418  10.564  0.0242 -0.3414 -0.2045
  868MOL0     C19656   4.550   2.320  10.451  0.6330  0.0327 -0.7732
  868MOL0     C19657   4.694   2.302  10.409 -0.4104  0.4773  0.2060
  868MOL0     C19658   4.752   2.439  10.367 -0.2868 -0.4200  0.5109
  868MOL0     C19659   4.899   2.434  10.322  0.1337  0.5393 -0.0693
  868MOL0     C19660   4.994   2.340  10.403  0.0170  0.2276 -0.7390
  868MOL0     C19661   5.137   2.390  10.392  0.0355 -0.3672  0.4284
  868MOL0     C19662   5.189   2.402  10.254  0.3529 -0.3961  0.2434
  868MOL0     N19663   5.330   2.392  10.256 -0.4827  0.0962 -0.3491
  868MOL0     C19664   5.410   2.303  10.189  0.4485 -0.3372 -0.4999
  868MOL0     C19665   5.528   2.353  10.204  1.2628 -0.9612  0.2764
  868MOL0     C19666   5.649   2.303  10.154 -0.4826 -0.5306 -0.5870
  868MOL0     C19667   5.721   2.203  10.238 -0.6115  0.2515 -0.2919
  868MOL0     C19668   5.858   2.164  10.163  1.2643  0.0119 -0.6087
  868MOL0     C19669   5.953   2.075  10.245  1.0058 -0.7116 -0.2886
  868MOL0     O19670   6.056   2.036  10.156 -0.7823 -0.3969  0.1581
  868MOL0     C19671   6.189   2.074  10.169 -0.2083  0.1302 -0.0045
  868MOL0     C19672   6.240   2.176  10.258  0.2735  0.1039  0.3466
  868MOL0     C19673   6.378   2.217  10.247  0.5492  0.5789 -0.4239
  868MOL0     C19674   6.415   2.329  10.338  0.1356 -1.2607  1.0128
  868MOL0     C19675   6.462   2.153  10.151 -0.2032  0.2696 -0.3522
  868MOL0     C19676   6.606   2.196  10.126  0.5185  0.2030  0.0685
  868MOL0     O19677   6.673   2.262  10.229  0.3489 -0.3334  0.5669
  868MOL0     C19678   6.802   2.321  10.199  0.2319  0.8555 -0.2427
  868MOL0     C19679   6.820   2.456  10.215 -0.5438  0.1729  0.3326
  868MOL0     C19680   6.944   2.515  10.207 -0.4873 -0.0599 -0.0222
  868MOL0     C19681   7.053   2.440  10.161  0.8158  0.0319  0.0587
  868MOL0     O19682   7.178   2.505  10.138 -0.1294  0.7075 -0.4265
  868MOL0     C19683   7.261   2.460  10.031  0.1037 -0.0208  0.2516
  868MOL0     C19684   7.396   2.529  10.010  0.4219  0.2718 -0.4324
  868MOL0     C19685   7.503   2.481  10.103  0.2889  0.2783 -0.2511
  868MOL0     C19686   7.636   2.543  10.067 -0.5931 -0.1524  0.7975
  868MOL0     C19687   7.754   2.461  10.129 -0.3948 -0.8839 -0.2414
  868MOL0     C19688   7.891   2.532  10.125  0.3757  0.3345 -0.1700
  868MOL0     C19689   8.013   2.441  10.116 -0.0322 -0.2848 -0.2642
  868MOL0     C19690   8.136   2.504  10.170  0.1120 -0.6347 -0.2213
  868MOL0    Cl19691   8.189   2.653  10.080  0.4321  0.4279 -0.6480
  868MOL0     C19692   7.037   2.303  10.143 -0.6851  0.7393  0.3047
  868MOL0     C19693   6.913   2.238  10.165  1.2018  0.4464  0.3152
  868MOL0     O19694   6.652   2.164  10.016  0.6450  0.1232  0.0902
  868MOL0     C19695   6.407   2.046  10.079 -0.2847 -0.3015 -0.2516
  868MOL0     C19696   6.273   2.005  10.087 -0.2912 -0.5228  0.5452
  868MOL0     N19697   5.522   2.476  10.262 -0.7434 -0.0433 -0.3202
  868MOL0     N19698   5.400   2.493  10.305  0.5132  0.2770 -0.0764
  868MOL0     C19699   4.188   2.513  10.641 -0.2590 -0.0732 -0.8866
  868MOL0     C19700   4.091   2.603  10.586 -0.6993  0.2469  0.1154
  868MOL0     C19701   3.904   2.964  10.430  0.3435  0.1321  0.0278
  868MOL0     C19702   3.811   2.931  10.328 -0.4771  0.3907  0.1623
  868MOL0     C19703   3.716   3.021  10.282 -0.2480  0.2178  0.7005
  868MOL0     C19704   3.712   3.145  10.326 -0.7501 -0.6338 -0.3007
  868MOL0     O19705   3.644   3.253  10.272  0.6811  0.0559  0.0536
  868MOL0     C19706   3.500   3.241  10.254 -0.3443  0.1461 -0.1784
  868MOL0     C19707   3.432   3.230  10.389 -0.7611 -0.3383 -1.0289
  868MOL0     C19708   3.279   3.254  10.376 -0.4192  0.6602  0.3686
  868MOL0     C19709   3.208   3.246  10.511  0.0136 -0.2167  0.6084
  868MOL0     C19710   3.059   3.229  10.499  0.3542 -0.8911 -1.4434
  868MOL0     C19711   2.942   3.197  10.482 -1.0401 -0.4412 -0.0064
  868MOL0     C19712   3.816   3.197  10.412 -0.1512  0.0468  0.2806
  868MOL0     C19713   3.906   3.104  10.472 -0.6506  0.2565 -0.0049
  868MOL0     C19714   4.008   3.172  10.564  0.5716  0.4237  0.2799
  868MOL0     H19715   4.230   2.689  10.294 -1.9640 -0.4750 -1.0750
  868MOL0     H19716   4.410   2.539  10.385 -1.1369 -1.4617  1.1599
  868MOL0     H19717   4.598   2.377  10.634 -1.4024 -0.2339  1.3852
  868MOL0     H19718   4.545   2.525  10.553  0.0778  0.0088  2.6958
  868MOL0     H19719   4.513   2.227  10.495  2.1311  0.1026  0.7231
  868MOL0     H19720   4.486   2.337  10.364  1.8943 -1.0306 -1.9236
  868MOL0     H19721   4.755   2.266  10.493 -0.3414 -1.2281 -0.5397
  868MOL0     H19722   4.718   2.224  10.336  0.9093 -2.2580  3.3180
  868MOL0     H19723   4.689   2.479  10.287 -0.8308  0.0537  1.1645
  868MOL0     H19724   4.746   2.516  10.445 -0.0780  2.2494 -1.9476
  868MOL0     H19725   4.939   2.536  10.328 -0.9010  0.9010  1.0491
  868MOL0     H19726   4.900   2.401  10.218 -0.6631 -1.4798  0.5175
  868MOL0     H19727   4.985   2.347  10.512  5.4602  0.2178 -0.0300
  868MOL0     H19728   4.980   2.238  10.367 -0.1376  0.4697 -1.3799
  868MOL0     H19729   5.190   2.315  10.452 -0.8210 -1.0335  0.3667
  868MOL0     H19730   5.152   2.479  10.454 -2.9929 -0.0933  0.9041
  868MOL0     H19731   5.155   2.314  10.197  1.3027 -1.9762  1.9830
  868MOL0     H19732   5.162   2.499  10.213 -0.7285 -1.8365 -2.7353
  868MOL0     H19733   5.385   2.211  10.137  1.5324 -1.2347  0.5206
  868MOL0     H19734   5.718   2.388  10.157  0.5891 -1.2854  4.0679
  868MOL0     H19735   5.644   2.260  10.053  0.0110  0.5687 -1.0957
  868MOL0     H19736   5.743   2.237  10.339  0.6200  0.4688 -0.6068
  868MOL0     H19737   5.662   2.111  10.247 -0.6493  0.2224 -0.7885
  868MOL0     H19738   5.829   2.097  10.081 -0.8014  0.4581 -0.3110
  868MOL0     H19739   5.906   2.255  10.128  2.0424  1.1145  2.9436
  868MOL0     H19740   5.987   2.129  10.334  1.4469  0.7007 -1.2973
  868MOL0     H19741   5.906   1.981  10.277 -0.7888  0.6551  1.3581
  868MOL0     H19742   6.185   2.233  10.331  1.7613 -0.2338  1.7854
  868MOL0     H19743   6.332   2.352  10.406  0.5494  4.2962  0.0875
  868MOL0     H19744   6.432   2.423  10.285 -0.8006 -0.8010  1.4948
  868MOL0     H19745   6.509   2.308  10.390  0.7812  2.0687  1.4446
  868MOL0     H19746   6.728   2.507  10.241 -1.8905 -0.1920 -3.1148
  868MOL0     H19747   6.965   2.620  10.224  3.6034 -0.7966  0.4989
  868MOL0     H19748   7.284   2.353  10.042  1.1646 -0.0673 -1.9401
  868MOL0     H19749   7.201   2.458   9.939  0.6731 -2.8818 -0.1528
  868MOL0     H19750   7.438   2.505   9.912  0.3242 -1.7879 -0.0244
  868MOL0     H19751   7.378   2.636  10.020 -4.0183 -0.3234 -0.0176
  868MOL0     H19752   7.494   2.372  10.100 -0.4058  0.3522 -1.8191
  868MOL0     H19753   7.479   2.500  10.208  1.0852  2.2799 -0.3939
  868MOL0     H19754   7.647   2.649  10.091  0.6139  0.0291 -0.4044
  868MOL0     H19755   7.647   2.545   9.958 -0.6485  1.2648  0.7949
  868MOL0     H19756   7.729   2.443  10.234  0.1199 -1.8009 -0.2572
  868MOL0     H19757   7.773   2.366  10.077  2.9257 -0.9248  0.8323
  868MOL0     H19758   7.908   2.613  10.197  0.3791 -0.3185  0.5862
  868MOL0     H19759   7.893   2.577  10.026 -2.0180 -0.9887 -0.9073
  868MOL0     H19760   8.027   2.409  10.013 -1.2288 -0.6785 -0.3124
  868MOL0     H19761   7.998   2.347  10.170  0.0638 -0.0636  0.1515
  868MOL0     H19762   8.220   2.433  10.178 -0.5024 -1.2139  2.1075
  868MOL0     H19763   8.111   2.526  10.275 -1.8841 -1.1617 -0.5513
  868MOL0     H19764   7.121   2.241  10.110 -1.3588  0.4979 -1.0355
  868MOL0     H19765   6.891   2.134  10.144 -1.1877  1.2412 -1.6060
  868MOL0     H19766   6.483   1.995  10.021 -0.5555 -1.2886  0.2548
  868MOL0     H19767   6.238   1.918  10.032 -1.8599 -2.0273  3.6756
  868MOL0     H19768   4.169   2.461  10.734 -1.1793 -0.9116 -1.5213
  868MOL0     H19769   3.993   2.605  10.633  1.0544 -1.5225  4.4438
  868MOL0     H19770   3.801   2.831  10.288 -1.6292 -0.0456  1.4758
  868MOL0     H19771   3.647   2.979  10.210  1.2396 -1.6724  0.2911
  868MOL0     H19772   3.450   3.327  10.207 -0.9528  0.8580  1.6821
  868MOL0     H19773   3.483   3.148  10.199 -0.0245  0.9429 -1.6984
  868MOL0     H19774   3.483   3.303  10.451  0.9126 -3.2086  1.2206
  868MOL0     H19775   3.447   3.135  10.441  1.1644  1.8308  2.7197
  868MOL0     H19776   3.252   3.345  10.322 -0.6407 -0.1401 -0.9019
  868MOL0     H19777   3.233   3.184  10.306  0.7512  1.2715 -1.0556
  868MOL0     H19778   3.215   3.341  10.566 -3.3325  1.0622 -0.9288
  868MOL0     H19779   3.250   3.170  10.578 -0.8942  0.8126  2.4357
  868MOL0     H19780   2.837   3.176  10.471 -1.2706  0.1311  0.9130
  868MOL0     H19781   3.822   3.304  10.429 -2.3227  0.3579 -0.6283
  868MOL0     H19782   4.107   3.143  10.530  0.6919  1.2326 -0.0575
  868MOL0     H19783   3.999   3.280  10.552 -0.0522  0.5570  1.7582
  868MOL0     H19784   3.986   3.140  10.667 -2.4896 -3.3135 -1.2604
  869MOL0     O19785   2.866   9.149   9.683 -0.2857 -0.2539 -0.6924
  869MOL0     C19786   2.839   9.049   9.748  0.8407  0.4336  0.0196
  869MOL0     O19787   2.875   8.911   9.716  0.1666 -1.1539  0.0362
  869MOL0     C19788   2.964   8.885   9.615 -0.3875 -0.5168  0.6548
  869MOL0     C19789   2.990   8.752   9.589  0.7864  0.0414  0.0677
  869MOL0     C19790   3.088   8.709   9.500  0.1534  1.0600  0.1589
  869MOL0     C19791   3.178   8.799   9.438 -0.1951  0.8183 -0.6337
  869MOL0     O19792   3.255   8.742   9.338  0.0301  0.4053  0.3287
  869MOL0     C19793   3.308   8.820   9.228  0.7922  0.3928 -0.5480
  869MOL0     C19794   3.405   8.733   9.150  0.3564  0.3071  0.2535
  869MOL0     C19795   3.547   8.731   9.213  1.4609  0.2977 -0.5094
  869MOL0     C19796   3.643   8.657   9.121  0.7543  0.5332 -0.0233
  869MOL0     C19797   3.796   8.663   9.155 -0.0968 -0.4247 -0.4221
  869MOL0     C19798   3.879   8.587   9.050  0.2538 -0.1043  0.4579
  869MOL0     C19799   4.027   8.634   9.054  0.4030  0.3843 -0.6501
  869MOL0     C19800   4.114   8.576   8.938  0.0644  0.8188 -0.5398
  869MOL0     N19801   4.249   8.551   8.985  0.0920 -0.9414  0.1497
  869MOL0     C19802   4.297   8.471   9.088 -0.1047  0.3483  0.3178
  869MOL0     C19803   4.426   8.502   9.102 -0.7320 -0.1566 -0.0014
  869MOL0     C19804   4.519   8.468   9.221 -0.0450  0.0446  0.2551
  869MOL0     C19805   4.616   8.352   9.189  0.5328  0.5842  0.7357
  869MOL0     C19806   4.714   8.320   9.301 -0.4499  0.6388 -0.5906
  869MOL0     C19807   4.828   8.422   9.310 -0.0935  0.9412  0.3329
  869MOL0     O19808   4.901   8.445   9.185  0.7241 -0.0981 -0.6270
  869MOL0     C19809   5.026   8.386   9.164  0.4198 -0.2082 -0.5152
  869MOL0     C19810   5.115   8.449   9.075 -0.4264  0.6296  0.5480
  869MOL0     C19811   5.250   8.401   9.057  0.0334 -0.2385  0.0222
  869MOL0     C19812   5.320   8.490   8.963 -0.5691  1.1848  0.0169
  869MOL0     C19813   5.289   8.279   9.116  0.4314 -0.6748  0.0510
  869MOL0     C19814   5.425   8.229   9.086 -0.2497 -0.2140  0.8102
  869MOL0     O19815   5.511   8.299   9.008  0.2453  0.3975  0.2969
  869MOL0     C19816   5.636   8.255   8.978  0.4722 -0.4583  0.0313
  869MOL0     C19817   5.670   8.133   8.929  0.1491  0.5888  0.1903
  869MOL0     C19818   5.795   8.095   8.886  0.2025  0.3447 -0.5005
  869MOL0     C19819   5.906   8.186   8.905 -0.2762 -0.3445 -0.0108
  869MOL0     O19820   6.034   8.151   8.879 -0.0520  0.0624  0.2722
  869MOL0     C19821   6.062   8.019   8.858  0.0262  0.0951  0.7446
  869MOL0     C19822   6.208   7.991   8.854  0.5743  0.0050 -0.6715
  869MOL0     C19823   6.276   8.028   8.983 -0.1881 -0.2436 -0.8889
  869MOL0     C19824   6.212   7.970   9.107 -0.5596  0.7934  0.4640
  869MOL0     C19825   6.271   8.027   9.236  1.0587  1.0595  0.2500
  869MOL0     C19826   6.286   7.934   9.357  1.2956  0.5555 -0.8917
  869MOL0     C19827   6.391   7.826   9.333  0.6104 -0.3191 -0.0104
  869MOL0     C19828   6.385   7.725   9.445 -0.1246  0.8871  0.0631
  869MOL0    Cl19829   6.500   7.593   9.413 -0.1490  0.4331  0.1632
  869MOL0     C19830   5.876   8.310   8.965 -0.1002 -0.2880  0.4778
  869MOL0     C19831   5.740   8.346   8.994 -0.3811  0.5367 -0.2489
  869MOL0     O19832   5.452   8.124   9.143 -0.6053 -0.2892  0.2595
  869MOL0     C19833   5.205   8.224   9.208  0.8986  0.0908 -0.4398
  869MOL0     C19834   5.072   8.264   9.226  0.7720  0.7906  0.9147
  869MOL0     N19835   4.457   8.594   8.997  0.1158  0.2426  0.5072
  869MOL0     N19836   4.354   8.615   8.926  0.2194 -0.3186  0.8474
  869MOL0     C19837   3.173   8.927   9.485  0.0466  0.1879  1.1606
  869MOL0     C19838   3.068   8.971   9.569  0.8929  0.4686 -0.6239
  869MOL0     C19839   2.761   9.065   9.866 -0.0193 -0.4271  0.1669
  869MOL0     C19840   2.779   8.971   9.976  0.0384  0.0050 -0.0730
  869MOL0     C19841   2.717   9.000  10.107 -1.1350 -0.6683 -0.3178
  869MOL0     C19842   2.627   9.103  10.132  0.4610  0.2916  0.6361
  869MOL0     O19843   2.568   9.106  10.257  0.1381  0.6920 -0.3186
  869MOL0     C19844   2.446   9.158  10.264 -0.2945 -0.3134  0.3943
  869MOL0     C19845   2.362   9.089  10.366 -0.3835 -0.2766  0.6490
  869MOL0     C19846   2.365   8.937  10.356 -0.1559  1.0907  0.1574
  869MOL0     C19847   2.331   8.865  10.231  0.3923  0.5567 -0.1039
  869MOL0     C19848   2.203   8.915  10.180  0.1170  0.0823  0.0274
  869MOL0     C19849   2.103   8.972  10.139  0.0043 -0.3680  0.4040
  869MOL0     C19850   2.605   9.191  10.024  2.0287  0.1263 -0.5057
  869MOL0     C19851   2.678   9.183   9.900  0.0806 -0.6357 -0.4688
  869MOL0     C19852   2.626   9.281   9.793 -0.1615  0.2046 -0.1067
  869MOL0     H19853   2.925   8.685   9.644  0.7833 -0.8448 -0.9682
  869MOL0     H19854   3.077   8.605   9.473 -0.6223  1.7444 -2.5055
  869MOL0     H19855   3.345   8.917   9.264 -1.9859  0.3438  3.0593
  869MOL0     H19856   3.216   8.835   9.171 -0.0294  2.6813  1.2240
  869MOL0     H19857   3.364   8.631   9.150  0.9856  0.0507  0.4868
  869MOL0     H19858   3.416   8.761   9.045  1.0099 -0.6569  0.0457
  869MOL0     H19859   3.577   8.832   9.244  1.8148  0.2666 -0.7555
  869MOL0     H19860   3.537   8.663   9.299 -1.1667 -1.3727 -1.9857
  869MOL0     H19861   3.615   8.552   9.124  2.2028  0.1038 -0.5105
  869MOL0     H19862   3.627   8.691   9.018 -1.7260 -1.7520 -0.4911
  869MOL0     H19863   3.806   8.619   9.255 -0.7556 -0.1160 -0.2129
  869MOL0     H19864   3.821   8.769   9.158  0.0406 -0.3530 -2.6899
  869MOL0     H19865   3.864   8.478   9.055 -1.5670  0.0792 -0.1516
  869MOL0     H19866   3.847   8.623   8.952  1.7142  0.2156  0.0686
  869MOL0     H19867   4.076   8.611   9.149 -0.4322 -0.7745 -0.4782
  869MOL0     H19868   4.027   8.743   9.059  1.0249  0.3852 -0.6198
  869MOL0     H19869   4.079   8.479   8.901 -0.3316  1.1003 -0.9170
  869MOL0     H19870   4.105   8.650   8.858 -1.5750  0.4196 -0.7487
  869MOL0     H19871   4.253   8.396   9.152 -1.7897  0.7800 -0.2747
  869MOL0     H19872   4.450   8.438   9.301 -0.1431 -1.7828 -0.4694
  869MOL0     H19873   4.584   8.553   9.244  0.6448  0.2290 -2.0765
  869MOL0     H19874   4.559   8.263   9.161  1.0520  0.0024  1.4712
  869MOL0     H19875   4.679   8.388   9.107 -1.6450 -0.5323 -1.5576
  869MOL0     H19876   4.662   8.305   9.395  1.7795 -0.4097  0.5611
  869MOL0     H19877   4.763   8.224   9.281  0.8164  1.2669 -0.6071
  869MOL0     H19878   4.792   8.518   9.347 -3.4197 -1.2345  3.4101
  869MOL0     H19879   4.900   8.391   9.386 -0.1811  1.3924  0.5983
  869MOL0     H19880   5.092   8.548   9.038  3.2682  1.0134 -1.2163
  869MOL0     H19881   5.415   8.525   9.004 -0.3405 -0.9502  1.4197
  869MOL0     H19882   5.277   8.584   8.926  0.2717  1.0154 -1.4908
  869MOL0     H19883   5.341   8.432   8.873 -0.0331  1.4894 -0.0602
  869MOL0     H19884   5.592   8.058   8.918 -0.6172  1.5902 -2.0463
  869MOL0     H19885   5.818   7.996   8.847  2.3142  0.4656  0.2838
  869MOL0     H19886   6.018   7.945   8.926  0.9351  0.4195  1.7171
  869MOL0     H19887   6.028   8.010   8.755  1.0696 -0.6724  0.4525
  869MOL0     H19888   6.218   7.884   8.832  1.3400 -0.2477  0.7966
  869MOL0     H19889   6.259   8.039   8.770  3.6506  1.9983  2.0730
  869MOL0     H19890   6.290   8.136   8.985  3.2584 -0.5642 -1.0277
  869MOL0     H19891   6.374   7.979   8.977 -0.2291 -0.2944 -1.1568
  869MOL0     H19892   6.239   7.864   9.113 -0.4065  0.5539 -2.5734
  869MOL0     H19893   6.103   7.973   9.119 -0.8447 -2.4186 -0.3232
  869MOL0     H19894   6.359   8.090   9.222  0.2579  1.9059 -1.3674
  869MOL0     H19895   6.186   8.095   9.248  2.1803  2.6679 -0.4663
  869MOL0     H19896   6.187   7.898   9.386 -0.3982  3.2884 -2.7945
  869MOL0     H19897   6.313   7.986   9.449 -0.9653  0.8915 -0.3802
  869MOL0     H19898   6.488   7.877   9.336 -0.5755  2.1050 -0.0768
  869MOL0     H19899   6.388   7.778   9.235  1.1966 -1.0365  0.3158
  869MOL0     H19900   6.285   7.687   9.466  0.9017 -1.0830  1.7280
  869MOL0     H19901   6.421   7.773   9.536  3.9559 -2.2214  0.3433
  869MOL0     H19902   5.964   8.368   8.990  1.6743 -2.0133 -1.4599
  869MOL0     H19903   5.717   8.438   9.047  2.7881  0.5996  1.2857
  869MOL0     H19904   5.245   8.143   9.268 -1.3326  0.2607  1.4138
  869MOL0     H19905   5.000   8.225   9.298 -1.8180  1.0426 -1.3763
  869MOL0     H19906   3.246   9.006   9.467  0.6466 -0.7410 -0.8441
  869MOL0     H19907   3.065   9.078   9.583 -0.2775  0.2250  1.2702
  869MOL0     H19908   2.839   8.884   9.954  1.8297  0.4065  2.7069
  869MOL0     H19909   2.725   8.935  10.194  0.6715 -1.4101 -0.9858
  869MOL0     H19910   2.445   9.265  10.286  1.7599 -0.5099  1.7451
  869MOL0     H19911   2.385   9.137  10.176  1.0163  0.7024 -0.7951
  869MOL0     H19912   2.262   9.129  10.348  0.8125  1.8923 -1.8891
  869MOL0     H19913   2.392   9.115  10.468  0.0945 -0.2605  0.5053
  869MOL0     H19914   2.467   8.900  10.372 -0.7604 -0.6509  0.1942
  869MOL0     H19915   2.296   8.906  10.436  1.5481  0.3113  1.3863
  869MOL0     H19916   2.330   8.756  10.239 -1.5517  0.2144 -3.4163
  869MOL0     H19917   2.400   8.893  10.151 -0.1869  0.7568 -0.5362
  869MOL0     H19918   2.014   9.010  10.093 -2.3729 -4.0475  1.5068
  869MOL0     H19919   2.546   9.281  10.040  1.1449 -0.2167 -1.7318
  869MOL0     H19920   2.554   9.234   9.725 -1.1337  0.3165  0.8155
  869MOL0     H19921   2.573   9.367   9.834 -1.2048 -0.1629 -0.6469
  869MOL0     H19922   2.708   9.330   9.740 -2.2117  1.7579 -2.0098
  870MOL0     O19923   2.321   2.682   8.691  0.0894  0.0617  0.4522
  870MOL0     C19924   2.268   2.586   8.630 -0.0642 -0.3562  0.6519
  870MOL0     O19925   2.322   2.504   8.527 -0.2281  0.0087  0.3794
  870MOL0     C19926   2.458   2.523   8.515 -0.2025  0.3585  0.0365
  870MOL0     C19927   2.548   2.411   8.549  0.3080  0.0697 -0.8015
  870MOL0     C19928   2.681   2.420   8.544 -0.1276  0.9002 -0.3427
  870MOL0     C19929   2.737   2.532   8.493  0.5896 -0.8930 -0.3270
  870MOL0     O19930   2.870   2.564   8.498  0.0687 -0.6576  0.8512
  870MOL0     C19931   2.952   2.480   8.591  0.3014  0.2472 -0.7041
  870MOL0     C19932   3.098   2.487   8.567 -0.6632  0.2425 -0.5903
  870MOL0     C19933   3.154   2.623   8.578  0.5943 -0.6317  0.5266
  870MOL0     C19934   3.310   2.602   8.576  0.9319  0.0752  0.7825
  870MOL0     C19935   3.393   2.731   8.570  1.0515  0.3773 -0.1779
  870MOL0     C19936   3.537   2.703   8.595 -0.3304  0.6991  0.5246
  870MOL0     C19937   3.617   2.832   8.573  0.7771 -0.5872  0.5297
  870MOL0     C19938   3.762   2.806   8.597 -0.6449 -0.2884 -0.0263
  870MOL0     N19939   3.843   2.929   8.576  1.0650  0.6800  0.0795
  870MOL0     C19940   3.849   3.033   8.663 -0.0014 -0.2065  0.5336
  870MOL0     C19941   3.931   3.124   8.603  0.7634 -0.3816 -0.4159
  870MOL0     C19942   3.958   3.259   8.657 -0.2615  1.0640  0.1956
  870MOL0     C19943   4.083   3.265   8.748  0.6293 -0.2696 -0.0517
  870MOL0     C19944   4.101   3.414   8.805  0.0730 -0.2281  0.4032
  870MOL0     C19945   3.978   3.472   8.879 -0.2969  0.3632  0.1741
  870MOL0     O19946   3.941   3.393   8.994 -0.6021  0.3722 -0.2463
  870MOL0     C19947   3.844   3.440   9.079 -0.1538  0.3386  0.1151
  870MOL0     C19948   3.888   3.482   9.206 -0.2698 -0.0475  0.2392
  870MOL0     C19949   3.800   3.523   9.305 -0.3896  0.3584  0.2615
  870MOL0     C19950   3.862   3.542   9.446 -0.0960 -0.4918  0.6633
  870MOL0     C19951   3.662   3.519   9.276  0.1368 -0.0149 -0.1315
  870MOL0     C19952   3.560   3.576   9.361  0.6122  0.1621  0.5475
  870MOL0     O19953   3.424   3.553   9.314  0.1021 -0.1023 -0.5151
  870MOL0     C19954   3.323   3.578   9.403 -1.0143 -0.2820  0.6880
  870MOL0     C19955   3.295   3.716   9.428  0.1037 -0.2672  0.8110
  870MOL0     C19956   3.182   3.754   9.512  0.2737  0.3024 -0.2999
  870MOL0     C19957   3.086   3.661   9.543 -0.0013 -0.5131  0.2197
  870MOL0     O19958   2.965   3.713   9.589  0.4135 -0.2662  0.2003
  870MOL0     C19959   2.921   3.669   9.719 -0.1666  0.1287 -0.4948
  870MOL0     C19960   2.838   3.771   9.794  0.6215 -0.1316 -0.2585
  870MOL0     C19961   2.769   3.699   9.907  0.2483  0.9915 -1.2571
  870MOL0     C19962   2.684   3.787   9.995 -0.2227  0.4634  0.7847
  870MOL0     C19963   2.623   3.721  10.122  0.2223 -0.0581  0.2196
  870MOL0     C19964   2.523   3.823  10.191  0.1434  0.0424 -0.3188
  870MOL0     C19965   2.487   3.763  10.334  0.8620 -0.0111  0.3995
  870MOL0     C19966   2.393   3.866  10.390  0.0145  0.8562 -0.2616
  870MOL0    Cl19967   2.232   3.841  10.312 -0.1006 -0.0445  0.2320
  870MOL0     C19968   3.112   3.526   9.516  0.0510  0.0886 -0.0956
  870MOL0     C19969   3.229   3.484   9.456  1.1300 -0.6671 -0.2529
  870MOL0     O19970   3.591   3.627   9.471 -0.1967  0.4520  0.5568
  870MOL0     C19971   3.621   3.474   9.148  0.6836 -0.5983 -0.3714
  870MOL0     C19972   3.708   3.429   9.046 -1.0292  0.1400  0.3114
  870MOL0     N19973   3.967   3.066   8.489  0.8227 -0.7503  0.5977
  870MOL0     N19974   3.909   2.956   8.467  0.5514  0.0403  0.8790
  870MOL0     C19975   2.652   2.634   8.445  0.8678 -0.4001  0.2297
  870MOL0     C19976   2.513   2.640   8.459  0.2463  0.6419  0.4525
  870MOL0     C19977   2.125   2.561   8.661  0.1154  0.2745  0.8540
  870MOL0     C19978   2.070   2.460   8.575  0.6892 -0.6262 -0.0603
  870MOL0     C19979   1.935   2.449   8.575 -0.6311  0.1997 -0.9309
  870MOL0     C19980   1.852   2.525   8.653 -0.2332  1.1536  0.5884
  870MOL0     O19981   1.721   2.514   8.640  0.4077  0.8617  0.0843
  870MOL0     C19982   1.650   2.428   8.545  0.2680  0.0820  0.4011
  870MOL0     C19983   1.504   2.451   8.565  1.4180 -0.4755 -0.0809
  870MOL0     C19984   1.458   2.593   8.551 -0.4494 -0.0443  0.1487
  870MOL0     C19985   1.307   2.616   8.544  0.7203  0.3414 -0.3670
  870MOL0     C19986   1.255   2.586   8.682 -0.2539  0.2523 -0.2941
  870MOL0     C19987   1.190   2.568   8.778 -0.3833  0.8814 -1.0453
  870MOL0     C19988   1.904   2.612   8.744  0.8878 -1.0737  0.5485
  870MOL0     C19989   2.035   2.635   8.741 -0.0338  0.4275 -0.9260
  870MOL0     C19990   2.078   2.745   8.845 -0.0827 -0.0681  0.2003
  870MOL0     H19991   2.504   2.317   8.580 -0.7151  1.7095  3.3366
  870MOL0     H19992   2.733   2.336   8.588 -1.3762  0.3864  0.1614
  870MOL0     H19993   2.916   2.378   8.580  1.4315 -0.4368  1.3353
  870MOL0     H19994   2.927   2.521   8.690  0.5057  1.0475 -0.9737
  870MOL0     H19995   3.151   2.416   8.630  1.0574  1.5824 -0.4486
  870MOL0     H19996   3.104   2.448   8.465 -0.4785  1.2182 -0.9657
  870MOL0     H19997   3.116   2.686   8.497  2.8273 -0.5374 -0.5432
  870MOL0     H19998   3.121   2.653   8.678 -3.6140 -2.3366 -0.1613
  870MOL0     H19999   3.346   2.545   8.662 -1.1295 -0.1836  1.5455
  870MOL0     H20000   3.344   2.561   8.481  0.5225 -1.8003  1.4168
  870MOL0     H20001   3.366   2.806   8.645  2.1450  1.6146 -0.9581
  870MOL0     H20002   3.367   2.776   8.473 -3.3952  1.1580  1.1368
  870MOL0     H20003   3.551   2.667   8.697  1.1440 -0.6604 -0.1237
  870MOL0     H20004   3.571   2.626   8.525 -0.5713  1.3782 -0.3694
  870MOL0     H20005   3.577   2.905   8.644 -1.3111  0.9615 -2.0877
  870MOL0     H20006   3.608   2.873   8.472  0.6079  0.3917  0.9352
  870MOL0     H20007   3.786   2.769   8.697  0.9352 -1.1781 -0.6981
  870MOL0     H20008   3.794   2.733   8.521 -1.0852  0.2848 -0.7762
  870MOL0     H20009   3.790   3.032   8.754 -2.6473 -3.0687 -1.0659
  870MOL0     H20010   3.866   3.303   8.696 -0.2529  0.9873  0.3064
  870MOL0     H20011   3.975   3.323   8.570 -3.8893  1.5167 -0.3069
  870MOL0     H20012   4.063   3.200   8.834  1.3095  0.3159  0.5675
  870MOL0     H20013   4.168   3.226   8.693  1.3413 -1.5460  1.8573
  870MOL0     H20014   4.193   3.420   8.864 -0.1638  2.0618  0.6571
  870MOL0     H20015   4.112   3.487   8.724 -0.3282 -2.2816 -1.5751
  870MOL0     H20016   4.002   3.574   8.909 -1.4411  0.6275  0.2285
  870MOL0     H20017   3.903   3.493   8.802 -0.1194 -0.0203 -0.1076
  870MOL0     H20018   3.993   3.468   9.229 -0.8453 -0.3338  3.0095
  870MOL0     H20019   3.825   3.635   9.489  1.0970  1.9528 -3.0809
  870MOL0     H20020   3.970   3.559   9.438 -0.1868  0.6565  1.6883
  870MOL0     H20021   3.855   3.458   9.516 -0.7464  0.0279  1.2322
  870MOL0     H20022   3.353   3.800   9.391 -0.4670 -0.1865  0.0715
  870MOL0     H20023   3.166   3.859   9.535  2.0819  0.2500  1.4882
  870MOL0     H20024   2.852   3.584   9.706 -0.7639  0.5929 -0.3791
  870MOL0     H20025   3.004   3.649   9.787 -2.7198 -0.5137  2.6908
  870MOL0     H20026   2.897   3.856   9.829 -0.9177  0.9316 -0.1281
  870MOL0     H20027   2.762   3.800   9.721 -0.5074 -3.8772 -0.7643
  870MOL0     H20028   2.848   3.640   9.955 -0.8040  0.5644  0.0100
  870MOL0     H20029   2.699   3.626   9.865  1.3824  0.1369 -1.7078
  870MOL0     H20030   2.616   3.842   9.929  1.9622  1.3955 -0.8232
  870MOL0     H20031   2.741   3.875  10.026  2.7970 -1.7360  1.9560
  870MOL0     H20032   2.585   3.623  10.091  1.5532  0.0696 -2.0090
  870MOL0     H20033   2.717   3.713  10.177  0.1628  2.5132  0.8335
  870MOL0     H20034   2.434   3.845  10.132 -0.8161  1.7884  1.6538
  870MOL0     H20035   2.567   3.922  10.209 -0.4318  0.1054  0.7823
  870MOL0     H20036   2.582   3.741  10.384  1.1945  1.2373  0.3507
  870MOL0     H20037   2.424   3.674  10.319 -1.1383  1.2437  0.9919
  870MOL0     H20038   2.438   3.962  10.366  3.1211 -0.7658 -1.5833
  870MOL0     H20039   2.391   3.849  10.499  1.6320 -2.1438 -0.5766
  870MOL0     H20040   3.034   3.464   9.557 -0.1129  1.5122  1.8896
  870MOL0     H20041   3.248   3.379   9.438  2.3756 -0.2242 -1.7032
  870MOL0     H20042   3.515   3.482   9.127  0.0376 -3.9441  1.1224
  870MOL0     H20043   3.692   3.390   8.946 -0.8934  2.8373 -0.8491
  870MOL0     H20044   2.698   2.725   8.407 -1.1773  0.4066 -0.4400
  870MOL0     H20045   2.454   2.725   8.427 -0.4547 -1.1340 -3.6842
  870MOL0     H20046   2.125   2.403   8.501  0.3219 -1.2034  0.1104
  870MOL0     H20047   1.892   2.365   8.522 -2.2918  0.6272 -0.3157
  870MOL0     H20048   1.680   2.463   8.445 -2.3001 -0.8929 -0.8054
  870MOL0     H20049   1.670   2.321   8.550  0.1422  0.0837  1.0010
  870MOL0     H20050   1.474   2.431   8.668 -2.5876  1.7413 -0.6306
  870MOL0     H20051   1.457   2.389   8.487  4.7282 -0.4510 -2.2824
  870MOL0     H20052   1.504   2.648   8.634  1.1098  0.0766 -0.7542
  870MOL0     H20053   1.502   2.624   8.455 -0.7686  0.4512  0.1617
  870MOL0     H20054   1.258   2.560   8.465  2.1359 -0.0015 -1.0333
  870MOL0     H20055   1.284   2.720   8.521  3.5837  0.5944 -2.6435
  870MOL0     H20056   1.130   2.564   8.866  0.0169 -1.8882 -0.7909
  870MOL0     H20057   1.844   2.678   8.807  2.2261  2.1782 -1.3911
  870MOL0     H20058   2.025   2.833   8.806 -2.8461 -1.7057 -0.0099
  870MOL0     H20059   2.052   2.714   8.946 -0.6437 -5.3446 -1.2640
  870MOL0     H20060   2.187   2.755   8.842  0.1968 -2.2840  1.0405
  871MOL0     O20061   1.747   1.816   7.130  0.2800  0.2435 -0.5803
  871MOL0     C20062   1.754   1.851   7.246 -0.2083 -0.3207 -0.1571
  871MOL0     O20063   1.811   1.975   7.295 -0.4551  0.7255 -0.1836
  871MOL0     C20064   1.881   2.051   7.208  0.1730  0.6000  0.6336
  871MOL0     C20065   1.975   2.002   7.118 -1.0889  0.8928 -0.1109
  871MOL0     C20066   2.048   2.087   7.038  0.0275 -0.1766  0.4810
  871MOL0     C20067   2.019   2.227   7.043 -0.4775  0.0405 -0.1914
  871MOL0     O20068   2.081   2.318   6.954  0.0104  0.0749 -0.3241
  871MOL0     C20069   1.985   2.394   6.885 -0.6404 -0.5563 -0.3483
  871MOL0     C20070   2.037   2.436   6.749  0.0031  0.3855 -0.3802
  871MOL0     C20071   2.185   2.481   6.747  0.3262  0.1364  0.5034
  871MOL0     C20072   2.213   2.601   6.837  0.6217 -0.1768  0.8884
  871MOL0     C20073   2.342   2.679   6.815  0.0584 -0.4528  0.4607
  871MOL0     C20074   2.466   2.583   6.806  0.1998 -1.3751  0.8231
  871MOL0     C20075   2.603   2.665   6.837  0.2404 -0.2445 -0.3184
  871MOL0     C20076   2.731   2.608   6.791 -0.6491 -0.2147 -0.7660
  871MOL0     N20077   2.853   2.682   6.826 -0.2683  0.0063  0.8690
  871MOL0     C20078   2.948   2.641   6.926 -0.6647  0.2619  0.4423
  871MOL0     C20079   3.044   2.739   6.923 -0.2806 -0.5468  0.6548
  871MOL0     C20080   3.160   2.751   7.012  0.4685  0.3928  0.0686
  871MOL0     C20081   3.234   2.885   7.010 -0.3794  0.1902 -0.0937
  871MOL0     C20082   3.376   2.854   7.062 -0.1239 -0.4220  0.4719
  871MOL0     C20083   3.463   2.989   7.089  0.5573  0.0157 -0.0848
  871MOL0     O20084   3.519   3.048   6.968  0.3578 -0.2290 -0.0645
  871MOL0     C20085   3.631   3.129   6.976  0.2206 -0.5634 -0.5561
  871MOL0     C20086   3.694   3.156   6.855 -0.2580 -0.0341 -0.2238
  871MOL0     C20087   3.815   3.222   6.851 -0.0683 -0.3316 -0.5409
  871MOL0     C20088   3.876   3.236   6.715  0.0813 -0.6862  0.3699
  871MOL0     C20089   3.863   3.288   6.966  0.0069  1.2175  0.3712
  871MOL0     C20090   3.989   3.372   6.969  0.0789  0.1446 -0.9987
  871MOL0     O20091   4.055   3.381   7.085  0.3202  0.2401  0.3428
  871MOL0     C20092   4.122   3.496   7.107 -0.3452  0.6754 -0.2622
  871MOL0     C20093   4.062   3.629   7.105 -0.2336 -0.4081  0.3114
  871MOL0     C20094   4.134   3.747   7.129  0.0911  0.1227  0.5490
  871MOL0     C20095   4.263   3.732   7.174 -0.1403 -0.4702  1.6590
  871MOL0     O20096   4.344   3.836   7.211 -0.3549 -0.4170  0.1792
  871MOL0     C20097   4.304   3.982   7.181  0.2290  0.4459  1.1510
  871MOL0     C20098   4.427   4.072   7.147  0.0864  0.1472  0.1859
  871MOL0     C20099   4.505   4.103   7.283  0.3892  0.6927 -0.4286
  871MOL0     C20100   4.646   4.050   7.270  0.4542 -0.1950 -0.2797
  871MOL0     C20101   4.711   4.080   7.407  0.1409 -0.1007  0.1312
  871MOL0     C20102   4.842   4.009   7.418 -0.7481 -0.4784 -0.2431
  871MOL0     C20103   4.911   4.036   7.557  0.5023 -0.8795 -0.5555
  871MOL0     C20104   5.022   3.939   7.578  0.1953  0.5585 -0.5555
  871MOL0    Cl20105   5.148   3.974   7.457  0.1669 -0.2024  0.0268
  871MOL0     C20106   4.319   3.605   7.184 -0.0337  0.7390 -0.6968
  871MOL0     C20107   4.253   3.486   7.153 -0.1948  0.5238  0.0826
  871MOL0     O20108   4.031   3.419   6.867 -0.6100  0.7723  0.0365
  871MOL0     C20109   3.796   3.258   7.088  0.2968 -0.2113  0.1693
  871MOL0     C20110   3.679   3.188   7.091  0.6050 -0.3242 -0.4107
  871MOL0     N20111   3.011   2.838   6.824  0.2439  0.3488  0.1117
  871MOL0     N20112   2.894   2.800   6.764  0.0403  0.0217  0.3598
  871MOL0     C20113   1.923   2.274   7.137 -0.8387 -0.1421  0.2036
  871MOL0     C20114   1.855   2.185   7.211  1.0756 -0.7064 -0.5025
  871MOL0     C20115   1.676   1.773   7.352  0.0907 -0.7889 -0.3742
  871MOL0     C20116   1.618   1.842   7.462  1.0774 -0.0409  0.8673
  871MOL0     C20117   1.527   1.779   7.549  0.4570 -0.6238 -0.4521
  871MOL0     C20118   1.508   1.645   7.548 -0.3949  0.1513 -0.0936
  871MOL0     O20119   1.427   1.578   7.630 -0.0851 -0.4710 -0.5067
  871MOL0     C20120   1.293   1.625   7.651  0.2449 -0.2362 -0.1195
  871MOL0     C20121   1.222   1.546   7.766 -0.1812  0.4456  0.7166
  871MOL0     C20122   1.185   1.405   7.722 -0.0278  0.8216  0.3400
  871MOL0     C20123   1.058   1.379   7.649  0.4381  0.8449  1.0630
  871MOL0     C20124   0.932   1.394   7.721 -0.0783 -0.4330 -0.6363
  871MOL0     C20125   0.835   1.388   7.796  0.9739 -0.0535 -0.1964
  871MOL0     C20126   1.576   1.577   7.453  0.4311 -0.8875 -0.5848
  871MOL0     C20127   1.650   1.632   7.350  0.2111  0.2156 -0.2346
  871MOL0     C20128   1.701   1.539   7.244  0.3780 -0.2252  0.0423
  871MOL0     H20129   1.998   1.896   7.120 -0.5927  0.9037 -2.3673
  871MOL0     H20130   2.113   2.042   6.964 -2.3274 -1.2222 -1.0605
  871MOL0     H20131   1.981   2.490   6.939  1.0809 -0.8847  0.4322
  871MOL0     H20132   1.887   2.346   6.887 -0.8383 -0.1742  1.7827
  871MOL0     H20133   2.017   2.359   6.674 -0.5036  0.8750 -0.7522
  871MOL0     H20134   1.984   2.522   6.708  1.6237  1.6519  0.0612
  871MOL0     H20135   2.248   2.397   6.778  1.0902  0.9204  1.1696
  871MOL0     H20136   2.221   2.510   6.648 -0.9548 -1.5551 -0.5005
  871MOL0     H20137   2.138   2.678   6.815  1.4019  0.5943  0.8617
  871MOL0     H20138   2.212   2.569   6.942  0.3165 -2.5781  0.2036
  871MOL0     H20139   2.345   2.749   6.899 -2.3162 -0.2488  0.4244
  871MOL0     H20140   2.335   2.749   6.731 -0.0858  0.4623  1.2207
  871MOL0     H20141   2.446   2.507   6.883  2.5130 -1.7213  1.1688
  871MOL0     H20142   2.466   2.550   6.702  0.5966  0.4130  0.2220
  871MOL0     H20143   2.614   2.686   6.944  2.1106 -0.6519 -0.3885
  871MOL0     H20144   2.606   2.763   6.790 -0.0463 -0.5267 -0.9301
  871MOL0     H20145   2.747   2.511   6.840  0.2595  0.5580  0.5426
  871MOL0     H20146   2.733   2.594   6.683  0.9634 -5.3863 -0.3176
  871MOL0     H20147   2.960   2.552   6.986  2.6566 -1.2380 -2.1560
  871MOL0     H20148   3.227   2.668   6.989  1.3903  1.0317  0.4018
  871MOL0     H20149   3.128   2.729   7.115  1.3590 -0.0887  0.2569
  871MOL0     H20150   3.230   2.928   6.909 -2.1190 -0.7482 -0.4763
  871MOL0     H20151   3.185   2.951   7.082 -0.3276  0.0850  0.0356
  871MOL0     H20152   3.375   2.800   7.157  0.3239 -0.4925  0.4395
  871MOL0     H20153   3.438   2.790   6.998 -2.8296 -2.0372 -0.6816
  871MOL0     H20154   3.396   3.057   7.143 -0.4893  0.5838 -2.0362
  871MOL0     H20155   3.549   2.966   7.153  1.1963  1.8189 -0.2545
  871MOL0     H20156   3.637   3.117   6.772  0.5835  1.5321 -1.6065
  871MOL0     H20157   3.855   3.335   6.673 -3.1439 -0.4522  2.1598
  871MOL0     H20158   3.839   3.157   6.649 -1.4783  0.0237  0.3590
  871MOL0     H20159   3.983   3.215   6.717  1.0208  3.3878  0.7438
  871MOL0     H20160   3.955   3.624   7.087 -0.9724  2.0826  3.1700
  871MOL0     H20161   4.079   3.841   7.134 -0.6712 -0.0301 -2.6054
  871MOL0     H20162   4.237   3.979   7.095  2.1069 -0.1017 -0.3610
  871MOL0     H20163   4.250   4.031   7.263 -1.5081 -0.7082  0.7545
  871MOL0     H20164   4.483   4.006   7.080 -1.4019 -1.7805  0.7574
  871MOL0     H20165   4.392   4.168   7.107  0.4362 -0.0368 -0.5841
  871MOL0     H20166   4.441   4.063   7.362  1.6296  1.3614  0.9637
  871MOL0     H20167   4.489   4.208   7.310 -2.5291 -0.0009  1.0094
  871MOL0     H20168   4.705   4.116   7.205  1.9697  0.1989  1.4125
  871MOL0     H20169   4.653   3.943   7.247 -0.6964 -0.5866  1.0823
  871MOL0     H20170   4.726   4.188   7.418 -1.4810  0.1014  0.5370
  871MOL0     H20171   4.652   4.046   7.492 -0.9394  5.1367  1.8589
  871MOL0     H20172   4.910   4.042   7.339  1.3904 -0.0820  1.6491
  871MOL0     H20173   4.830   3.901   7.404  4.0405 -1.2597  0.1714
  871MOL0     H20174   4.841   4.027   7.641 -1.4468 -1.0839 -2.1316
  871MOL0     H20175   4.958   4.135   7.564 -1.8716  0.2174  1.5964
  871MOL0     H20176   4.980   3.840   7.557  0.5930 -0.1109  1.5675
  871MOL0     H20177   5.062   3.942   7.680 -1.0933 -1.2318  0.0512
  871MOL0     H20178   4.421   3.595   7.219  0.0435 -0.2481 -1.1607
  871MOL0     H20179   4.300   3.388   7.160 -0.2493  0.4628 -0.3796
  871MOL0     H20180   3.839   3.306   7.175 -1.0941  3.5188 -0.9935
  871MOL0     H20181   3.628   3.175   7.186 -2.5514 -2.0909 -2.1680
  871MOL0     H20182   1.883   2.374   7.149 -3.1655 -0.4950 -3.1966
  871MOL0     H20183   1.781   2.213   7.285  3.3853 -0.4614  1.8553
  871MOL0     H20184   1.646   1.946   7.475  1.0092  0.1436 -0.3214
  871MOL0     H20185   1.493   1.840   7.632  2.1873  1.0035 -0.8575
  871MOL0     H20186   1.292   1.731   7.679  0.8906 -0.3909  0.5055
  871MOL0     H20187   1.235   1.614   7.559 -2.4045  1.9794  1.1304
  871MOL0     H20188   1.133   1.607   7.787  0.3623  0.5839  2.8748
  871MOL0     H20189   1.287   1.547   7.854  1.2285  2.0639 -0.2562
  871MOL0     H20190   1.257   1.374   7.645 -1.0296  2.1992 -1.1935
  871MOL0     H20191   1.196   1.341   7.811  0.1166  0.8222  0.3222
  871MOL0     H20192   1.051   1.279   7.605 -2.5610 -0.8036  4.7302
  871MOL0     H20193   1.067   1.447   7.563  3.2976  2.4587  2.4901
  871MOL0     H20194   0.759   1.360   7.865 -0.8835 -1.5726 -2.7114
  871MOL0     H20195   1.569   1.469   7.450 -0.3587 -0.8328 -0.9561
  871MOL0     H20196   1.798   1.575   7.209 -0.1887 -0.1533 -1.5391
  871MOL0     H20197   1.707   1.435   7.277 -1.4469 -0.3549  0.0837
  871MOL0     H20198   1.632   1.547   7.159  1.8743 -3.0778 -1.5943
  872MOL0     O20199   9.938   5.486   6.954  0.3287  0.0179  0.3835
  872MOL0     C20200   9.981   5.461   6.836  0.2723 -0.1257 -0.7984
  872MOL0     O20201  10.102   5.495   6.785 -0.7488 -0.0519  0.3805
  872MOL0     C20202  10.198   5.582   6.849  0.0576  0.5720 -0.3487
  872MOL0     C20203  10.206   5.617   6.987  0.3565 -0.6250  0.3788
  872MOL0     C20204  10.308   5.704   7.037 -0.3295 -0.0125 -0.2700
  872MOL0     C20205  10.409   5.747   6.950  0.0102  0.9723  0.1350
  872MOL0     O20206  10.527   5.818   6.986  0.0361  0.9279  0.6206
  872MOL0     C20207  10.652   5.804   6.909 -0.0659  0.3870  0.3590
  872MOL0     C20208  10.765   5.831   7.015  0.5893 -0.5842  0.5359
  872MOL0     C20209  10.906   5.826   6.962  0.5322  0.7256  0.4273
  872MOL0     C20210  11.015   5.837   7.068  0.5492 -0.4283 -0.0953
  872MOL0     C20211  11.150   5.877   7.007  0.8473  1.3022 -0.1910
  872MOL0     C20212  11.244   5.916   7.127  0.1738 -0.2095  0.1206
  872MOL0     C20213  11.384   5.940   7.082 -0.5030  1.0475 -0.2019
  872MOL0     C20214  11.484   5.948   7.201 -0.5099  0.1707  1.3433
  872MOL0     N20215  11.635   5.976   7.172 -0.4030  0.7378  0.1667
  872MOL0     C20216  11.686   6.096   7.149  0.0461 -0.0190 -0.0350
  872MOL0     C20217  11.818   6.082   7.144 -0.3513  0.7557  0.4377
  872MOL0     C20218  11.907   6.203   7.131 -0.8837 -0.3580 -0.1663
  872MOL0     C20219  11.938   6.271   7.269  0.2027  0.9934  1.1888
  872MOL0     C20220  12.036   6.386   7.235 -0.0556  0.7068 -0.0595
  872MOL0     C20221  12.174   6.353   7.185  0.4106  0.3783  0.1238
  872MOL0     O20222  12.262   6.283   7.276  0.7144  0.0181 -0.4096
  872MOL0     C20223  12.378   6.228   7.229 -1.0897 -0.5258 -0.4812
  872MOL0     C20224  12.469   6.180   7.326 -1.1141  0.5166  0.0265
  872MOL0     C20225  12.598   6.138   7.303  0.0912 -0.2561  0.4993
  872MOL0     C20226  12.683   6.090   7.419 -0.6744 -0.2870 -0.0368
  872MOL0     C20227  12.652   6.155   7.168  0.4300  0.6930  0.4637
  872MOL0     C20228  12.786   6.129   7.122  0.0652 -1.1524 -0.0538
  872MOL0     O20229  12.803   6.093   6.996 -0.4399 -0.7390 -0.3496
  872MOL0     C20230  12.936   6.079   6.949  0.0181  0.2023 -0.1120
  872MOL0     C20231  13.024   5.974   6.989 -0.4705  0.5884  0.4928
  872MOL0     C20232  13.153   5.968   6.933 -0.3214 -0.5262 -0.1964
  872MOL0     C20233  13.195   6.067   6.841 -0.6526 -0.7539 -0.3754
  872MOL0     O20234  13.329   6.067   6.802  0.1802  0.6939 -0.1579
  872MOL0     C20235  13.397   6.196   6.793 -0.1260  0.8056  0.3631
  872MOL0     C20236  13.544   6.186   6.840 -0.0109  0.2749 -0.2179
  872MOL0     C20237  13.607   6.063   6.781 -0.8021  0.3595 -0.0091
  872MOL0     C20238  13.766   6.091   6.776 -0.2260  0.5653  0.3399
  872MOL0     C20239  13.838   5.971   6.714 -0.0721 -0.1889 -0.4299
  872MOL0     C20240  13.983   5.994   6.673 -1.2285 -0.5535  0.9848
  872MOL0     C20241  14.072   6.029   6.790 -0.1132 -0.6523  0.4990
  872MOL0     C20242  14.215   6.054   6.757  0.4717 -0.4685  0.0221
  872MOL0    Cl20243  14.310   5.913   6.702  0.2141 -0.1788 -0.0998
  872MOL0     C20244  13.109   6.179   6.808 -0.1467  0.5397  0.0548
  872MOL0     C20245  12.980   6.171   6.850  0.2614  0.1445 -1.2882
  872MOL0     O20246  12.866   6.138   7.211  0.2019  0.7792  0.6875
  872MOL0     C20247  12.562   6.211   7.070 -0.7503  0.5920  0.0800
  872MOL0     C20248  12.429   6.245   7.098 -0.1893 -0.5884  0.1225
  872MOL0     N20249  11.844   5.953   7.173 -0.6593  0.2270  0.6067
  872MOL0     N20250  11.737   5.892   7.191  0.0960  0.2283 -0.1382
  872MOL0     C20251  10.397   5.722   6.813  1.0880  0.3264  0.3037
  872MOL0     C20252  10.304   5.629   6.767  0.1809 -0.0449 -0.3222
  872MOL0     C20253   9.887   5.388   6.754 -0.8100 -0.3622 -0.9997
  872MOL0     C20254   9.934   5.345   6.625  0.9456 -0.1966  0.3975
  872MOL0     C20255   9.874   5.235   6.561  0.4110 -1.1719 -0.6673
  872MOL0     C20256   9.751   5.186   6.608 -0.0357  0.1806 -0.0204
  872MOL0     O20257   9.691   5.079   6.571  0.8075 -0.1323  0.9818
  872MOL0     C20258   9.775   4.962   6.533  0.3119 -0.6487  0.3865
  872MOL0     C20259   9.876   4.921   6.644 -0.4014 -0.0554  0.4719
  872MOL0     C20260   9.939   4.790   6.604 -1.2572  0.5217  0.0317
  872MOL0     C20261  10.007   4.711   6.717  0.3870  0.8801 -0.0405
  872MOL0     C20262  10.121   4.779   6.775  0.1353  0.3166  1.4023
  872MOL0     C20263  10.230   4.834   6.793  0.5092  0.0628 -0.4380
  872MOL0     C20264   9.688   5.257   6.711  0.0399 -0.1817  0.1993
  872MOL0     C20265   9.753   5.358   6.785 -0.0241  0.5598 -0.1884
  872MOL0     C20266   9.678   5.417   6.904  0.6542 -0.5736  0.0642
  872MOL0     H20267  10.137   5.570   7.056 -0.9401 -0.4466 -0.7498
  872MOL0     H20268  10.307   5.710   7.145 -0.9256 -1.0962 -0.2008
  872MOL0     H20269  10.661   5.874   6.825 -1.0082 -0.8698 -0.8475
  872MOL0     H20270  10.665   5.705   6.864  0.8861  0.5583  0.2251
  872MOL0     H20271  10.741   5.932   7.050 -2.6152 -0.7754 -0.7867
  872MOL0     H20272  10.752   5.763   7.100 -0.6880 -0.8912  0.1163
  872MOL0     H20273  10.912   5.734   6.903 -0.7700  0.7272  0.2580
  872MOL0     H20274  10.919   5.909   6.893  2.6062 -2.5933 -3.6059
  872MOL0     H20275  10.985   5.917   7.135  1.2375 -1.8127  1.9822
  872MOL0     H20276  11.011   5.740   7.120  1.0077 -0.0097  0.7401
  872MOL0     H20277  11.145   5.966   6.943  0.8750  0.9768 -0.6479
  872MOL0     H20278  11.204   5.798   6.955  0.7526  1.1627 -0.0799
  872MOL0     H20279  11.206   6.003   7.182  1.6513 -0.0912  1.0355
  872MOL0     H20280  11.249   5.836   7.201 -1.9691 -0.6887 -0.1956
  872MOL0     H20281  11.388   6.037   7.031  1.2456  0.8940 -0.4045
  872MOL0     H20282  11.407   5.866   7.005 -0.7995 -0.6177  1.2594
  872MOL0     H20283  11.435   6.018   7.269 -0.2269  1.2626  0.4575
  872MOL0     H20284  11.482   5.848   7.245  1.9070 -1.2682 -1.4700
  872MOL0     H20285  11.646   6.197   7.148  2.5021  1.0755  1.3547
  872MOL0     H20286  11.858   6.275   7.065  0.7415  1.9145  0.9496
  872MOL0     H20287  12.004   6.166   7.096  0.3600  2.3008  0.2107
  872MOL0     H20288  11.852   6.307   7.327  1.6659  1.0390  3.4537
  872MOL0     H20289  11.987   6.198   7.334 -0.7095 -0.6313  0.1035
  872MOL0     H20290  11.989   6.450   7.159  0.4457  1.6658  0.4178
  872MOL0     H20291  12.062   6.445   7.324  0.9271  1.4677 -0.8315
  872MOL0     H20292  12.162   6.298   7.091  0.6602  0.8430 -0.1873
  872MOL0     H20293  12.226   6.447   7.167  0.3150  0.4651  0.2987
  872MOL0     H20294  12.438   6.174   7.430  1.8079  0.5293  0.9619
  872MOL0     H20295  12.772   6.154   7.426 -0.9616  0.5520 -2.8288
  872MOL0     H20296  12.709   5.988   7.390 -0.5541 -0.3820  0.3988
  872MOL0     H20297  12.636   6.103   7.517  2.9900  0.4957  1.8040
  872MOL0     H20298  12.987   5.902   7.062 -1.7419  1.4132  0.6911
  872MOL0     H20299  13.232   5.906   6.975 -1.1484  0.2009  2.6892
  872MOL0     H20300  13.389   6.219   6.686  1.8937  1.4313  0.3111
  872MOL0     H20301  13.358   6.270   6.864  0.1747  0.2442  1.1262
  872MOL0     H20302  13.600   6.272   6.803 -2.1556  2.1880  0.7258
  872MOL0     H20303  13.561   6.180   6.948 -0.2449  2.4732 -0.0050
  872MOL0     H20304  13.561   6.051   6.682 -1.0536  0.4421  0.0982
  872MOL0     H20305  13.592   5.974   6.843  0.2802  0.8128  0.9411
  872MOL0     H20306  13.800   6.112   6.878  0.2835 -0.2862  0.3504
  872MOL0     H20307  13.781   6.173   6.706 -0.7358  0.2727 -0.1204
  872MOL0     H20308  13.838   5.882   6.777 -0.4524 -0.4852 -0.8425
  872MOL0     H20309  13.786   5.935   6.625  2.9853 -4.6516 -0.7224
  872MOL0     H20310  13.978   6.082   6.609 -0.4391  1.3674  3.4438
  872MOL0     H20311  14.015   5.907   6.614  4.2374  2.1309 -0.6080
  872MOL0     H20312  14.076   5.942   6.856  3.0904 -1.0827 -0.1030
  872MOL0     H20313  14.035   6.118   6.841 -1.9588 -1.9604  1.5918
  872MOL0     H20314  14.248   6.085   6.857 -0.3547 -0.6003  0.3462
  872MOL0     H20315  14.226   6.140   6.691 -0.0199 -2.4422 -2.8451
  872MOL0     H20316  13.147   6.250   6.735  0.5077 -0.7027 -0.8476
  872MOL0     H20317  12.903   6.245   6.830 -1.3879 -1.4200 -0.9288
  872MOL0     H20318  12.598   6.238   6.972  2.7020 -2.9599  0.1176
  872MOL0     H20319  12.369   6.303   7.028 -2.7573 -0.7510  2.0295
  872MOL0     H20320  10.459   5.766   6.735  2.7066 -1.1026  0.7354
  872MOL0     H20321  10.294   5.596   6.664  3.1561 -1.9837 -0.1006
  872MOL0     H20322  10.027   5.385   6.585  1.2734 -0.9580  0.3934
  872MOL0     H20323   9.920   5.203   6.468  0.0984  1.5312 -1.8536
  872MOL0     H20324   9.704   4.881   6.513  0.5486 -0.6448 -0.4866
  872MOL0     H20325   9.822   4.978   6.436  2.2271 -2.4713  0.9388
  872MOL0     H20326   9.810   4.898   6.728 -1.7629  0.5487 -0.4026
  872MOL0     H20327   9.947   5.001   6.668 -0.8822  0.0675  1.5648
  872MOL0     H20328   9.857   4.721   6.580  0.5327 -1.6139 -0.3259
  872MOL0     H20329   9.998   4.793   6.512 -0.3435 -2.0995  0.4453
  872MOL0     H20330  10.026   4.608   6.683 -0.5410 -0.0577  2.0769
  872MOL0     H20331   9.926   4.703   6.790 -2.5141 -1.5926 -3.2148
  872MOL0     H20332  10.327   4.870   6.821  0.0133  1.1378 -0.0893
  872MOL0     H20333   9.585   5.238   6.737  0.4348 -1.7616  0.7486
  872MOL0     H20334   9.663   5.525   6.887  2.7680 -0.3904 -1.0328
  872MOL0     H20335   9.574   5.384   6.914  1.0987 -1.4388  2.3568
  872MOL0     H20336   9.725   5.398   7.001  0.0543 -0.6150  0.3490
  873MOL0     O20337   5.654   7.105   5.387 -0.1959  0.5161  0.3918
  873MOL0     C20338   5.553   7.089   5.316 -0.7120  0.2471  0.2676
  873MOL0     O20339   5.424   7.087   5.363 -0.4972  0.1758  0.5881
  873MOL0     C20340   5.385   7.082   5.494  0.0608 -0.7333 -0.2473
  873MOL0     C20341   5.249   7.059   5.521 -0.3040  0.6391  0.4987
  873MOL0     C20342   5.193   7.047   5.649  0.1811 -0.1447  0.1381
  873MOL0     C20343   5.272   7.046   5.760 -0.0093 -0.6377 -0.0687
  873MOL0     O20344   5.228   7.042   5.891  0.0334  0.2427  0.5158
  873MOL0     C20345   5.094   7.077   5.936  0.7488  0.8723 -0.4734
  873MOL0     C20346   5.001   6.948   5.949  1.0095  0.7685  0.0860
  873MOL0     C20347   5.084   6.838   6.022  0.3598 -0.3301  0.3759
  873MOL0     C20348   5.093   6.857   6.173  0.1715 -0.7051  0.2616
  873MOL0     C20349   5.177   6.746   6.244  0.7451 -0.0549  0.2319
  873MOL0     C20350   5.197   6.786   6.391  0.5509  0.0980 -0.4523
  873MOL0     C20351   5.259   6.667   6.462 -0.7717 -0.3979  0.5232
  873MOL0     C20352   5.259   6.677   6.614  0.5959  0.2919 -0.4265
  873MOL0     N20353   5.339   6.789   6.659 -0.5422 -0.1726  0.4805
  873MOL0     C20354   5.476   6.790   6.679 -0.1525  0.1546 -0.2877
  873MOL0     C20355   5.502   6.852   6.803  0.2051  0.0995 -0.2113
  873MOL0     C20356   5.630   6.852   6.880  0.0387  0.1310 -0.2288
  873MOL0     C20357   5.672   6.994   6.915  0.0871 -0.1917  0.5674
  873MOL0     C20358   5.788   6.991   7.015  0.8030 -0.0965 -0.2107
  873MOL0     C20359   5.823   7.133   7.061  0.5569 -0.2438 -0.8442
  873MOL0     O20360   5.916   7.138   7.176 -0.0565  0.3595  0.1908
  873MOL0     C20361   6.044   7.092   7.162 -0.9070  0.3068 -0.2064
  873MOL0     C20362   6.110   7.072   7.037  0.2272 -0.5745  0.2996
  873MOL0     C20363   6.230   7.005   7.028  0.6113  1.1803  0.9374
  873MOL0     C20364   6.277   6.972   6.895  0.2019  0.8439  0.8772
  873MOL0     C20365   6.311   6.987   7.144 -0.1074 -0.1957 -0.1646
  873MOL0     C20366   6.451   6.928   7.154 -0.2113  0.0240 -0.0145
  873MOL0     O20367   6.500   6.856   7.046  0.3709 -0.0902  0.6329
  873MOL0     C20368   6.616   6.787   7.058  0.2809  0.1297 -0.2353
  873MOL0     C20369   6.735   6.855   7.052 -0.6524  0.1627 -0.3408
  873MOL0     C20370   6.855   6.777   7.051  0.3446 -0.1420 -0.1960
  873MOL0     C20371   6.858   6.639   7.061 -0.1101 -0.2475  0.6921
  873MOL0     O20372   6.982   6.573   7.071 -0.0905 -0.3198 -0.1840
  873MOL0     C20373   7.007   6.440   7.027 -0.3345  0.4210 -0.3809
  873MOL0     C20374   7.103   6.435   6.908  0.0750 -0.3874 -0.5517
  873MOL0     C20375   7.222   6.528   6.923  0.4529  0.0433  0.8065
  873MOL0     C20376   7.305   6.512   7.048 -0.1002  0.2276 -0.0073
  873MOL0     C20377   7.372   6.640   7.094 -0.5938  0.0604  0.9340
  873MOL0     C20378   7.471   6.691   6.983  0.2649 -0.3191 -0.1483
  873MOL0     C20379   7.538   6.827   7.015  0.4306 -0.2916  1.1731
  873MOL0     C20380   7.459   6.951   6.953  0.6660  0.3210  0.8383
  873MOL0    Cl20381   7.451   6.952   6.771 -0.4556 -0.1806  0.0371
  873MOL0     C20382   6.734   6.579   7.053  0.1316  0.0350  0.0258
  873MOL0     C20383   6.614   6.652   7.056 -0.5328  0.4157 -0.0981
  873MOL0     O20384   6.518   6.959   7.242 -0.3095  0.5681 -0.4778
  873MOL0     C20385   6.247   7.021   7.272  0.3910  0.5277 -0.0139
  873MOL0     C20386   6.113   7.070   7.275 -0.3547  1.5576  0.1901
  873MOL0     N20387   5.374   6.898   6.845  0.4160  0.3332 -1.1013
  873MOL0     N20388   5.283   6.869   6.759 -0.0500  0.1991  0.5524
  873MOL0     C20389   5.407   7.076   5.746 -1.0119  0.1609  0.8116
  873MOL0     C20390   5.464   7.090   5.616 -0.0615  0.0870  0.5814
  873MOL0     C20391   5.574   7.047   5.174 -0.7126 -0.6213 -0.4434
  873MOL0     C20392   5.464   6.983   5.107  0.0004 -0.0338 -1.5034
  873MOL0     C20393   5.472   6.963   4.974 -0.1944 -0.0284  0.5732
  873MOL0     C20394   5.582   7.007   4.897 -0.7321 -0.9954 -0.3199
  873MOL0     O20395   5.574   7.016   4.756  0.5823  0.2875 -0.7155
  873MOL0     C20396   5.698   7.022   4.687 -0.1312 -0.2635 -0.5643
  873MOL0     C20397   5.676   6.962   4.545 -0.1083  0.5498 -0.5612
  873MOL0     C20398   5.605   7.049   4.442  0.1877 -0.1364  0.7292
  873MOL0     C20399   5.593   6.993   4.298 -0.0850 -0.2045 -1.0009
  873MOL0     C20400   5.537   7.103   4.216 -0.3128  0.9318  0.9869
  873MOL0     C20401   5.491   7.196   4.143  0.6962  0.0648  0.5510
  873MOL0     C20402   5.693   7.049   4.967 -0.5047 -0.0369  1.2490
  873MOL0     C20403   5.695   7.076   5.101 -0.1022 -0.3460 -0.3628
  873MOL0     C20404   5.824   7.134   5.159 -0.1528 -0.4535 -0.1360
  873MOL0     H20405   5.182   7.045   5.437  1.1412  0.8961 -0.7601
  873MOL0     H20406   5.086   7.030   5.655 -0.3186  1.4520 -2.7224
  873MOL0     H20407   5.051   7.148   5.865 -0.6568 -0.2930 -0.8404
  873MOL0     H20408   5.103   7.127   6.033 -0.0109 -0.9819  0.6073
  873MOL0     H20409   4.911   6.975   6.005  0.5423 -4.7455  2.7224
  873MOL0     H20410   4.970   6.921   5.847 -0.2652 -1.2857  0.9609
  873MOL0     H20411   5.037   6.741   6.005  0.1745 -0.1513 -0.1677
  873MOL0     H20412   5.188   6.833   5.987  0.5919  1.6220  0.6777
  873MOL0     H20413   5.144   6.954   6.178 -0.2151 -0.5272  0.9823
  873MOL0     H20414   4.996   6.866   6.224 -1.0006  1.4047 -2.1144
  873MOL0     H20415   5.272   6.732   6.190 -1.1733 -1.1029 -3.1713
  873MOL0     H20416   5.122   6.653   6.230  1.6492 -0.2636 -2.4661
  873MOL0     H20417   5.254   6.879   6.402 -2.0287  1.5914  1.4831
  873MOL0     H20418   5.101   6.805   6.439 -1.0987  1.4923 -3.9750
  873MOL0     H20419   5.364   6.655   6.436 -0.6141 -1.7825  1.6889
  873MOL0     H20420   5.208   6.578   6.424  0.4696 -1.2274  0.7785
  873MOL0     H20421   5.164   6.682   6.668 -1.1828 -0.3324 -3.2998
  873MOL0     H20422   5.313   6.589   6.650  1.2903  1.7008  2.2640
  873MOL0     H20423   5.554   6.753   6.613  0.0400  1.1313 -0.6318
  873MOL0     H20424   5.716   6.797   6.841  1.2856 -1.7979  4.4995
  873MOL0     H20425   5.598   6.798   6.970 -2.2447 -0.5515 -1.3886
  873MOL0     H20426   5.715   7.036   6.823  0.4744  1.8749  1.6189
  873MOL0     H20427   5.587   7.047   6.959  0.6399 -0.4526  1.9984
  873MOL0     H20428   5.749   6.933   7.099  0.2437 -0.5249 -0.7579
  873MOL0     H20429   5.878   6.946   6.974  0.3127 -0.9741 -0.3613
  873MOL0     H20430   5.858   7.189   6.974 -0.7922 -0.6658 -1.6957
  873MOL0     H20431   5.732   7.179   7.100  0.2439 -0.9430 -0.7389
  873MOL0     H20432   6.048   7.088   6.950 -1.5385 -2.5597  1.1149
  873MOL0     H20433   6.193   6.958   6.826  0.3743  0.7343  0.6869
  873MOL0     H20434   6.330   6.876   6.893 -3.0230 -1.0621 -0.3306
  873MOL0     H20435   6.337   7.058   6.864  2.0750  0.6284  3.5139
  873MOL0     H20436   6.731   6.964   7.048  0.6278  0.1980 -2.0908
  873MOL0     H20437   6.956   6.815   7.061  1.8113 -3.8874  0.9016
  873MOL0     H20438   7.042   6.369   7.102 -0.9869 -0.1223 -0.5799
  873MOL0     H20439   6.914   6.392   6.997  0.1559 -1.0252  0.3285
  873MOL0     H20440   7.148   6.336   6.892  0.3807 -0.2853 -0.3405
  873MOL0     H20441   7.043   6.457   6.819 -0.6233 -0.6827 -0.1579
  873MOL0     H20442   7.188   6.629   6.900  1.4349  0.2326  0.1505
  873MOL0     H20443   7.289   6.495   6.843 -0.3145  0.8242 -0.1834
  873MOL0     H20444   7.377   6.430   7.043  0.7920  1.0303 -0.6364
  873MOL0     H20445   7.241   6.477   7.129  0.3244  0.8754  0.6196
  873MOL0     H20446   7.294   6.712   7.121  0.7473  1.2348  1.7794
  873MOL0     H20447   7.429   6.623   7.186  0.5536  0.8917  0.4030
  873MOL0     H20448   7.419   6.707   6.888 -0.6474  1.1518  0.5600
  873MOL0     H20449   7.548   6.615   6.967  0.9668  0.4274 -0.4231
  873MOL0     H20450   7.634   6.829   6.964 -0.2917 -3.0272 -0.5270
  873MOL0     H20451   7.551   6.824   7.124  0.5483 -2.2107  1.1372
  873MOL0     H20452   7.503   7.047   6.980 -2.7035  1.7619  1.6694
  873MOL0     H20453   7.358   6.951   6.994  1.0326  3.0488  1.9741
  873MOL0     H20454   6.726   6.471   7.047 -2.0645  0.2272 -2.2101
  873MOL0     H20455   6.514   6.612   7.044 -0.7897  1.2163 -0.6625
  873MOL0     H20456   6.305   7.009   7.363  1.5633  0.5119 -0.7373
  873MOL0     H20457   6.073   7.104   7.370 -1.2582  0.5631  0.1941
  873MOL0     H20458   5.469   7.081   5.834  1.6353 -1.8914 -0.8085
  873MOL0     H20459   5.569   7.114   5.600 -0.0063 -0.9196 -0.7504
  873MOL0     H20460   5.378   6.951   5.166  0.2581  2.6555  0.5148
  873MOL0     H20461   5.385   6.921   4.925 -0.0729  1.1707 -0.7604
  873MOL0     H20462   5.735   7.125   4.679  2.1932 -1.1189 -1.9087
  873MOL0     H20463   5.774   6.966   4.743  1.3954  2.1977 -0.0063
  873MOL0     H20464   5.611   6.874   4.548 -0.4205  0.4788 -4.4687
  873MOL0     H20465   5.777   6.939   4.509  0.2257  0.3391  0.4819
  873MOL0     H20466   5.508   7.078   4.483 -1.1404 -2.7155 -0.3230
  873MOL0     H20467   5.665   7.140   4.435  1.2769 -0.9311 -0.8304
  873MOL0     H20468   5.523   6.910   4.295 -1.1331  0.5901  0.1567
  873MOL0     H20469   5.690   6.971   4.253  0.6523  2.7077 -1.0692
  873MOL0     H20470   5.439   7.270   4.085  0.5698 -0.0363  0.5357
  873MOL0     H20471   5.785   7.063   4.913 -0.2936 -1.5847  1.1575
  873MOL0     H20472   5.874   7.057   5.219  1.0145  0.9773  0.8057
  873MOL0     H20473   5.901   7.166   5.090  1.6447  2.3238  2.8553
  873MOL0     H20474   5.801   7.226   5.214 -1.9643 -0.8498 -0.1658
  874MOL0     O20475   1.435   6.779   6.359  0.3613 -0.5820 -0.7456
  874MOL0     C20476   1.392   6.891   6.336 -0.0264 -0.6392  0.2716
  874MOL0     O20477   1.457   6.995   6.290  0.3771 -0.0265  0.2304
  874MOL0     C20478   1.594   7.007   6.277  0.1865 -0.7392  0.3528
  874MOL0     C20479   1.677   6.917   6.201  0.0352 -0.2980 -0.5742
  874MOL0     C20480   1.804   6.947   6.154 -0.7435  1.3215 -0.3446
  874MOL0     C20481   1.859   7.070   6.181 -0.1930  0.0120 -0.4234
  874MOL0     O20482   1.978   7.122   6.141  0.1470 -0.7703 -0.2436
  874MOL0     C20483   2.063   7.051   6.050  0.4550  0.2518  0.1557
  874MOL0     C20484   2.164   7.148   5.981 -0.2446  0.5825 -0.0551
  874MOL0     C20485   2.099   7.277   5.920 -0.6007  0.5448  0.4579
  874MOL0     C20486   2.201   7.360   5.840  0.4775 -0.4228  0.0343
  874MOL0     C20487   2.173   7.345   5.694 -0.7439 -0.5519  0.5777
  874MOL0     C20488   2.253   7.456   5.614 -0.2192 -0.8074  0.1716
  874MOL0     C20489   2.395   7.424   5.594 -0.0125  0.0895  0.3488
  874MOL0     C20490   2.460   7.560   5.548 -0.0424 -0.2061  0.2685
  874MOL0     N20491   2.573   7.536   5.456 -0.9050 -0.5089  0.1068
  874MOL0     C20492   2.573   7.549   5.319  0.7484  0.3140 -0.0610
  874MOL0     C20493   2.699   7.574   5.284 -0.0100 -0.3634  0.1003
  874MOL0     C20494   2.733   7.605   5.137  0.2692 -0.2848 -0.3949
  874MOL0     C20495   2.837   7.500   5.079  0.2112  0.6022 -0.0274
  874MOL0     C20496   2.873   7.530   4.934 -0.5145  1.0967 -0.5279
  874MOL0     C20497   2.913   7.406   4.841  0.4513 -0.2308  0.3695
  874MOL0     O20498   3.052   7.356   4.866  0.2395 -0.0365 -0.0301
  874MOL0     C20499   3.158   7.394   4.783  0.0423 -1.0314 -1.2285
  874MOL0     C20500   3.158   7.488   4.678 -0.8298 -0.1621 -0.0078
  874MOL0     C20501   3.279   7.522   4.608  0.0901  0.3668  0.3588
  874MOL0     C20502   3.276   7.631   4.500  0.2615 -0.2614  0.6481
  874MOL0     C20503   3.404   7.453   4.630  0.0486 -0.2718 -0.7346
  874MOL0     C20504   3.533   7.476   4.566  0.1930  0.1678  0.4715
  874MOL0     O20505   3.644   7.432   4.642 -0.4160 -0.1236  0.3036
  874MOL0     C20506   3.767   7.468   4.597 -0.6994  1.2260  0.2593
  874MOL0     C20507   3.817   7.431   4.473  0.0323  0.0342 -0.5033
  874MOL0     C20508   3.955   7.448   4.444  0.3868  0.0070  0.0120
  874MOL0     C20509   4.044   7.499   4.551  0.7182 -0.4648 -0.5648
  874MOL0     O20510   4.171   7.531   4.526  0.8286 -1.2662 -0.0951
  874MOL0     C20511   4.179   7.666   4.447  0.2332  1.4558 -0.4612
  874MOL0     C20512   4.312   7.724   4.463 -0.4301 -0.3871  0.0729
  874MOL0     C20513   4.351   7.794   4.594 -0.7599  0.7902 -0.2258
  874MOL0     C20514   4.458   7.906   4.574 -0.9991 -0.5471  0.2445
  874MOL0     C20515   4.600   7.868   4.504  0.2635 -0.1087 -0.3006
  874MOL0     C20516   4.678   7.990   4.441 -0.4703 -1.0621  0.1134
  874MOL0     C20517   4.802   7.947   4.364  0.3560  0.3493  0.7031
  874MOL0     C20518   4.919   7.888   4.456  0.5018  0.0860  0.3030
  874MOL0    Cl20519   5.053   7.820   4.345  0.1410  0.1788 -0.0590
  874MOL0     C20520   3.992   7.537   4.679  0.2440  0.0085  0.1256
  874MOL0     C20521   3.856   7.515   4.701 -0.2047  0.0680  0.0874
  874MOL0     O20522   3.542   7.543   4.459 -0.4063 -1.0193 -0.0828
  874MOL0     C20523   3.401   7.363   4.735  0.6310  0.2654 -0.3193
  874MOL0     C20524   3.280   7.333   4.810  0.1658  0.1456 -0.5585
  874MOL0     N20525   2.782   7.561   5.400  0.1826 -0.3607 -0.5563
  874MOL0     N20526   2.708   7.546   5.504 -0.4737 -0.8494 -0.4910
  874MOL0     C20527   1.781   7.159   6.255  0.1778 -0.3175  0.2587
  874MOL0     C20528   1.649   7.130   6.298 -0.2444 -0.9468  0.4350
  874MOL0     C20529   1.243   6.902   6.349 -0.1617  0.5205 -0.5338
  874MOL0     C20530   1.180   6.987   6.256 -0.4937  0.8767  0.1074
  874MOL0     C20531   1.039   7.002   6.258  0.0390 -0.5319 -0.0031
  874MOL0     C20532   0.963   6.925   6.342  0.3301  0.0693  0.5820
  874MOL0     O20533   0.828   6.960   6.343  0.0881 -0.0131 -0.0448
  874MOL0     C20534   0.757   6.922   6.460  0.1868 -0.4549  0.0794
  874MOL0     C20535   0.629   6.996   6.490 -0.2420 -0.0575 -0.8905
  874MOL0     C20536   0.521   6.960   6.393 -0.6293  0.0897 -0.3448
  874MOL0     C20537   0.378   6.995   6.432  0.8163  0.4347 -0.1543
  874MOL0     C20538   0.311   6.905   6.536 -0.5385 -0.2164  0.7004
  874MOL0     C20539   0.255   6.829   6.612 -0.1718 -0.0155 -0.1875
  874MOL0     C20540   1.025   6.843   6.436 -0.2272  0.0180  0.0406
  874MOL0     C20541   1.161   6.830   6.445  0.2268 -0.5343  0.4571
  874MOL0     C20542   1.229   6.750   6.552  0.5065  0.1343  0.2949
  874MOL0     H20543   1.639   6.820   6.170  0.8421 -0.7215 -0.2582
  874MOL0     H20544   1.855   6.867   6.102 -0.7212  0.9619  0.2226
  874MOL0     H20545   2.005   7.003   5.970 -0.1688 -0.6876  1.1376
  874MOL0     H20546   2.122   6.973   6.100 -0.3510  0.3471  1.3172
  874MOL0     H20547   2.237   7.180   6.056 -1.6188  1.0589  1.1446
  874MOL0     H20548   2.214   7.094   5.901 -2.2920 -1.4673 -0.0700
  874MOL0     H20549   2.015   7.232   5.866  1.2916 -1.6103 -0.8758
  874MOL0     H20550   2.064   7.337   6.004 -2.7587 -0.9830  0.7153
  874MOL0     H20551   2.195   7.465   5.868 -0.0616  0.4784 -3.0426
  874MOL0     H20552   2.305   7.327   5.854  0.8017 -0.4929 -2.1350
  874MOL0     H20553   2.066   7.366   5.682 -0.5469  2.6706  3.1881
  874MOL0     H20554   2.206   7.244   5.670 -0.1524 -0.4725  1.0566
  874MOL0     H20555   2.202   7.460   5.517  0.7296  0.6051 -0.2979
  874MOL0     H20556   2.236   7.547   5.671 -1.7003 -1.2983  0.5682
  874MOL0     H20557   2.412   7.341   5.525  0.0597  0.4850 -0.1156
  874MOL0     H20558   2.445   7.391   5.686  2.2508  0.8371 -0.5314
  874MOL0     H20559   2.389   7.625   5.496  2.0761  1.5317 -0.6021
  874MOL0     H20560   2.489   7.623   5.632 -2.0062 -0.1201  0.9214
  874MOL0     H20561   2.485   7.544   5.256  0.0746 -0.1057  0.8874
  874MOL0     H20562   2.777   7.705   5.134 -1.5400  0.6789  1.9076
  874MOL0     H20563   2.642   7.602   5.075  0.5363 -1.5550 -0.7436
  874MOL0     H20564   2.921   7.501   5.149 -0.3334  1.0371  0.6333
  874MOL0     H20565   2.787   7.403   5.085  0.0613  0.6666 -0.2102
  874MOL0     H20566   2.786   7.582   4.893 -0.2854  0.7041 -1.5268
  874MOL0     H20567   2.953   7.604   4.926 -1.6157  2.5628  1.1697
  874MOL0     H20568   2.843   7.322   4.850  2.3055 -1.6764  2.0706
  874MOL0     H20569   2.906   7.449   4.740  0.9562 -1.1081 -0.0472
  874MOL0     H20570   3.070   7.549   4.662 -1.9548 -1.2479  1.7501
  874MOL0     H20571   3.171   7.650   4.476  0.5965 -1.4708 -2.0770
  874MOL0     H20572   3.314   7.607   4.401 -3.2966 -2.4747 -0.3358
  874MOL0     H20573   3.326   7.721   4.539  0.7881  1.2399 -3.0257
  874MOL0     H20574   3.750   7.394   4.395  1.0665 -0.2820 -1.2648
  874MOL0     H20575   3.986   7.425   4.342  2.1008 -2.2684  0.9594
  874MOL0     H20576   4.152   7.650   4.342 -2.8914  2.7556  0.0226
  874MOL0     H20577   4.102   7.730   4.490 -1.4215 -1.3864  1.0858
  874MOL0     H20578   4.382   7.641   4.452  1.5597  0.5683  3.8994
  874MOL0     H20579   4.329   7.794   4.380 -0.6282  0.7384  0.9554
  874MOL0     H20580   4.395   7.721   4.662  1.4432  1.1282 -1.2157
  874MOL0     H20581   4.270   7.835   4.655  0.4970  1.1978  1.2216
  874MOL0     H20582   4.477   7.956   4.669  1.2961  0.9355 -0.8915
  874MOL0     H20583   4.418   7.981   4.504  0.9489 -1.2252 -1.6997
  874MOL0     H20584   4.670   7.827   4.577 -1.1091 -1.5441  0.2765
  874MOL0     H20585   4.582   7.789   4.430  0.7502 -1.4353  0.9480
  874MOL0     H20586   4.721   8.056   4.516  1.7787 -1.1651 -1.0018
  874MOL0     H20587   4.609   8.046   4.378 -1.6426 -1.8323  0.6787
  874MOL0     H20588   4.846   8.029   4.307 -0.3664 -0.1193 -0.5693
  874MOL0     H20589   4.770   7.865   4.299 -3.5096  1.5607  0.8459
  874MOL0     H20590   4.883   7.806   4.519  0.1334  0.1407  0.1694
  874MOL0     H20591   4.958   7.971   4.515  0.8158 -0.1571  0.4371
  874MOL0     H20592   4.054   7.578   4.758 -1.0912 -0.6464  1.5811
  874MOL0     H20593   3.810   7.545   4.795 -1.3106 -0.3545 -0.2968
  874MOL0     H20594   3.484   7.299   4.766  1.1092  0.5940 -0.9047
  874MOL0     H20595   3.296   7.255   4.884 -2.5965 -0.3168 -0.3217
  874MOL0     H20596   1.831   7.254   6.274  1.0445 -1.0485  1.7868
  874MOL0     H20597   1.587   7.210   6.337  0.8386  1.6539 -2.7101
  874MOL0     H20598   1.248   7.038   6.189 -0.5854  0.9468  0.0674
  874MOL0     H20599   0.985   7.066   6.189  1.8119 -1.0147 -1.9640
  874MOL0     H20600   0.745   6.813   6.461 -1.8358 -0.2667  1.5094
  874MOL0     H20601   0.817   6.934   6.551 -2.4264  0.8519  1.7479
  874MOL0     H20602   0.643   7.105   6.494 -0.3659 -0.0779  1.1321
  874MOL0     H20603   0.598   6.977   6.593  4.0236  0.2393  0.6634
  874MOL0     H20604   0.551   7.025   6.311  0.3855  1.4831  1.0857
  874MOL0     H20605   0.527   6.859   6.351 -0.9954  0.1710 -0.6045
  874MOL0     H20606   0.314   6.994   6.343  0.6025  1.8797 -0.0414
  874MOL0     H20607   0.366   7.101   6.457 -1.2468  0.0736  0.6099
  874MOL0     H20608   0.199   6.767   6.679 -1.0954  1.8951  0.8898
  874MOL0     H20609   0.964   6.789   6.508 -0.3287  0.4212  0.2626
  874MOL0     H20610   1.155   6.723   6.628  0.9740  1.3977  1.2599
  874MOL0     H20611   1.277   6.661   6.510  0.1057 -0.9553  2.0540
  874MOL0     H20612   1.301   6.815   6.603 -2.1839  2.7892  1.0107
  875MOL0     O20613   8.680   9.309   5.572  0.3499 -0.2777  0.1429
  875MOL0     C20614   8.725   9.218   5.638 -0.2212  0.1319  0.2478
  875MOL0     O20615   8.856   9.195   5.674 -0.1052 -0.0610  0.4125
  875MOL0     C20616   8.960   9.250   5.607 -0.6951  0.3421  0.4039
  875MOL0     C20617   8.950   9.299   5.476 -0.4681 -0.2500  0.1314
  875MOL0     C20618   9.058   9.359   5.400 -0.3364  0.5308 -0.5286
  875MOL0     C20619   9.181   9.368   5.470  0.5626 -0.6719 -0.1830
  875MOL0     O20620   9.284   9.415   5.401  0.1345 -0.3906  0.3301
  875MOL0     C20621   9.399   9.340   5.388 -0.0486  0.4171 -0.8576
  875MOL0     C20622   9.504   9.439   5.445 -0.5802  0.4043 -0.8061
  875MOL0     C20623   9.601   9.475   5.343 -0.8448 -0.5381  0.0547
  875MOL0     C20624   9.700   9.578   5.386 -0.7294 -0.8307 -0.4056
  875MOL0     C20625   9.784   9.628   5.272 -0.2105 -0.5536 -0.3501
  875MOL0     C20626   9.927   9.683   5.302 -0.1714 -0.5291 -0.7819
  875MOL0     C20627  10.002   9.747   5.189  0.0699 -0.3810  0.2931
  875MOL0     C20628  10.159   9.759   5.206  0.5445  0.5882  0.3339
  875MOL0     N20629  10.209   9.773   5.071 -0.2978  0.7225 -0.0618
  875MOL0     C20630  10.183   9.876   4.983 -0.5484 -1.3895  0.5920
  875MOL0     C20631  10.246   9.847   4.859  0.4454 -0.1952  0.2036
  875MOL0     C20632  10.252   9.940   4.737  0.0158  0.2413 -0.6126
  875MOL0     C20633  10.338  10.058   4.756  0.1225 -0.2332 -0.3755
  875MOL0     C20634  10.344  10.137   4.626  0.4372 -0.6479 -0.5470
  875MOL0     C20635  10.452  10.081   4.531  0.3939 -0.5423 -0.3059
  875MOL0     O20636  10.576  10.147   4.562 -0.1763  0.1442  1.0219
  875MOL0     C20637  10.676  10.139   4.466 -0.4120  0.2342  0.7032
  875MOL0     C20638  10.672  10.061   4.353  0.3206 -0.0689  0.4835
  875MOL0     C20639  10.784  10.050   4.270 -0.3398  0.2049 -0.3666
  875MOL0     C20640  10.754   9.959   4.156 -0.3738  0.7076  0.2304
  875MOL0     C20641  10.904  10.123   4.289 -0.1522 -0.3965  1.0502
  875MOL0     C20642  11.024  10.108   4.203  0.5469 -0.9933  0.5039
  875MOL0     O20643  11.135  10.156   4.254  0.0047 -0.5531 -0.7761
  875MOL0     C20644  11.251  10.155   4.189 -0.4255 -0.0419 -0.1852
  875MOL0     C20645  11.338  10.263   4.219  0.2201  0.2979 -0.0875
  875MOL0     C20646  11.465  10.261   4.166 -0.2819  0.4873 -0.5983
  875MOL0     C20647  11.516  10.161   4.077  0.4246  0.0266 -0.0376
  875MOL0     O20648  11.636  10.154   4.009 -0.2503 -0.2604 -0.5050
  875MOL0     C20649  11.692  10.283   3.955 -0.1284  0.2723 -0.1795
  875MOL0     C20650  11.845  10.281   3.920  0.0621 -0.2235  0.7618
  875MOL0     C20651  11.925  10.199   4.018 -0.6751 -0.5831  0.8534
  875MOL0     C20652  12.080  10.216   3.985 -0.3564  0.2241 -0.6490
  875MOL0     C20653  12.169  10.169   4.104 -0.9117  0.0008  0.3064
  875MOL0     C20654  12.326  10.199   4.082 -0.2415  0.4805 -0.1286
  875MOL0     C20655  12.367  10.128   3.958  0.3830  0.0256  0.5317
  875MOL0     C20656  12.521  10.124   3.936 -0.0543  0.5235  0.1284
  875MOL0    Cl20657  12.595  10.280   3.958  0.1580  0.3313 -0.1869
  875MOL0     C20658  11.426  10.054   4.056  0.2601 -0.0310  0.5387
  875MOL0     C20659  11.297  10.048   4.110 -0.0083  0.0458 -0.2954
  875MOL0     O20660  11.014  10.063   4.086  0.9568 -0.1610 -0.6957
  875MOL0     C20661  10.905  10.206   4.406  0.1482  0.0733  0.3897
  875MOL0     C20662  10.794  10.213   4.490 -0.2254  0.4326  0.7086
  875MOL0     N20663  10.301   9.715   4.879  0.0481 -0.0710  0.7669
  875MOL0     N20664  10.275   9.681   4.999 -0.3427 -0.6811 -0.1414
  875MOL0     C20665   9.191   9.328   5.602  0.6483  0.1565  0.0423
  875MOL0     C20666   9.077   9.282   5.673  0.3744 -0.7419 -0.8030
  875MOL0     C20667   8.626   9.129   5.688 -0.2467 -0.3571 -0.5346
  875MOL0     C20668   8.575   9.027   5.611  0.2429  0.6470  0.4474
  875MOL0     C20669   8.474   8.940   5.654 -0.0964 -0.2337 -0.5005
  875MOL0     C20670   8.410   8.974   5.774 -0.6342  0.3003  0.0399
  875MOL0     O20671   8.296   8.901   5.806  0.4057  0.1488  0.4391
  875MOL0     C20672   8.225   8.901   5.929 -0.9500  0.0760 -0.1963
  875MOL0     C20673   8.122   8.778   5.934 -0.0906  0.2125 -0.4919
  875MOL0     C20674   8.186   8.638   5.928 -0.3902 -0.1171 -0.7758
  875MOL0     C20675   8.077   8.533   5.942  0.3974 -0.1791 -0.1215
  875MOL0     C20676   8.136   8.398   5.944 -0.7314 -0.4755  0.5711
  875MOL0     C20677   8.203   8.307   5.922 -0.9601  0.4682 -0.7042
  875MOL0     C20678   8.467   9.065   5.866  0.7759  0.0649  0.1449
  875MOL0     C20679   8.577   9.142   5.819  0.2459  0.2884  0.1160
  875MOL0     C20680   8.630   9.257   5.907 -0.4450  0.6740 -0.2888
  875MOL0     H20681   8.868   9.274   5.410 -0.3339  1.4066 -0.7324
  875MOL0     H20682   9.055   9.398   5.299 -0.1962  0.0964 -0.7039
  875MOL0     H20683   9.416   9.301   5.287 -1.7710 -1.6255 -0.4244
  875MOL0     H20684   9.389   9.244   5.440 -0.9419  1.0178  0.1005
  875MOL0     H20685   9.460   9.525   5.496 -3.1547 -0.9030 -0.6700
  875MOL0     H20686   9.557   9.389   5.527 -1.9504  1.7421  0.9639
  875MOL0     H20687   9.660   9.387   5.318  3.6644  0.5119  5.1650
  875MOL0     H20688   9.553   9.507   5.250 -2.0075  0.5577  0.9967
  875MOL0     H20689   9.662   9.674   5.422  2.3973  0.4282 -0.1663
  875MOL0     H20690   9.761   9.535   5.466  0.9206 -0.1155 -1.2437
  875MOL0     H20691   9.729   9.709   5.224  0.8333 -0.7551 -1.9731
  875MOL0     H20692   9.801   9.551   5.196 -1.5523 -1.1567 -0.0579
  875MOL0     H20693   9.928   9.754   5.385  0.5856 -0.3201 -0.9666
  875MOL0     H20694   9.989   9.597   5.329 -2.0733 -1.8453 -0.4017
  875MOL0     H20695   9.948   9.837   5.159 -0.2163 -1.2873 -2.1786
  875MOL0     H20696   9.988   9.678   5.105  1.5589  0.5134 -0.7610
  875MOL0     H20697  10.187   9.837   5.277  0.3017 -0.3506  1.4807
  875MOL0     H20698  10.206   9.672   5.251  0.5451  1.4178  1.9833
  875MOL0     H20699  10.134   9.968   5.012 -0.9663 -1.6512  0.7267
  875MOL0     H20700  10.153   9.978   4.710  0.6744  2.2081 -0.3875
  875MOL0     H20701  10.294   9.876   4.659  2.1362 -0.6253  1.1509
  875MOL0     H20702  10.291  10.112   4.838  2.1203  0.8936  0.0670
  875MOL0     H20703  10.440  10.025   4.778  1.2057  1.3089 -2.7237
  875MOL0     H20704  10.247  10.121   4.577 -0.0036  2.3183 -0.8391
  875MOL0     H20705  10.360  10.243   4.647 -0.6436 -0.5648 -0.1085
  875MOL0     H20706  10.459   9.972   4.538 -1.0428 -0.5101  3.5485
  875MOL0     H20707  10.426  10.092   4.425  0.4254  0.2879 -0.2296
  875MOL0     H20708  10.586   9.998   4.336 -0.9665  1.5573  0.7213
  875MOL0     H20709  10.735  10.024   4.069 -0.5232  0.8945  0.4009
  875MOL0     H20710  10.673   9.887   4.175  1.1927 -0.9763  0.7889
  875MOL0     H20711  10.839   9.895   4.131 -1.7167 -0.7260 -0.8822
  875MOL0     H20712  11.317  10.343   4.289  0.2198 -0.2629  0.5597
  875MOL0     H20713  11.536  10.341   4.180  2.3597 -1.9994  1.4015
  875MOL0     H20714  11.632  10.312   3.868  1.4173 -0.4843 -1.5658
  875MOL0     H20715  11.687  10.351   4.040  0.0049 -0.1946  0.2057
  875MOL0     H20716  11.852  10.232   3.823 -0.1354 -0.6510  0.9567
  875MOL0     H20717  11.881  10.383   3.905 -0.5799 -0.3129 -1.7083
  875MOL0     H20718  11.895  10.096   4.000  0.9131 -0.5570 -2.6794
  875MOL0     H20719  11.905  10.213   4.125  3.6976 -1.5856  1.9986
  875MOL0     H20720  12.098  10.322   3.965  0.7046 -0.3889 -3.3581
  875MOL0     H20721  12.111  10.179   3.887  2.7036  2.8542 -0.8571
  875MOL0     H20722  12.140  10.237   4.184 -0.1024  0.9813 -0.2142
  875MOL0     H20723  12.150  10.066   4.135 -0.2322 -0.7745 -1.6710
  875MOL0     H20724  12.390  10.169   4.166  2.2250  1.8946 -1.3942
  875MOL0     H20725  12.340  10.303   4.054 -0.1941  0.1198 -1.5071
  875MOL0     H20726  12.333  10.168   3.862  0.2433 -1.2293  0.0378
  875MOL0     H20727  12.345  10.021   3.962  1.0347 -0.1101  0.7105
  875MOL0     H20728  12.532  10.088   3.833  1.1659  2.3448 -0.4242
  875MOL0     H20729  12.556  10.049   4.007  1.1807  1.2233  0.2903
  875MOL0     H20730  11.471   9.976   3.994 -0.3397 -0.1796  0.2764
  875MOL0     H20731  11.240   9.957   4.094 -0.5489  0.2740  0.2485
  875MOL0     H20732  10.993  10.260   4.439 -0.5055  0.8800  0.8336
  875MOL0     H20733  10.805  10.272   4.581 -0.6002  0.6551  0.6118
  875MOL0     H20734   9.281   9.334   5.662 -0.5430 -1.1798  2.0733
  875MOL0     H20735   9.102   9.253   5.775 -1.3388 -0.6893 -0.3274
  875MOL0     H20736   8.613   9.005   5.512 -0.8514 -2.6161  0.6295
  875MOL0     H20737   8.418   8.869   5.594 -1.2753  0.8477 -0.7272
  875MOL0     H20738   8.298   8.881   6.008 -3.6092 -1.5507  2.0464
  875MOL0     H20739   8.173   8.996   5.943 -0.3680  0.3244  0.3362
  875MOL0     H20740   8.045   8.783   5.857 -2.5127 -0.2347  1.7553
  875MOL0     H20741   8.068   8.787   6.029 -3.3303 -0.2550 -2.1307
  875MOL0     H20742   8.254   8.633   5.843  0.9271  1.3974  0.1330
  875MOL0     H20743   8.253   8.620   6.013  2.2279  2.8342 -2.0275
  875MOL0     H20744   8.003   8.539   5.862  0.2593  1.5057  0.1047
  875MOL0     H20745   8.028   8.554   6.037 -1.4535  1.9882 -1.4550
  875MOL0     H20746   8.275   8.232   5.896 -2.2398  0.2629 -4.1723
  875MOL0     H20747   8.419   9.076   5.963  0.5438 -0.8629  0.1409
  875MOL0     H20748   8.572   9.348   5.888  2.0605  2.4460  0.0306
  875MOL0     H20749   8.627   9.230   6.013 -0.0763  2.7239  0.2830
  875MOL0     H20750   8.734   9.282   5.886  0.1842 -1.1399  0.4347
  876MOL0     O20751   8.792   8.942   7.407 -0.1742 -0.2046  0.2027
  876MOL0     C20752   8.725   8.894   7.499 -0.3413 -0.6770  0.4638
  876MOL0     O20753   8.776   8.809   7.592  0.2981  0.9630  0.3990
  876MOL0     C20754   8.886   8.735   7.573  0.6397  0.3392  0.7082
  876MOL0     C20755   8.955   8.710   7.456  0.1090  0.6210  0.7999
  876MOL0     C20756   9.082   8.648   7.446 -0.2427  0.2039  0.5567
  876MOL0     C20757   9.141   8.592   7.562 -0.9133 -0.2415 -0.5198
  876MOL0     O20758   9.274   8.540   7.557  0.2952  0.4728 -0.3525
  876MOL0     C20759   9.297   8.447   7.451  0.2403  0.4117  1.0173
  876MOL0     C20760   9.419   8.498   7.368  0.8247 -0.8506  0.4190
  876MOL0     C20761   9.551   8.504   7.458  0.4039 -0.2528  0.0408
  876MOL0     C20762   9.619   8.373   7.467  0.2153  0.4717  0.4250
  876MOL0     C20763   9.759   8.384   7.533 -0.2993  0.0674  0.3046
  876MOL0     C20764   9.844   8.262   7.488 -0.1403  0.9871 -0.5750
  876MOL0     C20765   9.825   8.150   7.590  0.7548  0.4917  0.8292
  876MOL0     C20766   9.918   8.029   7.573 -0.2996 -0.1715 -0.4531
  876MOL0     N20767   9.904   7.939   7.686  0.3940  0.0035  0.6443
  876MOL0     C20768   9.970   7.968   7.798 -0.4547 -0.6447  0.3528
  876MOL0     C20769   9.966   7.857   7.875  0.8109 -0.1361  0.0213
  876MOL0     C20770  10.011   7.834   8.020 -0.4573  0.1629 -0.7166
  876MOL0     C20771  10.140   7.916   8.059 -0.4971  1.1300  0.9151
  876MOL0     C20772  10.168   7.900   8.209 -0.3058  1.1375  1.4938
  876MOL0     C20773  10.173   7.754   8.259 -0.3499  0.1026  0.4274
  876MOL0     O20774  10.255   7.669   8.191 -0.2698  0.4630 -0.1456
  876MOL0     C20775  10.374   7.623   8.248  1.1985 -1.2013 -0.5630
  876MOL0     C20776  10.459   7.544   8.171  0.0767  0.3055 -0.1888
  876MOL0     C20777  10.591   7.510   8.207 -0.2518  0.6499  0.5480
  876MOL0     C20778  10.665   7.405   8.122 -0.1363  0.0247  0.5483
  876MOL0     C20779  10.647   7.564   8.328  0.0375 -0.5641  0.9425
  876MOL0     C20780  10.784   7.536   8.377  0.2354  0.3944 -0.4861
  876MOL0     O20781  10.833   7.624   8.465 -0.8637 -0.0508 -0.8933
  876MOL0     C20782  10.965   7.614   8.492 -0.0320  1.0470 -0.4396
  876MOL0     C20783  11.057   7.709   8.447 -0.0695  0.8881 -0.0494
  876MOL0     C20784  11.190   7.710   8.484 -0.3634 -1.4415 -0.1315
  876MOL0     C20785  11.236   7.621   8.582  0.1536 -0.6213 -0.4131
  876MOL0     O20786  11.366   7.644   8.627  0.2111  0.1105 -0.2056
  876MOL0     C20787  11.418   7.550   8.732 -0.7154  0.5283 -0.3641
  876MOL0     C20788  11.362   7.571   8.872  0.2975 -0.0937  0.2711
  876MOL0     C20789  11.438   7.496   8.980  0.0039  0.6117 -0.2519
  876MOL0     C20790  11.408   7.342   8.987  0.6338  1.2994 -0.0780
  876MOL0     C20791  11.461   7.277   9.107  0.3713 -0.0417 -0.1803
  876MOL0     C20792  11.406   7.128   9.104  0.5706 -0.4028 -0.8510
  876MOL0     C20793  11.467   7.059   9.228  0.4141  0.0176 -0.0636
  876MOL0     C20794  11.441   6.906   9.223 -0.6329  0.0048  0.1576
  876MOL0    Cl20795  11.270   6.875   9.235 -0.0530 -0.1420 -0.0361
  876MOL0     C20796  11.149   7.519   8.625 -0.3286 -0.1667 -0.6788
  876MOL0     C20797  11.012   7.522   8.594 -0.0105 -0.0953  1.1430
  876MOL0     O20798  10.854   7.448   8.327  0.0488 -0.2129  0.2694
  876MOL0     C20799  10.568   7.661   8.391  0.4180  0.3995  0.2340
  876MOL0     C20800  10.437   7.694   8.350  0.2063  0.5249 -0.3270
  876MOL0     N20801   9.906   7.753   7.802 -0.2907 -0.3603  0.3534
  876MOL0     N20802   9.868   7.807   7.690  0.5299  0.0143  0.2933
  876MOL0     C20803   9.065   8.594   7.675  0.6311  0.5467  0.5063
  876MOL0     C20804   8.938   8.662   7.685 -0.2928  0.6312 -0.4834
  876MOL0     C20805   8.585   8.944   7.515 -0.1601 -0.1408 -0.7357
  876MOL0     C20806   8.509   8.949   7.405 -0.3920 -0.0408 -0.1116
  876MOL0     C20807   8.380   8.986   7.415 -0.3808  0.0179 -0.5000
  876MOL0     C20808   8.318   9.008   7.539  0.2828  0.1681 -0.3220
  876MOL0     O20809   8.178   9.022   7.544 -0.2007  0.2913 -0.1902
  876MOL0     C20810   8.115   9.104   7.642  0.1425  0.1095  0.3092
  876MOL0     C20811   7.974   9.149   7.600  0.6728 -0.0994  0.5932
  876MOL0     C20812   7.902   9.237   7.700  0.6935 -0.4058 -0.4740
  876MOL0     C20813   7.987   9.348   7.753  1.0170 -0.7415  0.0079
  876MOL0     C20814   7.993   9.454   7.652  0.2499  0.2036 -0.4164
  876MOL0     C20815   7.973   9.542   7.566  0.3000 -0.0045 -0.7895
  876MOL0     C20816   8.403   9.006   7.648  0.0159  0.7622  0.3908
  876MOL0     C20817   8.536   8.985   7.641 -0.3781  0.1050  0.1734
  876MOL0     C20818   8.621   9.000   7.765 -0.1213 -1.1146 -0.0214
  876MOL0     H20819   8.921   8.743   7.359  0.8092  1.4589  0.8291
  876MOL0     H20820   9.125   8.642   7.347 -0.7599 -0.6398  0.3694
  876MOL0     H20821   9.206   8.427   7.394 -0.8310 -0.5789  2.9503
  876MOL0     H20822   9.313   8.350   7.500 -0.8926 -1.2764 -1.7204
  876MOL0     H20823   9.438   8.442   7.276  2.7788  3.1295 -1.8727
  876MOL0     H20824   9.399   8.599   7.331 -0.3212 -0.3495  2.3165
  876MOL0     H20825   9.614   8.578   7.408 -2.4779  2.3949  0.0758
  876MOL0     H20826   9.516   8.540   7.555 -1.8054 -1.5505 -0.2149
  876MOL0     H20827   9.564   8.305   7.533 -0.0920 -0.2123 -0.5164
  876MOL0     H20828   9.641   8.325   7.371  2.1152 -2.2048  2.0561
  876MOL0     H20829   9.763   8.407   7.640  0.0932  0.2340  0.2544
  876MOL0     H20830   9.815   8.467   7.488  0.3276 -0.7752 -0.4845
  876MOL0     H20831   9.815   8.219   7.392 -3.4000 -3.6917  2.1173
  876MOL0     H20832   9.951   8.288   7.480  0.3217 -0.5900  0.2187
  876MOL0     H20833   9.720   8.123   7.574  0.8163  1.5033 -1.6605
  876MOL0     H20834   9.829   8.192   7.691  0.3010 -1.1851  1.5900
  876MOL0     H20835   9.899   7.984   7.475  1.1606  2.6311 -2.1699
  876MOL0     H20836  10.020   8.068   7.565  0.1478 -0.5285  2.5974
  876MOL0     H20837  10.011   8.065   7.826  0.7156 -1.0131 -0.0353
  876MOL0     H20838  10.034   7.728   8.032  3.1695  0.8184 -0.7007
  876MOL0     H20839   9.936   7.852   8.098  0.2249 -0.4361  0.1041
  876MOL0     H20840  10.222   7.874   8.000 -2.3293 -1.2809 -0.0841
  876MOL0     H20841  10.116   8.021   8.039  0.5281  0.9400 -1.6809
  876MOL0     H20842  10.263   7.952   8.224  1.0833  0.0063 -2.1989
  876MOL0     H20843  10.088   7.956   8.259 -0.6638  1.8591  0.1514
  876MOL0     H20844  10.189   7.749   8.367  0.1167 -0.1538  0.3463
  876MOL0     H20845  10.074   7.709   8.246 -0.7490  1.3679 -1.2881
  876MOL0     H20846  10.425   7.493   8.082 -2.0249 -1.7732  1.6512
  876MOL0     H20847  10.625   7.400   8.021  3.2940 -3.7419 -0.8943
  876MOL0     H20848  10.662   7.307   8.171  0.6876 -0.6543 -0.7005
  876MOL0     H20849  10.769   7.439   8.114 -0.6567  1.8489  0.9125
  876MOL0     H20850  11.008   7.787   8.389 -0.9551  0.6019  0.2997
  876MOL0     H20851  11.257   7.789   8.450 -1.3302  0.2509  1.6296
  876MOL0     H20852  11.408   7.444   8.706  3.4326 -0.5705  1.6900
  876MOL0     H20853  11.524   7.577   8.737 -0.7870  0.6335  2.4901
  876MOL0     H20854  11.362   7.678   8.895  0.0321  0.0962 -0.5550
  876MOL0     H20855  11.261   7.529   8.867  0.7267 -1.0110 -0.8949
  876MOL0     H20856  11.400   7.533   9.076 -0.4497 -1.4724  0.4347
  876MOL0     H20857  11.545   7.514   8.978  0.6271 -2.6070 -1.7085
  876MOL0     H20858  11.437   7.288   8.897  0.2282  0.9140  0.0184
  876MOL0     H20859  11.300   7.333   8.995  0.3362  1.8974 -2.6779
  876MOL0     H20860  11.570   7.279   9.110  0.5543 -2.7255 -1.2914
  876MOL0     H20861  11.426   7.325   9.198  2.0111 -1.5401  1.3219
  876MOL0     H20862  11.447   7.085   9.013  0.7377 -0.4275 -0.7645
  876MOL0     H20863  11.297   7.135   9.111  0.6398 -0.5992  1.2612
  876MOL0     H20864  11.434   7.098   9.325  1.2473  1.5768 -0.3821
  876MOL0     H20865  11.575   7.068   9.216  0.8327 -2.4367  1.0774
  876MOL0     H20866  11.494   6.842   9.293  0.3776  0.0762 -0.5170
  876MOL0     H20867  11.479   6.874   9.125 -3.5327  1.6200 -1.6493
  876MOL0     H20868  11.168   7.441   8.697  0.8645 -1.4496 -2.3228
  876MOL0     H20869  10.952   7.445   8.641  0.4172  0.4076  2.5738
  876MOL0     H20870  10.610   7.712   8.477 -1.6593  0.0596  1.5135
  876MOL0     H20871  10.394   7.784   8.393  1.5685  0.2113  1.8142
  876MOL0     H20872   9.111   8.548   7.763  0.4369 -2.1535 -0.7014
  876MOL0     H20873   8.884   8.655   7.778  0.6024  3.0848  0.2882
  876MOL0     H20874   8.554   8.922   7.310  0.0332 -3.9058  1.0181
  876MOL0     H20875   8.328   8.985   7.320  2.5079 -1.0568 -2.2384
  876MOL0     H20876   8.115   9.048   7.736  0.4532 -1.2840 -0.4927
  876MOL0     H20877   8.175   9.195   7.656 -1.2823  1.0570  0.4404
  876MOL0     H20878   7.928   9.052   7.582  0.8293 -0.0118 -0.3327
  876MOL0     H20879   7.972   9.211   7.509  0.8501 -0.9561 -0.0083
  876MOL0     H20880   7.818   9.291   7.656  1.3383  1.8168  0.8494
  876MOL0     H20881   7.867   9.168   7.778  0.1012 -0.9947 -1.2502
  876MOL0     H20882   8.086   9.317   7.785  0.3433 -1.6677  1.2907
  876MOL0     H20883   7.947   9.392   7.845  0.7128 -1.5021  0.2438
  876MOL0     H20884   7.936   9.614   7.495 -0.0073 -0.3220 -0.9532
  876MOL0     H20885   8.365   9.018   7.749 -3.4224  3.3185 -1.0056
  876MOL0     H20886   8.567   9.034   7.854  2.3033 -0.5211  1.3295
  876MOL0     H20887   8.667   8.904   7.790  0.7696 -0.6470  0.1667
  876MOL0     H20888   8.703   9.071   7.751  1.6770 -2.0740  4.1290
  877MOL0     O20889  10.712   6.212   8.137  0.3034  0.2690  1.0806
  877MOL0     C20890  10.683   6.225   8.254 -0.1012  0.0329  0.2721
  877MOL0     O20891  10.731   6.327   8.335  0.0864  0.0937 -0.2462
  877MOL0     C20892  10.828   6.429   8.293 -0.4055 -0.4390 -0.1025
  877MOL0     C20893  10.855   6.552   8.367  0.1491  0.4737  0.1892
  877MOL0     C20894  10.937   6.660   8.325 -0.1315  0.7041 -0.3905
  877MOL0     C20895  11.009   6.650   8.205  0.4207  0.3581  0.3229
  877MOL0     O20896  11.088   6.752   8.160  0.4312  0.7069  0.6225
  877MOL0     C20897  11.168   6.718   8.037  0.0623  0.1778 -0.3921
  877MOL0     C20898  11.232   6.845   7.976 -0.4104 -0.1661 -0.0580
  877MOL0     C20899  11.337   6.903   8.075  0.4992  0.4857 -0.1593
  877MOL0     C20900  11.380   7.033   8.025  0.8927 -0.1885 -0.8465
  877MOL0     C20901  11.481   7.095   8.126  0.2699  0.4869 -0.0408
  877MOL0     C20902  11.412   7.135   8.250  0.1511 -0.3096 -0.4712
  877MOL0     C20903  11.518   7.179   8.346 -0.6666 -0.3632 -0.0485
  877MOL0     C20904  11.464   7.215   8.490  0.4761 -0.1197 -0.1348
  877MOL0     N20905  11.565   7.271   8.579  0.9049  0.7173 -0.2434
  877MOL0     C20906  11.637   7.381   8.554  0.2169 -0.0294 -0.4168
  877MOL0     C20907  11.750   7.378   8.643  0.2026 -0.1575  0.0863
  877MOL0     C20908  11.855   7.485   8.649 -0.2365  0.2977  0.0408
  877MOL0     C20909  11.944   7.491   8.775  0.1023 -0.1513 -0.1682
  877MOL0     C20910  12.061   7.578   8.753  0.6496 -0.4161 -0.5160
  877MOL0     C20911  12.181   7.514   8.680 -0.1800 -0.3588 -0.3638
  877MOL0     O20912  12.279   7.611   8.644  0.1472 -0.9522  0.6291
  877MOL0     C20913  12.396   7.579   8.579 -0.4759 -0.0475  0.5225
  877MOL0     C20914  12.464   7.682   8.518  0.1062 -0.0433 -0.4193
  877MOL0     C20915  12.596   7.659   8.466  0.3697 -0.3205  0.0174
  877MOL0     C20916  12.653   7.783   8.389 -0.6136  0.9707  1.2361
  877MOL0     C20917  12.652   7.525   8.468  0.0932  0.1185  0.1310
  877MOL0     C20918  12.786   7.492   8.414 -1.2812  0.1012  0.1055
  877MOL0     O20919  12.823   7.362   8.393 -0.2921  0.7676  0.0110
  877MOL0     C20920  12.941   7.331   8.330  0.2063 -0.6703  0.4804
  877MOL0     C20921  12.942   7.259   8.218  0.2162 -0.1896 -0.0506
  877MOL0     C20922  13.072   7.218   8.164  0.9520  0.4520 -1.0714
  877MOL0     C20923  13.184   7.263   8.227 -0.2229  0.0108  0.0268
  877MOL0     O20924  13.308   7.243   8.169 -0.7400  0.3588 -0.2775
  877MOL0     C20925  13.377   7.118   8.203  0.3585  0.0155  0.2748
  877MOL0     C20926  13.523   7.119   8.185 -0.5954 -0.4802 -0.3455
  877MOL0     C20927  13.557   7.144   8.042 -0.4558  0.0109 -1.2689
  877MOL0     C20928  13.712   7.131   8.031 -0.1304 -0.1116  0.0556
  877MOL0     C20929  13.744   7.182   7.896  0.2361  0.0158  0.6770
  877MOL0     C20930  13.720   7.076   7.783  0.1087  0.2868 -0.1352
  877MOL0     C20931  13.766   7.140   7.647 -0.6727 -0.0167  0.5469
  877MOL0     C20932  13.640   7.197   7.581 -0.2642  0.6171 -0.2323
  877MOL0    Cl20933  13.539   7.042   7.543 -0.1582 -0.4676  0.5782
  877MOL0     C20934  13.179   7.337   8.347 -0.2084  0.8025  0.4148
  877MOL0     C20935  13.061   7.366   8.402  0.2899 -0.3776  0.1801
  877MOL0     O20936  12.865   7.590   8.389  0.3879 -0.2490  0.2814
  877MOL0     C20937  12.581   7.421   8.524 -0.5323 -0.0528  0.2059
  877MOL0     C20938  12.459   7.448   8.587  0.9957  0.0094  1.0747
  877MOL0     N20939  11.726   7.258   8.709 -0.6153 -0.2561  0.1848
  877MOL0     N20940  11.621   7.196   8.680 -0.2006  0.1162  1.2648
  877MOL0     C20941  11.004   6.531   8.141  0.1127 -0.5789  0.0283
  877MOL0     C20942  10.919   6.424   8.181  0.0093  0.1509  0.2329
  877MOL0     C20943  10.591   6.123   8.317 -0.2061  0.3447 -0.4526
  877MOL0     C20944  10.597   6.129   8.464  0.4566  1.7959  0.3900
  877MOL0     C20945  10.536   6.021   8.539  1.1374 -0.2481  0.1802
  877MOL0     C20946  10.463   5.927   8.471  0.2377  1.0553 -0.0505
  877MOL0     O20947  10.412   5.812   8.533 -0.3212 -0.2481 -0.1604
  877MOL0     C20948  10.428   5.801   8.681 -0.1984 -1.0413  0.1666
  877MOL0     C20949  10.367   5.678   8.740  0.2888  0.3074  0.3325
  877MOL0     C20950  10.227   5.670   8.671  0.1079  0.7601 -0.4309
  877MOL0     C20951  10.171   5.530   8.705 -0.4041  0.1953 -1.1664
  877MOL0     C20952  10.044   5.482   8.646  0.3915  0.0960  0.1612
  877MOL0     C20953   9.938   5.443   8.597 -0.0446 -0.2690 -0.2787
  877MOL0     C20954  10.448   5.940   8.331 -0.1319  0.6800  0.0558
  877MOL0     C20955  10.520   6.032   8.250  0.9784  0.5764 -0.8560
  877MOL0     C20956  10.504   6.020   8.093 -0.5489 -0.1169 -0.6559
  877MOL0     H20957  10.805   6.564   8.463  0.9117  0.0209  0.6463
  877MOL0     H20958  10.944   6.756   8.374  0.6561  0.1897  0.5389
  877MOL0     H20959  11.103   6.686   7.955  1.8934  0.5489 -2.0781
  877MOL0     H20960  11.245   6.640   8.043 -0.1246 -0.0910 -1.3235
  877MOL0     H20961  11.288   6.823   7.884  0.0282  0.7207 -0.0134
  877MOL0     H20962  11.156   6.921   7.954  1.6496  1.9557 -0.2778
  877MOL0     H20963  11.289   6.916   8.172  3.6452 -0.0193  1.6083
  877MOL0     H20964  11.426   6.843   8.095  0.4174  0.8575  1.4344
  877MOL0     H20965  11.431   7.020   7.929  1.2149 -0.1755 -0.6800
  877MOL0     H20966  11.295   7.100   8.014  1.1845  0.3556  0.1188
  877MOL0     H20967  11.511   7.188   8.077  4.8870 -0.8447 -0.1640
  877MOL0     H20968  11.569   7.033   8.142 -0.7798 -1.3788 -1.2029
  877MOL0     H20969  11.350   7.217   8.214 -4.0212 -3.3770 -0.9899
  877MOL0     H20970  11.357   7.051   8.292 -2.6878  2.1497  1.0691
  877MOL0     H20971  11.566   7.273   8.316 -2.7074  1.2030  1.3243
  877MOL0     H20972  11.592   7.099   8.355 -0.2002 -0.3794 -3.2136
  877MOL0     H20973  11.378   7.281   8.486 -0.1078 -0.8808 -0.2658
  877MOL0     H20974  11.437   7.119   8.534  2.3403 -0.9577 -0.6869
  877MOL0     H20975  11.603   7.462   8.491 -1.0374 -0.4164 -0.2623
  877MOL0     H20976  11.820   7.587   8.633 -0.6814  0.3688  1.3361
  877MOL0     H20977  11.924   7.465   8.566 -0.7313  0.3522 -0.3833
  877MOL0     H20978  11.881   7.516   8.860  0.7049 -1.3639  0.6749
  877MOL0     H20979  11.990   7.392   8.788  3.8565  1.4635  0.2311
  877MOL0     H20980  12.038   7.676   8.710  0.3821 -0.0991  0.3373
  877MOL0     H20981  12.083   7.593   8.859 -0.4411 -0.4501 -0.2683
  877MOL0     H20982  12.225   7.435   8.741  2.5499 -2.7022 -4.8310
  877MOL0     H20983  12.156   7.479   8.579  1.0142 -0.3212 -0.6857
  877MOL0     H20984  12.425   7.783   8.523 -1.9998 -0.7859 -0.7299
  877MOL0     H20985  12.563   7.845   8.379 -1.4353 -0.4774 -1.3244
  877MOL0     H20986  12.687   7.759   8.288 -2.2862 -2.5674  1.3718
  877MOL0     H20987  12.733   7.828   8.449  0.7300  1.3126 -0.7006
  877MOL0     H20988  12.850   7.229   8.168 -0.2278  2.0570 -0.6936
  877MOL0     H20989  13.081   7.157   8.075  0.5665  1.3835 -1.7599
  877MOL0     H20990  13.361   7.108   8.311  0.1867 -1.6852  0.1072
  877MOL0     H20991  13.336   7.029   8.156  0.2542  0.2390 -0.0566
  877MOL0     H20992  13.568   7.194   8.250  0.4703 -0.0159 -1.5701
  877MOL0     H20993  13.552   7.017   8.213 -2.1585 -1.5713 -2.3830
  877MOL0     H20994  13.538   7.250   8.020 -0.3239  0.1728 -0.6075
  877MOL0     H20995  13.495   7.083   7.975  2.5861 -2.8722 -1.6865
  877MOL0     H20996  13.737   7.025   8.039  1.9131  0.3250 -0.1119
  877MOL0     H20997  13.767   7.183   8.109  1.0168 -0.6821 -0.3525
  877MOL0     H20998  13.688   7.273   7.875  2.2703  1.7220  2.1784
  877MOL0     H20999  13.850   7.210   7.900  0.9374 -2.0289 -1.2532
  877MOL0     H21000  13.617   7.039   7.783  0.2057 -0.0074  0.6953
  877MOL0     H21001  13.773   6.983   7.804 -0.5304 -0.3117 -1.1023
  877MOL0     H21002  13.824   7.072   7.584  0.0109  2.3510 -1.5254
  877MOL0     H21003  13.821   7.231   7.675  3.5186 -2.4107  0.8931
  877MOL0     H21004  13.672   7.259   7.498  0.1103  0.2077 -0.4002
  877MOL0     H21005  13.595   7.263   7.655  0.1595 -0.1688  0.7538
  877MOL0     H21006  13.273   7.362   8.396 -1.1814  2.5850  1.4828
  877MOL0     H21007  13.048   7.417   8.497  0.3644 -0.3138  0.1544
  877MOL0     H21008  12.605   7.315   8.524  0.3849  0.1449  0.8582
  877MOL0     H21009  12.411   7.365   8.638  0.1637 -0.2310 -0.0680
  877MOL0     H21010  11.071   6.488   8.068 -1.7657 -1.3489 -1.3160
  877MOL0     H21011  10.923   6.331   8.125 -2.1896 -0.6250  1.2384
  877MOL0     H21012  10.650   6.209   8.515  1.7186  0.7161  0.8485
  877MOL0     H21013  10.536   6.033   8.647 -0.4272  3.1330 -0.0462
  877MOL0     H21014  10.535   5.791   8.700 -0.5349 -0.8121  2.3636
  877MOL0     H21015  10.395   5.888   8.739  1.7883 -0.1095 -0.0163
  877MOL0     H21016  10.369   5.691   8.849  0.7985  0.8856  0.2638
  877MOL0     H21017  10.430   5.594   8.708  2.0307  1.9651 -0.8706
  877MOL0     H21018  10.155   5.748   8.698 -0.9723 -0.4515  0.2958
  877MOL0     H21019  10.226   5.657   8.562 -2.2000 -4.1895 -0.1069
  877MOL0     H21020  10.152   5.512   8.811 -1.3970 -3.0632 -1.7695
  877MOL0     H21021  10.256   5.468   8.675 -1.9709 -1.8650 -1.6848
  877MOL0     H21022   9.852   5.408   8.543 -1.4464  1.2666  0.8378
  877MOL0     H21023  10.389   5.861   8.285 -1.6317  0.1710  2.6648
  877MOL0     H21024  10.486   6.115   8.043 -0.5490  0.4217  0.3506
  877MOL0     H21025  10.599   5.993   8.046  0.1696  1.9816 -0.4945
  877MOL0     H21026  10.428   5.943   8.075  0.8920 -2.2725  1.8066
  878MOL0     O21027   1.743   4.836  10.679  0.8820  0.1611  0.2256
  878MOL0     C21028   1.746   4.950  10.631  0.5672 -0.1884  0.6876
  878MOL0     O21029   1.845   5.002  10.548 -0.3264 -0.5058 -0.4172
  878MOL0     C21030   1.944   4.909  10.525  0.4462 -0.6925 -0.2311
  878MOL0     C21031   1.929   4.793  10.461  0.1051 -0.1118 -0.6796
  878MOL0     C21032   2.043   4.719  10.420 -0.2400 -0.3421  0.3533
  878MOL0     C21033   2.177   4.769  10.455 -0.2594 -0.4746 -0.1770
  878MOL0     O21034   2.291   4.696  10.429  1.5349  0.5228  0.0569
  878MOL0     C21035   2.400   4.755  10.357  0.3403  0.6376  0.0693
  878MOL0     C21036   2.499   4.646  10.323  1.4764  1.0579 -0.2288
  878MOL0     C21037   2.627   4.691  10.240  1.2882 -0.2604  0.4941
  878MOL0     C21038   2.738   4.589  10.226 -0.3727  0.8328  1.1395
  878MOL0     C21039   2.868   4.668  10.185  0.4309 -0.7555 -0.3970
  878MOL0     C21040   2.984   4.577  10.157  0.8546  0.1174 -0.5184
  878MOL0     C21041   3.122   4.642  10.125 -0.4367  0.1793  0.2034
  878MOL0     C21042   3.196   4.731  10.230 -0.6248 -0.2721 -0.1650
  878MOL0     N21043   3.219   4.657  10.353  0.2840  0.4485  0.6626
  878MOL0     C21044   3.326   4.592  10.391  1.1997 -0.3617  0.2315
  878MOL0     C21045   3.307   4.561  10.522 -0.4904  0.3593  0.6795
  878MOL0     C21046   3.405   4.498  10.619 -0.3773  0.1341  0.4933
  878MOL0     C21047   3.512   4.428  10.548  1.0970  0.1254  0.7199
  878MOL0     C21048   3.605   4.344  10.642 -0.0481 -0.0927  0.5403
  878MOL0     C21049   3.705   4.253  10.565  0.4231 -0.6933 -0.0925
  878MOL0     O21050   3.803   4.219  10.659  0.4660 -1.0310 -0.6262
  878MOL0     C21051   3.911   4.164  10.600 -0.3393  0.5172 -0.0844
  878MOL0     C21052   4.003   4.259  10.550  0.2153  0.7229 -0.2509
  878MOL0     C21053   4.126   4.214  10.493 -0.5808 -0.1852 -0.0687
  878MOL0     C21054   4.210   4.328  10.456  0.4803 -0.1080  0.3057
  878MOL0     C21055   4.149   4.074  10.480 -0.5960 -0.0570 -0.2092
  878MOL0     C21056   4.274   4.027  10.435  0.0763 -0.5652 -0.0117
  878MOL0     O21057   4.335   3.937  10.519 -0.4948  0.7575  0.0806
  878MOL0     C21058   4.446   3.873  10.469  1.2859 -0.6112  0.2949
  878MOL0     C21059   4.572   3.935  10.498  0.7544 -1.3925  0.0904
  878MOL0     C21060   4.688   3.869  10.464  0.8569 -0.6133  0.1136
  878MOL0     C21061   4.682   3.750  10.390  0.4093 -1.3030 -0.1111
  878MOL0     O21062   4.789   3.680  10.348  0.2106  0.0866 -0.0110
  878MOL0     C21063   4.885   3.762  10.273  0.5286 -0.0850 -0.0498
  878MOL0     C21064   4.991   3.673  10.236 -0.7117  0.4674 -0.6745
  878MOL0     C21065   5.087   3.624  10.348  0.4989  0.1883 -0.2734
  878MOL0     C21066   5.200   3.730  10.364  0.4049 -0.0255  0.2602
  878MOL0     C21067   5.280   3.689  10.487  0.1124 -0.2010 -0.9047
  878MOL0     C21068   5.367   3.811  10.526 -0.5343  0.3926  0.2766
  878MOL0     C21069   5.310   3.925  10.605  0.1207  0.4912  0.0606
  878MOL0     C21070   5.381   4.053  10.600  0.7860  0.1740  0.3184
  878MOL0    Cl21071   5.549   4.037  10.646 -0.2587 -0.2540  0.2109
  878MOL0     C21072   4.560   3.700  10.359 -0.0466 -1.0871 -0.3229
  878MOL0     C21073   4.439   3.757  10.401 -0.2937 -0.4320 -0.2858
  878MOL0     O21074   4.323   4.075  10.334  0.0386  0.0014  0.2614
  878MOL0     C21075   4.060   3.983  10.532  0.3734  0.6899 -0.2122
  878MOL0     C21076   3.936   4.026  10.592 -0.0901 -0.2644 -0.1098
  878MOL0     N21077   3.183   4.589  10.558 -0.1242  0.8852 -0.3204
  878MOL0     N21078   3.131   4.653  10.458 -0.4050  0.0878  0.1401
  878MOL0     C21079   2.185   4.885  10.519  0.8312 -0.4239 -0.1116
  878MOL0     C21080   2.075   4.958  10.558 -0.3317  0.0733 -0.1896
  878MOL0     C21081   1.633   5.032  10.678  0.3436  0.1040  0.2786
  878MOL0     C21082   1.512   4.974  10.705 -0.2400 -0.3115 -0.2270
  878MOL0     C21083   1.402   5.051  10.735  0.5050 -0.0894 -0.5777
  878MOL0     C21084   1.402   5.187  10.739  0.5690 -0.3180  0.2162
  878MOL0     O21085   1.290   5.253  10.793 -0.4179 -0.0099  0.6458
  878MOL0     C21086   1.303   5.393  10.808  0.0768 -0.9101 -0.2673
  878MOL0     C21087   1.158   5.433  10.850  0.0621  0.4533 -0.0384
  878MOL0     C21088   1.158   5.585  10.901 -0.0227 -0.4144  0.3487
  878MOL0     C21089   1.015   5.641  10.923 -0.0446  0.0597  0.5270
  878MOL0     C21090   0.982   5.604  11.059 -1.3372 -0.9565 -0.2177
  878MOL0     C21091   0.946   5.604  11.173  0.1403  0.1110 -0.0213
  878MOL0     C21092   1.529   5.250  10.720 -0.4806 -0.1793 -0.0409
  878MOL0     C21093   1.642   5.175  10.677 -0.2721 -0.4900  1.0663
  878MOL0     C21094   1.768   5.260  10.646  0.8102  0.2843 -0.8815
  878MOL0     H21095   1.834   4.743  10.441  0.4934 -0.9351 -0.4998
  878MOL0     H21096   2.047   4.622  10.372  0.7184 -0.4078  0.5436
  878MOL0     H21097   2.452   4.819  10.428 -1.1525 -1.2112  3.0385
  878MOL0     H21098   2.375   4.820  10.272  3.0769  0.1412 -1.1997
  878MOL0     H21099   2.533   4.597  10.415 -1.2686  1.2829  1.0074
  878MOL0     H21100   2.449   4.566  10.268  2.6656  1.3027 -1.7219
  878MOL0     H21101   2.589   4.711  10.140 -1.4781 -1.8489  1.1186
  878MOL0     H21102   2.659   4.786  10.284 -0.3390  0.3043  0.5296
  878MOL0     H21103   2.752   4.536  10.321 -0.3561  0.6557  1.0378
  878MOL0     H21104   2.720   4.507  10.157 -0.8884  2.1473 -0.3501
  878MOL0     H21105   2.908   4.729  10.267 -0.3734 -0.5286 -0.1604
  878MOL0     H21106   2.856   4.741  10.104  0.6664  0.7357  0.8684
  878MOL0     H21107   3.002   4.512  10.243 -1.2480 -1.0075 -0.8449
  878MOL0     H21108   2.956   4.507  10.077 -1.5403  0.1522  0.2139
  878MOL0     H21109   3.102   4.699  10.034  0.7606 -0.4336 -0.4714
  878MOL0     H21110   3.191   4.559  10.107 -3.6372 -2.6187 -0.0484
  878MOL0     H21111   3.287   4.762  10.178 -1.1787 -0.6046 -1.3749
  878MOL0     H21112   3.143   4.824  10.249 -0.4453 -0.3268  0.6400
  878MOL0     H21113   3.416   4.585  10.331  0.8040  0.1165 -0.4296
  878MOL0     H21114   3.357   4.432  10.692 -1.9575  0.1269 -0.5154
  878MOL0     H21115   3.464   4.574  10.670 -0.8356  3.1638 -3.0947
  878MOL0     H21116   3.462   4.355  10.483  0.2430 -2.4877  4.0249
  878MOL0     H21117   3.569   4.493  10.481  0.9529 -0.6784 -0.2085
  878MOL0     H21118   3.668   4.407  10.705  0.9342 -0.5713  0.0611
  878MOL0     H21119   3.546   4.272  10.700  0.5396 -1.5114 -0.5564
  878MOL0     H21120   3.657   4.159  10.537 -1.8568 -0.0320  1.3282
  878MOL0     H21121   3.751   4.290  10.473  2.6524 -2.2451  0.3386
  878MOL0     H21122   3.974   4.364  10.554  1.8228  1.3427 -2.7090
  878MOL0     H21123   4.208   4.331  10.347 -0.6413 -2.4734  0.1978
  878MOL0     H21124   4.306   4.311  10.505  0.0375 -2.8881  0.3373
  878MOL0     H21125   4.161   4.418  10.496 -0.5570 -0.7115  0.4459
  878MOL0     H21126   4.595   4.016  10.566  0.4589  0.0615 -1.4794
  878MOL0     H21127   4.785   3.906  10.498 -0.1115  0.2529  2.0751
  878MOL0     H21128   4.850   3.810  10.182 -0.5805  1.2771  1.0423
  878MOL0     H21129   4.922   3.843  10.337 -1.6308  0.7970  0.1599
  878MOL0     H21130   4.948   3.587  10.184  2.7081 -0.5100 -2.1529
  878MOL0     H21131   5.056   3.714  10.159 -0.7299  1.6733 -0.0623
  878MOL0     H21132   5.126   3.526  10.317 -0.2182  0.5492 -2.5194
  878MOL0     H21133   5.031   3.617  10.441 -1.1007  0.4488 -1.1822
  878MOL0     H21134   5.150   3.826  10.383 -1.8602 -1.1962  0.6735
  878MOL0     H21135   5.256   3.725  10.271 -1.6257 -3.0301 -0.9680
  878MOL0     H21136   5.215   3.648  10.565 -1.4046  2.2473 -0.7574
  878MOL0     H21137   5.358   3.614  10.472 -0.7454 -0.9799 -1.5980
  878MOL0     H21138   5.409   3.864  10.440 -0.1040  0.1234  0.3162
  878MOL0     H21139   5.452   3.768  10.580 -2.6334 -2.4797  1.5495
  878MOL0     H21140   5.302   3.905  10.712  0.9488  6.2177  1.5324
  878MOL0     H21141   5.205   3.940  10.580  0.1584  1.6288  0.5338
  878MOL0     H21142   5.332   4.124  10.667 -1.7892 -2.5563  1.5327
  878MOL0     H21143   5.391   4.101  10.502  2.3192 -0.6214  0.0608
  878MOL0     H21144   4.568   3.608  10.302 -2.7513  0.2792 -3.1875
  878MOL0     H21145   4.351   3.699  10.377  0.0595 -0.0694 -2.6682
  878MOL0     H21146   4.082   3.877  10.529 -1.1780  0.3604 -2.0105
  878MOL0     H21147   3.867   3.954  10.634  0.2342  0.7219  2.2804
  878MOL0     H21148   2.277   4.934  10.549 -0.5761  0.7361  2.6503
  878MOL0     H21149   2.084   5.047  10.619  1.2622 -0.1978  0.0322
  878MOL0     H21150   1.512   4.866  10.704  1.8943 -0.3542 -0.8247
  878MOL0     H21151   1.312   4.997  10.761  0.0979 -0.2560 -2.2425
  878MOL0     H21152   1.384   5.422  10.876  4.1045 -4.0614 -3.2125
  878MOL0     H21153   1.335   5.438  10.714  0.5796  0.1096  0.3775
  878MOL0     H21154   1.124   5.367  10.930  2.0692 -2.3024 -1.3123
  878MOL0     H21155   1.103   5.435  10.756 -0.7321  4.3639  0.3134
  878MOL0     H21156   1.217   5.600  10.992 -2.8273  0.7731  2.1050
  878MOL0     H21157   1.205   5.638  10.817 -1.5258  0.3368 -0.0445
  878MOL0     H21158   0.946   5.599  10.849 -0.5299 -0.3907  1.2201
  878MOL0     H21159   1.021   5.750  10.921 -0.0420  0.0842  1.2923
  878MOL0     H21160   0.907   5.612  11.273  0.1550  0.2176 -0.0233
  878MOL0     H21161   1.538   5.357  10.736  2.0648 -0.3240 -0.1144
  878MOL0     H21162   1.846   5.237  10.719 -0.6405 -0.4245  0.5179
  878MOL0     H21163   1.792   5.247  10.540 -2.4551 -0.1485 -1.6920
  878MOL0     H21164   1.750   5.367  10.648 -2.2339 -0.0947 -1.8164
  879MOL0     O21165   3.948   9.131  11.165 -0.4570  0.0218  0.2003
  879MOL0     C21166   3.924   9.121  11.286 -0.6257 -0.6061 -0.1404
  879MOL0     O21167   4.022   9.107  11.387  0.4702 -0.3666  0.0122
  879MOL0     C21168   4.149   9.179  11.378  0.0244 -0.4917 -0.1804
  879MOL0     C21169   4.190   9.274  11.278  0.6216  1.1789 -0.7074
  879MOL0     C21170   4.308   9.338  11.278  0.0966  0.2079  0.2230
  879MOL0     C21171   4.410   9.302  11.365 -0.6017  0.7196 -0.2349
  879MOL0     O21172   4.537   9.360  11.350  0.2874 -0.2766 -0.0270
  879MOL0     C21173   4.647   9.341  11.437 -0.7128 -0.4196  0.5082
  879MOL0     C21174   4.770   9.414  11.384  0.4005  0.1658  0.0719
  879MOL0     C21175   4.886   9.400  11.491 -0.4519  0.3688 -0.7783
  879MOL0     C21176   5.023   9.452  11.426 -0.4102 -0.0778  0.1167
  879MOL0     C21177   5.128   9.459  11.539  0.2145  0.1793  0.0338
  879MOL0     C21178   5.261   9.520  11.506 -1.0752 -0.5812  0.6934
  879MOL0     C21179   5.381   9.446  11.578 -0.3001 -0.0124 -0.3490
  879MOL0     C21180   5.398   9.486  11.728  0.5823  0.6367 -0.3537
  879MOL0     N21181   5.286   9.447  11.819  0.9075 -0.8417  0.0873
  879MOL0     C21182   5.249   9.315  11.835 -0.5701 -0.7911  0.2579
  879MOL0     C21183   5.149   9.316  11.923 -0.1699  0.9626  0.1046
  879MOL0     C21184   5.100   9.183  11.983 -0.2791  0.2958  0.8344
  879MOL0     C21185   5.203   9.095  12.054  0.0756  0.1466 -0.3529
  879MOL0     C21186   5.210   9.113  12.203  0.1679  0.4046  0.2935
  879MOL0     C21187   5.319   9.033  12.283 -0.3623 -0.1919  0.6761
  879MOL0     O21188   5.443   9.093  12.245 -0.4304 -0.1438 -0.0620
  879MOL0     C21189   5.549   9.045  12.318  0.5623 -1.0262  0.1553
  879MOL0     C21190   5.672   9.102  12.295  0.1291 -0.3380 -0.3044
  879MOL0     C21191   5.790   9.063  12.358 -0.0773 -0.2003  0.1597
  879MOL0     C21192   5.922   9.118  12.306 -0.1073  1.1745 -0.0422
  879MOL0     C21193   5.786   8.968  12.461  0.9769 -0.6145  0.6842
  879MOL0     C21194   5.906   8.921  12.532  0.5911 -0.1907 -0.3600
  879MOL0     O21195   5.895   8.799  12.595 -0.2620 -0.1871  0.0080
  879MOL0     C21196   5.972   8.779  12.712  0.1917  0.1459  0.1795
  879MOL0     C21197   6.000   8.872  12.813 -0.2870  0.6290 -0.1072
  879MOL0     C21198   6.095   8.851  12.918 -0.6589 -0.6198  0.5339
  879MOL0     C21199   6.150   8.728  12.936 -0.9879 -0.2951 -0.2062
  879MOL0     O21200   6.230   8.693  13.045 -0.3149  0.1757 -0.1821
  879MOL0     C21201   6.292   8.796  13.122  0.1873 -0.4233  0.0486
  879MOL0     C21202   6.420   8.737  13.191  0.1233 -0.7193 -0.6879
  879MOL0     C21203   6.426   8.793  13.332 -1.0299  0.2357 -1.3095
  879MOL0     C21204   6.515   8.717  13.432 -0.2603 -0.8741 -0.1878
  879MOL0     C21205   6.655   8.731  13.390 -0.3509 -0.7458 -0.2089
  879MOL0     C21206   6.737   8.619  13.455  0.7062 -0.1090  0.8299
  879MOL0     C21207   6.884   8.627  13.419  0.2100 -0.2559 -1.2743
  879MOL0     C21208   6.969   8.505  13.421  0.3500  0.6864 -0.3670
  879MOL0    Cl21209   6.959   8.440  13.579  0.2890 -0.1114  0.0423
  879MOL0     C21210   6.117   8.625  12.836  0.0446  0.5342 -0.7169
  879MOL0     C21211   6.032   8.650  12.722 -0.3724 -0.6015 -0.0820
  879MOL0     O21212   6.006   8.992  12.531 -0.7693  0.1980 -0.0834
  879MOL0     C21213   5.664   8.899  12.478  0.6887 -0.0109 -0.1729
  879MOL0     C21214   5.543   8.942  12.413  0.0433  0.6117  0.6332
  879MOL0     N21215   5.133   9.445  11.971  0.2550 -0.1219  0.0123
  879MOL0     N21216   5.207   9.524  11.891  0.2583 -0.7925 -0.4556
  879MOL0     C21217   4.376   9.216  11.465 -0.0514  0.0779 -0.0783
  879MOL0     C21218   4.247   9.160  11.477  0.4714 -0.4170  0.4369
  879MOL0     C21219   3.785   9.092  11.334 -0.2588 -0.0466  0.1284
  879MOL0     C21220   3.764   9.027  11.451  0.1774  0.1285 -0.3147
  879MOL0     C21221   3.637   8.998  11.497  0.2222  0.1601  0.0425
  879MOL0     C21222   3.521   9.035  11.425  0.4369 -0.8526 -1.2521
  879MOL0     O21223   3.395   9.007  11.463  0.0135 -0.2895 -0.2237
  879MOL0     C21224   3.360   9.009  11.599 -0.3894 -0.5247 -0.3965
  879MOL0     C21225   3.346   8.865  11.630  0.9275 -0.6046 -0.4582
  879MOL0     C21226   3.227   8.795  11.553 -0.1725  0.8509  0.3420
  879MOL0     C21227   3.258   8.645  11.542 -0.3371 -0.0531  0.3663
  879MOL0     C21228   3.163   8.583  11.448 -0.9071 -0.0312 -0.1985
  879MOL0     C21229   3.093   8.541  11.354 -0.6974 -0.1511  0.4460
  879MOL0     C21230   3.538   9.101  11.314 -0.3866 -0.2320 -0.4808
  879MOL0     C21231   3.667   9.130  11.263  0.3021  0.6450  0.4573
  879MOL0     C21232   3.667   9.183  11.119  0.1598  0.3399  0.5826
  879MOL0     H21233   4.119   9.298  11.200 -1.8475  3.1520  1.9642
  879MOL0     H21234   4.325   9.420  11.209  0.9475 -0.6429 -0.6161
  879MOL0     H21235   4.672   9.234  11.443 -0.7267 -0.4251  0.4774
  879MOL0     H21236   4.618   9.373  11.537  0.6785  2.6285  0.0450
  879MOL0     H21237   4.801   9.370  11.289  1.6308  0.8573  0.1317
  879MOL0     H21238   4.749   9.520  11.367 -0.1222  0.0023 -0.3125
  879MOL0     H21239   4.875   9.460  11.582  3.8240  0.0841  0.1765
  879MOL0     H21240   4.891   9.292  11.507 -1.6420  0.1452 -1.7864
  879MOL0     H21241   5.060   9.389  11.345  0.7950  0.9799 -0.1862
  879MOL0     H21242   5.011   9.552  11.383 -1.2758  0.2844  1.1438
  879MOL0     H21243   5.141   9.357  11.578 -3.1035 -0.4264 -0.2056
  879MOL0     H21244   5.088   9.513  11.625 -1.8368 -0.0977 -0.6983
  879MOL0     H21245   5.274   9.506  11.398 -0.5486  0.0013  0.6751
  879MOL0     H21246   5.261   9.627  11.528 -1.0505 -0.8999  2.3747
  879MOL0     H21247   5.471   9.452  11.516 -1.2825  2.2406 -1.6697
  879MOL0     H21248   5.353   9.340  11.577  0.7570 -0.3093 -0.4469
  879MOL0     H21249   5.487   9.436  11.765  0.6803  1.1909  0.1653
  879MOL0     H21250   5.411   9.595  11.734 -0.0050  0.7628 -1.1465
  879MOL0     H21251   5.309   9.236  11.791 -2.2445 -1.1968 -1.4780
  879MOL0     H21252   5.074   9.112  11.904 -0.7216 -0.9735  2.0828
  879MOL0     H21253   5.007   9.196  12.039 -2.0022 -2.0493 -1.2359
  879MOL0     H21254   5.178   8.990  12.041 -2.5180  0.2756  2.4799
  879MOL0     H21255   5.302   9.106  12.009  1.7448  2.4521  3.3845
  879MOL0     H21256   5.234   9.216  12.232  0.7922 -0.2078  2.0558
  879MOL0     H21257   5.108   9.097  12.239 -0.4097  2.3259 -0.3610
  879MOL0     H21258   5.299   9.040  12.390  1.9951 -0.8334  1.2331
  879MOL0     H21259   5.326   8.928  12.251  1.1562 -0.1337  0.7254
  879MOL0     H21260   5.695   9.174  12.216  2.6243  3.0349  3.1122
  879MOL0     H21261   5.969   9.187  12.376  1.6877 -1.3252  1.3696
  879MOL0     H21262   5.906   9.167  12.209 -1.7936 -1.9785 -1.4993
  879MOL0     H21263   5.992   9.037  12.282  0.5701  1.0889  2.0324
  879MOL0     H21264   5.958   8.970  12.795 -0.6932  0.4995  0.1231
  879MOL0     H21265   6.106   8.939  12.980  1.8248  0.8509 -1.7768
  879MOL0     H21266   6.329   8.871  13.052  2.1597 -1.7836 -0.4602
  879MOL0     H21267   6.227   8.843  13.196 -0.1370 -0.0327 -0.4847
  879MOL0     H21268   6.414   8.628  13.180  0.9953 -0.7942 -0.4905
  879MOL0     H21269   6.512   8.779  13.149  0.6068 -1.0904 -0.0174
  879MOL0     H21270   6.321   8.790  13.365 -0.5756  2.0127  0.5585
  879MOL0     H21271   6.462   8.897  13.327  1.8772 -0.7355 -2.8147
  879MOL0     H21272   6.483   8.612  13.440 -0.6848 -0.8765 -1.5929
  879MOL0     H21273   6.510   8.772  13.526  0.0789  0.5440 -0.9683
  879MOL0     H21274   6.675   8.727  13.283  2.6855  0.8735  0.1828
  879MOL0     H21275   6.697   8.828  13.420 -0.3850 -0.1373 -2.0084
  879MOL0     H21276   6.709   8.518  13.423 -0.6962  0.9176 -1.4616
  879MOL0     H21277   6.724   8.623  13.563 -2.1899 -0.4543  0.5618
  879MOL0     H21278   6.932   8.702  13.483 -0.6855  0.9775 -2.0054
  879MOL0     H21279   6.894   8.666  13.318 -0.5561  0.0408 -1.2402
  879MOL0     H21280   7.072   8.527  13.389  0.5823 -1.7025 -1.4901
  879MOL0     H21281   6.935   8.422  13.359  1.4748 -0.3049  0.2818
  879MOL0     H21282   6.151   8.523  12.847 -1.7464  0.0858  1.3422
  879MOL0     H21283   6.015   8.571  12.649 -2.3141 -2.0558  1.8183
  879MOL0     H21284   5.659   8.814  12.546  2.5032 -1.3007 -1.5371
  879MOL0     H21285   5.448   8.906  12.452  0.5552  0.6271  1.9341
  879MOL0     H21286   4.445   9.200  11.547  0.3938  1.8992 -0.0546
  879MOL0     H21287   4.219   9.093  11.557 -1.9660  1.2791  1.1414
  879MOL0     H21288   3.853   9.001  11.507  0.7328  1.9577 -0.2806
  879MOL0     H21289   3.622   8.956  11.596 -0.0354  1.7286  0.7021
  879MOL0     H21290   3.437   9.056  11.662  0.1959 -1.1566 -0.6363
  879MOL0     H21291   3.263   9.058  11.615  0.7372  1.5777  0.4561
  879MOL0     H21292   3.328   8.849  11.737 -0.6037 -2.1735 -0.9118
  879MOL0     H21293   3.434   8.813  11.593  0.7946 -1.0906 -0.0975
  879MOL0     H21294   3.129   8.803  11.602 -0.0636 -1.0430  0.9396
  879MOL0     H21295   3.203   8.834  11.453 -0.0763 -2.0234 -0.8993
  879MOL0     H21296   3.247   8.603  11.643 -0.4176  0.1655  0.4485
  879MOL0     H21297   3.360   8.630  11.505 -1.1963  0.0296 -2.2393
  879MOL0     H21298   3.032   8.512  11.271 -0.0310  2.2788 -1.0088
  879MOL0     H21299   3.454   9.133  11.253  1.0444  0.4328 -2.2198
  879MOL0     H21300   3.749   9.255  11.112  1.7567 -1.2247  2.1494
  879MOL0     H21301   3.686   9.100  11.050  0.7737  0.0474  1.0917
  879MOL0     H21302   3.571   9.232  11.102  0.7407  2.2843  2.4594
  880MOL0     O21303   2.108   9.434   7.548 -0.4698 -0.4286  0.4957
  880MOL0     C21304   2.014   9.356   7.529  0.1012  0.4729  0.3682
  880MOL0     O21305   2.017   9.232   7.474 -0.3769  0.1684  0.0759
  880MOL0     C21306   2.136   9.189   7.418 -0.0252  0.3787  0.1852
  880MOL0     C21307   2.160   9.197   7.276  0.2090 -0.1912  0.2763
  880MOL0     C21308   2.277   9.151   7.217  0.6323 -0.3959  0.5520
  880MOL0     C21309   2.376   9.093   7.290 -0.6209  1.4385 -0.2640
  880MOL0     O21310   2.495   9.061   7.231  0.4513 -0.7256 -0.0211
  880MOL0     C21311   2.617   9.093   7.311  0.0752 -0.0568 -0.0252
  880MOL0     C21312   2.729   9.125   7.214 -0.2472  0.8317  0.0003
  880MOL0     C21313   2.844   9.155   7.308  0.0671 -0.4794  0.3251
  880MOL0     C21314   2.960   9.202   7.219  0.3620 -0.5351 -0.1999
  880MOL0     C21315   3.075   9.239   7.317 -0.0531 -0.8028  0.5144
  880MOL0     C21316   3.202   9.264   7.229  0.3010  0.0712 -0.2843
  880MOL0     C21317   3.190   9.398   7.159 -0.6586  0.3449 -0.3011
  880MOL0     C21318   3.322   9.427   7.090  0.5690 -0.0348  0.6965
  880MOL0     N21319   3.431   9.450   7.191  0.5492 -0.2436 -0.1506
  880MOL0     C21320   3.445   9.570   7.254 -0.1375  0.8672 -0.6146
  880MOL0     C21321   3.554   9.548   7.334 -0.4874 -0.0430  0.1444
  880MOL0     C21322   3.606   9.643   7.436  0.3179 -0.3275  0.5008
  880MOL0     C21323   3.734   9.717   7.390  0.1417  0.0096 -0.1285
  880MOL0     C21324   3.761   9.847   7.461  0.9803 -0.5065 -0.0275
  880MOL0     C21325   3.900   9.892   7.450 -0.4260 -0.3479  0.1041
  880MOL0     O21326   3.962   9.875   7.330 -0.4366 -0.3101  0.8352
  880MOL0     C21327   4.094   9.909   7.319 -0.0777 -0.3920  0.4813
  880MOL0     C21328   4.169   9.967   7.413  0.2058 -0.2354  0.8437
  880MOL0     C21329   4.300  10.013   7.399 -0.2358 -0.2566 -0.5824
  880MOL0     C21330   4.361  10.082   7.520  0.3262 -0.5667  0.1140
  880MOL0     C21331   4.368   9.986   7.279 -1.7046  0.0225 -0.1062
  880MOL0     C21332   4.511  10.028   7.245 -0.4465  0.8841 -0.0128
  880MOL0     O21333   4.552  10.010   7.119 -0.4505  0.5410  0.9104
  880MOL0     C21334   4.693   9.993   7.106  0.4441  0.0721  0.5360
  880MOL0     C21335   4.763  10.096   7.056  0.2386  0.5584 -0.3607
  880MOL0     C21336   4.898  10.092   7.024 -0.6395 -0.0286 -0.5035
  880MOL0     C21337   4.966   9.976   7.048  0.5870 -0.2086  0.3012
  880MOL0     O21338   5.098   9.989   7.023 -0.5513  0.7618  0.4097
  880MOL0     C21339   5.174   9.867   7.059  0.6335  0.2923 -0.5510
  880MOL0     C21340   5.318   9.896   7.030 -0.5062  0.4931  0.4661
  880MOL0     C21341   5.357   9.926   6.886 -0.1864 -0.2621 -0.3468
  880MOL0     C21342   5.515   9.937   6.872  0.8440  0.0133 -0.1867
  880MOL0     C21343   5.561  10.082   6.924  0.0960 -0.9533 -0.0729
  880MOL0     C21344   5.711  10.100   6.918 -0.3453  0.0596  0.4989
  880MOL0     C21345   5.757  10.239   6.965 -0.1013  0.5732 -0.6437
  880MOL0     C21346   5.908  10.247   6.924 -0.5114  0.2440  0.7691
  880MOL0    Cl21347   6.018  10.148   7.034  0.2406 -0.0081  0.3102
  880MOL0     C21348   4.890   9.855   7.103 -0.4130 -0.4401  0.1962
  880MOL0     C21349   4.753   9.868   7.126 -0.0764  0.2126  1.0279
  880MOL0     O21350   4.579  10.060   7.342 -0.2411 -0.4868  0.0246
  880MOL0     C21351   4.293   9.925   7.176  0.5402 -0.7293  0.2903
  880MOL0     C21352   4.159   9.892   7.188  0.6578  0.5837 -0.8041
  880MOL0     N21353   3.595   9.414   7.318 -0.5181 -1.0211 -0.6771
  880MOL0     N21354   3.526   9.362   7.234 -0.0344 -0.3801 -0.0539
  880MOL0     C21355   2.358   9.076   7.429  0.7021 -0.2173  0.0665
  880MOL0     C21356   2.238   9.124   7.487 -0.0737  0.4008 -0.0181
  880MOL0     C21357   1.887   9.400   7.583 -1.1064  0.0526 -0.3398
  880MOL0     C21358   1.896   9.477   7.702 -0.1678 -0.9514  0.7058
  880MOL0     C21359   1.782   9.536   7.759 -0.7152  0.3830 -0.0627
  880MOL0     C21360   1.655   9.521   7.705 -0.2776 -0.7216 -0.1182
  880MOL0     O21361   1.542   9.569   7.762 -0.3461  0.7838  0.0872
  880MOL0     C21362   1.522   9.706   7.751 -0.0271  0.3646  0.5599
  880MOL0     C21363   1.412   9.753   7.846 -0.6028 -0.3833  0.7279
  880MOL0     C21364   1.273   9.712   7.790  0.9437 -0.7165 -0.4101
  880MOL0     C21365   1.160   9.738   7.892  0.5902 -0.4787 -0.3060
  880MOL0     C21366   1.029   9.698   7.834  0.1590 -0.4153  0.1831
  880MOL0     C21367   0.922   9.667   7.780  1.0014 -0.5038 -0.1698
  880MOL0     C21368   1.642   9.445   7.586  0.2710  0.0070 -0.6656
  880MOL0     C21369   1.755   9.389   7.520 -0.8350  0.7240 -0.3592
  880MOL0     C21370   1.750   9.318   7.387  0.9162 -0.6558  0.6079
  880MOL0     H21371   2.074   9.243   7.227  0.7258  2.7002  1.8753
  880MOL0     H21372   2.292   9.159   7.110  2.1489  3.6837  0.9198
  880MOL0     H21373   2.652   9.012   7.376  0.5586 -0.2948 -0.5771
  880MOL0     H21374   2.594   9.172   7.383 -0.3968  1.0420 -1.3521
  880MOL0     H21375   2.753   9.036   7.156  0.3981  0.5539  0.6799
  880MOL0     H21376   2.695   9.213   7.157  0.0834  0.1733 -1.2503
  880MOL0     H21377   2.831   9.242   7.373  2.1618 -0.3981  0.7128
  880MOL0     H21378   2.872   9.071   7.372  0.6158 -0.7725 -0.2903
  880MOL0     H21379   2.985   9.116   7.155 -1.8568 -1.4574  0.1027
  880MOL0     H21380   2.933   9.290   7.159 -1.2794  0.6597  2.1323
  880MOL0     H21381   3.098   9.153   7.381 -2.3876 -0.2016  2.3110
  880MOL0     H21382   3.064   9.327   7.380 -0.7592 -0.4623 -0.0714
  880MOL0     H21383   3.285   9.256   7.300 -1.5251 -3.7391  1.7718
  880MOL0     H21384   3.212   9.190   7.149  0.3562  0.3141 -0.4977
  880MOL0     H21385   3.159   9.475   7.231  1.6811  1.0837  0.0103
  880MOL0     H21386   3.109   9.395   7.086  0.0063 -1.1619 -1.0267
  880MOL0     H21387   3.333   9.339   7.026 -2.3867  0.6136 -0.8521
  880MOL0     H21388   3.310   9.506   7.016  0.8032 -0.1537  0.5280
  880MOL0     H21389   3.381   9.655   7.236 -0.3852  0.5836 -1.0914
  880MOL0     H21390   3.618   9.592   7.533  0.3204 -0.3637  0.4816
  880MOL0     H21391   3.530   9.720   7.454  3.2905  3.1243 -0.6021
  880MOL0     H21392   3.823   9.653   7.399 -0.4103 -0.9037 -1.0370
  880MOL0     H21393   3.721   9.741   7.284  2.9215 -0.0250 -0.5662
  880MOL0     H21394   3.690   9.923   7.427  2.5965 -0.3909 -3.5597
  880MOL0     H21395   3.745   9.834   7.568  0.6486  0.4685  0.0506
  880MOL0     H21396   3.907   9.998   7.475 -1.7722 -1.1948  5.3024
  880MOL0     H21397   3.956   9.842   7.530  0.4447 -0.9710 -0.8768
  880MOL0     H21398   4.124   9.995   7.507 -0.7892  0.9224  0.0522
  880MOL0     H21399   4.397  10.184   7.501 -2.1388  0.8204  2.2655
  880MOL0     H21400   4.446  10.025   7.558  0.9361  0.4795  0.3878
  880MOL0     H21401   4.295  10.079   7.606  0.6678 -0.1228  0.3986
  880MOL0     H21402   4.715  10.193   7.065 -2.1868 -0.4167 -1.7222
  880MOL0     H21403   4.946  10.182   6.990 -0.8967 -0.7101 -2.8023
  880MOL0     H21404   5.157   9.849   7.166 -4.0938  0.1198 -1.1303
  880MOL0     H21405   5.127   9.789   6.999 -0.4492  0.9969 -0.6339
  880MOL0     H21406   5.354   9.977   7.095  1.5697  0.4103 -0.5052
  880MOL0     H21407   5.371   9.809   7.070 -0.2331  1.8413  3.3797
  880MOL0     H21408   5.305  10.010   6.840 -2.0755 -1.6827 -0.9100
  880MOL0     H21409   5.333   9.845   6.816  2.6259 -0.6351 -1.0061
  880MOL0     H21410   5.548   9.939   6.768  0.6721 -2.2673 -0.3251
  880MOL0     H21411   5.579   9.854   6.903  2.5424 -0.4521 -4.3555
  880MOL0     H21412   5.518  10.155   6.854 -0.7774 -0.6021  0.8022
  880MOL0     H21413   5.525  10.112   7.023 -2.6916  1.3014 -1.6145
  880MOL0     H21414   5.751  10.079   6.818 -0.0414  1.1424  0.3708
  880MOL0     H21415   5.758  10.024   6.980 -0.4621 -0.3364  0.1039
  880MOL0     H21416   5.736  10.255   7.072 -0.5118  0.8930 -0.7655
  880MOL0     H21417   5.713  10.323   6.911  1.0429  0.9336 -1.0312
  880MOL0     H21418   5.955  10.346   6.925  2.8427 -1.1277  4.0488
  880MOL0     H21419   5.922  10.213   6.821 -0.2780 -0.3694  0.9993
  880MOL0     H21420   4.939   9.762   7.128 -3.0640 -2.0432 -0.1947
  880MOL0     H21421   4.704   9.780   7.165 -0.1216  0.6522  1.9949
  880MOL0     H21422   4.330   9.907   7.075  0.6610  2.6051 -0.3837
  880MOL0     H21423   4.113   9.837   7.106  3.1383  0.9552 -2.5712
  880MOL0     H21424   2.429   9.021   7.489 -0.4777  0.1569  1.9161
  880MOL0     H21425   2.222   9.117   7.594  0.6718 -0.8914  0.0442
  880MOL0     H21426   1.992   9.504   7.746  0.5440 -1.3972 -0.5419
  880MOL0     H21427   1.791   9.593   7.852 -3.5990  0.6491  0.1400
  880MOL0     H21428   1.615   9.758   7.777  0.5868 -0.6612  0.4666
  880MOL0     H21429   1.500   9.729   7.647  2.9673  2.2690  0.2223
  880MOL0     H21430   1.411   9.862   7.850 -0.2181 -0.2456 -1.3802
  880MOL0     H21431   1.441   9.721   7.946  0.7827  2.2278  1.2696
  880MOL0     H21432   1.254   9.768   7.698  3.2397 -0.7815 -0.9856
  880MOL0     H21433   1.268   9.608   7.757  0.1976 -0.7928 -0.0885
  880MOL0     H21434   1.146   9.844   7.913 -0.1180 -0.6770  0.2543
  880MOL0     H21435   1.184   9.679   7.981 -1.4850 -1.5561 -0.4261
  880MOL0     H21436   0.828   9.649   7.733  0.6537 -0.2942  0.4451
  880MOL0     H21437   1.547   9.430   7.535  0.5002 -1.9751 -0.6008
  880MOL0     H21438   1.807   9.227   7.370  2.6757  0.6766 -1.1475
  880MOL0     H21439   1.645   9.288   7.376  0.4882  0.2438  1.9574
  880MOL0     H21440   1.777   9.390   7.309 -2.8151  0.8051  0.4394
  881MOL0     O21441   3.200   2.637   5.015 -0.1370  0.5358 -0.3843
  881MOL0     C21442   3.100   2.564   5.013 -0.0760 -0.1364  0.6031
  881MOL0     O21443   3.088   2.450   4.939  0.0275  0.3168  0.2306
  881MOL0     C21444   3.191   2.382   4.872  0.0628  0.0538  0.1468
  881MOL0     C21445   3.310   2.441   4.821 -0.8952  0.0078 -0.3041
  881MOL0     C21446   3.388   2.373   4.735 -0.2508 -0.3616  0.5872
  881MOL0     C21447   3.356   2.252   4.681  0.9629 -0.2156  0.1352
  881MOL0     O21448   3.444   2.188   4.605 -0.1464  0.2528 -0.1011
  881MOL0     C21449   3.411   2.049   4.574 -0.1377  0.4347  0.2508
  881MOL0     C21450   3.528   1.977   4.510 -0.6653 -0.8025 -0.0397
  881MOL0     C21451   3.545   2.032   4.356 -0.1459  0.3111  0.2902
  881MOL0     C21452   3.554   1.915   4.265  0.4953  1.3162  0.4537
  881MOL0     C21453   3.529   1.954   4.120 -0.1243  0.6358  0.0804
  881MOL0     C21454   3.555   1.839   4.013 -0.0914  0.3924  0.4712
  881MOL0     C21455   3.447   1.728   4.002  0.5897 -0.2012  0.4795
  881MOL0     C21456   3.461   1.627   3.882 -0.7739  0.7647 -0.1884
  881MOL0     N21457   3.393   1.678   3.762  0.3464 -0.1594  0.1235
  881MOL0     C21458   3.271   1.740   3.760  0.0110 -0.2265 -0.1114
  881MOL0     C21459   3.266   1.795   3.639 -0.1128 -0.3145  0.2849
  881MOL0     C21460   3.147   1.882   3.582 -0.1763  1.0182 -0.2899
  881MOL0     C21461   3.012   1.799   3.606  0.0275  0.1354  0.1864
  881MOL0     C21462   2.989   1.674   3.515  0.9443  0.4210 -0.1886
  881MOL0     C21463   2.965   1.542   3.590  0.8648  0.3159 -0.0769
  881MOL0     O21464   2.829   1.535   3.641 -0.2107 -0.6256  0.0316
  881MOL0     C21465   2.779   1.432   3.728 -0.1575 -0.6143 -0.5495
  881MOL0     C21466   2.860   1.342   3.790  0.0166  0.0980  0.1124
  881MOL0     C21467   2.803   1.236   3.867  0.4194  0.2565 -0.0371
  881MOL0     C21468   2.900   1.127   3.909 -0.5942  0.0759 -0.3430
  881MOL0     C21469   2.660   1.232   3.897  0.2388  0.0722 -0.1036
  881MOL0     C21470   2.579   1.136   3.972  0.0277  0.5393  0.1604
  881MOL0     O21471   2.440   1.161   3.984  0.0601 -0.2136 -0.9351
  881MOL0     C21472   2.368   1.090   4.077  0.5199  0.4751 -0.7933
  881MOL0     C21473   2.228   1.080   4.054  0.1455 -0.6070 -0.0961
  881MOL0     C21474   2.143   1.020   4.139  0.0206  0.3025  0.6340
  881MOL0     C21475   2.186   0.966   4.256 -0.1089  0.4238 -0.0600
  881MOL0     O21476   2.110   0.902   4.347  0.3712  0.6458  0.4105
  881MOL0     C21477   1.987   0.839   4.301 -0.1447 -0.1717 -0.0001
  881MOL0     C21478   1.922   0.775   4.412 -0.9167  0.0556 -0.1198
  881MOL0     C21479   1.797   0.708   4.364 -0.0185 -1.1409  0.3310
  881MOL0     C21480   1.748   0.619   4.473 -0.0776  0.8556  0.9325
  881MOL0     C21481   1.604   0.570   4.434  0.0823  0.5883 -1.0028
  881MOL0     C21482   1.595   0.486   4.302 -0.1662  0.6311 -0.4187
  881MOL0     C21483   1.447   0.457   4.264 -0.2265  0.0030 -0.4644
  881MOL0     C21484   1.379   0.366   4.373 -0.5193  0.1840  0.8449
  881MOL0    Cl21485   1.313   0.454   4.517  0.3442 -0.3525 -0.5291
  881MOL0     C21486   2.322   0.968   4.289  0.5565 -0.2591 -0.4468
  881MOL0     C21487   2.414   1.023   4.202  0.2699 -0.2385 -0.2953
  881MOL0     O21488   2.638   1.034   4.009  0.6758  0.3780 -0.3105
  881MOL0     C21489   2.589   1.333   3.829  0.0172  0.3024  0.2733
  881MOL0     C21490   2.637   1.425   3.743  0.1071  0.1446  0.2742
  881MOL0     N21491   3.383   1.764   3.568 -0.1888  0.5948  0.2922
  881MOL0     N21492   3.450   1.679   3.641 -0.4045  0.2608  0.1887
  881MOL0     C21493   3.230   2.196   4.724 -0.4621  1.1584 -0.4118
  881MOL0     C21494   3.159   2.263   4.821  0.0712 -0.0468  0.2256
  881MOL0     C21495   2.977   2.605   5.096  0.3190  0.5635 -0.5780
  881MOL0     C21496   2.868   2.507   5.096 -0.5098  0.1805 -0.5140
  881MOL0     C21497   2.749   2.520   5.169 -0.7638 -0.9775  0.5022
  881MOL0     C21498   2.732   2.634   5.243 -0.5429  0.4260  0.5252
  881MOL0     O21499   2.612   2.638   5.309  0.1806  0.3722 -0.5153
  881MOL0     C21500   2.615   2.691   5.442 -0.3274  0.8655 -0.5095
  881MOL0     C21501   2.700   2.597   5.530  0.1780 -0.4032 -0.1754
  881MOL0     C21502   2.727   2.651   5.674 -0.9129  0.9738 -0.1194
  881MOL0     C21503   2.818   2.776   5.680  0.1615  0.4430  0.0675
  881MOL0     C21504   2.947   2.760   5.609 -0.1898  0.0159  0.3570
  881MOL0     C21505   3.055   2.750   5.558 -0.1648 -0.5190 -0.4782
  881MOL0     C21506   2.836   2.735   5.243  0.6251 -0.9315  0.3841
  881MOL0     C21507   2.953   2.729   5.162  0.2544  0.2254 -0.2672
  881MOL0     C21508   3.036   2.855   5.168 -0.6188  0.3651 -0.4037
  881MOL0     H21509   3.344   2.540   4.849 -2.8098  0.3550  1.0542
  881MOL0     H21510   3.481   2.419   4.703 -0.8856 -0.1555 -1.0483
  881MOL0     H21511   3.321   2.042   4.513 -0.9996  0.4133  1.4780
  881MOL0     H21512   3.392   1.996   4.668 -1.1427 -0.4824 -0.4516
  881MOL0     H21513   3.617   2.013   4.562 -2.3786  1.2522  1.6274
  881MOL0     H21514   3.524   1.868   4.519 -1.7607 -0.7614  0.1161
  881MOL0     H21515   3.470   2.103   4.320 -2.1090 -1.5980  0.4181
  881MOL0     H21516   3.645   2.077   4.353  1.5221 -3.1086  0.3358
  881MOL0     H21517   3.654   1.871   4.262 -1.3312 -3.4774 -3.4689
  881MOL0     H21518   3.487   1.836   4.299  0.4478  1.9609  1.9627
  881MOL0     H21519   3.601   2.029   4.087  1.4785 -0.6453  0.5664
  881MOL0     H21520   3.426   1.992   4.118 -1.1364 -1.8868  0.4341
  881MOL0     H21521   3.570   1.878   3.912  1.9715  0.3392  0.7209
  881MOL0     H21522   3.642   1.782   4.046 -1.2804 -1.2818  0.8546
  881MOL0     H21523   3.346   1.763   3.983  0.3278 -2.5617 -3.6405
  881MOL0     H21524   3.442   1.666   4.093  3.1224 -0.8967  0.2142
  881MOL0     H21525   3.567   1.603   3.865 -0.3077 -0.4984  3.5962
  881MOL0     H21526   3.414   1.532   3.907 -1.3175  0.8726 -0.7831
  881MOL0     H21527   3.200   1.743   3.843  2.2050  0.1042  1.8576
  881MOL0     H21528   3.159   1.900   3.475  0.0927 -1.5996 -0.7616
  881MOL0     H21529   3.139   1.972   3.644  1.0291  1.3916 -0.6477
  881MOL0     H21530   3.006   1.764   3.709  1.2472 -1.2331 -0.1691
  881MOL0     H21531   2.924   1.863   3.597 -1.3679 -1.8701 -1.2012
  881MOL0     H21532   2.908   1.689   3.443  0.3066 -1.4776  0.0681
  881MOL0     H21533   3.074   1.665   3.446  3.2176 -0.3523  2.5325
  881MOL0     H21534   2.990   1.464   3.518  3.0456 -0.6139  1.5802
  881MOL0     H21535   3.041   1.527   3.667  0.7185 -1.8233 -0.2981
  881MOL0     H21536   2.968   1.340   3.782  0.1938 -0.4113  2.0489
  881MOL0     H21537   2.859   1.030   3.879 -0.3006  0.1512 -1.0207
  881MOL0     H21538   2.908   1.127   4.018  2.4593  0.5054 -0.4647
  881MOL0     H21539   2.994   1.136   3.854 -0.6892 -1.6425 -0.8361
  881MOL0     H21540   2.183   1.122   3.964  0.1808  0.0805  0.2002
  881MOL0     H21541   2.038   1.020   4.112  0.3430  0.3392 -0.6838
  881MOL0     H21542   1.926   0.921   4.261 -0.4352 -1.1349 -1.5896
  881MOL0     H21543   2.007   0.760   4.228 -1.5765 -2.9347  2.3992
  881MOL0     H21544   1.995   0.704   4.453 -0.3462  1.1578  0.8125
  881MOL0     H21545   1.901   0.849   4.489 -0.0074  1.1254 -0.8695
  881MOL0     H21546   1.821   0.665   4.266  1.8336 -1.9511  1.0942
  881MOL0     H21547   1.715   0.780   4.359  0.5360 -0.2976  2.6699
  881MOL0     H21548   1.752   0.668   4.571 -0.1810 -3.1574  3.1642
  881MOL0     H21549   1.812   0.530   4.470 -1.9043 -0.5026  0.2051
  881MOL0     H21550   1.563   0.520   4.522 -3.3574  1.9977 -1.6188
  881MOL0     H21551   1.540   0.659   4.428 -0.3736  1.5525  6.8789
  881MOL0     H21552   1.657   0.396   4.314  0.6291  1.3269  0.8862
  881MOL0     H21553   1.637   0.545   4.220 -1.7143  0.5624 -1.2953
  881MOL0     H21554   1.445   0.400   4.171  5.7932 -2.5077  0.4751
  881MOL0     H21555   1.398   0.554   4.252 -0.5914 -0.3645 -2.2172
  881MOL0     H21556   1.451   0.286   4.390  0.2825  0.5562 -0.6304
  881MOL0     H21557   1.296   0.319   4.318  0.9507 -0.4572 -0.9325
  881MOL0     H21558   2.356   0.907   4.372  0.2402  0.6555  0.3828
  881MOL0     H21559   2.521   1.025   4.224 -0.0544  0.1981  1.4327
  881MOL0     H21560   2.484   1.343   3.856  0.5597  0.4999  2.5504
  881MOL0     H21561   2.569   1.491   3.690  2.2998  0.7285 -2.0178
  881MOL0     H21562   3.193   2.095   4.708  1.6474  0.4656 -1.2152
  881MOL0     H21563   3.069   2.218   4.862  1.9844 -1.9245  2.6397
  881MOL0     H21564   2.878   2.411   5.045  2.0750 -0.5224  1.1170
  881MOL0     H21565   2.665   2.451   5.167 -1.0090 -0.6923 -1.4673
  881MOL0     H21566   2.667   2.787   5.448  0.4490  0.3716  1.3270
  881MOL0     H21567   2.518   2.707   5.490  1.2526 -2.1040  4.4330
  881MOL0     H21568   2.795   2.584   5.477 -1.0678 -2.6781 -2.0815
  881MOL0     H21569   2.666   2.493   5.524  0.1077 -0.2901 -2.7106
  881MOL0     H21570   2.632   2.678   5.721  0.2587  0.2791  2.8486
  881MOL0     H21571   2.785   2.575   5.726  1.0270  0.0479 -3.3035
  881MOL0     H21572   2.821   2.798   5.787  0.3142 -3.2603  0.9716
  881MOL0     H21573   2.758   2.856   5.636 -0.1336 -0.6525 -1.6316
  881MOL0     H21574   3.145   2.758   5.499  0.5099  1.6547  0.7391
  881MOL0     H21575   2.808   2.825   5.296  3.8422 -0.1162  0.9238
  881MOL0     H21576   3.093   2.869   5.261  0.7033 -0.4463 -1.0573
  881MOL0     H21577   3.108   2.855   5.086  0.8697  0.3781  0.8568
  881MOL0     H21578   2.975   2.945   5.159 -0.3889  0.4211 -1.7081
  882MOL0     O21579   8.615   2.985  10.719 -0.2469  0.0182  0.4291
  882MOL0     C21580   8.606   2.920  10.822 -0.0030 -0.3659 -0.0806
  882MOL0     O21581   8.719   2.878  10.892 -0.1428 -0.1587  0.2172
  882MOL0     C21582   8.847   2.884  10.851 -0.3202  1.0192 -0.5869
  882MOL0     C21583   8.955   2.900  10.943 -0.1319  0.1317 -0.8779
  882MOL0     C21584   9.089   2.899  10.901  0.0045 -0.3390 -0.5673
  882MOL0     C21585   9.123   2.887  10.770 -0.2430 -0.6056 -0.4824
  882MOL0     O21586   9.250   2.916  10.720  0.4455  0.3644 -0.3712
  882MOL0     C21587   9.355   2.958  10.808  0.5834 -0.4310  0.7334
  882MOL0     C21588   9.420   2.835  10.876 -0.0243  0.2901  0.7670
  882MOL0     C21589   9.503   2.759  10.772  0.1091 -1.2422  0.4073
  882MOL0     C21590   9.624   2.674  10.836  0.0320  0.9871 -0.5953
  882MOL0     C21591   9.729   2.634  10.733  0.3053  0.6740 -0.2247
  882MOL0     C21592   9.847   2.733  10.748 -0.2542  0.3132  0.8712
  882MOL0     C21593   9.944   2.675  10.856 -0.1649  0.4290  0.3563
  882MOL0     C21594  10.054   2.591  10.789 -0.4823  0.9444 -0.4144
  882MOL0     N21595  10.172   2.671  10.762 -0.3834  0.8315 -0.0866
  882MOL0     C21596  10.247   2.741  10.859  0.3605 -0.4810 -0.1034
  882MOL0     C21597  10.338   2.807  10.776  0.3503  0.8870  0.4581
  882MOL0     C21598  10.440   2.891  10.829 -0.5083  0.5298  0.0508
  882MOL0     C21599  10.570   2.896  10.753 -0.5993  0.2590 -0.7815
  882MOL0     C21600  10.637   2.760  10.741  0.6094 -0.0195 -0.0373
  882MOL0     C21601  10.661   2.690  10.880  0.1558 -0.1231 -0.1356
  882MOL0     O21602  10.734   2.775  10.977  0.1656  0.2145 -0.0412
  882MOL0     C21603  10.875   2.778  10.975  0.0999  0.7673  0.1570
  882MOL0     C21604  10.946   2.695  11.061  0.5527 -0.4512 -0.4003
  882MOL0     C21605  11.084   2.680  11.058 -0.8889 -0.5181 -0.2561
  882MOL0     C21606  11.153   2.577  11.140  0.2868  0.1099 -0.1631
  882MOL0     C21607  11.151   2.767  10.968 -0.2392 -0.5165  0.3549
  882MOL0     C21608  11.297   2.771  10.942 -0.3408  0.3229  0.3143
  882MOL0     O21609  11.339   2.817  10.821  0.4108 -0.6319  0.8512
  882MOL0     C21610  11.479   2.842  10.815 -0.3758 -0.2635  0.2081
  882MOL0     C21611  11.572   2.744  10.786 -0.4100  1.0408  0.2621
  882MOL0     C21612  11.709   2.766  10.810 -0.1451 -0.6158 -0.3838
  882MOL0     C21613  11.756   2.897  10.840  0.2610  0.4703  0.6634
  882MOL0     O21614  11.887   2.935  10.849  0.1360 -0.6271  0.4158
  882MOL0     C21615  11.986   2.835  10.895 -0.2869  0.1503  0.2433
  882MOL0     C21616  12.125   2.886  10.886 -1.1226 -0.2611 -0.5190
  882MOL0     C21617  12.179   2.894  10.746  0.9001 -0.0902 -0.2008
  882MOL0     C21618  12.313   2.973  10.736  0.1071 -0.0524  0.0819
  882MOL0     C21619  12.377   2.960  10.599 -0.5702 -1.0465 -0.5713
  882MOL0     C21620  12.524   3.015  10.614  0.7813  0.6280  1.5370
  882MOL0     C21621  12.592   3.043  10.468  0.4380 -0.0786 -0.8569
  882MOL0     C21622  12.621   2.915  10.389 -0.3697  0.4495  0.2035
  882MOL0    Cl21623  12.724   2.948  10.241  0.2099 -0.2517 -0.0787
  882MOL0     C21624  11.655   2.993  10.863  1.0509 -0.8504 -0.0883
  882MOL0     C21625  11.519   2.971  10.842 -0.1809  0.0912 -0.1730
  882MOL0     O21626  11.373   2.724  11.030 -0.0116 -0.7081  0.2145
  882MOL0     C21627  11.078   2.857  10.890 -0.3794 -0.1408 -1.0494
  882MOL0     C21628  10.938   2.866  10.891 -0.2439  0.4965 -0.5991
  882MOL0     N21629  10.311   2.769  10.651 -0.1589 -0.1953  0.4304
  882MOL0     N21630  10.211   2.693  10.637 -0.1220 -0.4470  0.0347
  882MOL0     C21631   9.018   2.878  10.678  0.1535 -0.5294 -0.2901
  882MOL0     C21632   8.884   2.868  10.715 -0.1542 -0.3323 -0.0287
  882MOL0     C21633   8.469   2.875  10.870 -0.1218  0.5895  0.5490
  882MOL0     C21634   8.356   2.941  10.811  0.2988 -0.2663 -0.4217
  882MOL0     C21635   8.231   2.912  10.867  0.1186  0.3489  0.5606
  882MOL0     C21636   8.213   2.826  10.976 -0.6389 -0.1715  0.3250
  882MOL0     O21637   8.084   2.808  11.007 -0.3592  0.5708  0.0361
  882MOL0     C21638   8.033   2.701  11.094 -0.2261  1.3248  0.4711
  882MOL0     C21639   8.055   2.738  11.245 -0.3212  0.2290  0.7568
  882MOL0     C21640   7.983   2.868  11.290 -0.1081  0.0152 -0.5374
  882MOL0     C21641   8.043   2.910  11.425  0.0423 -0.9411  0.4067
  882MOL0     C21642   7.936   2.990  11.494 -0.4495 -0.9970  0.1707
  882MOL0     C21643   7.853   3.061  11.550  0.5013  0.2213  0.2796
  882MOL0     C21644   8.325   2.753  11.021  0.5038  0.2960 -0.2852
  882MOL0     C21645   8.447   2.776  10.966 -0.4500  0.6072 -0.0036
  882MOL0     C21646   8.564   2.703  11.032  1.2373  0.3161 -0.3124
  882MOL0     H21647   8.934   2.918  11.048 -1.4518 -0.0483 -1.1017
  882MOL0     H21648   9.153   2.914  10.987 -1.2312  0.9945  0.1510
  882MOL0     H21649   9.310   3.033  10.874 -0.9180 -0.0525 -0.6532
  882MOL0     H21650   9.433   3.010  10.752 -2.2376  2.2320 -1.0174
  882MOL0     H21651   9.488   2.871  10.954 -1.9884  1.1604  2.1545
  882MOL0     H21652   9.349   2.771  10.930 -0.6904  1.2350  1.0378
  882MOL0     H21653   9.438   2.683  10.727  0.8914 -1.5339 -0.2684
  882MOL0     H21654   9.544   2.836  10.705  2.6215 -1.9641  0.9824
  882MOL0     H21655   9.663   2.722  10.926  0.5656 -0.6922  0.1054
  882MOL0     H21656   9.576   2.584  10.875 -1.4437  1.8834 -0.2216
  882MOL0     H21657   9.687   2.637  10.632  0.9742  0.2420 -0.5182
  882MOL0     H21658   9.774   2.542  10.771 -1.3080  0.5513  1.5471
  882MOL0     H21659   9.902   2.766  10.659  1.6758 -0.1753  1.8336
  882MOL0     H21660   9.798   2.828  10.770 -1.3122  0.2114 -0.7962
  882MOL0     H21661   9.905   2.608  10.933 -0.9212  1.0020  0.4885
  882MOL0     H21662   9.997   2.755  10.909  0.9535 -0.7198  1.0109
  882MOL0     H21663  10.086   2.514  10.860 -2.7297 -0.1558 -0.5105
  882MOL0     H21664  10.012   2.543  10.700  3.4030  0.2690 -2.0564
  882MOL0     H21665  10.241   2.751  10.967 -3.2501 -1.4461 -0.0958
  882MOL0     H21666  10.457   2.860  10.933 -2.3993 -0.9231 -0.0042
  882MOL0     H21667  10.393   2.989  10.827 -0.3786  0.6488  1.4747
  882MOL0     H21668  10.558   2.931  10.650  1.1900 -2.5706 -2.0600
  882MOL0     H21669  10.637   2.969  10.798  0.4826 -0.9479 -0.3674
  882MOL0     H21670  10.583   2.689  10.679  0.3022 -0.8297  1.1174
  882MOL0     H21671  10.732   2.774  10.690 -0.2169  1.0896 -1.3270
  882MOL0     H21672  10.564   2.670  10.925 -0.4932  2.1752 -0.3576
  882MOL0     H21673  10.718   2.597  10.872  0.2254 -0.0760 -0.1989
  882MOL0     H21674  10.888   2.638  11.133 -1.2361 -1.6915 -2.6796
  882MOL0     H21675  11.229   2.622  11.205  1.0810 -1.4805  0.0805
  882MOL0     H21676  11.204   2.507  11.073 -0.7254 -0.4993 -0.3183
  882MOL0     H21677  11.084   2.521  11.204  2.0969 -2.1055 -0.0100
  882MOL0     H21678  11.522   2.650  10.765 -0.6842  1.6071 -1.9204
  882MOL0     H21679  11.776   2.683  10.793 -1.6645 -1.8025 -0.7985
  882MOL0     H21680  11.971   2.828  11.004 -3.1651  3.0329  0.1882
  882MOL0     H21681  11.978   2.739  10.843  0.8048  1.2503 -2.0942
  882MOL0     H21682  12.136   2.984  10.933 -0.1547  0.5307 -2.3144
  882MOL0     H21683  12.182   2.814  10.945 -1.5628 -1.3700 -1.4090
  882MOL0     H21684  12.111   2.953  10.684 -2.0867 -2.6503  0.3334
  882MOL0     H21685  12.182   2.792  10.706 -0.3533  0.0293 -0.6471
  882MOL0     H21686  12.387   2.941  10.810 -0.1093 -0.4414  0.1318
  882MOL0     H21687  12.287   3.078  10.752 -0.2802  0.0337 -1.0136
  882MOL0     H21688  12.383   2.855  10.571  1.6317 -0.2418 -3.6334
  882MOL0     H21689  12.327   3.024  10.525 -0.0759  1.3965  1.0755
  882MOL0     H21690  12.578   2.937  10.668  0.7131 -0.2975  0.2986
  882MOL0     H21691  12.517   3.105  10.676  1.7933  1.8575 -0.0493
  882MOL0     H21692  12.685   3.098  10.484  1.5458 -1.8024 -1.1465
  882MOL0     H21693  12.531   3.110  10.406 -2.7423 -1.7868  0.1930
  882MOL0     H21694  12.530   2.864  10.356 -0.4596 -0.1540  1.3470
  882MOL0     H21695  12.676   2.848  10.456 -0.1820  0.9203  0.5201
  882MOL0     H21696  11.693   3.092  10.884  0.0991 -0.4612 -0.1600
  882MOL0     H21697  11.453   3.054  10.866 -0.9304 -0.2840 -0.8639
  882MOL0     H21698  11.121   2.919  10.812  0.8626 -0.1018 -0.3527
  882MOL0     H21699  10.876   2.935  10.834  1.1622  1.7579 -0.6765
  882MOL0     H21700   9.051   2.873  10.575 -0.9674  1.1434 -0.7816
  882MOL0     H21701   8.806   2.860  10.640 -0.8133  2.6299  0.2128
  882MOL0     H21702   8.364   3.016  10.733  0.4314  0.2474  0.0837
  882MOL0     H21703   8.140   2.954  10.826 -1.0875 -1.9544  0.6944
  882MOL0     H21704   7.926   2.681  11.084 -0.1863  0.4643  1.5607
  882MOL0     H21705   8.089   2.608  11.085 -0.5258  1.0292  1.5768
  882MOL0     H21706   8.163   2.740  11.259 -0.0485  2.4223 -1.0353
  882MOL0     H21707   8.015   2.653  11.302 -1.6154 -0.7579 -1.4872
  882MOL0     H21708   8.003   2.951  11.221  0.0446  1.4208  1.1193
  882MOL0     H21709   7.874   2.855  11.282  0.2018 -2.1166 -1.9475
  882MOL0     H21710   8.140   2.955  11.402  1.2191 -3.2634  0.4555
  882MOL0     H21711   8.045   2.830  11.500 -1.5508 -0.6313  0.8075
  882MOL0     H21712   7.785   3.140  11.576  2.0711  1.2588  1.3995
  882MOL0     H21713   8.306   2.683  11.102 -1.2247  2.3254  1.1921
  882MOL0     H21714   8.535   2.614  11.088  4.4230 -0.5078  0.2163
  882MOL0     H21715   8.629   2.660  10.955  3.9243 -0.0311  1.9626
  882MOL0     H21716   8.614   2.765  11.107 -0.8865  0.7928  0.7692
  883MOL0     O21717   0.306   0.970   5.837  0.2402  0.2778 -0.5954
  883MOL0     C21718   0.300   0.891   5.748 -0.6553  0.0983  0.1004
  883MOL0     O21719   0.232   0.908   5.633 -0.5467  0.1099 -0.1805
  883MOL0     C21720   0.150   1.018   5.623 -0.4055 -0.6454 -0.5443
  883MOL0     C21721   0.154   1.072   5.497  0.2149  0.0204  0.1876
  883MOL0     C21722   0.060   1.165   5.462 -0.0754 -0.6273 -0.1817
  883MOL0     C21723  -0.030   1.217   5.561  0.2910 -0.6739 -1.3050
  883MOL0     O21724  -0.113   1.328   5.538  0.8217  0.6211  0.3414
  883MOL0     C21725  -0.233   1.312   5.461  0.9026  0.6691 -0.2010
  883MOL0     C21726  -0.345   1.331   5.566  0.3952 -0.0835  0.8052
  883MOL0     C21727  -0.482   1.317   5.496  0.9523 -0.2063  0.4745
  883MOL0     C21728  -0.578   1.320   5.607  0.2551  0.6379  0.6777
  883MOL0     C21729  -0.722   1.333   5.557  0.4349  0.3232  0.3695
  883MOL0     C21730  -0.829   1.287   5.654 -0.7826  0.5158 -0.4525
  883MOL0     C21731  -0.816   1.341   5.792 -1.4259  0.1014 -0.2528
  883MOL0     C21732  -0.920   1.281   5.890  0.7209  0.3463  0.2057
  883MOL0     N21733  -1.060   1.291   5.843 -0.1877  1.0560  0.3768
  883MOL0     C21734  -1.095   1.400   5.771  0.7040  0.6470  0.5384
  883MOL0     C21735  -1.201   1.359   5.695 -0.2394 -0.3114 -0.1720
  883MOL0     C21736  -1.278   1.454   5.602  0.3840  0.4642 -0.2029
  883MOL0     C21737  -1.229   1.457   5.461 -0.2340 -0.0523 -0.7193
  883MOL0     C21738  -1.301   1.587   5.400 -0.7204  0.2921  0.5679
  883MOL0     C21739  -1.239   1.633   5.268  0.3696 -0.1573  1.1279
  883MOL0     O21740  -1.101   1.637   5.286 -0.3108 -0.0863  0.9967
  883MOL0     C21741  -1.024   1.601   5.182 -0.2123  0.2835  0.3998
  883MOL0     C21742  -0.889   1.574   5.212  0.9837 -0.2014 -0.0497
  883MOL0     C21743  -0.799   1.526   5.125 -0.5418 -0.5982  0.5625
  883MOL0     C21744  -0.661   1.487   5.169 -0.1890 -0.5039 -1.3818
  883MOL0     C21745  -0.848   1.515   4.988 -0.5598 -0.1444  0.5662
  883MOL0     C21746  -0.752   1.492   4.865 -0.4540 -0.6259 -1.0659
  883MOL0     O21747  -0.612   1.516   4.898  0.8136  0.1784 -0.0974
  883MOL0     C21748  -0.509   1.462   4.826 -0.0598 -0.3642  0.0606
  883MOL0     C21749  -0.513   1.349   4.743  0.2409  0.1930 -0.1811
  883MOL0     C21750  -0.399   1.302   4.672  0.1694  0.5739  0.7340
  883MOL0     C21751  -0.275   1.353   4.699  0.1300 -0.1124  0.1095
  883MOL0     O21752  -0.166   1.280   4.645  0.3967 -0.6997 -0.8419
  883MOL0     C21753  -0.043   1.343   4.636  0.2465  0.0257  0.3924
  883MOL0     C21754   0.053   1.240   4.574  0.5134 -0.3730  0.2927
  883MOL0     C21755   0.197   1.296   4.563  0.3131  0.1842  0.3855
  883MOL0     C21756   0.286   1.196   4.477 -0.6009  0.6182  0.2315
  883MOL0     C21757   0.439   1.210   4.488 -0.5940 -0.2530  0.1963
  883MOL0     C21758   0.486   1.154   4.619 -0.4626 -0.0872 -0.0381
  883MOL0     C21759   0.639   1.178   4.634 -0.2463  0.7022 -0.5268
  883MOL0     C21760   0.703   1.125   4.757 -0.0716  0.7609  0.4863
  883MOL0    Cl21761   0.659   0.960   4.799  0.1351  0.0389 -0.2622
  883MOL0     C21762  -0.268   1.464   4.791  0.2389 -0.7080  0.7433
  883MOL0     C21763  -0.383   1.521   4.855  0.4516  0.8128  1.3307
  883MOL0     O21764  -0.805   1.469   4.755  0.3260 -0.1686  0.7218
  883MOL0     C21765  -0.981   1.544   4.958  0.7198  0.6866  0.8519
  883MOL0     C21766  -1.066   1.588   5.047  0.2455 -1.3567  0.3709
  883MOL0     N21767  -1.222   1.227   5.723  0.1803 -0.1609  0.1009
  883MOL0     N21768  -1.146   1.187   5.814 -0.2034 -0.7336 -0.4748
  883MOL0     C21769  -0.023   1.160   5.689 -0.3548 -1.1666 -0.0911
  883MOL0     C21770   0.059   1.060   5.719 -0.0383  0.0365 -0.4133
  883MOL0     C21771   0.392   0.766   5.756 -0.2692 -0.1104  0.0758
  883MOL0     C21772   0.446   0.722   5.883  0.1438  0.1320  0.0932
  883MOL0     C21773   0.540   0.619   5.892 -0.8085  0.3289 -0.7896
  883MOL0     C21774   0.569   0.543   5.777 -0.1010  0.4800  0.2150
  883MOL0     O21775   0.664   0.439   5.778  0.0245 -0.0017 -0.0662
  883MOL0     C21776   0.740   0.404   5.894 -0.3812 -0.2452  0.3759
  883MOL0     C21777   0.657   0.323   5.990 -0.0509  0.5999  0.2269
  883MOL0     C21778   0.628   0.185   5.924 -0.4380  0.1382  0.0343
  883MOL0     C21779   0.512   0.180   5.819  0.5408 -1.0463  0.1130
  883MOL0     C21780   0.439   0.063   5.822 -0.5152  0.4472  0.2541
  883MOL0     C21781   0.375  -0.037   5.815 -0.4669  0.6737  0.2383
  883MOL0     C21782   0.514   0.575   5.658  0.4713  0.1676 -0.0357
  883MOL0     C21783   0.433   0.691   5.643 -0.0658  0.1969 -0.3938
  883MOL0     C21784   0.385   0.724   5.507  0.6317 -0.7373  0.4423
  883MOL0     H21785   0.231   1.042   5.427 -0.5310  0.5513 -0.8889
  883MOL0     H21786   0.065   1.212   5.364  4.7308  1.8606  0.9170
  883MOL0     H21787  -0.234   1.208   5.427  2.1436  0.1170  1.3020
  883MOL0     H21788  -0.246   1.377   5.374 -2.4435 -1.4933 -1.4846
  883MOL0     H21789  -0.337   1.251   5.640  0.3135 -1.0903 -0.2519
  883MOL0     H21790  -0.342   1.430   5.611  0.6844  0.5599 -0.5617
  883MOL0     H21791  -0.504   1.404   5.433 -3.2243 -2.3043 -1.3338
  883MOL0     H21792  -0.494   1.231   5.430 -2.3093 -0.6741  1.5322
  883MOL0     H21793  -0.569   1.226   5.663  0.6007  0.5459  0.4691
  883MOL0     H21794  -0.564   1.403   5.676 -2.1878  0.3279  1.6629
  883MOL0     H21795  -0.718   1.266   5.471  0.6289 -0.0482  0.6631
  883MOL0     H21796  -0.749   1.432   5.518 -3.8246 -0.6312  0.4063
  883MOL0     H21797  -0.924   1.309   5.603 -0.4224  1.0389 -0.9153
  883MOL0     H21798  -0.825   1.179   5.671  2.3716  0.8695  1.8964
  883MOL0     H21799  -0.841   1.447   5.783 -5.1976 -0.5517  0.6394
  883MOL0     H21800  -0.718   1.303   5.823 -1.0877  0.5784 -0.7326
  883MOL0     H21801  -0.893   1.176   5.904 -1.0896 -0.0367  1.2311
  883MOL0     H21802  -0.916   1.333   5.987  0.7947  2.5962 -0.9302
  883MOL0     H21803  -1.051   1.499   5.780  1.2899  0.2263  3.1062
  883MOL0     H21804  -1.275   1.553   5.650  1.0367  0.1484  0.4154
  883MOL0     H21805  -1.385   1.434   5.609  0.5327 -0.6795 -0.9687
  883MOL0     H21806  -1.121   1.471   5.474 -0.4546  0.5553  0.7911
  883MOL0     H21807  -1.244   1.366   5.403  0.5988  0.2434 -1.4195
  883MOL0     H21808  -1.406   1.557   5.393 -0.2411 -1.2592 -0.5984
  883MOL0     H21809  -1.295   1.674   5.466  0.8706  2.0969 -1.7649
  883MOL0     H21810  -1.276   1.560   5.196  0.5825 -0.3118  1.1730
  883MOL0     H21811  -1.273   1.731   5.233  1.3526 -0.7750 -1.8828
  883MOL0     H21812  -0.864   1.576   5.318 -0.1062  0.9136  0.2133
  883MOL0     H21813  -0.589   1.569   5.179 -0.7592 -0.1144 -0.2003
  883MOL0     H21814  -0.620   1.397   5.122 -0.0792 -0.9079 -0.5222
  883MOL0     H21815  -0.681   1.449   5.270 -1.3544 -1.1339 -1.8260
  883MOL0     H21816  -0.605   1.292   4.735 -1.2970  2.2801  1.4598
  883MOL0     H21817  -0.408   1.217   4.605 -1.6491  2.1800 -1.1803
  883MOL0     H21818  -0.064   1.433   4.577 -0.2372 -1.4646 -1.8588
  883MOL0     H21819   0.002   1.371   4.732 -0.5230  1.9256  0.2408
  883MOL0     H21820   0.045   1.159   4.647 -1.0089 -0.0566  0.5045
  883MOL0     H21821   0.021   1.209   4.474  4.3984 -2.3565 -0.5638
  883MOL0     H21822   0.233   1.292   4.666 -1.5888  0.6585  1.1114
  883MOL0     H21823   0.207   1.399   4.528 -3.5087  0.9025  0.9107
  883MOL0     H21824   0.242   1.202   4.377 -0.6005  0.3764  0.2173
  883MOL0     H21825   0.268   1.094   4.510 -0.7728  0.1289 -1.3165
  883MOL0     H21826   0.493   1.156   4.409 -3.1779 -3.6905  0.5323
  883MOL0     H21827   0.467   1.315   4.478 -2.9047  0.2570 -1.4535
  883MOL0     H21828   0.469   1.046   4.626 -0.2660 -0.0765  0.8017
  883MOL0     H21829   0.427   1.199   4.699 -0.6064  0.6159 -0.5292
  883MOL0     H21830   0.662   1.285   4.633  0.7155  0.5052 -0.8498
  883MOL0     H21831   0.684   1.132   4.545 -4.2613 -2.6645 -1.1528
  883MOL0     H21832   0.669   1.185   4.842 -6.1554 -1.0877 -0.1997
  883MOL0     H21833   0.810   1.131   4.736  0.0250  2.4513  1.2721
  883MOL0     H21834  -0.174   1.515   4.808  0.3610 -0.4031 -0.6969
  883MOL0     H21835  -0.381   1.608   4.921  0.8490  1.3976  0.5624
  883MOL0     H21836  -1.019   1.534   4.856  1.8720 -2.3203  0.6212
  883MOL0     H21837  -1.165   1.622   5.020  0.5036 -0.2367  0.8036
  883MOL0     H21838  -0.075   1.206   5.773  1.5634  0.1669  0.4565
  883MOL0     H21839   0.067   1.005   5.813 -0.3647  2.5104  1.1690
  883MOL0     H21840   0.427   0.785   5.969 -0.2862 -0.2485  0.2834
  883MOL0     H21841   0.595   0.599   5.983 -1.7727  1.3417  0.0481
  883MOL0     H21842   0.825   0.343   5.862 -0.6176 -1.0220  1.1621
  883MOL0     H21843   0.782   0.489   5.948  1.6969 -0.5089 -0.7398
  883MOL0     H21844   0.568   0.381   6.015 -0.5890  0.7290 -1.7861
  883MOL0     H21845   0.714   0.311   6.082  1.1974 -2.0998 -0.7905
  883MOL0     H21846   0.719   0.150   5.875 -2.0236 -1.4299 -1.9728
  883MOL0     H21847   0.612   0.111   6.003 -0.2163 -0.0496 -0.0961
  883MOL0     H21848   0.556   0.184   5.719  2.0841  0.0676  0.8044
  883MOL0     H21849   0.437   0.260   5.824  1.6979  0.2038 -1.3852
  883MOL0     H21850   0.306  -0.118   5.818  1.0776 -0.6788  1.2068
  883MOL0     H21851   0.516   0.504   5.576 -0.7706  1.4750 -1.2466
  883MOL0     H21852   0.279   0.704   5.488  0.4844  1.4804 -1.4814
  883MOL0     H21853   0.397   0.833   5.509  1.6907 -0.7211  5.0453
  883MOL0     H21854   0.447   0.672   5.434  3.0746  0.4425  1.5600
  884MOL0     O21855   6.480   6.309   0.412 -0.3180 -0.6215 -0.0896
  884MOL0     C21856   6.383   6.259   0.460  0.2765 -0.0574  0.3427
  884MOL0     O21857   6.384   6.154   0.538 -0.4021  0.1304  0.5042
  884MOL0     C21858   6.504   6.094   0.582  0.8921 -0.4989 -0.0566
  884MOL0     C21859   6.576   6.003   0.506 -0.6075  0.2707 -0.3042
  884MOL0     C21860   6.700   5.955   0.549 -0.6392  0.7109 -0.9093
  884MOL0     C21861   6.758   6.002   0.664 -0.7630 -0.1096  0.2792
  884MOL0     O21862   6.882   5.945   0.680 -0.0804 -0.2537  0.1550
  884MOL0     C21863   6.954   5.964   0.800  0.1298 -0.3691  0.2848
  884MOL0     C21864   6.907   5.862   0.908  0.9187 -0.0161  0.5871
  884MOL0     C21865   6.984   5.874   1.041  0.4590  0.0631  0.7941
  884MOL0     C21866   7.111   5.795   1.036 -0.0972  0.3497  0.4018
  884MOL0     C21867   7.177   5.789   1.169  1.4021 -0.0674 -0.4517
  884MOL0     C21868   7.276   5.662   1.176 -0.2951  0.5389  0.1999
  884MOL0     C21869   7.332   5.624   1.317 -0.0589 -0.4774  0.0887
  884MOL0     C21870   7.380   5.478   1.325  0.2751 -0.4517 -0.5421
  884MOL0     N21871   7.481   5.441   1.230 -0.5557 -0.0008 -0.5843
  884MOL0     C21872   7.613   5.494   1.218  0.6792  0.3432  0.2882
  884MOL0     C21873   7.663   5.419   1.111 -0.6959  0.3679 -0.7328
  884MOL0     C21874   7.799   5.448   1.050  0.1919 -0.4529 -0.6965
  884MOL0     C21875   7.884   5.326   1.046 -0.4724  0.7861 -0.2797
  884MOL0     C21876   7.920   5.245   1.171  0.1193 -0.4096 -0.1246
  884MOL0     C21877   8.016   5.313   1.263  0.2421  0.2321  0.1789
  884MOL0     O21878   8.138   5.330   1.196  0.2319 -0.1789  0.0597
  884MOL0     C21879   8.225   5.432   1.225  0.0330 -0.0367 -0.1958
  884MOL0     C21880   8.283   5.436   1.359  0.2693 -0.7161  0.7840
  884MOL0     C21881   8.360   5.548   1.398 -0.8902 -0.3835 -0.1124
  884MOL0     C21882   8.403   5.560   1.542  0.5017  0.0521 -0.2913
  884MOL0     C21883   8.374   5.649   1.297 -0.7040 -1.0837 -0.1112
  884MOL0     C21884   8.447   5.780   1.320  0.3586 -0.3894 -0.6120
  884MOL0     O21885   8.428   5.884   1.228 -0.0086  0.0827  0.4800
  884MOL0     C21886   8.511   5.994   1.239  0.6698 -0.4845  0.5154
  884MOL0     C21887   8.498   6.076   1.354 -0.3801 -0.5105 -0.2969
  884MOL0     C21888   8.565   6.196   1.358 -0.7937 -0.1243 -0.4904
  884MOL0     C21889   8.654   6.233   1.259  0.1158 -1.6020 -0.2530
  884MOL0     O21890   8.709   6.359   1.283 -0.6904 -0.5553  0.7584
  884MOL0     C21891   8.801   6.413   1.179 -0.2243  0.0480  0.6100
  884MOL0     C21892   8.839   6.559   1.233 -1.0333 -0.2955 -0.1476
  884MOL0     C21893   8.936   6.617   1.128 -0.1807  1.0970 -1.2749
  884MOL0     C21894   8.860   6.675   1.012 -0.1760  0.5966  0.1859
  884MOL0     C21895   8.967   6.730   0.915  0.1596  0.0343 -0.5083
  884MOL0     C21896   8.904   6.780   0.790  0.7372 -0.3004  0.5331
  884MOL0     C21897   9.008   6.859   0.714  0.1385  1.0038 -0.2431
  884MOL0     C21898   8.948   6.971   0.629 -0.2615  0.5891 -0.3798
  884MOL0    Cl21899   9.094   7.067   0.571  0.2094  0.1119  0.7671
  884MOL0     C21900   8.665   6.164   1.134  0.1695  0.4013 -0.6793
  884MOL0     C21901   8.586   6.039   1.133 -0.0166 -0.4499 -0.8550
  884MOL0     O21902   8.535   5.783   1.410  0.3131  0.3627  0.7785
  884MOL0     C21903   8.323   5.639   1.162  0.3238  0.1416  0.0345
  884MOL0     C21904   8.251   5.525   1.129 -0.9637  0.3250  0.0132
  884MOL0     N21905   7.575   5.311   1.086  0.1926 -0.1862 -0.2433
  884MOL0     N21906   7.469   5.328   1.157 -0.1303  0.3084  0.2502
  884MOL0     C21907   6.689   6.095   0.743 -0.5988  0.3586 -0.0769
  884MOL0     C21908   6.559   6.137   0.697 -0.1785 -0.3197 -0.1387
  884MOL0     C21909   6.250   6.307   0.423 -0.2245  0.8550  0.0823
  884MOL0     C21910   6.141   6.220   0.443 -0.1243  0.1711 -0.3258
  884MOL0     C21911   6.011   6.245   0.408  0.3229 -0.4571  0.2413
  884MOL0     C21912   5.981   6.369   0.349 -0.2709  0.4633 -0.3225
  884MOL0     O21913   5.852   6.398   0.317 -0.0197 -0.7362 -0.6312
  884MOL0     C21914   5.819   6.418   0.180 -0.4905  0.9006 -1.1136
  884MOL0     C21915   5.671   6.409   0.159  0.0514  0.4508  0.2647
  884MOL0     C21916   5.640   6.404   0.009  1.0170  0.4027 -0.1019
  884MOL0     C21917   5.495   6.365  -0.028 -1.0254 -0.0180  0.2304
  884MOL0     C21918   5.487   6.358  -0.174 -0.6108 -0.8062 -0.4052
  884MOL0     C21919   5.492   6.352  -0.295 -0.3932  0.9764 -0.2142
  884MOL0     C21920   6.083   6.459   0.326 -0.0336 -0.7129  0.3332
  884MOL0     C21921   6.216   6.432   0.364 -0.2649 -0.0223  0.0726
  884MOL0     C21922   6.315   6.546   0.357 -0.7534 -0.2803 -0.2193
  884MOL0     H21923   6.542   5.965   0.411 -0.8164  1.4351 -0.7045
  884MOL0     H21924   6.754   5.874   0.502 -1.7489 -3.8250  4.4704
  884MOL0     H21925   6.943   6.069   0.829 -0.6206 -0.4517  0.3029
  884MOL0     H21926   7.061   5.957   0.777  0.2068 -0.3035  0.6086
  884MOL0     H21927   6.798   5.859   0.912  0.6074  2.7391 -2.0992
  884MOL0     H21928   6.930   5.769   0.855 -1.4047  1.7985 -4.1979
  884MOL0     H21929   7.003   5.982   1.044  0.8421  0.3050 -3.7544
  884MOL0     H21930   6.924   5.840   1.126 -1.7945 -0.0027 -0.7358
  884MOL0     H21931   7.108   5.694   0.995  0.5017  0.3256  0.4106
  884MOL0     H21932   7.171   5.848   0.961 -0.9537 -1.0421 -1.3500
  884MOL0     H21933   7.104   5.772   1.248 -3.4267  0.1059 -4.3484
  884MOL0     H21934   7.235   5.878   1.196 -0.0450 -0.0136  2.9256
  884MOL0     H21935   7.207   5.581   1.150 -0.7983  1.2424 -0.7339
  884MOL0     H21936   7.359   5.679   1.107 -0.0572 -0.6511  0.1756
  884MOL0     H21937   7.258   5.642   1.396  0.0562 -0.4564  0.1918
  884MOL0     H21938   7.420   5.684   1.342  0.1821 -0.3558 -1.0037
  884MOL0     H21939   7.418   5.464   1.426  0.9996 -0.8831 -0.8690
  884MOL0     H21940   7.289   5.417   1.320 -0.1074 -0.1623  1.8430
  884MOL0     H21941   7.663   5.566   1.281  0.9586  1.9069 -1.6194
  884MOL0     H21942   7.849   5.522   1.113  0.4516  0.7860 -2.2775
  884MOL0     H21943   7.786   5.486   0.948  1.5327 -0.1031 -0.7592
  884MOL0     H21944   7.843   5.265   0.965  3.9005  0.5459 -2.5676
  884MOL0     H21945   7.973   5.374   1.005  0.2881 -0.2244  0.1716
  884MOL0     H21946   7.832   5.217   1.231 -2.1291  0.7105 -2.6961
  884MOL0     H21947   7.968   5.151   1.141 -2.3739 -0.9710 -2.7746
  884MOL0     H21948   7.969   5.405   1.299 -0.3362 -0.2637  0.7069
  884MOL0     H21949   8.023   5.254   1.355 -2.4827  0.5894  0.6850
  884MOL0     H21950   8.259   5.358   1.432 -2.4516  1.1562  2.0338
  884MOL0     H21951   8.369   5.473   1.598 -1.4458 -0.6002 -2.3226
  884MOL0     H21952   8.379   5.655   1.592  1.2124  0.6333 -1.0319
  884MOL0     H21953   8.511   5.552   1.551  0.3567 -5.6488  0.1243
  884MOL0     H21954   8.423   6.055   1.429  0.3450  1.8197  1.1741
  884MOL0     H21955   8.553   6.268   1.438 -1.4917 -0.2878 -0.4382
  884MOL0     H21956   8.889   6.353   1.155 -0.5338 -0.0540 -0.2842
  884MOL0     H21957   8.735   6.409   1.092 -0.4144  0.3705  0.7382
  884MOL0     H21958   8.751   6.622   1.250 -1.0874  0.0884 -1.7241
  884MOL0     H21959   8.890   6.541   1.328 -1.7861 -0.4448  0.2384
  884MOL0     H21960   9.009   6.542   1.098 -0.8866  0.3879 -1.2662
  884MOL0     H21961   8.976   6.705   1.177 -0.6934 -2.4974  7.2565
  884MOL0     H21962   8.777   6.741   1.037 -0.6282  0.8638 -1.8513
  884MOL0     H21963   8.804   6.597   0.959  0.1960  0.7909 -0.4987
  884MOL0     H21964   9.004   6.812   0.977 -2.0046 -2.0980  4.1142
  884MOL0     H21965   9.045   6.656   0.895 -0.8016 -0.1412 -4.3418
  884MOL0     H21966   8.824   6.846   0.824 -1.2186 -1.6923 -1.1447
  884MOL0     H21967   8.854   6.707   0.726 -1.8516  2.5085 -0.9416
  884MOL0     H21968   9.052   6.781   0.651  1.5820  0.7394  1.0127
  884MOL0     H21969   9.079   6.908   0.782  1.1779  1.3855 -1.5749
  884MOL0     H21970   8.875   7.023   0.691  0.2473 -0.0458  0.7740
  884MOL0     H21971   8.905   6.938   0.534  1.1400  0.0107 -0.8555
  884MOL0     H21972   8.717   6.199   1.045  0.7258  3.6358  0.7931
  884MOL0     H21973   8.580   5.980   1.041 -0.5957  2.4124 -2.7929
  884MOL0     H21974   8.348   5.720   1.094  1.3883  0.5402  0.8652
  884MOL0     H21975   8.214   5.490   1.032  0.2308 -1.4215  0.1330
  884MOL0     H21976   6.726   6.140   0.835  2.0077  0.6211 -1.1810
  884MOL0     H21977   6.510   6.217   0.752 -0.5996 -1.5716  1.3902
  884MOL0     H21978   6.157   6.130   0.501 -2.3218 -0.9289 -1.3339
  884MOL0     H21979   5.921   6.187   0.423  0.8955 -1.0881  1.3013
  884MOL0     H21980   5.862   6.509   0.139  1.5479  0.3682 -0.2890
  884MOL0     H21981   5.873   6.341   0.125  0.9676  0.0402  1.3518
  884MOL0     H21982   5.623   6.500   0.198 -0.4890 -0.2124  1.1853
  884MOL0     H21983   5.631   6.319   0.206 -1.6258  1.2335  0.4069
  884MOL0     H21984   5.660   6.500  -0.040 -1.6049  0.9758 -0.1870
  884MOL0     H21985   5.703   6.330  -0.041 -2.2799 -2.3292 -0.6165
  884MOL0     H21986   5.415   6.429   0.012 -2.4867  0.1182 -2.6049
  884MOL0     H21987   5.475   6.264   0.010  0.3507 -0.0419  0.9409
  884MOL0     H21988   5.494   6.340  -0.402  0.9802 -0.4788 -0.0578
  884MOL0     H21989   6.056   6.548   0.270 -2.6955 -1.3279  0.5142
  884MOL0     H21990   6.261   6.641   0.364 -1.6272 -0.5848 -2.2000
  884MOL0     H21991   6.384   6.538   0.442 -0.2371  1.6124 -0.4175
  884MOL0     H21992   6.375   6.545   0.266  0.5703  0.3394  0.6041
  885MOL0     O21993   7.591   6.739   4.716  0.3017  0.3954  0.5064
  885MOL0     C21994   7.504   6.677   4.788 -0.7400 -0.2038  0.1134
  885MOL0     O21995   7.508   6.542   4.825 -0.0884 -0.2958  0.2829
  885MOL0     C21996   7.616   6.471   4.773  0.8698  0.3051  0.1995
  885MOL0     C21997   7.736   6.470   4.838  0.8191 -0.2584  0.3423
  885MOL0     C21998   7.837   6.399   4.788 -1.0299  0.0533  0.5049
  885MOL0     C21999   7.828   6.309   4.682 -0.5314 -0.1318  0.9516
  885MOL0     O22000   7.941   6.237   4.641  0.0983  0.0702  0.0321
  885MOL0     C22001   7.973   6.254   4.499 -0.7750 -0.5819 -0.8409
  885MOL0     C22002   8.083   6.155   4.454  0.0966  0.0706 -0.0901
  885MOL0     C22003   8.152   6.201   4.319 -0.2987  0.0879 -0.3011
  885MOL0     C22004   8.275   6.110   4.272  0.3170 -0.2912 -0.4324
  885MOL0     C22005   8.311   6.149   4.128  0.0925  0.0804  0.1171
  885MOL0     C22006   8.449   6.097   4.080  0.0594 -0.1188 -1.0869
  885MOL0     C22007   8.571   6.174   4.151  0.1731  0.6165  0.0264
  885MOL0     C22008   8.704   6.123   4.086 -0.0488 -1.1423 -0.0363
  885MOL0     N22009   8.819   6.173   4.167  0.4149  0.2106  0.4616
  885MOL0     C22010   8.862   6.306   4.169 -0.2409 -0.3815  0.9359
  885MOL0     C22011   8.974   6.320   4.242  0.9260  0.3955 -0.0810
  885MOL0     C22012   9.031   6.450   4.287  0.1654 -0.3795 -0.4655
  885MOL0     C22013   9.190   6.446   4.273  1.2406 -0.3524 -0.1583
  885MOL0     C22014   9.267   6.565   4.346  0.1551 -1.0095 -0.2119
  885MOL0     C22015   9.213   6.713   4.334  0.3826  0.1294  0.7246
  885MOL0     O22016   9.283   6.792   4.425 -0.3297  0.3440  0.3022
  885MOL0     C22017   9.221   6.912   4.455  0.5180 -0.0801 -0.1748
  885MOL0     C22018   9.217   6.961   4.590 -0.2297  0.2420  0.0092
  885MOL0     C22019   9.173   7.090   4.632  1.7656  0.6243 -0.1059
  885MOL0     C22020   9.183   7.121   4.778  0.2905 -0.0011 -0.0018
  885MOL0     C22021   9.117   7.172   4.530 -0.1409 -0.4706  0.5431
  885MOL0     C22022   9.070   7.307   4.547  0.4114 -0.0851  0.3929
  885MOL0     O22023   9.122   7.402   4.457  0.7395 -0.1764 -1.1745
  885MOL0     C22024   9.059   7.529   4.439 -0.6728  0.6340  0.4231
  885MOL0     C22025   9.128   7.636   4.381 -0.5942 -0.0445 -0.5605
  885MOL0     C22026   9.054   7.750   4.347 -0.3915 -0.5202 -0.3048
  885MOL0     C22027   8.919   7.766   4.361  0.1224 -1.0424 -0.7415
  885MOL0     O22028   8.856   7.873   4.309  0.1885  0.5325  0.3336
  885MOL0     C22029   8.720   7.912   4.343  0.1606  0.1062 -0.9469
  885MOL0     C22030   8.722   7.961   4.489  0.0702 -0.2450 -0.1533
  885MOL0     C22031   8.595   8.055   4.514 -0.4432  0.6105  0.2452
  885MOL0     C22032   8.461   7.979   4.497 -0.1074 -0.3510  0.2433
  885MOL0     C22033   8.349   8.067   4.538  0.2523  0.1746  0.0411
  885MOL0     C22034   8.313   8.190   4.461  0.5338  0.2458 -0.5592
  885MOL0     C22035   8.179   8.242   4.506 -0.2551 -0.5825  0.7883
  885MOL0     C22036   8.176   8.378   4.575  0.4872  0.0586 -0.3279
  885MOL0    Cl22037   8.242   8.497   4.458 -0.4962  0.1782  0.4363
  885MOL0     C22038   8.853   7.660   4.425  1.0272 -0.1177  0.3012
  885MOL0     C22039   8.921   7.546   4.454 -0.7112  0.3021 -0.5024
  885MOL0     O22040   8.985   7.318   4.637  0.2645 -0.9194 -0.5118
  885MOL0     C22041   9.116   7.130   4.396  1.0332 -0.2242 -0.6874
  885MOL0     C22042   9.164   7.000   4.357  0.3597  0.0422 -0.0369
  885MOL0     N22043   8.999   6.187   4.283 -0.2311  0.4299  0.0661
  885MOL0     N22044   8.912   6.105   4.231 -0.0122  0.4823  0.3373
  885MOL0     C22045   7.707   6.311   4.612 -0.7788  0.0158 -0.6055
  885MOL0     C22046   7.596   6.384   4.662 -1.2963 -0.5389 -0.1673
  885MOL0     C22047   7.399   6.762   4.853 -0.5606  0.9375  0.3360
  885MOL0     C22048   7.363   6.884   4.791  0.0116  0.8456  0.0768
  885MOL0     C22049   7.248   6.965   4.839  0.2261  0.7698  0.9137
  885MOL0     C22050   7.193   6.930   4.960  0.1678 -0.1088 -0.1928
  885MOL0     O22051   7.088   7.004   5.011  0.0499  0.1792 -0.2637
  885MOL0     C22052   7.067   7.014   5.153  0.5397 -0.2585  0.0812
  885MOL0     C22053   6.943   6.931   5.196 -0.4314 -0.2207 -0.5658
  885MOL0     C22054   6.910   6.910   5.343 -0.0386  0.5312 -0.5484
  885MOL0     C22055   7.014   6.855   5.442 -0.1710 -0.2160 -0.1390
  885MOL0     C22056   7.052   6.714   5.418  0.0026  0.5405 -0.0919
  885MOL0     C22057   7.089   6.597   5.398  0.2409  0.4993  0.0581
  885MOL0     C22058   7.244   6.819   5.026  0.0249 -0.0588  0.2469
  885MOL0     C22059   7.342   6.733   4.977  0.8640  0.1682  0.1858
  885MOL0     C22060   7.389   6.626   5.072 -0.7858 -0.0179  0.4664
  885MOL0     H22061   7.749   6.539   4.920  1.2159 -0.7712  0.7155
  885MOL0     H22062   7.933   6.410   4.838 -1.5527  1.3190  1.2796
  885MOL0     H22063   7.994   6.361   4.501 -0.2133 -0.6320 -2.2895
  885MOL0     H22064   7.887   6.249   4.432 -0.4526  4.8895 -2.1490
  885MOL0     H22065   8.156   6.145   4.535  1.1806  2.2473 -0.7150
  885MOL0     H22066   8.040   6.058   4.428  0.0856  0.1881 -0.5166
  885MOL0     H22067   8.078   6.185   4.240  1.5867 -0.8482 -1.9693
  885MOL0     H22068   8.184   6.305   4.325 -1.1091  0.2630  3.6209
  885MOL0     H22069   8.351   6.117   4.350  0.1516 -1.2824 -0.1588
  885MOL0     H22070   8.249   6.004   4.268  0.5289 -0.3486 -0.3062
  885MOL0     H22071   8.318   6.258   4.118 -3.3866  0.4408  0.3595
  885MOL0     H22072   8.222   6.113   4.075 -1.8333 -1.6680  4.1012
  885MOL0     H22073   8.459   5.990   4.103  1.6539  0.3870  0.8657
  885MOL0     H22074   8.465   6.108   3.972  2.2585 -1.5563 -0.9651
  885MOL0     H22075   8.577   6.157   4.259  1.7485  0.0182 -0.1241
  885MOL0     H22076   8.558   6.282   4.144  2.7487  1.1900  2.3712
  885MOL0     H22077   8.707   6.013   4.086  0.3627 -1.1432 -1.0597
  885MOL0     H22078   8.710   6.150   3.980 -2.4922 -1.9715 -0.4470
  885MOL0     H22079   8.812   6.387   4.118  0.2695 -0.0307  0.9873
  885MOL0     H22080   9.010   6.450   4.395  3.4237 -2.4236  0.2994
  885MOL0     H22081   8.984   6.530   4.230  2.0993  1.9158  0.9720
  885MOL0     H22082   9.237   6.353   4.308  1.8340  0.0955  0.2625
  885MOL0     H22083   9.214   6.451   4.167  1.7253 -2.1163 -0.1655
  885MOL0     H22084   9.273   6.527   4.448  1.0335 -1.0657 -0.2738
  885MOL0     H22085   9.367   6.561   4.302  1.3672  0.5966  2.2072
  885MOL0     H22086   9.229   6.751   4.232  2.0694 -2.5476 -0.1117
  885MOL0     H22087   9.108   6.716   4.363 -0.5172  0.3022 -2.2080
  885MOL0     H22088   9.272   6.892   4.654  3.1284  3.5561  1.0245
  885MOL0     H22089   9.103   7.065   4.828 -1.1483  2.0048  0.0702
  885MOL0     H22090   9.168   7.227   4.798  1.1867  0.3968 -1.3141
  885MOL0     H22091   9.278   7.094   4.826  0.6217  3.2940  1.4603
  885MOL0     H22092   9.235   7.635   4.368 -0.4182  2.0180  0.3966
  885MOL0     H22093   9.111   7.829   4.299 -1.2571  2.2577  2.8490
  885MOL0     H22094   8.696   7.989   4.269 -1.0760  0.1551 -0.5186
  885MOL0     H22095   8.643   7.834   4.341 -1.9072  1.8020  2.4305
  885MOL0     H22096   8.728   7.875   4.556 -2.9301  0.2658  0.9383
  885MOL0     H22097   8.812   8.019   4.509 -0.5895  0.1700  1.8083
  885MOL0     H22098   8.593   8.148   4.456 -4.8476  0.7479  0.2790
  885MOL0     H22099   8.597   8.095   4.616 -0.8082  0.1771  0.4267
  885MOL0     H22100   8.465   7.900   4.572 -1.2818 -0.4445  0.2315
  885MOL0     H22101   8.449   7.938   4.396 -0.5375  0.4613 -0.0412
  885MOL0     H22102   8.260   8.002   4.535 -0.3669  1.0087 -0.0037
  885MOL0     H22103   8.357   8.095   4.644 -1.9333  1.7682 -0.1428
  885MOL0     H22104   8.302   8.168   4.355  1.9369  2.3784 -1.1896
  885MOL0     H22105   8.388   8.268   4.475  0.7275 -0.3520  2.7328
  885MOL0     H22106   8.138   8.173   4.579  1.9282 -2.5137  0.3131
  885MOL0     H22107   8.107   8.256   4.425 -0.3042  0.0996  0.9428
  885MOL0     H22108   8.243   8.352   4.657 -0.4449 -1.0702  0.1079
  885MOL0     H22109   8.076   8.412   4.602 -0.2197  1.2612 -3.9399
  885MOL0     H22110   8.746   7.664   4.445  0.9959 -1.3024  0.4521
  885MOL0     H22111   8.860   7.466   4.496  0.9916 -1.4971 -1.2827
  885MOL0     H22112   9.078   7.195   4.318 -1.3674 -3.0408 -2.0736
  885MOL0     H22113   9.163   6.958   4.257 -0.6629 -0.8672  0.3379
  885MOL0     H22114   7.690   6.243   4.530  3.1252 -3.4814  1.1071
  885MOL0     H22115   7.495   6.389   4.625 -0.7605 -1.7652 -1.9074
  885MOL0     H22116   7.408   6.906   4.695  2.1681  1.5101  1.1682
  885MOL0     H22117   7.208   7.051   4.786 -0.9644  0.8980  1.9741
  885MOL0     H22118   7.165   6.993   5.197  1.5996 -0.0175 -2.0235
  885MOL0     H22119   7.042   7.119   5.166 -1.2836 -0.8333  1.7331
  885MOL0     H22120   6.964   6.830   5.158  0.8927 -1.3922  2.9206
  885MOL0     H22121   6.855   6.973   5.145  0.0601  0.9969 -0.4430
  885MOL0     H22122   6.876   7.006   5.383 -1.7351 -0.3508  0.2477
  885MOL0     H22123   6.824   6.844   5.355  2.4300 -3.0097 -0.6667
  885MOL0     H22124   6.964   6.873   5.537 -0.8702 -0.0902 -0.5199
  885MOL0     H22125   7.108   6.911   5.450 -0.4960  0.0762  2.5767
  885MOL0     H22126   7.114   6.495   5.377  0.6547  1.3547 -4.8972
  885MOL0     H22127   7.185   6.803   5.115 -0.0926 -0.2478  0.1352
  885MOL0     H22128   7.374   6.525   5.032  0.3399 -0.0984  0.2072
  885MOL0     H22129   7.497   6.613   5.088 -0.8758 -1.9823 -0.2962
  885MOL0     H22130   7.349   6.649   5.171  2.2544  1.8262  1.4148
  886MOL0     O22131   4.844  11.049   2.457 -0.3600 -0.0669 -0.1575
  886MOL0     C22132   4.771  11.009   2.554 -0.9134 -0.3819  0.5942
  886MOL0     O22133   4.775  11.066   2.676  0.1989 -0.4449 -0.9489
  886MOL0     C22134   4.903  11.119   2.703  0.4071  0.0665 -0.1005
  886MOL0     C22135   5.012  11.039   2.741  0.3996 -0.1597  1.2897
  886MOL0     C22136   5.136  11.088   2.767  0.0165 -0.4490  0.5589
  886MOL0     C22137   5.156  11.224   2.753  0.0126 -0.4025 -0.0556
  886MOL0     O22138   5.275  11.272   2.786  0.1194 -0.1313  0.2985
  886MOL0     C22139   5.373  11.256   2.682  0.5816 -0.4814 -0.7399
  886MOL0     C22140   5.513  11.323   2.733 -1.5755 -0.4531  0.0856
  886MOL0     C22141   5.633  11.317   2.640 -0.5126 -0.8486  0.4051
  886MOL0     C22142   5.763  11.316   2.723 -0.3358  0.4144 -0.2162
  886MOL0     C22143   5.888  11.306   2.628 -0.7774  0.3293 -0.2907
  886MOL0     C22144   5.998  11.224   2.696  0.9097  0.1638 -0.2596
  886MOL0     C22145   6.136  11.238   2.624 -0.1614  0.1643 -1.0242
  886MOL0     C22146   6.240  11.159   2.700  0.0966 -0.1370  0.5026
  886MOL0     N22147   6.365  11.148   2.624 -0.4331 -0.3010 -0.0078
  886MOL0     C22148   6.459  11.247   2.614  0.3730 -0.0340 -0.4215
  886MOL0     C22149   6.555  11.196   2.526  0.4106 -0.2410 -1.1045
  886MOL0     C22150   6.684  11.260   2.478 -0.4786  0.3072 -0.4367
  886MOL0     C22151   6.663  11.407   2.456 -0.1721 -0.7250  0.5331
  886MOL0     C22152   6.568  11.431   2.333  0.3135 -0.2417 -0.6149
  886MOL0     C22153   6.563  11.578   2.297 -0.2487  0.1657 -0.4611
  886MOL0     O22154   6.450  11.616   2.199 -0.9203  0.0178 -0.0688
  886MOL0     C22155   6.323  11.608   2.227  0.0714  0.0834 -0.8886
  886MOL0     C22156   6.227  11.653   2.132 -0.9249 -0.3261  0.3170
  886MOL0     C22157   6.085  11.641   2.147 -0.4504  0.0085 -0.6474
  886MOL0     C22158   5.993  11.671   2.033 -0.2109  0.0702 -0.0183
  886MOL0     C22159   6.040  11.591   2.273 -0.1399  0.3301 -0.4603
  886MOL0     C22160   5.893  11.594   2.318  0.1073 -0.0091 -0.5813
  886MOL0     O22161   5.880  11.652   2.438 -0.1104 -1.5193 -0.1815
  886MOL0     C22162   5.757  11.673   2.491 -0.2829  0.2053 -0.4092
  886MOL0     C22163   5.632  11.622   2.446 -0.1282  0.3868 -0.2132
  886MOL0     C22164   5.511  11.658   2.516  0.6933  0.2620 -0.0439
  886MOL0     C22165   5.513  11.709   2.648 -0.1794 -0.1825 -0.1228
  886MOL0     O22166   5.419  11.703   2.741 -0.1833  0.5167  0.1846
  886MOL0     C22167   5.289  11.652   2.716  0.5577 -0.3115 -0.2334
  886MOL0     C22168   5.191  11.699   2.818  0.2006  0.4775 -0.5543
  886MOL0     C22169   5.208  11.634   2.960 -0.7752  0.1797  0.2080
  886MOL0     C22170   5.263  11.744   3.058 -0.7014  0.1247  0.0599
  886MOL0     C22171   5.313  11.674   3.187 -0.1352 -0.5346 -0.0390
  886MOL0     C22172   5.206  11.612   3.272  0.2459 -0.3575  0.8561
  886MOL0     C22173   5.263  11.559   3.400  0.4840 -0.0172  0.5672
  886MOL0     C22174   5.143  11.511   3.481 -0.2430  0.1677  0.0975
  886MOL0    Cl22175   5.200  11.461   3.634 -0.0735  0.1635 -0.4264
  886MOL0     C22176   5.637  11.755   2.690  0.4206 -0.2408  0.0438
  886MOL0     C22177   5.756  11.735   2.611 -0.2457 -0.3595  0.5122
  886MOL0     O22178   5.810  11.540   2.246  1.4893 -0.5785 -0.2213
  886MOL0     C22179   6.135  11.548   2.368  0.1812  0.3999 -1.0433
  886MOL0     C22180   6.272  11.558   2.350  0.1545 -0.0020 -0.3761
  886MOL0     N22181   6.507  11.077   2.473 -0.0501  1.1152  0.6706
  886MOL0     N22182   6.399  11.048   2.533  0.2301  0.0994 -1.1070
  886MOL0     C22183   5.048  11.315   2.730 -0.0464 -0.2178 -0.0407
  886MOL0     C22184   4.924  11.255   2.710  1.2211 -0.3109  0.3693
  886MOL0     C22185   4.682  10.888   2.523 -1.3291 -0.0705 -0.1864
  886MOL0     C22186   4.676  10.838   2.390 -0.3723 -0.4130  0.2077
  886MOL0     C22187   4.590  10.727   2.354  0.3988  0.9461  0.3362
  886MOL0     C22188   4.496  10.687   2.448  0.1659  0.3960 -0.4500
  886MOL0     O22189   4.387  10.602   2.421  0.0046 -0.1637  0.3200
  886MOL0     C22190   4.306  10.647   2.302  0.5980 -0.9268 -0.4743
  886MOL0     C22191   4.222  10.524   2.248 -1.0416  0.7679  0.4776
  886MOL0     C22192   4.319  10.400   2.241 -0.7340  0.2217  0.4579
  886MOL0     C22193   4.258  10.299   2.145  0.3488 -0.2230 -0.4093
  886MOL0     C22194   4.119  10.254   2.168 -0.1749 -0.3228  0.1937
  886MOL0     C22195   3.997  10.215   2.169  0.3945 -1.6652  0.7440
  886MOL0     C22196   4.504  10.730   2.579  0.7443  0.0177 -0.7600
  886MOL0     C22197   4.601  10.821   2.624 -0.0905  0.0336 -0.8452
  886MOL0     C22198   4.592  10.860   2.766 -0.6227  0.5802 -0.2552
  886MOL0     H22199   4.989  10.933   2.746 -1.3123  0.1010  0.0241
  886MOL0     H22200   5.210  11.013   2.792  1.8227 -0.2307 -3.3495
  886MOL0     H22201   5.341  11.304   2.589  1.1380  0.3852 -0.5010
  886MOL0     H22202   5.389  11.151   2.659 -0.1618 -0.8414  0.3217
  886MOL0     H22203   5.490  11.429   2.747  1.1418  0.6740 -2.5942
  886MOL0     H22204   5.540  11.274   2.827 -1.3199 -2.4863 -0.9882
  886MOL0     H22205   5.633  11.225   2.580  1.7259 -0.3933 -0.3702
  886MOL0     H22206   5.646  11.409   2.581  0.6406 -2.0323 -1.2927
  886MOL0     H22207   5.759  11.400   2.793 -0.5391 -0.4680  0.8525
  886MOL0     H22208   5.759  11.230   2.790  0.9198  0.8402  0.4212
  886MOL0     H22209   5.935  11.400   2.598 -0.9901  0.6892  0.4820
  886MOL0     H22210   5.863  11.253   2.535  2.3551  0.6819 -1.4456
  886MOL0     H22211   6.010  11.258   2.799  2.0533 -1.0692  0.0252
  886MOL0     H22212   5.968  11.120   2.705 -0.0396  0.5322  1.2791
  886MOL0     H22213   6.179  11.338   2.614 -1.3250  0.9009  0.8052
  886MOL0     H22214   6.130  11.199   2.522 -1.6880 -2.8280  0.0799
  886MOL0     H22215   6.254  11.217   2.792  2.7447  1.8853 -1.0058
  886MOL0     H22216   6.208  11.056   2.719 -0.6084 -0.2864 -1.3117
  886MOL0     H22217   6.466  11.343   2.665 -1.5497 -0.5220  0.8733
  886MOL0     H22218   6.739  11.213   2.395  0.1553  0.5929 -0.1877
  886MOL0     H22219   6.745  11.257   2.568  0.2529 -0.7477 -0.9425
  886MOL0     H22220   6.616  11.461   2.539 -0.8181  0.5838 -0.6415
  886MOL0     H22221   6.750  11.470   2.434 -1.3604  0.1848 -1.9086
  886MOL0     H22222   6.607  11.374   2.248 -0.5781 -3.6150  1.0326
  886MOL0     H22223   6.472  11.383   2.354  2.0700 -2.5532  3.3660
  886MOL0     H22224   6.553  11.632   2.392 -1.9682 -0.3191 -0.3199
  886MOL0     H22225   6.657  11.616   2.256  1.0659  0.2950  2.4770
  886MOL0     H22226   6.257  11.691   2.035  0.2963 -0.4599  0.6310
  886MOL0     H22227   5.907  11.730   2.069  1.0240  1.4012  0.8729
  886MOL0     H22228   5.976  11.576   1.981  0.5037 -0.0429 -0.0453
  886MOL0     H22229   6.055  11.727   1.962 -0.8660 -0.4521 -1.0332
  886MOL0     H22230   5.613  11.584   2.346 -3.1011  0.3220  0.2788
  886MOL0     H22231   5.418  11.616   2.480  0.0283  0.6985  1.1012
  886MOL0     H22232   5.257  11.677   2.614 -2.6773  3.1496  1.3880
  886MOL0     H22233   5.293  11.542   2.714 -0.6005 -0.3830  0.2599
  886MOL0     H22234   5.203  11.807   2.812  0.7434  0.3291 -3.1703
  886MOL0     H22235   5.094  11.669   2.777 -0.1719 -1.4509  1.5234
  886MOL0     H22236   5.266  11.542   2.959 -1.3425 -0.3268  3.1798
  886MOL0     H22237   5.104  11.613   2.989 -0.7559 -0.8010 -0.3939
  886MOL0     H22238   5.191  11.826   3.069 -0.2923  0.5425 -0.3325
  886MOL0     H22239   5.352  11.786   3.009 -0.3092 -2.9664 -2.1993
  886MOL0     H22240   5.387  11.596   3.163  0.6934  0.2419 -0.0738
  886MOL0     H22241   5.361  11.746   3.253 -2.8333  1.2097  0.1527
  886MOL0     H22242   5.151  11.528   3.228  1.0371 -1.1081  1.2646
  886MOL0     H22243   5.126  11.677   3.307 -0.2688 -0.9991  0.9067
  886MOL0     H22244   5.314  11.646   3.441 -1.0032  0.6001  1.1764
  886MOL0     H22245   5.336  11.478   3.386 -0.8152 -1.1333 -0.0020
  886MOL0     H22246   5.091  11.425   3.438 -1.2748  0.5046  0.6331
  886MOL0     H22247   5.063  11.586   3.489 -2.0757 -1.3588 -2.3398
  886MOL0     H22248   5.646  11.789   2.793  0.2001  1.2730 -0.4231
  886MOL0     H22249   5.849  11.781   2.644  0.4116 -0.0233 -1.6310
  886MOL0     H22250   6.106  11.501   2.462  0.1758 -0.5909 -1.5340
  886MOL0     H22251   6.342  11.527   2.427  1.0440 -2.6289 -2.0903
  886MOL0     H22252   5.051  11.423   2.741 -1.0110 -0.2048  0.2601
  886MOL0     H22253   4.841  11.323   2.695  0.9474 -1.3728 -4.6183
  886MOL0     H22254   4.742  10.880   2.314 -0.8576  0.6783  0.3553
  886MOL0     H22255   4.580  10.694   2.252  0.0920  1.1516  0.2991
  886MOL0     H22256   4.245  10.735   2.324  1.6351 -0.5955  1.2603
  886MOL0     H22257   4.361  10.666   2.209 -1.3933 -1.1352 -1.7596
  886MOL0     H22258   4.182  10.545   2.148 -1.4637 -1.8449  0.0415
  886MOL0     H22259   4.134  10.513   2.312 -0.1533  2.7736  2.1581
  886MOL0     H22260   4.422  10.409   2.206 -0.5460 -1.9347  0.3234
  886MOL0     H22261   4.327  10.374   2.347  0.9302  0.4838  0.4207
  886MOL0     H22262   4.313  10.205   2.144 -2.1587 -1.7781 -1.4296
  886MOL0     H22263   4.263  10.336   2.042  0.2970 -1.6128 -0.9299
  886MOL0     H22264   3.893  10.193   2.166  0.0146 -0.0522  1.2774
  886MOL0     H22265   4.425  10.691   2.642 -0.9221  1.3261 -1.9295
  886MOL0     H22266   4.574  10.967   2.760  2.7018  1.2154 -1.1037
  886MOL0     H22267   4.510  10.809   2.818 -0.0414 -2.7415 -2.2963
  886MOL0     H22268   4.682  10.840   2.825 -0.5915 -0.8174 -0.7261
  887MOL0     O22269   7.767  10.354   8.582 -0.5175  0.1254  0.1510
  887MOL0     C22270   7.764  10.236   8.568 -0.1534  0.7709 -0.9319
  887MOL0     O22271   7.840  10.151   8.493 -0.0897  0.1979 -0.1613
  887MOL0     C22272   7.946  10.203   8.424  0.2626 -0.1747 -0.7504
  887MOL0     C22273   8.055  10.121   8.423  0.0724  0.1080  0.0203
  887MOL0     C22274   8.182  10.170   8.382 -0.1675  0.4305 -0.1141
  887MOL0     C22275   8.195  10.304   8.339  0.4594 -0.0214  0.2774
  887MOL0     O22276   8.321  10.350   8.297 -0.1097 -0.7737  0.0191
  887MOL0     C22277   8.328  10.485   8.252  0.2243  0.0592  0.3878
  887MOL0     C22278   8.471  10.535   8.201  0.3810  0.8476 -0.7692
  887MOL0     C22279   8.589  10.498   8.293 -0.5915  0.2711 -0.0509
  887MOL0     C22280   8.714  10.560   8.229 -0.2009  0.4313 -0.1677
  887MOL0     C22281   8.833  10.527   8.322  0.4330 -0.1622  0.5904
  887MOL0     C22282   8.960  10.599   8.287  0.7944 -0.2493 -0.5874
  887MOL0     C22283   9.074  10.541   8.365  0.1152  0.1777  0.0554
  887MOL0     C22284   9.166  10.632   8.450 -0.2414 -0.0907 -0.2998
  887MOL0     N22285   9.262  10.551   8.520  0.1088  0.1102 -0.5591
  887MOL0     C22286   9.265  10.527   8.663  0.0855 -0.1780 -0.7276
  887MOL0     C22287   9.378  10.461   8.690 -0.0470  0.2116  0.8829
  887MOL0     C22288   9.435  10.417   8.829  0.0918 -0.5387  0.1903
  887MOL0     C22289   9.588  10.398   8.824 -0.3804 -0.8879  0.0190
  887MOL0     C22290   9.633  10.282   8.911 -0.1297  0.0735 -0.3925
  887MOL0     C22291   9.791  10.264   8.901  0.4166 -1.0210 -0.8470
  887MOL0     O22292   9.815  10.190   8.786 -0.5147 -0.0180  0.2800
  887MOL0     C22293   9.951  10.187   8.747 -0.7245 -0.1797  0.1907
  887MOL0     C22294   9.999  10.282   8.655  0.3904 -1.0164 -0.5674
  887MOL0     C22295  10.131  10.283   8.604 -0.3077 -0.3696  0.0177
  887MOL0     C22296  10.157  10.377   8.486 -0.7528  0.1685 -0.1269
  887MOL0     C22297  10.228  10.199   8.655 -0.3767  0.4493  0.0481
  887MOL0     C22298  10.368  10.197   8.625 -0.0548  0.6959 -0.0331
  887MOL0     O22299  10.446  10.184   8.736 -0.1361 -0.1286  0.0146
  887MOL0     C22300  10.588  10.184   8.740  0.3177 -0.0399 -0.1165
  887MOL0     C22301  10.635  10.222   8.868  0.2355 -0.1016 -0.1693
  887MOL0     C22302  10.771  10.227   8.901  0.1173  0.5021  0.0895
  887MOL0     C22303  10.871  10.193   8.806  0.2263  0.2154  0.2763
  887MOL0     O22304  11.011  10.197   8.830  0.0029  0.0411 -0.2661
  887MOL0     C22305  11.053  10.197   8.966  0.3540  0.6856  0.2836
  887MOL0     C22306  11.212  10.168   8.983  0.3734  0.2809  0.1378
  887MOL0     C22307  11.288  10.292   8.939 -0.6680 -0.8047 -0.1080
  887MOL0     C22308  11.303  10.403   9.040 -0.4933  0.7341 -0.1297
  887MOL0     C22309  11.383  10.524   8.985  1.0523  0.1509 -0.3404
  887MOL0     C22310  11.413  10.620   9.099  0.1095 -0.0792 -0.2302
  887MOL0     C22311  11.516  10.733   9.046  1.2715 -0.3420 -0.5288
  887MOL0     C22312  11.562  10.816   9.163  1.2968  0.1453 -0.4342
  887MOL0    Cl22313  11.667  10.730   9.274  0.3742  0.0769 -0.4005
  887MOL0     C22314  10.825  10.163   8.676 -0.0752  0.4902  0.7390
  887MOL0     C22315  10.686  10.156   8.642 -0.3590 -0.0728  0.0296
  887MOL0     O22316  10.411  10.199   8.513  0.5884 -0.3373  0.4890
  887MOL0     C22317  10.181  10.109   8.762 -0.2856  0.3649  0.9907
  887MOL0     C22318  10.048  10.099   8.797 -0.7367 -0.7562  0.0235
  887MOL0     N22319   9.447  10.438   8.560  0.3255  0.6366 -0.8535
  887MOL0     N22320   9.368  10.484   8.467  0.5739 -0.1284  0.0083
  887MOL0     C22321   8.074  10.378   8.323 -0.1945 -0.7298  0.3507
  887MOL0     C22322   7.952  10.332   8.370  0.0724 -0.3200  0.1016
  887MOL0     C22323   7.650  10.168   8.657 -0.5237 -0.7677  1.0012
  887MOL0     C22324   7.553  10.255   8.710 -0.2561 -0.2455 -0.8893
  887MOL0     C22325   7.452  10.208   8.801 -0.4540  0.4970 -0.4763
  887MOL0     C22326   7.452  10.069   8.834  0.2083 -0.0014 -0.0026
  887MOL0     O22327   7.369  10.023   8.930  0.2152 -0.7030 -0.2944
  887MOL0     C22328   7.301  10.107   9.015 -0.2386  0.3258 -0.0554
  887MOL0     C22329   7.302  10.046   9.157  0.2967  0.8206  0.3611
  887MOL0     C22330   7.254   9.897   9.170  0.5873  0.8041  0.5663
  887MOL0     C22331   7.331   9.809   9.269  0.5961  0.2124  0.0316
  887MOL0     C22332   7.428   9.715   9.205 -0.2720 -0.0969 -0.9532
  887MOL0     C22333   7.516   9.638   9.165  0.3100 -0.4475 -0.2968
  887MOL0     C22334   7.544   9.986   8.774  0.0025  0.3501 -0.5285
  887MOL0     C22335   7.647  10.027   8.694 -0.0651  0.2005  0.4188
  887MOL0     C22336   7.738   9.920   8.645  0.1311  0.2590  0.0779
  887MOL0     H22337   8.050  10.021   8.463  0.8077  0.5028  1.1640
  887MOL0     H22338   8.273  10.110   8.381  1.3033  2.5265 -1.3793
  887MOL0     H22339   8.307  10.548   8.339 -1.1530 -2.0926  1.6708
  887MOL0     H22340   8.263  10.500   8.165  1.3412 -1.7864 -0.8387
  887MOL0     H22341   8.488  10.501   8.099 -0.3602 -0.7187 -0.4030
  887MOL0     H22342   8.463  10.644   8.203 -0.6163  0.7803  0.5065
  887MOL0     H22343   8.585  10.531   8.397 -1.3450  0.3865 -0.1083
  887MOL0     H22344   8.606  10.390   8.291  0.0907  0.2658  2.5536
  887MOL0     H22345   8.732  10.528   8.126 -0.3418  1.5401 -0.5556
  887MOL0     H22346   8.702  10.669   8.227 -1.4725  0.3163 -2.7003
  887MOL0     H22347   8.861  10.422   8.321  1.9545  0.2079  1.3810
  887MOL0     H22348   8.798  10.554   8.422 -0.1568 -0.7097  0.5364
  887MOL0     H22349   8.985  10.596   8.180 -0.2130  1.0384 -0.8768
  887MOL0     H22350   8.949  10.703   8.317  1.6950 -0.2053 -0.3744
  887MOL0     H22351   9.133  10.479   8.298  0.5508 -1.1360  1.5786
  887MOL0     H22352   9.027  10.477   8.440  1.8530 -0.2057  0.8630
  887MOL0     H22353   9.229  10.695   8.386 -0.6361  1.0128  0.3822
  887MOL0     H22354   9.117  10.698   8.522  2.6668  1.2901  0.5698
  887MOL0     H22355   9.209  10.575   8.743  1.1017 -0.6225  0.2741
  887MOL0     H22356   9.386  10.325   8.862 -2.0179 -0.5495 -2.5090
  887MOL0     H22357   9.417  10.484   8.913 -0.6131 -3.0947  2.2292
  887MOL0     H22358   9.615  10.385   8.719  0.8310 -0.5127  0.2723
  887MOL0     H22359   9.638  10.486   8.865  0.0977 -2.1349  2.2774
  887MOL0     H22360   9.613  10.303   9.016  0.0533 -0.9622 -0.1389
  887MOL0     H22361   9.591  10.185   8.882  1.1199 -1.4224  2.3600
  887MOL0     H22362   9.844  10.360   8.910  1.8330 -1.8750  0.4088
  887MOL0     H22363   9.818  10.200   8.986  1.0101  2.8209  2.1346
  887MOL0     H22364   9.937  10.359   8.610  1.4375 -0.0644 -0.4388
  887MOL0     H22365  10.248  10.435   8.506 -1.9117  2.1137 -0.1877
  887MOL0     H22366  10.075  10.442   8.454  0.1688  0.6410 -1.6840
  887MOL0     H22367  10.172  10.315   8.397 -2.1925 -0.4277  0.0375
  887MOL0     H22368  10.569  10.276   8.936  2.2086  0.6718  1.2087
  887MOL0     H22369  10.793  10.261   9.001 -2.1479 -0.0437  0.8519
  887MOL0     H22370  11.025  10.300   8.991 -0.2944  0.6617 -0.3535
  887MOL0     H22371  11.006  10.129   9.037 -1.1503 -0.6040 -1.8507
  887MOL0     H22372  11.237  10.142   9.087 -3.7613 -2.5728  0.6663
  887MOL0     H22373  11.235  10.080   8.923 -2.2779  0.2491 -0.9366
  887MOL0     H22374  11.239  10.331   8.849  2.0505 -0.4148 -1.5370
  887MOL0     H22375  11.392  10.265   8.916 -1.2004 -1.9193 -1.3395
  887MOL0     H22376  11.364  10.359   9.119 -0.5761 -0.8718 -0.9223
  887MOL0     H22377  11.207  10.426   9.088 -0.2875 -0.5487  0.9506
  887MOL0     H22378  11.474  10.494   8.933 -0.0266 -2.9920 -0.6375
  887MOL0     H22379  11.313  10.564   8.911  1.5501  0.8323 -0.4465
  887MOL0     H22380  11.472  10.568   9.176  0.2432 -1.3313 -1.1467
  887MOL0     H22381  11.323  10.662   9.145  1.8346 -0.2232  3.7197
  887MOL0     H22382  11.468  10.792   8.968  2.5852 -1.3849 -2.1890
  887MOL0     H22383  11.608  10.695   9.000  1.0098 -1.1110 -0.4170
  887MOL0     H22384  11.473  10.854   9.214  1.6570  1.2592 -0.6280
  887MOL0     H22385  11.622  10.892   9.112 -1.1354  0.6707 -2.7097
  887MOL0     H22386  10.898  10.149   8.596 -1.3222 -1.2305 -0.1806
  887MOL0     H22387  10.663  10.143   8.537 -0.0116 -0.4654 -0.0033
  887MOL0     H22388  10.253  10.035   8.797 -0.8404 -1.1898 -0.9374
  887MOL0     H22389  10.013  10.041   8.882 -0.7470 -0.5607  0.1526
  887MOL0     H22390   8.071  10.471   8.267 -3.6084 -0.0001  1.4876
  887MOL0     H22391   7.862  10.390   8.353 -0.5605 -1.3210 -0.0723
  887MOL0     H22392   7.562  10.357   8.675  1.0018 -0.2656 -0.6880
  887MOL0     H22393   7.383  10.276   8.849 -2.1817 -0.2674 -1.7684
  887MOL0     H22394   7.353  10.203   9.028 -0.6636  0.9543 -2.4690
  887MOL0     H22395   7.202  10.135   8.979  0.3872 -0.2736 -2.3847
  887MOL0     H22396   7.255  10.113   9.229  0.8001  2.5419 -0.8398
  887MOL0     H22397   7.407  10.048   9.185  0.3518  2.4051  0.1531
  887MOL0     H22398   7.148   9.898   9.195  0.2237  1.5941 -0.9282
  887MOL0     H22399   7.266   9.846   9.074 -1.9718  2.5218 -0.7724
  887MOL0     H22400   7.263   9.741   9.321  3.1034 -2.1778  0.3935
  887MOL0     H22401   7.381   9.873   9.342 -1.2677  0.9973  0.6929
  887MOL0     H22402   7.581   9.568   9.116  0.9090 -1.5135  1.8583
  887MOL0     H22403   7.525   9.888   8.817 -0.9627  0.3742 -0.8568
  887MOL0     H22404   7.841   9.922   8.681  1.4705 -2.8225 -2.9767
  887MOL0     H22405   7.690   9.825   8.670 -2.5123  1.5002  0.0381
  887MOL0     H22406   7.740   9.908   8.536  2.3297 -3.4935  0.3414
  888MOL0     O22407   5.408   5.591   1.229  0.2581 -0.2351 -0.3017
  888MOL0     C22408   5.410   5.474   1.203  0.4677 -0.0757 -0.0261
  888MOL0     O22409   5.507   5.375   1.243  0.5118  0.3888  0.6095
  888MOL0     C22410   5.610   5.402   1.338 -0.7978  0.2517 -0.0550
  888MOL0     C22411   5.708   5.306   1.362 -0.3322  0.4635 -0.0159
  888MOL0     C22412   5.814   5.331   1.444 -0.3965  0.1524 -0.4730
  888MOL0     C22413   5.829   5.450   1.512 -0.4415 -0.7354 -0.2608
  888MOL0     O22414   5.933   5.464   1.602  0.5318 -0.6643 -0.0953
  888MOL0     C22415   5.919   5.404   1.725  0.6451  0.4203  0.0725
  888MOL0     C22416   5.987   5.271   1.741  0.4406 -1.1441  0.1591
  888MOL0     C22417   6.136   5.258   1.691 -0.4057 -0.3582  0.2333
  888MOL0     C22418   6.185   5.114   1.717 -0.2721 -0.1968 -0.3009
  888MOL0     C22419   6.336   5.104   1.720  0.9471 -0.1946 -0.6532
  888MOL0     C22420   6.396   5.131   1.585  0.8622 -0.0983 -0.1012
  888MOL0     C22421   6.546   5.124   1.611  0.0309  1.1402  1.1002
  888MOL0     C22422   6.652   5.136   1.492  0.5467 -0.3297 -0.3915
  888MOL0     N22423   6.785   5.154   1.554 -0.3256  1.1116 -0.2846
  888MOL0     C22424   6.867   5.055   1.604 -0.8744 -0.3460 -0.0412
  888MOL0     C22425   6.977   5.119   1.641 -0.2648  0.2514  1.0046
  888MOL0     C22426   7.115   5.080   1.691 -0.3408  0.0783 -1.0873
  888MOL0     C22427   7.237   5.097   1.592  0.1666 -1.3046  0.3209
  888MOL0     C22428   7.357   5.008   1.637  0.1819  0.0335  0.5017
  888MOL0     C22429   7.425   5.051   1.775  0.1841 -0.2533 -0.0941
  888MOL0     O22430   7.571   5.064   1.757  1.1020  0.2671  0.1615
  888MOL0     C22431   7.623   5.187   1.716  0.1123 -0.3219 -0.7490
  888MOL0     C22432   7.760   5.188   1.728  0.4173 -0.9742 -0.3816
  888MOL0     C22433   7.836   5.307   1.695  0.5341  0.7425 -0.3883
  888MOL0     C22434   7.987   5.302   1.711 -0.5921  0.1372  0.2391
  888MOL0     C22435   7.774   5.423   1.636  0.5963 -0.1044 -0.1163
  888MOL0     C22436   7.836   5.546   1.579  0.6565 -0.3591  0.5791
  888MOL0     O22437   7.967   5.573   1.599  0.4945 -0.1517 -0.5871
  888MOL0     C22438   8.002   5.700   1.566 -0.9883 -0.3882 -0.8409
  888MOL0     C22439   8.082   5.734   1.461  0.3879 -0.6495  0.2763
  888MOL0     C22440   8.146   5.857   1.453 -0.1603 -0.3045 -0.1954
  888MOL0     C22441   8.117   5.955   1.546  0.0547  0.1508 -0.7112
  888MOL0     O22442   8.182   6.063   1.508 -0.0810  0.0653  0.0263
  888MOL0     C22443   8.179   6.180   1.597 -0.4117  0.7635 -0.0922
  888MOL0     C22444   8.238   6.301   1.527 -0.3145 -0.1205 -0.2897
  888MOL0     C22445   8.142   6.351   1.416 -0.2721 -0.9464  0.0116
  888MOL0     C22446   8.196   6.312   1.272  0.3617 -0.6790 -0.1999
  888MOL0     C22447   8.082   6.329   1.168  0.1802  0.1947 -0.5931
  888MOL0     C22448   8.057   6.210   1.079 -0.1031  0.4158  0.0690
  888MOL0     C22449   8.197   6.129   1.040  0.2592  0.0945  0.2202
  888MOL0     C22450   8.181   6.030   0.922  1.4217 -0.0464  0.2153
  888MOL0    Cl22451   8.126   6.118   0.772  0.1131  0.1152 -0.4575
  888MOL0     C22452   8.032   5.927   1.653  0.5737  0.1767  0.6979
  888MOL0     C22453   7.971   5.803   1.660  0.3761 -0.0066 -0.5425
  888MOL0     O22454   7.767   5.608   1.498  0.7761  0.6193 -0.1590
  888MOL0     C22455   7.631   5.418   1.618  0.0529  0.1854 -0.8880
  888MOL0     C22456   7.561   5.304   1.662 -0.0226 -0.1963  1.1803
  888MOL0     N22457   6.956   5.259   1.610 -0.2734  0.5099 -0.4091
  888MOL0     N22458   6.842   5.277   1.560  0.4899 -0.2946 -0.5535
  888MOL0     C22459   5.734   5.551   1.495 -0.3419  0.5516 -0.0820
  888MOL0     C22460   5.633   5.528   1.402  0.2873 -0.2379 -0.4207
  888MOL0     C22461   5.302   5.412   1.124  0.8091 -0.5857  0.2045
  888MOL0     C22462   5.296   5.268   1.110 -0.3541  0.5165 -0.5065
  888MOL0     C22463   5.194   5.204   1.037 -0.1922  0.1973 -0.4945
  888MOL0     C22464   5.102   5.269   0.964 -0.3561 -0.4021  0.2797
  888MOL0     O22465   5.006   5.188   0.907 -0.1012 -0.5692 -0.9614
  888MOL0     C22466   4.914   5.249   0.812 -0.6056 -0.5726  0.4635
  888MOL0     C22467   4.783   5.299   0.883  0.0868  0.1555  1.0251
  888MOL0     C22468   4.700   5.381   0.777  0.7524 -0.1757  0.1947
  888MOL0     C22469   4.766   5.494   0.703  0.3105 -0.4609 -0.7250
  888MOL0     C22470   4.827   5.598   0.798  0.7389 -0.5427  0.6492
  888MOL0     C22471   4.867   5.690   0.869  0.0330 -0.0081 -0.0338
  888MOL0     C22472   5.098   5.409   0.992 -0.3394 -0.3553  0.2470
  888MOL0     C22473   5.187   5.484   1.070 -0.3215  0.8169  0.0369
  888MOL0     C22474   5.171   5.634   1.071 -0.3204 -0.3794 -0.7270
  888MOL0     H22475   5.695   5.209   1.317 -2.5772  0.6919  0.0626
  888MOL0     H22476   5.888   5.257   1.470 -0.2253  1.1659  2.2189
  888MOL0     H22477   5.812   5.384   1.740  1.0220 -1.2404  0.7950
  888MOL0     H22478   5.939   5.471   1.810 -0.3747  0.7713  0.0499
  888MOL0     H22479   5.985   5.256   1.849 -2.6679  0.8143  0.4822
  888MOL0     H22480   5.927   5.189   1.701 -1.3280 -0.8489  2.0694
  888MOL0     H22481   6.143   5.282   1.584  3.5043 -2.3134 -0.1577
  888MOL0     H22482   6.198   5.332   1.742 -1.4161  2.8775 -2.8256
  888MOL0     H22483   6.147   5.090   1.816  0.3472  0.1464  0.0277
  888MOL0     H22484   6.135   5.044   1.649  0.4193 -0.0112 -1.0136
  888MOL0     H22485   6.365   5.002   1.747  1.4430 -0.0659 -0.6777
  888MOL0     H22486   6.364   5.179   1.795  0.6058  1.1243 -1.8102
  888MOL0     H22487   6.374   5.048   1.518 -1.0963  0.7453 -0.5756
  888MOL0     H22488   6.357   5.221   1.537  0.9589 -1.0613 -2.0834
  888MOL0     H22489   6.581   5.037   1.667  2.8079  3.0542  2.5867
  888MOL0     H22490   6.574   5.215   1.666 -0.3801  3.4755 -2.2549
  888MOL0     H22491   6.650   5.047   1.428 -0.2895  0.4819 -1.5376
  888MOL0     H22492   6.630   5.219   1.423 -0.1081 -1.4105 -1.5149
  888MOL0     H22493   6.852   4.948   1.613  0.9238 -0.6107  0.2801
  888MOL0     H22494   7.105   4.974   1.719 -1.9152  0.1248 -1.3968
  888MOL0     H22495   7.149   5.137   1.778 -1.5197  0.4514 -0.8579
  888MOL0     H22496   7.212   5.071   1.489 -3.1780 -0.1002  0.7408
  888MOL0     H22497   7.266   5.202   1.582  1.5310 -1.5490  1.2727
  888MOL0     H22498   7.307   4.912   1.652 -1.3343  0.8902  1.1062
  888MOL0     H22499   7.430   4.999   1.556 -1.1034 -1.7861 -0.5197
  888MOL0     H22500   7.371   5.140   1.809  2.1857 -0.6689  5.0374
  888MOL0     H22501   7.408   4.972   1.848 -4.1681  0.5308  0.0203
  888MOL0     H22502   7.818   5.106   1.769  3.2749  0.6686 -0.8731
  888MOL0     H22503   8.026   5.204   1.740  0.1680 -0.1091 -1.4935
  888MOL0     H22504   8.025   5.368   1.790  1.1659  0.9015 -1.1621
  888MOL0     H22505   8.030   5.328   1.613 -3.0669 -0.6983 -1.1700
  888MOL0     H22506   8.114   5.674   1.376  0.1971 -0.6559  0.2083
  888MOL0     H22507   8.217   5.875   1.373  1.1994  0.5462  1.1590
  888MOL0     H22508   8.073   6.196   1.620 -0.6059  0.3710 -0.6959
  888MOL0     H22509   8.240   6.157   1.685  3.6391 -1.6304 -3.1977
  888MOL0     H22510   8.250   6.377   1.605  1.7888 -2.6985  2.1213
  888MOL0     H22511   8.341   6.283   1.498 -0.5571 -3.3982  0.5250
  888MOL0     H22512   8.134   6.460   1.423 -0.1968 -0.7742 -1.9582
  888MOL0     H22513   8.042   6.310   1.436 -0.3307 -0.7983  0.0270
  888MOL0     H22514   8.227   6.208   1.284  0.4587 -0.8148 -1.4612
  888MOL0     H22515   8.287   6.360   1.235  0.3852 -1.2457 -0.8972
  888MOL0     H22516   7.995   6.368   1.220  1.4480  1.0065  1.0170
  888MOL0     H22517   8.110   6.412   1.102 -0.5672 -0.6424 -1.9913
  888MOL0     H22518   8.011   6.253   0.989 -0.9514  1.1437  0.8302
  888MOL0     H22519   7.984   6.145   1.127  2.3945 -2.2810  0.4720
  888MOL0     H22520   8.233   6.066   1.122 -1.2792 -0.8493  0.2008
  888MOL0     H22521   8.275   6.204   1.023 -0.5517  1.5778  2.5661
  888MOL0     H22522   8.117   5.946   0.949  1.5203  0.1586  1.1385
  888MOL0     H22523   8.274   5.979   0.897 -1.0092 -2.6072 -5.1867
  888MOL0     H22524   8.007   6.001   1.728 -1.0879  1.5917 -1.1315
  888MOL0     H22525   7.916   5.785   1.752  0.4194  1.6696 -0.1548
  888MOL0     H22526   7.580   5.501   1.569  0.5695  0.9049 -0.2380
  888MOL0     H22527   7.455   5.324   1.649  0.4503  3.1639  1.6853
  888MOL0     H22528   5.746   5.633   1.565 -0.7133  1.4195 -0.9999
  888MOL0     H22529   5.572   5.614   1.379  0.9148  0.5816  0.8559
  888MOL0     H22530   5.366   5.206   1.166 -0.6300 -0.2658 -1.0065
  888MOL0     H22531   5.190   5.096   1.049 -1.5291  0.3546  0.8510
  888MOL0     H22532   4.958   5.335   0.760 -0.1311 -2.7570 -3.1228
  888MOL0     H22533   4.888   5.187   0.726 -2.1819  0.4621  0.1485
  888MOL0     H22534   4.802   5.365   0.968  0.7809 -0.7586  1.5956
  888MOL0     H22535   4.745   5.203   0.919 -0.6942 -0.4343 -1.1891
  888MOL0     H22536   4.660   5.312   0.702  2.1986  0.3831 -1.1283
  888MOL0     H22537   4.617   5.414   0.840  0.4054  3.2360 -1.8106
  888MOL0     H22538   4.692   5.546   0.641  1.2784  0.4223 -1.1653
  888MOL0     H22539   4.838   5.463   0.627  2.3650 -0.8946  1.2918
  888MOL0     H22540   4.920   5.773   0.912  2.0555 -0.6614 -1.1152
  888MOL0     H22541   5.016   5.459   0.941  0.3010 -0.1851 -0.6330
  888MOL0     H22542   5.162   5.668   1.174 -2.3010  0.3495 -1.0923
  888MOL0     H22543   5.254   5.684   1.020  0.1703  0.9520  1.2375
  888MOL0     H22544   5.078   5.679   1.035  0.1634  2.7818  1.5092
  889MOL0     O22545   6.883   0.893   8.907 -0.1591 -0.0161 -0.1647
  889MOL0     C22546   6.896   0.955   9.013 -0.1223  0.5359 -0.3172
  889MOL0     O22547   7.015   0.974   9.082  0.8737  0.8304 -0.1416
  889MOL0     C22548   7.119   0.899   9.037 -0.6494  0.3335  0.6385
  889MOL0     C22549   7.247   0.954   9.045  0.0592 -0.6624 -1.0440
  889MOL0     C22550   7.362   0.892   9.010 -0.2493  0.3013  0.1514
  889MOL0     C22551   7.364   0.764   8.960 -0.0859 -0.4826  0.0030
  889MOL0     O22552   7.486   0.710   8.927  0.4777  0.1968 -0.3400
  889MOL0     C22553   7.511   0.583   8.986 -0.0744  0.3040  0.2228
  889MOL0     C22554   7.656   0.546   8.974  0.6638 -0.0236  0.1801
  889MOL0     C22555   7.747   0.662   9.024 -0.1650 -0.3336 -0.4833
  889MOL0     C22556   7.887   0.646   8.980  0.1333 -0.7277  0.2840
  889MOL0     C22557   7.978   0.751   9.034 -0.7001 -0.0870 -0.5639
  889MOL0     C22558   7.974   0.888   8.966 -0.5265 -0.6191 -0.3593
  889MOL0     C22559   8.066   0.991   9.046  0.1610 -0.4232  0.5992
  889MOL0     C22560   8.080   1.123   8.968 -1.0293  0.2053 -0.1104
  889MOL0     N22561   8.190   1.144   8.873 -0.0849  0.2925 -0.2094
  889MOL0     C22562   8.304   1.214   8.896 -0.4041 -0.0255  0.6326
  889MOL0     C22563   8.394   1.173   8.799 -0.0608  0.5585 -0.6693
  889MOL0     C22564   8.530   1.236   8.773  0.6484 -0.1395 -0.7993
  889MOL0     C22565   8.575   1.305   8.899 -1.4969 -0.4344 -0.1593
  889MOL0     C22566   8.732   1.332   8.877 -0.3589 -0.9540  0.4520
  889MOL0     C22567   8.760   1.480   8.832  0.5783  0.3382 -0.1603
  889MOL0     O22568   8.745   1.566   8.949 -0.7647  0.2459  0.2402
  889MOL0     C22569   8.847   1.578   9.045  0.5753 -0.3345 -0.1328
  889MOL0     C22570   8.815   1.664   9.152  0.1770  0.5195 -1.0354
  889MOL0     C22571   8.915   1.686   9.257  0.4849  0.2327 -0.3442
  889MOL0     C22572   8.872   1.785   9.356  0.5052  0.8578 -0.1678
  889MOL0     C22573   9.042   1.625   9.244  0.4367 -1.0456 -0.2625
  889MOL0     C22574   9.164   1.643   9.335 -0.6574 -1.1356  0.2793
  889MOL0     O22575   9.285   1.650   9.283  0.5160 -0.4030  0.2627
  889MOL0     C22576   9.397   1.611   9.353 -0.6567  0.0464  0.7868
  889MOL0     C22577   9.415   1.560   9.483  0.4046 -0.4852  0.3935
  889MOL0     C22578   9.544   1.527   9.525  0.7926  0.4382  0.0895
  889MOL0     C22579   9.658   1.542   9.446 -0.6130  0.1035 -0.0909
  889MOL0     O22580   9.777   1.494   9.505  0.1095  0.5196  0.4517
  889MOL0     C22581   9.898   1.504   9.427 -0.5113 -0.0650 -0.0087
  889MOL0     C22582  10.005   1.456   9.526 -0.3910 -0.7767  0.3129
  889MOL0     C22583  10.149   1.465   9.465  0.2397  0.4608  0.4380
  889MOL0     C22584  10.251   1.393   9.551  1.3871  0.6226  0.2213
  889MOL0     C22585  10.383   1.360   9.487  1.1338  0.5139 -0.3636
  889MOL0     C22586  10.488   1.333   9.597 -0.3322  0.1966  0.3377
  889MOL0     C22587  10.614   1.275   9.527  0.3759 -0.0522 -0.3493
  889MOL0     C22588  10.741   1.259   9.617  0.1082 -0.0737  0.0959
  889MOL0    Cl22589  10.707   1.184   9.785 -0.2138  0.0250 -0.2550
  889MOL0     C22590   9.639   1.592   9.315 -0.2899 -0.7329  0.1800
  889MOL0     C22591   9.504   1.621   9.266 -0.3007  0.6249  0.1634
  889MOL0     O22592   9.132   1.664   9.453 -0.6243  0.0916 -0.0330
  889MOL0     C22593   9.068   1.543   9.134  0.1080 -0.3381 -0.2093
  889MOL0     C22594   8.968   1.517   9.042  0.1592 -1.0929 -0.3404
  889MOL0     N22595   8.325   1.080   8.723 -0.2958 -0.0847  0.3920
  889MOL0     N22596   8.206   1.062   8.775  0.2442  0.2977 -0.4795
  889MOL0     C22597   7.238   0.700   8.958  0.0301 -0.0998 -0.2295
  889MOL0     C22598   7.122   0.762   8.991 -0.2518 -0.2377 -0.6282
  889MOL0     C22599   6.776   0.996   9.077  0.5741  0.4917 -0.7381
  889MOL0     C22600   6.728   1.125   9.056  0.0313  0.4154  0.5617
  889MOL0     C22601   6.604   1.163   9.099  0.6356  0.2374 -0.8299
  889MOL0     C22602   6.519   1.075   9.165  0.9096  0.5726 -0.0281
  889MOL0     O22603   6.396   1.113   9.210  0.6976  0.6112 -0.4336
  889MOL0     C22604   6.294   1.127   9.101 -0.4226 -0.1459 -0.9312
  889MOL0     C22605   6.182   1.212   9.177  0.6159 -0.3701 -0.1766
  889MOL0     C22606   6.057   1.191   9.090 -0.6921  0.1098  0.3496
  889MOL0     C22607   5.939   1.226   9.178  0.3990 -0.9519 -0.3048
  889MOL0     C22608   5.905   1.119   9.273  0.3495  0.6724 -0.3196
  889MOL0     C22609   5.843   1.050   9.349 -0.6248  0.4489  0.4795
  889MOL0     C22610   6.564   0.942   9.189  0.9876 -0.4229 -0.7644
  889MOL0     C22611   6.689   0.902   9.146 -0.3623 -0.7525  0.0577
  889MOL0     C22612   6.732   0.761   9.181 -0.0963  0.5780 -0.0351
  889MOL0     H22613   7.247   1.060   9.067 -1.1048 -0.8358 -0.0798
  889MOL0     H22614   7.455   0.948   9.015  0.9132 -1.4962 -0.6582
  889MOL0     H22615   7.460   0.493   8.950  1.7649  0.0398 -1.9514
  889MOL0     H22616   7.497   0.580   9.095  2.0350 -3.4785  0.6092
  889MOL0     H22617   7.674   0.460   9.039  0.7356  0.7918  1.2869
  889MOL0     H22618   7.675   0.528   8.868  3.8873  1.7912  0.3114
  889MOL0     H22619   7.707   0.761   8.999 -2.0911  0.5870  4.8794
  889MOL0     H22620   7.754   0.653   9.133  5.0075  2.8184 -0.1911
  889MOL0     H22621   7.909   0.548   9.023 -3.3807  0.0976  4.8075
  889MOL0     H22622   7.899   0.643   8.872  0.2481  2.0511  0.1486
  889MOL0     H22623   8.080   0.717   9.014 -0.9235 -0.2207 -1.5067
  889MOL0     H22624   7.971   0.767   9.142  3.1591 -2.0753  0.1782
  889MOL0     H22625   8.021   0.880   8.867 -1.3701  0.1229 -0.8350
  889MOL0     H22626   7.871   0.914   8.941  0.5818  2.9993 -1.9026
  889MOL0     H22627   8.160   0.953   9.087  1.3668  3.8635  2.4066
  889MOL0     H22628   8.009   1.006   9.138  1.7132 -1.5824  1.7931
  889MOL0     H22629   7.991   1.127   8.905  0.1763  6.5204 -2.0793
  889MOL0     H22630   8.086   1.208   9.037  0.4135  0.1795 -0.1710
  889MOL0     H22631   8.318   1.287   8.976  1.4479  0.4724 -0.0880
  889MOL0     H22632   8.524   1.308   8.692  0.2833 -1.0172 -1.5740
  889MOL0     H22633   8.599   1.161   8.733  0.4811  0.6634 -2.6911
  889MOL0     H22634   8.512   1.393   8.912  0.5335  1.3178 -1.4144
  889MOL0     H22635   8.562   1.249   8.992 -0.8642 -2.2288 -1.1103
  889MOL0     H22636   8.790   1.307   8.966  0.3247 -1.8192 -0.2157
  889MOL0     H22637   8.766   1.258   8.804  2.6432  0.0196  0.7566
  889MOL0     H22638   8.860   1.487   8.788 -0.2531 -2.9590 -3.0857
  889MOL0     H22639   8.694   1.523   8.755 -0.3318 -0.2893  0.2506
  889MOL0     H22640   8.716   1.709   9.151 -0.2234 -0.3382 -0.7710
  889MOL0     H22641   8.912   1.770   9.457 -0.9229  0.0194  0.3015
  889MOL0     H22642   8.763   1.789   9.359  0.5503  1.8266  0.7088
  889MOL0     H22643   8.908   1.884   9.326  0.5958  0.8062 -0.2331
  889MOL0     H22644   9.328   1.552   9.548  0.6200  1.4192  0.9760
  889MOL0     H22645   9.546   1.489   9.626  1.4200 -1.6260 -0.6525
  889MOL0     H22646   9.882   1.434   9.345  0.3223  2.1148 -2.1759
  889MOL0     H22647   9.906   1.607   9.391 -3.6289 -0.3128 -1.7475
  889MOL0     H22648   9.998   1.519   9.615  1.9963 -0.6726  0.4838
  889MOL0     H22649   9.992   1.353   9.558 -0.6506 -0.1310  2.4326
  889MOL0     H22650  10.183   1.564   9.433  0.1981  1.0462  2.1015
  889MOL0     H22651  10.147   1.401   9.376  2.4356  0.8243  0.0799
  889MOL0     H22652  10.207   1.298   9.583  0.5649  1.4277  1.5997
  889MOL0     H22653  10.253   1.449   9.645 -0.7910  2.0420 -0.5059
  889MOL0     H22654  10.357   1.274   9.424 -2.5335  1.8348 -0.9031
  889MOL0     H22655  10.418   1.449   9.433 -2.0817  2.9725  1.2459
  889MOL0     H22656  10.445   1.258   9.663 -1.5134  0.6668  0.1340
  889MOL0     H22657  10.503   1.419   9.663 -1.2685  1.3572 -0.8944
  889MOL0     H22658  10.639   1.321   9.431 -1.8097  1.5389 -0.2122
  889MOL0     H22659  10.593   1.170   9.506  0.6250 -0.2060  0.1646
  889MOL0     H22660  10.776   1.361   9.636  1.4449 -0.5730  0.4032
  889MOL0     H22661  10.816   1.197   9.568  0.5908  0.7013 -0.1692
  889MOL0     H22662   9.723   1.609   9.248  1.0958  1.5411  2.3097
  889MOL0     H22663   9.481   1.638   9.161  0.7017  2.5742  0.2027
  889MOL0     H22664   9.166   1.500   9.114  0.8095  1.6964 -1.4352
  889MOL0     H22665   8.989   1.444   8.964 -0.9431  0.1687 -1.8665
  889MOL0     H22666   7.238   0.592   8.951  0.7649 -0.0160 -2.5585
  889MOL0     H22667   7.031   0.704   8.986  0.3422 -1.5985  2.3179
  889MOL0     H22668   6.786   1.193   8.996  1.7578 -1.1823  0.3307
  889MOL0     H22669   6.574   1.267   9.091  0.7064  0.6615  2.5881
  889MOL0     H22670   6.340   1.169   9.011  0.3026 -4.6403 -2.9359
  889MOL0     H22671   6.274   1.026   9.065 -3.0436  0.2615 -0.8344
  889MOL0     H22672   6.212   1.317   9.187  0.5789 -0.4408  0.7477
  889MOL0     H22673   6.177   1.173   9.279  2.9995 -1.2088 -0.3283
  889MOL0     H22674   6.066   1.252   8.999  2.4309  0.4143  0.7488
  889MOL0     H22675   6.044   1.087   9.058 -0.8875  1.0947 -3.1893
  889MOL0     H22676   5.850   1.239   9.115  2.4931 -2.4827 -3.8707
  889MOL0     H22677   5.956   1.321   9.229 -1.6805  1.1293 -3.2131
  889MOL0     H22678   5.779   0.992   9.411  1.0719 -4.7370 -2.0154
  889MOL0     H22679   6.501   0.883   9.253 -3.3052  2.3207 -2.0686
  889MOL0     H22680   6.727   0.732   9.286  3.8887  0.5322  0.2887
  889MOL0     H22681   6.663   0.692   9.131 -0.5715  0.7635  0.3514
  889MOL0     H22682   6.827   0.738   9.133 -0.7733 -0.1741 -1.0576
  890MOL0     O22683   3.119   9.229   0.591 -0.1606 -0.8819  0.2866
  890MOL0     C22684   3.080   9.172   0.492  0.1315 -1.5109 -1.0909
  890MOL0     O22685   3.131   9.194   0.363 -0.2724  0.2309  0.4550
  890MOL0     C22686   3.253   9.259   0.361 -1.0475 -0.7121 -0.1043
  890MOL0     C22687   3.284   9.319   0.233 -0.0733  0.1159 -0.6417
  890MOL0     C22688   3.420   9.369   0.219 -0.5437 -0.3239  1.3076
  890MOL0     C22689   3.518   9.361   0.316 -0.2629  0.2233  0.4327
  890MOL0     O22690   3.647   9.418   0.295 -0.0731 -0.0214  0.3064
  890MOL0     C22691   3.761   9.364   0.365 -0.5012  0.4354  0.2087
  890MOL0     C22692   3.868   9.366   0.263 -1.0335  0.0295  0.6419
  890MOL0     C22693   3.928   9.509   0.235 -0.5064  0.4489 -0.2465
  890MOL0     C22694   4.054   9.493   0.149 -0.0789  0.0899  0.3669
  890MOL0     C22695   4.143   9.617   0.164 -0.3927  0.4225 -0.3657
  890MOL0     C22696   4.273   9.595   0.086  0.3753 -0.3592 -0.3484
  890MOL0     C22697   4.384   9.693   0.129  0.3554  0.2625  0.8273
  890MOL0     C22698   4.523   9.637   0.111 -0.7744 -0.5361 -0.6842
  890MOL0     N22699   4.621   9.739   0.161 -0.0121 -0.2889  0.3423
  890MOL0     C22700   4.622   9.792   0.291  0.1871  0.7302  0.7518
  890MOL0     C22701   4.742   9.847   0.313 -1.2257  0.8576  0.0823
  890MOL0     C22702   4.802   9.898   0.440 -0.1502 -0.1022 -0.9144
  890MOL0     C22703   4.926   9.987   0.434 -0.6815  0.3787  0.6334
  890MOL0     C22704   4.959  10.059   0.566 -0.4110 -0.3733  0.4388
  890MOL0     C22705   4.872  10.183   0.587  0.1679 -0.1561  0.0585
  890MOL0     O22706   4.909  10.244   0.711  0.2092  0.2425 -0.1252
  890MOL0     C22707   5.034  10.313   0.709  0.5444  0.4386 -0.5718
  890MOL0     C22708   5.108  10.377   0.609  0.0687 -0.0652  0.1478
  890MOL0     C22709   5.236  10.434   0.629 -0.4244 -0.3977  0.0341
  890MOL0     C22710   5.285  10.503   0.505 -0.6324  0.7117 -0.3045
  890MOL0     C22711   5.295  10.438   0.753  0.5957 -0.2745 -0.3266
  890MOL0     C22712   5.427  10.502   0.784  0.3679  0.5142  0.5476
  890MOL0     O22713   5.489  10.465   0.898 -0.1849 -0.4712  0.1023
  890MOL0     C22714   5.614  10.499   0.940  0.5120  1.2115  0.2868
  890MOL0     C22715   5.631  10.506   1.076  0.5832 -0.5362  0.9406
  890MOL0     C22716   5.756  10.542   1.120  0.7162  0.0601  0.2912
  890MOL0     C22717   5.860  10.581   1.030  0.2237  1.0242 -0.6885
  890MOL0     O22718   5.977  10.615   1.085  0.1079  0.2067  0.4276
  890MOL0     C22719   6.092  10.616   0.998  0.2539  0.1349 -0.6298
  890MOL0     C22720   6.223  10.640   1.078  0.3243 -0.5007 -0.5229
  890MOL0     C22721   6.232  10.790   1.109 -0.4097 -0.4123 -0.7881
  890MOL0     C22722   6.352  10.813   1.204 -0.2664  0.6791  0.1529
  890MOL0     C22723   6.350  10.944   1.277 -0.2524 -0.4149 -0.0394
  890MOL0     C22724   6.364  11.061   1.188 -0.2744 -0.1348  0.1377
  890MOL0     C22725   6.376  11.197   1.274 -0.3281  0.1907  0.1974
  890MOL0     C22726   6.336  11.323   1.192 -0.7138 -0.5599  0.1168
  890MOL0    Cl22727   6.432  11.321   1.037 -0.2281 -0.3006 -0.0299
  890MOL0     C22728   5.841  10.573   0.888  0.5683 -0.4595 -0.6175
  890MOL0     C22729   5.713  10.539   0.849  0.3727 -0.7795 -0.1794
  890MOL0     O22730   5.473  10.577   0.698  0.6829  0.1251 -0.5840
  890MOL0     C22731   5.219  10.373   0.853  0.4068  0.1168  0.2967
  890MOL0     C22732   5.098  10.313   0.837  0.4450  0.7668  0.6770
  890MOL0     N22733   4.806   9.840   0.193  0.9085 -0.0331 -0.1663
  890MOL0     N22734   4.735   9.771   0.107  0.1051 -0.3282  0.1390
  890MOL0     C22735   3.484   9.301   0.440 -0.4614 -0.8355  1.1391
  890MOL0     C22736   3.360   9.248   0.462 -0.8228  0.2347  0.4655
  890MOL0     C22737   2.979   9.065   0.499  0.6035 -0.4968  0.4304
  890MOL0     C22738   2.936   9.010   0.372 -0.6911  0.3878  0.0187
  890MOL0     C22739   2.841   8.910   0.372 -0.6002 -0.5630 -0.6298
  890MOL0     C22740   2.773   8.880   0.487  0.6775  0.0329 -0.7068
  890MOL0     O22741   2.677   8.780   0.489 -0.0622 -0.2961  1.3208
  890MOL0     C22742   2.557   8.810   0.415 -0.6497  0.8326 -0.2983
  890MOL0     C22743   2.500   8.682   0.361  0.3691  0.0298 -0.0236
  890MOL0     C22744   2.355   8.684   0.295 -0.6340  0.1263 -0.3296
  890MOL0     C22745   2.314   8.547   0.246  0.2305  0.5814  0.0780
  890MOL0     C22746   2.191   8.543   0.172  0.4959  0.4971  0.7004
  890MOL0     C22747   2.086   8.533   0.116 -1.0054 -0.0320  0.2183
  890MOL0     C22748   2.809   8.941   0.607  0.3601  0.3894  0.4865
  890MOL0     C22749   2.914   9.030   0.616  0.3767  0.1508 -0.2357
  890MOL0     C22750   2.932   9.096   0.750  0.0794  0.2842 -0.2853
  890MOL0     H22751   3.215   9.335   0.150  0.1409  0.4390 -0.7606
  890MOL0     H22752   3.453   9.415   0.126 -0.4066  0.7573  1.8665
  890MOL0     H22753   3.748   9.260   0.396 -2.9933 -0.3014 -2.8631
  890MOL0     H22754   3.799   9.428   0.446 -1.2600 -2.0340  2.6768
  890MOL0     H22755   3.954   9.308   0.297  0.9995  1.6496 -1.3813
  890MOL0     H22756   3.831   9.320   0.171  1.3272 -1.1615  0.2028
  890MOL0     H22757   3.866   9.575   0.172  1.4355  0.2727 -2.4990
  890MOL0     H22758   3.937   9.565   0.328 -3.1832  3.5750 -1.6286
  890MOL0     H22759   4.105   9.405   0.190 -3.6550 -0.5415  4.1523
  890MOL0     H22760   4.023   9.486   0.044  0.1675 -0.6532  0.3366
  890MOL0     H22761   4.167   9.638   0.269 -0.1655 -2.4171  0.2324
  890MOL0     H22762   4.088   9.700   0.118 -1.1361  0.5787  0.7673
  890MOL0     H22763   4.314   9.495   0.103  1.5981 -0.2241 -2.1970
  890MOL0     H22764   4.259   9.612  -0.021 -0.4431  0.1972 -0.1595
  890MOL0     H22765   4.359   9.730   0.229 -0.5993  1.7719  0.0709
  890MOL0     H22766   4.383   9.787   0.072  0.3489  0.5544  1.2991
  890MOL0     H22767   4.520   9.545   0.170 -1.8014 -0.1069 -0.0487
  890MOL0     H22768   4.543   9.616   0.006 -0.4595 -2.6486 -0.2618
  890MOL0     H22769   4.552   9.774   0.372  0.1939 -0.5414  0.4908
  890MOL0     H22770   4.826   9.808   0.499 -4.0965 -0.4325  0.5333
  890MOL0     H22771   4.715   9.942   0.490  0.2094 -0.8394  0.4116
  890MOL0     H22772   5.001   9.914   0.403 -0.6526 -0.3771  2.3771
  890MOL0     H22773   4.931  10.065   0.357  1.8496 -1.5776 -1.3420
  890MOL0     H22774   4.947   9.997   0.656 -0.9114  1.4189  1.6642
  890MOL0     H22775   5.065  10.085   0.569 -1.1057  2.7852  0.6720
  890MOL0     H22776   4.896  10.252   0.506  5.8666  0.0727  1.4875
  890MOL0     H22777   4.768  10.150   0.578 -0.0296  0.3085  0.5496
  890MOL0     H22778   5.069  10.371   0.508 -0.4174  1.3981  0.2200
  890MOL0     H22779   5.214  10.486   0.422 -1.5150  2.9000 -0.0509
  890MOL0     H22780   5.380  10.469   0.463 -0.4179  3.2304 -2.0884
  890MOL0     H22781   5.291  10.610   0.522 -1.0178  0.8101 -0.7664
  890MOL0     H22782   5.546  10.489   1.142  0.9116  0.9777  1.8245
  890MOL0     H22783   5.765  10.555   1.227  0.2560  1.4447  0.1724
  890MOL0     H22784   6.103  10.524   0.940  0.0388  0.1035 -0.6216
  890MOL0     H22785   6.083  10.698   0.926 -1.8916  0.5103 -0.0254
  890MOL0     H22786   6.219  10.578   1.168  3.1023 -1.0257 -0.6848
  890MOL0     H22787   6.309  10.604   1.020  0.9352 -1.1334  0.7501
  890MOL0     H22788   6.146  10.819   1.170 -0.1273 -0.5089 -0.3398
  890MOL0     H22789   6.237  10.845   1.014 -2.5051 -1.0212 -1.3019
  890MOL0     H22790   6.442  10.805   1.142 -0.4020 -0.4488  0.0934
  890MOL0     H22791   6.356  10.735   1.281 -0.0609 -2.3982 -2.7769
  890MOL0     H22792   6.262  10.960   1.340  0.0751  0.1713  0.2759
  890MOL0     H22793   6.434  10.952   1.347  0.5250 -2.3270 -0.6690
  890MOL0     H22794   6.280  11.064   1.119 -0.0717  2.4740 -0.0718
  890MOL0     H22795   6.452  11.046   1.124 -1.0157 -1.5004 -0.6069
  890MOL0     H22796   6.480  11.202   1.308 -0.8218  0.6584  1.7094
  890MOL0     H22797   6.316  11.189   1.365 -1.4292 -0.2286 -0.5394
  890MOL0     H22798   6.369  11.409   1.251 -2.2545 -0.0702  0.3087
  890MOL0     H22799   6.229  11.329   1.171 -0.0682  0.1357 -3.6609
  890MOL0     H22800   5.911  10.594   0.808  0.0935 -1.0636 -1.2009
  890MOL0     H22801   5.683  10.535   0.745  0.2656 -1.1549 -0.1319
  890MOL0     H22802   5.267  10.381   0.950 -1.4564  2.5668  1.1026
  890MOL0     H22803   5.042  10.273   0.921 -1.2359  1.0447 -0.2627
  890MOL0     H22804   3.558   9.284   0.518  0.0612  1.0291  1.0927
  890MOL0     H22805   3.360   9.200   0.559  0.3772 -2.3261 -0.7100
  890MOL0     H22806   2.982   9.041   0.279 -3.3927 -0.6309 -1.7884
  890MOL0     H22807   2.831   8.862   0.275 -1.1183 -0.5757 -0.5749
  890MOL0     H22808   2.481   8.857   0.477 -4.0957 -1.5855 -2.3757
  890MOL0     H22809   2.571   8.873   0.327 -1.5555  2.4311  0.6664
  890MOL0     H22810   2.491   8.619   0.450  0.2909 -0.2259 -0.2105
  890MOL0     H22811   2.571   8.626   0.299 -2.1726 -0.6326 -2.5918
  890MOL0     H22812   2.287   8.728   0.369  1.6568 -0.3307  2.2310
  890MOL0     H22813   2.359   8.740   0.201 -0.6948  1.0045  0.1829
  890MOL0     H22814   2.301   8.482   0.333 -0.9257  0.7361  0.0389
  890MOL0     H22815   2.389   8.514   0.175  0.0138  1.0616 -0.3818
  890MOL0     H22816   1.990   8.540   0.069 -0.2806  0.8889 -1.1874
  890MOL0     H22817   2.753   8.905   0.693  0.1854 -1.1390 -0.2420
  890MOL0     H22818   2.907   9.201   0.739  0.0300  0.2095 -0.9133
  890MOL0     H22819   2.880   9.052   0.835 -0.1173  2.3489  0.7141
  890MOL0     H22820   3.038   9.091   0.778  0.5372  0.5942 -1.8446
  891MOL0     O22821   9.645   2.574   4.056 -0.1163  0.1453  0.5588
  891MOL0     C22822   9.564   2.493   4.012 -0.5184  1.1361 -0.0844
  891MOL0     O22823   9.590   2.363   3.980 -0.1044 -0.9018  0.0762
  891MOL0     C22824   9.719   2.319   3.978 -1.1863  0.4098 -0.6002
  891MOL0     C22825   9.811   2.341   3.873  0.3825 -0.3087 -0.2499
  891MOL0     C22826   9.938   2.283   3.877  0.3028 -0.2313  0.4756
  891MOL0     C22827   9.980   2.196   3.982  0.0848 -0.5654 -0.1779
  891MOL0     O22828  10.112   2.139   3.976 -0.6802  0.0707  0.3089
  891MOL0     C22829  10.142   2.026   4.053  0.7158 -0.2944  0.4726
  891MOL0     C22830  10.286   1.976   4.012 -0.2724 -0.1319 -1.1553
  891MOL0     C22831  10.396   2.068   4.077 -0.4092  0.3232  0.4890
  891MOL0     C22832  10.550   2.048   4.031  0.1105  0.0954 -0.3492
  891MOL0     C22833  10.602   1.912   4.071 -0.6153  0.4235 -0.8154
  891MOL0     C22834  10.740   1.887   4.020  0.2374 -0.4544  1.0950
  891MOL0     C22835  10.803   1.762   4.070 -0.4056  0.8438  1.0252
  891MOL0     C22836  10.937   1.722   3.995 -0.5672 -0.5360 -1.1804
  891MOL0     N22837  10.918   1.662   3.862  1.2155  0.9355 -0.4735
  891MOL0     C22838  10.924   1.724   3.739  1.0422 -0.3078  0.8330
  891MOL0     C22839  10.913   1.622   3.657  0.8809 -0.6966  0.7357
  891MOL0     C22840  10.918   1.639   3.510 -1.1836  0.2188  1.0367
  891MOL0     C22841  11.061   1.633   3.459  0.0008 -0.5331 -0.8685
  891MOL0     C22842  11.135   1.505   3.496 -0.2444 -0.2661  0.2511
  891MOL0     C22843  11.248   1.487   3.394 -0.7762 -0.5913 -0.6437
  891MOL0     O22844  11.336   1.383   3.445 -0.2919 -0.4162 -0.2703
  891MOL0     C22845  11.468   1.424   3.480  0.0356 -1.5092  0.2171
  891MOL0     C22846  11.496   1.546   3.551  0.3336  0.6028 -0.9548
  891MOL0     C22847  11.628   1.574   3.602 -0.8927 -0.1094  0.3014
  891MOL0     C22848  11.638   1.705   3.681 -1.0298 -1.1379 -0.0737
  891MOL0     C22849  11.734   1.491   3.572  0.0311  0.6597 -0.1569
  891MOL0     C22850  11.881   1.510   3.619  0.1256  0.0760  0.4467
  891MOL0     O22851  11.983   1.421   3.572  0.5424 -0.3951  0.6116
  891MOL0     C22852  12.094   1.387   3.642 -0.2412 -1.1116  0.0297
  891MOL0     C22853  12.113   1.408   3.781  0.5343 -0.3116  0.7050
  891MOL0     C22854  12.230   1.362   3.844 -0.0418 -0.4145  0.2965
  891MOL0     C22855  12.317   1.278   3.767 -0.1182 -0.1703  0.0726
  891MOL0     O22856  12.411   1.202   3.822  0.6459 -0.2750 -0.4676
  891MOL0     C22857  12.448   1.223   3.957 -0.1393  0.7043  0.2595
  891MOL0     C22858  12.542   1.335   3.974 -0.4402  0.4396  1.1291
  891MOL0     C22859  12.664   1.324   3.887 -0.7577 -0.2409 -0.1962
  891MOL0     C22860  12.779   1.411   3.933 -0.1288  0.6129  0.5099
  891MOL0     C22861  12.909   1.411   3.847  0.1715 -0.0448  0.0326
  891MOL0     C22862  12.985   1.276   3.851  0.0172 -0.1072  0.1876
  891MOL0     C22863  13.107   1.283   3.765 -0.7199  0.1705  0.2673
  891MOL0     C22864  13.209   1.188   3.824 -0.5217 -0.2861 -0.6611
  891MOL0    Cl22865  13.345   1.169   3.712  0.3233  0.1866  0.3525
  891MOL0     C22866  12.297   1.257   3.629  0.1446 -0.2887  0.6173
  891MOL0     C22867  12.185   1.310   3.568 -0.4098 -0.9113  0.2340
  891MOL0     O22868  11.900   1.605   3.695  0.3725  0.1483  0.1093
  891MOL0     C22869  11.704   1.374   3.496 -0.3150 -1.1128  0.5036
  891MOL0     C22870  11.576   1.345   3.462 -0.3668  0.0733 -0.2471
  891MOL0     N22871  10.892   1.504   3.722 -0.3054  0.5950  0.4758
  891MOL0     N22872  10.887   1.529   3.848  0.0181  0.1910  0.6195
  891MOL0     C22873   9.887   2.174   4.086 -0.6222 -0.4420  0.2219
  891MOL0     C22874   9.764   2.237   4.085 -0.4275  0.2966  1.1415
  891MOL0     C22875   9.415   2.523   4.006  0.8597 -0.0525  0.9664
  891MOL0     C22876   9.320   2.423   3.971 -0.2480 -0.1255 -0.4921
  891MOL0     C22877   9.184   2.450   3.986  0.8335  0.3757  0.1354
  891MOL0     C22878   9.141   2.571   4.007  0.0603 -0.5207 -0.1555
  891MOL0     O22879   9.004   2.585   4.004 -1.1124 -0.3412 -0.3631
  891MOL0     C22880   8.944   2.704   4.060  0.3945  0.3466  0.2729
  891MOL0     C22881   8.798   2.680   4.098  0.7285  0.1300  0.1385
  891MOL0     C22882   8.734   2.799   4.171 -0.7340 -0.1342  0.6694
  891MOL0     C22883   8.607   2.756   4.239 -0.3854 -0.2802 -0.3600
  891MOL0     C22884   8.496   2.714   4.150  0.7432 -0.9797 -0.5125
  891MOL0     C22885   8.404   2.710   4.070 -0.4317  0.3449 -0.0362
  891MOL0     C22886   9.229   2.680   4.027 -0.6029  1.5852  0.3325
  891MOL0     C22887   9.367   2.656   4.034  0.5695  0.2974  0.1350
  891MOL0     C22888   9.449   2.783   4.075  0.2134 -0.0614  0.0624
  891MOL0     H22889   9.786   2.396   3.782  2.0535  0.8560 -0.0388
  891MOL0     H22890   9.995   2.303   3.786  0.3034  2.5169  0.9948
  891MOL0     H22891  10.071   1.946   4.029  0.4611 -0.5107  1.8740
  891MOL0     H22892  10.135   2.055   4.158 -1.6621  0.4167  0.1772
  891MOL0     H22893  10.304   1.872   4.040 -2.3799 -1.2950 -3.6961
  891MOL0     H22894  10.288   1.996   3.904  1.7499 -0.2034 -1.1609
  891MOL0     H22895  10.381   2.171   4.042  2.8549 -0.0977 -2.7946
  891MOL0     H22896  10.386   2.065   4.186  0.2225  4.4137  0.8148
  891MOL0     H22897  10.571   2.054   3.924  0.3757 -1.0305 -0.3735
  891MOL0     H22898  10.611   2.127   4.075 -0.7537  0.3958  0.3353
  891MOL0     H22899  10.541   1.825   4.045 -1.1984 -0.2857  2.4980
  891MOL0     H22900  10.599   1.905   4.180  0.6459 -2.1106 -0.8856
  891MOL0     H22901  10.728   1.880   3.911 -1.8896  0.3958  1.2398
  891MOL0     H22902  10.808   1.970   4.041 -1.1181  1.1933 -0.6364
  891MOL0     H22903  10.732   1.680   4.059 -1.1774  1.6433 -0.1256
  891MOL0     H22904  10.819   1.759   4.179 -0.9187 -0.7897  1.0876
  891MOL0     H22905  10.996   1.813   3.981 -0.7075 -0.2496  0.0017
  891MOL0     H22906  10.993   1.650   4.055  1.0339 -1.8659 -4.0514
  891MOL0     H22907  10.946   1.826   3.707  0.6441 -0.4853 -0.0358
  891MOL0     H22908  10.871   1.723   3.459  0.5004  1.9038  2.1602
  891MOL0     H22909  10.875   1.551   3.459 -3.8828  0.7212  2.2917
  891MOL0     H22910  11.052   1.635   3.350  0.4046 -2.8726 -1.0131
  891MOL0     H22911  11.112   1.724   3.491 -4.5448  2.7742 -1.9481
  891MOL0     H22912  11.194   1.510   3.589  3.6233  1.3239 -2.0286
  891MOL0     H22913  11.071   1.419   3.480 -0.6281 -0.1912  1.2958
  891MOL0     H22914  11.198   1.429   3.315 -0.1504  1.2361 -2.4714
  891MOL0     H22915  11.299   1.578   3.361 -0.4528 -0.7589 -0.6168
  891MOL0     H22916  11.410   1.607   3.575 -0.6829 -1.4506  0.9684
  891MOL0     H22917  11.539   1.749   3.697 -0.8576 -1.1252  1.0597
  891MOL0     H22918  11.690   1.781   3.622  0.8929 -2.7352 -0.5169
  891MOL0     H22919  11.675   1.692   3.784 -0.9381 -2.7796 -0.2866
  891MOL0     H22920  12.055   1.462   3.855  1.5384  0.9678  0.6025
  891MOL0     H22921  12.255   1.384   3.947  1.0355 -2.0783  0.4279
  891MOL0     H22922  12.358   1.229   4.018 -0.7293 -0.1282 -0.5117
  891MOL0     H22923  12.502   1.136   3.996 -0.0473  0.5562 -0.1952
  891MOL0     H22924  12.496   1.433   3.956  2.3282  1.8214  1.0229
  891MOL0     H22925  12.569   1.335   4.080 -0.5272 -3.4870  1.2959
  891MOL0     H22926  12.646   1.348   3.781 -1.1518  0.0993 -0.0588
  891MOL0     H22927  12.705   1.223   3.888 -2.2457 -0.8718  1.3347
  891MOL0     H22928  12.804   1.381   4.035  2.7734  0.5530 -0.1574
  891MOL0     H22929  12.746   1.516   3.932 -1.6305  0.2829  3.6918
  891MOL0     H22930  12.879   1.432   3.744  1.1693 -2.9301 -0.9447
  891MOL0     H22931  12.971   1.491   3.888 -0.3823  0.1625  0.4923
  891MOL0     H22932  12.924   1.193   3.813 -1.3827  0.9442  0.0574
  891MOL0     H22933  13.012   1.264   3.956 -0.7051 -1.4793  0.2466
  891MOL0     H22934  13.148   1.385   3.757 -3.9807  1.5388 -0.5408
  891MOL0     H22935  13.072   1.258   3.665 -0.1788  4.5404 -1.2428
  891MOL0     H22936  13.155   1.095   3.844 -1.3549  0.4378  0.6213
  891MOL0     H22937  13.239   1.233   3.919 -1.6598 -1.0337  0.0941
  891MOL0     H22938  12.363   1.193   3.571  2.2555 -0.1530  2.7265
  891MOL0     H22939  12.176   1.288   3.462  0.2918 -1.1545  0.2181
  891MOL0     H22940  11.781   1.299   3.478 -1.3478 -2.4233  1.3724
  891MOL0     H22941  11.558   1.252   3.408 -2.0874 -0.0128  0.3819
  891MOL0     H22942   9.901   2.114   4.176 -1.5748  1.5536  1.7854
  891MOL0     H22943   9.693   2.209   4.161 -0.2626  0.3949  1.3307
  891MOL0     H22944   9.353   2.322   3.946 -0.3831 -0.1417 -0.6007
  891MOL0     H22945   9.122   2.362   3.973 -0.0498  1.0576 -0.4218
  891MOL0     H22946   8.987   2.740   4.154  0.4319 -2.4714  1.4410
  891MOL0     H22947   8.944   2.783   3.985 -3.2222 -0.4159 -0.7316
  891MOL0     H22948   8.798   2.601   4.173  0.2233  1.0281  1.0986
  891MOL0     H22949   8.727   2.652   4.019  0.0933  2.3298 -0.1325
  891MOL0     H22950   8.797   2.829   4.256 -0.9360 -1.6084  1.3675
  891MOL0     H22951   8.726   2.868   4.087 -1.8607 -0.6789  0.3054
  891MOL0     H22952   8.572   2.847   4.289  1.2612  1.5640 -2.3501
  891MOL0     H22953   8.632   2.674   4.307  0.0942  0.6033  0.5457
  891MOL0     H22954   8.319   2.696   4.006  0.3949  4.8513 -2.5267
  891MOL0     H22955   9.193   2.780   4.047  1.0861  2.3512 -0.2735
  891MOL0     H22956   9.523   2.795   3.995 -0.1765 -1.5817 -0.5738
  891MOL0     H22957   9.371   2.860   4.080  0.4678  0.2689 -0.8382
  891MOL0     H22958   9.511   2.775   4.165 -0.4830 -0.9376  0.4779
  892MOL0     O22959   3.118   7.545   8.191  0.4076 -0.9932  0.5820
  892MOL0     C22960   3.114   7.425   8.199 -0.4524  0.6782 -0.6598
  892MOL0     O22961   3.143   7.337   8.103 -0.1778 -0.4326  0.4759
  892MOL0     C22962   3.191   7.385   7.982  0.7632  0.2064 -0.0509
  892MOL0     C22963   3.106   7.476   7.906  0.2728 -0.4694  0.4899
  892MOL0     C22964   3.151   7.524   7.782 -0.1201  0.5324 -0.6777
  892MOL0     C22965   3.277   7.483   7.732 -0.7243  0.1150  0.1481
  892MOL0     O22966   3.307   7.521   7.602 -0.6320 -0.5489  0.6200
  892MOL0     C22967   3.438   7.486   7.546  1.0172  0.0511 -0.9485
  892MOL0     C22968   3.454   7.542   7.402 -0.4022 -0.6632 -0.0977
  892MOL0     C22969   3.558   7.470   7.327 -0.7501 -0.3005  0.4479
  892MOL0     C22970   3.698   7.530   7.339  0.1534  0.1460 -0.6892
  892MOL0     C22971   3.799   7.458   7.241 -0.8876  0.9918  0.7697
  892MOL0     C22972   3.835   7.323   7.304  0.3574  1.0313  0.1301
  892MOL0     C22973   3.936   7.237   7.221  0.5604  0.8297 -0.2072
  892MOL0     C22974   3.879   7.123   7.132 -0.2742  0.0879  0.4018
  892MOL0     N22975   3.801   7.018   7.199  0.3400 -0.4238 -0.2302
  892MOL0     C22976   3.852   6.916   7.275  0.8600  0.1810  0.3170
  892MOL0     C22977   3.746   6.829   7.306  0.1655  0.6399  0.2640
  892MOL0     C22978   3.768   6.691   7.362 -0.1825 -0.2632 -0.1582
  892MOL0     C22979   3.693   6.692   7.505 -0.4825 -0.3700 -0.1536
  892MOL0     C22980   3.743   6.809   7.592 -0.4994 -0.9335  0.2886
  892MOL0     C22981   3.885   6.818   7.609  0.7084  0.6097  0.1534
  892MOL0     O22982   3.927   6.728   7.708  0.1195 -0.0979 -0.4597
  892MOL0     C22983   4.057   6.708   7.747  0.1999  0.5366  0.0204
  892MOL0     C22984   4.090   6.621   7.852  0.2987 -0.0115 -0.3779
  892MOL0     C22985   4.215   6.605   7.913  0.8755 -0.1025 -0.0092
  892MOL0     C22986   4.236   6.510   8.026  0.3394  0.1168  0.1177
  892MOL0     C22987   4.321   6.682   7.856 -0.3033 -0.6559  0.5581
  892MOL0     C22988   4.464   6.675   7.909 -0.1562  0.5421  0.9742
  892MOL0     O22989   4.565   6.690   7.817  0.2553 -0.0728 -0.8599
  892MOL0     C22990   4.687   6.647   7.865  0.5408 -0.3047 -0.0150
  892MOL0     C22991   4.705   6.508   7.899  0.2733 -0.1698 -0.6904
  892MOL0     C22992   4.834   6.457   7.926  0.7860 -0.8478  0.4053
  892MOL0     C22993   4.946   6.545   7.909  0.5855  0.1594 -0.2241
  892MOL0     O22994   5.066   6.488   7.942  0.7600  0.0144  0.7971
  892MOL0     C22995   5.176   6.570   7.969 -0.4932 -0.2202 -0.3651
  892MOL0     C22996   5.304   6.503   8.001  0.4843  0.3203  0.6654
  892MOL0     C22997   5.411   6.600   8.042 -0.4626 -0.4228 -0.1924
  892MOL0     C22998   5.534   6.523   8.079 -0.9538  0.6171 -0.4629
  892MOL0     C22999   5.646   6.605   8.152 -0.5044 -0.4797 -0.0233
  892MOL0     C23000   5.750   6.526   8.242  0.7955  0.6026 -0.1784
  892MOL0     C23001   5.837   6.434   8.151 -0.0074 -0.0716 -0.2967
  892MOL0     C23002   5.971   6.421   8.207 -0.0812 -0.1655 -0.5889
  892MOL0    Cl23003   6.058   6.576   8.189 -0.1832  0.0550 -0.1431
  892MOL0     C23004   4.925   6.683   7.899  0.1206 -0.6423 -0.4476
  892MOL0     C23005   4.801   6.733   7.863 -0.0733  0.1012  0.5621
  892MOL0     O23006   4.473   6.668   8.026  0.4423 -0.5523 -0.6175
  892MOL0     C23007   4.296   6.769   7.751  0.5052  0.1093 -0.9395
  892MOL0     C23008   4.165   6.780   7.702 -0.0637  0.5994  0.3435
  892MOL0     N23009   3.633   6.877   7.242 -0.2691  0.0377  0.3020
  892MOL0     N23010   3.662   6.993   7.188  0.4243 -0.1353  0.2629
  892MOL0     C23011   3.351   7.393   7.807  0.1343  0.1748  0.2276
  892MOL0     C23012   3.306   7.342   7.920 -0.6444 -1.1508 -0.9468
  892MOL0     C23013   3.071   7.381   8.333 -0.1444 -0.7083 -0.5173
  892MOL0     C23014   3.122   7.260   8.380 -0.7039  0.1372  0.2327
  892MOL0     C23015   3.080   7.203   8.495  0.0495  0.2563 -0.0711
  892MOL0     C23016   2.971   7.251   8.564  0.2714 -0.6023  0.0700
  892MOL0     O23017   2.909   7.174   8.665  0.1683  0.2710 -0.6964
  892MOL0     C23018   2.861   7.246   8.784  0.3618  0.1667  0.5864
  892MOL0     C23019   2.971   7.333   8.856  0.5075 -0.2675 -0.4961
  892MOL0     C23020   3.081   7.245   8.913 -0.8544 -0.9311 -0.7965
  892MOL0     C23021   3.152   7.318   9.028  0.0874  0.5497 -0.6655
  892MOL0     C23022   3.279   7.265   9.071  0.6900 -0.4769 -0.5933
  892MOL0     C23023   3.391   7.221   9.094  0.0186 -1.2080 -0.3643
  892MOL0     C23024   2.921   7.373   8.526 -0.2368  0.0485  0.4101
  892MOL0     C23025   2.961   7.446   8.417 -0.6294 -0.4548  0.0839
  892MOL0     C23026   2.895   7.578   8.382  0.2431 -0.5138 -0.0563
  892MOL0     H23027   3.011   7.501   7.953 -1.3414 -2.1722 -1.6420
  892MOL0     H23028   3.086   7.577   7.714 -0.4669  0.5618 -0.3293
  892MOL0     H23029   3.444   7.377   7.543  3.3162 -0.0173  1.7596
  892MOL0     H23030   3.514   7.520   7.618 -0.9683 -0.3439  1.4616
  892MOL0     H23031   3.354   7.544   7.358 -0.4641  2.4004 -0.0337
  892MOL0     H23032   3.468   7.649   7.424  1.2476 -0.3421 -2.3269
  892MOL0     H23033   3.557   7.364   7.351 -0.8454 -0.0498  1.5769
  892MOL0     H23034   3.531   7.485   7.222 -0.6456  2.8477  0.7717
  892MOL0     H23035   3.704   7.638   7.328  1.4214  0.0589 -1.0931
  892MOL0     H23036   3.719   7.504   7.443 -0.6620 -1.8212 -0.9551
  892MOL0     H23037   3.891   7.518   7.234 -0.5914  0.4654  0.1010
  892MOL0     H23038   3.765   7.448   7.138 -0.9463  1.8297  0.6981
  892MOL0     H23039   3.888   7.349   7.396  1.2687 -0.8089  0.1762
  892MOL0     H23040   3.748   7.266   7.338  0.8192  1.7745  2.7969
  892MOL0     H23041   4.010   7.190   7.286  2.0416  1.4780 -1.3813
  892MOL0     H23042   3.997   7.305   7.162 -1.0670  0.4403 -2.4625
  892MOL0     H23043   3.806   7.172   7.067  0.4780 -0.6709 -1.0728
  892MOL0     H23044   3.960   7.082   7.071  0.9906 -0.6977  2.5321
  892MOL0     H23045   3.957   6.895   7.293  1.1664  1.2435 -0.1083
  892MOL0     H23046   3.876   6.673   7.368  0.0155  0.6437 -0.9393
  892MOL0     H23047   3.727   6.614   7.295  1.3606 -0.2082 -1.2149
  892MOL0     H23048   3.586   6.708   7.489 -0.1877  2.5110  0.2284
  892MOL0     H23049   3.709   6.594   7.552  1.1109  0.9948  2.4003
  892MOL0     H23050   3.726   6.909   7.551  1.4572 -0.8867 -0.5423
  892MOL0     H23051   3.687   6.799   7.685 -2.0712 -2.9730 -0.7835
  892MOL0     H23052   3.932   6.803   7.512  2.9258  2.2446  0.9034
  892MOL0     H23053   3.911   6.919   7.642  1.8006  0.7056 -0.9161
  892MOL0     H23054   4.006   6.559   7.884 -0.3760 -0.4640 -2.8247
  892MOL0     H23055   4.137   6.474   8.055  0.8714 -0.9940  0.6300
  892MOL0     H23056   4.281   6.560   8.113  1.3154 -2.4516  1.2137
  892MOL0     H23057   4.307   6.430   8.000  3.1238  2.3947  0.2737
  892MOL0     H23058   4.623   6.436   7.894 -0.7327  0.9543 -0.7945
  892MOL0     H23059   4.852   6.356   7.963  3.5483 -0.1362  1.2421
  892MOL0     H23060   5.202   6.638   7.887  1.3587  0.4018  0.6685
  892MOL0     H23061   5.143   6.622   8.060  0.6114 -1.1694  0.6139
  892MOL0     H23062   5.270   6.443   8.086 -0.7684 -1.7280 -1.1702
  892MOL0     H23063   5.337   6.430   7.926 -2.3454  0.0072 -0.3877
  892MOL0     H23064   5.383   6.673   8.119 -1.1570  0.1149 -0.9391
  892MOL0     H23065   5.428   6.660   7.952 -0.0988 -1.9461 -1.1791
  892MOL0     H23066   5.587   6.479   7.994  1.0408  4.0733 -1.2033
  892MOL0     H23067   5.517   6.430   8.135  1.0990 -0.2527 -1.1875
  892MOL0     H23068   5.704   6.652   8.072  1.7034  1.1653  2.3865
  892MOL0     H23069   5.596   6.683   8.210 -2.0914 -0.0886 -1.7899
  892MOL0     H23070   5.690   6.456   8.302  0.0323  0.2396 -1.3259
  892MOL0     H23071   5.812   6.592   8.303 -0.5001  1.4267  0.3054
  892MOL0     H23072   5.853   6.472   8.050  2.3061  0.4527  0.2177
  892MOL0     H23073   5.786   6.337   8.144 -0.6954  0.2823 -0.2537
  892MOL0     H23074   6.013   6.338   8.150 -0.6251  1.0023 -2.7825
  892MOL0     H23075   5.957   6.400   8.314 -2.6785  2.3147 -0.3174
  892MOL0     H23076   5.013   6.746   7.892 -0.3790 -0.0320 -1.5202
  892MOL0     H23077   4.781   6.834   7.830 -1.4124 -0.7122 -1.2804
  892MOL0     H23078   4.375   6.830   7.709 -0.2723  2.4521  0.7417
  892MOL0     H23079   4.137   6.847   7.621 -1.0710 -0.1073  0.0952
  892MOL0     H23080   3.439   7.348   7.762 -0.9992  0.1085 -2.0390
  892MOL0     H23081   3.347   7.263   7.983 -0.5664 -1.1178 -0.9561
  892MOL0     H23082   3.197   7.203   8.326  0.7192 -0.0366  2.2901
  892MOL0     H23083   3.125   7.111   8.530  1.5766  0.5709 -1.1170
  892MOL0     H23084   2.780   7.316   8.761  1.3177  0.9244 -0.6113
  892MOL0     H23085   2.832   7.175   8.861 -0.2642  0.4339  0.6044
  892MOL0     H23086   2.925   7.388   8.939 -1.5525 -0.7160 -1.2821
  892MOL0     H23087   2.999   7.410   8.783 -3.0814 -1.1378 -3.0606
  892MOL0     H23088   3.035   7.151   8.944 -1.1989 -0.7845 -0.8553
  892MOL0     H23089   3.161   7.230   8.840 -1.9120 -1.4234 -1.8903
  892MOL0     H23090   3.087   7.325   9.116  3.8931  1.1585  2.3741
  892MOL0     H23091   3.171   7.419   8.990 -1.6609  0.4182 -2.0393
  892MOL0     H23092   3.491   7.186   9.110  0.5397 -0.4245 -1.7672
  892MOL0     H23093   2.832   7.408   8.578 -0.8728 -1.0191  0.0867
  892MOL0     H23094   2.846   7.579   8.284 -2.7771 -0.1311  1.3261
  892MOL0     H23095   2.809   7.588   8.449  0.8127  0.7174  0.5247
  892MOL0     H23096   2.965   7.660   8.401  2.4796 -2.4610  0.6515
  893MOL0     O23097   3.203   4.651   0.706  0.1331  0.2149  0.2372
  893MOL0     C23098   3.195   4.586   0.812  0.6802 -0.5829 -0.7617
  893MOL0     O23099   3.301   4.555   0.890  0.2387  0.2727 -0.0295
  893MOL0     C23100   3.400   4.647   0.891  0.1422 -1.1589  0.1648
  893MOL0     C23101   3.513   4.632   0.811  0.4868  0.6365 -1.2216
  893MOL0     C23102   3.621   4.717   0.814  0.4260 -0.2408 -0.1389
  893MOL0     C23103   3.620   4.836   0.885  0.3571 -0.2779 -0.2763
  893MOL0     O23104   3.728   4.916   0.888  0.8456 -0.0973 -0.0035
  893MOL0     C23105   3.789   4.948   0.763 -0.2927  0.3472  0.0619
  893MOL0     C23106   3.818   5.095   0.766  0.4438  0.2094  1.4821
  893MOL0     C23107   3.912   5.129   0.643 -0.2428 -0.1643  0.4858
  893MOL0     C23108   3.946   5.283   0.634 -0.9879  0.0640 -0.2318
  893MOL0     C23109   3.887   5.356   0.508  0.5248  0.4133 -0.6351
  893MOL0     C23110   3.913   5.509   0.510 -0.8700  1.1306 -0.0899
  893MOL0     C23111   3.878   5.553   0.369 -0.8433  0.4610  0.4134
  893MOL0     C23112   3.912   5.698   0.343  0.2264  0.1972 -0.1069
  893MOL0     N23113   3.901   5.721   0.198 -0.1075 -0.9345  0.8763
  893MOL0     C23114   3.991   5.689   0.095 -0.2562 -1.0700 -0.5849
  893MOL0     C23115   3.929   5.727  -0.018  0.7678  0.5123  0.6938
  893MOL0     C23116   3.969   5.662  -0.148  0.1582 -0.3158  0.4900
  893MOL0     C23117   4.110   5.699  -0.179 -0.9714 -0.2701  0.2878
  893MOL0     C23118   4.115   5.836  -0.251 -0.0781  0.0138 -0.5010
  893MOL0     C23119   4.247   5.892  -0.311 -0.3788  0.6622  0.2296
  893MOL0     O23120   4.282   5.832  -0.436 -0.4384  0.5071  0.0827
  893MOL0     C23121   4.210   5.863  -0.545 -0.0648 -0.3327  0.3047
  893MOL0     C23122   4.121   5.970  -0.572  0.4721 -0.5672  0.2823
  893MOL0     C23123   4.063   6.000  -0.701 -0.1866 -0.0310  0.2450
  893MOL0     C23124   3.964   6.119  -0.704 -0.3726 -0.5416  0.3305
  893MOL0     C23125   4.089   5.915  -0.809 -0.4110 -0.4521  0.6216
  893MOL0     C23126   4.041   5.948  -0.946  0.8795  0.1497  0.2115
  893MOL0     O23127   4.013   6.074  -0.987 -0.3740  0.8350  0.0451
  893MOL0     C23128   3.954   6.086  -1.109 -0.6438  0.8020  0.3081
  893MOL0     C23129   4.035   6.108  -1.217  0.0608 -0.4713  0.4812
  893MOL0     C23130   3.982   6.149  -1.339 -0.2928  0.4842  0.0335
  893MOL0     C23131   3.844   6.168  -1.354 -0.0085  0.1413  0.4471
  893MOL0     O23132   3.801   6.205  -1.485  0.5051 -0.2110 -0.3808
  893MOL0     C23133   3.662   6.239  -1.508 -0.1617 -0.5709 -0.1035
  893MOL0     C23134   3.635   6.316  -1.647 -0.6292  0.5322  0.1732
  893MOL0     C23135   3.488   6.378  -1.641  0.1033 -0.1779  0.1372
  893MOL0     C23136   3.448   6.467  -1.519 -0.3530  1.4356  0.3913
  893MOL0     C23137   3.344   6.565  -1.571  0.5116  0.1221  0.1414
  893MOL0     C23138   3.197   6.517  -1.577 -0.1962  0.5200  0.5852
  893MOL0     C23139   3.134   6.545  -1.447  0.0999  0.4348  0.3380
  893MOL0     C23140   2.991   6.500  -1.442  0.0119  0.0563  0.2676
  893MOL0    Cl23141   2.906   6.578  -1.300 -0.0722 -0.1568 -0.1082
  893MOL0     C23142   3.764   6.135  -1.245 -0.1566  0.1673  0.1598
  893MOL0     C23143   3.817   6.104  -1.119  0.1090  0.7560  0.3060
  893MOL0     O23144   4.051   5.854  -1.022  0.6633  0.4360 -0.3302
  893MOL0     C23145   4.183   5.811  -0.785 -0.5521 -0.2205 -0.6594
  893MOL0     C23146   4.237   5.788  -0.663 -0.3805  0.6921 -0.7069
  893MOL0     N23147   3.800   5.769   0.013 -0.3233  0.3001  0.1593
  893MOL0     N23148   3.786   5.765   0.143 -0.4513  0.0410  0.1972
  893MOL0     C23149   3.508   4.852   0.968 -0.8328 -0.6127 -0.4454
  893MOL0     C23150   3.393   4.765   0.969 -0.1835  0.3733 -0.1885
  893MOL0     C23151   3.063   4.536   0.862 -0.1716  1.1996 -0.5206
  893MOL0     C23152   3.055   4.493   0.995 -0.5210 -0.1111 -0.5826
  893MOL0     C23153   2.938   4.443   1.044  1.0344  1.3844 -0.4692
  893MOL0     C23154   2.814   4.457   0.972 -0.9711  0.4662  0.1711
  893MOL0     O23155   2.692   4.464   1.035  0.0950  0.1517 -0.0713
  893MOL0     C23156   2.682   4.412   1.170 -0.4039  0.4526  1.2652
  893MOL0     C23157   2.530   4.419   1.216  0.1843 -0.4637  0.3900
  893MOL0     C23158   2.510   4.393   1.353  1.1286 -0.4774  0.1717
  893MOL0     C23159   2.560   4.512   1.451  0.0849 -0.4099 -0.0009
  893MOL0     C23160   2.507   4.495   1.582 -0.1391  0.2994  0.1569
  893MOL0     C23161   2.448   4.491   1.688 -0.9258  0.2062 -0.4997
  893MOL0     C23162   2.823   4.508   0.845  0.2348 -0.0957  0.5255
  893MOL0     C23163   2.945   4.536   0.785  0.5975  0.3661  0.6100
  893MOL0     C23164   2.937   4.590   0.637 -0.4528 -0.0381  0.9105
  893MOL0     H23165   3.513   4.541   0.752 -2.0570 -0.1228 -0.2000
  893MOL0     H23166   3.704   4.680   0.754  0.1160  0.1909 -0.8475
  893MOL0     H23167   3.727   4.922   0.676 -3.0325  1.7406  1.4890
  893MOL0     H23168   3.877   4.884   0.750 -1.7903 -2.1379  1.2551
  893MOL0     H23169   3.716   5.134   0.755  0.1867 -0.8309 -0.2039
  893MOL0     H23170   3.866   5.132   0.857 -0.9065 -1.1935  2.8278
  893MOL0     H23171   4.009   5.079   0.659  0.6093  0.9205 -1.0292
  893MOL0     H23172   3.878   5.089   0.547 -2.1679  2.5299 -0.0548
  893MOL0     H23173   3.919   5.333   0.728 -2.4797  0.9650 -1.1032
  893MOL0     H23174   4.055   5.294   0.634 -0.5559 -2.8207 -2.2685
  893MOL0     H23175   3.779   5.339   0.507  0.3131  1.0893  1.8792
  893MOL0     H23176   3.930   5.303   0.423  2.7878 -0.3895  0.9077
  893MOL0     H23177   3.846   5.566   0.576 -2.8656 -0.3783 -0.7074
  893MOL0     H23178   4.020   5.524   0.528 -0.2815 -1.0718 -1.4107
  893MOL0     H23179   3.771   5.538   0.356 -1.4158  3.2997  1.1335
  893MOL0     H23180   3.927   5.483   0.301 -1.2560  1.5543 -1.0371
  893MOL0     H23181   3.840   5.765   0.392  0.2628 -0.2414  0.5556
  893MOL0     H23182   4.013   5.717   0.379 -0.5355  3.0892  0.8493
  893MOL0     H23183   4.070   5.616   0.112 -0.8342 -1.0690  2.7768
  893MOL0     H23184   3.905   5.697  -0.230 -2.4215 -2.0803  1.5759
  893MOL0     H23185   3.966   5.553  -0.140 -1.7821 -0.3995 -0.7070
  893MOL0     H23186   4.171   5.690  -0.089  3.2545 -3.4856 -2.5076
  893MOL0     H23187   4.151   5.622  -0.245  0.0250 -1.3044  2.0269
  893MOL0     H23188   4.027   5.852  -0.313 -1.4574  2.5371  1.9070
  893MOL0     H23189   4.091   5.903  -0.169  0.4933 -0.3580 -0.0257
  893MOL0     H23190   4.237   5.998  -0.334 -0.3091  0.4120 -0.9832
  893MOL0     H23191   4.331   5.877  -0.242  1.0015 -4.4070 -2.0409
  893MOL0     H23192   4.076   6.028  -0.492 -0.4226 -1.2582  0.3012
  893MOL0     H23193   3.934   6.151  -0.603 -1.4479  0.3726 -0.2487
  893MOL0     H23194   3.873   6.097  -0.761 -0.8832  2.1180 -0.0140
  893MOL0     H23195   4.005   6.205  -0.757  1.2263 -0.3452  1.8080
  893MOL0     H23196   4.139   6.083  -1.199  0.3758 -1.4975 -2.3490
  893MOL0     H23197   4.042   6.172  -1.427  0.8491  2.8469  1.3297
  893MOL0     H23198   3.586   6.161  -1.498  0.0120 -0.4580  3.0978
  893MOL0     H23199   3.631   6.302  -1.424  0.7893 -2.4473  1.7400
  893MOL0     H23200   3.713   6.388  -1.672 -2.1330  3.1803  2.5053
  893MOL0     H23201   3.640   6.238  -1.723 -0.7565  0.8896 -0.2050
  893MOL0     H23202   3.426   6.289  -1.626  1.9319 -1.1865  2.5773
  893MOL0     H23203   3.456   6.427  -1.733 -5.0865 -0.8112  1.2893
  893MOL0     H23204   3.538   6.521  -1.488  1.2085 -1.4842  1.3000
  893MOL0     H23205   3.416   6.410  -1.431  0.6157  0.2307  0.0044
  893MOL0     H23206   3.347   6.649  -1.501 -3.3173  3.3897 -3.1275
  893MOL0     H23207   3.367   6.616  -1.665 -0.7356  1.1636  0.3631
  893MOL0     H23208   3.196   6.411  -1.603  2.5568  0.6200 -0.2520
  893MOL0     H23209   3.150   6.580  -1.654 -0.9327 -2.4860 -1.5923
  893MOL0     H23210   3.137   6.652  -1.425  1.3059  0.7688 -1.2578
  893MOL0     H23211   3.195   6.500  -1.368  1.9484  0.0309 -1.2308
  893MOL0     H23212   2.991   6.392  -1.423  3.4542  0.0257  0.7454
  893MOL0     H23213   2.931   6.524  -1.530 -0.4986 -0.7671  0.3758
  893MOL0     H23214   3.655   6.130  -1.252 -0.0548 -0.9487 -0.9933
  893MOL0     H23215   3.750   6.076  -1.039  0.4364 -0.3598  0.2109
  893MOL0     H23216   4.203   5.744  -0.869 -0.7574  2.5268 -3.0591
  893MOL0     H23217   4.302   5.701  -0.661  1.8914  2.2963 -1.5643
  893MOL0     H23218   3.501   4.951   1.012 -0.1488 -0.0548 -1.5447
  893MOL0     H23219   3.307   4.786   1.031 -1.1716 -0.1824 -1.3480
  893MOL0     H23220   3.148   4.492   1.051 -0.3115 -4.1322 -0.7064
  893MOL0     H23221   2.936   4.411   1.148  3.9109 -0.5289 -0.8964
  893MOL0     H23222   2.723   4.310   1.170 -2.2254 -0.4000 -1.5413
  893MOL0     H23223   2.745   4.478   1.230  2.4321  1.0864 -2.1239
  893MOL0     H23224   2.472   4.350   1.154  2.3689 -3.4792  1.4378
  893MOL0     H23225   2.497   4.522   1.198 -3.3086 -0.9441  2.9962
  893MOL0     H23226   2.403   4.376   1.370  0.7209  2.4833  1.1753
  893MOL0     H23227   2.571   4.305   1.374  2.8727  0.2670 -1.4571
  893MOL0     H23228   2.520   4.603   1.407 -0.2440 -1.1944 -1.3893
  893MOL0     H23229   2.669   4.524   1.446  0.3714 -1.0500  2.8563
  893MOL0     H23230   2.396   4.464   1.778 -1.6217 -1.5503 -1.3760
  893MOL0     H23231   2.735   4.529   0.784  0.1946  1.8548  1.1632
  893MOL0     H23232   2.940   4.699   0.633  0.9414 -0.0820 -1.6342
  893MOL0     H23233   3.026   4.549   0.590  1.0457  0.4785  3.1456
  893MOL0     H23234   2.846   4.560   0.584 -0.4607  0.0200  0.8914
  894MOL0     O23235  10.465  11.006   0.863  0.3613  0.2359  0.7604
  894MOL0     C23236  10.369  10.972   0.793 -0.4622  0.1643  0.2066
  894MOL0     O23237  10.279  11.049   0.733  0.0835 -0.6428  0.2490
  894MOL0     C23238  10.290  11.181   0.750  0.0344 -0.1177 -0.2461
  894MOL0     C23239  10.393  11.255   0.691  0.8499 -0.4019  0.6422
  894MOL0     C23240  10.390  11.398   0.700 -0.1205 -0.3124  0.0533
  894MOL0     C23241  10.304  11.466   0.779  0.2678 -0.3886 -0.3937
  894MOL0     O23242  10.315  11.601   0.768  0.4797  0.3848 -0.3911
  894MOL0     C23243  10.319  11.678   0.887  0.3891 -0.0529  0.2093
  894MOL0     C23244  10.322  11.827   0.845 -0.0869 -0.3122 -1.2127
  894MOL0     C23245  10.468  11.862   0.814 -0.5398  0.5186  0.0020
  894MOL0     C23246  10.480  12.004   0.747 -0.2534 -0.4128 -0.7477
  894MOL0     C23247  10.507  12.109   0.858 -0.0009 -0.0338 -0.4112
  894MOL0     C23248  10.506  12.255   0.802  0.6316  0.2566  0.5899
  894MOL0     C23249  10.590  12.352   0.879  0.1644  0.4242  0.1818
  894MOL0     C23250  10.528  12.370   1.022  0.3359 -0.2997  0.2876
  894MOL0     N23251  10.558  12.503   1.072  0.3099  0.4093 -0.6661
  894MOL0     C23252  10.686  12.543   1.102  0.3163 -0.4529 -0.5699
  894MOL0     C23253  10.682  12.673   1.138  0.1437 -0.3344  0.4745
  894MOL0     C23254  10.789  12.765   1.168  0.0274 -0.4501 -0.5754
  894MOL0     C23255  10.877  12.824   1.049 -0.1176 -0.4578 -0.8749
  894MOL0     C23256  10.842  12.958   0.995 -1.1073 -0.7606  0.0372
  894MOL0     C23257  10.937  12.983   0.887  0.0876 -0.3974  0.5611
  894MOL0     O23258  11.061  13.014   0.946 -0.0156  0.0152  0.2174
  894MOL0     C23259  11.148  13.064   0.857 -0.6735 -0.6432 -0.5595
  894MOL0     C23260  11.158  13.041   0.720  0.0259 -0.4632  0.2484
  894MOL0     C23261  11.259  13.104   0.638  0.2923 -0.2259 -0.5030
  894MOL0     C23262  11.264  13.072   0.494  0.3117  0.3057  0.5390
  894MOL0     C23263  11.354  13.193   0.702  0.2583  0.5169 -0.2040
  894MOL0     C23264  11.473  13.254   0.636 -0.7927  0.3047  0.3691
  894MOL0     O23265  11.541  13.340   0.703 -0.3459  0.2030  0.0494
  894MOL0     C23266  11.652  13.408   0.657  0.0415  0.7031  0.1759
  894MOL0     C23267  11.642  13.537   0.604 -0.6013  0.0026  0.0722
  894MOL0     C23268  11.753  13.615   0.567 -0.9569  0.3229 -0.6043
  894MOL0     C23269  11.881  13.556   0.583 -0.2800 -0.5113 -0.0166
  894MOL0     O23270  11.997  13.629   0.560  0.6347  0.1795 -0.1052
  894MOL0     C23271  12.015  13.728   0.670  0.8400  0.0169 -0.5316
  894MOL0     C23272  12.101  13.838   0.627 -0.5867  0.6677  0.5066
  894MOL0     C23273  12.037  13.937   0.539 -0.1646 -0.5196 -0.0412
  894MOL0     C23274  11.936  14.037   0.610  0.0593 -0.1196 -0.1507
  894MOL0     C23275  11.923  14.166   0.528  0.0711  0.0961 -0.3939
  894MOL0     C23276  11.818  14.252   0.592  0.1468 -0.1134  0.0721
  894MOL0     C23277  11.672  14.203   0.565 -0.7402  0.4004 -0.7821
  894MOL0     C23278  11.573  14.278   0.646 -0.3994  0.2423  0.2670
  894MOL0    Cl23279  11.597  14.230   0.824  0.2966 -0.1860  0.2137
  894MOL0     C23280  11.895  13.420   0.617  0.4714  1.3311  0.1160
  894MOL0     C23281  11.777  13.346   0.654  0.1658 -2.3191 -0.9608
  894MOL0     O23282  11.509  13.220   0.516  0.3811  0.6882  0.0394
  894MOL0     C23283  11.339  13.221   0.845  1.5437 -0.7804 -0.3308
  894MOL0     C23284  11.231  13.158   0.914 -0.0652 -0.1440 -0.2156
  894MOL0     N23285  10.552  12.707   1.122 -0.2742  0.0746 -0.5919
  894MOL0     N23286  10.471  12.607   1.083  0.3197  0.0895  0.7936
  894MOL0     C23287  10.204  11.393   0.846  0.4283  0.3719  0.5326
  894MOL0     C23288  10.200  11.256   0.833  0.1228  0.7413  0.6156
  894MOL0     C23289  10.350  10.828   0.781 -0.2867  0.1239  0.7233
  894MOL0     C23290  10.218  10.791   0.737  0.0735 -0.5506 -0.4108
  894MOL0     C23291  10.186  10.655   0.725  0.6924 -0.5718  0.6307
  894MOL0     C23292  10.278  10.549   0.746  0.4271 -1.5316 -1.1360
  894MOL0     O23293  10.256  10.419   0.750  0.5964 -0.6833  0.0150
  894MOL0     C23294  10.171  10.362   0.648 -0.8343  0.6831  0.7842
  894MOL0     C23295  10.250  10.265   0.564 -0.2115 -0.7198  0.4648
  894MOL0     C23296  10.347  10.331   0.463  0.2576 -0.2647  0.2011
  894MOL0     C23297  10.291  10.431   0.356 -0.0541  0.6011 -1.0527
  894MOL0     C23298  10.157  10.398   0.317  0.4545  0.3584 -0.1380
  894MOL0     C23299  10.053  10.361   0.274  0.0730 -0.4872 -0.3966
  894MOL0     C23300  10.401  10.590   0.796 -0.3825 -0.0824 -1.0308
  894MOL0     C23301  10.444  10.724   0.817 -0.4026  0.2089 -0.3856
  894MOL0     C23302  10.571  10.749   0.900  0.2155  0.0397 -0.1771
  894MOL0     H23303  10.477  11.207   0.642  1.2124  1.0255 -0.1990
  894MOL0     H23304  10.454  11.459   0.636 -0.1841 -0.3977 -0.0910
  894MOL0     H23305  10.399  11.648   0.955  0.5808 -1.3249 -0.5430
  894MOL0     H23306  10.221  11.659   0.932 -0.0706 -1.7776 -1.3479
  894MOL0     H23307  10.269  11.832   0.750  0.1583 -1.5362 -1.4407
  894MOL0     H23308  10.292  11.889   0.930  1.9619  1.0949 -1.4571
  894MOL0     H23309  10.531  11.866   0.903  0.0208 -0.9246 -0.2966
  894MOL0     H23310  10.498  11.784   0.744  0.5829 -0.9776  2.0306
  894MOL0     H23311  10.566  12.011   0.679  0.3762  1.1803  0.1600
  894MOL0     H23312  10.385  12.020   0.696 -1.0549 -1.4532  0.3497
  894MOL0     H23313  10.591  12.080   0.922 -0.6271  2.0684  1.4876
  894MOL0     H23314  10.434  12.101   0.939  1.9692 -3.2102  1.2553
  894MOL0     H23315  10.547  12.266   0.702  0.8835  0.6658  0.7380
  894MOL0     H23316  10.403  12.293   0.811  0.1836 -0.3256 -1.6155
  894MOL0     H23317  10.609  12.447   0.828 -1.5621  1.5155  1.4493
  894MOL0     H23318  10.684  12.299   0.894 -1.0754 -1.9299  0.1000
  894MOL0     H23319  10.422  12.348   1.009  0.8562 -1.9661 -1.8935
  894MOL0     H23320  10.578  12.295   1.085  0.2310 -0.4602  0.1817
  894MOL0     H23321  10.782  12.492   1.094  0.6337  0.2019 -1.0536
  894MOL0     H23322  10.862  12.715   1.232 -2.5501 -3.7413  0.0805
  894MOL0     H23323  10.738  12.848   1.217 -2.4948  0.1188 -3.8007
  894MOL0     H23324  10.985  12.821   1.066  0.0059  1.4523 -1.1853
  894MOL0     H23325  10.870  12.747   0.972 -1.0728  0.6260 -1.9084
  894MOL0     H23326  10.743  12.960   0.949 -1.4489 -3.2154  0.5176
  894MOL0     H23327  10.847  13.034   1.073 -2.9411  0.7369 -1.2212
  894MOL0     H23328  10.943  12.897   0.819  0.1026  0.2992 -0.3448
  894MOL0     H23329  10.912  13.078   0.838  1.2400  0.1945  1.0856
  894MOL0     H23330  11.097  12.967   0.669  2.9601 -2.6218 -0.3866
  894MOL0     H23331  11.173  13.020   0.464 -0.3496  1.0714  1.1696
  894MOL0     H23332  11.349  13.007   0.473  1.1487  0.2765  3.5744
  894MOL0     H23333  11.266  13.161   0.430 -1.2164 -1.0756 -1.5686
  894MOL0     H23334  11.547  13.590   0.607 -0.3905  0.3422  1.5770
  894MOL0     H23335  11.741  13.711   0.518 -2.3236 -1.4619 -4.1035
  894MOL0     H23336  11.915  13.767   0.693 -0.8048 -3.5200 -0.9254
  894MOL0     H23337  12.057  13.690   0.764  0.0653  0.2887 -0.0632
  894MOL0     H23338  12.141  13.898   0.709  4.7850 -1.2904 -0.2545
  894MOL0     H23339  12.188  13.798   0.573 -3.0000 -2.1001 -1.7273
  894MOL0     H23340  11.996  13.898   0.446 -0.8994 -1.2667  0.5848
  894MOL0     H23341  12.115  13.997   0.492 -1.6910 -1.2154 -3.7607
  894MOL0     H23342  11.975  14.060   0.709 -1.1639  0.8551  0.1433
  894MOL0     H23343  11.840  13.986   0.620 -0.0391  0.4038  1.9187
  894MOL0     H23344  12.016  14.223   0.535 -0.3602  0.8215 -0.4065
  894MOL0     H23345  11.902  14.143   0.423 -2.5574 -1.5639  0.4005
  894MOL0     H23346  11.816  14.352   0.547  2.9404  0.2952  0.6442
  894MOL0     H23347  11.841  14.264   0.699  0.3317  0.5809 -0.0432
  894MOL0     H23348  11.668  14.101   0.605  0.1306  2.2530  4.9519
  894MOL0     H23349  11.636  14.207   0.462  2.1702 -0.3296 -1.9338
  894MOL0     H23350  11.473  14.250   0.612 -1.2476  0.5904  2.3323
  894MOL0     H23351  11.590  14.385   0.631 -1.1968  0.3133 -0.2018
  894MOL0     H23352  11.997  13.385   0.629 -0.8949 -2.9514  1.0928
  894MOL0     H23353  11.776  13.250   0.706 -2.3771 -0.7401  2.2884
  894MOL0     H23354  11.407  13.286   0.899  2.5829 -0.1257 -2.3144
  894MOL0     H23355  11.226  13.192   1.017  2.0626  0.0431 -0.1458
  894MOL0     H23356  10.124  11.434   0.906  0.0995  1.6883 -0.7641
  894MOL0     H23357  10.128  11.201   0.893  0.7710 -0.9085 -0.0538
  894MOL0     H23358  10.139  10.857   0.702 -1.3861 -2.5028 -0.9203
  894MOL0     H23359  10.085  10.629   0.696  0.4119  1.2502 -0.2034
  894MOL0     H23360  10.086  10.310   0.692  1.7772 -3.5790  1.3977
  894MOL0     H23361  10.129  10.429   0.573 -0.3348  1.0167  0.7971
  894MOL0     H23362  10.186  10.187   0.523  0.9921 -1.3744 -0.2300
  894MOL0     H23363  10.310  10.210   0.637 -1.1155 -0.8507  1.1195
  894MOL0     H23364  10.432  10.381   0.511 -0.7168  0.8463  0.8156
  894MOL0     H23365  10.406  10.253   0.414  3.1737  1.1171  1.2467
  894MOL0     H23366  10.365  10.443   0.277  0.1210  1.7606 -0.7264
  894MOL0     H23367  10.282  10.529   0.403  2.9073  0.1611  0.6563
  894MOL0     H23368   9.960  10.335   0.227  0.1325 -1.4710 -0.0026
  894MOL0     H23369  10.470  10.509   0.819  1.3296  1.0745 -1.9675
  894MOL0     H23370  10.617  10.654   0.929 -2.3108 -1.9209 -2.1051
  894MOL0     H23371  10.651  10.795   0.840  1.2558 -0.8995  0.4562
  894MOL0     H23372  10.536  10.805   0.987 -0.3252  1.4869 -1.2856
  895MOL0     O23373   7.714   8.245  10.895  0.0235  0.0446  0.3168
  895MOL0     C23374   7.684   8.342  10.827  0.2723 -0.0180 -0.6932
  895MOL0     O23375   7.727   8.363  10.705 -0.2453 -0.2991 -0.0536
  895MOL0     C23376   7.839   8.296  10.675 -0.5429  0.1166 -0.9873
  895MOL0     C23377   7.847   8.189  10.579 -0.2309 -0.6201 -0.7564
  895MOL0     C23378   7.970   8.127  10.543 -0.1158  0.2244 -0.1529
  895MOL0     C23379   8.080   8.162  10.624 -0.4937  0.1087 -0.3917
  895MOL0     O23380   8.215   8.121  10.615 -0.0729 -0.3162  0.0230
  895MOL0     C23381   8.237   7.996  10.552  0.0260 -0.2513 -0.0778
  895MOL0     C23382   8.270   8.009  10.404 -0.5326  0.0628  0.7398
  895MOL0     C23383   8.420   8.059  10.397  0.6629  0.3863 -0.1752
  895MOL0     C23384   8.437   8.116  10.255 -0.6740  0.1249 -0.2551
  895MOL0     C23385   8.576   8.189  10.228 -0.1395  0.7956  0.1958
  895MOL0     C23386   8.588   8.198  10.076 -0.5484  1.0898 -0.1389
  895MOL0     C23387   8.717   8.245  10.021 -0.1411  0.0718 -0.7404
  895MOL0     C23388   8.695   8.249   9.871  0.4407 -0.4257 -0.1977
  895MOL0     N23389   8.823   8.269   9.808  0.3658  0.1005  0.1844
  895MOL0     C23390   8.869   8.387   9.763  1.2235 -0.1419 -0.2587
  895MOL0     C23391   8.971   8.367   9.683 -0.7676 -0.3292  0.2204
  895MOL0     C23392   9.058   8.466   9.609  0.2770 -0.4754  0.1502
  895MOL0     C23393   9.125   8.576   9.701 -0.7123 -0.2533 -0.4430
  895MOL0     C23394   9.219   8.668   9.614  0.5905 -0.0388 -1.3663
  895MOL0     C23395   9.341   8.598   9.569 -0.1567 -0.0092  0.3332
  895MOL0     O23396   9.429   8.612   9.680  0.2094 -0.7126  0.0393
  895MOL0     C23397   9.557   8.570   9.652 -0.2344  0.6851 -0.8725
  895MOL0     C23398   9.614   8.552   9.526 -1.0274 -0.9738 -1.4915
  895MOL0     C23399   9.753   8.529   9.505  0.2572  0.0580 -0.2858
  895MOL0     C23400   9.792   8.513   9.360  0.9555  0.0863  0.0555
  895MOL0     C23401   9.836   8.507   9.616  0.1639  0.0505  0.2133
  895MOL0     C23402   9.975   8.465   9.597 -0.4640 -0.7262  0.1526
  895MOL0     O23403  10.032   8.404   9.698 -0.6743  0.4882  0.9889
  895MOL0     C23404  10.163   8.354   9.704  0.1533 -0.4836 -0.5371
  895MOL0     C23405  10.223   8.284   9.595 -0.9672 -0.5820  1.0312
  895MOL0     C23406  10.345   8.214   9.623  0.0968  0.1181  0.1905
  895MOL0     C23407  10.394   8.202   9.752 -0.2220 -0.3253 -0.6724
  895MOL0     O23408  10.521   8.142   9.764 -0.6721  0.6752  0.4829
  895MOL0     C23409  10.571   8.110   9.893 -0.5232 -0.9839 -0.8036
  895MOL0     C23410  10.713   8.064   9.880  0.8739 -0.3732  0.9335
  895MOL0     C23411  10.751   7.972   9.764 -0.8006  0.1803 -0.4869
  895MOL0     C23412  10.899   7.989   9.726 -0.6768  0.1202  0.5330
  895MOL0     C23413  10.953   7.873   9.639 -0.0140  0.0410  0.2473
  895MOL0     C23414  10.978   7.756   9.726  0.3952  0.4914 -0.3423
  895MOL0     C23415  10.997   7.620   9.643 -0.1442 -0.7498 -0.4651
  895MOL0     C23416  11.140   7.578   9.601  0.6137  0.1159  0.1091
  895MOL0    Cl23417  11.200   7.695   9.482 -0.1642 -0.2362 -0.1502
  895MOL0     C23418  10.329   8.273   9.864 -0.4541  0.3993  0.2697
  895MOL0     C23419  10.220   8.354   9.836 -0.2237  0.1647 -0.4280
  895MOL0     O23420  10.032   8.498   9.492  0.0375 -0.4890  0.5100
  895MOL0     C23421   9.779   8.511   9.742 -0.6596 -0.6450  0.6646
  895MOL0     C23422   9.646   8.541   9.758  0.0373  0.0760  0.4250
  895MOL0     N23423   8.994   8.226   9.685 -0.2874 -0.5020 -0.6931
  895MOL0     N23424   8.897   8.173   9.753  0.0971  0.1279 -0.4302
  895MOL0     C23425   8.071   8.268  10.714 -0.0366  0.1428 -1.2289
  895MOL0     C23426   7.957   8.327  10.744  0.9678  0.0805  0.3298
  895MOL0     C23427   7.594   8.434  10.882  0.2788  0.1587 -0.0926
  895MOL0     C23428   7.508   8.498  10.803  0.8506  0.1141  0.5446
  895MOL0     C23429   7.418   8.590  10.852  0.5500 -0.0817  0.1816
  895MOL0     C23430   7.413   8.629  10.995  0.3091 -0.5660  0.4490
  895MOL0     O23431   7.330   8.722  11.047  0.1117 -0.7974  0.7803
  895MOL0     C23432   7.195   8.713  11.004 -0.5017  0.4987 -0.2110
  895MOL0     C23433   7.118   8.833  11.063 -0.7314 -0.2890  0.0510
  895MOL0     C23434   7.096   8.821  11.209  0.2272 -1.1172 -0.3386
  895MOL0     C23435   7.001   8.928  11.264 -0.4407  0.6157  0.4045
  895MOL0     C23436   6.864   8.876  11.258 -0.3063  0.4506 -0.0671
  895MOL0     C23437   6.748   8.843  11.257  0.1532 -0.4612 -0.4019
  895MOL0     C23438   7.503   8.561  11.075  0.1708  0.7038  0.4358
  895MOL0     C23439   7.596   8.469  11.018 -0.2254  0.5940 -0.0827
  895MOL0     C23440   7.694   8.422  11.123  0.3578 -0.6576 -0.1126
  895MOL0     H23441   7.751   8.183  10.527 -1.4278 -1.1912  1.3956
  895MOL0     H23442   7.988   8.058  10.461  0.4182 -0.8176  0.8135
  895MOL0     H23443   8.152   7.931  10.574 -1.2018  1.9681  2.2947
  895MOL0     H23444   8.319   7.944  10.602  0.9792  1.0947 -0.1824
  895MOL0     H23445   8.270   7.917  10.344 -2.6646 -0.1218  0.9430
  895MOL0     H23446   8.186   8.065  10.361 -1.6000 -2.2272 -0.3672
  895MOL0     H23447   8.428   8.125  10.483 -0.2583 -1.4181  1.3772
  895MOL0     H23448   8.493   7.978  10.408  1.3936  1.2995  2.0542
  895MOL0     H23449   8.433   8.030  10.187  0.0346 -1.8372  2.0345
  895MOL0     H23450   8.350   8.177  10.228 -1.0604 -1.0500 -1.7990
  895MOL0     H23451   8.665   8.140  10.270  1.3791  0.9088 -2.6295
  895MOL0     H23452   8.570   8.290  10.270 -1.9068 -0.4144  3.1580
  895MOL0     H23453   8.582   8.096  10.037  2.3833  0.5463  0.6155
  895MOL0     H23454   8.511   8.268  10.040 -0.1229  0.5248 -2.3174
  895MOL0     H23455   8.791   8.172  10.055 -1.6181  0.0065  2.7614
  895MOL0     H23456   8.749   8.337  10.070  3.5922 -1.9463  1.0710
  895MOL0     H23457   8.657   8.154   9.833  2.0538 -0.8515 -0.8126
  895MOL0     H23458   8.627   8.331   9.845  0.1850 -1.4622 -3.2806
  895MOL0     H23459   8.830   8.487   9.782 -0.6938 -0.7396 -0.8197
  895MOL0     H23460   8.990   8.515   9.539  0.0940  2.2736  2.1015
  895MOL0     H23461   9.141   8.413   9.562  1.4862  1.1050  0.4385
  895MOL0     H23462   9.042   8.622   9.756  1.4907  1.6544  1.4851
  895MOL0     H23463   9.189   8.539   9.782 -0.2678  1.1232 -0.1480
  895MOL0     H23464   9.160   8.715   9.535  1.2787  4.3531  0.4219
  895MOL0     H23465   9.264   8.750   9.672 -2.8846 -0.9461  3.2532
  895MOL0     H23466   9.313   8.496   9.540  0.3492  0.9401 -4.1732
  895MOL0     H23467   9.379   8.644   9.478 -0.7881  1.2382  0.6691
  895MOL0     H23468   9.564   8.583   9.435 -1.3867  3.0412 -0.1080
  895MOL0     H23469   9.842   8.417   9.343 -0.8948 -0.8374 -0.5065
  895MOL0     H23470   9.859   8.597   9.337  3.0283 -0.9452  1.9854
  895MOL0     H23471   9.698   8.523   9.303 -1.1718 -2.2337  2.8509
  895MOL0     H23472  10.176   8.281   9.498 -0.8409 -2.2658  0.9926
  895MOL0     H23473  10.407   8.182   9.540 -0.0211  1.0811 -0.2829
  895MOL0     H23474  10.571   8.201   9.955  0.5040 -1.4303 -0.1172
  895MOL0     H23475  10.514   8.031   9.943 -2.9844  2.0315  1.5881
  895MOL0     H23476  10.768   8.153   9.848 -0.4480 -0.3592 -1.5493
  895MOL0     H23477  10.741   8.015   9.973 -0.3451 -0.8448  1.0724
  895MOL0     H23478  10.689   7.984   9.674  0.3231  1.4882 -1.1103
  895MOL0     H23479  10.735   7.872   9.805 -0.0750  0.0004 -0.6353
  895MOL0     H23480  10.959   7.982   9.818 -2.0225  0.5692  1.4803
  895MOL0     H23481  10.916   8.087   9.682 -0.7913  1.8931  4.0909
  895MOL0     H23482  10.883   7.853   9.557  0.0517 -0.0917  0.2247
  895MOL0     H23483  11.046   7.907   9.593 -0.2775  1.0003  0.4023
  895MOL0     H23484  10.882   7.739   9.776 -1.6144  0.9339 -3.7332
  895MOL0     H23485  11.061   7.776   9.794  1.0107 -0.1458 -0.8868
  895MOL0     H23486  10.940   7.608   9.550 -1.0494 -0.9705  0.1059
  895MOL0     H23487  10.967   7.553   9.724  1.6970  1.1140  1.9017
  895MOL0     H23488  11.144   7.473   9.570  1.6256 -0.6195  2.4900
  895MOL0     H23489  11.205   7.572   9.689 -0.4147  0.2715  0.8977
  895MOL0     H23490  10.360   8.265   9.968  0.4495 -0.9507 -0.0692
  895MOL0     H23491  10.162   8.398   9.915  2.0785 -1.4861  2.3777
  895MOL0     H23492   9.831   8.494   9.836 -2.0441 -1.4248  1.3197
  895MOL0     H23493   9.606   8.555   9.857 -0.7269  0.2552  0.1017
  895MOL0     H23494   8.162   8.307  10.758 -0.8257 -0.2698  0.8931
  895MOL0     H23495   7.963   8.397  10.826 -3.3040  0.8293  0.2637
  895MOL0     H23496   7.501   8.482  10.696  1.6295  2.5991  0.0579
  895MOL0     H23497   7.347   8.637  10.785  0.8761  2.0735  1.2590
  895MOL0     H23498   7.181   8.707  10.895 -1.4531 -1.6678 -0.0093
  895MOL0     H23499   7.166   8.614  11.038  1.3541  0.3249  0.9902
  895MOL0     H23500   7.016   8.842  11.025 -0.5718 -0.4794 -0.4283
  895MOL0     H23501   7.169   8.923  11.029  0.8112 -1.7316 -1.6978
  895MOL0     H23502   7.047   8.723  11.213 -0.2261 -0.9468 -1.3687
  895MOL0     H23503   7.188   8.830  11.266  0.8458 -0.8324 -1.3522
  895MOL0     H23504   7.013   9.025  11.214  1.2956  0.3982  0.3363
  895MOL0     H23505   7.034   8.945  11.367  2.7117  1.2351 -0.5854
  895MOL0     H23506   6.645   8.816  11.268 -0.1170  1.1650  1.6407
  895MOL0     H23507   7.503   8.589  11.180  0.9717  2.3163  0.0379
  895MOL0     H23508   7.718   8.493  11.203  0.1801 -0.4938 -0.2021
  895MOL0     H23509   7.638   8.336  11.161 -1.7419 -0.1968 -1.9233
  895MOL0     H23510   7.786   8.401  11.068  0.6740 -0.8484  0.4814
  896MOL0     O23511   5.582   4.922   9.364  0.4179  0.6676 -0.3672
  896MOL0     C23512   5.470   4.970   9.375 -0.2885  0.2555 -0.2485
  896MOL0     O23513   5.356   4.903   9.389  0.3811 -0.2561  0.3093
  896MOL0     C23514   5.354   4.768   9.388  0.6633 -0.4261 -0.0163
  896MOL0     C23515   5.306   4.702   9.271 -0.3829  0.0156  0.0038
  896MOL0     C23516   5.293   4.562   9.276 -0.4419  0.3656  0.3726
  896MOL0     C23517   5.329   4.487   9.393  0.5986 -0.8471 -0.1004
  896MOL0     O23518   5.319   4.349   9.415 -0.0431 -0.1811 -0.2926
  896MOL0     C23519   5.228   4.272   9.332  0.2278 -0.1735 -0.6756
  896MOL0     C23520   5.093   4.269   9.406  0.4884 -0.0004  0.1536
  896MOL0     C23521   5.009   4.157   9.346 -0.4434 -0.6785  0.6678
  896MOL0     C23522   4.984   4.176   9.200 -0.4639 -0.0425  0.9167
  896MOL0     C23523   4.870   4.076   9.157 -0.9301 -0.1166 -0.2510
  896MOL0     C23524   4.819   4.095   9.010 -0.2954  0.0180 -0.5232
  896MOL0     C23525   4.749   3.970   8.951  0.0992 -0.7284  0.2066
  896MOL0     C23526   4.710   4.012   8.811  0.3529 -0.3534  0.6596
  896MOL0     N23527   4.630   3.904   8.744  0.4659  0.1473  0.3725
  896MOL0     C23528   4.493   3.917   8.718  0.0159  0.3770 -0.5121
  896MOL0     C23529   4.467   3.812   8.639 -0.8276  0.6006 -0.1135
  896MOL0     C23530   4.329   3.779   8.583 -0.5796  0.2629  0.8827
  896MOL0     C23531   4.336   3.733   8.437  0.0350 -0.6215 -0.0464
  896MOL0     C23532   4.388   3.594   8.426  0.0684 -0.2300 -0.7962
  896MOL0     C23533   4.431   3.581   8.277 -0.8785 -0.0590  0.6789
  896MOL0     O23534   4.495   3.453   8.260 -0.1649 -0.5987  0.6934
  896MOL0     C23535   4.627   3.431   8.283  0.0018  0.4040  0.0101
  896MOL0     C23536   4.690   3.327   8.210  0.2650  0.2676 -0.2169
  896MOL0     C23537   4.831   3.302   8.220  0.1159  0.7753 -0.2097
  896MOL0     C23538   4.885   3.187   8.140 -0.0817  0.2176 -0.5975
  896MOL0     C23539   4.907   3.390   8.310  0.3660  0.4449 -0.0794
  896MOL0     C23540   5.054   3.372   8.328  0.2361 -0.6791  1.2760
  896MOL0     O23541   5.101   3.430   8.445  0.1570  0.2635  0.4144
  896MOL0     C23542   5.241   3.444   8.455 -0.1992  0.4073 -0.1910
  896MOL0     C23543   5.326   3.527   8.380 -0.3336  0.2229 -0.3518
  896MOL0     C23544   5.463   3.556   8.413  0.0289  0.4975 -0.5750
  896MOL0     C23545   5.517   3.501   8.529  0.2210  0.9381  0.4980
  896MOL0     O23546   5.649   3.526   8.561 -0.5529 -0.1546 -0.0338
  896MOL0     C23547   5.745   3.456   8.485  0.1083  0.7401  0.1394
  896MOL0     C23548   5.873   3.440   8.561 -0.2607 -0.5561 -0.4261
  896MOL0     C23549   5.851   3.338   8.683  0.0735  0.9176  0.5938
  896MOL0     C23550   5.988   3.277   8.726 -0.3740  0.0718 -1.4959
  896MOL0     C23551   6.039   3.156   8.634  0.3344 -0.6110 -0.4406
  896MOL0     C23552   6.172   3.111   8.700 -0.5431  1.1599 -1.1927
  896MOL0     C23553   6.132   2.988   8.793 -0.2851  0.7006 -0.1194
  896MOL0     C23554   6.232   2.940   8.889  1.0501  0.6054  0.3769
  896MOL0    Cl23555   6.183   2.989   9.061  0.5778 -0.1153 -0.4059
  896MOL0     C23556   5.442   3.421   8.610  0.2480 -0.3082 -0.3105
  896MOL0     C23557   5.304   3.398   8.574 -0.5838 -0.7994 -0.1379
  896MOL0     O23558   5.122   3.333   8.235  0.0954  0.0265  0.6352
  896MOL0     C23559   4.839   3.486   8.384  0.1636  1.1479 -0.4861
  896MOL0     C23560   4.708   3.517   8.364 -0.0113  0.0577  0.4648
  896MOL0     N23561   4.582   3.737   8.614 -0.9535 -0.3668  0.2544
  896MOL0     N23562   4.676   3.793   8.677  0.3934 -0.9313  0.4431
  896MOL0     C23563   5.368   4.557   9.513  0.0422 -0.9013 -0.3639
  896MOL0     C23564   5.390   4.700   9.511  0.1761 -0.6728 -0.5618
  896MOL0     C23565   5.464   5.115   9.406 -0.0666 -0.8039  0.3718
  896MOL0     C23566   5.356   5.164   9.477  0.1182 -0.1622 -0.5625
  896MOL0     C23567   5.338   5.304   9.511  0.7272 -0.5379 -1.1052
  896MOL0     C23568   5.429   5.405   9.481  0.8934  0.4813 -0.8906
  896MOL0     O23569   5.394   5.533   9.517 -0.9725  0.6572  0.0776
  896MOL0     C23570   5.483   5.630   9.472 -0.8824  0.1538  0.2206
  896MOL0     C23571   5.442   5.766   9.524 -0.2252  1.2891  0.4249
  896MOL0     C23572   5.467   5.774   9.670 -0.7083  0.2177  0.8733
  896MOL0     C23573   5.420   5.915   9.724 -0.1216  0.1789  0.2593
  896MOL0     C23574   5.358   5.905   9.855  0.6478  0.8073 -0.3096
  896MOL0     C23575   5.311   5.909   9.970  0.2436  0.2065  0.2241
  896MOL0     C23576   5.546   5.350   9.419  0.2448  0.1820 -0.0607
  896MOL0     C23577   5.566   5.212   9.384 -0.3259  0.7478 -0.4550
  896MOL0     C23578   5.695   5.187   9.312  0.0927 -0.5372 -0.0802
  896MOL0     H23579   5.277   4.766   9.189 -3.3984  0.4128  1.2621
  896MOL0     H23580   5.258   4.512   9.186  0.5721  2.0287 -1.0314
  896MOL0     H23581   5.264   4.169   9.340  0.7350  0.1141  1.5534
  896MOL0     H23582   5.239   4.293   9.225  1.8017 -1.5144 -0.8217
  896MOL0     H23583   5.106   4.254   9.514 -1.3693  0.4120  0.4558
  896MOL0     H23584   5.038   4.361   9.384 -0.8599 -1.0733 -1.1593
  896MOL0     H23585   5.054   4.059   9.364 -0.7604 -0.5627  2.1741
  896MOL0     H23586   4.908   4.154   9.390 -1.6411 -4.0326 -1.8509
  896MOL0     H23587   4.951   4.275   9.167  1.0014  0.5388  1.1005
  896MOL0     H23588   5.072   4.149   9.140 -1.3536  0.6115 -0.7641
  896MOL0     H23589   4.780   4.084   9.219 -2.2606 -1.2068 -1.9180
  896MOL0     H23590   4.910   3.974   9.166 -0.1803  0.0819 -1.1625
  896MOL0     H23591   4.762   4.189   9.009 -1.7003 -0.8138 -1.3112
  896MOL0     H23592   4.911   4.099   8.951 -0.2090 -3.1949 -0.7485
  896MOL0     H23593   4.673   3.924   9.015 -0.1924  0.2275  0.5556
  896MOL0     H23594   4.819   3.886   8.940  1.1910 -0.3872  3.5699
  896MOL0     H23595   4.644   4.099   8.817  0.0593 -0.3613 -1.6767
  896MOL0     H23596   4.793   4.030   8.742 -2.5808 -0.9050 -3.3577
  896MOL0     H23597   4.418   3.988   8.750 -1.3570 -1.2627  0.0853
  896MOL0     H23598   4.264   3.866   8.596 -1.1641  0.2434 -1.4739
  896MOL0     H23599   4.287   3.701   8.647 -0.6230 -0.0326  0.4918
  896MOL0     H23600   4.234   3.747   8.400  0.1632  0.4528 -0.0384
  896MOL0     H23601   4.407   3.795   8.382 -1.7106 -0.6567 -2.5248
  896MOL0     H23602   4.469   3.580   8.499  1.0602 -0.4505 -1.9094
  896MOL0     H23603   4.301   3.530   8.444 -0.0024 -0.1027 -0.6861
  896MOL0     H23604   4.358   3.592   8.196  2.0239  1.6763 -1.9339
  896MOL0     H23605   4.500   3.660   8.244 -2.3044  0.5620 -0.9693
  896MOL0     H23606   4.631   3.267   8.141  1.4241 -0.5270 -0.5358
  896MOL0     H23607   4.880   3.205   8.033  3.0992  3.4622 -0.4111
  896MOL0     H23608   4.821   3.100   8.161  1.1058 -0.7996 -1.0558
  896MOL0     H23609   4.986   3.150   8.162 -0.3827  0.7003  1.9329
  896MOL0     H23610   5.278   3.569   8.292 -4.3010 -2.1649  0.4196
  896MOL0     H23611   5.525   3.624   8.356 -0.9366  2.3817  0.5255
  896MOL0     H23612   5.706   3.363   8.442  1.7537  0.4027 -0.7349
  896MOL0     H23613   5.769   3.527   8.405 -1.7031  1.0040 -0.2157
  896MOL0     H23614   5.947   3.399   8.490 -1.2774 -0.6686 -1.4600
  896MOL0     H23615   5.911   3.534   8.601  1.8982 -1.9185  1.0101
  896MOL0     H23616   5.788   3.255   8.651  0.6760  0.4044  0.7239
  896MOL0     H23617   5.808   3.395   8.766 -0.1242  1.0688  0.3901
  896MOL0     H23618   5.965   3.236   8.825 -0.4019  1.9719 -0.6740
  896MOL0     H23619   6.059   3.359   8.744 -0.1549  1.0837 -5.8167
  896MOL0     H23620   5.957   3.084   8.621 -1.2313  1.0165  0.0477
  896MOL0     H23621   6.076   3.203   8.543  1.0440 -1.3954 -0.5726
  896MOL0     H23622   6.207   3.192   8.765  0.1047 -0.8350  1.1011
  896MOL0     H23623   6.249   3.083   8.628 -0.6896 -0.2624 -0.8253
  896MOL0     H23624   6.092   2.907   8.731 -0.8714  3.1507 -3.1730
  896MOL0     H23625   6.051   3.023   8.858 -0.1679  3.1159 -1.1778
  896MOL0     H23626   6.331   2.985   8.879  0.6292  1.4216 -0.2307
  896MOL0     H23627   6.227   2.832   8.879 -2.8139  0.7308 -0.7090
  896MOL0     H23628   5.490   3.380   8.698 -2.0371 -2.0675  0.2333
  896MOL0     H23629   5.247   3.337   8.644  2.7174 -0.5099  3.1332
  896MOL0     H23630   4.891   3.546   8.458  2.6440 -0.8929 -0.4247
  896MOL0     H23631   4.668   3.602   8.417  2.2540  1.4434  0.0737
  896MOL0     H23632   5.373   4.502   9.606  3.1932  0.4394  0.3932
  896MOL0     H23633   5.425   4.758   9.595 -1.6176  0.5244 -0.5893
  896MOL0     H23634   5.271   5.106   9.510 -0.4609  2.1657  2.4719
  896MOL0     H23635   5.240   5.330   9.552  0.8316  2.8188 -2.6695
  896MOL0     H23636   5.581   5.609   9.516 -0.5739 -0.2116 -0.6318
  896MOL0     H23637   5.504   5.635   9.365  3.6576  1.9789  0.9528
  896MOL0     H23638   5.334   5.777   9.505 -0.4244 -0.4125  0.4264
  896MOL0     H23639   5.496   5.845   9.471  2.0501 -0.3369  0.1744
  896MOL0     H23640   5.421   5.687   9.719  0.6710 -0.8531  0.3379
  896MOL0     H23641   5.574   5.763   9.690 -0.9078 -0.8068  1.4909
  896MOL0     H23642   5.339   5.960   9.665  0.7979  0.9521 -0.4531
  896MOL0     H23643   5.501   5.989   9.718  2.2726 -2.0345  2.7679
  896MOL0     H23644   5.276   5.918  10.070 -0.7073  2.6737 -0.2762
  896MOL0     H23645   5.627   5.419   9.397  1.4648 -1.6734 -1.8532
  896MOL0     H23646   5.762   5.113   9.357 -0.5808 -2.8129 -2.5910
  896MOL0     H23647   5.667   5.147   9.214 -2.7472  2.3357 -0.5959
  896MOL0     H23648   5.747   5.281   9.293 -0.7525  0.1227  0.8077
  897MOL0     O23649   0.000   4.289   2.605  0.1903  0.5027  0.2029
  897MOL0     C23650  -0.000   4.203   2.519  0.5088  0.1935 -0.5214
  897MOL0     O23651   0.115   4.153   2.458  0.5505  0.2093  0.4076
  897MOL0     C23652   0.235   4.169   2.517  1.1940  0.3557  0.2680
  897MOL0     C23653   0.287   4.069   2.603  0.4278 -0.3338  0.0782
  897MOL0     C23654   0.418   4.086   2.649  0.0337  0.0447 -0.8796
  897MOL0     C23655   0.501   4.190   2.618  0.8462  1.9060 -1.5755
  897MOL0     O23656   0.627   4.193   2.667 -0.8991  0.0926  0.1584
  897MOL0     C23657   0.713   4.309   2.663  1.0760 -0.1539 -0.0353
  897MOL0     C23658   0.860   4.283   2.697 -0.7526  0.1577 -0.2726
  897MOL0     C23659   0.922   4.159   2.614 -0.0797 -0.2240  0.0059
  897MOL0     C23660   1.072   4.152   2.634  0.7808 -0.2553 -0.0059
  897MOL0     C23661   1.134   4.050   2.538  1.4373  0.3822 -0.6507
  897MOL0     C23662   1.282   4.040   2.569 -0.4702  1.0377  0.0027
  897MOL0     C23663   1.364   3.957   2.470  0.0788 -0.0571  0.0372
  897MOL0     C23664   1.401   4.044   2.358  0.0627 -0.7738 -0.1189
  897MOL0     N23665   1.442   3.965   2.244 -0.5016  0.2174 -0.9526
  897MOL0     C23666   1.558   3.890   2.236 -0.0274 -0.4063 -0.0122
  897MOL0     C23667   1.561   3.828   2.111  0.0984 -0.5261 -0.7167
  897MOL0     C23668   1.661   3.732   2.054 -0.2146  0.0008 -0.3593
  897MOL0     C23669   1.667   3.609   2.135 -0.8697  0.4726 -0.1978
  897MOL0     C23670   1.748   3.511   2.054  0.0381 -1.3690 -0.0912
  897MOL0     C23671   1.742   3.382   2.130  0.5749  0.3638  0.1340
  897MOL0     O23672   1.866   3.311   2.107  0.7357  0.4814  0.8274
  897MOL0     C23673   1.859   3.213   2.011 -0.0846 -0.1556 -0.0836
  897MOL0     C23674   1.947   3.111   2.037 -0.2186  0.3508 -0.9022
  897MOL0     C23675   1.945   2.990   1.967  0.2638 -0.1293  0.3777
  897MOL0     C23676   2.035   2.878   2.007 -0.1235  0.3270 -0.1458
  897MOL0     C23677   1.853   2.979   1.850 -0.1701  0.0699  0.1803
  897MOL0     C23678   1.837   2.864   1.760 -0.0996 -0.5199  0.7163
  897MOL0     O23679   1.892   2.746   1.798  0.3841  0.3474  0.1887
  897MOL0     C23680   1.901   2.646   1.703 -0.1252 -0.0956  1.2952
  897MOL0     C23681   1.788   2.565   1.681 -0.3846 -0.3578  0.5860
  897MOL0     C23682   1.793   2.458   1.594  0.2739  0.3125  0.1527
  897MOL0     C23683   1.907   2.431   1.508 -0.4985 -0.4173  0.0732
  897MOL0     O23684   1.911   2.317   1.421  0.1677  0.3580  0.5432
  897MOL0     C23685   1.788   2.308   1.350 -0.0812  0.2505  0.4540
  897MOL0     C23686   1.817   2.246   1.212  0.2761  0.9784 -0.6038
  897MOL0     C23687   1.889   2.111   1.217 -0.5412 -0.3432 -0.0419
  897MOL0     C23688   1.893   2.053   1.075  0.4450  0.2092 -0.3663
  897MOL0     C23689   1.989   1.929   1.082 -0.2852 -0.4184  0.0046
  897MOL0     C23690   1.986   1.842   0.959 -0.2296 -0.0945 -0.5541
  897MOL0     C23691   2.063   1.712   0.966 -0.5414 -0.0336 -0.1405
  897MOL0     C23692   2.020   1.618   0.846 -1.1606  0.0199 -0.0156
  897MOL0    Cl23693   1.845   1.576   0.876 -0.3203  0.0594  0.1562
  897MOL0     C23694   2.022   2.517   1.521 -0.1787  0.0435 -0.4429
  897MOL0     C23695   2.010   2.624   1.608  0.5432  0.1741  0.5141
  897MOL0     O23696   1.807   2.886   1.644 -0.2489 -0.1285  0.2108
  897MOL0     C23697   1.774   3.095   1.824  0.4626 -0.2344 -0.8185
  897MOL0     C23698   1.773   3.202   1.909  0.4178  0.5957  0.3265
  897MOL0     N23699   1.443   3.873   2.044 -0.6417  0.2648 -0.1932
  897MOL0     N23700   1.381   3.948   2.125  0.2630  0.0855  0.4587
  897MOL0     C23701   0.447   4.289   2.538 -0.5267 -0.3702 -0.0703
  897MOL0     C23702   0.312   4.278   2.491  0.3741 -0.7356 -0.5951
  897MOL0     C23703  -0.134   4.155   2.468  0.3969 -0.1743 -0.6190
  897MOL0     C23704  -0.132   4.045   2.376 -0.1787  0.0899  0.5362
  897MOL0     C23705  -0.257   3.996   2.324 -0.0117 -0.9444 -0.8917
  897MOL0     C23706  -0.378   4.042   2.367 -0.4885  0.0990 -0.4362
  897MOL0     O23707  -0.486   3.990   2.294  0.3789  0.6343  0.1961
  897MOL0     C23708  -0.621   4.040   2.313  0.0367 -0.7512  0.7645
  897MOL0     C23709  -0.644   4.168   2.234  0.3687  0.2067  0.0659
  897MOL0     C23710  -0.761   4.255   2.292 -0.4698  0.2550  0.0964
  897MOL0     C23711  -0.721   4.336   2.417  0.4906  0.0374  0.0315
  897MOL0     C23712  -0.805   4.460   2.425 -0.0156  0.7321  0.3163
  897MOL0     C23713  -0.873   4.557   2.427 -0.3498  0.3057  0.3263
  897MOL0     C23714  -0.383   4.146   2.466  0.5109  0.6111  0.8111
  897MOL0     C23715  -0.261   4.203   2.512 -0.0791 -1.2814 -0.2676
  897MOL0     C23716  -0.281   4.315   2.605  0.0922 -0.8789  1.4332
  897MOL0     H23717   0.231   3.978   2.623  0.0288 -0.1826 -0.3460
  897MOL0     H23718   0.450   4.007   2.716 -2.3301  0.5322  0.9480
  897MOL0     H23719   0.686   4.376   2.744 -0.0765 -0.1191 -0.4210
  897MOL0     H23720   0.704   4.368   2.571 -1.0486  2.7725  1.8478
  897MOL0     H23721   0.923   4.369   2.675  0.6105  0.1867  3.2348
  897MOL0     H23722   0.878   4.253   2.800  0.2373  0.2282 -0.4174
  897MOL0     H23723   0.868   4.068   2.638  0.3578 -0.4497  0.1523
  897MOL0     H23724   0.902   4.184   2.509  2.5490  0.2163 -0.4652
  897MOL0     H23725   1.122   4.248   2.616 -0.3036  0.3857  0.3055
  897MOL0     H23726   1.094   4.125   2.737  0.8593 -1.1117 -0.2396
  897MOL0     H23727   1.113   4.097   2.441 -1.6551 -2.2406 -1.4077
  897MOL0     H23728   1.083   3.954   2.547  2.4771 -0.2944 -1.7218
  897MOL0     H23729   1.326   4.140   2.569  0.3241  0.7712  2.8706
  897MOL0     H23730   1.280   3.983   2.663 -0.4127 -0.1760 -0.7152
  897MOL0     H23731   1.304   3.885   2.413 -1.7754  2.7242 -1.8280
  897MOL0     H23732   1.455   3.910   2.508  0.5843  1.2884  0.5568
  897MOL0     H23733   1.313   4.104   2.329 -1.0163 -0.4689  3.2920
  897MOL0     H23734   1.477   4.115   2.391  1.8394 -2.4654 -0.4579
  897MOL0     H23735   1.643   3.879   2.303  0.5637  0.0205 -0.6695
  897MOL0     H23736   1.759   3.780   2.062 -0.1179  0.1735 -2.1671
  897MOL0     H23737   1.648   3.716   1.947  1.5039 -1.4462 -0.3982
  897MOL0     H23738   1.710   3.640   2.231 -0.4559  1.4891 -0.7119
  897MOL0     H23739   1.566   3.570   2.152 -0.3923 -1.4608 -1.4820
  897MOL0     H23740   1.701   3.508   1.956 -0.8140  0.5846  0.2142
  897MOL0     H23741   1.847   3.556   2.043 -0.9582  1.3029  0.9976
  897MOL0     H23742   1.739   3.409   2.236 -0.7347  1.4978 -0.1531
  897MOL0     H23743   1.648   3.328   2.113  0.3501 -0.0008  2.3240
  897MOL0     H23744   2.016   3.114   2.121 -0.4834  0.9901 -0.6997
  897MOL0     H23745   2.122   2.914   2.064  1.7522 -1.5818 -1.6368
  897MOL0     H23746   2.083   2.840   1.916  0.0213  3.1809 -1.3795
  897MOL0     H23747   1.976   2.812   2.071 -1.0931  3.4024  2.3842
  897MOL0     H23748   1.694   2.573   1.735 -1.0413 -0.9740 -0.4525
  897MOL0     H23749   1.724   2.376   1.612  3.0121 -2.3535 -0.6730
  897MOL0     H23750   1.712   2.243   1.396  0.1270 -1.1599 -1.0791
  897MOL0     H23751   1.747   2.408   1.337 -0.6705  0.2941  2.3823
  897MOL0     H23752   1.719   2.229   1.167 -0.1011  0.6889  0.3087
  897MOL0     H23753   1.873   2.307   1.139 -1.5755 -0.8182 -3.7774
  897MOL0     H23754   1.834   2.045   1.285 -1.8887  2.0827  1.3493
  897MOL0     H23755   1.988   2.138   1.255 -1.6515  5.3733 -0.2495
  897MOL0     H23756   1.935   2.131   1.011  3.9971 -2.5591 -1.6999
  897MOL0     H23757   1.797   2.018   1.037  1.8695 -2.6923 -1.5862
  897MOL0     H23758   2.086   1.972   1.111  0.0830 -0.8497 -0.5518
  897MOL0     H23759   1.950   1.872   1.167  1.8962 -0.6093  0.9477
  897MOL0     H23760   2.023   1.901   0.874  0.3677 -0.8932 -0.8692
  897MOL0     H23761   1.879   1.820   0.955 -0.2706  0.0319 -0.0951
  897MOL0     H23762   2.044   1.658   1.059  0.6787 -0.6119 -0.2104
  897MOL0     H23763   2.171   1.733   0.971 -0.5214 -0.4749  2.7836
  897MOL0     H23764   2.082   1.529   0.862 -0.1727  0.3996 -1.5584
  897MOL0     H23765   2.036   1.670   0.752 -0.2556  3.5053  1.8849
  897MOL0     H23766   2.112   2.506   1.461  1.4888 -1.0977  2.0953
  897MOL0     H23767   2.093   2.693   1.622  0.5086  0.3469 -0.0868
  897MOL0     H23768   1.701   3.093   1.744  0.5451  1.3459 -0.9667
  897MOL0     H23769   1.692   3.272   1.891 -0.9429 -0.6191  1.4727
  897MOL0     H23770   0.488   4.384   2.506 -0.6788 -1.0985 -2.7433
  897MOL0     H23771   0.270   4.351   2.423  2.5735  1.8127  0.6058
  897MOL0     H23772  -0.039   4.002   2.339 -0.0386 -2.0506  3.1021
  897MOL0     H23773  -0.248   3.913   2.256  3.8283 -1.0598 -0.4686
  897MOL0     H23774  -0.685   3.959   2.277 -0.0857 -1.5135  2.6137
  897MOL0     H23775  -0.640   4.058   2.419 -0.4665  0.1851  0.5250
  897MOL0     H23776  -0.681   4.155   2.132 -2.6650  1.6432  0.8575
  897MOL0     H23777  -0.552   4.227   2.237  1.1175 -0.9706  2.5521
  897MOL0     H23778  -0.772   4.334   2.217 -0.6228  1.4435  1.3243
  897MOL0     H23779  -0.845   4.186   2.303  0.2487 -0.6617 -0.0864
  897MOL0     H23780  -0.622   4.380   2.401 -1.0398  3.4147 -0.9362
  897MOL0     H23781  -0.730   4.279   2.510  3.3995  2.2756  1.8726
  897MOL0     H23782  -0.943   4.638   2.431 -1.1047 -0.1830 -1.8344
  897MOL0     H23783  -0.480   4.188   2.489 -0.0136 -0.5955  0.8728
  897MOL0     H23784  -0.209   4.394   2.584  1.0943 -1.4248  2.7208
  897MOL0     H23785  -0.383   4.355   2.607  0.6496  0.6010  1.1807
  897MOL0     H23786  -0.250   4.284   2.705  1.3183 -1.1095  0.9931
  898MOL0     O23787   2.724   0.307   4.078 -0.1691  0.2715 -0.7794
  898MOL0     C23788   2.706   0.254   4.189  0.1154 -0.8738  0.4125
  898MOL0     O23789   2.806   0.224   4.279 -0.3375  0.3414  0.9955
  898MOL0     C23790   2.935   0.266   4.266  0.2569  0.1004 -0.0350
  898MOL0     C23791   3.041   0.178   4.284 -0.1456 -0.1037 -0.2545
  898MOL0     C23792   3.167   0.217   4.274 -0.0927 -0.3575  0.3854
  898MOL0     C23793   3.196   0.349   4.237  1.2282 -0.2435  0.6636
  898MOL0     O23794   3.330   0.372   4.218 -0.7894 -0.2356  0.3239
  898MOL0     C23795   3.387   0.491   4.274 -0.0361  0.1075  0.0325
  898MOL0     C23796   3.513   0.460   4.363 -0.9639  0.7626  1.2920
  898MOL0     C23797   3.602   0.588   4.381 -0.4638 -0.4219  0.0476
  898MOL0     C23798   3.746   0.544   4.433 -0.3329  0.2319 -0.6135
  898MOL0     C23799   3.831   0.663   4.470 -0.2106  0.7248  0.9318
  898MOL0     C23800   3.955   0.612   4.541  0.9284  0.1230 -1.3516
  898MOL0     C23801   4.072   0.708   4.547 -0.3023 -0.0785  0.3933
  898MOL0     C23802   4.049   0.846   4.617 -0.0494 -0.1815  0.9052
  898MOL0     N23803   4.164   0.929   4.624 -0.0168  0.4727  0.0806
  898MOL0     C23804   4.249   0.926   4.732 -0.4807 -0.0966  0.5099
  898MOL0     C23805   4.345   1.015   4.709 -0.1203 -0.0139 -0.7906
  898MOL0     C23806   4.459   1.057   4.806  0.7821  0.1633 -0.5950
  898MOL0     C23807   4.591   1.059   4.727 -0.0273 -0.3314 -0.2124
  898MOL0     C23808   4.621   0.921   4.663  0.2767 -0.0662  0.3643
  898MOL0     C23809   4.770   0.898   4.621  0.9665 -0.2204 -0.2519
  898MOL0     O23810   4.770   0.761   4.570 -0.0940 -0.0151  0.4103
  898MOL0     C23811   4.872   0.672   4.593 -0.5194  0.1259  0.0805
  898MOL0     C23812   4.865   0.556   4.522  0.3869  0.3746  0.8587
  898MOL0     C23813   4.951   0.449   4.532  0.7570  0.0491  0.0502
  898MOL0     C23814   4.923   0.325   4.459 -0.4071  0.3208  0.1955
  898MOL0     C23815   5.060   0.458   4.624 -0.7459  0.0088 -0.2608
  898MOL0     C23816   5.171   0.362   4.640  1.5711  0.2147 -0.0234
  898MOL0     O23817   5.241   0.321   4.530  0.3001  0.2442  0.6774
  898MOL0     C23818   5.336   0.214   4.537  0.3097 -0.0832  0.1239
  898MOL0     C23819   5.433   0.218   4.440  0.1657  0.1820 -0.3204
  898MOL0     C23820   5.539   0.127   4.450 -0.4960 -0.3500 -0.3097
  898MOL0     C23821   5.541   0.026   4.551 -0.2561 -0.5420 -0.2963
  898MOL0     O23822   5.631  -0.074   4.561  0.4250 -1.0006 -0.6215
  898MOL0     C23823   5.770  -0.033   4.540 -0.5641 -0.3915 -0.5847
  898MOL0     C23824   5.858  -0.046   4.663  0.0172 -0.5008  0.2580
  898MOL0     C23825   5.854  -0.197   4.722  0.2770  0.0537  0.4095
  898MOL0     C23826   5.966  -0.208   4.826 -0.7849 -0.1266  0.3074
  898MOL0     C23827   5.996  -0.358   4.864  0.6237 -0.1591 -0.0065
  898MOL0     C23828   5.878  -0.447   4.887  0.0953  0.1370 -0.9411
  898MOL0     C23829   5.922  -0.580   4.959 -1.0044  0.5152 -0.3595
  898MOL0     C23830   5.831  -0.692   5.000  0.3901 -0.1766  0.2810
  898MOL0    Cl23831   5.780  -0.811   4.867 -0.3198  0.0745 -0.1020
  898MOL0     C23832   5.436   0.026   4.636  0.8730  0.8491 -0.9816
  898MOL0     C23833   5.323   0.107   4.623 -0.4107  1.5421  0.5039
  898MOL0     O23834   5.192   0.328   4.757 -0.1500 -0.2635  0.2753
  898MOL0     C23835   5.065   0.584   4.697 -0.0347  0.2663 -0.5855
  898MOL0     C23836   4.974   0.691   4.684 -0.2657  1.0887  0.1355
  898MOL0     N23837   4.325   1.075   4.584  0.1398  0.7394  0.0451
  898MOL0     N23838   4.217   1.023   4.536  0.4520  0.8151 -0.3042
  898MOL0     C23839   3.086   0.437   4.233  0.1198 -0.1260 -0.0556
  898MOL0     C23840   2.956   0.396   4.246 -0.1774 -1.0414  0.5400
  898MOL0     C23841   2.579   0.184   4.226 -0.3828 -0.7819 -0.1445
  898MOL0     C23842   2.565   0.101   4.347 -0.1861  0.4995  0.1710
  898MOL0     C23843   2.444   0.050   4.385 -0.2177  0.4243  0.3091
  898MOL0     C23844   2.322   0.073   4.309 -0.6576  0.1004  0.7930
  898MOL0     O23845   2.208   0.020   4.360 -0.4026  0.1220 -0.5499
  898MOL0     C23846   2.081   0.032   4.290 -0.4445  0.0831 -0.5144
  898MOL0     C23847   1.952   0.009   4.380 -0.0453  0.2141 -0.6992
  898MOL0     C23848   1.819   0.040   4.303 -0.9460 -1.1612 -0.4288
  898MOL0     C23849   1.702   0.063   4.399  0.0327  0.1247  0.5722
  898MOL0     C23850   1.731   0.173   4.490  0.3971 -0.1461 -0.6120
  898MOL0     C23851   1.754   0.257   4.574  0.5526  1.1184  0.5289
  898MOL0     C23852   2.340   0.140   4.185 -0.4262  0.7007 -0.5382
  898MOL0     C23853   2.458   0.195   4.145  0.3636  1.0176 -0.9347
  898MOL0     C23854   2.453   0.271   4.017 -0.2608  0.1756 -0.2556
  898MOL0     H23855   3.019   0.073   4.304  0.4533  0.1315  1.8479
  898MOL0     H23856   3.259   0.161   4.286  0.2479  0.3767  1.2564
  898MOL0     H23857   3.318   0.545   4.340 -0.2279  2.8452 -2.1894
  898MOL0     H23858   3.423   0.567   4.203  2.0154 -0.1773  0.6996
  898MOL0     H23859   3.485   0.419   4.460 -1.6119 -0.9532  0.4155
  898MOL0     H23860   3.564   0.387   4.301 -4.1872 -0.4422 -0.1819
  898MOL0     H23861   3.626   0.635   4.285  0.5138 -3.2237 -1.1609
  898MOL0     H23862   3.554   0.662   4.447 -0.8783 -1.2664  0.7039
  898MOL0     H23863   3.728   0.484   4.523  0.0807 -1.0532 -1.3532
  898MOL0     H23864   3.794   0.486   4.353  3.4848  1.2609  0.6924
  898MOL0     H23865   3.767   0.740   4.515 -0.2731  1.7780 -0.8733
  898MOL0     H23866   3.868   0.705   4.376 -1.4574 -0.0299  0.0808
  898MOL0     H23867   3.922   0.586   4.642 -0.8431 -0.1506 -1.9763
  898MOL0     H23868   3.983   0.519   4.491 -1.1358  0.9049 -4.1871
  898MOL0     H23869   4.109   0.736   4.448 -0.9524 -3.5005 -0.9698
  898MOL0     H23870   4.156   0.654   4.593  0.5792  0.5301 -0.4478
  898MOL0     H23871   3.973   0.911   4.573  2.3975  1.6926 -0.7794
  898MOL0     H23872   4.005   0.818   4.713 -4.2997 -0.9023 -1.0222
  898MOL0     H23873   4.245   0.864   4.821  0.3223  1.0421  1.3609
  898MOL0     H23874   4.471   0.980   4.884 -1.0021  1.1681  0.7434
  898MOL0     H23875   4.434   1.154   4.851  0.6857 -0.0033 -0.2827
  898MOL0     H23876   4.585   1.144   4.659 -0.1455  4.0847  4.6108
  898MOL0     H23877   4.667   1.075   4.804 -0.6582  1.2336  0.1221
  898MOL0     H23878   4.589   0.848   4.738 -0.4841 -1.9973 -1.7069
  898MOL0     H23879   4.556   0.912   4.575  2.0759  2.0619 -1.2936
  898MOL0     H23880   4.804   0.975   4.551 -2.2878  1.8437  0.2052
  898MOL0     H23881   4.827   0.912   4.713 -1.6555 -0.8916  1.5581
  898MOL0     H23882   4.779   0.546   4.456  0.3231  1.4372  0.7574
  898MOL0     H23883   4.850   0.258   4.505  0.1957  0.1759  0.9719
  898MOL0     H23884   5.008   0.264   4.427  0.0091  1.1367 -0.3046
  898MOL0     H23885   4.882   0.355   4.362  1.6404 -1.2788 -1.2618
  898MOL0     H23886   5.439   0.301   4.370  1.7288 -0.6635 -1.2230
  898MOL0     H23887   5.613   0.123   4.371 -0.4862 -2.7433 -0.2367
  898MOL0     H23888   5.808  -0.102   4.464 -2.0889 -0.9996 -0.8304
  898MOL0     H23889   5.780   0.069   4.502 -1.2357 -0.0396  0.1502
  898MOL0     H23890   5.958  -0.024   4.626  0.4538 -2.1280  0.4166
  898MOL0     H23891   5.830   0.023   4.743 -1.2536 -0.5388 -0.1339
  898MOL0     H23892   5.869  -0.261   4.634 -3.6923 -0.3595 -0.1740
  898MOL0     H23893   5.760  -0.226   4.770 -0.1784 -1.6960 -1.3734
  898MOL0     H23894   5.945  -0.148   4.915 -2.5373  0.3675 -0.3927
  898MOL0     H23895   6.059  -0.161   4.794 -1.9684  1.8895 -0.4350
  898MOL0     H23896   6.055  -0.394   4.779 -1.0447 -0.2072 -1.2055
  898MOL0     H23897   6.065  -0.346   4.948  2.7681  0.5901 -1.7673
  898MOL0     H23898   5.836  -0.482   4.793 -1.7282  1.4820 -0.6685
  898MOL0     H23899   5.808  -0.389   4.947  0.5104  0.2557 -0.5628
  898MOL0     H23900   5.969  -0.544   5.051 -3.1369 -0.1752  1.0537
  898MOL0     H23901   6.009  -0.627   4.910 -1.1885 -3.1385  2.3799
  898MOL0     H23902   5.752  -0.644   5.059  1.6264 -0.9329  2.6796
  898MOL0     H23903   5.891  -0.755   5.067  3.2059  1.3570 -0.6682
  898MOL0     H23904   5.439  -0.043   4.720  1.7025 -0.4265 -2.0268
  898MOL0     H23905   5.240   0.087   4.689 -0.0032 -0.6395  0.4348
  898MOL0     H23906   5.145   0.594   4.770 -2.5354 -0.1056  2.3893
  898MOL0     H23907   5.002   0.775   4.747  2.7809 -0.4550  1.0488
  898MOL0     H23908   3.114   0.542   4.226 -1.3988  0.4207  1.3960
  898MOL0     H23909   2.879   0.472   4.249  0.0332 -0.7847 -0.4177
  898MOL0     H23910   2.655   0.081   4.404 -0.6488 -0.7630  0.4752
  898MOL0     H23911   2.430  -0.012   4.473  0.1890 -0.4131 -0.2072
  898MOL0     H23912   2.071   0.137   4.262  0.4440  1.3040  3.2172
  898MOL0     H23913   2.079  -0.037   4.205 -1.6029 -1.9376  1.0485
  898MOL0     H23914   1.965   0.078   4.464  2.6122 -3.1683  1.9782
  898MOL0     H23915   1.962  -0.093   4.418  1.3464  0.3624 -0.5980
  898MOL0     H23916   1.836   0.118   4.228  2.2890 -2.4593 -1.2195
  898MOL0     H23917   1.792  -0.052   4.250  1.3488 -1.2558 -1.5445
  898MOL0     H23918   1.678  -0.028   4.455  2.3396 -0.0078  1.4356
  898MOL0     H23919   1.615   0.082   4.336 -1.4641 -1.9351  1.8506
  898MOL0     H23920   1.786   0.346   4.625  1.4430  1.0154  0.1701
  898MOL0     H23921   2.254   0.164   4.124 -0.5831  2.9536  0.4589
  898MOL0     H23922   2.353   0.276   3.973 -0.6259 -1.7641  0.2640
  898MOL0     H23923   2.480   0.376   4.026  0.5464 -0.0941  0.5925
  898MOL0     H23924   2.512   0.211   3.947  2.7558  2.1998  0.3686
  899MOL0     O23925   8.727   1.701   1.006  0.2837  0.0979  0.1619
  899MOL0     C23926   8.690   1.778   0.926 -0.1711 -0.7351 -0.6083
  899MOL0     O23927   8.577   1.851   0.939 -0.4588  0.0579 -0.2973
  899MOL0     C23928   8.493   1.848   1.053 -0.1362  0.2217 -0.0303
  899MOL0     C23929   8.367   1.895   1.025 -0.0694  0.1268  0.3737
  899MOL0     C23930   8.265   1.907   1.121  0.0898  0.7101 -0.6801
  899MOL0     C23931   8.293   1.873   1.249 -0.2000  0.4226  0.2288
  899MOL0     O23932   8.196   1.872   1.351 -0.1432 -0.0567 -0.2261
  899MOL0     C23933   8.155   1.745   1.394  0.0887 -1.2446  0.3557
  899MOL0     C23934   8.048   1.777   1.505 -0.3167 -0.6711 -0.5104
  899MOL0     C23935   7.921   1.864   1.467 -0.3488  0.0458 -0.1642
  899MOL0     C23936   7.852   1.807   1.339 -1.4758 -0.9124 -0.3278
  899MOL0     C23937   7.724   1.890   1.305 -0.4878  0.5428  0.1648
  899MOL0     C23938   7.670   1.871   1.162 -0.5063  0.5301  0.4126
  899MOL0     C23939   7.542   1.964   1.135 -0.0344  0.1342  0.0686
  899MOL0     C23940   7.423   1.918   1.224  0.1599  0.1606  0.1697
  899MOL0     N23941   7.362   1.793   1.176  0.2347 -0.3272  0.3898
  899MOL0     C23942   7.388   1.668   1.229 -0.9121 -0.3824  0.9579
  899MOL0     C23943   7.300   1.582   1.166  0.2161  0.1323  0.4776
  899MOL0     C23944   7.280   1.434   1.198  0.6623 -1.0941 -0.8899
  899MOL0     C23945   7.378   1.352   1.128 -1.1912  1.0169 -0.8125
  899MOL0     C23946   7.326   1.202   1.125  0.1335 -0.5690 -0.0798
  899MOL0     C23947   7.323   1.137   1.261  0.4946  0.6727 -0.3222
  899MOL0     O23948   7.457   1.130   1.296 -0.3794 -0.2234  0.3969
  899MOL0     C23949   7.542   1.029   1.266  1.4641  0.7957  0.2620
  899MOL0     C23950   7.675   1.057   1.297 -0.0620 -0.5707 -0.5109
  899MOL0     C23951   7.776   0.964   1.282 -0.3648  0.6391 -0.4119
  899MOL0     C23952   7.916   1.016   1.309  0.0808 -0.5178 -0.2884
  899MOL0     C23953   7.747   0.836   1.233 -0.2357  1.4357  0.2560
  899MOL0     C23954   7.850   0.733   1.228 -0.0489  0.9235 -0.1135
  899MOL0     O23955   7.797   0.607   1.242  0.2323 -0.1865  0.2414
  899MOL0     C23956   7.891   0.510   1.235 -0.1155  0.3925 -0.9331
  899MOL0     C23957   7.983   0.486   1.343  0.9088  0.1596 -1.0103
  899MOL0     C23958   8.093   0.403   1.327 -0.8038  0.0780 -0.0966
  899MOL0     C23959   8.111   0.333   1.201  0.2422 -0.8639 -0.2341
  899MOL0     O23960   8.228   0.262   1.197  0.2952 -0.0872  0.6412
  899MOL0     C23961   8.229   0.144   1.110  0.1921 -0.0391  0.3388
  899MOL0     C23962   8.328   0.043   1.151  0.7478 -0.2324  0.5222
  899MOL0     C23963   8.281  -0.040   1.275  0.3082 -0.6038  0.1899
  899MOL0     C23964   8.390  -0.141   1.298  0.4418  0.0472  0.0708
  899MOL0     C23965   8.366  -0.244   1.419  0.1857  0.7044 -0.5638
  899MOL0     C23966   8.364  -0.176   1.553  0.0912 -0.6338  0.0541
  899MOL0     C23967   8.347  -0.272   1.671 -0.2448 -0.6019 -0.3359
  899MOL0     C23968   8.337  -0.214   1.809 -0.7927 -0.1116  0.3142
  899MOL0    Cl23969   8.489  -0.110   1.839 -0.2233  0.0416 -0.6121
  899MOL0     C23970   8.014   0.347   1.100  0.1442 -0.1260 -0.5171
  899MOL0     C23971   7.908   0.431   1.123 -0.0124 -0.4744 -0.3901
  899MOL0     O23972   7.971   0.764   1.206  1.2918 -0.0701 -0.2301
  899MOL0     C23973   7.610   0.806   1.193 -0.0749  0.6492 -0.6911
  899MOL0     C23974   7.508   0.907   1.216 -0.0799  0.8095  0.8780
  899MOL0     N23975   7.221   1.657   1.087 -0.3577 -0.2130  0.3296
  899MOL0     N23976   7.254   1.780   1.093  0.1185  0.0229  0.6352
  899MOL0     C23977   8.430   1.836   1.283  0.7105 -0.2102 -0.4447
  899MOL0     C23978   8.526   1.830   1.185 -0.5715  1.1762 -0.1298
  899MOL0     C23979   8.785   1.807   0.805  0.8176  0.0484 -0.5402
  899MOL0     C23980   8.768   1.932   0.738  0.1486  0.8473 -0.6783
  899MOL0     C23981   8.841   1.959   0.623 -0.1763 -0.0821 -0.6062
  899MOL0     C23982   8.947   1.874   0.578 -1.1446  0.3190  0.5311
  899MOL0     O23983   9.016   1.861   0.460 -0.4481  0.0071 -0.1089
  899MOL0     C23984   8.972   1.943   0.351  0.1451 -0.3458  0.0736
  899MOL0     C23985   9.038   1.920   0.226  0.1046  0.0062 -0.2542
  899MOL0     C23986   8.963   1.977   0.107  0.5954  0.4120  0.3706
  899MOL0     C23987   9.050   1.991  -0.023  0.9688 -0.1141 -0.4549
  899MOL0     C23988   9.139   2.108  -0.006  0.4298  0.1513 -0.1796
  899MOL0     C23989   9.216   2.200   0.001  0.3352  0.0050  0.3647
  899MOL0     C23990   8.962   1.754   0.651 -0.3673  0.7237 -0.3787
  899MOL0     C23991   8.886   1.717   0.765  0.5320  0.3866 -0.3426
  899MOL0     C23992   8.901   1.589   0.837 -0.5836  0.3943  0.7028
  899MOL0     H23993   8.329   1.932   0.930 -0.0157 -0.9931 -0.0912
  899MOL0     H23994   8.163   1.930   1.090 -0.6364 -0.5043  0.7203
  899MOL0     H23995   8.237   1.697   1.448  0.1178 -0.0526  1.4429
  899MOL0     H23996   8.116   1.686   1.311  0.1907 -2.0002  0.8431
  899MOL0     H23997   8.011   1.679   1.534 -2.2078  0.0271 -0.4481
  899MOL0     H23998   8.096   1.829   1.589  2.0161 -1.1356 -1.4655
  899MOL0     H23999   7.843   1.874   1.543  0.8975  0.6134  1.0944
  899MOL0     H24000   7.952   1.969   1.460  0.6503  0.1288  3.5183
  899MOL0     H24001   7.921   1.825   1.255  1.0865 -0.9362  1.6500
  899MOL0     H24002   7.824   1.703   1.357  1.2511 -1.6847 -0.0346
  899MOL0     H24003   7.748   1.995   1.325 -0.6429  0.3160  1.6759
  899MOL0     H24004   7.652   1.852   1.379  0.1197 -4.0529 -1.2939
  899MOL0     H24005   7.737   1.900   1.081  0.2659 -2.3663 -0.0855
  899MOL0     H24006   7.644   1.766   1.147 -0.3427  0.0692  2.9235
  899MOL0     H24007   7.505   1.962   1.032 -2.0137 -4.3789  0.6094
  899MOL0     H24008   7.566   2.066   1.166 -0.7335  0.4577 -0.4288
  899MOL0     H24009   7.442   1.901   1.331 -0.2848 -4.2278 -0.2505
  899MOL0     H24010   7.346   1.995   1.216 -1.2546 -1.2729 -0.5815
  899MOL0     H24011   7.460   1.653   1.309 -1.0594 -0.8396  1.0104
  899MOL0     H24012   7.174   1.421   1.172  0.4280  1.6509 -1.6440
  899MOL0     H24013   7.302   1.416   1.303  1.8907 -0.0884 -0.9500
  899MOL0     H24014   7.395   1.385   1.025 -0.9945  3.5474 -0.0157
  899MOL0     H24015   7.475   1.354   1.179 -1.2791 -2.4378 -0.2750
  899MOL0     H24016   7.226   1.204   1.081  1.0197 -2.1558 -2.3399
  899MOL0     H24017   7.388   1.142   1.058  0.1840 -2.2928  1.4235
  899MOL0     H24018   7.283   1.211   1.331  3.8782  0.6810  1.8459
  899MOL0     H24019   7.272   1.042   1.277 -0.6145  1.1345 -1.0161
  899MOL0     H24020   7.689   1.145   1.359 -0.3145 -1.0020  0.1629
  899MOL0     H24021   7.912   1.115   1.355  0.3760 -1.9977  3.2738
  899MOL0     H24022   7.999   1.011   1.238  3.0864 -1.0588  2.9709
  899MOL0     H24023   7.953   0.946   1.385 -1.5134 -1.2119 -0.1234
  899MOL0     H24024   7.970   0.540   1.436  1.4601 -0.2517 -0.6863
  899MOL0     H24025   8.160   0.378   1.408  1.0380 -1.9746 -2.0916
  899MOL0     H24026   8.130   0.097   1.107 -0.5320  1.4586 -2.2222
  899MOL0     H24027   8.258   0.173   1.009  0.5194 -1.1964  0.0837
  899MOL0     H24028   8.335  -0.012   1.057  0.0314  3.2761 -1.7423
  899MOL0     H24029   8.427   0.085   1.172  1.1100 -1.5730  1.7202
  899MOL0     H24030   8.189  -0.095   1.254  0.0758  0.0553 -0.5790
  899MOL0     H24031   8.263   0.024   1.362 -0.1909  1.1682 -1.1479
  899MOL0     H24032   8.485  -0.095   1.327  1.1915 -1.9405  1.0213
  899MOL0     H24033   8.402  -0.197   1.205 -0.2026 -0.7677  0.4662
  899MOL0     H24034   8.267  -0.291   1.418 -0.4216  1.7447  1.9753
  899MOL0     H24035   8.436  -0.329   1.422 -3.4396 -2.5665  0.6096
  899MOL0     H24036   8.282  -0.103   1.543  0.7367 -0.1173 -1.9668
  899MOL0     H24037   8.453  -0.113   1.567 -0.3705 -0.2893  1.5931
  899MOL0     H24038   8.437  -0.334   1.678  1.5885  1.9150 -0.1067
  899MOL0     H24039   8.258  -0.336   1.664 -0.2744 -0.5457 -0.4772
  899MOL0     H24040   8.329  -0.292   1.885 -0.2704 -0.4321  0.0442
  899MOL0     H24041   8.246  -0.154   1.817 -0.9157 -0.2446 -0.0946
  899MOL0     H24042   8.024   0.297   1.003  0.9988  2.5364 -1.8911
  899MOL0     H24043   7.833   0.439   1.045  0.9015 -0.4855 -1.2930
  899MOL0     H24044   7.592   0.704   1.159 -2.0733  0.7106  0.0359
  899MOL0     H24045   7.406   0.877   1.194  1.0105  0.5336 -5.4745
  899MOL0     H24046   8.450   1.830   1.389 -2.8969  2.9501  0.6327
  899MOL0     H24047   8.633   1.819   1.200 -0.4419  0.7390 -1.2637
  899MOL0     H24048   8.694   2.003   0.771 -1.2664 -1.0544  0.4742
  899MOL0     H24049   8.813   2.050   0.573  1.7783  1.4903  1.0098
  899MOL0     H24050   8.865   1.920   0.343  0.5234 -1.5878 -3.3161
  899MOL0     H24051   8.977   2.050   0.370 -0.3931  0.3878 -3.2950
  899MOL0     H24052   9.060   1.813   0.222  1.8504  0.3674 -2.8910
  899MOL0     H24053   9.128   1.981   0.234 -0.1723  0.5934 -1.4099
  899MOL0     H24054   8.904   1.888   0.080  1.5911  1.0190 -4.8045
  899MOL0     H24055   8.898   2.064   0.119 -2.6475 -1.6767 -0.7257
  899MOL0     H24056   8.978   2.009  -0.103  2.3898  0.3877 -1.6611
  899MOL0     H24057   9.115   1.905  -0.037  2.9148  1.2984 -0.4036
  899MOL0     H24058   9.274   2.290   0.006  1.0157 -0.2789 -1.5806
  899MOL0     H24059   9.031   1.680   0.612 -2.6915 -1.2547 -0.9862
  899MOL0     H24060   8.942   1.608   0.937 -1.3793  0.5493  1.0019
  899MOL0     H24061   8.803   1.540   0.836  0.8157 -2.6633 -1.4875
  899MOL0     H24062   8.970   1.522   0.785  0.1673  2.0192 -0.4666
  900MOL0     O24063   6.695   2.827   6.182 -0.6263  0.1764 -0.0734
  900MOL0     C24064   6.657   2.936   6.134 -0.4567 -0.0913  0.0534
  900MOL0     O24065   6.722   3.051   6.155  0.5054 -0.6804  0.2237
  900MOL0     C24066   6.830   3.041   6.241  0.4242  0.4470 -0.8910
  900MOL0     C24067   6.940   2.963   6.201 -0.1305 -0.0997  0.2503
  900MOL0     C24068   7.059   2.963   6.275  0.1918 -0.2339 -0.0507
  900MOL0     C24069   7.069   3.046   6.384  0.6869 -0.2157 -0.0500
  900MOL0     O24070   7.191   3.059   6.441  0.4815  0.4437  0.3656
  900MOL0     C24071   7.206   3.097   6.573 -0.3049 -0.0748 -0.3662
  900MOL0     C24072   7.358   3.073   6.600 -0.6441 -0.0247  0.4797
  900MOL0     C24073   7.410   2.943   6.524  0.1705 -0.2838  0.1382
  900MOL0     C24074   7.552   2.896   6.542  0.9390  0.8957  0.7340
  900MOL0     C24075   7.658   3.000   6.499 -0.3349 -0.7067 -0.1048
  900MOL0     C24076   7.802   2.952   6.508  0.0241 -0.1470 -0.7580
  900MOL0     C24077   7.915   3.048   6.491  1.1731 -0.0277 -0.4396
  900MOL0     C24078   7.896   3.188   6.571 -0.1232 -1.3249  0.9575
  900MOL0     N24079   8.022   3.255   6.591 -0.2255 -0.3307 -0.6301
  900MOL0     C24080   8.044   3.390   6.567  0.7610  0.3904 -0.0695
  900MOL0     C24081   8.169   3.413   6.609 -0.4808 -0.0315 -0.4191
  900MOL0     C24082   8.245   3.554   6.611  0.1097  0.9898 -0.0044
  900MOL0     C24083   8.366   3.544   6.507 -0.0216 -0.0826 -0.1839
  900MOL0     C24084   8.476   3.451   6.550 -0.8746  0.3164  0.5270
  900MOL0     C24085   8.555   3.508   6.671  0.1762 -0.5674  0.0809
  900MOL0     O24086   8.687   3.456   6.699  0.0904  0.5021 -0.1699
  900MOL0     C24087   8.774   3.527   6.780 -0.8921 -0.3425 -0.1643
  900MOL0     C24088   8.720   3.605   6.889  0.0050 -0.0955  0.1340
  900MOL0     C24089   8.807   3.666   6.980  0.0828  0.3499  1.1353
  900MOL0     C24090   8.739   3.713   7.106  0.4086 -0.0845 -0.5996
  900MOL0     C24091   8.948   3.669   6.949  0.3999  0.5556 -0.9704
  900MOL0     C24092   9.041   3.745   7.033 -0.4297 -0.7045 -0.4770
  900MOL0     O24093   8.990   3.841   7.117 -0.4456  0.1344 -0.1276
  900MOL0     C24094   9.069   3.904   7.211 -0.4119 -0.3183  0.5801
  900MOL0     C24095   9.020   3.913   7.342 -0.1061 -0.8182 -0.7179
  900MOL0     C24096   9.084   3.997   7.437 -0.3757  0.1361  0.1587
  900MOL0     C24097   9.200   4.067   7.399 -1.0904 -0.6202 -0.0339
  900MOL0     O24098   9.271   4.149   7.489 -0.8975 -0.5349  0.3425
  900MOL0     C24099   9.208   4.250   7.566  0.6167 -0.4335 -0.3673
  900MOL0     C24100   9.309   4.295   7.672  0.1248  0.4840 -0.2267
  900MOL0     C24101   9.434   4.357   7.617  0.0776 -0.8561  0.1913
  900MOL0     C24102   9.533   4.391   7.729 -0.2087  0.9417  0.2664
  900MOL0     C24103   9.665   4.446   7.670 -0.1432 -1.0675 -0.2930
  900MOL0     C24104   9.769   4.421   7.773 -0.4308 -0.5192 -0.2902
  900MOL0     C24105   9.910   4.489   7.743 -0.0804 -0.5695 -0.3292
  900MOL0     C24106   9.989   4.410   7.647  0.4203  0.2872  1.7631
  900MOL0    Cl24107  10.137   4.494   7.623  0.1359 -0.2710 -0.1142
  900MOL0     C24108   9.250   4.057   7.274  1.1299  0.0192 -0.4181
  900MOL0     C24109   9.183   3.982   7.172  0.0430 -0.4117  0.4693
  900MOL0     O24110   9.157   3.722   7.022 -0.2107 -0.2251 -1.2066
  900MOL0     C24111   9.006   3.583   6.845  0.0120 -0.4698 -0.5079
  900MOL0     C24112   8.914   3.508   6.771  0.3732 -0.5085  0.0799
  900MOL0     N24113   8.211   3.297   6.679  0.2237 -0.5870  0.1724
  900MOL0     N24114   8.120   3.201   6.665 -0.0853 -0.5191 -0.2732
  900MOL0     C24115   6.951   3.124   6.430 -0.2386  0.2118 -0.0618
  900MOL0     C24116   6.836   3.121   6.355  0.4026  0.1958 -1.1041
  900MOL0     C24117   6.530   2.944   6.056  0.0498 -0.2148 -0.5653
  900MOL0     C24118   6.468   3.069   6.075  0.0763 -0.3803 -0.0989
  900MOL0     C24119   6.342   3.102   6.014 -0.0953  0.8567  0.5184
  900MOL0     C24120   6.287   3.002   5.938 -0.0291 -0.3738 -0.5861
  900MOL0     O24121   6.158   3.027   5.904  0.3075 -0.6434  0.0136
  900MOL0     C24122   6.122   2.987   5.772  0.6205  0.3235 -0.0444
  900MOL0     C24123   6.028   3.085   5.713  0.1521  0.2223 -0.3074
  900MOL0     C24124   6.108   3.210   5.674  0.0747 -0.1240  0.1694
  900MOL0     C24125   6.028   3.310   5.594 -0.7529 -0.6362 -0.6136
  900MOL0     C24126   6.091   3.332   5.464  1.2409 -0.5981  0.0580
  900MOL0     C24127   6.172   3.355   5.374  0.4372  0.3619 -0.1060
  900MOL0     C24128   6.351   2.874   5.919  0.7984 -0.4457 -0.2790
  900MOL0     C24129   6.477   2.849   5.969  0.9436  0.8896 -0.4215
  900MOL0     C24130   6.551   2.719   5.949 -0.2267 -0.5476  0.0019
  900MOL0     H24131   6.948   2.893   6.119 -0.8615 -0.1569  0.2240
  900MOL0     H24132   7.147   2.904   6.252  0.9006  1.1764 -1.1175
  900MOL0     H24133   7.137   3.046   6.640  0.7325 -0.3153  0.5458
  900MOL0     H24134   7.185   3.201   6.600  1.1675 -0.4505  2.5181
  900MOL0     H24135   7.421   3.157   6.569 -1.6079  0.4197 -0.3082
  900MOL0     H24136   7.380   3.074   6.707  1.4361  2.1109  0.1050
  900MOL0     H24137   7.351   2.854   6.547  1.6858 -1.3283  0.1484
  900MOL0     H24138   7.397   2.959   6.416 -0.0038  1.8120  0.4430
  900MOL0     H24139   7.564   2.861   6.645  0.3393  0.4236  0.6438
  900MOL0     H24140   7.563   2.812   6.473  1.0364  2.3543 -1.1052
  900MOL0     H24141   7.656   3.085   6.569 -1.0151 -0.9237  0.1564
  900MOL0     H24142   7.631   3.040   6.401  1.3853  0.2456 -0.2195
  900MOL0     H24143   7.814   2.911   6.609  0.7092 -1.1778 -1.2453
  900MOL0     H24144   7.821   2.865   6.445  0.4686 -1.9184  1.6747
  900MOL0     H24145   7.917   3.078   6.386  0.9602  0.2599 -0.3611
  900MOL0     H24146   8.009   2.998   6.516  0.3330 -0.5494  1.9033
  900MOL0     H24147   7.821   3.248   6.519  1.2824 -1.5587 -1.4866
  900MOL0     H24148   7.869   3.164   6.674 -1.1641 -3.2490  0.2912
  900MOL0     H24149   7.973   3.464   6.531  0.4323  0.0941 -0.0331
  900MOL0     H24150   8.280   3.586   6.710 -0.0785  0.5606  0.2025
  900MOL0     H24151   8.181   3.633   6.570  1.6258  1.4878 -1.5172
  900MOL0     H24152   8.328   3.497   6.416 -0.6921 -0.3136  0.2015
  900MOL0     H24153   8.401   3.644   6.481  1.6973 -0.7468 -0.5148
  900MOL0     H24154   8.423   3.357   6.566 -1.9913  0.7308 -0.5551
  900MOL0     H24155   8.542   3.435   6.465 -1.7039 -0.9660  0.0863
  900MOL0     H24156   8.552   3.617   6.670 -3.5359 -0.5366  1.2919
  900MOL0     H24157   8.492   3.482   6.757 -0.8896  2.5591  0.3773
  900MOL0     H24158   8.612   3.602   6.902 -0.0639  0.4561 -0.2767
  900MOL0     H24159   8.704   3.815   7.090 -1.0876 -0.7412 -1.7412
  900MOL0     H24160   8.804   3.714   7.194 -1.2406  0.4109  0.6434
  900MOL0     H24161   8.645   3.659   7.118 -1.0236  2.7078  1.8750
  900MOL0     H24162   8.929   3.867   7.379  0.8586  1.0451  5.0060
  900MOL0     H24163   9.055   4.003   7.542  1.8255  2.0684  0.7398
  900MOL0     H24164   9.177   4.330   7.498 -1.1346  0.4022  1.3127
  900MOL0     H24165   9.115   4.214   7.611  1.0766  1.1478  2.0222
  900MOL0     H24166   9.249   4.365   7.732 -0.6723 -0.2309 -0.1627
  900MOL0     H24167   9.338   4.206   7.728  1.2893 -0.4161 -2.1651
  900MOL0     H24168   9.418   4.457   7.576 -0.8104 -0.2360  1.9559
  900MOL0     H24169   9.485   4.291   7.546 -2.4895 -0.0341 -2.5712
  900MOL0     H24170   9.554   4.300   7.786  1.3195  0.0933 -1.5456
  900MOL0     H24171   9.495   4.469   7.796 -2.1793  0.8095 -0.6101
  900MOL0     H24172   9.699   4.409   7.572  0.3116 -2.3253  0.3192
  900MOL0     H24173   9.650   4.551   7.642 -0.5376 -1.5683 -2.0950
  900MOL0     H24174   9.777   4.314   7.790 -0.0228 -0.6344 -1.1164
  900MOL0     H24175   9.730   4.463   7.866  1.0207 -0.8421  0.4863
  900MOL0     H24176   9.967   4.476   7.836 -0.2114 -0.3786 -0.2213
  900MOL0     H24177   9.896   4.592   7.709  0.9715 -0.8678 -1.7580
  900MOL0     H24178   9.936   4.402   7.552  0.0237 -0.4118  2.0283
  900MOL0     H24179   9.998   4.309   7.689  2.3310  0.9900  3.1833
  900MOL0     H24180   9.349   4.097   7.255  0.0629  1.7921 -2.7326
  900MOL0     H24181   9.209   3.981   7.067 -1.6098  0.1919  0.0209
  900MOL0     H24182   9.112   3.579   6.824  0.3970  0.1999  1.1664
  900MOL0     H24183   8.945   3.441   6.691  0.9259  0.0077 -0.1522
  900MOL0     H24184   6.955   3.184   6.520 -1.2294  1.4197 -0.8081
  900MOL0     H24185   6.749   3.180   6.384  0.4733  0.0391 -0.5504
  900MOL0     H24186   6.512   3.141   6.143  1.2875 -0.8431 -0.3693
  900MOL0     H24187   6.292   3.199   6.020  0.1608  1.0223  0.0476
  900MOL0     H24188   6.206   2.977   5.702  0.3895  2.1605 -0.6448
  900MOL0     H24189   6.074   2.890   5.783 -1.1351  1.1207 -0.4483
  900MOL0     H24190   5.947   3.103   5.784  1.8444  0.5581  1.6610
  900MOL0     H24191   5.985   3.055   5.617  1.8452  1.1356 -1.4127
  900MOL0     H24192   6.146   3.273   5.755 -2.2392  0.2873  1.0187
  900MOL0     H24193   6.182   3.174   5.603 -0.5964  0.1539 -0.6839
  900MOL0     H24194   6.024   3.410   5.639 -0.8866 -0.9748  0.1368
  900MOL0     H24195   5.923   3.281   5.586 -0.3375 -2.4498 -0.0663
  900MOL0     H24196   6.242   3.385   5.298 -0.3519  2.5294 -0.0511
  900MOL0     H24197   6.299   2.790   5.876  0.0296 -1.1669  1.9401
  900MOL0     H24198   6.651   2.741   5.910 -0.7330  1.9359 -0.0375
  900MOL0     H24199   6.558   2.663   6.043 -1.8580  2.3616  1.9962
  900MOL0     H24200   6.512   2.650   5.873  0.9284 -0.8607 -0.3342
  901MOL0     O24201   4.362   9.112   3.510 -0.0963 -0.8377 -0.1526
  901MOL0     C24202   4.316   9.210   3.451  1.1393 -0.5742  0.2094
  901MOL0     O24203   4.377   9.317   3.407 -0.1574  0.2923  0.2650
  901MOL0     C24204   4.505   9.330   3.452 -0.3851 -0.6060  0.3448
  901MOL0     C24205   4.621   9.270   3.390 -0.0947  0.1587 -0.1449
  901MOL0     C24206   4.751   9.299   3.447  0.6843 -0.1891 -0.1621
  901MOL0     C24207   4.764   9.374   3.568 -0.4667 -0.3538  0.0301
  901MOL0     O24208   4.891   9.397   3.610 -0.4906 -0.0516  0.2234
  901MOL0     C24209   4.919   9.464   3.731 -0.1233  0.4202  0.0750
  901MOL0     C24210   5.057   9.412   3.792 -0.6575 -0.2395  0.2619
  901MOL0     C24211   5.079   9.443   3.943 -0.5575 -0.1367  0.2362
  901MOL0     C24212   5.102   9.594   3.975 -0.2624  0.2070 -0.1772
  901MOL0     C24213   5.080   9.625   4.129  0.3411 -0.6949  0.2419
  901MOL0     C24214   5.178   9.733   4.169 -0.2128 -0.0088  0.4258
  901MOL0     C24215   5.191   9.759   4.319  1.0086 -0.0610 -0.3943
  901MOL0     C24216   5.291   9.876   4.348 -0.1464  0.6375  0.3974
  901MOL0     N24217   5.262  10.007   4.280 -0.0898  0.1994  0.2476
  901MOL0     C24218   5.300  10.043   4.153  0.0943  0.7817 -0.4492
  901MOL0     C24219   5.278  10.176   4.135 -0.1154  0.1617 -1.3215
  901MOL0     C24220   5.296  10.265   4.016  0.4272  0.0780 -0.3698
  901MOL0     C24221   5.409  10.216   3.924 -0.6322 -0.7349  0.7910
  901MOL0     C24222   5.540  10.261   3.971  0.7165 -0.6258  0.4271
  901MOL0     C24223   5.672  10.202   3.905 -1.0821  0.0246  0.0023
  901MOL0     O24224   5.765  10.187   4.016 -0.2491 -0.0179 -0.7328
  901MOL0     C24225   5.844  10.302   4.050  0.2879  0.4359 -0.0832
  901MOL0     C24226   5.946  10.286   4.143 -0.1372 -0.1886  0.3747
  901MOL0     C24227   6.024  10.391   4.176  0.8537 -0.2256 -0.0916
  901MOL0     C24228   6.132  10.361   4.271 -1.1469 -0.1270  0.0593
  901MOL0     C24229   6.009  10.519   4.120 -1.1650 -0.1502  0.0845
  901MOL0     C24230   6.097  10.633   4.143  0.4241 -0.6216 -0.5410
  901MOL0     O24231   6.137  10.684   4.024  0.0547 -0.3067 -0.1372
  901MOL0     C24232   6.207  10.800   4.013  0.0757  0.9649 -0.1253
  901MOL0     C24233   6.164  10.921   4.064 -0.1472  0.2657  0.0789
  901MOL0     C24234   6.245  11.035   4.066 -0.2344 -0.2304  0.3402
  901MOL0     C24235   6.380  11.024   4.017  0.3908 -0.3628  0.0504
  901MOL0     O24236   6.466  11.132   4.019 -0.1669  0.0250 -0.4747
  901MOL0     C24237   6.424  11.246   4.088 -0.0994 -0.1484  0.7749
  901MOL0     C24238   6.526  11.357   4.078 -0.0971  1.0873  0.1430
  901MOL0     C24239   6.459  11.490   4.102 -0.3839  0.6137  0.0924
  901MOL0     C24240   6.572  11.595   4.138  0.4655 -0.0800 -0.2258
  901MOL0     C24241   6.540  11.743   4.097 -0.6363 -0.3919  0.0747
  901MOL0     C24242   6.398  11.791   4.145 -0.0928 -0.7572 -1.4088
  901MOL0     C24243   6.378  11.937   4.110  0.0862  1.4064 -0.4819
  901MOL0     C24244   6.474  12.025   4.189 -0.7935  0.2349 -0.4300
  901MOL0    Cl24245   6.403  12.191   4.197  0.1176 -0.8763 -0.2950
  901MOL0     C24246   6.430  10.897   3.979  0.0597 -0.0121  0.5981
  901MOL0     C24247   6.339  10.789   3.961 -0.5872  0.2610  0.3172
  901MOL0     O24248   6.124  10.683   4.255 -0.1636  0.5483 -0.3088
  901MOL0     C24249   5.907  10.526   4.015  0.1739 -0.3096 -0.2796
  901MOL0     C24250   5.826  10.424   3.988 -0.3572  0.1477 -0.5787
  901MOL0     N24251   5.239  10.226   4.265 -0.1480 -0.1389 -0.0830
  901MOL0     N24252   5.223  10.124   4.331 -0.2059  0.2878  0.4819
  901MOL0     C24253   4.650   9.441   3.611  0.3270  0.1122  0.5472
  901MOL0     C24254   4.526   9.411   3.564  0.3493 -0.8744 -0.2173
  901MOL0     C24255   4.164   9.190   3.416  0.5983 -0.5079  0.0857
  901MOL0     C24256   4.112   9.067   3.468  0.1204  0.2157  0.2984
  901MOL0     C24257   3.980   9.045   3.429  0.2753 -1.0241 -0.6649
  901MOL0     C24258   3.895   9.131   3.364  0.1148  0.1068 -0.5188
  901MOL0     O24259   3.769   9.076   3.330  0.2028 -0.6049  0.0961
  901MOL0     C24260   3.710   9.124   3.202 -0.0019  0.2171 -0.3378
  901MOL0     C24261   3.622   9.018   3.137  0.4974  0.0390 -0.6472
  901MOL0     C24262   3.691   8.884   3.096  0.4868 -0.4423 -0.2632
  901MOL0     C24263   3.595   8.792   3.037 -0.3142  1.3021  0.3756
  901MOL0     C24264   3.552   8.848   2.908  0.6313  0.2195  0.1621
  901MOL0     C24265   3.498   8.905   2.817  0.4339  0.2895  0.0804
  901MOL0     C24266   3.946   9.258   3.332  0.3727 -0.0272  1.1260
  901MOL0     C24267   4.083   9.279   3.349 -0.5321 -0.4797  0.4782
  901MOL0     C24268   4.140   9.405   3.293  0.3637 -1.2319  0.1713
  901MOL0     H24269   4.602   9.209   3.302 -2.8204  0.8613 -0.1445
  901MOL0     H24270   4.844   9.260   3.406  0.8241  0.3188 -0.3422
  901MOL0     H24271   4.846   9.452   3.811  0.6819  0.7667  0.8852
  901MOL0     H24272   4.928   9.569   3.704  0.1516 -0.2655 -2.8369
  901MOL0     H24273   5.068   9.304   3.778 -0.0939 -0.1956  0.3371
  901MOL0     H24274   5.137   9.459   3.734 -0.2280 -1.3303 -0.0571
  901MOL0     H24275   4.993   9.405   3.999  0.3357 -1.4360  0.7943
  901MOL0     H24276   5.170   9.392   3.979 -1.2452 -2.0325 -0.5822
  901MOL0     H24277   5.201   9.631   3.949 -0.5155 -0.7542 -2.7453
  901MOL0     H24278   5.037   9.658   3.915  1.4268  1.0796 -1.1400
  901MOL0     H24279   5.111   9.537   4.186  0.5120  1.0099  2.9531
  901MOL0     H24280   4.977   9.655   4.151  0.7275 -0.2260  1.4884
  901MOL0     H24281   5.278   9.729   4.125  0.2367  5.3569  0.2255
  901MOL0     H24282   5.143   9.825   4.120 -2.2877 -1.2735 -0.6554
  901MOL0     H24283   5.222   9.676   4.382 -0.9515 -1.8341 -1.5935
  901MOL0     H24284   5.090   9.783   4.356  1.2828  0.2503  0.1663
  901MOL0     H24285   5.295   9.889   4.457  2.2685 -1.5044  0.6669
  901MOL0     H24286   5.392   9.847   4.316 -0.0450 -0.7846  1.8479
  901MOL0     H24287   5.339   9.968   4.084 -1.0874  1.2490 -1.6901
  901MOL0     H24288   5.304  10.372   4.033  4.4874  0.1559 -1.7620
  901MOL0     H24289   5.219  10.230   3.945  2.0790  0.2573 -2.3452
  901MOL0     H24290   5.406  10.107   3.911 -1.9010 -0.4444 -2.2007
  901MOL0     H24291   5.385  10.267   3.830  1.9973 -1.0846 -0.1705
  901MOL0     H24292   5.541  10.370   3.961  1.8193 -0.6986 -0.2954
  901MOL0     H24293   5.556  10.251   4.079  1.3063 -1.0038  0.3053
  901MOL0     H24294   5.648  10.106   3.859 -1.2397 -0.3192  0.7831
  901MOL0     H24295   5.705  10.265   3.822 -1.6710  1.6730  0.9610
  901MOL0     H24296   5.960  10.183   4.173 -0.6318 -0.4646 -0.2977
  901MOL0     H24297   6.222  10.314   4.231  0.9732  2.0855  1.9135
  901MOL0     H24298   6.082  10.302   4.348 -0.7807  2.5439  2.5191
  901MOL0     H24299   6.168  10.446   4.329 -1.3513 -2.2985  3.6074
  901MOL0     H24300   6.073  10.919   4.122 -0.6829  0.4572 -0.7447
  901MOL0     H24301   6.184  11.122   4.089 -2.7999 -1.4240 -1.4937
  901MOL0     H24302   6.329  11.276   4.043  0.1849 -2.3383 -1.4303
  901MOL0     H24303   6.402  11.229   4.194  2.1439 -0.5075  1.2537
  901MOL0     H24304   6.595  11.336   4.161  1.7906  1.5826 -1.2236
  901MOL0     H24305   6.573  11.346   3.980 -1.7442 -2.1179 -0.4166
  901MOL0     H24306   6.385  11.486   4.182 -1.2211 -1.7321 -0.7031
  901MOL0     H24307   6.407  11.522   4.012  1.6646  0.8802 -1.0745
  901MOL0     H24308   6.667  11.565   4.093  0.2852  0.4162 -0.9694
  901MOL0     H24309   6.600  11.598   4.244 -0.6662  0.2401  0.0719
  901MOL0     H24310   6.618  11.805   4.142 -0.4116 -0.4273 -0.2623
  901MOL0     H24311   6.547  11.757   3.988 -0.7943 -2.8339 -0.3025
  901MOL0     H24312   6.390  11.782   4.254 -1.5203  2.4217 -1.1229
  901MOL0     H24313   6.319  11.727   4.105 -2.6269  1.1309  0.2303
  901MOL0     H24314   6.275  11.968   4.125 -0.7256 -1.4532  0.6399
  901MOL0     H24315   6.402  11.951   4.004  1.0948  0.9914 -0.3265
  901MOL0     H24316   6.575  12.037   4.147 -0.6368  0.9012  0.1235
  901MOL0     H24317   6.496  11.995   4.292 -2.2048 -2.4708 -0.8366
  901MOL0     H24318   6.525  10.895   3.928 -0.3230 -0.1850 -0.1166
  901MOL0     H24319   6.388  10.696   3.933  0.0065 -0.8294  4.3190
  901MOL0     H24320   5.895  10.616   3.956  1.8482 -2.7984 -4.9437
  901MOL0     H24321   5.748  10.437   3.914 -3.2182 -1.1544  1.9755
  901MOL0     H24322   4.659   9.512   3.693  0.0975 -0.4417  1.0629
  901MOL0     H24323   4.440   9.457   3.612 -0.3870 -1.1110 -1.2785
  901MOL0     H24324   4.167   8.989   3.520 -3.3176 -2.0253  0.8614
  901MOL0     H24325   3.937   8.953   3.466 -0.1277 -2.0009 -3.3990
  901MOL0     H24326   3.654   9.217   3.215 -1.4790 -0.7920  0.9548
  901MOL0     H24327   3.798   9.145   3.141  1.9002 -0.5046  1.9962
  901MOL0     H24328   3.588   9.066   3.044  4.0406  0.9557 -1.6549
  901MOL0     H24329   3.528   9.008   3.191 -0.5207 -0.2661 -2.4114
  901MOL0     H24330   3.779   8.900   3.034 -0.0644 -0.5350 -1.0920
  901MOL0     H24331   3.717   8.839   3.193 -0.8466  0.6329  0.6344
  901MOL0     H24332   3.510   8.789   3.105 -0.5298  3.6282  0.2614
  901MOL0     H24333   3.636   8.691   3.024 -0.1721  1.3122  0.7402
  901MOL0     H24334   3.445   8.953   2.738 -1.4797  1.7788  2.1520
  901MOL0     H24335   3.883   9.330   3.280 -3.2738 -3.0097  1.0510
  901MOL0     H24336   4.071   9.460   3.228  1.2988 -1.4062 -1.0087
  901MOL0     H24337   4.168   9.480   3.368  0.1598  0.3665 -1.2859
  901MOL0     H24338   4.226   9.374   3.233 -1.0075 -1.3299 -1.8266
  902MOL0     O24339  10.571   2.589   3.953  0.0569 -0.3405 -0.1734
  902MOL0     C24340  10.534   2.688   3.894 -0.7589  0.3778  0.2376
  902MOL0     O24341  10.615   2.791   3.850  0.5517 -0.0096 -0.2845
  902MOL0     C24342  10.751   2.785   3.874 -0.3429 -0.9906  0.2880
  902MOL0     C24343  10.836   2.686   3.821 -0.4787 -0.0826 -0.0997
  902MOL0     C24344  10.968   2.689   3.862 -0.6074  0.0309 -0.4765
  902MOL0     C24345  11.020   2.783   3.952  0.2150 -0.4710 -0.4028
  902MOL0     O24346  11.156   2.774   3.980 -0.5791  0.1206 -0.1258
  902MOL0     C24347  11.213   2.853   4.088 -0.3794 -0.5091  0.6014
  902MOL0     C24348  11.366   2.824   4.093 -0.4291  0.3161  0.6044
  902MOL0     C24349  11.452   2.847   3.966  0.1364 -0.0818  0.1486
  902MOL0     C24350  11.439   2.992   3.921  0.7450 -0.7846  0.3450
  902MOL0     C24351  11.499   3.034   3.778  0.6202 -0.3799 -0.8224
  902MOL0     C24352  11.653   3.019   3.777 -0.2927 -0.3248 -1.2450
  902MOL0     C24353  11.714   3.112   3.673 -0.9644  0.6082  0.0811
  902MOL0     C24354  11.866   3.093   3.644 -0.8263  0.6631 -0.2273
  902MOL0     N24355  11.905   2.970   3.572  0.0135 -0.3969  1.0433
  902MOL0     C24356  11.824   2.885   3.500  0.9148  0.3344  0.0010
  902MOL0     C24357  11.883   2.760   3.492 -0.1667  0.2484 -0.9312
  902MOL0     C24358  11.818   2.642   3.429  0.2811 -0.0502 -0.2866
  902MOL0     C24359  11.913   2.556   3.335 -0.8576 -0.0304 -0.4030
  902MOL0     C24360  11.874   2.404   3.325 -0.0103 -0.4348  0.3130
  902MOL0     C24361  11.878   2.319   3.455 -0.0392  0.1664 -0.3482
  902MOL0     O24362  11.756   2.333   3.543 -0.7693 -0.5144  0.1486
  902MOL0     C24363  11.640   2.269   3.505  0.3336  0.2138  0.4811
  902MOL0     C24364  11.533   2.354   3.475 -0.3914  0.0293  0.0596
  902MOL0     C24365  11.401   2.306   3.455 -1.3591 -0.4006  0.5883
  902MOL0     C24366  11.293   2.407   3.437 -0.2068 -0.1944 -0.2084
  902MOL0     C24367  11.382   2.165   3.470  0.0805 -0.1942 -0.0565
  902MOL0     C24368  11.248   2.099   3.454 -0.5887  1.1404 -0.5201
  902MOL0     O24369  11.173   2.147   3.352 -0.7498  0.4315 -0.1167
  902MOL0     C24370  11.051   2.094   3.332  0.5920 -0.0778 -1.0977
  902MOL0     C24371  10.937   2.165   3.365 -0.0792  0.4213  0.3656
  902MOL0     C24372  10.808   2.119   3.331  0.6957  0.0541 -0.2195
  902MOL0     C24373  10.780   1.996   3.263 -0.2124  0.3746  0.2150
  902MOL0     O24374  10.659   1.949   3.204 -0.3643 -0.2615 -0.3921
  902MOL0     C24375  10.543   2.003   3.259  0.4084  0.3978 -0.4230
  902MOL0     C24376  10.425   1.928   3.201  0.1520 -0.0787 -0.2462
  902MOL0     C24377  10.293   2.009   3.219  0.7543 -0.9946  0.0524
  902MOL0     C24378  10.177   1.945   3.143  0.2835  0.2929 -0.1914
  902MOL0     C24379  10.056   2.042   3.144  0.4991 -0.5809  0.1841
  902MOL0     C24380   9.927   1.980   3.088  0.0617 -0.1720 -0.2091
  902MOL0     C24381   9.802   2.074   3.090  1.2508  0.0893 -0.0912
  902MOL0     C24382   9.689   2.023   2.993  0.8732 -0.5346 -0.4889
  902MOL0    Cl24383   9.547   2.122   2.991 -0.4763  0.5665  0.2961
  902MOL0     C24384  10.900   1.926   3.240  0.6002 -0.6101  0.0559
  902MOL0     C24385  11.031   1.974   3.265 -0.1340 -0.2077  0.2886
  902MOL0     O24386  11.208   2.014   3.539 -1.0076  0.8742  0.2462
  902MOL0     C24387  11.486   2.077   3.496  0.3288 -1.3253  0.4643
  902MOL0     C24388  11.619   2.135   3.515  0.3279 -0.0996 -0.0198
  902MOL0     N24389  12.002   2.773   3.564 -0.3343  0.2481 -0.3847
  902MOL0     N24390  12.018   2.900   3.598 -0.4366  0.0646  0.1145
  902MOL0     C24391  10.933   2.882   3.999 -0.2997 -0.4002  0.7806
  902MOL0     C24392  10.801   2.891   3.955 -0.2344 -0.2025  0.7080
  902MOL0     C24393  10.389   2.693   3.854 -0.6549  0.3568  0.2126
  902MOL0     C24394  10.337   2.824   3.826 -1.2218  0.0545 -0.0924
  902MOL0     C24395  10.205   2.850   3.794  0.6734  0.2219 -0.3664
  902MOL0     C24396  10.120   2.744   3.785 -0.1464  0.2992  0.0144
  902MOL0     O24397   9.994   2.778   3.727  0.1306 -0.0239 -0.5000
  902MOL0     C24398   9.879   2.693   3.769 -1.5862 -0.3292 -0.1180
  902MOL0     C24399   9.756   2.722   3.688  1.1295 -1.2576 -0.4701
  902MOL0     C24400   9.767   2.671   3.542 -0.3548 -0.7299 -0.5750
  902MOL0     C24401   9.636   2.610   3.469 -0.3685 -1.3660  0.5931
  902MOL0     C24402   9.589   2.489   3.541 -0.1281  0.0031  0.0085
  902MOL0     C24403   9.562   2.392   3.607 -1.0128  0.4924 -0.2337
  902MOL0     C24404  10.164   2.619   3.817  0.0925  0.3165  0.9517
  902MOL0     C24405  10.301   2.585   3.856  0.5693 -0.3666 -0.7006
  902MOL0     C24406  10.342   2.442   3.890  0.1367  0.3405  0.1111
  902MOL0     H24407  10.796   2.619   3.746 -1.2985  0.0377  0.2198
  902MOL0     H24408  11.034   2.612   3.823 -1.8661  0.3506 -3.4988
  902MOL0     H24409  11.185   2.818   4.187  2.2401 -0.6044  1.3863
  902MOL0     H24410  11.190   2.957   4.064 -0.9217 -0.7287  0.1492
  902MOL0     H24411  11.408   2.890   4.169  1.3065 -0.9757  0.8486
  902MOL0     H24412  11.377   2.720   4.125  0.9619  0.7672  1.6809
  902MOL0     H24413  11.557   2.816   3.971 -0.6415 -3.4382 -1.0116
  902MOL0     H24414  11.406   2.786   3.887 -0.0010 -1.6231  1.3579
  902MOL0     H24415  11.332   3.013   3.909  0.4047 -0.9672  2.5916
  902MOL0     H24416  11.484   3.052   4.001  0.1031 -2.7692  2.2997
  902MOL0     H24417  11.469   3.138   3.759 -0.1976  0.1744  2.9049
  902MOL0     H24418  11.463   2.966   3.700  0.3514 -0.6678 -0.4485
  902MOL0     H24419  11.704   3.034   3.873  2.6371 -1.6589 -2.4479
  902MOL0     H24420  11.670   2.913   3.754 -2.3751 -1.1788  0.7639
  902MOL0     H24421  11.695   3.211   3.716 -1.0945  0.7849 -0.3759
  902MOL0     H24422  11.658   3.119   3.579 -0.3763  2.4536 -0.1725
  902MOL0     H24423  11.912   3.174   3.586 -4.4253  3.3867  0.3990
  902MOL0     H24424  11.916   3.091   3.741 -1.5396 -1.1929  0.1525
  902MOL0     H24425  11.735   2.917   3.446  1.3748  2.3035  0.3034
  902MOL0     H24426  11.743   2.689   3.365 -0.0300  0.0774  0.1701
  902MOL0     H24427  11.774   2.581   3.508 -1.6864  2.2615  0.5474
  902MOL0     H24428  11.918   2.587   3.230  1.7035 -2.0958 -1.0032
  902MOL0     H24429  12.015   2.554   3.375 -1.2801 -2.8567  0.7427
  902MOL0     H24430  11.773   2.402   3.283  0.4348  1.5488 -1.0051
  902MOL0     H24431  11.935   2.355   3.249 -0.6366  3.2148 -2.8863
  902MOL0     H24432  11.880   2.214   3.425  2.1710  0.0945 -0.1337
  902MOL0     H24433  11.971   2.338   3.509 -1.6113  2.5438  1.7436
  902MOL0     H24434  11.553   2.461   3.475 -1.8450  0.3364  1.3694
  902MOL0     H24435  11.318   2.485   3.511 -0.7691 -1.2713  1.1676
  902MOL0     H24436  11.194   2.366   3.458  0.7326 -2.2676  0.3411
  902MOL0     H24437  11.298   2.448   3.336  0.3634 -2.0118 -0.9513
  902MOL0     H24438  10.953   2.257   3.419  1.0448  0.1129  0.5772
  902MOL0     H24439  10.726   2.181   3.366 -0.5553 -1.9358  0.5748
  902MOL0     H24440  10.554   2.013   3.368  1.7711 -4.2318  0.0738
  902MOL0     H24441  10.534   2.101   3.211  1.3357 -0.2022 -1.8624
  902MOL0     H24442  10.434   1.908   3.094  0.0868 -1.8762  0.0643
  902MOL0     H24443  10.408   1.833   3.251 -1.9281 -0.2721 -1.2418
  902MOL0     H24444  10.311   2.110   3.180  0.9455 -0.7780  0.6877
  902MOL0     H24445  10.265   2.020   3.324  2.3980  0.5427  0.3916
  902MOL0     H24446  10.151   1.861   3.208 -0.3517  2.4187  2.4770
  902MOL0     H24447  10.196   1.919   3.038  0.3225 -2.4667  0.4121
  902MOL0     H24448  10.038   2.074   3.247  2.4847 -3.4062  1.5278
  902MOL0     H24449  10.092   2.127   3.087 -4.5804  2.5096  0.9170
  902MOL0     H24450   9.903   1.890   3.145 -0.3187  0.0888  0.0484
  902MOL0     H24451   9.956   1.947   2.988 -0.7265 -0.2620 -0.4139
  902MOL0     H24452   9.831   2.177   3.067  1.3159 -0.4645 -2.7425
  902MOL0     H24453   9.763   2.067   3.192  1.4631  2.3241  0.1952
  902MOL0     H24454   9.666   1.917   3.009  3.5215 -1.0946  0.0791
  902MOL0     H24455   9.731   2.039   2.894  1.2910 -1.4416 -0.4665
  902MOL0     H24456  10.889   1.836   3.179 -1.7444 -0.2690 -0.1133
  902MOL0     H24457  11.119   1.916   3.240 -0.2327 -0.7801  1.2290
  902MOL0     H24458  11.469   1.971   3.512 -1.2075 -0.8626  2.3626
  902MOL0     H24459  11.703   2.073   3.545  0.7909  0.7809  0.5245
  902MOL0     H24460  10.974   2.969   4.051  1.1652 -2.7054  3.8231
  902MOL0     H24461  10.738   2.965   4.003  1.7232  2.8008 -1.0144
  902MOL0     H24462  10.392   2.917   3.837 -1.6284  0.2693  0.1595
  902MOL0     H24463  10.172   2.953   3.785 -0.2893  0.0913  1.2037
  902MOL0     H24464   9.913   2.590   3.756  4.4785  1.5706 -2.8044
  902MOL0     H24465   9.866   2.715   3.875  1.8112 -2.2620  0.8269
  902MOL0     H24466   9.725   2.826   3.684 -0.5686 -1.7594 -1.3278
  902MOL0     H24467   9.686   2.671   3.755  2.6656  0.5029  2.7448
  902MOL0     H24468   9.796   2.755   3.479 -2.0317 -1.6403 -2.6795
  902MOL0     H24469   9.846   2.596   3.531  0.0847 -0.0327 -2.6098
  902MOL0     H24470   9.652   2.583   3.364 -1.3309 -2.6916  0.7642
  902MOL0     H24471   9.571   2.697   3.481  1.3071 -0.1321  1.0609
  902MOL0     H24472   9.541   2.304   3.665  0.9798  1.6860  2.5148
  902MOL0     H24473  10.102   2.531   3.799 -0.2826  0.8298 -0.3947
  902MOL0     H24474  10.413   2.408   3.813 -3.2732 -0.9680 -2.7409
  902MOL0     H24475  10.372   2.447   3.995 -0.1233 -0.9247  0.2621
  902MOL0     H24476  10.256   2.376   3.875 -1.2378  2.1149 -0.0965
  903MOL0     O24477   0.798   7.304   2.421 -0.2259 -0.4611  0.3733
  903MOL0     C24478   0.833   7.277   2.535 -0.4679 -0.5792  0.4793
  903MOL0     O24479   0.964   7.254   2.566 -0.3282  0.3456 -0.3324
  903MOL0     C24480   1.076   7.261   2.479  0.5631 -0.8100 -0.4815
  903MOL0     C24481   1.196   7.279   2.546  0.7416 -0.8977  0.2806
  903MOL0     C24482   1.312   7.295   2.479 -0.3293 -0.3689 -0.2372
  903MOL0     C24483   1.323   7.268   2.341  0.1046 -0.5322  0.1977
  903MOL0     O24484   1.451   7.261   2.290  0.4208 -1.3326  0.3195
  903MOL0     C24485   1.473   7.219   2.154 -0.8750 -0.4226 -0.4536
  903MOL0     C24486   1.473   7.342   2.068 -0.6455  0.2005 -1.0627
  903MOL0     C24487   1.593   7.432   2.089 -0.3978  0.3942 -0.3149
  903MOL0     C24488   1.658   7.504   1.970 -0.3531  0.0225  0.5028
  903MOL0     C24489   1.774   7.602   2.019 -0.3163 -0.3634 -0.5221
  903MOL0     C24490   1.841   7.680   1.912 -0.0528  1.0848  1.1593
  903MOL0     C24491   1.788   7.817   1.922 -0.0782  0.6180 -0.3998
  903MOL0     C24492   1.825   7.904   1.800  0.3795  0.3677 -0.9567
  903MOL0     N24493   1.968   7.920   1.799 -0.1006 -0.3141  0.3435
  903MOL0     C24494   2.036   8.009   1.876 -0.5852  0.2379 -0.7126
  903MOL0     C24495   2.165   8.009   1.838 -0.9686  0.6740  0.6452
  903MOL0     C24496   2.275   8.106   1.870  0.5964 -0.0852  0.4660
  903MOL0     C24497   2.311   8.202   1.762  0.1338  0.0526 -0.1892
  903MOL0     C24498   2.206   8.313   1.747  0.2590  0.0470  0.1243
  903MOL0     C24499   2.248   8.398   1.630 -0.2933 -0.6628  0.5107
  903MOL0     O24500   2.373   8.469   1.651  0.3957 -0.1199  0.1363
  903MOL0     C24501   2.376   8.594   1.698 -0.4777 -0.1619 -0.0824
  903MOL0     C24502   2.505   8.650   1.709  0.0680 -0.0040 -0.7984
  903MOL0     C24503   2.524   8.783   1.752  1.3422 -0.0143 -0.2692
  903MOL0     C24504   2.656   8.841   1.735  0.0332  0.1661 -0.1841
  903MOL0     C24505   2.415   8.856   1.796 -0.4280 -0.3777 -0.2325
  903MOL0     C24506   2.426   8.990   1.857  0.3247 -0.3578  0.1490
  903MOL0     O24507   2.462   9.085   1.769  0.2768  0.1307 -0.6389
  903MOL0     C24508   2.488   9.209   1.828  0.7249  0.9633  0.5907
  903MOL0     C24509   2.567   9.223   1.945 -0.5351  0.1719  0.1055
  903MOL0     C24510   2.597   9.348   1.999 -0.1412  0.3138 -0.4520
  903MOL0     C24511   2.548   9.467   1.940 -0.1910  0.0132 -1.2965
  903MOL0     O24512   2.562   9.595   1.997 -0.3027 -0.4640  0.9309
  903MOL0     C24513   2.528   9.717   1.929 -0.1218  0.1193 -0.3005
  903MOL0     C24514   2.550   9.831   2.023 -0.0349  0.1106 -0.2146
  903MOL0     C24515   2.689   9.838   2.072  0.0628  0.4299  0.4558
  903MOL0     C24516   2.746   9.981   2.075  0.3359 -0.2513  0.1308
  903MOL0     C24517   2.892   9.986   2.086  0.2288  0.9563 -0.0045
  903MOL0     C24518   2.948   9.932   2.220 -0.4285 -0.0070  0.0412
  903MOL0     C24519   3.102   9.941   2.230 -0.3069 -0.0756 -0.4864
  903MOL0     C24520   3.134   9.967   2.376  0.5578 -0.8852  0.1468
  903MOL0    Cl24521   3.041   9.882   2.496 -0.1588 -0.4949 -0.2064
  903MOL0     C24522   2.478   9.445   1.823  0.2002 -1.3991  0.4533
  903MOL0     C24523   2.451   9.326   1.765  0.4696 -0.3047 -0.2040
  903MOL0     O24524   2.398   9.002   1.974  0.3957  0.3361 -0.1386
  903MOL0     C24525   2.281   8.806   1.795  0.0434 -0.4326 -0.0302
  903MOL0     C24526   2.268   8.669   1.750  0.5728 -0.2305 -0.6915
  903MOL0     N24527   2.173   7.915   1.732  0.1715  0.0896  0.2246
  903MOL0     N24528   2.053   7.864   1.709  0.4114  0.1069  0.2740
  903MOL0     C24529   1.201   7.238   2.273 -0.2757 -0.4066  0.1638
  903MOL0     C24530   1.081   7.233   2.348 -0.4536  0.2170  0.8195
  903MOL0     C24531   0.734   7.302   2.641  0.0602 -1.2635  0.4337
  903MOL0     C24532   0.785   7.374   2.753  1.0899  0.3975 -0.3915
  903MOL0     C24533   0.704   7.411   2.858  0.5142  0.6029  0.1127
  903MOL0     C24534   0.559   7.382   2.845  1.0488 -0.3124 -0.7360
  903MOL0     O24535   0.484   7.420   2.958  0.0290 -0.1318 -0.2911
  903MOL0     C24536   0.355   7.363   2.996 -0.6454 -0.3318 -0.2806
  903MOL0     C24537   0.240   7.465   2.953 -0.4916  0.2072  0.1004
  903MOL0     C24538   0.112   7.455   3.050  0.3246 -0.1118  0.2714
  903MOL0     C24539   0.018   7.580   3.031  0.3772  0.8651 -0.1740
  903MOL0     C24540   0.075   7.705   3.085 -0.6393  0.4257  0.2413
  903MOL0     C24541   0.130   7.804   3.110 -0.2244 -0.5702 -0.3408
  903MOL0     C24542   0.509   7.319   2.731 -0.3471 -0.4881 -0.1066
  903MOL0     C24543   0.598   7.281   2.630  0.5679 -0.9806  1.2867
  903MOL0     C24544   0.550   7.195   2.514 -0.7393 -0.1890 -0.0017
  903MOL0     H24545   1.192   7.301   2.652  3.4974  2.1351 -0.1129
  903MOL0     H24546   1.397   7.323   2.541 -2.1755  1.5067  1.5916
  903MOL0     H24547   1.390   7.165   2.106 -2.0321 -1.5241  2.5776
  903MOL0     H24548   1.571   7.173   2.141 -0.5104  0.4007 -0.7222
  903MOL0     H24549   1.475   7.315   1.961 -1.9590 -0.1044 -1.0224
  903MOL0     H24550   1.373   7.384   2.084  1.2539  3.5424  5.3020
  903MOL0     H24551   1.580   7.501   2.173  0.7087 -2.4507  2.4008
  903MOL0     H24552   1.676   7.380   2.138  2.6854  4.5640 -0.4805
  903MOL0     H24553   1.690   7.425   1.901  1.2479  1.3050 -0.2930
  903MOL0     H24554   1.584   7.560   1.913 -2.0079 -2.6305 -0.1336
  903MOL0     H24555   1.856   7.541   2.057  1.2355  1.5845 -0.5374
  903MOL0     H24556   1.737   7.661   2.104  0.8268 -1.7829  1.0187
  903MOL0     H24557   1.948   7.677   1.933 -0.7116 -0.4770  5.3829
  903MOL0     H24558   1.825   7.630   1.816  0.8555 -1.1330  2.0903
  903MOL0     H24559   1.817   7.873   2.011  4.2120 -2.4658  0.4650
  903MOL0     H24560   1.679   7.811   1.909  0.1272  0.5132 -2.4355
  903MOL0     H24561   1.790   7.849   1.712  2.5373 -2.6019 -0.1156
  903MOL0     H24562   1.778   8.002   1.805 -0.1909  0.0959 -0.8224
  903MOL0     H24563   2.003   8.070   1.959  1.2172 -0.4361  0.5565
  903MOL0     H24564   2.361   8.043   1.894 -0.4260 -1.9120 -0.4806
  903MOL0     H24565   2.263   8.163   1.963  1.5556 -0.4797  0.8434
  903MOL0     H24566   2.413   8.240   1.776 -0.5258  1.1078  2.2776
  903MOL0     H24567   2.313   8.141   1.671  0.1183 -2.5962  1.4792
  903MOL0     H24568   2.112   8.263   1.724 -1.4585  3.9226 -2.2064
  903MOL0     H24569   2.206   8.364   1.844 -2.2914  0.8333 -0.2168
  903MOL0     H24570   2.260   8.340   1.538 -0.9004  3.5198 -2.5449
  903MOL0     H24571   2.166   8.468   1.612 -1.1392 -2.0798 -1.5295
  903MOL0     H24572   2.593   8.593   1.681  2.0433  2.2823  0.3462
  903MOL0     H24573   2.656   8.864   1.629 -0.8947 -2.6926 -0.8887
  903MOL0     H24574   2.737   8.772   1.760  2.6135  2.1711 -2.4036
  903MOL0     H24575   2.665   8.931   1.796  1.5605 -0.3587  0.4171
  903MOL0     H24576   2.601   9.136   2.000 -3.1555 -0.7446  0.4535
  903MOL0     H24577   2.654   9.358   2.090 -2.0080 -2.2038  1.1353
  903MOL0     H24578   2.585   9.723   1.835 -0.8515 -2.6268 -1.0202
  903MOL0     H24579   2.420   9.718   1.911 -0.4474  1.8660  1.4331
  903MOL0     H24580   2.519   9.925   1.977  0.0774 -0.6001 -1.8471
  903MOL0     H24581   2.477   9.823   2.104  0.3967 -0.0510  0.1659
  903MOL0     H24582   2.755   9.775   2.012  1.2276  1.0135  1.0978
  903MOL0     H24583   2.688   9.791   2.170  0.1787  0.7667  0.6203
  903MOL0     H24584   2.700  10.027   2.163  1.1229 -1.2751  1.1249
  903MOL0     H24585   2.718  10.046   1.992 -2.3154 -0.1874  0.9806
  903MOL0     H24586   2.919   9.915   2.008 -0.7797  0.4180  0.1220
  903MOL0     H24587   2.944  10.079   2.060  1.3492  0.4574  0.3678
  903MOL0     H24588   2.914   9.830   2.242 -0.2260  0.1824  1.2961
  903MOL0     H24589   2.900   9.994   2.296 -2.5728 -1.7461  0.2122
  903MOL0     H24590   3.142  10.024   2.170 -0.7578  0.3545 -0.2019
  903MOL0     H24591   3.139   9.845   2.193 -4.2953 -0.7379 -3.5567
  903MOL0     H24592   3.132  10.075   2.393 -2.3431  0.0470 -4.2572
  903MOL0     H24593   3.236   9.930   2.391 -0.4829 -3.5773  1.2715
  903MOL0     H24594   2.443   9.525   1.759  0.7745 -1.5224 -0.0151
  903MOL0     H24595   2.409   9.328   1.665 -2.3010 -1.2415  0.8289
  903MOL0     H24596   2.195   8.859   1.833 -0.1942 -1.2575  0.6225
  903MOL0     H24597   2.177   8.610   1.760  0.9000 -0.7553 -0.7638
  903MOL0     H24598   1.191   7.230   2.165 -1.4929 -0.8583  0.2969
  903MOL0     H24599   0.992   7.210   2.290  0.1682  1.7346 -0.8451
  903MOL0     H24600   0.890   7.400   2.761  0.9436  0.6934  0.9854
  903MOL0     H24601   0.738   7.454   2.951  0.2265  1.8350 -0.3318
  903MOL0     H24602   0.343   7.259   2.963  0.9583 -0.8408  0.5940
  903MOL0     H24603   0.364   7.370   3.105  2.2374  1.4891 -0.5264
  903MOL0     H24604   0.210   7.445   2.850 -2.5200 -0.6652  0.7919
  903MOL0     H24605   0.282   7.565   2.949  1.4041 -0.5771 -1.6264
  903MOL0     H24606   0.064   7.357   3.041 -2.8650  1.1082  2.4985
  903MOL0     H24607   0.166   7.474   3.143 -0.8913  2.8986  0.4823
  903MOL0     H24608  -0.061   7.554   3.102 -0.9712  2.2825 -1.1093
  903MOL0     H24609  -0.026   7.586   2.931  1.2445 -1.9331 -0.8147
  903MOL0     H24610   0.168   7.900   3.136  1.8163 -1.6406  0.8967
  903MOL0     H24611   0.403   7.295   2.720 -0.2697  0.0240 -2.7444
  903MOL0     H24612   0.456   7.149   2.545  0.3552 -0.6518  3.0166
  903MOL0     H24613   0.529   7.240   2.417 -2.3462 -1.9457 -0.5268
  903MOL0     H24614   0.622   7.113   2.505 -1.6765 -0.7797 -3.3643
  904MOL0     O24615   9.596   5.278   2.323  0.5730  0.1661  0.3564
  904MOL0     C24616   9.570   5.375   2.394 -0.7791 -0.2309  0.2085
  904MOL0     O24617   9.659   5.482   2.424 -0.7183 -0.3080 -0.1821
  904MOL0     C24618   9.790   5.472   2.379  0.1004 -0.8673  0.2093
  904MOL0     C24619   9.871   5.546   2.457 -0.5864 -0.3178  0.1765
  904MOL0     C24620  10.011   5.558   2.436 -0.1083 -0.4619  0.7199
  904MOL0     C24621  10.059   5.472   2.332 -0.1567 -0.5361 -0.1467
  904MOL0     O24622  10.193   5.482   2.312  0.0760 -0.1174  0.5907
  904MOL0     C24623  10.259   5.401   2.411 -0.9159 -0.7659 -0.1185
  904MOL0     C24624  10.268   5.251   2.372  0.0448  0.5094  0.5224
  904MOL0     C24625  10.346   5.220   2.246  0.3185 -0.2336 -0.5195
  904MOL0     C24626  10.349   5.076   2.204  1.0364  0.0927  0.0972
  904MOL0     C24627  10.217   5.016   2.151  0.4122 -0.4010  0.3263
  904MOL0     C24628  10.229   4.878   2.080  0.6535  0.6480 -0.4957
  904MOL0     C24629  10.190   4.765   2.184 -0.4953 -0.4338 -0.1226
  904MOL0     C24630  10.046   4.761   2.244 -1.0104 -0.5274 -0.7616
  904MOL0     N24631  10.005   4.633   2.301 -0.4569 -0.2540 -0.3969
  904MOL0     C24632  10.090   4.542   2.375  1.0141  0.1772  0.0252
  904MOL0     C24633  10.000   4.475   2.447 -0.3372 -0.8317  0.2111
  904MOL0     C24634  10.044   4.354   2.529  0.1801  0.2413  1.0404
  904MOL0     C24635   9.999   4.226   2.458 -0.2872  0.7635  0.2689
  904MOL0     C24636  10.047   4.188   2.313  0.6261  0.0289  0.2177
  904MOL0     C24637  10.194   4.216   2.272  0.2964 -0.1853 -0.5057
  904MOL0     O24638  10.278   4.227   2.393 -0.4417 -0.5907  0.4126
  904MOL0     C24639  10.350   4.121   2.438 -0.8255  1.4193 -0.9405
  904MOL0     C24640  10.370   4.000   2.371 -0.4663  0.0559  0.4907
  904MOL0     C24641  10.474   3.918   2.416  0.1840 -0.0262 -0.0030
  904MOL0     C24642  10.493   3.796   2.327 -0.4623  1.1580 -0.1760
  904MOL0     C24643  10.549   3.933   2.536  0.0226  0.3722 -1.1379
  904MOL0     C24644  10.650   3.842   2.592 -0.7475 -0.2299 -0.0099
  904MOL0     O24645  10.747   3.896   2.656 -0.4666  1.0038 -0.4187
  904MOL0     C24646  10.839   3.815   2.722 -0.7797  0.2791  0.5549
  904MOL0     C24647  10.809   3.726   2.824  0.7718  0.0783 -0.3077
  904MOL0     C24648  10.912   3.673   2.900 -0.7486  1.0683 -0.0030
  904MOL0     C24649  11.046   3.708   2.887 -0.5586  0.0916  0.1985
  904MOL0     O24650  11.153   3.677   2.971  1.0620  1.1727  0.0938
  904MOL0     C24651  11.127   3.652   3.108 -0.2186 -0.1479  0.4371
  904MOL0     C24652  11.252   3.625   3.197  0.3561  0.4346 -0.1753
  904MOL0     C24653  11.338   3.744   3.245 -0.7239 -0.3655 -0.0903
  904MOL0     C24654  11.489   3.735   3.282 -0.2285 -0.1447  0.5198
  904MOL0     C24655  11.487   3.647   3.410  0.0792  0.0940  0.2749
  904MOL0     C24656  11.631   3.644   3.474 -0.0606  0.5350  0.5023
  904MOL0     C24657  11.634   3.544   3.586 -0.1624 -0.8542 -0.4043
  904MOL0     C24658  11.771   3.552   3.658 -0.5365 -0.3754  0.0194
  904MOL0    Cl24659  11.748   3.458   3.803  0.4317  0.1308  0.2539
  904MOL0     C24660  11.072   3.780   2.773  0.1298  0.5840  0.0904
  904MOL0     C24661  10.973   3.846   2.703 -0.5206 -0.0159  0.1929
  904MOL0     O24662  10.622   3.724   2.600  0.1228 -0.2643  0.4523
  904MOL0     C24663  10.513   4.050   2.602 -0.0265  0.0583  0.0533
  904MOL0     C24664  10.413   4.141   2.558 -0.0040 -0.8503 -0.6749
  904MOL0     N24665   9.875   4.525   2.423  0.1163 -0.4038  0.5129
  904MOL0     N24666   9.879   4.617   2.337  0.1596  0.0466 -0.3651
  904MOL0     C24667   9.975   5.401   2.236  0.4569 -1.1131 -0.6662
  904MOL0     C24668   9.841   5.412   2.270 -0.3737  0.1678  0.5145
  904MOL0     C24669   9.431   5.392   2.430  0.0260  0.5966  0.1275
  904MOL0     C24670   9.364   5.510   2.405 -0.6807  0.8660  0.1831
  904MOL0     C24671   9.236   5.544   2.441 -0.0426  0.4288 -0.0534
  904MOL0     C24672   9.170   5.445   2.514  0.5493  0.2700  0.4129
  904MOL0     O24673   9.045   5.458   2.566 -0.1529  0.2787  0.1555
  904MOL0     C24674   8.983   5.581   2.564  0.1662 -0.6004 -0.0562
  904MOL0     C24675   8.864   5.577   2.657  0.0649  0.0352  0.1552
  904MOL0     C24676   8.757   5.672   2.612  0.2023 -0.1651 -0.6453
  904MOL0     C24677   8.647   5.686   2.718  0.6483  0.1480 -0.7128
  904MOL0     C24678   8.560   5.807   2.703 -0.8797 -0.9797 -0.8258
  904MOL0     C24679   8.481   5.892   2.668 -0.6110 -0.2283  0.5326
  904MOL0     C24680   9.232   5.317   2.534  0.0307  1.0757  0.2244
  904MOL0     C24681   9.362   5.288   2.493 -0.3355 -0.0861 -0.4845
  904MOL0     C24682   9.426   5.156   2.532 -0.2484 -0.0143 -0.4866
  904MOL0     H24683   9.824   5.602   2.537 -2.9979 -0.2020 -1.2265
  904MOL0     H24684  10.080   5.604   2.506  3.0173 -2.4561 -0.7927
  904MOL0     H24685  10.206   5.419   2.506 -4.2946  1.3639 -2.2071
  904MOL0     H24686  10.361   5.435   2.430 -0.3576 -2.9837  1.2940
  904MOL0     H24687  10.310   5.194   2.455  1.8711 -1.5037 -1.6320
  904MOL0     H24688  10.165   5.214   2.372  1.0174 -2.5415 -1.5115
  904MOL0     H24689  10.303   5.278   2.164 -1.3650 -0.3017  0.2913
  904MOL0     H24690  10.450   5.250   2.262  0.4877 -1.1193  0.1602
  904MOL0     H24691  10.429   5.043   2.137  1.7147 -2.3196  1.9448
  904MOL0     H24692  10.376   5.024   2.297  0.7834  0.2341  0.2499
  904MOL0     H24693  10.166   5.092   2.091 -1.8414  1.5693  4.2792
  904MOL0     H24694  10.156   5.009   2.242  2.7753  1.9113  2.2190
  904MOL0     H24695  10.164   4.861   1.994  0.8090 -1.0213 -0.3148
  904MOL0     H24696  10.331   4.857   2.047 -0.5685 -3.4029 -2.3556
  904MOL0     H24697  10.249   4.791   2.272  0.9470  3.6460 -2.0555
  904MOL0     H24698  10.230   4.669   2.148 -1.2767 -0.2083 -1.7014
  904MOL0     H24699  10.049   4.829   2.330  2.3552 -1.8415  0.3138
  904MOL0     H24700   9.971   4.794   2.171  1.1129  2.8064 -1.6530
  904MOL0     H24701  10.196   4.522   2.382  0.7221 -1.1106  1.1190
  904MOL0     H24702   9.989   4.360   2.624 -1.1899  1.4382  0.2226
  904MOL0     H24703  10.151   4.358   2.551  0.1611 -0.3522  1.2605
  904MOL0     H24704  10.029   4.137   2.514  0.7703  1.5963  1.0811
  904MOL0     H24705   9.890   4.236   2.460 -0.1302  3.1786  0.4374
  904MOL0     H24706  10.024   4.084   2.294 -1.6517 -0.9437  6.1360
  904MOL0     H24707   9.977   4.247   2.253  1.3907  1.6003  0.7939
  904MOL0     H24708  10.229   4.145   2.197 -2.6935  0.4460 -2.7071
  904MOL0     H24709  10.204   4.317   2.232  0.9563  0.1885  0.5552
  904MOL0     H24710  10.321   3.981   2.276 -0.0424 -2.7335  0.7517
  904MOL0     H24711  10.472   3.701   2.379 -2.1201 -0.4361 -3.4780
  904MOL0     H24712  10.599   3.785   2.302 -0.6344 -2.0717  0.0804
  904MOL0     H24713  10.440   3.783   2.232 -2.5965  2.1247  0.8231
  904MOL0     H24714  10.709   3.692   2.850  0.5009  0.6713 -0.5697
  904MOL0     H24715  10.886   3.598   2.975  0.5003  0.1479 -0.4563
  904MOL0     H24716  11.078   3.742   3.146  0.3945 -0.1128  1.1594
  904MOL0     H24717  11.068   3.560   3.114 -0.8467  0.2389  0.3047
  904MOL0     H24718  11.215   3.577   3.288  0.1190  1.0696  0.0688
  904MOL0     H24719  11.308   3.551   3.140  1.2264 -1.6356  3.0860
  904MOL0     H24720  11.278   3.786   3.326 -1.5283 -3.0076  0.7963
  904MOL0     H24721  11.333   3.819   3.165  0.2905  1.1770  1.2325
  904MOL0     H24722  11.530   3.834   3.303 -0.4286  0.4017 -1.4239
  904MOL0     H24723  11.544   3.692   3.197 -0.1147  1.3115 -0.1686
  904MOL0     H24724  11.420   3.695   3.482 -0.4854  2.6348 -1.7824
  904MOL0     H24725  11.454   3.546   3.384  1.0971  0.0723 -1.0502
  904MOL0     H24726  11.650   3.745   3.510  2.0269 -0.7261  3.2811
  904MOL0     H24727  11.709   3.631   3.398  0.0396  0.4745  0.6144
  904MOL0     H24728  11.630   3.441   3.547  0.8765 -1.6491  1.4771
  904MOL0     H24729  11.549   3.561   3.652 -0.0217  1.6227 -0.7741
  904MOL0     H24730  11.801   3.649   3.698 -0.4328 -1.1197  1.8535
  904MOL0     H24731  11.854   3.511   3.600 -0.8978  1.9163 -2.2984
  904MOL0     H24732  11.178   3.795   2.755  0.4800 -2.8808 -1.4261
  904MOL0     H24733  11.004   3.920   2.629  2.0349 -0.8696  0.2890
  904MOL0     H24734  10.558   4.079   2.697 -3.4123  0.3983  1.7145
  904MOL0     H24735  10.405   4.237   2.608  1.1759 -0.5318 -1.0639
  904MOL0     H24736  10.017   5.338   2.158 -0.9369 -3.9210  0.7050
  904MOL0     H24737   9.783   5.353   2.200  1.7863  0.3596 -1.5546
  904MOL0     H24738   9.420   5.592   2.362  0.0209  0.7695  0.9180
  904MOL0     H24739   9.184   5.639   2.430 -1.7095 -0.3457  0.6297
  904MOL0     H24740   9.046   5.661   2.604 -0.1961  0.0253 -0.7106
  904MOL0     H24741   8.962   5.608   2.460  1.0833  0.7938  0.0953
  904MOL0     H24742   8.904   5.612   2.753  1.7511 -1.6108  0.0885
  904MOL0     H24743   8.834   5.473   2.669 -1.6733  0.1691 -2.2350
  904MOL0     H24744   8.804   5.771   2.612 -1.7075  0.8285 -2.4401
  904MOL0     H24745   8.716   5.656   2.513 -0.4648 -1.9735 -0.1087
  904MOL0     H24746   8.698   5.684   2.815  1.7355  1.0719 -1.2445
  904MOL0     H24747   8.585   5.595   2.712 -0.1751  0.7324 -1.3146
  904MOL0     H24748   8.398   5.957   2.649 -0.0327  0.1639 -0.7814
  904MOL0     H24749   9.175   5.232   2.572  0.6680 -0.2925 -1.7228
  904MOL0     H24750   9.452   5.105   2.439  0.3243  3.6951 -2.5664
  904MOL0     H24751   9.518   5.179   2.587 -1.2036 -0.2920  1.2917
  904MOL0     H24752   9.357   5.096   2.591 -1.0217  2.4199  1.2567
  905MOL0     O24753   7.500   4.187   4.685 -0.3515  0.6339 -0.1859
  905MOL0     C24754   7.510   4.074   4.722 -0.5836 -0.3247  0.3007
  905MOL0     O24755   7.592   4.025   4.820  0.3286 -0.1524 -0.1738
  905MOL0     C24756   7.682   4.115   4.878  0.0353 -0.5382  0.7354
  905MOL0     C24757   7.640   4.190   4.987 -0.3501  0.0679 -0.2447
  905MOL0     C24758   7.729   4.263   5.062  0.1409  0.3386  0.1406
  905MOL0     C24759   7.865   4.275   5.017 -0.0393  1.1297 -0.0382
  905MOL0     O24760   7.948   4.362   5.080 -0.7834 -0.4588  1.0744
  905MOL0     C24761   8.094   4.362   5.063 -0.7180  0.6653  0.1728
  905MOL0     C24762   8.149   4.488   5.142 -0.0808  0.0407 -0.1278
  905MOL0     C24763   8.132   4.609   5.055 -0.0046 -0.0709  0.4989
  905MOL0     C24764   8.215   4.732   5.100 -0.3634 -0.7681 -0.3183
  905MOL0     C24765   8.216   4.861   5.004 -0.4284  0.2661  0.6167
  905MOL0     C24766   8.329   4.955   5.050 -0.1456 -0.2003  0.5513
  905MOL0     C24767   8.319   5.078   4.957 -0.2990 -0.2480 -0.3042
  905MOL0     C24768   8.408   5.190   5.020 -0.3135  0.4974 -0.1647
  905MOL0     N24769   8.557   5.168   5.033  0.4122 -0.2818 -0.6068
  905MOL0     C24770   8.626   5.186   5.149 -0.7452 -0.0796 -0.2608
  905MOL0     C24771   8.742   5.112   5.127 -0.5882 -0.2623 -0.2952
  905MOL0     C24772   8.846   5.090   5.237  0.5236  0.8370 -0.2633
  905MOL0     C24773   8.903   5.222   5.290  1.0983  0.6283  0.4954
  905MOL0     C24774   9.001   5.270   5.186 -0.3735 -0.2871 -0.5687
  905MOL0     C24775   9.152   5.243   5.228 -0.4243 -0.5994  0.2352
  905MOL0     O24776   9.236   5.309   5.134 -0.4372  0.9075 -0.4691
  905MOL0     C24777   9.369   5.314   5.165  0.7635 -0.0173 -0.3537
  905MOL0     C24778   9.452   5.386   5.080 -0.2100  0.8037 -0.2978
  905MOL0     C24779   9.591   5.399   5.098  0.0562 -0.3274 -0.6484
  905MOL0     C24780   9.660   5.492   5.008  0.5141  0.8822  0.1042
  905MOL0     C24781   9.652   5.328   5.203  0.0331  0.0105  0.2653
  905MOL0     C24782   9.793   5.329   5.231 -0.1028 -0.0733 -0.7434
  905MOL0     O24783   9.847   5.213   5.292  0.6231  0.2639 -0.3225
  905MOL0     C24784   9.985   5.222   5.299 -0.1079  0.0364 -1.0795
  905MOL0     C24785  10.074   5.146   5.217  0.1937  0.9133  0.7982
  905MOL0     C24786  10.215   5.142   5.237 -0.1570 -0.5761 -0.0964
  905MOL0     C24787  10.276   5.230   5.324  0.2659 -0.3703 -0.2184
  905MOL0     O24788  10.407   5.228   5.336 -0.4688 -0.4390 -0.3542
  905MOL0     C24789  10.461   5.326   5.431 -0.3880 -0.3658 -0.7743
  905MOL0     C24790  10.470   5.469   5.382 -0.6817  0.1607 -0.0038
  905MOL0     C24791  10.567   5.474   5.260 -0.0494 -0.1924  0.2263
  905MOL0     C24792  10.587   5.613   5.212 -0.2888 -0.2606 -0.8253
  905MOL0     C24793  10.657   5.615   5.078  0.5820 -0.8147  0.3894
  905MOL0     C24794  10.638   5.750   5.007  0.4932  0.7797 -0.4352
  905MOL0     C24795  10.758   5.759   4.901 -0.1969  0.9563 -0.8472
  905MOL0     C24796  10.802   5.895   4.863 -0.5248 -0.3166  0.2469
  905MOL0    Cl24797  10.684   6.004   4.811 -0.1556 -0.2478  0.1548
  905MOL0     C24798  10.188   5.297   5.409  0.5978 -0.5352  0.2112
  905MOL0     C24799  10.048   5.305   5.398  0.0431 -0.6562 -0.1467
  905MOL0     O24800   9.856   5.425   5.190 -0.1406 -0.8739  0.3420
  905MOL0     C24801   9.570   5.239   5.276 -0.0491 -0.0796  0.3612
  905MOL0     C24802   9.435   5.225   5.256  0.8939 -0.5788 -0.2607
  905MOL0     N24803   8.741   5.068   4.993 -0.8919 -0.2931 -0.8230
  905MOL0     N24804   8.629   5.093   4.947  0.3446 -0.1248  0.3654
  905MOL0     C24805   7.907   4.212   4.897 -0.3400 -0.9994  0.6039
  905MOL0     C24806   7.812   4.123   4.835 -0.2370 -0.8398 -0.3951
  905MOL0     C24807   7.406   3.983   4.678 -0.2889  1.3998  0.2429
  905MOL0     C24808   7.265   4.024   4.686 -0.5213 -0.1517  0.5037
  905MOL0     C24809   7.167   3.946   4.637 -0.0926 -0.3460  0.2364
  905MOL0     C24810   7.193   3.819   4.570 -0.7275 -0.3670  0.4364
  905MOL0     O24811   7.098   3.733   4.514 -0.3662 -0.5541  0.1349
  905MOL0     C24812   6.959   3.763   4.520 -0.6399 -0.3800 -0.0048
  905MOL0     C24813   6.940   3.868   4.415 -1.2122  0.5418  0.0110
  905MOL0     C24814   6.798   3.898   4.387 -0.0977  0.2407 -0.3055
  905MOL0     C24815   6.706   3.947   4.490 -0.3630 -0.2895 -0.6395
  905MOL0     C24816   6.753   4.067   4.564 -0.3487  0.0113 -0.1247
  905MOL0     C24817   6.793   4.173   4.625  0.0708  0.1485  0.4037
  905MOL0     C24818   7.327   3.784   4.541 -0.1508  1.1597 -0.5612
  905MOL0     C24819   7.428   3.858   4.602 -0.5864 -0.3316 -0.6610
  905MOL0     C24820   7.559   3.802   4.599 -0.5307  0.6773  0.6056
  905MOL0     H24821   7.537   4.179   5.020  0.8874 -2.3606  3.4304
  905MOL0     H24822   7.707   4.304   5.160  2.5258  0.9396  0.5032
  905MOL0     H24823   8.108   4.362   4.954 -3.6334  0.6905 -0.2692
  905MOL0     H24824   8.153   4.280   5.105 -0.6124  1.1409  0.9687
  905MOL0     H24825   8.099   4.499   5.238  1.8956 -1.0495  1.0777
  905MOL0     H24826   8.256   4.479   5.158  0.1818  2.2868 -0.2541
  905MOL0     H24827   8.161   4.573   4.956  1.1854 -2.0088  1.4997
  905MOL0     H24828   8.026   4.634   5.041  0.3600 -0.1852 -4.6309
  905MOL0     H24829   8.166   4.753   5.195 -0.3371 -2.0179  0.0014
  905MOL0     H24830   8.321   4.705   5.108  1.1476  3.4880 -3.0555
  905MOL0     H24831   8.123   4.916   5.020 -0.5080  0.0382  0.9446
  905MOL0     H24832   8.228   4.838   4.897 -0.5520  0.8367  0.4755
  905MOL0     H24833   8.317   4.981   5.155  1.5270 -0.2913  0.7916
  905MOL0     H24834   8.426   4.905   5.049  0.8563  1.6805 -0.0410
  905MOL0     H24835   8.213   5.104   4.961 -0.4513 -0.9060  0.3189
  905MOL0     H24836   8.337   5.048   4.853 -1.2667 -0.1667 -0.5015
  905MOL0     H24837   8.401   5.278   4.956  0.8195  0.3747 -0.4808
  905MOL0     H24838   8.356   5.217   5.113  1.3480  0.2971  0.8599
  905MOL0     H24839   8.582   5.228   5.239  0.2436 -0.7438  0.5520
  905MOL0     H24840   8.924   5.023   5.199 -0.5893 -0.8560  0.3059
  905MOL0     H24841   8.797   5.036   5.319 -1.6352 -1.1466 -2.6856
  905MOL0     H24842   8.835   5.305   5.314  0.6592  0.6118 -0.6250
  905MOL0     H24843   8.946   5.216   5.390 -1.2153  0.2151  1.5375
  905MOL0     H24844   8.991   5.218   5.090  0.0144  0.5190 -1.0519
  905MOL0     H24845   8.974   5.374   5.163 -0.0240 -0.4010 -1.5542
  905MOL0     H24846   9.164   5.290   5.326 -0.0978 -1.5376  0.6555
  905MOL0     H24847   9.163   5.135   5.242  0.5915 -0.3576  1.5113
  905MOL0     H24848   9.409   5.443   4.999  0.2012 -0.4110 -1.4124
  905MOL0     H24849   9.747   5.432   4.980  0.7280  1.0725  0.3704
  905MOL0     H24850   9.690   5.585   5.056  0.4998  1.3876 -0.8340
  905MOL0     H24851   9.599   5.516   4.919 -0.1409  2.6410  0.9781
  905MOL0     H24852  10.029   5.088   5.137  1.8289 -0.4571  0.8063
  905MOL0     H24853  10.279   5.082   5.174  1.4591  0.7005  0.2673
  905MOL0     H24854  10.413   5.317   5.528  1.7883  2.1018  0.6700
  905MOL0     H24855  10.564   5.299   5.457  0.6256  2.7316 -1.1456
  905MOL0     H24856  10.376   5.516   5.355 -1.1198  0.1162  1.3731
  905MOL0     H24857  10.515   5.531   5.459 -0.3250  1.7834 -1.4558
  905MOL0     H24858  10.535   5.404   5.182  4.0117 -1.4123 -0.5389
  905MOL0     H24859  10.662   5.433   5.296 -0.1138 -1.8827 -1.3586
  905MOL0     H24860  10.662   5.659   5.277 -0.6758 -2.6725  1.4956
  905MOL0     H24861  10.491   5.665   5.206  0.5725  1.7076  1.0409
  905MOL0     H24862  10.761   5.586   5.093  1.0494 -0.5477 -2.0538
  905MOL0     H24863  10.608   5.538   5.017 -0.0403 -1.2723  1.4260
  905MOL0     H24864  10.654   5.817   5.092 -0.8260 -1.1197  1.4108
  905MOL0     H24865  10.539   5.767   4.963  0.6675  0.4217 -0.9721
  905MOL0     H24866  10.721   5.706   4.812 -1.7079  1.0188 -0.2842
  905MOL0     H24867  10.842   5.704   4.944 -0.3252 -0.2275 -2.0342
  905MOL0     H24868  10.880   5.887   4.787  2.9607  2.0740  3.2245
  905MOL0     H24869  10.855   5.932   4.951 -2.4514 -0.1578  1.3986
  905MOL0     H24870  10.218   5.365   5.488 -1.3763 -0.5752  1.0609
  905MOL0     H24871   9.991   5.382   5.449 -1.3587  0.1699 -2.7842
  905MOL0     H24872   9.613   5.172   5.351  0.1686  2.8828  3.0953
  905MOL0     H24873   9.383   5.146   5.310 -0.0241  0.4555  0.3989
  905MOL0     H24874   8.004   4.218   4.849 -0.9586  1.2913 -0.4835
  905MOL0     H24875   7.833   4.054   4.755 -1.9274  1.3347 -2.8764
  905MOL0     H24876   7.248   4.123   4.725  0.7239 -0.3808  1.7191
  905MOL0     H24877   7.063   3.976   4.633  0.7600  2.9167 -0.4502
  905MOL0     H24878   6.905   3.669   4.502 -0.1950 -0.8953  1.2751
  905MOL0     H24879   6.930   3.798   4.619 -0.6224 -0.3122 -0.0236
  905MOL0     H24880   6.995   3.827   4.330  2.5825  0.5641  2.2321
  905MOL0     H24881   6.982   3.964   4.445 -0.5744 -0.5547  3.0869
  905MOL0     H24882   6.784   3.980   4.315  1.8247  0.0130 -1.0065
  905MOL0     H24883   6.749   3.809   4.347  2.9205 -1.1174 -1.2757
  905MOL0     H24884   6.682   3.879   4.572  0.2311  2.0320  1.5776
  905MOL0     H24885   6.613   3.979   4.442 -0.9541  0.2895  0.8467
  905MOL0     H24886   6.840   4.257   4.672 -1.0026  0.8134  0.3336
  905MOL0     H24887   7.345   3.684   4.502  2.5226  1.7878 -1.1425
  905MOL0     H24888   7.570   3.732   4.516  0.1106 -0.8391  1.9309
  905MOL0     H24889   7.649   3.864   4.594  1.9334 -2.4709  2.3968
  905MOL0     H24890   7.570   3.748   4.693  0.3433 -0.8713 -0.3367
  906MOL0     O24891   5.386   8.936   5.785 -0.2345 -0.1507  0.5921
  906MOL0     C24892   5.438   8.856   5.710 -0.5154  0.7558  0.0717
  906MOL0     O24893   5.567   8.815   5.724  0.0575 -0.0360 -0.6605
  906MOL0     C24894   5.603   8.799   5.857  0.2593 -0.2598 -0.3641
  906MOL0     C24895   5.715   8.868   5.909 -0.5068  0.8389 -0.3080
  906MOL0     C24896   5.765   8.833   6.038 -0.7283  0.4410  0.6626
  906MOL0     C24897   5.702   8.736   6.113 -0.5487 -0.3052  0.0068
  906MOL0     O24898   5.756   8.689   6.221 -0.6375 -0.1589  0.2621
  906MOL0     C24899   5.666   8.717   6.331  0.2396 -0.0014 -0.7597
  906MOL0     C24900   5.756   8.740   6.454 -0.7289 -0.5736  0.2127
  906MOL0     C24901   5.840   8.613   6.485  0.6070 -0.3400 -0.4472
  906MOL0     C24902   5.991   8.633   6.475 -0.8055  0.6915 -0.3734
  906MOL0     C24903   6.074   8.529   6.550  0.2197  0.5009 -0.9596
  906MOL0     C24904   6.211   8.570   6.561 -0.4564 -0.0935 -0.3283
  906MOL0     C24905   6.300   8.472   6.626 -0.9278  0.4025 -0.7079
  906MOL0     C24906   6.328   8.502   6.774  0.3428  0.0401  0.2256
  906MOL0     N24907   6.441   8.431   6.819 -0.1926  0.1286  0.2512
  906MOL0     C24908   6.562   8.495   6.852  0.7361  0.4663  0.2478
  906MOL0     C24909   6.650   8.392   6.850  0.0821  0.2463 -0.1090
  906MOL0     C24910   6.786   8.413   6.888 -0.0394 -0.4253  0.4357
  906MOL0     C24911   6.872   8.284   6.906 -0.5463  0.5308 -0.8212
  906MOL0     C24912   6.996   8.305   6.994  0.0534  0.1969  0.1610
  906MOL0     C24913   7.117   8.334   6.897  0.4610  0.9459 -0.2316
  906MOL0     O24914   7.124   8.471   6.864  0.6300  0.0287  0.4377
  906MOL0     C24915   7.239   8.524   6.815  0.0558 -0.0004  0.2731
  906MOL0     C24916   7.348   8.452   6.767 -0.3419  0.1658 -0.9173
  906MOL0     C24917   7.476   8.508   6.728  0.2272  0.4952 -0.3021
  906MOL0     C24918   7.586   8.413   6.687  0.0969  0.4833  0.0154
  906MOL0     C24919   7.492   8.645   6.753 -0.9309 -0.4808  0.1020
  906MOL0     C24920   7.621   8.724   6.743 -0.2998  0.4895 -0.4184
  906MOL0     O24921   7.619   8.861   6.767  0.2342 -0.6200  0.0917
  906MOL0     C24922   7.735   8.938   6.730 -0.1260  0.3783  0.1719
  906MOL0     C24923   7.848   8.915   6.815 -0.6263  0.4487  0.8496
  906MOL0     C24924   7.963   8.994   6.809 -0.6134  0.6346  0.8646
  906MOL0     C24925   7.965   9.107   6.717 -0.2562 -0.1034 -0.8512
  906MOL0     O24926   8.075   9.197   6.696 -0.1142 -0.6239  0.5280
  906MOL0     C24927   8.181   9.196   6.791  0.0867  0.1505 -0.0123
  906MOL0     C24928   8.281   9.274   6.717 -0.2066  0.1790 -0.7717
  906MOL0     C24929   8.397   9.318   6.818 -1.0654  0.0066 -0.7606
  906MOL0     C24930   8.481   9.416   6.744  0.4597  0.1535  0.4926
  906MOL0     C24931   8.607   9.454   6.824 -0.5898  0.0030 -0.3368
  906MOL0     C24932   8.684   9.562   6.739  0.7065  0.1707  0.6017
  906MOL0     C24933   8.826   9.576   6.779  0.3388  1.1151 -0.3960
  906MOL0     C24934   8.895   9.669   6.694 -0.3620 -0.3692  0.5162
  906MOL0    Cl24935   8.834   9.836   6.730  0.0366 -0.0330 -0.3989
  906MOL0     C24936   7.859   9.124   6.623  0.4118  0.4850  0.4840
  906MOL0     C24937   7.744   9.039   6.627 -0.7022  0.5707 -0.2558
  906MOL0     O24938   7.717   8.661   6.698  1.0903 -0.0260 -0.5271
  906MOL0     C24939   7.378   8.720   6.798  0.2041  0.6615 -0.3368
  906MOL0     C24940   7.260   8.660   6.829 -0.0845 -0.6308 -0.2006
  906MOL0     N24941   6.583   8.274   6.821 -0.3374 -0.1622  0.2066
  906MOL0     N24942   6.462   8.305   6.794 -0.4595  0.4018 -0.0875
  906MOL0     C24943   5.589   8.669   6.062 -0.2416 -0.8682  0.5678
  906MOL0     C24944   5.537   8.707   5.939 -0.5311  0.7598  0.8165
  906MOL0     C24945   5.380   8.841   5.575 -0.4147 -0.2140  0.0790
  906MOL0     C24946   5.454   8.771   5.481 -0.7262 -0.2836  0.2603
  906MOL0     C24947   5.393   8.733   5.355 -0.2978  0.4044  0.0312
  906MOL0     C24948   5.263   8.764   5.324 -0.4518  0.8616  0.7225
  906MOL0     O24949   5.215   8.700   5.210 -0.3416 -0.5602  0.2333
  906MOL0     C24950   5.102   8.765   5.150  0.0189 -0.3974 -0.5858
  906MOL0     C24951   4.966   8.708   5.193 -0.2778  0.7754  0.3639
  906MOL0     C24952   4.850   8.791   5.137 -0.4651  0.3365  0.4230
  906MOL0     C24953   4.713   8.759   5.187  0.8541 -0.0075  0.6897
  906MOL0     C24954   4.716   8.769   5.331  0.6631 -0.5489 -0.7770
  906MOL0     C24955   4.736   8.770   5.452  0.1284 -0.6465  0.5918
  906MOL0     C24956   5.195   8.843   5.424 -0.5850  0.3604 -0.0032
  906MOL0     C24957   5.249   8.881   5.541 -0.5404  0.3249 -0.1661
  906MOL0     C24958   5.151   8.940   5.645  0.1870  0.5135 -0.6497
  906MOL0     H24959   5.773   8.934   5.846  3.9112 -2.8736 -0.6382
  906MOL0     H24960   5.847   8.891   6.076  0.8569 -1.3309  0.1001
  906MOL0     H24961   5.602   8.629   6.347  2.1188 -1.6164 -1.6936
  906MOL0     H24962   5.601   8.804   6.321  1.0627  0.5847 -1.0001
  906MOL0     H24963   5.826   8.823   6.444  0.8209 -1.9144 -0.5353
  906MOL0     H24964   5.702   8.756   6.548  2.6757  0.1606  2.2157
  906MOL0     H24965   5.810   8.585   6.587 -0.7642  5.9230  1.2728
  906MOL0     H24966   5.821   8.528   6.419 -1.4135 -1.2064  1.1302
  906MOL0     H24967   6.030   8.634   6.373  1.6422 -4.6247  0.1719
  906MOL0     H24968   6.011   8.727   6.529  0.2516  0.3136 -0.0767
  906MOL0     H24969   6.080   8.431   6.500  2.6462  0.1071 -0.0630
  906MOL0     H24970   6.031   8.501   6.647  2.9916 -3.4507 -0.6009
  906MOL0     H24971   6.256   8.583   6.463  3.4461 -4.8629  0.4499
  906MOL0     H24972   6.214   8.666   6.613 -0.6704 -0.0080 -0.4719
  906MOL0     H24973   6.399   8.482   6.581 -0.2633  0.5360  0.7246
  906MOL0     H24974   6.268   8.370   6.600  2.4727 -0.5744 -1.6363
  906MOL0     H24975   6.355   8.607   6.789  2.1634  0.0883 -2.5505
  906MOL0     H24976   6.237   8.477   6.829  1.3754 -1.1790  1.4700
  906MOL0     H24977   6.566   8.603   6.854  0.8951  0.6091 -3.0743
  906MOL0     H24978   6.792   8.468   6.983 -0.4106  1.0140 -0.3363
  906MOL0     H24979   6.830   8.483   6.816  0.0114 -0.2650  0.6186
  906MOL0     H24980   6.815   8.206   6.956 -0.3456  1.3195  0.6715
  906MOL0     H24981   6.904   8.238   6.811 -0.7797  0.4147 -0.8447
  906MOL0     H24982   6.972   8.387   7.062 -0.2998 -0.5132  0.9062
  906MOL0     H24983   7.007   8.205   7.039 -1.5941 -0.0928 -0.0316
  906MOL0     H24984   7.208   8.309   6.952 -1.3450 -1.4968  1.9070
  906MOL0     H24985   7.112   8.275   6.805  1.5464  1.8910 -0.9201
  906MOL0     H24986   7.338   8.346   6.750  1.9575  0.1337 -2.5716
  906MOL0     H24987   7.609   8.440   6.583 -3.1785  4.5343  0.0635
  906MOL0     H24988   7.552   8.309   6.684  3.4693 -0.7063 -1.2945
  906MOL0     H24989   7.681   8.424   6.740  0.4058 -0.3457 -0.3515
  906MOL0     H24990   7.830   8.828   6.877 -0.2965 -0.2834 -0.0487
  906MOL0     H24991   8.042   8.978   6.882  0.9966  1.3533 -0.6470
  906MOL0     H24992   8.143   9.236   6.885 -0.6844 -0.1302 -0.2003
  906MOL0     H24993   8.210   9.093   6.811  0.0077 -0.0710 -0.9746
  906MOL0     H24994   8.332   9.223   6.635  3.7716 -0.4012  1.7647
  906MOL0     H24995   8.229   9.363   6.681 -1.1537 -0.3567 -0.7708
  906MOL0     H24996   8.467   9.238   6.845 -0.9794 -0.8606 -3.2826
  906MOL0     H24997   8.360   9.369   6.908 -1.7800 -0.9344 -0.5046
  906MOL0     H24998   8.420   9.506   6.729 -0.9001 -0.7547  0.4120
  906MOL0     H24999   8.512   9.369   6.650 -0.9130 -3.1699  1.5738
  906MOL0     H25000   8.583   9.490   6.924  0.1106 -0.6209  0.0615
  906MOL0     H25001   8.679   9.372   6.833  1.6018  1.9076  0.1702
  906MOL0     H25002   8.630   9.656   6.751 -1.5762 -0.3600 -3.5867
  906MOL0     H25003   8.689   9.539   6.632 -0.1342  1.7982  0.1891
  906MOL0     H25004   8.876   9.480   6.767  0.7122  1.5002 -2.2733
  906MOL0     H25005   8.831   9.611   6.883  1.4851 -2.8903  1.0651
  906MOL0     H25006   8.882   9.643   6.588  1.1428  2.8774 -0.6023
  906MOL0     H25007   9.003   9.661   6.709 -0.0832 -0.7612 -1.3906
  906MOL0     H25008   7.866   9.205   6.552  0.4575 -1.3275 -1.6908
  906MOL0     H25009   7.667   9.047   6.551 -0.9116  2.7695  0.1099
  906MOL0     H25010   7.372   8.827   6.812 -1.0361  0.5483  0.1735
  906MOL0     H25011   7.171   8.714   6.858 -0.3539 -1.0949 -0.1414
  906MOL0     H25012   5.523   8.599   6.111 -2.2560 -0.7375 -1.7578
  906MOL0     H25013   5.443   8.665   5.907  0.4585 -0.7876 -0.1844
  906MOL0     H25014   5.561   8.760   5.493 -0.7530  1.2407  2.4829
  906MOL0     H25015   5.456   8.672   5.292 -2.2564 -0.0265 -1.6286
  906MOL0     H25016   5.101   8.873   5.165  3.7938 -0.6172  2.9534
  906MOL0     H25017   5.110   8.749   5.042  0.2022  1.3373 -0.8572
  906MOL0     H25018   4.965   8.708   5.303  0.3716 -2.0719  0.4418
  906MOL0     H25019   4.962   8.602   5.167  2.5155  0.7568 -0.3377
  906MOL0     H25020   4.863   8.899   5.153 -3.9119  0.6907  1.4730
  906MOL0     H25021   4.863   8.777   5.029  0.7428 -0.1963  0.6183
  906MOL0     H25022   4.687   8.656   5.159  0.7704 -0.0815  1.0276
  906MOL0     H25023   4.638   8.822   5.139  1.3854 -1.9886 -3.1363
  906MOL0     H25024   4.769   8.760   5.553  2.5432 -1.5337 -0.2099
  906MOL0     H25025   5.088   8.845   5.409 -0.5151 -0.8728 -0.8383
  906MOL0     H25026   5.156   8.883   5.738 -2.4341 -2.3893 -2.0596
  906MOL0     H25027   5.166   9.047   5.661 -0.6177  0.8112 -1.7225
  906MOL0     H25028   5.053   8.947   5.595  0.6918  0.1715 -1.7179
  907MOL0     O25029   5.356   9.841   3.841 -0.2759  0.0632 -0.1871
  907MOL0     C25030   5.327   9.759   3.751 -0.3668 -1.3103 -0.4559
  907MOL0     O25031   5.411   9.665   3.714  0.1513 -0.9833 -0.5601
  907MOL0     C25032   5.527   9.652   3.796 -0.4500  0.5063  0.1433
  907MOL0     C25033   5.534   9.551   3.892 -0.1097 -1.2825 -0.5530
  907MOL0     C25034   5.635   9.555   3.986 -0.5244 -0.3412  0.5543
  907MOL0     C25035   5.740   9.660   3.977  0.6025 -0.1023 -0.8174
  907MOL0     O25036   5.836   9.675   4.078  0.3658 -0.3806 -0.0260
  907MOL0     C25037   5.888   9.553   4.136 -0.1688 -0.0481 -0.0242
  907MOL0     C25038   6.037   9.565   4.176 -0.6806  0.0587 -0.1633
  907MOL0     C25039   6.044   9.658   4.297 -0.5000  0.3457 -0.3230
  907MOL0     C25040   6.179   9.652   4.359 -0.1188 -0.0423  0.9740
  907MOL0     C25041   6.219   9.762   4.464 -0.4071  0.3166 -0.0743
  907MOL0     C25042   6.208   9.903   4.404 -0.8014 -0.9411 -0.3539
  907MOL0     C25043   6.231  10.017   4.506 -0.1827 -0.2315  1.1796
  907MOL0     C25044   6.382  10.027   4.542 -0.4911  0.4265  0.2706
  907MOL0     N25045   6.451  10.097   4.434 -0.2476  0.4931 -0.2507
  907MOL0     C25046   6.452  10.237   4.428  0.5181 -0.3982  0.0868
  907MOL0     C25047   6.511  10.269   4.311  0.7362 -0.2353  0.3032
  907MOL0     C25048   6.531  10.400   4.236 -0.2300 -0.4115  0.1753
  907MOL0     C25049   6.647  10.476   4.292 -0.5868  0.4889  0.1359
  907MOL0     C25050   6.726  10.559   4.185  0.8083 -0.1078 -0.5714
  907MOL0     C25051   6.825  10.485   4.097 -0.3908 -0.4301  0.5758
  907MOL0     O25052   6.926  10.416   4.180  0.9233 -0.0899  0.3618
  907MOL0     C25053   7.049  10.398   4.127 -0.4896  0.9822  1.0586
  907MOL0     C25054   7.085  10.437   3.993 -0.1463  0.1350 -0.3297
  907MOL0     C25055   7.218  10.412   3.944 -0.5683  0.5237  0.0522
  907MOL0     C25056   7.241  10.471   3.805  0.3447 -0.7632  0.6981
  907MOL0     C25057   7.309  10.331   4.018  0.1867 -0.8587 -0.1544
  907MOL0     C25058   7.444  10.283   3.978 -0.0362  0.0965  0.2091
  907MOL0     O25059   7.510  10.180   4.036  0.4065 -0.0063 -0.6272
  907MOL0     C25060   7.614  10.123   3.973 -1.1266  0.2132  0.3887
  907MOL0     C25061   7.603  10.088   3.839 -0.5824 -0.7218  1.1847
  907MOL0     C25062   7.705  10.023   3.771 -0.8008  0.4244  0.1121
  907MOL0     C25063   7.826   9.991   3.833 -0.4685  0.6319 -0.2646
  907MOL0     O25064   7.911   9.913   3.763 -0.5927 -0.0335  0.0862
  907MOL0     C25065   8.013   9.823   3.830  0.2717  1.1570 -0.9059
  907MOL0     C25066   8.166   9.872   3.812  0.2403  0.0286  0.7069
  907MOL0     C25067   8.170  10.022   3.834  0.6773  0.8399  0.4039
  907MOL0     C25068   8.186  10.095   3.698  0.2458  0.3086  0.1164
  907MOL0     C25069   8.222  10.241   3.706  0.1747 -0.1870 -0.1729
  907MOL0     C25070   8.131  10.325   3.797 -0.3526  0.0183  0.1848
  907MOL0     C25071   7.981  10.300   3.774 -0.0987  0.1926  0.2722
  907MOL0     C25072   7.938  10.339   3.625 -0.2882 -0.0739  0.3372
  907MOL0    Cl25073   7.769  10.298   3.633 -0.0470 -0.0430  0.1486
  907MOL0     C25074   7.835  10.025   3.971 -0.0070  0.5907  0.1022
  907MOL0     C25075   7.733  10.084   4.041  0.5775 -0.0640 -0.0172
  907MOL0     O25076   7.498  10.369   3.906 -0.0537  0.0497 -0.1563
  907MOL0     C25077   7.265  10.295   4.146  0.3509 -0.4373  0.2737
  907MOL0     C25078   7.135  10.332   4.202  0.2450  0.4643  0.2221
  907MOL0     N25079   6.548  10.153   4.249  0.0242  0.3977  0.0221
  907MOL0     N25080   6.510  10.047   4.317 -0.2491 -0.0732 -0.3157
  907MOL0     C25081   5.731   9.755   3.873 -0.0790  0.4589  0.1438
  907MOL0     C25082   5.620   9.747   3.792 -0.0253  0.0832 -0.7240
  907MOL0     C25083   5.206   9.777   3.672  0.4651 -0.1109  0.2949
  907MOL0     C25084   5.191   9.676   3.570 -0.3673 -0.7998  0.3750
  907MOL0     C25085   5.107   9.699   3.463  0.8916  0.5681 -0.7522
  907MOL0     C25086   5.029   9.812   3.465 -0.2082 -0.1850  0.3345
  907MOL0     O25087   4.938   9.833   3.364  0.5397 -0.3573  0.5856
  907MOL0     C25088   4.814   9.757   3.375  0.3871  0.3766 -0.0433
  907MOL0     C25089   4.727   9.763   3.250 -0.3257 -0.3851  0.4156
  907MOL0     C25090   4.593   9.684   3.257  0.2011 -0.5342  0.2348
  907MOL0     C25091   4.483   9.774   3.336 -0.2438  0.4030  0.0968
  907MOL0     C25092   4.483   9.782   3.482 -0.4950 -0.5069 -0.7717
  907MOL0     C25093   4.475   9.802   3.604 -0.1373 -0.5385 -0.1380
  907MOL0     C25094   5.044   9.915   3.550 -1.3018 -0.9124 -0.8012
  907MOL0     C25095   5.137   9.903   3.660  0.3197  0.0364 -0.1855
  907MOL0     C25096   5.156  10.032   3.746 -0.4112 -0.7076 -0.2450
  907MOL0     H25097   5.449   9.484   3.890  0.4482 -2.6189  4.6474
  907MOL0     H25098   5.627   9.490   4.072  2.4238 -1.3076  0.2090
  907MOL0     H25099   5.882   9.469   4.067  3.2394 -0.4811  0.0678
  907MOL0     H25100   5.830   9.539   4.228 -1.5104  0.0198 -0.8386
  907MOL0     H25101   6.071   9.467   4.210 -2.0504 -0.1068  0.8348
  907MOL0     H25102   6.107   9.594   4.098  1.2976 -0.5185  1.3315
  907MOL0     H25103   6.026   9.758   4.256  0.2613  0.6793  0.1370
  907MOL0     H25104   5.974   9.636   4.379  1.8038 -0.2336  1.5932
  907MOL0     H25105   6.204   9.549   4.383 -0.7833 -0.0913  1.4844
  907MOL0     H25106   6.250   9.678   4.280  1.8932  0.4878  2.8488
  907MOL0     H25107   6.326   9.742   4.476  0.1714 -0.3807 -4.5894
  907MOL0     H25108   6.152   9.752   4.550 -1.6861  3.2503 -0.6224
  907MOL0     H25109   6.289   9.921   4.333 -1.1805  0.2355 -0.5016
  907MOL0     H25110   6.118   9.916   4.344  1.1042 -0.2114 -3.2505
  907MOL0     H25111   6.170   9.998   4.595  0.2804 -0.8903  1.3635
  907MOL0     H25112   6.202  10.108   4.454  1.0506  0.5578  1.8336
  907MOL0     H25113   6.381  10.086   4.634 -2.8943 -0.6801  1.0379
  907MOL0     H25114   6.427   9.931   4.568  1.6212  1.1919 -0.3637
  907MOL0     H25115   6.408  10.313   4.492 -0.1225  0.3022 -1.1340
  907MOL0     H25116   6.449  10.469   4.258  0.8412  0.2426  2.4250
  907MOL0     H25117   6.537  10.382   4.128 -2.0537 -1.5787  0.2318
  907MOL0     H25118   6.620  10.547   4.370  1.8568  2.5239 -0.7026
  907MOL0     H25119   6.703  10.399   4.346 -0.5652 -1.5860 -2.6275
  907MOL0     H25120   6.647  10.597   4.120 -1.8319 -1.2505  1.7408
  907MOL0     H25121   6.767  10.648   4.234 -0.6007  1.0771 -1.4402
  907MOL0     H25122   6.770  10.407   4.045 -4.5374  2.9514 -0.7165
  907MOL0     H25123   6.864  10.558   4.026 -0.9636  1.3040  1.9485
  907MOL0     H25124   7.017  10.480   3.921  1.7464 -0.2873 -2.4954
  907MOL0     H25125   7.158  10.441   3.740 -0.7747  2.2719  0.6032
  907MOL0     H25126   7.334  10.448   3.752 -1.4832  0.7066 -3.5166
  907MOL0     H25127   7.225  10.579   3.809  1.5767 -0.5893  3.2765
  907MOL0     H25128   7.515  10.120   3.783  1.6116 -1.5260 -3.1717
  907MOL0     H25129   7.699   9.988   3.668 -2.3396 -0.2026  0.3893
  907MOL0     H25130   7.998   9.811   3.938  1.5728  0.2409 -0.8100
  907MOL0     H25131   7.997   9.722   3.793 -1.1422 -0.0359  2.5434
  907MOL0     H25132   8.229   9.827   3.889  0.4791 -0.8840 -0.0099
  907MOL0     H25133   8.202   9.841   3.714 -0.7454 -3.3461  1.2741
  907MOL0     H25134   8.259  10.045   3.892  1.6854  3.6996 -2.0162
  907MOL0     H25135   8.093  10.059   3.903 -0.0046 -1.6873  1.0964
  907MOL0     H25136   8.092  10.078   3.645 -0.6194  3.7393  0.3535
  907MOL0     H25137   8.258  10.046   3.631  1.9036  1.3240  1.0917
  907MOL0     H25138   8.325  10.251   3.743 -0.3699 -0.7681  1.5907
  907MOL0     H25139   8.218  10.271   3.601 -0.5176 -1.9194 -0.6689
  907MOL0     H25140   8.155  10.431   3.786  1.4306 -0.4550 -0.8687
  907MOL0     H25141   8.147  10.304   3.903 -1.4817 -1.5863  0.0656
  907MOL0     H25142   7.924  10.361   3.844  0.1634 -0.0389  0.6908
  907MOL0     H25143   7.972  10.193   3.796 -1.9480  0.6269  1.8692
  907MOL0     H25144   7.997  10.280   3.554  0.4715 -1.1816  1.8407
  907MOL0     H25145   7.961  10.444   3.606 -0.2338  0.5322  3.3047
  907MOL0     H25146   7.920  10.001   4.034 -2.3741 -2.0332  2.5990
  907MOL0     H25147   7.744  10.125   4.140 -1.3366  3.8651 -1.2380
  907MOL0     H25148   7.335  10.238   4.206  0.2812 -2.0609 -1.1109
  907MOL0     H25149   7.115  10.309   4.306 -2.0519  1.5115  0.0653
  907MOL0     H25150   5.792   9.844   3.871  0.0497  0.4166  1.3457
  907MOL0     H25151   5.603   9.821   3.714  2.4005 -0.7344 -2.1509
  907MOL0     H25152   5.256   9.589   3.576  0.7234  0.0108  0.5770
  907MOL0     H25153   5.086   9.635   3.378 -0.2738 -0.9127  0.5967
  907MOL0     H25154   4.823   9.652   3.404  1.0105  0.2224 -0.7783
  907MOL0     H25155   4.761   9.807   3.457 -0.2947 -2.3740  1.3204
  907MOL0     H25156   4.783   9.724   3.166  1.7520  1.4281  0.8527
  907MOL0     H25157   4.696   9.866   3.227  1.6361  0.3258  0.7974
  907MOL0     H25158   4.563   9.662   3.155  1.1964  0.7666 -0.3674
  907MOL0     H25159   4.607   9.587   3.305 -2.1159 -0.9978  0.1031
  907MOL0     H25160   4.384   9.744   3.300  0.6007 -1.5373 -0.7513
  907MOL0     H25161   4.500   9.876   3.303 -0.2568  0.2724 -0.3139
  907MOL0     H25162   4.464   9.828   3.707  0.8764  4.5033 -1.0232
  907MOL0     H25163   4.993  10.009   3.529 -0.3105 -0.1866 -0.0522
  907MOL0     H25164   5.073  10.102   3.746 -0.5778 -0.7708  3.1245
  907MOL0     H25165   5.161   9.993   3.848 -1.6504  0.9607  0.4752
  907MOL0     H25166   5.255  10.073   3.724 -0.4312 -1.3758 -1.7293
  908MOL0     O25167   6.204   6.466   6.975  0.1442  0.5882  0.3554
  908MOL0     C25168   6.188   6.533   6.871 -0.2351  0.0525 -0.2757
  908MOL0     O25169   6.094   6.636   6.868  0.9665  0.5974  0.2081
  908MOL0     C25170   6.003   6.641   6.972  0.8806 -0.2677  0.1925
  908MOL0     C25171   6.023   6.730   7.082  0.4490  0.0249  0.8161
  908MOL0     C25172   5.920   6.736   7.184 -0.1897  0.0065  0.7680
  908MOL0     C25173   5.807   6.650   7.181 -0.9290  0.2680  0.4373
  908MOL0     O25174   5.708   6.681   7.264  0.0859 -0.2383  0.1363
  908MOL0     C25175   5.612   6.587   7.322 -0.4457  1.1572  0.4853
  908MOL0     C25176   5.585   6.632   7.467  0.3090 -0.0649 -0.3531
  908MOL0     C25177   5.488   6.527   7.533 -0.2154  0.0633 -0.2476
  908MOL0     C25178   5.355   6.511   7.472  0.4311 -0.1072 -0.5954
  908MOL0     C25179   5.241   6.520   7.566  0.4238 -0.3706 -0.1503
  908MOL0     C25180   5.103   6.478   7.485 -0.8939 -0.4123  0.3132
  908MOL0     C25181   4.976   6.530   7.553  0.6865 -0.5177 -0.0150
  908MOL0     C25182   4.952   6.680   7.546  0.3717 -0.4549  0.1466
  908MOL0     N25183   4.939   6.728   7.408 -0.5777 -0.6600  0.3526
  908MOL0     C25184   5.045   6.765   7.325  0.3883 -0.3334 -0.1774
  908MOL0     C25185   4.989   6.757   7.197 -0.1494  0.1442 -0.4551
  908MOL0     C25186   5.075   6.746   7.076  0.2267  0.3506 -0.4545
  908MOL0     C25187   5.139   6.605   7.083 -0.3339 -0.6209 -0.2418
  908MOL0     C25188   5.249   6.582   6.974 -0.3657 -0.0111  0.5017
  908MOL0     C25189   5.300   6.432   6.957  0.3948 -0.1896 -0.3017
  908MOL0     O25190   5.366   6.388   7.078 -0.3954 -0.2073 -0.4664
  908MOL0     C25191   5.364   6.254   7.104  0.1680 -0.1786  1.0837
  908MOL0     C25192   5.411   6.207   7.224  0.2138 -0.7164 -1.1486
  908MOL0     C25193   5.422   6.070   7.258  0.2932 -0.2208  0.4169
  908MOL0     C25194   5.494   6.027   7.383  0.6632 -0.5108  0.1511
  908MOL0     C25195   5.396   5.977   7.157 -0.4199 -0.5208 -0.0973
  908MOL0     C25196   5.394   5.832   7.177 -0.6851 -0.4246  1.1240
  908MOL0     O25197   5.486   5.779   7.086 -0.1466 -0.1817 -0.2899
  908MOL0     C25198   5.482   5.644   7.058 -0.3289 -0.1123 -0.2313
  908MOL0     C25199   5.402   5.597   6.957  0.5508 -0.0702 -0.1678
  908MOL0     C25200   5.398   5.461   6.936  0.6260 -0.6590  0.0835
  908MOL0     C25201   5.463   5.372   7.016  0.0188 -0.0256 -0.9855
  908MOL0     O25202   5.453   5.234   7.004  0.5968 -0.3793  0.1192
  908MOL0     C25203   5.326   5.176   7.004 -1.4183  0.5733  0.6537
  908MOL0     C25204   5.362   5.030   6.979 -0.0338  0.0599 -0.3816
  908MOL0     C25205   5.405   4.995   6.837 -0.4729 -1.0911  0.2847
  908MOL0     C25206   5.435   4.851   6.825  0.5915  0.1996 -0.7069
  908MOL0     C25207   5.473   4.812   6.678  0.2286  0.0962  0.6645
  908MOL0     C25208   5.594   4.888   6.622 -0.2717 -0.6503  0.5525
  908MOL0     C25209   5.733   4.854   6.694 -0.4241  0.2531  0.9509
  908MOL0     C25210   5.827   4.978   6.670  0.0126  0.4579 -0.9494
  908MOL0    Cl25211   5.779   5.123   6.780  0.2654 -0.1093  0.7102
  908MOL0     C25212   5.551   5.423   7.117  0.4137  0.0318  0.4959
  908MOL0     C25213   5.553   5.558   7.138  0.3875  0.5384 -0.7229
  908MOL0     O25214   5.335   5.774   7.265  0.1645 -0.3849  0.0757
  908MOL0     C25215   5.353   6.028   7.029  0.2591 -0.1309  0.6207
  908MOL0     C25216   5.340   6.162   7.001 -0.8954  0.1488 -0.2586
  908MOL0     N25217   4.860   6.727   7.198  0.6832 -0.2173 -0.5892
  908MOL0     N25218   4.833   6.708   7.324  1.1784  0.0585 -0.2028
  908MOL0     C25219   5.793   6.559   7.071  0.0787 -0.3411 -0.8901
  908MOL0     C25220   5.891   6.551   6.973  0.0451 -0.5856  1.1192
  908MOL0     C25221   6.288   6.529   6.756 -0.3559 -1.0116 -0.1708
  908MOL0     C25222   6.267   6.624   6.646  0.7165 -1.0360 -0.1331
  908MOL0     C25223   6.344   6.630   6.534 -0.4434  0.3039  0.0125
  908MOL0     C25224   6.451   6.544   6.520 -0.5181 -0.2154  0.6166
  908MOL0     O25225   6.535   6.543   6.412  0.2640 -0.7937 -0.3829
  908MOL0     C25226   6.555   6.662   6.335  0.1743 -0.6206 -1.1029
  908MOL0     C25227   6.666   6.643   6.230  0.1173 -0.2501  0.4142
  908MOL0     C25228   6.809   6.645   6.284  0.2669  0.7169  0.0391
  908MOL0     C25229   6.908   6.621   6.171  0.4358 -0.0973 -0.1431
  908MOL0     C25230   7.030   6.697   6.195 -0.2671  0.1742  0.4415
  908MOL0     C25231   7.133   6.749   6.228  0.0194 -1.3859 -0.0983
  908MOL0     C25232   6.472   6.444   6.617  0.0072 -0.1097  0.9154
  908MOL0     C25233   6.393   6.437   6.731 -0.3196 -0.3989  0.0142
  908MOL0     C25234   6.421   6.312   6.820 -0.4445 -0.3754 -0.7407
  908MOL0     H25235   6.107   6.797   7.097 -1.3417  2.4044  0.8103
  908MOL0     H25236   5.924   6.818   7.256  0.3021  1.0922 -0.4452
  908MOL0     H25237   5.646   6.483   7.319 -1.9122  0.6567 -1.8506
  908MOL0     H25238   5.518   6.594   7.266 -0.8555 -1.9500  0.5842
  908MOL0     H25239   5.678   6.628   7.524 -0.5236  0.4921  1.0978
  908MOL0     H25240   5.557   6.738   7.474 -2.3494 -0.6301 -1.0661
  908MOL0     H25241   5.535   6.429   7.521 -1.4703 -0.8845  1.9861
  908MOL0     H25242   5.485   6.554   7.639  4.0550 -3.3745  1.0507
  908MOL0     H25243   5.351   6.587   7.392  1.6599 -0.7005 -1.2621
  908MOL0     H25244   5.346   6.415   7.422 -1.4417  0.0974 -0.6993
  908MOL0     H25245   5.223   6.618   7.611  0.4978 -1.1538  1.6761
  908MOL0     H25246   5.249   6.456   7.655 -0.8977  0.5513  0.6712
  908MOL0     H25247   5.115   6.513   7.382  0.3211  0.8999  0.8673
  908MOL0     H25248   5.098   6.369   7.485 -1.7365 -0.3843  0.3236
  908MOL0     H25249   4.971   6.509   7.660 -0.5264 -0.5460 -0.0652
  908MOL0     H25250   4.892   6.478   7.504  1.5931 -3.0379  0.9212
  908MOL0     H25251   4.863   6.701   7.606  1.5573  0.0456  1.7985
  908MOL0     H25252   5.025   6.728   7.611 -1.3358  0.7327  1.2785
  908MOL0     H25253   5.148   6.763   7.360  0.6322 -4.5214 -0.7177
  908MOL0     H25254   5.149   6.826   7.074 -0.5326  1.0596 -0.7787
  908MOL0     H25255   5.011   6.773   6.991  0.2385  0.2378 -0.4997
  908MOL0     H25256   5.190   6.594   7.180  0.0350 -2.2411 -0.5902
  908MOL0     H25257   5.054   6.537   7.075 -0.4391 -0.4686 -0.4111
  908MOL0     H25258   5.204   6.612   6.879  1.7213 -1.6823 -1.0995
  908MOL0     H25259   5.339   6.641   6.992 -1.1654  1.2348  0.5507
  908MOL0     H25260   5.205   6.381   6.939 -0.1038  0.8247 -0.6037
  908MOL0     H25261   5.362   6.426   6.866  0.0305  1.6486 -0.7208
  908MOL0     H25262   5.447   6.286   7.289  0.1967  1.0462 -3.1576
  908MOL0     H25263   5.466   5.930   7.425 -1.1319  0.6824  1.9651
  908MOL0     H25264   5.464   6.094   7.465  2.4924  0.0141  0.4363
  908MOL0     H25265   5.601   6.025   7.362  0.8335 -1.4584  1.0421
  908MOL0     H25266   5.342   5.657   6.889 -1.9536 -1.5378  0.6236
  908MOL0     H25267   5.341   5.425   6.851 -3.3305  1.9663  1.3166
  908MOL0     H25268   5.266   5.185   7.095 -2.5039  0.7309 -0.0567
  908MOL0     H25269   5.271   5.217   6.919  0.3740  1.1167 -0.2867
  908MOL0     H25270   5.435   4.994   7.052  0.2750  0.0767 -0.6821
  908MOL0     H25271   5.266   4.980   6.992  0.5612 -1.3678 -1.3054
  908MOL0     H25272   5.491   5.055   6.806 -0.7965 -0.5666  0.3951
  908MOL0     H25273   5.319   5.022   6.774 -1.2825  0.6115  2.0102
  908MOL0     H25274   5.350   4.800   6.871 -0.1002  0.5794 -1.5345
  908MOL0     H25275   5.511   4.835   6.902  0.9409  1.2706 -0.8068
  908MOL0     H25276   5.496   4.705   6.673  0.8298  0.2844 -1.3673
  908MOL0     H25277   5.387   4.822   6.612  1.1648 -0.5318 -0.6945
  908MOL0     H25278   5.584   4.997   6.625 -0.9187 -0.6128 -1.4093
  908MOL0     H25279   5.600   4.857   6.517 -1.1803 -0.7269  0.5152
  908MOL0     H25280   5.768   4.760   6.650 -2.7114  0.3290 -1.2788
  908MOL0     H25281   5.722   4.846   6.802 -0.5283  0.8870  0.9913
  908MOL0     H25282   5.823   5.000   6.563  1.4129  0.4221 -1.0325
  908MOL0     H25283   5.932   4.959   6.692 -0.0438 -0.5597 -1.5127
  908MOL0     H25284   5.586   5.355   7.194  1.5522  0.1019  0.0614
  908MOL0     H25285   5.615   5.580   7.225  0.5196 -1.1539 -0.3411
  908MOL0     H25286   5.340   5.962   6.944 -0.5719 -0.6152  1.1164
  908MOL0     H25287   5.324   6.187   6.897  1.7048  1.5801 -0.4194
  908MOL0     H25288   5.703   6.501   7.051  0.4558 -0.8338 -1.1954
  908MOL0     H25289   5.868   6.482   6.893 -2.2814  0.0635  1.1632
  908MOL0     H25290   6.187   6.698   6.650  1.3292 -0.4011  1.1221
  908MOL0     H25291   6.325   6.698   6.452  2.7793  0.7539 -0.4765
  908MOL0     H25292   6.459   6.677   6.284 -0.7713 -0.1795  0.7297
  908MOL0     H25293   6.587   6.753   6.387 -1.1648 -0.9333  0.3456
  908MOL0     H25294   6.643   6.722   6.158 -0.9803 -0.5056  0.4608
  908MOL0     H25295   6.645   6.547   6.181 -0.6078 -0.2517  0.7137
  908MOL0     H25296   6.837   6.736   6.338  1.7516  0.0532  0.4359
  908MOL0     H25297   6.820   6.556   6.348  2.1448 -0.8336 -2.2448
  908MOL0     H25298   6.862   6.671   6.085 -0.2765  0.0037  0.2872
  908MOL0     H25299   6.929   6.516   6.146  0.4713  0.0910 -0.9287
  908MOL0     H25300   7.230   6.782   6.259  0.3304  0.7612 -2.9599
  908MOL0     H25301   6.546   6.368   6.594 -2.6580 -4.1792  4.2982
  908MOL0     H25302   6.323   6.287   6.862 -1.0545  3.1112  0.2427
  908MOL0     H25303   6.463   6.222   6.775  0.9361  0.7281 -1.7540
  908MOL0     H25304   6.477   6.335   6.912  0.8780 -0.1998 -1.5637
  909MOL0     O25305   9.680   0.230   4.712  0.2252 -0.0396  0.2023
  909MOL0     C25306   9.701   0.325   4.783 -0.5099 -0.3556 -0.7030
  909MOL0     O25307   9.824   0.393   4.792  0.7508  0.4457  0.5037
  909MOL0     C25308   9.924   0.348   4.705  0.6877  0.3269 -0.1678
  909MOL0     C25309  10.051   0.364   4.761  0.5218  0.2084 -0.4227
  909MOL0     C25310  10.168   0.329   4.691 -0.1278 -0.1816  0.3980
  909MOL0     C25311  10.160   0.291   4.552 -0.5329  0.0469 -0.8780
  909MOL0     O25312  10.259   0.243   4.473 -0.3751  0.2693 -0.2549
  909MOL0     C25313  10.391   0.266   4.506 -0.1626  0.0205  0.3264
  909MOL0     C25314  10.481   0.248   4.379  0.1500 -0.6977  0.5104
  909MOL0     C25315  10.498   0.106   4.343 -0.2469  0.4603 -0.0335
  909MOL0     C25316  10.602   0.084   4.226 -0.5109 -0.7632 -0.2274
  909MOL0     C25317  10.748   0.097   4.276  0.5580 -0.0312  0.0248
  909MOL0     C25318  10.766   0.012   4.398  0.4655 -0.3404  0.1334
  909MOL0     C25319  10.908  -0.012   4.442 -0.3933  0.3344  0.0788
  909MOL0     C25320  10.992  -0.068   4.327  0.1669  0.2633  0.6756
  909MOL0     N25321  11.117  -0.138   4.372  0.5154 -0.2739 -0.2380
  909MOL0     C25322  11.154  -0.270   4.335  0.3565  0.6145  0.0690
  909MOL0     C25323  11.275  -0.293   4.395  1.1490 -0.3428 -0.1185
  909MOL0     C25324  11.336  -0.430   4.392  0.0107 -0.3414  0.5888
  909MOL0     C25325  11.308  -0.521   4.507  0.0610  0.3631  0.0875
  909MOL0     C25326  11.359  -0.465   4.637 -0.3007  0.6003  1.0329
  909MOL0     C25327  11.347  -0.577   4.735 -0.3500  0.3405 -0.0359
  909MOL0     O25328  11.216  -0.619   4.787  0.3758 -0.5906  0.1571
  909MOL0     C25329  11.146  -0.509   4.847  0.0808  0.2061  1.1950
  909MOL0     C25330  11.024  -0.469   4.790 -0.4526 -0.0046  0.5400
  909MOL0     C25331  10.961  -0.350   4.830  0.0890  0.2660 -0.1810
  909MOL0     C25332  10.841  -0.301   4.752 -0.0803  0.4475 -0.5445
  909MOL0     C25333  11.012  -0.285   4.948 -0.4732 -0.1064 -1.0258
  909MOL0     C25334  10.935  -0.181   5.029  0.2316 -0.4902  0.1517
  909MOL0     O25335  10.994  -0.128   5.146  0.0458  0.0332 -0.7539
  909MOL0     C25336  10.905  -0.058   5.230 -0.0855  0.3881  0.0935
  909MOL0     C25337  10.801  -0.117   5.310  0.0474 -0.7813  0.5340
  909MOL0     C25338  10.734  -0.052   5.420  0.4178  0.5523 -0.8819
  909MOL0     C25339  10.761   0.081   5.438  0.1160 -0.6694 -0.6132
  909MOL0     O25340  10.683   0.148   5.534 -0.1357 -0.3718  0.6583
  909MOL0     C25341  10.723   0.276   5.578 -0.6614  0.7240 -1.0020
  909MOL0     C25342  10.621   0.338   5.685  0.0587 -0.0446  0.1643
  909MOL0     C25343  10.583   0.248   5.808  0.5977  0.0191 -0.8400
  909MOL0     C25344  10.640   0.305   5.943 -0.2014  0.1879 -0.2487
  909MOL0     C25345  10.635   0.202   6.052 -0.5053  0.0526 -0.1239
  909MOL0     C25346  10.500   0.175   6.108 -0.3335 -0.0345  0.3965
  909MOL0     C25347  10.504   0.050   6.204  0.0150 -0.5143 -0.2844
  909MOL0     C25348  10.473   0.079   6.348 -0.4736  0.2028  0.0957
  909MOL0    Cl25349  10.308   0.126   6.348  0.1967  0.3343 -0.0745
  909MOL0     C25350  10.870   0.147   5.358 -0.6920  0.4220  0.1256
  909MOL0     C25351  10.936   0.071   5.254  0.0498  0.1930 -0.9076
  909MOL0     O25352  10.819  -0.164   4.988 -0.0008  0.0930  0.1480
  909MOL0     C25353  11.129  -0.338   5.013 -0.2148 -0.4852  0.2015
  909MOL0     C25354  11.203  -0.442   4.957  0.2421 -0.2539  0.5512
  909MOL0     N25355  11.304  -0.179   4.472  0.4661  0.3258  0.6989
  909MOL0     N25356  11.212  -0.092   4.453  0.9879  0.5301 -0.2193
  909MOL0     C25357  10.023   0.293   4.497 -1.1070 -0.6664 -0.9150
  909MOL0     C25358   9.909   0.320   4.567 -0.0820  0.2988  0.2534
  909MOL0     C25359   9.590   0.386   4.859  0.8282  0.2272 -0.1466
  909MOL0     C25360   9.618   0.475   4.960  0.5851  0.0986  0.0492
  909MOL0     C25361   9.524   0.533   5.046 -0.5931  0.1751 -0.1286
  909MOL0     C25362   9.392   0.499   5.030  0.9062  0.3221 -0.2915
  909MOL0     O25363   9.305   0.559   5.128 -0.3569 -1.0924  0.2805
  909MOL0     C25364   9.165   0.521   5.109 -0.3596  0.5517  0.7005
  909MOL0     C25365   9.066   0.611   5.191 -0.1414 -0.8081 -0.1629
  909MOL0     C25366   9.060   0.744   5.116  1.1048 -0.3564 -1.0529
  909MOL0     C25367   8.975   0.844   5.202  0.0636 -0.2386  0.5871
  909MOL0     C25368   8.990   0.978   5.145 -0.2823  0.3605  0.0019
  909MOL0     C25369   9.024   1.082   5.099  0.9065  0.6133  0.2702
  909MOL0     C25370   9.354   0.416   4.919 -0.5198  0.2926 -0.1162
  909MOL0     C25371   9.453   0.354   4.837 -0.7522 -0.2521 -0.1787
  909MOL0     C25372   9.393   0.251   4.747 -0.0493 -0.2091  0.3208
  909MOL0     H25373  10.050   0.404   4.862 -3.3508  1.1216 -0.6401
  909MOL0     H25374  10.260   0.334   4.749  1.9924  1.3572 -2.8075
  909MOL0     H25375  10.423   0.215   4.597 -2.7614 -1.9101  0.2728
  909MOL0     H25376  10.397   0.372   4.532 -0.1435 -0.5279  2.7567
  909MOL0     H25377  10.444   0.308   4.296  2.9181  0.1986 -0.1596
  909MOL0     H25378  10.574   0.293   4.414 -1.5839  3.1837  0.5774
  909MOL0     H25379  10.514   0.042   4.430 -0.1520  0.3570 -0.1271
  909MOL0     H25380  10.394   0.084   4.318 -0.5335  0.0175  1.4270
  909MOL0     H25381  10.583  -0.017   4.188 -0.5249  0.2477 -3.1615
  909MOL0     H25382  10.581   0.150   4.141 -1.0775  0.1740  0.6156
  909MOL0     H25383  10.782   0.200   4.293  0.9247 -0.1898  0.2607
  909MOL0     H25384  10.809   0.068   4.191  1.1134  0.4099  0.2680
  909MOL0     H25385  10.720   0.065   4.483  0.5192 -1.0886  0.6383
  909MOL0     H25386  10.716  -0.084   4.382 -0.9660  0.7256 -2.3970
  909MOL0     H25387  10.918  -0.090   4.518  0.5187  0.9560  0.6210
  909MOL0     H25388  10.951   0.081   4.479  0.6590 -0.9994  2.4067
  909MOL0     H25389  10.927  -0.128   4.264 -1.1387  0.8098  1.4707
  909MOL0     H25390  11.026   0.013   4.262 -2.2217  0.0791 -0.9308
  909MOL0     H25391  11.107  -0.356   4.288  1.3981 -0.2857  0.6380
  909MOL0     H25392  11.443  -0.405   4.388 -0.4165  1.5622 -0.1668
  909MOL0     H25393  11.312  -0.469   4.293  2.1036 -2.6611  0.9007
  909MOL0     H25394  11.202  -0.544   4.522  0.8704 -2.1131  3.1025
  909MOL0     H25395  11.357  -0.617   4.487 -0.3676  0.1046  0.2691
  909MOL0     H25396  11.467  -0.453   4.619 -0.7153  0.2876 -2.4205
  909MOL0     H25397  11.311  -0.373   4.670  0.4813  0.7212  1.8695
  909MOL0     H25398  11.404  -0.662   4.695  2.1837 -0.0180  3.8711
  909MOL0     H25399  11.403  -0.551   4.825 -1.3067 -2.4128  1.4992
  909MOL0     H25400  10.963  -0.527   4.720 -0.4760 -0.2406  0.7568
  909MOL0     H25401  10.826  -0.193   4.758  1.1718  0.6719 -1.2418
  909MOL0     H25402  10.755  -0.353   4.796  0.7322 -1.5721 -1.2127
  909MOL0     H25403  10.841  -0.327   4.646 -1.6565  0.5100 -0.5807
  909MOL0     H25404  10.782  -0.222   5.290  1.4176 -0.7144 -1.4755
  909MOL0     H25405  10.647  -0.083   5.478 -1.5028  2.6603 -2.4457
  909MOL0     H25406  10.816   0.261   5.633  0.5569  0.7942 -2.9676
  909MOL0     H25407  10.742   0.342   5.493 -2.5130  1.5327 -0.8380
  909MOL0     H25408  10.658   0.435   5.718 -0.5476  0.0456  0.5976
  909MOL0     H25409  10.526   0.358   5.635 -2.0256  0.3000  3.8966
  909MOL0     H25410  10.618   0.147   5.788 -1.3399 -1.1017  1.0596
  909MOL0     H25411  10.474   0.255   5.816  0.6244  0.5720 -0.8664
  909MOL0     H25412  10.594   0.401   5.967  1.8536  1.6297 -1.8431
  909MOL0     H25413  10.748   0.316   5.935  0.2146 -0.5815  2.9751
  909MOL0     H25414  10.682   0.109   6.018  2.3863  1.5902 -0.6864
  909MOL0     H25415  10.695   0.245   6.133  0.7464 -1.8027 -0.0030
  909MOL0     H25416  10.424   0.154   6.032  1.2811 -1.8096 -0.8092
  909MOL0     H25417  10.468   0.266   6.160  4.0444  2.1439 -0.2627
  909MOL0     H25418  10.606   0.013   6.204  0.0554 -0.4064  0.2227
  909MOL0     H25419  10.431  -0.026   6.175 -1.1302  0.1140  0.8321
  909MOL0     H25420  10.541   0.153   6.393 -0.3983 -2.1423  4.3192
  909MOL0     H25421  10.484  -0.015   6.402 -3.3652  1.5715  3.4733
  909MOL0     H25422  10.906   0.248   5.374  2.1296 -0.7020  1.7143
  909MOL0     H25423  11.012   0.122   5.195 -0.0351  0.4038 -0.8366
  909MOL0     H25424  11.162  -0.303   5.110 -0.3937  0.9729 -0.2384
  909MOL0     H25425  11.286  -0.487   5.010  1.5464 -0.0707 -1.2523
  909MOL0     H25426  10.006   0.262   4.394 -2.4361 -2.8653 -0.1064
  909MOL0     H25427   9.817   0.325   4.509  0.5788 -0.5356 -0.9036
  909MOL0     H25428   9.721   0.486   4.993  0.0289  1.9897  1.3219
  909MOL0     H25429   9.558   0.595   5.129  0.7361  1.3744 -1.5004
  909MOL0     H25430   9.133   0.531   5.005 -3.0702 -0.2697  1.3735
  909MOL0     H25431   9.149   0.417   5.138  0.1957  0.5011  0.8277
  909MOL0     H25432   9.089   0.624   5.297 -1.7497  0.4192  0.0642
  909MOL0     H25433   8.967   0.565   5.194 -1.2842  1.5298  0.0022
  909MOL0     H25434   9.164   0.777   5.106  1.4015 -0.4711  1.1948
  909MOL0     H25435   9.001   0.730   5.025 -1.1462 -0.4464  0.3629
  909MOL0     H25436   9.005   0.835   5.306 -3.4662 -1.8800  1.6402
  909MOL0     H25437   8.870   0.813   5.211  0.2959 -0.4876  3.1170
  909MOL0     H25438   9.062   1.170   5.051 -0.9148  0.2010 -2.1110
  909MOL0     H25439   9.255   0.385   4.889 -0.2096 -0.3889 -0.4608
  909MOL0     H25440   9.463   0.168   4.736  1.5120  1.2780 -1.9988
  909MOL0     H25441   9.297   0.213   4.783  0.6922 -0.5364  2.0201
  909MOL0     H25442   9.371   0.300   4.651 -1.3473  0.8057  1.0917
  910MOL0     O25443   7.607   0.703   2.574  0.1525  0.0781 -0.3363
  910MOL0     C25444   7.532   0.797   2.595 -0.3179  0.2815 -0.6225
  910MOL0     O25445   7.546   0.911   2.535 -0.1497  0.5838  0.5190
  910MOL0     C25446   7.653   0.931   2.452  0.4814 -0.5619  0.3263
  910MOL0     C25447   7.789   0.927   2.492  1.2367 -0.3753 -0.3903
  910MOL0     C25448   7.879   0.960   2.400 -0.4619 -0.1244 -0.0737
  910MOL0     C25449   7.844   0.986   2.263  0.3719 -0.0431  0.8497
  910MOL0     O25450   7.947   1.013   2.173  0.4022 -0.0269 -0.2282
  910MOL0     C25451   7.933   0.976   2.034  0.2628  0.4250  0.2078
  910MOL0     C25452   8.068   0.979   1.965  0.1017  0.0965 -0.3100
  910MOL0     C25453   8.148   1.095   1.996  0.4870 -0.0620  0.0721
  910MOL0     C25454   8.274   1.083   1.918 -1.1725 -0.1723  0.1126
  910MOL0     C25455   8.353   1.208   1.942  0.5858  0.5229 -0.6406
  910MOL0     C25456   8.499   1.195   1.901 -0.1629  0.3428  0.4142
  910MOL0     C25457   8.570   1.320   1.941 -0.3455  0.7570  0.1784
  910MOL0     C25458   8.724   1.314   1.923 -0.2794 -0.4808  0.0019
  910MOL0     N25459   8.781   1.443   1.952  1.0122 -0.6185  0.0694
  910MOL0     C25460   8.770   1.507   2.078  0.0687  0.7241  0.0438
  910MOL0     C25461   8.803   1.629   2.049 -0.4169  1.1920  0.2983
  910MOL0     C25462   8.784   1.736   2.151  0.3432  0.0302 -0.9579
  910MOL0     C25463   8.897   1.746   2.252 -0.0889  0.1414 -1.0304
  910MOL0     C25464   8.857   1.709   2.401 -0.7084 -0.0934  0.4248
  910MOL0     C25465   8.977   1.682   2.492 -0.3670  0.0191 -0.5773
  910MOL0     O25466   8.934   1.647   2.625  0.3291  0.1718  0.5215
  910MOL0     C25467   8.979   1.719   2.734 -0.0960 -0.2901  0.2444
  910MOL0     C25468   8.874   1.755   2.816 -0.8150 -0.4250  0.0241
  910MOL0     C25469   8.907   1.830   2.930  0.0514 -1.1605 -0.1667
  910MOL0     C25470   8.797   1.873   3.018 -0.4331 -1.0018 -0.1926
  910MOL0     C25471   9.040   1.865   2.961 -0.3305 -0.5418  0.2623
  910MOL0     C25472   9.096   1.920   3.083 -0.5823  0.8614 -0.7762
  910MOL0     O25473   9.211   1.994   3.085 -0.5541  0.4281  0.5858
  910MOL0     C25474   9.224   2.083   3.191 -0.3053  0.4803 -0.1281
  910MOL0     C25475   9.114   2.163   3.237  0.2566  0.1743  0.6784
  910MOL0     C25476   9.140   2.275   3.320  0.4647 -0.0439 -0.3283
  910MOL0     C25477   9.268   2.289   3.375  1.0455 -0.1206 -1.1059
  910MOL0     O25478   9.292   2.388   3.471 -0.0536 -0.1712  0.6988
  910MOL0     C25479   9.192   2.484   3.489 -0.2064 -0.3694  0.1016
  910MOL0     C25480   9.261   2.597   3.570  0.9026 -0.3264 -0.6047
  910MOL0     C25481   9.165   2.715   3.599 -0.0151  0.7427 -0.1289
  910MOL0     C25482   9.234   2.855   3.583  0.5322 -0.1500 -0.3655
  910MOL0     C25483   9.218   2.915   3.445  0.9214 -0.7745  0.0980
  910MOL0     C25484   9.289   2.855   3.327  0.4442 -0.1642  0.4708
  910MOL0     C25485   9.255   2.943   3.200 -0.8696 -0.5194 -0.0225
  910MOL0     C25486   9.312   2.865   3.082  0.0151 -0.2265  0.2459
  910MOL0    Cl25487   9.301   2.990   2.957 -0.2474 -0.4388  0.8238
  910MOL0     C25488   9.370   2.203   3.341  0.6047  0.4840 -0.3447
  910MOL0     C25489   9.353   2.097   3.250  0.7825 -0.0521 -0.5525
  910MOL0     O25490   9.044   1.880   3.188 -0.3568 -0.5651  0.0389
  910MOL0     C25491   9.138   1.826   2.868  0.0863 -0.2208 -0.7010
  910MOL0     C25492   9.105   1.760   2.756 -0.4764  0.7806 -0.4112
  910MOL0     N25493   8.821   1.652   1.913  0.7327 -0.2500  0.0560
  910MOL0     N25494   8.814   1.538   1.858  0.5174  0.8000  0.0173
  910MOL0     C25495   7.712   0.985   2.221  0.1371 -0.3102  0.3254
  910MOL0     C25496   7.621   0.960   2.319 -0.2740 -0.3467 -0.5493
  910MOL0     C25497   7.418   0.779   2.692  0.1973 -0.6711 -0.4098
  910MOL0     C25498   7.444   0.690   2.798  0.4319  0.2869  0.4103
  910MOL0     C25499   7.355   0.667   2.904 -0.1834 -0.2008 -0.4078
  910MOL0     C25500   7.230   0.730   2.892 -0.1774 -0.3478  0.2454
  910MOL0     O25501   7.125   0.707   2.972 -0.9568  0.1421  0.2888
  910MOL0     C25502   7.138   0.617   3.080  0.5883 -0.1290  0.4091
  910MOL0     C25503   7.019   0.620   3.178 -0.2771 -0.6554  0.0752
  910MOL0     C25504   7.002   0.756   3.253  0.6863  0.8389  1.0159
  910MOL0     C25505   6.877   0.759   3.354 -0.0994  0.1384 -0.3866
  910MOL0     C25506   6.748   0.766   3.293 -0.6552 -0.1901 -0.3635
  910MOL0     C25507   6.638   0.807   3.249 -0.6528  0.4964 -0.0083
  910MOL0     C25508   7.197   0.817   2.790  0.3114 -1.1283  0.4108
  910MOL0     C25509   7.290   0.848   2.689 -0.1003  0.7240  0.1983
  910MOL0     C25510   7.260   0.951   2.589  0.3533  0.8459  0.2867
  910MOL0     H25511   7.815   0.925   2.597 -2.3835 -0.3301  0.6574
  910MOL0     H25512   7.980   0.964   2.441 -1.5587 -0.7598  2.8687
  910MOL0     H25513   7.855   1.044   1.999 -2.8378 -1.4421  2.8284
  910MOL0     H25514   7.906   0.870   2.032  1.8836 -0.0069 -2.4021
  910MOL0     H25515   8.126   0.890   1.993 -0.0746 -1.2523 -3.8114
  910MOL0     H25516   8.052   0.980   1.857 -1.1982 -0.9123 -0.1492
  910MOL0     H25517   8.095   1.186   1.968  0.3078  0.3037  1.5011
  910MOL0     H25518   8.178   1.111   2.101 -1.6411 -0.9674  0.8785
  910MOL0     H25519   8.337   0.995   1.935 -1.2631 -0.2605 -0.0090
  910MOL0     H25520   8.248   1.085   1.811 -3.0438 -4.2402  0.2988
  910MOL0     H25521   8.346   1.235   2.048  0.0876  2.1984 -1.0807
  910MOL0     H25522   8.304   1.296   1.900 -0.2846  0.5644  0.4241
  910MOL0     H25523   8.538   1.113   1.963  0.3061  0.9220  0.9102
  910MOL0     H25524   8.516   1.167   1.797 -0.0504 -2.7080  1.1433
  910MOL0     H25525   8.552   1.346   2.046  1.7498 -0.5862  0.9392
  910MOL0     H25526   8.536   1.387   1.862 -3.8807  0.3377  1.1796
  910MOL0     H25527   8.764   1.240   1.993  0.8245  0.6093  0.5463
  910MOL0     H25528   8.747   1.285   1.820 -1.2624 -4.7838  0.7804
  910MOL0     H25529   8.748   1.475   2.180  0.9636 -3.3437 -0.8968
  910MOL0     H25530   8.694   1.711   2.207  1.8233  0.2313  1.6603
  910MOL0     H25531   8.765   1.829   2.098  0.4734 -1.9030 -4.7608
  910MOL0     H25532   8.994   1.705   2.224  1.7257  2.7841  0.8103
  910MOL0     H25533   8.930   1.849   2.270  2.3434 -0.8194  0.4207
  910MOL0     H25534   8.801   1.792   2.445 -2.0376 -0.3527 -0.7154
  910MOL0     H25535   8.801   1.616   2.400  0.0611 -0.5771 -1.4101
  910MOL0     H25536   9.034   1.598   2.450 -0.4509 -0.1791 -0.2954
  910MOL0     H25537   9.055   1.760   2.485  0.4537 -0.7413 -0.1159
  910MOL0     H25538   8.771   1.742   2.784 -0.7898  1.9204 -1.1674
  910MOL0     H25539   8.721   1.921   2.956  0.8969 -0.1378 -1.1796
  910MOL0     H25540   8.833   1.955   3.081 -2.7067  0.2219 -0.3841
  910MOL0     H25541   8.748   1.794   3.077 -0.0088 -1.6533 -0.6957
  910MOL0     H25542   9.022   2.126   3.192  0.7182 -1.6534  1.1443
  910MOL0     H25543   9.062   2.347   3.346  0.1903  0.4617 -2.3604
  910MOL0     H25544   9.170   2.530   3.392  2.1132  0.7387  0.0108
  910MOL0     H25545   9.113   2.436   3.547 -1.9939  3.2419  0.9416
  910MOL0     H25546   9.300   2.559   3.664 -2.2268 -0.0907  0.9272
  910MOL0     H25547   9.339   2.636   3.504 -0.4295 -0.5101 -2.3616
  910MOL0     H25548   9.124   2.701   3.699  0.7782 -0.2004  0.0783
  910MOL0     H25549   9.083   2.716   3.526 -0.5680  0.1113  0.4652
  910MOL0     H25550   9.341   2.846   3.601  0.2839 -0.0399  1.3147
  910MOL0     H25551   9.192   2.923   3.658  0.3219  0.0137 -0.6290
  910MOL0     H25552   9.113   2.930   3.417  2.0590  0.5450 -4.3785
  910MOL0     H25553   9.266   3.013   3.454  0.9427 -0.4764 -2.4468
  910MOL0     H25554   9.234   2.760   3.320 -0.9592  0.6730 -0.4355
  910MOL0     H25555   9.397   2.846   3.344  0.1372 -0.5926  2.4753
  910MOL0     H25556   9.307   3.039   3.205 -1.8934  0.0276  0.5186
  910MOL0     H25557   9.148   2.965   3.192 -0.7750  0.2609  0.7525
  910MOL0     H25558   9.253   2.779   3.050 -1.7173  1.2124 -0.5837
  910MOL0     H25559   9.418   2.844   3.099  0.3723  0.1175 -1.3691
  910MOL0     H25560   9.473   2.204   3.377 -0.2459 -3.7353  2.9909
  910MOL0     H25561   9.439   2.038   3.221  1.4704  1.0243 -0.7923
  910MOL0     H25562   9.242   1.835   2.899 -0.7755  0.1096  2.3860
  910MOL0     H25563   9.185   1.725   2.690  0.6655  0.8127  0.9139
  910MOL0     H25564   7.672   1.011   2.123 -2.2423  0.4325  1.3972
  910MOL0     H25565   7.515   0.959   2.296 -1.5737 -0.2905  4.3054
  910MOL0     H25566   7.536   0.632   2.803  0.9907  1.0702 -0.5176
  910MOL0     H25567   7.382   0.597   2.982 -0.1238 -0.5404 -0.7340
  910MOL0     H25568   7.135   0.516   3.039 -1.2614  0.4261 -1.0000
  910MOL0     H25569   7.231   0.643   3.132  1.6481  3.2520 -2.7479
  910MOL0     H25570   7.025   0.540   3.252 -0.5874  1.0043  2.0119
  910MOL0     H25571   6.928   0.598   3.121  0.3221 -1.0389 -0.7512
  910MOL0     H25572   7.088   0.775   3.318  2.5306 -1.1147 -0.6824
  910MOL0     H25573   6.983   0.826   3.171  1.6625 -2.6206 -2.4731
  910MOL0     H25574   6.894   0.851   3.411 -0.0056  1.8747 -3.0506
  910MOL0     H25575   6.870   0.682   3.431 -1.9643 -1.0620 -1.6612
  910MOL0     H25576   6.548   0.837   3.199 -1.1780 -2.4178 -1.0202
  910MOL0     H25577   7.095   0.855   2.794  0.4310 -0.9209  3.1444
  910MOL0     H25578   7.324   1.039   2.602  0.1201  1.0369  0.1465
  910MOL0     H25579   7.272   0.911   2.487  1.8163 -0.2034  0.8230
  910MOL0     H25580   7.160   0.992   2.602  0.3815  0.6480  1.1884
  911MOL0     O25581   9.317   7.360   0.945 -0.1686  0.4477  0.0126
  911MOL0     C25582   9.353   7.254   1.002 -0.3000  0.3983 -0.0405
  911MOL0     O25583   9.482   7.199   1.001  0.1962  0.3515  0.3855
  911MOL0     C25584   9.585   7.245   0.927 -1.1006  0.0433 -0.1367
  911MOL0     C25585   9.578   7.291   0.792  0.5253 -0.1297  0.2732
  911MOL0     C25586   9.691   7.337   0.726 -0.7303 -0.1245  0.0955
  911MOL0     C25587   9.816   7.329   0.794  0.9696 -0.1754  1.3712
  911MOL0     O25588   9.922   7.382   0.718 -0.3447 -0.4322 -0.5713
  911MOL0     C25589  10.039   7.436   0.790 -0.2665 -0.2244  1.1102
  911MOL0     C25590  10.101   7.530   0.677 -0.5199  0.2071  0.5192
  911MOL0     C25591  10.189   7.646   0.723 -0.4000  0.9050 -0.2276
  911MOL0     C25592  10.331   7.604   0.733 -0.3992  0.2438 -0.1843
  911MOL0     C25593  10.446   7.705   0.764 -0.6143  0.1970 -0.5159
  911MOL0     C25594  10.449   7.832   0.685  0.3490  0.0178  0.5349
  911MOL0     C25595  10.481   7.810   0.533  0.3997  0.0564 -0.0137
  911MOL0     C25596  10.506   7.943   0.447  0.4991  0.2033 -0.5679
  911MOL0     N25597  10.637   8.002   0.476  0.4967 -0.5363  0.1781
  911MOL0     C25598  10.749   7.979   0.404  1.1087  0.4646  0.1705
  911MOL0     C25599  10.842   8.065   0.453  0.3121  0.7590  0.6710
  911MOL0     C25600  10.986   8.066   0.426  0.1066  0.6808  0.5408
  911MOL0     C25601  11.067   8.013   0.540  0.6056 -0.1788  0.5142
  911MOL0     C25602  11.226   8.030   0.537 -0.3304 -0.1125  0.1894
  911MOL0     C25603  11.291   8.171   0.538 -0.5039 -0.1510  0.1065
  911MOL0     O25604  11.429   8.151   0.567  0.7430  0.2549 -0.4757
  911MOL0     C25605  11.521   8.252   0.580 -0.5812 -0.2045 -0.2077
  911MOL0     C25606  11.505   8.389   0.564  0.7553  0.4639  0.3998
  911MOL0     C25607  11.627   8.466   0.556  0.4687 -0.0625 -0.6627
  911MOL0     C25608  11.607   8.615   0.559 -0.3345 -0.3598  0.7487
  911MOL0     C25609  11.758   8.409   0.570 -0.1126 -0.0106 -0.2277
  911MOL0     C25610  11.889   8.475   0.575  0.3964 -0.4916 -0.2759
  911MOL0     O25611  11.994   8.405   0.523  0.2929 -0.0297 -0.5919
  911MOL0     C25612  12.130   8.441   0.524  0.4806  0.0716 -0.0731
  911MOL0     C25613  12.196   8.494   0.639 -0.0935 -0.1980  0.7327
  911MOL0     C25614  12.328   8.533   0.623  0.5321  0.0798 -0.2877
  911MOL0     C25615  12.399   8.516   0.506 -0.0978  0.2296  0.3607
  911MOL0     O25616  12.535   8.554   0.493 -0.5951 -0.6357  0.1576
  911MOL0     C25617  12.621   8.518   0.594 -0.4574 -0.2379  0.4852
  911MOL0     C25618  12.771   8.578   0.578 -0.2742  0.6343 -0.4599
  911MOL0     C25619  12.855   8.564   0.709 -0.0059 -0.1547  0.2020
  911MOL0     C25620  12.987   8.627   0.689  0.0955 -0.1576  0.0642
  911MOL0     C25621  13.056   8.669   0.821  0.4965  0.4610  0.1184
  911MOL0     C25622  13.180   8.758   0.805  0.2085  0.2563 -0.0735
  911MOL0     C25623  13.249   8.779   0.944 -0.7064 -0.1806 -0.8285
  911MOL0     C25624  13.361   8.880   0.943 -0.9264 -0.3879 -0.3667
  911MOL0    Cl25625  13.301   9.003   1.069 -0.6048 -0.2476  0.3457
  911MOL0     C25626  12.333   8.456   0.401 -0.6703  0.8178  0.9002
  911MOL0     C25627  12.202   8.418   0.404  0.8850 -0.2320  0.5498
  911MOL0     O25628  11.893   8.583   0.631 -0.4528  0.2217  0.2108
  911MOL0     C25629  11.761   8.268   0.574  0.2407 -0.6704  0.5711
  911MOL0     C25630  11.643   8.192   0.585 -0.1585  0.0308  0.1791
  911MOL0     N25631  10.784   8.149   0.547  0.2605 -0.3828 -0.6298
  911MOL0     N25632  10.659   8.121   0.553 -0.2222  1.2355 -0.0334
  911MOL0     C25633   9.828   7.276   0.920 -0.2791 -0.0978  0.1463
  911MOL0     C25634   9.705   7.250   0.991 -0.6476  0.0277 -0.3703
  911MOL0     C25635   9.244   7.183   1.073  0.1794  0.2148  0.5154
  911MOL0     C25636   9.286   7.143   1.200  0.7405 -0.1541 -0.4575
  911MOL0     C25637   9.194   7.097   1.296  0.0791 -0.3292  0.4487
  911MOL0     C25638   9.061   7.072   1.253  0.0202 -0.5562 -0.0982
  911MOL0     O25639   8.968   7.034   1.354 -0.2736 -0.2515  0.0612
  911MOL0     C25640   8.847   6.979   1.304 -0.0458  0.8676 -0.0350
  911MOL0     C25641   8.766   6.914   1.416  0.0991 -0.1328  0.0522
  911MOL0     C25642   8.846   6.812   1.510 -0.2013 -0.4312  0.3334
  911MOL0     C25643   8.768   6.740   1.623 -0.3680 -0.8136  0.8067
  911MOL0     C25644   8.675   6.651   1.559  0.4343  0.6220  0.0285
  911MOL0     C25645   8.615   6.563   1.498 -0.5642 -0.5333  0.5665
  911MOL0     C25646   9.019   7.105   1.123  0.2442  0.3117 -0.1706
  911MOL0     C25647   9.107   7.161   1.032  0.2414 -0.6567 -0.3484
  911MOL0     C25648   9.060   7.225   0.901 -0.2568  0.1428  0.9631
  911MOL0     H25649   9.486   7.313   0.739  2.3145  2.4346 -2.0453
  911MOL0     H25650   9.701   7.370   0.623  0.7421  0.0837  0.2763
  911MOL0     H25651  10.112   7.372   0.840  0.5503 -1.9046 -1.9538
  911MOL0     H25652   9.999   7.504   0.866 -0.9057 -0.7314  1.2394
  911MOL0     H25653  10.151   7.470   0.600 -1.7791 -3.1980  2.1536
  911MOL0     H25654  10.024   7.593   0.632 -0.7625  0.3968  1.1935
  911MOL0     H25655  10.183   7.731   0.655  0.5408  1.9079  0.9000
  911MOL0     H25656  10.160   7.663   0.827 -1.7661  1.5860 -0.6940
  911MOL0     H25657  10.346   7.516   0.797  2.1969 -0.5619 -1.7565
  911MOL0     H25658  10.367   7.560   0.640 -0.6229  0.7523 -0.5157
  911MOL0     H25659  10.544   7.659   0.752 -0.9806 -0.2723 -1.8459
  911MOL0     H25660  10.431   7.727   0.870 -1.6508  0.5235 -0.7201
  911MOL0     H25661  10.356   7.887   0.704  0.1221 -0.4984  0.9337
  911MOL0     H25662  10.526   7.902   0.718 -0.6150  1.2009  0.3561
  911MOL0     H25663  10.394   7.762   0.488  1.7572 -0.8240 -1.8495
  911MOL0     H25664  10.563   7.745   0.501  0.6615  1.1303 -1.6787
  911MOL0     H25665  10.492   7.928   0.340 -0.9221 -1.4358 -0.2162
  911MOL0     H25666  10.433   8.017   0.479 -0.4367 -1.1546  0.5929
  911MOL0     H25667  10.757   7.898   0.332  2.4138  1.1761 -0.5226
  911MOL0     H25668  11.014   8.171   0.416  1.7950  0.4662  2.4976
  911MOL0     H25669  11.008   7.993   0.347  1.5590  0.2223  1.3467
  911MOL0     H25670  11.046   8.068   0.632  2.4994  1.3942  0.1042
  911MOL0     H25671  11.030   7.911   0.553 -1.8449  0.7095  1.0665
  911MOL0     H25672  11.263   7.984   0.629 -0.4133 -1.5217 -0.4565
  911MOL0     H25673  11.264   7.985   0.445 -1.2224  1.5598 -1.0592
  911MOL0     H25674  11.295   8.217   0.439 -1.2058  2.7741  1.3440
  911MOL0     H25675  11.244   8.235   0.613  2.4822  3.7721 -1.0377
  911MOL0     H25676  11.403   8.427   0.564  0.9022  0.8657  0.2764
  911MOL0     H25677  11.616   8.652   0.457  0.5691  0.0691  0.9763
  911MOL0     H25678  11.683   8.661   0.623  0.1958 -2.2072  1.5282
  911MOL0     H25679  11.511   8.650   0.599 -1.3572 -0.0548 -1.7531
  911MOL0     H25680  12.135   8.529   0.721  0.5890  1.6378  0.5169
  911MOL0     H25681  12.380   8.574   0.709 -1.9486  2.3782  0.2590
  911MOL0     H25682  12.584   8.549   0.692 -0.7342 -0.2123  0.3718
  911MOL0     H25683  12.622   8.410   0.580 -0.1844 -0.0545 -1.1197
  911MOL0     H25684  12.822   8.515   0.504  0.2880 -0.2089  0.6088
  911MOL0     H25685  12.780   8.681   0.544  1.8792  1.3030  1.8422
  911MOL0     H25686  12.879   8.461   0.736  0.8685 -0.5282 -1.8275
  911MOL0     H25687  12.806   8.616   0.792  0.7140  2.5610 -0.9439
  911MOL0     H25688  12.966   8.722   0.639  0.6559 -0.2431 -0.3405
  911MOL0     H25689  13.046   8.561   0.624  2.6564 -0.0878  2.1511
  911MOL0     H25690  12.974   8.709   0.881  1.4888  5.4405 -1.4072
  911MOL0     H25691  13.093   8.583   0.878  1.8628  1.1689  0.3483
  911MOL0     H25692  13.161   8.856   0.761  1.6456  0.3748 -0.4980
  911MOL0     H25693  13.252   8.703   0.743 -1.6191 -1.0282 -1.1373
  911MOL0     H25694  13.287   8.689   0.993 -1.9752  0.2675  1.0785
  911MOL0     H25695  13.165   8.817   1.003 -0.7557 -2.3980  0.6563
  911MOL0     H25696  13.375   8.920   0.842  0.8237  0.7196  0.2666
  911MOL0     H25697  13.458   8.846   0.981 -1.1643 -0.1669  0.4593
  911MOL0     H25698  12.407   8.442   0.322  1.3695  4.6090  1.8665
  911MOL0     H25699  12.173   8.358   0.319 -0.9087 -0.9981  1.6577
  911MOL0     H25700  11.853   8.212   0.560  0.9017  0.8864 -1.8957
  911MOL0     H25701  11.645   8.083   0.593 -3.4518 -0.0595  1.0162
  911MOL0     H25702   9.928   7.275   0.963 -1.6782 -0.6241  3.6726
  911MOL0     H25703   9.708   7.219   1.095  1.7308  1.7302  0.1363
  911MOL0     H25704   9.393   7.146   1.220  0.7742  0.3136 -0.6914
  911MOL0     H25705   9.234   7.060   1.389  1.1228 -0.8711 -0.1959
  911MOL0     H25706   8.778   7.055   1.266  0.4283  0.5592 -1.5910
  911MOL0     H25707   8.863   6.909   1.222  0.5505 -0.2895  1.0343
  911MOL0     H25708   8.678   6.869   1.370 -0.1102  0.5375 -0.2020
  911MOL0     H25709   8.719   6.988   1.481 -0.8208  1.9694 -2.8372
  911MOL0     H25710   8.899   6.742   1.446  3.8921  1.0808  1.7635
  911MOL0     H25711   8.921   6.875   1.559  0.6737 -2.4947  1.7466
  911MOL0     H25712   8.713   6.819   1.676  1.1807  1.7480 -1.1280
  911MOL0     H25713   8.839   6.701   1.697  0.1411  0.9633  1.3288
  911MOL0     H25714   8.538   6.506   1.450 -4.3404  4.9477 -0.8289
  911MOL0     H25715   8.913   7.107   1.098  0.3545  0.9829 -0.6152
  911MOL0     H25716   8.971   7.173   0.864  0.5286 -0.5798  0.0605
  911MOL0     H25717   9.038   7.331   0.918  0.7005  0.3938  0.7174
  911MOL0     H25718   9.134   7.213   0.822 -0.4708  0.2131  0.7513
  912MOL0     O25719   2.713   2.221   0.078  0.6697  0.3912 -0.2108
  912MOL0     C25720   2.663   2.151  -0.003 -0.3673 -0.3807 -0.2534
  912MOL0     O25721   2.732   2.057  -0.074  0.5297  0.1333  0.1407
  912MOL0     C25722   2.866   2.028  -0.058 -0.3153 -0.4127  0.8194
  912MOL0     C25723   2.925   1.946  -0.162  1.0973  0.4757 -1.3866
  912MOL0     C25724   3.067   1.922  -0.155 -0.3217 -0.2370 -0.0724
  912MOL0     C25725   3.147   1.969  -0.054 -0.9298  0.0523 -0.8071
  912MOL0     O25726   3.279   1.945  -0.049 -0.2872 -0.6965  0.1947
  912MOL0     C25727   3.335   1.815  -0.089  0.9302  0.6444  0.0880
  912MOL0     C25728   3.292   1.703   0.004 -0.2761  0.7015  0.6815
  912MOL0     C25729   3.336   1.728   0.148 -0.2861 -0.0358  0.4130
  912MOL0     C25730   3.310   1.608   0.230  0.2030  0.6967 -0.2934
  912MOL0     C25731   3.353   1.621   0.382  0.4757  0.0076  0.1912
  912MOL0     C25732   3.302   1.499   0.463  0.1286  0.2023  0.2382
  912MOL0     C25733   3.359   1.524   0.596  0.2437  0.2473  0.2207
  912MOL0     C25734   3.510   1.483   0.611  0.1796  0.0940  1.0812
  912MOL0     N25735   3.556   1.489   0.749 -0.6400  0.2998 -0.0534
  912MOL0     C25736   3.487   1.472   0.866  0.1571  1.1633  0.0076
  912MOL0     C25737   3.584   1.476   0.966 -0.0131 -0.0071  0.8286
  912MOL0     C25738   3.570   1.464   1.117 -0.2426 -0.5702 -0.4001
  912MOL0     C25739   3.457   1.546   1.178  0.4797 -1.0528  0.6037
  912MOL0     C25740   3.484   1.588   1.323 -0.7061 -0.3679  0.0314
  912MOL0     C25741   3.377   1.692   1.377 -0.1020 -0.0251  1.2483
  912MOL0     O25742   3.241   1.651   1.356 -0.6034  0.6518  0.0984
  912MOL0     C25743   3.207   1.534   1.421 -0.6076 -0.3961 -0.7730
  912MOL0     C25744   3.263   1.490   1.536  0.6181 -0.2139 -0.4172
  912MOL0     C25745   3.211   1.371   1.597  0.9445  0.6243 -0.1001
  912MOL0     C25746   3.269   1.343   1.732 -0.1554 -0.1006  0.0687
  912MOL0     C25747   3.110   1.288   1.543  0.1813 -0.8641  0.7367
  912MOL0     C25748   3.052   1.158   1.598  0.4193  0.0726 -1.2724
  912MOL0     O25749   3.117   1.099   1.706  0.0138 -0.7676 -0.0540
  912MOL0     C25750   3.090   0.979   1.762  0.1642 -0.3611 -0.5862
  912MOL0     C25751   3.169   0.951   1.878  0.6407  0.5416 -0.3019
  912MOL0     C25752   3.159   0.825   1.934  0.3485 -1.0341  0.2116
  912MOL0     C25753   3.060   0.733   1.887 -0.0042  0.5839 -0.0112
  912MOL0     O25754   3.040   0.615   1.955 -0.1678 -0.3550  0.5589
  912MOL0     C25755   2.983   0.625   2.086  0.0998  0.3533  0.0984
  912MOL0     C25756   2.835   0.575   2.086  0.4153 -0.1886 -0.3716
  912MOL0     C25757   2.742   0.624   2.195 -0.0682  0.5728  0.5505
  912MOL0     C25758   2.613   0.539   2.211  0.0216 -0.5457 -0.2568
  912MOL0     C25759   2.538   0.572   2.345  0.3676  0.1642 -0.0858
  912MOL0     C25760   2.427   0.470   2.394  0.3209 -0.0008  0.6968
  912MOL0     C25761   2.389   0.362   2.288 -0.7036  0.2489  0.5713
  912MOL0     C25762   2.268   0.276   2.324  0.1265 -0.4390  0.2318
  912MOL0    Cl25763   2.129   0.385   2.373 -0.0949  0.3904  0.6782
  912MOL0     C25764   2.986   0.758   1.771  0.2509  0.0686  0.3721
  912MOL0     C25765   3.003   0.881   1.709 -0.8490  0.4094 -0.8828
  912MOL0     O25766   2.939   1.139   1.557  0.5028  0.6604 -0.1157
  912MOL0     C25767   3.057   1.338   1.427 -0.2616  0.0718  0.7937
  912MOL0     C25768   3.105   1.457   1.366 -0.0908 -0.4153  0.8356
  912MOL0     N25769   3.706   1.499   0.908  0.0208 -0.3210  0.4241
  912MOL0     N25770   3.687   1.517   0.786 -0.2940  0.2368  0.0021
  912MOL0     C25771   3.087   2.038   0.050  0.4815 -0.4997  0.0153
  912MOL0     C25772   2.947   2.059   0.055  0.1673 -0.2069  0.2089
  912MOL0     C25773   2.515   2.158  -0.029 -0.6654 -0.0837 -0.3856
  912MOL0     C25774   2.456   2.040  -0.083  0.0052 -0.1083  0.1828
  912MOL0     C25775   2.320   2.018  -0.097  0.3383 -0.2231  0.5200
  912MOL0     C25776   2.230   2.118  -0.067  0.0427 -0.0884 -0.9482
  912MOL0     O25777   2.099   2.085  -0.059 -0.0526 -0.1074 -0.6250
  912MOL0     C25778   1.996   2.182  -0.075 -0.0014  0.2639 -0.5736
  912MOL0     C25779   1.863   2.149   0.004 -1.1035  0.6804 -0.5729
  912MOL0     C25780   1.882   2.117   0.153  0.9910 -0.3603  0.3761
  912MOL0     C25781   1.769   2.187   0.236  0.3709 -0.0710  0.1961
  912MOL0     C25782   1.637   2.141   0.207  0.1507  0.2528 -0.1744
  912MOL0     C25783   1.522   2.094   0.184  0.3259 -0.6305  0.2762
  912MOL0     C25784   2.285   2.242  -0.016  0.7269  0.1291  0.3807
  912MOL0     C25785   2.419   2.262   0.008  0.1561 -0.0515  0.2424
  912MOL0     C25786   2.454   2.392   0.080 -0.5099 -0.2536 -0.7700
  912MOL0     H25787   2.871   1.924  -0.254 -0.1482  0.0315 -0.5690
  912MOL0     H25788   3.108   1.873  -0.242 -2.3415 -0.9967 -0.6613
  912MOL0     H25789   3.444   1.824  -0.095  1.1014 -0.3089  1.3226
  912MOL0     H25790   3.303   1.793  -0.191 -0.5640 -0.4264  0.7481
  912MOL0     H25791   3.185   1.682  -0.003 -0.2075 -0.5179  2.5971
  912MOL0     H25792   3.339   1.614  -0.039 -0.6793  0.5435  0.5594
  912MOL0     H25793   3.441   1.757   0.159 -0.7495  1.2545  1.6201
  912MOL0     H25794   3.283   1.809   0.199 -1.2686  0.6751 -1.6475
  912MOL0     H25795   3.202   1.591   0.220 -0.0576  2.5301 -1.0185
  912MOL0     H25796   3.361   1.516   0.197 -0.8782  0.6047 -1.8300
  912MOL0     H25797   3.310   1.713   0.422 -1.9289 -0.3633 -1.3399
  912MOL0     H25798   3.461   1.628   0.398  0.2682  0.7021  1.4734
  912MOL0     H25799   3.193   1.505   0.466  0.2140  3.5516  0.3964
  912MOL0     H25800   3.329   1.397   0.430  2.8153  1.1888 -0.9758
  912MOL0     H25801   3.301   1.475   0.674  1.1263 -2.3974 -0.6914
  912MOL0     H25802   3.351   1.629   0.625 -3.2846  1.1668 -3.1914
  912MOL0     H25803   3.536   1.386   0.567  0.4248  1.0080 -0.8674
  912MOL0     H25804   3.570   1.557   0.557 -0.1721 -1.1268 -1.1144
  912MOL0     H25805   3.381   1.452   0.882  0.1698  2.4454  2.0457
  912MOL0     H25806   3.670   1.472   1.160 -0.1306 -1.7913 -0.3735
  912MOL0     H25807   3.544   1.361   1.146 -3.4555  0.4720  0.8122
  912MOL0     H25808   3.431   1.623   1.105  1.6883 -0.4997  0.7304
  912MOL0     H25809   3.366   1.485   1.179  1.6151 -2.8266  1.0248
  912MOL0     H25810   3.489   1.496   1.383  1.1258 -1.2642 -1.3947
  912MOL0     H25811   3.581   1.637   1.337 -1.3753  0.4137  2.4680
  912MOL0     H25812   3.391   1.721   1.481  0.2521  2.5738  0.5310
  912MOL0     H25813   3.393   1.778   1.311  1.7929 -1.3061 -0.0814
  912MOL0     H25814   3.335   1.544   1.597 -1.0857  2.3251 -0.4967
  912MOL0     H25815   3.201   1.299   1.805 -0.0477 -1.4685 -0.6187
  912MOL0     H25816   3.313   1.430   1.780  0.8476 -0.5426 -0.0120
  912MOL0     H25817   3.351   1.271   1.722 -0.9639 -1.3033  1.6073
  912MOL0     H25818   3.244   1.019   1.917  0.2511 -0.0519  1.6212
  912MOL0     H25819   3.225   0.789   2.012  0.4934 -1.4276 -0.0861
  912MOL0     H25820   3.039   0.571   2.164  0.6346  0.4567 -0.2067
  912MOL0     H25821   2.971   0.732   2.106  1.7207  1.4830 -4.0141
  912MOL0     H25822   2.792   0.606   1.990  1.4534 -0.8382 -1.0658
  912MOL0     H25823   2.828   0.466   2.082  0.4747 -0.3555  2.2518
  912MOL0     H25824   2.715   0.726   2.166 -0.6917 -0.4048 -2.7062
  912MOL0     H25825   2.803   0.624   2.286  1.8014  1.6832 -0.6430
  912MOL0     H25826   2.633   0.431   2.213 -0.0177 -0.6905 -3.0305
  912MOL0     H25827   2.551   0.551   2.121 -3.0101 -4.0005  1.0606
  912MOL0     H25828   2.612   0.587   2.424 -0.7888 -1.7181  1.4105
  912MOL0     H25829   2.488   0.667   2.325 -2.4037 -1.1298  0.2124
  912MOL0     H25830   2.340   0.532   2.417  1.8612  1.7604  2.0293
  912MOL0     H25831   2.453   0.416   2.486  1.3828  2.6898  2.1011
  912MOL0     H25832   2.472   0.297   2.260 -1.3499  0.1182 -1.1237
  912MOL0     H25833   2.367   0.423   2.200  0.9650  0.3115  0.1661
  912MOL0     H25834   2.292   0.206   2.404 -1.5081 -2.2620 -0.8066
  912MOL0     H25835   2.240   0.210   2.241 -0.7430 -1.3599  1.2225
  912MOL0     H25836   2.926   0.679   1.728 -0.5264  0.1434  1.3096
  912MOL0     H25837   2.960   0.900   1.611  1.2959 -1.7646 -2.3976
  912MOL0     H25838   2.976   1.284   1.378 -0.3809 -0.1396  1.2190
  912MOL0     H25839   3.058   1.485   1.272  2.4736 -0.4741 -0.5553
  912MOL0     H25840   3.135   2.073   0.141  1.0703  0.3228 -0.6022
  912MOL0     H25841   2.905   2.117   0.137 -0.8399  0.1364 -0.5201
  912MOL0     H25842   2.522   1.963  -0.121  2.8800  3.2195 -2.1398
  912MOL0     H25843   2.279   1.924  -0.131 -0.6935  0.1400  0.7370
  912MOL0     H25844   2.036   2.279  -0.046 -0.8882  0.4398  0.1192
  912MOL0     H25845   1.967   2.195  -0.180  2.7425  0.8599 -1.3424
  912MOL0     H25846   1.814   2.060  -0.037  0.8688 -0.6021 -0.2445
  912MOL0     H25847   1.794   2.234  -0.001  0.9045  2.3067 -2.4461
  912MOL0     H25848   1.884   2.011   0.180  1.2311 -1.2469 -2.7727
  912MOL0     H25849   1.978   2.164   0.179  1.5589 -0.5319 -1.3164
  912MOL0     H25850   1.769   2.294   0.212 -1.5661 -0.5593 -2.6033
  912MOL0     H25851   1.800   2.171   0.339 -1.5700  1.8901  1.1497
  912MOL0     H25852   1.427   2.052   0.156 -0.0072 -0.0255  0.4673
  912MOL0     H25853   2.215   2.316   0.021 -0.9689 -0.9519 -0.4950
  912MOL0     H25854   2.491   2.379   0.182 -1.8083 -0.9851 -0.3739
  912MOL0     H25855   2.538   2.432   0.022 -0.8659 -1.3720 -2.1026
  912MOL0     H25856   2.374   2.466   0.082 -1.2035 -0.9769 -1.3422
  913MOL0     O25857   6.930   9.209   6.465  0.1793  0.2635 -0.4561
  913MOL0     C25858   6.828   9.150   6.502 -0.2753  0.3643 -0.6562
  913MOL0     O25859   6.814   9.010   6.500 -0.3005 -0.5500 -0.2860
  913MOL0     C25860   6.923   8.940   6.465  0.4076  0.0146 -0.4871
  913MOL0     C25861   7.029   8.917   6.557 -0.5775 -0.2532 -0.0494
  913MOL0     C25862   7.151   8.864   6.511  0.1309  0.5050  0.5086
  913MOL0     C25863   7.161   8.830   6.370  0.6280 -0.1255 -0.4873
  913MOL0     O25864   7.265   8.762   6.320  0.3138 -0.1250  0.0044
  913MOL0     C25865   7.388   8.771   6.401 -0.1877 -0.2267 -0.1578
  913MOL0     C25866   7.507   8.745   6.295  0.4098 -0.0974  0.1515
  913MOL0     C25867   7.638   8.796   6.351  0.6056 -0.6949  0.0335
  913MOL0     C25868   7.752   8.751   6.263  0.2919 -0.4897 -0.2244
  913MOL0     C25869   7.881   8.795   6.331 -0.2291  0.7331  0.1314
  913MOL0     C25870   7.930   8.710   6.449 -0.3070  0.2489  0.9402
  913MOL0     C25871   8.074   8.751   6.484  0.4070  0.2585 -0.5761
  913MOL0     C25872   8.124   8.673   6.608  0.3102 -0.2945 -0.3143
  913MOL0     N25873   8.268   8.688   6.631 -0.2120 -1.0634  0.2669
  913MOL0     C25874   8.367   8.596   6.606  0.8621  0.3127 -0.2200
  913MOL0     C25875   8.488   8.662   6.621 -0.2278  0.1824  0.0774
  913MOL0     C25876   8.623   8.611   6.588  0.0478  0.2412  0.8902
  913MOL0     C25877   8.741   8.701   6.646  0.2800  0.0091  0.6784
  913MOL0     C25878   8.864   8.624   6.639 -0.8719  1.0192 -0.3779
  913MOL0     C25879   8.996   8.697   6.668  0.1611 -0.3706 -0.9161
  913MOL0     O25880   9.023   8.807   6.575  0.6718  0.0686 -0.4050
  913MOL0     C25881   9.148   8.831   6.525 -0.3214  0.3082  0.2182
  913MOL0     C25882   9.267   8.777   6.585 -0.0418 -0.2172  0.2809
  913MOL0     C25883   9.398   8.798   6.527  0.2670  0.7829  0.9742
  913MOL0     C25884   9.517   8.731   6.591  0.0198  0.4405 -0.3640
  913MOL0     C25885   9.404   8.868   6.400  0.2618  0.4983 -0.0718
  913MOL0     C25886   9.526   8.873   6.315  0.1965  0.3332  0.4726
  913MOL0     O25887   9.644   8.821   6.363  0.0679  0.3245 -0.3152
  913MOL0     C25888   9.751   8.842   6.285 -0.6679  0.0395  0.4270
  913MOL0     C25889   9.809   8.970   6.284 -0.2686 -0.5781 -0.1191
  913MOL0     C25890   9.917   9.005   6.202 -0.2642  0.4473 -0.3995
  913MOL0     C25891   9.967   8.913   6.114 -0.8538 -0.8204  0.1205
  913MOL0     O25892  10.075   8.944   6.039 -0.2210 -0.3573 -0.1773
  913MOL0     C25893  10.064   8.913   5.901 -0.0528  0.4850  0.0603
  913MOL0     C25894  10.117   9.038   5.842 -0.2065 -0.2999  1.2515
  913MOL0     C25895  10.259   9.061   5.882  0.6126 -0.2532 -0.1771
  913MOL0     C25896  10.270   9.198   5.940 -0.8942 -0.7987 -0.3971
  913MOL0     C25897  10.417   9.222   5.967  0.3649 -0.6406  0.1937
  913MOL0     C25898  10.446   9.366   6.035 -0.3017 -0.2882 -0.3393
  913MOL0     C25899  10.380   9.484   5.971  0.6343 -0.3683  0.2803
  913MOL0     C25900  10.418   9.523   5.826  0.2811  0.2327  0.0457
  913MOL0    Cl25901  10.599   9.565   5.834 -0.3507  0.1549  0.3316
  913MOL0     C25902   9.911   8.783   6.117 -0.4073  0.0815  0.0830
  913MOL0     C25903   9.804   8.744   6.196  0.0733  0.6397  0.0244
  913MOL0     O25904   9.509   8.929   6.205  0.2873  0.7080 -0.9509
  913MOL0     C25905   9.283   8.912   6.346  0.2444 -0.1835 -0.6176
  913MOL0     C25906   9.158   8.902   6.403 -0.7017 -1.1139  0.3783
  913MOL0     N25907   8.459   8.796   6.659 -0.5989  0.3007 -0.1125
  913MOL0     N25908   8.326   8.813   6.658 -0.1899  0.0824 -0.2368
  913MOL0     C25909   7.060   8.857   6.283 -0.1922  0.3238  0.7863
  913MOL0     C25910   6.937   8.909   6.319 -0.6396 -0.1637  0.3727
  913MOL0     C25911   6.707   9.231   6.550 -0.4481  0.0203 -0.2494
  913MOL0     C25912   6.601   9.152   6.594  0.0451  0.1194 -0.4709
  913MOL0     C25913   6.489   9.208   6.653  0.6139 -0.1470  0.1137
  913MOL0     C25914   6.488   9.346   6.684  0.5008 -0.6168 -0.0210
  913MOL0     O25915   6.394   9.412   6.762 -0.4233  0.0542 -0.2324
  913MOL0     C25916   6.321   9.333   6.858 -0.6122 -0.9267 -0.3301
  913MOL0     C25917   6.228   9.439   6.911  0.2027 -0.7289 -0.0639
  913MOL0     C25918   6.288   9.520   7.031 -0.2655  0.2118 -0.3130
  913MOL0     C25919   6.301   9.446   7.157  0.5141  1.1680 -0.1700
  913MOL0     C25920   6.346   9.525   7.263  0.4870 -0.2713  0.0740
  913MOL0     C25921   6.384   9.598   7.357  1.0065  0.2186  0.0769
  913MOL0     C25922   6.582   9.428   6.621  0.1815  0.7881 -0.1211
  913MOL0     C25923   6.694   9.370   6.561  1.0629 -0.1083  0.1946
  913MOL0     C25924   6.806   9.468   6.532 -0.9579  0.0506 -0.3833
  913MOL0     H25925   7.020   8.944   6.662  0.2475 -0.3512  0.0601
  913MOL0     H25926   7.229   8.840   6.582  1.2766 -0.1912 -0.9409
  913MOL0     H25927   7.388   8.707   6.489 -0.8937  1.8146  1.4201
  913MOL0     H25928   7.408   8.870   6.443 -1.4917 -0.4643  1.1047
  913MOL0     H25929   7.515   8.639   6.268 -1.1908  0.2521 -1.9094
  913MOL0     H25930   7.491   8.792   6.198  1.6131  0.1741  0.0666
  913MOL0     H25931   7.634   8.905   6.357 -0.4559 -0.8191  3.1331
  913MOL0     H25932   7.659   8.750   6.447 -0.7179  0.4128  0.8928
  913MOL0     H25933   7.740   8.645   6.237  1.7423 -0.3862 -1.4575
  913MOL0     H25934   7.743   8.809   6.170 -2.3930  0.2570  0.4161
  913MOL0     H25935   7.885   8.902   6.354  0.4275  0.7600 -0.0928
  913MOL0     H25936   7.955   8.775   6.253 -0.1575  0.5698  0.2409
  913MOL0     H25937   7.866   8.727   6.536  0.8066  0.4435  1.7473
  913MOL0     H25938   7.926   8.604   6.423 -0.4811  0.4928 -0.0723
  913MOL0     H25939   8.074   8.858   6.506 -2.2530  0.1455  0.2488
  913MOL0     H25940   8.142   8.730   6.400 -0.0155  1.5108 -1.2526
  913MOL0     H25941   8.080   8.709   6.701  2.2190 -0.5519  0.7451
  913MOL0     H25942   8.099   8.566   6.605 -0.6145 -0.1234  0.7085
  913MOL0     H25943   8.359   8.493   6.571 -0.2913 -0.9639  3.3049
  913MOL0     H25944   8.637   8.609   6.479 -0.6078  2.5412  0.7099
  913MOL0     H25945   8.618   8.508   6.624 -0.3061  0.2951  0.9950
  913MOL0     H25946   8.763   8.795   6.595  1.1433 -0.7123 -0.3198
  913MOL0     H25947   8.726   8.729   6.750 -1.4189 -2.5438  1.2105
  913MOL0     H25948   8.854   8.539   6.707 -2.1032  2.0605  0.7858
  913MOL0     H25949   8.868   8.597   6.532 -0.4979 -0.3628 -0.0363
  913MOL0     H25950   8.991   8.727   6.773  2.5350 -2.4020 -0.1236
  913MOL0     H25951   9.075   8.621   6.677  1.7759  1.4026  0.7368
  913MOL0     H25952   9.265   8.737   6.686 -0.6620  4.7546  2.5340
  913MOL0     H25953   9.552   8.644   6.535 -0.4323 -0.2888  0.4550
  913MOL0     H25954   9.497   8.686   6.689  4.5736 -3.5936 -0.9226
  913MOL0     H25955   9.595   8.798   6.629  0.2706 -1.6054  3.1561
  913MOL0     H25956   9.765   9.041   6.354  2.5502  0.9373  0.2809
  913MOL0     H25957   9.964   9.102   6.221 -0.2452  0.5170 -0.7899
  913MOL0     H25958  10.126   8.826   5.876  1.1951  1.3217  0.1290
  913MOL0     H25959   9.963   8.891   5.867 -0.4247 -1.1462  2.0554
  913MOL0     H25960  10.105   9.041   5.733  2.2013  0.8194  0.9605
  913MOL0     H25961  10.055   9.121   5.877  0.3478  0.7056 -0.0543
  913MOL0     H25962  10.340   9.043   5.812  2.0144 -0.5743  1.4686
  913MOL0     H25963  10.290   8.998   5.966  3.1244 -0.2720 -1.0592
  913MOL0     H25964  10.218   9.216   6.034  3.3013  1.4090  1.7779
  913MOL0     H25965  10.232   9.270   5.866 -1.1683 -0.3308  0.1891
  913MOL0     H25966  10.449   9.136   6.026  2.6159 -0.7792 -1.1224
  913MOL0     H25967  10.484   9.216   5.881  2.4472 -1.1555  1.7795
  913MOL0     H25968  10.552   9.392   6.029 -0.8031  1.7007 -1.5665
  913MOL0     H25969  10.418   9.358   6.140 -1.1168  1.8632 -0.3415
  913MOL0     H25970  10.392   9.571   6.037  2.2695 -1.0488  0.9265
  913MOL0     H25971  10.273   9.463   5.959  0.8602 -3.6017  2.6821
  913MOL0     H25972  10.358   9.608   5.791 -1.6895 -1.6965 -1.5873
  913MOL0     H25973  10.400   9.438   5.759 -2.1705  1.9295 -1.6084
  913MOL0     H25974   9.973   8.718   6.055 -0.8044  0.5057 -0.7751
  913MOL0     H25975   9.781   8.638   6.188  0.7203  0.5123 -0.1821
  913MOL0     H25976   9.282   8.957   6.248  0.7692 -1.4236 -1.2197
  913MOL0     H25977   9.062   8.928   6.359 -0.1463  1.4565  0.5177
  913MOL0     H25978   7.081   8.812   6.186 -1.1109  1.7985 -0.1353
  913MOL0     H25979   6.864   8.913   6.238 -1.2565 -2.7385  0.7107
  913MOL0     H25980   6.594   9.045   6.578  1.6191 -0.3925  1.7076
  913MOL0     H25981   6.407   9.146   6.686 -1.5415  2.6508  0.4254
  913MOL0     H25982   6.260   9.255   6.811 -2.5008  0.3034 -0.0257
  913MOL0     H25983   6.378   9.298   6.945 -0.5826 -1.6939 -0.6481
  913MOL0     H25984   6.137   9.388   6.944  1.0996 -1.0768  2.0033
  913MOL0     H25985   6.205   9.510   6.830 -0.0529 -0.4598  0.2413
  913MOL0     H25986   6.390   9.549   7.005  0.8953 -2.4562  0.8716
  913MOL0     H25987   6.229   9.610   7.050  2.7976  2.4054 -0.3604
  913MOL0     H25988   6.365   9.359   7.141  0.4961  0.6246  2.3097
  913MOL0     H25989   6.202   9.416   7.192  0.8959  2.3742  2.1285
  913MOL0     H25990   6.414   9.652   7.444  0.2060  0.4052  0.2489
  913MOL0     H25991   6.567   9.536   6.629 -1.1054  0.6454 -0.3667
  913MOL0     H25992   6.822   9.466   6.424  0.6983  0.4063 -0.1684
  913MOL0     H25993   6.801   9.570   6.573  1.2906  0.2690 -0.5635
  913MOL0     H25994   6.895   9.426   6.580 -0.1615  3.2579  1.2410
  914MOL0     O25995   2.898  10.921   3.189 -0.0361 -0.0381 -0.5374
  914MOL0     C25996   2.787  10.945   3.238 -0.3213  0.3504 -0.5696
  914MOL0     O25997   2.769  11.002   3.365 -0.1918  0.0955  0.5131
  914MOL0     C25998   2.870  11.076   3.429  0.3433  0.4211 -0.1904
  914MOL0     C25999   2.846  11.106   3.559  0.1256 -0.1507  0.5189
  914MOL0     C26000   2.932  11.193   3.635  0.0412 -0.4920 -0.3335
  914MOL0     C26001   3.043  11.246   3.573  0.0775  0.5010  0.5482
  914MOL0     O26002   3.123  11.324   3.653 -0.3185  0.7626 -0.4093
  914MOL0     C26003   3.226  11.409   3.602  0.1792 -0.0414 -0.3931
  914MOL0     C26004   3.283  11.492   3.718 -0.2787  0.9023  0.0443
  914MOL0     C26005   3.373  11.620   3.680  1.3536 -0.3177 -0.0990
  914MOL0     C26006   3.510  11.573   3.624  0.2158 -0.7011  0.2656
  914MOL0     C26007   3.596  11.688   3.567 -0.1470 -0.2793 -0.0515
  914MOL0     C26008   3.703  11.643   3.467 -0.5734 -0.8434 -0.3995
  914MOL0     C26009   3.784  11.761   3.404 -0.2734 -0.7311  0.1127
  914MOL0     C26010   3.856  11.841   3.515 -0.4191 -0.6092  1.3511
  914MOL0     N26011   3.950  11.936   3.451 -0.3796  0.4377  0.0950
  914MOL0     C26012   4.070  11.899   3.390  0.0287 -0.0845  0.4385
  914MOL0     C26013   4.137  12.021   3.381 -0.7324 -0.6239  0.3601
  914MOL0     C26014   4.270  12.041   3.311 -0.1117 -0.0756 -0.8289
  914MOL0     C26015   4.268  12.158   3.215  0.1498  0.2212  0.0049
  914MOL0     C26016   4.407  12.152   3.146  0.3709 -0.1579  0.2494
  914MOL0     C26017   4.401  12.250   3.026  0.8387 -1.1502 -0.1367
  914MOL0     O26018   4.408  12.387   3.071 -0.5248  0.1304 -0.4324
  914MOL0     C26019   4.527  12.429   3.122 -0.2566  0.1164 -0.0300
  914MOL0     C26020   4.514  12.550   3.183 -0.1680  0.3623 -0.6266
  914MOL0     C26021   4.623  12.631   3.212  0.6166  0.1105 -0.0850
  914MOL0     C26022   4.602  12.761   3.282 -0.4542 -0.4647 -0.0375
  914MOL0     C26023   4.750  12.577   3.192 -0.4399 -0.2506  0.2321
  914MOL0     C26024   4.870  12.639   3.241 -0.1164  0.2549  0.0127
  914MOL0     O26025   4.967  12.624   3.147  0.0847 -0.5705 -0.2739
  914MOL0     C26026   5.096  12.653   3.179 -0.2884  0.3478  0.7244
  914MOL0     C26027   5.169  12.574   3.275  0.1980  0.3079 -0.5295
  914MOL0     C26028   5.295  12.610   3.313 -0.2699 -0.8271  0.1250
  914MOL0     C26029   5.364  12.722   3.249 -0.5255  0.4186  0.4874
  914MOL0     O26030   5.493  12.741   3.304  0.8983 -1.0496 -0.2802
  914MOL0     C26031   5.576  12.834   3.241 -0.0452  0.0843 -0.6482
  914MOL0     C26032   5.724  12.814   3.284  0.6663 -0.1184 -0.3088
  914MOL0     C26033   5.771  12.665   3.305 -0.7515  0.1044 -0.2189
  914MOL0     C26034   5.922  12.658   3.328  0.1107 -0.8350 -0.3095
  914MOL0     C26035   5.957  12.518   3.374 -0.0642 -0.9042  0.4461
  914MOL0     C26036   6.105  12.507   3.425 -0.1595 -0.1113 -0.5044
  914MOL0     C26037   6.142  12.362   3.463 -0.1719  0.1636  0.7120
  914MOL0     C26038   6.294  12.351   3.464  0.2544 -0.3176 -0.5321
  914MOL0    Cl26039   6.326  12.180   3.479 -0.1380  0.1594 -0.2828
  914MOL0     C26040   5.286  12.785   3.144  0.3825 -0.3619  0.5314
  914MOL0     C26041   5.158  12.756   3.107  0.2927 -0.1945 -0.1092
  914MOL0     O26042   4.886  12.682   3.356 -0.2751  0.2538  0.3368
  914MOL0     C26043   4.757  12.456   3.119 -0.5334 -0.7115  0.0904
  914MOL0     C26044   4.652  12.375   3.087 -0.3875  0.1047  0.1903
  914MOL0     N26045   4.050  12.122   3.421  0.2698  1.0022  0.1405
  914MOL0     N26046   3.938  12.066   3.463 -0.4044  0.1175 -0.2321
  914MOL0     C26047   3.064  11.218   3.439 -0.4681  0.2624  0.0012
  914MOL0     C26048   2.979  11.135   3.362  0.0299  0.3874 -0.2060
  914MOL0     C26049   2.665  10.874   3.177 -0.2320 -0.1652 -0.2090
  914MOL0     C26050   2.686  10.807   3.052 -0.1478  0.6798 -1.1452
  914MOL0     C26051   2.587  10.750   2.980 -0.3235 -0.0165 -0.0791
  914MOL0     C26052   2.461  10.760   3.028 -0.0663 -0.3206  0.0322
  914MOL0     O26053   2.372  10.691   2.951  0.8444  1.1180 -0.1140
  914MOL0     C26054   2.220  10.696   2.955 -0.0186 -0.6305  0.1762
  914MOL0     C26055   2.156  10.552   2.976 -0.3095  0.3924 -0.4525
  914MOL0     C26056   2.193  10.492   3.116  0.0401 -0.3707  0.5673
  914MOL0     C26057   2.100  10.382   3.161  0.2707 -0.3364 -0.6414
  914MOL0     C26058   2.142  10.318   3.287 -0.3855 -0.4530  0.2330
  914MOL0     C26059   2.186  10.261   3.381  0.7790 -1.0160  0.0035
  914MOL0     C26060   2.430  10.825   3.147  0.1675  0.0284  0.0888
  914MOL0     C26061   2.531  10.876   3.233 -0.3865 -0.0589  0.3245
  914MOL0     C26062   2.493  10.926   3.367  0.1847  0.8740 -0.2479
  914MOL0     H26063   2.754  11.070   3.604  0.8821 -2.8764  0.0974
  914MOL0     H26064   2.913  11.205   3.741  1.5860 -0.6422 -0.0228
  914MOL0     H26065   3.171  11.472   3.532 -1.9670 -1.7923 -0.3940
  914MOL0     H26066   3.298  11.353   3.541 -2.3611 -3.4610 -0.5357
  914MOL0     H26067   3.194  11.522   3.774  0.2983  0.7988  1.0482
  914MOL0     H26068   3.352  11.435   3.781  0.9558  1.4441 -0.7647
  914MOL0     H26069   3.324  11.683   3.606  0.7159  2.7199  2.6856
  914MOL0     H26070   3.396  11.685   3.765 -2.3866 -1.6984  2.2341
  914MOL0     H26071   3.569  11.528   3.704  0.6462  1.7932  1.4500
  914MOL0     H26072   3.504  11.488   3.555 -0.5135  0.0603 -0.6376
  914MOL0     H26073   3.647  11.741   3.648 -3.0569  1.4521  0.8105
  914MOL0     H26074   3.526  11.760   3.522 -1.3235 -1.5950 -0.3944
  914MOL0     H26075   3.774  11.573   3.512 -1.1078 -0.8479  0.4630
  914MOL0     H26076   3.664  11.580   3.387  0.0920 -0.6579 -0.8883
  914MOL0     H26077   3.725  11.830   3.342 -1.8388 -1.7347  0.4557
  914MOL0     H26078   3.858  11.722   3.334  1.2986 -0.2534  1.4458
  914MOL0     H26079   3.788  11.895   3.582 -0.9431 -2.3855  2.3418
  914MOL0     H26080   3.916  11.777   3.580  0.1269 -0.3288  1.1249
  914MOL0     H26081   4.095  11.801   3.351  1.0773  1.4356 -3.0874
  914MOL0     H26082   4.301  11.950   3.261 -0.7706  0.1568 -1.6940
  914MOL0     H26083   4.342  12.053   3.392  1.3034 -1.2821 -1.8686
  914MOL0     H26084   4.196  12.152   3.134  0.2523  0.7127 -0.1274
  914MOL0     H26085   4.255  12.252   3.271  0.1443 -0.2287  0.7803
  914MOL0     H26086   4.495  12.182   3.204  1.1628 -0.0909 -0.9629
  914MOL0     H26087   4.423  12.056   3.096 -0.1505 -0.1331  0.0307
  914MOL0     H26088   4.472  12.224   2.946 -0.5970  0.0729 -1.8914
  914MOL0     H26089   4.306  12.229   2.976  0.9556 -0.3153 -0.7227
  914MOL0     H26090   4.421  12.606   3.192  0.2668  1.5882 -2.9827
  914MOL0     H26091   4.675  12.831   3.242  0.1113 -2.1853 -2.2643
  914MOL0     H26092   4.611  12.742   3.389  1.2169 -1.2844 -0.2915
  914MOL0     H26093   4.502  12.801   3.265 -0.2205  0.9900  1.6742
  914MOL0     H26094   5.113  12.490   3.314 -1.6574  1.6220 -0.2116
  914MOL0     H26095   5.345  12.548   3.386  0.3574 -0.0259  0.3983
  914MOL0     H26096   5.564  12.832   3.132  0.2722  1.3906 -0.7281
  914MOL0     H26097   5.538  12.930   3.277  1.5282  0.1543  0.9696
  914MOL0     H26098   5.784  12.862   3.206  1.9610 -2.9001 -1.1600
  914MOL0     H26099   5.726  12.868   3.379 -1.5964 -1.9277  0.8512
  914MOL0     H26100   5.741  12.599   3.224  0.1025 -1.5625  0.7818
  914MOL0     H26101   5.708  12.628   3.386 -0.0703 -0.4712  0.0593
  914MOL0     H26102   5.957  12.730   3.403  0.1925 -1.0948 -0.0981
  914MOL0     H26103   5.969  12.693   3.235  0.5136  1.5929  0.7416
  914MOL0     H26104   5.881  12.501   3.452 -1.3513  2.3093  0.0207
  914MOL0     H26105   5.951  12.448   3.290  1.7423 -1.4654  0.7429
  914MOL0     H26106   6.127  12.580   3.503  0.1243 -0.4090 -0.3043
  914MOL0     H26107   6.167  12.524   3.336  1.8255 -1.9302  0.4407
  914MOL0     H26108   6.108  12.289   3.390 -0.0392 -1.5644  2.2889
  914MOL0     H26109   6.103  12.337   3.563  0.1601 -0.7437  0.6206
  914MOL0     H26110   6.335  12.417   3.541 -0.8233  3.0285 -2.6246
  914MOL0     H26111   6.325  12.377   3.363 -1.1745  1.6863 -0.5269
  914MOL0     H26112   5.344  12.864   3.098 -0.4040 -1.4764 -2.6069
  914MOL0     H26113   5.120  12.824   3.031  0.4080 -0.7270 -0.6483
  914MOL0     H26114   4.858  12.423   3.099  0.2370  2.6934 -2.6186
  914MOL0     H26115   4.677  12.284   3.033 -1.8770  0.6252 -1.4351
  914MOL0     H26116   3.135  11.282   3.388 -1.3413  2.1416  1.0194
  914MOL0     H26117   2.992  11.135   3.254  2.2785  0.8059  0.0202
  914MOL0     H26118   2.790  10.818   3.021  0.6647 -0.8573  0.8753
  914MOL0     H26119   2.602  10.717   2.878 -0.0795 -0.4064  0.0803
  914MOL0     H26120   2.189  10.775   3.024  2.7654  0.0888  0.7423
  914MOL0     H26121   2.179  10.726   2.858  1.2037 -0.5844 -0.3517
  914MOL0     H26122   2.189  10.488   2.893 -3.9126 -0.5981 -1.3306
  914MOL0     H26123   2.047  10.560   2.969 -0.3168 -0.2925 -1.2226
  914MOL0     H26124   2.293  10.448   3.114 -0.3105 -1.1693  0.2014
  914MOL0     H26125   2.193  10.578   3.184  2.3914  0.3092 -0.2039
  914MOL0     H26126   2.097  10.306   3.082  1.9776  1.1236 -2.2081
  914MOL0     H26127   2.008  10.438   3.180  1.3585  0.9726  1.0695
  914MOL0     H26128   2.204  10.203   3.470 -1.1928 -1.1498  0.3726
  914MOL0     H26129   2.333  10.841   3.194  0.4746 -0.6027  0.9780
  914MOL0     H26130   2.385  10.924   3.383  0.6522 -1.3235  4.1377
  914MOL0     H26131   2.542  10.865   3.443  0.8897 -3.4559 -3.7670
  914MOL0     H26132   2.523  11.028   3.392 -3.9313  2.7750 -2.1198
  915MOL0     O26133   8.460   0.372   9.039 -0.0777  0.2246 -0.5333
  915MOL0     C26134   8.451   0.306   9.141  0.2520  0.4241  0.2017
  915MOL0     O26135   8.560   0.247   9.209 -0.3545 -0.4484 -0.8478
  915MOL0     C26136   8.659   0.328   9.220 -0.5721  0.3534 -1.1170
  915MOL0     C26137   8.666   0.418   9.325 -0.3126 -0.1669  0.3398
  915MOL0     C26138   8.786   0.495   9.345 -0.0896 -0.1347 -0.8256
  915MOL0     C26139   8.889   0.491   9.252  0.0091  0.1592  0.6027
  915MOL0     O26140   8.981   0.595   9.274  0.2684  0.7005 -0.7646
  915MOL0     C26141   9.021   0.675   9.167 -0.5314 -0.5334  0.7908
  915MOL0     C26142   9.172   0.656   9.137  0.3382  0.9207  1.1471
  915MOL0     C26143   9.227   0.742   9.028  0.3433  0.0233  0.1755
  915MOL0     C26144   9.375   0.718   9.013  0.5420  0.3872 -0.2345
  915MOL0     C26145   9.446   0.811   8.920  0.9118 -0.9602 -0.2344
  915MOL0     C26146   9.562   0.743   8.860  0.2463  0.1861 -0.1294
  915MOL0     C26147   9.661   0.832   8.773 -0.1074  0.2158 -0.2677
  915MOL0     C26148   9.757   0.913   8.862 -0.5916  0.5900  0.9688
  915MOL0     N26149   9.878   0.845   8.923  0.1954 -0.3701 -0.0858
  915MOL0     C26150   9.998   0.848   8.858 -0.1529  0.2618  0.7288
  915MOL0     C26151  10.079   0.786   8.941  1.7644  0.8685 -0.5567
  915MOL0     C26152  10.224   0.774   8.920  0.2733  0.3686 -0.2074
  915MOL0     C26153  10.272   0.651   8.843 -0.6326 -0.3283 -0.0708
  915MOL0     C26154  10.423   0.652   8.839 -0.4573 -0.2507 -0.7389
  915MOL0     C26155  10.474   0.507   8.829  0.6701 -0.2874 -0.7197
  915MOL0     O26156  10.612   0.494   8.835  0.2896  0.5343 -0.3205
  915MOL0     C26157  10.662   0.376   8.795 -0.1810 -0.5672  0.2445
  915MOL0     C26158  10.636   0.321   8.670 -0.2398 -0.4131 -0.7077
  915MOL0     C26159  10.686   0.195   8.631 -0.4434 -0.2153 -0.1658
  915MOL0     C26160  10.645   0.152   8.494  0.4643 -0.1660  0.7126
  915MOL0     C26161  10.781   0.127   8.716 -0.3597  0.4387  0.2224
  915MOL0     C26162  10.842  -0.012   8.684 -0.2808  0.3596 -0.1636
  915MOL0     O26163  10.962  -0.039   8.743 -0.4847 -0.8365 -0.0216
  915MOL0     C26164  11.035  -0.151   8.713  0.0594 -0.8357  0.4354
  915MOL0     C26165  11.020  -0.236   8.602 -0.4399  1.1425  0.1560
  915MOL0     C26166  11.106  -0.346   8.588  0.3740  0.3774  0.4184
  915MOL0     C26167  11.199  -0.377   8.680 -0.1398  0.3592  0.8718
  915MOL0     O26168  11.279  -0.484   8.671 -0.8842 -0.3025 -0.5455
  915MOL0     C26169  11.348  -0.491   8.545 -0.4008 -1.9610  0.2602
  915MOL0     C26170  11.492  -0.446   8.563  0.5781 -0.0892 -0.5182
  915MOL0     C26171  11.564  -0.540   8.655  0.0594 -0.0591 -0.0633
  915MOL0     C26172  11.717  -0.516   8.658  0.4954  0.0951 -0.4220
  915MOL0     C26173  11.778  -0.617   8.756  0.2835 -0.3716  0.1142
  915MOL0     C26174  11.919  -0.641   8.732 -0.9091  0.2085 -0.5598
  915MOL0     C26175  11.966  -0.765   8.795 -0.1404 -0.6401 -0.0999
  915MOL0     C26176  12.117  -0.781   8.781 -0.1891 -0.4162  0.2758
  915MOL0    Cl26177  12.190  -0.899   8.899 -0.2885  0.0726 -0.1064
  915MOL0     C26178  11.222  -0.296   8.793  1.0110  0.3185  0.1232
  915MOL0     C26179  11.129  -0.189   8.809  0.2823 -0.2511 -0.2859
  915MOL0     O26180  10.766  -0.088   8.636  0.5198  0.5689  0.3362
  915MOL0     C26181  10.817   0.199   8.833  0.0824  0.0918 -0.2924
  915MOL0     C26182  10.758   0.320   8.871  0.4863  0.2803 -0.5112
  915MOL0     N26183  10.011   0.740   9.058 -0.3383  0.1346  0.4208
  915MOL0     N26184   9.884   0.778   9.043 -0.5127  0.6653 -0.3182
  915MOL0     C26185   8.878   0.413   9.140  0.3204  0.0518  0.8179
  915MOL0     C26186   8.764   0.327   9.131  0.8254  0.7382 -0.2617
  915MOL0     C26187   8.306   0.269   9.179 -0.7924 -0.5233 -0.3770
  915MOL0     C26188   8.206   0.323   9.091  0.5899 -0.1307 -0.2654
  915MOL0     C26189   8.076   0.293   9.102 -0.4317 -0.0485  0.6850
  915MOL0     C26190   8.029   0.222   9.206 -0.9403  0.3810 -0.1981
  915MOL0     O26191   7.893   0.204   9.207  0.3967 -0.1474 -0.0597
  915MOL0     C26192   7.823   0.161   9.327 -0.3314  0.7822  0.6729
  915MOL0     C26193   7.720   0.252   9.395 -0.6947  0.4223  0.6751
  915MOL0     C26194   7.603   0.172   9.460  0.5215 -0.2579 -0.1268
  915MOL0     C26195   7.485   0.261   9.528 -0.1890 -0.2567  0.2009
  915MOL0     C26196   7.531   0.341   9.645 -0.3004  1.1416  0.5041
  915MOL0     C26197   7.591   0.406   9.725  0.4669 -0.1935 -0.5487
  915MOL0     C26198   8.134   0.164   9.296  0.0462 -0.1752 -0.4113
  915MOL0     C26199   8.274   0.184   9.287 -0.1953  0.0854 -0.2324
  915MOL0     C26200   8.369   0.110   9.382 -0.3195  0.3803 -0.2535
  915MOL0     H26201   8.581   0.413   9.393 -0.9164 -0.3880 -0.4087
  915MOL0     H26202   8.805   0.560   9.429  1.0863  0.2228 -1.3414
  915MOL0     H26203   9.006   0.783   9.181  0.7507 -0.2060 -0.1226
  915MOL0     H26204   8.956   0.652   9.081  0.7840 -0.1629 -0.3426
  915MOL0     H26205   9.245   0.684   9.213  0.5418  0.8029  0.9957
  915MOL0     H26206   9.184   0.553   9.105 -3.5770  0.0173  2.0692
  915MOL0     H26207   9.173   0.737   8.933  1.3610 -0.7747 -0.3895
  915MOL0     H26208   9.210   0.840   9.074 -0.6777  0.8598 -1.8388
  915MOL0     H26209   9.433   0.725   9.105 -1.1222  3.0394  0.7309
  915MOL0     H26210   9.379   0.617   8.972  1.3685  1.0369 -1.8159
  915MOL0     H26211   9.480   0.894   8.982  0.6443 -0.6414 -0.5078
  915MOL0     H26212   9.374   0.851   8.848 -0.7860  0.0332  1.8788
  915MOL0     H26213   9.620   0.701   8.943 -0.5254 -0.9326 -0.1399
  915MOL0     H26214   9.524   0.662   8.798 -0.7985 -0.7424  1.6519
  915MOL0     H26215   9.608   0.898   8.703 -0.6890 -1.3220 -1.3382
  915MOL0     H26216   9.720   0.758   8.719  0.1008  1.0102 -1.1626
  915MOL0     H26217   9.793   0.999   8.804 -0.3851 -1.2910 -1.8696
  915MOL0     H26218   9.696   0.938   8.949 -2.7774  2.1863 -0.8849
  915MOL0     H26219  10.027   0.897   8.765  2.4306 -1.7815  0.3381
  915MOL0     H26220  10.262   0.761   9.022 -0.3084 -1.9988 -0.2277
  915MOL0     H26221  10.266   0.868   8.882 -2.6715  2.1523  0.6246
  915MOL0     H26222  10.242   0.569   8.910  1.6213 -1.3832 -0.2504
  915MOL0     H26223  10.232   0.648   8.741 -0.0001  0.0161 -0.3323
  915MOL0     H26224  10.451   0.712   8.753  0.4381  0.0586 -0.2490
  915MOL0     H26225  10.466   0.692   8.932  1.3235 -4.2819  0.4073
  915MOL0     H26226  10.441   0.448   8.915  0.1557  2.3165  1.0146
  915MOL0     H26227  10.428   0.449   8.748 -0.2694 -4.1039  2.2645
  915MOL0     H26228  10.552   0.361   8.615 -2.2436  1.7889  3.4425
  915MOL0     H26229  10.546   0.104   8.488  0.1484  0.6773 -1.7056
  915MOL0     H26230  10.720   0.088   8.448  0.9757 -0.9088  2.4962
  915MOL0     H26231  10.631   0.245   8.439 -0.1645 -1.0392 -0.6433
  915MOL0     H26232  10.948  -0.215   8.523 -2.1422 -5.6868 -0.7903
  915MOL0     H26233  11.102  -0.405   8.496  2.4159  0.1558  0.4395
  915MOL0     H26234  11.354  -0.593   8.506 -0.1252 -2.4335  1.4891
  915MOL0     H26235  11.295  -0.422   8.479 -1.2083  0.9733  3.6640
  915MOL0     H26236  11.527  -0.458   8.460 -2.4884 -1.4891 -1.5065
  915MOL0     H26237  11.501  -0.341   8.594 -0.5533 -0.1274 -0.0282
  915MOL0     H26238  11.548  -0.641   8.617 -2.1147 -0.1637  1.0145
  915MOL0     H26239  11.521  -0.542   8.755 -0.4221 -5.4845 -0.0966
  915MOL0     H26240  11.741  -0.413   8.685  2.2049  0.1455 -1.9629
  915MOL0     H26241  11.765  -0.537   8.562  1.9194 -2.2264  0.7215
  915MOL0     H26242  11.762  -0.570   8.854 -0.9740 -1.2484  0.3590
  915MOL0     H26243  11.727  -0.713   8.743 -0.2010  0.0864 -1.6873
  915MOL0     H26244  11.980  -0.559   8.772  1.4518 -1.3580 -0.6858
  915MOL0     H26245  11.936  -0.627   8.625 -0.0969  0.2724 -0.4293
  915MOL0     H26246  11.919  -0.846   8.739  1.1696  0.4802 -3.0538
  915MOL0     H26247  11.935  -0.768   8.900  2.1059  0.1314  0.6530
  915MOL0     H26248  12.168  -0.685   8.795  1.2311 -0.8852 -1.3333
  915MOL0     H26249  12.138  -0.808   8.677 -2.8516 -1.1183 -0.1372
  915MOL0     H26250  11.303  -0.320   8.861 -1.5314 -3.3559  2.2103
  915MOL0     H26251  11.127  -0.125   8.897 -2.0348 -1.0643  0.3325
  915MOL0     H26252  10.886   0.160   8.908 -0.8950 -0.7158  0.2053
  915MOL0     H26253  10.793   0.368   8.961 -1.4344  0.8140  0.0075
  915MOL0     H26254   8.960   0.407   9.069  0.7059  0.0180  1.2550
  915MOL0     H26255   8.756   0.261   9.045 -1.1118  1.7796 -0.9456
  915MOL0     H26256   8.223   0.379   9.000 -1.2338  0.2608 -0.4156
  915MOL0     H26257   8.001   0.334   9.034 -1.6389 -1.8003  0.8781
  915MOL0     H26258   7.759   0.076   9.302 -1.1002  1.3647  0.6313
  915MOL0     H26259   7.895   0.132   9.404 -0.4876  1.2920  1.0168
  915MOL0     H26260   7.683   0.323   9.320  1.4005  1.9738  1.0380
  915MOL0     H26261   7.774   0.318   9.463  1.6982 -0.1374 -0.5796
  915MOL0     H26262   7.549   0.116   9.383 -2.1390 -0.7405  1.9255
  915MOL0     H26263   7.636   0.094   9.530 -3.6946 -1.5572  0.7207
  915MOL0     H26264   7.416   0.185   9.566  2.3599 -2.9597 -0.1822
  915MOL0     H26265   7.444   0.320   9.447  1.0246  1.0463  0.4898
  915MOL0     H26266   7.636   0.446   9.813 -1.1682  0.4588  0.0280
  915MOL0     H26267   8.088   0.106   9.376 -2.4633 -1.3435 -2.5587
  915MOL0     H26268   8.432   0.046   9.320  0.2523  0.8457 -0.1635
  915MOL0     H26269   8.433   0.175   9.443 -0.7204  3.3622 -2.7733
  915MOL0     H26270   8.311   0.044   9.447 -0.8861 -0.3077 -1.4305
  916MOL0     O26271   8.366   4.702   3.318  0.2456 -0.0548 -0.2489
  916MOL0     C26272   8.456   4.668   3.243  0.3623  1.2056 -0.6711
  916MOL0     O26273   8.561   4.604   3.293 -0.6862 -0.0736 -0.4886
  916MOL0     C26274   8.590   4.599   3.426  0.2012  0.6418 -0.6517
  916MOL0     C26275   8.560   4.698   3.534  0.3282 -0.5194 -0.0570
  916MOL0     C26276   8.613   4.692   3.663 -1.3693  0.0054 -0.5815
  916MOL0     C26277   8.714   4.600   3.682  0.7098  0.3266  0.3153
  916MOL0     O26278   8.794   4.607   3.795  0.2790  0.3616 -0.4738
  916MOL0     C26279   8.832   4.494   3.871 -0.6121 -0.4503 -0.5324
  916MOL0     C26280   8.927   4.525   3.989  0.1419  0.9122  0.0825
  916MOL0     C26281   8.831   4.539   4.111 -0.8738 -0.4237  0.6173
  916MOL0     C26282   8.923   4.557   4.228  0.2270  0.5353 -0.1611
  916MOL0     C26283   8.836   4.597   4.348  0.5908  1.1176 -0.3773
  916MOL0     C26284   8.917   4.601   4.480 -0.4017  0.3398 -0.2144
  916MOL0     C26285   8.833   4.621   4.604  0.8283 -1.4944  0.0703
  916MOL0     C26286   8.902   4.629   4.740  0.7147  0.2134  0.3067
  916MOL0     N26287   8.985   4.739   4.734 -0.4980  0.1953 -0.4977
  916MOL0     C26288   8.952   4.873   4.771 -0.4088  0.1210 -0.1002
  916MOL0     C26289   9.060   4.947   4.744 -0.9085  0.1744 -0.2803
  916MOL0     C26290   9.052   5.104   4.768  0.2426  0.6151 -0.5802
  916MOL0     C26291   9.170   5.189   4.731  0.1612 -0.7333  0.4125
  916MOL0     C26292   9.297   5.162   4.819  0.0229 -0.5701 -0.1929
  916MOL0     C26293   9.406   5.253   4.764 -0.0382  0.9366 -0.0145
  916MOL0     O26294   9.535   5.198   4.788  0.0545 -0.3109 -0.3691
  916MOL0     C26295   9.642   5.270   4.747 -0.2734  0.8256  0.5045
  916MOL0     C26296   9.649   5.361   4.639 -0.1403  0.1608  0.1313
  916MOL0     C26297   9.772   5.425   4.612 -0.3482 -0.1481 -0.3939
  916MOL0     C26298   9.785   5.510   4.488  0.5877  0.8959 -0.4169
  916MOL0     C26299   9.884   5.401   4.698  0.8735 -0.3026 -0.0693
  916MOL0     C26300  10.015   5.472   4.685 -0.2141 -0.6338  0.6634
  916MOL0     O26301  10.127   5.403   4.720 -0.2636 -0.1986 -0.2395
  916MOL0     C26302  10.247   5.456   4.690 -1.0860  0.2179 -0.5921
  916MOL0     C26303  10.305   5.570   4.751  0.3972 -0.1713 -0.2577
  916MOL0     C26304  10.435   5.603   4.713  1.3983  0.4317  0.9968
  916MOL0     C26305  10.508   5.523   4.625  0.3464  0.2063 -1.2577
  916MOL0     O26306  10.631   5.567   4.607  0.1506  0.3421 -0.4823
  916MOL0     C26307  10.626   5.643   4.489  0.3661  0.7117  0.0242
  916MOL0     C26308  10.758   5.722   4.484  0.0168  0.6432  0.4610
  916MOL0     C26309  10.773   5.787   4.347 -0.4777  0.9735  0.1192
  916MOL0     C26310  10.914   5.860   4.333 -0.5242  0.3870 -0.6110
  916MOL0     C26311  10.937   5.914   4.193 -0.3997 -0.2525 -0.1836
  916MOL0     C26312  11.079   5.976   4.187 -0.0868 -0.3625 -0.2534
  916MOL0     C26313  11.113   6.027   4.046  0.1420  0.4404  0.0710
  916MOL0     C26314  11.263   6.028   4.022 -0.5233 -0.2669 -0.2144
  916MOL0    Cl26315  11.316   5.858   4.028  0.1027  0.7422  0.3407
  916MOL0     C26316  10.450   5.413   4.564 -0.3760 -0.6132  0.0529
  916MOL0     C26317  10.318   5.382   4.602 -0.0314 -0.0655  0.7130
  916MOL0     O26318  10.009   5.593   4.650 -0.0694 -0.0810 -0.3506
  916MOL0     C26319   9.874   5.302   4.802 -0.6641 -0.7993  0.0905
  916MOL0     C26320   9.755   5.238   4.827  0.2611 -0.0175 -0.0294
  916MOL0     N26321   9.161   4.858   4.697 -0.4067 -0.3939  0.7320
  916MOL0     N26322   9.111   4.745   4.693 -0.0022 -0.8086  0.4601
  916MOL0     C26323   8.741   4.502   3.581  0.2544 -0.7101 -0.4466
  916MOL0     C26324   8.679   4.498   3.464 -0.4062 -0.4627  0.5120
  916MOL0     C26325   8.444   4.695   3.100  0.1872  0.3748  0.5869
  916MOL0     C26326   8.538   4.638   3.016 -0.5956  0.6925  0.4773
  916MOL0     C26327   8.547   4.653   2.879 -0.5230  0.4648 -0.4757
  916MOL0     C26328   8.463   4.751   2.829  0.1982  0.0846  0.8087
  916MOL0     O26329   8.465   4.792   2.698  0.3712 -0.9405 -0.6098
  916MOL0     C26330   8.554   4.740   2.604  0.6371 -0.6850  0.0096
  916MOL0     C26331   8.696   4.785   2.629  0.1855  0.7771 -0.1124
  916MOL0     C26332   8.704   4.930   2.633  0.6445  0.5694 -0.4048
  916MOL0     C26333   8.846   4.976   2.661 -1.0015 -0.7408 -0.5996
  916MOL0     C26334   8.844   5.110   2.712  0.7204  0.2188  0.6048
  916MOL0     C26335   8.844   5.217   2.766  0.3920 -0.1950  0.8987
  916MOL0     C26336   8.370   4.817   2.909  0.6567 -0.2215 -0.9269
  916MOL0     C26337   8.344   4.778   3.043  0.1716 -0.6051 -0.4017
  916MOL0     C26338   8.242   4.855   3.111  0.5244 -0.0354 -0.7688
  916MOL0     H26339   8.493   4.779   3.512  0.0840 -1.5476 -3.6930
  916MOL0     H26340   8.577   4.754   3.745  1.1827 -0.3583  0.8910
  916MOL0     H26341   8.887   4.426   3.805 -1.2258  0.6767 -2.2839
  916MOL0     H26342   8.744   4.439   3.905  1.0783 -2.3911  0.8826
  916MOL0     H26343   8.996   4.443   4.012  4.2693  4.2175  0.5573
  916MOL0     H26344   8.981   4.618   3.970 -0.4197  1.7728  2.3110
  916MOL0     H26345   8.774   4.629   4.087 -0.0969  0.3888  1.7219
  916MOL0     H26346   8.764   4.454   4.125  1.1160 -2.0540  0.6668
  916MOL0     H26347   8.988   4.470   4.242  0.2769  0.3399 -1.4675
  916MOL0     H26348   9.001   4.632   4.212  1.3024 -0.1976  1.4210
  916MOL0     H26349   8.750   4.531   4.365  1.5900  0.0855  0.8403
  916MOL0     H26350   8.795   4.697   4.336 -1.6755  0.6602  2.5394
  916MOL0     H26351   8.967   4.506   4.500  0.3958  0.1351 -2.7256
  916MOL0     H26352   8.988   4.684   4.467 -1.2322  0.9225 -1.2508
  916MOL0     H26353   8.760   4.540   4.612 -0.8838  0.1263  2.2615
  916MOL0     H26354   8.769   4.708   4.587  1.2055 -1.4619 -1.2722
  916MOL0     H26355   8.830   4.635   4.822 -2.2969  0.5787 -2.1827
  916MOL0     H26356   8.971   4.544   4.745  1.7515  1.0499  0.6379
  916MOL0     H26357   8.854   4.907   4.804 -0.3005  0.4718 -0.1349
  916MOL0     H26358   9.042   5.119   4.876 -0.4514  0.8742 -0.6758
  916MOL0     H26359   8.963   5.150   4.725  0.0767  2.5283  1.6569
  916MOL0     H26360   9.197   5.164   4.628  1.3253 -1.0418  0.7728
  916MOL0     H26361   9.147   5.295   4.735  2.6120 -0.0625 -1.2255
  916MOL0     H26362   9.278   5.184   4.925 -0.1360  0.6832 -0.4615
  916MOL0     H26363   9.321   5.056   4.804 -2.1889 -0.9457 -1.5479
  916MOL0     H26364   9.406   5.257   4.655  3.1467  0.5952 -0.1144
  916MOL0     H26365   9.394   5.353   4.807 -1.1478  2.1064 -2.7615
  916MOL0     H26366   9.558   5.380   4.582 -1.9860 -2.3027  2.0277
  916MOL0     H26367   9.791   5.616   4.515  1.1403  0.9782 -0.8566
  916MOL0     H26368   9.701   5.490   4.421 -1.4250  1.2053  1.8785
  916MOL0     H26369   9.874   5.492   4.428  0.0642  3.1061 -1.9544
  916MOL0     H26370  10.250   5.624   4.828 -0.0668 -2.1686  0.8739
  916MOL0     H26371  10.497   5.679   4.760 -0.8016  1.2439  2.7685
  916MOL0     H26372  10.627   5.574   4.405 -2.8707  0.9364 -0.3331
  916MOL0     H26373  10.546   5.716   4.472  1.8118  2.1176 -1.0630
  916MOL0     H26374  10.769   5.797   4.562  2.1579  0.2513  0.6085
  916MOL0     H26375  10.841   5.655   4.509 -0.0504  0.7597  1.0012
  916MOL0     H26376  10.694   5.862   4.336 -1.1214  0.0584 -2.0923
  916MOL0     H26377  10.767   5.710   4.269 -0.5734  1.9684 -0.8827
  916MOL0     H26378  10.999   5.793   4.352  0.7707  1.9687 -0.6395
  916MOL0     H26379  10.920   5.944   4.403  1.9813 -2.3457  2.8618
  916MOL0     H26380  10.926   5.835   4.118 -0.1022 -1.3283  0.8767
  916MOL0     H26381  10.868   5.999   4.181  2.7195  2.6509  0.9148
  916MOL0     H26382  11.158   5.914   4.230  0.5654  1.6763  1.7097
  916MOL0     H26383  11.070   6.061   4.255 -1.1816 -2.3454  2.2091
  916MOL0     H26384  11.075   6.129   4.035  1.0807  0.9473  1.2435
  916MOL0     H26385  11.062   5.965   3.972 -1.1342  0.4570  0.8966
  916MOL0     H26386  11.320   6.099   4.083  0.7841 -0.7583 -0.8063
  916MOL0     H26387  11.266   6.067   3.920  0.4152  2.7211  0.8465
  916MOL0     H26388  10.507   5.350   4.496  0.4913  0.8039 -0.5892
  916MOL0     H26389  10.266   5.301   4.552 -0.1077  1.2316 -1.4210
  916MOL0     H26390   9.954   5.295   4.874 -1.0675  2.3595  0.9794
  916MOL0     H26391   9.738   5.175   4.913 -0.5051 -0.2257 -0.3210
  916MOL0     H26392   8.821   4.428   3.585  0.8107 -0.1227 -0.3978
  916MOL0     H26393   8.703   4.429   3.383 -0.9951  0.0373 -0.0945
  916MOL0     H26394   8.619   4.578   3.056 -0.4029 -1.3516 -2.5842
  916MOL0     H26395   8.623   4.592   2.831 -1.4190 -1.8962  0.9473
  916MOL0     H26396   8.541   4.631   2.601 -1.3556 -0.4739 -0.1539
  916MOL0     H26397   8.517   4.775   2.507  3.3544  3.5879  0.2460
  916MOL0     H26398   8.762   4.743   2.553  2.3088  1.2442  1.3549
  916MOL0     H26399   8.738   4.742   2.721  1.2204  0.6174 -0.6460
  916MOL0     H26400   8.668   4.970   2.538  2.9309  0.6403 -1.2970
  916MOL0     H26401   8.630   4.972   2.703  0.6813 -0.2893  0.1708
  916MOL0     H26402   8.910   4.975   2.572 -0.4708  2.9503 -0.3802
  916MOL0     H26403   8.887   4.909   2.738 -2.3115  0.6035  1.3756
  916MOL0     H26404   8.842   5.316   2.809 -0.9281  0.0965  0.2297
  916MOL0     H26405   8.313   4.903   2.877  0.4213  1.7486  3.8701
  916MOL0     H26406   8.170   4.904   3.044 -0.6059  0.6800  0.9011
  916MOL0     H26407   8.182   4.792   3.176  1.0087 -1.6983 -1.8622
  916MOL0     H26408   8.284   4.935   3.173  2.4222 -1.6743  0.1660
  917MOL0     O26409   8.946   9.080   4.975  0.0828  0.5319  0.2238
  917MOL0     C26410   9.011   9.127   5.066  0.0268  0.1609  0.7298
  917MOL0     O26411   8.948   9.200   5.163  0.0419 -0.3013  0.7124
  917MOL0     C26412   8.812   9.227   5.157  0.0314 -0.6980  0.6667
  917MOL0     C26413   8.726   9.131   5.208  0.4571  0.7844  0.3307
  917MOL0     C26414   8.592   9.155   5.224 -0.5152  0.0551  1.1489
  917MOL0     C26415   8.529   9.266   5.170 -0.6793  0.1722 -0.8049
  917MOL0     O26416   8.393   9.272   5.193 -0.2020  0.0787 -0.0728
  917MOL0     C26417   8.315   9.380   5.153  0.6486  0.2188 -1.3780
  917MOL0     C26418   8.173   9.343   5.174  0.6817 -0.2068  0.1385
  917MOL0     C26419   8.062   9.435   5.116 -0.8524  0.5405 -0.0058
  917MOL0     C26420   7.947   9.348   5.075 -0.8015 -0.6987 -0.5201
  917MOL0     C26421   7.833   9.433   5.000  0.8106 -0.3069  0.5916
  917MOL0     C26422   7.756   9.526   5.087  0.4960 -0.0114  0.2240
  917MOL0     C26423   7.628   9.588   5.015  0.6841  0.3630 -0.4651
  917MOL0     C26424   7.504   9.592   5.112 -0.1074  0.2237  0.2477
  917MOL0     N26425   7.384   9.647   5.036  0.2093  0.5872  0.9518
  917MOL0     C26426   7.322   9.578   4.938 -0.4419 -0.0667  0.3895
  917MOL0     C26427   7.223   9.663   4.887 -0.8989  0.2764 -0.0368
  917MOL0     C26428   7.124   9.629   4.787  0.5618  0.1097 -0.9155
  917MOL0     C26429   7.192   9.596   4.660 -0.1718 -0.1257  0.3581
  917MOL0     C26430   7.088   9.583   4.547 -0.4747  0.6314  0.9609
  917MOL0     C26431   7.163   9.559   4.421 -0.1644 -0.7056  0.2455
  917MOL0     O26432   7.266   9.657   4.391 -0.2965  0.4057  0.0464
  917MOL0     C26433   7.401   9.639   4.393 -1.2060 -0.0068  0.6772
  917MOL0     C26434   7.481   9.748   4.355 -0.5546 -0.0927 -0.0015
  917MOL0     C26435   7.618   9.737   4.311  0.1675 -0.1367  0.6048
  917MOL0     C26436   7.676   9.868   4.257  0.1311  0.1819 -0.0861
  917MOL0     C26437   7.675   9.609   4.326 -1.0001 -0.7253 -0.9045
  917MOL0     C26438   7.816   9.588   4.292  0.1697  1.0017  0.3504
  917MOL0     O26439   7.902   9.687   4.293 -0.1208  0.2816 -0.3386
  917MOL0     C26440   8.034   9.646   4.291  0.0689 -0.0716  0.1142
  917MOL0     C26441   8.122   9.689   4.195 -0.0403  0.3540 -0.1372
  917MOL0     C26442   8.259   9.652   4.190 -0.4892 -0.6080 -0.1121
  917MOL0     C26443   8.303   9.573   4.299 -0.2670  0.3654 -0.7676
  917MOL0     O26444   8.438   9.562   4.307  1.0504 -0.1338  0.0461
  917MOL0     C26445   8.494   9.442   4.357 -1.1776  0.2740 -0.0198
  917MOL0     C26446   8.650   9.436   4.344  0.1138  0.0631 -0.1470
  917MOL0     C26447   8.714   9.560   4.402 -0.0137 -0.3276 -0.2215
  917MOL0     C26448   8.867   9.542   4.414  0.0464 -0.4637  0.0418
  917MOL0     C26449   8.930   9.668   4.459 -0.3579 -0.9994  0.1355
  917MOL0     C26450   9.088   9.673   4.443  0.3698  0.7240 -0.0289
  917MOL0     C26451   9.129   9.745   4.308  1.3075  0.1473 -1.3293
  917MOL0     C26452   9.134   9.653   4.198  0.6101  0.7448  0.2328
  917MOL0    Cl26453   9.149   9.733   4.042  0.1898  0.2939 -0.0921
  917MOL0     C26454   8.220   9.542   4.412 -0.3644  1.1419  0.4127
  917MOL0     C26455   8.086   9.579   4.401 -0.1215  0.2430  0.1280
  917MOL0     O26456   7.836   9.477   4.249 -1.2094  0.9264  0.1173
  917MOL0     C26457   7.593   9.506   4.366 -0.1060  0.3302  0.1425
  917MOL0     C26458   7.462   9.512   4.414 -0.5534 -0.0355 -0.5205
  917MOL0     N26459   7.238   9.786   4.957  0.4034  0.5657 -0.0543
  917MOL0     N26460   7.335   9.777   5.045  0.0479 -0.0664 -0.0413
  917MOL0     C26461   8.610   9.368   5.111 -0.0034 -0.0940 -0.3321
  917MOL0     C26462   8.755   9.354   5.113  0.1323  0.1001 -0.1862
  917MOL0     C26463   9.150   9.073   5.081 -0.6368  0.4236  0.5639
  917MOL0     C26464   9.212   9.079   5.208  0.1348  0.4446 -0.3247
  917MOL0     C26465   9.346   9.032   5.230  0.8750 -0.0839  0.1716
  917MOL0     C26466   9.417   8.972   5.127 -0.2168  0.0252 -0.0104
  917MOL0     O26467   9.538   8.913   5.146 -0.3707  0.5675  0.3689
  917MOL0     C26468   9.620   8.880   5.024  0.5104  0.0484 -0.0505
  917MOL0     C26469   9.745   8.814   5.072 -0.0924 -1.0263  0.5015
  917MOL0     C26470   9.857   8.907   5.117 -0.4798  0.5158  0.3116
  917MOL0     C26471   9.989   8.841   5.166 -0.1229 -0.1734  1.1699
  917MOL0     C26472   9.967   8.818   5.309  0.6432 -0.0056  0.5742
  917MOL0     C26473   9.983   8.794   5.429  1.4304 -0.8193  0.1385
  917MOL0     C26474   9.356   8.968   4.997 -0.1779 -0.7245 -0.2142
  917MOL0     C26475   9.224   9.026   4.969 -0.0863  0.8704 -0.6595
  917MOL0     C26476   9.173   9.005   4.831 -0.7230  0.5783 -0.1873
  917MOL0     H26477   8.768   9.034   5.234 -0.0625 -0.1127 -1.9652
  917MOL0     H26478   8.526   9.079   5.266 -4.4766  1.7626 -1.3749
  917MOL0     H26479   8.327   9.388   5.044 -2.2016  2.2642 -1.6474
  917MOL0     H26480   8.341   9.468   5.212  0.0640 -0.5170  0.0188
  917MOL0     H26481   8.162   9.247   5.123 -0.3537  1.0784 -2.1977
  917MOL0     H26482   8.157   9.334   5.282  1.1550  1.3792  0.3613
  917MOL0     H26483   8.041   9.522   5.179  2.4401  1.5112 -0.0339
  917MOL0     H26484   8.104   9.480   5.026 -3.4593 -0.4971 -1.8526
  917MOL0     H26485   7.978   9.259   5.019  0.6712  0.4369 -1.5967
  917MOL0     H26486   7.904   9.312   5.169  0.1669  2.6422  1.3551
  917MOL0     H26487   7.761   9.357   4.968 -0.5728  0.8516  0.8812
  917MOL0     H26488   7.867   9.479   4.907 -1.7572 -0.9792 -0.7793
  917MOL0     H26489   7.716   9.472   5.173  1.7710 -1.4101 -0.0401
  917MOL0     H26490   7.817   9.607   5.128  2.0391  0.3558 -2.5751
  917MOL0     H26491   7.598   9.531   4.927 -3.4658  2.1058 -0.4082
  917MOL0     H26492   7.642   9.691   4.981  0.7387 -0.2077 -2.2515
  917MOL0     H26493   7.478   9.497   5.159 -1.7474  1.5293  2.1547
  917MOL0     H26494   7.530   9.658   5.195  1.4979  0.4689 -0.4040
  917MOL0     H26495   7.338   9.478   4.900  2.7154  1.5371 -3.1730
  917MOL0     H26496   7.056   9.714   4.773  0.4182 -0.0459 -1.1810
  917MOL0     H26497   7.070   9.547   4.835  1.9685 -0.7094 -0.6724
  917MOL0     H26498   7.268   9.669   4.632 -0.2400 -0.5274 -0.9354
  917MOL0     H26499   7.242   9.502   4.686 -1.1331  0.0608  3.2813
  917MOL0     H26500   7.013   9.506   4.564  2.9152 -3.0008  0.8707
  917MOL0     H26501   7.039   9.681   4.539 -0.5104  0.4555 -1.6285
  917MOL0     H26502   7.201   9.457   4.425 -1.5502 -1.2962 -0.6699
  917MOL0     H26503   7.089   9.563   4.341 -1.6813 -0.3867  1.6031
  917MOL0     H26504   7.421   9.839   4.359  0.3321  0.4718  1.7909
  917MOL0     H26505   7.753   9.905   4.324  1.1536  0.9239 -1.6093
  917MOL0     H26506   7.605   9.950   4.240  1.6076  1.0368 -2.8165
  917MOL0     H26507   7.717   9.854   4.157 -0.0606  0.5520 -0.2207
  917MOL0     H26508   8.084   9.765   4.127 -1.1403 -1.2807 -1.4411
  917MOL0     H26509   8.334   9.703   4.131 -0.8448  0.5691  0.4160
  917MOL0     H26510   8.474   9.436   4.465 -0.3861 -2.7728  0.0620
  917MOL0     H26511   8.453   9.346   4.324  0.6674 -1.7179  2.9391
  917MOL0     H26512   8.678   9.346   4.400  0.6567  0.1314 -0.3020
  917MOL0     H26513   8.676   9.412   4.240  0.3434  1.7803 -0.5078
  917MOL0     H26514   8.677   9.573   4.504  0.0588  0.1285 -0.2495
  917MOL0     H26515   8.687   9.644   4.338  0.8924  0.0391 -0.1335
  917MOL0     H26516   8.897   9.504   4.316  1.1787 -0.1132  0.2378
  917MOL0     H26517   8.891   9.465   4.488  2.6716  1.2573  1.1051
  917MOL0     H26518   8.889   9.757   4.411 -0.1799 -2.2411 -2.5300
  917MOL0     H26519   8.914   9.678   4.566 -0.4212 -4.9352  0.6449
  917MOL0     H26520   9.124   9.570   4.454 -1.9874 -0.2140 -0.4834
  917MOL0     H26521   9.125   9.723   4.533 -0.0058 -1.7856  1.6193
  917MOL0     H26522   9.231   9.781   4.326  1.1252 -0.7987  2.2887
  917MOL0     H26523   9.056   9.824   4.289  1.6932  0.7770 -0.3091
  917MOL0     H26524   9.044   9.591   4.185  0.5381  0.8278  0.3330
  917MOL0     H26525   9.212   9.580   4.220 -0.2954 -0.6249 -0.8813
  917MOL0     H26526   8.254   9.484   4.497  0.7759  0.4345 -0.5066
  917MOL0     H26527   8.021   9.553   4.484  0.0572 -3.6650 -0.7582
  917MOL0     H26528   7.641   9.409   4.355 -0.6097  0.1206 -0.2464
  917MOL0     H26529   7.401   9.426   4.437  0.2006 -0.5534 -0.4294
  917MOL0     H26530   8.567   9.460   5.073  0.3651  0.8238  1.3583
  917MOL0     H26531   8.817   9.431   5.068  1.6263  1.7184  4.0250
  917MOL0     H26532   9.158   9.127   5.289 -3.3362 -4.2428  0.5891
  917MOL0     H26533   9.383   9.034   5.332 -3.1343  1.1490  1.8455
  917MOL0     H26534   9.565   8.801   4.972  0.1760 -0.2223  0.6877
  917MOL0     H26535   9.651   8.960   4.957 -0.7536 -0.9799 -1.9623
  917MOL0     H26536   9.789   8.748   4.996  1.8372 -2.4872  2.7334
  917MOL0     H26537   9.729   8.750   5.159 -0.7657  2.4976  3.1830
  917MOL0     H26538   9.875   8.966   5.026 -0.1941 -2.0978 -1.4491
  917MOL0     H26539   9.811   8.966   5.196  1.3768  0.0370  1.8118
  917MOL0     H26540  10.074   8.907   5.150 -0.2219 -0.2861  0.1248
  917MOL0     H26541  10.004   8.747   5.112 -0.0584  0.3550  0.2584
  917MOL0     H26542  10.016   8.781   5.531  4.0199 -0.9707 -0.6335
  917MOL0     H26543   9.404   8.917   4.914  3.4105  0.3404  1.0100
  917MOL0     H26544   9.241   8.935   4.780  0.9954 -0.9793  3.8097
  917MOL0     H26545   9.087   8.939   4.837  0.7160 -1.3625  0.1499
  917MOL0     H26546   9.159   9.100   4.779 -3.2277 -0.3379 -1.3629
  918MOL0     O26547   3.790   9.389   1.849  0.5097 -0.5996  0.1113
  918MOL0     C26548   3.792   9.296   1.768  0.1370  0.1236 -0.1933
  918MOL0     O26549   3.901   9.250   1.707  0.0464 -0.2082  0.2768
  918MOL0     C26550   4.022   9.286   1.758 -0.3598 -0.1840  0.6850
  918MOL0     C26551   4.102   9.381   1.693 -1.0772  0.6350  0.4648
  918MOL0     C26552   4.234   9.421   1.745  0.4285  0.4533  0.2578
  918MOL0     C26553   4.283   9.348   1.858 -0.3596 -0.7779 -0.1102
  918MOL0     O26554   4.411   9.372   1.909  0.2174  0.0598  0.0123
  918MOL0     C26555   4.441   9.511   1.944  0.0684 -0.0700  0.0004
  918MOL0     C26556   4.527   9.505   2.074  0.6288 -0.2702  0.3381
  918MOL0     C26557   4.657   9.450   2.056 -1.3266  0.1002 -0.3888
  918MOL0     C26558   4.732   9.427   2.192  0.5056 -0.0055 -0.0295
  918MOL0     C26559   4.860   9.345   2.169 -0.1588  0.5575  0.1835
  918MOL0     C26560   4.935   9.323   2.299 -0.4192  0.0115 -0.1543
  918MOL0     C26561   5.042   9.436   2.318 -0.2671 -0.0392  0.0743
  918MOL0     C26562   5.119   9.445   2.454 -0.5128 -0.3186 -0.2616
  918MOL0     N26563   5.182   9.584   2.452  0.5594  0.5768  0.7333
  918MOL0     C26564   5.298   9.605   2.388  0.3513  0.0006  0.4627
  918MOL0     C26565   5.337   9.735   2.412  0.1023  0.3422 -0.3495
  918MOL0     C26566   5.435   9.811   2.327  0.4142  0.7249  0.4991
  918MOL0     C26567   5.582   9.780   2.336 -0.0396 -0.2102  0.2362
  918MOL0     C26568   5.627   9.636   2.322 -0.5795 -0.4102 -0.1295
  918MOL0     C26569   5.778   9.636   2.324 -0.3804 -0.2185 -1.2092
  918MOL0     O26570   5.835   9.674   2.453  0.9032  0.0653  0.1379
  918MOL0     C26571   5.965   9.706   2.461 -0.2732  0.1702 -0.5207
  918MOL0     C26572   5.998   9.768   2.585  0.2684  0.0618 -0.0219
  918MOL0     C26573   6.127   9.825   2.610  0.2595  0.3961 -0.5313
  918MOL0     C26574   6.142   9.895   2.744  0.1448 -1.2032 -1.0351
  918MOL0     C26575   6.223   9.807   2.515  0.0906 -0.4554  0.0298
  918MOL0     C26576   6.362   9.849   2.539 -0.4561 -0.8354  0.8581
  918MOL0     O26577   6.380   9.971   2.590 -0.1230 -0.1449 -0.4827
  918MOL0     C26578   6.512  10.009   2.616 -0.1927  0.7118 -0.2080
  918MOL0     C26579   6.607   9.923   2.683  0.4198 -0.9886 -0.4048
  918MOL0     C26580   6.743   9.969   2.699  0.1517  0.0596 -0.3902
  918MOL0     C26581   6.784  10.095   2.653 -0.2382  0.9190  0.1176
  918MOL0     O26582   6.919  10.129   2.669  0.8155 -0.3705 -0.1030
  918MOL0     C26583   6.951  10.261   2.709  0.0102  0.0543  0.3465
  918MOL0     C26584   7.058  10.270   2.817  0.3856 -0.6867  1.2743
  918MOL0     C26585   7.040  10.189   2.950 -0.5248  0.2035  0.6125
  918MOL0     C26586   6.895  10.198   3.014  0.3065  0.0871 -0.7597
  918MOL0     C26587   6.851  10.058   3.055 -0.3479  0.3192  0.3452
  918MOL0     C26588   6.705  10.054   3.095  0.2169  0.0888 -0.3187
  918MOL0     C26589   6.661   9.909   3.110  0.4691  0.0513  0.7630
  918MOL0     C26590   6.522   9.881   3.145 -0.8436 -0.1168  0.2491
  918MOL0    Cl26591   6.412   9.965   3.025 -0.2925  0.2541  0.3445
  918MOL0     C26592   6.691  10.173   2.574 -0.4232 -0.1407 -0.2783
  918MOL0     C26593   6.560  10.130   2.561 -0.3293 -0.2512 -0.5745
  918MOL0     O26594   6.456   9.778   2.494 -0.0179  0.3394 -0.2388
  918MOL0     C26595   6.191   9.737   2.395  0.3785 -0.1454  0.0093
  918MOL0     C26596   6.067   9.683   2.368 -0.5228 -0.1220  0.1704
  918MOL0     N26597   5.243   9.792   2.494 -0.0342 -1.2064  0.8667
  918MOL0     N26598   5.154   9.694   2.522  0.3275 -0.9969  0.3935
  918MOL0     C26599   4.203   9.258   1.926  0.2730 -0.4253  0.7068
  918MOL0     C26600   4.075   9.231   1.873  0.5790  0.3224 -0.7874
  918MOL0     C26601   3.658   9.236   1.722 -0.0057  0.0374  0.2789
  918MOL0     C26602   3.659   9.205   1.587  0.2428  0.4198  0.2023
  918MOL0     C26603   3.546   9.154   1.531 -0.3666  0.2110  0.5608
  918MOL0     C26604   3.430   9.140   1.603  0.5488 -0.1177 -0.7292
  918MOL0     O26605   3.312   9.102   1.552 -0.1407  0.1591  0.0759
  918MOL0     C26606   3.200   9.172   1.604  0.0733 -0.0943 -0.1329
  918MOL0     C26607   3.081   9.143   1.516  0.1181 -0.5323  0.4090
  918MOL0     C26608   2.949   9.219   1.545 -0.1424 -0.2591 -0.4652
  918MOL0     C26609   2.844   9.130   1.615  0.3213  0.0247  0.8999
  918MOL0     C26610   2.897   9.083   1.744  0.2406 -0.4011 -0.2040
  918MOL0     C26611   2.929   9.050   1.855 -0.6228  0.3104  0.1221
  918MOL0     C26612   3.434   9.160   1.740  0.0187  0.5553  0.6181
  918MOL0     C26613   3.550   9.213   1.800  1.1456 -0.8628  0.2176
  918MOL0     C26614   3.554   9.232   1.949  0.4226 -0.1937  0.3607
  918MOL0     H26615   4.074   9.432   1.601  1.3730  1.2462 -0.0165
  918MOL0     H26616   4.291   9.508   1.713 -0.1287  1.4388  1.8479
  918MOL0     H26617   4.357   9.581   1.946 -1.1763 -1.4685  2.5658
  918MOL0     H26618   4.500   9.546   1.859  0.7202  1.5035  1.0448
  918MOL0     H26619   4.540   9.609   2.104  0.2078  0.2593 -1.1839
  918MOL0     H26620   4.464   9.461   2.152  1.1204  1.6578  1.9008
  918MOL0     H26621   4.639   9.349   2.018  1.6461  0.2397 -2.6005
  918MOL0     H26622   4.722   9.502   1.985  0.0842 -1.2157 -0.1132
  918MOL0     H26623   4.759   9.523   2.238 -0.2971 -1.1387  3.0415
  918MOL0     H26624   4.668   9.375   2.263  1.8862 -0.6148  0.8103
  918MOL0     H26625   4.903   9.400   2.085 -0.6634  1.1032  0.2750
  918MOL0     H26626   4.835   9.247   2.127 -2.0878  1.7699 -1.6893
  918MOL0     H26627   4.867   9.318   2.384  1.6959 -2.7048  1.5463
  918MOL0     H26628   4.997   9.235   2.283 -1.1639 -0.4874 -0.3493
  918MOL0     H26629   4.989   9.531   2.308 -1.1687 -0.5058  0.3993
  918MOL0     H26630   5.107   9.438   2.229 -0.2075  0.1359  0.1195
  918MOL0     H26631   5.058   9.427   2.543  2.8424 -1.5146  2.0026
  918MOL0     H26632   5.202   9.374   2.451 -0.1570  0.0245  0.9344
  918MOL0     H26633   5.356   9.532   2.332 -1.1012  0.2506 -1.4670
  918MOL0     H26634   5.411   9.915   2.353 -2.8633  0.9568 -2.6430
  918MOL0     H26635   5.407   9.801   2.221 -0.1414  0.5799  0.6528
  918MOL0     H26636   5.621   9.847   2.258 -1.1439 -0.5891 -0.6670
  918MOL0     H26637   5.624   9.808   2.433  0.1375 -1.1476  0.4389
  918MOL0     H26638   5.575   9.581   2.401 -2.0907 -0.7160 -1.2915
  918MOL0     H26639   5.600   9.608   2.219 -1.6648  1.8339 -0.5178
  918MOL0     H26640   5.806   9.539   2.283 -0.7009  0.3979 -2.9762
  918MOL0     H26641   5.822   9.711   2.257 -1.0443  1.6370  0.3431
  918MOL0     H26642   5.915   9.789   2.651  1.0854  1.4839  0.5930
  918MOL0     H26643   6.152  10.003   2.735  1.8889 -1.2572 -0.3023
  918MOL0     H26644   6.220   9.857   2.811  0.7529 -2.0612 -2.2033
  918MOL0     H26645   6.050   9.887   2.802 -1.1645  2.1858 -2.3971
  918MOL0     H26646   6.570   9.829   2.723 -0.8457 -0.0099  0.8656
  918MOL0     H26647   6.821   9.916   2.752  1.0656  1.5014 -0.2318
  918MOL0     H26648   6.991  10.312   2.620  1.0560 -0.3422  0.5777
  918MOL0     H26649   6.862  10.313   2.745  1.0979  1.1868  1.5193
  918MOL0     H26650   7.142  10.225   2.763 -0.2349 -1.3805  0.8683
  918MOL0     H26651   7.075  10.375   2.840  0.6438 -0.5786  0.5974
  918MOL0     H26652   7.112  10.216   3.028  0.6107  0.7774 -0.6118
  918MOL0     H26653   7.063  10.083   2.936  1.8176  0.7238  0.2685
  918MOL0     H26654   6.820  10.244   2.949 -4.1124 -2.4858  1.9280
  918MOL0     H26655   6.892  10.255   3.108 -0.3131  3.3110 -2.6020
  918MOL0     H26656   6.854   9.997   2.964 -1.5848 -0.0868  0.5748
  918MOL0     H26657   6.910  10.016   3.136  1.1529 -0.9232 -1.3035
  918MOL0     H26658   6.647  10.096   3.012  0.7216 -2.2620 -1.9707
  918MOL0     H26659   6.696  10.107   3.191  0.0618 -0.1349 -0.2087
  918MOL0     H26660   6.722   9.866   3.190 -0.7501 -2.1045  0.6295
  918MOL0     H26661   6.672   9.846   3.021 -2.4499  0.9811 -0.3644
  918MOL0     H26662   6.523   9.918   3.247  0.3041  0.1733  0.1471
  918MOL0     H26663   6.500   9.774   3.157  0.4967 -0.8002 -2.3884
  918MOL0     H26664   6.717  10.273   2.541  1.1888 -0.7252 -0.8486
  918MOL0     H26665   6.494  10.204   2.518 -1.2920 -1.1542 -0.6735
  918MOL0     H26666   6.269   9.728   2.320  0.9169  3.2976 -0.0270
  918MOL0     H26667   6.047   9.640   2.270 -0.0107  1.5804 -0.7196
  918MOL0     H26668   4.237   9.203   2.013  3.2387  0.2040  0.0682
  918MOL0     H26669   4.016   9.159   1.930 -1.5727  2.0332 -0.7460
  918MOL0     H26670   3.751   9.220   1.532  1.7504 -1.1202  2.1289
  918MOL0     H26671   3.545   9.146   1.423  1.0699  2.5625  0.3110
  918MOL0     H26672   3.169   9.136   1.703 -1.3354 -0.8193 -0.8034
  918MOL0     H26673   3.207   9.279   1.627 -0.7897 -0.5493  2.6398
  918MOL0     H26674   3.065   9.035   1.516 -1.3903 -0.3632 -1.1265
  918MOL0     H26675   3.097   9.162   1.409 -5.3122 -0.5559 -0.7375
  918MOL0     H26676   2.961   9.308   1.608 -0.9425 -2.3741  2.9415
  918MOL0     H26677   2.918   9.244   1.443 -0.8315 -1.0960 -0.4702
  918MOL0     H26678   2.822   9.042   1.555  0.1045 -0.1063  1.1685
  918MOL0     H26679   2.752   9.187   1.608  1.3464  1.4978 -2.4862
  918MOL0     H26680   2.982   9.028   1.946 -0.0268  2.7890  0.4416
  918MOL0     H26681   3.361   9.122   1.811 -0.1663 -3.3422 -1.3756
  918MOL0     H26682   3.576   9.335   1.977 -1.2757  0.5450 -0.8433
  918MOL0     H26683   3.456   9.210   1.993 -0.1830 -1.6062 -1.5313
  918MOL0     H26684   3.636   9.172   1.989 -0.0899 -0.1254  1.5574
  919MOL0     O26685  10.133   7.715   7.228  0.2141  0.5327 -0.3741
  919MOL0     C26686  10.116   7.696   7.350 -0.0995 -0.2552  0.3662
  919MOL0     O26687  10.003   7.635   7.400 -0.4499  0.3671  0.3732
  919MOL0     C26688   9.894   7.626   7.318 -0.2253 -0.0528 -0.4693
  919MOL0     C26689   9.771   7.673   7.359 -0.6012  0.5905 -0.8581
  919MOL0     C26690   9.647   7.665   7.281 -0.1842 -0.0056 -0.2319
  919MOL0     C26691   9.651   7.611   7.154 -0.3487  0.5631 -0.1212
  919MOL0     O26692   9.536   7.604   7.080  0.0011 -0.7764  0.0259
  919MOL0     C26693   9.525   7.483   7.007  0.5642  0.2111 -0.0037
  919MOL0     C26694   9.375   7.443   6.997  0.3563 -0.6726  1.5433
  919MOL0     C26695   9.348   7.307   6.926 -0.2260  0.0296 -0.8434
  919MOL0     C26696   9.377   7.181   7.014 -0.2268  0.4398 -0.7255
  919MOL0     C26697   9.286   7.062   6.974 -1.1163 -0.4785  0.3850
  919MOL0     C26698   9.300   6.941   7.063  0.0206  0.1069 -0.7870
  919MOL0     C26699   9.167   6.884   7.111 -0.2851  1.0379  1.4110
  919MOL0     C26700   9.098   6.983   7.205  0.6982  0.2575  0.4072
  919MOL0     N26701   8.965   6.918   7.227 -0.4146 -0.9358 -0.0885
  919MOL0     C26702   8.851   6.947   7.155  0.8111 -0.5097 -0.3420
  919MOL0     C26703   8.754   6.864   7.204  1.0323 -0.6693 -1.0868
  919MOL0     C26704   8.620   6.862   7.139 -1.4000 -0.3256  0.2887
  919MOL0     C26705   8.552   7.001   7.160  0.3960  0.5963  1.0067
  919MOL0     C26706   8.521   7.052   7.304 -0.4557 -0.7249 -0.1012
  919MOL0     C26707   8.420   6.974   7.387 -0.0547 -0.2296  0.0292
  919MOL0     O26708   8.290   6.968   7.325 -0.2519 -0.9852  1.1723
  919MOL0     C26709   8.193   6.891   7.386 -0.1877  0.2689 -0.0950
  919MOL0     C26710   8.206   6.818   7.510  0.1668 -0.6534 -0.1701
  919MOL0     C26711   8.098   6.751   7.565 -0.7406  0.5575 -0.0173
  919MOL0     C26712   8.131   6.686   7.693 -0.5694  0.3229 -0.5726
  919MOL0     C26713   7.981   6.733   7.496  0.3286 -0.0710 -0.3390
  919MOL0     C26714   7.862   6.662   7.549  1.4208 -0.1072  0.3710
  919MOL0     O26715   7.761   6.620   7.459  0.2499 -0.5843 -0.5253
  919MOL0     C26716   7.631   6.615   7.497 -0.6438  0.0827 -0.6378
  919MOL0     C26717   7.545   6.697   7.429  0.6198 -0.7332  0.5243
  919MOL0     C26718   7.410   6.686   7.452 -0.2022  0.3241  0.4159
  919MOL0     C26719   7.363   6.605   7.555 -0.2396  1.3286 -0.4233
  919MOL0     O26720   7.234   6.586   7.597 -0.5148 -0.0633 -0.3743
  919MOL0     C26721   7.133   6.629   7.507  0.2024 -0.3310 -0.4965
  919MOL0     C26722   6.992   6.609   7.564 -0.3605  0.0268  0.0419
  919MOL0     C26723   6.883   6.640   7.460  0.3515  0.6803  0.0559
  919MOL0     C26724   6.747   6.606   7.522  0.4469 -0.2107 -0.2679
  919MOL0     C26725   6.623   6.651   7.422 -0.5690  0.2471 -0.0178
  919MOL0     C26726   6.489   6.659   7.489 -0.2966 -0.4307 -0.8051
  919MOL0     C26727   6.378   6.645   7.390  0.9724  0.2232 -0.1038
  919MOL0     C26728   6.237   6.649   7.455  0.0395  1.0548  0.2228
  919MOL0    Cl26729   6.194   6.511   7.563 -0.2752 -0.2798  0.3494
  919MOL0     C26730   7.453   6.518   7.624 -0.3608 -0.4560  0.0917
  919MOL0     C26731   7.591   6.521   7.589 -0.2051  0.4662 -0.2347
  919MOL0     O26732   7.846   6.661   7.671 -0.4580 -0.3044  0.0801
  919MOL0     C26733   7.973   6.794   7.372  0.1518 -0.2043  0.3721
  919MOL0     C26734   8.078   6.882   7.325  0.2058  0.2011  0.1903
  919MOL0     N26735   8.807   6.791   7.307  1.2276 -0.1183  0.3299
  919MOL0     N26736   8.936   6.815   7.309 -0.1811 -0.0240 -0.0346
  919MOL0     C26737   9.778   7.568   7.111  0.5957 -0.0266 -0.5794
  919MOL0     C26738   9.894   7.563   7.191 -0.3013  0.4275  0.0708
  919MOL0     C26739  10.212   7.758   7.446  0.2690  0.0902  0.2457
  919MOL0     C26740  10.182   7.780   7.577  0.2012 -0.5458 -0.0520
  919MOL0     C26741  10.269   7.837   7.667 -0.5916  0.4100  0.6668
  919MOL0     C26742  10.392   7.884   7.634 -1.1109 -0.4414 -0.2818
  919MOL0     O26743  10.463   7.934   7.741  0.1035  0.4532  0.0460
  919MOL0     C26744  10.603   7.908   7.733  0.0387  0.1050 -0.2805
  919MOL0     C26745  10.672   7.960   7.861 -0.0821 -0.4548  0.0551
  919MOL0     C26746  10.637   7.888   7.991  0.4365  0.1028 -0.1114
  919MOL0     C26747  10.692   7.932   8.129  1.0324  0.7356  0.4112
  919MOL0     C26748  10.681   8.078   8.152  0.4407  0.3386  0.3421
  919MOL0     C26749  10.656   8.194   8.171 -0.5919  0.6773  0.7406
  919MOL0     C26750  10.436   7.861   7.501  0.1729  0.6730 -0.1093
  919MOL0     C26751  10.353   7.795   7.407 -1.0292 -0.3821 -1.8215
  919MOL0     C26752  10.398   7.778   7.266  0.6322 -0.1300 -0.3940
  919MOL0     H26753   9.754   7.710   7.460 -1.9322 -3.7225  0.7287
  919MOL0     H26754   9.550   7.702   7.312  0.9760  3.3563 -0.1415
  919MOL0     H26755   9.594   7.400   7.026  0.5223 -0.4830 -2.5151
  919MOL0     H26756   9.552   7.511   6.904  1.7904 -1.1454 -0.0816
  919MOL0     H26757   9.341   7.430   7.100 -0.6978  3.4651  1.9100
  919MOL0     H26758   9.315   7.518   6.944  3.1620  0.2476 -0.5863
  919MOL0     H26759   9.240   7.299   6.909 -0.2548 -0.9508 -0.2791
  919MOL0     H26760   9.398   7.294   6.830  1.3316 -2.7179  0.2317
  919MOL0     H26761   9.482   7.158   6.993 -0.9762 -1.5179 -2.6949
  919MOL0     H26762   9.357   7.205   7.119  1.8082  0.4966 -0.3068
  919MOL0     H26763   9.313   7.022   6.876 -0.8203  1.8670 -0.5421
  919MOL0     H26764   9.186   7.106   6.970  1.0076  5.2976 -4.1842
  919MOL0     H26765   9.342   6.856   7.009 -2.0197 -0.6074 -1.3422
  919MOL0     H26766   9.356   6.949   7.156 -0.6390 -0.2056 -0.3575
  919MOL0     H26767   9.192   6.793   7.166  0.9468  1.2427  1.2271
  919MOL0     H26768   9.107   6.865   7.021  0.6719 -0.9619  1.1633
  919MOL0     H26769   9.152   6.985   7.300 -0.9309 -1.5409  1.4427
  919MOL0     H26770   9.065   7.081   7.168 -0.8625 -0.2568  0.3451
  919MOL0     H26771   8.843   7.014   7.070  3.1708 -3.0347 -2.8189
  919MOL0     H26772   8.564   6.781   7.187  0.4060 -1.3561  0.7789
  919MOL0     H26773   8.630   6.852   7.030 -1.3741  0.4943  0.2131
  919MOL0     H26774   8.615   7.081   7.119 -0.0612  0.7551  0.6068
  919MOL0     H26775   8.454   7.010   7.113 -0.9866 -0.2188  3.5212
  919MOL0     H26776   8.609   7.077   7.363 -0.1525  3.5977 -1.9676
  919MOL0     H26777   8.463   7.144   7.288 -1.0593 -1.0742  0.0310
  919MOL0     H26778   8.474   6.880   7.403 -0.2095 -0.2339  0.5331
  919MOL0     H26779   8.417   7.029   7.481  1.5913 -0.6116  0.3492
  919MOL0     H26780   8.290   6.839   7.576 -1.2979  0.5887  1.4074
  919MOL0     H26781   8.105   6.580   7.698 -1.9098  0.5930 -1.2229
  919MOL0     H26782   8.077   6.732   7.776  1.1988  2.8035 -0.6725
  919MOL0     H26783   8.238   6.701   7.710 -0.8600  0.9084  0.9361
  919MOL0     H26784   7.580   6.768   7.354 -2.3465 -3.4947 -4.0066
  919MOL0     H26785   7.346   6.756   7.399 -0.9878 -0.5654  0.1536
  919MOL0     H26786   7.132   6.737   7.489 -0.5495 -0.1373  0.6082
  919MOL0     H26787   7.148   6.579   7.411  3.3325  0.2152 -0.3898
  919MOL0     H26788   6.986   6.505   7.600  0.9906 -0.0160  0.2271
  919MOL0     H26789   6.986   6.678   7.649 -0.5884 -1.8084  1.6035
  919MOL0     H26790   6.896   6.585   7.367  1.9538  1.5086 -0.2328
  919MOL0     H26791   6.896   6.745   7.436  1.3075  0.7028  0.6432
  919MOL0     H26792   6.731   6.665   7.613  0.6323 -1.7371  0.7864
  919MOL0     H26793   6.732   6.499   7.542  0.4845  0.0797  1.5350
  919MOL0     H26794   6.646   6.749   7.379  0.7007 -0.0740 -0.1165
  919MOL0     H26795   6.615   6.578   7.341  1.5690 -0.6604  0.5216
  919MOL0     H26796   6.481   6.751   7.547 -2.7534  0.2276 -2.0161
  919MOL0     H26797   6.475   6.574   7.557  0.5117  1.4253  1.8545
  919MOL0     H26798   6.379   6.544   7.348 -2.6650 -0.1630  0.3761
  919MOL0     H26799   6.391   6.723   7.315 -2.1633  0.4544 -0.5238
  919MOL0     H26800   6.153   6.652   7.385  0.2800  0.2970 -0.1054
  919MOL0     H26801   6.220   6.737   7.518  1.2469  0.8606  0.8468
  919MOL0     H26802   7.414   6.442   7.691 -2.1843  1.5079  1.3733
  919MOL0     H26803   7.669   6.458   7.630 -1.1329 -0.5262  0.0697
  919MOL0     H26804   7.887   6.791   7.306 -2.5634 -4.4218  3.5788
  919MOL0     H26805   8.071   6.934   7.230  2.1654  0.9709  0.4257
  919MOL0     H26806   9.780   7.529   7.010 -0.2230  1.3544 -1.1581
  919MOL0     H26807   9.982   7.518   7.146  0.2997  1.2546  0.3890
  919MOL0     H26808  10.089   7.754   7.627 -0.0139  2.9187  1.6898
  919MOL0     H26809  10.242   7.841   7.772 -0.4211  1.9481  0.6734
  919MOL0     H26810  10.620   7.803   7.707 -2.4691 -0.6586  0.7934
  919MOL0     H26811  10.648   7.952   7.645 -0.8306 -1.0702 -1.3585
  919MOL0     H26812  10.642   8.065   7.867  0.8999  0.1261 -3.1595
  919MOL0     H26813  10.780   7.965   7.851 -0.0910  3.0061  0.7107
  919MOL0     H26814  10.528   7.886   7.991  0.3144 -3.1603 -2.7029
  919MOL0     H26815  10.676   7.785   7.986  0.0525 -0.0040 -1.2415
  919MOL0     H26816  10.797   7.903   8.126  1.3448  1.7792 -2.5421
  919MOL0     H26817  10.647   7.871   8.208  1.9714 -1.5085 -0.6943
  919MOL0     H26818  10.624   8.296   8.179 -1.4307  0.4247  0.7798
  919MOL0     H26819  10.540   7.887   7.483  0.0666  0.5161 -0.9907
  919MOL0     H26820  10.503   7.804   7.247  0.9875 -1.2813 -0.0582
  919MOL0     H26821  10.393   7.680   7.219  0.0189  0.1496 -0.9239
  919MOL0     H26822  10.336   7.847   7.207 -0.6942 -1.2947 -0.4033
  920MOL0     O26823   4.353   5.715   0.423 -0.3919 -0.5178 -0.1164
  920MOL0     C26824   4.441   5.678   0.348  0.8535 -0.1926  0.3014
  920MOL0     O26825   4.496   5.750   0.244  0.0065 -0.0039  0.7440
  920MOL0     C26826   4.450   5.866   0.196 -0.1004  0.4652 -0.8378
  920MOL0     C26827   4.316   5.894   0.160 -0.0543  0.7453  0.2487
  920MOL0     C26828   4.282   6.015   0.091  0.4653  0.4856 -0.7617
  920MOL0     C26829   4.373   6.105   0.075 -0.7546  0.3623  0.5771
  920MOL0     O26830   4.351   6.229   0.010 -0.0954 -0.0562  0.5021
  920MOL0     C26831   4.242   6.299   0.070 -0.4126  0.1728 -0.7645
  920MOL0     C26832   4.290   6.439   0.094  0.2700  0.4418  0.1694
  920MOL0     C26833   4.353   6.476   0.231  0.3256 -0.3427 -0.5248
  920MOL0     C26834   4.502   6.443   0.240 -1.2434  0.0704 -0.1813
  920MOL0     C26835   4.568   6.540   0.335 -0.4055  0.1709 -0.3775
  920MOL0     C26836   4.708   6.513   0.386 -0.3486 -0.1744 -0.5261
  920MOL0     C26837   4.811   6.568   0.296  0.7522 -0.3682 -0.5431
  920MOL0     C26838   4.945   6.544   0.352 -0.5697 -0.7585 -0.0719
  920MOL0     N26839   5.055   6.616   0.277 -0.6901 -0.5568 -0.2487
  920MOL0     C26840   5.098   6.736   0.331 -0.2814  0.3904  0.5958
  920MOL0     C26841   5.224   6.749   0.281  0.6960  0.1257 -0.3254
  920MOL0     C26842   5.317   6.860   0.279 -0.9754 -0.2808 -0.7876
  920MOL0     C26843   5.468   6.811   0.283  0.8564  0.0762  0.0766
  920MOL0     C26844   5.508   6.787   0.416 -0.2220  1.0575 -0.5110
  920MOL0     C26845   5.658   6.785   0.435 -0.3824  0.3243 -0.0948
  920MOL0     O26846   5.711   6.743   0.562  0.1919  0.1164  0.8815
  920MOL0     C26847   5.842   6.713   0.580  0.1635 -0.5268  0.3940
  920MOL0     C26848   5.872   6.592   0.640  0.1880 -0.0941 -0.5268
  920MOL0     C26849   6.004   6.568   0.700  0.0582  0.2371  0.1853
  920MOL0     C26850   6.026   6.431   0.765  0.2485  0.6438  0.3549
  920MOL0     C26851   6.107   6.663   0.672 -0.5000  0.0750  0.6897
  920MOL0     C26852   6.242   6.645   0.726  0.2303 -0.1041  0.3725
  920MOL0     O26853   6.343   6.687   0.651 -0.1033 -0.4895  0.2390
  920MOL0     C26854   6.468   6.697   0.704 -0.9068  0.7689 -1.0970
  920MOL0     C26855   6.529   6.586   0.768  0.4974  0.0573  0.2256
  920MOL0     C26856   6.662   6.590   0.819  0.2652 -0.4634  0.6543
  920MOL0     C26857   6.736   6.702   0.801 -1.2071  0.2964 -0.1241
  920MOL0     O26858   6.864   6.694   0.846  0.0457  0.0150 -0.1322
  920MOL0     C26859   6.942   6.811   0.835  0.4428 -1.3497  0.7310
  920MOL0     C26860   7.087   6.796   0.876  1.6849  0.1431  0.5867
  920MOL0     C26861   7.096   6.787   1.027 -1.2516  1.1358 -0.7427
  920MOL0     C26862   7.246   6.771   1.053  0.1481  0.3668 -0.3459
  920MOL0     C26863   7.292   6.857   1.169 -0.8428 -0.0202  0.6193
  920MOL0     C26864   7.451   6.855   1.167  0.3647 -0.6468 -0.7554
  920MOL0     C26865   7.505   6.953   1.274 -0.3080  0.0915 -0.0133
  920MOL0     C26866   7.657   6.965   1.270  0.3805  0.1219 -0.5845
  920MOL0    Cl26867   7.711   7.014   1.114 -0.0271 -0.0169 -0.3157
  920MOL0     C26868   6.675   6.818   0.735  0.5791  0.1962  0.3870
  920MOL0     C26869   6.544   6.810   0.689 -0.0282 -0.5267 -0.4240
  920MOL0     O26870   6.253   6.599   0.842  0.3267 -0.2646 -0.1847
  920MOL0     C26871   6.075   6.785   0.600 -0.5503  0.0128 -0.0122
  920MOL0     C26872   5.944   6.809   0.549  0.5146 -0.6922 -0.1544
  920MOL0     N26873   5.242   6.640   0.193  0.3355  0.7087 -0.2521
  920MOL0     N26874   5.140   6.563   0.197 -0.1574  0.5217 -0.3738
  920MOL0     C26875   4.503   6.082   0.114  0.4236  0.0590  0.5860
  920MOL0     C26876   4.542   5.967   0.181 -0.7647 -0.6743 -0.0171
  920MOL0     C26877   4.496   5.540   0.363  0.2682  0.4632  0.2367
  920MOL0     C26878   4.628   5.512   0.327 -1.0212 -0.2674  0.2946
  920MOL0     C26879   4.690   5.389   0.334 -0.0513  0.3207 -0.3601
  920MOL0     C26880   4.616   5.276   0.396  0.3589  0.0266  0.8470
  920MOL0     O26881   4.660   5.151   0.421  0.7247 -0.1388 -0.0700
  920MOL0     C26882   4.794   5.123   0.414 -0.0139  0.4493 -0.6657
  920MOL0     C26883   4.814   4.990   0.483  0.0873  0.0183 -0.0295
  920MOL0     C26884   4.956   4.964   0.528  0.4154 -0.3785  0.2030
  920MOL0     C26885   5.000   4.826   0.534 -0.1703  0.2547 -0.1056
  920MOL0     C26886   4.888   4.745   0.572 -0.0911 -0.3631 -0.4910
  920MOL0     C26887   4.788   4.681   0.604  0.1129  0.2635  0.1756
  920MOL0     C26888   4.485   5.304   0.430 -1.1111  0.2713 -0.5657
  920MOL0     C26889   4.430   5.426   0.419  0.9614 -0.0865  1.0609
  920MOL0     C26890   4.290   5.440   0.467  0.5296 -0.3253 -0.2444
  920MOL0     H26891   4.247   5.811   0.170 -1.4188  1.6683 -1.0504
  920MOL0     H26892   4.180   6.033   0.059  0.0295  1.4329  1.0146
  920MOL0     H26893   4.208   6.249   0.162  1.0297 -1.1821 -0.9110
  920MOL0     H26894   4.153   6.301   0.008 -0.4833  0.5446 -0.6489
  920MOL0     H26895   4.368   6.457   0.019  0.5626  1.5255  0.7217
  920MOL0     H26896   4.200   6.497   0.074 -2.3757 -2.6969  2.0260
  920MOL0     H26897   4.341   6.584   0.240 -1.6036 -0.5377 -0.2644
  920MOL0     H26898   4.288   6.427   0.305  2.7022 -1.8562  0.6889
  920MOL0     H26899   4.521   6.339   0.267 -0.7209  0.2899  0.3080
  920MOL0     H26900   4.564   6.450   0.150  2.3370 -2.7483  1.7956
  920MOL0     H26901   4.502   6.566   0.418  1.5564  2.0416  0.7054
  920MOL0     H26902   4.569   6.635   0.282  0.7313 -0.3421 -1.3104
  920MOL0     H26903   4.725   6.558   0.484 -1.1610 -2.8296  0.9185
  920MOL0     H26904   4.718   6.405   0.388 -2.1450 -0.3683 -0.2027
  920MOL0     H26905   4.796   6.675   0.275 -0.4897 -0.6383 -1.1830
  920MOL0     H26906   4.805   6.524   0.196  3.9678  1.2337 -1.5656
  920MOL0     H26907   4.954   6.570   0.458  0.4490  2.0790 -0.7645
  920MOL0     H26908   4.965   6.437   0.347  0.3490 -0.5681 -0.7716
  920MOL0     H26909   5.058   6.801   0.408  0.4428  0.6661  0.7452
  920MOL0     H26910   5.297   6.928   0.363 -3.3042  3.1693 -3.7933
  920MOL0     H26911   5.293   6.925   0.194 -1.9646 -0.7883 -0.9038
  920MOL0     H26912   5.475   6.722   0.221 -1.3237  0.5963 -1.0110
  920MOL0     H26913   5.533   6.889   0.241  0.4549  2.1733  3.0343
  920MOL0     H26914   5.466   6.860   0.485  0.7782 -1.4307  3.0142
  920MOL0     H26915   5.472   6.690   0.451 -0.5447  0.7459 -1.6793
  920MOL0     H26916   5.699   6.716   0.361 -1.9017  1.0829 -1.7419
  920MOL0     H26917   5.701   6.878   0.397 -1.7439  1.5569  1.2582
  920MOL0     H26918   5.792   6.520   0.655  0.5763 -0.0474  2.2289
  920MOL0     H26919   6.018   6.445   0.873 -1.1082 -1.0652  0.5038
  920MOL0     H26920   6.125   6.390   0.742 -0.8315 -2.4728  0.8561
  920MOL0     H26921   5.939   6.377   0.727  0.5647  2.2330 -2.9910
  920MOL0     H26922   6.474   6.493   0.775  1.1413 -0.2262  1.9480
  920MOL0     H26923   6.702   6.500   0.864  0.6387 -0.1078  1.0452
  920MOL0     H26924   6.952   6.836   0.729  0.9574  1.2750  1.3335
  920MOL0     H26925   6.894   6.899   0.879  0.0190 -1.6483  0.8771
  920MOL0     H26926   7.132   6.704   0.836  0.8876 -0.0369  0.0814
  920MOL0     H26927   7.134   6.886   0.836 -1.0116  1.7143  0.6727
  920MOL0     H26928   7.047   6.695   1.059  1.4454 -0.0854  0.1870
  920MOL0     H26929   7.069   6.881   1.076  0.8163  2.7364 -2.4734
  920MOL0     H26930   7.298   6.800   0.961 -0.7143 -0.0846 -0.9920
  920MOL0     H26931   7.266   6.665   1.068 -0.9220  0.2636  0.5204
  920MOL0     H26932   7.262   6.961   1.153  1.3111  0.2950 -2.1048
  920MOL0     H26933   7.257   6.817   1.264  3.6842 -2.1846  1.6501
  920MOL0     H26934   7.491   6.895   1.073  1.1789  2.9192  0.9558
  920MOL0     H26935   7.483   6.755   1.197  1.8620  0.2068  0.5898
  920MOL0     H26936   7.479   6.923   1.376  0.6284 -0.3548  0.1014
  920MOL0     H26937   7.471   7.056   1.257  0.5802  0.2877 -0.6907
  920MOL0     H26938   7.695   6.867   1.302 -1.1195 -1.5353 -3.5175
  920MOL0     H26939   7.678   7.045   1.342 -0.6358 -1.7015  1.8903
  920MOL0     H26940   6.733   6.910   0.727  0.2521  0.3444 -0.3612
  920MOL0     H26941   6.510   6.904   0.648  0.1734  1.1655  2.9171
  920MOL0     H26942   6.146   6.867   0.590  0.3449 -0.6626  0.6881
  920MOL0     H26943   5.916   6.900   0.497 -2.1035 -1.2613  0.1160
  920MOL0     H26944   4.581   6.157   0.110 -0.3091  0.8417  0.7981
  920MOL0     H26945   4.643   5.944   0.214 -0.0928  1.1160 -0.7476
  920MOL0     H26946   4.698   5.595   0.319 -1.9439  0.7029  1.7763
  920MOL0     H26947   4.795   5.373   0.311 -0.7578 -3.8245 -1.5343
  920MOL0     H26948   4.816   5.119   0.307 -0.6926 -0.4390 -0.7864
  920MOL0     H26949   4.858   5.192   0.470  0.7136 -0.3814 -0.4550
  920MOL0     H26950   4.782   4.922   0.404 -0.5991 -0.0919  0.3334
  920MOL0     H26951   4.741   4.984   0.564 -2.8380  0.8223 -2.4294
  920MOL0     H26952   5.027   5.020   0.467 -0.5079 -1.2640 -1.7940
  920MOL0     H26953   4.978   5.007   0.626  1.5141 -1.3817  0.4232
  920MOL0     H26954   5.074   4.828   0.615 -0.0735 -0.6330 -0.1701
  920MOL0     H26955   5.046   4.790   0.442 -2.0270 -1.9077 -0.2885
  920MOL0     H26956   4.706   4.618   0.633  0.4517  1.1493  3.5515
  920MOL0     H26957   4.433   5.227   0.487  0.9842 -0.3448  0.6386
  920MOL0     H26958   4.246   5.342   0.486  0.5157 -0.0343  1.4378
  920MOL0     H26959   4.289   5.500   0.559  0.3130 -1.6068  0.6241
  920MOL0     H26960   4.230   5.488   0.389  0.6959  0.7083  0.2431
  921MOL0     O26961   4.070   8.226   9.243 -1.5519 -0.4694  0.4012
  921MOL0     C26962   4.000   8.146   9.177 -0.0133 -0.0904 -0.2122
  921MOL0     O26963   4.027   8.098   9.056 -0.2877  0.8011  0.5128
  921MOL0     C26964   4.154   8.130   9.002  0.3429 -0.1347 -0.0384
  921MOL0     C26965   4.154   8.191   8.885  0.1341 -0.0407  0.4482
  921MOL0     C26966   4.270   8.212   8.806 -0.5496  0.6033 -0.0413
  921MOL0     C26967   4.393   8.183   8.862 -0.8730 -0.0666 -0.8321
  921MOL0     O26968   4.502   8.197   8.787 -0.3780 -0.3258 -0.0910
  921MOL0     C26969   4.529   8.336   8.784  0.2250  0.3799  0.3700
  921MOL0     C26970   4.671   8.358   8.755 -0.5317 -0.2477 -0.7096
  921MOL0     C26971   4.731   8.314   8.614  0.9326 -0.5530  0.4695
  921MOL0     C26972   4.866   8.235   8.604  0.4241 -0.3718 -1.0563
  921MOL0     C26973   4.949   8.259   8.479  0.6240  0.0275  0.0834
  921MOL0     C26974   5.095   8.243   8.507  0.5831 -0.5609 -0.7569
  921MOL0     C26975   5.173   8.253   8.376  0.8460 -0.2250 -0.7795
  921MOL0     C26976   5.315   8.216   8.396  0.3379 -0.2174 -0.9812
  921MOL0     N26977   5.403   8.234   8.283  0.0797  0.1009  0.4383
  921MOL0     C26978   5.456   8.352   8.241  0.8958 -0.5982 -0.3386
  921MOL0     C26979   5.522   8.318   8.129 -0.5807  0.7244 -0.0208
  921MOL0     C26980   5.592   8.419   8.043 -0.5133 -0.6132  0.0395
  921MOL0     C26981   5.747   8.423   8.056  0.0049 -0.2268  0.7329
  921MOL0     C26982   5.813   8.484   7.937 -0.4575  0.4324  0.7576
  921MOL0     C26983   5.969   8.477   7.947  0.9570 -0.2054 -0.0574
  921MOL0     O26984   6.023   8.346   7.916  0.2227  0.6939 -0.4655
  921MOL0     C26985   6.156   8.329   7.946 -0.2896 -1.0007 -0.3549
  921MOL0     C26986   6.195   8.198   7.956  0.3085  0.1366 -0.8066
  921MOL0     C26987   6.331   8.162   7.984 -0.4341  0.3561 -0.0694
  921MOL0     C26988   6.360   8.018   8.002  0.3789  0.2905  0.4625
  921MOL0     C26989   6.433   8.266   7.988  0.5258 -0.4377 -0.1260
  921MOL0     C26990   6.580   8.232   8.002 -0.5389 -0.4616  0.1705
  921MOL0     O26991   6.665   8.329   7.980 -0.2228 -0.4501 -0.8048
  921MOL0     C26992   6.801   8.302   8.010 -0.0751  0.0748  0.0443
  921MOL0     C26993   6.874   8.239   7.912  0.7554  0.3261 -0.2390
  921MOL0     C26994   7.010   8.203   7.939  0.0162 -0.3500  0.5853
  921MOL0     C26995   7.067   8.228   8.063  0.5150  0.3233 -0.6223
  921MOL0     O26996   7.189   8.169   8.091  1.0741 -0.2762  0.8459
  921MOL0     C26997   7.225   8.156   8.227  0.6908 -0.3994  0.0963
  921MOL0     C26998   7.343   8.069   8.240 -0.3252 -0.3610  0.4765
  921MOL0     C26999   7.481   8.124   8.204  0.0540  0.5205  0.6001
  921MOL0     C27000   7.586   8.030   8.246 -0.6028 -0.5365  0.4706
  921MOL0     C27001   7.728   8.086   8.213 -0.9208  0.0363  0.2191
  921MOL0     C27002   7.765   8.214   8.296  0.9885  0.0333  0.3314
  921MOL0     C27003   7.882   8.301   8.244 -0.0753 -0.2729  0.3311
  921MOL0     C27004   8.018   8.231   8.245  0.3174 -0.8532  0.2139
  921MOL0    Cl27005   8.064   8.203   8.406 -0.1332  0.1449  0.0724
  921MOL0     C27006   6.993   8.294   8.164 -0.2544  0.2126  0.3795
  921MOL0     C27007   6.862   8.343   8.132  0.4473 -0.0032  0.5737
  921MOL0     O27008   6.603   8.118   8.050  0.6434  0.3228  0.1209
  921MOL0     C27009   6.391   8.400   7.969  0.0284  0.2728  0.2878
  921MOL0     C27010   6.260   8.433   7.956  0.0191  0.5694 -0.3353
  921MOL0     N27011   5.517   8.186   8.104  0.0539  0.5034  0.3057
  921MOL0     N27012   5.449   8.136   8.201  0.3012  0.3766 -0.1585
  921MOL0     C27013   4.394   8.116   8.989  0.6164 -0.3190  0.2483
  921MOL0     C27014   4.278   8.098   9.063  0.5814  0.8069  0.1721
  921MOL0     C27015   3.878   8.091   9.241 -0.4734 -0.0410 -0.5588
  921MOL0     C27016   3.860   7.956   9.223  0.6605 -0.3801 -0.4658
  921MOL0     C27017   3.729   7.904   9.253  0.6179 -0.0028  0.0239
  921MOL0     C27018   3.626   7.984   9.321  0.0952  0.3123  0.6985
  921MOL0     O27019   3.502   7.921   9.340 -0.2235  0.2391  0.1671
  921MOL0     C27020   3.406   7.989   9.422 -0.9406 -0.3863  0.1347
  921MOL0     C27021   3.294   7.891   9.460  0.2002  0.3639  0.4026
  921MOL0     C27022   3.184   7.946   9.560  0.6561  0.1545  0.7893
  921MOL0     C27023   3.063   7.853   9.568  0.6784 -0.2366  0.6362
  921MOL0     C27024   2.934   7.917   9.603 -0.3829 -0.1237  1.1403
  921MOL0     C27025   2.846   7.996   9.627  0.4996 -0.4917  0.1311
  921MOL0     C27026   3.658   8.117   9.349 -0.1796  0.2802  0.4948
  921MOL0     C27027   3.783   8.171   9.307  0.3437 -0.8935 -0.3659
  921MOL0     C27028   3.795   8.327   9.321 -0.5625 -0.3237 -0.6372
  921MOL0     H27029   4.058   8.224   8.847  0.1961 -0.3676  0.0054
  921MOL0     H27030   4.272   8.251   8.704  2.6027  0.3846 -0.1684
  921MOL0     H27031   4.493   8.388   8.873 -0.0405  1.4060 -0.3241
  921MOL0     H27032   4.468   8.372   8.701  2.6718 -0.3890 -1.9180
  921MOL0     H27033   4.682   8.467   8.757 -2.1610 -0.0793  1.3141
  921MOL0     H27034   4.721   8.306   8.837 -0.8015  0.8311  0.1574
  921MOL0     H27035   4.654   8.257   8.561 -0.2122  0.7933  0.6278
  921MOL0     H27036   4.725   8.407   8.556  1.3170  0.4748  2.0274
  921MOL0     H27037   4.931   8.280   8.680 -0.2871  0.8356 -1.1291
  921MOL0     H27038   4.863   8.129   8.630  2.0067 -0.3613 -0.7408
  921MOL0     H27039   4.942   8.364   8.450 -1.1578 -0.0710  0.0157
  921MOL0     H27040   4.921   8.199   8.392  2.2242  1.8438 -1.8034
  921MOL0     H27041   5.123   8.323   8.576  0.1339  0.4016 -1.6597
  921MOL0     H27042   5.119   8.154   8.565 -0.4163  1.6763  3.5238
  921MOL0     H27043   5.169   8.356   8.339  1.8811 -0.1814 -0.7897
  921MOL0     H27044   5.134   8.186   8.299 -3.2539  1.4219 -0.3668
  921MOL0     H27045   5.351   8.287   8.471  1.0696 -1.1378 -0.4325
  921MOL0     H27046   5.327   8.111   8.425 -0.5527 -0.1639 -0.3815
  921MOL0     H27047   5.445   8.448   8.291  3.3695 -0.1301 -0.5860
  921MOL0     H27048   5.548   8.519   8.044 -3.0453 -1.6508 -0.6408
  921MOL0     H27049   5.575   8.384   7.941 -0.4120 -0.5359 -0.0040
  921MOL0     H27050   5.765   8.480   8.148 -3.0465 -0.2771  1.4826
  921MOL0     H27051   5.786   8.321   8.068  0.6529  0.1648  2.2218
  921MOL0     H27052   5.785   8.415   7.856  2.2315 -1.0612  1.0028
  921MOL0     H27053   5.790   8.588   7.912  1.5947  0.5299 -1.0331
  921MOL0     H27054   5.991   8.540   7.860 -1.5941 -1.2023 -1.5341
  921MOL0     H27055   5.998   8.516   8.045 -0.3984  0.5166  0.0733
  921MOL0     H27056   6.122   8.119   7.960  1.3453 -0.7867  1.1029
  921MOL0     H27057   6.267   7.961   8.000  1.8571 -2.2395 -0.1327
  921MOL0     H27058   6.400   7.978   8.096  0.9677 -3.9724 -1.3846
  921MOL0     H27059   6.409   7.986   7.910  0.7471  0.9482  0.4219
  921MOL0     H27060   6.830   8.235   7.814 -0.0506  0.8497  0.0948
  921MOL0     H27061   7.075   8.154   7.866  2.2410  1.9984  0.8631
  921MOL0     H27062   7.259   8.254   8.263  1.7360  0.2398 -2.3568
  921MOL0     H27063   7.140   8.118   8.283 -2.1902  0.9040 -3.0302
  921MOL0     H27064   7.346   8.027   8.341 -1.8678 -1.6148  0.0356
  921MOL0     H27065   7.321   7.980   8.182 -0.1547 -0.7765  1.0381
  921MOL0     H27066   7.498   8.220   8.253  0.4636  0.8543 -0.1824
  921MOL0     H27067   7.494   8.142   8.097  1.0368  1.4147  0.8581
  921MOL0     H27068   7.564   7.939   8.191  2.1818 -0.8623 -0.2257
  921MOL0     H27069   7.584   8.013   8.354 -1.8195 -0.0690  0.5483
  921MOL0     H27070   7.808   8.017   8.238 -1.9004 -1.1674  0.1139
  921MOL0     H27071   7.750   8.107   8.108 -0.9061 -0.5963  0.0907
  921MOL0     H27072   7.786   8.185   8.400 -1.1379  2.8436  1.6792
  921MOL0     H27073   7.686   8.289   8.305  1.8196  1.0084 -0.1807
  921MOL0     H27074   7.893   8.393   8.302  4.1161  0.0038 -0.5645
  921MOL0     H27075   7.861   8.337   8.143  1.9438 -3.2594 -1.3230
  921MOL0     H27076   8.096   8.290   8.198 -0.3702  0.2217  0.3939
  921MOL0     H27077   8.002   8.137   8.190 -0.3651 -0.6268  0.0039
  921MOL0     H27078   7.031   8.314   8.264  0.1884  1.3627 -0.0051
  921MOL0     H27079   6.806   8.394   8.209  1.4532  2.3347 -0.1569
  921MOL0     H27080   6.465   8.479   7.976 -0.9244  1.2404 -0.2288
  921MOL0     H27081   6.232   8.537   7.965  0.5250  0.5428  3.3520
  921MOL0     H27082   4.491   8.080   9.021 -0.0607 -1.6201  0.9458
  921MOL0     H27083   4.274   8.047   9.158  2.8636 -1.3890 -0.7689
  921MOL0     H27084   3.930   7.886   9.180  0.8871  0.0889 -0.8673
  921MOL0     H27085   3.711   7.798   9.236  3.1919 -0.0270 -4.4197
  921MOL0     H27086   3.449   8.033   9.513 -2.4409 -0.8931  1.1282
  921MOL0     H27087   3.375   8.075   9.361  3.7360  2.7489  1.5779
  921MOL0     H27088   3.329   7.795   9.499 -1.1388 -1.1466 -1.8923
  921MOL0     H27089   3.242   7.859   9.370  1.3002 -0.3676  0.0079
  921MOL0     H27090   3.230   7.968   9.657 -1.1352 -0.8574  1.9138
  921MOL0     H27091   3.137   8.041   9.533 -1.2352 -0.3346  2.1609
  921MOL0     H27092   3.091   7.788   9.652  1.5664  0.2534  0.7317
  921MOL0     H27093   3.037   7.787   9.485 -1.6353  1.6676 -0.2669
  921MOL0     H27094   2.772   8.074   9.634  1.3008  0.4041 -0.9837
  921MOL0     H27095   3.584   8.178   9.400  1.1842  2.9113 -0.5187
  921MOL0     H27096   3.713   8.375   9.374  0.9064  3.1270 -1.2651
  921MOL0     H27097   3.886   8.347   9.377 -1.0017  1.1036 -0.4002
  921MOL0     H27098   3.799   8.376   9.223 -0.1617  0.5660 -0.1770
  922MOL0     O27099   0.312   0.483  10.334  0.4309 -0.9475  0.2124
  922MOL0     C27100   0.206   0.499  10.271  0.2832 -0.8263  0.1782
  922MOL0     O27101   0.203   0.560  10.150  0.0419  0.1564  0.5167
  922MOL0     C27102   0.086   0.632  10.126 -0.5307  0.8805  0.2170
  922MOL0     C27103   0.070   0.754  10.190  0.2814 -0.8355  0.2082
  922MOL0     C27104  -0.036   0.836  10.153  0.0862  0.5849 -0.0377
  922MOL0     C27105  -0.129   0.801  10.052 -0.3531  0.2114 -0.0492
  922MOL0     O27106  -0.242   0.865  10.019  0.3649 -0.2041  0.0749
  922MOL0     C27107  -0.212   0.994   9.975  0.4814  0.5452 -0.2587
  922MOL0     C27108  -0.303   1.021   9.850 -0.6253  0.6935 -0.1411
  922MOL0     C27109  -0.329   1.165   9.810  0.2394  0.4741 -0.1381
  922MOL0     C27110  -0.208   1.253   9.797 -0.4843 -2.0039 -0.0343
  922MOL0     C27111  -0.250   1.393   9.764  0.6904 -0.3961 -0.5597
  922MOL0     C27112  -0.129   1.482   9.740 -0.2246 -0.2483 -0.2423
  922MOL0     C27113  -0.062   1.471   9.595  0.7182  0.3171 -0.7973
  922MOL0     C27114   0.069   1.543   9.588 -0.5920 -0.9248 -0.3702
  922MOL0     N27115   0.145   1.529   9.464 -0.7182  0.5768  0.5022
  922MOL0     C27116   0.272   1.479   9.463 -0.1938 -0.2313 -0.1922
  922MOL0     C27117   0.323   1.506   9.343  0.5815 -0.4812  0.3160
  922MOL0     C27118   0.449   1.452   9.277  0.4476 -0.6057 -0.1769
  922MOL0     C27119   0.551   1.411   9.381 -0.1339 -0.6394  0.0497
  922MOL0     C27120   0.671   1.348   9.313  1.0482 -0.3160  0.4543
  922MOL0     C27121   0.753   1.286   9.429 -0.2985  0.0948 -0.1023
  922MOL0     O27122   0.818   1.388   9.510 -0.2916 -0.7601  0.2889
  922MOL0     C27123   0.952   1.380   9.526  0.0508 -0.4576 -0.1367
  922MOL0     C27124   1.003   1.360   9.655  0.5039  0.2350 -0.0183
  922MOL0     C27125   1.135   1.359   9.696  0.8869 -0.0846  0.3447
  922MOL0     C27126   1.161   1.332   9.836 -0.0021  0.4275 -0.5648
  922MOL0     C27127   1.237   1.400   9.607 -0.5771  0.6367  0.6018
  922MOL0     C27128   1.371   1.440   9.642 -0.7512  0.1796  0.9844
  922MOL0     O27129   1.397   1.515   9.758  0.5116  0.3049 -0.3927
  922MOL0     C27130   1.522   1.529   9.802 -0.1362  0.3187  0.1030
  922MOL0     C27131   1.541   1.635   9.892 -0.4851  0.4354 -0.1409
  922MOL0     C27132   1.668   1.671   9.940  0.2288  0.4128  0.6727
  922MOL0     C27133   1.785   1.599   9.905  1.0778  0.6087  0.2690
  922MOL0     O27134   1.915   1.632   9.942  0.0353 -0.0587  0.3918
  922MOL0     C27135   1.941   1.751  10.019 -0.2321  0.7373 -0.7657
  922MOL0     C27136   2.082   1.794   9.983 -0.2019  0.0105  1.0740
  922MOL0     C27137   2.193   1.740  10.075  0.2842  0.0167  0.2634
  922MOL0     C27138   2.207   1.592  10.078 -0.5871 -0.0793 -0.0019
  922MOL0     C27139   2.311   1.524  10.175 -0.4496  0.5795 -0.5573
  922MOL0     C27140   2.323   1.373  10.152  0.7042  0.0790 -0.2065
  922MOL0     C27141   2.449   1.302  10.185  0.1468  0.9476  0.4966
  922MOL0     C27142   2.442   1.159  10.135 -0.5803  0.3336  0.1528
  922MOL0    Cl27143   2.586   1.066  10.194 -0.2426  0.0891 -0.0724
  922MOL0     C27144   1.764   1.484   9.824  0.6117 -0.2447 -0.0502
  922MOL0     C27145   1.631   1.449   9.774 -0.1433  0.1368 -0.0137
  922MOL0     O27146   1.458   1.394   9.560  0.5675 -0.2040  0.6964
  922MOL0     C27147   1.189   1.427   9.474 -0.8834 -0.0848 -0.5060
  922MOL0     C27148   1.049   1.414   9.433 -0.4236 -0.8311  0.4284
  922MOL0     N27149   0.216   1.555   9.271  0.9310  0.1652 -0.9508
  922MOL0     N27150   0.112   1.577   9.340 -0.6683 -0.1472 -0.2682
  922MOL0     C27151  -0.107   0.681   9.980  0.2737 -0.0161  0.1739
  922MOL0     C27152   0.008   0.596  10.014  0.2753  0.1147  0.1498
  922MOL0     C27153   0.075   0.463  10.347 -0.2050 -0.4864 -0.5346
  922MOL0     C27154   0.053   0.516  10.470 -0.4234 -0.6063 -0.3002
  922MOL0     C27155  -0.052   0.467  10.552  0.0923  0.1035 -0.5737
  922MOL0     C27156  -0.124   0.357  10.510 -0.1625 -0.6582 -0.8347
  922MOL0     O27157  -0.223   0.303  10.594 -0.4589 -0.2114  0.3910
  922MOL0     C27158  -0.361   0.309  10.553  0.1779 -0.7866  0.0612
  922MOL0     C27159  -0.450   0.236  10.651  0.3884  0.8258 -0.0069
  922MOL0     C27160  -0.421   0.082  10.647 -0.0775  0.2224 -0.3061
  922MOL0     C27161  -0.450   0.001  10.518 -0.4713  0.1625 -0.1094
  922MOL0     C27162  -0.598   0.012  10.505 -0.0062  0.0864  0.2574
  922MOL0     C27163  -0.717   0.013  10.494 -0.1342  0.3546  0.0318
  922MOL0     C27164  -0.100   0.298  10.392  0.2766  0.4709  0.0513
  922MOL0     C27165  -0.000   0.352  10.303  1.0883  0.1565 -0.1274
  922MOL0     C27166   0.042   0.268  10.185 -0.1562 -0.2433 -0.3964
  922MOL0     H27167   0.138   0.791  10.266  1.7515 -3.4291  0.2821
  922MOL0     H27168  -0.034   0.933  10.201  0.3929  0.6996 -0.2770
  922MOL0     H27169  -0.107   1.001   9.943  1.4080 -1.3781  2.0682
  922MOL0     H27170  -0.245   1.055  10.060 -2.8015 -2.7057  1.0507
  922MOL0     H27171  -0.251   0.985   9.761 -1.6899  1.1222 -0.9539
  922MOL0     H27172  -0.403   0.979   9.860 -1.0705  2.0569  1.6725
  922MOL0     H27173  -0.392   1.169   9.720 -2.8604  2.1121  1.9502
  922MOL0     H27174  -0.390   1.212   9.888 -0.2781 -0.3130 -0.0566
  922MOL0     H27175  -0.154   1.252   9.892 -0.4392  2.1530  0.1922
  922MOL0     H27176  -0.145   1.211   9.718  2.4026 -1.1880  1.6804
  922MOL0     H27177  -0.319   1.441   9.834 -1.5904 -3.4307 -0.5386
  922MOL0     H27178  -0.306   1.381   9.671  1.4407 -1.5497 -0.8938
  922MOL0     H27179  -0.170   1.580   9.764  1.6837  0.0124  2.3154
  922MOL0     H27180  -0.051   1.457   9.812 -0.6037  2.6841  1.3156
  922MOL0     H27181  -0.134   1.521   9.530  1.2592  0.8767 -0.9741
  922MOL0     H27182  -0.033   1.366   9.580 -1.5429 -0.5174  0.0998
  922MOL0     H27183   0.053   1.651   9.601 -1.5741 -0.5221 -3.7659
  922MOL0     H27184   0.140   1.505   9.662  0.8378 -0.0947 -1.2716
  922MOL0     H27185   0.328   1.432   9.543 -1.3310 -1.7726 -0.2506
  922MOL0     H27186   0.496   1.530   9.217  1.6487  0.3241  1.8720
  922MOL0     H27187   0.415   1.371   9.212 -0.4302  1.3735 -2.2914
  922MOL0     H27188   0.585   1.494   9.444 -0.2187  0.6227 -1.4878
  922MOL0     H27189   0.501   1.331   9.436 -0.4009 -2.1125 -2.2059
  922MOL0     H27190   0.637   1.269   9.245 -1.8015  1.1725  0.0286
  922MOL0     H27191   0.708   1.428   9.247 -2.4846  0.9816 -0.1381
  922MOL0     H27192   0.691   1.230   9.500 -2.0423  0.9158 -0.9079
  922MOL0     H27193   0.822   1.211   9.389 -1.1206  0.2727 -1.9335
  922MOL0     H27194   0.932   1.332   9.732  2.1891  1.1931  1.9874
  922MOL0     H27195   1.251   1.271   9.847  0.0837  0.6442 -0.0350
  922MOL0     H27196   1.086   1.265   9.878 -0.9810  1.3246 -0.8465
  922MOL0     H27197   1.162   1.423   9.897 -0.0881 -0.6540  1.1253
  922MOL0     H27198   1.456   1.689   9.933 -0.0971  0.7333  0.2807
  922MOL0     H27199   1.675   1.761  10.001 -0.3415  0.1706  1.1053
  922MOL0     H27200   1.872   1.828   9.984 -0.7848  1.2198  1.2781
  922MOL0     H27201   1.925   1.747  10.127  2.7546 -0.6629 -0.2535
  922MOL0     H27202   2.103   1.775   9.878 -2.6032 -1.8854  0.8331
  922MOL0     H27203   2.088   1.901  10.004  2.5641 -0.3564  2.5891
  922MOL0     H27204   2.174   1.775  10.177  1.6156 -0.3722  0.6650
  922MOL0     H27205   2.283   1.794  10.046  0.2924  1.3397  2.5559
  922MOL0     H27206   2.219   1.556   9.975  0.1367 -2.8106  0.9422
  922MOL0     H27207   2.113   1.551  10.115  1.4488 -0.2065  5.9839
  922MOL0     H27208   2.403   1.578  10.155 -1.1294  2.1545  0.3159
  922MOL0     H27209   2.281   1.553  10.277  1.8854 -1.4510  0.7874
  922MOL0     H27210   2.315   1.356  10.044 -1.5094 -1.1398  0.0915
  922MOL0     H27211   2.231   1.329  10.190  0.3163  1.9656  1.2187
  922MOL0     H27212   2.483   1.295  10.288 -1.2418  0.0686  0.9116
  922MOL0     H27213   2.526   1.350  10.123 -1.6927  0.7562 -2.0908
  922MOL0     H27214   2.433   1.157  10.026 -2.5508  3.8704  0.0889
  922MOL0     H27215   2.351   1.107  10.166  0.1307 -1.9797 -1.4387
  922MOL0     H27216   1.848   1.418   9.802 -0.2010 -0.7375 -1.7709
  922MOL0     H27217   1.624   1.351   9.729  1.3132 -0.5986  1.2515
  922MOL0     H27218   1.264   1.456   9.402 -0.5561 -0.0366 -0.1501
  922MOL0     H27219   1.012   1.441   9.334 -0.2261  0.1146  0.6039
  922MOL0     H27220  -0.171   0.659   9.896  1.4498 -0.5075 -0.6215
  922MOL0     H27221   0.044   0.505   9.967  2.2939  1.0656 -0.2713
  922MOL0     H27222   0.106   0.609  10.490  0.0265 -0.7849 -0.6734
  922MOL0     H27223  -0.068   0.515  10.648 -1.0407 -2.6445  0.7044
  922MOL0     H27224  -0.398   0.411  10.563  0.1053 -0.9761  2.1332
  922MOL0     H27225  -0.374   0.273  10.451 -1.2598  0.5673 -0.2797
  922MOL0     H27226  -0.557   0.248  10.631  0.0716 -2.7612 -1.1597
  922MOL0     H27227  -0.429   0.262  10.755 -0.1379 -0.8264  0.5344
  922MOL0     H27228  -0.316   0.068  10.676 -0.6461 -1.4349  1.1313
  922MOL0     H27229  -0.478   0.030  10.724  1.9230 -0.3572  0.8534
  922MOL0     H27230  -0.419  -0.098  10.552 -0.2708  1.0982  2.6583
  922MOL0     H27231  -0.388   0.026  10.432  1.4965 -1.4491  0.7658
  922MOL0     H27232  -0.822   0.024  10.473  0.2038 -0.4536 -2.3261
  922MOL0     H27233  -0.166   0.217  10.364  0.0095  0.5381  0.4763
  922MOL0     H27234   0.151   0.259  10.188 -0.2769 -1.8062  1.6493
  922MOL0     H27235  -0.002   0.167  10.190  0.6141 -0.7277 -2.4311
  922MOL0     H27236   0.011   0.304  10.087  3.9679  0.0442 -1.7563
  923MOL0     O27237   1.027   2.828   9.995  0.1375 -0.2802  0.2301
  923MOL0     C27238   0.923   2.770   9.989  0.4899  0.3201  0.6103
  923MOL0     O27239   0.897   2.655   9.914 -0.1369 -0.2107  0.8791
  923MOL0     C27240   1.005   2.593   9.849  0.7582 -1.1490  1.0100
  923MOL0     C27241   1.092   2.665   9.760 -0.4772 -0.1379 -0.3526
  923MOL0     C27242   1.195   2.606   9.695 -0.6651 -0.2075 -0.2469
  923MOL0     C27243   1.212   2.469   9.713 -0.3375  0.0730 -0.3485
  923MOL0     O27244   1.321   2.398   9.666 -0.1793  0.1215 -0.0548
  923MOL0     C27245   1.399   2.452   9.562  0.5657 -0.6181  0.9211
  923MOL0     C27246   1.451   2.339   9.481 -0.7111 -0.1806 -0.1025
  923MOL0     C27247   1.505   2.378   9.342 -0.0708  0.8105 -0.2544
  923MOL0     C27248   1.636   2.452   9.341 -0.1148  1.1526 -0.0906
  923MOL0     C27249   1.758   2.385   9.403  0.6229 -0.4213 -0.3872
  923MOL0     C27250   1.803   2.249   9.337 -0.1078  0.6357 -0.4637
  923MOL0     C27251   1.941   2.220   9.395  0.2280  0.4217 -0.5162
  923MOL0     C27252   1.989   2.099   9.306 -0.1334  0.5174 -0.1547
  923MOL0     N27253   2.131   2.069   9.333 -0.8107  0.3580 -0.6022
  923MOL0     C27254   2.190   1.944   9.360 -0.5981 -0.0405  0.3219
  923MOL0     C27255   2.323   1.977   9.376 -0.0511 -0.5091 -0.8512
  923MOL0     C27256   2.435   1.882   9.413 -0.2286 -0.3686 -0.4742
  923MOL0     C27257   2.476   1.908   9.562 -0.3980  0.0680 -0.4445
  923MOL0     C27258   2.595   1.812   9.593  1.0222 -0.5855  0.2211
  923MOL0     C27259   2.630   1.815   9.745 -0.1610  0.0093  0.2922
  923MOL0     O27260   2.726   1.702   9.765 -0.1893  0.2234 -1.0573
  923MOL0     C27261   2.859   1.725   9.752  0.0169 -0.5590 -0.2658
  923MOL0     C27262   2.944   1.836   9.774  0.0026  0.3038 -0.6246
  923MOL0     C27263   3.082   1.834   9.753  0.1871  0.3463 -0.0937
  923MOL0     C27264   3.168   1.955   9.771  0.2503  0.1700  0.6596
  923MOL0     C27265   3.148   1.708   9.731 -0.4281 -0.7694 -0.1446
  923MOL0     C27266   3.301   1.684   9.728 -0.3384  0.1119 -0.4353
  923MOL0     O27267   3.379   1.788   9.760 -0.0068 -0.1225 -0.0261
  923MOL0     C27268   3.506   1.779   9.801 -0.6626  0.5597 -0.3005
  923MOL0     C27269   3.563   1.903   9.827  1.0724  1.1504 -0.0311
  923MOL0     C27270   3.698   1.924   9.845 -0.0869 -0.3467  0.3810
  923MOL0     C27271   3.790   1.815   9.857  0.3389  0.1511 -0.7234
  923MOL0     O27272   3.921   1.816   9.846  0.0962 -0.0388  0.2755
  923MOL0     C27273   3.976   1.938   9.891 -0.7766 -0.3570  0.1989
  923MOL0     C27274   4.134   1.933   9.915  0.0230  0.5526 -0.1588
  923MOL0     C27275   4.209   1.842   9.816 -0.6169  0.5566 -0.2542
  923MOL0     C27276   4.358   1.864   9.834 -0.1118  0.0729  0.0122
  923MOL0     C27277   4.436   1.756   9.758 -0.6863 -0.3674  0.2070
  923MOL0     C27278   4.587   1.763   9.761 -0.1878 -0.1177  0.0079
  923MOL0     C27279   4.647   1.715   9.894  0.3849  0.5491 -0.8115
  923MOL0     C27280   4.801   1.692   9.903 -0.2979  1.6382  0.5171
  923MOL0    Cl27281   4.891   1.843   9.903 -0.1870 -0.1386 -0.0687
  923MOL0     C27282   3.736   1.684   9.851  0.6554  0.3621  0.0633
  923MOL0     C27283   3.596   1.668   9.810  0.0169  0.1658  0.2392
  923MOL0     O27284   3.337   1.567   9.701 -0.3781  0.8593  1.1294
  923MOL0     C27285   3.068   1.596   9.712  0.0034  1.3855 -0.0522
  923MOL0     C27286   2.938   1.608   9.725  0.8588 -0.0608 -1.1119
  923MOL0     N27287   2.337   2.117   9.377  0.1183 -0.2709  0.3700
  923MOL0     N27288   2.226   2.168   9.344  0.6518 -0.3463  0.1365
  923MOL0     C27289   1.128   2.395   9.803 -0.5867  0.3449 -0.2706
  923MOL0     C27290   1.032   2.460   9.871 -0.5311  0.9167 -0.8885
  923MOL0     C27291   0.808   2.814  10.080 -0.2403 -0.4479 -0.5402
  923MOL0     C27292   0.836   2.923  10.175  0.5644  0.1236 -0.1543
  923MOL0     C27293   0.743   2.953  10.276  0.8632 -0.3079  0.1163
  923MOL0     C27294   0.622   2.893  10.279  0.2759  0.5042 -0.3657
  923MOL0     O27295   0.539   2.945  10.372  0.4097  0.3999 -0.1401
  923MOL0     C27296   0.420   2.866  10.396 -0.2369 -0.6317 -0.1305
  923MOL0     C27297   0.314   2.950  10.473  0.2902  1.0305 -0.1029
  923MOL0     C27298   0.253   3.077  10.395  0.1765  0.3877  0.4891
  923MOL0     C27299   0.144   3.046  10.293  0.5585  0.1953  0.0974
  923MOL0     C27300   0.009   3.091  10.333 -0.0017 -0.3712  0.4582
  923MOL0     C27301  -0.094   3.128  10.381 -0.0854  0.6391 -0.1941
  923MOL0     C27302   0.596   2.794  10.181  0.9998  0.1161  0.1375
  923MOL0     C27303   0.681   2.761  10.079  0.8608  0.4111  0.2832
  923MOL0     C27304   0.633   2.658   9.994  1.2038 -0.1540  0.9917
  923MOL0     H27305   1.083   2.770   9.733 -0.6861  0.7907  2.9404
  923MOL0     H27306   1.266   2.667   9.640  2.3046 -0.7969  2.5905
  923MOL0     H27307   1.486   2.509   9.594  0.4223  0.0970  0.0967
  923MOL0     H27308   1.341   2.516   9.494  0.3870 -0.4243  1.2529
  923MOL0     H27309   1.519   2.274   9.536 -1.7796 -0.6542  0.6956
  923MOL0     H27310   1.366   2.272   9.463 -0.2795 -1.6984  2.9251
  923MOL0     H27311   1.511   2.283   9.287 -3.3799 -0.5829  1.4937
  923MOL0     H27312   1.433   2.449   9.299  0.5459  0.8245 -1.2912
  923MOL0     H27313   1.663   2.491   9.242 -2.5525  0.8851 -0.9337
  923MOL0     H27314   1.629   2.546   9.397  3.2516  1.6014 -0.1875
  923MOL0     H27315   1.729   2.358   9.505 -0.9136 -0.9790 -0.9437
  923MOL0     H27316   1.840   2.457   9.400 -0.7493  1.4039  2.0122
  923MOL0     H27317   1.728   2.173   9.359  0.0116  0.8213  0.6624
  923MOL0     H27318   1.808   2.265   9.229 -3.0608 -1.4996 -1.0547
  923MOL0     H27319   1.934   2.179   9.496  0.6835 -3.4374 -1.9175
  923MOL0     H27320   1.998   2.314   9.403 -0.8315  0.9483  4.3235
  923MOL0     H27321   1.916   2.019   9.313 -1.8441  2.1174  1.9394
  923MOL0     H27322   1.995   2.135   9.203 -2.5888 -0.0612 -0.5546
  923MOL0     H27323   2.147   1.845   9.366  1.4353 -0.9597  0.3977
  923MOL0     H27324   2.527   1.895   9.354 -1.0135  1.6521 -1.3462
  923MOL0     H27325   2.402   1.783   9.381  1.9032 -1.4636  0.4972
  923MOL0     H27326   2.502   2.014   9.571  2.6974 -0.5976 -0.5658
  923MOL0     H27327   2.396   1.888   9.634  0.3333  1.8958  0.9688
  923MOL0     H27328   2.573   1.709   9.561 -1.3698 -0.4750  1.2791
  923MOL0     H27329   2.674   1.846   9.526  0.3504 -1.1672 -0.9010
  923MOL0     H27330   2.667   1.916   9.763 -0.4113  0.5385 -1.8672
  923MOL0     H27331   2.539   1.805   9.805  2.0021 -0.7824  3.6918
  923MOL0     H27332   2.888   1.928   9.790  0.9842  0.9032 -0.6019
  923MOL0     H27333   3.236   1.963   9.686 -0.8698 -0.3103 -0.2992
  923MOL0     H27334   3.216   1.952   9.870 -0.5929  0.4084  1.0875
  923MOL0     H27335   3.110   2.048   9.765  0.0461  0.0865  1.2498
  923MOL0     H27336   3.505   1.991   9.802  0.1602  0.5882  0.0438
  923MOL0     H27337   3.725   2.029   9.839 -0.0653 -0.2998  1.2239
  923MOL0     H27338   3.955   2.010   9.812 -0.0307  0.1839  0.4820
  923MOL0     H27339   3.934   1.982   9.982  0.7292  0.7669  0.3843
  923MOL0     H27340   4.175   2.035   9.910  0.1229  0.4715 -1.0053
  923MOL0     H27341   4.141   1.905  10.021  1.0367  0.0330 -0.3526
  923MOL0     H27342   4.185   1.869   9.712 -0.9381 -0.5721 -0.4832
  923MOL0     H27343   4.176   1.746   9.855 -2.4774  2.2480  2.6806
  923MOL0     H27344   4.381   1.859   9.941  3.8001  0.9637 -0.6497
  923MOL0     H27345   4.381   1.966   9.801 -2.0654  0.6992  0.4480
  923MOL0     H27346   4.396   1.665   9.804 -3.1898  1.0870  1.1241
  923MOL0     H27347   4.405   1.768   9.653 -0.7758 -0.5248  0.2155
  923MOL0     H27348   4.621   1.862   9.730 -1.2610 -0.2788 -1.8633
  923MOL0     H27349   4.628   1.687   9.694 -0.1079 -0.7273  0.7349
  923MOL0     H27350   4.598   1.620   9.917 -0.3755  1.5030  1.9063
  923MOL0     H27351   4.618   1.788   9.971 -3.6350  0.7135 -2.2078
  923MOL0     H27352   4.827   1.628   9.818  1.6583 -0.2897  2.4184
  923MOL0     H27353   4.833   1.638   9.993  1.8988  1.3637 -0.3778
  923MOL0     H27354   3.801   1.597   9.851 -1.1784 -1.1003  0.5932
  923MOL0     H27355   3.581   1.562   9.791  4.0927 -1.0635  2.5502
  923MOL0     H27356   3.115   1.499   9.705 -0.6546  1.0890 -0.5799
  923MOL0     H27357   2.880   1.517   9.714  0.7730  0.0345 -1.4507
  923MOL0     H27358   1.152   2.291   9.822  0.8837  0.8646  0.9507
  923MOL0     H27359   0.966   2.415   9.945 -2.4692  4.5366 -0.1864
  923MOL0     H27360   0.932   2.972  10.183  0.4344  0.4171 -0.3601
  923MOL0     H27361   0.763   3.034  10.346 -0.8690 -0.9653  1.4374
  923MOL0     H27362   0.372   2.826  10.306  0.0900 -1.5348  0.0810
  923MOL0     H27363   0.437   2.772  10.450  0.6164 -0.5395 -0.2244
  923MOL0     H27364   0.356   2.980  10.569 -3.6308 -1.0974  2.5647
  923MOL0     H27365   0.225   2.896  10.507 -0.6933  3.8516  2.2112
  923MOL0     H27366   0.209   3.140  10.473 -2.5629 -1.2566  0.4046
  923MOL0     H27367   0.336   3.135  10.354 -0.5666  0.0032 -1.7342
  923MOL0     H27368   0.160   2.950  10.243 -0.1899 -1.0423  2.1388
  923MOL0     H27369   0.163   3.122  10.216 -1.6411  3.0555  2.1650
  923MOL0     H27370  -0.187   3.172  10.412  0.3592 -0.5074  3.1721
  923MOL0     H27371   0.502   2.741  10.191  0.9677  0.0470 -0.5417
  923MOL0     H27372   0.526   2.638   9.996  1.1954 -0.0209  2.9773
  923MOL0     H27373   0.658   2.682   9.890  0.0201  1.2642  1.0085
  923MOL0     H27374   0.684   2.565  10.023  2.6969  0.1168 -0.5627
  924MOL0     O27375   6.910  10.779   8.457 -0.3679  0.2417 -0.0334
  924MOL0     C27376   6.818  10.858   8.429 -1.0713  0.5948  0.1661
  924MOL0     O27377   6.799  10.920   8.302 -0.1001 -0.0240 -0.0495
  924MOL0     C27378   6.890  10.873   8.215 -0.0378  0.5108  0.1890
  924MOL0     C27379   6.847  10.825   8.090  0.4186 -0.3925 -0.3068
  924MOL0     C27380   6.938  10.788   7.993  0.1551  0.0974  0.3044
  924MOL0     C27381   7.078  10.804   8.021 -0.8958  0.5340  0.1161
  924MOL0     O27382   7.162  10.789   7.912  0.0565 -0.8498  0.2365
  924MOL0     C27383   7.298  10.757   7.931 -1.1918 -0.1271  0.4834
  924MOL0     C27384   7.349  10.698   7.796 -0.5013 -0.1787 -0.0164
  924MOL0     C27385   7.287  10.560   7.756 -0.2896 -0.0150 -0.8234
  924MOL0     C27386   7.349  10.529   7.616 -0.1065 -0.2589  0.6039
  924MOL0     C27387   7.324  10.378   7.581  0.3691 -0.1721 -0.7243
  924MOL0     C27388   7.334  10.365   7.433  0.1613 -0.6434  0.4353
  924MOL0     C27389   7.320  10.220   7.379 -0.5605 -0.4353  0.2559
  924MOL0     C27390   7.346  10.213   7.228 -0.1569 -0.4833  1.1129
  924MOL0     N27391   7.249  10.292   7.138  0.2532  0.0287  0.1085
  924MOL0     C27392   7.118  10.276   7.152  0.3567  0.2443  0.3038
  924MOL0     C27393   7.055  10.354   7.067  0.1285  0.4392 -0.9785
  924MOL0     C27394   6.909  10.373   7.067  0.3853 -0.0841  0.2235
  924MOL0     C27395   6.846  10.405   7.205 -0.3202 -0.2056 -0.0253
  924MOL0     C27396   6.893  10.543   7.261  0.5105 -0.5509 -0.3138
  924MOL0     C27397   6.800  10.573   7.388  0.6405  0.2325  0.4315
  924MOL0     O27398   6.844  10.674   7.486 -0.4316  0.0539 -0.6399
  924MOL0     C27399   6.821  10.629   7.606  0.3470 -0.1058  0.2678
  924MOL0     C27400   6.699  10.654   7.650 -0.1509  0.7112 -0.0376
  924MOL0     C27401   6.656  10.599   7.776 -0.7783  0.1617  0.1261
  924MOL0     C27402   6.512  10.633   7.807  1.0568 -0.2823  0.3763
  924MOL0     C27403   6.743  10.525   7.858 -1.2219  0.5020 -0.0553
  924MOL0     C27404   6.698  10.482   7.985 -0.0882 -0.0821 -0.6649
  924MOL0     O27405   6.631  10.578   8.065 -0.0450 -0.0981  0.0345
  924MOL0     C27406   6.551  10.553   8.172  0.1233 -0.4135  0.4875
  924MOL0     C27407   6.523  10.660   8.266 -0.2518  0.1404 -0.0202
  924MOL0     C27408   6.435  10.652   8.370 -0.1907 -0.1205 -0.3440
  924MOL0     C27409   6.366  10.529   8.390 -0.4641  0.2991  0.3694
  924MOL0     O27410   6.279  10.523   8.492 -0.5802 -0.5183 -0.5502
  924MOL0     C27411   6.247  10.402   8.560  0.1841  0.3552 -0.4019
  924MOL0     C27412   6.186  10.445   8.691  0.0744  0.5822 -0.8491
  924MOL0     C27413   6.141  10.337   8.789 -0.4668 -0.3402 -0.2499
  924MOL0     C27414   6.253  10.258   8.853  0.6359 -0.5033 -0.0883
  924MOL0     C27415   6.198  10.170   8.955  0.8112  0.2158 -0.4833
  924MOL0     C27416   6.296  10.068   9.011 -0.2483  0.6695  0.2669
  924MOL0     C27417   6.237   9.953   9.094  0.7502 -0.2539  0.2179
  924MOL0     C27418   6.320   9.823   9.080 -0.2910 -0.7146 -0.0404
  924MOL0    Cl27419   6.365   9.754   8.918 -0.1443 -0.4018 -0.0251
  924MOL0     C27420   6.386  10.424   8.297 -0.4956 -0.3520  0.0262
  924MOL0     C27421   6.479  10.431   8.194 -0.2251 -0.3796 -0.2013
  924MOL0     O27422   6.705  10.364   7.998  0.1114 -0.0539  0.2612
  924MOL0     C27423   6.877  10.511   7.814 -0.6467 -0.0177 -0.6360
  924MOL0     C27424   6.914  10.552   7.685  0.3828 -0.9558  0.3267
  924MOL0     N27425   7.153  10.412   6.990  0.9175 -0.7785 -0.1153
  924MOL0     N27426   7.269  10.378   7.037 -0.2707  0.2203 -0.4197
  924MOL0     C27427   7.116  10.854   8.146 -0.0843 -0.0122 -0.7178
  924MOL0     C27428   7.029  10.893   8.237  0.9529 -0.2124 -0.6130
  924MOL0     C27429   6.735  10.919   8.528  0.6500 -0.3209 -1.1079
  924MOL0     C27430   6.654  10.821   8.592  0.1614 -0.2106  0.0892
  924MOL0     C27431   6.546  10.866   8.668  0.1024 -1.1933  0.5240
  924MOL0     C27432   6.513  11.004   8.694  0.0791  0.4500 -0.1940
  924MOL0     O27433   6.402  11.037   8.764 -0.0710  0.4433 -0.1582
  924MOL0     C27434   6.307  11.117   8.686  1.0124  0.0298  1.0490
  924MOL0     C27435   6.171  11.068   8.720 -0.3148  0.5648 -0.0428
  924MOL0     C27436   6.132  10.933   8.645  0.1217 -0.5138 -0.7164
  924MOL0     C27437   5.998  10.874   8.691  1.4987  0.1045  0.2841
  924MOL0     C27438   6.017  10.849   8.835  0.2807  0.0466 -0.1430
  924MOL0     C27439   6.032  10.810   8.952 -0.2518  0.2179  0.3302
  924MOL0     C27440   6.597  11.096   8.641 -0.3990 -0.0356  0.1483
  924MOL0     C27441   6.706  11.058   8.552 -0.8799  0.6880  1.0809
  924MOL0     C27442   6.794  11.161   8.475  0.7021 -0.9689 -0.5304
  924MOL0     H27443   6.744  10.814   8.059 -0.8139  0.9195  2.9328
  924MOL0     H27444   6.909  10.768   7.891  2.4027 -2.0751 -0.0144
  924MOL0     H27445   7.320  10.675   8.001  4.0192  1.2043  0.8341
  924MOL0     H27446   7.359  10.844   7.956 -2.0738  0.9947 -1.0624
  924MOL0     H27447   7.342  10.766   7.711  0.7827  0.6427  0.5051
  924MOL0     H27448   7.458  10.682   7.794 -0.1868  1.6905 -2.6276
  924MOL0     H27449   7.325  10.475   7.815 -0.0705 -1.3143 -2.7555
  924MOL0     H27450   7.178  10.558   7.748 -0.8177  1.7737  3.4291
  924MOL0     H27451   7.309  10.592   7.536 -0.3477  0.1111  1.0142
  924MOL0     H27452   7.454  10.556   7.631 -0.9516  2.9367  1.4470
  924MOL0     H27453   7.226  10.347   7.619  0.6041  1.2107  1.1338
  924MOL0     H27454   7.405  10.326   7.633 -0.3751  0.3083  0.9857
  924MOL0     H27455   7.274  10.444   7.388  0.7932  1.1485  2.5018
  924MOL0     H27456   7.435  10.399   7.407 -1.1672  1.0373 -3.2395
  924MOL0     H27457   7.225  10.168   7.399  0.6681 -3.0083 -0.2279
  924MOL0     H27458   7.403  10.163   7.422 -0.0998  0.7581  0.9969
  924MOL0     H27459   7.450  10.235   7.202 -0.1256 -2.9116 -1.2270
  924MOL0     H27460   7.328  10.106   7.211  0.1762 -0.5047  0.8862
  924MOL0     H27461   7.074  10.211   7.228 -0.6920  0.5730 -0.0087
  924MOL0     H27462   6.862  10.281   7.031 -2.1582  1.2067  0.0028
  924MOL0     H27463   6.893  10.462   7.006  1.4570  1.2953  1.8586
  924MOL0     H27464   6.738  10.418   7.192 -0.4310  0.0961  1.0496
  924MOL0     H27465   6.855  10.328   7.283 -0.7127 -0.9850 -0.7381
  924MOL0     H27466   6.999  10.535   7.289  0.4242  0.3305  0.3120
  924MOL0     H27467   6.883  10.620   7.183  2.4931  1.3382  1.1493
  924MOL0     H27468   6.703  10.606   7.349  0.8158  2.4762  1.7488
  924MOL0     H27469   6.783  10.472   7.428  0.7465 -1.1631 -2.7070
  924MOL0     H27470   6.619  10.704   7.599  0.2253  0.3582 -0.9892
  924MOL0     H27471   6.454  10.656   7.718  0.2048  1.2791  1.2918
  924MOL0     H27472   6.502  10.720   7.873 -0.5715  0.1345 -0.3635
  924MOL0     H27473   6.476  10.543   7.858  1.2804 -1.2078 -1.0461
  924MOL0     H27474   6.580  10.753   8.263  1.1426 -0.5346  2.4603
  924MOL0     H27475   6.415  10.724   8.449 -1.7520 -1.8317  0.9089
  924MOL0     H27476   6.166  10.354   8.504 -0.7192 -2.2519  2.7980
  924MOL0     H27477   6.336  10.339   8.575 -0.4736 -0.8468 -1.3144
  924MOL0     H27478   6.256  10.506   8.750  0.8405  0.8796 -2.0444
  924MOL0     H27479   6.096  10.505   8.671  0.2441  1.2122  0.2085
  924MOL0     H27480   6.083  10.267   8.728 -0.6121  0.9224 -1.6304
  924MOL0     H27481   6.075  10.373   8.869 -0.3817  0.5068 -0.5433
  924MOL0     H27482   6.314  10.333   8.905 -0.3036 -0.0714  0.4230
  924MOL0     H27483   6.305  10.203   8.774 -0.6720  2.5610 -3.3368
  924MOL0     H27484   6.147  10.224   9.035  1.3232 -0.0478  0.0279
  924MOL0     H27485   6.128  10.104   8.902 -0.5055  0.2684  1.1123
  924MOL0     H27486   6.358  10.122   9.083 -1.7887  1.7112  0.8738
  924MOL0     H27487   6.348  10.019   8.928 -2.3790 -0.5224 -0.4498
  924MOL0     H27488   6.137   9.935   9.054  1.3302  2.0223 -2.5362
  924MOL0     H27489   6.231   9.992   9.196  2.2799  1.6949 -0.3637
  924MOL0     H27490   6.256   9.749   9.129  1.0898 -2.0199 -0.1327
  924MOL0     H27491   6.414   9.837   9.133  0.4200 -2.8785 -0.6458
  924MOL0     H27492   6.347  10.324   8.318  3.4601 -1.8812  0.9088
  924MOL0     H27493   6.501  10.348   8.128  2.1489  1.0215 -1.3110
  924MOL0     H27494   6.939  10.452   7.880 -0.5944  1.3308  0.5906
  924MOL0     H27495   7.006  10.513   7.643 -0.4454 -1.3111 -1.2398
  924MOL0     H27496   7.223  10.855   8.165 -0.4073  0.5005  1.3180
  924MOL0     H27497   7.066  10.941   8.327  0.2164  0.4313 -0.6392
  924MOL0     H27498   6.695  10.721   8.590 -0.2813 -0.4041  0.5255
  924MOL0     H27499   6.484  10.795   8.721 -2.7071  1.0997  0.5575
  924MOL0     H27500   6.310  11.223   8.713 -2.2496 -0.0840  2.2531
  924MOL0     H27501   6.319  11.116   8.577  1.9738  2.8848  1.0341
  924MOL0     H27502   6.100  11.148   8.693 -2.5725 -0.4368  2.4315
  924MOL0     H27503   6.171  11.051   8.828 -1.7066 -0.5389 -0.1776
  924MOL0     H27504   6.124  10.967   8.542  1.9448  0.8069 -0.4689
  924MOL0     H27505   6.208  10.857   8.660  0.0842 -0.0680  2.7947
  924MOL0     H27506   5.971  10.782   8.639  0.2479  1.6282 -1.9338
  924MOL0     H27507   5.912  10.940   8.677 -0.1985 -1.3796  2.7623
  924MOL0     H27508   6.048  10.766   9.049  1.6701 -1.6683 -0.7524
  924MOL0     H27509   6.573  11.201   8.657 -1.5535 -0.2696  0.0721
  924MOL0     H27510   6.764  11.168   8.370 -1.4941 -2.7182 -0.0833
  924MOL0     H27511   6.793  11.264   8.513 -0.5216 -0.9059 -0.7092
  924MOL0     H27512   6.897  11.125   8.482  0.0966 -2.7102 -0.1358
  925MOL0     O27513   6.817   5.018  11.078  0.3242  0.5196  0.5338
  925MOL0     C27514   6.717   5.088  11.100 -0.0586  0.1059  0.6664
  925MOL0     O27515   6.711   5.176  11.195 -0.7043  0.1636  0.0353
  925MOL0     C27516   6.832   5.202  11.257  0.6364 -0.4187  0.6680
  925MOL0     C27517   6.914   5.109  11.319 -0.9876  0.4144  0.1389
  925MOL0     C27518   7.030   5.157  11.385  0.0211  0.7240 -0.2432
  925MOL0     C27519   7.045   5.296  11.407  0.9552  0.3584 -0.7188
  925MOL0     O27520   7.149   5.343  11.471 -0.2053 -0.9947  1.0730
  925MOL0     C27521   7.139   5.315  11.610 -0.3038  0.7595  0.0854
  925MOL0     C27522   7.207   5.437  11.661  0.1781 -0.3882 -0.6375
  925MOL0     C27523   7.109   5.551  11.695 -0.6838 -0.5285 -1.0228
  925MOL0     C27524   7.005   5.526  11.804  0.3480 -0.0988 -0.3311
  925MOL0     C27525   7.060   5.473  11.938 -0.5533  0.1751  0.5495
  925MOL0     C27526   7.152   5.573  12.007  0.4950 -0.7895 -0.5849
  925MOL0     C27527   7.190   5.533  12.148 -0.0204  0.0073 -0.0845
  925MOL0     C27528   7.266   5.388  12.155  0.4466 -0.7537  0.2806
  925MOL0     N27529   7.397   5.388  12.089 -0.4649 -0.4276  0.0226
  925MOL0     C27530   7.512   5.422  12.154 -0.0588  0.4589 -0.1424
  925MOL0     C27531   7.601   5.420  12.056 -0.8990 -0.3170  0.2530
  925MOL0     C27532   7.741   5.455  12.062 -0.7609 -0.3811 -0.2938
  925MOL0     C27533   7.835   5.333  12.035  0.1157  0.0256 -0.1849
  925MOL0     C27534   7.973   5.391  12.051 -0.2122  0.5618 -0.1585
  925MOL0     C27535   8.095   5.309  11.998  0.0077  0.2113 -0.1820
  925MOL0     O27536   8.086   5.285  11.855 -0.2034 -0.3569  0.2213
  925MOL0     C27537   8.166   5.359  11.773 -0.4974  0.7305  0.0184
  925MOL0     C27538   8.225   5.479  11.804  0.4501  0.5659  0.6515
  925MOL0     C27539   8.320   5.538  11.726 -0.7707 -0.3857  0.0020
  925MOL0     C27540   8.370   5.672  11.771 -0.9726 -0.4348 -0.9736
  925MOL0     C27541   8.361   5.472  11.604  0.3050 -0.3794 -0.5077
  925MOL0     C27542   8.463   5.524  11.511 -0.0834  0.3540 -0.0497
  925MOL0     O27543   8.476   5.456  11.391 -0.8893  0.7339 -0.7521
  925MOL0     C27544   8.597   5.473  11.322  0.3933 -0.3731 -0.4459
  925MOL0     C27545   8.622   5.576  11.229  0.0368 -0.3976 -0.2576
  925MOL0     C27546   8.746   5.575  11.154  0.0286 -0.5220 -0.1734
  925MOL0     C27547   8.845   5.477  11.176  0.7622 -1.4707  0.2362
  925MOL0     O27548   8.962   5.463  11.115  0.5418  0.0790 -0.7608
  925MOL0     C27549   9.046   5.578  11.107  0.5853 -0.9622  0.7059
  925MOL0     C27550   9.157   5.542  11.006 -0.9448  0.0924 -0.5521
  925MOL0     C27551   9.139   5.497  10.861  0.1321 -0.6469 -0.0525
  925MOL0     C27552   9.272   5.455  10.803  0.5967  0.6631  0.1570
  925MOL0     C27553   9.249   5.417  10.649  0.9205 -0.5770  0.1264
  925MOL0     C27554   9.210   5.272  10.636 -0.0371 -0.7888 -0.4542
  925MOL0     C27555   9.187   5.233  10.491 -0.3174  0.2298  0.4254
  925MOL0     C27556   9.111   5.100  10.495  1.0943  1.0949 -0.1642
  925MOL0    Cl27557   9.119   5.008  10.341  0.0522  0.0606  0.2179
  925MOL0     C27558   8.821   5.385  11.272 -0.5982  0.1094  0.3055
  925MOL0     C27559   8.696   5.372  11.340  0.3617 -0.3637  0.2783
  925MOL0     O27560   8.539   5.608  11.552 -0.7213  0.9859  0.1723
  925MOL0     C27561   8.288   5.358  11.563 -0.3244 -0.0727  0.3669
  925MOL0     C27562   8.197   5.300  11.648  0.1721  0.6861 -0.1079
  925MOL0     N27563   7.548   5.409  11.932 -0.2178  0.2605  0.5304
  925MOL0     N27564   7.423   5.375  11.956  0.8529  0.6569  0.9496
  925MOL0     C27565   6.951   5.386  11.346  0.1085  0.6208  0.1173
  925MOL0     C27566   6.846   5.341  11.268  0.3331  1.1619  0.5911
  925MOL0     C27567   6.596   5.060  11.020  0.3426 -0.1118  0.1568
  925MOL0     C27568   6.599   4.952  10.929  0.0301 -0.1573 -0.5520
  925MOL0     C27569   6.485   4.913  10.856  0.6221  0.0644  0.3936
  925MOL0     C27570   6.361   4.984  10.872 -0.0039 -0.0013 -0.9864
  925MOL0     O27571   6.255   4.939  10.800 -0.4103  0.0105  0.0221
  925MOL0     C27572   6.119   4.986  10.822 -0.3129 -0.8984 -0.0590
  925MOL0     C27573   6.029   4.893  10.742 -0.4788  0.5800 -0.6961
  925MOL0     C27574   5.880   4.956  10.733 -1.0444  0.3017 -0.0099
  925MOL0     C27575   5.809   4.878  10.626  0.0050 -0.2174 -0.1451
  925MOL0     C27576   5.853   4.904  10.485  0.3397 -1.0528 -0.2583
  925MOL0     C27577   5.870   4.934  10.369 -0.3734 -0.5591 -0.7827
  925MOL0     C27578   6.359   5.098  10.950 -1.0378 -0.0628 -0.6723
  925MOL0     C27579   6.474   5.135  11.026  0.0991  0.7807 -0.6647
  925MOL0     C27580   6.450   5.260  11.113  0.1956 -0.0103 -0.4079
  925MOL0     H27581   6.893   5.003  11.315  3.1261 -0.6058  1.1740
  925MOL0     H27582   7.113   5.094  11.415 -0.5172  1.4457  3.1513
  925MOL0     H27583   7.199   5.227  11.635  1.6045  2.2323  1.0211
  925MOL0     H27584   7.036   5.312  11.647  0.0788 -0.0565  1.1181
  925MOL0     H27585   7.274   5.414  11.745  1.3302 -0.4536 -1.5524
  925MOL0     H27586   7.280   5.472  11.588  2.2787  0.1585  1.5743
  925MOL0     H27587   7.169   5.639  11.721  0.4124 -0.7256 -2.7666
  925MOL0     H27588   7.055   5.591  11.609 -2.1013 -0.6289 -0.2090
  925MOL0     H27589   6.957   5.621  11.829 -0.1668 -0.5807  0.5816
  925MOL0     H27590   6.928   5.452  11.779 -1.0942  1.5020 -0.8858
  925MOL0     H27591   7.108   5.377  11.922  0.3281 -0.0210  3.7646
  925MOL0     H27592   6.977   5.453  12.007 -0.3373  0.8436  1.0153
  925MOL0     H27593   7.246   5.586  11.953  0.2245  1.5062 -0.6339
  925MOL0     H27594   7.097   5.668  12.007 -0.0167 -1.0821 -0.0270
  925MOL0     H27595   7.098   5.531  12.207  1.0455 -1.9408  1.6775
  925MOL0     H27596   7.261   5.597  12.201  0.7516 -1.5971  0.9301
  925MOL0     H27597   7.282   5.368  12.262  0.8094  3.1491  1.1139
  925MOL0     H27598   7.203   5.317  12.101 -2.1559  1.3716  0.2652
  925MOL0     H27599   7.522   5.441  12.260 -1.0622  0.3798 -0.0261
  925MOL0     H27600   7.766   5.498  12.160  0.2110  0.1520 -0.7578
  925MOL0     H27601   7.756   5.536  11.990 -0.0445 -1.8415 -1.8409
  925MOL0     H27602   7.819   5.243  12.094 -2.6033  0.6678  0.2002
  925MOL0     H27603   7.828   5.298  11.931 -0.0986 -3.0680  0.7887
  925MOL0     H27604   7.971   5.491  12.007 -1.9109  0.5893 -0.0929
  925MOL0     H27605   7.990   5.404  12.159  0.9411 -0.1811 -0.2271
  925MOL0     H27606   8.182   5.366  12.032  0.2142  0.7413 -1.5321
  925MOL0     H27607   8.095   5.211  12.045 -0.2570  0.5668  0.5797
  925MOL0     H27608   8.177   5.533  11.885  0.5299 -0.4030  1.3757
  925MOL0     H27609   8.326   5.698  11.867 -0.1606 -0.3251 -0.6265
  925MOL0     H27610   8.366   5.753  11.697 -1.8177  1.5789  1.1729
  925MOL0     H27611   8.476   5.654  11.792 -1.3487 -0.7131  0.8108
  925MOL0     H27612   8.553   5.659  11.219  1.0915  0.7531  1.3063
  925MOL0     H27613   8.770   5.640  11.070  0.5782 -0.6006 -0.0858
  925MOL0     H27614   8.985   5.655  11.059  1.0369 -2.8210 -3.2281
  925MOL0     H27615   9.075   5.610  11.208  0.9468  1.7082 -0.1737
  925MOL0     H27616   9.227   5.625  10.996  0.4967 -1.1853 -1.5663
  925MOL0     H27617   9.216   5.466  11.057  1.2220  1.8365 -0.3409
  925MOL0     H27618   9.093   5.576  10.802  1.7561  0.2248 -0.2017
  925MOL0     H27619   9.071   5.411  10.864  0.8086 -1.1571  1.5462
  925MOL0     H27620   9.323   5.374  10.856 -0.8892 -1.0570 -0.9234
  925MOL0     H27621   9.331   5.547  10.811  0.2133  0.9171  0.0617
  925MOL0     H27622   9.174   5.486  10.609  0.8011 -2.6819 -3.8825
  925MOL0     H27623   9.344   5.438  10.598  0.8474  2.5192  1.0877
  925MOL0     H27624   9.113   5.263  10.686 -0.6655  1.2087 -1.1741
  925MOL0     H27625   9.278   5.201  10.683 -1.4718 -2.0128 -0.1622
  925MOL0     H27626   9.284   5.221  10.441 -0.4228  2.1343 -0.3187
  925MOL0     H27627   9.127   5.300  10.428 -0.3346 -0.0936  0.0962
  925MOL0     H27628   9.006   5.128  10.510  0.6932  0.1621 -1.0687
  925MOL0     H27629   9.147   5.030  10.571  1.0327 -1.6403 -2.4784
  925MOL0     H27630   8.889   5.304  11.295 -0.5986  0.4115  1.4740
  925MOL0     H27631   8.680   5.288  11.407  0.1459  1.1356  2.1885
  925MOL0     H27632   8.306   5.310  11.468 -1.0290  3.6213 -1.8377
  925MOL0     H27633   8.149   5.204  11.634  0.5305  0.3192  1.0527
  925MOL0     H27634   6.973   5.492  11.345 -1.5121  0.9957  0.4525
  925MOL0     H27635   6.797   5.406  11.196  0.9027 -2.1029 -3.0840
  925MOL0     H27636   6.684   4.887  10.915 -0.9794 -2.6960  3.3598
  925MOL0     H27637   6.497   4.835  10.782  1.6444 -0.8194  1.4523
  925MOL0     H27638   6.085   4.976  10.926  0.8530  0.3177  0.4660
  925MOL0     H27639   6.116   5.090  10.788 -1.4375 -1.0876 -0.5739
  925MOL0     H27640   6.022   4.801  10.800  1.4205  0.1536 -1.0842
  925MOL0     H27641   6.082   4.861  10.652  0.8166 -1.0496  0.5788
  925MOL0     H27642   5.828   4.944  10.828  2.5872 -0.2075  2.1172
  925MOL0     H27643   5.884   5.063  10.712  0.3587 -0.2970 -3.5504
  925MOL0     H27644   5.705   4.908  10.638  0.7683  1.9196  1.7748
  925MOL0     H27645   5.805   4.771  10.646 -1.4947  0.1315  1.6281
  925MOL0     H27646   5.878   4.971  10.268 -0.6338 -1.9406 -1.3375
  925MOL0     H27647   6.268   5.156  10.956 -1.0969 -0.2846  3.5537
  925MOL0     H27648   6.354   5.311  11.103 -0.3413  0.1552  3.6363
  925MOL0     H27649   6.447   5.224  11.217  3.1781  0.6002 -0.0175
  925MOL0     H27650   6.532   5.331  11.103  1.2770 -0.9194  1.4085
  926MOL0     O27651   2.630   6.799   9.361  0.5124  0.2066 -0.1921
  926MOL0     C27652   2.590   6.696   9.419 -0.4590  0.9504  0.4827
  926MOL0     O27653   2.660   6.623   9.514  0.2599  0.0288  0.3608
  926MOL0     C27654   2.787   6.674   9.536  0.0557  0.9571  0.2406
  926MOL0     C27655   2.892   6.658   9.442  0.1529  0.5321 -0.9178
  926MOL0     C27656   3.018   6.714   9.470  0.0986 -0.3191  0.2060
  926MOL0     C27657   3.046   6.778   9.591  0.1907 -0.2584  0.2778
  926MOL0     O27658   3.183   6.812   9.604 -0.4862  0.0111 -0.0585
  926MOL0     C27659   3.220   6.906   9.704 -1.2243 -0.3920  0.2893
  926MOL0     C27660   3.363   6.955   9.667 -0.0881  0.4034 -0.7072
  926MOL0     C27661   3.437   7.012   9.796  1.0373  0.2507  0.5570
  926MOL0     C27662   3.526   7.122   9.753 -0.6378 -0.0649 -0.4484
  926MOL0     C27663   3.582   7.167   9.884  0.4653 -0.0577 -0.4400
  926MOL0     C27664   3.678   7.270   9.855  0.2315  0.1090  0.6126
  926MOL0     C27665   3.752   7.335   9.969  1.2427 -0.8438  0.3805
  926MOL0     C27666   3.793   7.479   9.940  0.4074  0.5660  0.0275
  926MOL0     N27667   3.933   7.494   9.894 -0.7270  0.3968  0.7540
  926MOL0     C27668   4.049   7.462   9.964 -0.0485 -0.8777 -0.1175
  926MOL0     C27669   4.150   7.518   9.893 -0.5047  0.1763  0.5335
  926MOL0     C27670   4.284   7.511   9.953  0.2525  0.5496 -0.1965
  926MOL0     C27671   4.321   7.653   9.985  0.6978  0.4292 -0.1630
  926MOL0     C27672   4.428   7.677  10.095 -0.1713  0.3297  0.2015
  926MOL0     C27673   4.493   7.813  10.075  0.0726 -0.3179  0.0711
  926MOL0     O27674   4.589   7.810   9.967 -0.5049  0.2023 -0.9008
  926MOL0     C27675   4.722   7.773   9.991 -0.0711  0.4557  0.2596
  926MOL0     C27676   4.808   7.795   9.881 -0.1383  0.8712 -0.2456
  926MOL0     C27677   4.943   7.749   9.896  0.3076 -0.5592  0.6915
  926MOL0     C27678   5.039   7.760   9.773  0.4604 -0.5348 -0.3777
  926MOL0     C27679   4.991   7.697  10.018  0.2395 -0.9864  0.1065
  926MOL0     C27680   5.133   7.686  10.033  1.1834 -0.0086  0.0915
  926MOL0     O27681   5.201   7.782  10.101 -0.3647 -0.5593  0.1053
  926MOL0     C27682   5.331   7.752  10.137 -0.1845  0.2086 -0.0501
  926MOL0     C27683   5.429   7.847  10.102  0.3917  0.7159 -0.0100
  926MOL0     C27684   5.564   7.818  10.106 -0.3411 -0.2298  0.2564
  926MOL0     C27685   5.606   7.695  10.159  0.3752 -0.3160  0.6755
  926MOL0     O27686   5.736   7.670  10.194  0.5218 -0.6792  0.0822
  926MOL0     C27687   5.838   7.702  10.099 -0.2928 -0.8350 -0.1876
  926MOL0     C27688   5.926   7.580  10.077 -0.3407 -0.0561  0.2827
  926MOL0     C27689   6.014   7.555  10.201 -0.1573 -0.2460  0.2229
  926MOL0     C27690   6.156   7.506  10.159 -0.3634  0.3911  0.5225
  926MOL0     C27691   6.258   7.516  10.280 -0.5679 -0.1842  0.6975
  926MOL0     C27692   6.397   7.529  10.238  0.0938 -0.8460 -1.2238
  926MOL0     C27693   6.452   7.412  10.166 -0.3960 -0.5413 -0.4064
  926MOL0     C27694   6.603   7.427  10.134 -0.0583 -0.0465  0.1741
  926MOL0    Cl27695   6.709   7.377  10.270  0.4186  0.7955 -0.2257
  926MOL0     C27696   5.511   7.598  10.202 -0.5526  0.4432  0.1266
  926MOL0     C27697   5.375   7.627  10.177 -0.7817  0.1904  0.3890
  926MOL0     O27698   5.173   7.578   9.992 -0.2192 -0.9653 -0.4032
  926MOL0     C27699   4.901   7.689  10.124  0.1749  0.3200 -0.2394
  926MOL0     C27700   4.771   7.720  10.111  0.4985  0.0722 -0.3569
  926MOL0     N27701   4.107   7.590   9.786  0.0978 -0.4731 -0.2699
  926MOL0     N27702   3.976   7.576   9.788  0.0671  0.6245 -0.1797
  926MOL0     C27703   2.939   6.790   9.685  0.2333 -0.5344 -0.4493
  926MOL0     C27704   2.806   6.747   9.658 -0.1987  0.0863  0.3275
  926MOL0     C27705   2.443   6.671   9.415  0.4563  0.8963 -0.0193
  926MOL0     C27706   2.400   6.546   9.467  0.0021  0.7106  1.2012
  926MOL0     C27707   2.264   6.519   9.493  0.6087  0.8958  0.7582
  926MOL0     C27708   2.155   6.616   9.455 -0.5486 -0.0969 -0.5057
  926MOL0     O27709   2.022   6.589   9.452 -0.0799  0.2495 -0.4814
  926MOL0     C27710   1.975   6.468   9.527  0.6000  0.1426 -0.5481
  926MOL0     C27711   1.988   6.480   9.687  0.3122  0.7101 -0.2598
  926MOL0     C27712   1.908   6.385   9.776  0.5867  0.2986 -0.0236
  926MOL0     C27713   1.760   6.407   9.771  0.0820  0.5661  0.3245
  926MOL0     C27714   1.716   6.525   9.839 -0.0634 -0.1841 -0.3826
  926MOL0     C27715   1.682   6.626   9.891  0.3364 -0.4191  0.4515
  926MOL0     C27716   2.199   6.730   9.389 -0.2282  0.9008 -0.1325
  926MOL0     C27717   2.336   6.757   9.367  0.0243  0.6008 -0.2191
  926MOL0     C27718   2.370   6.894   9.302  0.3802  0.5604 -0.0048
  926MOL0     H27719   2.872   6.621   9.342 -0.1965  0.1336 -0.7020
  926MOL0     H27720   3.084   6.716   9.384 -0.3311 -0.0610 -0.1191
  926MOL0     H27721   3.226   6.865   9.805 -1.9145 -0.0358  0.4784
  926MOL0     H27722   3.153   6.992   9.712 -0.7785 -0.2002  2.6295
  926MOL0     H27723   3.425   6.878   9.620 -3.2966 -2.3252 -0.8975
  926MOL0     H27724   3.353   7.031   9.589 -1.9043 -0.2519 -1.1768
  926MOL0     H27725   3.357   7.049   9.861  0.2965 -0.9717  0.3675
  926MOL0     H27726   3.491   6.936   9.853 -1.8454 -0.7730  2.1724
  926MOL0     H27727   3.601   7.092   9.680  0.2322  1.5222 -0.2424
  926MOL0     H27728   3.466   7.202   9.708  0.0239 -0.1843 -1.5811
  926MOL0     H27729   3.619   7.084   9.945  0.5025  0.7932  0.7472
  926MOL0     H27730   3.499   7.210   9.942  0.6061 -0.0357 -0.2552
  926MOL0     H27731   3.757   7.220   9.799  0.3297  0.1579  0.7062
  926MOL0     H27732   3.632   7.350   9.797  2.6407  0.0567 -1.5623
  926MOL0     H27733   3.831   7.271  10.008 -1.2798 -2.7865  2.7113
  926MOL0     H27734   3.678   7.351  10.048  0.0435 -1.2122 -0.6416
  926MOL0     H27735   3.722   7.528   9.873 -0.3738 -1.5192 -0.7463
  926MOL0     H27736   3.794   7.536  10.033  0.0852  0.4438  0.1070
  926MOL0     H27737   4.059   7.405  10.055  0.5678  2.2921  1.9514
  926MOL0     H27738   4.355   7.463   9.885  0.5180 -0.7076  0.9336
  926MOL0     H27739   4.269   7.440  10.035 -1.1845  0.5743 -0.4124
  926MOL0     H27740   4.351   7.700   9.891  1.3426  0.3052 -0.0230
  926MOL0     H27741   4.243   7.713  10.034  0.4913 -1.9469  2.7085
  926MOL0     H27742   4.382   7.676  10.194  0.3625 -3.3588  0.5719
  926MOL0     H27743   4.502   7.596  10.089 -0.8479 -0.2026 -1.4368
  926MOL0     H27744   4.416   7.890  10.065 -0.9914 -0.8410  3.0237
  926MOL0     H27745   4.544   7.838  10.169 -0.3943  0.5984  0.0946
  926MOL0     H27746   4.760   7.825   9.788 -0.8348 -1.5034 -0.7068
  926MOL0     H27747   5.126   7.825   9.787  0.8486 -0.5585 -2.3996
  926MOL0     H27748   4.981   7.807   9.693  0.8222 -2.6035 -1.9507
  926MOL0     H27749   5.063   7.657   9.744  0.9255 -0.2093 -1.1750
  926MOL0     H27750   5.399   7.940  10.055 -1.7457 -1.2300 -2.8276
  926MOL0     H27751   5.625   7.903  10.075 -2.1169  0.8349 -0.4763
  926MOL0     H27752   5.796   7.732  10.002  3.7548  0.1643 -1.8495
  926MOL0     H27753   5.895   7.788  10.135  0.5595 -1.1306 -0.8095
  926MOL0     H27754   5.863   7.493  10.056 -2.4339  0.6619  2.9829
  926MOL0     H27755   5.976   7.595   9.981  0.1958 -0.4772  0.4877
  926MOL0     H27756   5.972   7.497  10.284  1.1251 -3.2030 -1.0324
  926MOL0     H27757   6.026   7.651  10.252 -0.3556  0.1269 -0.4184
  926MOL0     H27758   6.192   7.566  10.075  3.4941 -1.6886  0.4570
  926MOL0     H27759   6.149   7.403  10.124 -0.5928  0.1278  1.3069
  926MOL0     H27760   6.239   7.596  10.353  2.1428 -0.7508  2.1405
  926MOL0     H27761   6.256   7.427  10.344 -4.7998 -1.5225 -0.9509
  926MOL0     H27762   6.464   7.541  10.323 -1.1565 -0.2348 -0.2937
  926MOL0     H27763   6.417   7.617  10.177 -0.9717 -0.4358 -0.9988
  926MOL0     H27764   6.395   7.390  10.075 -2.9919  2.3714  0.3277
  926MOL0     H27765   6.443   7.322  10.227  2.2848 -2.2531 -2.2946
  926MOL0     H27766   6.625   7.529  10.101 -1.1475 -0.0556 -0.6280
  926MOL0     H27767   6.622   7.363  10.047 -0.1249  1.9497 -1.3915
  926MOL0     H27768   5.538   7.497  10.231 -4.1507 -1.5778 -2.7293
  926MOL0     H27769   5.310   7.549  10.214  1.8992 -1.8716  1.1068
  926MOL0     H27770   4.938   7.660  10.221  0.4374  0.0522 -0.4183
  926MOL0     H27771   4.706   7.693  10.193 -0.9758 -0.0765 -1.5409
  926MOL0     H27772   2.953   6.836   9.782 -2.4231  1.3562 -0.8488
  926MOL0     H27773   2.725   6.766   9.727 -0.2233 -0.1911  0.3785
  926MOL0     H27774   2.471   6.477   9.509 -1.4415 -0.7064  1.4080
  926MOL0     H27775   2.234   6.424   9.538 -0.1921  0.3491 -0.8654
  926MOL0     H27776   1.870   6.452   9.501  0.5038 -0.8799  0.3742
  926MOL0     H27777   2.016   6.370   9.501  1.9591 -0.3090  2.7078
  926MOL0     H27778   1.948   6.580   9.703 -0.8610  0.3043 -0.6097
  926MOL0     H27779   2.096   6.480   9.710 -0.2144 -0.5387  2.8072
  926MOL0     H27780   1.926   6.281   9.745  0.4401  0.3512 -0.2827
  926MOL0     H27781   1.945   6.396   9.879  3.3712 -4.8055 -0.1207
  926MOL0     H27782   1.709   6.321   9.814  0.8663 -0.5555 -0.9356
  926MOL0     H27783   1.738   6.410   9.664  1.5895  0.1556 -0.0181
  926MOL0     H27784   1.638   6.717   9.926  2.4735  0.6018  0.6904
  926MOL0     H27785   2.125   6.798   9.348  0.6411  0.7831 -2.0029
  926MOL0     H27786   2.452   6.888   9.230  1.5508  3.6368  0.9075
  926MOL0     H27787   2.286   6.934   9.245 -1.4116 -1.6521  0.9279
  926MOL0     H27788   2.398   6.965   9.381 -3.7879  1.3468  0.9981
  927MOL0     O27789   0.900   2.115   1.890 -0.0562 -0.0538 -0.1537
  927MOL0     C27790   0.997   2.190   1.923  1.1826  0.1468 -0.0167
  927MOL0     O27791   1.118   2.190   1.870  0.4460  0.3985 -0.0480
  927MOL0     C27792   1.132   2.128   1.752 -0.5643  0.2208 -0.0837
  927MOL0     C27793   1.118   2.189   1.630  0.2727  0.0930  0.0510
  927MOL0     C27794   1.136   2.116   1.511 -0.0757  0.3505  0.2972
  927MOL0     C27795   1.190   1.990   1.499 -0.2287 -1.0078 -0.3832
  927MOL0     O27796   1.208   1.944   1.368  0.0881  0.3870  0.1910
  927MOL0     C27797   1.240   1.809   1.346 -0.4843  0.6747 -0.0749
  927MOL0     C27798   1.389   1.772   1.342  0.7595 -0.8622 -0.3813
  927MOL0     C27799   1.412   1.620   1.313  0.2822  0.7276  0.1240
  927MOL0     C27800   1.559   1.587   1.290 -0.3335 -1.1644  0.0805
  927MOL0     C27801   1.602   1.449   1.333  0.8526  0.1054  0.0120
  927MOL0     C27802   1.592   1.358   1.211 -0.2776 -0.4670  0.9031
  927MOL0     C27803   1.687   1.234   1.225 -0.6337 -0.0795 -0.7965
  927MOL0     C27804   1.658   1.121   1.130 -0.2126  0.1561  0.2961
  927MOL0     N27805   1.690   1.161   0.989  0.2603  0.4802  0.2352
  927MOL0     C27806   1.818   1.183   0.943  0.2322 -0.5088  0.5053
  927MOL0     C27807   1.803   1.200   0.806  0.3492  0.5016  0.1244
  927MOL0     C27808   1.904   1.239   0.699 -0.5640  0.0773 -0.3393
  927MOL0     C27809   2.049   1.211   0.733  0.3302  0.0324  1.3847
  927MOL0     C27810   2.130   1.257   0.607  0.0522 -0.1496 -0.4968
  927MOL0     C27811   2.275   1.227   0.639  0.3297 -1.1028 -0.2509
  927MOL0     O27812   2.333   1.340   0.713  0.4316  0.2070  0.1797
  927MOL0     C27813   2.445   1.315   0.789 -0.0640  0.2314 -0.4247
  927MOL0     C27814   2.479   1.416   0.875 -0.0014 -0.0749 -0.4246
  927MOL0     C27815   2.605   1.417   0.936 -0.3072 -0.4860 -0.2781
  927MOL0     C27816   2.644   1.535   1.021 -0.4144  0.1542  0.8541
  927MOL0     C27817   2.692   1.306   0.926  0.7985 -0.4049  0.2766
  927MOL0     C27818   2.818   1.300   0.988 -0.6379  1.0767 -0.2444
  927MOL0     O27819   2.902   1.211   0.928 -0.0119 -0.1216  0.5062
  927MOL0     C27820   3.019   1.173   0.998  0.1316 -0.0014  0.6606
  927MOL0     C27821   3.123   1.270   1.000  0.7633  0.0689  0.2988
  927MOL0     C27822   3.244   1.242   1.054  0.2730  0.6441  0.6117
  927MOL0     C27823   3.264   1.116   1.112  0.4632 -0.4055 -0.3067
  927MOL0     O27824   3.375   1.099   1.187 -0.0424 -0.3318  0.1899
  927MOL0     C27825   3.367   1.156   1.320 -0.2073 -0.0534  0.2623
  927MOL0     C27826   3.357   1.051   1.428 -0.0822  0.7559 -0.2532
  927MOL0     C27827   3.484   0.970   1.425  0.2787  0.7148 -0.0678
  927MOL0     C27828   3.486   0.829   1.505  0.9120 -0.1820 -1.5077
  927MOL0     C27829   3.475   0.859   1.650  0.0281 -0.1935  0.2880
  927MOL0     C27830   3.516   0.753   1.754  0.7342  0.0381  0.0949
  927MOL0     C27831   3.423   0.633   1.755 -0.1156 -0.6004  1.2691
  927MOL0     C27832   3.458   0.523   1.848  0.2466 -0.3249  0.5706
  927MOL0    Cl27833   3.398   0.565   2.008 -0.1176 -0.7932  0.5161
  927MOL0     C27834   3.172   1.016   1.094 -0.2685 -0.1754 -0.3866
  927MOL0     C27835   3.043   1.040   1.041 -0.8971  0.2656 -0.1544
  927MOL0     O27836   2.834   1.356   1.097 -0.3494 -0.0720  0.1012
  927MOL0     C27837   2.658   1.205   0.836  0.6287  0.2499 -0.4763
  927MOL0     C27838   2.536   1.206   0.777 -0.0300  0.1257  0.1234
  927MOL0     N27839   1.666   1.173   0.779 -0.8511 -0.1238  0.7452
  927MOL0     N27840   1.601   1.154   0.888 -0.3862 -0.0714 -0.3640
  927MOL0     C27841   1.203   1.926   1.628  0.7396  0.6711  0.5193
  927MOL0     C27842   1.164   1.986   1.749  0.2813  0.2697 -0.0755
  927MOL0     C27843   0.970   2.311   2.015  0.0769 -0.5189  0.1491
  927MOL0     C27844   1.044   2.426   1.994 -0.6127 -0.1020  0.3244
  927MOL0     C27845   1.033   2.545   2.068 -0.6585  0.3645 -0.4345
  927MOL0     C27846   0.944   2.547   2.177  0.5624  0.4055  0.6474
  927MOL0     O27847   0.943   2.663   2.248  0.6502 -0.3457 -0.0284
  927MOL0     C27848   0.831   2.699   2.330 -0.1735  0.0835 -0.5701
  927MOL0     C27849   0.877   2.827   2.407 -0.1354  0.3732  0.3754
  927MOL0     C27850   0.922   2.934   2.306 -0.0874 -0.2847  0.0966
  927MOL0     C27851   0.994   3.045   2.390  0.3693  0.5063  0.1754
  927MOL0     C27852   1.128   2.989   2.424 -0.6450 -0.6338  0.3443
  927MOL0     C27853   1.232   2.932   2.453 -0.1177  0.2341 -1.4655
  927MOL0     C27854   0.873   2.426   2.199  0.5290  0.0759  0.2916
  927MOL0     C27855   0.871   2.317   2.112 -0.5247  0.0853 -0.0783
  927MOL0     C27856   0.764   2.209   2.134  0.0146  0.2686 -0.1207
  927MOL0     H27857   1.090   2.294   1.634  3.2245  1.0993 -2.2941
  927MOL0     H27858   1.108   2.171   1.422 -1.5426  3.6058  2.5419
  927MOL0     H27859   1.193   1.768   1.256 -1.1798 -0.0672  0.6046
  927MOL0     H27860   1.188   1.751   1.423 -2.3646  1.3531 -0.7617
  927MOL0     H27861   1.449   1.833   1.275  0.5166  1.7015  1.5783
  927MOL0     H27862   1.438   1.788   1.439  0.7900 -0.4838 -0.4559
  927MOL0     H27863   1.374   1.566   1.400  2.3644  0.1280  0.7175
  927MOL0     H27864   1.354   1.583   1.228  0.0756 -0.0315  0.5866
  927MOL0     H27865   1.591   1.612   1.188  3.4197  1.3207  1.6592
  927MOL0     H27866   1.623   1.652   1.350  0.5208 -2.2258  0.3605
  927MOL0     H27867   1.541   1.405   1.413  1.5866  1.0547  1.1234
  927MOL0     H27868   1.705   1.445   1.369 -0.6057 -1.9767  4.7173
  927MOL0     H27869   1.489   1.320   1.206  0.2272 -1.9227  1.1903
  927MOL0     H27870   1.618   1.399   1.113  2.0765 -1.1495  1.1674
  927MOL0     H27871   1.667   1.201   1.328 -2.4164  1.3605 -0.6494
  927MOL0     H27872   1.792   1.265   1.216 -0.7245  0.2853 -0.6024
  927MOL0     H27873   1.710   1.028   1.153  0.3048 -0.8479 -4.0171
  927MOL0     H27874   1.551   1.106   1.147 -0.5153  2.3852  0.7309
  927MOL0     H27875   1.912   1.191   0.997  0.0862 -1.7956  0.9992
  927MOL0     H27876   1.902   1.348   0.688  2.2219  0.2111 -0.3601
  927MOL0     H27877   1.874   1.188   0.607 -3.6902 -0.8787  1.0914
  927MOL0     H27878   2.086   1.265   0.820  0.7670  1.2207  0.4876
  927MOL0     H27879   2.064   1.104   0.753  1.6332  0.4293  2.6217
  927MOL0     H27880   2.103   1.199   0.519  1.7828  1.8945 -2.5111
  927MOL0     H27881   2.115   1.364   0.587 -1.7343 -0.4175 -0.7732
  927MOL0     H27882   2.281   1.137   0.700  2.4937 -1.4612 -0.9021
  927MOL0     H27883   2.322   1.204   0.543 -0.7635 -1.3378 -0.7375
  927MOL0     H27884   2.412   1.501   0.882  0.4332  0.1935  0.8023
  927MOL0     H27885   2.564   1.609   1.028 -2.1082 -1.4578 -0.4102
  927MOL0     H27886   2.737   1.571   0.977 -0.7007 -1.0399 -0.8436
  927MOL0     H27887   2.655   1.514   1.128 -0.8317 -0.5156  0.7714
  927MOL0     H27888   3.103   1.369   0.960 -0.4706 -0.9031 -1.6285
  927MOL0     H27889   3.325   1.314   1.061  1.8930 -1.0280 -0.3301
  927MOL0     H27890   3.452   1.222   1.339 -0.8141  1.3029 -1.4229
  927MOL0     H27891   3.277   1.219   1.324  0.2385  0.7233 -1.1719
  927MOL0     H27892   3.335   1.096   1.525 -2.0546  1.8948 -1.1642
  927MOL0     H27893   3.277   0.979   1.406  1.4298 -0.2492 -3.0069
  927MOL0     H27894   3.562   1.025   1.479  1.6870 -1.2459  0.0169
  927MOL0     H27895   3.522   0.950   1.325  0.2663  0.1626  0.0303
  927MOL0     H27896   3.581   0.780   1.485  2.4214  1.7636  0.3824
  927MOL0     H27897   3.406   0.765   1.466 -1.1238  0.9986  0.4726
  927MOL0     H27898   3.552   0.935   1.669  0.9869 -0.6942 -1.3801
  927MOL0     H27899   3.377   0.899   1.679 -0.1759 -1.9629  2.2676
  927MOL0     H27900   3.510   0.807   1.849  0.9852 -2.0255  1.3314
  927MOL0     H27901   3.620   0.724   1.740  1.5531  2.8017 -0.2682
  927MOL0     H27902   3.417   0.583   1.658  2.5026 -2.7903  2.1309
  927MOL0     H27903   3.321   0.672   1.771 -0.5163  1.2217 -3.6976
  927MOL0     H27904   3.566   0.508   1.857  0.5817  1.1703 -0.6177
  927MOL0     H27905   3.420   0.425   1.816 -2.6235  0.9333 -0.2004
  927MOL0     H27906   3.209   0.922   1.135  0.2089  0.0580 -0.2705
  927MOL0     H27907   2.974   0.957   1.028  0.0136 -0.7849  1.3553
  927MOL0     H27908   2.727   1.125   0.811  1.5127  1.3120 -1.5914
  927MOL0     H27909   2.518   1.124   0.707 -3.4137  0.7717  0.0597
  927MOL0     H27910   1.243   1.826   1.642  1.7619  0.5937 -2.1912
  927MOL0     H27911   1.192   1.949   1.848 -1.4092  0.8017  0.6310
  927MOL0     H27912   1.126   2.419   1.923 -2.6874 -3.6038 -1.9815
  927MOL0     H27913   1.081   2.636   2.033 -0.8120 -0.2993 -2.4849
  927MOL0     H27914   0.741   2.719   2.271 -1.0749  3.0316  1.5196
  927MOL0     H27915   0.805   2.623   2.404 -1.4030 -0.3280 -1.4070
  927MOL0     H27916   0.954   2.811   2.483 -1.1526 -0.1265  1.3276
  927MOL0     H27917   0.789   2.867   2.458 -1.2999 -0.0583 -1.2219
  927MOL0     H27918   0.996   2.899   2.233 -0.5463  2.0291 -1.5627
  927MOL0     H27919   0.832   2.964   2.252 -0.0189 -0.2383  0.0087
  927MOL0     H27920   0.931   3.072   2.475  0.0785 -4.0646  1.6943
  927MOL0     H27921   1.005   3.132   2.324  0.2701 -1.3274 -2.4285
  927MOL0     H27922   1.325   2.878   2.452  0.1296  0.6243 -0.3708
  927MOL0     H27923   0.820   2.412   2.293 -0.2733 -2.3813 -0.4722
  927MOL0     H27924   0.683   2.218   2.061 -0.8257 -0.8417  0.6523
  927MOL0     H27925   0.807   2.108   2.139  1.3208  0.7518 -0.9293
  927MOL0     H27926   0.728   2.223   2.236 -1.7792 -0.0597 -0.6882
  928MOL0     O27927   4.348   2.462   6.132  0.3573  0.7217  0.1173
  928MOL0     C27928   4.315   2.525   6.038 -0.1944 -0.6193  0.0573
  928MOL0     O27929   4.403   2.592   5.948  0.1137  0.6572  0.3102
  928MOL0     C27930   4.533   2.586   5.982  1.0686 -0.0449  0.4523
  928MOL0     C27931   4.623   2.500   5.915 -0.5574  0.4852 -0.2055
  928MOL0     C27932   4.756   2.483   5.965  0.0848  0.3526 -0.3795
  928MOL0     C27933   4.803   2.559   6.077 -0.4057 -0.1974 -0.6650
  928MOL0     O27934   4.929   2.549   6.148 -0.3295 -0.5310 -0.0852
  928MOL0     C27935   5.017   2.442   6.108  1.2261  0.6341 -0.6165
  928MOL0     C27936   5.140   2.436   6.203  0.3101  0.2410  0.1057
  928MOL0     C27937   5.086   2.459   6.349 -0.1821  0.5388  0.6146
  928MOL0     C27938   5.184   2.420   6.463 -0.6672 -0.8546  0.8044
  928MOL0     C27939   5.122   2.437   6.603 -0.0227  0.0556 -0.4450
  928MOL0     C27940   5.006   2.333   6.620 -0.0997 -0.1159 -0.7178
  928MOL0     C27941   5.036   2.188   6.583  0.7028  0.8622  0.3888
  928MOL0     C27942   4.905   2.099   6.592 -0.2855 -0.4590  0.0433
  928MOL0     N27943   4.850   2.101   6.727  0.1043 -0.6288  0.1578
  928MOL0     C27944   4.756   2.186   6.786  0.4635  0.8553 -0.3128
  928MOL0     C27945   4.754   2.144   6.916  0.4188  0.2515  0.8928
  928MOL0     C27946   4.679   2.220   7.017 -0.8559 -0.8622  0.0954
  928MOL0     C27947   4.765   2.343   7.063  0.1643 -0.6719  0.2918
  928MOL0     C27948   4.900   2.304   7.140 -0.5434  0.7437  0.7198
  928MOL0     C27949   4.876   2.207   7.256  0.4018  0.1851 -0.0998
  928MOL0     O27950   5.000   2.215   7.315 -0.5944  0.0976  0.2686
  928MOL0     C27951   5.102   2.120   7.284  0.0081  0.1196  0.2273
  928MOL0     C27952   5.204   2.114   7.374  0.3528 -0.0688 -0.3016
  928MOL0     C27953   5.326   2.043   7.360  1.2236  0.1317 -0.1906
  928MOL0     C27954   5.426   2.052   7.474  1.0092 -0.5235  0.1906
  928MOL0     C27955   5.337   1.972   7.236 -0.3188  1.0133 -0.7580
  928MOL0     C27956   5.473   1.923   7.185 -0.4895  0.5637  0.5076
  928MOL0     O27957   5.484   1.890   7.045  0.1459  0.5878  0.8872
  928MOL0     C27958   5.597   1.813   7.020 -0.2311  0.1224  0.0335
  928MOL0     C27959   5.612   1.696   7.095  0.4095 -0.4778  0.3476
  928MOL0     C27960   5.728   1.617   7.079  0.3672  0.6147  0.1264
  928MOL0     C27961   5.829   1.661   6.996 -0.0265 -0.1708  0.0042
  928MOL0     O27962   5.939   1.580   6.976  0.2523 -0.3212 -0.1527
  928MOL0     C27963   5.945   1.473   6.875 -0.0262 -0.5136 -0.4309
  928MOL0     C27964   6.039   1.511   6.759  0.6849 -0.3961  0.1422
  928MOL0     C27965   6.168   1.579   6.803 -0.2686 -0.1816  0.0911
  928MOL0     C27966   6.280   1.574   6.709 -0.4959 -0.0126  0.2768
  928MOL0     C27967   6.418   1.597   6.775  0.2159 -0.8473 -0.0659
  928MOL0     C27968   6.521   1.582   6.662 -0.9644  0.1120  0.1530
  928MOL0     C27969   6.645   1.675   6.684  0.4587  0.1246 -0.2339
  928MOL0     C27970   6.745   1.647   6.570  0.5078  0.9479 -0.0002
  928MOL0    Cl27971   6.707   1.717   6.408  0.1157  0.0500  0.2637
  928MOL0     C27972   5.823   1.778   6.929  0.0777 -0.2946  0.0222
  928MOL0     C27973   5.706   1.851   6.934  0.9465  0.7053  0.2190
  928MOL0     O27974   5.568   1.942   7.260 -0.4294 -0.3638 -0.6256
  928MOL0     C27975   5.233   1.975   7.141  0.2417  0.5917 -0.2176
  928MOL0     C27976   5.114   2.040   7.167 -0.6848 -0.1823  0.3953
  928MOL0     N27977   4.832   2.027   6.931 -0.0036  0.4194  0.5722
  928MOL0     N27978   4.883   2.008   6.815  0.0165  0.1759  0.3094
  928MOL0     C27979   4.709   2.632   6.147 -0.0088 -1.6008 -0.5612
  928MOL0     C27980   4.584   2.659   6.092  1.0435 -0.1086  0.0712
  928MOL0     C27981   4.177   2.533   6.019 -0.3671  0.3210 -0.2683
  928MOL0     C27982   4.117   2.654   6.038  0.3557 -0.3771  0.0962
  928MOL0     C27983   3.978   2.679   6.019 -0.3749  0.3115  0.0162
  928MOL0     C27984   3.906   2.576   5.965  0.7573 -0.4799 -0.6505
  928MOL0     O27985   3.768   2.589   5.929  0.0504 -0.0231  0.6686
  928MOL0     C27986   3.711   2.716   5.912 -0.4569  0.3568 -0.8962
  928MOL0     C27987   3.569   2.700   5.875  0.5820  0.5138  0.9670
  928MOL0     C27988   3.544   2.611   5.755  1.3614 -0.2283  0.0813
  928MOL0     C27989   3.409   2.646   5.689 -0.6563  0.1720  0.0059
  928MOL0     C27990   3.419   2.737   5.576 -0.5766  0.5235  0.3771
  928MOL0     C27991   3.432   2.796   5.474  0.0868 -0.3165  0.4197
  928MOL0     C27992   3.961   2.454   5.954 -0.7899 -0.2274 -0.6438
  928MOL0     C27993   4.093   2.427   5.979 -0.0789  0.6158  0.2405
  928MOL0     C27994   4.141   2.293   5.937 -0.0966  1.4214  0.3766
  928MOL0     H27995   4.601   2.456   5.818  1.6262  3.1444 -2.0660
  928MOL0     H27996   4.811   2.416   5.900 -0.7509  0.0473 -0.7888
  928MOL0     H27997   5.045   2.461   6.004 -0.5778 -0.4912 -1.3541
  928MOL0     H27998   4.963   2.347   6.113 -0.1733  1.4433  0.1020
  928MOL0     H27999   5.180   2.335   6.192  0.3150  0.3706 -1.1851
  928MOL0     H28000   5.212   2.508   6.164  0.3581 -1.1172 -2.4674
  928MOL0     H28001   5.081   2.568   6.356  1.0119  0.7565 -1.1368
  928MOL0     H28002   4.988   2.415   6.368 -0.3007  0.7840  0.5784
  928MOL0     H28003   5.222   2.320   6.441  1.8422  0.4226 -1.2957
  928MOL0     H28004   5.279   2.474   6.461 -1.0315 -0.1461  1.9463
  928MOL0     H28005   5.092   2.540   6.627  2.6341  0.4457  1.7480
  928MOL0     H28006   5.203   2.418   6.674 -1.2407 -2.1476  0.4549
  928MOL0     H28007   4.987   2.341   6.728  0.5267  1.9407 -0.7034
  928MOL0     H28008   4.917   2.376   6.574 -1.0924 -0.8862  0.4132
  928MOL0     H28009   5.096   2.143   6.663 -0.2120  1.5470  1.4981
  928MOL0     H28010   5.081   2.165   6.486 -3.7300 -1.5406 -1.4298
  928MOL0     H28011   4.825   2.116   6.519 -0.6518 -3.8669 -0.5503
  928MOL0     H28012   4.938   2.001   6.557  3.7097  1.9176 -3.7736
  928MOL0     H28013   4.711   2.268   6.732  1.3503  0.5243 -1.5847
  928MOL0     H28014   4.672   2.148   7.099  0.7751 -3.8728 -2.1840
  928MOL0     H28015   4.581   2.258   6.990 -0.4839 -0.1776 -0.3228
  928MOL0     H28016   4.781   2.415   6.982 -0.2422  0.6611  1.3602
  928MOL0     H28017   4.702   2.398   7.133 -0.4522 -1.9030  0.7239
  928MOL0     H28018   4.976   2.270   7.069  1.0369  0.1567  2.5972
  928MOL0     H28019   4.949   2.398   7.169  0.0648  1.2675 -1.7307
  928MOL0     H28020   4.798   2.240   7.326  2.8035  0.8207  2.4902
  928MOL0     H28021   4.845   2.112   7.212 -0.3592  0.9624 -1.2912
  928MOL0     H28022   5.190   2.163   7.470  1.2617 -1.5666  0.6337
  928MOL0     H28023   5.362   2.062   7.562 -2.7438 -1.0105 -2.2902
  928MOL0     H28024   5.494   2.135   7.452  0.0755 -0.4151 -2.5553
  928MOL0     H28025   5.485   1.962   7.493  0.5275 -0.7367  0.6934
  928MOL0     H28026   5.549   1.653   7.173  3.7623 -2.4049  2.2515
  928MOL0     H28027   5.740   1.518   7.121  1.6814  1.5847  2.1632
  928MOL0     H28028   5.991   1.385   6.920 -1.5499 -1.1565 -0.0605
  928MOL0     H28029   5.843   1.446   6.846 -0.4888 -2.0070  2.2887
  928MOL0     H28030   6.074   1.418   6.713 -1.6821 -1.5796  0.6012
  928MOL0     H28031   5.972   1.574   6.699  2.9117  0.7682 -1.2449
  928MOL0     H28032   6.208   1.543   6.898 -0.8786 -0.3257  0.2946
  928MOL0     H28033   6.131   1.681   6.816 -2.4769 -0.7422 -1.2108
  928MOL0     H28034   6.260   1.655   6.638  1.9424  2.2897  1.9906
  928MOL0     H28035   6.280   1.484   6.647  0.1204  2.0481 -2.9442
  928MOL0     H28036   6.422   1.702   6.807  1.4053 -0.5702 -1.0444
  928MOL0     H28037   6.446   1.531   6.857  4.8503 -1.1301 -1.6242
  928MOL0     H28038   6.478   1.619   6.569 -1.3412 -1.6943 -0.4260
  928MOL0     H28039   6.545   1.477   6.647  0.1403  0.5032 -0.9710
  928MOL0     H28040   6.682   1.669   6.787 -2.0640  0.6814  0.8038
  928MOL0     H28041   6.600   1.774   6.666  0.6829  0.3716  0.5331
  928MOL0     H28042   6.738   1.538   6.557 -2.4641  0.7135  2.4361
  928MOL0     H28043   6.848   1.673   6.597  1.9073 -0.8223 -3.0617
  928MOL0     H28044   5.913   1.801   6.874 -0.7417  3.6132  0.0484
  928MOL0     H28045   5.691   1.944   6.880  0.9025  0.6992  0.2204
  928MOL0     H28046   5.238   1.939   7.039 -1.0784  1.2268 -0.5308
  928MOL0     H28047   5.027   2.043   7.102  0.5813  2.1732 -1.3696
  928MOL0     H28048   4.748   2.681   6.235  0.7743 -0.8993 -1.2845
  928MOL0     H28049   4.518   2.728   6.144 -1.8527 -1.3943 -1.6722
  928MOL0     H28050   4.171   2.747   6.058 -0.2861  0.1579 -0.5877
  928MOL0     H28051   3.936   2.776   6.042 -1.3260 -0.6452  2.6882
  928MOL0     H28052   3.726   2.779   6.000  0.4330 -0.6398 -0.3125
  928MOL0     H28053   3.775   2.762   5.836 -1.4600 -0.3065 -2.1973
  928MOL0     H28054   3.538   2.799   5.839 -1.8165 -1.3328 -2.7922
  928MOL0     H28055   3.511   2.666   5.961  1.0865 -1.9675  0.3860
  928MOL0     H28056   3.621   2.624   5.679  0.3201  2.9483 -0.5622
  928MOL0     H28057   3.545   2.507   5.791  0.6678  0.2905  1.6748
  928MOL0     H28058   3.348   2.699   5.763  1.3192 -0.7913  2.4669
  928MOL0     H28059   3.355   2.557   5.656 -0.5069 -0.1370  0.6000
  928MOL0     H28060   3.445   2.854   5.384 -0.1694  0.4135  0.8504
  928MOL0     H28061   3.901   2.367   5.929 -2.1281  0.5009 -0.0930
  928MOL0     H28062   4.200   2.295   5.845 -1.6296  1.4240 -0.6468
  928MOL0     H28063   4.203   2.255   6.018  1.4476  0.6067 -1.1182
  928MOL0     H28064   4.059   2.223   5.920  1.1584  0.2923 -1.3879
  929MOL0     O28065  10.721   3.502   9.991  0.6292 -0.0954 -0.1328
  929MOL0     C28066  10.661   3.425   9.910 -0.1137 -0.6350  0.4181
  929MOL0     O28067  10.524   3.409   9.894 -0.5184 -0.4253  0.3379
  929MOL0     C28068  10.438   3.507   9.946  0.7336  0.1265  0.0950
  929MOL0     C28069  10.454   3.650   9.953  0.5562  0.3108  0.0641
  929MOL0     C28070  10.365   3.724  10.028 -0.4098 -0.2832  0.4564
  929MOL0     C28071  10.249   3.671  10.078  0.1952  1.3936 -0.5510
  929MOL0     O28072  10.149   3.759  10.125 -0.7512 -0.1928  0.1726
  929MOL0     C28073  10.015   3.719  10.124  0.8035  0.3687  0.7009
  929MOL0     C28074   9.949   3.845  10.170 -0.7322  0.0502 -0.4685
  929MOL0     C28075   9.801   3.833  10.204 -0.1646 -0.1906  0.0562
  929MOL0     C28076   9.735   3.974  10.233  0.3354 -0.0064 -0.3553
  929MOL0     C28077   9.586   3.958  10.260 -0.5677 -0.7018  0.1065
  929MOL0     C28078   9.554   3.864  10.371 -0.0799  0.1913  0.1351
  929MOL0     C28079   9.620   3.890  10.500 -0.1753 -0.6711 -0.5401
  929MOL0     C28080   9.535   3.846  10.615 -0.1491 -0.1029 -0.4250
  929MOL0     N28081   9.598   3.887  10.745 -0.5226  1.0376  0.5593
  929MOL0     C28082   9.632   4.013  10.784 -0.0121 -0.1366 -0.2459
  929MOL0     C28083   9.658   4.003  10.921  0.5023 -0.1474  0.2052
  929MOL0     C28084   9.715   4.117  11.003 -0.2373 -0.1739  0.0971
  929MOL0     C28085   9.859   4.150  10.956 -0.6284  0.0435  0.1236
  929MOL0     C28086   9.922   4.270  11.035  0.5519  0.1108  0.1675
  929MOL0     C28087  10.061   4.312  10.976  0.0584 -0.0003 -0.2814
  929MOL0     O28088  10.110   4.414  11.068 -1.1277  0.1788  0.1851
  929MOL0     C28089  10.232   4.469  11.054  0.8357 -0.2898 -0.5355
  929MOL0     C28090  10.316   4.441  10.949 -0.0364  0.2676  0.0817
  929MOL0     C28091  10.432   4.511  10.914 -0.0866  0.2428 -0.2065
  929MOL0     C28092  10.498   4.485  10.787 -1.0187 -0.0244 -0.0647
  929MOL0     C28093  10.464   4.620  11.000 -0.3033  0.3640  0.2566
  929MOL0     C28094  10.575   4.718  10.979 -0.6565 -0.2105 -0.1579
  929MOL0     O28095  10.582   4.817  11.068 -0.3588  0.4890  0.6404
  929MOL0     C28096  10.705   4.879  11.083 -0.1488 -0.2131  0.5009
  929MOL0     C28097  10.719   5.024  11.057  0.4792  0.6470 -0.3335
  929MOL0     C28098  10.837   5.091  11.092  0.4406 -0.0536 -0.2754
  929MOL0     C28099  10.950   5.010  11.123  0.3411  0.1995  0.0250
  929MOL0     O28100  11.055   5.081  11.143  0.3491  0.2629 -0.4081
  929MOL0     C28101  11.172   5.020  11.203 -0.0664 -0.0749 -0.4149
  929MOL0     C28102  11.272   4.958  11.094  0.0995 -0.0898  0.2058
  929MOL0     C28103  11.366   5.061  11.016 -0.8962 -0.0774  0.6905
  929MOL0     C28104  11.511   5.071  11.066 -0.4270  0.7089  1.6393
  929MOL0     C28105  11.515   5.112  11.214 -0.0533  0.5628 -0.5669
  929MOL0     C28106  11.654   5.163  11.253  0.5438  0.3901  0.1397
  929MOL0     C28107  11.651   5.196  11.398  0.6270 -1.2476 -0.2968
  929MOL0     C28108  11.778   5.275  11.432  0.2620  0.2154  0.4192
  929MOL0    Cl28109  11.753   5.440  11.376 -0.2695 -0.1542  0.3340
  929MOL0     C28110  10.941   4.873  11.134 -0.4603  0.6521 -0.5875
  929MOL0     C28111  10.822   4.812  11.114 -0.1326  0.4444  0.4211
  929MOL0     O28112  10.660   4.695  10.890  0.3251  0.0296  0.7110
  929MOL0     C28113  10.378   4.643  11.113  0.6095 -0.6398 -0.1222
  929MOL0     C28114  10.273   4.567  11.145  0.0309  0.0407  0.2124
  929MOL0     N28115   9.632   3.863  10.958 -0.1061 -0.1464 -0.5239
  929MOL0     N28116   9.602   3.799  10.851  0.1854 -0.2398 -0.7229
  929MOL0     C28117  10.224   3.528  10.065  0.2099  1.0571 -0.8472
  929MOL0     C28118  10.327   3.446  10.006 -0.2377  0.3299  0.5189
  929MOL0     C28119  10.752   3.352   9.808  0.8358 -0.3134 -0.4644
  929MOL0     C28120  10.695   3.268   9.714  0.9860 -0.2258  0.0952
  929MOL0     C28121  10.768   3.216   9.604 -0.0367  0.1051 -0.9464
  929MOL0     C28122  10.902   3.235   9.591  1.2086 -0.1345 -0.4147
  929MOL0     O28123  10.957   3.169   9.481  0.0704 -0.3834 -0.6925
  929MOL0     C28124  11.094   3.190   9.444  0.7212  0.0052  0.7025
  929MOL0     C28125  11.118   3.332   9.385 -0.5305  0.1608  0.1702
  929MOL0     C28126  11.014   3.357   9.268  0.8225 -0.8874 -0.2698
  929MOL0     C28127  11.034   3.501   9.212  0.3676 -0.1131  0.4696
  929MOL0     C28128  11.002   3.613   9.305  0.3203  0.0518  0.7151
  929MOL0     C28129  10.975   3.700   9.382  0.2262 -0.0950 -0.4244
  929MOL0     C28130  10.968   3.307   9.689 -0.0131 -0.8144 -0.0276
  929MOL0     C28131  10.896   3.367   9.802 -1.1857  0.1398  0.1363
  929MOL0     C28132  10.980   3.416   9.925 -0.0529 -0.8703  0.1624
  929MOL0     H28133  10.537   3.688   9.894 -0.3721 -3.7512 -4.5116
  929MOL0     H28134  10.378   3.832  10.023  0.4488 -0.4167 -3.4816
  929MOL0     H28135  10.008   3.637  10.197  2.6379  0.2033  0.7268
  929MOL0     H28136   9.972   3.693  10.026 -0.6731  1.7404  0.9492
  929MOL0     H28137   9.996   3.889  10.259 -0.6644 -0.3491 -0.3045
  929MOL0     H28138   9.966   3.906  10.081  1.9511 -0.8024 -0.6309
  929MOL0     H28139   9.748   3.778  10.126 -0.7396  1.5044 -0.8073
  929MOL0     H28140   9.798   3.775  10.297  2.5204  0.9385  0.9491
  929MOL0     H28141   9.785   4.034  10.309 -1.4338  0.1451  0.7510
  929MOL0     H28142   9.735   4.035  10.143  0.0811  0.2701 -0.1678
  929MOL0     H28143   9.539   3.935  10.164 -1.6535 -1.2875  0.7668
  929MOL0     H28144   9.547   4.057  10.287 -0.6235 -0.1932 -1.6929
  929MOL0     H28145   9.447   3.870  10.389 -0.7447 -0.1323 -3.1700
  929MOL0     H28146   9.582   3.766  10.330  0.5946  0.8633 -1.0713
  929MOL0     H28147   9.621   3.999  10.504 -0.9864 -0.5495 -2.6883
  929MOL0     H28148   9.723   3.853  10.500 -0.0190 -0.2556 -0.1388
  929MOL0     H28149   9.436   3.890  10.604  0.2490  0.7224 -0.7778
  929MOL0     H28150   9.523   3.737  10.608  0.7973 -0.2657  0.2601
  929MOL0     H28151   9.640   4.106  10.729  0.2361 -0.4320 -0.7172
  929MOL0     H28152   9.716   4.084  11.107 -0.0567 -0.9596 -0.1398
  929MOL0     H28153   9.648   4.202  10.986  0.0477  0.0281 -0.0154
  929MOL0     H28154   9.914   4.060  10.987  1.0032  1.9974  3.3834
  929MOL0     H28155   9.860   4.165  10.847 -4.9859  0.1780 -0.0858
  929MOL0     H28156   9.859   4.358  11.052  1.9197  1.3332 -0.7821
  929MOL0     H28157   9.941   4.243  11.140 -1.5544  1.6251  1.0048
  929MOL0     H28158  10.138   4.236  10.962  2.1264  2.1453 -1.4355
  929MOL0     H28159  10.050   4.358  10.877  2.7081  0.9586 -0.2042
  929MOL0     H28160  10.280   4.376  10.870  0.0762 -0.3585  0.5365
  929MOL0     H28161  10.591   4.437  10.819 -0.2495  1.4912  0.0589
  929MOL0     H28162  10.518   4.572  10.724 -1.1684 -0.9676 -1.4570
  929MOL0     H28163  10.455   4.397  10.738  3.6854 -2.7566  0.0419
  929MOL0     H28164  10.647   5.084  11.004  2.2437  1.3484 -2.0482
  929MOL0     H28165  10.845   5.199  11.082 -0.0048 -0.0266 -0.3573
  929MOL0     H28166  11.238   5.089  11.255  1.3740 -1.8102  0.1474
  929MOL0     H28167  11.155   4.946  11.282  3.9095 -2.4184 -1.5193
  929MOL0     H28168  11.329   4.877  11.140  1.1844 -0.0126 -0.9344
  929MOL0     H28169  11.211   4.905  11.021 -1.8644 -1.4176  2.6767
  929MOL0     H28170  11.331   5.165  11.024  0.2536  0.7836 -3.2397
  929MOL0     H28171  11.375   5.036  10.909  1.7387  1.2053  0.5482
  929MOL0     H28172  11.579   5.133  11.006  0.5141 -1.1134  0.7303
  929MOL0     H28173  11.556   4.972  11.063 -2.7546 -0.4217  1.5300
  929MOL0     H28174  11.441   5.192  11.224  1.6350  1.8695  3.5944
  929MOL0     H28175  11.486   5.027  11.277  0.5333 -0.9985 -2.3080
  929MOL0     H28176  11.674   5.244  11.183  4.4721  0.8985  1.5942
  929MOL0     H28177  11.723   5.078  11.248 -0.3882 -0.3260 -2.1405
  929MOL0     H28178  11.648   5.105  11.459 -1.2971 -0.5425  0.7294
  929MOL0     H28179  11.563   5.255  11.424  0.6568 -1.2918 -0.0950
  929MOL0     H28180  11.862   5.227  11.381 -0.6691 -1.1131  0.1137
  929MOL0     H28181  11.785   5.277  11.542 -0.6722  0.2732  0.4858
  929MOL0     H28182  11.024   4.810  11.165 -1.3649  0.2005  1.0255
  929MOL0     H28183  10.822   4.704  11.115  4.4636 -0.1253 -5.7234
  929MOL0     H28184  10.406   4.721  11.183  0.3529 -1.0897  0.4918
  929MOL0     H28185  10.214   4.583  11.234 -1.8413 -1.7725 -0.6266
  929MOL0     H28186  10.137   3.473  10.102  1.8735  0.6094  2.8659
  929MOL0     H28187  10.300   3.341  10.008 -1.7181  0.6317 -0.9590
  929MOL0     H28188  10.588   3.249   9.709  1.1754 -1.3317 -0.0640
  929MOL0     H28189  10.719   3.143   9.541  1.8654 -0.8026 -1.4531
  929MOL0     H28190  11.158   3.173   9.531  2.2342  1.5851 -0.0542
  929MOL0     H28191  11.119   3.117   9.366  0.2506  0.8149 -0.2364
  929MOL0     H28192  11.221   3.337   9.349 -0.0274  2.6486  1.7027
  929MOL0     H28193  11.120   3.407   9.465  1.7822 -2.0426  2.3728
  929MOL0     H28194  11.027   3.293   9.181 -0.2037 -1.9336  0.3259
  929MOL0     H28195  10.909   3.349   9.298  1.4500 -0.1884  2.4488
  929MOL0     H28196  10.980   3.501   9.117 -0.5285 -0.1422  0.9702
  929MOL0     H28197  11.139   3.521   9.187  0.4343  1.0703  1.5753
  929MOL0     H28198  10.959   3.774   9.457  1.1209 -2.4107  2.2133
  929MOL0     H28199  11.076   3.298   9.694 -0.1115 -1.5019  1.8474
  929MOL0     H28200  10.952   3.366  10.019 -1.0814  0.8184  0.8036
  929MOL0     H28201  11.087   3.402   9.906  0.2095 -0.1063  0.9688
  929MOL0     H28202  10.959   3.519   9.955  1.1006  0.6018 -3.6043
  930MOL0     O28203   2.178   0.608   5.684 -0.3287  0.0224 -0.0299
  930MOL0     C28204   2.119   0.603   5.572 -0.0869 -0.3806  0.2941
  930MOL0     O28205   2.177   0.568   5.457 -0.1378  0.2529 -0.4652
  930MOL0     C28206   2.310   0.546   5.455 -0.0354  1.0021 -0.5190
  930MOL0     C28207   2.347   0.406   5.467 -0.0885  0.1984 -0.4435
  930MOL0     C28208   2.480   0.363   5.468  0.1710  0.0730  1.1018
  930MOL0     C28209   2.578   0.461   5.444 -0.0815 -0.2328 -0.5431
  930MOL0     O28210   2.708   0.437   5.412 -0.8192 -0.3685 -0.9673
  930MOL0     C28211   2.777   0.334   5.482 -0.3438  0.4621  0.1724
  930MOL0     C28212   2.924   0.343   5.438  0.6268  0.1355 -0.3000
  930MOL0     C28213   2.988   0.195   5.450  0.1278  0.2375  0.2331
  930MOL0     C28214   3.140   0.216   5.461 -0.4234 -0.0958 -0.1414
  930MOL0     C28215   3.221   0.268   5.341  0.1287 -0.4061 -0.0951
  930MOL0     C28216   3.368   0.235   5.339 -0.5732  0.3113 -0.7450
  930MOL0     C28217   3.459   0.353   5.309 -0.4692 -0.4017 -0.3788
  930MOL0     C28218   3.419   0.432   5.180  0.3202  0.7779  0.0538
  930MOL0     N28219   3.388   0.342   5.068  0.9404  0.2035  0.8418
  930MOL0     C28220   3.455   0.236   5.014  0.3739 -0.6100  0.4015
  930MOL0     C28221   3.384   0.187   4.910 -0.0197 -0.5699  0.4282
  930MOL0     C28222   3.429   0.065   4.822  0.4648 -0.0977  0.8583
  930MOL0     C28223   3.413   0.104   4.667  0.1963 -1.0731 -0.2823
  930MOL0     C28224   3.429  -0.015   4.571 -0.2671  0.1120  0.2985
  930MOL0     C28225   3.309  -0.108   4.570 -0.5601 -0.2132 -1.3127
  930MOL0     O28226   3.189  -0.038   4.552  0.4692 -0.0040 -0.2458
  930MOL0     C28227   3.063  -0.093   4.573  0.4252  0.1634  0.3641
  930MOL0     C28228   3.049  -0.233   4.588 -0.2251  0.0062 -0.4831
  930MOL0     C28229   2.924  -0.285   4.598  0.9102 -0.2561 -0.2937
  930MOL0     C28230   2.918  -0.428   4.641 -0.0794  0.2833 -0.0292
  930MOL0     C28231   2.809  -0.207   4.589 -1.2746 -0.5695 -0.1522
  930MOL0     C28232   2.675  -0.266   4.597  0.6121  0.5494 -0.5509
  930MOL0     O28233   2.653  -0.389   4.539 -0.1239  0.2645  0.0472
  930MOL0     C28234   2.525  -0.436   4.521  0.0576  0.0750  0.1820
  930MOL0     C28235   2.420  -0.353   4.480  0.1793 -0.3944 -0.1978
  930MOL0     C28236   2.289  -0.414   4.471 -0.2221 -0.3964  0.1576
  930MOL0     C28237   2.273  -0.552   4.497  1.1061 -0.7809 -0.3501
  930MOL0     O28238   2.145  -0.601   4.496  0.5199 -0.7048  1.2739
  930MOL0     C28239   2.115  -0.742   4.505 -0.8178  0.5021 -0.7014
  930MOL0     C28240   1.968  -0.765   4.500  0.1579  0.5580 -0.2219
  930MOL0     C28241   1.910  -0.752   4.357  0.1826 -0.6568  0.1203
  930MOL0     C28242   1.764  -0.729   4.362 -0.2000  0.3318  0.0234
  930MOL0     C28243   1.700  -0.729   4.227  0.1163 -0.5250  0.3710
  930MOL0     C28244   1.551  -0.717   4.245 -0.4988 -0.8485  0.0395
  930MOL0     C28245   1.472  -0.721   4.114 -0.8345  0.3652  0.1997
  930MOL0     C28246   1.456  -0.872   4.066  0.3586 -0.1094  0.0222
  930MOL0    Cl28247   1.338  -0.962   4.171  0.2314 -0.1589  0.0750
  930MOL0     C28248   2.386  -0.629   4.532 -0.7352  0.4084  0.0399
  930MOL0     C28249   2.510  -0.573   4.534 -0.5872  0.6483  0.3278
  930MOL0     O28250   2.588  -0.196   4.652 -0.5133  0.4062 -0.5682
  930MOL0     C28251   2.826  -0.065   4.575  0.0542  0.2261  0.3308
  930MOL0     C28252   2.956  -0.007   4.577  0.8080 -0.3448 -0.5114
  930MOL0     N28253   3.268   0.255   4.906 -0.6227 -0.2008 -0.1492
  930MOL0     N28254   3.272   0.347   4.997 -0.1668  0.1987  0.0553
  930MOL0     C28255   2.537   0.594   5.432 -0.7848  0.2435  0.6924
  930MOL0     C28256   2.412   0.642   5.439  0.2001 -0.0815 -0.7710
  930MOL0     C28257   1.978   0.644   5.554 -0.6158 -0.1656 -0.3259
  930MOL0     C28258   1.926   0.658   5.418 -0.4997  0.4383 -0.5228
  930MOL0     C28259   1.800   0.708   5.400 -0.7009  0.5216  0.7349
  930MOL0     C28260   1.727   0.753   5.500  0.2582  0.3447 -0.0770
  930MOL0     O28261   1.611   0.809   5.449 -0.4415  0.4894  0.7869
  930MOL0     C28262   1.511   0.843   5.540 -1.5199 -0.0605  0.2569
  930MOL0     C28263   1.387   0.854   5.453  0.0363  0.2409  0.6026
  930MOL0     C28264   1.268   0.914   5.523 -1.3088  0.4895  0.5960
  930MOL0     C28265   1.157   0.954   5.416  0.1001  0.7366  0.3386
  930MOL0     C28266   1.061   1.040   5.485  0.1205  0.4486 -0.0548
  930MOL0     C28267   0.974   1.110   5.543 -0.0897 -0.6177  0.1991
  930MOL0     C28268   1.767   0.743   5.633  0.8316 -1.1508  0.3490
  930MOL0     C28269   1.890   0.681   5.660  0.4098 -0.8403 -0.4003
  930MOL0     C28270   1.921   0.701   5.797  0.1986  0.0980 -0.1757
  930MOL0     H28271   2.269   0.330   5.461  1.1047 -0.9667 -2.1597
  930MOL0     H28272   2.510   0.259   5.477 -0.4237 -0.2659 -0.5849
  930MOL0     H28273   2.722   0.242   5.459 -1.8978  1.2486  0.5602
  930MOL0     H28274   2.772   0.333   5.592 -0.1313  0.6361  0.1845
  930MOL0     H28275   2.928   0.382   5.336  1.2352  0.8885  0.0010
  930MOL0     H28276   2.975   0.421   5.496 -3.0868  0.6389  2.7171
  930MOL0     H28277   2.956   0.139   5.538  1.0104 -0.6700 -0.0043
  930MOL0     H28278   2.957   0.132   5.366 -0.2495 -0.1823  0.6772
  930MOL0     H28279   3.169   0.287   5.539  1.4794  0.9316 -1.6922
  930MOL0     H28280   3.194   0.129   5.500  0.9158  0.6607 -0.2280
  930MOL0     H28281   3.207   0.377   5.333 -0.4782 -0.4831 -0.1780
  930MOL0     H28282   3.178   0.214   5.256  1.1290 -5.4634  2.2734
  930MOL0     H28283   3.392   0.208   5.443  0.9601  0.0379 -1.1340
  930MOL0     H28284   3.399   0.159   5.266 -0.0704 -1.1518  0.9093
  930MOL0     H28285   3.564   0.329   5.327  0.2506  1.4303 -1.7904
  930MOL0     H28286   3.454   0.420   5.395 -0.9679 -1.2929  0.3079
  930MOL0     H28287   3.332   0.498   5.190 -0.4213 -0.2628  0.6637
  930MOL0     H28288   3.504   0.490   5.142  1.0508  0.3744  1.0355
  930MOL0     H28289   3.555   0.197   5.031 -0.9175 -3.1241  3.1956
  930MOL0     H28290   3.370  -0.025   4.841  1.1310 -1.7260 -3.5632
  930MOL0     H28291   3.533   0.045   4.850  2.2833  3.1708 -2.5401
  930MOL0     H28292   3.314   0.146   4.646  0.7098  0.1659 -0.3041
  930MOL0     H28293   3.480   0.185   4.637  0.0413 -0.2028  1.5642
  930MOL0     H28294   3.441   0.011   4.466  0.7386 -1.3473  0.0284
  930MOL0     H28295   3.521  -0.068   4.596 -0.4052 -1.7146 -2.6567
  930MOL0     H28296   3.320  -0.192   4.500 -0.9708 -0.7037 -0.7984
  930MOL0     H28297   3.307  -0.159   4.667 -0.3932 -1.4804 -1.9533
  930MOL0     H28298   3.138  -0.295   4.593  2.0130  2.9809 -0.4829
  930MOL0     H28299   3.016  -0.472   4.663 -1.0445 -2.7554 -1.2169
  930MOL0     H28300   2.884  -0.493   4.560 -0.7584 -0.8000  1.0714
  930MOL0     H28301   2.846  -0.454   4.719 -0.6831 -1.3243 -1.0555
  930MOL0     H28302   2.436  -0.249   4.453 -1.4790 -0.5099 -1.8430
  930MOL0     H28303   2.205  -0.348   4.449 -1.2266 -1.2542  1.2752
  930MOL0     H28304   2.160  -0.796   4.421 -0.0960 -0.2226  0.1231
  930MOL0     H28305   2.161  -0.780   4.597  1.8395 -1.1515 -2.5364
  930MOL0     H28306   1.947  -0.870   4.525 -0.2299  0.2340 -1.8381
  930MOL0     H28307   1.913  -0.692   4.561  0.0909 -0.0193  0.4227
  930MOL0     H28308   1.937  -0.841   4.300  1.0622 -2.0588  2.5635
  930MOL0     H28309   1.954  -0.673   4.296  2.2759 -1.6899  0.2330
  930MOL0     H28310   1.732  -0.639   4.416 -1.4976  0.4045 -0.8244
  930MOL0     H28311   1.732  -0.823   4.409  1.0559 -0.8661 -1.3973
  930MOL0     H28312   1.737  -0.659   4.151 -2.1312 -0.0750 -0.3914
  930MOL0     H28313   1.715  -0.825   4.175  1.7384  0.7649 -1.7356
  930MOL0     H28314   1.543  -0.623   4.299 -1.1242 -1.2924  0.7327
  930MOL0     H28315   1.515  -0.797   4.311  1.3563 -0.0840  2.0965
  930MOL0     H28316   1.524  -0.662   4.038  0.5700 -0.4746  0.4766
  930MOL0     H28317   1.373  -0.683   4.141 -1.0537 -0.4324  0.5489
  930MOL0     H28318   1.547  -0.931   4.054  0.7862  0.4052  0.6810
  930MOL0     H28319   1.415  -0.876   3.964 -0.8871 -0.8525  0.5325
  930MOL0     H28320   2.372  -0.734   4.552 -3.1233  1.0432  2.2736
  930MOL0     H28321   2.601  -0.630   4.550 -1.2103  0.2116  2.6106
  930MOL0     H28322   2.739   0.001   4.574  1.6749  2.6961 -3.9053
  930MOL0     H28323   2.973   0.099   4.560 -1.3735 -0.0401 -1.1927
  930MOL0     H28324   2.615   0.667   5.415 -1.2744  1.0658  1.8382
  930MOL0     H28325   2.382   0.744   5.417 -0.0105 -0.1313 -0.7133
  930MOL0     H28326   1.990   0.657   5.330 -0.3963  4.5572 -0.7249
  930MOL0     H28327   1.761   0.714   5.299  1.3793  0.0815 -0.1560
  930MOL0     H28328   1.494   0.773   5.623  1.3829 -1.0455  0.1495
  930MOL0     H28329   1.526   0.938   5.592 -1.9294  0.4202 -0.4947
  930MOL0     H28330   1.362   0.753   5.418  2.2824 -0.4372  0.7761
  930MOL0     H28331   1.397   0.923   5.368 -2.4880 -2.9132 -2.6094
  930MOL0     H28332   1.229   0.838   5.591 -0.9338  1.1941  1.6121
  930MOL0     H28333   1.300   0.999   5.583  0.2071 -0.4205  1.1512
  930MOL0     H28334   1.113   0.863   5.374  2.1622 -0.0053 -0.3301
  930MOL0     H28335   1.200   1.008   5.332 -1.2276 -0.9823 -1.5373
  930MOL0     H28336   0.894   1.167   5.586  1.0540 -0.2249  1.8691
  930MOL0     H28337   1.701   0.777   5.712  0.0360 -0.0254 -0.7732
  930MOL0     H28338   1.959   0.802   5.814 -0.2183  0.5988 -2.0132
  930MOL0     H28339   1.836   0.681   5.862 -0.7666 -3.2003 -2.2222
  930MOL0     H28340   1.998   0.631   5.831  1.1288  1.2012  0.0829
  931MOL0     O28341   2.227   9.939   7.056 -0.1229  0.0185  0.2580
  931MOL0     C28342   2.193   9.943   6.937 -0.2261 -0.1009  0.4108
  931MOL0     O28343   2.270   9.887   6.835  0.3801 -0.2801 -0.4856
  931MOL0     C28344   2.407   9.867   6.854 -0.7342  0.0809  0.2208
  931MOL0     C28345   2.450   9.760   6.772  0.0986 -0.3934  0.3486
  931MOL0     C28346   2.585   9.719   6.788  0.1228  1.1109 -0.3669
  931MOL0     C28347   2.672   9.790   6.870 -0.1121  0.6962  0.1733
  931MOL0     O28348   2.799   9.750   6.895  1.0805  0.2328  0.0828
  931MOL0     C28349   2.839   9.609   6.885 -0.1800 -0.7966 -0.6160
  931MOL0     C28350   2.902   9.581   6.748  0.2718 -0.0284  0.5657
  931MOL0     C28351   3.039   9.646   6.748 -0.0801 -0.3739  0.0119
  931MOL0     C28352   3.061   9.804   6.736 -0.1394  1.3152 -0.4267
  931MOL0     C28353   3.207   9.819   6.725  0.1030 -0.5073 -0.2329
  931MOL0     C28354   3.233   9.957   6.702 -0.5554  0.1371 -0.4072
  931MOL0     C28355   3.369   9.985   6.657  0.9727  0.8734  0.5485
  931MOL0     C28356   3.397  10.136   6.668 -0.9203 -0.3988 -0.2379
  931MOL0     N28357   3.522  10.182   6.607 -0.0308  0.4271  0.2898
  931MOL0     C28358   3.651  10.163   6.642 -1.1254  0.0723  0.6110
  931MOL0     C28359   3.727  10.242   6.566  0.1864  0.5859 -0.2660
  931MOL0     C28360   3.878  10.236   6.579 -0.7829 -0.2455 -0.2994
  931MOL0     C28361   3.932  10.371   6.623 -1.3875 -0.3448  0.2536
  931MOL0     C28362   3.888  10.424   6.758  0.3628 -0.0361  0.6442
  931MOL0     C28363   3.972  10.374   6.876  0.2598 -0.2918 -0.2495
  931MOL0     O28364   3.960  10.229   6.890 -0.5285  0.7243 -1.4086
  931MOL0     C28365   3.844  10.175   6.946 -0.4205 -0.3624 -0.0730
  931MOL0     C28366   3.733  10.248   6.983  0.3044  0.2091  1.1528
  931MOL0     C28367   3.617  10.179   7.020  0.9861  0.5439 -1.1454
  931MOL0     C28368   3.485  10.262   7.045  0.1200 -0.0384  0.6665
  931MOL0     C28369   3.616  10.034   7.030 -0.4337 -0.1889 -0.6065
  931MOL0     C28370   3.506   9.956   7.087  0.6427 -0.4763  0.4302
  931MOL0     O28371   3.417  10.007   7.184  0.2954  0.5608 -0.4612
  931MOL0     C28372   3.319   9.924   7.224  1.3961 -0.1002 -0.3320
  931MOL0     C28373   3.233   9.855   7.133  0.3107 -0.2012 -0.0948
  931MOL0     C28374   3.130   9.781   7.187 -0.0498 -0.9917 -0.0059
  931MOL0     C28375   3.111   9.773   7.323 -0.6007 -0.6037  0.0445
  931MOL0     O28376   3.019   9.696   7.394  0.4978 -0.2940  0.3690
  931MOL0     C28377   2.896   9.657   7.320 -0.8053 -0.7011 -0.1241
  931MOL0     C28378   2.789   9.612   7.417  0.1283 -0.1020  0.1064
  931MOL0     C28379   2.654   9.588   7.342  0.4152 -0.0756  0.0814
  931MOL0     C28380   2.603   9.711   7.269  0.1156 -0.1196  0.6871
  931MOL0     C28381   2.456   9.715   7.256 -0.1367  1.3528 -0.4323
  931MOL0     C28382   2.384   9.828   7.327  0.1348  0.9287  0.2573
  931MOL0     C28383   2.369   9.807   7.479  0.5162 -0.2563  0.7927
  931MOL0     C28384   2.257   9.713   7.514 -0.4334 -0.6644 -0.3297
  931MOL0    Cl28385   2.204   9.742   7.690  0.2117  0.3910 -0.3484
  931MOL0     C28386   3.198   9.846   7.408  0.5002  0.0922  0.5398
  931MOL0     C28387   3.293   9.928   7.355  0.0246  0.3135 -0.3028
  931MOL0     O28388   3.498   9.834   7.045  0.2839  0.0470 -0.5448
  931MOL0     C28389   3.735   9.969   6.990 -0.5123 -0.4727 -0.0501
  931MOL0     C28390   3.845  10.033   6.952  0.4042 -0.9310 -0.1481
  931MOL0     N28391   3.642  10.309   6.473 -0.7056 -0.0833  0.8133
  931MOL0     N28392   3.523  10.271   6.505  0.1957  0.6895 -0.0159
  931MOL0     C28393   2.623   9.898   6.942 -0.9632  0.4165 -0.2656
  931MOL0     C28394   2.497   9.941   6.934  0.6903  0.1163  0.1440
  931MOL0     C28395   2.071  10.023   6.900 -0.8581 -0.3774  0.4478
  931MOL0     C28396   2.007  10.087   7.003  0.4495 -0.1020 -0.3517
  931MOL0     C28397   1.884  10.156   6.987  0.3143 -0.1651 -0.2339
  931MOL0     C28398   1.833  10.176   6.860  0.1216 -0.0621  0.2768
  931MOL0     O28399   1.738  10.267   6.827  0.2804  0.0334  0.4523
  931MOL0     C28400   1.651  10.315   6.936 -0.3907 -0.7207 -0.2472
  931MOL0     C28401   1.567  10.419   6.858  0.5990 -0.2584  0.0794
  931MOL0     C28402   1.467  10.368   6.755 -1.2495 -0.3902  0.7902
  931MOL0     C28403   1.367  10.273   6.814 -0.2040  0.6246 -0.0136
  931MOL0     C28404   1.256  10.263   6.724 -0.1495  0.0564  0.3230
  931MOL0     C28405   1.159  10.269   6.645 -0.0397  1.0630 -0.6538
  931MOL0     C28406   1.898  10.108   6.759 -0.9068 -0.4602  0.6012
  931MOL0     C28407   2.013  10.030   6.771  0.2475 -0.7796 -0.0886
  931MOL0     C28408   2.054   9.951   6.649  1.2093  0.5984  0.7512
  931MOL0     H28409   2.385   9.721   6.695 -2.6167  1.5139  1.5095
  931MOL0     H28410   2.628   9.629   6.745  2.5370  1.9730  0.0744
  931MOL0     H28411   2.759   9.535   6.897 -2.5538  1.6912 -0.1491
  931MOL0     H28412   2.910   9.595   6.967 -1.5338 -2.2553  0.3711
  931MOL0     H28413   2.906   9.473   6.730 -2.4148 -0.5876  2.7219
  931MOL0     H28414   2.844   9.620   6.664  0.5140 -3.4693 -1.4003
  931MOL0     H28415   3.095   9.598   6.829  0.7945  0.8822  0.1865
  931MOL0     H28416   3.094   9.609   6.660  0.0966  0.2913 -0.1632
  931MOL0     H28417   3.002   9.838   6.650 -1.4614  0.2222  0.0126
  931MOL0     H28418   3.015   9.857   6.820 -0.1483  1.5864 -0.5996
  931MOL0     H28419   3.252   9.764   6.642  0.6439 -0.1832 -0.1552
  931MOL0     H28420   3.252   9.792   6.821  1.1265 -1.6399 -1.0010
  931MOL0     H28421   3.174   9.996   6.619  0.2410  0.4908 -0.8193
  931MOL0     H28422   3.218  10.008   6.797 -1.6376 -0.1153 -0.4307
  931MOL0     H28423   3.378   9.954   6.553 -1.1300  0.7387  0.3784
  931MOL0     H28424   3.442   9.931   6.718 -0.7942 -1.6581  0.5811
  931MOL0     H28425   3.318  10.201   6.629  0.3020  0.9276 -0.5977
  931MOL0     H28426   3.401  10.163   6.774 -1.0121 -0.4387 -0.2243
  931MOL0     H28427   3.703  10.093   6.707  1.9997 -1.4397 -3.0952
  931MOL0     H28428   3.920  10.205   6.483  1.4175 -0.6686  0.7128
  931MOL0     H28429   3.907  10.157   6.649 -1.8353  0.7847  1.3723
  931MOL0     H28430   4.041  10.380   6.613 -1.1162 -2.0217  1.3019
  931MOL0     H28431   3.892  10.450   6.559  0.1757  1.4507  1.4026
  931MOL0     H28432   3.900  10.533   6.756  1.6367 -0.1210 -2.6484
  931MOL0     H28433   3.780  10.411   6.771 -0.4775  1.8167 -2.9713
  931MOL0     H28434   4.072  10.417   6.865 -0.3261  1.5867  1.2855
  931MOL0     H28435   3.945  10.425   6.969 -0.1390  0.7072 -0.8831
  931MOL0     H28436   3.736  10.354   6.959 -0.6163  0.2245  1.0892
  931MOL0     H28437   3.398  10.203   7.015  0.3934  0.1287 -0.4942
  931MOL0     H28438   3.487  10.353   6.985 -0.2941  0.5226  1.4788
  931MOL0     H28439   3.485  10.289   7.151  1.2297  0.6540  0.5070
  931MOL0     H28440   3.250   9.846   7.026 -0.4160 -1.5346 -0.1272
  931MOL0     H28441   3.084   9.715   7.115  1.9867 -0.1250 -2.2637
  931MOL0     H28442   2.864   9.742   7.260 -1.6289 -0.8679  0.0671
  931MOL0     H28443   2.929   9.581   7.249  2.0654 -1.1195  1.4682
  931MOL0     H28444   2.823   9.524   7.472 -1.2772 -0.8088 -0.1109
  931MOL0     H28445   2.774   9.693   7.489  0.2065  0.2082 -0.2235
  931MOL0     H28446   2.580   9.553   7.414  0.2318  0.5236  0.1857
  931MOL0     H28447   2.666   9.504   7.273 -0.2667 -0.7274  0.7287
  931MOL0     H28448   2.648   9.726   7.171  0.6785  3.3424  1.3181
  931MOL0     H28449   2.635   9.796   7.330 -0.8227 -0.3240  1.4916
  931MOL0     H28450   2.434   9.724   7.149  0.3271  2.0710 -0.4704
  931MOL0     H28451   2.411   9.625   7.299 -1.0606  0.9508 -2.1493
  931MOL0     H28452   2.282   9.834   7.288  0.2306 -1.5683 -0.5663
  931MOL0     H28453   2.442   9.915   7.293 -1.0702  1.6008 -0.1154
  931MOL0     H28454   2.333   9.905   7.513 -0.6293 -0.0527 -0.9069
  931MOL0     H28455   2.457   9.778   7.538  0.7885 -0.4601  0.2892
  931MOL0     H28456   2.284   9.608   7.496 -1.5299 -1.0159 -0.0438
  931MOL0     H28457   2.171   9.726   7.448 -0.9199 -1.3943  0.1441
  931MOL0     H28458   3.180   9.832   7.515  1.3438  0.7683  0.7813
  931MOL0     H28459   3.352   9.993   7.419 -0.5742  1.0826 -0.5175
  931MOL0     H28460   3.734   9.860   6.999 -1.2356 -0.3740  1.3267
  931MOL0     H28461   3.927   9.967   6.926 -0.8275 -1.7348 -2.2836
  931MOL0     H28462   2.696   9.954   7.000 -0.4518  0.0010 -0.5046
  931MOL0     H28463   2.471  10.026   6.995  0.7905 -0.2622  0.7207
  931MOL0     H28464   2.058  10.104   7.098 -0.7176  2.2021 -0.0693
  931MOL0     H28465   1.848  10.209   7.075 -1.6618 -1.3616 -0.2674
  931MOL0     H28466   1.592  10.235   6.981  1.7985 -2.8918 -0.9906
  931MOL0     H28467   1.705  10.374   7.010 -3.0093 -0.1616  1.3397
  931MOL0     H28468   1.633  10.495   6.816 -1.0763  1.1151 -0.1965
  931MOL0     H28469   1.522  10.470   6.943  0.3245 -0.1562 -0.1260
  931MOL0     H28470   1.414  10.456   6.717 -0.1183 -0.0704 -0.0970
  931MOL0     H28471   1.522  10.325   6.671  3.7952 -0.0252  3.4759
  931MOL0     H28472   1.318  10.315   6.902 -0.9507 -1.7828  0.7922
  931MOL0     H28473   1.405  10.175   6.846  0.7691  0.6479 -1.0019
  931MOL0     H28474   1.071  10.262   6.584 -0.6566 -0.7160  0.3875
  931MOL0     H28475   1.858  10.122   6.659  3.7135 -0.8952 -1.5461
  931MOL0     H28476   1.960   9.945   6.593  1.2728 -0.5189  0.7339
  931MOL0     H28477   2.130   9.994   6.583  1.7111  1.5538  1.9265
  931MOL0     H28478   2.086   9.850   6.679  0.7500 -0.0945 -0.9571
  932MOL0     O28479  10.425   7.150   0.011  0.5106 -0.0292  0.0947
  932MOL0     C28480  10.411   7.242  -0.066 -0.2259  0.2149 -0.2772
  932MOL0     O28481  10.509   7.288  -0.145  0.0372  0.2729  0.0172
  932MOL0     C28482  10.643   7.296  -0.109 -0.1993  0.1133  0.4326
  932MOL0     C28483  10.689   7.411  -0.047  0.2394 -0.4271 -0.0308
  932MOL0     C28484  10.817   7.425  -0.014 -0.1801  0.4451  0.0402
  932MOL0     C28485  10.906   7.321  -0.033 -0.8321 -0.7543 -0.3336
  932MOL0     O28486  11.045   7.329   0.002  0.2791  0.6049  0.6580
  932MOL0     C28487  11.116   7.448  -0.041 -0.7495  0.5426  0.4883
  932MOL0     C28488  11.117   7.471  -0.192 -0.0356 -0.1487  0.1667
  932MOL0     C28489  11.211   7.594  -0.226 -1.0731 -0.3772 -0.4638
  932MOL0     C28490  11.363   7.561  -0.235  0.1060 -0.4529  0.2871
  932MOL0     C28491  11.449   7.673  -0.277 -0.0976 -0.7703  0.3706
  932MOL0     C28492  11.588   7.614  -0.315  0.6376 -0.8294  0.2753
  932MOL0     C28493  11.693   7.720  -0.347  0.1124 -0.7351 -0.0855
  932MOL0     C28494  11.745   7.802  -0.230 -0.1702  0.4380  0.5084
  932MOL0     N28495  11.796   7.727  -0.107  0.3305 -0.5778  0.1308
  932MOL0     C28496  11.721   7.657  -0.012  0.8575 -0.3656 -0.8310
  932MOL0     C28497  11.813   7.625   0.087  0.6286  0.2720 -0.7186
  932MOL0     C28498  11.796   7.532   0.201 -0.0893  0.0001 -0.3716
  932MOL0     C28499  11.840   7.385   0.155  0.1317 -0.2713 -0.2798
  932MOL0     C28500  11.823   7.293   0.275  1.4503  1.2472  0.0981
  932MOL0     C28501  11.811   7.160   0.214 -0.2091  0.3675  0.3994
  932MOL0     O28502  11.908   7.118   0.118 -0.0521  0.1996 -0.5109
  932MOL0     C28503  12.032   7.082   0.157  0.2204 -0.7693 -0.3524
  932MOL0     C28504  12.135   7.090   0.064  0.1616  0.4237  0.1970
  932MOL0     C28505  12.271   7.067   0.083  1.2256 -0.6164 -1.2237
  932MOL0     C28506  12.357   7.077  -0.040  0.1596 -0.0627 -0.3152
  932MOL0     C28507  12.319   7.048   0.221 -0.5961 -0.6079 -0.2759
  932MOL0     C28508  12.463   7.050   0.277 -0.2843  0.3781 -0.6183
  932MOL0     O28509  12.571   7.069   0.195  0.2566  0.5443 -0.1759
  932MOL0     C28510  12.702   7.033   0.225 -0.1563 -0.5558  0.7695
  932MOL0     C28511  12.739   6.969   0.344  0.6810  0.1016 -0.4432
  932MOL0     C28512  12.879   6.952   0.364 -0.0616 -0.3467  0.4226
  932MOL0     C28513  12.982   6.994   0.265  0.5953 -0.2412 -0.8561
  932MOL0     O28514  13.116   6.975   0.267  0.9721 -0.1923  0.5336
  932MOL0     C28515  13.156   6.893   0.377 -0.8719  0.4925 -0.0067
  932MOL0     C28516  13.307   6.892   0.398  0.0550 -0.0481 -0.9965
  932MOL0     C28517  13.381   6.779   0.336  0.4522 -0.6267  0.5741
  932MOL0     C28518  13.529   6.795   0.365  0.2879 -0.4678  0.2459
  932MOL0     C28519  13.638   6.700   0.296 -0.0622 -0.6119 -0.5678
  932MOL0     C28520  13.785   6.715   0.353 -0.7728 -0.4178  0.2845
  932MOL0     C28521  13.871   6.587   0.334 -0.9608  0.1269  0.0715
  932MOL0     C28522  13.993   6.570   0.431  0.1439  0.8612  0.8413
  932MOL0    Cl28523  13.943   6.544   0.603 -0.2808  0.2682 -0.3366
  932MOL0     C28524  12.926   7.056   0.144  0.3643 -0.0281 -0.2165
  932MOL0     C28525  12.793   7.074   0.137  0.2017 -0.1629 -0.2355
  932MOL0     O28526  12.462   7.019   0.391 -0.1827 -0.0565 -0.0964
  932MOL0     C28527  12.211   7.029   0.314  0.4092  0.3117 -0.7635
  932MOL0     C28528  12.078   7.047   0.287 -0.0064  0.4768  0.3955
  932MOL0     N28529  11.934   7.677   0.053  0.8915 -0.9303 -0.2178
  932MOL0     N28530  11.913   7.749  -0.054 -0.1422  1.1100  0.6873
  932MOL0     C28531  10.862   7.196  -0.080  0.3266  0.3404  0.4781
  932MOL0     C28532  10.730   7.189  -0.120  0.6130  1.0087  0.1062
  932MOL0     C28533  10.273   7.286  -0.090 -0.0414 -0.1387 -0.0474
  932MOL0     C28534  10.233   7.324  -0.222  0.3367  0.0349 -0.1683
  932MOL0     C28535  10.094   7.329  -0.237  0.2680 -0.0575  0.4549
  932MOL0     C28536  10.002   7.343  -0.139 -0.2896  0.5492 -0.6751
  932MOL0     O28537   9.868   7.354  -0.166 -0.5780  0.0713  0.0089
  932MOL0     C28538   9.768   7.411  -0.073 -0.6007  0.8224  0.3450
  932MOL0     C28539   9.675   7.291  -0.040  0.6722 -0.9217 -0.4053
  932MOL0     C28540   9.541   7.318   0.046  0.9927 -0.2228 -0.1954
  932MOL0     C28541   9.546   7.433   0.141 -0.9636 -0.0975  0.0852
  932MOL0     C28542   9.442   7.420   0.240  1.0973  0.6453  0.4248
  932MOL0     C28543   9.348   7.397   0.311 -0.5750  0.3506  0.1449
  932MOL0     C28544  10.043   7.322  -0.011  0.5009  0.7568 -0.0578
  932MOL0     C28545  10.175   7.282   0.017  0.0018 -0.3521 -1.2026
  932MOL0     C28546  10.211   7.235   0.158  0.7521  0.5093 -0.6193
  932MOL0     H28547  10.620   7.490  -0.017  0.2246 -1.5273  3.1912
  932MOL0     H28548  10.855   7.508   0.045 -2.2354  2.6656 -1.5422
  932MOL0     H28549  11.223   7.441  -0.018 -0.1409 -3.1991 -2.5916
  932MOL0     H28550  11.085   7.541   0.009 -0.5898  0.2124  1.2264
  932MOL0     H28551  11.151   7.380  -0.243  1.8556  0.5750  0.0232
  932MOL0     H28552  11.017   7.502  -0.223 -0.6896 -1.7458  0.5748
  932MOL0     H28553  11.184   7.636  -0.323 -2.6556  1.6165  0.7604
  932MOL0     H28554  11.199   7.678  -0.157  2.6315 -0.0887  0.0222
  932MOL0     H28555  11.396   7.533  -0.135  3.9016  0.6991 -0.4516
  932MOL0     H28556  11.371   7.485  -0.314 -2.2027  0.6248 -1.0877
  932MOL0     H28557  11.457   7.748  -0.197  1.1100  0.4453 -0.8476
  932MOL0     H28558  11.421   7.721  -0.371  2.1103 -0.9748 -0.4536
  932MOL0     H28559  11.630   7.544  -0.242  1.2663 -0.3192  0.4131
  932MOL0     H28560  11.581   7.549  -0.402 -3.5914 -1.2832  0.7602
  932MOL0     H28561  11.656   7.792  -0.421  0.6781 -1.0432 -0.6760
  932MOL0     H28562  11.773   7.675  -0.405  1.5129  1.8336 -0.3046
  932MOL0     H28563  11.829   7.866  -0.256  0.9074 -0.9095  0.5604
  932MOL0     H28564  11.657   7.860  -0.199  0.2076  1.4418 -0.2622
  932MOL0     H28565  11.616   7.636  -0.030 -0.4322  4.2128  0.0929
  932MOL0     H28566  11.690   7.536   0.229  0.4173  0.0342  1.6751
  932MOL0     H28567  11.853   7.570   0.285 -0.3241  0.9535 -0.6215
  932MOL0     H28568  11.779   7.355   0.070 -2.2655  1.2056  0.8041
  932MOL0     H28569  11.946   7.388   0.130  0.4104 -0.4198  0.8315
  932MOL0     H28570  11.914   7.307   0.334  1.4104  1.3987  0.1220
  932MOL0     H28571  11.729   7.322   0.323 -0.0082  1.6462 -2.7904
  932MOL0     H28572  11.794   7.089   0.296  0.1579  0.5301  0.6230
  932MOL0     H28573  11.714   7.158   0.163 -0.4731 -1.9342  0.8529
  932MOL0     H28574  12.104   7.133  -0.031 -0.5172 -0.0349  0.2100
  932MOL0     H28575  12.454   7.033  -0.014 -0.5924 -1.9156 -0.4908
  932MOL0     H28576  12.379   7.182  -0.059  1.5538 -0.5389 -1.5124
  932MOL0     H28577  12.316   7.030  -0.130  1.3786 -0.1326 -0.8449
  932MOL0     H28578  12.678   6.929   0.423  0.7413  1.8135  0.5093
  932MOL0     H28579  12.900   6.906   0.460 -0.6182  4.1393  2.9648
  932MOL0     H28580  13.107   6.930   0.468 -0.7765 -2.2486  1.2528
  932MOL0     H28581  13.128   6.787   0.370  0.7750 -0.8679  6.6895
  932MOL0     H28582  13.346   6.983   0.352  1.3726  0.3543  0.7778
  932MOL0     H28583  13.329   6.893   0.506  2.8599  0.9526 -1.4744
  932MOL0     H28584  13.362   6.779   0.229 -0.7553 -1.7119  0.7585
  932MOL0     H28585  13.340   6.680   0.361 -0.6454 -0.8854 -1.9961
  932MOL0     H28586  13.545   6.791   0.473 -0.0807 -0.6743  0.2915
  932MOL0     H28587  13.554   6.894   0.326 -3.4340  2.3057  4.0008
  932MOL0     H28588  13.625   6.591   0.307 -0.7723 -0.6323 -1.5694
  932MOL0     H28589  13.643   6.722   0.189  4.4021  0.6894 -0.3000
  932MOL0     H28590  13.772   6.744   0.457 -0.7054 -1.4509  0.5915
  932MOL0     H28591  13.825   6.803   0.300 -3.9244  2.0919  1.7289
  932MOL0     H28592  13.908   6.582   0.231 -0.7772 -0.5538  0.1664
  932MOL0     H28593  13.804   6.505   0.365 -1.6425  1.5790  2.7553
  932MOL0     H28594  14.057   6.658   0.421 -1.2584  1.6631 -2.4065
  932MOL0     H28595  14.048   6.485   0.389  1.5437  2.7035 -1.3152
  932MOL0     H28596  12.993   7.085   0.063  1.5267 -0.7610  0.4440
  932MOL0     H28597  12.758   7.128   0.049 -1.1624 -0.9699 -0.2049
  932MOL0     H28598  12.229   7.004   0.418 -1.1721 -0.1619 -0.5877
  932MOL0     H28599  11.998   7.034   0.359 -0.1107 -0.8519  0.0590
  932MOL0     H28600  10.928   7.111  -0.079 -1.8996 -1.4817  1.1713
  932MOL0     H28601  10.697   7.094  -0.162  0.9219  0.2842  1.4580
  932MOL0     H28602  10.307   7.326  -0.301  1.4005  1.8297  0.8093
  932MOL0     H28603  10.053   7.328  -0.337  1.3064 -0.6228  0.0148
  932MOL0     H28604   9.805   7.449   0.023  1.8333  0.3705 -0.3398
  932MOL0     H28605   9.711   7.498  -0.107  1.7723  2.9901  1.5008
  932MOL0     H28606   9.729   7.206   0.003 -0.3437 -0.9320  0.9224
  932MOL0     H28607   9.635   7.245  -0.130 -0.0935 -0.0006 -0.5585
  932MOL0     H28608   9.459   7.335  -0.024  1.1866  1.9656  0.0410
  932MOL0     H28609   9.519   7.225   0.100 -0.2336 -1.1941 -2.2327
  932MOL0     H28610   9.542   7.530   0.091  0.0095  0.2578  0.6535
  932MOL0     H28611   9.642   7.434   0.195  0.5199 -1.9069 -2.3041
  932MOL0     H28612   9.273   7.364   0.379 -1.6017  0.5153 -0.8790
  932MOL0     H28613   9.981   7.337   0.076 -2.4611 -3.5306 -1.1234
  932MOL0     H28614  10.292   7.291   0.206 -0.3472 -0.5870  2.7949
  932MOL0     H28615  10.126   7.231   0.228  0.3648 -1.0668 -1.1440
  932MOL0     H28616  10.231   7.128   0.150 -3.3774 -0.5900  0.8525
  933MOL0     O28617   8.184   5.769   5.125  0.4835  0.6346 -0.3065
  933MOL0     C28618   8.158   5.795   5.012  0.8545  0.6022  0.1189
  933MOL0     O28619   8.244   5.770   4.902  0.8279  0.2910 -0.4370
  933MOL0     C28620   8.366   5.729   4.932 -0.7117 -0.8876  0.1605
  933MOL0     C28621   8.472   5.820   4.896  0.2869 -0.1129  0.2240
  933MOL0     C28622   8.608   5.785   4.923 -0.2043  0.0826  0.1136
  933MOL0     C28623   8.643   5.654   4.959 -0.2650 -1.0288  0.1594
  933MOL0     O28624   8.771   5.622   4.990  0.0071 -0.0082 -0.2443
  933MOL0     C28625   8.869   5.639   4.889  0.1596 -0.4585 -0.1638
  933MOL0     C28626   9.007   5.581   4.936  0.2974 -0.7479 -0.0759
  933MOL0     C28627   9.120   5.593   4.835 -0.1230 -0.3889 -1.4221
  933MOL0     C28628   9.154   5.735   4.782 -0.3384  0.6896 -0.2602
  933MOL0     C28629   9.282   5.722   4.696 -0.3935  0.7790 -0.8793
  933MOL0     C28630   9.395   5.792   4.775  0.2199 -0.2169 -0.0549
  933MOL0     C28631   9.532   5.779   4.707 -0.1600 -0.0144  0.4070
  933MOL0     C28632   9.616   5.893   4.742 -0.0761 -0.3058  0.7001
  933MOL0     N28633   9.707   5.861   4.851 -0.0127 -0.1614 -0.4811
  933MOL0     C28634   9.825   5.803   4.833 -1.0560  0.3135 -0.8086
  933MOL0     C28635   9.897   5.824   4.949 -0.3903  0.3454  0.0639
  933MOL0     C28636  10.041   5.786   4.963 -0.0903  0.5198 -0.2919
  933MOL0     C28637  10.055   5.692   5.091 -0.0934 -0.5567  0.2343
  933MOL0     C28638  10.191   5.721   5.149 -0.0211 -0.2580 -0.1430
  933MOL0     C28639  10.195   5.859   5.221  0.0195 -0.0712 -0.8656
  933MOL0     O28640  10.304   5.859   5.305  0.2475 -0.6420 -0.1310
  933MOL0     C28641  10.350   5.964   5.374  0.6336 -0.2657  0.6602
  933MOL0     C28642  10.439   5.942   5.481  0.4682  0.5731  0.3171
  933MOL0     C28643  10.488   6.045   5.554  0.0880  0.3231  0.0558
  933MOL0     C28644  10.581   6.011   5.670  0.0302 -0.1845  0.0854
  933MOL0     C28645  10.456   6.178   5.524 -0.0672 -0.1628  1.4773
  933MOL0     C28646  10.508   6.302   5.594 -0.3745  0.5698  0.1758
  933MOL0     O28647  10.499   6.413   5.515 -0.0440 -0.2254  0.4702
  933MOL0     C28648  10.550   6.526   5.568  0.6520  0.5744  0.1109
  933MOL0     C28649  10.496   6.593   5.676 -0.0144  0.1826 -0.8250
  933MOL0     C28650  10.576   6.688   5.745 -0.3040 -0.0301 -0.0143
  933MOL0     C28651  10.679   6.749   5.679 -0.3631 -0.1641  1.0771
  933MOL0     O28652  10.736   6.845   5.754 -0.4768 -0.4010 -0.8043
  933MOL0     C28653  10.828   6.928   5.695 -0.6086  0.0425  0.7774
  933MOL0     C28654  10.875   7.040   5.788  0.1002  0.0181 -0.0303
  933MOL0     C28655  11.002   7.109   5.731  0.7272  0.4418 -0.0271
  933MOL0     C28656  11.084   7.163   5.848 -1.2343 -0.6063  1.0190
  933MOL0     C28657  11.211   7.227   5.790  0.0274  0.3873  0.3450
  933MOL0     C28658  11.305   7.271   5.907 -0.2223 -0.3483 -0.0671
  933MOL0     C28659  11.432   7.350   5.857  1.2869  0.1524 -0.4229
  933MOL0     C28660  11.528   7.272   5.767 -0.3035  0.6163 -0.4811
  933MOL0    Cl28661  11.678   7.362   5.741  0.0763 -0.6908 -0.2154
  933MOL0     C28662  10.725   6.699   5.557 -0.3615 -0.1993  0.3054
  933MOL0     C28663  10.664   6.576   5.513  0.3654 -0.3869 -0.3514
  933MOL0     O28664  10.548   6.293   5.705 -0.8022 -0.3633 -0.5781
  933MOL0     C28665  10.375   6.202   5.407 -1.4284 -0.8723  0.1497
  933MOL0     C28666  10.319   6.095   5.338 -0.8052 -0.1286 -0.0459
  933MOL0     N28667   9.811   5.896   5.034 -0.5398  0.9274 -0.0098
  933MOL0     N28668   9.697   5.918   4.974 -0.3410 -0.8025 -0.2460
  933MOL0     C28669   8.540   5.566   4.982 -0.1434 -0.3561 -0.0526
  933MOL0     C28670   8.403   5.604   4.969  0.2290 -0.8570 -0.1871
  933MOL0     C28671   8.018   5.852   4.987 -0.3538 -0.6911  0.0491
  933MOL0     C28672   7.921   5.843   5.089  0.0529  0.4702  0.3479
  933MOL0     C28673   7.791   5.890   5.082  0.2304  0.3897  0.3635
  933MOL0     C28674   7.749   5.945   4.961 -0.2245 -0.6924 -0.1505
  933MOL0     O28675   7.620   5.994   4.968 -0.3407  0.1330 -0.0867
  933MOL0     C28676   7.578   6.104   4.876 -0.7848  1.0608  0.3845
  933MOL0     C28677   7.457   6.190   4.926 -0.1273  0.1307 -0.8344
  933MOL0     C28678   7.336   6.099   4.961 -0.1142  0.2229  0.1206
  933MOL0     C28679   7.205   6.175   4.986  1.1943 -0.1455 -0.4649
  933MOL0     C28680   7.175   6.278   4.890  0.8609 -0.0612  0.2329
  933MOL0     C28681   7.147   6.374   4.824 -0.0431  0.0203  0.4815
  933MOL0     C28682   7.834   5.969   4.854 -0.4217 -0.0933  0.2864
  933MOL0     C28683   7.968   5.919   4.866 -0.8148  0.2991 -0.4298
  933MOL0     C28684   8.044   5.919   4.736  0.4680  0.3052  0.5773
  933MOL0     H28685   8.439   5.919   4.864 -0.8539 -0.8275 -0.8998
  933MOL0     H28686   8.686   5.860   4.911 -0.4460  0.0073 -2.3940
  933MOL0     H28687   8.882   5.742   4.855  0.1090  0.1986  1.6762
  933MOL0     H28688   8.831   5.580   4.805 -4.0206  1.8416 -0.1303
  933MOL0     H28689   9.019   5.631   5.032 -2.4749  2.4172 -1.1730
  933MOL0     H28690   8.990   5.481   4.978 -3.4908  0.2637  1.2119
  933MOL0     H28691   9.211   5.545   4.874 -0.6565  0.4314  1.0096
  933MOL0     H28692   9.094   5.529   4.750  0.8679 -2.0129 -0.5610
  933MOL0     H28693   9.077   5.775   4.716  0.1321  0.5190 -0.9171
  933MOL0     H28694   9.162   5.801   4.869 -0.1560  2.6626 -1.7000
  933MOL0     H28695   9.284   5.773   4.600 -1.3008  1.8389 -0.3611
  933MOL0     H28696   9.296   5.616   4.673 -0.7196  0.6236 -0.3757
  933MOL0     H28697   9.367   5.897   4.784  1.6466  0.2818 -1.1083
  933MOL0     H28698   9.393   5.752   4.877  0.2009 -0.4721 -0.1542
  933MOL0     H28699   9.522   5.775   4.598  0.7907 -0.3079  0.3184
  933MOL0     H28700   9.584   5.686   4.734 -1.3585 -0.8248  0.0101
  933MOL0     H28701   9.681   5.918   4.658  2.6355 -3.2220  1.7023
  933MOL0     H28702   9.557   5.979   4.774  1.7845  0.1509  3.3315
  933MOL0     H28703   9.860   5.757   4.742  1.0294  0.8253 -0.3201
  933MOL0     H28704  10.099   5.878   4.956  2.1533 -0.6944  1.3623
  933MOL0     H28705  10.068   5.730   4.873 -4.4966 -0.5526 -1.2219
  933MOL0     H28706   9.973   5.705   5.161  1.2742 -2.3375  2.2996
  933MOL0     H28707  10.054   5.591   5.048 -1.4371  0.2975 -1.8943
  933MOL0     H28708  10.209   5.651   5.232  1.1857  1.0749  0.7775
  933MOL0     H28709  10.278   5.705   5.084 -2.1377 -1.1791 -2.9174
  933MOL0     H28710  10.207   5.931   5.140 -1.2399 -0.7396 -1.6850
  933MOL0     H28711  10.098   5.880   5.269 -0.2441  0.6647 -1.6893
  933MOL0     H28712  10.461   5.839   5.509 -2.0190  0.2940  1.6461
  933MOL0     H28713  10.603   5.904   5.667  2.1516  0.0230  3.2588
  933MOL0     H28714  10.521   6.035   5.759 -0.4678 -1.9146  0.2619
  933MOL0     H28715  10.673   6.069   5.658  1.0329 -1.4601  1.3384
  933MOL0     H28716  10.403   6.564   5.723  1.2252  0.5453  2.0653
  933MOL0     H28717  10.544   6.737   5.837 -2.8148  4.0201 -2.6995
  933MOL0     H28718  10.919   6.867   5.688 -0.1394  0.4510  2.7883
  933MOL0     H28719  10.796   6.967   5.598  1.2032  1.7515  0.8032
  933MOL0     H28720  10.792   7.111   5.790 -2.0841 -2.3803 -0.6796
  933MOL0     H28721  10.893   7.003   5.889  0.3897  0.4904  0.0931
  933MOL0     H28722  10.979   7.194   5.667  3.0646  2.0416  1.1381
  933MOL0     H28723  11.060   7.038   5.671  0.2347 -0.2738  0.3126
  933MOL0     H28724  11.122   7.085   5.914  2.5286 -0.2339 -0.4862
  933MOL0     H28725  11.030   7.241   5.902 -2.9865 -1.9683  1.3087
  933MOL0     H28726  11.266   7.157   5.726 -1.0656  1.5665 -2.0143
  933MOL0     H28727  11.192   7.314   5.726 -0.9864 -0.2640 -0.2721
  933MOL0     H28728  11.340   7.178   5.953  1.2976 -0.0680 -0.5917
  933MOL0     H28729  11.250   7.336   5.976  0.7499  1.3350 -0.8199
  933MOL0     H28730  11.488   7.395   5.940  1.8152  0.7907 -1.1137
  933MOL0     H28731  11.396   7.433   5.795 -0.1705  1.5028  2.0666
  933MOL0     H28732  11.480   7.258   5.670  1.2666 -0.1936 -1.1609
  933MOL0     H28733  11.549   7.173   5.808 -2.9106  0.4376  0.6051
  933MOL0     H28734  10.815   6.733   5.507 -0.5880  1.2496  0.8350
  933MOL0     H28735  10.703   6.527   5.425 -0.6263 -0.6067 -0.6845
  933MOL0     H28736  10.353   6.304   5.377  0.0039 -1.0400 -1.6944
  933MOL0     H28737  10.249   6.120   5.258 -0.9225  2.7753  0.8630
  933MOL0     H28738   8.573   5.470   5.018  2.3912  1.3026  2.5375
  933MOL0     H28739   8.337   5.520   4.988 -1.8951  1.2552  2.8334
  933MOL0     H28740   7.961   5.800   5.180  3.2543  1.0268 -0.6656
  933MOL0     H28741   7.727   5.885   5.169  0.4525 -2.7181  0.4684
  933MOL0     H28742   7.659   6.175   4.861  0.2271  0.0946  1.0845
  933MOL0     H28743   7.544   6.061   4.782  0.0031  0.7952  0.2184
  933MOL0     H28744   7.435   6.265   4.849 -1.6246  2.6363  1.8332
  933MOL0     H28745   7.479   6.250   5.014  0.1963 -1.7576  0.4145
  933MOL0     H28746   7.325   6.020   4.887  1.0786  0.2655 -0.1172
  933MOL0     H28747   7.362   6.044   5.052  1.4715  1.8389  0.7211
  933MOL0     H28748   7.198   6.220   5.086 -1.3101  2.1742 -1.5597
  933MOL0     H28749   7.125   6.100   4.983 -1.0175  2.1031 -0.7075
  933MOL0     H28750   7.127   6.464   4.768  0.8270  0.0631  0.2175
  933MOL0     H28751   7.801   6.027   4.769 -1.3973 -0.6535  0.2672
  933MOL0     H28752   7.991   5.950   4.645 -0.2786  2.4144  1.6473
  933MOL0     H28753   8.125   5.993   4.740  0.3552  0.5999 -1.5884
  933MOL0     H28754   8.083   5.820   4.712 -2.1547 -0.9819  1.2734
  934MOL0     O28755   1.851   6.929   4.477  0.0941 -0.4969  0.2834
  934MOL0     C28756   1.946   6.985   4.534  0.1000 -0.3153 -0.1674
  934MOL0     O28757   2.077   6.989   4.488  0.8543  0.0586  0.7372
  934MOL0     C28758   2.114   6.945   4.364 -0.1420 -0.6976 -0.6445
  934MOL0     C28759   2.147   7.033   4.265 -0.3071 -0.4256  0.0907
  934MOL0     C28760   2.186   6.990   4.141 -0.5377 -0.0330 -0.1207
  934MOL0     C28761   2.220   6.860   4.113  0.0378  0.0851 -0.0433
  934MOL0     O28762   2.278   6.827   3.996  0.0745 -0.0413  0.0574
  934MOL0     C28763   2.391   6.736   4.000  0.2642 -0.1371 -0.6737
  934MOL0     C28764   2.492   6.804   3.911 -0.7885 -1.1187 -0.9965
  934MOL0     C28765   2.623   6.730   3.907  0.2781  1.1703  0.2933
  934MOL0     C28766   2.744   6.813   3.857  0.2054  0.0796 -0.2314
  934MOL0     C28767   2.871   6.728   3.870 -0.6771 -0.0220  0.6606
  934MOL0     C28768   2.967   6.757   3.752  0.2845  0.6422 -0.1919
  934MOL0     C28769   3.104   6.701   3.777 -0.5545 -0.7420  0.5304
  934MOL0     C28770   3.208   6.763   3.688  0.4247  0.1378  0.7959
  934MOL0     N28771   3.337   6.712   3.720  0.5006  0.3554  1.1731
  934MOL0     C28772   3.411   6.740   3.830  0.5821 -0.0872 -0.5742
  934MOL0     C28773   3.522   6.662   3.827 -0.7521  0.1786  0.1750
  934MOL0     C28774   3.610   6.654   3.944 -0.2369  0.2623  1.9258
  934MOL0     C28775   3.736   6.736   3.930 -0.0058  0.3158  0.1511
  934MOL0     C28776   3.815   6.750   4.061 -0.8956 -0.4928 -0.4607
  934MOL0     C28777   3.937   6.843   4.031  0.0503  0.5545  0.0118
  934MOL0     O28778   4.026   6.777   3.950 -0.0904 -0.3736  0.3022
  934MOL0     C28779   4.109   6.688   4.007 -1.1292 -0.0349  0.0548
  934MOL0     C28780   4.122   6.642   4.137 -0.0827  0.5911  0.0599
  934MOL0     C28781   4.219   6.542   4.173 -0.1988 -0.3882 -0.4880
  934MOL0     C28782   4.199   6.487   4.313  0.4316 -0.5847 -0.0566
  934MOL0     C28783   4.318   6.499   4.074  0.4986 -1.6391 -0.2453
  934MOL0     C28784   4.426   6.405   4.111  0.0974 -0.2530 -0.0500
  934MOL0     O28785   4.525   6.390   4.021  0.0938 -0.1887  0.6108
  934MOL0     C28786   4.634   6.320   4.070  0.6178  0.3570  0.2186
  934MOL0     C28787   4.646   6.187   4.018 -0.4722  0.4102 -0.5615
  934MOL0     C28788   4.766   6.118   4.034 -0.6359 -1.0089  0.0915
  934MOL0     C28789   4.870   6.171   4.109  0.1588 -0.1049  0.1789
  934MOL0     O28790   4.984   6.092   4.113  0.1241 -0.4057 -0.0945
  934MOL0     C28791   5.080   6.116   4.211  0.9484  0.4485  0.5388
  934MOL0     C28792   5.186   6.004   4.193 -1.0055  0.1852  0.7096
  934MOL0     C28793   5.274   6.040   4.074 -0.3398 -0.8273  0.8414
  934MOL0     C28794   5.373   6.140   4.107 -0.0625 -0.4328 -0.1657
  934MOL0     C28795   5.484   6.153   4.001  0.0901 -0.3330 -0.0639
  934MOL0     C28796   5.587   6.263   4.041  0.8012  0.0202  0.5345
  934MOL0     C28797   5.711   6.277   3.948  0.7271  0.0765 -0.0588
  934MOL0     C28798   5.798   6.402   3.980  0.3810 -0.2096 -0.6907
  934MOL0    Cl28799   5.943   6.400   3.866 -0.1134 -0.4458 -0.2577
  934MOL0     C28800   4.856   6.297   4.171  0.7209  0.3169  0.4630
  934MOL0     C28801   4.736   6.369   4.150  0.0985 -0.0615 -0.1527
  934MOL0     O28802   4.414   6.348   4.220  0.2524 -0.3325 -1.1699
  934MOL0     C28803   4.305   6.551   3.945  0.5315  0.2890  0.0205
  934MOL0     C28804   4.199   6.640   3.913 -0.4408  0.8645 -0.7028
  934MOL0     N28805   3.525   6.616   3.693 -0.0806 -0.3994 -0.2925
  934MOL0     N28806   3.418   6.646   3.626 -0.4579 -0.4285 -1.1159
  934MOL0     C28807   2.173   6.759   4.206 -0.2671  0.0416 -0.6373
  934MOL0     C28808   2.121   6.801   4.329 -0.3546  0.3138 -0.1779
  934MOL0     C28809   1.915   7.031   4.671  0.9869 -0.2681 -0.1655
  934MOL0     C28810   1.906   7.165   4.695  0.5888 -1.2620 -0.5038
  934MOL0     C28811   1.860   7.212   4.819 -0.4263  0.5370 -0.3287
  934MOL0     C28812   1.822   7.134   4.923 -0.0026 -0.2027 -0.5034
  934MOL0     O28813   1.751   7.191   5.034 -0.1274 -0.4556  0.3762
  934MOL0     C28814   1.732   7.112   5.147 -0.6124  0.3466  0.1518
  934MOL0     C28815   1.681   7.212   5.251 -0.2698 -0.2904 -0.1489
  934MOL0     C28816   1.788   7.314   5.312 -0.3038  0.2940  0.0135
  934MOL0     C28817   1.712   7.434   5.393 -0.0555  0.8989  0.3439
  934MOL0     C28818   1.644   7.385   5.515 -0.1688 -0.0269  0.5523
  934MOL0     C28819   1.598   7.345   5.624 -0.3038  0.0723  0.6408
  934MOL0     C28820   1.832   6.997   4.901 -0.4976  0.8075 -0.0738
  934MOL0     C28821   1.874   6.944   4.776  0.5148  0.0937 -0.5644
  934MOL0     C28822   1.873   6.792   4.763 -0.7696  0.7032  0.0409
  934MOL0     H28823   2.129   7.138   4.286  3.1575  0.4484 -0.7169
  934MOL0     H28824   2.208   7.063   4.064  0.0706 -0.4443 -0.3485
  934MOL0     H28825   2.356   6.643   3.954  0.5613 -2.2613  3.0259
  934MOL0     H28826   2.431   6.705   4.097 -0.3653 -1.3670 -0.7841
  934MOL0     H28827   2.462   6.819   3.806 -1.3221 -0.0527 -0.7035
  934MOL0     H28828   2.515   6.904   3.950  1.1146 -2.0059  0.3279
  934MOL0     H28829   2.650   6.694   4.006  2.8724  2.3186  0.0589
  934MOL0     H28830   2.618   6.646   3.837  0.0404  0.6885  0.8779
  934MOL0     H28831   2.724   6.833   3.751  1.7711 -0.4611 -0.6627
  934MOL0     H28832   2.745   6.908   3.911 -1.8626 -0.9653  1.8126
  934MOL0     H28833   2.860   6.620   3.885 -0.6312  0.0426  1.1814
  934MOL0     H28834   2.920   6.760   3.963 -2.6928  1.0819  1.3990
  934MOL0     H28835   2.922   6.712   3.663 -1.4754  1.5069  0.2182
  934MOL0     H28836   2.972   6.862   3.722  2.7680  0.2856 -1.2897
  934MOL0     H28837   3.105   6.593   3.763 -0.9928 -0.5109 -1.5204
  934MOL0     H28838   3.132   6.710   3.882  1.4123 -2.2028  0.1836
  934MOL0     H28839   3.186   6.756   3.581  1.3076 -1.5796  0.6864
  934MOL0     H28840   3.205   6.869   3.714  0.6995  1.1123 -2.5993
  934MOL0     H28841   3.381   6.796   3.918  0.9141 -2.7066  1.3144
  934MOL0     H28842   3.635   6.547   3.949 -3.2500 -0.8640 -1.9419
  934MOL0     H28843   3.558   6.676   4.038 -2.2877  1.9364  0.5031
  934MOL0     H28844   3.786   6.676   3.853 -2.3302 -3.3635  1.2181
  934MOL0     H28845   3.708   6.838   3.903 -0.3911  0.5973  1.5202
  934MOL0     H28846   3.757   6.801   4.139 -0.9679 -0.3965 -0.5779
  934MOL0     H28847   3.849   6.653   4.100  0.1205  0.7961  2.1277
  934MOL0     H28848   3.901   6.936   3.985  0.0465  0.1160 -0.9021
  934MOL0     H28849   3.980   6.863   4.129  1.3491 -1.1991 -0.1462
  934MOL0     H28850   4.048   6.667   4.213 -0.2022 -0.1868  0.2172
  934MOL0     H28851   4.285   6.499   4.379  0.2020 -1.5627  0.4448
  934MOL0     H28852   4.177   6.379   4.316 -0.6205 -0.4202  4.0286
  934MOL0     H28853   4.120   6.532   4.374 -1.6733 -3.9562 -0.0170
  934MOL0     H28854   4.572   6.149   3.949 -0.5580  2.5946 -1.7536
  934MOL0     H28855   4.777   6.027   3.976 -3.2428  0.5193 -3.0914
  934MOL0     H28856   5.124   6.217   4.209  0.0254  0.8695  0.7759
  934MOL0     H28857   5.028   6.105   4.307  2.4228  1.4789  1.5061
  934MOL0     H28858   5.244   5.987   4.283  1.3334  0.3998 -0.6729
  934MOL0     H28859   5.140   5.907   4.173  0.1092 -0.4951  1.3347
  934MOL0     H28860   5.231   6.066   3.977  1.1484 -1.8875 -0.1517
  934MOL0     H28861   5.335   5.951   4.057  1.9099  0.7556  0.1362
  934MOL0     H28862   5.409   6.096   4.201 -2.3857 -0.9340  0.5540
  934MOL0     H28863   5.334   6.238   4.139 -2.6481 -1.7233  0.9068
  934MOL0     H28864   5.532   6.055   3.994 -0.5347 -0.6418 -0.0010
  934MOL0     H28865   5.437   6.181   3.906  1.1217 -2.1933 -1.2000
  934MOL0     H28866   5.628   6.245   4.140  1.2710  2.7977  0.9251
  934MOL0     H28867   5.536   6.360   4.050 -0.7792 -0.8493  1.4264
  934MOL0     H28868   5.681   6.290   3.844  2.0974  2.1932 -0.2653
  934MOL0     H28869   5.765   6.182   3.950  0.5030 -0.0614 -0.5271
  934MOL0     H28870   5.840   6.401   4.081  3.1857 -0.1327 -1.7565
  934MOL0     H28871   5.746   6.498   3.974  1.1600  0.6179  3.1759
  934MOL0     H28872   4.933   6.343   4.233  0.0593 -0.7934  2.1853
  934MOL0     H28873   4.719   6.474   4.171 -1.0505  0.0348 -1.4450
  934MOL0     H28874   4.366   6.510   3.865 -1.4018  1.1417 -2.0258
  934MOL0     H28875   4.188   6.675   3.810 -0.1255  4.5301  0.3715
  934MOL0     H28876   2.179   6.653   4.186 -1.6936 -0.2054  0.0914
  934MOL0     H28877   2.077   6.743   4.410 -0.1317  1.4692  0.7968
  934MOL0     H28878   1.961   7.234   4.632 -1.5211  0.1560 -0.8852
  934MOL0     H28879   1.872   7.320   4.823 -1.4972  0.6681 -0.3834
  934MOL0     H28880   1.661   7.029   5.135 -0.1440 -0.9235  4.4093
  934MOL0     H28881   1.826   7.067   5.179 -0.6263  0.1325 -0.1073
  934MOL0     H28882   1.628   7.166   5.334  0.6842  0.1426  0.7241
  934MOL0     H28883   1.607   7.267   5.192  0.6355 -1.7748 -2.8217
  934MOL0     H28884   1.842   7.251   5.383 -3.4692 -0.3282  2.0821
  934MOL0     H28885   1.855   7.360   5.239  2.1840 -1.5988  0.9861
  934MOL0     H28886   1.641   7.477   5.322 -0.9266 -3.4743 -1.7712
  934MOL0     H28887   1.787   7.505   5.430  2.7601 -0.6103 -2.0544
  934MOL0     H28888   1.538   7.316   5.707  0.5260 -2.3829  0.4787
  934MOL0     H28889   1.812   6.915   4.970  1.2874 -0.0540 -0.5194
  934MOL0     H28890   1.958   6.759   4.702 -0.5147  0.1208  0.6921
  934MOL0     H28891   1.883   6.747   4.862 -3.2456  3.9039  1.9414
  934MOL0     H28892   1.782   6.749   4.721 -0.5625 -1.0690  1.2850
  935MOL0     O28893   4.980   1.468  10.128 -0.1787 -0.0373 -0.2004
  935MOL0     C28894   4.900   1.426  10.209  0.3165  0.2626 -0.9886
  935MOL0     O28895   4.916   1.431  10.348 -0.0199  0.4537  0.0100
  935MOL0     C28896   5.023   1.484  10.413 -0.3134  0.0178 -0.3393
  935MOL0     C28897   5.112   1.577  10.356 -0.4511 -0.5632 -0.0745
  935MOL0     C28898   5.238   1.607  10.415  0.0392  0.5041  1.1850
  935MOL0     C28899   5.278   1.544  10.530  0.6637  0.9692 -0.6966
  935MOL0     O28900   5.401   1.576  10.579 -1.0051 -0.3547  0.2348
  935MOL0     C28901   5.447   1.513  10.705  0.6140 -0.2894  0.2587
  935MOL0     C28902   5.600   1.556  10.731 -0.0409 -0.7794  0.8476
  935MOL0     C28903   5.648   1.490  10.858 -0.7538 -0.6593 -0.8378
  935MOL0     C28904   5.803   1.509  10.867  0.6609  0.4875  0.0331
  935MOL0     C28905   5.850   1.472  11.010  0.3936  0.0438  0.4159
  935MOL0     C28906   5.801   1.340  11.072  0.8951 -0.1901 -0.4386
  935MOL0     C28907   5.847   1.328  11.213  0.2696 -0.3474  0.1988
  935MOL0     C28908   5.968   1.240  11.238  0.4840  0.1587 -0.1261
  935MOL0     N28909   6.088   1.283  11.165 -0.0449  0.0741  0.6464
  935MOL0     C28910   6.158   1.396  11.196  0.3313 -0.0249 -0.3240
  935MOL0     C28911   6.257   1.393  11.110  0.2827 -0.1051 -0.0579
  935MOL0     C28912   6.331   1.512  11.068  0.1071 -0.3619  0.8086
  935MOL0     C28913   6.454   1.484  10.976  0.0879 -0.9181  1.2837
  935MOL0     C28914   6.575   1.417  11.042  0.0788  0.0257 -1.0866
  935MOL0     C28915   6.691   1.390  10.948 -0.4252  0.6893  0.4286
  935MOL0     O28916   6.781   1.291  11.005 -0.6474  0.0277  0.3101
  935MOL0     C28917   6.889   1.334  11.075 -0.1742 -0.1772 -0.3261
  935MOL0     C28918   6.988   1.415  11.020 -0.8271  0.4082  0.2737
  935MOL0     C28919   7.113   1.447  11.087  0.2472 -0.2848  0.3211
  935MOL0     C28920   7.218   1.518  10.996 -0.2549  0.5364  0.1161
  935MOL0     C28921   7.132   1.409  11.224  0.1614 -0.2248 -1.4889
  935MOL0     C28922   7.259   1.428  11.305  0.3143  0.0454 -0.8388
  935MOL0     O28923   7.250   1.386  11.436  0.1590  0.0133 -0.3266
  935MOL0     C28924   7.350   1.413  11.528  0.5374 -0.3487  0.3434
  935MOL0     C28925   7.469   1.342  11.529 -0.4236 -1.1638  0.6571
  935MOL0     C28926   7.574   1.375  11.615  0.1860  0.4136 -0.1260
  935MOL0     C28927   7.565   1.488  11.703 -0.1605 -0.3449 -0.1061
  935MOL0     O28928   7.661   1.535  11.793 -0.1250  0.0713 -0.5368
  935MOL0     C28929   7.785   1.460  11.798 -0.6694 -0.1026 -0.0346
  935MOL0     C28930   7.885   1.517  11.905 -0.0430  1.0276 -0.4900
  935MOL0     C28931   8.003   1.414  11.907  0.3677 -0.0832 -0.0136
  935MOL0     C28932   8.109   1.480  11.988 -0.6671 -0.0728 -0.6468
  935MOL0     C28933   8.216   1.385  12.033  0.5915 -0.4557 -0.1886
  935MOL0     C28934   8.331   1.441  12.111 -0.2288  0.4112  0.0728
  935MOL0     C28935   8.441   1.340  12.118 -0.0246 -0.4908 -0.2092
  935MOL0     C28936   8.570   1.403  12.169  0.2793 -0.8044  0.1333
  935MOL0    Cl28937   8.700   1.287  12.177  0.0061  0.2297  0.9663
  935MOL0     C28938   7.436   1.562  11.697 -0.8477  0.4225  0.1846
  935MOL0     C28939   7.328   1.519  11.613 -0.0531 -0.3556  0.2334
  935MOL0     O28940   7.369   1.453  11.246 -0.2645 -0.7602  0.0386
  935MOL0     C28941   7.023   1.338  11.281  0.7250 -0.5666 -0.3399
  935MOL0     C28942   6.908   1.297  11.210 -0.0384 -0.1320  0.9115
  935MOL0     N28943   6.259   1.276  11.037 -0.3807  0.1152  0.1792
  935MOL0     N28944   6.152   1.214  11.066 -0.1459  0.0209  0.2694
  935MOL0     C28945   5.187   1.452  10.586  0.8771 -0.5031 -0.1494
  935MOL0     C28946   5.058   1.423  10.532 -0.2451  0.1449  0.4698
  935MOL0     C28947   4.785   1.351  10.152 -0.6022  0.3833  0.2147
  935MOL0     C28948   4.800   1.288  10.025  0.2689 -0.0768 -0.2816
  935MOL0     C28949   4.697   1.212   9.964 -0.2085 -0.1434  0.1868
  935MOL0     C28950   4.571   1.212  10.019  0.5161  0.4547 -0.0544
  935MOL0     O28951   4.475   1.133   9.954  0.2165 -0.1121 -0.0379
  935MOL0     C28952   4.338   1.169   9.970  0.4596  0.3705  0.1929
  935MOL0     C28953   4.264   1.170   9.841  0.2127  0.1846  0.8614
  935MOL0     C28954   4.125   1.242   9.850 -0.4205 -0.0540 -0.2350
  935MOL0     C28955   4.053   1.211   9.717 -0.3215  0.2784 -0.5583
  935MOL0     C28956   3.936   1.288   9.728 -0.6889  0.1914 -0.1118
  935MOL0     C28957   3.836   1.352   9.745  0.3683  0.9587 -0.2577
  935MOL0     C28958   4.548   1.291  10.136 -0.1790  0.1897 -1.1217
  935MOL0     C28959   4.659   1.358  10.209 -0.3099  0.8213 -0.1077
  935MOL0     C28960   4.634   1.417  10.347 -0.3052  0.4571  0.6688
  935MOL0     H28961   5.102   1.629  10.262  5.1277 -1.3256 -1.4698
  935MOL0     H28962   5.299   1.682  10.366 -1.0994  0.4696 -0.3789
  935MOL0     H28963   5.435   1.405  10.697  0.6733 -0.1741 -1.7113
  935MOL0     H28964   5.395   1.543  10.796 -1.8707 -2.8171 -0.2041
  935MOL0     H28965   5.656   1.521  10.644 -2.8471  0.1657 -1.4928
  935MOL0     H28966   5.599   1.666  10.733 -2.4964 -0.6389 -1.6307
  935MOL0     H28967   5.596   1.521  10.948  1.1799 -2.2452  0.9310
  935MOL0     H28968   5.628   1.383  10.847  1.7755 -1.2709 -0.2291
  935MOL0     H28969   5.847   1.440  10.794 -3.1167  0.6190 -2.6636
  935MOL0     H28970   5.841   1.606  10.835 -2.4574  1.0369 -2.5270
  935MOL0     H28971   5.803   1.551  11.069 -0.1059  1.9455 -2.3311
  935MOL0     H28972   5.958   1.479  11.028  0.5993  2.2959 -1.2474
  935MOL0     H28973   5.692   1.340  11.067  0.6662  2.4465  1.9187
  935MOL0     H28974   5.827   1.258  11.004  1.4755  0.8137 -1.4545
  935MOL0     H28975   5.763   1.276  11.261  2.5720 -3.1738  1.4702
  935MOL0     H28976   5.870   1.428  11.249  1.1081  0.3111 -2.0576
  935MOL0     H28977   6.001   1.236  11.342 -2.3414 -0.1246  0.8206
  935MOL0     H28978   5.951   1.135  11.213  1.0091  0.0968 -0.2531
  935MOL0     H28979   6.127   1.467  11.272 -0.3873 -3.0120  2.4443
  935MOL0     H28980   6.349   1.586  11.146 -2.1454  0.3881  0.6919
  935MOL0     H28981   6.265   1.557  10.993 -0.5506  0.8420  2.0740
  935MOL0     H28982   6.421   1.434  10.884  1.0990  1.5293 -0.5307
  935MOL0     H28983   6.494   1.580  10.943 -2.2709  0.6170  2.5740
  935MOL0     H28984   6.606   1.473  11.131  2.1474 -0.2404 -1.5846
  935MOL0     H28985   6.542   1.319  11.078 -1.2060  0.3278 -1.3844
  935MOL0     H28986   6.656   1.343  10.856 -0.0907 -0.5142  0.9019
  935MOL0     H28987   6.746   1.482  10.928  2.1104 -0.0588  3.1738
  935MOL0     H28988   6.980   1.428  10.913  0.9134  0.8650  0.1759
  935MOL0     H28989   7.247   1.608  11.051 -0.0363  0.0312  0.8371
  935MOL0     H28990   7.164   1.540  10.903 -1.6527 -2.8783 -0.0137
  935MOL0     H28991   7.298   1.446  10.977 -1.6528 -0.7869 -1.0829
  935MOL0     H28992   7.481   1.270  11.449  1.3869  0.7848 -0.9629
  935MOL0     H28993   7.663   1.314  11.604 -1.1816 -1.3776 -1.9389
  935MOL0     H28994   7.750   1.362  11.833 -1.9480  0.4996  0.4010
  935MOL0     H28995   7.823   1.442  11.697 -3.1194 -2.1119 -0.7193
  935MOL0     H28996   7.922   1.618  11.882 -1.4126  1.3770 -1.2344
  935MOL0     H28997   7.838   1.526  12.003  1.9807 -1.9118  0.8729
  935MOL0     H28998   8.034   1.392  11.805  0.1425 -2.1612  0.3267
  935MOL0     H28999   7.971   1.320  11.954  1.0060 -0.2912  0.0114
  935MOL0     H29000   8.075   1.512  12.088  2.7299 -0.5000  0.7766
  935MOL0     H29001   8.149   1.566  11.934  0.3468 -0.2535 -0.2197
  935MOL0     H29002   8.160   1.318  12.098 -0.4932  0.3304 -0.2831
  935MOL0     H29003   8.254   1.321  11.952  2.0230 -2.4842  1.9646
  935MOL0     H29004   8.299   1.454  12.214 -0.1956  0.3729  0.0880
  935MOL0     H29005   8.366   1.530  12.057  1.4253 -0.7299 -0.8410
  935MOL0     H29006   8.454   1.296  12.018 -0.6999  3.1184 -2.0620
  935MOL0     H29007   8.413   1.265  12.192  1.1198  0.2725  1.0457
  935MOL0     H29008   8.547   1.465  12.256 -0.7145  2.3010 -2.1490
  935MOL0     H29009   8.606   1.474  12.093 -2.0526  2.0476  1.4799
  935MOL0     H29010   7.418   1.643  11.766  2.2280 -0.8961  2.7805
  935MOL0     H29011   7.233   1.570  11.604 -0.9161 -1.6810  1.3641
  935MOL0     H29012   7.027   1.307  11.385  0.7097  2.0248  0.5050
  935MOL0     H29013   6.836   1.233  11.261  0.4063 -0.9740  0.5115
  935MOL0     H29014   5.208   1.393  10.675  3.6207 -1.3760 -1.2913
  935MOL0     H29015   4.995   1.348  10.577  0.4339 -1.5853 -1.3059
  935MOL0     H29016   4.898   1.279   9.981  0.2603  1.2477 -0.6139
  935MOL0     H29017   4.724   1.155   9.876  1.2816  2.2526 -1.0173
  935MOL0     H29018   4.288   1.112  10.048  1.7108 -1.7888 -0.5067
  935MOL0     H29019   4.327   1.274   9.999 -1.2608  0.2379  0.0923
  935MOL0     H29020   4.242   1.075   9.790 -4.5674  2.2522 -1.5546
  935MOL0     H29021   4.328   1.224   9.771  0.4809 -0.8411  0.2837
  935MOL0     H29022   4.061   1.201   9.928 -1.6435 -0.8062 -1.5878
  935MOL0     H29023   4.152   1.348   9.863 -1.0974 -0.0480  1.3476
  935MOL0     H29024   4.043   1.102   9.711  3.2914 -0.7530  4.5501
  935MOL0     H29025   4.102   1.258   9.632  1.7509 -0.0382  0.3845
  935MOL0     H29026   3.742   1.402   9.761 -0.3805 -0.1922 -0.9676
  935MOL0     H29027   4.451   1.297  10.182  1.0378  2.3377  1.4578
  935MOL0     H29028   4.677   1.354  10.424  1.5183  0.4795 -0.2738
  935MOL0     H29029   4.655   1.522  10.369 -2.0697  1.2368 -1.0351
  935MOL0     H29030   4.526   1.412  10.365 -0.2706 -1.2860  0.5480
  936MOL0     O29031   0.882   9.299   5.959  0.9709  0.2828 -0.1812
  936MOL0     C29032   0.842   9.416   5.945 -0.4407  0.4109 -1.0191
  936MOL0     O29033   0.920   9.524   5.896  1.1847 -0.0136  0.4249
  936MOL0     C29034   1.051   9.497   5.846  0.8163 -0.1553 -0.4089
  936MOL0     C29035   1.080   9.527   5.717 -0.6530 -0.4893 -0.1476
  936MOL0     C29036   1.206   9.532   5.668 -0.9433  0.4817  0.1751
  936MOL0     C29037   1.314   9.480   5.746 -0.0394  0.3506  1.0163
  936MOL0     O29038   1.438   9.473   5.684 -0.4529 -0.1769 -0.6826
  936MOL0     C29039   1.460   9.571   5.573  0.0120 -0.3725 -0.0310
  936MOL0     C29040   1.616   9.563   5.541  0.3640  0.2576 -0.5779
  936MOL0     C29041   1.655   9.645   5.416  0.1099 -0.1016 -0.1164
  936MOL0     C29042   1.806   9.616   5.379 -0.5931 -0.4451 -0.1135
  936MOL0     C29043   1.859   9.692   5.257  1.1792 -0.1811  0.9970
  936MOL0     C29044   2.009   9.698   5.256  0.8159  0.0460 -0.7404
  936MOL0     C29045   2.065   9.748   5.126  0.3197  0.0583  0.2962
  936MOL0     C29046   2.219   9.736   5.128  1.1047 -0.5193 -0.9249
  936MOL0     N29047   2.284   9.802   5.241 -0.2968  0.8139 -0.3693
  936MOL0     C29048   2.292   9.735   5.364  0.2575  0.1817  0.2261
  936MOL0     C29049   2.356   9.824   5.444 -0.9902  0.2366  0.0354
  936MOL0     C29050   2.411   9.819   5.586 -0.6093 -0.1863 -0.1920
  936MOL0     C29051   2.480   9.687   5.617 -0.7048  0.4804  0.9393
  936MOL0     C29052   2.602   9.706   5.712 -0.5220  0.4383  0.6070
  936MOL0     C29053   2.738   9.743   5.642  0.5690  0.9532 -0.1644
  936MOL0     O29054   2.847   9.742   5.744  0.1809 -0.3675 -0.2106
  936MOL0     C29055   2.980   9.772   5.714 -0.0374  0.1769 -0.1558
  936MOL0     C29056   3.023   9.825   5.593  0.8775 -0.6849 -0.1769
  936MOL0     C29057   3.157   9.859   5.569 -0.5428  1.2405 -0.4365
  936MOL0     C29058   3.210   9.888   5.427 -0.7653  0.4688 -0.6384
  936MOL0     C29059   3.253   9.834   5.676 -0.2184  0.6901 -0.2137
  936MOL0     C29060   3.404   9.849   5.663 -0.5429  0.1211 -0.2576
  936MOL0     O29061   3.436   9.967   5.604 -1.0818 -0.9350 -0.3024
  936MOL0     C29062   3.575   9.992   5.582  0.5514 -0.7170  0.2513
  936MOL0     C29063   3.632  10.092   5.656  0.1318  0.2011  0.7314
  936MOL0     C29064   3.770  10.112   5.645 -0.1590 -0.5874 -1.2769
  936MOL0     C29065   3.850  10.030   5.562  0.9419 -0.1216  0.5617
  936MOL0     O29066   3.988  10.044   5.568 -0.6234 -0.0228 -0.0545
  936MOL0     C29067   4.041  10.130   5.467  0.2594  0.3071 -0.6587
  936MOL0     C29068   4.175  10.196   5.503 -0.5215 -0.3659  0.3160
  936MOL0     C29069   4.158  10.280   5.632  0.2584  0.0195  0.2154
  936MOL0     C29070   4.086  10.412   5.612  0.5189 -0.2114  0.8060
  936MOL0     C29071   4.071  10.480   5.747  0.3479 -0.2197  0.3418
  936MOL0     C29072   3.960  10.409   5.821 -1.0520 -0.2139 -0.0527
  936MOL0     C29073   3.942  10.459   5.969 -0.1227  0.7472  0.2323
  936MOL0     C29074   3.822  10.395   6.030 -0.2836  0.1050 -0.2108
  936MOL0    Cl29075   3.765  10.514   6.160  0.2285  0.6794 -0.0305
  936MOL0     C29076   3.794   9.924   5.496 -0.3434  0.2578  0.9500
  936MOL0     C29077   3.653   9.902   5.505  0.9829  0.3682 -0.3309
  936MOL0     O29078   3.486   9.768   5.699  0.5266  0.0958  0.1159
  936MOL0     C29079   3.205   9.791   5.803 -0.2368  0.3059 -0.5251
  936MOL0     C29080   3.068   9.772   5.820 -0.1380 -0.6988 -0.2732
  936MOL0     N29081   2.382   9.936   5.363  0.1468 -0.0501  0.4001
  936MOL0     N29082   2.348   9.918   5.250 -0.4925 -0.3319  0.0886
  936MOL0     C29083   1.286   9.435   5.875 -0.3258  0.5774 -0.0604
  936MOL0     C29084   1.154   9.441   5.925  0.9909  0.1722  0.2098
  936MOL0     C29085   0.696   9.432   5.968 -0.4260 -0.1667  0.0354
  936MOL0     C29086   0.639   9.531   5.890  0.0558  0.8980  0.5329
  936MOL0     C29087   0.492   9.544   5.882  0.5115 -0.4405  0.0701
  936MOL0     C29088   0.420   9.458   5.971 -0.2921 -0.2069 -0.2384
  936MOL0     O29089   0.280   9.459   5.977 -0.4474 -0.3304 -0.5431
  936MOL0     C29090   0.209   9.539   5.884 -0.1442 -1.2534  0.0635
  936MOL0     C29091   0.060   9.516   5.903  0.9458  0.1793  0.0575
  936MOL0     C29092   0.001   9.509   6.053 -0.2996  0.6355  0.0789
  936MOL0     C29093  -0.010   9.367   6.107 -0.0196 -0.6908 -0.0821
  936MOL0     C29094  -0.092   9.292   6.013 -0.8427  0.7115  0.2904
  936MOL0     C29095  -0.151   9.224   5.924  0.1143  0.0957 -0.4091
  936MOL0     C29096   0.485   9.371   6.059 -0.5592 -0.5118 -0.4231
  936MOL0     C29097   0.617   9.356   6.050  0.2151  0.6938 -0.2534
  936MOL0     C29098   0.675   9.238   6.133 -0.0261 -0.3061  0.3616
  936MOL0     H29099   1.006   9.562   5.646 -0.4177  2.6839  1.0479
  936MOL0     H29100   1.220   9.551   5.562  2.6509 -2.6031 -0.1201
  936MOL0     H29101   1.435   9.672   5.606  5.6813  1.8921 -1.6145
  936MOL0     H29102   1.408   9.545   5.480 -3.4343  1.1542  1.2838
  936MOL0     H29103   1.673   9.587   5.632  0.1845  0.2164 -0.4534
  936MOL0     H29104   1.644   9.459   5.528 -0.8340 -0.2331  0.4845
  936MOL0     H29105   1.590   9.611   5.334 -0.3191  0.3111  0.0499
  936MOL0     H29106   1.635   9.752   5.427  1.9736  0.0574  2.4446
  936MOL0     H29107   1.872   9.636   5.463  0.7656  2.7085 -1.7378
  936MOL0     H29108   1.811   9.512   5.346  1.2992 -0.4444  0.0812
  936MOL0     H29109   1.816   9.792   5.269 -0.7209 -1.2391  4.1967
  936MOL0     H29110   1.829   9.644   5.164  1.2623  1.2859  0.1757
  936MOL0     H29111   2.046   9.767   5.332 -0.8788  0.6138 -0.3934
  936MOL0     H29112   2.050   9.597   5.266  0.0064 -0.4774 -2.2574
  936MOL0     H29113   2.030   9.851   5.116 -1.7313 -0.7822 -2.2596
  936MOL0     H29114   2.022   9.712   5.032  1.0666  0.8535 -0.3746
  936MOL0     H29115   2.247   9.631   5.136  1.9727 -0.4969 -3.0163
  936MOL0     H29116   2.251   9.779   5.033  1.0916 -0.4870 -0.9152
  936MOL0     H29117   2.263   9.633   5.389 -2.5726  0.3740 -1.7877
  936MOL0     H29118   2.328   9.842   5.653 -0.0185  0.5849  0.2934
  936MOL0     H29119   2.487   9.896   5.601 -0.1742 -0.8699  1.3407
  936MOL0     H29120   2.409   9.621   5.668 -0.3829  0.4806  1.4042
  936MOL0     H29121   2.513   9.637   5.526 -1.0686  0.5957  0.7439
  936MOL0     H29122   2.571   9.769   5.796 -0.2585 -1.0001  1.8241
  936MOL0     H29123   2.613   9.605   5.753 -0.4140 -0.3411 -1.2673
  936MOL0     H29124   2.760   9.679   5.556  0.9125  2.4550 -1.2219
  936MOL0     H29125   2.729   9.843   5.599  1.7340  1.1216 -0.0556
  936MOL0     H29126   2.963   9.838   5.503  0.1569 -0.0555  0.3738
  936MOL0     H29127   3.241   9.992   5.429  1.1502 -0.0747 -0.1529
  936MOL0     H29128   3.129   9.872   5.355 -0.3148 -2.2892 -0.6550
  936MOL0     H29129   3.300   9.830   5.406 -0.6147  0.1291  0.8229
  936MOL0     H29130   3.562  10.151   5.715 -1.6647  0.4609 -1.5053
  936MOL0     H29131   3.812  10.192   5.705 -3.8497 -0.9799  2.2636
  936MOL0     H29132   4.055  10.077   5.373 -0.7610  2.1099 -1.8899
  936MOL0     H29133   3.967  10.207   5.442 -1.2399 -1.5756 -2.2788
  936MOL0     H29134   4.246  10.116   5.526 -0.9245 -0.9413 -0.4183
  936MOL0     H29135   4.203  10.255   5.416 -1.2461  2.2482  1.7148
  936MOL0     H29136   4.256  10.306   5.673 -1.2783  1.8636  3.0027
  936MOL0     H29137   4.113  10.207   5.701 -3.6723 -1.2425 -3.2418
  936MOL0     H29138   3.985  10.405   5.571 -0.3371  1.2289  2.5212
  936MOL0     H29139   4.142  10.483   5.551 -2.4303  0.5493 -1.2311
  936MOL0     H29140   4.164  10.473   5.806  0.0320  0.2442  0.9099
  936MOL0     H29141   4.050  10.587   5.748 -0.4839 -0.3758  1.3500
  936MOL0     H29142   3.975  10.301   5.831  0.6798  0.0687  0.6548
  936MOL0     H29143   3.869  10.425   5.762 -0.9519 -0.4885 -0.2873
  936MOL0     H29144   3.934  10.568   5.962  4.9995  1.2553 -2.2964
  936MOL0     H29145   4.031  10.431   6.025  0.1401 -0.7462 -0.8751
  936MOL0     H29146   3.858  10.302   6.075  0.2230 -0.2455 -1.3082
  936MOL0     H29147   3.744  10.364   5.959 -0.4682 -2.2190  0.9204
  936MOL0     H29148   3.862   9.869   5.432 -0.3473 -0.6435  1.6944
  936MOL0     H29149   3.589   9.828   5.458  1.1859  0.9901 -1.6235
  936MOL0     H29150   3.268   9.762   5.887 -1.0587 -0.8211 -0.2731
  936MOL0     H29151   3.044   9.758   5.925  0.7406  1.6153  0.2757
  936MOL0     H29152   1.361   9.384   5.934  0.3946 -0.2163 -1.5890
  936MOL0     H29153   1.135   9.403   6.025 -1.8889 -1.5212 -0.8645
  936MOL0     H29154   0.696   9.612   5.845  0.1187  0.2921 -0.5258
  936MOL0     H29155   0.445   9.618   5.817 -0.2830 -0.7963  0.2335
  936MOL0     H29156   0.231   9.646   5.894  1.5843 -1.5649 -0.1298
  936MOL0     H29157   0.248   9.514   5.785  1.3214 -2.0748  0.8107
  936MOL0     H29158   0.041   9.418   5.857 -0.1966  0.1883  0.4970
  936MOL0     H29159   0.005   9.593   5.849  4.6780  3.4429  0.4231
  936MOL0     H29160   0.063   9.566   6.124  0.0646 -0.3632  0.5902
  936MOL0     H29161  -0.094   9.564   6.049 -0.7316  0.0127  1.1705
  936MOL0     H29162  -0.062   9.365   6.203  1.0544  0.2497  0.5448
  936MOL0     H29163   0.083   9.310   6.123  0.0254 -0.1615  1.6345
  936MOL0     H29164  -0.212   9.178   5.849 -1.2139 -0.6034  1.0460
  936MOL0     H29165   0.422   9.312   6.125  0.6276 -2.1952 -0.7507
  936MOL0     H29166   0.761   9.289   6.177  2.4639 -1.3839 -2.8077
  936MOL0     H29167   0.612   9.183   6.203  1.2568 -1.1529  0.8860
  936MOL0     H29168   0.716   9.174   6.054 -0.0876  1.2454 -0.9754
  937MOL0     O29169   6.846   3.473   8.469  0.7421 -0.5895  0.5179
  937MOL0     C29170   6.859   3.555   8.379  0.5522 -0.4904 -0.1578
  937MOL0     O29171   6.956   3.557   8.284  0.4302 -0.0388 -0.3062
  937MOL0     C29172   7.004   3.439   8.227  0.2544  0.1764 -0.0643
  937MOL0     C29173   7.105   3.449   8.129 -0.2461 -0.3288 -0.6404
  937MOL0     C29174   7.155   3.339   8.059 -0.4537 -0.6107 -0.5585
  937MOL0     C29175   7.106   3.215   8.075  0.8613 -0.7984 -0.1411
  937MOL0     O29176   7.145   3.110   7.996  0.1644  0.0273  0.0520
  937MOL0     C29177   7.115   2.978   8.032  0.0986 -0.7183  0.5298
  937MOL0     C29178   7.179   2.938   8.160 -0.4432  0.3205 -0.8280
  937MOL0     C29179   7.332   2.947   8.151 -0.1237  0.6757  0.2071
  937MOL0     C29180   7.400   2.880   8.274 -0.7917 -0.3107  0.6743
  937MOL0     C29181   7.549   2.922   8.297  0.0050  0.5277  0.2986
  937MOL0     C29182   7.627   2.859   8.413  0.7837  0.2496 -0.1054
  937MOL0     C29183   7.763   2.925   8.443 -0.5053  0.4756 -0.3474
  937MOL0     C29184   7.863   2.929   8.330  0.0094 -0.3730 -0.4438
  937MOL0     N29185   7.993   2.969   8.385 -0.2359 -0.0868 -0.1441
  937MOL0     C29186   8.083   2.890   8.446  0.9019  0.0450 -1.1746
  937MOL0     C29187   8.161   2.981   8.524  0.1427  1.1517 -0.2445
  937MOL0     C29188   8.259   2.957   8.635  0.2205 -0.8323 -0.3069
  937MOL0     C29189   8.378   2.867   8.593  0.0271 -0.3612 -0.0702
  937MOL0     C29190   8.481   2.855   8.700 -0.2118 -0.3216 -0.3103
  937MOL0     C29191   8.591   2.753   8.667  0.0468 -0.8420 -0.0166
  937MOL0     O29192   8.689   2.768   8.774 -0.0753 -0.1496  0.3916
  937MOL0     C29193   8.822   2.725   8.754 -0.4608  0.5925 -0.2920
  937MOL0     C29194   8.856   2.636   8.645 -0.6476 -0.1223  0.4938
  937MOL0     C29195   8.994   2.603   8.617 -0.1674  0.2444 -0.5048
  937MOL0     C29196   9.014   2.532   8.478 -0.8222 -0.3628 -0.3303
  937MOL0     C29197   9.099   2.662   8.686 -0.2862 -0.4296  0.3470
  937MOL0     C29198   9.244   2.645   8.642 -0.5504 -0.2861  0.9764
  937MOL0     O29199   9.276   2.641   8.511 -0.0917 -0.0658  0.4963
  937MOL0     C29200   9.405   2.643   8.480  0.6462 -0.1016  0.0085
  937MOL0     C29201   9.466   2.515   8.446 -0.4367 -0.2495 -1.2715
  937MOL0     C29202   9.605   2.516   8.407  0.2425 -0.2559 -0.3730
  937MOL0     C29203   9.677   2.631   8.404 -0.6394  0.4446  0.1027
  937MOL0     O29204   9.806   2.636   8.351 -0.7525 -0.2059  0.1592
  937MOL0     C29205   9.913   2.671   8.442 -0.0982 -0.3481 -0.5471
  937MOL0     C29206   9.967   2.540   8.491  0.7132  0.1464  0.7817
  937MOL0     C29207  10.001   2.443   8.372 -0.2904 -0.7516  0.1984
  937MOL0     C29208  10.100   2.511   8.274  0.4975 -0.4589  0.4376
  937MOL0     C29209  10.123   2.406   8.157 -0.1261  0.3521  0.2545
  937MOL0     C29210  10.257   2.430   8.089 -0.6259  0.7024  0.4515
  937MOL0     C29211  10.366   2.367   8.180  0.1351  0.1975  0.4472
  937MOL0     C29212  10.505   2.372   8.119 -0.2299  0.1000 -0.0007
  937MOL0    Cl29213  10.513   2.250   7.984  0.3399  0.2640 -0.1252
  937MOL0     C29214   9.623   2.751   8.450 -0.5138 -0.3755  0.4883
  937MOL0     C29215   9.488   2.760   8.492  0.6929 -0.6453 -0.0084
  937MOL0     O29216   9.321   2.656   8.738  0.0255 -0.0434 -0.1587
  937MOL0     C29217   9.061   2.738   8.798  0.3001  0.4724 -0.2006
  937MOL0     C29218   8.927   2.765   8.836  0.1922 -0.3475 -0.3642
  937MOL0     N29219   8.114   3.104   8.496 -0.3691  0.6733 -0.1658
  937MOL0     N29220   8.016   3.102   8.414 -0.4503 -0.9238 -0.3927
  937MOL0     C29221   6.993   3.201   8.163 -0.4654  0.2754 -0.0176
  937MOL0     C29222   6.945   3.307   8.230 -0.8243 -1.3748 -0.6284
  937MOL0     C29223   6.761   3.662   8.386 -0.5663  0.4583 -0.5367
  937MOL0     C29224   6.771   3.750   8.281 -0.1393 -0.2551  0.1344
  937MOL0     C29225   6.688   3.862   8.277 -0.2981  0.4999 -0.0152
  937MOL0     C29226   6.579   3.876   8.365 -0.7088 -0.8724  0.2866
  937MOL0     O29227   6.495   3.979   8.350 -0.5111 -0.8837 -0.4180
  937MOL0     C29228   6.501   4.076   8.459 -0.1020 -1.0340  0.2030
  937MOL0     C29229   6.369   4.157   8.466 -0.2879 -0.2951  0.9664
  937MOL0     C29230   6.372   4.267   8.353 -0.3396  0.2413  0.0110
  937MOL0     C29231   6.229   4.297   8.296 -0.7458  0.3320 -0.2227
  937MOL0     C29232   6.134   4.361   8.384  0.0938 -0.5238 -0.1592
  937MOL0     C29233   6.040   4.402   8.448  0.3105  0.7434  0.2070
  937MOL0     C29234   6.567   3.786   8.467  0.5232 -0.2457 -0.6873
  937MOL0     C29235   6.659   3.684   8.483 -0.1749 -0.5528 -0.4518
  937MOL0     C29236   6.637   3.606   8.605 -0.5726  0.1738 -0.5663
  937MOL0     H29237   7.145   3.549   8.112  0.8720 -1.0299 -2.3787
  937MOL0     H29238   7.234   3.359   7.987  0.9505  1.1978  1.3962
  937MOL0     H29239   7.161   2.918   7.953  0.8972  0.5345  0.0147
  937MOL0     H29240   7.008   2.954   8.038  0.0744 -2.3751 -3.2935
  937MOL0     H29241   7.146   3.003   8.242  1.5027  2.5960 -1.7413
  937MOL0     H29242   7.142   2.837   8.175  0.3083  0.1846  0.1565
  937MOL0     H29243   7.377   2.906   8.059 -0.3535  0.2300  0.2900
  937MOL0     H29244   7.356   3.053   8.156 -1.4148  0.9796  0.0833
  937MOL0     H29245   7.337   2.892   8.362  0.9055 -0.5175  1.9727
  937MOL0     H29246   7.407   2.772   8.258  0.7121 -0.2057  0.4064
  937MOL0     H29247   7.538   3.028   8.321 -1.3347  0.5600 -0.3711
  937MOL0     H29248   7.609   2.908   8.206 -2.0684  0.9657 -1.2003
  937MOL0     H29249   7.564   2.861   8.502 -3.2583 -0.0794 -2.7023
  937MOL0     H29250   7.635   2.751   8.401  0.4866  0.1403  0.6271
  937MOL0     H29251   7.807   2.858   8.518  1.7293 -1.1056 -2.8645
  937MOL0     H29252   7.761   3.023   8.491 -0.5469  0.2130  0.1939
  937MOL0     H29253   7.888   2.826   8.304  5.7581  0.2582  1.1207
  937MOL0     H29254   7.831   2.998   8.251  0.1089  0.6190  0.3559
  937MOL0     H29255   8.079   2.782   8.443  1.3274  0.0558 -3.5463
  937MOL0     H29256   8.201   2.904   8.711 -2.8838  2.2225 -0.3136
  937MOL0     H29257   8.298   3.052   8.675  1.3197 -0.9621 -1.0122
  937MOL0     H29258   8.339   2.773   8.555 -1.9594  0.1488  0.5690
  937MOL0     H29259   8.421   2.920   8.507 -0.4752  1.9245  0.9878
  937MOL0     H29260   8.527   2.954   8.704 -2.0474  0.6190 -1.1575
  937MOL0     H29261   8.423   2.839   8.791 -3.1750 -1.8211 -2.2904
  937MOL0     H29262   8.556   2.649   8.664  2.7975 -1.8502 -2.3201
  937MOL0     H29263   8.654   2.775   8.581 -0.0665  1.3161  0.4084
  937MOL0     H29264   8.780   2.593   8.580  0.6978 -0.7417 -0.7443
  937MOL0     H29265   9.097   2.462   8.487  0.9499  1.6772 -0.1643
  937MOL0     H29266   9.016   2.600   8.392 -6.3896 -0.8932 -1.2726
  937MOL0     H29267   8.929   2.467   8.455  0.0408 -1.5757 -0.2048
  937MOL0     H29268   9.403   2.426   8.441 -0.8021  0.0006 -1.1906
  937MOL0     H29269   9.661   2.427   8.379  1.4525  0.7405 -1.2162
  937MOL0     H29270   9.987   2.733   8.392 -0.6526 -0.2549 -1.2609
  937MOL0     H29271   9.877   2.721   8.533 -1.2267  0.2144 -1.2866
  937MOL0     H29272  10.064   2.546   8.543  2.6944 -1.1662 -2.4308
  937MOL0     H29273   9.893   2.484   8.548 -0.0322 -0.5344 -0.8014
  937MOL0     H29274   9.917   2.403   8.315 -2.2416  3.1004 -0.0125
  937MOL0     H29275  10.051   2.358   8.418  0.0724 -0.8308 -0.3377
  937MOL0     H29276  10.188   2.554   8.322  0.8812  1.2232 -1.5791
  937MOL0     H29277  10.057   2.604   8.235  1.3208 -0.3346 -0.2046
  937MOL0     H29278  10.119   2.306   8.201  0.8239  1.2855  2.5865
  937MOL0     H29279  10.048   2.413   8.078  2.2861 -3.5289 -2.7995
  937MOL0     H29280  10.274   2.536   8.069  2.2824  0.1587 -0.3938
  937MOL0     H29281  10.265   2.370   7.998  0.3580 -0.7040  1.4251
  937MOL0     H29282  10.347   2.259   8.181 -2.3147  0.4935  3.5484
  937MOL0     H29283  10.357   2.400   8.284  1.3588 -1.4329  1.1093
  937MOL0     H29284  10.587   2.360   8.191  0.3442 -0.7864 -0.7802
  937MOL0     H29285  10.526   2.470   8.076  2.2489 -0.0964  0.5902
  937MOL0     H29286   9.675   2.846   8.446 -0.7163 -0.3138 -1.7530
  937MOL0     H29287   9.455   2.854   8.534 -0.4637 -2.1102  2.5896
  937MOL0     H29288   9.144   2.777   8.856 -0.1196  0.7322  0.2246
  937MOL0     H29289   8.905   2.826   8.923 -0.0335 -4.5609  2.8398
  937MOL0     H29290   6.931   3.112   8.170  0.1616 -0.1764 -0.1708
  937MOL0     H29291   6.860   3.304   8.297  0.7318 -0.3972  1.5265
  937MOL0     H29292   6.833   3.731   8.193  0.0858 -0.3281  0.3070
  937MOL0     H29293   6.700   3.936   8.198  0.4878  2.3324  1.7410
  937MOL0     H29294   6.503   4.030   8.558 -0.4148  3.4203  2.5535
  937MOL0     H29295   6.585   4.145   8.447  0.2660 -1.9233 -3.1873
  937MOL0     H29296   6.362   4.211   8.561 -0.1215  1.3105  0.0977
  937MOL0     H29297   6.289   4.086   8.446 -1.0248  0.8512 -0.3707
  937MOL0     H29298   6.404   4.365   8.388 -0.3933 -0.1833  1.3167
  937MOL0     H29299   6.435   4.222   8.276  0.3409 -1.4154  1.4688
  937MOL0     H29300   6.191   4.198   8.268 -2.0805  0.8926 -0.4684
  937MOL0     H29301   6.249   4.352   8.204 -1.3101 -0.8685 -1.0828
  937MOL0     H29302   5.965   4.427   8.521  1.2572 -1.8966  2.2635
  937MOL0     H29303   6.477   3.785   8.527  2.2183 -1.8851  2.0263
  937MOL0     H29304   6.730   3.606   8.664 -3.1271  0.8187  3.9672
  937MOL0     H29305   6.561   3.645   8.674 -0.7807 -0.3159 -0.5196
  937MOL0     H29306   6.611   3.502   8.586  0.4739  0.0463 -1.3710
  938MOL0     O29307   2.746  10.046   1.634  0.1817 -1.1021  0.5640
  938MOL0     C29308   2.774   9.931   1.652 -0.4242 -0.0728 -0.1178
  938MOL0     O29309   2.894   9.885   1.687  0.3214 -0.2379  0.2787
  938MOL0     C29310   2.999   9.977   1.715 -0.4269  1.0693  0.0564
  938MOL0     C29311   3.022  10.113   1.667  0.1494  0.6500 -0.3856
  938MOL0     C29312   3.131  10.179   1.718 -0.2708  0.1773  0.5287
  938MOL0     C29313   3.229  10.125   1.799 -0.0640  0.0276 -0.0486
  938MOL0     O29314   3.344  10.189   1.830 -0.5928  0.2722  0.3183
  938MOL0     C29315   3.425  10.150   1.945  0.5817  0.4547 -0.1377
  938MOL0     C29316   3.512  10.272   1.993 -0.1999  0.2137 -0.1535
  938MOL0     C29317   3.627  10.311   1.898  0.0266 -0.0590  0.3902
  938MOL0     C29318   3.711  10.420   1.959 -0.8047 -0.1228 -0.4040
  938MOL0     C29319   3.834  10.455   1.877  0.1991 -0.4787 -0.4060
  938MOL0     C29320   3.952  10.513   1.946 -0.1068 -0.2377  0.4788
  938MOL0     C29321   4.083  10.524   1.863  0.7638  1.3455 -1.1530
  938MOL0     C29322   4.145  10.653   1.885  0.0055 -0.1105 -0.6883
  938MOL0     N29323   4.294  10.642   1.859  0.3877 -0.0567  0.5409
  938MOL0     C29324   4.356  10.649   1.734  0.1951  0.3831 -0.3458
  938MOL0     C29325   4.491  10.631   1.755  0.0090  0.0462 -0.6734
  938MOL0     C29326   4.596  10.611   1.648 -0.1854 -0.3697 -0.6600
  938MOL0     C29327   4.719  10.704   1.678  0.7872 -0.0196  0.9285
  938MOL0     C29328   4.827  10.674   1.578 -0.6709  0.2031  0.7602
  938MOL0     C29329   4.965  10.733   1.625  0.9278  0.4967 -0.3256
  938MOL0     O29330   5.028  10.658   1.732  0.2440 -0.1832 -0.1981
  938MOL0     C29331   5.146  10.697   1.792  0.2810 -0.2668  0.5307
  938MOL0     C29332   5.180  10.644   1.908 -0.2614  0.1600 -0.7056
  938MOL0     C29333   5.289  10.689   1.978 -0.9853  0.0864  0.1275
  938MOL0     C29334   5.307  10.614   2.115  0.3510 -0.3896  1.1083
  938MOL0     C29335   5.368  10.797   1.927 -0.5422 -0.1308 -0.1496
  938MOL0     C29336   5.487  10.848   1.991 -0.2201  0.0028 -0.0432
  938MOL0     O29337   5.571  10.922   1.911 -0.9421 -0.0384 -0.3632
  938MOL0     C29338   5.685  10.975   1.961  0.0483  0.0643 -0.6885
  938MOL0     C29339   5.691  11.102   2.022 -0.0097 -0.3776 -0.8507
  938MOL0     C29340   5.806  11.142   2.087  0.2456 -0.7119 -0.7574
  938MOL0     C29341   5.925  11.072   2.082  0.5947 -0.2261 -0.1888
  938MOL0     O29342   6.030  11.127   2.151  0.8074  0.2533 -0.3275
  938MOL0     C29343   6.066  11.264   2.109  0.4797 -0.0488  0.3755
  938MOL0     C29344   6.226  11.291   2.120 -0.5214 -0.5433  0.1709
  938MOL0     C29345   6.307  11.214   2.026 -0.3230  0.1969  0.1000
  938MOL0     C29346   6.453  11.221   2.055 -0.2137 -0.0753 -0.4654
  938MOL0     C29347   6.540  11.163   1.944  0.2106 -0.0219 -0.2696
  938MOL0     C29348   6.693  11.188   1.950 -0.0668 -0.5377  0.8009
  938MOL0     C29349   6.737  11.331   1.941  0.2804  0.0885 -0.2465
  938MOL0     C29350   6.889  11.348   1.944  0.1040 -0.9440 -0.1382
  938MOL0    Cl29351   6.936  11.526   1.957 -0.2980 -0.1237 -0.1135
  938MOL0     C29352   5.922  10.948   2.023  0.4482  0.3930  0.2354
  938MOL0     C29353   5.801  10.895   1.966 -0.7250 -0.6191  1.3294
  938MOL0     O29354   5.516  10.812   2.106 -0.4288  0.6399 -0.2782
  938MOL0     C29355   5.335  10.845   1.795  0.1961 -1.0696 -0.5132
  938MOL0     C29356   5.233  10.792   1.730  0.1454  0.8205  0.3592
  938MOL0     N29357   4.510  10.605   1.896 -0.5782 -0.4600  0.8042
  938MOL0     N29358   4.397  10.627   1.948 -0.7703  0.6191 -0.4771
  938MOL0     C29359   3.208   9.988   1.839 -0.3335 -0.1646 -1.0554
  938MOL0     C29360   3.092   9.916   1.791 -1.3116 -0.0840 -0.0405
  938MOL0     C29361   2.670   9.842   1.589 -0.3553  0.7078  0.9344
  938MOL0     C29362   2.537   9.884   1.587  0.6273  0.4210 -0.3889
  938MOL0     C29363   2.439   9.803   1.532  0.7310 -0.0075  0.5274
  938MOL0     C29364   2.459   9.670   1.492 -1.1452  0.4940 -0.0626
  938MOL0     O29365   2.370   9.582   1.437 -0.1956  0.0171 -0.0341
  938MOL0     C29366   2.226   9.607   1.431 -0.0492 -0.1740 -0.1381
  938MOL0     C29367   2.163   9.550   1.314  0.1659  0.9234  0.5623
  938MOL0     C29368   2.215   9.405   1.292  0.3026  0.4114  0.2675
  938MOL0     C29369   2.131   9.331   1.192  0.3042  1.0349 -0.0285
  938MOL0     C29370   2.211   9.220   1.129 -0.0109  0.1415 -0.8401
  938MOL0     C29371   2.277   9.131   1.083 -0.4360 -0.5666 -0.1804
  938MOL0     C29372   2.596   9.631   1.496  0.1365  0.0083  0.7326
  938MOL0     C29373   2.701   9.707   1.545 -0.7614  0.5639  0.1838
  938MOL0     C29374   2.839   9.639   1.526  0.5533  0.9476  0.2779
  938MOL0     H29375   2.960  10.164   1.594 -0.5751  0.4559  0.0803
  938MOL0     H29376   3.155  10.281   1.689  1.6919 -0.6859 -1.1416
  938MOL0     H29377   3.493  10.071   1.912  1.7454  1.1356  0.5853
  938MOL0     H29378   3.361  10.110   2.024  1.5789  0.1644  0.5370
  938MOL0     H29379   3.452  10.360   2.017 -0.7980 -0.6030  1.5163
  938MOL0     H29380   3.562  10.246   2.087 -0.6583  2.8043  0.8817
  938MOL0     H29381   3.686  10.225   1.865  0.1350 -0.1174  0.7403
  938MOL0     H29382   3.582  10.341   1.802 -0.4201  0.3628  0.7274
  938MOL0     H29383   3.646  10.508   1.957 -3.5773 -2.0376 -0.3605
  938MOL0     H29384   3.742  10.387   2.058 -0.4566 -0.4466 -0.6215
  938MOL0     H29385   3.801  10.516   1.792 -1.4208 -1.0705 -0.2381
  938MOL0     H29386   3.871  10.355   1.850  1.8521 -0.2952  0.9745
  938MOL0     H29387   3.921  10.611   1.981  0.0199 -0.0135 -0.0249
  938MOL0     H29388   3.975  10.464   2.041 -1.7068 -0.4630  0.7766
  938MOL0     H29389   4.056  10.532   1.757  0.1998  4.5994 -0.8747
  938MOL0     H29390   4.149  10.439   1.882 -1.9083 -0.0660  3.1228
  938MOL0     H29391   4.111  10.729   1.814 -2.7069 -0.8860 -0.3234
  938MOL0     H29392   4.142  10.692   1.987 -0.0333 -2.0963  0.1286
  938MOL0     H29393   4.303  10.654   1.639  0.2195  2.4784 -0.2893
  938MOL0     H29394   4.539  10.631   1.556  0.5013  2.3191 -0.5844
  938MOL0     H29395   4.635  10.509   1.651  0.2956 -0.1709  1.6679
  938MOL0     H29396   4.694  10.810   1.671  0.1980 -0.0260  2.6373
  938MOL0     H29397   4.752  10.693   1.781 -1.7349 -1.2676  1.6872
  938MOL0     H29398   4.822  10.570   1.544  2.9380 -0.1037  0.8086
  938MOL0     H29399   4.791  10.722   1.487 -0.5926 -0.3923  0.4087
  938MOL0     H29400   5.035  10.725   1.541  1.5325 -1.7442  0.3082
  938MOL0     H29401   4.947  10.834   1.662  0.1457  0.3807 -0.3589
  938MOL0     H29402   5.105  10.574   1.942 -2.1186  2.5212  0.2622
  938MOL0     H29403   5.360  10.674   2.190  0.6010 -1.9527  2.2292
  938MOL0     H29404   5.373  10.528   2.103  1.8633  0.6704  1.4541
  938MOL0     H29405   5.210  10.603   2.165 -0.0812 -0.6255  0.2347
  938MOL0     H29406   5.603  11.165   2.014 -0.0796 -0.3564  0.0553
  938MOL0     H29407   5.802  11.239   2.135  0.1898 -2.6331  3.5226
  938MOL0     H29408   6.039  11.275   2.004  0.5838 -1.0151  0.2316
  938MOL0     H29409   6.004  11.329   2.171 -2.3605 -1.3306 -0.9447
  938MOL0     H29410   6.247  11.393   2.087  1.2830 -1.6941 -2.5007
  938MOL0     H29411   6.259  11.271   2.223  2.5849 -1.8821 -0.9758
  938MOL0     H29412   6.295  11.256   1.926 -1.3656  0.8356  0.4801
  938MOL0     H29413   6.271  11.111   2.035 -0.9597  0.2371 -1.6351
  938MOL0     H29414   6.474  11.169   2.149 -0.3789 -0.1649 -0.4791
  938MOL0     H29415   6.477  11.327   2.066  0.9794 -0.1779 -1.7142
  938MOL0     H29416   6.530  11.055   1.949 -1.7714  0.0189 -1.9097
  938MOL0     H29417   6.498  11.189   1.846 -1.8757 -1.0651  0.2992
  938MOL0     H29418   6.745  11.126   1.877  0.6974 -0.9438  1.6723
  938MOL0     H29419   6.726  11.155   2.049  0.5742 -2.2655  0.0409
  938MOL0     H29420   6.693  11.392   2.020 -0.4536 -0.4349 -0.2463
  938MOL0     H29421   6.698  11.372   1.847 -1.4723 -3.4466 -1.2619
  938MOL0     H29422   6.938  11.297   1.860  1.3475 -0.8449  0.4911
  938MOL0     H29423   6.930  11.299   2.033  0.4234 -1.1667 -0.4009
  938MOL0     H29424   6.015  10.893   2.024  0.5155  0.5097  1.0189
  938MOL0     H29425   5.791  10.799   1.917 -1.5489 -0.8913  2.0122
  938MOL0     H29426   5.395  10.927   1.757 -1.6057 -0.1800 -1.5531
  938MOL0     H29427   5.204  10.841   1.637 -4.1905  0.1614  1.1799
  938MOL0     H29428   3.272   9.944   1.914  2.6318  2.1611 -2.0395
  938MOL0     H29429   3.076   9.812   1.816 -0.4370 -0.8003 -2.2319
  938MOL0     H29430   2.513   9.987   1.613  1.4468  0.7350 -0.8442
  938MOL0     H29431   2.335   9.834   1.533  0.7021 -0.0409  2.2030
  938MOL0     H29432   2.174   9.553   1.510 -0.3134 -3.1684 -2.1714
  938MOL0     H29433   2.204   9.714   1.438 -0.2478 -0.2540  0.5921
  938MOL0     H29434   2.171   9.605   1.220  0.0376 -1.4615 -0.9524
  938MOL0     H29435   2.056   9.538   1.327  0.2940 -0.5226  0.4904
  938MOL0     H29436   2.317   9.407   1.251 -0.0346  0.5294 -0.5885
  938MOL0     H29437   2.212   9.347   1.385 -0.8241 -0.2929 -0.1884
  938MOL0     H29438   2.102   9.403   1.115  0.1813  1.9859  0.8878
  938MOL0     H29439   2.038   9.299   1.240 -0.3679 -0.0345 -1.9549
  938MOL0     H29440   2.336   9.054   1.037 -0.5256 -1.3847  1.0083
  938MOL0     H29441   2.612   9.540   1.440 -1.7485 -1.7728  2.9355
  938MOL0     H29442   2.832   9.552   1.460  0.5095  1.3246 -0.2239
  938MOL0     H29443   2.921   9.705   1.496  0.5278  1.1916  0.7255
  938MOL0     H29444   2.874   9.590   1.618 -0.8161 -2.5265 -0.8975
  939MOL0     O29445   2.631   8.364   2.398  1.0976 -0.7717  1.0197
  939MOL0     C29446   2.628   8.459   2.478  0.3592 -0.2667 -0.8640
  939MOL0     O29447   2.737   8.540   2.515  0.2595  1.4028  0.6167
  939MOL0     C29448   2.847   8.514   2.435  0.7769 -0.3700 -0.0913
  939MOL0     C29449   2.920   8.389   2.436 -0.6933  0.1012 -0.4716
  939MOL0     C29450   3.026   8.378   2.345  0.1151  0.0003 -0.2985
  939MOL0     C29451   3.059   8.484   2.260  0.0796  0.1749 -1.1385
  939MOL0     O29452   3.150   8.460   2.167 -0.0558 -0.1488  0.3002
  939MOL0     C29453   3.246   8.562   2.135 -0.3300 -0.1299 -0.1508
  939MOL0     C29454   3.383   8.521   2.178 -0.1770  0.9381  0.2009
  939MOL0     C29455   3.420   8.527   2.323  0.2414  0.4602  0.1721
  939MOL0     C29456   3.536   8.435   2.352 -0.0471 -0.4274  0.4974
  939MOL0     C29457   3.561   8.423   2.512  0.5058 -1.0253 -0.1583
  939MOL0     C29458   3.603   8.552   2.578 -0.2249  0.5850  0.6769
  939MOL0     C29459   3.698   8.640   2.493  0.0091  0.8505  0.2849
  939MOL0     C29460   3.762   8.748   2.584 -0.2432 -0.5856 -0.1152
  939MOL0     N29461   3.891   8.706   2.651 -0.2179 -0.7489  0.4559
  939MOL0     C29462   4.015   8.696   2.591  0.5405 -1.0705  0.7077
  939MOL0     C29463   4.098   8.677   2.695 -0.8179 -0.3889  0.1780
  939MOL0     C29464   4.241   8.659   2.662 -0.0596 -0.1771  0.2681
  939MOL0     C29465   4.325   8.774   2.719  0.4170  0.6633 -0.0491
  939MOL0     C29466   4.468   8.765   2.666 -0.2686 -0.0442  0.1643
  939MOL0     C29467   4.558   8.851   2.760 -0.4754 -0.2815 -0.5474
  939MOL0     O29468   4.698   8.827   2.731 -0.1587 -0.4920  0.7757
  939MOL0     C29469   4.788   8.842   2.831 -0.1554 -0.4200 -0.3940
  939MOL0     C29470   4.770   8.909   2.960 -0.1916 -0.3176  0.1795
  939MOL0     C29471   4.878   8.917   3.049 -0.5997 -0.7785 -1.2916
  939MOL0     C29472   4.853   9.000   3.172 -0.0688  0.1980  0.1665
  939MOL0     C29473   5.008   8.864   3.016 -0.1126 -0.9783  0.3049
  939MOL0     C29474   5.130   8.865   3.097  0.2302 -0.3079  0.5440
  939MOL0     O29475   5.125   8.926   3.214  0.2424  0.4178 -0.3737
  939MOL0     C29476   5.255   8.939   3.264 -0.1410 -0.1821 -0.7069
  939MOL0     C29477   5.299   8.880   3.391 -0.2491 -0.6577 -0.0324
  939MOL0     C29478   5.424   8.919   3.441 -0.8766  0.5672 -0.2167
  939MOL0     C29479   5.510   9.007   3.379  0.1722 -0.7708 -0.3909
  939MOL0     O29480   5.618   9.047   3.451  0.2311  0.1299  0.1423
  939MOL0     C29481   5.737   9.091   3.378  0.6059  0.6803  0.1820
  939MOL0     C29482   5.862   9.073   3.472  1.3305 -0.4711  0.0849
  939MOL0     C29483   5.980   9.146   3.399 -0.0819  0.1895  0.0766
  939MOL0     C29484   6.098   9.161   3.497  0.3511  0.0223  0.0508
  939MOL0     C29485   6.179   9.027   3.516 -0.0093 -0.1344 -0.7534
  939MOL0     C29486   6.277   9.036   3.633 -0.0053  0.4559  0.0876
  939MOL0     C29487   6.369   9.163   3.642 -0.1901 -0.3374  0.3190
  939MOL0     C29488   6.435   9.174   3.783  0.0796  0.4856 -0.0678
  939MOL0    Cl29489   6.576   9.278   3.786 -0.1128  0.1067 -0.3005
  939MOL0     C29490   5.472   9.066   3.257  0.0658 -0.5306 -0.0144
  939MOL0     C29491   5.345   9.028   3.203  0.0022  1.6348  0.1862
  939MOL0     O29492   5.222   8.792   3.057 -0.3173  0.0910 -0.2812
  939MOL0     C29493   5.018   8.796   2.890 -0.3961 -0.1947 -0.0317
  939MOL0     C29494   4.911   8.787   2.801  0.0206 -0.1238 -0.4877
  939MOL0     N29495   4.029   8.673   2.811  0.4777 -0.8219  0.5748
  939MOL0     N29496   3.904   8.707   2.788 -0.2312 -0.0825 -0.3652
  939MOL0     C29497   2.990   8.603   2.265 -0.3329  0.4281  0.7394
  939MOL0     C29498   2.885   8.622   2.355 -0.9437 -0.6797 -0.2242
  939MOL0     C29499   2.504   8.495   2.550 -0.1342 -0.9604 -0.1102
  939MOL0     C29500   2.482   8.637   2.581 -0.4756  0.2459  0.5405
  939MOL0     C29501   2.381   8.682   2.669  0.4119  0.9075 -0.1228
  939MOL0     C29502   2.297   8.582   2.717 -0.3203  0.4803 -0.5630
  939MOL0     O29503   2.193   8.624   2.803 -0.7551  0.2124 -0.3325
  939MOL0     C29504   2.086   8.687   2.727 -0.0312  0.5620  0.3294
  939MOL0     C29505   1.951   8.625   2.767  0.6057  0.3558  0.5817
  939MOL0     C29506   1.945   8.477   2.742 -0.1338 -0.2479  0.4511
  939MOL0     C29507   1.799   8.436   2.761 -0.7350 -0.2835  0.2978
  939MOL0     C29508   1.754   8.441   2.897  0.6449  0.5765  0.3355
  939MOL0     C29509   1.715   8.443   3.009  0.1407  0.3633  0.1375
  939MOL0     C29510   2.306   8.449   2.669  1.1367 -0.1826  1.4997
  939MOL0     C29511   2.412   8.401   2.590  0.3564 -0.9823  0.0951
  939MOL0     C29512   2.420   8.255   2.566  0.3307 -1.2267 -0.0464
  939MOL0     H29513   2.885   8.311   2.503 -2.4095  1.1759 -0.0548
  939MOL0     H29514   3.096   8.296   2.330 -1.0015 -0.7370 -1.7472
  939MOL0     H29515   3.234   8.661   2.179  1.8264  0.8617 -1.6358
  939MOL0     H29516   3.247   8.576   2.027 -1.9323 -0.0964 -0.1908
  939MOL0     H29517   3.400   8.415   2.155  0.4806  1.4189 -1.6838
  939MOL0     H29518   3.454   8.577   2.116  0.8266 -0.3694  0.1187
  939MOL0     H29519   3.440   8.630   2.354 -1.8086  1.0089 -0.2048
  939MOL0     H29520   3.333   8.503   2.385  0.7794  0.9229  1.1216
  939MOL0     H29521   3.519   8.332   2.319  0.5359 -0.2638 -0.3508
  939MOL0     H29522   3.626   8.477   2.305  1.3734 -1.3400  2.2458
  939MOL0     H29523   3.639   8.348   2.524  1.0332 -0.6136 -0.9073
  939MOL0     H29524   3.462   8.403   2.555  0.0148  3.5626  1.3509
  939MOL0     H29525   3.511   8.610   2.583 -0.6232  0.2131 -1.2690
  939MOL0     H29526   3.651   8.530   2.674 -1.6578  1.2084  1.5598
  939MOL0     H29527   3.656   8.696   2.409  0.8663  2.3004  0.7778
  939MOL0     H29528   3.770   8.571   2.447 -0.5535  0.1767  0.3902
  939MOL0     H29529   3.792   8.826   2.513 -0.6077 -0.6441 -0.3342
  939MOL0     H29530   3.694   8.789   2.659 -0.1515 -3.3863  1.6294
  939MOL0     H29531   4.047   8.709   2.488 -1.1301 -4.5886 -0.4178
  939MOL0     H29532   4.265   8.657   2.555  1.7746 -1.0594  0.6630
  939MOL0     H29533   4.289   8.574   2.711 -0.4989 -1.2358 -1.0521
  939MOL0     H29534   4.288   8.869   2.680  1.2100 -0.1998 -3.1981
  939MOL0     H29535   4.323   8.762   2.827 -0.4440 -0.3670 -0.1643
  939MOL0     H29536   4.509   8.664   2.674 -0.8161 -0.2610  0.2898
  939MOL0     H29537   4.470   8.788   2.559  1.4785 -2.0268 -0.2964
  939MOL0     H29538   4.528   8.956   2.755 -0.1917 -0.1725 -0.0226
  939MOL0     H29539   4.535   8.808   2.858 -0.6655  2.9732  0.9719
  939MOL0     H29540   4.679   8.965   2.976 -1.1157 -1.2858 -1.4386
  939MOL0     H29541   4.863   8.946   3.267  1.2029 -0.1581 -0.1632
  939MOL0     H29542   4.750   9.038   3.177  0.2342  0.8952  2.1935
  939MOL0     H29543   4.915   9.089   3.164 -1.6266  1.4110  0.8918
  939MOL0     H29544   5.229   8.814   3.443 -1.8008  2.3946  2.0231
  939MOL0     H29545   5.457   8.875   3.535 -4.6629 -0.8397  0.6208
  939MOL0     H29546   5.751   9.017   3.299 -0.0158  2.6308 -1.8593
  939MOL0     H29547   5.723   9.195   3.348  0.5085  1.0315  1.4013
  939MOL0     H29548   5.836   9.120   3.567 -1.0905  3.3246 -2.1788
  939MOL0     H29549   5.882   8.968   3.494  3.7431  0.3663  2.3467
  939MOL0     H29550   5.957   9.247   3.362  1.3324  0.8216  0.8646
  939MOL0     H29551   6.030   9.088   3.321 -0.0847  0.8650 -0.4401
  939MOL0     H29552   6.055   9.191   3.593  0.2767 -2.1075  0.7321
  939MOL0     H29553   6.161   9.240   3.454  1.0878 -1.5049 -1.8450
  939MOL0     H29554   6.112   8.941   3.522  0.5881 -0.8080 -2.7126
  939MOL0     H29555   6.234   9.015   3.422 -1.3318  3.0482 -2.0924
  939MOL0     H29556   6.334   8.945   3.615 -1.1124  0.3782 -4.1790
  939MOL0     H29557   6.225   9.029   3.728 -1.3504 -3.4731 -0.7802
  939MOL0     H29558   6.311   9.253   3.619  1.6961  0.4333 -1.7336
  939MOL0     H29559   6.435   9.145   3.557 -0.9785 -0.9966 -0.1729
  939MOL0     H29560   6.463   9.074   3.817  0.5670  0.4348 -0.6106
  939MOL0     H29561   6.355   9.212   3.848  0.8875  0.2039  1.1138
  939MOL0     H29562   5.532   9.142   3.208 -0.9414  0.1468 -0.2175
  939MOL0     H29563   5.307   9.071   3.111  0.8349 -1.2923 -1.6292
  939MOL0     H29564   5.117   8.765   2.859  0.2878  0.2573  1.6017
  939MOL0     H29565   4.925   8.743   2.702  3.2688  2.5783 -1.4215
  939MOL0     H29566   3.019   8.669   2.185  0.1151 -2.5276 -1.7509
  939MOL0     H29567   2.840   8.721   2.361  1.0571  0.2190  0.5942
  939MOL0     H29568   2.555   8.711   2.551 -0.3925  0.9902  2.3956
  939MOL0     H29569   2.375   8.781   2.714  1.4080  2.2437 -2.7376
  939MOL0     H29570   2.080   8.794   2.747 -1.2879  0.8047 -1.0770
  939MOL0     H29571   2.087   8.679   2.617 -1.3382  1.3855  0.2351
  939MOL0     H29572   1.865   8.686   2.738 -1.1213 -0.9898  2.6576
  939MOL0     H29573   1.944   8.638   2.875  0.1120 -1.9582  0.8667
  939MOL0     H29574   1.978   8.452   2.640 -1.7886  1.5505 -0.5978
  939MOL0     H29575   2.008   8.427   2.816 -2.6420 -0.3283  2.6740
  939MOL0     H29576   1.804   8.329   2.736  1.8924 -0.0741 -0.3568
  939MOL0     H29577   1.729   8.483   2.691 -0.7525 -1.3605 -0.4337
  939MOL0     H29578   1.668   8.439   3.106  1.9904 -2.7650  1.0706
  939MOL0     H29579   2.221   8.385   2.693 -1.0858  0.6923 -2.8978
  939MOL0     H29580   2.371   8.206   2.651  0.2183  2.2141  2.0627
  939MOL0     H29581   2.363   8.231   2.475 -0.0089 -1.9018  0.3282
  939MOL0     H29582   2.521   8.214   2.567  1.1556  0.6967 -0.7808
  940MOL0     O29583   8.630   9.785   4.985 -0.1686  0.4477 -0.3486
  940MOL0     C29584   8.572   9.742   4.884 -0.0947 -0.5856  0.3834
  940MOL0     O29585   8.635   9.667   4.787  0.3765 -0.8107  0.0529
  940MOL0     C29586   8.770   9.645   4.803 -0.5737  0.6491 -0.3713
  940MOL0     C29587   8.822   9.516   4.788 -0.5958 -0.1960 -0.2965
  940MOL0     C29588   8.954   9.475   4.814  0.3945 -0.5125 -0.2152
  940MOL0     C29589   9.038   9.576   4.854  0.2769 -0.3935  0.4509
  940MOL0     O29590   9.167   9.549   4.901  0.6144  0.4234  0.4093
  940MOL0     C29591   9.178   9.433   4.982 -0.5716  0.1617  0.0825
  940MOL0     C29592   9.319   9.412   5.034  0.0584 -0.1607 -0.4285
  940MOL0     C29593   9.420   9.379   4.924 -0.3679  0.7246  0.6663
  940MOL0     C29594   9.557   9.341   4.984  0.4616  0.4671 -0.5910
  940MOL0     C29595   9.666   9.345   4.887 -0.3811 -0.0272  0.3503
  940MOL0     C29596   9.790   9.289   4.954  0.7314 -0.6476  0.0920
  940MOL0     C29597   9.917   9.327   4.876 -1.3113 -0.6050  0.2192
  940MOL0     C29598  10.043   9.297   4.957  0.3285  0.5298  0.5891
  940MOL0     N29599  10.148   9.283   4.866 -0.4415  0.8009  0.1923
  940MOL0     C29600  10.224   9.387   4.840 -0.2868  0.4330  0.1918
  940MOL0     C29601  10.329   9.330   4.769 -0.0095 -0.3535 -0.1430
  940MOL0     C29602  10.452   9.402   4.711  0.5789  0.0276 -0.0951
  940MOL0     C29603  10.572   9.340   4.778 -0.4687 -0.1056  0.4612
  940MOL0     C29604  10.711   9.373   4.719 -0.2051 -0.3743  0.1701
  940MOL0     C29605  10.827   9.330   4.809 -0.6807  0.2273 -0.0533
  940MOL0     O29606  10.947   9.387   4.757 -0.0537  0.2346 -0.9789
  940MOL0     C29607  11.055   9.367   4.828 -0.5645  0.4457 -0.3244
  940MOL0     C29608  11.172   9.426   4.766  0.4799 -0.5571  0.2512
  940MOL0     C29609  11.300   9.420   4.827  0.6224 -0.2362  0.3954
  940MOL0     C29610  11.411   9.496   4.761 -0.1104  0.1823 -0.0212
  940MOL0     C29611  11.309   9.335   4.946  0.5569  0.5715  0.0041
  940MOL0     C29612  11.443   9.278   4.994  0.7526 -0.5690 -0.3189
  940MOL0     O29613  11.428   9.178   5.091  0.3140  0.7803 -0.3051
  940MOL0     C29614  11.541   9.117   5.141  0.2798 -0.4320  0.5077
  940MOL0     C29615  11.556   8.977   5.127  0.5256  0.6191  0.5202
  940MOL0     C29616  11.665   8.908   5.193  0.6601  0.4546  0.7345
  940MOL0     C29617  11.760   8.986   5.265  0.3057 -0.1874 -0.5027
  940MOL0     O29618  11.849   8.930   5.350  0.0331  0.0952 -0.0610
  940MOL0     C29619  11.904   8.797   5.321 -0.0148  0.2662 -1.0813
  940MOL0     C29620  12.054   8.778   5.358  0.1657  0.0167 -0.1130
  940MOL0     C29621  12.067   8.730   5.501  0.3181  0.1486  0.3146
  940MOL0     C29622  12.205   8.759   5.553 -0.0506  0.4366  0.6522
  940MOL0     C29623  12.208   8.730   5.700  0.6005  0.1204 -0.5368
  940MOL0     C29624  12.341   8.746   5.776 -0.3748  0.2297  0.6819
  940MOL0     C29625  12.362   8.894   5.802  0.0262 -0.0947  0.4628
  940MOL0     C29626  12.487   8.926   5.888  0.2711  0.3139  0.6393
  940MOL0    Cl29627  12.639   8.926   5.788 -0.2857  0.5060 -0.0293
  940MOL0     C29628  11.756   9.121   5.266 -0.1176 -0.6591 -0.0508
  940MOL0     C29629  11.640   9.185   5.217  0.5445  0.7231 -0.8268
  940MOL0     O29630  11.545   9.318   4.953  0.4439  0.3899  0.1363
  940MOL0     C29631  11.192   9.279   4.999  0.3568  0.0312 -0.2229
  940MOL0     C29632  11.065   9.295   4.948 -0.0279  0.6269  0.0656
  940MOL0     N29633  10.313   9.192   4.759  0.5162 -0.8416 -0.8693
  940MOL0     N29634  10.209   9.160   4.834  0.5601  0.4123 -0.3273
  940MOL0     C29635   8.997   9.711   4.857  0.4471  0.2620 -1.1148
  940MOL0     C29636   8.861   9.737   4.839 -1.1780 -0.0849  1.3032
  940MOL0     C29637   8.431   9.777   4.862 -0.2129  0.9372 -0.2209
  940MOL0     C29638   8.379   9.764   4.733 -0.3162  0.1010 -0.0342
  940MOL0     C29639   8.250   9.801   4.699  0.3672 -0.7205  0.8307
  940MOL0     C29640   8.165   9.834   4.796 -0.3358 -0.6630  0.3766
  940MOL0     O29641   8.032   9.856   4.761  0.3086 -0.9092 -0.6926
  940MOL0     C29642   7.925   9.861   4.855  0.0252  0.0509  0.2691
  940MOL0     C29643   7.791   9.897   4.793 -0.3367  0.9477 -0.0407
  940MOL0     C29644   7.736   9.791   4.693 -1.3664  0.2331  0.2683
  940MOL0     C29645   7.593   9.819   4.680  0.6622  0.1938 -0.4345
  940MOL0     C29646   7.559   9.951   4.639 -0.6712 -0.3805 -0.5645
  940MOL0     C29647   7.531  10.058   4.609  0.6571  0.1119  0.3907
  940MOL0     C29648   8.211   9.859   4.928 -0.5839 -0.7554  0.5129
  940MOL0     C29649   8.340   9.822   4.961  0.2017 -0.6724 -0.0371
  940MOL0     C29650   8.386   9.856   5.105 -0.1495  0.3249 -0.3400
  940MOL0     H29651   8.747   9.444   4.755  0.4622 -1.8082  0.6521
  940MOL0     H29652   8.973   9.369   4.800 -0.9591 -0.7943 -0.0080
  940MOL0     H29653   9.142   9.347   4.924 -1.9109 -0.9885  2.4653
  940MOL0     H29654   9.108   9.441   5.065 -1.0519 -0.4809 -0.2433
  940MOL0     H29655   9.346   9.496   5.099 -1.8838  0.7428 -0.7085
  940MOL0     H29656   9.313   9.323   5.097  0.3869 -1.3203 -1.9841
  940MOL0     H29657   9.376   9.304   4.857 -0.7108  1.1954  0.3535
  940MOL0     H29658   9.436   9.458   4.850  0.5729 -1.5611 -1.7590
  940MOL0     H29659   9.587   9.413   5.060 -0.3543 -0.0946  0.2892
  940MOL0     H29660   9.543   9.245   5.035  0.7575  1.2171  0.9349
  940MOL0     H29661   9.674   9.445   4.843  0.2349  0.0266  0.5764
  940MOL0     H29662   9.648   9.275   4.805  2.3816  2.6233 -2.8356
  940MOL0     H29663   9.807   9.339   5.050  2.5723 -0.2135 -0.4184
  940MOL0     H29664   9.786   9.181   4.970  1.5486 -0.6606  0.2681
  940MOL0     H29665   9.910   9.434   4.856 -1.8796 -1.0656 -2.5217
  940MOL0     H29666   9.928   9.285   4.775  4.2266  2.2662 -0.7439
  940MOL0     H29667  10.044   9.385   5.022 -3.9497  0.6640  0.7674
  940MOL0     H29668  10.018   9.203   5.008  1.9195 -0.3288 -0.1639
  940MOL0     H29669  10.206   9.493   4.854  0.1682  0.6033 -0.4420
  940MOL0     H29670  10.436   9.508   4.736 -2.1735 -0.4396  0.5527
  940MOL0     H29671  10.461   9.408   4.602  2.8593  1.4671  0.1100
  940MOL0     H29672  10.570   9.385   4.878 -1.1722  0.0431  0.3834
  940MOL0     H29673  10.552   9.235   4.799 -1.8845  0.0339 -0.0653
  940MOL0     H29674  10.718   9.319   4.624 -0.8593 -4.6245  2.2780
  940MOL0     H29675  10.718   9.482   4.710 -0.9641 -0.4678 -2.0029
  940MOL0     H29676  10.801   9.375   4.905 -0.8716  3.3241 -1.4353
  940MOL0     H29677  10.837   9.221   4.807 -3.8595 -0.1704 -1.8300
  940MOL0     H29678  11.157   9.493   4.682 -0.2585 -1.9032 -0.7120
  940MOL0     H29679  11.379   9.596   4.729  2.9924  1.1555 -0.4574
  940MOL0     H29680  11.439   9.446   4.668  0.5522  2.1925 -0.9584
  940MOL0     H29681  11.498   9.510   4.826 -0.5324 -2.4243  1.2321
  940MOL0     H29682  11.482   8.921   5.071  0.9572  0.2722  0.2968
  940MOL0     H29683  11.672   8.800   5.204  0.5735  0.5298  1.5547
  940MOL0     H29684  11.851   8.724   5.383 -1.0032  1.2711 -0.6873
  940MOL0     H29685  11.890   8.756   5.221 -1.3201 -3.6880  0.5523
  940MOL0     H29686  12.092   8.696   5.296 -1.3810 -1.2159  0.5047
  940MOL0     H29687  12.101   8.874   5.334  0.5418  0.5102  2.3372
  940MOL0     H29688  12.042   8.624   5.505  2.9099 -0.5064  1.6311
  940MOL0     H29689  11.996   8.789   5.559  0.6591 -1.1490  2.1339
  940MOL0     H29690  12.230   8.864   5.537  1.8138 -0.1622 -0.6874
  940MOL0     H29691  12.283   8.705   5.498  2.0113  0.0693  3.6589
  940MOL0     H29692  12.134   8.797   5.745  0.8656  0.5885 -0.7955
  940MOL0     H29693  12.171   8.628   5.717 -1.3948  1.1805  2.2188
  940MOL0     H29694  12.416   8.703   5.708  0.0080 -0.0843  1.2930
  940MOL0     H29695  12.334   8.679   5.863 -1.3100 -0.8951 -0.2114
  940MOL0     H29696  12.281   8.938   5.861 -1.2195 -1.7088  0.0131
  940MOL0     H29697  12.365   8.943   5.704  3.5665 -0.3941  0.3068
  940MOL0     H29698  12.498   8.859   5.973 -1.2370 -0.2847  0.3949
  940MOL0     H29699  12.472   9.016   5.949  2.4574 -1.2929  3.8267
  940MOL0     H29700  11.818   9.168   5.342 -0.7694  2.0452 -1.0928
  940MOL0     H29701  11.634   9.292   5.229 -2.4868  1.2030 -4.5801
  940MOL0     H29702  11.185   9.216   5.087  0.4161 -2.1068 -1.6764
  940MOL0     H29703  10.975   9.269   5.003  0.3794  0.1655  0.5247
  940MOL0     H29704   9.068   9.793   4.861 -0.6696  1.2209 -0.1024
  940MOL0     H29705   8.834   9.842   4.844 -1.1749 -0.0191  0.3070
  940MOL0     H29706   8.439   9.725   4.650 -1.5257  1.8199 -1.8165
  940MOL0     H29707   8.209   9.806   4.598  0.9831  1.1641  0.6371
  940MOL0     H29708   7.907   9.757   4.886 -0.7543 -0.2774 -1.1885
  940MOL0     H29709   7.951   9.923   4.941 -1.4872  0.7758  0.2309
  940MOL0     H29710   7.817   9.989   4.740  2.5335 -0.7837 -1.8771
  940MOL0     H29711   7.719   9.913   4.874 -1.9889 -0.9380 -1.0540
  940MOL0     H29712   7.797   9.803   4.603  2.0535  1.2988  2.5117
  940MOL0     H29713   7.760   9.690   4.727  4.3452  0.9886 -0.5538
  940MOL0     H29714   7.535   9.802   4.771  2.4383 -3.2432  0.2242
  940MOL0     H29715   7.556   9.750   4.604  2.7639 -0.6957 -0.7412
  940MOL0     H29716   7.500  10.152   4.570 -3.1116 -1.0995  0.0470
  940MOL0     H29717   8.146   9.899   5.005  2.8313 -0.4581  3.5208
  940MOL0     H29718   8.300   9.879   5.169  0.9545 -1.5964  1.9944
  940MOL0     H29719   8.444   9.782   5.162  2.5940  2.0128 -0.7429
  940MOL0     H29720   8.453   9.943   5.100  1.6292 -1.0633 -2.3861
  941MOL0     O29721   5.880   6.934   2.510  0.2022  1.0839 -0.1055
  941MOL0     C29722   5.794   7.017   2.486 -0.2323 -0.8888 -0.6724
  941MOL0     O29723   5.677   6.992   2.423  0.3471  0.2199  0.0516
  941MOL0     C29724   5.626   6.864   2.420  0.0548 -0.1706 -0.4101
  941MOL0     C29725   5.607   6.790   2.540  0.9098  0.5033 -0.1629
  941MOL0     C29726   5.521   6.670   2.540  0.6453  0.0913 -0.0134
  941MOL0     C29727   5.474   6.630   2.414 -0.6768  0.3515  0.7047
  941MOL0     O29728   5.406   6.515   2.381 -0.2826  0.3188  0.3109
  941MOL0     C29729   5.363   6.426   2.487 -0.3530  0.3177 -0.0902
  941MOL0     C29730   5.323   6.300   2.415 -0.3959  0.4475 -0.1695
  941MOL0     C29731   5.249   6.202   2.500 -0.1483  0.2214 -0.3332
  941MOL0     C29732   5.097   6.215   2.508 -0.1437  1.7600 -0.2237
  941MOL0     C29733   5.045   6.148   2.639  0.5416 -0.0896  0.8467
  941MOL0     C29734   4.892   6.146   2.636 -0.1683  0.4764 -0.3508
  941MOL0     C29735   4.835   6.089   2.768  0.9087  0.7993  0.7621
  941MOL0     C29736   4.871   6.156   2.904  0.4907 -0.2464  0.2172
  941MOL0     N29737   4.778   6.116   3.006  0.2608  0.3583  0.2691
  941MOL0     C29738   4.650   6.169   3.016 -0.6110 -0.3516 -0.1801
  941MOL0     C29739   4.593   6.087   3.114 -0.2786 -0.7095  0.5717
  941MOL0     C29740   4.465   6.095   3.180  1.2079  0.3174 -0.1943
  941MOL0     C29741   4.457   6.202   3.289  0.0128 -0.2653  0.3701
  941MOL0     C29742   4.556   6.175   3.404 -0.5875  0.0818 -0.0819
  941MOL0     C29743   4.515   6.244   3.533  0.0097  0.1084  0.5636
  941MOL0     O29744   4.468   6.376   3.507  0.0817 -0.2616  0.5167
  941MOL0     C29745   4.565   6.473   3.537  0.0955  0.2126  0.6192
  941MOL0     C29746   4.638   6.536   3.434  0.4531  0.1086  0.8840
  941MOL0     C29747   4.723   6.647   3.465  0.2985  0.8096  0.0802
  941MOL0     C29748   4.782   6.725   3.355 -0.0653 -0.3222 -0.2500
  941MOL0     C29749   4.737   6.682   3.604  0.0692 -0.1139 -0.9622
  941MOL0     C29750   4.842   6.779   3.653 -0.0024  0.7794  1.3824
  941MOL0     O29751   4.957   6.791   3.583 -0.2149  0.5776  0.6866
  941MOL0     C29752   5.059   6.874   3.627 -1.0790  0.1472 -0.0464
  941MOL0     C29753   5.106   6.869   3.760  0.0067  0.2123  0.4523
  941MOL0     C29754   5.211   6.944   3.802  0.4332  0.1703 -0.5338
  941MOL0     C29755   5.276   7.034   3.713  0.4562  0.2398 -0.0504
  941MOL0     O29756   5.369   7.120   3.756 -0.3907 -0.0548 -0.2120
  941MOL0     C29757   5.495   7.064   3.774 -0.9753 -0.2046  0.0418
  941MOL0     C29758   5.618   7.167   3.763 -0.6081  1.0800 -0.0654
  941MOL0     C29759   5.750   7.088   3.772  0.8010  0.4852  0.4826
  941MOL0     C29760   5.797   7.055   3.918 -0.0354 -0.7283  0.9049
  941MOL0     C29761   5.934   6.991   3.906 -0.3538 -0.8080  0.1649
  941MOL0     C29762   6.013   7.011   4.033  0.4046 -1.1104 -0.2460
  941MOL0     C29763   6.162   6.981   4.029  0.2170  0.4376 -0.5831
  941MOL0     C29764   6.222   7.053   4.144  0.4047 -0.1795 -0.7745
  941MOL0    Cl29765   6.227   7.230   4.105  0.0702 -0.2256 -0.0789
  941MOL0     C29766   5.231   7.046   3.582  0.6416  0.2180 -0.0676
  941MOL0     C29767   5.122   6.966   3.539 -0.7323  0.4612 -0.8204
  941MOL0     O29768   4.817   6.834   3.760 -0.1492  0.6660 -0.1854
  941MOL0     C29769   4.661   6.620   3.700  0.0578 -0.3152 -0.2108
  941MOL0     C29770   4.590   6.504   3.666  0.3166  0.3663  0.0556
  941MOL0     N29771   4.692   5.997   3.162  0.2243  0.5633  0.1239
  941MOL0     N29772   4.802   6.022   3.097 -0.1347  0.6263  0.2841
  941MOL0     C29773   5.502   6.702   2.298 -0.0315 -0.3495 -0.7471
  941MOL0     C29774   5.580   6.811   2.297  0.3233  0.4620  0.4735
  941MOL0     C29775   5.849   7.153   2.501  0.4669  0.8654  0.3132
  941MOL0     C29776   5.980   7.180   2.557  0.8038  0.2445 -0.0679
  941MOL0     C29777   6.017   7.312   2.575 -0.8124  0.3487 -0.6834
  941MOL0     C29778   5.939   7.422   2.532 -0.0466 -0.4880 -0.1292
  941MOL0     O29779   5.979   7.552   2.541  0.3803  0.2866  0.5569
  941MOL0     C29780   6.056   7.603   2.651 -0.7303  0.0448 -0.8851
  941MOL0     C29781   6.141   7.719   2.606 -0.8123 -0.9287  0.0463
  941MOL0     C29782   6.264   7.743   2.698 -0.1650 -0.7347  0.6871
  941MOL0     C29783   6.340   7.858   2.645  0.1879 -0.7172 -0.5089
  941MOL0     C29784   6.457   7.871   2.728  0.2847 -0.8077  0.1090
  941MOL0     C29785   6.545   7.870   2.811 -0.7000  0.1723 -1.2304
  941MOL0     C29786   5.824   7.398   2.467  0.2475 -0.5719  0.6392
  941MOL0     C29787   5.768   7.268   2.465  0.7349  0.3432  0.1045
  941MOL0     C29788   5.638   7.253   2.389 -0.0810  0.5255  0.2687
  941MOL0     H29789   5.645   6.834   2.631  2.3505 -1.6105  0.3467
  941MOL0     H29790   5.513   6.602   2.625 -0.4650  0.7766  0.4598
  941MOL0     H29791   5.279   6.466   2.544  0.2816  1.1533  0.2869
  941MOL0     H29792   5.441   6.400   2.559  0.9720 -0.4960 -1.7481
  941MOL0     H29793   5.270   6.324   2.322  0.4847  1.8204 -0.3599
  941MOL0     H29794   5.411   6.249   2.374 -1.2824 -2.0392  0.8958
  941MOL0     H29795   5.272   6.104   2.458  1.7780  1.5777 -2.6671
  941MOL0     H29796   5.288   6.213   2.602 -1.6987  0.1835  0.2957
  941MOL0     H29797   5.086   6.323   2.521  0.0708  1.6557  0.9397
  941MOL0     H29798   5.048   6.174   2.420 -1.2775  0.1096  1.1011
  941MOL0     H29799   5.092   6.202   2.722  1.9819  0.2626 -0.1517
  941MOL0     H29800   5.086   6.047   2.651 -0.2011 -0.3095  1.6829
  941MOL0     H29801   4.853   6.248   2.636  0.0554  0.6435  2.7371
  941MOL0     H29802   4.862   6.086   2.550  1.1126 -1.9804  0.8359
  941MOL0     H29803   4.869   5.985   2.773  1.9171  1.1092  0.6773
  941MOL0     H29804   4.726   6.100   2.762  0.9847  0.9097 -0.7866
  941MOL0     H29805   4.973   6.137   2.938  0.8551  1.0470 -0.0920
  941MOL0     H29806   4.873   6.265   2.895  2.4698 -0.2382  0.3652
  941MOL0     H29807   4.601   6.251   2.965  0.1186 -0.7527 -1.6061
  941MOL0     H29808   4.437   6.001   3.228  0.6378  0.5606 -0.0432
  941MOL0     H29809   4.377   6.099   3.116 -1.3741 -1.0950  2.9660
  941MOL0     H29810   4.467   6.301   3.242 -2.9116 -1.2114 -2.6277
  941MOL0     H29811   4.352   6.195   3.318 -0.3370 -0.7176 -0.9382
  941MOL0     H29812   4.561   6.066   3.407 -0.5688  0.1005  1.6801
  941MOL0     H29813   4.651   6.213   3.366 -1.0060  1.2684  0.0043
  941MOL0     H29814   4.439   6.178   3.577 -0.0880  0.8860  1.5935
  941MOL0     H29815   4.604   6.248   3.596  0.7704  2.1503 -0.5796
  941MOL0     H29816   4.627   6.507   3.330  4.2378  1.1707  0.0212
  941MOL0     H29817   4.767   6.829   3.387 -0.8292 -0.1111 -1.2328
  941MOL0     H29818   4.746   6.702   3.254 -0.5966 -1.4097  0.1685
  941MOL0     H29819   4.890   6.711   3.349 -0.2558 -1.8037 -0.5579
  941MOL0     H29820   5.061   6.797   3.828 -1.9895  1.6571  0.7515
  941MOL0     H29821   5.247   6.934   3.904 -1.4935  0.2493  0.1866
  941MOL0     H29822   5.497   7.022   3.875  1.0367 -1.1551 -0.3528
  941MOL0     H29823   5.510   6.984   3.701  0.1842 -0.6214  0.7070
  941MOL0     H29824   5.609   7.208   3.662 -2.3601 -1.8805 -1.2443
  941MOL0     H29825   5.613   7.243   3.842 -2.4643  1.1576 -0.2118
  941MOL0     H29826   5.830   7.148   3.727  0.6181 -0.2868 -0.9011
  941MOL0     H29827   5.741   6.996   3.713  0.7865 -0.6804  2.2199
  941MOL0     H29828   5.732   6.976   3.958 -2.2817 -1.1080 -2.9284
  941MOL0     H29829   5.800   7.149   3.974 -1.5673 -0.4189  0.5371
  941MOL0     H29830   5.931   6.886   3.876 -0.9491 -0.2993 -1.6488
  941MOL0     H29831   5.989   7.047   3.831 -0.7215  0.9340  1.1205
  941MOL0     H29832   5.967   6.960   4.118  0.2212 -1.7597 -0.7280
  941MOL0     H29833   6.001   7.117   4.058  0.8626 -1.1099 -0.0168
  941MOL0     H29834   6.218   7.010   3.939 -0.0034  0.7093 -0.6341
  941MOL0     H29835   6.177   6.873   4.029  0.1818  0.3273 -3.8771
  941MOL0     H29836   6.325   7.017   4.153  0.7625  0.9723  0.0952
  941MOL0     H29837   6.166   7.042   4.238 -0.9351  0.3541 -1.4804
  941MOL0     H29838   5.273   7.125   3.521 -0.1374  1.2015  0.6244
  941MOL0     H29839   5.082   6.984   3.440 -1.9388  0.4555 -0.3521
  941MOL0     H29840   4.657   6.639   3.807  0.0006  2.2447 -0.5967
  941MOL0     H29841   4.543   6.460   3.753 -0.8716  1.2028 -0.1410
  941MOL0     H29842   5.452   6.679   2.205 -0.6137  0.5935 -0.6756
  941MOL0     H29843   5.608   6.872   2.212  0.4882  0.7575  0.7341
  941MOL0     H29844   6.049   7.106   2.595  1.0297 -0.3509 -1.5627
  941MOL0     H29845   6.109   7.319   2.632 -1.2256 -0.3133  0.0846
  941MOL0     H29846   5.981   7.639   2.723  1.1575  2.0373  0.2171
  941MOL0     H29847   6.115   7.539   2.717 -0.0913  0.8974 -0.6038
  941MOL0     H29848   6.076   7.801   2.577 -2.2035 -2.4734 -1.4465
  941MOL0     H29849   6.186   7.683   2.513 -1.7070 -1.8142 -0.0672
  941MOL0     H29850   6.219   7.758   2.797 -0.6976  2.4021  0.0648
  941MOL0     H29851   6.340   7.664   2.706  2.7119  1.0607 -4.1643
  941MOL0     H29852   6.290   7.955   2.647 -0.1377 -0.8887 -0.2589
  941MOL0     H29853   6.374   7.839   2.543 -0.9171 -3.7127 -0.4183
  941MOL0     H29854   6.622   7.874   2.886 -1.6383  0.2230 -0.2356
  941MOL0     H29855   5.762   7.485   2.445  2.1985  1.0281  1.1402
  941MOL0     H29856   5.569   7.193   2.449 -2.0088  2.8934  0.6073
  941MOL0     H29857   5.587   7.346   2.363 -0.9171 -0.2680 -1.0690
  941MOL0     H29858   5.651   7.198   2.295 -2.4581 -0.1635  0.2610
  942MOL0     O29859   9.311   5.486   6.916  0.4065 -0.3725  0.1029
  942MOL0     C29860   9.238   5.575   6.868 -0.2351 -0.6130 -0.6449
  942MOL0     O29861   9.215   5.701   6.933  0.2017  0.2247  0.3098
  942MOL0     C29862   9.288   5.744   7.047 -0.4540  0.9603  0.2162
  942MOL0     C29863   9.353   5.672   7.136  0.3790 -0.3583 -1.0360
  942MOL0     C29864   9.429   5.736   7.239 -0.4017 -0.1840 -0.6377
  942MOL0     C29865   9.445   5.881   7.241 -1.0029  0.3186 -0.3501
  942MOL0     O29866   9.517   5.955   7.322 -0.2563 -0.1711 -0.3068
  942MOL0     C29867   9.620   5.899   7.405  0.7604  0.6514  1.4888
  942MOL0     C29868   9.656   6.012   7.504  0.3547  0.4049 -0.4231
  942MOL0     C29869   9.794   6.005   7.567 -0.7754 -0.2587  0.0739
  942MOL0     C29870   9.848   6.139   7.619 -0.2706  0.2172  0.6425
  942MOL0     C29871   9.991   6.133   7.686 -1.3596 -0.2081  0.1777
  942MOL0     C29872  10.106   6.124   7.577  0.5406  0.3155  0.3754
  942MOL0     C29873  10.245   6.084   7.612  0.2783  0.4048 -0.1458
  942MOL0     C29874  10.348   6.121   7.504  0.8907 -0.3933 -0.5983
  942MOL0     N29875  10.485   6.131   7.553 -0.3956  0.0417 -0.4534
  942MOL0     C29876  10.530   6.175   7.684 -0.4271  0.3171  0.6444
  942MOL0     C29877  10.667   6.182   7.673  0.3000 -0.2487 -0.4408
  942MOL0     C29878  10.755   6.248   7.771  0.6339 -0.9470  0.1282
  942MOL0     C29879  10.865   6.161   7.836  0.3147 -0.9755 -0.3092
  942MOL0     C29880  10.993   6.136   7.756 -0.1599  0.3373 -0.1979
  942MOL0     C29881  11.078   6.267   7.748 -0.0619  0.0362  0.4865
  942MOL0     O29882  11.117   6.317   7.878  0.0711 -0.2133 -0.1067
  942MOL0     C29883  11.250   6.298   7.911 -0.0566  0.4207 -0.2422
  942MOL0     C29884  11.323   6.406   7.918  0.6802  0.4589 -0.4207
  942MOL0     C29885  11.460   6.404   7.936 -0.3429 -0.3679 -1.1623
  942MOL0     C29886  11.524   6.537   7.920  0.3977 -0.6334 -0.1017
  942MOL0     C29887  11.531   6.284   7.957  0.3264  0.7914  0.0038
  942MOL0     C29888  11.678   6.263   7.987 -0.0082  0.3975  0.3019
  942MOL0     O29889  11.732   6.138   7.951  0.4184 -0.7265 -0.4804
  942MOL0     C29890  11.864   6.114   7.949  0.3893  1.0945  0.0761
  942MOL0     C29891  11.885   5.977   7.963 -0.6014  0.8226 -0.1690
  942MOL0     C29892  12.012   5.917   7.952 -0.5284  0.7450 -0.0811
  942MOL0     C29893  12.127   6.003   7.932 -0.6452 -0.3938  0.3589
  942MOL0     O29894  12.258   5.959   7.913 -0.2421  0.3945  0.2057
  942MOL0     C29895  12.291   5.836   7.841 -0.1627 -0.1813  0.4646
  942MOL0     C29896  12.432   5.827   7.811 -0.3906  0.7513  0.4741
  942MOL0     C29897  12.486   5.679   7.783 -0.9960  0.1002 -0.1953
  942MOL0     C29898  12.513   5.637   7.643  0.0540 -0.2321 -0.8372
  942MOL0     C29899  12.630   5.712   7.577  0.0862 -0.2943  0.0842
  942MOL0     C29900  12.720   5.622   7.501 -0.3453 -0.7562  0.1581
  942MOL0     C29901  12.654   5.566   7.375 -0.3203  0.4928 -1.1288
  942MOL0     C29902  12.618   5.657   7.262  0.3874  0.1796  0.9777
  942MOL0    Cl29903  12.761   5.713   7.160  0.1869 -0.3682 -0.1498
  942MOL0     C29904  12.107   6.132   7.931 -0.0850 -1.0074  0.2263
  942MOL0     C29905  11.977   6.194   7.930 -0.9970  0.7105 -0.1928
  942MOL0     O29906  11.748   6.357   8.035  0.5397  0.3872  0.3037
  942MOL0     C29907  11.457   6.164   7.949 -0.2902  0.3426  0.2246
  942MOL0     C29908  11.319   6.174   7.921  0.9171  0.7671  0.4304
  942MOL0     N29909  10.695   6.111   7.560  0.5238  0.7641  0.0369
  942MOL0     N29910  10.597   6.089   7.488  0.4380  0.0228  0.0157
  942MOL0     C29911   9.371   5.946   7.141  0.3441 -0.3805 -0.1396
  942MOL0     C29912   9.291   5.883   7.051  0.3072  0.4392 -0.4136
  942MOL0     C29913   9.163   5.543   6.743 -1.1110  0.4057  0.2110
  942MOL0     C29914   9.046   5.617   6.729 -0.2592  0.0014  0.9714
  942MOL0     C29915   8.950   5.591   6.626  0.1027 -0.1259 -0.9466
  942MOL0     C29916   8.965   5.474   6.545  0.6338  0.0485  0.0922
  942MOL0     O29917   8.862   5.455   6.454 -0.3015 -0.0648  0.2553
  942MOL0     C29918   8.868   5.330   6.380 -1.2001 -0.4197  0.3899
  942MOL0     C29919   8.839   5.203   6.457 -0.9833 -0.3122  0.3915
  942MOL0     C29920   8.710   5.223   6.545  0.2860 -0.2654 -0.0556
  942MOL0     C29921   8.579   5.189   6.465 -0.7247 -0.4544 -0.1364
  942MOL0     C29922   8.463   5.191   6.545  0.8806  0.6937  0.3673
  942MOL0     C29923   8.363   5.186   6.602  0.2368  0.0067  0.0848
  942MOL0     C29924   9.085   5.408   6.562  0.4179  0.4419  0.4595
  942MOL0     C29925   9.179   5.435   6.660 -0.2160 -0.0338  0.2750
  942MOL0     C29926   9.283   5.333   6.677  0.2172 -0.0337 -0.7050
  942MOL0     H29927   9.348   5.564   7.139 -2.4607 -0.2824  0.2932
  942MOL0     H29928   9.484   5.681   7.315  1.5053  2.1113 -0.2439
  942MOL0     H29929   9.706   5.868   7.345  0.6554  1.5464  0.8668
  942MOL0     H29930   9.580   5.811   7.457 -2.2641  1.6190  1.0347
  942MOL0     H29931   9.634   6.112   7.466 -1.4402  1.8524  3.8208
  942MOL0     H29932   9.586   6.009   7.588  1.4475 -0.1679  0.4794
  942MOL0     H29933   9.805   5.924   7.640 -1.8241  0.1437  0.6939
  942MOL0     H29934   9.863   5.975   7.488  2.0590  2.1016  1.4704
  942MOL0     H29935   9.861   6.219   7.545 -1.4015 -0.9825 -0.9344
  942MOL0     H29936   9.767   6.157   7.689 -0.2797 -1.1381  1.0215
  942MOL0     H29937   9.994   6.037   7.738  1.0396 -0.3759 -0.1903
  942MOL0     H29938  10.005   6.217   7.756 -0.9975 -0.8602  0.9032
  942MOL0     H29939  10.080   6.052   7.499  2.0827  0.3298 -0.1756
  942MOL0     H29940  10.111   6.228   7.543  1.1894  0.4892  0.9598
  942MOL0     H29941  10.256   5.978   7.638  1.9847  0.4199 -0.6991
  942MOL0     H29942  10.263   6.131   7.710 -2.5601 -1.5523  1.4623
  942MOL0     H29943  10.328   6.053   7.421 -1.7367 -0.0514 -0.3127
  942MOL0     H29944  10.321   6.219   7.464  1.1893  0.5587  1.3984
  942MOL0     H29945  10.479   6.210   7.773 -0.4330  1.3578  0.2457
  942MOL0     H29946  10.686   6.275   7.852  0.5507  1.7152 -0.7482
  942MOL0     H29947  10.791   6.340   7.725 -0.8421 -0.0353  0.7523
  942MOL0     H29948  10.886   6.207   7.933 -2.5990  1.0817 -0.5083
  942MOL0     H29949  10.821   6.063   7.859  0.1062 -1.1528 -1.4079
  942MOL0     H29950  11.057   6.060   7.803  1.2239  0.6872 -1.4599
  942MOL0     H29951  10.970   6.102   7.655  2.8041  1.0652 -1.1885
  942MOL0     H29952  11.166   6.257   7.685 -1.2397  1.0830 -1.4411
  942MOL0     H29953  11.025   6.347   7.694  0.1174 -1.0209 -1.3070
  942MOL0     H29954  11.281   6.503   7.894  1.6625  0.5787 -1.7376
  942MOL0     H29955  11.457   6.622   7.932  0.6701 -0.2808 -0.9914
  942MOL0     H29956  11.573   6.529   7.822 -3.3897 -1.0309 -2.1200
  942MOL0     H29957  11.605   6.551   7.992 -1.7046  0.4703  2.1671
  942MOL0     H29958  11.801   5.908   7.966  1.4200 -1.9502 -2.1793
  942MOL0     H29959  12.017   5.809   7.944 -2.8772  0.6436 -0.9377
  942MOL0     H29960  12.262   5.753   7.905  3.2039  0.4326  3.0915
  942MOL0     H29961  12.242   5.833   7.743 -0.4564  1.6440  0.5226
  942MOL0     H29962  12.458   5.878   7.718 -0.3145 -0.3986 -0.1503
  942MOL0     H29963  12.496   5.871   7.887 -1.7291  2.8784  0.4414
  942MOL0     H29964  12.418   5.596   7.805  0.6777 -1.5866 -1.0622
  942MOL0     H29965  12.579   5.668   7.839 -0.3475  0.3487 -1.2042
  942MOL0     H29966  12.417   5.654   7.595  0.4265  0.6036 -1.3112
  942MOL0     H29967  12.535   5.530   7.639 -0.6398 -0.4524  0.5336
  942MOL0     H29968  12.581   5.791   7.520  1.2039  0.6419  0.3864
  942MOL0     H29969  12.691   5.764   7.652  0.6233 -1.1587  0.2608
  942MOL0     H29970  12.748   5.531   7.555  3.3576 -2.3190 -3.8262
  942MOL0     H29971  12.812   5.676   7.473 -0.2722 -1.3693 -0.8292
  942MOL0     H29972  12.557   5.525   7.404  0.7298 -1.4929 -0.1677
  942MOL0     H29973  12.712   5.481   7.336  0.3113  0.2760  0.2146
  942MOL0     H29974  12.571   5.744   7.308  0.4890  1.6192 -1.4611
  942MOL0     H29975  12.544   5.614   7.194  0.7915 -0.1070  0.7112
  942MOL0     H29976  12.194   6.194   7.913 -1.6263  1.5916  1.1799
  942MOL0     H29977  11.970   6.302   7.924 -3.2272  0.5990 -0.7419
  942MOL0     H29978  11.506   6.066   7.943  2.1533  1.4735  0.3248
  942MOL0     H29979  11.261   6.082   7.926  3.1146 -0.7037  0.3387
  942MOL0     H29980   9.381   6.054   7.132  1.0623 -0.5305 -1.6294
  942MOL0     H29981   9.226   5.939   6.985  0.6131 -0.9401 -1.9526
  942MOL0     H29982   9.030   5.698   6.800  0.9672 -0.1543  1.4414
  942MOL0     H29983   8.867   5.656   6.598  0.5985 -0.9764 -5.0725
  942MOL0     H29984   8.803   5.336   6.292 -0.3368  0.0361 -0.2481
  942MOL0     H29985   8.969   5.329   6.338 -0.2425 -3.1856  2.5021
  942MOL0     H29986   8.922   5.186   6.526 -2.3892  1.5194  2.6774
  942MOL0     H29987   8.832   5.126   6.379  2.1569  2.4968 -3.0721
  942MOL0     H29988   8.727   5.160   6.633 -0.9892  2.9065  2.6558
  942MOL0     H29989   8.704   5.327   6.578  0.3360  0.0014 -0.8584
  942MOL0     H29990   8.591   5.091   6.419  1.6531 -0.7915  1.0574
  942MOL0     H29991   8.551   5.259   6.386 -0.6334  1.1050  1.1652
  942MOL0     H29992   8.275   5.174   6.661 -0.0077  2.0873  0.2178
  942MOL0     H29993   9.103   5.325   6.494  1.8670  0.8562  0.2896
  942MOL0     H29994   9.263   5.258   6.754  3.3468 -0.5552 -0.2728
  942MOL0     H29995   9.300   5.274   6.586 -0.2299 -2.1053  0.4937
  942MOL0     H29996   9.383   5.375   6.692  1.4985 -1.9655 -3.0938
  943MOL0     O29997   1.384   7.601   9.524 -0.4553  0.1764 -0.0850
  943MOL0     C29998   1.378   7.724   9.530 -0.7315 -0.5005  0.9430
  943MOL0     O29999   1.291   7.799   9.600 -0.4863  0.1342  0.6768
  943MOL0     C30000   1.208   7.741   9.692  0.0894 -0.9774 -0.3544
  943MOL0     C30001   1.117   7.639   9.674 -0.5974 -0.1349  0.6809
  943MOL0     C30002   1.026   7.603   9.765  0.1113  0.4164 -0.6439
  943MOL0     C30003   1.010   7.678   9.886  0.1064  0.0208  0.4230
  943MOL0     O30004   0.917   7.652   9.984 -0.0660  1.3446 -0.1024
  943MOL0     C30005   0.975   7.633  10.112 -0.2302  0.5309  0.2215
  943MOL0     C30006   0.869   7.594  10.213 -0.1601  1.2557  0.0443
  943MOL0     C30007   0.729   7.659  10.190  0.0169  0.2757 -0.8536
  943MOL0     C30008   0.657   7.676  10.325  1.0212  0.0999  0.4218
  943MOL0     C30009   0.524   7.755  10.337 -0.8140 -0.0691  0.6371
  943MOL0     C30010   0.413   7.717  10.224 -0.6924  0.7863 -0.4513
  943MOL0     C30011   0.295   7.820  10.207 -0.0531  1.0977  0.4630
  943MOL0     C30012   0.213   7.841  10.329  0.0314 -0.0791  0.2577
  943MOL0     N30013   0.149   7.719  10.374  0.6021  0.4008  0.2217
  943MOL0     C30014   0.182   7.644  10.477  0.1464  0.4829 -0.0300
  943MOL0     C30015   0.079   7.557  10.493 -0.8789 -0.6569  0.0963
  943MOL0     C30016   0.068   7.451  10.606 -0.0859  0.3296 -0.6604
  943MOL0     C30017  -0.025   7.498  10.734 -0.1043  0.3244  0.7209
  943MOL0     C30018  -0.181   7.490  10.698 -0.2860 -0.8432  0.6407
  943MOL0     C30019  -0.268   7.486  10.817 -1.0266  0.3056 -0.0896
  943MOL0     O30020  -0.251   7.359  10.874  0.3047  0.3683  0.1483
  943MOL0     C30021  -0.359   7.290  10.921 -0.1324 -0.1696  1.0517
  943MOL0     C30022  -0.337   7.153  10.940  0.6054  0.2416  0.1669
  943MOL0     C30023  -0.443   7.062  10.957  0.0498 -0.6273 -0.3139
  943MOL0     C30024  -0.409   6.916  10.955  0.4177  0.1891 -0.1812
  943MOL0     C30025  -0.578   7.118  10.965 -0.6083  0.6269 -0.2517
  943MOL0     C30026  -0.703   7.034  10.971  0.2973  0.0778 -0.3588
  943MOL0     O30027  -0.818   7.114  10.962  0.6639  0.2402  0.1504
  943MOL0     C30028  -0.943   7.074  11.005  0.5058 -0.2035 -0.7437
  943MOL0     C30029  -0.964   7.007  11.123 -0.5216 -0.2168 -0.2030
  943MOL0     C30030  -1.099   6.986  11.162 -0.5355  0.4277 -0.1413
  943MOL0     C30031  -1.203   7.004  11.079 -0.3660 -0.1063  0.3598
  943MOL0     O30032  -1.332   6.982  11.106  0.6412 -0.1226 -0.0089
  943MOL0     C30033  -1.373   6.951  11.242 -0.0222 -0.1821  0.2914
  943MOL0     C30034  -1.513   6.935  11.267  0.2295  0.4347  0.3649
  943MOL0     C30035  -1.542   6.920  11.418  0.5460 -0.9330 -0.3745
  943MOL0     C30036  -1.696   6.923  11.440  0.3909  0.5862  0.1240
  943MOL0     C30037  -1.743   6.909  11.588  0.3454 -0.5983 -0.2661
  943MOL0     C30038  -1.705   7.017  11.692  0.7414 -0.9975  0.0304
  943MOL0     C30039  -1.556   7.008  11.741  1.3611  0.0177  0.0112
  943MOL0     C30040  -1.516   7.092  11.867  0.5080 -0.0440 -0.0137
  943MOL0    Cl30041  -1.589   7.017  12.022  0.3541 -0.0393 -0.0001
  943MOL0     C30042  -1.181   7.074  10.953 -0.2219 -0.4256  0.1727
  943MOL0     C30043  -1.046   7.116  10.924 -0.0271  0.1993 -0.1422
  943MOL0     O30044  -0.707   6.909  10.987  0.0610 -0.0079  0.3514
  943MOL0     C30045  -0.591   7.257  10.968  0.2004 -0.7525 -0.1504
  943MOL0     C30046  -0.484   7.338  10.949 -1.2733 -0.2469 -0.1558
  943MOL0     N30047  -0.026   7.584  10.412 -0.2773 -0.3712 -0.5519
  943MOL0     N30048   0.022   7.685  10.343  0.5006  0.3429  0.5692
  943MOL0     C30049   1.092   7.787   9.904 -1.0076 -0.4021  0.2772
  943MOL0     C30050   1.203   7.810   9.817  0.0437  0.1265 -0.3408
  943MOL0     C30051   1.470   7.804   9.455  0.1248  0.0780 -1.1292
  943MOL0     C30052   1.486   7.944   9.485  0.3291 -0.4527 -0.4722
  943MOL0     C30053   1.570   8.026   9.420 -0.3191 -0.4476 -0.3735
  943MOL0     C30054   1.621   7.994   9.295  0.2374  0.3105  0.4937
  943MOL0     O30055   1.675   8.092   9.221 -0.6775 -0.5455  0.2343
  943MOL0     C30056   1.702   8.072   9.078  1.0040  0.3507 -0.6509
  943MOL0     C30057   1.741   8.217   9.029  0.1458  0.2933 -0.7497
  943MOL0     C30058   1.784   8.214   8.882  0.6106 -0.4908  0.0290
  943MOL0     C30059   1.802   8.360   8.849  0.1145 -0.8843  0.6101
  943MOL0     C30060   1.826   8.390   8.708  0.9861  0.1545  0.2498
  943MOL0     C30061   1.844   8.428   8.595 -0.9723  0.6307 -0.4053
  943MOL0     C30062   1.616   7.857   9.256 -0.2212 -0.0835  0.3846
  943MOL0     C30063   1.546   7.762   9.342 -0.8142 -0.1597  0.0957
  943MOL0     C30064   1.558   7.625   9.302  0.3582  0.1615  0.1146
  943MOL0     H30065   1.121   7.592   9.576 -2.9601  2.5690 -0.8584
  943MOL0     H30066   0.966   7.513   9.756  3.2936 -2.3641  2.5048
  943MOL0     H30067   1.019   7.728  10.143 -0.0161  0.7503 -0.7220
  943MOL0     H30068   1.060   7.565  10.104 -0.9394 -0.1541 -3.4293
  943MOL0     H30069   0.858   7.487  10.191  1.4777  1.2789 -1.1549
  943MOL0     H30070   0.906   7.607  10.315  0.4848  0.5676 -0.0927
  943MOL0     H30071   0.751   7.762  10.159 -1.1275  1.0008  0.6455
  943MOL0     H30072   0.680   7.605  10.109  3.5254 -0.6466 -2.5907
  943MOL0     H30073   0.622   7.576  10.352 -0.4228  0.8909  1.6262
  943MOL0     H30074   0.724   7.718  10.401  0.7734 -0.4325  0.9503
  943MOL0     H30075   0.546   7.862  10.331 -0.5645 -0.1853 -1.9352
  943MOL0     H30076   0.468   7.731  10.428  0.9051 -3.5514  0.9296
  943MOL0     H30077   0.466   7.711  10.129 -1.6641  0.6681 -1.0096
  943MOL0     H30078   0.383   7.612  10.234  1.2451  0.2080 -0.4303
  943MOL0     H30079   0.216   7.783  10.142 -0.9761  1.6456  1.2428
  943MOL0     H30080   0.335   7.915  10.170 -0.5656  1.0453 -0.2381
  943MOL0     H30081   0.282   7.891  10.397  2.0179 -0.5291 -1.3202
  943MOL0     H30082   0.136   7.917  10.311  2.7386  3.3618  1.8992
  943MOL0     H30083   0.268   7.659  10.541 -0.3754 -1.4931  1.2410
  943MOL0     H30084   0.171   7.427  10.636  0.3089  0.0175 -2.1737
  943MOL0     H30085   0.027   7.363  10.555  2.0308  0.0260 -2.0032
  943MOL0     H30086  -0.000   7.428  10.814 -1.1626 -1.7226 -0.6542
  943MOL0     H30087   0.008   7.599  10.763  2.9801 -0.1937 -0.6006
  943MOL0     H30088  -0.207   7.583  10.645 -0.5669 -1.9614 -1.2804
  943MOL0     H30089  -0.207   7.411  10.626  0.1866 -0.1962 -0.2635
  943MOL0     H30090  -0.216   7.557  10.882  0.4762 -1.8138  1.1616
  943MOL0     H30091  -0.368   7.515  10.785 -1.9864 -1.0628  1.5363
  943MOL0     H30092  -0.239   7.116  10.910 -1.0285 -2.2824 -2.6613
  943MOL0     H30093  -0.478   6.863  10.889 -2.3142 -1.1177  3.3755
  943MOL0     H30094  -0.420   6.866  11.052  2.4300 -2.1059 -1.0206
  943MOL0     H30095  -0.307   6.907  10.917  0.5223  1.5068 -0.2395
  943MOL0     H30096  -0.872   6.986  11.176 -1.1135  0.3787  1.0913
  943MOL0     H30097  -1.110   6.941  11.260  0.3168  0.6985  0.0810
  943MOL0     H30098  -1.327   6.853  11.254  0.6206 -0.7471 -4.6903
  943MOL0     H30099  -1.325   7.024  11.309  1.5952 -0.4953 -0.4936
  943MOL0     H30100  -1.573   7.017  11.226 -0.9409 -1.8048 -2.7225
  943MOL0     H30101  -1.547   6.853  11.204 -2.1305 -0.2844  2.4151
  943MOL0     H30102  -1.490   7.004  11.465 -1.5095  0.1159  0.1637
  943MOL0     H30103  -1.508   6.834  11.476  0.1829 -0.4094  0.6401
  943MOL0     H30104  -1.732   6.844  11.374  3.4817 -2.0573  1.3487
  943MOL0     H30105  -1.738   7.015  11.398  2.1302  1.2230 -0.3196
  943MOL0     H30106  -1.851   6.912  11.577  0.4348  1.7862 -1.0191
  943MOL0     H30107  -1.713   6.813  11.632 -1.0424 -0.0183  2.0885
  943MOL0     H30108  -1.767   7.023  11.781  2.3075 -1.2340  1.1866
  943MOL0     H30109  -1.710   7.115  11.642  1.8330 -1.2572 -0.6416
  943MOL0     H30110  -1.493   7.034  11.656 -0.3926 -0.5389 -1.5317
  943MOL0     H30111  -1.534   6.901  11.744  1.8661 -0.0455 -2.8566
  943MOL0     H30112  -1.534   7.200  11.862  0.4696 -0.0075  0.7076
  943MOL0     H30113  -1.410   7.067  11.877 -0.3259 -4.8188 -0.8112
  943MOL0     H30114  -1.263   7.104  10.889  1.9821 -0.1248 -2.7171
  943MOL0     H30115  -1.022   7.159  10.827  1.6169 -1.9128 -0.7378
  943MOL0     H30116  -0.686   7.307  10.984 -1.3911 -3.7228  0.4643
  943MOL0     H30117  -0.518   7.440  10.941  0.2034  0.1443 -2.7363
  943MOL0     H30118   1.073   7.856   9.985 -2.7678 -0.4311 -0.0796
  943MOL0     H30119   1.265   7.896   9.839  1.5364 -0.8893 -0.4620
  943MOL0     H30120   1.439   7.989   9.572 -0.2892 -1.3538 -0.3266
  943MOL0     H30121   1.570   8.133   9.440  0.1054 -0.6512  0.8073
  943MOL0     H30122   1.779   7.997   9.057  0.5784  0.2504 -1.9368
  943MOL0     H30123   1.612   8.020   9.043  0.2201 -1.2628  3.2029
  943MOL0     H30124   1.811   8.265   9.098 -1.5616  1.9202 -0.0450
  943MOL0     H30125   1.645   8.270   9.031  1.6955  3.6309 -3.6682
  943MOL0     H30126   1.883   8.169   8.864 -0.0598 -0.7051 -4.1435
  943MOL0     H30127   1.701   8.162   8.833 -1.5489  0.5738  2.3267
  943MOL0     H30128   1.878   8.408   8.911  1.7029 -0.6944 -1.3638
  943MOL0     H30129   1.706   8.410   8.866  0.9682  1.4764 -0.9396
  943MOL0     H30130   1.862   8.457   8.493  0.6238 -1.2268 -0.7138
  943MOL0     H30131   1.653   7.826   9.159  1.6835  1.4989  0.5257
  943MOL0     H30132   1.591   7.625   9.198  2.9455  2.6406  0.8120
  943MOL0     H30133   1.635   7.580   9.365  1.1927 -1.5226 -1.9614
  943MOL0     H30134   1.465   7.567   9.300 -0.4537  1.3781 -3.1431
  944MOL0     O30135   0.531   2.489  10.858 -0.0886 -0.3394 -0.5045
  944MOL0     C30136   0.559   2.404  10.940 -0.0872 -0.7592 -0.6298
  944MOL0     O30137   0.682   2.355  10.974 -0.0202 -0.7622  0.4162
  944MOL0     C30138   0.783   2.410  10.900 -1.1604  0.0733 -0.8989
  944MOL0     C30139   0.847   2.322  10.811 -0.6647 -0.7439  0.7920
  944MOL0     C30140   0.967   2.366  10.755  0.8159 -0.8873 -0.0559
  944MOL0     C30141   1.024   2.492  10.785  1.6200  0.0488 -0.4692
  944MOL0     O30142   1.141   2.527  10.726 -0.1085 -0.1122 -0.1442
  944MOL0     C30143   1.232   2.424  10.688 -0.0173 -1.0039 -0.0084
  944MOL0     C30144   1.377   2.484  10.678 -0.2499 -0.6165 -0.0342
  944MOL0     C30145   1.400   2.539  10.540 -0.1784 -0.0584 -0.2206
  944MOL0     C30146   1.523   2.625  10.544  0.4891  0.5876 -0.4461
  944MOL0     C30147   1.586   2.667  10.410 -0.6959 -0.0807  0.2489
  944MOL0     C30148   1.742   2.670  10.412  0.7746 -0.4153 -0.4346
  944MOL0     C30149   1.806   2.718  10.289  0.2909  0.4073  0.3158
  944MOL0     C30150   1.947   2.794  10.308  0.2862  1.3615  0.2755
  944MOL0     N30151   2.056   2.702  10.346 -0.6560 -0.3664 -0.2934
  944MOL0     C30152   2.178   2.740  10.397  0.0746  0.1445 -0.3753
  944MOL0     C30153   2.254   2.633  10.382 -0.1093  0.0013  0.2908
  944MOL0     C30154   2.395   2.616  10.410  1.0373 -0.6536 -0.6444
  944MOL0     C30155   2.480   2.722  10.356 -0.5676  0.1416  1.1558
  944MOL0     C30156   2.609   2.742  10.436 -0.7444 -0.3846 -0.0760
  944MOL0     C30157   2.723   2.768  10.340  0.4073 -0.2642  0.3018
  944MOL0     O30158   2.845   2.772  10.405  0.2086  0.2457 -0.3337
  944MOL0     C30159   2.957   2.816  10.331  0.7002  0.3621 -0.3417
  944MOL0     C30160   2.974   2.816  10.186  0.0708  0.7328  0.0102
  944MOL0     C30161   3.096   2.833  10.125 -0.7559 -0.2238 -0.7632
  944MOL0     C30162   3.096   2.834   9.970  0.2802  0.5771 -0.3918
  944MOL0     C30163   3.210   2.843  10.217 -0.5489  0.0943  0.4283
  944MOL0     C30164   3.350   2.849  10.170  0.3152 -0.2662 -0.0272
  944MOL0     O30165   3.384   2.779  10.064  0.3355 -0.4141  0.3487
  944MOL0     C30166   3.510   2.790  10.015  0.7183  0.0198  0.0457
  944MOL0     C30167   3.540   2.901   9.941  0.0116 -0.4428  0.1660
  944MOL0     C30168   3.673   2.925   9.916 -0.1273 -0.0824 -0.2309
  944MOL0     C30169   3.778   2.841   9.951 -0.9106  0.0805 -0.4737
  944MOL0     O30170   3.900   2.882   9.920 -0.4648 -0.2636  0.0928
  944MOL0     C30171   4.005   2.792   9.931 -0.2824  0.7759  0.5793
  944MOL0     C30172   4.098   2.825   9.815 -0.6568  0.6298  0.5937
  944MOL0     C30173   4.185   2.712   9.787  1.3773 -0.5762 -0.5007
  944MOL0     C30174   4.256   2.735   9.656 -0.3565  0.4952 -0.2143
  944MOL0     C30175   4.361   2.860   9.661  0.9916  0.1724  0.4528
  944MOL0     C30176   4.475   2.846   9.761  0.2181 -0.2357  0.8346
  944MOL0     C30177   4.580   2.938   9.701  0.4411 -0.6669  0.3942
  944MOL0     C30178   4.702   2.961   9.786 -0.3554  0.4613 -0.7593
  944MOL0    Cl30179   4.847   2.969   9.679  0.0952  0.5944 -0.3182
  944MOL0     C30180   3.751   2.723  10.018 -0.4992  0.4668 -0.1684
  944MOL0     C30181   3.614   2.700  10.047  0.5193 -0.4114 -0.0015
  944MOL0     O30182   3.424   2.913  10.240 -0.2485  0.2305 -0.4029
  944MOL0     C30183   3.180   2.874  10.353 -0.2703 -0.2327 -0.7768
  944MOL0     C30184   3.066   2.837  10.415  0.4597 -0.0251  0.6860
  944MOL0     N30185   2.181   2.527  10.330  0.0515 -1.2703 -1.2745
  944MOL0     N30186   2.063   2.575  10.302 -0.0577 -0.5781 -0.4601
  944MOL0     C30187   0.946   2.595  10.848 -0.0033  0.5628  0.6509
  944MOL0     C30188   0.834   2.540  10.921 -0.1686 -0.7432  0.0028
  944MOL0     C30189   0.431   2.355  11.011  0.1392 -0.9290  0.5455
  944MOL0     C30190   0.304   2.427  11.002 -0.4828 -0.5945  0.3023
  944MOL0     C30191   0.191   2.386  11.076  0.0575  0.4441  0.5254
  944MOL0     C30192   0.187   2.276  11.157  0.6565 -0.9984 -0.1399
  944MOL0     O30193   0.077   2.265  11.242  0.1684 -0.3175 -0.0946
  944MOL0     C30194   0.074   2.162  11.343  0.3089 -0.5112 -0.2502
  944MOL0     C30195  -0.016   2.238  11.446  0.2258  0.4189  0.4348
  944MOL0     C30196  -0.158   2.271  11.389  0.7601 -0.0599  0.2012
  944MOL0     C30197  -0.238   2.329  11.499  0.4364  0.8841  0.8078
  944MOL0     C30198  -0.379   2.350  11.450  0.1048 -0.3722 -0.5351
  944MOL0     C30199  -0.499   2.364  11.425  0.0027 -0.6165 -0.3040
  944MOL0     C30200   0.310   2.208  11.171 -0.6433 -0.2687 -0.3624
  944MOL0     C30201   0.431   2.239  11.093  0.5606  0.7106 -0.1021
  944MOL0     C30202   0.536   2.136  11.107 -0.2193  1.1879  0.0443
  944MOL0     H30203   0.796   2.229  10.791 -3.9255  1.3362 -1.4294
  944MOL0     H30204   1.014   2.293  10.689 -0.6043 -1.0721 -0.9071
  944MOL0     H30205   1.205   2.387  10.588  0.3357  1.3551 -1.0625
  944MOL0     H30206   1.238   2.344  10.762  1.6960 -0.4705  0.4667
  944MOL0     H30207   1.393   2.557  10.758 -0.5136 -0.8450  0.2304
  944MOL0     H30208   1.454   2.408  10.697 -1.8546 -1.9662  1.4533
  944MOL0     H30209   1.413   2.447  10.482 -0.8664 -0.3690  0.0993
  944MOL0     H30210   1.315   2.597  10.501  1.4678  0.2344 -3.7449
  944MOL0     H30211   1.504   2.709  10.612 -2.9522  1.7017 -2.5126
  944MOL0     H30212   1.593   2.558  10.592 -0.6898 -0.9189 -0.7464
  944MOL0     H30213   1.564   2.768  10.374  1.5112  0.8468  1.2890
  944MOL0     H30214   1.562   2.584  10.344  1.9522 -1.1126  0.4535
  944MOL0     H30215   1.763   2.733  10.499 -0.7261  2.2588 -1.8867
  944MOL0     H30216   1.777   2.569  10.438  0.5041  0.0559  1.9999
  944MOL0     H30217   1.738   2.787  10.237  1.8591  0.5505 -1.6538
  944MOL0     H30218   1.823   2.625  10.233 -1.8090 -0.5254  1.0968
  944MOL0     H30219   1.965   2.837  10.209 -2.3359 -1.1630 -1.4904
  944MOL0     H30220   1.942   2.871  10.386  4.3061  3.1187 -0.9537
  944MOL0     H30221   2.205   2.829  10.454 -0.5291  0.2346 -0.2305
  944MOL0     H30222   2.428   2.526  10.357  1.6217 -0.8703  0.0710
  944MOL0     H30223   2.407   2.603  10.518  0.1087 -1.2909 -0.6022
  944MOL0     H30224   2.500   2.704  10.250 -1.5903  0.9704  0.7963
  944MOL0     H30225   2.431   2.820  10.363  0.4103  0.5940  1.8061
  944MOL0     H30226   2.584   2.820  10.509 -1.8645 -0.9000  0.1150
  944MOL0     H30227   2.635   2.648  10.485 -0.4368  0.2377  0.9792
  944MOL0     H30228   2.720   2.687  10.268 -1.2510  0.4695 -0.5137
  944MOL0     H30229   2.712   2.856  10.276  1.7136  0.0915  0.5300
  944MOL0     H30230   2.894   2.798  10.116  0.7490  0.2944 -0.6764
  944MOL0     H30231   3.005   2.887   9.941  1.6890  3.7379  0.5371
  944MOL0     H30232   3.084   2.732   9.933 -2.7162  1.1647 -1.3083
  944MOL0     H30233   3.177   2.885   9.918  1.9299  0.2107  1.6903
  944MOL0     H30234   3.459   2.973   9.930 -0.8594 -0.5008  4.5928
  944MOL0     H30235   3.693   3.009   9.850 -3.5856 -0.5930 -2.1566
  944MOL0     H30236   4.060   2.799  10.026 -1.2277  1.1753  1.1132
  944MOL0     H30237   3.973   2.688   9.923 -1.1321  0.8392  2.6082
  944MOL0     H30238   4.038   2.846   9.725  1.4013  2.2522 -0.5016
  944MOL0     H30239   4.165   2.908   9.838  0.6988  0.9006 -3.4327
  944MOL0     H30240   4.131   2.619   9.766  1.0639 -0.3276 -0.8006
  944MOL0     H30241   4.254   2.694   9.870  0.9551  0.3193  0.0719
  944MOL0     H30242   4.185   2.745   9.573  1.0864  0.0594 -1.5515
  944MOL0     H30243   4.311   2.642   9.638 -0.5769  0.2098  0.5579
  944MOL0     H30244   4.396   2.880   9.559  1.5747  1.0356  0.8136
  944MOL0     H30245   4.303   2.949   9.688 -0.5812 -0.6189 -0.1920
  944MOL0     H30246   4.520   2.746   9.757  0.1958 -0.2522  0.9733
  944MOL0     H30247   4.446   2.869   9.864 -0.5262  0.4571  0.4760
  944MOL0     H30248   4.537   3.038   9.688  2.3444  0.2858  1.0789
  944MOL0     H30249   4.604   2.906   9.599  0.3039  0.0478  0.1279
  944MOL0     H30250   4.713   2.886   9.865 -0.9696  1.8886  0.7403
  944MOL0     H30251   4.682   3.053   9.842 -1.1437 -1.7988  3.0444
  944MOL0     H30252   3.829   2.659  10.059  1.0856  2.8485  0.7561
  944MOL0     H30253   3.589   2.614  10.108 -0.2300  1.2012  2.1333
  944MOL0     H30254   3.252   2.923  10.418 -3.7131  2.6264  1.2175
  944MOL0     H30255   3.045   2.866  10.518 -1.0893  0.4195  0.2763
  944MOL0     H30256   0.984   2.696  10.863 -0.7757  1.0449 -0.4996
  944MOL0     H30257   0.777   2.607  10.986 -0.3882  0.1268 -1.0561
  944MOL0     H30258   0.279   2.519  10.949 -1.1970 -0.2505  1.2086
  944MOL0     H30259   0.111   2.458  11.068  1.1899  1.5221 -2.3871
  944MOL0     H30260   0.037   2.065  11.311 -1.7336 -1.1117  3.4247
  944MOL0     H30261   0.174   2.135  11.380  1.7411 -1.9451 -4.5723
  944MOL0     H30262   0.033   2.331  11.473 -1.0696  1.0411  0.7098
  944MOL0     H30263  -0.026   2.178  11.537 -1.2903 -0.8040 -0.4818
  944MOL0     H30264  -0.146   2.335  11.301 -1.8985 -0.2814 -0.4007
  944MOL0     H30265  -0.214   2.183  11.356 -0.7337  0.9439 -0.0139
  944MOL0     H30266  -0.197   2.426  11.527 -0.3380  1.6621 -0.6086
  944MOL0     H30267  -0.235   2.262  11.586 -1.6915  0.4206  0.5813
  944MOL0     H30268  -0.601   2.359  11.393 -0.5070 -0.9642  1.3113
  944MOL0     H30269   0.314   2.114  11.226  0.4982  1.3918  2.6096
  944MOL0     H30270   0.630   2.190  11.123  0.2844  0.2023  0.4874
  944MOL0     H30271   0.528   2.064  11.189 -0.7957 -0.1111 -1.1056
  944MOL0     H30272   0.542   2.087  11.010  0.1945  1.9564 -0.3274
  945MOL0     O30273   6.025   9.163   8.797 -0.6075  0.3302  0.3171
  945MOL0     C30274   5.963   9.199   8.699 -0.8229  0.5841  0.6032
  945MOL0     O30275   6.021   9.267   8.600 -0.6872 -0.3182  1.2238
  945MOL0     C30276   6.157   9.298   8.616 -0.5248  0.0073 -0.3295
  945MOL0     C30277   6.199   9.421   8.668  0.2240 -0.1391  0.1241
  945MOL0     C30278   6.331   9.464   8.666  0.5703 -0.8984 -0.1897
  945MOL0     C30279   6.427   9.374   8.622  0.2186 -1.4499  0.5110
  945MOL0     O30280   6.555   9.404   8.637 -0.7948  0.4137  0.1792
  945MOL0     C30281   6.586   9.525   8.556 -0.4936  0.2038  0.3043
  945MOL0     C30282   6.743   9.510   8.528 -0.1812 -0.6687  0.1877
  945MOL0     C30283   6.777   9.602   8.403  0.3814  0.3593  0.6667
  945MOL0     C30284   6.927   9.609   8.364 -0.0080  0.2798 -0.5971
  945MOL0     C30285   6.958   9.713   8.256 -1.6988 -0.0315 -0.4949
  945MOL0     C30286   7.109   9.729   8.229 -0.6041 -0.1657  0.0632
  945MOL0     C30287   7.192   9.742   8.358 -0.4024 -0.2629 -0.2125
  945MOL0     C30288   7.341   9.753   8.331 -0.2023 -0.5261 -1.0223
  945MOL0     N30289   7.384   9.882   8.273 -0.1968 -0.4845 -0.0839
  945MOL0     C30290   7.424   9.997   8.340  0.8680 -0.0807  0.0649
  945MOL0     C30291   7.467  10.080   8.245  0.0907  0.8028  0.2247
  945MOL0     C30292   7.515  10.214   8.261 -0.0146 -0.0752 -0.5204
  945MOL0     C30293   7.413  10.297   8.347 -0.2207 -0.0070 -1.1690
  945MOL0     C30294   7.442  10.452   8.336 -0.5330 -0.9454  0.4895
  945MOL0     C30295   7.343  10.516   8.428  0.0257 -1.0325  0.6922
  945MOL0     O30296   7.365  10.494   8.568 -0.0191 -0.0439 -0.5896
  945MOL0     C30297   7.276  10.550   8.656  0.7375  0.1290 -0.9579
  945MOL0     C30298   7.313  10.534   8.791  0.6358  0.5403  0.4389
  945MOL0     C30299   7.248  10.594   8.901 -0.1860  0.5128 -0.2171
  945MOL0     C30300   7.318  10.564   9.033 -0.5451 -0.1075  0.3854
  945MOL0     C30301   7.139  10.680   8.875  0.3159 -0.3784  0.0116
  945MOL0     C30302   7.052  10.752   8.987  0.0387  0.5208 -0.2227
  945MOL0     O30303   6.931  10.783   8.946  0.8900  0.2232 -0.3196
  945MOL0     C30304   6.832  10.836   9.035  0.7084  0.3890  0.1807
  945MOL0     C30305   6.827  10.812   9.172 -0.8686 -0.3126  0.1792
  945MOL0     C30306   6.711  10.846   9.247  0.1681 -0.4497 -0.0262
  945MOL0     C30307   6.611  10.916   9.187  0.2467 -0.1259 -0.0178
  945MOL0     O30308   6.505  10.945   9.269 -0.3993 -0.2851 -0.2964
  945MOL0     C30309   6.404  11.038   9.219  0.5909  0.4710  0.2692
  945MOL0     C30310   6.284  11.032   9.306  0.5572 -0.0247  0.0707
  945MOL0     C30311   6.169  11.118   9.259 -0.5704 -0.2163 -0.5193
  945MOL0     C30312   6.052  11.064   9.327  0.3925  0.1711 -0.0465
  945MOL0     C30313   5.932  11.146   9.286 -0.2933 -0.2158  0.3409
  945MOL0     C30314   5.806  11.078   9.342 -0.2022 -0.2583 -0.2817
  945MOL0     C30315   5.759  10.945   9.271 -0.0150 -0.7504 -0.4337
  945MOL0     C30316   5.668  10.853   9.356  0.1019 -0.2558  0.1282
  945MOL0    Cl30317   5.543  10.952   9.452 -0.5394  0.7075 -0.0135
  945MOL0     C30318   6.620  10.956   9.050 -0.0296  0.2996 -0.3273
  945MOL0     C30319   6.727  10.916   8.974  0.4807  0.2573 -0.1057
  945MOL0     O30320   7.100  10.781   9.091  0.7855 -0.5595  0.0209
  945MOL0     C30321   7.108  10.708   8.738 -0.4823 -0.7584 -1.2038
  945MOL0     C30322   7.173  10.646   8.635 -0.2797  0.6360 -0.4675
  945MOL0     N30323   7.454  10.019   8.121 -0.5033 -0.7180 -0.3670
  945MOL0     N30324   7.407   9.899   8.138 -0.0260 -0.3635 -0.0446
  945MOL0     C30325   6.390   9.247   8.556  0.6684  0.0823 -0.7707
  945MOL0     C30326   6.256   9.217   8.563 -1.2006 -0.2369  0.8538
  945MOL0     C30327   5.827   9.160   8.684  0.1715  0.8242  0.2122
  945MOL0     C30328   5.743   9.125   8.796 -0.5406  0.6330 -0.3562
  945MOL0     C30329   5.607   9.090   8.779  0.9768 -0.2463  0.4819
  945MOL0     C30330   5.548   9.067   8.652 -0.0442  0.3176  0.4823
  945MOL0     O30331   5.421   9.038   8.632 -0.3842 -0.2587 -0.4901
  945MOL0     C30332   5.348   8.966   8.728 -0.2968  0.5503 -0.1325
  945MOL0     C30333   5.252   8.872   8.644 -1.0365 -0.0072 -0.4719
  945MOL0     C30334   5.114   8.934   8.643  0.4015 -0.6639  0.0106
  945MOL0     C30335   5.001   8.875   8.553  0.4195  0.1722  0.2196
  945MOL0     C30336   4.973   8.734   8.580 -0.4264  0.3704 -0.2895
  945MOL0     C30337   4.929   8.632   8.626  0.6820 -0.7915  0.1805
  945MOL0     C30338   5.627   9.088   8.541 -0.3007  0.1109 -0.4691
  945MOL0     C30339   5.762   9.136   8.556  0.6109  1.2358 -0.6100
  945MOL0     C30340   5.843   9.143   8.431 -0.8358  1.1591 -0.3422
  945MOL0     H30341   6.125   9.489   8.710  1.6576  1.5486  0.0082
  945MOL0     H30342   6.360   9.564   8.698  0.8018 -1.4222  1.2983
  945MOL0     H30343   6.552   9.615   8.608  0.0175  1.5083 -1.5284
  945MOL0     H30344   6.536   9.519   8.459  2.7529 -2.0559 -1.4522
  945MOL0     H30345   6.809   9.528   8.613 -0.0081  0.4222 -0.1608
  945MOL0     H30346   6.768   9.406   8.504 -4.5982 -1.6888 -0.9993
  945MOL0     H30347   6.715   9.556   8.326 -0.7917  2.4633  0.2836
  945MOL0     H30348   6.739   9.704   8.412  1.9943  1.0765 -0.1877
  945MOL0     H30349   6.980   9.634   8.456 -0.5097 -1.1194  0.1132
  945MOL0     H30350   6.950   9.506   8.335 -0.4548 -0.4262  1.3721
  945MOL0     H30351   6.915   9.810   8.286 -0.8101  0.0214  0.6564
  945MOL0     H30352   6.908   9.684   8.163 -1.9337 -0.7950 -0.1406
  945MOL0     H30353   7.161   9.659   8.162  1.8854  1.9875 -0.4202
  945MOL0     H30354   7.120   9.826   8.179 -0.9741 -0.3737 -0.4317
  945MOL0     H30355   7.187   9.663   8.433 -0.2677  2.5371  2.9423
  945MOL0     H30356   7.165   9.832   8.413 -0.8601 -0.4921 -0.0554
  945MOL0     H30357   7.388   9.758   8.430  0.2229  3.5298 -1.2726
  945MOL0     H30358   7.380   9.668   8.275  1.3683  0.0435 -0.8328
  945MOL0     H30359   7.425  10.033   8.443  1.0773  0.6359 -0.1815
  945MOL0     H30360   7.528  10.258   8.162  0.8372  0.7663 -0.0614
  945MOL0     H30361   7.612  10.213   8.312 -1.1913  1.0623  1.9249
  945MOL0     H30362   7.312  10.288   8.308 -1.0762  1.3103  0.5901
  945MOL0     H30363   7.405  10.257   8.449  0.2752 -2.1353 -1.9001
  945MOL0     H30364   7.546  10.476   8.358  0.8070 -2.9240 -2.8758
  945MOL0     H30365   7.420  10.495   8.237  0.7277 -3.9155 -1.2235
  945MOL0     H30366   7.344  10.624   8.408 -2.1006 -1.0421  0.3168
  945MOL0     H30367   7.242  10.487   8.399  0.2209 -1.4525  0.4156
  945MOL0     H30368   7.404  10.476   8.804  0.5624  0.5314  0.9373
  945MOL0     H30369   7.318  10.652   9.098  4.1799  0.2494  0.2856
  945MOL0     H30370   7.423  10.536   9.018 -0.6337  0.2422 -1.0611
  945MOL0     H30371   7.276  10.473   9.077  2.2454 -0.7897  1.8766
  945MOL0     H30372   6.911  10.763   9.220  0.0675  2.4971  1.6301
  945MOL0     H30373   6.707  10.822   9.352 -0.2555  4.2521  1.2397
  945MOL0     H30374   6.439  11.141   9.225  3.1642 -0.4248  3.8074
  945MOL0     H30375   6.366  11.013   9.119 -0.7259 -0.3456  0.9446
  945MOL0     H30376   6.247  10.929   9.304 -1.8235  0.7750 -0.6781
  945MOL0     H30377   6.314  11.053   9.409  1.1255  0.2240 -0.1460
  945MOL0     H30378   6.169  11.112   9.150 -0.5049 -1.1372 -0.4740
  945MOL0     H30379   6.183  11.222   9.290 -1.3111  0.6539 -2.8829
  945MOL0     H30380   6.060  11.061   9.436 -2.6310 -1.4747  0.2430
  945MOL0     H30381   6.047  10.960   9.293  1.1805 -0.5726  1.9443
  945MOL0     H30382   5.949  11.246   9.327  1.6656  0.4935 -1.9387
  945MOL0     H30383   5.915  11.168   9.180 -1.2388 -4.0880 -0.4422
  945MOL0     H30384   5.726  11.151   9.327 -0.6584 -0.4848  0.8975
  945MOL0     H30385   5.812  11.062   9.450 -2.4779  1.2459  0.1328
  945MOL0     H30386   5.849  10.889   9.245  0.7725 -0.1726  0.9069
  945MOL0     H30387   5.693  10.976   9.189 -1.4399  1.4223  1.4001
  945MOL0     H30388   5.728  10.800   9.431 -0.8620  0.3677  1.3759
  945MOL0     H30389   5.612  10.781   9.296  0.2034  1.7369 -2.5690
  945MOL0     H30390   6.544  11.021   9.007  0.5146  2.0146  1.1624
  945MOL0     H30391   6.733  10.935   8.868  1.4833  2.7270  0.3242
  945MOL0     H30392   7.034  10.783   8.713 -0.9106 -0.6942  0.1616
  945MOL0     H30393   7.131  10.672   8.538 -2.2719 -2.7095 -0.6587
  945MOL0     H30394   6.457   9.177   8.506  2.2887  0.3023  0.9614
  945MOL0     H30395   6.227   9.125   8.515 -0.6763 -0.3247  0.6963
  945MOL0     H30396   5.793   9.117   8.892  1.0765  0.4402 -1.1854
  945MOL0     H30397   5.539   9.082   8.863  0.9070 -2.0731  0.2905
  945MOL0     H30398   5.420   8.911   8.789 -0.1904 -1.0576 -1.6381
  945MOL0     H30399   5.297   9.043   8.787 -2.8908 -1.2996  0.1833
  945MOL0     H30400   5.249   8.770   8.682  0.5944  0.4001  0.8755
  945MOL0     H30401   5.286   8.864   8.541  0.8569 -1.0208  0.1883
  945MOL0     H30402   5.072   8.952   8.743  0.2837 -0.0876 -0.1413
  945MOL0     H30403   5.114   9.033   8.597  0.8248 -0.8695 -0.4426
  945MOL0     H30404   5.030   8.863   8.448  1.6607  1.3346  0.3974
  945MOL0     H30405   4.907   8.929   8.565 -0.4833 -1.8615  3.8770
  945MOL0     H30406   4.875   8.553   8.673  1.4410 -2.0457 -0.9830
  945MOL0     H30407   5.590   9.084   8.440 -0.2595  0.4229 -0.4979
  945MOL0     H30408   5.868   9.246   8.405  0.5041  0.2903 -2.8658
  945MOL0     H30409   5.939   9.091   8.447 -0.3024  1.0416 -3.3850
  945MOL0     H30410   5.785   9.093   8.353  1.1351  0.6605 -1.5697
  946MOL0     O30411   0.356   3.727   4.036  0.3074 -0.3753  0.2014
  946MOL0     C30412   0.259   3.753   4.108 -0.3312  0.5090  1.2464
  946MOL0     O30413   0.272   3.805   4.232 -1.0223  0.2452  0.1273
  946MOL0     C30414   0.396   3.793   4.291  0.0517  0.8149 -0.0620
  946MOL0     C30415   0.474   3.671   4.304  0.2830  0.3671  0.5506
  946MOL0     C30416   0.606   3.671   4.328  0.0729 -0.5837  0.2153
  946MOL0     C30417   0.678   3.786   4.372 -0.0223  0.4275 -0.5337
  946MOL0     O30418   0.813   3.781   4.398 -0.5329 -0.6171 -0.2402
  946MOL0     C30419   0.889   3.663   4.363 -0.3115 -0.2131 -0.4400
  946MOL0     C30420   1.031   3.663   4.425  0.1777 -0.4885  0.2596
  946MOL0     C30421   1.107   3.538   4.380 -0.6102  0.0953  0.4781
  946MOL0     C30422   1.110   3.497   4.231 -0.3205 -0.1629  0.2504
  946MOL0     C30423   1.234   3.404   4.203 -0.4126 -0.0912  0.7440
  946MOL0     C30424   1.225   3.263   4.272  0.3656 -0.5315 -0.0824
  946MOL0     C30425   1.311   3.157   4.210  0.1394  0.3588 -0.4629
  946MOL0     C30426   1.312   3.030   4.298  0.1156 -0.1758  0.0325
  946MOL0     N30427   1.416   2.935   4.254  0.7319 -0.2857 -0.0538
  946MOL0     C30428   1.539   2.914   4.321  0.5484  0.6913  0.6112
  946MOL0     C30429   1.618   2.867   4.221 -0.3738  0.4091 -0.4810
  946MOL0     C30430   1.753   2.813   4.241 -0.0357  0.1631 -0.4915
  946MOL0     C30431   1.870   2.899   4.180  0.1461 -1.4218  0.0638
  946MOL0     C30432   1.918   3.025   4.253 -0.1473  0.0056  0.5481
  946MOL0     C30433   2.021   3.104   4.171 -0.0736  0.1420  0.1633
  946MOL0     O30434   2.141   3.032   4.152 -0.3652 -0.1809 -0.1950
  946MOL0     C30435   2.253   3.102   4.115 -0.0707 -0.4490 -0.4880
  946MOL0     C30436   2.269   3.135   3.977 -0.9242  0.2588 -0.5882
  946MOL0     C30437   2.385   3.207   3.936 -0.0363 -0.5333 -0.2250
  946MOL0     C30438   2.401   3.221   3.785 -0.0583  0.6086  0.1736
  946MOL0     C30439   2.486   3.249   4.040  0.4537 -0.0982 -0.9532
  946MOL0     C30440   2.608   3.326   4.017 -0.8648 -0.0638  0.9254
  946MOL0     O30441   2.680   3.344   4.128 -0.1010  0.6663  0.4670
  946MOL0     C30442   2.800   3.406   4.121  0.8428  0.4407 -0.0984
  946MOL0     C30443   2.806   3.545   4.163 -0.5080  0.7480 -0.2541
  946MOL0     C30444   2.931   3.610   4.155  0.3561  0.2530  0.0118
  946MOL0     C30445   3.042   3.543   4.107  0.7614  0.6613 -0.0305
  946MOL0     O30446   3.167   3.605   4.105  0.0140  0.5361  0.0307
  946MOL0     C30447   3.171   3.715   4.017 -0.1897  0.3014 -0.4672
  946MOL0     C30448   3.311   3.778   4.008 -0.1734 -0.1987  0.2699
  946MOL0     C30449   3.431   3.679   4.003 -0.3477  0.0286 -0.1543
  946MOL0     C30450   3.565   3.758   3.998  0.0031 -0.6365  0.7914
  946MOL0     C30451   3.595   3.816   3.857 -0.6007 -0.8644  0.2757
  946MOL0     C30452   3.727   3.887   3.854 -0.1512 -0.8027  0.3323
  946MOL0     C30453   3.771   3.913   3.709 -0.9411 -0.7015  0.8302
  946MOL0     C30454   3.915   3.947   3.699 -0.4418  0.2441 -0.3900
  946MOL0    Cl30455   3.945   4.022   3.537 -0.0173 -0.1528 -0.0987
  946MOL0     C30456   3.042   3.413   4.059 -0.1933  0.8025 -0.2149
  946MOL0     C30457   2.923   3.344   4.075  0.3486 -0.0719  0.0925
  946MOL0     O30458   2.632   3.389   3.917  0.6437  0.1302  0.2527
  946MOL0     C30459   2.449   3.226   4.175  0.7303  0.2321  0.1131
  946MOL0     C30460   2.340   3.145   4.212 -1.0467 -0.1482 -0.1526
  946MOL0     N30461   1.546   2.850   4.103  0.1261  1.0385 -0.1662
  946MOL0     N30462   1.430   2.903   4.123 -0.2607  0.5474 -0.2502
  946MOL0     C30463   0.595   3.903   4.375 -0.5113 -0.8746 -0.2841
  946MOL0     C30464   0.460   3.906   4.333 -0.8729 -0.4683 -0.4184
  946MOL0     C30465   0.124   3.736   4.049  0.1433  0.1028 -0.7528
  946MOL0     C30466   0.110   3.773   3.913 -0.2593  1.0601 -0.1866
  946MOL0     C30467  -0.019   3.763   3.859 -1.1598 -0.0141 -0.7653
  946MOL0     C30468  -0.132   3.716   3.935 -0.0956 -0.2845 -0.2632
  946MOL0     O30469  -0.266   3.719   3.900 -0.5816  0.0558 -0.2186
  946MOL0     C30470  -0.327   3.758   3.775 -0.0871  0.3566  0.1086
  946MOL0     C30471  -0.463   3.824   3.806 -1.0239  0.0459  0.1178
  946MOL0     C30472  -0.575   3.723   3.854 -0.0153 -0.0897 -0.1995
  946MOL0     C30473  -0.713   3.795   3.863 -0.0663 -0.2706  0.5261
  946MOL0     C30474  -0.814   3.704   3.923 -0.7117 -0.7570  0.1778
  946MOL0     C30475  -0.901   3.637   3.968 -0.3004  0.1697  0.2836
  946MOL0     C30476  -0.105   3.679   4.068  0.9390  0.4418 -0.1214
  946MOL0     C30477   0.012   3.693   4.128 -0.5560 -0.1226 -0.7435
  946MOL0     C30478   0.025   3.664   4.278  0.2586  0.0724 -0.6193
  946MOL0     H30479   0.433   3.580   4.260 -1.3508  2.1508 -1.8425
  946MOL0     H30480   0.661   3.578   4.314 -0.0523 -1.0988  2.6726
  946MOL0     H30481   0.883   3.649   4.255  1.8977  0.5733 -0.6981
  946MOL0     H30482   0.842   3.571   4.399  0.8066 -1.9380 -3.1820
  946MOL0     H30483   1.086   3.755   4.402 -1.3250  0.9374  2.0590
  946MOL0     H30484   1.033   3.676   4.533  0.7058 -1.8503  0.4319
  946MOL0     H30485   1.214   3.552   4.402 -0.4654 -2.7138  1.9301
  946MOL0     H30486   1.064   3.463   4.447 -0.3392  0.6472  1.2858
  946MOL0     H30487   1.014   3.447   4.216 -1.0652  1.9849 -3.2775
  946MOL0     H30488   1.118   3.592   4.177  0.3079 -0.8133 -0.8351
  946MOL0     H30489   1.317   3.462   4.246 -0.1920 -0.3796  0.7138
  946MOL0     H30490   1.263   3.384   4.100 -1.3802 -3.1062  0.9450
  946MOL0     H30491   1.252   3.275   4.378 -0.4270 -0.1898  0.0843
  946MOL0     H30492   1.119   3.235   4.274  0.4659 -0.9192 -0.0369
  946MOL0     H30493   1.416   3.189   4.209  0.4817 -0.1647  3.4141
  946MOL0     H30494   1.271   3.132   4.111  1.3445 -0.9599 -0.6544
  946MOL0     H30495   1.317   3.050   4.406  2.5825 -0.3945  0.0152
  946MOL0     H30496   1.214   2.981   4.295  0.1622 -0.8758  3.9433
  946MOL0     H30497   1.560   2.914   4.428 -0.3267  4.0850  0.8876
  946MOL0     H30498   1.757   2.710   4.204  1.5585  0.1178 -0.2803
  946MOL0     H30499   1.783   2.794   4.345  0.1548  3.5028  0.1544
  946MOL0     H30500   1.958   2.836   4.167  0.1439 -1.6609  1.0937
  946MOL0     H30501   1.841   2.937   4.082 -2.2724 -0.2036  1.1674
  946MOL0     H30502   1.835   3.093   4.274 -0.3344  0.0431 -0.2664
  946MOL0     H30503   1.962   3.002   4.350  2.1080  0.9577 -0.1622
  946MOL0     H30504   1.978   3.122   4.072 -2.5487 -4.0000  0.2598
  946MOL0     H30505   2.043   3.200   4.220 -0.3446 -0.0201  0.6008
  946MOL0     H30506   2.191   3.090   3.917 -0.7363 -1.6818  0.5477
  946MOL0     H30507   2.317   3.167   3.740  1.2341 -2.9337  1.5861
  946MOL0     H30508   2.496   3.171   3.762  0.1258  0.4674  1.1708
  946MOL0     H30509   2.409   3.327   3.759 -0.8479  0.8379  0.8317
  946MOL0     H30510   2.718   3.598   4.196 -1.6684 -0.8691 -0.6215
  946MOL0     H30511   2.955   3.710   4.189  0.5552 -0.6114  2.6298
  946MOL0     H30512   3.136   3.688   3.917 -1.5330  0.3331 -0.0220
  946MOL0     H30513   3.107   3.788   4.068 -1.0703 -0.2938 -0.6964
  946MOL0     H30514   3.302   3.836   3.916 -2.5016 -1.5606 -0.4575
  946MOL0     H30515   3.318   3.847   4.092  0.2103  2.1678 -1.6094
  946MOL0     H30516   3.418   3.612   3.917  2.6583 -0.8263 -0.0287
  946MOL0     H30517   3.430   3.629   4.100  0.4477  0.9020  0.3051
  946MOL0     H30518   3.637   3.684   4.033  0.4637 -1.1815 -1.2207
  946MOL0     H30519   3.562   3.847   4.062  2.7028  1.7079 -2.0446
  946MOL0     H30520   3.590   3.742   3.776 -0.1833 -2.0270  1.2730
  946MOL0     H30521   3.526   3.898   3.838  0.7799  0.5445  1.0629
  946MOL0     H30522   3.799   3.816   3.895  0.2431 -1.5238 -1.5241
  946MOL0     H30523   3.721   3.974   3.920 -1.5172  1.5856 -2.6951
  946MOL0     H30524   3.715   3.998   3.667  1.9890  0.0574 -2.0086
  946MOL0     H30525   3.755   3.820   3.655  0.0995 -0.3389 -0.1471
  946MOL0     H30526   3.972   3.856   3.721 -1.7901 -0.2119  1.5501
  946MOL0     H30527   3.933   4.019   3.779 -4.0870  1.6742 -0.6324
  946MOL0     H30528   3.129   3.368   4.013  0.8664  1.7770  0.7714
  946MOL0     H30529   2.922   3.247   4.026 -0.9895 -0.6184  1.1452
  946MOL0     H30530   2.502   3.271   4.259  0.5150 -0.8410  0.8466
  946MOL0     H30531   2.315   3.132   4.317  0.4475  0.7743  0.3530
  946MOL0     H30532   0.632   3.996   4.417 -1.2572 -0.5772 -0.2597
  946MOL0     H30533   0.416   4.005   4.328  2.0763  0.9313 -0.4222
  946MOL0     H30534   0.198   3.810   3.862  0.0831  2.0508  1.0631
  946MOL0     H30535  -0.042   3.802   3.760 -3.1640  2.3317  0.5109
  946MOL0     H30536  -0.270   3.826   3.711 -0.7849 -1.6678 -2.8218
  946MOL0     H30537  -0.335   3.664   3.721  3.0276 -0.8881  1.5811
  946MOL0     H30538  -0.504   3.873   3.717 -0.7047 -0.1749 -0.1540
  946MOL0     H30539  -0.440   3.901   3.880 -1.4355  0.3533 -0.0692
  946MOL0     H30540  -0.579   3.637   3.786 -2.3022  0.3062 -0.6528
  946MOL0     H30541  -0.555   3.678   3.951 -1.9857 -2.4905 -0.8001
  946MOL0     H30542  -0.755   3.833   3.769  2.1423  2.2962  0.4654
  946MOL0     H30543  -0.697   3.877   3.933  1.5058  0.3728 -0.5386
  946MOL0     H30544  -0.981   3.570   3.989 -2.9770  3.0176 -0.1762
  946MOL0     H30545  -0.192   3.669   4.133  1.1467 -0.6567  0.0085
  946MOL0     H30546   0.112   3.604   4.305  0.3353  0.6357  0.4401
  946MOL0     H30547   0.038   3.763   4.323  2.0377  0.8494 -2.6909
  946MOL0     H30548  -0.057   3.613   4.330  2.9278 -0.4867  3.5284
  947MOL0     O30549   8.774   5.240   9.366  0.3260  0.3743  0.5363
  947MOL0     C30550   8.789   5.235   9.243 -0.4093  0.1216  0.1074
  947MOL0     O30551   8.909   5.215   9.182  0.5879  0.7478 -0.2507
  947MOL0     C30552   9.021   5.267   9.247  0.6480 -0.1232  0.2881
  947MOL0     C30553   9.140   5.191   9.240 -0.7460 -0.5469 -0.8834
  947MOL0     C30554   9.258   5.242   9.302  0.8280 -0.3086  1.1670
  947MOL0     C30555   9.272   5.378   9.331 -0.3557  1.3629 -0.6089
  947MOL0     O30556   9.405   5.415   9.351  0.3614  0.6435 -0.3900
  947MOL0     C30557   9.441   5.552   9.348  0.4991  0.3125  0.6321
  947MOL0     C30558   9.583   5.576   9.386 -0.2747 -0.4994 -0.0369
  947MOL0     C30559   9.631   5.724   9.372 -0.7505 -0.1091 -0.9383
  947MOL0     C30560   9.743   5.756   9.477 -0.2794  0.7109 -0.5558
  947MOL0     C30561   9.794   5.905   9.468  1.2358  0.1002 -0.0523
  947MOL0     C30562   9.912   5.915   9.368  0.4750 -1.2657  0.7935
  947MOL0     C30563  10.045   5.856   9.419 -0.1471 -0.4561 -1.0786
  947MOL0     C30564  10.113   5.968   9.507  0.2421 -0.6192  0.4934
  947MOL0     N30565  10.260   5.940   9.526 -0.2321 -0.5909 -0.1209
  947MOL0     C30566  10.321   5.837   9.594  0.1938 -0.4012 -0.2103
  947MOL0     C30567  10.456   5.865   9.592  0.0172 -0.0533  0.0271
  947MOL0     C30568  10.559   5.767   9.640 -0.1599 -0.7425 -0.8313
  947MOL0     C30569  10.697   5.842   9.633 -0.5228 -0.0436 -0.3458
  947MOL0     C30570  10.757   5.820   9.775  0.4817  0.5752 -0.7871
  947MOL0     C30571  10.900   5.866   9.779  0.2252 -0.5332  0.6135
  947MOL0     O30572  10.972   5.768   9.699  0.0340  0.1306  0.1050
  947MOL0     C30573  11.068   5.818   9.615  0.6922  0.8480  0.5165
  947MOL0     C30574  11.134   5.937   9.631 -1.3660 -0.3729  0.8767
  947MOL0     C30575  11.243   5.974   9.546  0.9636  0.3709 -0.2033
  947MOL0     C30576  11.304   6.103   9.587 -0.2484 -0.6054 -0.2357
  947MOL0     C30577  11.283   5.882   9.443  0.6772 -0.5445 -0.2471
  947MOL0     C30578  11.399   5.915   9.350  0.1358  0.1750 -0.2760
  947MOL0     O30579  11.406   5.855   9.225  0.1979 -0.3615 -1.3349
  947MOL0     C30580  11.511   5.894   9.147 -0.9896 -1.1508 -0.4846
  947MOL0     C30581  11.604   5.802   9.118 -0.5859  0.3991  0.9012
  947MOL0     C30582  11.719   5.843   9.056 -0.2514  0.0370 -1.0217
  947MOL0     C30583  11.745   5.972   9.009 -0.6372 -0.3855 -0.7546
  947MOL0     O30584  11.853   6.007   8.925  0.2522 -0.5338  0.3136
  947MOL0     C30585  11.954   5.915   8.906  0.6002  0.2579  0.3036
  947MOL0     C30586  12.061   5.970   8.806 -0.1961 -0.3493 -0.0437
  947MOL0     C30587  12.143   6.081   8.864  0.8967 -1.0647 -0.9912
  947MOL0     C30588  12.205   6.161   8.749 -0.2192 -0.6220  0.4202
  947MOL0     C30589  12.285   6.279   8.805 -0.1684  0.3924 -0.1195
  947MOL0     C30590  12.350   6.364   8.699  0.2542 -0.0931 -1.1345
  947MOL0     C30591  12.456   6.453   8.752  0.4521  0.4225 -0.7111
  947MOL0     C30592  12.523   6.550   8.651  0.3674 -0.0702  0.3758
  947MOL0    Cl30593  12.426   6.689   8.596  0.5448 -0.5583  0.2951
  947MOL0     C30594  11.653   6.071   9.053  1.0390  0.3695 -1.1731
  947MOL0     C30595  11.539   6.028   9.123 -0.3902  0.1830  0.6262
  947MOL0     O30596  11.489   5.980   9.395 -1.0985 -0.2895  0.2331
  947MOL0     C30597  11.204   5.763   9.419  0.6076 -0.2922  0.1086
  947MOL0     C30598  11.096   5.731   9.505 -0.5993 -0.0281 -0.3408
  947MOL0     N30599  10.472   5.973   9.512  0.5097 -0.1533  0.3234
  947MOL0     N30600  10.356   6.019   9.477  0.2909 -0.2404  0.4396
  947MOL0     C30601   9.156   5.460   9.325  0.1444 -0.1329  0.3874
  947MOL0     C30602   9.030   5.404   9.283 -0.5326 -0.6720 -1.0712
  947MOL0     C30603   8.667   5.250   9.151 -0.2873  0.0698 -0.0151
  947MOL0     C30604   8.682   5.302   9.023 -0.7294  0.2244 -0.2489
  947MOL0     C30605   8.581   5.318   8.931  0.0731  0.3589 -0.6742
  947MOL0     C30606   8.451   5.279   8.976  0.4160 -0.1049  0.6497
  947MOL0     O30607   8.357   5.287   8.875  0.2918  0.0803 -0.1863
  947MOL0     C30608   8.217   5.245   8.903 -0.5706  0.3145  0.6964
  947MOL0     C30609   8.190   5.100   8.851 -0.0647 -1.1335 -0.7639
  947MOL0     C30610   8.198   5.095   8.695  0.8944  0.2445 -0.7475
  947MOL0     C30611   8.186   4.950   8.635 -0.1764 -0.2509  0.1582
  947MOL0     C30612   8.074   4.875   8.693 -0.1750  0.2207  0.1797
  947MOL0     C30613   7.983   4.817   8.751 -0.3842  0.4041  0.4481
  947MOL0     C30614   8.437   5.223   9.101 -0.5539 -0.1211  0.7967
  947MOL0     C30615   8.540   5.219   9.193  1.1458  0.5994  0.2629
  947MOL0     C30616   8.499   5.162   9.329 -0.0215  1.1871 -0.4172
  947MOL0     H30617   9.146   5.092   9.195  0.9008 -1.9772  2.2173
  947MOL0     H30618   9.343   5.177   9.320 -1.9377 -3.5352  3.8037
  947MOL0     H30619   9.382   5.597   9.428  3.5098  1.0412  2.6272
  947MOL0     H30620   9.419   5.594   9.249 -1.6813  0.6675  1.2209
  947MOL0     H30621   9.600   5.545   9.489 -1.6681 -2.1159 -0.2477
  947MOL0     H30622   9.656   5.520   9.327  0.8145 -0.3297  1.1049
  947MOL0     H30623   9.657   5.768   9.275  0.8315  4.5593  1.3204
  947MOL0     H30624   9.545   5.783   9.405  0.0081  0.8905 -0.7125
  947MOL0     H30625   9.704   5.741   9.578 -0.3934 -0.6177 -0.7865
  947MOL0     H30626   9.829   5.689   9.469 -0.3773  0.8381 -4.3464
  947MOL0     H30627   9.831   5.945   9.562  1.8342  1.0145 -0.6592
  947MOL0     H30628   9.705   5.964   9.446 -0.4260 -1.7799  1.2491
  947MOL0     H30629   9.893   5.855   9.279  0.3330 -2.2942  1.5073
  947MOL0     H30630   9.925   6.021   9.343  3.1111 -1.3902  1.2604
  947MOL0     H30631  10.101   5.825   9.331 -1.1391  0.7714 -2.1776
  947MOL0     H30632  10.021   5.770   9.482 -0.5540 -0.0634 -0.6915
  947MOL0     H30633  10.099   6.067   9.461 -1.2947 -0.7796  0.5665
  947MOL0     H30634  10.056   5.962   9.600  2.3854 -2.0258  1.7922
  947MOL0     H30635  10.290   5.736   9.619 -0.1606 -0.2623 -0.0758
  947MOL0     H30636  10.557   5.683   9.570 -2.3763 -1.4919  0.0293
  947MOL0     H30637  10.547   5.722   9.739  2.4723  1.2403  0.5186
  947MOL0     H30638  10.757   5.791   9.556  0.9027 -1.0679  1.3553
  947MOL0     H30639  10.677   5.948   9.619 -1.4150  0.2056  2.4020
  947MOL0     H30640  10.693   5.871   9.847  0.2639 -1.2217  0.3666
  947MOL0     H30641  10.753   5.712   9.794  0.2256  0.5177 -1.1538
  947MOL0     H30642  10.895   5.966   9.735 -1.5562 -0.8542  0.0029
  947MOL0     H30643  10.941   5.868   9.881  0.4289 -2.1366  0.5971
  947MOL0     H30644  11.122   6.007   9.713  0.9161  0.7229  0.3633
  947MOL0     H30645  11.395   6.087   9.646 -1.5915  3.5780  3.5418
  947MOL0     H30646  11.237   6.162   9.650  0.2548 -0.8527  0.5461
  947MOL0     H30647  11.332   6.159   9.498  2.8287 -1.9994 -0.2737
  947MOL0     H30648  11.586   5.696   9.134 -0.3443  0.5022  1.9356
  947MOL0     H30649  11.789   5.764   9.032 -1.0980  0.0763 -4.0599
  947MOL0     H30650  11.995   5.879   9.001 -0.5162  0.4887  0.8876
  947MOL0     H30651  11.913   5.822   8.865  2.1486  0.9220 -3.0600
  947MOL0     H30652  12.119   5.879   8.789  0.0003 -0.1517 -0.4392
  947MOL0     H30653  12.020   5.993   8.707  0.5020 -0.7278 -0.4286
  947MOL0     H30654  12.210   6.035   8.938  0.8990 -1.1419 -1.0412
  947MOL0     H30655  12.070   6.140   8.920  0.9184 -2.7796  0.9773
  947MOL0     H30656  12.123   6.192   8.683 -1.3998 -4.4412 -0.1348
  947MOL0     H30657  12.271   6.107   8.681  1.9900 -1.5648  3.1378
  947MOL0     H30658  12.230   6.337   8.880  1.3144  1.3441  0.2964
  947MOL0     H30659  12.370   6.234   8.859  1.2689  0.7487 -1.9922
  947MOL0     H30660  12.274   6.428   8.652  2.0312  2.5070 -0.6976
  947MOL0     H30661  12.391   6.306   8.617  0.5963 -1.4779 -0.0156
  947MOL0     H30662  12.536   6.389   8.790 -0.9901  0.5424  2.9419
  947MOL0     H30663  12.423   6.507   8.841  3.3337 -0.0210  0.7286
  947MOL0     H30664  12.547   6.493   8.560  0.9946 -0.0539  0.5242
  947MOL0     H30665  12.619   6.585   8.689 -0.4712 -0.4745  3.0370
  947MOL0     H30666  11.666   6.175   9.028 -1.2636  0.9027 -0.4282
  947MOL0     H30667  11.470   6.104   9.159  0.2327  1.1262 -0.0988
  947MOL0     H30668  11.215   5.703   9.329  0.9683  0.9243 -0.6788
  947MOL0     H30669  11.046   5.637   9.488 -0.0291 -0.1349 -1.5093
  947MOL0     H30670   9.165   5.565   9.352  5.4612 -0.1983 -0.0645
  947MOL0     H30671   8.942   5.467   9.278 -0.4819 -0.5081 -0.0906
  947MOL0     H30672   8.778   5.338   8.987 -0.0981 -1.8072 -0.7389
  947MOL0     H30673   8.606   5.363   8.836 -3.3902 -0.5532 -2.1651
  947MOL0     H30674   8.184   5.240   9.007 -2.7727  2.5419  0.1781
  947MOL0     H30675   8.156   5.313   8.843  0.8756  0.3164 -0.8519
  947MOL0     H30676   8.087   5.077   8.882 -0.0980  1.9067  1.8864
  947MOL0     H30677   8.259   5.032   8.902  0.9265 -0.2069 -0.8369
  947MOL0     H30678   8.108   5.148   8.661 -0.7902 -2.1815 -0.3693
  947MOL0     H30679   8.294   5.138   8.665  1.8432 -1.4155 -0.2114
  947MOL0     H30680   8.279   4.897   8.656  2.0167  1.4752 -3.9718
  947MOL0     H30681   8.173   4.952   8.526 -1.3773  0.0025  0.2943
  947MOL0     H30682   7.896   4.776   8.797 -0.9154 -0.2915 -1.0855
  947MOL0     H30683   8.345   5.174   9.131  0.4111 -1.4401  1.6898
  947MOL0     H30684   8.501   5.242   9.404 -0.7401  2.3584 -1.6047
  947MOL0     H30685   8.400   5.117   9.326 -1.2440  3.6786 -0.2736
  947MOL0     H30686   8.574   5.087   9.357 -1.4739 -0.3666 -0.5460
  948MOL0     O30687  10.214  10.522   1.552 -0.0113  0.5447  0.3187
  948MOL0     C30688  10.157  10.429   1.597  0.4684  0.3213  0.2597
  948MOL0     O30689  10.210  10.309   1.651 -0.6113 -0.4761  0.1540
  948MOL0     C30690  10.343  10.308   1.684  0.6983 -0.5217 -0.6088
  948MOL0     C30691  10.384  10.290   1.814  0.7087 -0.0812 -0.4715
  948MOL0     C30692  10.517  10.277   1.854  0.2955  0.0962 -0.0633
  948MOL0     C30693  10.620  10.292   1.755  0.4688  0.1757 -0.2856
  948MOL0     O30694  10.754  10.284   1.772 -0.3017  0.3563 -0.4256
  948MOL0     C30695  10.820  10.260   1.904 -0.0567  0.8814  1.1207
  948MOL0     C30696  10.852  10.400   1.971 -0.7234  0.1198  0.0081
  948MOL0     C30697  10.919  10.395   2.113  0.0748 -0.6661  0.1141
  948MOL0     C30698  11.057  10.329   2.108  0.3898  0.2423 -0.8084
  948MOL0     C30699  11.130  10.324   2.244 -0.2878  0.2121  0.3749
  948MOL0     C30700  11.257  10.232   2.240 -0.0069  0.5412 -0.7386
  948MOL0     C30701  11.391  10.302   2.188 -0.0266  0.5565 -1.1158
  948MOL0     C30702  11.515  10.211   2.220  0.2160 -0.5347  0.6714
  948MOL0     N30703  11.530  10.113   2.109 -0.0020  0.5237 -0.3127
  948MOL0     C30704  11.641  10.099   2.029 -0.0976 -0.1220  0.1883
  948MOL0     C30705  11.628   9.978   1.962  0.0900 -0.5894 -0.9613
  948MOL0     C30706  11.730   9.905   1.882  0.7594  0.1135  0.3636
  948MOL0     C30707  11.866   9.985   1.861 -0.2789  0.4160 -0.7405
  948MOL0     C30708  11.978   9.913   1.778  0.0449 -2.2176 -0.0385
  948MOL0     C30709  12.068  10.016   1.711 -0.3318  0.8250 -0.0692
  948MOL0     O30710  12.135  10.091   1.817  0.0749 -1.1833 -0.1696
  948MOL0     C30711  12.219  10.201   1.788 -0.2044  0.2128 -0.5663
  948MOL0     C30712  12.276  10.219   1.661 -0.3932  0.9485 -0.0160
  948MOL0     C30713  12.366  10.322   1.632 -0.1058  0.4271 -0.4522
  948MOL0     C30714  12.428  10.332   1.488  0.6965  0.2434 -0.4847
  948MOL0     C30715  12.397  10.419   1.729 -0.4770  0.6276 -0.5351
  948MOL0     C30716  12.496  10.530   1.712 -0.1821 -0.4099  0.9925
  948MOL0     O30717  12.537  10.593   1.828 -0.4287 -1.0935 -0.2036
  948MOL0     C30718  12.621  10.701   1.823  0.0859 -0.5776  0.9414
  948MOL0     C30719  12.739  10.712   1.897 -0.9286  0.6175 -0.5823
  948MOL0     C30720  12.822  10.821   1.904  0.3547  0.1012 -0.4503
  948MOL0     C30721  12.786  10.931   1.819 -0.2393  0.0086  0.1350
  948MOL0     O30722  12.866  11.040   1.799 -0.5204  0.6565  0.9156
  948MOL0     C30723  12.931  11.096   1.919 -0.2439  0.3604  0.6325
  948MOL0     C30724  13.036  11.214   1.874  0.2470 -0.0623  0.1356
  948MOL0     C30725  13.172  11.136   1.854  0.5305  0.0746  0.2413
  948MOL0     C30726  13.294  11.232   1.868  1.0596 -0.4198  0.2089
  948MOL0     C30727  13.432  11.171   1.829  1.4195 -0.4966  0.2817
  948MOL0     C30728  13.551  11.256   1.832  0.7218  0.6707  0.2480
  948MOL0     C30729  13.589  11.330   1.958 -0.3499  0.4983  0.4569
  948MOL0     C30730  13.645  11.240   2.070  1.2045 -0.1539 -0.1541
  948MOL0    Cl30731  13.670  11.345   2.219  0.2892 -0.0410  0.3021
  948MOL0     C30732  12.674  10.920   1.752 -0.1566  0.4822  0.0922
  948MOL0     C30733  12.593  10.808   1.746 -0.4084 -0.9233 -0.2363
  948MOL0     O30734  12.542  10.557   1.604 -0.3539 -0.0942 -0.0531
  948MOL0     C30735  12.332  10.404   1.852 -0.3334 -0.4503  0.0809
  948MOL0     C30736  12.244  10.300   1.882  1.1008  0.1901 -0.6365
  948MOL0     N30737  11.512   9.917   2.013 -0.2943  0.4230  0.2379
  948MOL0     N30738  11.452  10.004   2.088 -0.5253  0.0443 -0.1424
  948MOL0     C30739  10.579  10.315   1.625  0.3639 -0.4967  0.3156
  948MOL0     C30740  10.442  10.313   1.592  1.0613  0.3682 -0.1003
  948MOL0     C30741  10.008  10.439   1.590 -0.1572  0.5086  0.0540
  948MOL0     C30742   9.949  10.503   1.481  0.4220 -0.0403  0.1538
  948MOL0     C30743   9.805  10.501   1.457  0.0001 -0.1616 -0.0659
  948MOL0     C30744   9.725  10.434   1.550 -0.5262 -0.0124 -0.3517
  948MOL0     O30745   9.583  10.428   1.529 -0.2852  0.8930 -0.5042
  948MOL0     C30746   9.514  10.539   1.468 -0.2586  0.3653 -0.1423
  948MOL0     C30747   9.459  10.505   1.331  0.0614 -0.0290 -0.1933
  948MOL0     C30748   9.389  10.626   1.259  0.3853  0.1710 -0.7488
  948MOL0     C30749   9.322  10.595   1.116  0.3248 -1.1971 -0.7433
  948MOL0     C30750   9.424  10.537   1.022  1.2240 -0.2765 -0.1045
  948MOL0     C30751   9.484  10.499   0.926 -0.4770 -0.9216 -1.1038
  948MOL0     C30752   9.790  10.365   1.659  0.6179 -0.6751  0.6514
  948MOL0     C30753   9.927  10.367   1.677 -0.2572 -1.0931  0.4734
  948MOL0     C30754   9.963  10.309   1.809 -0.4302  0.8360  0.7722
  948MOL0     H30755  10.314  10.284   1.896  2.2701 -1.1876  0.8416
  948MOL0     H30756  10.538  10.264   1.959  2.3169 -0.7400 -0.5152
  948MOL0     H30757  10.912  10.206   1.877 -0.1089  2.6542 -3.6515
  948MOL0     H30758  10.755  10.197   1.965 -1.1359  0.2351 -0.6090
  948MOL0     H30759  10.913  10.467   1.910 -1.8987  0.4698 -0.8052
  948MOL0     H30760  10.751  10.440   1.980 -1.0389 -0.9514  1.6555
  948MOL0     H30761  10.944  10.493   2.155  3.8154 -1.3754 -0.1662
  948MOL0     H30762  10.866  10.334   2.187  1.6015  2.0554  3.7368
  948MOL0     H30763  11.041  10.234   2.057  2.5641  0.4847 -2.0437
  948MOL0     H30764  11.122  10.379   2.036  1.8848  1.9952  1.5904
  948MOL0     H30765  11.072  10.288   2.329  0.6626 -2.7970 -0.1400
  948MOL0     H30766  11.163  10.425   2.271  1.0221 -0.0305 -0.2575
  948MOL0     H30767  11.265  10.189   2.340  1.2148  1.0303 -0.6098
  948MOL0     H30768  11.239  10.150   2.170 -2.1669 -0.5824  1.0021
  948MOL0     H30769  11.403  10.394   2.245  3.7035 -0.5402  0.1522
  948MOL0     H30770  11.383  10.335   2.084  0.4887  1.5135 -0.8559
  948MOL0     H30771  11.609  10.267   2.222  2.3263 -3.7854  0.9751
  948MOL0     H30772  11.501  10.153   2.312  0.0077 -4.2989 -1.5379
  948MOL0     H30773  11.716  10.177   2.021  1.3776 -1.6293 -1.8094
  948MOL0     H30774  11.683   9.888   1.784 -1.2190  1.5744  0.9889
  948MOL0     H30775  11.747   9.806   1.927  1.4700 -0.1292 -0.4065
  948MOL0     H30776  11.839  10.076   1.807  3.0526  3.1859  1.7861
  948MOL0     H30777  11.904   9.999   1.963 -3.2815 -2.4215  0.9366
  948MOL0     H30778  12.036   9.858   1.853  1.4809  0.9937  1.4344
  948MOL0     H30779  11.940   9.843   1.703  0.3045  0.1648 -2.5740
  948MOL0     H30780  12.156   9.971   1.663 -0.1142  1.0732  0.0919
  948MOL0     H30781  12.022  10.086   1.641 -0.1867 -1.8522 -3.0877
  948MOL0     H30782  12.259  10.145   1.582 -5.0977 -0.4495  1.9442
  948MOL0     H30783  12.537  10.340   1.487  0.6020  1.8627 -1.7259
  948MOL0     H30784  12.385  10.425   1.453  1.6626  1.9694  2.4868
  948MOL0     H30785  12.400  10.249   1.424 -1.8551  0.9304 -0.3397
  948MOL0     H30786  12.773  10.616   1.936  0.8348  0.0024 -3.3308
  948MOL0     H30787  12.914  10.814   1.961  0.7960  1.7578 -0.9234
  948MOL0     H30788  12.854  11.146   1.978  0.1213 -1.4787  2.8155
  948MOL0     H30789  12.964  11.017   1.987 -0.3885 -0.9217 -0.7255
  948MOL0     H30790  13.001  11.260   1.781  1.2554  0.2020 -0.1191
  948MOL0     H30791  13.039  11.291   1.951 -1.0409  1.3898 -1.2026
  948MOL0     H30792  13.174  11.090   1.754  0.3682  0.8328 -0.1165
  948MOL0     H30793  13.182  11.049   1.920 -1.3902  0.3807  0.9965
  948MOL0     H30794  13.298  11.254   1.975 -0.4043 -1.3366  0.4870
  948MOL0     H30795  13.274  11.325   1.814 -0.9379 -2.0068 -1.9946
  948MOL0     H30796  13.445  11.089   1.900  0.3700  0.2323  1.3487
  948MOL0     H30797  13.415  11.128   1.729 -1.1583 -1.4250  1.0358
  948MOL0     H30798  13.537  11.332   1.754  0.0698 -1.0143 -1.3312
  948MOL0     H30799  13.639  11.200   1.800 -0.2918 -0.4652 -0.6155
  948MOL0     H30800  13.494  11.374   1.991 -0.6349  0.0488  0.2324
  948MOL0     H30801  13.655  11.415   1.941 -2.6128  2.0622 -1.1765
  948MOL0     H30802  13.744  11.208   2.035  1.1666 -0.1624 -0.2537
  948MOL0     H30803  13.573  11.160   2.087  1.2213 -0.5632 -1.8104
  948MOL0     H30804  12.641  10.998   1.684  1.2002  0.8743 -0.1552
  948MOL0     H30805  12.502  10.820   1.688  0.5197  1.0502 -1.4146
  948MOL0     H30806  12.345  10.473   1.934 -0.5211 -0.5596  0.2056
  948MOL0     H30807  12.199  10.283   1.979 -0.9529  1.0984 -1.3838
  948MOL0     H30808  10.638  10.319   1.534 -1.9055  0.9482 -1.1900
  948MOL0     H30809  10.414  10.324   1.487 -0.0848 -0.1167  0.1432
  948MOL0     H30810  10.005  10.564   1.410  0.4871  1.4037  1.3967
  948MOL0     H30811   9.769  10.555   1.371  0.7022 -0.2994 -0.4561
  948MOL0     H30812   9.426  10.550   1.532 -0.7721 -1.2527 -0.5339
  948MOL0     H30813   9.568  10.633   1.459 -3.9858  2.5190 -4.4060
  948MOL0     H30814   9.386  10.425   1.349  2.6939 -2.2532  1.3888
  948MOL0     H30815   9.533  10.462   1.263 -0.2309 -1.9070  0.5933
  948MOL0     H30816   9.329  10.677   1.334  1.7114 -0.6516  0.9300
  948MOL0     H30817   9.468  10.700   1.241  1.2130  0.2693  2.7107
  948MOL0     H30818   9.267  10.681   1.078 -1.9959 -1.5353  1.5456
  948MOL0     H30819   9.256  10.508   1.130  0.1959 -1.6865 -3.8087
  948MOL0     H30820   9.535  10.473   0.835 -3.7755 -1.3694 -2.9705
  948MOL0     H30821   9.736  10.318   1.740  1.1632 -0.4276  1.1619
  948MOL0     H30822   9.999  10.206   1.800 -0.2641  1.0615 -2.1779
  948MOL0     H30823  10.045  10.363   1.858  1.2983 -0.9118 -0.0444
  948MOL0     H30824   9.877  10.312   1.876 -3.4289 -1.7964 -2.5989
  949MOL0     O30825   1.762   0.644   5.038 -1.1276 -0.5358 -0.2808
  949MOL0     C30826   1.704   0.621   4.932  0.7479  0.1728 -0.0577
  949MOL0     O30827   1.747   0.558   4.827  0.0099  0.0580  1.2982
  949MOL0     C30828   1.870   0.508   4.831 -0.7404 -1.0108 -0.8683
  949MOL0     C30829   1.903   0.383   4.898  0.9345  0.2793 -0.1050
  949MOL0     C30830   2.026   0.330   4.887 -0.3948 -0.3367 -0.2492
  949MOL0     C30831   2.125   0.406   4.814 -0.1878  0.0286 -0.2944
  949MOL0     O30832   2.257   0.376   4.801 -0.6414  0.1374 -0.0492
  949MOL0     C30833   2.305   0.240   4.807  0.3677  0.1617 -0.1772
  949MOL0     C30834   2.430   0.239   4.730 -0.4566 -0.2204  0.0424
  949MOL0     C30835   2.554   0.323   4.796  0.0824 -0.5645  0.0773
  949MOL0     C30836   2.685   0.295   4.726  0.5480 -0.3223 -0.0640
  949MOL0     C30837   2.791   0.400   4.763 -0.1930  0.4414  0.3945
  949MOL0     C30838   2.925   0.363   4.694 -0.2513 -0.4340 -0.4348
  949MOL0     C30839   3.035   0.466   4.742  0.0781 -0.2013 -0.3740
  949MOL0     C30840   3.159   0.442   4.661  0.6986  1.1595  0.4816
  949MOL0     N30841   3.254   0.554   4.671  0.0484 -0.7058 -0.5153
  949MOL0     C30842   3.380   0.552   4.720 -0.1408 -0.0756 -0.8564
  949MOL0     C30843   3.437   0.667   4.673 -0.1838  0.3967  0.2955
  949MOL0     C30844   3.573   0.711   4.710 -0.3029 -0.8806  0.7916
  949MOL0     C30845   3.583   0.759   4.857 -0.3823  0.1320  0.1042
  949MOL0     C30846   3.722   0.817   4.898 -0.1856  0.5690  0.1864
  949MOL0     C30847   3.818   0.702   4.916  0.3681 -0.3199  0.6069
  949MOL0     O30848   3.941   0.755   4.962 -0.2456  0.2395  0.7510
  949MOL0     C30849   4.032   0.669   5.012 -0.7881 -0.4127 -0.5181
  949MOL0     C30850   4.039   0.532   4.996  0.1266  0.4991  0.7251
  949MOL0     C30851   4.142   0.452   5.059  0.4576  0.4060 -0.2175
  949MOL0     C30852   4.126   0.304   5.044  0.2448  0.5751 -0.7182
  949MOL0     C30853   4.253   0.517   5.122  0.3722  0.3926 -0.2011
  949MOL0     C30854   4.378   0.442   5.181 -0.1314  0.2695  0.3679
  949MOL0     O30855   4.477   0.522   5.230 -0.3165 -0.1542 -0.1853
  949MOL0     C30856   4.597   0.465   5.271 -0.3837 -0.6411  0.0853
  949MOL0     C30857   4.654   0.345   5.232  0.5355  0.4778 -0.1365
  949MOL0     C30858   4.785   0.305   5.264 -0.2280 -0.4665 -0.3982
  949MOL0     C30859   4.867   0.382   5.342  0.7266 -0.3925 -0.5893
  949MOL0     O30860   4.997   0.346   5.376  1.0149 -0.0310  0.3824
  949MOL0     C30861   5.081   0.325   5.263 -0.2014 -0.7384 -0.2733
  949MOL0     C30862   5.135   0.180   5.285 -0.9357  0.2641  0.1093
  949MOL0     C30863   5.193   0.121   5.154 -0.1290  0.1817 -0.0402
  949MOL0     C30864   5.326   0.193   5.116  0.2710  0.1983 -0.3482
  949MOL0     C30865   5.378   0.135   4.984 -0.3184 -0.0406  0.1697
  949MOL0     C30866   5.510   0.209   4.945  0.6314  0.2715  0.5517
  949MOL0     C30867   5.623   0.189   5.041  0.0949  0.0846 -0.5734
  949MOL0     C30868   5.744   0.287   5.014  0.5129 -0.0019 -0.1152
  949MOL0    Cl30869   5.782   0.260   4.845 -0.0358  0.3044 -0.1273
  949MOL0     C30870   4.811   0.508   5.376 -1.0640 -0.4185 -0.4043
  949MOL0     C30871   4.674   0.547   5.352  0.1412  0.5252 -0.3884
  949MOL0     O30872   4.369   0.317   5.203 -0.3369  0.1182  0.1807
  949MOL0     C30873   4.252   0.660   5.126  0.5738  1.0737  0.0278
  949MOL0     C30874   4.140   0.733   5.075  0.7443  0.3239  0.9691
  949MOL0     N30875   3.342   0.744   4.601 -0.2638 -0.0374  0.2143
  949MOL0     N30876   3.233   0.667   4.596 -0.0241  0.7438  0.1459
  949MOL0     C30877   2.096   0.529   4.757  0.0551 -0.5983  0.4941
  949MOL0     C30878   1.971   0.577   4.767  0.3524 -0.3594  1.1381
  949MOL0     C30879   1.555   0.660   4.932 -0.0495 -0.6927  0.0644
  949MOL0     C30880   1.460   0.602   4.844 -1.0293  0.4598  0.6561
  949MOL0     C30881   1.324   0.635   4.832 -0.3304 -0.4905  1.4987
  949MOL0     C30882   1.274   0.735   4.913 -0.1608  0.6371  0.3307
  949MOL0     O30883   1.140   0.767   4.923 -0.2189  1.0055  0.0543
  949MOL0     C30884   1.042   0.670   4.873 -0.4752 -0.2406 -0.6772
  949MOL0     C30885   0.906   0.713   4.926  0.6251  0.3864 -0.4667
  949MOL0     C30886   0.878   0.692   5.070 -0.5962  0.4670 -0.2968
  949MOL0     C30887   0.736   0.720   5.106  0.1345 -0.3092 -0.1542
  949MOL0     C30888   0.721   0.731   5.249 -0.2138 -0.1440 -0.6241
  949MOL0     C30889   0.720   0.752   5.373  0.5598  0.2416 -0.0791
  949MOL0     C30890   1.363   0.789   5.009  0.4833  0.2584 -0.4658
  949MOL0     C30891   1.498   0.753   5.022 -0.6250  0.4252 -0.6092
  949MOL0     C30892   1.568   0.837   5.128  0.0761  0.3151 -0.5955
  949MOL0     H30893   1.830   0.320   4.950  2.7891 -2.5613 -0.7095
  949MOL0     H30894   2.060   0.234   4.924  0.1580  0.6243  1.9354
  949MOL0     H30895   2.230   0.176   4.759 -2.2544  1.0558  2.4206
  949MOL0     H30896   2.340   0.209   4.906  1.4825 -1.1538 -0.9393
  949MOL0     H30897   2.473   0.138   4.720 -0.4855 -0.1879 -0.4331
  949MOL0     H30898   2.410   0.284   4.632 -1.4873  0.9146  0.7537
  949MOL0     H30899   2.540   0.430   4.779  0.4581 -0.6568 -0.8850
  949MOL0     H30900   2.560   0.302   4.903  0.0378 -3.3652 -0.3959
  949MOL0     H30901   2.718   0.193   4.749  0.0209  0.2235  3.8192
  949MOL0     H30902   2.663   0.298   4.619 -1.4055 -3.5327  0.1002
  949MOL0     H30903   2.812   0.415   4.869  0.1249 -0.1232  0.4180
  949MOL0     H30904   2.761   0.502   4.739  0.3299  1.0502  2.1774
  949MOL0     H30905   2.961   0.272   4.743 -0.4291 -0.0430  0.4420
  949MOL0     H30906   2.913   0.344   4.587 -3.0174  0.2783 -0.3191
  949MOL0     H30907   3.070   0.447   4.844  2.2420 -1.7473 -1.3103
  949MOL0     H30908   3.000   0.568   4.730  1.3460  0.4759  1.1732
  949MOL0     H30909   3.207   0.351   4.697 -1.2574 -1.1901 -2.3632
  949MOL0     H30910   3.145   0.424   4.554  4.0190  1.0697 -0.0283
  949MOL0     H30911   3.432   0.487   4.790 -0.4509  1.8447  1.2852
  949MOL0     H30912   3.603   0.795   4.648 -1.6363 -1.0149 -0.0751
  949MOL0     H30913   3.636   0.622   4.703 -1.6821 -1.7526 -2.6999
  949MOL0     H30914   3.511   0.837   4.882  0.0251 -0.1759  2.4943
  949MOL0     H30915   3.561   0.678   4.927 -2.5612 -0.1364 -0.7980
  949MOL0     H30916   3.753   0.893   4.826 -0.5058  1.6447  1.1405
  949MOL0     H30917   3.720   0.857   5.000  3.4226 -2.7289  1.8015
  949MOL0     H30918   3.789   0.618   4.980  0.5027 -1.9612 -1.4081
  949MOL0     H30919   3.841   0.657   4.819 -2.1120  0.0591 -0.2127
  949MOL0     H30920   3.972   0.473   4.934  0.2647  1.5443 -0.4440
  949MOL0     H30921   4.020   0.277   5.038 -0.0527  0.6694  2.4166
  949MOL0     H30922   4.150   0.243   5.131  1.1225  0.4082 -1.0687
  949MOL0     H30923   4.185   0.276   4.956  2.3478  3.8626 -0.5238
  949MOL0     H30924   4.601   0.276   5.167 -1.2804  1.3120  0.3945
  949MOL0     H30925   4.822   0.212   5.222  0.7179  0.1425 -0.9594
  949MOL0     H30926   5.027   0.331   5.168  0.6712 -0.5210 -0.7722
  949MOL0     H30927   5.167   0.393   5.269  0.3578 -1.5476  1.8127
  949MOL0     H30928   5.220   0.188   5.354  0.5361  0.6994 -1.6640
  949MOL0     H30929   5.065   0.108   5.329 -2.2199  1.4097 -0.0013
  949MOL0     H30930   5.114   0.119   5.079 -2.4037  1.9162  2.1600
  949MOL0     H30931   5.216   0.015   5.172 -0.8377 -0.2788 -1.6686
  949MOL0     H30932   5.403   0.162   5.187  1.1538 -1.8110 -2.0567
  949MOL0     H30933   5.314   0.302   5.117 -0.2062  0.1430  0.2229
  949MOL0     H30934   5.402   0.031   5.007 -1.7179 -0.5338 -0.4617
  949MOL0     H30935   5.311   0.144   4.898  0.0612  3.0475  0.0922
  949MOL0     H30936   5.485   0.315   4.947 -1.7439 -0.2416  0.2893
  949MOL0     H30937   5.538   0.185   4.842 -3.6652 -1.2542 -0.4450
  949MOL0     H30938   5.662   0.087   5.029  1.0594 -0.0686  2.7438
  949MOL0     H30939   5.589   0.196   5.145 -1.6316 -2.0594 -0.9353
  949MOL0     H30940   5.824   0.272   5.087  0.1864 -2.0706 -0.1411
  949MOL0     H30941   5.708   0.391   5.014  1.8268  0.4831  0.7792
  949MOL0     H30942   4.872   0.568   5.443 -2.7041  0.1810  0.6116
  949MOL0     H30943   4.634   0.641   5.388  1.7600  1.3653 -0.6861
  949MOL0     H30944   4.341   0.713   5.159  1.1426 -0.1351  0.4776
  949MOL0     H30945   4.141   0.841   5.088  0.4489  0.4076  0.3429
  949MOL0     H30946   2.174   0.566   4.692  0.6832 -2.7986 -0.0869
  949MOL0     H30947   1.951   0.672   4.719  1.1603 -0.7062  0.0670
  949MOL0     H30948   1.493   0.515   4.788 -3.4224 -1.9562  2.7100
  949MOL0     H30949   1.252   0.572   4.782  0.9113  0.2920 -1.5170
  949MOL0     H30950   1.041   0.682   4.764  1.5588 -0.7189 -0.7990
  949MOL0     H30951   1.064   0.564   4.891 -1.6789 -0.4618 -0.4546
  949MOL0     H30952   0.829   0.654   4.875 -1.0542  0.7794  1.5129
  949MOL0     H30953   0.898   0.821   4.911  0.0160  0.8454  2.6515
  949MOL0     H30954   0.892   0.591   5.111 -1.0111  0.5136 -0.0372
  949MOL0     H30955   0.948   0.755   5.125  2.4573 -1.4478 -1.7259
  949MOL0     H30956   0.667   0.648   5.061 -0.3306  0.2794 -0.4161
  949MOL0     H30957   0.708   0.820   5.069  2.1903  0.0886 -0.7329
  949MOL0     H30958   0.709   0.759   5.479  0.7884  0.1940 -0.0498
  949MOL0     H30959   1.315   0.862   5.074  0.2897 -1.2115  1.1349
  949MOL0     H30960   1.508   0.915   5.177 -1.7456 -2.4261  1.9130
  949MOL0     H30961   1.587   0.767   5.210 -2.1350  1.5811  1.1238
  949MOL0     H30962   1.663   0.876   5.090  0.0795  0.9256  0.0152
  950MOL0     O30963   5.531  10.642  10.296 -0.1792 -0.0273 -0.1265
  950MOL0     C30964   5.477  10.535  10.310  0.5885 -0.1200  0.7380
  950MOL0     O30965   5.533  10.424  10.355  0.3472  0.1567  0.3381
  950MOL0     C30966   5.669  10.403  10.339  0.4096  1.1290 -0.1794
  950MOL0     C30967   5.767  10.473  10.270 -0.6386  0.5752  0.7056
  950MOL0     C30968   5.895  10.425  10.258  0.3168 -0.1603  0.1969
  950MOL0     C30969   5.954  10.319  10.322 -0.2995  0.3163  0.2909
  950MOL0     O30970   6.087  10.294  10.288  0.1632 -0.1361  0.3298
  950MOL0     C30971   6.139  10.168  10.306 -0.4266  0.2954 -0.2596
  950MOL0     C30972   6.212  10.165  10.446 -0.2391  0.6717 -0.1881
  950MOL0     C30973   6.330  10.260  10.473 -0.2221 -0.2881  0.2087
  950MOL0     C30974   6.368  10.254  10.620 -0.5373 -0.0669 -0.6790
  950MOL0     C30975   6.495  10.331  10.650 -0.4263  0.8769  0.2599
  950MOL0     C30976   6.627  10.251  10.633  0.3349  1.4140  0.8071
  950MOL0     C30977   6.747  10.290  10.728  0.1507 -0.1764 -0.0751
  950MOL0     C30978   6.778  10.443  10.711  0.3942 -0.6687 -0.1516
  950MOL0     N30979   6.857  10.509  10.816 -0.2260 -0.1591 -0.3242
  950MOL0     C30980   6.813  10.578  10.935 -0.2681 -0.1998  0.4795
  950MOL0     C30981   6.926  10.638  10.984 -0.3513 -0.2757  0.4071
  950MOL0     C30982   6.919  10.737  11.099  0.1551 -0.1633  0.4356
  950MOL0     C30983   6.941  10.882  11.053 -1.0543 -0.4495 -0.1608
  950MOL0     C30984   6.831  10.945  10.955 -0.0373  0.4834 -0.4063
  950MOL0     C30985   6.849  11.101  10.954 -0.5004 -0.5408  0.3093
  950MOL0     O30986   6.784  11.151  10.842 -0.7871 -0.0984 -0.1507
  950MOL0     C30987   6.652  11.135  10.834  0.0038 -0.3492 -0.4190
  950MOL0     C30988   6.558  11.083  10.934 -0.3190 -1.1537 -0.1257
  950MOL0     C30989   6.420  11.068  10.899 -1.0029  0.7514 -0.4191
  950MOL0     C30990   6.334  10.985  10.991  0.6319 -0.6352 -0.2129
  950MOL0     C30991   6.374  11.116  10.777  0.2041 -0.9339 -0.9445
  950MOL0     C30992   6.226  11.104  10.731 -0.2697 -0.2550  0.0006
  950MOL0     O30993   6.193  11.171  10.613 -0.8193 -0.6217  0.1930
  950MOL0     C30994   6.063  11.178  10.567  0.9736 -0.3287  0.6164
  950MOL0     C30995   6.040  11.211  10.425  0.0460  0.6923 -0.1727
  950MOL0     C30996   5.919  11.213  10.368 -0.7252 -0.4771  1.2614
  950MOL0     C30997   5.810  11.201  10.457 -0.5015  0.0484  0.7562
  950MOL0     O30998   5.680  11.208  10.413  0.3583 -0.3549 -0.4605
  950MOL0     C30999   5.655  11.265  10.287  0.4781  0.0836  0.3155
  950MOL0     C31000   5.503  11.282  10.283  0.8634 -0.2195  0.2970
  950MOL0     C31001   5.456  11.342  10.147  0.7445 -0.2102 -0.5546
  950MOL0     C31002   5.307  11.368  10.135  0.6820 -0.2897 -0.5380
  950MOL0     C31003   5.274  11.398   9.991  0.8787  0.1235  0.1863
  950MOL0     C31004   5.126  11.372   9.975  1.3494 -0.4010  0.2481
  950MOL0     C31005   5.086  11.392   9.825 -0.8101 -0.3813  0.2644
  950MOL0     C31006   4.935  11.402   9.816  0.4485  0.1278  0.0638
  950MOL0    Cl31007   4.902  11.466   9.645  0.1755 -0.0088  0.2125
  950MOL0     C31008   5.827  11.176  10.593 -0.1125  0.4273  0.5564
  950MOL0     C31009   5.953  11.169  10.647 -0.4355  0.5267  0.1898
  950MOL0     O31010   6.159  11.014  10.777  0.4741 -0.9060  0.0174
  950MOL0     C31011   6.460  11.171  10.690  0.0909  0.1448 -0.3856
  950MOL0     C31012   6.596  11.177  10.714  0.5534 -0.1106 -0.4392
  950MOL0     N31013   7.028  10.614  10.904  0.0770  0.5428 -0.6168
  950MOL0     N31014   6.991  10.536  10.812 -0.0698  1.6893  0.6562
  950MOL0     C31015   5.863  10.235  10.390  0.7222  0.5922 -0.1854
  950MOL0     C31016   5.719  10.277  10.399  0.1234  0.2698 -0.2103
  950MOL0     C31017   5.340  10.514  10.266 -1.3503  0.4842  0.0767
  950MOL0     C31018   5.248  10.527  10.362  0.5015 -0.9701 -0.4661
  950MOL0     C31019   5.115  10.525  10.332 -0.3771  0.0521  0.0710
  950MOL0     C31020   5.072  10.485  10.205  0.5307 -0.6342 -0.3830
  950MOL0     O31021   4.935  10.488  10.177  0.2588  0.3734 -0.2342
  950MOL0     C31022   4.876  10.442  10.059 -0.6365 -0.1821  0.0191
  950MOL0     C31023   4.735  10.399  10.077  0.2600  0.0076 -0.1908
  950MOL0     C31024   4.640  10.522  10.103 -0.0385 -0.0764 -0.0032
  950MOL0     C31025   4.495  10.494  10.146  0.0240  0.1175 -0.0701
  950MOL0     C31026   4.416  10.609  10.185 -0.8525 -0.3299 -0.6086
  950MOL0     C31027   4.336  10.696  10.212  0.1834 -0.6140 -0.2504
  950MOL0     C31028   5.167  10.446  10.113  0.1882  0.2201  0.4838
  950MOL0     C31029   5.301  10.474  10.140 -0.0088  0.3225  0.4214
  950MOL0     C31030   5.404  10.431  10.040  0.0379  0.9313  0.5327
  950MOL0     H31031   5.748  10.563  10.212  0.8495  1.7863  1.9964
  950MOL0     H31032   5.961  10.482  10.193  0.4528 -3.7638 -3.2055
  950MOL0     H31033   6.217  10.145  10.234  0.0759 -0.3213  0.4670
  950MOL0     H31034   6.057  10.096  10.297 -1.4173  1.0285  2.0420
  950MOL0     H31035   6.136  10.196  10.518 -0.7584  1.5441 -1.0809
  950MOL0     H31036   6.241  10.062  10.469 -1.9415  0.5801  1.8794
  950MOL0     H31037   6.414  10.227  10.412  0.2357 -0.4558  0.9246
  950MOL0     H31038   6.301  10.360  10.438  0.0334  0.0953  1.0793
  950MOL0     H31039   6.285  10.288  10.681  1.3857  1.2127  1.3853
  950MOL0     H31040   6.385  10.149  10.648 -0.3083  0.1109 -0.1424
  950MOL0     H31041   6.490  10.364  10.755 -2.7550 -0.8411  0.7827
  950MOL0     H31042   6.503  10.425  10.594  0.1754  0.2392 -0.7482
  950MOL0     H31043   6.602  10.144  10.639  0.5269  1.3554  0.5961
  950MOL0     H31044   6.663  10.252  10.530 -0.7060 -4.9280 -0.0608
  950MOL0     H31045   6.836  10.231  10.707  1.0645  0.9970  0.4048
  950MOL0     H31046   6.719  10.262  10.830  2.4810 -1.2911  0.3168
  950MOL0     H31047   6.829  10.441  10.614 -2.9455 -1.3639 -2.0246
  950MOL0     H31048   6.686  10.501  10.701  1.2151  0.5178 -1.2513
  950MOL0     H31049   6.712  10.582  10.974  0.3291  2.1277  2.0428
  950MOL0     H31050   7.000  10.703  11.163  0.2936 -2.3800 -0.8280
  950MOL0     H31051   6.818  10.723  11.140 -1.1430 -1.0832 -2.7029
  950MOL0     H31052   6.947  10.942  11.144  1.6802 -0.9339  0.0629
  950MOL0     H31053   7.042  10.883  11.012 -0.9985 -1.1364 -0.0594
  950MOL0     H31054   6.853  10.890  10.863 -2.7705 -0.9884 -0.2919
  950MOL0     H31055   6.732  10.908  10.981 -2.0026  1.7185 -5.0617
  950MOL0     H31056   6.812  11.143  11.047  0.2853 -1.4132  1.0323
  950MOL0     H31057   6.954  11.124  10.934 -0.4126 -1.0085  0.2212
  950MOL0     H31058   6.585  11.063  11.037 -0.4995 -2.3688 -0.2941
  950MOL0     H31059   6.241  11.041  11.007  0.1518 -0.4653 -3.1383
  950MOL0     H31060   6.383  10.958  11.085  1.0046  3.9422  1.1309
  950MOL0     H31061   6.306  10.896  10.934 -1.5966  0.7627 -1.4442
  950MOL0     H31062   6.125  11.222  10.358  0.9787  1.6101  1.1083
  950MOL0     H31063   5.912  11.246  10.265  3.9708 -0.0167  0.9130
  950MOL0     H31064   5.695  11.366  10.280 -1.5998  0.8510 -4.1553
  950MOL0     H31065   5.688  11.198  10.207 -1.9336  0.1732 -0.8335
  950MOL0     H31066   5.465  11.181  10.300  2.2944 -1.1076 -1.4417
  950MOL0     H31067   5.465  11.352  10.357  0.0583  1.7404 -1.8462
  950MOL0     H31068   5.478  11.255  10.084  1.0563 -1.8383  1.6904
  950MOL0     H31069   5.517  11.429  10.121 -1.8215  0.5263 -5.3143
  950MOL0     H31070   5.271  11.443  10.207 -0.4310 -0.7025 -0.6420
  950MOL0     H31071   5.252  11.276  10.159 -0.4723  0.7725  1.1255
  950MOL0     H31072   5.297  11.503   9.971 -0.7865  0.2986 -1.0664
  950MOL0     H31073   5.331  11.334   9.924 -0.1411 -1.4257  0.7327
  950MOL0     H31074   5.080  11.442  10.046  1.5485 -0.4065  0.3851
  950MOL0     H31075   5.094  11.271  10.001 -1.9949  0.7050  0.9139
  950MOL0     H31076   5.139  11.316   9.767 -2.9495 -1.6896 -0.0582
  950MOL0     H31077   5.131  11.485   9.788  3.8523 -2.3170  0.3213
  950MOL0     H31078   4.893  11.470   9.891 -0.7763 -0.7533  0.2087
  950MOL0     H31079   4.887  11.306   9.834 -1.1991  1.0770  0.9695
  950MOL0     H31080   5.735  11.169  10.651 -1.2376 -1.3889 -1.3181
  950MOL0     H31081   5.957  11.142  10.752  1.1501 -1.4262 -0.3119
  950MOL0     H31082   6.426  11.206  10.593 -2.2774  1.2945  0.7825
  950MOL0     H31083   6.660  11.221  10.639 -2.2241  3.8629 -0.7621
  950MOL0     H31084   5.893  10.141  10.435  0.2821 -0.2569 -1.6094
  950MOL0     H31085   5.655  10.216  10.462  0.2089 -0.8644 -1.1779
  950MOL0     H31086   5.279  10.554  10.462 -1.6934  0.0608  0.0005
  950MOL0     H31087   5.039  10.551  10.405 -0.8166 -0.7449 -0.0951
  950MOL0     H31088   4.885  10.518   9.981  3.4332 -1.5758 -1.0981
  950MOL0     H31089   4.932  10.358  10.017 -0.2447  0.8007 -1.5089
  950MOL0     H31090   4.726  10.315  10.146 -3.8191 -2.2801 -3.0335
  950MOL0     H31091   4.712  10.350   9.981  2.9406  1.2877 -1.5878
  950MOL0     H31092   4.665  10.612  10.160 -2.4588  1.9927 -1.9966
  950MOL0     H31093   4.642  10.578  10.009 -2.3576 -2.4645 -1.6293
  950MOL0     H31094   4.502  10.429  10.233  1.5622 -0.8390 -0.8610
  950MOL0     H31095   4.429  10.444  10.075 -0.0857 -0.6815  0.5781
  950MOL0     H31096   4.269  10.780  10.219 -0.5387 -1.2782  1.3388
  950MOL0     H31097   5.144  10.424  10.009  1.4590 -0.4742  0.3188
  950MOL0     H31098   5.478  10.373  10.095  1.5827  1.6713 -0.6891
  950MOL0     H31099   5.363  10.363   9.965 -1.2502 -1.9870  3.6618
  950MOL0     H31100   5.455  10.519  10.000 -0.3612  0.5270 -0.9247
  951MOL0     O31101   2.825   0.014   7.726  0.1381  0.2785  0.6333
  951MOL0     C31102   2.728   0.065   7.672  0.2464 -0.2609 -0.1001
  951MOL0     O31103   2.712   0.197   7.627 -0.4013 -0.3184 -0.1162
  951MOL0     C31104   2.816   0.291   7.613  0.5454  0.3637 -0.0041
  951MOL0     C31105   2.947   0.259   7.628 -0.0428  0.2851 -0.5442
  951MOL0     C31106   3.034   0.373   7.613  0.1363 -0.4828 -0.0263
  951MOL0     C31107   2.989   0.503   7.591  0.2220 -0.0689 -0.2981
  951MOL0     O31108   3.085   0.610   7.573 -0.3215  0.2751 -0.4287
  951MOL0     C31109   3.040   0.746   7.581  0.6717 -0.4762 -0.2845
  951MOL0     C31110   3.163   0.838   7.581 -0.6187  0.1164 -0.1287
  951MOL0     C31111   3.239   0.819   7.452 -0.0941 -1.0298  0.5961
  951MOL0     C31112   3.345   0.931   7.446  0.5239 -0.0287 -0.1048
  951MOL0     C31113   3.434   0.925   7.329 -0.0344  0.0492  0.6823
  951MOL0     C31114   3.368   0.977   7.202  0.0407  0.1107 -0.2296
  951MOL0     C31115   3.446   0.964   7.068 -0.0704 -0.0523  0.0102
  951MOL0     C31116   3.348   0.980   6.949 -0.4088  0.5534  0.8073
  951MOL0     N31117   3.413   0.988   6.822 -0.1136  0.2869 -0.0881
  951MOL0     C31118   3.505   1.074   6.777  0.2016 -0.5546  0.8289
  951MOL0     C31119   3.533   1.040   6.650  0.1707  0.0583 -0.0798
  951MOL0     C31120   3.644   1.114   6.578 -0.9669 -0.6674 -0.4003
  951MOL0     C31121   3.773   1.044   6.599  0.3686 -0.2660 -0.6229
  951MOL0     C31122   3.889   1.118   6.531 -0.2599  0.4471 -0.3373
  951MOL0     C31123   3.892   1.116   6.371  0.1234 -1.3960  0.1578
  951MOL0     O31124   4.021   1.171   6.321  1.0805 -0.3281  0.1770
  951MOL0     C31125   4.035   1.307   6.315  0.5075 -0.1647 -0.0829
  951MOL0     C31126   4.139   1.350   6.238 -0.7795  0.9778  1.0407
  951MOL0     C31127   4.159   1.493   6.221  0.3963 -0.1636  0.0969
  951MOL0     C31128   4.278   1.528   6.144 -0.5792 -0.0938 -1.0059
  951MOL0     C31129   4.076   1.586   6.285 -0.6979  0.5394  0.3025
  951MOL0     C31130   4.080   1.731   6.264 -0.3740 -0.2764  0.2180
  951MOL0     O31131   4.007   1.806   6.347  0.3443 -0.1209 -0.6917
  951MOL0     C31132   4.000   1.939   6.340 -0.3796  1.0793  0.1112
  951MOL0     C31133   4.099   2.021   6.279 -0.1560 -1.2291  0.2840
  951MOL0     C31134   4.082   2.164   6.294  0.9771  1.1343  0.8135
  951MOL0     C31135   3.988   2.224   6.382 -0.1523  0.1726 -0.1440
  951MOL0     O31136   3.980   2.357   6.395  0.4264 -0.0242 -0.2763
  951MOL0     C31137   4.107   2.419   6.380 -0.3981 -0.5258  0.5066
  951MOL0     C31138   4.105   2.561   6.446 -0.2482  0.2586  0.1078
  951MOL0     C31139   4.249   2.622   6.432 -0.2374  0.7261 -0.7380
  951MOL0     C31140   4.276   2.729   6.532 -0.5336  0.4428  0.1395
  951MOL0     C31141   4.192   2.851   6.505 -0.4264  1.6308 -1.5546
  951MOL0     C31142   4.241   2.929   6.383 -0.3349  0.5573 -0.0735
  951MOL0     C31143   4.220   3.079   6.404 -0.4477 -0.2358 -0.2449
  951MOL0     C31144   4.074   3.118   6.422  0.2388  0.8812  0.1112
  951MOL0    Cl31145   3.977   3.081   6.276  0.0632  0.2078 -0.1957
  951MOL0     C31146   3.891   2.137   6.437 -0.8720 -0.0530 -0.1246
  951MOL0     C31147   3.897   1.996   6.414  0.5537 -0.1573 -0.1899
  951MOL0     O31148   4.142   1.769   6.167 -0.3425  0.0954 -0.0458
  951MOL0     C31149   3.977   1.538   6.376  0.3534  0.8329  0.0331
  951MOL0     C31150   3.944   1.402   6.376 -0.2763 -0.6462 -0.3152
  951MOL0     N31151   3.462   0.932   6.615 -0.2755  0.0923 -0.5984
  951MOL0     N31152   3.388   0.898   6.724 -0.2708 -0.1981  0.6066
  951MOL0     C31153   2.858   0.521   7.573 -0.6209  0.9625  0.1123
  951MOL0     C31154   2.770   0.416   7.572  0.0907 -0.1962  0.5473
  951MOL0     C31155   2.613  -0.026   7.653  1.0156  0.3707  0.1085
  951MOL0     C31156   2.635  -0.155   7.596  0.1129  0.0217 -0.2008
  951MOL0     C31157   2.531  -0.240   7.548 -0.3643 -0.2064 -1.1147
  951MOL0     C31158   2.407  -0.192   7.563  0.4229  0.3038  0.1072
  951MOL0     O31159   2.304  -0.273   7.517 -0.9397 -0.7863  0.1562
  951MOL0     C31160   2.198  -0.211   7.449  0.1743  0.3756 -0.2353
  951MOL0     C31161   2.083  -0.316   7.453 -0.8553 -0.6693 -0.0166
  951MOL0     C31162   1.996  -0.281   7.581  0.1069  1.0937 -0.7368
  951MOL0     C31163   1.866  -0.199   7.542  0.1626  0.3643  0.7992
  951MOL0     C31164   1.762  -0.189   7.646  0.1541 -0.2905 -0.0003
  951MOL0     C31165   1.675  -0.177   7.735  0.5092 -0.7561  0.4990
  951MOL0     C31166   2.372  -0.075   7.618  0.0552 -0.3393 -0.0005
  951MOL0     C31167   2.472   0.017   7.666 -0.6974 -0.7852  0.8897
  951MOL0     C31168   2.440   0.144   7.724  1.4583 -0.7444  0.2132
  951MOL0     H31169   2.990   0.162   7.649  0.1397  0.0588 -1.8874
  951MOL0     H31170   3.141   0.374   7.633  0.2015 -1.8890 -0.2205
  951MOL0     H31171   2.974   0.769   7.665  1.1159  1.2073 -0.3502
  951MOL0     H31172   2.997   0.771   7.484 -0.0183  2.5069  0.7008
  951MOL0     H31173   3.129   0.942   7.589  1.5601  0.9316 -0.8061
  951MOL0     H31174   3.230   0.815   7.665  0.1707  3.1118  0.2067
  951MOL0     H31175   3.292   0.723   7.453  1.8845 -0.0305 -1.3601
  951MOL0     H31176   3.169   0.824   7.368 -0.6696  1.1991  1.1386
  951MOL0     H31177   3.302   1.032   7.447  1.5826  0.6947 -4.8831
  951MOL0     H31178   3.400   0.908   7.538  0.2554 -0.2434  0.0043
  951MOL0     H31179   3.464   0.823   7.306 -2.5462 -0.8035  0.8906
  951MOL0     H31180   3.534   0.968   7.341  1.3431 -2.3366 -1.3215
  951MOL0     H31181   3.271   0.928   7.192  0.9314 -1.4998 -1.6229
  951MOL0     H31182   3.360   1.086   7.213  0.9555  0.2973 -1.2250
  951MOL0     H31183   3.480   0.861   7.053  0.4290  0.2141 -0.7519
  951MOL0     H31184   3.525   1.038   7.055  0.0597 -0.4559 -1.7668
  951MOL0     H31185   3.276   0.898   6.948  1.5756 -1.2582  0.6906
  951MOL0     H31186   3.301   1.078   6.963  3.8348  2.9599 -0.0249
  951MOL0     H31187   3.568   1.149   6.824  0.5954  0.2873 -0.9773
  951MOL0     H31188   3.645   1.210   6.631 -0.9880 -2.1035  2.3148
  951MOL0     H31189   3.623   1.130   6.471 -1.4641  0.6407 -0.1321
  951MOL0     H31190   3.774   1.050   6.709 -3.2169  0.6482 -0.4964
  951MOL0     H31191   3.786   0.943   6.559 -0.0468 -0.5024 -0.1764
  951MOL0     H31192   3.912   1.216   6.572  1.6727 -0.0217 -0.2298
  951MOL0     H31193   3.970   1.058   6.571 -1.6785  0.4694  2.8284
  951MOL0     H31194   3.884   1.010   6.343  0.3983 -1.1130 -1.0281
  951MOL0     H31195   3.803   1.160   6.326  0.8140 -1.2322 -1.1056
  951MOL0     H31196   4.190   1.282   6.170 -1.8347  2.2751 -1.1729
  951MOL0     H31197   4.321   1.433   6.111 -1.0047 -1.2154  1.4588
  951MOL0     H31198   4.352   1.579   6.206 -2.9386  1.6567  0.5294
  951MOL0     H31199   4.247   1.588   6.058 -0.2535  0.4551 -0.7467
  951MOL0     H31200   4.174   2.000   6.203 -0.8769  1.3604 -1.2819
  951MOL0     H31201   4.155   2.220   6.237  0.5388 -0.1607 -1.1229
  951MOL0     H31202   4.190   2.368   6.430  0.2095  0.1057  0.1708
  951MOL0     H31203   4.133   2.437   6.275  1.9138  1.3226  1.3030
  951MOL0     H31204   4.025   2.613   6.392 -1.9732 -3.9297 -1.8053
  951MOL0     H31205   4.084   2.538   6.551  3.3296  0.9396  1.0815
  951MOL0     H31206   4.277   2.645   6.329  1.6466  1.7052 -0.0514
  951MOL0     H31207   4.324   2.544   6.447 -0.8168  0.0966 -1.0311
  951MOL0     H31208   4.385   2.742   6.535  0.1685 -3.8035 -0.1742
  951MOL0     H31209   4.252   2.680   6.627  0.1469 -2.5250 -1.1158
  951MOL0     H31210   4.087   2.824   6.494  0.1324 -0.0236 -3.4416
  951MOL0     H31211   4.208   2.913   6.594 -5.1412  3.0698 -1.4777
  951MOL0     H31212   4.176   2.895   6.302  1.6836  2.0476 -2.4420
  951MOL0     H31213   4.338   2.894   6.348 -0.6598 -0.9973  0.4826
  951MOL0     H31214   4.256   3.144   6.323  1.2377 -0.5338  0.2305
  951MOL0     H31215   4.278   3.107   6.492 -2.6634 -0.2794  1.3061
  951MOL0     H31216   4.066   3.218   6.465  0.6892  1.1654 -0.4587
  951MOL0     H31217   4.030   3.057   6.501 -0.1038  0.8628 -0.0939
  951MOL0     H31218   3.810   2.176   6.498 -1.4233  0.6192 -1.2568
  951MOL0     H31219   3.829   1.921   6.452  1.7114 -2.1014 -1.7962
  951MOL0     H31220   3.909   1.595   6.439  0.9338 -0.5969  2.0556
  951MOL0     H31221   3.856   1.375   6.433  0.4015 -0.4775  0.8372
  951MOL0     H31222   2.818   0.621   7.561 -3.6080 -0.0335  1.0494
  951MOL0     H31223   2.663   0.425   7.553  0.3056  1.0980 -0.1352
  951MOL0     H31224   2.737  -0.186   7.576  0.2937  0.2350  0.3768
  951MOL0     H31225   2.555  -0.341   7.516 -0.1643 -0.1654 -1.0893
  951MOL0     H31226   2.163  -0.120   7.498 -1.7006 -1.2972  1.7299
  951MOL0     H31227   2.226  -0.171   7.351  0.1913  0.7538 -0.0782
  951MOL0     H31228   2.129  -0.413   7.467 -2.6631 -1.5118  0.3950
  951MOL0     H31229   2.018  -0.332   7.366  1.3039  0.4439 -1.9654
  951MOL0     H31230   1.975  -0.377   7.629 -0.7436  0.9372 -1.3944
  951MOL0     H31231   2.050  -0.224   7.657  0.5135 -0.6810  0.3603
  951MOL0     H31232   1.816  -0.259   7.465  0.9318 -1.4731  1.6742
  951MOL0     H31233   1.885  -0.100   7.501  1.0830  0.6857  1.9386
  951MOL0     H31234   1.603  -0.145   7.808  1.3758 -0.2245  1.1375
  951MOL0     H31235   2.273  -0.039   7.646  0.7110  1.2520  0.4267
  951MOL0     H31236   2.458   0.229   7.657 -0.8343 -0.6777 -0.4018
  951MOL0     H31237   2.334   0.143   7.750  0.4629 -2.6867 -3.2790
  951MOL0     H31238   2.494   0.157   7.819  1.5767 -3.7208  0.6258
  952MOL0     O31239   9.730   4.104   1.488 -0.2949 -0.0773  0.2503
  952MOL0     C31240   9.631   4.038   1.478  0.6449 -0.6556  0.3468
  952MOL0     O31241   9.608   3.948   1.390  0.1971 -0.0834 -0.0481
  952MOL0     C31242   9.704   3.903   1.300  0.8605 -0.2909 -0.1565
  952MOL0     C31243   9.793   3.985   1.231 -0.2296  0.1523 -0.2505
  952MOL0     C31244   9.885   3.928   1.146  0.4136  0.3234  0.0640
  952MOL0     C31245   9.879   3.786   1.121  0.3648  0.8630  0.0978
  952MOL0     O31246   9.962   3.729   1.026 -0.3103 -0.2275 -0.0775
  952MOL0     C31247   9.965   3.791   0.902  0.8785 -0.7862  0.0698
  952MOL0     C31248  10.044   3.713   0.798  0.6185 -0.5236 -0.1818
  952MOL0     C31249   9.946   3.606   0.751  0.3675 -0.8720 -0.0456
  952MOL0     C31250   9.988   3.458   0.745  0.1071  0.7242  0.0716
  952MOL0     C31251   9.888   3.387   0.654  0.4081 -0.3009  0.0949
  952MOL0     C31252   9.744   3.384   0.707  0.9830 -0.3019  0.0014
  952MOL0     C31253   9.721   3.322   0.838  0.4141 -0.2888  0.0565
  952MOL0     C31254   9.738   3.174   0.837  0.4525  0.2769  1.1398
  952MOL0     N31255   9.636   3.103   0.755  1.2622  0.1052 -0.0038
  952MOL0     C31256   9.504   3.089   0.792 -1.2424 -0.3307  0.0888
  952MOL0     C31257   9.450   2.982   0.722  0.4930  0.0885  0.6347
  952MOL0     C31258   9.321   2.913   0.747 -0.2067  0.2639  0.7168
  952MOL0     C31259   9.198   3.000   0.708 -0.6910  0.2327 -0.8959
  952MOL0     C31260   9.200   3.050   0.569  0.1836 -0.5247 -0.2359
  952MOL0     C31261   9.224   2.943   0.461  0.3018  0.8044  0.2472
  952MOL0     O31262   9.205   2.993   0.324 -0.0527 -0.3213 -0.1585
  952MOL0     C31263   9.311   2.999   0.240  0.1569 -0.7758  0.8397
  952MOL0     C31264   9.297   2.968   0.105 -0.3524 -0.5454  0.0787
  952MOL0     C31265   9.407   2.984   0.016 -0.5169  0.1277 -0.2737
  952MOL0     C31266   9.379   2.944  -0.134  0.6926 -0.6462  0.4961
  952MOL0     C31267   9.529   3.038   0.060 -0.4937 -0.1585 -0.1160
  952MOL0     C31268   9.643   3.049  -0.032  0.1250 -0.2636 -0.3767
  952MOL0     O31269   9.762   3.058   0.031  0.4423  0.4413 -0.4723
  952MOL0     C31270   9.883   3.040  -0.029 -0.1325 -0.4855  0.7358
  952MOL0     C31271   9.903   2.971  -0.157  0.5239 -0.0921  0.8283
  952MOL0     C31272  10.033   2.957  -0.213  0.2000 -0.0165  0.1932
  952MOL0     C31273  10.144   3.023  -0.159  0.5383  0.1926  0.7537
  952MOL0     O31274  10.258   3.029  -0.238  1.1683  0.0724  1.0968
  952MOL0     C31275  10.335   3.151  -0.230  0.2600  0.7453 -0.9179
  952MOL0     C31276  10.441   3.159  -0.332  0.1704 -1.0905  0.0865
  952MOL0     C31277  10.477   3.300  -0.385  0.3025  0.3175  0.5405
  952MOL0     C31278  10.549   3.392  -0.288  0.9042  0.5457  0.0608
  952MOL0     C31279  10.592   3.521  -0.358 -0.2858 -0.1340 -0.2482
  952MOL0     C31280  10.711   3.491  -0.449 -0.0805 -0.1211 -0.2668
  952MOL0     C31281  10.834   3.585  -0.458  0.1909 -0.9528 -0.0038
  952MOL0     C31282  10.804   3.699  -0.556  0.2289  0.1515  0.0021
  952MOL0    Cl31283  10.713   3.822  -0.459  0.2745 -0.5011 -0.1773
  952MOL0     C31284  10.128   3.088  -0.041  0.1482  0.1178 -0.3212
  952MOL0     C31285  10.003   3.095   0.026  0.0309  0.9966 -0.6321
  952MOL0     O31286   9.631   3.054  -0.153 -1.3331 -0.3111  0.7398
  952MOL0     C31287   9.541   3.062   0.198  0.2834 -0.2497  0.0250
  952MOL0     C31288   9.437   3.039   0.287 -0.1479  0.4602  0.9940
  952MOL0     N31289   9.552   2.943   0.633 -0.6872 -0.1336 -0.0186
  952MOL0     N31290   9.651   3.027   0.643  0.4307 -0.4714  0.3167
  952MOL0     C31291   9.791   3.704   1.191  0.2417 -0.2427 -0.3229
  952MOL0     C31292   9.701   3.771   1.279 -0.9082  0.5642 -0.2270
  952MOL0     C31293   9.529   4.047   1.584 -1.3647  0.8976  0.4285
  952MOL0     C31294   9.442   3.940   1.608  0.4859 -0.1491 -0.2770
  952MOL0     C31295   9.334   3.957   1.694  0.2655 -0.6936  1.2686
  952MOL0     C31296   9.305   4.084   1.757 -0.1878 -0.7681  0.3960
  952MOL0     O31297   9.182   4.112   1.821 -0.3296  0.1476 -0.5659
  952MOL0     C31298   9.084   4.010   1.816 -0.2160  0.3581 -0.3008
  952MOL0     C31299   8.976   4.045   1.908  0.6896  0.2177 -0.6827
  952MOL0     C31300   9.021   4.077   2.048  0.2992 -0.2731  0.6404
  952MOL0     C31301   9.088   3.963   2.119  0.3788  0.5329 -0.4087
  952MOL0     C31302   8.999   3.845   2.135 -0.8212 -0.7165 -0.9500
  952MOL0     C31303   8.948   3.740   2.141 -0.5529  1.0058  0.6693
  952MOL0     C31304   9.400   4.181   1.751  1.4894 -0.4577 -0.2525
  952MOL0     C31305   9.508   4.166   1.666  0.1701 -0.5563 -0.3478
  952MOL0     C31306   9.596   4.296   1.649  0.3215  0.4539  0.2001
  952MOL0     H31307   9.796   4.091   1.255 -0.4455  0.0003  0.4739
  952MOL0     H31308   9.954   3.998   1.100 -1.1515  2.4853  0.8520
  952MOL0     H31309  10.016   3.888   0.909  0.4515 -0.6143  0.9391
  952MOL0     H31310   9.863   3.813   0.869  1.7873  1.5308 -1.5004
  952MOL0     H31311  10.072   3.774   0.712  4.2188 -2.1319 -0.3266
  952MOL0     H31312  10.137   3.674   0.841  0.4448  0.3501  1.0402
  952MOL0     H31313   9.860   3.608   0.819  0.5485  1.0425  0.1724
  952MOL0     H31314   9.917   3.637   0.650 -2.3241  2.1942  1.5006
  952MOL0     H31315  10.079   3.461   0.685  0.2524 -1.9576  0.0662
  952MOL0     H31316  10.016   3.404   0.836 -1.0826  0.3386  0.2242
  952MOL0     H31317   9.914   3.281   0.641  0.8193 -0.6530  3.0367
  952MOL0     H31318   9.888   3.433   0.556  0.7172 -3.1855 -1.3737
  952MOL0     H31319   9.716   3.488   0.725 -0.9186 -0.9405  0.9868
  952MOL0     H31320   9.673   3.345   0.632  0.0911  1.0975  0.0789
  952MOL0     H31321   9.623   3.354   0.874  0.8803  1.2322  0.0366
  952MOL0     H31322   9.778   3.367   0.920 -1.5156 -0.6324  1.6811
  952MOL0     H31323   9.833   3.139   0.793 -0.7111 -4.0017  1.5751
  952MOL0     H31324   9.747   3.126   0.935  0.3353 -0.2768  0.8855
  952MOL0     H31325   9.469   3.144   0.879 -2.8411  3.4070 -2.6166
  952MOL0     H31326   9.302   2.890   0.852 -0.0512 -2.1489  0.2664
  952MOL0     H31327   9.313   2.823   0.684 -1.1474 -1.5532  3.2788
  952MOL0     H31328   9.110   2.941   0.735 -0.4236 -0.0835 -0.7105
  952MOL0     H31329   9.185   3.083   0.778  1.6354 -0.8374  0.9396
  952MOL0     H31330   9.105   3.102   0.554 -0.0809 -0.5839  1.1419
  952MOL0     H31331   9.277   3.126   0.557 -0.7245  0.8805  2.2406
  952MOL0     H31332   9.317   2.889   0.484  0.0898  1.3186  2.5437
  952MOL0     H31333   9.148   2.865   0.478  2.2911 -0.7868  2.5262
  952MOL0     H31334   9.203   2.931   0.065 -0.1117 -1.8818  0.6939
  952MOL0     H31335   9.434   2.855  -0.169  0.2500 -0.7129 -0.0518
  952MOL0     H31336   9.399   3.027  -0.202 -0.7364  0.9610  1.9660
  952MOL0     H31337   9.271   2.932  -0.145  0.4484  1.5003  0.2168
  952MOL0     H31338   9.815   2.922  -0.197 -1.3173  1.9240  2.1390
  952MOL0     H31339  10.049   2.914  -0.311  1.0290  2.0348 -0.6186
  952MOL0     H31340  10.287   3.250  -0.226  0.6024  0.8648  0.7858
  952MOL0     H31341  10.388   3.147  -0.135 -1.8423 -1.3991  0.2805
  952MOL0     H31342  10.532   3.117  -0.286 -0.6656 -0.2451  2.6650
  952MOL0     H31343  10.414   3.093  -0.415  0.5702 -1.3203  0.1363
  952MOL0     H31344  10.391   3.359  -0.418  1.2011  2.4071  1.7445
  952MOL0     H31345  10.554   3.282  -0.461  1.4869 -2.5847  2.2500
  952MOL0     H31346  10.636   3.346  -0.241 -0.6657 -0.9025  1.7059
  952MOL0     H31347  10.477   3.415  -0.209 -1.7059  1.3192 -2.3472
  952MOL0     H31348  10.516   3.569  -0.420  0.6610 -0.6303 -1.8566
  952MOL0     H31349  10.630   3.593  -0.285  0.4695  0.4352 -1.1777
  952MOL0     H31350  10.671   3.497  -0.551 -2.4054  2.2667  0.6789
  952MOL0     H31351  10.745   3.387  -0.439  2.2012  0.5989 -0.1274
  952MOL0     H31352  10.922   3.530  -0.493  0.2350 -0.6831 -0.3201
  952MOL0     H31353  10.849   3.627  -0.358 -1.6449  0.8808 -0.4366
  952MOL0     H31354  10.744   3.668  -0.643  0.9957 -0.8260 -0.1995
  952MOL0     H31355  10.888   3.756  -0.596 -0.2404  0.8234 -0.0399
  952MOL0     H31356  10.205   3.137   0.018  0.1635 -0.0828 -0.1750
  952MOL0     H31357   9.995   3.136   0.127 -1.8844  0.0507 -0.3583
  952MOL0     H31358   9.639   3.075   0.243 -1.1686  0.7060  3.2149
  952MOL0     H31359   9.450   3.065   0.391  0.1910  0.3074  0.9919
  952MOL0     H31360   9.788   3.596   1.176 -1.7977 -0.7119  2.5956
  952MOL0     H31361   9.625   3.718   1.336  0.8948 -1.7406  0.1884
  952MOL0     H31362   9.458   3.838   1.576  3.2653  0.0870  0.1230
  952MOL0     H31363   9.273   3.869   1.710 -1.4587 -0.0168 -0.9713
  952MOL0     H31364   9.052   3.993   1.713 -1.8958  3.2389 -0.3609
  952MOL0     H31365   9.125   3.915   1.853 -0.9516  0.3963  0.6668
  952MOL0     H31366   8.898   3.968   1.915 -0.7174  1.5435 -1.0822
  952MOL0     H31367   8.931   4.126   1.850  1.6015  0.6023 -0.8745
  952MOL0     H31368   9.100   4.148   2.023  0.3852 -1.4006 -2.8020
  952MOL0     H31369   8.943   4.127   2.106  0.5545 -0.8092  1.4746
  952MOL0     H31370   9.134   3.989   2.215 -1.5170  0.0972  0.6630
  952MOL0     H31371   9.176   3.931   2.062  0.9227 -1.0054  1.1896
  952MOL0     H31372   8.903   3.645   2.161  0.8330  0.1553 -0.1666
  952MOL0     H31373   9.387   4.279   1.795  3.1311  0.0245 -0.7767
  952MOL0     H31374   9.601   4.320   1.542  0.6288 -3.2536 -0.7750
  952MOL0     H31375   9.562   4.375   1.715  0.1027 -0.2626  0.9640
  952MOL0     H31376   9.696   4.267   1.681  0.6420 -2.1449 -2.6491
  953MOL0     O31377   6.680   8.696  10.785  0.3415  0.0315  0.3292
  953MOL0     C31378   6.707   8.676  10.906 -0.1177  0.0627  0.4486
  953MOL0     O31379   6.636   8.733  11.008 -0.0466  0.8701  0.8239
  953MOL0     C31380   6.527   8.805  10.973 -0.1269  0.3742 -1.0924
  953MOL0     C31381   6.419   8.733  10.940 -0.1629 -0.7522 -0.2586
  953MOL0     C31382   6.290   8.797  10.918 -0.8060  0.0043  0.0361
  953MOL0     C31383   6.283   8.938  10.915  0.1023  0.2440  0.4509
  953MOL0     O31384   6.156   8.989  10.897 -0.1460  0.2026  0.1474
  953MOL0     C31385   6.129   9.122  10.918  0.7742 -1.1392 -0.1903
  953MOL0     C31386   5.981   9.162  10.872 -0.0159 -0.3099 -0.0237
  953MOL0     C31387   5.964   9.143  10.715  1.0646  0.8772 -0.2624
  953MOL0     C31388   5.827   9.170  10.658 -0.0482  0.0347  0.1493
  953MOL0     C31389   5.722   9.065  10.701 -0.3437 -0.4172 -0.6458
  953MOL0     C31390   5.600   9.078  10.608 -0.4292  0.7537  0.5486
  953MOL0     C31391   5.486   8.999  10.660 -0.0479  0.2104  1.0090
  953MOL0     C31392   5.510   8.855  10.678  0.5431  0.1837 -0.5034
  953MOL0     N31393   5.398   8.778  10.744  0.1727  0.6679 -0.0518
  953MOL0     C31394   5.271   8.765  10.700  0.3975  0.6276  0.3708
  953MOL0     C31395   5.207   8.684  10.793 -0.7486 -0.6105 -0.1224
  953MOL0     C31396   5.057   8.662  10.788  0.1552  0.3791 -0.1739
  953MOL0     C31397   4.983   8.745  10.896 -0.1315 -0.1281 -0.8003
  953MOL0     C31398   5.021   8.687  11.034 -0.7919 -0.5165 -0.9278
  953MOL0     C31399   4.947   8.736  11.155  0.5597 -0.0175 -0.4437
  953MOL0     O31400   4.983   8.661  11.268  0.0614  0.0866 -0.2049
  953MOL0     C31401   5.066   8.727  11.369  0.6631  0.3256  1.2321
  953MOL0     C31402   5.022   8.829  11.453 -0.0650 -0.4630  0.7553
  953MOL0     C31403   5.099   8.891  11.548 -0.2135 -1.0130  0.1299
  953MOL0     C31404   5.046   9.019  11.619  0.3801  1.2898  0.2935
  953MOL0     C31405   5.226   8.840  11.571 -0.8017  0.0860  0.5013
  953MOL0     C31406   5.318   8.887  11.683  0.7639  0.8764 -0.5769
  953MOL0     O31407   5.423   8.797  11.707  0.0844  0.9470  0.5147
  953MOL0     C31408   5.509   8.810  11.813 -1.3269  0.4286  0.4487
  953MOL0     C31409   5.644   8.785  11.788  0.0052 -0.2632 -0.3816
  953MOL0     C31410   5.737   8.783  11.894  0.7498  0.5413  0.0342
  953MOL0     C31411   5.683   8.800  12.024  0.1916  0.0452  0.3104
  953MOL0     O31412   5.761   8.787  12.136  0.0585  0.0631 -0.2993
  953MOL0     C31413   5.859   8.688  12.132 -0.8603 -0.1518  0.7433
  953MOL0     C31414   5.921   8.670  12.260  0.6019  0.2900  0.4416
  953MOL0     C31415   6.053   8.602  12.252 -0.2729  0.5630  0.5490
  953MOL0     C31416   6.170   8.704  12.262 -0.5420  0.0258  0.3397
  953MOL0     C31417   6.304   8.632  12.289  0.1461  0.3339  0.1806
  953MOL0     C31418   6.428   8.719  12.293  0.2359  0.3439 -0.6167
  953MOL0     C31419   6.551   8.627  12.306 -0.3704 -0.5972 -0.1260
  953MOL0     C31420   6.678   8.706  12.338  0.0343  0.1837 -0.1785
  953MOL0    Cl31421   6.809   8.604  12.328  0.1193 -0.2970  0.0461
  953MOL0     C31422   5.548   8.824  12.046 -0.3066 -0.7060 -0.3401
  953MOL0     C31423   5.463   8.823  11.940  0.0473 -0.0070 -0.1773
  953MOL0     O31424   5.305   8.993  11.747  0.1739 -0.9190  0.4261
  953MOL0     C31425   5.278   8.745  11.486  0.3218  0.9200 -0.5910
  953MOL0     C31426   5.201   8.689  11.381 -0.2015  0.3040  0.4705
  953MOL0     N31427   5.304   8.630  10.876  0.3183 -0.9699 -0.2871
  953MOL0     N31428   5.404   8.707  10.854  0.5448  0.7260 -0.1604
  953MOL0     C31429   6.397   9.016  10.940 -0.2084 -0.1393 -0.1495
  953MOL0     C31430   6.521   8.950  10.978  0.5337  0.0616  1.1627
  953MOL0     C31431   6.812   8.574  10.946 -0.3617  0.2320  0.5406
  953MOL0     C31432   6.828   8.538  11.080  0.2871  0.0236  0.5398
  953MOL0     C31433   6.920   8.443  11.126 -0.6161 -0.0485  0.0676
  953MOL0     C31434   7.010   8.385  11.036  0.4351  0.5933 -0.1581
  953MOL0     O31435   7.104   8.292  11.085  0.5103 -0.4659 -0.3627
  953MOL0     C31436   7.138   8.296  11.225 -0.5287 -0.0739  0.2956
  953MOL0     C31437   7.279   8.249  11.238 -0.6294  0.2593 -0.3774
  953MOL0     C31438   7.320   8.262  11.383 -0.1417 -0.1312 -0.4766
  953MOL0     C31439   7.443   8.173  11.392 -0.8265  0.0015  0.0683
  953MOL0     C31440   7.539   8.213  11.499 -0.9676 -0.1732  0.3854
  953MOL0     C31441   7.616   8.234  11.587  0.8164 -0.0954  0.1939
  953MOL0     C31442   6.998   8.415  10.901  0.3735 -0.0540 -1.3897
  953MOL0     C31443   6.903   8.507  10.856  0.4140 -1.0477 -0.2772
  953MOL0     C31444   6.901   8.540  10.708  0.9203  0.0474  0.8564
  953MOL0     H31445   6.428   8.625  10.949  2.0627 -0.6699 -0.8110
  953MOL0     H31446   6.197   8.740  10.913 -1.8817  1.3201  2.7028
  953MOL0     H31447   6.197   9.194  10.873  0.3912 -0.8690 -0.3483
  953MOL0     H31448   6.145   9.138  11.025  0.0235  2.0345 -0.4654
  953MOL0     H31449   5.911   9.102  10.931 -0.6301 -1.1175 -1.5164
  953MOL0     H31450   5.957   9.264  10.903 -3.0595 -1.3762  1.5278
  953MOL0     H31451   6.043   9.195  10.659  1.0925 -2.3685 -3.6727
  953MOL0     H31452   5.984   9.036  10.700  1.7079  1.1404 -1.4504
  953MOL0     H31453   5.795   9.270  10.689  1.3923  0.5172  0.1266
  953MOL0     H31454   5.841   9.187  10.551  4.3630  1.6926  0.8248
  953MOL0     H31455   5.680   9.080  10.801  2.1029 -0.5470  0.4661
  953MOL0     H31456   5.766   8.966  10.709  3.2760  1.1483  1.4692
  953MOL0     H31457   5.565   9.181  10.597 -1.6884  0.6059  2.5136
  953MOL0     H31458   5.630   9.050  10.507  0.1296  5.1592 -0.7182
  953MOL0     H31459   5.399   9.023  10.598 -1.0420  1.0616  2.6455
  953MOL0     H31460   5.451   9.046  10.753 -0.5417  2.7020 -0.3528
  953MOL0     H31461   5.524   8.806  10.581 -0.6245 -3.6129  1.0602
  953MOL0     H31462   5.595   8.837  10.745 -1.8017  0.8952  2.9295
  953MOL0     H31463   5.221   8.815  10.618  0.5180  0.8304  0.4217
  953MOL0     H31464   5.031   8.555  10.793 -1.3777  0.5526 -2.9235
  953MOL0     H31465   5.025   8.688  10.687  1.1979 -0.1460 -0.6634
  953MOL0     H31466   4.993   8.854  10.891 -3.4890  0.2780 -0.9974
  953MOL0     H31467   4.877   8.721  10.884  0.1381 -1.1036 -1.3832
  953MOL0     H31468   4.997   8.580  11.030  0.6275 -0.9506  0.9512
  953MOL0     H31469   5.126   8.710  11.052 -1.4385  2.4117 -0.4208
  953MOL0     H31470   4.980   8.840  11.158  0.6795  0.0554 -2.4739
  953MOL0     H31471   4.839   8.742  11.135  0.9569 -1.4485 -3.8496
  953MOL0     H31472   4.920   8.856  11.428  0.8362  1.4653 -1.1227
  953MOL0     H31473   5.116   9.093  11.579  2.5994 -0.9253 -0.1216
  953MOL0     H31474   5.057   9.012  11.728 -0.4568 -3.2982  0.2783
  953MOL0     H31475   4.941   9.046  11.607  0.2025  0.4199 -0.1607
  953MOL0     H31476   5.679   8.771  11.687  0.4722 -3.4062  0.0956
  953MOL0     H31477   5.841   8.757  11.878  0.0133 -2.3960 -0.5676
  953MOL0     H31478   5.819   8.593  12.096  0.3053  0.2441 -1.8550
  953MOL0     H31479   5.929   8.707  12.049 -1.7604  0.5342  0.1123
  953MOL0     H31480   5.936   8.768  12.305  0.2204 -0.3913  2.1527
  953MOL0     H31481   5.855   8.617  12.329 -0.2779 -1.5526 -1.6917
  953MOL0     H31482   6.063   8.548  12.158  1.8524  0.9228  0.5052
  953MOL0     H31483   6.048   8.537  12.340  0.6289 -2.0395 -1.2169
  953MOL0     H31484   6.155   8.771  12.347 -4.2741  0.1237 -0.2314
  953MOL0     H31485   6.168   8.775  12.178 -0.6324  1.3686  1.4339
  953MOL0     H31486   6.294   8.580  12.385 -0.0275 -1.5745 -0.8143
  953MOL0     H31487   6.315   8.558  12.209  1.3696  2.5625 -1.8229
  953MOL0     H31488   6.423   8.783  12.381 -0.9785 -0.3741 -0.1197
  953MOL0     H31489   6.433   8.784  12.205  3.3268  0.6356 -0.3048
  953MOL0     H31490   6.572   8.581  12.209 -0.1942  2.9359 -1.8952
  953MOL0     H31491   6.541   8.548  12.382 -3.5343 -0.6062 -0.4133
  953MOL0     H31492   6.673   8.744  12.440  0.2506  2.7948 -1.0580
  953MOL0     H31493   6.687   8.790  12.268 -0.7441 -0.4227 -1.0366
  953MOL0     H31494   5.525   8.833  12.152  0.9751 -1.3732  0.0169
  953MOL0     H31495   5.355   8.835  11.952 -0.5826 -1.6444 -3.0947
  953MOL0     H31496   5.369   8.690  11.507 -0.7054 -1.4681 -1.9403
  953MOL0     H31497   5.238   8.612  11.313 -1.4852 -1.4121  1.6242
  953MOL0     H31498   6.386   9.124  10.934 -2.5714 -0.3925 -3.1967
  953MOL0     H31499   6.612   9.006  10.996  0.3664  0.7778 -0.0918
  953MOL0     H31500   6.755   8.579  11.148 -1.7035 -1.6278 -0.4724
  953MOL0     H31501   6.932   8.432  11.233 -3.2412  1.4463  0.5830
  953MOL0     H31502   7.142   8.397  11.266  0.5957 -0.0767  0.2129
  953MOL0     H31503   7.074   8.235  11.289  2.2754 -0.9807  2.4696
  953MOL0     H31504   7.348   8.303  11.173 -2.4962  0.8240 -1.9891
  953MOL0     H31505   7.289   8.147  11.199 -0.6239  1.2211 -3.1542
  953MOL0     H31506   7.359   8.361  11.408  1.0998 -0.4121 -1.2049
  953MOL0     H31507   7.239   8.244  11.454 -1.4690  1.6647 -1.4624
  953MOL0     H31508   7.498   8.178  11.297 -0.0682  2.2601  0.5647
  953MOL0     H31509   7.410   8.071  11.414  0.2483  0.0058  1.8404
  953MOL0     H31510   7.688   8.251  11.664  0.5574  4.3400 -0.2683
  953MOL0     H31511   7.073   8.371  10.836  1.8951  1.2109 -0.5721
  953MOL0     H31512   6.802   8.527  10.664  1.5842  0.6797 -0.8990
  953MOL0     H31513   6.934   8.644  10.711  1.3114 -0.0514  0.2275
  953MOL0     H31514   6.978   8.482  10.657 -0.6209  0.4370 -2.1129
  954MOL0     O31515   3.361   7.571   8.853 -0.0517 -0.6041 -0.6620
  954MOL0     C31516   3.329   7.626   8.962  0.6287 -0.4166  0.9347
  954MOL0     O31517   3.408   7.653   9.068 -0.1135  0.3739 -0.3912
  954MOL0     C31518   3.537   7.601   9.060 -0.1115 -0.4927 -0.1905
  954MOL0     C31519   3.638   7.649   8.978 -0.6068  0.0401  1.3647
  954MOL0     C31520   3.768   7.610   8.981  0.7200 -0.8493 -0.3422
  954MOL0     C31521   3.806   7.517   9.077  0.0733  0.1555  0.3251
  954MOL0     O31522   3.934   7.464   9.065 -0.3614  0.1494  0.0891
  954MOL0     C31523   3.974   7.367   9.165  0.2877 -0.3762 -0.2023
  954MOL0     C31524   4.106   7.289   9.130 -0.4464  0.0462 -0.1467
  954MOL0     C31525   4.214   7.393   9.110  0.4574  0.3032  0.4677
  954MOL0     C31526   4.336   7.332   9.034  1.2730  0.3797  0.1849
  954MOL0     C31527   4.458   7.418   9.053 -0.0222  1.2932 -0.8846
  954MOL0     C31528   4.449   7.518   8.940  0.3158  0.7476  0.1115
  954MOL0     C31529   4.558   7.616   8.969  0.9116  0.6765  0.8525
  954MOL0     C31530   4.546   7.728   8.871  0.4532  0.5652  0.3454
  954MOL0     N31531   4.676   7.795   8.840 -0.3769 -0.0304 -0.1882
  954MOL0     C31532   4.718   7.897   8.920 -1.0523 -0.2901 -0.4284
  954MOL0     C31533   4.841   7.926   8.863  0.2571 -0.3974 -0.3966
  954MOL0     C31534   4.945   8.025   8.923  0.1321 -0.2241  0.2253
  954MOL0     C31535   5.089   7.974   8.913  0.0634  0.3588  0.0207
  954MOL0     C31536   5.122   7.869   9.015  0.0750 -0.3936 -0.3254
  954MOL0     C31537   5.274   7.839   9.008  0.5947 -0.2606  0.9792
  954MOL0     O31538   5.316   7.813   8.870  0.3333 -0.0726  0.0640
  954MOL0     C31539   5.455   7.786   8.859  0.2672 -0.0724  0.1254
  954MOL0     C31540   5.526   7.808   8.737  0.5651 -0.1718 -0.4290
  954MOL0     C31541   5.660   7.759   8.724 -0.2620 -0.8748 -0.2979
  954MOL0     C31542   5.732   7.778   8.595  0.4596 -0.4195  0.5096
  954MOL0     C31543   5.726   7.687   8.829  0.4097  0.1406 -1.1063
  954MOL0     C31544   5.861   7.624   8.825  0.0137 -0.2116 -0.5287
  954MOL0     O31545   5.937   7.619   8.943  0.1989 -0.3140  0.0883
  954MOL0     C31546   6.065   7.586   8.957  0.0439 -0.0644  0.4282
  954MOL0     C31547   6.165   7.599   8.858 -0.1210  0.3102 -0.0730
  954MOL0     C31548   6.297   7.568   8.891 -0.0334 -0.5837  0.3732
  954MOL0     C31549   6.338   7.543   9.023  0.7912 -0.0242  0.0312
  954MOL0     O31550   6.460   7.506   9.069  0.0764  0.0972 -0.6341
  954MOL0     C31551   6.575   7.537   8.989 -0.0952 -0.1199 -0.2102
  954MOL0     C31552   6.703   7.477   9.053 -0.1509  0.3965 -0.7232
  954MOL0     C31553   6.696   7.324   9.066  0.2825  1.4298 -0.3878
  954MOL0     C31554   6.818   7.266   9.140 -0.2338  0.1510  0.0799
  954MOL0     C31555   6.942   7.258   9.051 -0.2352  0.8265 -0.1138
  954MOL0     C31556   7.054   7.166   9.097 -0.1744  0.1201 -0.8642
  954MOL0     C31557   7.167   7.146   8.993 -0.2308 -0.4326  0.8679
  954MOL0     C31558   7.297   7.075   9.030  0.3455 -0.0672  0.6851
  954MOL0    Cl31559   7.261   6.925   9.132 -0.1012 -0.2216 -0.3338
  954MOL0     C31560   6.234   7.523   9.113 -0.0318 -0.2226  0.5035
  954MOL0     C31561   6.107   7.544   9.084  1.2642  0.4447  0.1931
  954MOL0     O31562   5.900   7.575   8.720 -0.1800 -0.8636  0.5219
  954MOL0     C31563   5.659   7.675   8.952 -0.6406 -0.4936 -0.9127
  954MOL0     C31564   5.527   7.720   8.966  0.5016 -0.3769 -0.2168
  954MOL0     N31565   4.861   7.851   8.752 -0.8264 -0.8232 -0.1776
  954MOL0     N31566   4.771   7.763   8.749 -0.3142 -0.1712  0.4652
  954MOL0     C31567   3.714   7.477   9.167 -0.1257 -0.5576  0.1774
  954MOL0     C31568   3.577   7.510   9.156  1.1517  0.3946  0.4074
  954MOL0     C31569   3.185   7.662   8.985  0.0129 -0.4219 -0.6619
  954MOL0     C31570   3.149   7.682   9.121 -0.0962  1.3034 -0.3994
  954MOL0     C31571   3.012   7.717   9.152 -0.3269 -0.2500 -0.4301
  954MOL0     C31572   2.917   7.720   9.051  0.5769 -0.5036 -0.2991
  954MOL0     O31573   2.788   7.752   9.071 -0.0046 -1.3174  0.3386
  954MOL0     C31574   2.735   7.795   9.201  0.8352 -0.7904 -0.4624
  954MOL0     C31575   2.713   7.668   9.278  0.3395 -0.9150  0.3965
  954MOL0     C31576   2.596   7.682   9.378 -0.4348  0.1205  0.0549
  954MOL0     C31577   2.604   7.565   9.485 -0.4441 -0.5011  0.8499
  954MOL0     C31578   2.580   7.436   9.411 -0.3738 -0.1450  0.0391
  954MOL0     C31579   2.545   7.327   9.382 -0.3320 -0.8352  0.4973
  954MOL0     C31580   2.950   7.696   8.917 -0.3048  0.9193  0.6370
  954MOL0     C31581   3.086   7.682   8.884 -0.4122  0.1431  0.1188
  954MOL0     C31582   3.123   7.665   8.738  0.2084  0.2908 -0.0496
  954MOL0     H31583   3.610   7.729   8.910 -2.9740  0.7163  3.0161
  954MOL0     H31584   3.831   7.650   8.902 -1.1576  2.1065 -0.5092
  954MOL0     H31585   3.894   7.293   9.181 -0.2428  0.7143  2.8857
  954MOL0     H31586   4.003   7.427   9.251 -1.9611  0.6080 -0.0700
  954MOL0     H31587   4.142   7.223   9.210 -0.8051  0.8354  0.6747
  954MOL0     H31588   4.096   7.233   9.036 -0.7275  0.6609 -0.4886
  954MOL0     H31589   4.179   7.481   9.055  2.1611 -0.4229 -1.9702
  954MOL0     H31590   4.254   7.429   9.205  3.2205  0.0578 -0.5072
  954MOL0     H31591   4.352   7.241   9.093 -0.8912 -0.5367 -0.5470
  954MOL0     H31592   4.314   7.305   8.930 -2.2164  0.3578  0.8100
  954MOL0     H31593   4.553   7.364   9.062  1.0589  3.0879 -1.1483
  954MOL0     H31594   4.450   7.473   9.148  1.1095 -0.2104  0.1275
  954MOL0     H31595   4.474   7.463   8.849  2.0940  2.3095 -0.4053
  954MOL0     H31596   4.352   7.567   8.928  1.2113  2.5686 -0.1331
  954MOL0     H31597   4.652   7.563   8.952  0.2880  0.3451 -2.1659
  954MOL0     H31598   4.557   7.660   9.069 -1.3182 -0.1720  1.2675
  954MOL0     H31599   4.521   7.681   8.776  1.8991 -0.7762  0.5827
  954MOL0     H31600   4.469   7.799   8.903  0.6358  0.1348  1.8290
  954MOL0     H31601   4.681   7.934   9.014  2.6896 -0.9408  1.4841
  954MOL0     H31602   4.929   8.051   9.029  0.0576  1.6454 -0.2046
  954MOL0     H31603   4.921   8.117   8.869 -0.3730 -0.1311  0.6015
  954MOL0     H31604   5.105   7.939   8.810  1.3097 -1.0740  0.6620
  954MOL0     H31605   5.152   8.063   8.920 -2.0438  1.9895 -0.4901
  954MOL0     H31606   5.093   7.904   9.115 -2.1647 -1.6531 -0.4867
  954MOL0     H31607   5.064   7.780   8.991 -0.5217  0.3507 -1.7696
  954MOL0     H31608   5.333   7.925   9.042  0.3018 -0.2390  1.4351
  954MOL0     H31609   5.282   7.751   9.071 -4.0038 -0.7680  1.1810
  954MOL0     H31610   5.480   7.867   8.659  0.7525  1.8289  0.8958
  954MOL0     H31611   5.651   7.814   8.530  0.4237  0.6346  1.1216
  954MOL0     H31612   5.764   7.683   8.550 -1.6138 -0.7703 -0.3354
  954MOL0     H31613   5.816   7.848   8.602  0.9922 -1.0797  0.8317
  954MOL0     H31614   6.137   7.632   8.758  0.8679 -1.7213 -1.0847
  954MOL0     H31615   6.380   7.596   8.826  1.4286 -1.7461  1.6659
  954MOL0     H31616   6.560   7.498   8.889  0.2050 -2.0428  0.4559
  954MOL0     H31617   6.590   7.645   8.991 -0.4866 -0.0503 -1.0037
  954MOL0     H31618   6.784   7.511   8.987  2.1868  2.2397  2.7801
  954MOL0     H31619   6.723   7.521   9.151 -2.7822 -0.3296  0.2247
  954MOL0     H31620   6.689   7.271   8.971 -2.1166  2.4755 -0.8611
  954MOL0     H31621   6.606   7.297   9.122  1.3787  0.1412  0.8397
  954MOL0     H31622   6.783   7.170   9.178 -1.2891 -0.0425 -1.3084
  954MOL0     H31623   6.837   7.329   9.228 -1.8869  0.9184 -0.0731
  954MOL0     H31624   6.909   7.229   8.951  0.3242  0.2758 -0.1401
  954MOL0     H31625   6.983   7.359   9.040  1.7453  0.0231 -0.4534
  954MOL0     H31626   7.012   7.068   9.122  3.2121 -0.8513  1.7813
  954MOL0     H31627   7.097   7.196   9.193 -0.2259 -0.5923 -0.6062
  954MOL0     H31628   7.203   7.245   8.963  0.5115 -0.4432  1.6693
  954MOL0     H31629   7.141   7.099   8.898  1.0939 -0.7057  0.6247
  954MOL0     H31630   7.360   7.146   9.085  1.0789  0.5833 -0.9281
  954MOL0     H31631   7.345   7.045   8.936 -1.6644  0.3929 -0.5703
  954MOL0     H31632   6.264   7.506   9.216 -2.1349  2.1630  1.6066
  954MOL0     H31633   6.027   7.546   9.157  2.2350 -2.1253  1.4706
  954MOL0     H31634   5.711   7.618   9.028 -0.3541  0.1999 -0.5835
  954MOL0     H31635   5.481   7.694   9.060 -2.2629 -0.8219 -1.5880
  954MOL0     H31636   3.732   7.398   9.239 -0.2038 -0.6203  0.1281
  954MOL0     H31637   3.507   7.479   9.232  1.3691  2.0956  1.3596
  954MOL0     H31638   3.219   7.661   9.201 -2.2135 -3.3768  0.5936
  954MOL0     H31639   2.981   7.745   9.252 -0.4868 -2.9750  0.3687
  954MOL0     H31640   2.804   7.861   9.253  2.4972 -2.8469  0.0850
  954MOL0     H31641   2.637   7.841   9.185  1.1895 -0.0388 -0.4815
  954MOL0     H31642   2.806   7.632   9.323  0.9762 -0.1232 -0.2429
  954MOL0     H31643   2.677   7.596   9.204  0.5323 -0.8288  0.2163
  954MOL0     H31644   2.605   7.784   9.417  0.3279  1.1655 -2.6215
  954MOL0     H31645   2.500   7.680   9.325  2.5953  1.9102 -6.5191
  954MOL0     H31646   2.521   7.590   9.553 -1.3521 -2.6239  0.5915
  954MOL0     H31647   2.701   7.571   9.535 -0.0187  2.5149 -0.1466
  954MOL0     H31648   2.498   7.232   9.368 -2.2416  0.1084  0.1768
  954MOL0     H31649   2.879   7.704   8.836  1.0836  0.2663 -0.6737
  954MOL0     H31650   3.123   7.557   8.719 -0.8824  0.2282  0.2287
  954MOL0     H31651   3.051   7.712   8.670 -1.9007 -3.9058 -1.0678
  954MOL0     H31652   3.219   7.715   8.727  0.2733  0.5206  1.3674
  955MOL0     O31653   0.696   3.747  10.867 -0.1222 -0.5779  0.1582
  955MOL0     C31654   0.624   3.842  10.838 -0.2175 -0.8883 -0.6928
  955MOL0     O31655   0.593   3.892  10.713  0.0297 -0.2273  0.0770
  955MOL0     C31656   0.654   3.843  10.602  0.3297  0.8097  0.0949
  955MOL0     C31657   0.582   3.777  10.501 -0.0711 -1.1868  0.1850
  955MOL0     C31658   0.645   3.730  10.383 -0.5152 -0.5021  0.0416
  955MOL0     C31659   0.779   3.754  10.363  0.1678  0.6103  0.8173
  955MOL0     O31660   0.817   3.690  10.245 -0.2275 -0.3893 -0.1191
  955MOL0     C31661   0.955   3.728  10.215 -0.0098  0.3435 -0.7192
  955MOL0     C31662   0.982   3.672  10.081 -0.8709 -0.4594  0.1326
  955MOL0     C31663   1.130   3.693  10.047 -0.0843 -0.5037 -0.1253
  955MOL0     C31664   1.148   3.653   9.905 -0.6633  0.1855  0.0249
  955MOL0     C31665   1.299   3.654   9.866 -1.1031  0.1561 -0.3828
  955MOL0     C31666   1.306   3.613   9.714 -0.9623 -0.0053  0.2540
  955MOL0     C31667   1.460   3.621   9.686  0.7455 -0.2808  0.4635
  955MOL0     C31668   1.487   3.555   9.546 -0.4298 -0.4687 -0.4626
  955MOL0     N31669   1.631   3.552   9.529 -0.3318 -1.0513 -0.0271
  955MOL0     C31670   1.726   3.652   9.556  0.4122  0.0897  0.5692
  955MOL0     C31671   1.845   3.587   9.530 -0.3704  0.2348  0.6262
  955MOL0     C31672   1.975   3.656   9.549 -0.2166  0.6667 -0.0670
  955MOL0     C31673   2.029   3.707   9.412  0.0517 -0.4091  0.5163
  955MOL0     C31674   2.056   3.588   9.314 -0.4293 -0.0791  0.3134
  955MOL0     C31675   2.151   3.478   9.364 -0.5129 -0.3643 -0.0446
  955MOL0     O31676   2.275   3.534   9.411  0.5382  0.6832 -0.1579
  955MOL0     C31677   2.388   3.464   9.373 -0.7183 -0.5008  0.2672
  955MOL0     C31678   2.518   3.531   9.384  0.2236 -0.0754 -0.1647
  955MOL0     C31679   2.642   3.466   9.355  0.1588 -0.6463  0.4129
  955MOL0     C31680   2.769   3.541   9.359  0.5385  0.3538 -0.4597
  955MOL0     C31681   2.638   3.330   9.316 -1.0176 -0.5004 -0.0405
  955MOL0     C31682   2.762   3.250   9.301  0.2619 -0.5703 -0.5012
  955MOL0     O31683   2.748   3.152   9.216 -0.2813  0.4049  0.0959
  955MOL0     C31684   2.851   3.056   9.222  0.3199  0.1728 -0.7598
  955MOL0     C31685   2.980   3.093   9.193 -0.2661 -0.3377 -0.0077
  955MOL0     C31686   3.084   2.998   9.192 -0.5971  0.1141  0.0279
  955MOL0     C31687   3.064   2.870   9.231  0.2817 -0.1670  0.4468
  955MOL0     O31688   3.163   2.782   9.234  0.1207  0.6637  0.0901
  955MOL0     C31689   3.152   2.682   9.139  1.1173  0.7001  0.1187
  955MOL0     C31690   3.294   2.644   9.091  0.2320 -0.2743  0.4113
  955MOL0     C31691   3.379   2.561   9.194  0.7286  0.6498  0.0311
  955MOL0     C31692   3.527   2.603   9.194 -0.1707 -0.0080 -0.5321
  955MOL0     C31693   3.610   2.501   9.275  0.4701 -0.1868  0.2350
  955MOL0     C31694   3.758   2.516   9.246 -0.3770  0.2618  0.5888
  955MOL0     C31695   3.846   2.476   9.363  0.3907 -0.1925 -0.0584
  955MOL0     C31696   3.998   2.497   9.332  0.0178  0.9983 -0.2163
  955MOL0    Cl31697   4.077   2.451   9.490  0.2159  0.3041 -0.3955
  955MOL0     C31698   2.936   2.833   9.269 -0.2830 -0.3042  0.1374
  955MOL0     C31699   2.828   2.925   9.257 -0.1244  0.0970 -0.7348
  955MOL0     O31700   2.853   3.264   9.386  0.2458  0.5305 -0.4794
  955MOL0     C31701   2.515   3.264   9.309  0.3041  0.3912 -0.6244
  955MOL0     C31702   2.397   3.326   9.340 -0.2076 -0.9239  1.1106
  955MOL0     N31703   1.823   3.458   9.496  0.0850  0.1075 -0.2226
  955MOL0     N31704   1.696   3.444   9.483 -0.5677 -0.3057 -0.2097
  955MOL0     C31705   0.857   3.814  10.464 -0.0986  0.2613 -0.0193
  955MOL0     C31706   0.794   3.852  10.586  0.3746 -0.4500  0.0742
  955MOL0     C31707   0.539   3.910  10.946 -0.2954 -0.3450 -0.1198
  955MOL0     C31708   0.477   4.028  10.910 -1.0609 -0.3698 -0.6457
  955MOL0     C31709   0.417   4.117  11.011  0.2259 -0.0789  0.0540
  955MOL0     C31710   0.402   4.067  11.142  0.5161 -0.2023  0.2632
  955MOL0     O31711   0.344   4.143  11.246  0.1870  0.6540  0.2802
  955MOL0     C31712   0.246   4.245  11.208  0.4859  0.0342  0.1180
  955MOL0     C31713   0.300   4.381  11.184 -0.4085  0.1720  0.4992
  955MOL0     C31714   0.181   4.481  11.166 -0.4275  0.8982  0.3144
  955MOL0     C31715   0.223   4.620  11.124  0.1646 -0.3735 -0.4190
  955MOL0     C31716   0.123   4.692  11.042 -0.2968 -0.4231 -0.9771
  955MOL0     C31717   0.031   4.720  10.969  0.2107 -1.0440  0.7352
  955MOL0     C31718   0.454   3.947  11.172 -0.5084  0.0053 -0.0541
  955MOL0     C31719   0.516   3.863  11.081 -1.0970 -0.9058 -0.9387
  955MOL0     C31720   0.543   3.723  11.109  0.5087  0.0604  0.3298
  955MOL0     H31721   0.474   3.775  10.511 -0.5723  1.5169 -3.0595
  955MOL0     H31722   0.594   3.678  10.303 -2.1339  0.4624  0.3917
  955MOL0     H31723   1.025   3.684  10.286 -0.5491  1.3801  0.4775
  955MOL0     H31724   0.974   3.836  10.210 -2.2704  0.8062 -0.0259
  955MOL0     H31725   0.944   3.569  10.088  0.7252 -1.0432  0.8130
  955MOL0     H31726   0.909   3.710  10.009 -2.8371  0.6490  2.5667
  955MOL0     H31727   1.153   3.800  10.048 -0.6115 -0.3899  0.4581
  955MOL0     H31728   1.187   3.631  10.117  0.7093 -0.0277 -0.3356
  955MOL0     H31729   1.112   3.550   9.894 -0.4431 -0.4953  4.2422
  955MOL0     H31730   1.103   3.718   9.829  2.3340  1.4425 -0.8662
  955MOL0     H31731   1.360   3.580   9.919 -1.4354 -1.5812 -2.2581
  955MOL0     H31732   1.346   3.750   9.887  0.3271 -1.3046  4.0737
  955MOL0     H31733   1.277   3.508   9.706  2.1970 -1.0870  1.3429
  955MOL0     H31734   1.253   3.677   9.643  1.5913  1.7501 -0.1852
  955MOL0     H31735   1.518   3.566   9.761  0.5501 -0.1355  0.7243
  955MOL0     H31736   1.490   3.726   9.687 -0.5179  0.0977  0.8142
  955MOL0     H31737   1.449   3.452   9.544  0.5770 -0.8521 -0.4577
  955MOL0     H31738   1.438   3.610   9.466 -1.8018  1.0255  1.3116
  955MOL0     H31739   1.715   3.755   9.587  1.0142  0.2231  0.3570
  955MOL0     H31740   2.037   3.585   9.605 -2.2376  0.8354  2.5539
  955MOL0     H31741   1.964   3.745   9.611  0.3806  0.3972  0.4480
  955MOL0     H31742   1.954   3.767   9.358 -1.4570 -0.5861  2.2954
  955MOL0     H31743   2.112   3.777   9.426  1.7766 -2.3241  0.3496
  955MOL0     H31744   1.959   3.551   9.280 -0.9554  0.5892  1.0516
  955MOL0     H31745   2.108   3.640   9.233  0.6308  2.4627  2.4507
  955MOL0     H31746   2.107   3.407   9.434 -1.1776 -3.3928 -3.2519
  955MOL0     H31747   2.171   3.421   9.272 -0.2586  0.1725 -0.3285
  955MOL0     H31748   2.527   3.636   9.408 -2.6552  0.7206 -2.0459
  955MOL0     H31749   2.750   3.644   9.328 -0.6871  0.3031  0.0715
  955MOL0     H31750   2.833   3.495   9.282  0.4799 -0.5421  0.0122
  955MOL0     H31751   2.821   3.537   9.455 -0.2474  0.0694 -0.0341
  955MOL0     H31752   3.004   3.194   9.161  1.6619 -1.5791 -2.9223
  955MOL0     H31753   3.185   3.024   9.160 -0.4696 -1.9250 -1.4249
  955MOL0     H31754   3.101   2.590   9.170 -0.9421  1.4423 -0.9260
  955MOL0     H31755   3.099   2.723   9.053  3.5611  1.5465 -1.0831
  955MOL0     H31756   3.285   2.595   8.994 -2.3522  2.1470 -0.7130
  955MOL0     H31757   3.353   2.732   9.068 -1.4726  0.9109  0.3743
  955MOL0     H31758   3.370   2.455   9.166 -1.4711  0.2148  2.0046
  955MOL0     H31759   3.333   2.566   9.294  0.1545  0.3274 -0.2116
  955MOL0     H31760   3.521   2.706   9.231 -1.2467 -0.4694  0.6813
  955MOL0     H31761   3.572   2.607   9.094  2.1808  1.5089  0.5095
  955MOL0     H31762   3.595   2.524   9.381  1.0082 -2.3859  0.8409
  955MOL0     H31763   3.580   2.398   9.254 -1.3613 -0.0441  1.9022
  955MOL0     H31764   3.786   2.616   9.213 -1.5305  1.3272  2.6490
  955MOL0     H31765   3.796   2.443   9.174  3.1867 -0.2302  2.6973
  955MOL0     H31766   3.822   2.372   9.386  2.7159 -1.0224 -1.0734
  955MOL0     H31767   3.815   2.539   9.446 -0.0904 -0.1249 -0.2883
  955MOL0     H31768   4.013   2.605   9.320  0.4525  0.9018 -0.5611
  955MOL0     H31769   4.035   2.454   9.239  2.9524  1.5111  0.6140
  955MOL0     H31770   2.920   2.727   9.287 -0.7258 -0.1408  0.7366
  955MOL0     H31771   2.727   2.890   9.279  0.3961 -1.5619 -0.7974
  955MOL0     H31772   2.520   3.158   9.287  0.9349  0.5729 -1.3802
  955MOL0     H31773   2.308   3.263   9.344  0.4979 -1.9555  1.0357
  955MOL0     H31774   0.964   3.820  10.448  0.0275 -2.7780 -1.0803
  955MOL0     H31775   0.856   3.894  10.665  0.3795  0.8823 -0.6112
  955MOL0     H31776   0.491   4.076  10.814 -1.5936 -0.5657 -0.8258
  955MOL0     H31777   0.377   4.212  10.977 -0.9677 -0.1259  1.2531
  955MOL0     H31778   0.189   4.216  11.119 -2.4086  0.3234  1.7734
  955MOL0     H31779   0.173   4.249  11.289 -1.4191  3.8380 -1.5500
  955MOL0     H31780   0.351   4.376  11.087 -0.0113  0.4592  0.6897
  955MOL0     H31781   0.364   4.414  11.266  1.4197 -1.5103 -0.1691
  955MOL0     H31782   0.105   4.442  11.097 -1.6046  1.2757  1.3429
  955MOL0     H31783   0.138   4.479  11.267  1.6209 -4.2218  1.3445
  955MOL0     H31784   0.306   4.626  11.053  0.3463  1.6690 -0.1174
  955MOL0     H31785   0.258   4.674  11.212 -2.7451  0.6511  0.2178
  955MOL0     H31786  -0.046   4.763  10.909 -0.5665 -3.4197 -0.0548
  955MOL0     H31787   0.438   3.911  11.274  2.5593 -0.2193  0.4511
  955MOL0     H31788   0.497   3.658  11.035  0.9517  1.9267 -1.6860
  955MOL0     H31789   0.650   3.699  11.110  0.9727  1.3923 -3.2700
  955MOL0     H31790   0.512   3.701  11.212  0.2956  1.1716  0.5151
  956MOL0     O31791   0.586   3.119   7.394 -0.0202 -0.4785 -0.0213
  956MOL0     C31792   0.599   3.034   7.482 -0.2739  0.2462  0.3140
  956MOL0     O31793   0.708   2.946   7.486 -0.0022 -0.0060 -0.4657
  956MOL0     C31794   0.822   2.959   7.413 -0.1120 -0.1817  0.1577
  956MOL0     C31795   0.848   3.052   7.306  0.3532  0.5583 -0.2619
  956MOL0     C31796   0.961   3.049   7.222  0.3384 -0.1899 -0.0764
  956MOL0     C31797   1.062   2.972   7.254  0.5631  0.3721  1.0783
  956MOL0     O31798   1.181   2.979   7.190 -0.8204 -0.1530  0.8021
  956MOL0     C31799   1.230   3.101   7.130  0.5551 -0.3962  0.3749
  956MOL0     C31800   1.377   3.098   7.085 -0.2258  0.4200 -0.6587
  956MOL0     C31801   1.477   3.134   7.206  1.0879 -0.5958 -0.5720
  956MOL0     C31802   1.614   3.144   7.160 -0.8893  0.3665 -0.9252
  956MOL0     C31803   1.702   3.204   7.283 -0.0521  0.9453  0.3752
  956MOL0     C31804   1.850   3.164   7.280  0.4340 -0.8217 -0.8134
  956MOL0     C31805   1.923   3.248   7.382  0.1722  0.0808 -0.3423
  956MOL0     C31806   2.065   3.198   7.393 -0.5085 -0.6193  0.0776
  956MOL0     N31807   2.119   3.267   7.508  0.3075  0.1474 -0.1306
  956MOL0     C31808   2.095   3.218   7.631 -0.1876 -0.1634 -0.2376
  956MOL0     C31809   2.173   3.295   7.705  0.5939 -0.4009  0.5296
  956MOL0     C31810   2.192   3.299   7.853  0.8863  0.8936  0.1598
  956MOL0     C31811   2.334   3.359   7.890  0.7013 -0.3356 -0.0914
  956MOL0     C31812   2.367   3.355   8.041  0.4712  0.2176  0.3654
  956MOL0     C31813   2.507   3.411   8.075  0.0876  0.2040 -0.4487
  956MOL0     O31814   2.600   3.339   8.002 -0.5855 -0.2792 -0.1023
  956MOL0     C31815   2.729   3.392   7.991  0.4506  0.2411  0.0328
  956MOL0     C31816   2.781   3.513   8.040 -0.7107  0.0356 -0.5199
  956MOL0     C31817   2.917   3.557   8.021 -0.2311 -0.8789 -0.8571
  956MOL0     C31818   2.960   3.667   8.118 -0.6044 -0.3549 -0.3085
  956MOL0     C31819   3.001   3.492   7.931 -0.8055  0.5115  0.1336
  956MOL0     C31820   3.131   3.540   7.881 -0.0601  0.8369 -0.2344
  956MOL0     O31821   3.224   3.453   7.820  0.3022  0.3044 -0.5999
  956MOL0     C31822   3.326   3.497   7.740 -0.0567 -0.0814 -0.2285
  956MOL0     C31823   3.449   3.429   7.747 -0.4216 -0.5206  0.8424
  956MOL0     C31824   3.571   3.466   7.671 -0.3954 -0.3763  0.2729
  956MOL0     C31825   3.564   3.566   7.576 -0.2842 -0.3272 -0.9388
  956MOL0     O31826   3.687   3.596   7.522 -0.0238 -0.7123  0.3963
  956MOL0     C31827   3.692   3.727   7.462  0.3380 -0.1378 -0.5886
  956MOL0     C31828   3.830   3.749   7.409  0.1179 -0.1254  1.3690
  956MOL0     C31829   3.928   3.793   7.519  0.6269 -0.5135  0.1852
  956MOL0     C31830   4.075   3.791   7.475 -0.5322  0.2686  0.7823
  956MOL0     C31831   4.173   3.827   7.591 -0.1543 -0.3637 -0.1281
  956MOL0     C31832   4.180   3.984   7.623 -0.2522 -0.7813 -0.1556
  956MOL0     C31833   4.244   4.005   7.765  0.0753  0.0686 -0.7987
  956MOL0     C31834   4.360   3.905   7.812  0.0972  0.2617 -0.7744
  956MOL0    Cl31835   4.383   3.945   7.980  0.4731 -0.0052 -0.1510
  956MOL0     C31836   3.442   3.635   7.560  0.3389  0.3367 -0.2092
  956MOL0     C31837   3.328   3.596   7.642  0.3528 -0.1093 -0.6970
  956MOL0     O31838   3.147   3.664   7.894 -0.7220  0.0471  0.2703
  956MOL0     C31839   2.947   3.374   7.880 -0.0664 -0.0332  0.2910
  956MOL0     C31840   2.824   3.319   7.911  0.0410  0.4892 -0.6666
  956MOL0     N31841   2.245   3.390   7.628  0.6334 -0.2281 -0.2500
  956MOL0     N31842   2.220   3.361   7.508  0.1178  0.1353  0.0000
  956MOL0     C31843   1.044   2.873   7.354  0.2474  0.0232 -0.1895
  956MOL0     C31844   0.929   2.870   7.432 -0.3222 -0.0473  0.3914
  956MOL0     C31845   0.497   3.013   7.587 -0.1471 -0.0637 -0.1153
  956MOL0     C31846   0.543   2.937   7.698  0.7610 -0.7165  0.2390
  956MOL0     C31847   0.454   2.903   7.799 -0.3335 -1.3564 -1.1301
  956MOL0     C31848   0.322   2.942   7.795 -0.0863 -0.4884  0.3786
  956MOL0     O31849   0.241   2.907   7.900 -0.5059 -0.1686  0.8129
  956MOL0     C31850   0.101   2.910   7.893 -0.6426  0.2547  0.5828
  956MOL0     C31851   0.060   3.031   7.977 -0.4106  0.9902 -0.2604
  956MOL0     C31852  -0.092   3.062   7.964  0.8800  0.4660 -0.4252
  956MOL0     C31853  -0.167   2.980   8.071 -0.5449 -0.3413  0.2897
  956MOL0     C31854  -0.311   2.987   8.049  0.2269 -0.0145 -0.1795
  956MOL0     C31855  -0.431   2.990   8.025  0.6021 -0.0180 -0.2032
  956MOL0     C31856   0.281   3.030   7.690 -0.1125  0.6861 -0.8091
  956MOL0     C31857   0.365   3.063   7.585  1.0091 -0.5441 -0.0142
  956MOL0     C31858   0.308   3.158   7.480  0.3381 -0.3558 -0.1016
  956MOL0     H31859   0.773   3.121   7.268  2.3841  2.3544 -1.1793
  956MOL0     H31860   0.976   3.128   7.149  2.2282  1.1715  1.6608
  956MOL0     H31861   1.208   3.183   7.199 -0.3790 -0.0028 -0.3626
  956MOL0     H31862   1.177   3.119   7.036  0.7058 -1.4328  0.0778
  956MOL0     H31863   1.403   2.999   7.047  0.1295  0.0096  0.6153
  956MOL0     H31864   1.392   3.169   7.003  0.7103 -0.3131 -1.1390
  956MOL0     H31865   1.462   3.231   7.253 -0.8230 -1.0979 -0.0840
  956MOL0     H31866   1.464   3.059   7.285 -0.3334 -0.5943 -0.7884
  956MOL0     H31867   1.628   3.037   7.144 -4.4791 -0.5597  1.1891
  956MOL0     H31868   1.632   3.198   7.066 -0.3390 -0.8557 -1.5533
  956MOL0     H31869   1.648   3.177   7.375 -2.1859  2.1810 -0.4387
  956MOL0     H31870   1.701   3.313   7.273 -0.7968  0.8141 -1.3047
  956MOL0     H31871   1.867   3.060   7.309 -1.2843 -0.9013  0.0112
  956MOL0     H31872   1.895   3.183   7.182  0.4655 -0.8033 -0.7954
  956MOL0     H31873   1.872   3.236   7.478 -1.3347  1.9047 -0.8548
  956MOL0     H31874   1.911   3.355   7.362 -3.5407 -0.1935 -0.1986
  956MOL0     H31875   2.074   3.090   7.405  2.4029 -0.2332  2.6524
  956MOL0     H31876   2.118   3.229   7.303 -3.4087  0.2495 -1.4695
  956MOL0     H31877   2.026   3.138   7.655 -0.2226 -0.2707 -0.6808
  956MOL0     H31878   2.189   3.196   7.890 -0.6897  0.6577 -0.5704
  956MOL0     H31879   2.115   3.362   7.899  0.3701 -0.9908  2.0804
  956MOL0     H31880   2.411   3.314   7.828 -0.1831  0.6112 -1.9539
  956MOL0     H31881   2.336   3.462   7.856 -1.2052 -0.2725 -0.1503
  956MOL0     H31882   2.286   3.403   8.096  1.3857  2.2954 -0.0049
  956MOL0     H31883   2.384   3.252   8.076 -0.9278  0.7284  2.7456
  956MOL0     H31884   2.513   3.517   8.048 -0.5105  0.5703  0.7684
  956MOL0     H31885   2.515   3.405   8.184 -2.6267  1.0037 -0.1301
  956MOL0     H31886   2.718   3.566   8.111  2.1750 -0.5966  2.7971
  956MOL0     H31887   3.068   3.674   8.131 -0.2136 -4.4459 -0.0592
  956MOL0     H31888   2.914   3.639   8.214 -3.0687 -0.8965 -1.5642
  956MOL0     H31889   2.908   3.759   8.092  0.0578 -0.1932 -1.0639
  956MOL0     H31890   3.462   3.350   7.819  2.2882 -2.4969 -1.5697
  956MOL0     H31891   3.668   3.418   7.673  0.9480  1.9610 -1.8005
  956MOL0     H31892   3.621   3.731   7.379 -1.2987  0.1281  0.7729
  956MOL0     H31893   3.665   3.802   7.537 -0.0811  0.3837 -1.2577
  956MOL0     H31894   3.859   3.653   7.367 -1.0447  0.0191  0.1441
  956MOL0     H31895   3.829   3.829   7.334  3.4647  0.1891  1.5370
  956MOL0     H31896   3.910   3.730   7.607 -0.5483  0.0909  0.4022
  956MOL0     H31897   3.894   3.896   7.532 -3.7835 -1.2972 -2.7145
  956MOL0     H31898   4.086   3.863   7.393  0.2905  2.1790  2.4700
  956MOL0     H31899   4.094   3.695   7.427 -1.3055  2.3393 -4.3077
  956MOL0     H31900   4.147   3.778   7.685 -2.2338 -1.3975 -1.1619
  956MOL0     H31901   4.271   3.801   7.552  0.7913 -0.5013  2.2034
  956MOL0     H31902   4.077   4.020   7.621 -0.3149 -0.8129  1.1985
  956MOL0     H31903   4.232   4.044   7.548  3.3962 -2.8703  0.4331
  956MOL0     H31904   4.159   3.987   7.831 -2.1566  2.7162 -2.7145
  956MOL0     H31905   4.270   4.108   7.792 -3.1959  0.6956  0.3244
  956MOL0     H31906   4.443   3.909   7.741 -0.9764 -4.0348 -2.6557
  956MOL0     H31907   4.333   3.799   7.815 -0.5100  0.4302  1.9903
  956MOL0     H31908   3.433   3.714   7.486  1.4236  0.5165 -0.1597
  956MOL0     H31909   3.231   3.640   7.621  1.1202  2.0226 -0.1120
  956MOL0     H31910   2.998   3.319   7.802  0.3794 -1.0905  1.2971
  956MOL0     H31911   2.793   3.233   7.853 -1.1357  0.9059 -0.6782
  956MOL0     H31912   1.127   2.804   7.371  1.2220  1.3874  0.8023
  956MOL0     H31913   0.917   2.789   7.502 -0.0131  0.3151  0.8712
  956MOL0     H31914   0.640   2.888   7.708  0.6001 -1.2988 -0.8584
  956MOL0     H31915   0.497   2.853   7.885 -0.9136  1.0343  0.6612
  956MOL0     H31916   0.064   2.913   7.790  1.0279  2.2415 -0.0199
  956MOL0     H31917   0.059   2.824   7.946  0.0596 -0.3412  0.1817
  956MOL0     H31918   0.104   3.124   7.941 -3.0035  1.1082 -3.5622
  956MOL0     H31919   0.088   3.001   8.078 -0.5904 -2.3199 -1.0831
  956MOL0     H31920  -0.111   3.168   7.982  4.0013  1.1555 -0.6293
  956MOL0     H31921  -0.129   3.036   7.865  0.8696 -1.4375  0.0384
  956MOL0     H31922  -0.144   3.011   8.173 -2.8766 -1.6637  1.2760
  956MOL0     H31923  -0.141   2.875   8.057 -1.2548 -0.7230  1.7364
  956MOL0     H31924  -0.537   2.985   8.012  0.6356  1.3559 -1.2052
  956MOL0     H31925   0.177   3.062   7.694 -0.0739  0.8604 -1.1909
  956MOL0     H31926   0.261   3.097   7.402  0.3741 -2.7013  1.6093
  956MOL0     H31927   0.224   3.210   7.527  0.5370 -0.5101  0.4258
  956MOL0     H31928   0.382   3.236   7.461 -0.6743  1.0488  1.4479
  957MOL0     O31929   5.161   5.375   7.798  0.7169 -0.6305 -0.0699
  957MOL0     C31930   5.130   5.454   7.889  0.8213  0.2847 -0.3801
  957MOL0     O31931   5.209   5.555   7.945  0.7390 -0.0113 -0.6489
  957MOL0     C31932   5.318   5.584   7.874 -0.7827  0.1312  1.2169
  957MOL0     C31933   5.320   5.645   7.743  0.2100 -0.0252 -0.0197
  957MOL0     C31934   5.443   5.672   7.676 -0.5679  0.0845  0.5903
  957MOL0     C31935   5.571   5.649   7.734  0.2604 -0.0692  0.1856
  957MOL0     O31936   5.695   5.676   7.684 -0.0346  0.2944 -0.1220
  957MOL0     C31937   5.691   5.738   7.553 -0.4409  0.1455  0.4239
  957MOL0     C31938   5.829   5.779   7.506 -0.3412 -0.4055 -0.4932
  957MOL0     C31939   5.920   5.659   7.459 -0.0622  0.5681  0.6463
  957MOL0     C31940   5.911   5.623   7.307  0.5053 -0.2765 -0.0737
  957MOL0     C31941   5.984   5.495   7.268 -0.3211 -0.2398  0.6138
  957MOL0     C31942   6.031   5.492   7.123 -0.7578 -0.5900  0.0136
  957MOL0     C31943   6.109   5.360   7.095  0.1185 -0.3112  0.0791
  957MOL0     C31944   6.257   5.374   7.120 -0.4056 -0.5782 -0.0120
  957MOL0     N31945   6.310   5.417   7.250  0.0704 -0.4325 -0.0022
  957MOL0     C31946   6.319   5.326   7.357  0.7565 -0.1535  0.4112
  957MOL0     C31947   6.383   5.393   7.449  0.0859 -0.2759  0.5328
  957MOL0     C31948   6.401   5.345   7.586  0.4471  0.0839  0.7173
  957MOL0     C31949   6.547   5.323   7.621 -0.4900  0.5400 -0.8935
  957MOL0     C31950   6.627   5.278   7.495 -0.2210 -0.4015  0.3712
  957MOL0     C31951   6.775   5.262   7.536 -0.5587  0.4442  0.7334
  957MOL0     O31952   6.851   5.176   7.449  0.4413  0.2816  0.0323
  957MOL0     C31953   6.987   5.177   7.458  0.2666 -0.2558 -0.1392
  957MOL0     C31954   7.055   5.107   7.361 -0.5638 -0.6034  0.3842
  957MOL0     C31955   7.196   5.091   7.358 -0.1037  0.8587 -0.5016
  957MOL0     C31956   7.256   5.021   7.242  0.1386  0.4172  1.0302
  957MOL0     C31957   7.278   5.169   7.448  0.2795 -0.2436  0.4578
  957MOL0     C31958   7.434   5.169   7.451  0.2704 -0.7309  0.2667
  957MOL0     O31959   7.491   5.269   7.514 -0.2784 -0.5484 -0.2472
  957MOL0     C31960   7.623   5.250   7.555  0.3135  0.1157  0.2373
  957MOL0     C31961   7.650   5.191   7.677 -0.7555 -0.1403  0.0814
  957MOL0     C31962   7.787   5.165   7.716 -0.6635 -0.2875  0.1287
  957MOL0     C31963   7.893   5.204   7.629 -0.6200  0.5398  0.3194
  957MOL0     O31964   8.032   5.199   7.653 -0.5658 -0.3041 -0.5433
  957MOL0     C31965   8.083   5.152   7.780 -0.0607  0.5514  0.2134
  957MOL0     C31966   8.228   5.113   7.783  0.1881 -0.6534 -0.2677
  957MOL0     C31967   8.313   5.242   7.771 -0.2823  0.3811  0.0363
  957MOL0     C31968   8.468   5.197   7.770  0.8060  0.2999 -0.0496
  957MOL0     C31969   8.560   5.299   7.700 -0.2361 -0.1840 -0.1167
  957MOL0     C31970   8.704   5.248   7.687  0.1917  1.7238  0.2400
  957MOL0     C31971   8.801   5.347   7.619  1.0228 -0.0910 -0.3232
  957MOL0     C31972   8.766   5.394   7.478 -0.6827  0.3801  0.0155
  957MOL0    Cl31973   8.774   5.257   7.362 -0.1890  0.0233  0.2216
  957MOL0     C31974   7.866   5.261   7.512  0.7013 -0.7860  0.5558
  957MOL0     C31975   7.731   5.282   7.467  0.4505  0.6192 -0.6112
  957MOL0     O31976   7.491   5.083   7.382  0.2667 -0.1742  0.3128
  957MOL0     C31977   7.203   5.232   7.556  0.1643  0.1473 -0.3946
  957MOL0     C31978   7.065   5.236   7.559 -0.7390 -0.7584 -0.0602
  957MOL0     N31979   6.406   5.525   7.402  0.1905 -0.7282 -0.0826
  957MOL0     N31980   6.364   5.535   7.279  0.1658  0.1423 -0.0627
  957MOL0     C31981   5.569   5.603   7.867  0.1093 -0.3205 -0.6155
  957MOL0     C31982   5.446   5.566   7.930 -1.7907 -0.3555 -0.2577
  957MOL0     C31983   4.999   5.418   7.952  0.1364  0.8066  0.1737
  957MOL0     C31984   4.982   5.458   8.088  0.3607 -0.0181 -1.2680
  957MOL0     C31985   4.866   5.421   8.155  0.3633  1.4360  0.5450
  957MOL0     C31986   4.767   5.342   8.100  0.9954  0.0198  0.5116
  957MOL0     O31987   4.648   5.329   8.169  0.0351 -0.1200 -0.7267
  957MOL0     C31988   4.540   5.248   8.121  0.7936  0.1349 -0.6820
  957MOL0     C31989   4.415   5.261   8.212 -0.2833 -0.5042  0.5160
  957MOL0     C31990   4.380   5.153   8.322 -0.8791  0.3705  0.2422
  957MOL0     C31991   4.245   5.176   8.401 -0.3727  0.0057 -1.6579
  957MOL0     C31992   4.129   5.208   8.322  0.0020 -0.9915 -0.1811
  957MOL0     C31993   4.037   5.236   8.249  0.0924 -0.7556 -0.4492
  957MOL0     C31994   4.791   5.294   7.965 -0.1043 -0.4300 -0.1983
  957MOL0     C31995   4.902   5.334   7.890 -0.8658 -0.1880  0.2034
  957MOL0     C31996   4.912   5.275   7.748 -0.1012 -0.3025  0.4645
  957MOL0     H31997   5.224   5.656   7.693  0.6220 -0.0221 -0.8306
  957MOL0     H31998   5.425   5.700   7.572 -2.6720 -1.1478  0.5547
  957MOL0     H31999   5.626   5.826   7.544  1.8191  1.7193 -2.1970
  957MOL0     H32000   5.658   5.667   7.477 -0.9899  0.9592 -0.1154
  957MOL0     H32001   5.827   5.854   7.426 -0.1110  2.2425  1.8518
  957MOL0     H32002   5.870   5.835   7.591  0.9269 -0.0525 -1.3046
  957MOL0     H32003   6.025   5.684   7.472  1.0753 -2.9588 -0.5873
  957MOL0     H32004   5.904   5.564   7.511  2.4559  1.1346  2.6440
  957MOL0     H32005   5.804   5.620   7.283 -0.0374  0.7499  2.0308
  957MOL0     H32006   5.956   5.707   7.253 -0.0894  0.8610  1.1495
  957MOL0     H32007   5.917   5.410   7.287 -2.0617 -0.0572 -3.5505
  957MOL0     H32008   6.074   5.486   7.328 -0.8316  0.4763  1.5132
  957MOL0     H32009   5.935   5.500   7.071 -0.3359  0.7083 -0.6016
  957MOL0     H32010   6.094   5.581   7.111 -0.9500  0.1366  3.4767
  957MOL0     H32011   6.083   5.336   6.991 -2.4216 -2.1497  1.0367
  957MOL0     H32012   6.075   5.280   7.161  2.6159 -2.0557 -0.5958
  957MOL0     H32013   6.309   5.279   7.106 -1.0045 -0.8109 -0.7266
  957MOL0     H32014   6.307   5.440   7.048  0.7257 -0.5537  0.7710
  957MOL0     H32015   6.289   5.222   7.353 -1.0392  0.3716 -0.6073
  957MOL0     H32016   6.338   5.257   7.607 -0.2369  0.3566 -0.1120
  957MOL0     H32017   6.368   5.424   7.654 -0.2748 -1.5949  2.4086
  957MOL0     H32018   6.581   5.417   7.665 -2.3538 -0.4880  3.1951
  957MOL0     H32019   6.552   5.245   7.697 -2.6814  0.1563 -1.0649
  957MOL0     H32020   6.575   5.185   7.473 -0.7689 -0.5491  2.0936
  957MOL0     H32021   6.620   5.351   7.414 -2.4128 -1.8340 -0.8291
  957MOL0     H32022   6.828   5.357   7.535 -0.7138  0.6073 -2.2724
  957MOL0     H32023   6.774   5.211   7.633 -1.0038  0.1397  0.5762
  957MOL0     H32024   6.998   5.043   7.294 -1.5101 -1.6093  2.0820
  957MOL0     H32025   7.179   5.014   7.164 -1.7432 -2.7211  2.9689
  957MOL0     H32026   7.297   4.925   7.274  4.8667  2.2424  1.3913
  957MOL0     H32027   7.337   5.087   7.210 -0.4875  1.5354  1.6865
  957MOL0     H32028   7.563   5.163   7.735 -1.4569 -1.3807 -1.4893
  957MOL0     H32029   7.818   5.114   7.806  1.4867 -1.7022 -1.3071
  957MOL0     H32030   8.071   5.234   7.851  1.6400  1.7099 -0.7585
  957MOL0     H32031   8.025   5.068   7.817  0.5637 -0.3863 -0.8737
  957MOL0     H32032   8.254   5.066   7.878 -0.2682  1.1069  0.7678
  957MOL0     H32033   8.242   5.035   7.708 -3.1951 -1.2926 -0.3642
  957MOL0     H32034   8.292   5.318   7.846 -2.5040  0.5030 -0.6662
  957MOL0     H32035   8.302   5.289   7.673  2.9959 -2.1735 -1.7818
  957MOL0     H32036   8.460   5.103   7.714 -2.3674 -0.6992  1.8367
  957MOL0     H32037   8.497   5.180   7.874 -0.1743  0.9969  0.3516
  957MOL0     H32038   8.513   5.320   7.604  1.0390  0.6120 -0.5883
  957MOL0     H32039   8.561   5.395   7.753 -1.3186 -1.3654  2.2076
  957MOL0     H32040   8.703   5.164   7.616 -4.5265  2.4629 -0.9151
  957MOL0     H32041   8.732   5.218   7.788 -1.9599 -0.3706  0.2945
  957MOL0     H32042   8.903   5.308   7.615 -0.2887 -3.9218 -0.7399
  957MOL0     H32043   8.808   5.436   7.682  0.5391 -0.3201  0.0631
  957MOL0     H32044   8.845   5.465   7.452  0.2743 -0.3794  0.7888
  957MOL0     H32045   8.675   5.454   7.472  0.3664  2.1842  1.1119
  957MOL0     H32046   7.940   5.285   7.437  0.3596 -3.5637 -0.7858
  957MOL0     H32047   7.710   5.342   7.379  0.0133 -0.4164 -1.2248
  957MOL0     H32048   7.263   5.268   7.639  0.5518 -0.7890 -0.2486
  957MOL0     H32049   7.031   5.307   7.634 -2.3469  1.1280 -2.4342
  957MOL0     H32050   5.651   5.588   7.936  0.0598  2.0374  0.0306
  957MOL0     H32051   5.450   5.527   8.032  1.8590  2.9199  1.1028
  957MOL0     H32052   5.056   5.521   8.134 -0.8077  1.2489 -1.0664
  957MOL0     H32053   4.854   5.469   8.252  1.2732 -0.6651  1.7564
  957MOL0     H32054   4.523   5.269   8.015  2.3181 -0.5445 -1.0986
  957MOL0     H32055   4.576   5.144   8.121  2.7644  0.7281  1.5370
  957MOL0     H32056   4.323   5.264   8.153 -0.8651 -4.0855  0.9971
  957MOL0     H32057   4.440   5.355   8.263  0.7161 -0.9759  0.9143
  957MOL0     H32058   4.371   5.063   8.260  1.5972  1.7172 -2.3287
  957MOL0     H32059   4.469   5.141   8.384  1.2209  0.6942 -2.4997
  957MOL0     H32060   4.269   5.258   8.470 -0.9420  0.9069 -2.5025
  957MOL0     H32061   4.224   5.094   8.470  1.1337  2.0873  1.4945
  957MOL0     H32062   3.955   5.262   8.185  0.4991  4.1196  0.5941
  957MOL0     H32063   4.713   5.236   7.916  0.4574 -0.3084 -1.2572
  957MOL0     H32064   4.816   5.239   7.710 -0.6986 -1.1063  2.5420
  957MOL0     H32065   4.948   5.358   7.688 -1.4149  1.3896  1.9060
  957MOL0     H32066   4.988   5.197   7.755  1.4868  1.2733  1.6069
  958MOL0     O32067   4.908   1.001   3.971  0.7017  0.7223 -0.2440
  958MOL0     C32068   4.835   1.042   4.058  0.8111 -0.0221 -0.2223
  958MOL0     O32069   4.878   1.076   4.183 -0.1648 -0.0151 -0.3760
  958MOL0     C32070   5.010   1.043   4.211 -0.0313 -0.3500  0.5502
  958MOL0     C32071   5.119   1.092   4.136  0.6901 -0.2528  0.0035
  958MOL0     C32072   5.251   1.057   4.170 -1.0151 -0.4084  0.3044
  958MOL0     C32073   5.277   0.976   4.276  0.3348  0.9426 -0.4434
  958MOL0     O32074   5.399   0.929   4.322 -0.3056 -0.0675 -0.7533
  958MOL0     C32075   5.513   0.992   4.261  0.6048  0.9799  0.3806
  958MOL0     C32076   5.633   0.922   4.317 -0.6360  0.3502  0.0949
  958MOL0     C32077   5.654   0.799   4.235  0.2161  0.2497 -0.1645
  958MOL0     C32078   5.764   0.717   4.312  0.3910  0.9894 -1.0269
  958MOL0     C32079   5.837   0.618   4.218 -0.3400 -0.7118 -0.6648
  958MOL0     C32080   5.935   0.527   4.285  0.2985 -0.0175 -0.1349
  958MOL0     C32081   5.897   0.382   4.280 -0.0441  0.5879  0.0711
  958MOL0     C32082   6.013   0.299   4.335  0.5931  0.3565  0.5934
  958MOL0     N32083   6.075   0.339   4.462 -0.3072  0.7815  0.3641
  958MOL0     C32084   6.027   0.314   4.590  0.1452  0.1654  0.5101
  958MOL0     C32085   6.135   0.333   4.666  0.1939 -0.1181  0.3348
  958MOL0     C32086   6.134   0.297   4.811 -0.3081 -0.0295  0.2080
  958MOL0     C32087   6.168   0.144   4.822  0.9818  0.3068 -0.1521
  958MOL0     C32088   6.210   0.108   4.969  0.2943 -0.0073 -0.9724
  958MOL0     C32089   6.277  -0.031   4.970 -0.7087 -0.2084 -0.0207
  958MOL0     O32090   6.382  -0.040   5.064  0.4640 -0.4424  0.0576
  958MOL0     C32091   6.494  -0.102   5.024 -0.0071 -0.0417  0.6365
  958MOL0     C32092   6.489  -0.225   4.962 -0.2081 -0.3583 -0.7500
  958MOL0     C32093   6.610  -0.299   4.942  0.5267 -0.0915  0.5180
  958MOL0     C32094   6.595  -0.446   4.886 -0.0721 -0.4414  0.3295
  958MOL0     C32095   6.737  -0.243   4.968  0.3285 -0.1627 -0.4144
  958MOL0     C32096   6.866  -0.310   4.926 -0.3451 -0.3392  1.0708
  958MOL0     O32097   6.981  -0.235   4.930  0.1728 -0.2445  0.5565
  958MOL0     C32098   7.105  -0.289   4.897 -1.2932  0.3121 -0.0161
  958MOL0     C32099   7.214  -0.252   4.975 -0.5041  0.2226  0.0338
  958MOL0     C32100   7.342  -0.295   4.948 -0.1198 -0.0011  0.0124
  958MOL0     C32101   7.372  -0.377   4.834 -0.0556  0.0821  0.1922
  958MOL0     O32102   7.497  -0.426   4.823 -0.6466  0.2838  0.8528
  958MOL0     C32103   7.513  -0.569   4.825 -0.1948 -0.4804 -0.3367
  958MOL0     C32104   7.474  -0.621   4.968  0.6512 -0.2173 -0.1991
  958MOL0     C32105   7.570  -0.584   5.080 -0.4291  0.0231  0.2520
  958MOL0     C32106   7.543  -0.665   5.208 -0.3150  0.0874 -0.9358
  958MOL0     C32107   7.605  -0.603   5.341 -0.4210 -0.3763  0.2470
  958MOL0     C32108   7.529  -0.476   5.384 -0.1795 -0.1191  0.1646
  958MOL0     C32109   7.544  -0.456   5.536  1.0776  0.7845  0.0956
  958MOL0     C32110   7.463  -0.334   5.592 -1.0910 -0.0407  0.3042
  958MOL0    Cl32111   7.531  -0.177   5.552  0.4280 -0.1750 -0.0355
  958MOL0     C32112   7.270  -0.397   4.738  0.8658 -0.9039 -0.5095
  958MOL0     C32113   7.134  -0.350   4.769 -0.5243  0.1644 -0.7678
  958MOL0     O32114   6.870  -0.431   4.907  0.4413  0.0615 -0.3107
  958MOL0     C32115   6.741  -0.114   5.024 -0.6680  0.7148 -0.2223
  958MOL0     C32116   6.619  -0.055   5.066 -1.0908 -0.5960  0.7739
  958MOL0     N32117   6.237   0.383   4.593 -0.2789 -0.2877  0.6511
  958MOL0     N32118   6.202   0.394   4.473  1.0225 -0.1083 -0.4856
  958MOL0     C32119   5.169   0.935   4.355  0.0761  0.4231 -0.1043
  958MOL0     C32120   5.038   0.969   4.328  0.6154 -0.9108  0.4729
  958MOL0     C32121   4.691   1.037   4.036 -0.0644 -0.7132  0.3149
  958MOL0     C32122   4.643   1.063   3.905  0.1083  0.1736 -0.2137
  958MOL0     C32123   4.506   1.085   3.878 -0.1239  0.3980 -0.0911
  958MOL0     C32124   4.416   1.072   3.976  1.0163  0.1889 -0.2416
  958MOL0     O32125   4.285   1.093   3.940 -0.2026  0.0422 -0.4761
  958MOL0     C32126   4.197   1.130   4.053  0.5871 -0.4856 -0.0941
  958MOL0     C32127   4.117   1.252   3.990  1.0481 -0.3008 -1.2686
  958MOL0     C32128   4.197   1.368   3.950  0.3375  0.4395 -0.0656
  958MOL0     C32129   4.116   1.469   3.866  1.0402 -0.0815 -0.1156
  958MOL0     C32130   4.025   1.545   3.955 -0.2020 -0.0534 -0.7650
  958MOL0     C32131   3.969   1.630   4.025 -0.6033  0.7047 -0.1004
  958MOL0     C32132   4.462   1.041   4.106  0.3525  0.2684 -0.2505
  958MOL0     C32133   4.595   1.010   4.132  0.4472  0.0076  0.0428
  958MOL0     C32134   4.633   0.954   4.271  0.1535 -0.6380 -0.1865
  958MOL0     H32135   5.106   1.163   4.056 -0.2123  0.2759  0.5986
  958MOL0     H32136   5.333   1.095   4.110 -1.0253 -0.4342  0.2749
  958MOL0     H32137   5.503   1.096   4.292 -2.7213  1.0965 -0.6716
  958MOL0     H32138   5.526   0.990   4.152  2.0010  1.9944  0.5086
  958MOL0     H32139   5.729   0.975   4.324 -0.7630  0.6528 -0.3899
  958MOL0     H32140   5.614   0.892   4.421  3.5990  2.0952  1.6107
  958MOL0     H32141   5.561   0.745   4.217 -1.2990  2.4313  0.6296
  958MOL0     H32142   5.693   0.825   4.136 -3.5943 -2.3072 -2.5902
  958MOL0     H32143   5.832   0.775   4.375  0.9327  1.8128 -2.3243
  958MOL0     H32144   5.707   0.656   4.382  2.7361  0.1934  0.3009
  958MOL0     H32145   5.891   0.678   4.144  1.2139  0.2622  1.1667
  958MOL0     H32146   5.761   0.560   4.164 -2.5680  0.3182  1.1837
  958MOL0     H32147   6.023   0.532   4.220 -1.5107  1.0972 -2.6481
  958MOL0     H32148   5.952   0.560   4.388 -2.0024 -3.1398  1.4399
  958MOL0     H32149   5.880   0.353   4.175  1.3585  1.2184 -0.3482
  958MOL0     H32150   5.802   0.367   4.332 -0.3758 -1.4373 -0.9843
  958MOL0     H32151   5.991   0.192   4.344  1.7305 -0.1107 -1.5361
  958MOL0     H32152   6.089   0.305   4.257 -0.2135 -1.3485 -0.3718
  958MOL0     H32153   5.928   0.274   4.612 -0.4713  1.9737  1.1948
  958MOL0     H32154   6.042   0.332   4.857  0.1146  0.4212  0.7225
  958MOL0     H32155   6.215   0.353   4.858  0.3603 -0.9379  0.1724
  958MOL0     H32156   6.078   0.087   4.799 -0.0081  1.5411  0.4897
  958MOL0     H32157   6.247   0.118   4.752 -1.0163  0.5501 -2.6325
  958MOL0     H32158   6.278   0.189   4.998  1.2138 -1.1760  0.2215
  958MOL0     H32159   6.130   0.107   5.044  0.0812  0.1439 -1.1931
  958MOL0     H32160   6.209  -0.110   5.005 -0.6411  0.1940  1.0406
  958MOL0     H32161   6.308  -0.069   4.872  1.1972  0.9446  0.0890
  958MOL0     H32162   6.390  -0.269   4.951 -0.4770  0.1659 -0.4646
  958MOL0     H32163   6.508  -0.450   4.821 -0.1187  0.1133  0.3531
  958MOL0     H32164   6.587  -0.528   4.958  1.4869 -2.3943 -1.6038
  958MOL0     H32165   6.676  -0.468   4.816  1.3043 -0.3705  1.8089
  958MOL0     H32166   7.204  -0.192   5.065 -1.9739  0.1424 -0.0514
  958MOL0     H32167   7.426  -0.279   5.016 -1.2852  4.1349  0.7826
  958MOL0     H32168   7.445  -0.609   4.749 -0.7328  1.7538 -1.1227
  958MOL0     H32169   7.615  -0.600   4.801 -0.0473  0.6045 -1.1849
  958MOL0     H32170   7.378  -0.575   4.995  0.7076  2.0941 -3.3321
  958MOL0     H32171   7.467  -0.730   4.970 -2.3786 -0.1186 -0.8348
  958MOL0     H32172   7.543  -0.482   5.110  4.4696  1.8329 -0.6301
  958MOL0     H32173   7.675  -0.589   5.053 -0.8811  0.1186 -1.6664
  958MOL0     H32174   7.580  -0.767   5.194  1.4030  0.6689 -0.8813
  958MOL0     H32175   7.436  -0.672   5.230 -0.1144 -1.5928 -0.2932
  958MOL0     H32176   7.602  -0.675   5.424 -2.2238 -1.1457 -0.4201
  958MOL0     H32177   7.712  -0.584   5.333 -0.5086 -0.1379 -0.3459
  958MOL0     H32178   7.424  -0.504   5.372 -0.8027  1.1194  2.2356
  958MOL0     H32179   7.551  -0.384   5.329 -2.8133  1.8657  2.1438
  958MOL0     H32180   7.653  -0.444   5.544  0.9360  3.9972 -1.2390
  958MOL0     H32181   7.499  -0.540   5.590  3.1320  0.8997  2.1433
  958MOL0     H32182   7.455  -0.326   5.701 -0.1652  0.6895  0.3397
  958MOL0     H32183   7.367  -0.347   5.543 -0.5730 -1.0589 -0.4863
  958MOL0     H32184   7.285  -0.454   4.647  0.4418 -0.3516 -0.9323
  958MOL0     H32185   7.052  -0.370   4.700 -1.5421 -2.0290  0.9589
  958MOL0     H32186   6.837  -0.067   5.044  1.4098 -3.8041  1.8708
  958MOL0     H32187   6.614   0.034   5.127  1.2675  1.3571 -1.6079
  958MOL0     H32188   5.189   0.879   4.446 -2.9396  0.3355  0.6137
  958MOL0     H32189   4.946   0.940   4.376 -1.0568 -0.0376 -2.0054
  958MOL0     H32190   4.720   1.088   3.833 -0.5713 -0.1242 -1.0655
  958MOL0     H32191   4.479   1.114   3.777 -1.5687 -1.1867 -0.2035
  958MOL0     H32192   4.120   1.054   4.073 -0.0071  0.2001  0.2874
  958MOL0     H32193   4.255   1.166   4.139  0.1766 -0.4808  0.1879
  958MOL0     H32194   4.046   1.280   4.069  0.4151 -0.6142 -1.7244
  958MOL0     H32195   4.059   1.222   3.903 -1.1065  1.4453 -0.5374
  958MOL0     H32196   4.246   1.418   4.033  1.7838 -0.0489 -0.5931
  958MOL0     H32197   4.268   1.324   3.879  0.5084 -2.4137  1.7261
  958MOL0     H32198   4.064   1.421   3.782  1.1746  1.8708 -1.3789
  958MOL0     H32199   4.183   1.539   3.815  2.6004 -2.8434 -2.1808
  958MOL0     H32200   3.929   1.700   4.096 -0.0625  0.1662  0.7492
  958MOL0     H32201   4.393   1.020   4.187 -0.1588  0.5874 -0.5977
  958MOL0     H32202   4.693   0.863   4.262  1.1065 -0.2377  1.6474
  958MOL0     H32203   4.695   1.029   4.321  1.5456 -1.5447 -0.4903
  958MOL0     H32204   4.549   0.922   4.333  1.6838 -2.1083  1.2622
  959MOL0     O32205   1.147   0.930   3.304  0.6845  0.2546  0.1247
  959MOL0     C32206   1.043   0.991   3.264 -0.0617 -0.1578 -0.3910
  959MOL0     O32207   1.019   1.125   3.298 -0.3313 -0.5669 -0.2976
  959MOL0     C32208   1.129   1.211   3.315 -0.2327 -0.0761  1.5052
  959MOL0     C32209   1.143   1.321   3.222 -0.0273 -0.3433  0.0684
  959MOL0     C32210   1.251   1.417   3.233  0.3522 -0.1575 -0.5706
  959MOL0     C32211   1.345   1.401   3.332 -0.3656 -0.0138  1.0404
  959MOL0     O32212   1.445   1.493   3.339 -0.0110  0.1076 -0.4571
  959MOL0     C32213   1.563   1.461   3.413 -0.3755 -0.6259 -0.0118
  959MOL0     C32214   1.668   1.556   3.373  0.4295  0.4246 -0.2995
  959MOL0     C32215   1.635   1.701   3.439 -0.0334  0.7087 -0.1401
  959MOL0     C32216   1.736   1.807   3.386 -0.4039  0.6635 -0.4999
  959MOL0     C32217   1.708   1.955   3.430  0.1113  0.0693 -0.1957
  959MOL0     C32218   1.792   2.007   3.554 -0.6136  0.3179 -0.5718
  959MOL0     C32219   1.753   2.150   3.595 -0.0281 -0.6074 -0.3525
  959MOL0     C32220   1.826   2.250   3.511 -0.3132  0.2435 -0.3101
  959MOL0     N32221   1.969   2.249   3.551  0.2503  0.2093 -0.1590
  959MOL0     C32222   2.022   2.290   3.676 -0.2224 -0.0160 -0.3159
  959MOL0     C32223   2.156   2.277   3.654  0.3040  0.1449  0.1987
  959MOL0     C32224   2.275   2.306   3.735  0.5558  0.0651  0.2632
  959MOL0     C32225   2.374   2.413   3.677 -0.4407  0.3654  0.4532
  959MOL0     C32226   2.464   2.484   3.778 -0.2863 -0.0802  0.2369
  959MOL0     C32227   2.536   2.402   3.888  0.1670 -1.4828 -0.1585
  959MOL0     O32228   2.636   2.485   3.957  0.1152  0.0681 -0.4447
  959MOL0     C32229   2.762   2.512   3.912  1.0108 -0.3655  0.3861
  959MOL0     C32230   2.834   2.443   3.816 -1.0940 -0.1287 -0.1219
  959MOL0     C32231   2.955   2.464   3.774 -0.3941  0.4839 -0.7288
  959MOL0     C32232   3.006   2.379   3.655  0.6014  0.1232  1.1410
  959MOL0     C32233   3.024   2.565   3.837 -0.9774 -0.3734  0.8956
  959MOL0     C32234   3.156   2.598   3.805 -0.1363  0.1722  0.2888
  959MOL0     O32235   3.196   2.587   3.680 -0.1531 -0.5862 -0.4508
  959MOL0     C32236   3.330   2.579   3.645 -0.2582  0.4887  0.5870
  959MOL0     C32237   3.358   2.510   3.527 -0.1821  1.0887 -0.9244
  959MOL0     C32238   3.484   2.487   3.471  0.1034 -0.4136 -0.3441
  959MOL0     C32239   3.594   2.550   3.534  0.2296 -0.5050  0.5302
  959MOL0     O32240   3.720   2.536   3.483  0.5060  0.0638 -0.1965
  959MOL0     C32241   3.732   2.534   3.339  0.6478  0.4208  0.1203
  959MOL0     C32242   3.881   2.529   3.310  0.5511 -0.2588 -0.2747
  959MOL0     C32243   3.952   2.655   3.360  0.1526  0.3936  0.0687
  959MOL0     C32244   4.056   2.697   3.256  0.1321  0.5732  0.7590
  959MOL0     C32245   4.152   2.800   3.318 -0.2010  0.2826  0.5133
  959MOL0     C32246   4.260   2.821   3.209 -0.6503  0.6923 -0.7209
  959MOL0     C32247   4.376   2.896   3.279  0.2126  0.0126  0.2155
  959MOL0     C32248   4.343   3.044   3.293  0.5182 -0.3125 -0.0021
  959MOL0    Cl32249   4.468   3.148   3.371 -0.2790  0.1320  0.1453
  959MOL0     C32250   3.577   2.623   3.653  0.2761 -0.2750 -0.4659
  959MOL0     C32251   3.446   2.622   3.708  0.4903  0.6973  0.0848
  959MOL0     O32252   3.229   2.617   3.907  0.0124 -0.2063 -0.2329
  959MOL0     C32253   2.960   2.646   3.936 -0.1074 -0.8392 -0.2694
  959MOL0     C32254   2.832   2.612   3.984  0.5079  0.7530  0.6967
  959MOL0     N32255   2.173   2.199   3.535 -0.2046 -0.0165 -0.0498
  959MOL0     N32256   2.060   2.192   3.477  0.0838 -0.5545  0.1075
  959MOL0     C32257   1.331   1.289   3.416  0.8272 -0.4642 -0.0739
  959MOL0     C32258   1.227   1.196   3.404 -0.1009 -0.0004 -0.3605
  959MOL0     C32259   0.937   0.918   3.193 -0.5607  1.0016 -0.0521
  959MOL0     C32260   0.980   0.821   3.104 -0.3189  0.0210 -0.9612
  959MOL0     C32261   0.902   0.752   3.021 -0.1986  0.5251  0.4560
  959MOL0     C32262   0.762   0.764   3.027  0.4795 -0.2756 -0.9015
  959MOL0     O32263   0.690   0.680   2.939 -0.3706 -0.4969  0.6146
  959MOL0     C32264   0.551   0.685   2.945 -0.0250 -0.0222  0.2793
  959MOL0     C32265   0.482   0.561   2.899 -0.6388 -0.6054 -0.1668
  959MOL0     C32266   0.493   0.539   2.748 -0.3839 -0.2349 -0.6746
  959MOL0     C32267   0.404   0.431   2.701  0.1194  0.0898 -0.6715
  959MOL0     C32268   0.266   0.468   2.721 -0.1362  0.2190  0.0356
  959MOL0     C32269   0.151   0.481   2.747  0.4982 -0.1732 -0.5425
  959MOL0     C32270   0.714   0.851   3.120 -0.8525 -0.6888 -0.6856
  959MOL0     C32271   0.800   0.935   3.195  0.0710  0.5660  0.5985
  959MOL0     C32272   0.723   1.032   3.280 -1.0739 -0.3284  0.3211
  959MOL0     H32273   1.068   1.330   3.145 -0.6099 -0.1674  0.6440
  959MOL0     H32274   1.274   1.498   3.165  0.9436  1.5827  1.6036
  959MOL0     H32275   1.590   1.360   3.382 -2.1104 -0.5496 -2.0038
  959MOL0     H32276   1.542   1.463   3.520 -0.2136 -1.7699  0.0551
  959MOL0     H32277   1.767   1.519   3.403  0.3136 -0.3194 -0.8197
  959MOL0     H32278   1.673   1.555   3.263 -0.3505 -3.6894 -0.4530
  959MOL0     H32279   1.533   1.737   3.419 -0.9222 -2.5087 -2.2968
  959MOL0     H32280   1.636   1.687   3.547  0.3793 -1.4432 -0.3771
  959MOL0     H32281   1.833   1.780   3.428  0.0909  0.2749 -1.8464
  959MOL0     H32282   1.738   1.814   3.277 -0.7812  2.7276 -0.4284
  959MOL0     H32283   1.600   1.968   3.445  0.3327  0.4508  1.1380
  959MOL0     H32284   1.729   2.022   3.346  1.0805 -0.5503 -0.4642
  959MOL0     H32285   1.779   1.939   3.639  3.7172 -0.6048 -0.3913
  959MOL0     H32286   1.898   2.003   3.527 -0.3705 -1.0209  0.4103
  959MOL0     H32287   1.783   2.167   3.699  2.1854 -1.6591 -0.7710
  959MOL0     H32288   1.645   2.166   3.582 -0.1403 -1.5158 -0.5642
  959MOL0     H32289   1.811   2.231   3.405 -1.4387 -0.0259 -0.1141
  959MOL0     H32290   1.786   2.350   3.527  1.9407  0.9434  1.6707
  959MOL0     H32291   1.975   2.316   3.770 -3.0305 -6.0627  0.4746
  959MOL0     H32292   2.318   2.206   3.742 -1.4015 -0.7603  1.3363
  959MOL0     H32293   2.238   2.337   3.833  3.2840  0.2559  1.3198
  959MOL0     H32294   2.431   2.363   3.598 -0.6229  1.7517 -0.5841
  959MOL0     H32295   2.310   2.487   3.630  0.1255  0.2793 -0.4847
  959MOL0     H32296   2.539   2.549   3.731 -1.2920  0.4309 -0.7034
  959MOL0     H32297   2.390   2.551   3.822  1.6423  0.9122  2.1829
  959MOL0     H32298   2.464   2.355   3.956 -3.9628  0.5777 -2.7459
  959MOL0     H32299   2.591   2.315   3.850  3.2773 -0.9126  2.5240
  959MOL0     H32300   2.789   2.373   3.746  0.5839 -0.7822 -0.5853
  959MOL0     H32301   3.096   2.326   3.686 -1.1251 -2.1224  2.7369
  959MOL0     H32302   3.008   2.441   3.565 -2.0123  1.1875  1.7201
  959MOL0     H32303   2.936   2.301   3.622  0.5372  1.6516 -2.8116
  959MOL0     H32304   3.280   2.460   3.470  0.2014  2.5365 -2.8194
  959MOL0     H32305   3.480   2.431   3.378  1.6256  3.9161 -3.2844
  959MOL0     H32306   3.680   2.444   3.307 -0.5057 -0.2236  3.4572
  959MOL0     H32307   3.696   2.621   3.282  0.4302  0.2879  0.0532
  959MOL0     H32308   3.926   2.441   3.356  1.5426  0.1901 -0.3417
  959MOL0     H32309   3.898   2.507   3.204 -0.0467 -0.9860 -0.2224
  959MOL0     H32310   4.007   2.638   3.453  1.0938  0.2686 -0.5021
  959MOL0     H32311   3.880   2.737   3.375  0.2123  0.0495  2.8922
  959MOL0     H32312   4.012   2.749   3.170 -0.1017  1.2643  1.2846
  959MOL0     H32313   4.122   2.614   3.229 -0.3725  0.6239 -0.7074
  959MOL0     H32314   4.094   2.893   3.327  0.1122  0.4639  0.6596
  959MOL0     H32315   4.202   2.767   3.409  1.3297  0.1435 -0.3399
  959MOL0     H32316   4.215   2.879   3.128 -3.2460 -0.9728 -0.6066
  959MOL0     H32317   4.308   2.729   3.176  1.1459  0.2794  2.6292
  959MOL0     H32318   4.473   2.894   3.228 -0.2808 -0.9630 -0.7232
  959MOL0     H32319   4.398   2.855   3.378  1.0320  2.6609  1.2065
  959MOL0     H32320   4.253   3.057   3.354  0.8663 -0.8695  0.6360
  959MOL0     H32321   4.322   3.092   3.197 -0.3915 -0.4009  0.1469
  959MOL0     H32322   3.664   2.658   3.707 -0.6861 -1.2769  1.8695
  959MOL0     H32323   3.443   2.656   3.811  2.8019 -1.1666  0.8698
  959MOL0     H32324   3.008   2.733   3.978 -1.2090  0.0294 -0.7542
  959MOL0     H32325   2.776   2.662   4.062 -0.4677  0.6785  0.0657
  959MOL0     H32326   1.385   1.287   3.510 -1.8019  0.7361  1.5561
  959MOL0     H32327   1.222   1.112   3.472 -0.9657  0.2670 -0.0717
  959MOL0     H32328   1.088   0.818   3.101 -0.2835 -0.5763  0.4169
  959MOL0     H32329   0.946   0.692   2.942  0.7381  0.9455  0.6435
  959MOL0     H32330   0.528   0.697   3.051 -2.8204  0.2885 -0.3044
  959MOL0     H32331   0.510   0.768   2.887  1.4035 -0.6086 -1.6976
  959MOL0     H32332   0.382   0.583   2.935 -0.2951  1.9803 -0.5650
  959MOL0     H32333   0.526   0.467   2.934 -1.7172 -2.0294 -2.3770
  959MOL0     H32334   0.472   0.629   2.689  1.6189 -0.8168 -2.3810
  959MOL0     H32335   0.596   0.508   2.728 -0.6605 -1.1099 -0.7909
  959MOL0     H32336   0.434   0.346   2.763 -0.1996  3.1048  4.1776
  959MOL0     H32337   0.418   0.421   2.593  1.1841 -1.7316 -0.4049
  959MOL0     H32338   0.049   0.476   2.779  0.6522 -0.2194 -0.0539
  959MOL0     H32339   0.608   0.870   3.117 -0.4294  1.9825 -2.9214
  959MOL0     H32340   0.635   0.977   3.315 -0.3275 -3.9655 -2.8867
  959MOL0     H32341   0.781   1.058   3.369  0.2549 -1.5621 -0.1613
  959MOL0     H32342   0.685   1.117   3.222  0.5715 -0.0616 -0.3985
  960MOL0     O32343  11.325  11.068   9.278 -0.2741  0.4281  0.2567
  960MOL0     C32344  11.279  11.056   9.387  0.2307  0.8300 -0.1172
  960MOL0     O32345  11.301  11.131   9.493  1.0993 -0.1998 -0.4007
  960MOL0     C32346  11.401  11.220   9.478 -1.0172 -0.0114 -0.5180
  960MOL0     C32347  11.536  11.177   9.464 -0.7660  0.3711  0.0062
  960MOL0     C32348  11.638  11.269   9.442 -0.2288  0.0348  0.1500
  960MOL0     C32349  11.612  11.411   9.450  0.1249 -0.1836 -0.8441
  960MOL0     O32350  11.706  11.508   9.421  0.0038 -0.4171  0.0437
  960MOL0     C32351  11.829  11.467   9.355  0.0751 -0.2180 -0.5442
  960MOL0     C32352  11.905  11.584   9.293 -0.8857 -0.2930  0.7853
  960MOL0     C32353  11.945  11.694   9.384  0.4172 -0.3374  0.4000
  960MOL0     C32354  11.964  11.831   9.304 -0.6368  0.5936 -0.1197
  960MOL0     C32355  12.094  11.820   9.218  0.4367  0.2497  0.2369
  960MOL0     C32356  12.219  11.777   9.285 -0.1400  0.0216  0.4089
  960MOL0     C32357  12.261  11.852   9.415 -0.0580  0.0558  0.3723
  960MOL0     C32358  12.409  11.834   9.441  0.0142  0.0884  0.0012
  960MOL0     N32359  12.492  11.924   9.356  0.6404  0.0345 -0.3505
  960MOL0     C32360  12.537  11.904   9.227  0.0873  0.0479  0.1259
  960MOL0     C32361  12.617  12.012   9.204  0.1208  0.4798 -0.3552
  960MOL0     C32362  12.678  12.035   9.074  0.2184  0.3683 -0.3705
  960MOL0     C32363  12.826  11.996   9.077  0.2043 -0.9910  0.2345
  960MOL0     C32364  12.905  12.061   8.960 -0.1500 -0.4506  0.0289
  960MOL0     C32365  13.047  12.026   8.942  0.0555 -0.2660  0.4122
  960MOL0     O32366  13.063  11.884   8.908  0.0836  0.0663  0.2683
  960MOL0     C32367  13.182  11.825   8.886 -0.6944 -0.7222  0.8157
  960MOL0     C32368  13.304  11.895   8.870 -0.6011 -0.1519  0.5996
  960MOL0     C32369  13.419  11.832   8.813 -0.2902 -0.6878 -0.1708
  960MOL0     C32370  13.543  11.917   8.800  0.6761  0.9977 -0.1180
  960MOL0     C32371  13.411  11.699   8.784  0.0913 -0.4448 -0.4318
  960MOL0     C32372  13.515  11.633   8.704  0.0409  0.4906  0.4738
  960MOL0     O32373  13.574  11.700   8.597  0.0238  0.4018 -0.2873
  960MOL0     C32374  13.678  11.642   8.527  0.0209  0.1190  0.2241
  960MOL0     C32375  13.667  11.624   8.392  0.4883 -0.6509  0.3068
  960MOL0     C32376  13.770  11.588   8.307 -0.0065  0.0740 -0.2909
  960MOL0     C32377  13.891  11.552   8.361 -0.2358  0.2634 -0.4123
  960MOL0     O32378  13.997  11.500   8.282 -0.3017  0.0862  0.0705
  960MOL0     C32379  13.992  11.487   8.140  0.5518 -0.2435  0.5134
  960MOL0     C32380  14.139  11.439   8.094  0.8168  0.0505 -0.2391
  960MOL0     C32381  14.260  11.511   8.141 -0.1590  0.5467  0.5518
  960MOL0     C32382  14.387  11.430   8.113  1.0347  0.1693 -0.1244
  960MOL0     C32383  14.519  11.510   8.126  0.9161  0.5504 -0.4244
  960MOL0     C32384  14.543  11.586   7.994 -0.5617 -0.0034  0.5771
  960MOL0     C32385  14.682  11.655   8.005 -0.0142 -0.0143 -0.6315
  960MOL0     C32386  14.803  11.564   8.042 -0.0971  0.2272 -0.8311
  960MOL0    Cl32387  14.953  11.636   8.009  0.3499  0.2152  0.2155
  960MOL0     C32388  13.909  11.569   8.505 -0.0186 -1.0505 -0.0260
  960MOL0     C32389  13.802  11.607   8.585 -0.7655  0.3335  0.0614
  960MOL0     O32390  13.557  11.526   8.755  0.3313 -0.6843 -0.0947
  960MOL0     C32391  13.297  11.631   8.822 -0.2037  0.0521 -0.7480
  960MOL0     C32392  13.178  11.685   8.866 -0.9008 -0.1922  0.0978
  960MOL0     N32393  12.610  12.102   9.317  0.4732  0.3780 -0.0474
  960MOL0     N32394  12.536  12.042   9.401 -0.3859 -0.2896 -0.4245
  960MOL0     C32395  11.482  11.453   9.485 -0.7815 -0.0367 -0.8343
  960MOL0     C32396  11.375  11.359   9.491 -1.1184 -0.9388  0.7661
  960MOL0     C32397  11.187  10.936   9.404 -0.2443  0.4036  0.5604
  960MOL0     C32398  11.148  10.861   9.287 -0.6782  0.2403 -0.4552
  960MOL0     C32399  11.070  10.745   9.285 -0.4473  0.0428  0.6810
  960MOL0     C32400  11.015  10.706   9.401 -0.2307  0.7310 -1.3534
  960MOL0     O32401  10.913  10.612   9.427  0.1225 -0.5597 -0.0402
  960MOL0     C32402  10.882  10.510   9.333 -0.4430  0.3046  0.4168
  960MOL0     C32403  11.012  10.424   9.314  0.0744  0.0533  0.1141
  960MOL0     C32404  11.042  10.329   9.430  0.3839 -0.5051 -0.2100
  960MOL0     C32405  11.049  10.388   9.574  0.6615 -0.6252  0.5712
  960MOL0     C32406  11.092  10.283   9.663 -0.9092  0.3939 -1.0039
  960MOL0     C32407  11.133  10.191   9.736 -0.1396  0.2858  0.0998
  960MOL0     C32408  11.060  10.773   9.518  1.2844  0.5955  0.0622
  960MOL0     C32409  11.143  10.882   9.522  0.3832 -0.2290  0.2658
  960MOL0     C32410  11.168  10.933   9.665 -0.2395  0.3844  0.6362
  960MOL0     H32411  11.550  11.069   9.459  0.2515  0.3075  2.4790
  960MOL0     H32412  11.740  11.232   9.430  0.2445  1.4419 -0.3259
  960MOL0     H32413  11.810  11.386   9.284  0.5785 -0.6594 -0.1835
  960MOL0     H32414  11.894  11.431   9.435  1.8157  2.7625 -0.4879
  960MOL0     H32415  11.996  11.549   9.244 -1.9194 -0.9815 -0.7589
  960MOL0     H32416  11.839  11.618   9.212  0.5458 -1.1940 -0.8330
  960MOL0     H32417  11.861  11.707   9.453 -0.2510  0.1360 -0.4857
  960MOL0     H32418  12.034  11.669   9.443  0.3477  1.4830  1.3465
  960MOL0     H32419  11.881  11.851   9.235 -0.4615 -0.2765 -0.6007
  960MOL0     H32420  11.975  11.910   9.378  1.3500  0.9566 -0.7522
  960MOL0     H32421  12.112  11.912   9.161  0.8497 -0.0337 -0.1042
  960MOL0     H32422  12.072  11.749   9.137 -0.5596 -0.0166  0.7282
  960MOL0     H32423  12.208  11.669   9.303 -2.2937  0.0883 -0.1740
  960MOL0     H32424  12.295  11.786   9.208 -1.1924  0.4195 -0.6171
  960MOL0     H32425  12.215  11.802   9.501  3.5657 -2.3390  1.1657
  960MOL0     H32426  12.246  11.960   9.408  1.0781  0.2431  0.6726
  960MOL0     H32427  12.421  11.854   9.548  2.0582  1.2074 -0.3870
  960MOL0     H32428  12.438  11.731   9.418  0.9195  0.5890 -1.2044
  960MOL0     H32429  12.517  11.819   9.163  1.0931  0.1778 -0.3871
  960MOL0     H32430  12.672  12.138   9.039 -0.2848  0.3017 -0.4927
  960MOL0     H32431  12.638  11.979   8.988 -0.4541 -1.9577  1.3363
  960MOL0     H32432  12.874  12.012   9.174  0.6668  0.6265 -0.2238
  960MOL0     H32433  12.825  11.890   9.051 -0.8139 -0.7867 -0.6310
  960MOL0     H32434  12.848  12.031   8.872 -1.7045  1.6630  0.2390
  960MOL0     H32435  12.893  12.169   8.974 -3.1186 -0.7405  0.4275
  960MOL0     H32436  13.088  12.083   8.858 -0.6884  1.4304  1.1519
  960MOL0     H32437  13.102  12.066   9.028  0.9923 -0.1485 -0.2317
  960MOL0     H32438  13.325  12.000   8.886  3.5468 -0.2223 -2.7450
  960MOL0     H32439  13.561  11.938   8.694  2.9657  0.2362  0.0502
  960MOL0     H32440  13.634  11.867   8.835  1.0109  2.4963  1.2304
  960MOL0     H32441  13.534  12.016   8.845  0.2714  1.7692 -1.8012
  960MOL0     H32442  13.568  11.633   8.349  0.6774 -0.6862 -0.1403
  960MOL0     H32443  13.753  11.552   8.206 -0.0743 -0.5825 -0.0497
  960MOL0     H32444  13.905  11.432   8.105 -1.2245  3.1601 -0.9664
  960MOL0     H32445  13.972  11.587   8.099  2.1071 -0.0024  0.2552
  960MOL0     H32446  14.141  11.335   8.126  3.6248  0.1999  0.3129
  960MOL0     H32447  14.138  11.432   7.985 -1.1412 -1.4966 -0.1626
  960MOL0     H32448  14.255  11.518   8.250 -0.6936  1.9191  0.4666
  960MOL0     H32449  14.258  11.615   8.107 -3.2693  0.1128 -1.0388
  960MOL0     H32450  14.385  11.391   8.010 -2.0004  1.6681 -0.7542
  960MOL0     H32451  14.387  11.342   8.178  0.6961  0.8230  0.7695
  960MOL0     H32452  14.505  11.578   8.210 -0.8984 -1.6820  1.1872
  960MOL0     H32453  14.609  11.449   8.140  0.2372 -0.6582 -1.0998
  960MOL0     H32454  14.469  11.662   7.969  1.8189  2.1436 -0.3678
  960MOL0     H32455  14.543  11.517   7.909  2.1715  0.1913  0.3126
  960MOL0     H32456  14.682  11.731   8.085  0.7718 -1.7783  1.1346
  960MOL0     H32457  14.705  11.708   7.912 -1.6567 -0.8750 -1.5594
  960MOL0     H32458  14.803  11.479   7.973 -4.0452 -2.7987  2.4187
  960MOL0     H32459  14.822  11.520   8.140  0.2876 -3.3111 -2.3237
  960MOL0     H32460  14.010  11.554   8.539  0.1589 -0.0950 -0.1194
  960MOL0     H32461  13.808  11.618   8.693  1.8619  1.2439 -0.1279
  960MOL0     H32462  13.293  11.524   8.804  3.0535 -0.1666 -0.7664
  960MOL0     H32463  13.088  11.625   8.873  0.5428 -2.2682  3.8449
  960MOL0     H32464  11.484  11.562   9.481 -0.6257  0.0998  1.5769
  960MOL0     H32465  11.270  11.382   9.508 -0.3712  0.2021  5.1310
  960MOL0     H32466  11.164  10.892   9.184  0.3557 -2.0299 -1.0338
  960MOL0     H32467  11.048  10.699   9.189  3.0123  2.1087 -1.3033
  960MOL0     H32468  10.792  10.457   9.366  0.3527  0.8630  3.8945
  960MOL0     H32469  10.869  10.559   9.236  2.1175  3.1716  1.3847
  960MOL0     H32470  11.101  10.485   9.297 -0.2660  1.4802  2.9036
  960MOL0     H32471  10.998  10.357   9.228 -0.7117  0.9379 -0.4683
  960MOL0     H32472  10.965  10.252   9.436 -0.8304  0.6779 -0.0890
  960MOL0     H32473  11.139  10.293   9.395 -0.1808  0.2813 -2.8313
  960MOL0     H32474  10.953  10.430   9.604  0.7605 -0.4908  0.7027
  960MOL0     H32475  11.121  10.470   9.583  0.4606 -0.3565 -0.1649
  960MOL0     H32476  11.173  10.117   9.803 -1.7680  0.7367  1.6526
  960MOL0     H32477  11.023  10.720   9.605  0.3872 -2.1132 -1.8138
  960MOL0     H32478  11.277  10.937   9.674  0.7126  2.3057 -6.2570
  960MOL0     H32479  11.132  11.036   9.676  3.6735  2.5143 -3.1835
  960MOL0     H32480  11.127  10.870   9.744  0.2413 -1.3730 -0.4645
  961MOL0     O32481   2.469   4.463   4.272 -0.0488  0.2450 -0.9653
  961MOL0     C32482   2.444   4.505   4.387 -0.8468 -0.6132  0.0867
  961MOL0     O32483   2.340   4.463   4.460  0.3299  0.0002 -0.0964
  961MOL0     C32484   2.260   4.362   4.413  0.0840 -0.0723 -0.5344
  961MOL0     C32485   2.129   4.365   4.443  0.0300  0.2460  0.0810
  961MOL0     C32486   2.052   4.249   4.440  0.2504 -0.6429  0.7165
  961MOL0     C32487   2.100   4.130   4.397  0.1443  0.4653 -0.0445
  961MOL0     O32488   2.009   4.023   4.385 -0.0926 -0.1142 -0.3976
  961MOL0     C32489   2.034   3.907   4.297 -0.7779 -0.2438 -0.3045
  961MOL0     C32490   1.954   3.910   4.158  0.7419  0.4375 -0.1253
  961MOL0     C32491   1.807   3.868   4.178  0.0090  0.6960  0.1065
  961MOL0     C32492   1.721   3.934   4.080  0.5607 -0.1918  0.1886
  961MOL0     C32493   1.575   3.887   4.082  0.4920 -0.8198  0.4395
  961MOL0     C32494   1.558   3.757   4.006  0.3454  0.7333 -0.3045
  961MOL0     C32495   1.417   3.706   4.051 -0.5875  0.5254 -1.1087
  961MOL0     C32496   1.299   3.791   4.014  0.3039  0.0121 -0.2432
  961MOL0     N32497   1.297   3.827   3.871  0.1884  0.4292 -0.1434
  961MOL0     C32498   1.239   3.749   3.776 -0.7069  0.5784 -0.4785
  961MOL0     C32499   1.233   3.831   3.665 -0.7512 -0.2741 -0.2117
  961MOL0     C32500   1.173   3.803   3.526 -0.1538  0.0919  0.4494
  961MOL0     C32501   1.244   3.687   3.449  0.5683  0.0132 -0.6404
  961MOL0     C32502   1.394   3.679   3.465  0.3199 -0.4222 -0.3551
  961MOL0     C32503   1.475   3.792   3.406  0.1515  0.7453  0.4770
  961MOL0     O32504   1.605   3.798   3.466  0.6448  0.2219 -0.4541
  961MOL0     C32505   1.704   3.856   3.387  1.2026 -0.2022 -0.0139
  961MOL0     C32506   1.682   3.984   3.337 -1.0278 -0.7288 -0.0256
  961MOL0     C32507   1.778   4.058   3.267 -0.6438  0.4724 -0.2860
  961MOL0     C32508   1.766   4.209   3.261  0.2760 -0.7714  0.2390
  961MOL0     C32509   1.901   3.996   3.250 -0.3613 -0.0509 -0.6851
  961MOL0     C32510   2.011   4.050   3.179  0.5694  0.1546 -0.4556
  961MOL0     O32511   2.139   4.030   3.237  0.2458  0.2134 -0.2340
  961MOL0     C32512   2.252   4.078   3.166  0.1299  0.2477  0.5157
  961MOL0     C32513   2.358   4.129   3.234  0.6475  0.8436 -0.2746
  961MOL0     C32514   2.476   4.162   3.168  1.4073 -0.2296 -0.5729
  961MOL0     C32515   2.486   4.157   3.027  0.6162  0.1276 -0.6838
  961MOL0     O32516   2.597   4.198   2.949  0.4718 -0.5181 -0.4432
  961MOL0     C32517   2.699   4.262   3.018  0.2886 -1.4032 -0.2569
  961MOL0     C32518   2.795   4.322   2.910 -0.2110 -0.1323 -0.1277
  961MOL0     C32519   2.929   4.374   2.964 -0.6653 -0.4592 -0.2038
  961MOL0     C32520   3.029   4.255   2.987  0.5102 -0.0093  0.1562
  961MOL0     C32521   3.158   4.313   3.029  0.3511  0.1173  0.0583
  961MOL0     C32522   3.248   4.200   3.065 -0.2109 -0.9103 -0.3997
  961MOL0     C32523   3.377   4.245   3.129 -0.2003 -0.6112 -0.9832
  961MOL0     C32524   3.458   4.119   3.171 -0.3724  0.2676 -1.4288
  961MOL0    Cl32525   3.476   3.994   3.038 -0.3471 -0.3605  0.2497
  961MOL0     C32526   2.382   4.105   2.953 -1.3093 -0.5775  0.1637
  961MOL0     C32527   2.266   4.058   3.020  0.3659 -0.5342 -0.1199
  961MOL0     O32528   1.987   4.127   3.087 -0.0586  0.9414  0.1618
  961MOL0     C32529   1.934   3.866   3.294  0.7749  0.6955 -0.1660
  961MOL0     C32530   1.832   3.800   3.366 -1.0767  0.5125 -0.5890
  961MOL0     N32531   1.306   3.951   3.697  0.4780  0.6226 -0.3314
  961MOL0     N32532   1.332   3.952   3.824 -0.2375  0.8661  0.1658
  961MOL0     C32533   2.232   4.122   4.374  0.0640 -0.1634  0.4693
  961MOL0     C32534   2.322   4.232   4.384  0.5227 -0.2093  0.4416
  961MOL0     C32535   2.549   4.591   4.456  0.5176  0.1597  0.5776
  961MOL0     C32536   2.509   4.664   4.569  0.4179  0.5955 -0.5322
  961MOL0     C32537   2.606   4.723   4.651  0.5153  0.4754 -0.4115
  961MOL0     C32538   2.740   4.724   4.624 -0.2824  1.5037  0.0081
  961MOL0     O32539   2.822   4.794   4.714 -1.2511  0.7222 -0.4800
  961MOL0     C32540   2.961   4.816   4.691 -0.0087  0.2360 -0.3000
  961MOL0     C32541   3.036   4.689   4.751  0.3869  0.3142  0.7635
  961MOL0     C32542   3.009   4.677   4.898  1.0734 -0.0536 -1.0034
  961MOL0     C32543   3.031   4.538   4.958 -1.3710  0.6981  0.2036
  961MOL0     C32544   3.179   4.521   4.975  0.9308  0.2014 -0.0473
  961MOL0     C32545   3.302   4.527   4.980 -0.0935  0.2863 -0.1205
  961MOL0     C32546   2.780   4.665   4.506 -0.1120 -0.8282 -0.6338
  961MOL0     C32547   2.688   4.606   4.415  0.8337  1.1750 -0.2909
  961MOL0     C32548   2.735   4.521   4.295  0.3376  0.3121 -0.2637
  961MOL0     H32549   2.087   4.463   4.462  0.4417  0.0690  2.1977
  961MOL0     H32550   1.948   4.256   4.468  0.1662 -2.1022  0.8222
  961MOL0     H32551   2.020   3.807   4.340 -2.4276  0.0531 -0.0798
  961MOL0     H32552   2.140   3.910   4.271 -0.1316  3.7078  1.9946
  961MOL0     H32553   1.957   4.009   4.111 -1.2630 -0.4071 -2.1819
  961MOL0     H32554   2.005   3.847   4.086 -1.3521  0.7250 -1.9636
  961MOL0     H32555   1.790   3.761   4.166 -0.5417  0.9112 -1.2317
  961MOL0     H32556   1.776   3.891   4.280  1.7694 -3.1007  1.6811
  961MOL0     H32557   1.716   4.043   4.088 -0.7633 -0.3235  1.7259
  961MOL0     H32558   1.764   3.913   3.982  1.8555 -1.8881  1.0712
  961MOL0     H32559   1.528   3.961   4.017  1.8892 -0.7676 -0.5764
  961MOL0     H32560   1.539   3.887   4.185  0.3099 -1.9817  0.3872
  961MOL0     H32561   1.563   3.768   3.898 -0.3950 -4.8536 -1.2342
  961MOL0     H32562   1.629   3.681   4.040 -1.5475 -0.2631  1.7028
  961MOL0     H32563   1.418   3.696   4.160  0.3117 -0.3700 -1.1887
  961MOL0     H32564   1.403   3.605   4.011 -0.6739 -1.2050  2.8031
  961MOL0     H32565   1.206   3.737   4.036 -0.8418  0.6404 -3.0005
  961MOL0     H32566   1.295   3.888   4.064 -2.3350  0.8999 -1.9616
  961MOL0     H32567   1.193   3.651   3.789 -0.7352  0.7612  0.9264
  961MOL0     H32568   1.160   3.890   3.462  0.4172 -1.0816 -1.3538
  961MOL0     H32569   1.066   3.788   3.539 -1.1369  3.6881 -2.1802
  961MOL0     H32570   1.196   3.596   3.486 -4.3189  1.4063 -2.6504
  961MOL0     H32571   1.208   3.697   3.346 -2.4311  3.7225  0.5507
  961MOL0     H32572   1.426   3.682   3.569 -0.1698  1.0369 -0.2165
  961MOL0     H32573   1.423   3.590   3.408 -0.9308 -0.4016 -1.0558
  961MOL0     H32574   1.478   3.772   3.298 -2.1235 -2.6404  0.8892
  961MOL0     H32575   1.426   3.888   3.429 -0.0242  0.5118  1.0888
  961MOL0     H32576   1.587   4.026   3.369 -0.2346 -1.5246  3.9368
  961MOL0     H32577   1.690   4.245   3.331 -0.9333  0.0291 -1.4034
  961MOL0     H32578   1.720   4.241   3.167 -0.6213  1.2690  1.3032
  961MOL0     H32579   1.858   4.268   3.264  0.2707 -0.7669  0.3047
  961MOL0     H32580   2.337   4.164   3.334 -2.5416  3.2704 -1.5889
  961MOL0     H32581   2.557   4.200   3.229  1.4249 -0.6337 -0.3442
  961MOL0     H32582   2.657   4.338   3.083 -1.2941  0.4059 -3.1771
  961MOL0     H32583   2.751   4.187   3.079  1.1794  0.7538  1.7763
  961MOL0     H32584   2.812   4.236   2.844  1.5453 -0.1857  0.3360
  961MOL0     H32585   2.744   4.398   2.850 -4.6675 -1.3011  1.8103
  961MOL0     H32586   2.913   4.438   3.050 -0.6916  1.8491 -1.8322
  961MOL0     H32587   2.971   4.441   2.888 -2.1246 -0.1587 -0.7669
  961MOL0     H32588   3.034   4.189   2.900 -0.6546  0.4778 -0.3039
  961MOL0     H32589   2.989   4.202   3.074 -0.4808  2.3799  1.2633
  961MOL0     H32590   3.195   4.373   2.945 -0.2634  0.4484  0.0187
  961MOL0     H32591   3.141   4.375   3.117 -1.1141 -1.6386  1.0971
  961MOL0     H32592   3.276   4.151   2.971  0.4586  4.3393 -3.3108
  961MOL0     H32593   3.206   4.131   3.139 -0.7180  0.2277  0.4051
  961MOL0     H32594   3.360   4.310   3.215  3.3288  0.6302 -1.0553
  961MOL0     H32595   3.438   4.303   3.059  0.6289  0.3814  0.4979
  961MOL0     H32596   3.422   4.074   3.264  0.5712 -1.1161 -1.6944
  961MOL0     H32597   3.558   4.157   3.196 -0.5008 -0.6901  0.6964
  961MOL0     H32598   2.394   4.102   2.845  1.7427  0.8318  0.3912
  961MOL0     H32599   2.185   4.009   2.966 -0.2199 -1.0376  1.1615
  961MOL0     H32600   2.026   3.809   3.297  1.0858  0.9829 -2.5180
  961MOL0     H32601   1.845   3.702   3.410 -0.0140  0.6815 -0.5082
  961MOL0     H32602   2.287   4.035   4.341  0.8067  1.0905 -1.8847
  961MOL0     H32603   2.430   4.226   4.389  0.4221 -4.3885  1.8610
  961MOL0     H32604   2.407   4.666   4.605  1.3607  0.8296  2.3927
  961MOL0     H32605   2.573   4.754   4.750 -0.8191 -2.3425  0.1527
  961MOL0     H32606   2.989   4.821   4.586 -1.0969  2.5902 -0.5352
  961MOL0     H32607   2.993   4.908   4.741 -1.6295  0.5568  0.2073
  961MOL0     H32608   3.145   4.691   4.739  0.4620  1.2954  1.5345
  961MOL0     H32609   2.990   4.602   4.703  0.0579  0.2003  1.2781
  961MOL0     H32610   3.068   4.755   4.948  2.9666 -2.6705  1.1997
  961MOL0     H32611   2.905   4.702   4.918 -0.0350 -4.8559  0.4334
  961MOL0     H32612   2.987   4.456   4.901  2.7453 -1.2349 -0.5881
  961MOL0     H32613   2.982   4.531   5.056  0.7655  0.7061  1.3281
  961MOL0     H32614   3.407   4.535   5.001  0.1852 -1.2603 -0.8111
  961MOL0     H32615   2.887   4.669   4.491  0.1202  2.7003  1.0336
  961MOL0     H32616   2.732   4.412   4.307 -0.8031  0.2355 -1.0666
  961MOL0     H32617   2.679   4.545   4.204 -0.9019 -1.4571 -0.0390
  961MOL0     H32618   2.838   4.549   4.273  1.1661 -3.1186 -1.4035
  962MOL0     O32619   2.953   5.407   4.567 -0.0014 -0.5492  0.8129
  962MOL0     C32620   2.944   5.287   4.582  0.3729 -0.1458 -0.4174
  962MOL0     O32621   3.004   5.221   4.683  0.1293 -0.0149  0.2684
  962MOL0     C32622   3.109   5.288   4.751  0.6927  0.4769 -0.6261
  962MOL0     C32623   3.231   5.326   4.691  0.4043 -0.0202 -0.5920
  962MOL0     C32624   3.329   5.391   4.770  0.2777 -0.4685 -0.3334
  962MOL0     C32625   3.306   5.429   4.906 -0.1795 -0.1995 -0.2424
  962MOL0     O32626   3.415   5.500   4.972  0.5432  0.4308 -0.1376
  962MOL0     C32627   3.366   5.600   5.060 -0.9655 -0.7017 -0.0854
  962MOL0     C32628   3.483   5.707   5.079  0.3373  0.6978  0.7096
  962MOL0     C32629   3.532   5.789   4.969 -0.7875 -0.5683 -0.7104
  962MOL0     C32630   3.577   5.924   5.024  0.7500  0.0746  0.0544
  962MOL0     C32631   3.638   6.024   4.924  1.3476 -0.3662  0.4540
  962MOL0     C32632   3.784   5.995   4.885 -0.4999 -0.9137 -0.5627
  962MOL0     C32633   3.889   6.022   4.995  0.4174 -1.1447 -0.6604
  962MOL0     C32634   4.029   6.018   4.941 -0.6691 -0.1720 -0.3439
  962MOL0     N32635   4.054   5.877   4.899 -0.7193  0.2157  1.2308
  962MOL0     C32636   4.102   5.778   4.977  0.3447  0.0262  0.1640
  962MOL0     C32637   4.144   5.685   4.899 -0.3238 -0.2846 -0.1506
  962MOL0     C32638   4.228   5.568   4.942  0.7983 -0.3140 -0.4788
  962MOL0     C32639   4.293   5.495   4.823  0.0965  0.2971  0.2372
  962MOL0     C32640   4.397   5.394   4.882 -0.6684 -0.0789  0.7251
  962MOL0     C32641   4.471   5.321   4.777 -0.4890  0.3535  0.2164
  962MOL0     O32642   4.530   5.205   4.829  0.5348 -0.9020  0.0771
  962MOL0     C32643   4.593   5.123   4.743  0.0617  0.3586  0.1327
  962MOL0     C32644   4.529   5.061   4.630 -0.6715 -0.4711 -0.6379
  962MOL0     C32645   4.602   4.981   4.540  0.1858  0.4501  0.2590
  962MOL0     C32646   4.519   4.928   4.422  0.6542  0.6524 -0.3412
  962MOL0     C32647   4.741   4.962   4.563 -0.4331  0.0268 -0.3744
  962MOL0     C32648   4.826   4.865   4.481  0.9366 -0.6739 -0.1560
  962MOL0     O32649   4.897   4.772   4.544 -0.3098  0.0758 -0.8138
  962MOL0     C32650   4.919   4.659   4.467  0.2906 -0.7906 -0.2464
  962MOL0     C32651   4.827   4.573   4.404 -0.1025  0.5021  0.1271
  962MOL0     C32652   4.876   4.472   4.326 -0.1180  0.0556 -0.2237
  962MOL0     C32653   5.015   4.450   4.311  0.3457 -0.1004  0.4397
  962MOL0     O32654   5.050   4.345   4.228 -0.0602  0.1475  0.5574
  962MOL0     C32655   5.175   4.353   4.158  0.3777 -0.3440 -0.1095
  962MOL0     C32656   5.152   4.259   4.048 -0.6178 -0.2397 -0.9603
  962MOL0     C32657   5.275   4.250   3.962  0.4158 -0.7099  0.4041
  962MOL0     C32658   5.269   4.140   3.853  0.0360  0.2049  0.6009
  962MOL0     C32659   5.389   4.151   3.769  1.1793  0.0834 -0.1586
  962MOL0     C32660   5.408   4.025   3.684 -0.2506  0.4332  0.3613
  962MOL0     C32661   5.549   3.992   3.635 -0.1295  0.3795 -1.0788
  962MOL0     C32662   5.564   3.856   3.576 -0.6770 -0.3240  0.2910
  962MOL0    Cl32663   5.448   3.847   3.436  1.0240 -0.2095  0.1533
  962MOL0     C32664   5.108   4.536   4.372 -0.6306 -0.3141  0.5121
  962MOL0     C32665   5.057   4.634   4.454 -0.2898  0.1744  0.4861
  962MOL0     O32666   4.816   4.884   4.362  0.5294  0.1429  0.9973
  962MOL0     C32667   4.804   5.024   4.676  0.5102 -0.3102  0.1189
  962MOL0     C32668   4.735   5.104   4.759 -0.2011 -0.0049  0.9849
  962MOL0     N32669   4.111   5.721   4.772 -0.3602 -0.2924  0.2373
  962MOL0     N32670   4.067   5.835   4.768  0.1271 -0.7263 -0.0918
  962MOL0     C32671   3.181   5.392   4.961  0.3032  0.4979  0.6631
  962MOL0     C32672   3.080   5.321   4.883 -2.0947  0.7152 -0.2749
  962MOL0     C32673   2.831   5.221   4.507 -0.4796 -0.3783  0.6932
  962MOL0     C32674   2.756   5.113   4.567  0.5387 -0.9662 -0.7741
  962MOL0     C32675   2.643   5.073   4.510 -0.1543  0.0715 -0.3023
  962MOL0     C32676   2.585   5.124   4.388  0.1901  0.5243  0.3537
  962MOL0     O32677   2.480   5.069   4.320 -0.1833 -0.0991  0.0028
  962MOL0     C32678   2.425   4.947   4.357 -0.3708 -0.2903 -0.4144
  962MOL0     C32679   2.297   4.929   4.281 -0.8987  0.1111  0.3186
  962MOL0     C32680   2.215   4.806   4.348 -0.2280 -0.0948 -0.5361
  962MOL0     C32681   2.060   4.821   4.329  0.1181  0.8416 -0.7729
  962MOL0     C32682   1.976   4.898   4.421  1.3555 -1.2185 -0.0343
  962MOL0     C32683   1.925   4.969   4.504  0.1338 -0.5616 -0.1300
  962MOL0     C32684   2.667   5.224   4.330 -0.6460 -0.2824  0.5420
  962MOL0     C32685   2.791   5.266   4.378  0.2389 -0.9554  0.3467
  962MOL0     C32686   2.886   5.347   4.294 -0.3035 -0.1696  0.7390
  962MOL0     H32687   3.252   5.307   4.586 -1.3795  1.4379 -1.2558
  962MOL0     H32688   3.429   5.413   4.734 -0.0122  0.1591 -0.7693
  962MOL0     H32689   3.331   5.557   5.155 -1.0237 -1.0734 -0.2748
  962MOL0     H32690   3.277   5.655   5.028 -1.5737 -0.4537  1.8646
  962MOL0     H32691   3.448   5.775   5.157 -0.9348  0.3183  0.4972
  962MOL0     H32692   3.568   5.647   5.112  1.7455  2.8245  1.1348
  962MOL0     H32693   3.622   5.749   4.921  0.1455  0.7528 -0.1248
  962MOL0     H32694   3.452   5.813   4.898  0.7537  1.5635 -1.8674
  962MOL0     H32695   3.492   5.987   5.054 -0.9239 -1.6899 -0.7895
  962MOL0     H32696   3.640   5.905   5.111 -0.0631 -3.8617 -0.0544
  962MOL0     H32697   3.626   6.121   4.973  2.5702  1.2060 -2.1340
  962MOL0     H32698   3.578   6.026   4.833 -0.0421 -5.0585  1.0044
  962MOL0     H32699   3.790   5.891   4.853  1.3401 -1.1990  0.5646
  962MOL0     H32700   3.810   6.057   4.799  0.5461  0.6763  0.8335
  962MOL0     H32701   3.884   5.952   5.079  1.1505  1.2735  1.5213
  962MOL0     H32702   3.864   6.115   5.047 -2.9657 -2.5062  0.4402
  962MOL0     H32703   4.042   6.095   4.864  3.2102 -0.7161 -0.4558
  962MOL0     H32704   4.098   6.045   5.022 -2.1993  1.9940  0.3329
  962MOL0     H32705   4.115   5.787   5.085 -1.8251  2.1294  0.3546
  962MOL0     H32706   4.168   5.497   5.000  0.6345 -0.1616 -0.4584
  962MOL0     H32707   4.308   5.601   5.009 -0.8839 -1.2853  2.1883
  962MOL0     H32708   4.219   5.443   4.762  1.7982 -0.7560 -1.0333
  962MOL0     H32709   4.336   5.568   4.753 -0.4986  0.5452  0.1227
  962MOL0     H32710   4.466   5.453   4.942  2.6219 -1.5058 -1.3155
  962MOL0     H32711   4.341   5.322   4.943 -1.8543  0.7634  0.6563
  962MOL0     H32712   4.397   5.304   4.698 -0.6159 -1.4473  0.6995
  962MOL0     H32713   4.546   5.391   4.739 -0.4211 -0.9621 -2.3186
  962MOL0     H32714   4.425   5.084   4.610 -0.5668 -0.7141 -1.4820
  962MOL0     H32715   4.505   4.996   4.337 -1.0136  0.9657  0.1359
  962MOL0     H32716   4.415   4.917   4.456  1.3205 -1.0832  1.2655
  962MOL0     H32717   4.559   4.831   4.390 -2.0548 -0.8440  0.4754
  962MOL0     H32718   4.720   4.585   4.415 -0.1386  1.0697 -0.7258
  962MOL0     H32719   4.801   4.411   4.277 -1.5983  1.1903  0.5619
  962MOL0     H32720   5.197   4.454   4.122  0.4280 -0.5493 -0.6629
  962MOL0     H32721   5.250   4.314   4.227 -2.0909 -2.4494  1.5696
  962MOL0     H32722   5.127   4.162   4.091 -2.1658  0.5656  0.0151
  962MOL0     H32723   5.073   4.292   3.980  0.3942  0.7618 -1.6963
  962MOL0     H32724   5.344   4.224   4.043 -1.6003 -0.9215  2.1335
  962MOL0     H32725   5.299   4.344   3.911 -0.7419 -0.2584  0.6561
  962MOL0     H32726   5.181   4.156   3.790  1.2475 -0.4709 -1.3208
  962MOL0     H32727   5.271   4.042   3.901  3.2711 -1.6362 -2.7754
  962MOL0     H32728   5.370   4.233   3.698  1.2008 -1.3790 -1.9398
  962MOL0     H32729   5.472   4.162   3.839 -0.6399  2.1479  1.8495
  962MOL0     H32730   5.334   4.035   3.604  2.6239  1.6339 -2.3937
  962MOL0     H32731   5.381   3.932   3.734 -0.5797 -0.5411 -1.5263
  962MOL0     H32732   5.629   4.006   3.709 -1.3935  0.8857  0.2331
  962MOL0     H32733   5.580   4.070   3.565  0.0089  0.9515 -0.3985
  962MOL0     H32734   5.543   3.774   3.647  2.8687 -0.4929  1.3158
  962MOL0     H32735   5.661   3.825   3.536 -0.1827  1.1943  0.2704
  962MOL0     H32736   5.216   4.539   4.364 -0.1570 -0.0193  4.5973
  962MOL0     H32737   5.126   4.706   4.496  0.6232  0.0293 -0.7020
  962MOL0     H32738   4.912   5.015   4.689  0.5346  0.5428  0.5945
  962MOL0     H32739   4.787   5.160   4.836  1.3637 -1.2538  0.8791
  962MOL0     H32740   3.167   5.408   5.068  2.0634  2.9337  0.6317
  962MOL0     H32741   2.987   5.289   4.928 -2.1410 -0.2563 -1.0414
  962MOL0     H32742   2.790   5.064   4.658  1.1166  2.6740  1.1659
  962MOL0     H32743   2.593   4.994   4.566 -2.4925  2.5117  1.3012
  962MOL0     H32744   2.498   4.868   4.338 -1.7038 -1.7412  0.2040
  962MOL0     H32745   2.401   4.935   4.464 -1.5613 -1.9386 -0.8255
  962MOL0     H32746   2.325   4.907   4.178 -0.2022 -1.6349  0.8393
  962MOL0     H32747   2.235   5.019   4.277 -0.9207  0.0962  0.3299
  962MOL0     H32748   2.242   4.710   4.302  0.8418  1.8046 -4.2752
  962MOL0     H32749   2.224   4.812   4.457 -4.5189  0.4766 -0.0409
  962MOL0     H32750   2.014   4.722   4.317 -0.7142  0.7055  2.5465
  962MOL0     H32751   2.051   4.861   4.228 -2.5235 -0.5278 -1.1654
  962MOL0     H32752   1.868   5.029   4.572  2.0191  0.9270  0.2092
  962MOL0     H32753   2.626   5.270   4.241  0.5587  1.5076  0.8492
  962MOL0     H32754   2.854   5.359   4.190  0.8913  1.4358  0.5095
  962MOL0     H32755   2.910   5.443   4.341 -0.4194 -0.6737  1.8556
  962MOL0     H32756   2.984   5.300   4.290 -1.2871 -2.3433  1.0789
  963MOL0     O32757   9.340   3.262   5.299  0.5003  0.8046 -0.2785
  963MOL0     C32758   9.240   3.320   5.255  0.1047  0.8062  0.5274
  963MOL0     O32759   9.251   3.432   5.176 -0.2457 -0.3398 -0.1613
  963MOL0     C32760   9.373   3.498   5.201 -0.3849 -0.1905 -0.0540
  963MOL0     C32761   9.380   3.603   5.295  0.0879 -0.5959  0.2950
  963MOL0     C32762   9.500   3.677   5.312  0.4271 -0.2696 -0.2949
  963MOL0     C32763   9.616   3.632   5.255  0.1377 -0.6025  0.0496
  963MOL0     O32764   9.736   3.680   5.308 -0.3123  0.0634  0.0612
  963MOL0     C32765   9.855   3.625   5.251  0.5055  0.1023  0.0607
  963MOL0     C32766   9.964   3.689   5.330  0.5254  0.3091 -0.2506
  963MOL0     C32767  10.107   3.661   5.265  0.0665 -0.5681  0.0805
  963MOL0     C32768  10.215   3.724   5.345 -0.2887 -0.7244  0.2417
  963MOL0     C32769  10.346   3.729   5.273 -1.0787  0.0810 -0.3625
  963MOL0     C32770  10.446   3.817   5.359 -0.2991 -0.2362  0.2459
  963MOL0     C32771  10.580   3.821   5.276 -0.5018  0.0308 -0.0359
  963MOL0     C32772  10.648   3.686   5.253  0.2946 -0.1845 -0.6273
  963MOL0     N32773  10.750   3.695   5.148  0.4382  0.2630 -0.5307
  963MOL0     C32774  10.885   3.692   5.179  0.4102  0.2963 -0.1459
  963MOL0     C32775  10.942   3.752   5.067  0.2225  0.3533 -0.1613
  963MOL0     C32776  11.087   3.788   5.059 -0.1068  1.5385 -0.9931
  963MOL0     C32777  11.139   3.863   5.186 -0.4220  0.5931  0.0244
  963MOL0     C32778  11.284   3.915   5.171 -0.0567  0.2101  0.0668
  963MOL0     C32779  11.384   3.796   5.160  0.9036  0.5892 -0.5983
  963MOL0     O32780  11.508   3.857   5.121  0.2998 -0.2965 -0.4658
  963MOL0     C32781  11.625   3.785   5.117 -0.7574 -0.2863 -0.1911
  963MOL0     C32782  11.648   3.684   5.210 -0.2788 -0.3820 -0.0780
  963MOL0     C32783  11.766   3.603   5.221 -0.5402  0.1749 -0.2520
  963MOL0     C32784  11.772   3.505   5.338  0.1404  0.0074 -0.2405
  963MOL0     C32785  11.879   3.638   5.131  0.6174  0.7996  0.2371
  963MOL0     C32786  12.020   3.571   5.137  1.3287  0.0927 -0.0316
  963MOL0     O32787  12.124   3.650   5.099 -0.4511 -0.3295 -0.9317
  963MOL0     C32788  12.259   3.609   5.121 -0.1881 -0.7259 -0.2368
  963MOL0     C32789  12.309   3.499   5.193  0.3878 -0.2976  0.6162
  963MOL0     C32790  12.447   3.468   5.202 -0.8058  0.2988  0.7538
  963MOL0     C32791  12.543   3.554   5.150 -0.8319 -0.1093  0.0414
  963MOL0     O32792  12.678   3.524   5.159  0.0745  0.2281 -0.7132
  963MOL0     C32793  12.775   3.617   5.098 -0.2041  0.0940  1.1027
  963MOL0     C32794  12.921   3.568   5.107  0.1787  0.9242 -0.5934
  963MOL0     C32795  12.957   3.442   5.028 -0.7128  0.3766  0.2463
  963MOL0     C32796  13.086   3.374   5.084  0.1184  0.1441  1.3868
  963MOL0     C32797  13.145   3.270   4.988  0.1561 -0.6399  0.4567
  963MOL0     C32798  13.189   3.327   4.853  0.3907 -0.1292 -0.2271
  963MOL0     C32799  13.292   3.234   4.788 -0.3652  0.4078 -0.4014
  963MOL0     C32800  13.365   3.304   4.672  0.1282  0.2876  0.6959
  963MOL0    Cl32801  13.449   3.190   4.564  0.3119 -0.0035  0.2864
  963MOL0     C32802  12.488   3.656   5.061 -0.4351 -0.5036  0.9969
  963MOL0     C32803  12.356   3.688   5.059  0.4943  0.8215  0.2983
  963MOL0     O32804  12.027   3.450   5.167 -0.0879  0.1361  0.3769
  963MOL0     C32805  11.860   3.745   5.034  0.0646 -0.1211 -0.6229
  963MOL0     C32806  11.737   3.820   5.032  0.1076 -0.5141 -0.6274
  963MOL0     N32807  10.839   3.774   4.966 -0.2188  0.2587  0.0439
  963MOL0     N32808  10.731   3.740   5.022  0.2735 -0.1373 -0.6791
  963MOL0     C32809   9.610   3.524   5.157 -0.5299 -0.2402 -0.3863
  963MOL0     C32810   9.489   3.463   5.121 -0.3350  0.3092 -1.6127
  963MOL0     C32811   9.110   3.267   5.282  1.2703  0.6587 -0.3981
  963MOL0     C32812   8.993   3.320   5.223  0.6424 -0.2040  0.1653
  963MOL0     C32813   8.859   3.280   5.267  0.1125  0.1887 -0.0051
  963MOL0     C32814   8.844   3.187   5.364  0.5598  0.9007  0.2181
  963MOL0     O32815   8.713   3.157   5.397 -0.2593  0.3172 -0.4805
  963MOL0     C32816   8.683   3.154   5.544  0.3653 -0.8599  1.1554
  963MOL0     C32817   8.527   3.163   5.555  0.0396 -0.1400 -0.9103
  963MOL0     C32818   8.454   3.279   5.485 -0.1586  0.2941 -0.4366
  963MOL0     C32819   8.308   3.254   5.477 -0.6391  0.3926 -0.7755
  963MOL0     C32820   8.239   3.284   5.607 -0.0353  0.4752  0.0327
  963MOL0     C32821   8.187   3.300   5.712  0.7571  0.3421 -0.4758
  963MOL0     C32822   8.954   3.125   5.416 -0.0779 -0.1830  0.5203
  963MOL0     C32823   9.084   3.166   5.380 -0.4074  0.5996  0.5163
  963MOL0     C32824   9.188   3.093   5.462 -0.3349 -0.8971 -0.5745
  963MOL0     H32825   9.285   3.624   5.343 -0.1479 -0.6879 -0.1310
  963MOL0     H32826   9.497   3.746   5.396  0.7526 -0.9309  0.2725
  963MOL0     H32827   9.867   3.659   5.147  2.7598  1.1006  0.5852
  963MOL0     H32828   9.872   3.517   5.253  0.4469  0.1009  0.7534
  963MOL0     H32829   9.952   3.796   5.313  0.8829  0.0656 -2.3128
  963MOL0     H32830   9.956   3.663   5.436 -1.5768 -2.4179 -0.9597
  963MOL0     H32831  10.132   3.554   5.262  1.4341 -0.2490 -0.7545
  963MOL0     H32832  10.107   3.701   5.163 -3.0792 -0.0276  0.2036
  963MOL0     H32833  10.190   3.829   5.358  3.5682  0.1958  1.9214
  963MOL0     H32834  10.231   3.683   5.446 -2.1097  2.2332  1.8816
  963MOL0     H32835  10.327   3.771   5.174  1.9250  2.1671 -0.1877
  963MOL0     H32836  10.385   3.629   5.251  1.8225  0.9227  0.5940
  963MOL0     H32837  10.413   3.921   5.368  4.1326  1.2303  2.7184
  963MOL0     H32838  10.456   3.786   5.463  0.3976 -0.2190  0.1939
  963MOL0     H32839  10.641   3.885   5.341 -1.0399 -0.4620  0.9754
  963MOL0     H32840  10.552   3.859   5.177  0.7949 -1.9048 -1.2347
  963MOL0     H32841  10.688   3.645   5.346 -3.0266 -2.4070 -0.0310
  963MOL0     H32842  10.575   3.610   5.224 -2.1368  1.3932  0.9632
  963MOL0     H32843  10.934   3.673   5.274  0.7923  2.6259  0.1920
  963MOL0     H32844  11.116   3.846   4.971 -0.1009 -1.6720 -3.3125
  963MOL0     H32845  11.149   3.698   5.049 -0.2009  1.5447 -1.6501
  963MOL0     H32846  11.071   3.944   5.212  0.9726  1.7469  0.2195
  963MOL0     H32847  11.131   3.797   5.273  1.9491 -1.1434 -0.9426
  963MOL0     H32848  11.295   3.968   5.076  0.5630 -1.5706 -0.8922
  963MOL0     H32849  11.310   3.983   5.252  1.7911  0.1232 -0.4071
  963MOL0     H32850  11.395   3.742   5.255  0.4778 -0.7649 -1.3017
  963MOL0     H32851  11.359   3.719   5.087  1.1570 -1.1874  1.0944
  963MOL0     H32852  11.576   3.669   5.290  0.0585 -0.3631  0.2301
  963MOL0     H32853  11.843   3.534   5.417  0.2521 -0.0998 -0.3009
  963MOL0     H32854  11.807   3.403   5.318 -2.5874 -2.2642  4.7487
  963MOL0     H32855  11.674   3.487   5.383  0.3685 -1.2437 -0.2104
  963MOL0     H32856  12.251   3.418   5.236  0.8745 -0.4312  1.0394
  963MOL0     H32857  12.477   3.383   5.261 -0.1503  0.0435  0.0610
  963MOL0     H32858  12.764   3.640   4.992  1.4966 -1.5014  0.5257
  963MOL0     H32859  12.777   3.713   5.151 -0.5197  0.5136  0.3654
  963MOL0     H32860  12.987   3.645   5.067 -0.2065  1.1914 -0.7270
  963MOL0     H32861  12.934   3.555   5.215  0.5274 -1.9520 -0.9007
  963MOL0     H32862  12.980   3.471   4.925 -2.0410 -1.1368 -0.5230
  963MOL0     H32863  12.877   3.368   5.015 -0.7407  0.3609  0.4928
  963MOL0     H32864  13.053   3.316   5.171 -0.1514 -2.0060 -0.0809
  963MOL0     H32865  13.155   3.455   5.107 -0.2939  1.1506 -0.7101
  963MOL0     H32866  13.233   3.224   5.033  0.9491 -1.6533 -1.9162
  963MOL0     H32867  13.065   3.195   4.980  0.8015 -1.1249 -3.8589
  963MOL0     H32868  13.217   3.431   4.873  1.4523 -0.7629  1.8927
  963MOL0     H32869  13.100   3.330   4.789 -0.0166 -0.7878  0.2897
  963MOL0     H32870  13.256   3.141   4.742  0.6170 -0.2528  0.1302
  963MOL0     H32871  13.369   3.196   4.857 -0.0296  1.8192  0.0233
  963MOL0     H32872  13.426   3.381   4.719 -3.4638  1.7306  3.5419
  963MOL0     H32873  13.300   3.360   4.604  2.2177 -0.3154 -1.9784
  963MOL0     H32874  12.543   3.737   5.014 -2.8204  0.5269 -0.1758
  963MOL0     H32875  12.318   3.780   5.015 -0.6746  0.9340  1.4867
  963MOL0     H32876  11.939   3.784   4.970  0.8628  0.1523  0.5125
  963MOL0     H32877  11.730   3.908   4.969 -1.7469  0.9588  1.4555
  963MOL0     H32878   9.700   3.496   5.102 -0.1726  0.8243 -0.3621
  963MOL0     H32879   9.484   3.390   5.040  1.5704  0.2523 -1.7092
  963MOL0     H32880   9.002   3.384   5.136 -1.7340 -0.6012 -0.4488
  963MOL0     H32881   8.773   3.327   5.220 -0.8882  0.4588  1.9989
  963MOL0     H32882   8.726   3.068   5.596  1.5244 -0.4973  0.8306
  963MOL0     H32883   8.723   3.242   5.595  1.5816 -0.7511  0.0610
  963MOL0     H32884   8.506   3.172   5.662 -0.4612 -2.5623 -0.7389
  963MOL0     H32885   8.475   3.068   5.541 -1.3838  0.1259  1.8223
  963MOL0     H32886   8.470   3.374   5.536 -0.1125 -0.1230  0.3309
  963MOL0     H32887   8.506   3.291   5.389  0.2365 -0.9143 -0.3826
  963MOL0     H32888   8.291   3.148   5.453  1.0393  0.5638 -3.0842
  963MOL0     H32889   8.265   3.316   5.398 -3.8856 -0.1650  0.4156
  963MOL0     H32890   8.138   3.318   5.805  1.4380 -3.7882  0.8784
  963MOL0     H32891   8.929   3.048   5.488  0.3733 -1.7255 -0.9246
  963MOL0     H32892   9.265   3.049   5.398  0.4395  0.9708 -0.9890
  963MOL0     H32893   9.242   3.166   5.523 -0.7979 -2.1496  1.4139
  963MOL0     H32894   9.137   3.018   5.523  0.4335  0.7705  2.3514
  964MOL0     O32895   8.487  10.993   8.350 -0.1592 -0.2468  0.3134
  964MOL0     C32896   8.456  10.884   8.397 -0.2107 -0.0923  0.0879
  964MOL0     O32897   8.521  10.821   8.490 -0.2676  0.2296 -0.1192
  964MOL0     C32898   8.654  10.843   8.534  0.4458 -0.9524 -0.5090
  964MOL0     C32899   8.755  10.904   8.460 -0.4175 -1.1936  0.1562
  964MOL0     C32900   8.872  10.943   8.512  1.2258 -0.0704  0.1362
  964MOL0     C32901   8.907  10.920   8.650 -0.2933 -0.0721  0.2307
  964MOL0     O32902   9.016  10.974   8.709 -0.3197 -0.3431 -0.0860
  964MOL0     C32903   9.003  11.018   8.840 -0.1544 -0.5670  0.5238
  964MOL0     C32904   9.102  11.141   8.871 -0.0471  0.0263 -0.0973
  964MOL0     C32905   9.251  11.102   8.860  0.2590  1.2502 -1.0822
  964MOL0     C32906   9.296  11.008   8.980  0.4940 -0.3508  0.2390
  964MOL0     C32907   9.450  11.002   8.973 -0.9896  0.1463 -0.4993
  964MOL0     C32908   9.512  10.935   9.103 -0.1350 -0.1142 -0.2170
  964MOL0     C32909   9.500  10.778   9.087  0.0634 -0.4920 -1.2372
  964MOL0     C32910   9.569  10.727   9.211 -0.5634 -0.6554 -0.2141
  964MOL0     N32911   9.586  10.586   9.211 -0.4871  0.1895  0.0644
  964MOL0     C32912   9.693  10.521   9.272  0.6181 -1.0810  0.2976
  964MOL0     C32913   9.655  10.393   9.284  0.1076 -0.8743  0.4479
  964MOL0     C32914   9.724  10.277   9.358 -0.3935 -0.6376  0.4810
  964MOL0     C32915   9.829  10.203   9.275  0.0870 -0.0096  0.0123
  964MOL0     C32916   9.938  10.295   9.220 -0.0258 -0.3942  0.0984
  964MOL0     C32917  10.055  10.214   9.165 -0.2934 -0.1616 -0.7766
  964MOL0     O32918  10.157  10.305   9.122  0.1125 -0.4114 -0.4631
  964MOL0     C32919  10.286  10.264   9.158  0.4855  0.0150  0.9112
  964MOL0     C32920  10.320  10.132   9.155 -0.0939 -0.0351  0.0665
  964MOL0     C32921  10.452  10.088   9.169  0.5487 -0.0109 -0.0113
  964MOL0     C32922  10.485   9.947   9.131  0.7969  0.5797  0.5762
  964MOL0     C32923  10.549  10.174   9.217  1.3548 -0.7452  0.1954
  964MOL0     C32924  10.682  10.134   9.255 -0.6706  0.3656  0.6348
  964MOL0     O32925  10.704  10.012   9.312 -0.2728  0.5755  0.8143
  964MOL0     C32926  10.826   9.972   9.351  0.0229 -0.3585 -0.3863
  964MOL0     C32927  10.874  10.001   9.475  1.0883 -0.0368 -0.6607
  964MOL0     C32928  11.003   9.951   9.511  0.5542  0.7031 -0.5310
  964MOL0     C32929  11.082   9.873   9.425  0.5789 -0.6045 -0.4811
  964MOL0     O32930  11.214   9.832   9.454  0.2463  0.3262 -0.1844
  964MOL0     C32931  11.288   9.925   9.541  0.7584  0.4078  0.2495
  964MOL0     C32932  11.437   9.925   9.499  0.1540 -0.4245  0.2417
  964MOL0     C32933  11.531  10.003   9.593  0.5152  0.1857  0.5118
  964MOL0     C32934  11.479  10.140   9.629 -0.1962 -0.3703 -0.1734
  964MOL0     C32935  11.502  10.247   9.529  1.0130  0.3540  0.5250
  964MOL0     C32936  11.443  10.388   9.572 -0.8165  1.0224  0.2972
  964MOL0     C32937  11.465  10.498   9.460  0.7518 -0.5676  0.4899
  964MOL0     C32938  11.380  10.634   9.479  0.4343 -0.6234 -0.0360
  964MOL0    Cl32939  11.433  10.714   9.635 -0.4224  0.3826 -0.3494
  964MOL0     C32940  11.033   9.843   9.295  0.4936 -0.8328 -0.4517
  964MOL0     C32941  10.902   9.896   9.263 -0.0744 -0.3599 -0.2743
  964MOL0     O32942  10.768  10.220   9.222  0.1517  0.2207 -0.1571
  964MOL0     C32943  10.526  10.315   9.219  0.4001  0.0296 -0.5509
  964MOL0     C32944  10.389  10.355   9.190 -0.1319 -0.5842 -0.6924
  964MOL0     N32945   9.535  10.391   9.221  0.8741 -0.3657 -0.2839
  964MOL0     N32946   9.485  10.497   9.180  0.1128  0.4667  0.1819
  964MOL0     C32947   8.814  10.836   8.719 -0.9818 -0.7128  0.6240
  964MOL0     C32948   8.697  10.794   8.664  0.3559 -1.2789  1.5529
  964MOL0     C32949   8.318  10.842   8.381  0.2619 -0.3309 -0.5924
  964MOL0     C32950   8.262  10.862   8.251  0.2456  0.4919 -0.4395
  964MOL0     C32951   8.135  10.802   8.235 -0.5657  0.3022  0.2998
  964MOL0     C32952   8.047  10.750   8.334  0.1080 -0.5516  0.1857
  964MOL0     O32953   7.917  10.708   8.306  0.0372 -0.3918  0.4635
  964MOL0     C32954   7.840  10.824   8.267  0.8968  0.4827 -0.1575
  964MOL0     C32955   7.682  10.794   8.240  0.3881  0.5362  0.0739
  964MOL0     C32956   7.666  10.660   8.177  0.0024 -0.8736 -1.0868
  964MOL0     C32957   7.735  10.654   8.037 -0.5808 -0.7760 -0.1482
  964MOL0     C32958   7.686  10.555   7.944  0.1680 -0.9311 -0.9417
  964MOL0     C32959   7.643  10.461   7.883  0.3488  0.2378 -0.1884
  964MOL0     C32960   8.101  10.745   8.461 -0.1939  0.5201 -0.1815
  964MOL0     C32961   8.224  10.801   8.486 -1.2895 -0.3227  0.1112
  964MOL0     C32962   8.275  10.799   8.631 -0.1487  0.2685 -0.2975
  964MOL0     H32963   8.732  10.942   8.361  1.8007 -0.3723 -0.1176
  964MOL0     H32964   8.935  11.009   8.453 -1.1021  1.6188 -0.5948
  964MOL0     H32965   9.023  10.933   8.905  0.4747 -1.5687 -0.9425
  964MOL0     H32966   8.901  11.053   8.860 -0.3054 -1.2713  1.0048
  964MOL0     H32967   9.075  11.217   8.797 -0.3668  1.5176  1.4947
  964MOL0     H32968   9.097  11.180   8.973  0.8706 -1.3540  0.5030
  964MOL0     H32969   9.258  11.047   8.766  1.9231 -0.7352  0.0954
  964MOL0     H32970   9.310  11.192   8.842 -1.2491  2.1991 -1.4755
  964MOL0     H32971   9.274  11.057   9.075  1.3810 -0.8492  0.7208
  964MOL0     H32972   9.252  10.907   8.983  3.5828 -1.8077  0.4774
  964MOL0     H32973   9.487  11.104   8.961  1.9061 -1.0590 -3.1709
  964MOL0     H32974   9.481  10.939   8.889 -0.5732 -1.8490  1.0677
  964MOL0     H32975   9.616  10.968   9.104 -0.1167 -0.1784 -0.0761
  964MOL0     H32976   9.469  10.972   9.196  0.3953  0.0200 -0.0221
  964MOL0     H32977   9.540  10.746   8.991 -1.5789  1.1794 -2.5689
  964MOL0     H32978   9.396  10.746   9.096 -0.4294  1.5810  2.8874
  964MOL0     H32979   9.667  10.775   9.220 -0.5826 -0.3344 -1.5487
  964MOL0     H32980   9.505  10.753   9.295 -1.7173 -0.6533 -1.0759
  964MOL0     H32981   9.787  10.559   9.313 -0.4471  0.0154  1.8316
  964MOL0     H32982   9.645  10.209   9.393  0.4626 -2.1034 -0.3395
  964MOL0     H32983   9.771  10.317   9.449  2.5198  0.7882 -1.5123
  964MOL0     H32984   9.881  10.124   9.330  5.1270  1.5068 -2.0162
  964MOL0     H32985   9.784  10.159   9.185  2.3996 -0.6884 -0.9031
  964MOL0     H32986   9.886  10.348   9.139 -1.2893 -1.2567  0.3013
  964MOL0     H32987   9.956  10.359   9.306 -2.0034  2.1993 -1.2505
  964MOL0     H32988  10.082  10.143   9.243 -4.5633 -3.8893 -2.3053
  964MOL0     H32989  10.022  10.161   9.075 -2.9718 -2.1284  1.2250
  964MOL0     H32990  10.245  10.057   9.135 -1.2106  0.7629  1.1590
  964MOL0     H32991  10.590   9.938   9.100  0.6112  1.0312 -0.2064
  964MOL0     H32992  10.420   9.907   9.054  1.0253  0.1091  0.6246
  964MOL0     H32993  10.467   9.886   9.220  0.8341 -1.3830 -0.6964
  964MOL0     H32994  10.804  10.050   9.542  4.2094 -0.6226  3.4751
  964MOL0     H32995  11.029   9.975   9.613 -1.4600  0.0594  0.1798
  964MOL0     H32996  11.251  10.026   9.522 -2.0053 -0.7794 -1.1833
  964MOL0     H32997  11.271   9.900   9.646  0.1859  0.5051  0.1814
  964MOL0     H32998  11.466   9.820   9.499  3.5558  0.4011 -0.6999
  964MOL0     H32999  11.443   9.972   9.401  2.5368 -0.6452  0.2470
  964MOL0     H33000  11.623  10.000   9.534 -1.0827 -2.2782 -2.1666
  964MOL0     H33001  11.534   9.944   9.684 -1.8886 -1.5589 -0.4285
  964MOL0     H33002  11.523  10.168   9.725 -3.3985  2.2248  0.7102
  964MOL0     H33003  11.370  10.143   9.644 -0.1287 -0.5725  0.3884
  964MOL0     H33004  11.609  10.267   9.518  0.7434  2.2481  0.9839
  964MOL0     H33005  11.454  10.207   9.440 -1.0885 -1.0278  2.1794
  964MOL0     H33006  11.487  10.423   9.665  3.3612 -2.7987  0.0949
  964MOL0     H33007  11.336  10.374   9.593 -0.8024 -0.1411 -0.3155
  964MOL0     H33008  11.428  10.453   9.367 -0.4634 -0.9168  1.1175
  964MOL0     H33009  11.570  10.527   9.457 -0.0615  2.8116  1.2773
  964MOL0     H33010  11.275  10.605   9.484  0.3747 -0.4308 -0.1781
  964MOL0     H33011  11.395  10.698   9.392  1.1467 -1.4718 -0.5571
  964MOL0     H33012  11.080   9.770   9.231 -1.3790 -2.5390  0.0265
  964MOL0     H33013  10.875   9.871   9.161 -0.6643 -1.1266  0.0589
  964MOL0     H33014  10.600  10.391   9.241 -0.7389  2.1573 -3.3675
  964MOL0     H33015  10.362  10.460   9.191  1.6574 -0.0816 -0.7139
  964MOL0     H33016   8.830  10.811   8.823 -1.0933  0.8066  1.0271
  964MOL0     H33017   8.632  10.725   8.717 -0.8633 -0.8236  0.6983
  964MOL0     H33018   8.320  10.909   8.172 -0.1872  2.6351  0.4561
  964MOL0     H33019   8.101  10.794   8.133  0.8028 -0.4331 -0.1266
  964MOL0     H33020   7.845  10.910   8.335  1.2166 -0.2814  0.8251
  964MOL0     H33021   7.881  10.862   8.174  1.3947  0.8738  0.2168
  964MOL0     H33022   7.646  10.877   8.180  1.3174  1.0046  0.1504
  964MOL0     H33023   7.638  10.791   8.340  0.8477 -2.8264  0.2904
  964MOL0     H33024   7.693  10.580   8.247 -1.3153 -0.0088  0.5009
  964MOL0     H33025   7.559  10.644   8.161 -0.7561  2.0255  0.3393
  964MOL0     H33026   7.844  10.641   8.044 -0.0804  3.0027  1.1051
  964MOL0     H33027   7.727  10.745   7.978 -0.3319 -1.0261 -0.5763
  964MOL0     H33028   7.591  10.387   7.825  0.3319  0.9861 -1.1426
  964MOL0     H33029   8.053  10.691   8.542  3.5644 -0.1573  1.8204
  964MOL0     H33030   8.335  10.710   8.654 -0.1766  0.2329 -0.3610
  964MOL0     H33031   8.326  10.891   8.661  0.5087 -0.1982  0.0558
  964MOL0     H33032   8.195  10.789   8.704 -0.0116  3.6189  0.4585
  965MOL0     O33033   8.996   1.229   9.158  0.0284 -0.7144 -0.1035
  965MOL0     C33034   8.974   1.198   9.273  0.8527  1.0902  0.7006
  965MOL0     O33035   9.075   1.169   9.366  0.6074  0.7122  0.1018
  965MOL0     C33036   9.197   1.163   9.304  0.0082  0.5485 -0.2528
  965MOL0     C33037   9.257   1.039   9.274 -0.5534  0.3187 -1.0709
  965MOL0     C33038   9.392   1.034   9.227 -0.0377  0.1875  1.0886
  965MOL0     C33039   9.464   1.156   9.195 -0.6766  0.5578  0.0930
  965MOL0     O33040   9.589   1.140   9.132  0.1326  0.0448  0.2763
  965MOL0     C33041   9.706   1.215   9.181  0.9437 -0.3220 -0.3500
  965MOL0     C33042   9.825   1.138   9.114  0.6562  0.0462  0.1553
  965MOL0     C33043   9.955   1.171   9.183 -0.2727 -0.0513 -1.0400
  965MOL0     C33044  10.073   1.081   9.136 -0.5750 -0.1474  0.1991
  965MOL0     C33045  10.204   1.107   9.204 -0.7504 -0.6551 -0.1471
  965MOL0     C33046  10.305   1.000   9.160 -0.9501  0.2252  0.6068
  965MOL0     C33047  10.447   1.021   9.218 -0.1005  0.3494  0.1410
  965MOL0     C33048  10.540   0.907   9.191  0.3727  0.1571  0.1250
  965MOL0     N33049  10.597   0.895   9.056 -0.5282  0.4256  0.7380
  965MOL0     C33050  10.714   0.830   9.027 -0.2345  0.7135 -0.1318
  965MOL0     C33051  10.747   0.852   8.897 -0.4685  0.1057 -0.1247
  965MOL0     C33052  10.862   0.780   8.820 -0.1751  0.9950  0.0977
  965MOL0     C33053  10.995   0.795   8.895 -0.0742  0.0122  0.9184
  965MOL0     C33054  11.114   0.715   8.838  0.4572 -0.4774 -0.2565
  965MOL0     C33055  11.077   0.568   8.813 -0.0742 -0.5648 -0.3846
  965MOL0     O33056  11.190   0.485   8.820  0.2046 -0.2693 -0.1282
  965MOL0     C33057  11.199   0.370   8.741  0.1489  0.9685 -0.1045
  965MOL0     C33058  11.122   0.314   8.637 -0.2815  0.0639  0.0223
  965MOL0     C33059  11.163   0.207   8.560 -0.2908  0.5432 -0.2828
  965MOL0     C33060  11.051   0.151   8.476  0.6406  0.5964  0.3539
  965MOL0     C33061  11.287   0.142   8.581  0.0432  0.7942  0.3892
  965MOL0     C33062  11.343   0.033   8.503 -0.2360 -0.2984 -0.1784
  965MOL0     O33063  11.279   0.003   8.381  0.8905 -0.5354 -0.4297
  965MOL0     C33064  11.287  -0.112   8.313 -0.1489 -0.5430  0.1197
  965MOL0     C33065  11.182  -0.196   8.280  0.3863  0.0899  0.2220
  965MOL0     C33066  11.196  -0.309   8.199  0.0249  0.5427 -0.0321
  965MOL0     C33067  11.318  -0.337   8.148  0.0803  0.8937 -0.4187
  965MOL0     O33068  11.345  -0.428   8.050 -0.4854 -0.3050  0.0209
  965MOL0     C33069  11.267  -0.549   8.025 -0.7468 -0.8063 -0.1910
  965MOL0     C33070  11.332  -0.644   8.133  0.5375 -0.0660 -0.2752
  965MOL0     C33071  11.482  -0.667   8.114 -0.1087  0.3069  0.0745
  965MOL0     C33072  11.527  -0.780   8.208 -0.0763  0.2602 -0.2015
  965MOL0     C33073  11.672  -0.814   8.194 -1.1856  0.6832  0.0454
  965MOL0     C33074  11.778  -0.711   8.248  0.5967  0.0315 -0.4335
  965MOL0     C33075  11.919  -0.762   8.222  0.8892 -0.8103  0.6146
  965MOL0     C33076  12.018  -0.670   8.284  0.3366  0.1973  0.1867
  965MOL0    Cl33077  12.178  -0.744   8.296 -0.1773  0.1908  0.0119
  965MOL0     C33078  11.427  -0.274   8.196  0.0025 -0.2462  0.2390
  965MOL0     C33079  11.414  -0.157   8.274 -0.1877 -0.3167  0.0019
  965MOL0     O33080  11.450  -0.020   8.537 -0.0646  0.5167 -0.0826
  965MOL0     C33081  11.359   0.193   8.693  1.1390  0.5049  0.4311
  965MOL0     C33082  11.314   0.299   8.775  0.5324  1.0262 -0.2362
  965MOL0     N33083  10.665   0.946   8.850 -0.2258  0.3870  0.0678
  965MOL0     N33084  10.576   0.972   8.945  0.3672  0.7735  0.3372
  965MOL0     C33085   9.402   1.278   9.236 -0.6038 -0.7046 -0.4113
  965MOL0     C33086   9.276   1.280   9.294  0.6728  0.5908  0.1703
  965MOL0     C33087   8.836   1.203   9.324 -0.1970  0.6324  0.8065
  965MOL0     C33088   8.759   1.307   9.275  1.2021  0.1275  1.4608
  965MOL0     C33089   8.620   1.322   9.307  0.9486 -0.1363  0.0834
  965MOL0     C33090   8.565   1.231   9.399  0.8724 -0.8621  0.4173
  965MOL0     O33091   8.433   1.238   9.457 -0.2159  0.5330  0.1420
  965MOL0     C33092   8.334   1.320   9.391  0.6002 -0.6046  0.0245
  965MOL0     C33093   8.190   1.291   9.457  0.1568  0.3601  0.4579
  965MOL0     C33094   8.093   1.412   9.435  0.6645  0.4894  0.1167
  965MOL0     C33095   7.953   1.368   9.387 -0.6285 -0.6324 -0.2071
  965MOL0     C33096   7.879   1.487   9.343 -0.0386  0.1020  0.8306
  965MOL0     C33097   7.805   1.570   9.308 -0.8582 -0.0231  0.2449
  965MOL0     C33098   8.644   1.130   9.443 -0.6427  0.1424 -0.2902
  965MOL0     C33099   8.774   1.108   9.405 -0.5800  0.0737 -0.6371
  965MOL0     C33100   8.859   0.995   9.459  0.2863  0.7229 -0.2665
  965MOL0     H33101   9.205   0.945   9.292  1.6882 -0.6843  0.6704
  965MOL0     H33102   9.428   0.936   9.197  1.2496  1.7945 -3.5869
  965MOL0     H33103   9.726   1.224   9.288  0.5586 -0.6535 -0.2506
  965MOL0     H33104   9.699   1.320   9.151  1.5650 -0.4438 -0.9613
  965MOL0     H33105   9.821   1.030   9.131  3.3175  0.1926  2.5083
  965MOL0     H33106   9.826   1.160   9.007 -1.6974 -2.0414 -0.3862
  965MOL0     H33107   9.984   1.275   9.165  0.6157  0.1161  1.1601
  965MOL0     H33108   9.940   1.165   9.291 -1.0329  1.0957 -1.0690
  965MOL0     H33109  10.050   0.976   9.151  1.1576 -0.7637 -1.0787
  965MOL0     H33110  10.093   1.106   9.031 -0.1592 -0.4608  0.2056
  965MOL0     H33111  10.193   1.094   9.312  0.7061 -1.2789 -0.0525
  965MOL0     H33112  10.248   1.203   9.174 -1.5209 -0.4950 -0.7989
  965MOL0     H33113  10.267   0.905   9.199  0.5256  1.2377  5.1260
  965MOL0     H33114  10.306   1.001   9.051 -0.3204  1.1568  0.6050
  965MOL0     H33115  10.449   1.027   9.327 -1.5021  1.4441  0.1312
  965MOL0     H33116  10.490   1.116   9.185  2.6527 -0.5019  0.9755
  965MOL0     H33117  10.624   0.912   9.261  0.9346 -0.6080 -0.4792
  965MOL0     H33118  10.494   0.809   9.205  1.6965 -0.3957  0.8161
  965MOL0     H33119  10.771   0.773   9.100 -0.8855  1.3507  0.9029
  965MOL0     H33120  10.873   0.825   8.721  4.8239  0.0582 -0.0147
  965MOL0     H33121  10.825   0.677   8.814  0.3485  0.6450  2.0028
  965MOL0     H33122  11.019   0.902   8.888 -0.6802  0.0344 -1.5166
  965MOL0     H33123  10.988   0.776   9.002  1.9789  0.3300  1.1604
  965MOL0     H33124  11.155   0.758   8.747  1.0225  0.5030  0.4355
  965MOL0     H33125  11.199   0.723   8.907  0.5881  2.5120 -0.6042
  965MOL0     H33126  11.016   0.530   8.895 -1.7164  1.1582 -0.7365
  965MOL0     H33127  11.026   0.556   8.717 -0.2036 -3.4704 -0.0460
  965MOL0     H33128  11.025   0.361   8.620  0.9245  2.3132 -1.1366
  965MOL0     H33129  11.048   0.042   8.479  0.6987  0.6085  0.8550
  965MOL0     H33130  11.073   0.170   8.371 -0.1187  1.0430  0.2628
  965MOL0     H33131  10.952   0.193   8.498  1.3379  1.9050  1.1405
  965MOL0     H33132  11.085  -0.171   8.322  0.6519  1.4352  0.0795
  965MOL0     H33133  11.101  -0.351   8.168 -0.7348  2.7958 -0.9480
  965MOL0     H33134  11.159  -0.532   8.036 -0.0039  3.5443  2.5167
  965MOL0     H33135  11.299  -0.591   7.930  0.0438 -1.4620  0.3515
  965MOL0     H33136  11.321  -0.600   8.232  3.1028 -2.2377  1.1218
  965MOL0     H33137  11.283  -0.742   8.127 -0.3275  0.2862  0.7002
  965MOL0     H33138  11.547  -0.583   8.139 -0.2642  1.3263 -2.5990
  965MOL0     H33139  11.499  -0.695   8.010  1.9041 -2.0427  0.9538
  965MOL0     H33140  11.474  -0.867   8.171 -0.5900 -0.3038  1.7173
  965MOL0     H33141  11.511  -0.764   8.316 -1.1398  0.2253 -0.3419
  965MOL0     H33142  11.692  -0.908   8.246  0.2048  1.3517  0.8088
  965MOL0     H33143  11.690  -0.833   8.087 -0.5610 -3.5090  0.7162
  965MOL0     H33144  11.768  -0.705   8.356  2.2282 -1.6734 -0.1201
  965MOL0     H33145  11.771  -0.612   8.201 -3.1925 -0.6042 -1.5198
  965MOL0     H33146  11.943  -0.777   8.116  1.8436 -1.7325  0.9475
  965MOL0     H33147  11.928  -0.861   8.267  2.0766 -0.5277  1.0349
  965MOL0     H33148  11.991  -0.634   8.384  3.3112  0.1072  1.1265
  965MOL0     H33149  12.038  -0.583   8.220  1.3524  0.5368  0.9452
  965MOL0     H33150  11.519  -0.307   8.149 -1.5007 -2.4436 -1.3934
  965MOL0     H33151  11.494  -0.088   8.298 -0.6146 -0.1837  1.0817
  965MOL0     H33152  11.449   0.143   8.730 -0.3632 -0.4135  3.1397
  965MOL0     H33153  11.361   0.349   8.859 -0.5052  1.8405 -0.1261
  965MOL0     H33154   9.459   1.370   9.232  0.3253 -1.1517  1.4190
  965MOL0     H33155   9.223   1.362   9.341 -1.7034 -1.3397  1.0580
  965MOL0     H33156   8.802   1.382   9.209  1.5987  0.1012  1.6825
  965MOL0     H33157   8.561   1.402   9.262 -1.2142 -2.4871 -1.5799
  965MOL0     H33158   8.356   1.427   9.398 -1.9984  0.4192 -3.9086
  965MOL0     H33159   8.319   1.305   9.284 -0.0427  0.6655 -0.0870
  965MOL0     H33160   8.195   1.268   9.564 -3.8255 -0.0016  0.6957
  965MOL0     H33161   8.149   1.206   9.401 -0.4737  0.8415  0.1747
  965MOL0     H33162   8.081   1.472   9.525 -0.1175  2.4977 -1.2610
  965MOL0     H33163   8.138   1.469   9.354  0.3889  0.1783 -0.2597
  965MOL0     H33164   7.900   1.325   9.472 -1.0654 -0.8459 -0.5810
  965MOL0     H33165   7.966   1.300   9.302  0.5670 -1.5595  0.6903
  965MOL0     H33166   7.730   1.645   9.296  0.0806  1.0283  0.7760
  965MOL0     H33167   8.592   1.072   9.519 -0.5437 -0.4823 -0.6884
  965MOL0     H33168   8.796   0.919   9.506  0.4857  1.9488  2.0955
  965MOL0     H33169   8.913   0.939   9.382 -0.8917 -1.4240  0.3849
  965MOL0     H33170   8.929   1.025   9.537  0.0558 -3.3328  1.7918
  966MOL0     O33171   7.727   9.556   7.317 -0.3478  0.0677  0.3894
  966MOL0     C33172   7.660   9.641   7.248  0.0149  0.9648 -0.3447
  966MOL0     O33173   7.702   9.766   7.226  0.1144  0.5628  0.8889
  966MOL0     C33174   7.812   9.810   7.288 -0.1790 -0.0350 -0.1714
  966MOL0     C33175   7.939   9.768   7.253 -0.8952 -0.7211  0.1091
  966MOL0     C33176   8.055   9.826   7.320  0.1634 -0.1711  0.4034
  966MOL0     C33177   8.037   9.930   7.419 -0.8754  0.4714  0.0754
  966MOL0     O33178   8.143   9.999   7.474  0.3587  0.3513  0.9290
  966MOL0     C33179   8.270   9.915   7.489  0.6835  0.3207 -0.1399
  966MOL0     C33180   8.384   9.984   7.567 -0.5424  0.2529 -0.6272
  966MOL0     C33181   8.525   9.926   7.539 -0.5419 -0.4554 -0.0646
  966MOL0     C33182   8.634  10.038   7.560 -0.0448  0.5468 -0.6420
  966MOL0     C33183   8.773   9.978   7.538 -0.5088 -0.8216  0.7894
  966MOL0     C33184   8.889  10.086   7.534 -0.5573 -0.5694 -0.4881
  966MOL0     C33185   9.035  10.022   7.528  0.5122  0.8763  0.2836
  966MOL0     C33186   9.142  10.120   7.482  0.0885 -0.1747 -0.3779
  966MOL0     N33187   9.281  10.078   7.509  0.4097 -0.7075 -0.1454
  966MOL0     C33188   9.329   9.969   7.452  0.0381  0.4419 -0.3226
  966MOL0     C33189   9.445   9.946   7.522 -0.4823 -0.4350 -0.2149
  966MOL0     C33190   9.542   9.825   7.507  0.5622 -0.3957 -0.0401
  966MOL0     C33191   9.630   9.822   7.383 -0.9930 -0.0484  0.5297
  966MOL0     C33192   9.699   9.679   7.390 -0.2867  0.0616  0.2876
  966MOL0     C33193   9.849   9.687   7.369  0.0650  1.0707 -1.3721
  966MOL0     O33194   9.871   9.728   7.236  0.4363  0.1875 -0.2629
  966MOL0     C33195  10.006   9.742   7.207  0.0836  0.3084  1.0114
  966MOL0     C33196  10.102   9.655   7.253 -0.4796  0.3405  0.5064
  966MOL0     C33197  10.240   9.679   7.241 -0.8821  0.7639 -0.7091
  966MOL0     C33198  10.332   9.586   7.292  0.0677 -0.0475  0.1947
  966MOL0     C33199  10.280   9.792   7.152  0.1663  0.4071  0.1860
  966MOL0     C33200  10.418   9.822   7.113  0.4704  0.7370  0.1351
  966MOL0     O33201  10.435   9.956   7.077  0.1225 -0.3201  0.8394
  966MOL0     C33202  10.552  10.005   7.021  0.8619  0.1108 -0.1954
  966MOL0     C33203  10.629  10.094   7.088 -0.1650  0.0767  0.1425
  966MOL0     C33204  10.751  10.144   7.038  0.7744 -0.4742  0.1340
  966MOL0     C33205  10.792  10.107   6.913  0.1087  0.0537 -0.2346
  966MOL0     O33206  10.910  10.159   6.866 -0.7789  0.4885 -0.0042
  966MOL0     C33207  10.927  10.182   6.724 -0.1444  0.1965  0.1110
  966MOL0     C33208  11.028  10.285   6.694  0.5849 -0.7803 -0.4697
  966MOL0     C33209  11.165  10.259   6.752  0.1836 -0.0252  0.1132
  966MOL0     C33210  11.265  10.379   6.734  0.1785 -0.1611  0.5933
  966MOL0     C33211  11.400  10.334   6.799 -0.2858  0.1974  0.1941
  966MOL0     C33212  11.498  10.453   6.821 -0.3965 -0.1502 -0.1318
  966MOL0     C33213  11.625  10.412   6.911 -0.9093  0.3045  0.2887
  966MOL0     C33214  11.687  10.543   6.950 -0.5679 -0.6630 -0.7764
  966MOL0    Cl33215  11.859  10.522   7.018  0.3527  0.3480  0.4972
  966MOL0     C33216  10.716  10.021   6.842  0.3033 -0.7732  0.3655
  966MOL0     C33217  10.593   9.973   6.891 -0.4269 -0.7538  0.2135
  966MOL0     O33218  10.508   9.741   7.126 -0.2616  0.5779  0.2276
  966MOL0     C33219  10.181   9.879   7.108 -0.1787 -0.2399 -0.1008
  966MOL0     C33220  10.051   9.859   7.133  0.6387 -0.9223  0.3171
  966MOL0     N33221   9.461  10.049   7.619  1.5432  0.4646  0.5427
  966MOL0     N33222   9.363  10.130   7.607  0.1715 -0.6038  0.0804
  966MOL0     C33223   7.910   9.979   7.439 -0.1693 -0.0002  0.2386
  966MOL0     C33224   7.801   9.919   7.382 -0.3883 -0.5125  0.4895
  966MOL0     C33225   7.541   9.592   7.176 -0.7407 -0.8873 -0.3721
  966MOL0     C33226   7.536   9.458   7.146 -0.1191  0.1276 -0.1223
  966MOL0     C33227   7.425   9.410   7.082  1.1218  0.7961  0.1935
  966MOL0     C33228   7.308   9.490   7.049  0.8305  0.7679 -0.7181
  966MOL0     O33229   7.188   9.433   6.995  0.6783 -1.0556  0.1531
  966MOL0     C33230   7.071   9.515   6.955 -0.2033  0.9655 -0.1503
  966MOL0     C33231   6.932   9.456   6.977 -0.8192 -0.1650 -0.3372
  966MOL0     C33232   6.825   9.565   6.936  0.4013 -0.0532 -0.1776
  966MOL0     C33233   6.682   9.521   6.964 -0.4821 -0.5169 -0.3862
  966MOL0     C33234   6.659   9.452   7.092  0.8331 -0.3317  0.5620
  966MOL0     C33235   6.636   9.375   7.186 -0.7249 -0.1901 -0.2438
  966MOL0     C33236   7.324   9.625   7.083 -0.3621 -0.5891 -0.2896
  966MOL0     C33237   7.440   9.676   7.141  0.0054  0.2488 -0.3794
  966MOL0     C33238   7.446   9.824   7.175 -0.3745 -0.5851 -0.2498
  966MOL0     H33239   7.962   9.689   7.182 -2.2626  0.1007 -1.2942
  966MOL0     H33240   8.149   9.774   7.303  0.0204 -0.8804  1.6460
  966MOL0     H33241   8.300   9.886   7.388 -4.6640 -0.5836 -1.7770
  966MOL0     H33242   8.234   9.830   7.547 -2.0515  1.1673 -0.4723
  966MOL0     H33243   8.396  10.086   7.528 -1.0887  0.1801 -1.0031
  966MOL0     H33244   8.381   9.996   7.675 -0.2461  2.7586 -0.8480
  966MOL0     H33245   8.530   9.834   7.599 -0.8700 -0.2945  0.2192
  966MOL0     H33246   8.528   9.889   7.436 -1.1669  0.8414 -0.5680
  966MOL0     H33247   8.622  10.122   7.491 -0.2322  0.3931 -0.7973
  966MOL0     H33248   8.629  10.084   7.659  1.2901 -0.0527 -0.2698
  966MOL0     H33249   8.774   9.912   7.450 -6.9904 -0.7360  0.1748
  966MOL0     H33250   8.784   9.902   7.616 -4.3958 -3.0871 -0.5893
  966MOL0     H33251   8.870  10.150   7.447 -0.8473  0.5910  0.3975
  966MOL0     H33252   8.876  10.165   7.609  0.6398 -0.3508 -0.4756
  966MOL0     H33253   9.036   9.928   7.473  1.3280  1.7727 -1.2789
  966MOL0     H33254   9.050  10.001   7.635 -0.5611  0.4993  0.3789
  966MOL0     H33255   9.129  10.133   7.374 -2.3754 -1.4739 -0.2949
  966MOL0     H33256   9.125  10.215   7.534 -0.2742 -0.6083  0.3051
  966MOL0     H33257   9.282   9.915   7.371  0.2196  0.1209 -0.2182
  966MOL0     H33258   9.490   9.730   7.522 -0.3152  0.3663  2.0264
  966MOL0     H33259   9.610   9.823   7.593 -1.4369  0.8988  1.6625
  966MOL0     H33260   9.565   9.835   7.296  0.4955  4.0609 -0.2120
  966MOL0     H33261   9.704   9.902   7.372 -0.4701 -0.5156  0.5881
  966MOL0     H33262   9.691   9.637   7.490  1.6928 -0.0036  0.4451
  966MOL0     H33263   9.653   9.600   7.330  0.5371 -1.5481  1.7208
  966MOL0     H33264   9.906   9.746   7.442  2.6741 -0.1188 -2.3337
  966MOL0     H33265   9.877   9.583   7.389 -0.7017  1.0043 -0.5700
  966MOL0     H33266  10.064   9.568   7.306 -1.9418 -1.5989 -3.3696
  966MOL0     H33267  10.288   9.521   7.369 -1.2516  2.1540  1.4087
  966MOL0     H33268  10.413   9.636   7.347  0.5323  0.3078 -0.7805
  966MOL0     H33269  10.355   9.516   7.212  1.9329  1.3017 -0.5329
  966MOL0     H33270  10.596  10.132   7.184  0.1118  1.6360 -0.3491
  966MOL0     H33271  10.813  10.214   7.093 -1.6758  0.3586  2.0502
  966MOL0     H33272  10.964  10.087   6.683  1.5523  0.3108  1.2665
  966MOL0     H33273  10.832  10.226   6.692  0.7675  2.7047  0.6508
  966MOL0     H33274  11.026  10.295   6.585 -0.1954 -5.2166 -1.0475
  966MOL0     H33275  10.980  10.377   6.730 -3.7060 -2.3352 -1.5972
  966MOL0     H33276  11.209  10.174   6.699 -0.4656 -0.7736  0.7438
  966MOL0     H33277  11.159  10.235   6.858  0.6752 -3.5771 -0.5372
  966MOL0     H33278  11.236  10.470   6.789  0.7052  0.7154 -0.5389
  966MOL0     H33279  11.264  10.410   6.629 -3.1664  2.3870  1.1981
  966MOL0     H33280  11.384  10.279   6.892  2.4406  0.7578  1.0784
  966MOL0     H33281  11.450  10.262   6.735  0.6317  1.8079 -0.9808
  966MOL0     H33282  11.446  10.526   6.884  1.7523  0.3241  1.2305
  966MOL0     H33283  11.530  10.501   6.728 -0.2268  0.4580  0.2299
  966MOL0     H33284  11.691  10.348   6.852 -1.3668 -0.2399  0.3550
  966MOL0     H33285  11.591  10.347   6.992  0.0398 -1.1414 -0.4061
  966MOL0     H33286  11.636  10.595   7.032  1.7239  0.5993 -0.0690
  966MOL0     H33287  11.700  10.621   6.874 -1.0128  2.0325  1.7311
  966MOL0     H33288  10.735  10.003   6.736  1.4058 -0.7169  0.5398
  966MOL0     H33289  10.545   9.906   6.821  0.2459 -3.3823  2.1485
  966MOL0     H33290  10.201   9.966   7.047 -0.7939  0.4695  0.6852
  966MOL0     H33291   9.980   9.930   7.092  1.2291  0.1968  1.1843
  966MOL0     H33292   7.900  10.062   7.509  2.3037 -0.6731  1.5230
  966MOL0     H33293   7.701   9.952   7.405  0.2945 -0.2341  3.5021
  966MOL0     H33294   7.630   9.405   7.148 -1.0385 -1.6628 -1.0802
  966MOL0     H33295   7.418   9.306   7.052  2.2155  0.4300  1.0929
  966MOL0     H33296   7.074   9.606   7.017 -1.5549  0.6120  0.4521
  966MOL0     H33297   7.089   9.548   6.852  1.9132  1.2148  0.2408
  966MOL0     H33298   6.924   9.409   7.075  2.1260 -2.1703 -0.9281
  966MOL0     H33299   6.917   9.377   6.903 -2.2893 -0.9548  0.7459
  966MOL0     H33300   6.858   9.663   6.971  2.3442 -0.4943 -0.6662
  966MOL0     H33301   6.838   9.567   6.828 -1.7170 -2.8272 -0.6080
  966MOL0     H33302   6.652   9.450   6.887 -0.7903 -0.8967  0.0736
  966MOL0     H33303   6.625   9.614   6.965  1.2979  0.6377 -1.5458
  966MOL0     H33304   6.629   9.286   7.245  1.4560  0.5404  1.2275
  966MOL0     H33305   7.247   9.698   7.062  0.3436  0.4523  0.6268
  966MOL0     H33306   7.344   9.861   7.163  0.5128  3.2153  2.2265
  966MOL0     H33307   7.450   9.848   7.282 -2.7634  1.1867 -0.4937
  966MOL0     H33308   7.516   9.879   7.112  1.3959 -1.8232  0.5539
  967MOL0     O33309   1.834   3.268   6.560  0.0615 -0.1177 -0.0960
  967MOL0     C33310   1.780   3.180   6.623  0.2457  0.2732 -0.3039
  967MOL0     O33311   1.813   3.131   6.746 -0.1497 -0.8008 -0.2632
  967MOL0     C33312   1.929   3.179   6.797 -0.6527 -0.2340  0.7204
  967MOL0     C33313   1.950   3.311   6.844 -0.4553  0.3456 -0.5663
  967MOL0     C33314   2.072   3.347   6.904 -0.3119  0.1721  0.4016
  967MOL0     C33315   2.173   3.255   6.922  0.6515 -0.7366  0.8233
  967MOL0     O33316   2.291   3.297   6.983 -0.0877 -1.5099 -0.3220
  967MOL0     C33317   2.379   3.210   7.052  0.0118  0.2563  0.8916
  967MOL0     C33318   2.489   3.296   7.113  0.9350 -0.9247  0.0312
  967MOL0     C33319   2.432   3.389   7.228  0.2805 -0.0946  0.6300
  967MOL0     C33320   2.543   3.449   7.299 -0.2166 -0.1497 -0.1760
  967MOL0     C33321   2.500   3.555   7.399  1.4497 -0.3983 -1.8879
  967MOL0     C33322   2.625   3.636   7.453  0.5640 -0.1007  0.3122
  967MOL0     C33323   2.722   3.545   7.522  0.2239  0.4171  0.0058
  967MOL0     C33324   2.856   3.611   7.564 -0.4169  0.1761  0.4948
  967MOL0     N33325   2.942   3.627   7.442 -0.1479 -0.5925 -0.3803
  967MOL0     C33326   2.934   3.703   7.333  0.4870  0.2820  0.4643
  967MOL0     C33327   3.031   3.647   7.247  1.1586 -0.7907  0.3203
  967MOL0     C33328   3.073   3.695   7.108 -0.3150 -0.0265 -0.2355
  967MOL0     C33329   3.195   3.783   7.130  0.1761  0.1978 -0.1788
  967MOL0     C33330   3.265   3.809   6.994  0.3978 -0.5535  0.1220
  967MOL0     C33331   3.396   3.872   7.027 -0.3966  0.1973 -0.0157
  967MOL0     O33332   3.382   4.006   7.075  0.3066  0.9032  0.4561
  967MOL0     C33333   3.494   4.072   7.114 -0.4037  0.6995 -0.1650
  967MOL0     C33334   3.486   4.207   7.132  0.7725  0.7718  0.6163
  967MOL0     C33335   3.591   4.282   7.179 -0.2278 -0.4212 -0.2657
  967MOL0     C33336   3.576   4.427   7.182  0.4648  0.4673 -0.2308
  967MOL0     C33337   3.715   4.223   7.213 -0.1777  0.6729  0.0339
  967MOL0     C33338   3.843   4.304   7.255  0.5482 -1.2500  0.7387
  967MOL0     O33339   3.958   4.236   7.259  0.4103  0.2793  0.0080
  967MOL0     C33340   4.073   4.302   7.255  0.3263  0.3157 -0.6601
  967MOL0     C33341   4.120   4.365   7.139 -0.3113 -0.3437  0.1185
  967MOL0     C33342   4.241   4.434   7.141  0.4216 -0.0822 -0.5519
  967MOL0     C33343   4.318   4.439   7.258  0.0282 -0.9577 -0.2671
  967MOL0     O33344   4.438   4.512   7.245  0.4247  0.8278 -0.1161
  967MOL0     C33345   4.508   4.538   7.365 -0.0477 -0.0951 -0.6024
  967MOL0     C33346   4.648   4.586   7.325  0.1805  0.5777 -0.6670
  967MOL0     C33347   4.742   4.458   7.310  0.6161  0.3600  0.2554
  967MOL0     C33348   4.877   4.502   7.262 -0.3177  0.4697 -0.1687
  967MOL0     C33349   4.974   4.374   7.263 -0.0975 -0.9145  0.6260
  967MOL0     C33350   5.115   4.407   7.200  0.1811  0.5855  0.5853
  967MOL0     C33351   5.183   4.268   7.183  0.8553  0.4106  0.5351
  967MOL0     C33352   5.323   4.275   7.129  0.3322  0.2541  0.2450
  967MOL0    Cl33353   5.320   4.287   6.950 -0.1454  0.0690  0.2650
  967MOL0     C33354   4.274   4.367   7.377 -0.7331  0.1652  0.4883
  967MOL0     C33355   4.152   4.293   7.368  0.4814  0.3649 -0.2701
  967MOL0     O33356   3.832   4.421   7.291  0.2383 -0.3549  0.7866
  967MOL0     C33357   3.730   4.080   7.191 -0.0245  0.2743 -0.8487
  967MOL0     C33358   3.621   4.008   7.139 -0.1564  0.0519  0.7672
  967MOL0     N33359   3.085   3.544   7.310 -0.2203  0.0834  0.3170
  967MOL0     N33360   3.038   3.535   7.425 -0.0424 -1.6749 -1.3010
  967MOL0     C33361   2.151   3.125   6.877 -0.1107 -0.1184  0.3561
  967MOL0     C33362   2.035   3.090   6.815  0.4088  0.1697 -0.0666
  967MOL0     C33363   1.668   3.115   6.557 -0.0430  0.4630  0.2871
  967MOL0     C33364   1.680   3.107   6.416  0.1163  0.7145 -1.3075
  967MOL0     C33365   1.575   3.057   6.342  1.6141 -0.4253  0.3262
  967MOL0     C33366   1.460   3.014   6.402  0.3514  0.0564  0.9296
  967MOL0     O33367   1.352   2.953   6.335  0.5009 -0.5432 -0.5620
  967MOL0     C33368   1.332   2.958   6.191  0.1341 -0.1422  0.4687
  967MOL0     C33369   1.194   3.019   6.151 -0.8412 -1.0581 -0.0546
  967MOL0     C33370   1.078   2.937   6.202  0.4043  0.1754  0.2129
  967MOL0     C33371   0.947   2.973   6.136  0.4073 -0.3342  0.2749
  967MOL0     C33372   0.948   2.940   5.994  0.4403  0.8889 -0.3246
  967MOL0     C33373   0.958   2.888   5.882  0.7224  0.4450 -0.3687
  967MOL0     C33374   1.451   3.030   6.536  1.0335  0.7826 -0.5239
  967MOL0     C33375   1.552   3.073   6.618  0.0575  0.3846  0.2594
  967MOL0     C33376   1.530   3.058   6.762  1.0208 -0.5282  0.5824
  967MOL0     H33377   1.871   3.386   6.839 -0.5690  0.3877  1.2414
  967MOL0     H33378   2.087   3.445   6.947  1.3985  1.0490 -1.9884
  967MOL0     H33379   2.435   3.145   6.983  1.0473 -1.0868  2.9010
  967MOL0     H33380   2.336   3.154   7.136 -0.7413  3.2139  2.6069
  967MOL0     H33381   2.567   3.235   7.160  1.8080 -0.6744 -1.0414
  967MOL0     H33382   2.533   3.352   7.030 -0.2367 -0.2287 -0.1351
  967MOL0     H33383   2.380   3.469   7.175  2.9246  1.6486  0.4883
  967MOL0     H33384   2.356   3.343   7.292 -1.1159  0.9909 -0.1685
  967MOL0     H33385   2.592   3.370   7.357  0.5618 -0.4833 -1.2692
  967MOL0     H33386   2.611   3.495   7.227 -2.4265  0.7575 -1.8263
  967MOL0     H33387   2.444   3.509   7.481  2.6860 -0.4677 -1.0501
  967MOL0     H33388   2.433   3.627   7.351  0.2853 -0.1759 -0.0379
  967MOL0     H33389   2.663   3.685   7.362  1.4902  1.2549  1.3816
  967MOL0     H33390   2.595   3.711   7.527 -0.0900  1.6162 -1.6088
  967MOL0     H33391   2.755   3.468   7.452 -0.2193  1.7096 -1.7222
  967MOL0     H33392   2.681   3.501   7.613  3.3219  2.6611  2.7316
  967MOL0     H33393   2.835   3.711   7.601 -3.3909  0.7527 -2.2134
  967MOL0     H33394   2.906   3.552   7.641  0.0970 -0.1609 -0.0924
  967MOL0     H33395   2.867   3.788   7.325  0.5982  0.4410  1.1807
  967MOL0     H33396   2.996   3.740   7.044 -0.1794 -2.2618 -2.1172
  967MOL0     H33397   3.111   3.607   7.055 -1.0242  0.3648 -1.4474
  967MOL0     H33398   3.163   3.879   7.171  0.0131 -0.8627  2.4221
  967MOL0     H33399   3.264   3.736   7.202  1.1629 -0.1711 -1.3352
  967MOL0     H33400   3.270   3.723   6.927 -2.2677 -0.4063 -0.3695
  967MOL0     H33401   3.205   3.885   6.942  0.9533  1.2920  2.0548
  967MOL0     H33402   3.449   3.815   7.104  2.2725  0.2381 -1.6800
  967MOL0     H33403   3.464   3.862   6.942  1.2170 -1.2391  1.3722
  967MOL0     H33404   3.394   4.248   7.091  1.5996 -1.6088 -4.2445
  967MOL0     H33405   3.482   4.466   7.141 -0.7556 -1.9136  0.1143
  967MOL0     H33406   3.653   4.475   7.120 -0.2970 -3.7541 -5.1778
  967MOL0     H33407   3.580   4.457   7.287  1.1443 -0.0353 -0.1045
  967MOL0     H33408   4.068   4.380   7.045  2.9846  1.6287 -1.6009
  967MOL0     H33409   4.280   4.484   7.053 -2.1639 -0.7499 -2.1909
  967MOL0     H33410   4.466   4.611   7.435 -1.6006 -0.3046 -1.2823
  967MOL0     H33411   4.519   4.448   7.427 -1.4765  0.6653  0.8314
  967MOL0     H33412   4.645   4.645   7.233  1.0810 -0.0323 -1.1020
  967MOL0     H33413   4.686   4.647   7.408  0.8025 -3.3589  2.2441
  967MOL0     H33414   4.702   4.396   7.229  3.7496 -2.1678  0.4128
  967MOL0     H33415   4.762   4.406   7.405 -1.7075  0.9353  1.1281
  967MOL0     H33416   4.915   4.569   7.339 -1.3278 -2.0007  2.6781
  967MOL0     H33417   4.870   4.546   7.162  3.5609  0.7496 -0.5046
  967MOL0     H33418   4.981   4.336   7.365 -3.1941 -3.6963 -0.0224
  967MOL0     H33419   4.936   4.298   7.193  1.8031  1.8808 -3.9047
  967MOL0     H33420   5.180   4.470   7.261 -0.6593  3.7784 -1.5972
  967MOL0     H33421   5.109   4.456   7.103 -0.5217  0.2122  0.4318
  967MOL0     H33422   5.118   4.209   7.119  1.6152 -0.7406  0.7862
  967MOL0     H33423   5.182   4.214   7.278  0.2653  0.3961  0.5190
  967MOL0     H33424   5.388   4.193   7.163 -0.5170 -1.2098 -1.4975
  967MOL0     H33425   5.376   4.358   7.176 -1.7494 -0.7324  4.9457
  967MOL0     H33426   4.323   4.366   7.473 -1.1137 -2.0072  0.6983
  967MOL0     H33427   4.119   4.231   7.451  1.2764  1.2074  0.6926
  967MOL0     H33428   3.830   4.040   7.202 -0.4665 -0.7243 -0.3365
  967MOL0     H33429   3.631   3.904   7.108  0.3059 -0.1405  1.5434
  967MOL0     H33430   2.228   3.049   6.884 -0.9598 -0.9938  0.4416
  967MOL0     H33431   2.027   2.987   6.780 -0.6830  0.5322 -0.9480
  967MOL0     H33432   1.771   3.129   6.359  1.4740 -1.2295 -0.0163
  967MOL0     H33433   1.589   3.049   6.235  0.1006 -1.4769  0.1839
  967MOL0     H33434   1.408   3.017   6.139 -1.4347  1.1226 -0.4785
  967MOL0     H33435   1.327   2.859   6.145  2.1128  0.1383 -0.4356
  967MOL0     H33436   1.194   3.042   6.044 -0.8618  4.9290  0.9091
  967MOL0     H33437   1.187   3.119   6.195 -2.1344 -1.7065  1.3000
  967MOL0     H33438   1.098   2.829   6.198  0.9760  0.3162 -1.7606
  967MOL0     H33439   1.057   2.966   6.305  0.0790  0.6194  0.0236
  967MOL0     H33440   0.942   3.082   6.146  2.8344 -0.0408 -0.9514
  967MOL0     H33441   0.867   2.922   6.190 -0.5172 -2.1151 -2.5126
  967MOL0     H33442   0.966   2.848   5.783 -2.3862  2.4058 -1.5470
  967MOL0     H33443   1.361   3.008   6.592  1.7218  1.5084  0.9229
  967MOL0     H33444   1.530   3.157   6.809 -0.0103 -0.6709  0.9148
  967MOL0     H33445   1.428   3.022   6.775 -1.1690  3.0656 -3.7635
  967MOL0     H33446   1.593   2.984   6.813  1.2872 -0.1138  0.8664
  968MOL0     O33447  10.480   7.936   5.438  0.1718  0.6315 -0.5570
  968MOL0     C33448  10.477   7.963   5.325 -0.1975 -0.5793  0.2810
  968MOL0     O33449  10.588   8.005   5.256 -0.5638  1.0492  0.6219
  968MOL0     C33450  10.704   8.018   5.320  0.1773 -0.4049  0.5675
  968MOL0     C33451  10.818   7.934   5.304  0.7143 -0.9486  0.4099
  968MOL0     C33452  10.939   7.962   5.364  0.5907  0.1328 -0.6479
  968MOL0     C33453  10.956   8.073   5.442 -0.6701 -0.2216 -0.1050
  968MOL0     O33454  11.075   8.101   5.513 -0.1728 -0.3230 -0.0509
  968MOL0     C33455  11.203   8.054   5.485 -0.1712  0.6978  0.0724
  968MOL0     C33456  11.301   8.172   5.529  0.3155 -0.3280  0.3430
  968MOL0     C33457  11.439   8.131   5.476  0.4205  0.2361 -0.1401
  968MOL0     C33458  11.521   8.261   5.445 -0.6153 -0.9235 -0.4645
  968MOL0     C33459  11.661   8.233   5.398  0.5476  0.6659 -1.1249
  968MOL0     C33460  11.754   8.160   5.495 -0.6419  0.8250 -1.0067
  968MOL0     C33461  11.869   8.083   5.418 -0.8618 -0.3102 -0.6885
  968MOL0     C33462  11.959   7.988   5.506 -0.1553 -0.0383 -0.0435
  968MOL0     N33463  12.084   7.952   5.436 -0.7873  1.1453  0.6195
  968MOL0     C33464  12.188   8.037   5.388  0.9720 -0.0556  0.4135
  968MOL0     C33465  12.269   7.953   5.321  0.3434  0.9096  0.6284
  968MOL0     C33466  12.412   7.971   5.264  0.7037 -0.6446  0.0744
  968MOL0     C33467  12.412   8.091   5.161 -0.7427 -0.3153  1.0276
  968MOL0     C33468  12.471   8.214   5.225 -0.4352 -0.5272 -0.1684
  968MOL0     C33469  12.486   8.324   5.123 -0.7433  0.4235  0.4720
  968MOL0     O33470  12.518   8.445   5.189 -0.9836  0.4010  0.8563
  968MOL0     C33471  12.636   8.461   5.242 -1.1382 -0.1350 -0.5271
  968MOL0     C33472  12.650   8.553   5.344  0.0112 -0.6089  0.2550
  968MOL0     C33473  12.774   8.580   5.404  0.4703 -1.0598  0.4977
  968MOL0     C33474  12.767   8.666   5.532  0.4554 -0.5036  0.0368
  968MOL0     C33475  12.899   8.535   5.350 -0.1350 -0.8068 -0.2462
  968MOL0     C33476  13.035   8.582   5.387  0.1959 -1.3256 -1.2852
  968MOL0     O33477  13.140   8.549   5.311 -0.4946  0.4788  0.3112
  968MOL0     C33478  13.271   8.555   5.353 -0.8754  0.4826 -0.9376
  968MOL0     C33479  13.364   8.500   5.258  0.2417  0.3797  0.7240
  968MOL0     C33480  13.509   8.485   5.285  1.1349 -0.8156  0.4753
  968MOL0     C33481  13.546   8.521   5.416  0.4086  0.8015 -0.0794
  968MOL0     O33482  13.676   8.489   5.450 -0.3257 -0.1124  0.1623
  968MOL0     C33483  13.783   8.501   5.355  0.1640 -0.3275  0.3108
  968MOL0     C33484  13.926   8.512   5.419  0.0685 -0.1806  0.1238
  968MOL0     C33485  13.993   8.397   5.501  0.2641  0.0914 -0.1821
  968MOL0     C33486  14.125   8.447   5.576 -0.0415  0.5291  0.3735
  968MOL0     C33487  14.160   8.343   5.683  0.4147 -1.0109 -0.5516
  968MOL0     C33488  14.291   8.379   5.751  0.4445 -0.3138  0.0443
  968MOL0     C33489  14.316   8.291   5.867 -0.7261 -0.2280 -0.5258
  968MOL0     C33490  14.447   8.339   5.935 -0.0129 -0.1415 -0.1503
  968MOL0    Cl33491  14.588   8.321   5.830 -0.1955  0.4424 -0.2717
  968MOL0     C33492  13.463   8.575   5.512  0.3465 -0.0153  0.2808
  968MOL0     C33493  13.325   8.599   5.474  0.6307  0.3379 -0.2565
  968MOL0     O33494  13.035   8.670   5.478 -0.5266  0.5543  0.0675
  968MOL0     C33495  12.886   8.456   5.231  0.5930  0.1103 -0.1194
  968MOL0     C33496  12.758   8.410   5.186 -0.6187  0.2677 -1.1015
  968MOL0     N33497  12.212   7.830   5.315  0.7287  0.3705  0.1003
  968MOL0     N33498  12.103   7.827   5.383  0.6322  0.0667  0.2908
  968MOL0     C33499  10.852   8.164   5.461  0.5705 -0.4535  0.5738
  968MOL0     C33500  10.729   8.142   5.404  0.0213 -0.3516  0.3140
  968MOL0     C33501  10.345   7.966   5.258  0.4421 -0.6120 -0.4419
  968MOL0     C33502  10.343   7.915   5.124 -0.0157  0.1824  0.6229
  968MOL0     C33503  10.223   7.910   5.048 -0.9567 -0.3521  0.1864
  968MOL0     C33504  10.107   7.960   5.104 -0.1618  0.1763  0.3134
  968MOL0     O33505  10.005   7.940   5.021 -1.0005 -0.5643  0.3303
  968MOL0     C33506   9.871   7.971   5.055 -0.1395 -0.5460 -0.9315
  968MOL0     C33507   9.791   7.907   4.945 -0.0523  0.1112 -0.7326
  968MOL0     C33508   9.646   7.954   4.974  0.2233  0.5128 -0.5174
  968MOL0     C33509   9.556   7.873   4.888  0.3700 -0.5902  0.3783
  968MOL0     C33510   9.553   7.915   4.744 -0.0430 -0.2576 -0.4567
  968MOL0     C33511   9.548   7.968   4.636  0.3457 -0.3101  0.1492
  968MOL0     C33512  10.114   8.011   5.231  0.4653  0.2952 -0.2072
  968MOL0     C33513  10.223   8.013   5.313  0.2813 -0.6879  0.0692
  968MOL0     C33514  10.215   8.075   5.448  0.0000 -0.3926  0.4715
  968MOL0     H33515  10.812   7.850   5.235 -0.4198  1.2575 -2.3357
  968MOL0     H33516  11.032   7.905   5.357 -0.1092 -1.2764  0.7650
  968MOL0     H33517  11.214   8.040   5.377 -0.8572  0.9887 -0.0445
  968MOL0     H33518  11.217   7.954   5.526  0.3709 -0.9869 -3.7821
  968MOL0     H33519  11.281   8.273   5.492  0.8637  0.5443  2.2991
  968MOL0     H33520  11.294   8.183   5.637 -1.3213  0.0936  0.2120
  968MOL0     H33521  11.487   8.075   5.557 -1.3390  1.1600  1.6131
  968MOL0     H33522  11.432   8.069   5.386  0.3232  2.5004 -1.7820
  968MOL0     H33523  11.481   8.325   5.366 -0.8952 -0.2317  0.2260
  968MOL0     H33524  11.548   8.311   5.539  2.9136 -2.1686 -0.6801
  968MOL0     H33525  11.707   8.330   5.380 -1.2430  1.3873 -2.0963
  968MOL0     H33526  11.665   8.174   5.306 -0.9344 -1.8496  0.2958
  968MOL0     H33527  11.801   8.232   5.563 -1.1543  1.4118 -1.2677
  968MOL0     H33528  11.708   8.090   5.565  1.2192  0.1830 -0.3464
  968MOL0     H33529  11.939   8.163   5.392 -1.6212  0.2306 -1.1045
  968MOL0     H33530  11.833   8.027   5.331 -2.3342 -1.0393  0.3581
  968MOL0     H33531  11.979   8.037   5.601 -1.6785 -1.8020  1.2651
  968MOL0     H33532  11.901   7.896   5.512 -2.0442  1.0874 -0.2699
  968MOL0     H33533  12.211   8.142   5.403  1.8935 -0.5437  3.0082
  968MOL0     H33534  12.440   7.877   5.216  0.0370 -2.6595  3.3500
  968MOL0     H33535  12.477   7.982   5.351  0.6156  1.6310 -0.0680
  968MOL0     H33536  12.469   8.075   5.069 -2.6805  2.2447 -0.7756
  968MOL0     H33537  12.309   8.113   5.131 -0.8210  0.7378  1.9961
  968MOL0     H33538  12.400   8.250   5.300  0.6158  0.1468  0.5383
  968MOL0     H33539  12.563   8.204   5.284 -1.7849  2.0039  2.6341
  968MOL0     H33540  12.560   8.300   5.046 -0.8864  1.5208 -0.0154
  968MOL0     H33541  12.392   8.334   5.068 -0.6440 -2.6940 -0.4438
  968MOL0     H33542  12.561   8.595   5.389  0.8366  2.0720 -0.4305
  968MOL0     H33543  12.801   8.613   5.622 -1.1253 -3.1519 -0.8014
  968MOL0     H33544  12.664   8.689   5.560  1.9416  2.0224  4.3857
  968MOL0     H33545  12.815   8.764   5.532  1.2471 -0.8775 -0.0363
  968MOL0     H33546  13.335   8.455   5.164  2.5254 -2.2101  1.1161
  968MOL0     H33547  13.574   8.448   5.207 -2.8393 -1.3381 -2.9811
  968MOL0     H33548  13.779   8.400   5.313  1.3369 -1.6618  3.0760
  968MOL0     H33549  13.766   8.588   5.292 -0.5020  0.8713  2.0557
  968MOL0     H33550  14.000   8.532   5.340  1.4992 -1.6098  1.0354
  968MOL0     H33551  13.929   8.600   5.484 -0.3473  1.1790 -1.6187
  968MOL0     H33552  14.015   8.309   5.440  1.4934  1.3233 -1.6153
  968MOL0     H33553  13.924   8.357   5.576  2.2593  1.9706  2.8962
  968MOL0     H33554  14.092   8.538   5.626 -0.2552  0.4552  0.3701
  968MOL0     H33555  14.200   8.465   5.499  0.0004  3.0163  0.9142
  968MOL0     H33556  14.074   8.337   5.751  1.0484  1.8771  0.6549
  968MOL0     H33557  14.171   8.246   5.634 -1.6735 -0.5470 -2.1120
  968MOL0     H33558  14.284   8.477   5.799 -1.7152 -1.1163  1.5213
  968MOL0     H33559  14.368   8.370   5.673  1.9638  2.0456  1.1530
  968MOL0     H33560  14.334   8.188   5.833  0.4302 -0.9933  2.1027
  968MOL0     H33561  14.236   8.313   5.938 -2.0803  0.5925 -2.2259
  968MOL0     H33562  14.463   8.279   6.025 -2.2130  0.2504  0.5538
  968MOL0     H33563  14.443   8.443   5.968  0.6067 -0.1025 -0.1762
  968MOL0     H33564  13.493   8.583   5.616  0.5402  1.3847  0.1332
  968MOL0     H33565  13.256   8.651   5.540  1.3385  1.3200 -0.2889
  968MOL0     H33566  12.979   8.428   5.183  0.9712  0.4088  0.4341
  968MOL0     H33567  12.753   8.343   5.100 -1.0169  2.0712 -2.5532
  968MOL0     H33568  10.864   8.248   5.529  0.5655  0.6084 -0.7026
  968MOL0     H33569  10.647   8.210   5.425 -0.5590 -0.9436 -0.0010
  968MOL0     H33570  10.433   7.891   5.068  0.1358 -2.5829  1.8944
  968MOL0     H33571  10.227   7.873   4.946 -0.8177  0.0724  0.0358
  968MOL0     H33572   9.841   7.926   5.151  1.7080 -1.6294 -0.8238
  968MOL0     H33573   9.859   8.080   5.063  0.4596 -0.3169 -2.7586
  968MOL0     H33574   9.802   7.799   4.952  0.8565  0.2719  0.7472
  968MOL0     H33575   9.828   7.949   4.851 -1.2421 -0.0173 -1.2780
  968MOL0     H33576   9.625   7.933   5.079  0.5322 -0.7918 -0.7069
  968MOL0     H33577   9.628   8.061   4.955  0.3675  0.4611 -0.9449
  968MOL0     H33578   9.460   7.885   4.940  1.6052 -1.1872  2.9933
  968MOL0     H33579   9.581   7.767   4.889  0.5843 -0.5480 -0.3285
  968MOL0     H33580   9.544   8.021   4.543  1.1096 -1.4357 -0.5533
  968MOL0     H33581  10.024   8.056   5.272  0.2316 -0.2597 -0.1039
  968MOL0     H33582  10.130   8.143   5.457  0.3445  0.2138 -0.6446
  968MOL0     H33583  10.215   7.994   5.522  1.8051 -0.1023  0.8475
  968MOL0     H33584  10.299   8.144   5.463  0.0596 -0.5944  1.0884
  969MOL0     O33585   2.381  10.991   0.217 -0.0437 -0.5204 -0.7403
  969MOL0     C33586   2.395  11.083   0.298 -0.1033  0.5315  0.2298
  969MOL0     O33587   2.513  11.109   0.366 -0.4431 -0.6171 -0.0569
  969MOL0     C33588   2.628  11.075   0.308 -0.8284  0.7743 -1.3066
  969MOL0     C33589   2.720  11.165   0.269  0.4515 -0.0731  0.3105
  969MOL0     C33590   2.839  11.128   0.211  0.1668  0.3366 -0.5990
  969MOL0     C33591   2.875  11.000   0.199  0.0473  0.7538 -0.4022
  969MOL0     O33592   3.006  10.967   0.173  0.5419 -0.4041  0.4665
  969MOL0     C33593   3.076  10.920   0.290  0.1571 -0.9831  0.9069
  969MOL0     C33594   3.215  10.864   0.249  0.4141  0.2056 -0.2416
  969MOL0     C33595   3.305  10.963   0.191 -0.4757  0.0606  0.0978
  969MOL0     C33596   3.448  10.908   0.216 -0.7255  1.2301  0.9616
  969MOL0     C33597   3.548  10.998   0.138 -0.1621 -0.4903 -0.1719
  969MOL0     C33598   3.579  11.143   0.198 -0.7816 -0.5167  0.6165
  969MOL0     C33599   3.691  11.220   0.124  0.5729  0.0172 -0.2909
  969MOL0     C33600   3.708  11.355   0.189 -0.1330 -0.4413 -1.0184
  969MOL0     N33601   3.606  11.452   0.157 -0.0089 -0.4644 -0.4364
  969MOL0     C33602   3.592  11.520   0.035 -0.8893 -0.0504 -1.0054
  969MOL0     C33603   3.519  11.629   0.063 -0.3585  0.3309 -0.9493
  969MOL0     C33604   3.479  11.722  -0.044  0.2298 -0.1111  0.3015
  969MOL0     C33605   3.546  11.855  -0.043 -0.3366 -0.0415 -0.4530
  969MOL0     C33606   3.494  11.951  -0.151 -0.6924 -0.0292 -0.0601
  969MOL0     C33607   3.523  12.098  -0.134  0.3120  0.3255 -0.2368
  969MOL0     O33608   3.657  12.134  -0.138  0.0162 -0.3877  0.1214
  969MOL0     C33609   3.745  12.136  -0.031 -0.1627  0.4965 -0.5891
  969MOL0     C33610   3.876  12.148  -0.065  0.3349 -0.3045 -0.3435
  969MOL0     C33611   3.980  12.135   0.027  0.0463 -0.7343 -1.2496
  969MOL0     C33612   4.126  12.159  -0.014  0.1400  0.7822  0.0672
  969MOL0     C33613   3.946  12.120   0.166  0.0644 -0.3748  1.2795
  969MOL0     C33614   4.048  12.114   0.272 -0.5843 -0.3734 -0.4630
  969MOL0     O33615   4.011  12.141   0.398 -0.3114 -0.2056 -0.3897
  969MOL0     C33616   4.103  12.132   0.495  0.5204  0.4801  0.7669
  969MOL0     C33617   4.175  12.018   0.522  0.1857 -0.2363  0.3550
  969MOL0     C33618   4.273  12.015   0.622  0.6830 -0.0411 -0.1257
  969MOL0     C33619   4.293  12.126   0.700  0.1590 -0.3799 -0.6745
  969MOL0     O33620   4.368  12.136   0.817  0.0598 -0.1555 -0.1338
  969MOL0     C33621   4.435  12.021   0.853 -0.6268  0.6485  0.5379
  969MOL0     C33622   4.512  12.035   0.990  0.3868 -0.5309  0.5292
  969MOL0     C33623   4.601  11.913   1.017 -0.0397 -0.1271  0.1782
  969MOL0     C33624   4.671  11.937   1.154 -0.3058 -0.7576  0.2330
  969MOL0     C33625   4.785  11.830   1.161 -0.1922  0.9569  0.4271
  969MOL0     C33626   4.845  11.817   1.305 -0.3990  0.1238 -0.5332
  969MOL0     C33627   4.922  11.690   1.313 -0.1079 -0.4710 -0.1355
  969MOL0     C33628   5.035  11.681   1.417  0.4875  0.3919  0.1765
  969MOL0    Cl33629   5.081  11.512   1.442  0.1643 -0.1849 -0.3126
  969MOL0     C33630   4.222  12.242   0.673 -0.9135 -0.4932 -0.4684
  969MOL0     C33631   4.131  12.246   0.567 -0.4816  0.0394  0.9957
  969MOL0     O33632   4.143  12.053   0.241  0.0127  0.2429 -0.0388
  969MOL0     C33633   3.809  12.112   0.202 -1.2135  0.4104 -0.3298
  969MOL0     C33634   3.711  12.111   0.099 -0.0778 -0.4550 -0.2701
  969MOL0     N33635   3.462  11.600   0.194  0.1881 -0.4910  0.0703
  969MOL0     N33636   3.501  11.492   0.248 -0.6374 -0.6892  0.1538
  969MOL0     C33637   2.782  10.893   0.241  0.6413 -0.3041 -0.5406
  969MOL0     C33638   2.666  10.936   0.300 -0.2385  0.3187 -0.4482
  969MOL0     C33639   2.266  11.145   0.345  0.5353  0.0225  0.0254
  969MOL0     C33640   2.267  11.223   0.461 -0.2502 -0.2479  0.4144
  969MOL0     C33641   2.163  11.271   0.529 -0.2069  0.5643  0.3847
  969MOL0     C33642   2.038  11.254   0.467 -0.2192 -0.5634  0.3904
  969MOL0     O33643   1.920  11.295   0.515 -0.0757 -0.0611 -0.8940
  969MOL0     C33644   1.923  11.378   0.632  0.2647  0.3700 -0.0831
  969MOL0     C33645   1.774  11.377   0.680  0.0764  0.6314 -0.2388
  969MOL0     C33646   1.764  11.462   0.807 -0.2142 -0.5028 -0.2835
  969MOL0     C33647   1.639  11.425   0.884 -0.3850 -0.6955  0.2294
  969MOL0     C33648   1.639  11.467   1.033 -0.2809  0.1149  0.4202
  969MOL0     C33649   1.657  11.518   1.146  0.8963 -0.2545  0.6961
  969MOL0     C33650   2.030  11.185   0.352 -0.1826 -0.8069 -0.0474
  969MOL0     C33651   2.137  11.129   0.285 -0.4122 -0.2049 -0.7665
  969MOL0     C33652   2.106  11.024   0.185 -0.0467 -0.9943  0.2710
  969MOL0     H33653   2.695  11.271   0.272  1.9130  0.2794  0.8575
  969MOL0     H33654   2.911  11.200   0.174 -1.9562  1.1972 -3.4208
  969MOL0     H33655   3.029  10.836   0.341 -2.1026  0.1837  0.8768
  969MOL0     H33656   3.088  10.993   0.371  2.3668 -3.6472  3.1695
  969MOL0     H33657   3.261  10.819   0.336 -3.1216  0.5702  2.0275
  969MOL0     H33658   3.203  10.782   0.178 -2.2935 -1.2059  1.6717
  969MOL0     H33659   3.285  10.968   0.084 -1.7745  1.7541  0.3836
  969MOL0     H33660   3.300  11.060   0.242  4.7465  1.1748 -0.9229
  969MOL0     H33661   3.481  10.907   0.320 -1.4089  1.8987  1.1919
  969MOL0     H33662   3.454  10.805   0.181  0.3908  1.5871 -0.0001
  969MOL0     H33663   3.502  11.016   0.040 -2.4230 -0.4211  0.8425
  969MOL0     H33664   3.633  10.929   0.143 -1.0062 -1.5058  0.5657
  969MOL0     H33665   3.494  11.211   0.203  1.2291  2.3299 -1.1889
  969MOL0     H33666   3.611  11.119   0.300 -2.2927 -1.3043  0.9371
  969MOL0     H33667   3.659  11.226   0.019  1.0064 -1.9161 -0.5670
  969MOL0     H33668   3.788  11.169   0.124  1.8026  2.1629 -2.2365
  969MOL0     H33669   3.738  11.361   0.294  2.8350  2.8700 -1.8384
  969MOL0     H33670   3.798  11.390   0.136 -0.6853 -1.5163 -2.7521
  969MOL0     H33671   3.631  11.491  -0.062  0.5586 -0.5211 -0.3033
  969MOL0     H33672   3.370  11.728  -0.039  0.0619  0.0372 -2.2080
  969MOL0     H33673   3.502  11.681  -0.142 -1.4838 -0.2043 -0.0987
  969MOL0     H33674   3.522  11.897   0.055 -2.1023 -1.5154 -0.1950
  969MOL0     H33675   3.653  11.840  -0.056 -0.0890  0.1275  1.1094
  969MOL0     H33676   3.519  11.918  -0.252  0.8443 -2.3202  0.9803
  969MOL0     H33677   3.386  11.930  -0.142 -0.1233 -3.9649 -0.3705
  969MOL0     H33678   3.469  12.155  -0.210 -0.3220  2.2561  1.5463
  969MOL0     H33679   3.478  12.134  -0.041  1.3076 -0.6145  0.6441
  969MOL0     H33680   3.899  12.159  -0.171  2.2934  1.9728  0.2255
  969MOL0     H33681   4.122  12.187  -0.120  3.2348 -1.3417 -0.7474
  969MOL0     H33682   4.182  12.068   0.006 -1.6283 -0.0689  1.4490
  969MOL0     H33683   4.170  12.250   0.029  1.1228  0.3035  0.1082
  969MOL0     H33684   4.171  11.937   0.449  1.9916 -0.1233  0.0866
  969MOL0     H33685   4.328  11.922   0.619  1.3424  0.3505 -0.9735
  969MOL0     H33686   4.369  11.934   0.858 -0.7672  0.6128 -1.2655
  969MOL0     H33687   4.511  11.991   0.779  1.0945  0.4302  2.2926
  969MOL0     H33688   4.567  12.130   0.992  0.1443 -0.3683 -0.2521
  969MOL0     H33689   4.438  12.031   1.071  2.2299 -0.5864  2.2802
  969MOL0     H33690   4.666  11.900   0.930 -0.4125  2.9793 -0.6840
  969MOL0     H33691   4.547  11.818   1.014  1.5724 -1.1472  1.6155
  969MOL0     H33692   4.597  11.931   1.235  0.2822 -2.4027  0.7012
  969MOL0     H33693   4.706  12.041   1.154 -3.0461  0.2524  1.3274
  969MOL0     H33694   4.744  11.732   1.136 -0.3902  1.2936 -0.5762
  969MOL0     H33695   4.866  11.838   1.089  1.2305 -3.5600  1.2062
  969MOL0     H33696   4.762  11.817   1.377  0.9547 -1.5697  1.1444
  969MOL0     H33697   4.911  11.902   1.327 -1.1780  0.6950 -0.3567
  969MOL0     H33698   4.969  11.652   1.222  0.3921  0.2951 -0.2098
  969MOL0     H33699   4.836  11.625   1.334 -1.1197  0.9484  0.3097
  969MOL0     H33700   5.001  11.725   1.510  0.6807 -0.0832  0.4768
  969MOL0     H33701   5.121  11.730   1.369  0.7523 -2.2502 -2.3717
  969MOL0     H33702   4.234  12.324   0.743  1.2675 -0.9620 -0.2231
  969MOL0     H33703   4.090  12.342   0.538  1.2622 -0.0223 -2.1369
  969MOL0     H33704   3.781  12.081   0.302  1.1666 -0.2965  0.1797
  969MOL0     H33705   3.609  12.087   0.129  1.7340 -3.6915  4.5099
  969MOL0     H33706   2.800  10.786   0.245 -1.7472 -0.7170  2.0590
  969MOL0     H33707   2.612  10.856   0.349 -0.8907  1.4233  0.6690
  969MOL0     H33708   2.366  11.235   0.505  0.3093 -3.2137  0.1903
  969MOL0     H33709   2.185  11.332   0.616 -1.5557  0.9457  0.4686
  969MOL0     H33710   1.990  11.332   0.706  1.2822  2.9336  0.7183
  969MOL0     H33711   1.958  11.481   0.624 -0.9868  1.1132  2.7507
  969MOL0     H33712   1.760  11.271   0.707  1.5849  0.4964  0.0899
  969MOL0     H33713   1.708  11.393   0.593  1.9281  1.3029 -1.5785
  969MOL0     H33714   1.850  11.429   0.867 -0.4465  0.1876  0.4474
  969MOL0     H33715   1.762  11.569   0.784 -0.6878  0.2453  2.7882
  969MOL0     H33716   1.620  11.317   0.879 -0.7695 -0.6187 -0.0682
  969MOL0     H33717   1.560  11.475   0.828  2.0375  0.4245 -2.3972
  969MOL0     H33718   1.669  11.553   1.247 -1.8888  3.0212  0.0655
  969MOL0     H33719   1.933  11.183   0.303 -1.3649  1.5842  1.9397
  969MOL0     H33720   2.009  11.043   0.139 -0.5450 -2.2578  0.7259
  969MOL0     H33721   2.183  11.007   0.109  0.7214 -0.9134  1.0195
  969MOL0     H33722   2.097  10.927   0.236  1.2245  0.0875  2.7332
  970MOL0     O33723   4.832   7.000   0.422  0.7096  0.0422  0.3424
  970MOL0     C33724   4.785   7.098   0.364 -0.0689  0.5311 -0.9474
  970MOL0     O33725   4.825   7.229   0.380 -0.1900  0.4213 -0.3132
  970MOL0     C33726   4.950   7.253   0.437 -0.1623 -0.4628  0.0909
  970MOL0     C33727   4.957   7.370   0.509  0.7470 -0.6802  0.5369
  970MOL0     C33728   5.069   7.424   0.565  0.1380 -0.1599 -0.3143
  970MOL0     C33729   5.187   7.354   0.541 -0.5971  0.0137  0.6710
  970MOL0     O33730   5.304   7.405   0.579  0.1860  0.2527 -0.2782
  970MOL0     C33731   5.322   7.427   0.726 -0.1493  0.2405 -0.4333
  970MOL0     C33732   5.465   7.445   0.750 -0.1713 -0.9055  0.4228
  970MOL0     C33733   5.509   7.481   0.894 -1.0840  0.2581 -0.2323
  970MOL0     C33734   5.655   7.536   0.903  0.8288 -0.0479 -0.4613
  970MOL0     C33735   5.680   7.600   1.041 -0.1722  0.0822 -0.1020
  970MOL0     C33736   5.830   7.649   1.041  0.0663 -0.5219  0.4776
  970MOL0     C33737   5.857   7.732   1.166  0.9958 -0.4515  0.1216
  970MOL0     C33738   6.007   7.764   1.184 -0.2495  0.6796  0.0580
  970MOL0     N33739   6.039   7.881   1.110  0.5890  0.1377 -0.3774
  970MOL0     C33740   6.137   7.900   1.018  0.3405  0.9664  0.1357
  970MOL0     C33741   6.147   8.027   0.991 -0.3694  0.4525 -0.4874
  970MOL0     C33742   6.251   8.098   0.911 -0.3334  0.3735 -0.1820
  970MOL0     C33743   6.379   8.103   0.999  0.3536 -0.3673 -0.6257
  970MOL0     C33744   6.489   8.150   0.912  0.0607 -0.3264 -0.4677
  970MOL0     C33745   6.586   8.225   1.008 -0.3417 -0.2734 -0.0747
  970MOL0     O33746   6.651   8.124   1.093  0.3604 -0.2960  0.1250
  970MOL0     C33747   6.777   8.162   1.148 -0.2672 -0.9674 -0.5105
  970MOL0     C33748   6.847   8.063   1.226 -0.0027  0.2487  0.1427
  970MOL0     C33749   6.963   8.084   1.296 -0.0139  0.0934 -0.1743
  970MOL0     C33750   7.022   7.957   1.370 -0.0520 -0.0222 -0.0099
  970MOL0     C33751   7.025   8.211   1.297  0.3030 -0.1310  0.7711
  970MOL0     C33752   7.150   8.243   1.376 -0.2129  0.1855 -0.2551
  970MOL0     O33753   7.213   8.149   1.450  0.1262  0.0860 -0.5607
  970MOL0     C33754   7.347   8.150   1.441  0.5039  0.8987  0.1650
  970MOL0     C33755   7.402   8.112   1.314 -0.0458  0.2297  0.3832
  970MOL0     C33756   7.538   8.086   1.292  0.9829 -0.5147  0.0511
  970MOL0     C33757   7.623   8.102   1.397  0.5633 -0.4568 -0.2099
  970MOL0     O33758   7.755   8.085   1.384 -0.2484 -0.0215 -0.0558
  970MOL0     C33759   7.831   8.043   1.499 -0.1438  0.2265 -0.1814
  970MOL0     C33760   7.966   7.994   1.453 -0.3668  0.0056  0.5850
  970MOL0     C33761   8.039   7.920   1.564  0.4563  0.8056 -0.4898
  970MOL0     C33762   8.171   7.852   1.508 -0.1910 -0.0638 -0.5327
  970MOL0     C33763   8.273   7.953   1.459 -0.1626  0.3033  0.0546
  970MOL0     C33764   8.403   7.882   1.414  0.1029  0.6619 -0.8322
  970MOL0     C33765   8.482   7.979   1.323  0.7206  0.1723 -0.8549
  970MOL0     C33766   8.598   7.898   1.256  0.6328 -0.3409  0.0276
  970MOL0    Cl33767   8.533   7.781   1.146  0.4991  0.1275  0.1793
  970MOL0     C33768   7.570   8.147   1.523 -0.5842 -0.4070  0.2538
  970MOL0     C33769   7.435   8.170   1.546  0.3245 -0.4461  0.1972
  970MOL0     O33770   7.195   8.351   1.339 -0.0605  0.1799 -0.2865
  970MOL0     C33771   6.968   8.307   1.211  0.0265  0.5647 -0.1865
  970MOL0     C33772   6.843   8.285   1.148 -0.0546 -0.0830  0.5977
  970MOL0     N33773   6.045   8.092   1.057 -0.4654 -0.2482  0.0543
  970MOL0     N33774   5.992   8.007   1.134 -0.3178  0.3190 -1.4534
  970MOL0     C33775   5.189   7.227   0.462 -0.2393 -0.6557 -0.1208
  970MOL0     C33776   5.070   7.185   0.411  0.1256  0.6548 -0.1222
  970MOL0     C33777   4.675   7.077   0.272  0.3281 -0.1155  0.4763
  970MOL0     C33778   4.628   6.953   0.254  0.0976  0.0951  0.2428
  970MOL0     C33779   4.525   6.915   0.165  0.2913 -0.0229  1.1180
  970MOL0     C33780   4.477   7.005   0.072  0.5224 -1.0053 -0.0767
  970MOL0     O33781   4.387   6.979  -0.030 -0.5918  0.1149  0.4300
  970MOL0     C33782   4.321   6.854  -0.024  0.3163 -0.8713  0.4491
  970MOL0     C33783   4.228   6.841  -0.152  0.2228  0.4652 -0.6054
  970MOL0     C33784   4.163   6.706  -0.163  0.4472 -0.0723  0.3864
  970MOL0     C33785   4.050   6.724  -0.261 -0.3899  0.5258  0.4763
  970MOL0     C33786   3.948   6.623  -0.246  0.8816 -0.1946  0.8799
  970MOL0     C33787   3.863   6.532  -0.237 -1.1248  0.1535  0.4746
  970MOL0     C33788   4.535   7.135   0.082  0.2672 -0.8014  0.5618
  970MOL0     C33789   4.624   7.179   0.182 -0.2769 -0.1412  0.7079
  970MOL0     C33790   4.669   7.325   0.165 -1.2117  1.0091 -0.1871
  970MOL0     H33791   4.871   7.429   0.537  0.3431 -1.1522  0.3040
  970MOL0     H33792   5.060   7.512   0.628 -2.9273 -0.8714  0.4215
  970MOL0     H33793   5.292   7.341   0.787 -0.8197  0.4359 -0.4819
  970MOL0     H33794   5.265   7.508   0.772 -0.3391  0.3080 -0.7857
  970MOL0     H33795   5.526   7.361   0.716 -0.5922 -2.0461  2.3385
  970MOL0     H33796   5.485   7.537   0.693  0.1573 -2.1629 -1.5771
  970MOL0     H33797   5.438   7.555   0.932 -2.8968 -0.1607 -2.5578
  970MOL0     H33798   5.498   7.392   0.957 -1.9936  0.0919 -0.6144
  970MOL0     H33799   5.724   7.456   0.876  0.3764 -0.2364 -1.0808
  970MOL0     H33800   5.656   7.611   0.822  0.5479 -1.1312 -1.5036
  970MOL0     H33801   5.671   7.528   1.123 -0.1567 -0.3579 -0.4808
  970MOL0     H33802   5.618   7.688   1.058 -0.7535 -0.3363 -0.0417
  970MOL0     H33803   5.897   7.563   1.043 -2.4319 -2.6261  3.6080
  970MOL0     H33804   5.849   7.725   0.965 -1.2015  2.3919  2.8509
  970MOL0     H33805   5.824   7.681   1.257  0.1872 -0.1522  0.0013
  970MOL0     H33806   5.799   7.824   1.160  1.4716 -0.1340  0.3857
  970MOL0     H33807   6.013   7.779   1.292  2.7134 -2.1938  0.4566
  970MOL0     H33808   6.071   7.678   1.160  1.2666  1.3838  1.4101
  970MOL0     H33809   6.205   7.822   0.985 -2.7660 -2.3140  0.8362
  970MOL0     H33810   6.225   8.202   0.890 -0.9620  0.6332  1.6861
  970MOL0     H33811   6.278   8.048   0.818  0.7224  1.9828 -0.7812
  970MOL0     H33812   6.345   8.176   1.072 -3.3602 -1.4167 -1.1004
  970MOL0     H33813   6.412   8.008   1.043 -1.1464 -1.0067 -0.8455
  970MOL0     H33814   6.539   8.075   0.851 -1.0804 -0.2772 -1.5063
  970MOL0     H33815   6.439   8.229   0.856  1.9585  2.0522  0.9741
  970MOL0     H33816   6.659   8.273   0.943 -1.3671 -2.5242 -3.1131
  970MOL0     H33817   6.545   8.305   1.071  1.9305  0.0688  1.0753
  970MOL0     H33818   6.800   7.966   1.239  1.9874 -0.8753 -0.7010
  970MOL0     H33819   7.114   7.937   1.315  0.0639  3.2732 -1.1983
  970MOL0     H33820   6.948   7.877   1.356  1.1444 -1.5518  1.8009
  970MOL0     H33821   7.034   7.963   1.479  4.3890  2.6683 -0.4101
  970MOL0     H33822   7.332   8.091   1.234  1.2112  0.1464 -0.7374
  970MOL0     H33823   7.580   8.040   1.203  1.8405  2.1795 -1.0411
  970MOL0     H33824   7.853   8.129   1.563 -1.2800 -0.3920  1.1001
  970MOL0     H33825   7.773   7.964   1.549 -0.9795  0.0137 -1.4283
  970MOL0     H33826   7.961   7.932   1.362  1.9893 -1.3460  1.2731
  970MOL0     H33827   8.023   8.083   1.425 -2.1532  0.9826 -0.0454
  970MOL0     H33828   7.972   7.846   1.608 -2.1466  3.6196  0.5864
  970MOL0     H33829   8.056   7.992   1.645 -4.4946  0.5900  1.0435
  970MOL0     H33830   8.127   7.786   1.432 -1.2761 -0.8262  0.7206
  970MOL0     H33831   8.219   7.796   1.590  0.0427  0.8767 -0.0177
  970MOL0     H33832   8.222   8.013   1.383 -1.0154  0.2128  0.5360
  970MOL0     H33833   8.307   8.019   1.539  1.4531 -1.6504  1.0804
  970MOL0     H33834   8.383   7.795   1.350  2.1596 -0.7462  0.3178
  970MOL0     H33835   8.455   7.836   1.499 -2.5900 -1.4806 -0.2039
  970MOL0     H33836   8.515   8.060   1.388  4.4043 -2.8655  1.5227
  970MOL0     H33837   8.416   8.019   1.246  2.1248  0.5056 -1.9253
  970MOL0     H33838   8.666   7.859   1.333 -1.1070  1.2010  2.4785
  970MOL0     H33839   8.659   7.970   1.201 -0.1525  0.6758  0.4624
  970MOL0     H33840   7.648   8.170   1.595  1.6731 -1.6027 -1.6274
  970MOL0     H33841   7.403   8.193   1.647 -0.3615 -0.5681  0.0113
  970MOL0     H33842   7.004   8.408   1.194 -0.9939  0.9105 -0.3828
  970MOL0     H33843   6.801   8.370   1.097 -1.3890 -1.0722 -0.0293
  970MOL0     H33844   5.272   7.158   0.454 -1.2254 -1.9380  0.3882
  970MOL0     H33845   5.086   7.098   0.349  0.8712  1.9986 -1.9254
  970MOL0     H33846   4.668   6.875   0.317  2.3481 -1.4706 -2.8200
  970MOL0     H33847   4.492   6.813   0.178  1.8970 -0.5858  1.0390
  970MOL0     H33848   4.388   6.768  -0.028 -1.2312 -2.0666 -1.4151
  970MOL0     H33849   4.258   6.855   0.065 -0.4457 -1.2439 -0.0737
  970MOL0     H33850   4.275   6.872  -0.245  2.7832  0.3888  0.5901
  970MOL0     H33851   4.149   6.915  -0.134 -0.2542  0.2862 -1.8391
  970MOL0     H33852   4.229   6.625  -0.195 -3.0267 -2.0446 -2.4960
  970MOL0     H33853   4.116   6.683  -0.066 -1.3477 -0.5064 -0.5406
  970MOL0     H33854   4.096   6.714  -0.360 -2.2122 -1.0814 -0.2704
  970MOL0     H33855   4.006   6.823  -0.246  0.0505  0.4034  2.8143
  970MOL0     H33856   3.800   6.448  -0.217 -1.1681 -0.1277 -0.7487
  970MOL0     H33857   4.500   7.210   0.012  1.8553  1.1234  1.7485
  970MOL0     H33858   4.602   7.380   0.099 -0.6050  4.4385  1.8023
  970MOL0     H33859   4.681   7.372   0.263 -0.1469 -1.2898  0.8683
  970MOL0     H33860   4.765   7.332   0.113 -1.4526  1.5551 -0.5730
  971MOL0     O33861   1.775   9.648   1.513 -0.1146  0.7050 -0.5992
  971MOL0     C33862   1.686   9.693   1.583  0.0340  0.1749  0.3597
  971MOL0     O33863   1.681   9.823   1.625  0.4165  0.3667  0.3146
  971MOL0     C33864   1.794   9.895   1.606 -0.0394 -0.4224 -0.9661
  971MOL0     C33865   1.786  10.037   1.590 -0.1555 -0.0465  0.1343
  971MOL0     C33866   1.896  10.121   1.574  0.3002 -0.0284 -0.0819
  971MOL0     C33867   2.028  10.057   1.589  1.2095 -0.0765  0.1874
  971MOL0     O33868   2.144  10.131   1.573 -0.0368  0.4037 -0.0882
  971MOL0     C33869   2.161  10.172   1.431 -0.3653 -0.3588 -0.2944
  971MOL0     C33870   2.306  10.205   1.398  0.6926 -0.7948  0.2423
  971MOL0     C33871   2.375  10.304   1.485 -0.7180 -0.3831 -0.0288
  971MOL0     C33872   2.519  10.324   1.438  0.1572  0.0840 -0.3690
  971MOL0     C33873   2.584  10.441   1.518  0.7154 -0.4498 -0.1401
  971MOL0     C33874   2.739  10.450   1.503 -0.1630 -0.4826 -0.1511
  971MOL0     C33875   2.797  10.442   1.356 -0.4447 -0.1986  0.4979
  971MOL0     C33876   2.733  10.549   1.261 -0.3558 -0.1535  0.7128
  971MOL0     N33877   2.767  10.679   1.311  0.0522  0.4110  0.3331
  971MOL0     C33878   2.888  10.745   1.299  0.7464  0.4076 -0.0121
  971MOL0     C33879   2.865  10.866   1.357 -0.5310 -0.0142 -0.1441
  971MOL0     C33880   2.968  10.974   1.388 -0.1395 -0.3617  0.1171
  971MOL0     C33881   3.104  10.914   1.380 -0.1907  0.1728  0.5013
  971MOL0     C33882   3.211  11.011   1.424 -0.5328  0.8558 -0.2527
  971MOL0     C33883   3.349  10.950   1.427 -0.2682  0.0373  1.0298
  971MOL0     O33884   3.441  11.044   1.478  0.4909  0.0522  0.2857
  971MOL0     C33885   3.573  11.002   1.502 -0.0991  0.6665 -0.0293
  971MOL0     C33886   3.620  10.874   1.479  0.3684  0.2835  0.6439
  971MOL0     C33887   3.756  10.848   1.493  0.3953 -0.8496 -0.1381
  971MOL0     C33888   3.800  10.712   1.449  0.6471 -0.5905 -0.4418
  971MOL0     C33889   3.843  10.944   1.552 -0.1040 -0.0939  0.1618
  971MOL0     C33890   3.988  10.933   1.567  0.5561  0.1981 -0.0646
  971MOL0     O33891   4.058  11.052   1.568  0.5718  0.0252 -0.4029
  971MOL0     C33892   4.183  11.068   1.630  0.3592 -0.7310  0.0015
  971MOL0     C33893   4.193  11.183   1.710 -0.6423  0.6072 -0.7653
  971MOL0     C33894   4.305  11.204   1.791 -0.0071 -0.0453 -0.2922
  971MOL0     C33895   4.416  11.110   1.791 -0.1240 -0.4957 -0.6195
  971MOL0     O33896   4.513  11.124   1.885 -0.2029  0.3859 -0.8877
  971MOL0     C33897   4.611  11.017   1.896  0.3942  0.4809  0.0858
  971MOL0     C33898   4.709  11.063   1.995  0.0834  0.1186  0.1892
  971MOL0     C33899   4.837  10.983   2.010  0.8770 -1.1361 -0.6160
  971MOL0     C33900   4.949  11.065   2.075  0.3022  0.6302  0.4129
  971MOL0     C33901   5.065  10.980   2.131  0.3697  0.8007 -0.3235
  971MOL0     C33902   5.163  11.051   2.229  0.0002 -0.1954  0.2247
  971MOL0     C33903   5.236  11.172   2.164 -0.0684 -0.3227  1.1474
  971MOL0     C33904   5.362  11.192   2.246  0.2918 -0.0259  0.6129
  971MOL0    Cl33905   5.418  11.361   2.222 -0.1781 -0.4619  0.0731
  971MOL0     C33906   4.400  11.003   1.697 -0.2646 -0.4543  0.0855
  971MOL0     C33907   4.291  10.981   1.615  0.6975 -0.8779 -0.3228
  971MOL0     O33908   4.046  10.823   1.560 -0.1314 -0.0405 -0.0150
  971MOL0     C33909   3.782  11.063   1.604 -0.0821  0.2466  0.0037
  971MOL0     C33910   3.650  11.099   1.563 -0.7917 -0.3046  0.1961
  971MOL0     N33911   2.741  10.872   1.407 -0.1193 -0.0866  0.2654
  971MOL0     N33912   2.677  10.768   1.367 -1.5076 -0.3494 -0.1201
  971MOL0     C33913   2.035   9.926   1.630 -0.0311 -0.0217 -1.1279
  971MOL0     C33914   1.919   9.847   1.637 -0.5259 -0.5673  0.0554
  971MOL0     C33915   1.563   9.606   1.606 -0.2759  1.0326 -0.4418
  971MOL0     C33916   1.434   9.666   1.623  0.7781 -0.3455  0.1727
  971MOL0     C33917   1.326   9.593   1.668 -0.4545 -0.4039 -0.2294
  971MOL0     C33918   1.340   9.450   1.691 -0.7025  0.0332  0.1756
  971MOL0     O33919   1.233   9.372   1.741 -0.3730 -0.2174 -0.5537
  971MOL0     C33920   1.158   9.439   1.834 -0.6780  1.2915  0.2612
  971MOL0     C33921   1.240   9.481   1.962  0.4180  0.1586 -0.3753
  971MOL0     C33922   1.165   9.579   2.047  0.3971 -0.4940  0.6971
  971MOL0     C33923   1.213   9.603   2.187  0.7147 -0.2139 -0.3254
  971MOL0     C33924   1.256   9.742   2.217  0.3644 -0.5151 -0.4294
  971MOL0     C33925   1.280   9.850   2.259 -0.3803 -0.3291 -0.7137
  971MOL0     C33926   1.465   9.387   1.663  0.7799 -0.3110 -0.0194
  971MOL0     C33927   1.572   9.458   1.618  0.4905  0.4283 -0.4570
  971MOL0     C33928   1.709   9.389   1.596 -0.7464 -0.1217 -1.1900
  971MOL0     H33929   1.681  10.066   1.599 -0.5442 -1.8644  2.7175
  971MOL0     H33930   1.878  10.226   1.553 -3.0645 -0.6572 -0.7694
  971MOL0     H33931   2.093  10.257   1.416 -1.9673 -1.2668  1.3755
  971MOL0     H33932   2.146  10.097   1.352  1.3887 -1.5009  0.4146
  971MOL0     H33933   2.363  10.112   1.405 -1.0972 -1.8235  2.2659
  971MOL0     H33934   2.310  10.239   1.294 -0.5484 -0.9834  0.1225
  971MOL0     H33935   2.326  10.401   1.471 -0.4312 -0.5384 -2.6562
  971MOL0     H33936   2.365  10.290   1.593 -0.4580 -1.3766 -0.1172
  971MOL0     H33937   2.582  10.237   1.459  2.5463  2.0219  1.1090
  971MOL0     H33938   2.522  10.358   1.334 -1.2901  0.7350 -0.2197
  971MOL0     H33939   2.549  10.445   1.622 -0.2002  1.7821 -0.4638
  971MOL0     H33940   2.550  10.539   1.484  1.1733  0.0834  0.8595
  971MOL0     H33941   2.780  10.538   1.553 -1.2793 -0.4586  0.7716
  971MOL0     H33942   2.782  10.373   1.569  1.4991 -0.0943 -0.7151
  971MOL0     H33943   2.786  10.343   1.311  2.6937 -0.1473 -0.6425
  971MOL0     H33944   2.903  10.467   1.364 -0.1929  0.0638 -2.6916
  971MOL0     H33945   2.769  10.536   1.158  1.2851  2.5830  0.8248
  971MOL0     H33946   2.624  10.549   1.257 -0.3382 -0.1274  0.1716
  971MOL0     H33947   2.981  10.701   1.262  1.6686  2.0621  0.2268
  971MOL0     H33948   2.946  11.009   1.490  1.0081 -2.6162  1.2137
  971MOL0     H33949   2.953  11.056   1.317 -1.4433 -1.6934 -1.1993
  971MOL0     H33950   3.104  10.819   1.435 -0.8238 -1.0359 -1.4842
  971MOL0     H33951   3.131  10.893   1.276  2.2981  2.8151  0.5136
  971MOL0     H33952   3.212  11.108   1.373  1.7740  1.1373  0.2394
  971MOL0     H33953   3.191  11.043   1.527 -2.1369 -0.8277  0.0035
  971MOL0     H33954   3.353  10.857   1.483  2.2235 -0.5184  0.0630
  971MOL0     H33955   3.371  10.933   1.321  0.4682  3.8494  0.4172
  971MOL0     H33956   3.563  10.795   1.431  0.9062  0.9045 -1.0933
  971MOL0     H33957   3.808  10.651   1.539  2.9384 -2.0637 -1.5244
  971MOL0     H33958   3.887  10.720   1.382  0.0912  2.5987 -0.9184
  971MOL0     H33959   3.726  10.663   1.385 -0.8139  0.5614  0.3036
  971MOL0     H33960   4.110  11.252   1.721 -3.2846 -2.5124  0.2450
  971MOL0     H33961   4.315  11.288   1.859  0.8397  1.6004 -2.3363
  971MOL0     H33962   4.563  10.922   1.920 -2.0020  1.4953 -0.4751
  971MOL0     H33963   4.657  11.005   1.797  1.1184 -2.0819  0.6502
  971MOL0     H33964   4.737  11.166   1.968  0.1342 -0.4096 -1.9607
  971MOL0     H33965   4.652  11.073   2.088 -2.5111 -0.0980 -1.2701
  971MOL0     H33966   4.868  10.950   1.910  1.0671 -2.0164 -0.2763
  971MOL0     H33967   4.819  10.892   2.068  1.9256 -0.1949  1.2730
  971MOL0     H33968   4.910  11.128   2.156  0.9813 -0.5503  1.7023
  971MOL0     H33969   5.009  11.121   2.002  1.7189 -2.3968 -0.8886
  971MOL0     H33970   5.022  10.891   2.178  2.4474  0.5089  1.2148
  971MOL0     H33971   5.118  10.924   2.053 -2.5701 -0.5805 -1.4777
  971MOL0     H33972   5.237  10.978   2.263  0.3312 -0.2803 -0.6503
  971MOL0     H33973   5.106  11.079   2.318 -3.1629 -0.1229 -1.6498
  971MOL0     H33974   5.178  11.265   2.156  1.9784  1.1593  2.4832
  971MOL0     H33975   5.261  11.150   2.060  2.4447  4.0405  0.5827
  971MOL0     H33976   5.440  11.118   2.225 -0.0604 -0.5338  1.0909
  971MOL0     H33977   5.331  11.197   2.351 -2.3115 -0.9536 -0.0357
  971MOL0     H33978   4.478  10.927   1.693  1.8219  1.4366  1.9775
  971MOL0     H33979   4.290  10.888   1.560 -1.3981 -2.4015  2.0477
  971MOL0     H33980   3.845  11.138   1.650  1.5107 -0.1636 -1.3737
  971MOL0     H33981   3.608  11.198   1.577 -0.1477  0.1060 -0.6392
  971MOL0     H33982   2.128   9.875   1.651 -2.1123 -3.5644  0.2841
  971MOL0     H33983   1.937   9.747   1.675 -0.8517 -0.7495 -0.2608
  971MOL0     H33984   1.428   9.772   1.599 -0.6852 -0.3828  0.3034
  971MOL0     H33985   1.232   9.639   1.697 -1.0860 -1.3646 -0.7005
  971MOL0     H33986   1.095   9.514   1.786  0.6970  1.3853 -1.5373
  971MOL0     H33987   1.089   9.363   1.871  1.7118 -3.1496 -3.3177
  971MOL0     H33988   1.334   9.529   1.932  0.1860  0.0012 -1.3743
  971MOL0     H33989   1.263   9.393   2.023  0.6933  0.2259 -0.3774
  971MOL0     H33990   1.173   9.670   1.987  0.7869 -1.7675 -1.2816
  971MOL0     H33991   1.062   9.545   2.055 -0.5519  1.9616 -0.2969
  971MOL0     H33992   1.291   9.529   2.210  0.6675 -0.6017 -1.3636
  971MOL0     H33993   1.131   9.580   2.255  1.8357 -3.7926  0.0384
  971MOL0     H33994   1.287   9.948   2.301 -2.2091 -0.4380 -0.0531
  971MOL0     H33995   1.483   9.281   1.676  1.3557 -0.1402  0.6572
  971MOL0     H33996   1.737   9.399   1.490  0.2858  2.3239 -0.7456
  971MOL0     H33997   1.778   9.455   1.649 -1.3757 -0.3661 -0.0547
  971MOL0     H33998   1.714   9.284   1.625  0.5493  0.5935  1.4626
  972MOL0     O33999   1.146   6.838   0.667 -0.2060  0.3600 -0.7880
  972MOL0     C34000   1.076   6.927   0.713  0.4208 -0.2860  0.8155
  972MOL0     O34001   1.121   7.048   0.773 -0.3128  0.5373 -0.2234
  972MOL0     C34002   1.240   7.092   0.739 -0.4762  0.0719  0.1414
  972MOL0     C34003   1.345   7.065   0.828 -0.2603 -0.2379 -0.4474
  972MOL0     C34004   1.477   7.085   0.783 -0.1128  0.0769  0.3490
  972MOL0     C34005   1.502   7.158   0.657 -0.2429 -0.0479 -0.0755
  972MOL0     O34006   1.636   7.186   0.628  0.1602 -0.2092  0.1664
  972MOL0     C34007   1.669   7.257   0.514  0.3906 -0.8803  0.3158
  972MOL0     C34008   1.813   7.283   0.524 -0.0126 -0.0798  0.1149
  972MOL0     C34009   1.842   7.365   0.646  0.5350 -0.4068 -0.5502
  972MOL0     C34010   1.985   7.412   0.670 -0.2524  0.9641 -0.6684
  972MOL0     C34011   1.993   7.520   0.785 -0.0982  0.2319 -0.6802
  972MOL0     C34012   2.022   7.462   0.929  1.3610 -0.6415  0.7406
  972MOL0     C34013   2.163   7.480   0.972 -0.2323 -0.2379 -0.0003
  972MOL0     C34014   2.195   7.624   0.972 -0.0650 -0.7654  0.1850
  972MOL0     N34015   2.316   7.656   1.059  0.6053 -0.0550  0.3900
  972MOL0     C34016   2.363   7.599   1.173  0.5184  0.9324 -0.0338
  972MOL0     C34017   2.480   7.653   1.198 -0.5204  1.1722  0.5996
  972MOL0     C34018   2.579   7.619   1.312 -0.4143  0.3814 -0.4256
  972MOL0     C34019   2.673   7.736   1.336  0.2281  0.1849  0.2076
  972MOL0     C34020   2.762   7.717   1.455  0.6186 -0.0431  0.6845
  972MOL0     C34021   2.876   7.819   1.458  0.3268  0.7589 -0.0017
  972MOL0     O34022   2.970   7.793   1.353 -0.9702  0.7182  0.9962
  972MOL0     C34023   3.100   7.846   1.355  0.2590  0.0263  0.6935
  972MOL0     C34024   3.157   7.884   1.482  0.3653  0.2037 -0.7219
  972MOL0     C34025   3.290   7.911   1.473  0.0716 -0.7002 -1.2732
  972MOL0     C34026   3.364   7.931   1.608  0.4946 -0.7942  0.0401
  972MOL0     C34027   3.360   7.934   1.349  0.0883 -0.0213  0.9272
  972MOL0     C34028   3.498   7.984   1.334 -0.7835  1.0303 -0.4178
  972MOL0     O34029   3.534   8.040   1.212  0.0428  0.0879  0.0210
  972MOL0     C34030   3.658   8.098   1.203 -0.4652  0.0504 -0.6402
  972MOL0     C34031   3.787   8.033   1.211  0.0666 -0.6797  0.3034
  972MOL0     C34032   3.909   8.094   1.175 -0.2191 -0.1442 -0.7119
  972MOL0     C34033   3.907   8.228   1.159 -0.7694  0.2814  0.5020
  972MOL0     O34034   4.018   8.289   1.110 -0.5634  0.0648 -0.0930
  972MOL0     C34035   4.034   8.435   1.091  0.2003 -0.7996 -0.0774
  972MOL0     C34036   4.094   8.511   1.218 -0.9116 -0.2924 -0.2736
  972MOL0     C34037   4.135   8.654   1.186 -0.7793  0.9390  0.6149
  972MOL0     C34038   4.275   8.665   1.120 -0.1457  0.8711  0.7056
  972MOL0     C34039   4.336   8.806   1.124  0.0164 -0.1597  0.0543
  972MOL0     C34040   4.465   8.832   1.049 -0.2106  1.0835 -0.2804
  972MOL0     C34041   4.592   8.782   1.117  0.0324  0.1713  0.0805
  972MOL0     C34042   4.715   8.784   1.022 -0.5547 -0.8894 -0.7545
  972MOL0    Cl34043   4.754   8.954   0.969 -0.1876 -0.1093 -0.3565
  972MOL0     C34044   3.788   8.300   1.164 -0.7433 -0.2800  0.1979
  972MOL0     C34045   3.664   8.236   1.178 -0.1181  0.4988 -0.1427
  972MOL0     O34046   3.577   7.948   1.425  0.5709 -0.4578  0.1257
  972MOL0     C34047   3.299   7.900   1.227 -0.5858  0.8089  0.5250
  972MOL0     C34048   3.169   7.845   1.233 -0.0191 -0.3110 -0.2374
  972MOL0     N34049   2.510   7.743   1.093  0.3514 -0.3414 -0.1986
  972MOL0     N34050   2.411   7.746   1.017  0.2386  0.2185  0.0376
  972MOL0     C34051   1.398   7.194   0.574 -0.0920  0.3831  0.0745
  972MOL0     C34052   1.267   7.155   0.617  0.2689 -0.6607  0.5481
  972MOL0     C34053   0.931   6.908   0.726 -1.0445  1.2369  0.9407
  972MOL0     C34054   0.851   7.019   0.733  0.0942 -0.2014 -0.2481
  972MOL0     C34055   0.714   7.013   0.730  0.1018 -0.0785 -0.3559
  972MOL0     C34056   0.651   6.898   0.711  0.2712 -0.2522  0.0421
  972MOL0     O34057   0.516   6.916   0.708 -0.3491 -0.0303  0.3569
  972MOL0     C34058   0.466   6.840   0.596  0.0744  0.4263 -0.3404
  972MOL0     C34059   0.401   6.708   0.638  0.3638  0.2514 -0.8354
  972MOL0     C34060   0.248   6.710   0.639  0.1187 -0.0533  0.4460
  972MOL0     C34061   0.194   6.777   0.766  0.7777  0.3650 -0.3264
  972MOL0     C34062   0.048   6.800   0.756 -0.1847  0.3316 -0.5003
  972MOL0     C34063  -0.074   6.801   0.772 -0.3109 -0.6074  0.6575
  972MOL0     C34064   0.726   6.779   0.697 -0.1040 -0.2189  0.0476
  972MOL0     C34065   0.862   6.778   0.698 -0.6673 -0.3166  1.1899
  972MOL0     C34066   0.932   6.653   0.651  0.1753  0.7611  0.2507
  972MOL0     H34067   1.332   7.026   0.928 -0.2149  3.1518  1.0153
  972MOL0     H34068   1.564   7.065   0.845 -0.1842  0.0275  0.4340
  972MOL0     H34069   1.614   7.351   0.503 -0.0128 -1.4182 -3.4208
  972MOL0     H34070   1.640   7.207   0.422 -3.7013  1.8328 -0.1185
  972MOL0     H34071   1.869   7.189   0.517  0.7917  0.5445 -4.2035
  972MOL0     H34072   1.837   7.330   0.428 -0.3750 -1.8576 -0.9061
  972MOL0     H34073   1.792   7.461   0.627  0.8927  0.0868  0.8591
  972MOL0     H34074   1.809   7.321   0.741  1.4879  1.4233  0.7006
  972MOL0     H34075   2.052   7.327   0.685 -0.9239  0.2438 -1.6698
  972MOL0     H34076   2.012   7.455   0.573  0.5802  2.7709  0.3078
  972MOL0     H34077   1.899   7.575   0.773 -0.4103 -0.3348 -0.8759
  972MOL0     H34078   2.072   7.587   0.750 -0.5588  1.3589  0.3741
  972MOL0     H34079   1.948   7.499   1.001  1.1693  3.6288 -1.3474
  972MOL0     H34080   2.002   7.355   0.925  0.3318 -0.4616 -3.0813
  972MOL0     H34081   2.230   7.426   0.904 -0.8899  0.4295 -1.2053
  972MOL0     H34082   2.177   7.436   1.071 -0.6690  0.7440  0.5120
  972MOL0     H34083   2.213   7.645   0.866 -0.5823  0.7214  0.3638
  972MOL0     H34084   2.108   7.677   1.012 -0.0438 -0.9608  0.4920
  972MOL0     H34085   2.300   7.534   1.234 -0.4240  2.2556  0.4585
  972MOL0     H34086   2.634   7.525   1.303 -1.4546 -0.2847 -0.0734
  972MOL0     H34087   2.523   7.597   1.404  1.2952  0.1971  0.6010
  972MOL0     H34088   2.743   7.737   1.252 -1.6544  1.0353 -1.4431
  972MOL0     H34089   2.615   7.828   1.339 -1.0831 -0.6322  0.7851
  972MOL0     H34090   2.697   7.723   1.542 -1.7535  0.1999 -1.0159
  972MOL0     H34091   2.808   7.618   1.459 -0.1976 -0.3959  2.0215
  972MOL0     H34092   2.834   7.919   1.444 -1.5145 -0.4193 -6.3740
  972MOL0     H34093   2.919   7.803   1.557  1.5711  1.0182 -0.4860
  972MOL0     H34094   3.113   7.872   1.581 -0.5398 -0.9612 -1.2412
  972MOL0     H34095   3.418   8.027   1.605 -3.5196  1.6876 -0.3984
  972MOL0     H34096   3.441   7.855   1.622  3.8269  2.1414 -0.6227
  972MOL0     H34097   3.300   7.918   1.695  1.1514 -0.3419  0.6072
  972MOL0     H34098   3.782   7.926   1.228 -1.6002 -0.5842  0.5538
  972MOL0     H34099   4.005   8.043   1.168  1.7025  2.6423  2.2691
  972MOL0     H34100   4.112   8.438   1.014  0.3476 -0.6060  0.0772
  972MOL0     H34101   3.951   8.490   1.046  0.7550  1.0858  1.0700
  972MOL0     H34102   4.015   8.516   1.294 -1.5669 -0.8673 -0.9056
  972MOL0     H34103   4.180   8.451   1.248  1.6965  2.5583 -1.5442
  972MOL0     H34104   4.127   8.710   1.279  0.3902  1.6582  0.3053
  972MOL0     H34105   4.067   8.697   1.112  1.7276  1.2367 -1.6804
  972MOL0     H34106   4.291   8.634   1.016  3.6765  1.0790  1.0755
  972MOL0     H34107   4.343   8.603   1.179 -0.1907 -0.1941 -0.3244
  972MOL0     H34108   4.265   8.879   1.084 -1.4327 -1.3088  0.4309
  972MOL0     H34109   4.357   8.821   1.230 -0.7907  2.1997 -0.0641
  972MOL0     H34110   4.477   8.938   1.023  2.5170  1.2229  1.2247
  972MOL0     H34111   4.475   8.782   0.953  0.9782 -0.5568  0.6446
  972MOL0     H34112   4.584   8.682   1.160 -0.7400  0.3059  0.2601
  972MOL0     H34113   4.606   8.852   1.200  0.5195 -0.6567  0.7050
  972MOL0     H34114   4.712   8.713   0.939  0.8141 -3.3266  1.1736
  972MOL0     H34115   4.804   8.763   1.081 -1.2427  1.5388  1.3806
  972MOL0     H34116   3.782   8.407   1.148  2.0862  0.0210  0.5931
  972MOL0     H34117   3.568   8.287   1.179 -1.9070 -2.5728 -0.5384
  972MOL0     H34118   3.347   7.911   1.130 -1.9392 -0.7978 -0.3899
  972MOL0     H34119   3.114   7.816   1.144 -1.2455  1.3811 -0.0721
  972MOL0     H34120   1.423   7.248   0.483  1.0268 -0.6943 -0.2929
  972MOL0     H34121   1.181   7.168   0.551  1.4756  2.0026 -0.6584
  972MOL0     H34122   0.883   7.118   0.764 -1.1498  0.1477 -0.0217
  972MOL0     H34123   0.660   7.108   0.728 -3.1275 -1.7707 -0.8451
  972MOL0     H34124   0.379   6.894   0.556 -0.9042  0.2685  1.4668
  972MOL0     H34125   0.535   6.820   0.513 -1.2499  1.4527 -1.7591
  972MOL0     H34126   0.439   6.684   0.737  2.3600 -0.2801 -1.6808
  972MOL0     H34127   0.426   6.633   0.562 -0.9296 -1.6075  0.4558
  972MOL0     H34128   0.218   6.760   0.547  0.4639  0.0595  0.3940
  972MOL0     H34129   0.214   6.606   0.634 -1.6742  0.4136  1.7629
  972MOL0     H34130   0.255   6.864   0.789  2.2305 -0.1024 -2.1440
  972MOL0     H34131   0.220   6.700   0.839 -1.0514 -1.1931 -1.2062
  972MOL0     H34132  -0.180   6.794   0.758 -0.4313 -0.0706  1.2820
  972MOL0     H34133   0.679   6.683   0.678  0.5083 -0.5950  0.4209
  972MOL0     H34134   0.880   6.567   0.695 -0.1149 -0.2213 -1.8871
  972MOL0     H34135   0.916   6.640   0.544 -1.2282 -1.3760  0.6346
  972MOL0     H34136   1.038   6.653   0.676  0.9268  2.2510 -2.5327
  973MOL0     O34137   3.875   7.677   3.555 -0.0762 -0.1739  0.1752
  973MOL0     C34138   3.835   7.558   3.552 -0.1331 -0.1044  0.0085
  973MOL0     O34139   3.913   7.449   3.537 -0.8688  0.2554 -0.0131
  973MOL0     C34140   4.050   7.447   3.497  0.6420 -0.2599 -0.6895
  973MOL0     C34141   4.113   7.542   3.416  0.1573  0.5611  0.1317
  973MOL0     C34142   4.251   7.532   3.395  0.5737 -0.2925  0.0158
  973MOL0     C34143   4.330   7.435   3.461  0.2228 -0.0217 -0.6467
  973MOL0     O34144   4.462   7.450   3.447  0.1468 -0.1018 -0.8162
  973MOL0     C34145   4.545   7.389   3.545 -0.5401  0.1590  0.2900
  973MOL0     C34146   4.689   7.413   3.493  0.0752 -0.7042  0.6494
  973MOL0     C34147   4.791   7.313   3.547  0.2852  0.1563 -0.0706
  973MOL0     C34148   4.926   7.336   3.478 -0.2419  0.2280 -0.4643
  973MOL0     C34149   4.989   7.474   3.480  0.1210  0.6361  0.3861
  973MOL0     C34150   5.117   7.480   3.392  0.3450  0.2359  0.5415
  973MOL0     C34151   5.193   7.610   3.386 -0.2248  0.4999  1.0778
  973MOL0     C34152   5.271   7.633   3.512  0.4915 -0.7365 -0.1199
  973MOL0     N34153   5.345   7.752   3.500 -0.3444 -0.2420 -0.3799
  973MOL0     C34154   5.458   7.759   3.418 -0.3805  0.3116 -0.0884
  973MOL0     C34155   5.488   7.891   3.421  0.7319 -1.6571  1.1187
  973MOL0     C34156   5.610   7.956   3.354 -0.4108 -0.0385  0.3738
  973MOL0     C34157   5.651   8.081   3.429  1.4175  0.1695  0.2210
  973MOL0     C34158   5.737   8.066   3.554  0.3790  0.3084 -0.3280
  973MOL0     C34159   5.834   8.180   3.582 -0.5207 -0.2399 -0.4241
  973MOL0     O34160   5.967   8.136   3.546 -0.7740 -0.4510  0.7941
  973MOL0     C34161   6.060   8.228   3.577  1.0459 -0.6836  0.0262
  973MOL0     C34162   6.055   8.366   3.577 -0.0049 -0.8278 -0.7998
  973MOL0     C34163   6.154   8.448   3.629  0.5457 -0.0552 -0.3906
  973MOL0     C34164   6.112   8.593   3.629 -0.4622 -0.1340  0.8626
  973MOL0     C34165   6.278   8.394   3.666  0.1081 -0.1309  0.6551
  973MOL0     C34166   6.389   8.482   3.714  0.0349  0.5441  0.4323
  973MOL0     O34167   6.369   8.615   3.723  0.2416 -1.0731 -0.5245
  973MOL0     C34168   6.462   8.685   3.794 -0.3873  0.3428  0.8424
  973MOL0     C34169   6.542   8.767   3.726 -0.5513 -0.8284 -0.0767
  973MOL0     C34170   6.631   8.847   3.794  0.1847 -0.3204 -0.3740
  973MOL0     C34171   6.672   8.810   3.923 -0.6011  0.6505 -0.0835
  973MOL0     O34172   6.777   8.887   3.968 -0.4799 -0.4453 -0.1457
  973MOL0     C34173   6.893   8.808   4.011  0.3783  0.7507  0.1622
  973MOL0     C34174   7.021   8.874   3.965  1.0114  0.3524 -0.0916
  973MOL0     C34175   7.153   8.819   4.030 -0.4943 -0.4832  0.5138
  973MOL0     C34176   7.275   8.851   3.936  0.4601  0.2232  0.1590
  973MOL0     C34177   7.414   8.800   3.998 -0.1948 -0.2333  0.5079
  973MOL0     C34178   7.550   8.848   3.939  0.1761 -1.0524  0.1206
  973MOL0     C34179   7.560   8.851   3.790 -0.3397 -0.2738  0.8236
  973MOL0     C34180   7.697   8.885   3.752  0.2833  0.3699 -0.9109
  973MOL0    Cl34181   7.725   8.873   3.577  0.1142  0.6172  0.4038
  973MOL0     C34182   6.604   8.717   3.996  0.2620 -0.1856  0.6146
  973MOL0     C34183   6.501   8.650   3.927  0.2886  0.5658 -0.4483
  973MOL0     O34184   6.497   8.425   3.740  1.1053  0.6369  0.0288
  973MOL0     C34185   6.295   8.258   3.652 -0.7007 -0.0142  0.7310
  973MOL0     C34186   6.189   8.174   3.610 -0.3244  0.1319  0.0775
  973MOL0     N34187   5.386   7.958   3.489 -0.2789 -0.3937  0.3597
  973MOL0     N34188   5.301   7.876   3.539 -0.4060 -0.2475  0.4903
  973MOL0     C34189   4.261   7.337   3.536  0.6872 -0.4584  0.0531
  973MOL0     C34190   4.129   7.343   3.556  1.0518  0.7097  0.4895
  973MOL0     C34191   3.690   7.529   3.590  0.0664 -0.1395 -0.0988
  973MOL0     C34192   3.633   7.414   3.540  0.1105 -0.7492  0.5877
  973MOL0     C34193   3.496   7.393   3.558  0.8316 -0.4531 -0.0938
  973MOL0     C34194   3.416   7.480   3.634 -0.9798  0.5995 -0.4554
  973MOL0     O34195   3.284   7.453   3.645  0.5776  0.0877  0.1262
  973MOL0     C34196   3.194   7.491   3.757 -0.0460  0.2179  0.2467
  973MOL0     C34197   3.208   7.384   3.860 -0.2386  0.0708 -0.4859
  973MOL0     C34198   3.100   7.403   3.972  0.0857 -0.5933 -0.2524
  973MOL0     C34199   2.961   7.366   3.926 -0.4940 -0.8119 -0.7155
  973MOL0     C34200   2.931   7.256   3.838 -0.3109  0.3012  0.6942
  973MOL0     C34201   2.911   7.156   3.767  0.0810  0.4099  0.0438
  973MOL0     C34202   3.473   7.603   3.682  0.9805  0.9768 -0.2284
  973MOL0     C34203   3.613   7.624   3.674  0.2416 -0.0521  0.1337
  973MOL0     C34204   3.681   7.747   3.749  0.8229 -0.0104 -0.3437
  973MOL0     H34205   4.053   7.608   3.354  0.9639 -0.3946 -1.7537
  973MOL0     H34206   4.298   7.599   3.323  1.1168 -2.0297 -1.3133
  973MOL0     H34207   4.537   7.281   3.562 -0.1991  0.2670  1.1669
  973MOL0     H34208   4.542   7.437   3.643 -3.7209 -0.0731  0.4225
  973MOL0     H34209   4.684   7.393   3.385 -2.6499  1.9884  0.1248
  973MOL0     H34210   4.701   7.520   3.513 -1.6149 -0.4732  0.5735
  973MOL0     H34211   4.806   7.320   3.655  1.5554 -1.2713 -0.1213
  973MOL0     H34212   4.747   7.215   3.528 -1.8691  1.0892 -0.1874
  973MOL0     H34213   5.006   7.264   3.498  0.6295  0.8247 -1.6893
  973MOL0     H34214   4.912   7.307   3.373 -2.2250 -0.2735 -0.1052
  973MOL0     H34215   5.013   7.493   3.585  0.6133 -2.6541  0.9791
  973MOL0     H34216   4.919   7.556   3.460 -0.0518  0.3574 -0.1810
  973MOL0     H34217   5.181   7.400   3.428  0.5547 -0.9613 -2.2428
  973MOL0     H34218   5.088   7.456   3.289  1.5419 -0.0078  0.2457
  973MOL0     H34219   5.124   7.695   3.373  0.9064  1.6395  2.1980
  973MOL0     H34220   5.262   7.605   3.302 -1.1103 -1.1386  0.4132
  973MOL0     H34221   5.188   7.643   3.582 -0.5838 -2.0374 -1.1459
  973MOL0     H34222   5.332   7.546   3.537 -1.4088 -1.1434  3.7073
  973MOL0     H34223   5.507   7.681   3.361 -3.4247 -1.2097 -0.8635
  973MOL0     H34224   5.576   7.988   3.255  0.0129  1.8638  0.8165
  973MOL0     H34225   5.696   7.890   3.344  1.0053  1.0103  4.0609
  973MOL0     H34226   5.712   8.136   3.356 -0.2597  0.2159 -1.2169
  973MOL0     H34227   5.564   8.137   3.464  0.7811 -1.4544  1.3047
  973MOL0     H34228   5.673   8.046   3.641 -0.2526 -1.2510 -1.1124
  973MOL0     H34229   5.798   7.976   3.539  1.4469  0.2640  3.2818
  973MOL0     H34230   5.806   8.275   3.534 -1.3389  1.0529  2.4154
  973MOL0     H34231   5.825   8.205   3.688 -1.3767  3.2667 -1.1890
  973MOL0     H34232   5.969   8.408   3.526  0.3399 -2.6957 -3.0849
  973MOL0     H34233   6.108   8.627   3.733  0.0779 -0.9209  1.1545
  973MOL0     H34234   6.016   8.619   3.584 -0.0471 -0.6848 -0.3718
  973MOL0     H34235   6.189   8.649   3.577 -1.1306 -1.8261 -2.1464
  973MOL0     H34236   6.522   8.798   3.624  2.2930 -0.9313 -0.7356
  973MOL0     H34237   6.674   8.929   3.738  1.6036 -0.7053  0.1060
  973MOL0     H34238   6.900   8.803   4.120  1.7486  2.8097  0.2109
  973MOL0     H34239   6.892   8.704   3.976 -1.9883  0.1891  1.7025
  973MOL0     H34240   7.034   8.853   3.859  3.2665 -0.7452  0.3464
  973MOL0     H34241   7.011   8.982   3.983 -0.2542  0.4793 -1.4400
  973MOL0     H34242   7.143   8.710   4.042  0.9971 -0.5365  1.6746
  973MOL0     H34243   7.170   8.860   4.130 -1.4259 -0.5891  0.7237
  973MOL0     H34244   7.281   8.954   3.900 -0.0438 -0.2933 -1.4441
  973MOL0     H34245   7.263   8.788   3.848 -2.6071 -2.4056  2.2344
  973MOL0     H34246   7.420   8.830   4.103  1.5370  0.6322  0.1884
  973MOL0     H34247   7.415   8.692   3.982  0.4787 -0.0860 -0.5465
  973MOL0     H34248   7.626   8.781   3.981 -0.2828 -1.1371  0.8363
  973MOL0     H34249   7.577   8.945   3.982  0.5530 -0.1990 -1.9393
  973MOL0     H34250   7.495   8.932   3.755  2.0772  0.9751 -1.1048
  973MOL0     H34251   7.540   8.751   3.752  0.8728 -0.4818  0.7026
  973MOL0     H34252   7.758   8.815   3.810 -3.8607 -1.4911  1.6417
  973MOL0     H34253   7.731   8.983   3.785  1.7224 -0.7570  1.1828
  973MOL0     H34254   6.634   8.680   4.093 -1.0619  1.2114  1.5952
  973MOL0     H34255   6.447   8.574   3.983 -2.6445  3.9450  1.7188
  973MOL0     H34256   6.391   8.213   3.676 -0.1011  0.6203 -0.3799
  973MOL0     H34257   6.222   8.072   3.597 -1.1384  0.0240 -1.3382
  973MOL0     H34258   4.309   7.263   3.599  1.4905  0.6978  0.8436
  973MOL0     H34259   4.083   7.275   3.626 -2.0774  1.5083 -0.6464
  973MOL0     H34260   3.685   7.342   3.477 -1.1542  0.1742 -1.6501
  973MOL0     H34261   3.449   7.309   3.507 -0.8187  0.7923 -0.6942
  973MOL0     H34262   3.212   7.594   3.789  0.7499  0.9302 -2.2855
  973MOL0     H34263   3.095   7.487   3.712 -0.7873 -2.3685  1.8587
  973MOL0     H34264   3.308   7.376   3.902 -0.4423 -0.3909 -0.0705
  973MOL0     H34265   3.197   7.284   3.817 -2.1211  0.7534 -1.7415
  973MOL0     H34266   3.127   7.349   4.063 -0.3913  1.3564  1.1142
  973MOL0     H34267   3.100   7.507   4.009  0.0013 -1.4467  2.3602
  973MOL0     H34268   2.925   7.447   3.862 -1.5089 -0.6762  0.0031
  973MOL0     H34269   2.901   7.350   4.016  1.5438  0.1497  0.8751
  973MOL0     H34270   2.895   7.062   3.719 -1.4625 -0.3859  2.0014
  973MOL0     H34271   3.407   7.670   3.735 -1.9154 -1.8361 -0.0224
  973MOL0     H34272   3.620   7.786   3.831 -0.4762 -0.3925 -1.0851
  973MOL0     H34273   3.779   7.718   3.788 -0.1047 -1.4781  1.0484
  973MOL0     H34274   3.682   7.835   3.685  2.2783 -0.6444 -1.2323
  974MOL0     O34275   6.834   4.181   5.362 -0.0227  0.3753  0.1580
  974MOL0     C34276   6.770   4.080   5.388 -0.2227  0.4072  0.3989
  974MOL0     O34277   6.630   4.081   5.390  0.5520 -0.1160  0.3035
  974MOL0     C34278   6.561   4.197   5.356  0.1475  0.0702 -0.6707
  974MOL0     C34279   6.457   4.186   5.272  1.1507 -0.1458  0.2195
  974MOL0     C34280   6.377   4.294   5.239  0.5652  0.2788  0.0451
  974MOL0     C34281   6.404   4.425   5.295  0.4782  0.4245  0.2514
  974MOL0     O34282   6.334   4.539   5.279  0.2040 -0.1150  0.2027
  974MOL0     C34283   6.228   4.543   5.180 -0.6850 -0.1291 -0.2336
  974MOL0     C34284   6.189   4.687   5.183  0.8562 -0.6380 -0.8121
  974MOL0     C34285   6.283   4.769   5.094 -0.0024  0.4193  0.2306
  974MOL0     C34286   6.300   4.916   5.130  0.1049 -0.2226  0.5903
  974MOL0     C34287   6.404   4.983   5.046 -0.1215  0.0105  1.1132
  974MOL0     C34288   6.423   5.124   5.103  0.0222  0.3878 -0.4217
  974MOL0     C34289   6.546   5.193   5.038  0.1833  0.3282 -0.2762
  974MOL0     C34290   6.676   5.182   5.109 -0.3091 -0.6041 -1.0283
  974MOL0     N34291   6.768   5.276   5.043 -0.1718 -0.8827  1.2535
  974MOL0     C34292   6.801   5.397   5.098 -0.4274 -0.4121  0.9919
  974MOL0     C34293   6.891   5.445   5.007 -0.2967 -0.8614  0.7419
  974MOL0     C34294   6.964   5.577   5.021  0.3130 -0.0234  0.3071
  974MOL0     C34295   7.097   5.585   4.950 -0.1371  0.0643 -0.4326
  974MOL0     C34296   7.168   5.709   4.990 -0.1097  0.0444 -0.4711
  974MOL0     C34297   7.315   5.699   4.967 -0.1876  0.3166 -0.2463
  974MOL0     O34298   7.345   5.668   4.834  1.1389 -0.2862  0.5597
  974MOL0     C34299   7.468   5.617   4.811  0.4113  0.3368 -0.0915
  974MOL0     C34300   7.488   5.561   4.682 -0.2535  0.7985 -0.2501
  974MOL0     C34301   7.614   5.532   4.628 -0.2292 -1.1104  0.3197
  974MOL0     C34302   7.616   5.444   4.507 -0.0308 -0.0224  0.2709
  974MOL0     C34303   7.728   5.561   4.706 -0.3906 -1.0359  0.3120
  974MOL0     C34304   7.877   5.536   4.669  0.0904  0.2120 -0.8801
  974MOL0     O34305   7.973   5.523   4.771 -0.5931  0.6359  0.0553
  974MOL0     C34306   8.089   5.461   4.735 -0.1774  0.2398 -0.2515
  974MOL0     C34307   8.106   5.322   4.728 -0.5654  0.7133 -0.3341
  974MOL0     C34308   8.226   5.254   4.696  0.4530 -0.7838 -0.8470
  974MOL0     C34309   8.346   5.337   4.693 -0.1519  0.4181 -0.7352
  974MOL0     O34310   8.465   5.274   4.689  0.1237 -0.1482  0.0725
  974MOL0     C34311   8.578   5.356   4.641 -0.1929 -0.3505 -0.0541
  974MOL0     C34312   8.695   5.269   4.591  0.2523 -0.2778  0.4302
  974MOL0     C34313   8.662   5.173   4.475 -0.4548 -0.3856 -0.0153
  974MOL0     C34314   8.777   5.073   4.438  0.4274  0.0639  0.8588
  974MOL0     C34315   8.917   5.132   4.396  0.5946  0.7139  0.5380
  974MOL0     C34316   9.018   5.025   4.360 -0.2444  0.2970  0.3962
  974MOL0     C34317   8.980   4.954   4.221 -0.4877 -0.0091  0.4112
  974MOL0     C34318   8.996   5.063   4.111 -0.2512 -0.6335  0.9398
  974MOL0    Cl34319   8.979   4.993   3.954 -0.3916  0.1353  0.2372
  974MOL0     C34320   8.327   5.473   4.693  0.4410 -0.5924  0.1617
  974MOL0     C34321   8.202   5.535   4.715  0.9422  0.0742  1.1337
  974MOL0     O34322   7.897   5.518   4.550 -0.5714 -0.1217  0.0031
  974MOL0     C34323   7.712   5.613   4.835  0.1830 -0.1542 -0.5810
  974MOL0     C34324   7.582   5.639   4.887 -0.1034 -1.0745 -0.0956
  974MOL0     N34325   6.911   5.353   4.902  0.0123 -0.2301 -0.1446
  974MOL0     N34326   6.819   5.259   4.917 -0.1868 -0.9493  0.1230
  974MOL0     C34327   6.513   4.435   5.379  0.1061  1.7028  0.0262
  974MOL0     C34328   6.589   4.317   5.418  0.1901 -0.5681 -0.5306
  974MOL0     C34329   6.830   3.950   5.382  0.2751  0.4411 -0.5002
  974MOL0     C34330   6.742   3.836   5.364 -0.2484  0.3214  0.4989
  974MOL0     C34331   6.798   3.713   5.335  1.5786  0.5513 -0.2740
  974MOL0     C34332   6.928   3.683   5.360 -0.4984  0.6226  0.0478
  974MOL0     O34333   6.993   3.560   5.353 -0.4801  0.4970 -0.3477
  974MOL0     C34334   6.932   3.439   5.311 -0.1653  0.0398 -0.2301
  974MOL0     C34335   7.003   3.326   5.379  0.3027  0.4088 -1.2404
  974MOL0     C34336   7.147   3.306   5.347 -0.5490  0.7736 -0.2958
  974MOL0     C34337   7.210   3.214   5.455  0.8239  0.4047 -0.6092
  974MOL0     C34338   7.345   3.169   5.433 -0.8513  0.0039 -0.0123
  974MOL0     C34339   7.462   3.141   5.417  0.3009  0.3713 -0.8186
  974MOL0     C34340   7.012   3.792   5.381  0.7774  0.1405 -0.2866
  974MOL0     C34341   6.967   3.927   5.387  0.3305  1.3684 -0.0068
  974MOL0     C34342   7.072   4.028   5.418  0.1132  0.0108  0.8503
  974MOL0     H34343   6.447   4.088   5.228 -1.6450  1.8073 -4.1028
  974MOL0     H34344   6.297   4.264   5.172  1.1546  1.1288 -1.0688
  974MOL0     H34345   6.140   4.481   5.199 -1.3559  0.3133 -1.7155
  974MOL0     H34346   6.264   4.527   5.078  1.8231 -2.1837  0.8413
  974MOL0     H34347   6.089   4.708   5.144  2.0972  4.0085 -1.9977
  974MOL0     H34348   6.174   4.718   5.287 -3.4756 -2.8733 -0.5439
  974MOL0     H34349   6.379   4.718   5.086  0.5599  1.4857 -0.0543
  974MOL0     H34350   6.236   4.774   4.996 -1.0493  0.7804  0.7374
  974MOL0     H34351   6.217   4.982   5.104  1.3777  0.7579 -1.1845
  974MOL0     H34352   6.312   4.930   5.238 -0.0393  3.1695  0.2772
  974MOL0     H34353   6.379   4.991   4.940  1.8487 -1.6665  0.4509
  974MOL0     H34354   6.500   4.931   5.058  1.8953  3.2036  0.2210
  974MOL0     H34355   6.334   5.185   5.084 -1.0698 -1.4812 -1.7365
  974MOL0     H34356   6.440   5.111   5.210  1.3944 -0.1104 -0.6786
  974MOL0     H34357   6.522   5.300   5.033 -1.2309  0.1475  1.5685
  974MOL0     H34358   6.573   5.154   4.940  2.1838  2.0534 -0.4902
  974MOL0     H34359   6.655   5.220   5.210  0.5914  0.7486 -1.3247
  974MOL0     H34360   6.704   5.077   5.117 -2.7845 -1.1922  2.1516
  974MOL0     H34361   6.776   5.445   5.192 -0.3333  0.5641  0.5310
  974MOL0     H34362   6.985   5.585   5.128  2.9386 -1.5097 -0.0051
  974MOL0     H34363   6.891   5.650   4.987  0.8090 -0.0740 -0.9016
  974MOL0     H34364   7.154   5.497   4.980 -0.0703 -0.7255 -2.6739
  974MOL0     H34365   7.087   5.581   4.841  0.1147  0.0343 -0.4552
  974MOL0     H34366   7.133   5.793   4.929  3.9421  0.9725 -1.8367
  974MOL0     H34367   7.151   5.733   5.095  0.1446  4.4285 -1.2315
  974MOL0     H34368   7.365   5.795   4.985  0.4209  0.0294 -0.3890
  974MOL0     H34369   7.354   5.620   5.032  1.1266  1.2311  0.1144
  974MOL0     H34370   7.397   5.534   4.630  0.0793 -0.1880 -0.3267
  974MOL0     H34371   7.520   5.402   4.474 -0.2452  1.2045 -0.7494
  974MOL0     H34372   7.685   5.362   4.529  0.8194  1.0843  1.9061
  974MOL0     H34373   7.657   5.495   4.419 -2.1362  1.2330 -0.0376
  974MOL0     H34374   8.024   5.253   4.744  1.5687 -1.4830  2.0241
  974MOL0     H34375   8.220   5.147   4.677 -0.7888 -0.6241 -1.4309
  974MOL0     H34376   8.540   5.411   4.554 -1.3150 -1.4234 -0.2732
  974MOL0     H34377   8.612   5.420   4.723  0.4725  1.0777 -1.3911
  974MOL0     H34378   8.781   5.324   4.553  0.1020 -1.0136 -1.0189
  974MOL0     H34379   8.727   5.209   4.678 -1.8516 -0.0537  1.4208
  974MOL0     H34380   8.642   5.229   4.384 -2.9794 -1.9154 -0.5108
  974MOL0     H34381   8.577   5.110   4.503 -0.1348 -0.7482  0.1644
  974MOL0     H34382   8.747   5.018   4.349  0.9981  2.6569 -1.0532
  974MOL0     H34383   8.789   5.004   4.522 -1.7624 -0.6778  0.6127
  974MOL0     H34384   8.909   5.211   4.321  2.8661 -3.5030 -4.8167
  974MOL0     H34385   8.955   5.179   4.488  0.3334  2.0439 -0.0129
  974MOL0     H34386   9.025   4.947   4.437 -0.2524 -1.6814 -1.4967
  974MOL0     H34387   9.111   5.071   4.327 -0.6648 -0.0990 -1.4922
  974MOL0     H34388   8.879   4.913   4.224 -0.0083 -1.2440  0.2783
  974MOL0     H34389   9.053   4.874   4.208 -0.5056 -0.1277  0.9951
  974MOL0     H34390   9.096   5.107   4.113 -0.1362 -0.6907 -1.4061
  974MOL0     H34391   8.918   5.139   4.114  1.6372  1.9402 -3.9798
  974MOL0     H34392   8.413   5.540   4.691 -2.7370  3.9589 -3.4896
  974MOL0     H34393   8.192   5.643   4.706  1.0433  0.1371  1.7547
  974MOL0     H34394   7.794   5.628   4.904 -0.9718 -1.4312  1.1606
  974MOL0     H34395   7.566   5.674   4.988  1.7115 -0.8668  0.1540
  974MOL0     H34396   6.540   4.532   5.419 -0.4624  2.4572 -1.3387
  974MOL0     H34397   6.665   4.349   5.488  0.7772 -2.2044 -0.3880
  974MOL0     H34398   6.636   3.852   5.346 -0.1138  0.0573 -0.5921
  974MOL0     H34399   6.735   3.629   5.307  0.3033  0.8442  1.5236
  974MOL0     H34400   6.825   3.436   5.335 -1.0749  0.4373 -3.7749
  974MOL0     H34401   6.944   3.422   5.204 -0.9343 -0.9387 -0.1665
  974MOL0     H34402   6.953   3.229   5.369  2.9947 -1.1494 -0.4901
  974MOL0     H34403   6.989   3.356   5.483  0.1268  0.0081 -1.1465
  974MOL0     H34404   7.166   3.262   5.249 -2.6849  1.9598 -1.3234
  974MOL0     H34405   7.214   3.392   5.353  1.2032 -0.5961  0.8622
  974MOL0     H34406   7.153   3.121   5.458  2.2315 -0.5780 -2.2612
  974MOL0     H34407   7.214   3.272   5.547  1.8098 -0.4673 -0.0868
  974MOL0     H34408   7.565   3.126   5.394  0.5832 -0.6167  0.9127
  974MOL0     H34409   7.115   3.759   5.389  0.6764 -0.0221  0.3716
  974MOL0     H34410   7.032   4.086   5.502  0.7288 -2.0971  2.7101
  974MOL0     H34411   7.164   3.971   5.438 -1.0008 -2.4175 -0.5981
  974MOL0     H34412   7.094   4.094   5.334 -0.3379 -0.9741 -0.0700
  975MOL0     O34413   9.377   6.950   9.556  0.3089  0.1928  0.5817
  975MOL0     C34414   9.469   7.027   9.539 -0.2096  0.9107 -0.2127
  975MOL0     O34415   9.452   7.158   9.494 -0.5619  0.3128  1.0369
  975MOL0     C34416   9.329   7.205   9.447 -0.1373  0.7904 -0.1191
  975MOL0     C34417   9.297   7.331   9.485  0.1476 -0.1625  0.1476
  975MOL0     C34418   9.172   7.389   9.450 -0.0226  0.7859 -0.8287
  975MOL0     C34419   9.082   7.314   9.373 -0.3917 -0.5319 -0.3627
  975MOL0     O34420   8.961   7.375   9.348 -0.3410 -0.3085 -0.2939
  975MOL0     C34421   8.840   7.295   9.338  0.1864 -1.1980 -0.2948
  975MOL0     C34422   8.722   7.383   9.291 -0.2765  0.1036  0.5025
  975MOL0     C34423   8.691   7.502   9.388 -0.9484 -0.0036  0.5954
  975MOL0     C34424   8.564   7.581   9.344  0.0638  0.0758  0.0485
  975MOL0     C34425   8.530   7.679   9.460  0.1996  0.4151 -0.5288
  975MOL0     C34426   8.376   7.691   9.488  0.4320 -0.0491  0.0675
  975MOL0     C34427   8.322   7.575   9.570  0.7632  0.4230  0.2844
  975MOL0     C34428   8.174   7.597   9.602  0.7629  0.2091 -0.7365
  975MOL0     N34429   8.092   7.476   9.636  0.2884 -1.3979 -0.2860
  975MOL0     C34430   8.105   7.384   9.739 -0.4221  0.3000 -1.0151
  975MOL0     C34431   7.988   7.332   9.758  0.7544  0.6665  0.4996
  975MOL0     C34432   7.962   7.238   9.868 -0.9671  0.4702  0.5734
  975MOL0     C34433   8.055   7.110   9.859  0.5602 -0.6251 -0.2505
  975MOL0     C34434   8.011   7.016   9.969  0.4208 -0.9226  1.4603
  975MOL0     C34435   8.087   6.888   9.974  0.1751  0.7246  0.7549
  975MOL0     O34436   8.200   6.883  10.064 -0.0938  0.3995 -0.0217
  975MOL0     C34437   8.276   6.770  10.084  0.2453 -0.0903 -0.1992
  975MOL0     C34438   8.396   6.787  10.151 -0.2465 -0.3891  0.3381
  975MOL0     C34439   8.475   6.676  10.174 -0.4624 -0.5342 -0.5495
  975MOL0     C34440   8.596   6.691  10.268  0.5250  0.2027  0.2672
  975MOL0     C34441   8.439   6.542  10.138 -0.9936 -0.4146 -0.5640
  975MOL0     C34442   8.519   6.419  10.169  0.6991  0.6029 -0.5940
  975MOL0     O34443   8.449   6.310  10.195  0.4097 -0.2813  0.3447
  975MOL0     C34444   8.527   6.197  10.206  0.3600  0.1916  0.4142
  975MOL0     C34445   8.601   6.127  10.105 -0.6966 -0.9703 -0.0125
  975MOL0     C34446   8.671   6.018  10.132 -0.0239 -0.1954  0.3482
  975MOL0     C34447   8.664   5.961  10.262 -1.1434 -0.1565  0.3321
  975MOL0     O34448   8.730   5.844  10.273  0.3197  0.0137  1.1314
  975MOL0     C34449   8.725   5.784  10.404 -0.0302  0.1277  0.1522
  975MOL0     C34450   8.817   5.666  10.397 -0.3768  0.1938 -0.1811
  975MOL0     C34451   8.783   5.564  10.290  0.6410 -0.5276 -0.2293
  975MOL0     C34452   8.876   5.437  10.301 -0.0496 -0.3504  0.7326
  975MOL0     C34453   8.842   5.330  10.193 -0.0215 -0.4624 -0.5935
  975MOL0     C34454   8.723   5.244  10.242 -0.4373 -0.3662  0.0798
  975MOL0     C34455   8.683   5.142  10.146 -0.2275  0.5904  0.1057
  975MOL0     C34456   8.753   5.002  10.152  0.0720  0.0275  0.2103
  975MOL0    Cl34457   8.790   4.941  10.310 -0.2566  0.1444 -0.4482
  975MOL0     C34458   8.604   6.031  10.366  0.8547 -0.2061 -0.0783
  975MOL0     C34459   8.528   6.146  10.333  0.0616 -0.8565 -0.6497
  975MOL0     O34460   8.641   6.434  10.172  0.4746 -0.0419  0.0556
  975MOL0     C34461   8.313   6.525  10.074 -0.7787  0.4479  0.2508
  975MOL0     C34462   8.235   6.635  10.049  0.1706 -0.0286  0.2602
  975MOL0     N34463   7.903   7.378   9.662  0.2183 -0.5235 -0.0626
  975MOL0     N34464   7.965   7.467   9.595 -0.0295  0.0960 -0.3643
  975MOL0     C34465   9.110   7.181   9.353 -0.4899  0.2580  0.2163
  975MOL0     C34466   9.231   7.120   9.389 -0.0062 -0.0829 -0.0658
  975MOL0     C34467   9.602   6.974   9.568  0.1600 -0.5999 -0.1293
  975MOL0     C34468   9.708   7.066   9.576  0.0770 -0.5756 -0.8473
  975MOL0     C34469   9.845   7.030   9.587 -0.9547  0.2336 -0.9621
  975MOL0     C34470   9.874   6.895   9.579 -1.3665  0.0587 -0.7771
  975MOL0     O34471  10.009   6.865   9.595  0.7641 -0.1923  0.2768
  975MOL0     C34472  10.055   6.729   9.594 -0.5291 -0.3844  0.3207
  975MOL0     C34473  10.011   6.653   9.718  0.7524  0.4297  0.1941
  975MOL0     C34474   9.960   6.737   9.838 -0.1267 -0.2754  1.2236
  975MOL0     C34475   9.988   6.671   9.972 -0.3660 -0.2827 -0.0772
  975MOL0     C34476   9.932   6.533   9.980 -0.3973  0.1885  0.3446
  975MOL0     C34477   9.901   6.415   9.989  0.6313  0.0994 -0.2368
  975MOL0     C34478   9.775   6.802   9.553 -0.2345  0.5262 -0.2463
  975MOL0     C34479   9.638   6.837   9.558  0.0840 -0.1755 -0.3636
  975MOL0     C34480   9.536   6.731   9.537 -0.4168 -0.1432  0.1090
  975MOL0     H34481   9.380   7.382   9.534 -0.6170  1.5810 -0.3095
  975MOL0     H34482   9.171   7.496   9.470  1.0650  0.9211 -1.4429
  975MOL0     H34483   8.834   7.255   9.439 -0.0295  0.3967  0.3525
  975MOL0     H34484   8.855   7.208   9.272 -0.9092 -0.4074 -1.6405
  975MOL0     H34485   8.747   7.433   9.197  0.1614 -2.1128 -0.6332
  975MOL0     H34486   8.631   7.324   9.276  0.1286 -0.3378 -0.3170
  975MOL0     H34487   8.669   7.450   9.481  3.7934  0.2528  2.1717
  975MOL0     H34488   8.787   7.555   9.389 -0.5452 -0.7096  1.5908
  975MOL0     H34489   8.579   7.630   9.248 -1.6036 -0.5473 -0.5660
  975MOL0     H34490   8.481   7.511   9.335  0.6815 -0.9590  1.8536
  975MOL0     H34491   8.572   7.772   9.421 -1.8268  1.4699 -0.3209
  975MOL0     H34492   8.581   7.652   9.552  0.2632 -0.6775 -0.8634
  975MOL0     H34493   8.362   7.786   9.539 -0.0478 -0.7624  1.3031
  975MOL0     H34494   8.320   7.695   9.394  1.1417  1.2880 -0.3322
  975MOL0     H34495   8.376   7.555   9.662  1.7458  0.6044 -0.2403
  975MOL0     H34496   8.328   7.495   9.495 -1.3054  2.8884 -2.8182
  975MOL0     H34497   8.157   7.665   9.686  2.1222 -0.5374  0.1911
  975MOL0     H34498   8.129   7.648   9.517 -1.0672  0.5676  0.3853
  975MOL0     H34499   8.194   7.363   9.798 -1.3346  2.8097  1.5382
  975MOL0     H34500   7.856   7.211   9.877 -0.3846 -2.1961  0.3004
  975MOL0     H34501   7.979   7.293   9.961 -0.2794  0.8110  0.2503
  975MOL0     H34502   8.038   7.063   9.761  0.0684  0.5447 -0.7424
  975MOL0     H34503   8.162   7.132   9.867  1.2111 -2.1266 -3.2881
  975MOL0     H34504   8.022   7.063  10.067  2.2838  1.2689  0.2964
  975MOL0     H34505   7.909   6.989   9.941  0.8126  0.1198 -1.2835
  975MOL0     H34506   8.014   6.815  10.013  1.4377 -1.0754 -0.1124
  975MOL0     H34507   8.133   6.859   9.879 -1.5323  1.0574 -0.2170
  975MOL0     H34508   8.419   6.889  10.180 -1.8267  0.0106  0.2668
  975MOL0     H34509   8.690   6.668  10.216  0.6376 -1.4537  1.1481
  975MOL0     H34510   8.591   6.613  10.345  2.3344 -0.1485  0.0778
  975MOL0     H34511   8.609   6.796  10.297  2.0929  0.4805 -1.2628
  975MOL0     H34512   8.615   6.162  10.003  2.3991 -4.1208 -0.8708
  975MOL0     H34513   8.728   5.965  10.057  1.1723  0.6692  0.6117
  975MOL0     H34514   8.750   5.858  10.480  2.0905  4.0969 -3.9019
  975MOL0     H34515   8.632   5.734  10.431  0.9086 -1.7990  0.0027
  975MOL0     H34516   8.917   5.704  10.373 -0.4757  1.7870  1.6682
  975MOL0     H34517   8.826   5.611  10.492 -1.7025 -3.0398 -1.7773
  975MOL0     H34518   8.802   5.618  10.197  1.9698 -2.0041 -0.8700
  975MOL0     H34519   8.675   5.546  10.290  0.6370 -0.6251  1.5148
  975MOL0     H34520   8.879   5.392  10.400 -0.0723  1.1111  1.4208
  975MOL0     H34521   8.982   5.461  10.286  0.2315 -1.8850  0.0786
  975MOL0     H34522   8.827   5.391  10.104  1.9719  2.0985  0.7006
  975MOL0     H34523   8.925   5.260  10.182 -0.3352 -0.8429 -0.5977
  975MOL0     H34524   8.643   5.317  10.256 -0.0749  0.3276 -1.2881
  975MOL0     H34525   8.741   5.198  10.340 -0.4185  0.5385  0.5174
  975MOL0     H34526   8.671   5.182  10.044 -1.1930  0.6770  0.2448
  975MOL0     H34527   8.577   5.126  10.171 -0.0202 -1.9719 -0.3367
  975MOL0     H34528   8.847   5.001  10.097 -0.0249 -1.1806  0.0399
  975MOL0     H34529   8.685   4.928  10.108  0.6199  0.0998 -0.7758
  975MOL0     H34530   8.607   5.999  10.470 -1.7973  1.0736  0.4863
  975MOL0     H34531   8.487   6.206  10.413  1.2462  0.7428 -1.1956
  975MOL0     H34532   8.279   6.435  10.025  0.6184  0.5677 -1.0096
  975MOL0     H34533   8.144   6.620   9.991  1.3707  0.1568 -1.7519
  975MOL0     H34534   9.033   7.115   9.315 -0.1781  0.0659 -0.0883
  975MOL0     H34535   9.248   7.014   9.375  2.6434 -0.0526  2.1310
  975MOL0     H34536   9.692   7.174   9.572  2.0156 -0.2619 -1.2993
  975MOL0     H34537   9.918   7.110   9.592  1.7058 -2.0849  0.1140
  975MOL0     H34538  10.021   6.677   9.505 -2.7790  0.9526  0.3166
  975MOL0     H34539  10.162   6.742   9.573 -0.8453  0.1834 -1.0564
  975MOL0     H34540  10.088   6.584   9.753  0.6726  0.1633 -0.1462
  975MOL0     H34541   9.935   6.580   9.687  2.6164 -1.1994 -0.8075
  975MOL0     H34542   9.999   6.839   9.836 -0.7634  0.0079 -1.7811
  975MOL0     H34543   9.851   6.747   9.831 -0.0014  1.4169  1.3507
  975MOL0     H34544   9.939   6.734  10.047 -1.4583 -1.5459  0.3137
  975MOL0     H34545  10.096   6.673   9.986 -0.4305 -1.1349  0.6384
  975MOL0     H34546   9.881   6.311  10.006 -0.2243  0.2205 -0.4609
  975MOL0     H34547   9.797   6.699   9.524 -2.9845  0.1793 -1.3527
  975MOL0     H34548   9.468   6.730   9.623  0.3789 -2.9413  0.8182
  975MOL0     H34549   9.477   6.742   9.446  0.6632  0.2683 -0.5582
  975MOL0     H34550   9.595   6.638   9.536  1.2848  0.8828  0.6112
  976MOL0     O34551   0.692   4.978   3.487 -0.2847  0.1555 -0.0999
  976MOL0     C34552   0.700   5.002   3.608 -0.1986 -0.3520 -0.0688
  976MOL0     O34553   0.823   5.027   3.676 -0.2864 -0.4095  0.3186
  976MOL0     C34554   0.934   4.995   3.599  0.0255 -0.6444  0.2839
  976MOL0     C34555   0.977   4.861   3.576 -0.3930  0.2437 -0.6598
  976MOL0     C34556   1.089   4.836   3.502 -0.2701 -0.3470 -0.3756
  976MOL0     C34557   1.172   4.940   3.459  0.2862 -0.0948  1.2283
  976MOL0     O34558   1.274   4.894   3.384 -0.2340 -0.9726  0.1406
  976MOL0     C34559   1.297   4.977   3.266 -0.1359 -0.1004 -0.4004
  976MOL0     C34560   1.363   4.881   3.161 -0.3134 -0.5534  0.1793
  976MOL0     C34561   1.520   4.862   3.176  0.3511 -0.8466 -0.0966
  976MOL0     C34562   1.579   4.740   3.108 -1.2636  0.7528  0.7198
  976MOL0     C34563   1.730   4.758   3.098 -1.3626  0.3919  0.1299
  976MOL0     C34564   1.807   4.660   3.005  0.0483 -0.4071  0.8656
  976MOL0     C34565   1.792   4.517   3.063 -0.4908 -0.5739 -0.1628
  976MOL0     C34566   1.869   4.418   2.972 -0.5884  0.1860  0.1060
  976MOL0     N34567   1.788   4.358   2.862  0.9244  0.7065 -0.7085
  976MOL0     C34568   1.762   4.414   2.739  0.0638  0.8622 -0.0051
  976MOL0     C34569   1.688   4.325   2.664  0.1835 -0.0520 -0.0228
  976MOL0     C34570   1.663   4.328   2.520  0.4092 -0.2387 -0.7220
  976MOL0     C34571   1.773   4.261   2.435  0.3281  0.3437  0.7032
  976MOL0     C34572   1.800   4.114   2.457  0.2218 -0.4400 -0.3549
  976MOL0     C34573   1.919   4.078   2.356  0.4586 -0.0973  0.3323
  976MOL0     O34574   1.927   3.935   2.350  0.9447  0.0245 -0.1896
  976MOL0     C34575   2.041   3.882   2.306 -0.6359 -0.0243 -0.3313
  976MOL0     C34576   2.150   3.952   2.242  0.0759 -0.2280 -0.6668
  976MOL0     C34577   2.264   3.882   2.207  0.0688  0.2622  0.0589
  976MOL0     C34578   2.377   3.968   2.143 -0.6370  0.5990 -0.4859
  976MOL0     C34579   2.286   3.750   2.254 -0.0322 -0.1010  0.4334
  976MOL0     C34580   2.421   3.678   2.255  0.4038 -0.3639 -0.4710
  976MOL0     O34581   2.421   3.567   2.329  0.1457 -0.1783 -0.4206
  976MOL0     C34582   2.540   3.496   2.346 -0.0484  0.0243 -0.2356
  976MOL0     C34583   2.644   3.531   2.432  0.1192  0.0717  0.6584
  976MOL0     C34584   2.758   3.447   2.446 -0.6079 -0.5379 -0.5778
  976MOL0     C34585   2.768   3.331   2.365  0.0054 -0.7651 -0.3564
  976MOL0     O34586   2.876   3.251   2.349  0.4657  0.6196 -0.0500
  976MOL0     C34587   2.972   3.235   2.455  0.1947  0.0081 -0.0058
  976MOL0     C34588   3.044   3.097   2.419 -0.1190  0.7138  0.9248
  976MOL0     C34589   3.142   3.050   2.530  0.4903  0.3537  0.9095
  976MOL0     C34590   3.289   3.055   2.481  0.9245 -0.6779  0.4832
  976MOL0     C34591   3.337   3.192   2.418  0.3926  0.2917  0.2861
  976MOL0     C34592   3.487   3.175   2.380  0.8098 -0.1403 -0.2000
  976MOL0     C34593   3.556   3.301   2.371 -0.2770 -0.1536 -0.4596
  976MOL0     C34594   3.696   3.272   2.330 -0.6245 -0.7645  1.0287
  976MOL0    Cl34595   3.795   3.427   2.321 -0.2567 -0.2132  0.3274
  976MOL0     C34596   2.651   3.289   2.290 -0.7053  0.0649 -0.3831
  976MOL0     C34597   2.545   3.374   2.277  0.5538  0.1595 -0.4708
  976MOL0     O34598   2.521   3.716   2.183  0.0796  0.3279 -0.4800
  976MOL0     C34599   2.184   3.681   2.314  0.3534  0.7193  0.0816
  976MOL0     C34600   2.063   3.749   2.331 -0.2123  0.5203 -0.0642
  976MOL0     N34601   1.661   4.219   2.757 -1.2750 -0.2467  0.0799
  976MOL0     N34602   1.726   4.235   2.871  0.7141 -0.8600  0.0129
  976MOL0     C34603   1.146   5.067   3.505 -0.3952 -0.4662 -0.0324
  976MOL0     C34604   1.026   5.096   3.567  1.1357 -0.7374  0.0782
  976MOL0     C34605   0.581   4.999   3.689  0.3560  0.9291 -0.4047
  976MOL0     C34606   0.579   4.954   3.822 -1.0100  0.3111 -0.3923
  976MOL0     C34607   0.468   4.944   3.899  0.3943 -0.7251 -0.2656
  976MOL0     C34608   0.345   4.990   3.857  0.4859  0.3602  0.5608
  976MOL0     O34609   0.244   4.977   3.945 -0.7954  0.1593 -0.3404
  976MOL0     C34610   0.127   5.050   3.934 -0.2388  0.1009  0.9732
  976MOL0     C34611   0.090   5.112   4.058 -0.3069 -0.2886 -0.5752
  976MOL0     C34612  -0.048   5.173   4.041  0.7392  0.2398  0.6386
  976MOL0     C34613  -0.060   5.291   3.937  1.6947 -0.4323 -0.3271
  976MOL0     C34614   0.016   5.412   3.965 -0.6705 -0.4985 -0.6518
  976MOL0     C34615   0.100   5.500   3.975 -0.0135  0.4282  0.3349
  976MOL0     C34616   0.339   5.031   3.722  0.1344  0.0701 -0.6159
  976MOL0     C34617   0.452   5.024   3.635  0.1950  0.3805 -0.6439
  976MOL0     C34618   0.430   5.053   3.488 -0.2993 -0.0940  0.5197
  976MOL0     H34619   0.912   4.780   3.607  0.7019 -1.0497 -1.6070
  976MOL0     H34620   1.114   4.736   3.470  2.5220 -0.0400  0.5793
  976MOL0     H34621   1.364   5.058   3.295 -1.5724  1.9695 -2.5134
  976MOL0     H34622   1.200   5.016   3.234 -1.8316 -2.1220  1.8735
  976MOL0     H34623   1.313   4.783   3.160 -0.6795 -0.3682  0.3053
  976MOL0     H34624   1.339   4.927   3.064 -1.1497 -1.1484  0.0835
  976MOL0     H34625   1.561   4.953   3.132 -1.3135 -0.3848 -0.7754
  976MOL0     H34626   1.546   4.856   3.282 -0.6898 -1.9518  0.1226
  976MOL0     H34627   1.559   4.644   3.157 -3.0622  0.6591 -0.1580
  976MOL0     H34628   1.544   4.734   3.005  0.1342 -0.6957  0.2831
  976MOL0     H34629   1.769   4.740   3.199 -1.9625 -1.5580  0.0459
  976MOL0     H34630   1.756   4.859   3.066 -2.9973  0.4477 -1.1763
  976MOL0     H34631   1.784   4.672   2.898  4.8830 -1.3979 -0.5237
  976MOL0     H34632   1.914   4.683   3.006 -0.1445  0.5386  1.4374
  976MOL0     H34633   1.689   4.482   3.062  0.2694 -3.3278  1.8919
  976MOL0     H34634   1.832   4.527   3.165 -0.4736  1.6362 -0.3362
  976MOL0     H34635   1.951   4.469   2.920  0.0506 -1.2942 -0.3909
  976MOL0     H34636   1.920   4.348   3.038  0.6298  1.1951  0.2633
  976MOL0     H34637   1.807   4.505   2.703 -1.1190  1.9654  1.2064
  976MOL0     H34638   1.647   4.433   2.491 -2.1587 -0.7037 -1.1484
  976MOL0     H34639   1.567   4.279   2.506 -0.5917  1.1543  0.8692
  976MOL0     H34640   1.749   4.267   2.328  1.0438 -1.1775  0.4303
  976MOL0     H34641   1.872   4.307   2.446  1.1138 -0.0566 -3.0664
  976MOL0     H34642   1.822   4.088   2.561  0.2483  0.7031 -0.0665
  976MOL0     H34643   1.716   4.049   2.428 -0.7989 -0.1720  1.8335
  976MOL0     H34644   1.907   4.116   2.254  0.4507 -0.1192  0.3254
  976MOL0     H34645   2.008   4.112   2.410  2.0004 -3.0585 -0.1571
  976MOL0     H34646   2.145   4.061   2.242 -1.6108 -0.2748 -1.1306
  976MOL0     H34647   2.454   3.990   2.217 -1.9827  3.7374  0.1523
  976MOL0     H34648   2.337   4.066   2.113 -4.6296 -0.4540  0.7360
  976MOL0     H34649   2.412   3.917   2.053 -4.4487 -1.0867 -1.2350
  976MOL0     H34650   2.626   3.623   2.487 -0.4054  1.4452 -1.6568
  976MOL0     H34651   2.841   3.463   2.515 -1.6414  2.0504  0.1851
  976MOL0     H34652   3.043   3.319   2.454 -0.1883  0.3663  1.3014
  976MOL0     H34653   2.917   3.226   2.549 -1.1084  1.6776 -0.5729
  976MOL0     H34654   2.962   3.027   2.400  0.6750  0.4717 -1.9871
  976MOL0     H34655   3.097   3.104   2.324  1.9182 -1.9514  1.7320
  976MOL0     H34656   3.126   2.943   2.545  1.2379 -0.2391 -1.8629
  976MOL0     H34657   3.131   3.114   2.619  1.4321  1.2584  0.4053
  976MOL0     H34658   3.287   2.994   2.390  0.7914 -0.3973  0.2941
  976MOL0     H34659   3.359   3.005   2.548 -2.3438 -2.0380  3.1685
  976MOL0     H34660   3.289   3.219   2.323  3.5734  1.3420 -1.1458
  976MOL0     H34661   3.315   3.279   2.481  1.2349 -0.1782  1.2554
  976MOL0     H34662   3.496   3.122   2.285 -1.7312  1.3516 -1.3765
  976MOL0     H34663   3.541   3.115   2.454  0.1417 -0.8982 -0.3018
  976MOL0     H34664   3.553   3.345   2.472 -0.5513 -0.7223 -0.2143
  976MOL0     H34665   3.502   3.363   2.299 -1.3757  3.9261  3.3678
  976MOL0     H34666   3.684   3.235   2.228 -0.0125  3.4118 -0.7366
  976MOL0     H34667   3.753   3.189   2.374  0.6368 -1.3942 -1.5759
  976MOL0     H34668   2.649   3.193   2.239 -0.0404  0.0017 -0.2927
  976MOL0     H34669   2.450   3.349   2.231  0.6900  0.8435 -1.1395
  976MOL0     H34670   2.185   3.577   2.345  0.1506  1.0567  1.2590
  976MOL0     H34671   1.991   3.684   2.380  0.9901  1.5922  3.4644
  976MOL0     H34672   1.207   5.152   3.476  2.0734 -3.2934 -4.2775
  976MOL0     H34673   1.012   5.202   3.585  0.4290 -0.6339 -0.9633
  976MOL0     H34674   0.668   4.925   3.876 -1.2906  1.2247  0.5889
  976MOL0     H34675   0.474   4.909   4.002 -1.5530  0.3482  0.2661
  976MOL0     H34676   0.139   5.126   3.856 -1.4278 -1.5971 -0.9884
  976MOL0     H34677   0.047   4.982   3.903 -2.7931  1.5513  3.9291
  976MOL0     H34678   0.168   5.177   4.099 -0.8557 -1.3002  2.2948
  976MOL0     H34679   0.076   5.028   4.127 -0.9034 -0.8735 -1.3926
  976MOL0     H34680  -0.121   5.098   4.008 -1.9339  2.2409  1.6168
  976MOL0     H34681  -0.080   5.203   4.141  0.4664 -1.9534  1.2802
  976MOL0     H34682  -0.162   5.327   3.924  0.9019 -2.3387  0.2180
  976MOL0     H34683  -0.035   5.269   3.833  1.1615  1.1415 -0.8230
  976MOL0     H34684   0.180   5.572   3.973  0.7744 -0.4318 -1.0504
  976MOL0     H34685   0.244   5.049   3.672 -1.0672  1.3507  1.9720
  976MOL0     H34686   0.505   5.121   3.447 -1.0323 -1.3752 -3.3234
  976MOL0     H34687   0.429   4.962   3.427  1.3027  1.6574 -2.3185
  976MOL0     H34688   0.334   5.101   3.468  0.2091  0.2484 -1.3386
  977MOL0     O34689   8.007  10.213   4.163  0.3170 -0.7355  0.1830
  977MOL0     C34690   8.069  10.317   4.183 -0.2765  0.5759  0.0244
  977MOL0     O34691   8.200  10.330   4.185 -0.6975 -0.2283  0.2405
  977MOL0     C34692   8.293  10.226   4.165  1.1574 -0.1547 -0.3678
  977MOL0     C34693   8.396  10.244   4.073  0.3322 -0.2645 -0.8320
  977MOL0     C34694   8.493  10.147   4.048  0.1112 -0.7065 -1.0564
  977MOL0     C34695   8.471  10.015   4.105  1.2587  0.2686  0.1448
  977MOL0     O34696   8.552   9.907   4.075 -0.4406 -0.3189  0.5738
  977MOL0     C34697   8.691   9.923   4.025  0.4796  0.0595  0.7428
  977MOL0     C34698   8.791   9.815   4.078  0.0483 -0.1631  0.2244
  977MOL0     C34699   8.773   9.670   4.042  0.0319  0.2608 -0.3768
  977MOL0     C34700   8.786   9.619   3.896 -0.0263 -0.7350  0.0989
  977MOL0     C34701   8.730   9.479   3.884 -0.2017  0.1162  0.6347
  977MOL0     C34702   8.758   9.403   3.750  1.4315  1.1121  0.2443
  977MOL0     C34703   8.705   9.257   3.757  0.0864 -0.0454  0.3137
  977MOL0     C34704   8.726   9.172   3.636  0.1541 -0.8596  0.9329
  977MOL0     N34705   8.864   9.126   3.632 -1.0543  1.0893  0.0202
  977MOL0     C34706   8.928   9.067   3.738 -0.5216 -1.0734  0.0614
  977MOL0     C34707   9.039   9.009   3.684 -0.0502 -0.1306 -0.1718
  977MOL0     C34708   9.124   8.910   3.762  0.5571  0.2018  0.1878
  977MOL0     C34709   9.267   8.898   3.706  0.3926 -0.6330  0.0254
  977MOL0     C34710   9.352   8.808   3.797 -0.0544  0.7876 -0.0781
  977MOL0     C34711   9.496   8.800   3.749  0.0948  0.1814  0.3600
  977MOL0     O34712   9.542   8.668   3.789  0.0175  0.0176 -0.3963
  977MOL0     C34713   9.670   8.622   3.770 -0.0491 -0.2027  0.2379
  977MOL0     C34714   9.769   8.706   3.712 -0.8433  0.1796 -0.8366
  977MOL0     C34715   9.892   8.658   3.660  0.1250  0.1781 -0.9990
  977MOL0     C34716   9.970   8.754   3.586  0.6227 -0.0825  0.0737
  977MOL0     C34717   9.929   8.521   3.692  0.4475  0.1136 -0.5238
  977MOL0     C34718  10.056   8.457   3.644 -0.0027 -0.7650  0.1301
  977MOL0     O34719  10.144   8.537   3.579  0.8618  0.0549 -0.0891
  977MOL0     C34720  10.277   8.501   3.548 -0.9841  0.9908 -0.0943
  977MOL0     C34721  10.345   8.607   3.509 -0.1155 -1.1783  0.1657
  977MOL0     C34722  10.483   8.596   3.477  0.3884  0.6828  0.3199
  977MOL0     C34723  10.552   8.481   3.478  0.1107  0.7142 -0.3060
  977MOL0     O34724  10.686   8.471   3.444  0.4047 -0.0538 -0.7685
  977MOL0     C34725  10.730   8.367   3.357  0.7878  0.4436  0.8302
  977MOL0     C34726  10.876   8.402   3.313  0.7438  0.0710  0.1520
  977MOL0     C34727  10.908   8.522   3.226  0.5081  0.0168 -0.1011
  977MOL0     C34728  10.801   8.550   3.120 -0.3668 -0.7133 -0.4025
  977MOL0     C34729  10.849   8.648   3.012 -0.2942 -0.5411 -0.1572
  977MOL0     C34730  10.738   8.705   2.931 -0.6928 -0.8185  0.9100
  977MOL0     C34731  10.684   8.594   2.838  0.7574 -0.1797  0.2723
  977MOL0     C34732  10.597   8.659   2.733 -0.2317 -0.5665  0.0004
  977MOL0    Cl34733  10.696   8.764   2.641  0.2752 -0.4480 -0.2155
  977MOL0     C34734  10.475   8.361   3.512 -0.6166  0.7290  0.8873
  977MOL0     C34735  10.344   8.377   3.556  0.3008 -1.0500 -0.3818
  977MOL0     O34736  10.072   8.336   3.677  0.6436  0.4651 -0.4279
  977MOL0     C34737   9.838   8.436   3.764 -0.4762  0.7383 -0.5838
  977MOL0     C34738   9.705   8.482   3.792 -0.6447 -0.7999  0.6028
  977MOL0     N34739   9.047   9.049   3.552 -0.2315 -0.6172  1.0581
  977MOL0     N34740   8.946   9.126   3.527  0.1918  0.7711  0.4004
  977MOL0     C34741   8.364  10.001   4.189  0.1584 -0.3731 -0.3630
  977MOL0     C34742   8.279  10.102   4.228 -0.2504  0.3180 -0.6778
  977MOL0     C34743   7.984  10.442   4.194 -0.0592  0.6213  0.8199
  977MOL0     C34744   7.874  10.447   4.117  0.2485  0.0573  0.1071
  977MOL0     C34745   7.794  10.566   4.115  0.2590 -0.3226 -0.2470
  977MOL0     C34746   7.830  10.671   4.204  0.3888  0.1047  0.0082
  977MOL0     O34747   7.752  10.787   4.225 -0.3243 -0.4758 -0.1498
  977MOL0     C34748   7.615  10.762   4.230  0.8441 -0.6896  0.6399
  977MOL0     C34749   7.559  10.690   4.351 -0.0040  0.6323  0.3570
  977MOL0     C34750   7.412  10.656   4.347  0.5815  0.1844  0.2939
  977MOL0     C34751   7.369  10.619   4.495 -0.5565 -0.4882  0.2339
  977MOL0     C34752   7.229  10.587   4.516  0.1684  0.5261 -0.0060
  977MOL0     C34753   7.109  10.559   4.519  0.4839  0.3696 -0.5142
  977MOL0     C34754   7.945  10.659   4.282  0.6054  0.4760 -0.1093
  977MOL0     C34755   8.025  10.548   4.274 -1.2249  0.5533  0.2507
  977MOL0     C34756   8.149  10.554   4.361 -0.2092 -0.0144  0.3308
  977MOL0     H34757   8.405  10.342   4.026  0.4870 -0.1689 -0.6028
  977MOL0     H34758   8.577  10.177   3.986 -0.6313 -0.2177 -1.8503
  977MOL0     H34759   8.727  10.021   4.061 -0.9984  0.7526  0.4052
  977MOL0     H34760   8.687   9.930   3.916 -0.6663 -1.2073  0.6855
  977MOL0     H34761   8.890   9.848   4.047  0.4012 -1.8729 -0.5643
  977MOL0     H34762   8.772   9.826   4.185 -3.2093  1.9591 -0.4377
  977MOL0     H34763   8.838   9.610   4.106 -0.6222  1.0674  1.1055
  977MOL0     H34764   8.672   9.643   4.074  0.6971  0.8473  2.5613
  977MOL0     H34765   8.732   9.683   3.825  1.3488 -0.6184 -0.8941
  977MOL0     H34766   8.891   9.627   3.866 -0.5552  0.4510 -1.5892
  977MOL0     H34767   8.625   9.477   3.912 -0.0765  1.4469  1.2754
  977MOL0     H34768   8.769   9.416   3.965  2.3487 -1.2828 -1.5137
  977MOL0     H34769   8.721   9.458   3.664  3.6648  1.9405 -0.2576
  977MOL0     H34770   8.864   9.387   3.728  0.8447  0.6830 -2.6435
  977MOL0     H34771   8.598   9.255   3.779  0.2496 -1.5773  1.0485
  977MOL0     H34772   8.749   9.193   3.834 -2.1482 -0.3747  1.3809
  977MOL0     H34773   8.666   9.080   3.630 -0.0152 -0.6633 -1.7818
  977MOL0     H34774   8.700   9.228   3.547  2.2943  1.7553  1.8199
  977MOL0     H34775   8.882   9.049   3.835 -0.5380 -1.5348 -0.0312
  977MOL0     H34776   9.083   8.809   3.767 -0.7285  0.6743  6.3041
  977MOL0     H34777   9.120   8.942   3.866  3.1575  1.9138 -0.1413
  977MOL0     H34778   9.264   8.847   3.609  2.0741 -0.3639 -0.2056
  977MOL0     H34779   9.302   9.001   3.704  0.7674 -0.4043  5.1854
  977MOL0     H34780   9.350   8.844   3.901 -0.7240 -1.1535  0.6300
  977MOL0     H34781   9.304   8.710   3.792 -0.0204  0.8378 -3.2639
  977MOL0     H34782   9.508   8.805   3.640  1.7669  1.6521  0.5574
  977MOL0     H34783   9.549   8.887   3.790  0.8505  1.3684 -2.8109
  977MOL0     H34784   9.736   8.809   3.700 -1.7592 -0.2130 -1.9115
  977MOL0     H34785  10.066   8.767   3.637 -1.4166  3.4398  3.5545
  977MOL0     H34786   9.919   8.850   3.594 -2.4789 -1.5572 -0.5417
  977MOL0     H34787   9.977   8.722   3.481  1.7925 -0.4733  0.2551
  977MOL0     H34788  10.296   8.704   3.511  0.8058 -0.6636  2.6470
  977MOL0     H34789  10.528   8.690   3.447  3.5435 -0.9396 -0.3334
  977MOL0     H34790  10.737   8.273   3.412 -0.2041  1.1438  2.2266
  977MOL0     H34791  10.659   8.363   3.274  2.3281  2.5470 -0.7072
  977MOL0     H34792  10.945   8.418   3.396 -0.2897  3.2868  0.5192
  977MOL0     H34793  10.910   8.319   3.250 -1.5101  0.7956 -2.2124
  977MOL0     H34794  11.006   8.510   3.179  0.3638 -1.3939 -0.0885
  977MOL0     H34795  10.937   8.608   3.288  1.3904  0.7410 -1.4734
  977MOL0     H34796  10.702   8.584   3.152  1.3472  3.3372  1.3266
  977MOL0     H34797  10.776   8.456   3.071 -0.4944 -1.6048  1.2743
  977MOL0     H34798  10.896   8.729   3.068  0.6846 -0.6411 -0.7897
  977MOL0     H34799  10.926   8.592   2.956 -0.8653 -3.0167  1.3519
  977MOL0     H34800  10.766   8.798   2.881 -4.2933  0.0179  0.1361
  977MOL0     H34801  10.650   8.739   2.988  0.4130  3.3968  0.4487
  977MOL0     H34802  10.619   8.515   2.879 -0.4333  0.2404 -0.7314
  977MOL0     H34803  10.761   8.530   2.795  0.7465 -0.0465  0.0550
  977MOL0     H34804  10.507   8.711   2.768 -1.3815 -2.7809  0.5097
  977MOL0     H34805  10.565   8.587   2.657 -0.2779 -1.6538  1.0379
  977MOL0     H34806  10.518   8.264   3.534 -1.2485 -0.1782 -1.5295
  977MOL0     H34807  10.298   8.294   3.608  2.6528 -1.8564  0.5852
  977MOL0     H34808   9.875   8.337   3.785  3.3343  2.2759  0.9462
  977MOL0     H34809   9.642   8.398   3.820  2.2988 -3.4797 -0.1617
  977MOL0     H34810   8.360   9.900   4.228 -0.4061 -0.4385 -0.5859
  977MOL0     H34811   8.204  10.069   4.299  1.3428 -1.9795  0.0752
  977MOL0     H34812   7.854  10.363   4.050 -1.0845  0.0769  0.4509
  977MOL0     H34813   7.719  10.583   4.038 -0.7908 -0.0318  0.8107
  977MOL0     H34814   7.559  10.855   4.238  0.5078 -0.7262 -1.0187
  977MOL0     H34815   7.581  10.721   4.135  2.4063 -0.6752  0.0363
  977MOL0     H34816   7.583  10.749   4.440 -1.0848  0.2592  0.9083
  977MOL0     H34817   7.609  10.594   4.362 -0.0448  0.1073 -3.0437
  977MOL0     H34818   7.348  10.736   4.310 -0.0823 -0.1564  0.6884
  977MOL0     H34819   7.404  10.566   4.286  1.5361  0.7671 -0.7163
  977MOL0     H34820   7.387  10.708   4.556  0.4025 -0.4127 -0.1481
  977MOL0     H34821   7.428  10.537   4.537 -1.6768 -1.3817  0.1018
  977MOL0     H34822   7.007  10.532   4.534  1.2421 -2.3777  0.1901
  977MOL0     H34823   7.970  10.750   4.335  0.4459  0.6403 -0.3190
  977MOL0     H34824   8.243  10.512   4.325 -0.9048 -0.1473 -1.4501
  977MOL0     H34825   8.167  10.659   4.383  2.1316 -0.5115  1.0627
  977MOL0     H34826   8.130  10.505   4.457  1.2512 -0.7635  0.2711
  978MOL0     O34827  10.921   4.774   9.382  0.3119  0.3493  0.7038
  978MOL0     C34828  10.835   4.825   9.313  0.2626  0.3046  0.0978
  978MOL0     O34829  10.847   4.949   9.250 -0.2652  0.0223 -0.3761
  978MOL0     C34830  10.955   5.021   9.283 -0.6403 -0.9221 -0.4604
  978MOL0     C34831  10.939   5.140   9.345  0.0502 -0.4062 -0.2714
  978MOL0     C34832  11.044   5.228   9.362 -1.3013  0.2690 -0.8277
  978MOL0     C34833  11.169   5.200   9.320 -0.2027 -0.0435 -0.8590
  978MOL0     O34834  11.264   5.302   9.332  0.3289  0.0529  0.9178
  978MOL0     C34835  11.330   5.337   9.209  0.6861  0.2843  0.7834
  978MOL0     C34836  11.423   5.457   9.239 -0.1601 -0.4121 -0.4020
  978MOL0     C34837  11.513   5.446   9.363  0.1058 -0.1879  0.3820
  978MOL0     C34838  11.628   5.549   9.363  0.3786 -0.0932 -0.2213
  978MOL0     C34839  11.715   5.510   9.479 -0.7306  0.0654  0.3046
  978MOL0     C34840  11.828   5.616   9.497 -0.2983 -0.2949 -0.0917
  978MOL0     C34841  11.770   5.756   9.539 -0.0604  0.2141  0.1372
  978MOL0     C34842  11.805   5.870   9.448  0.4451 -0.1721 -0.5139
  978MOL0     N34843  11.952   5.892   9.423  1.1077  0.3916 -0.9609
  978MOL0     C34844  12.010   5.911   9.299  0.8738 -0.0259 -0.2124
  978MOL0     C34845  12.145   5.924   9.337 -0.1022  1.1680 -0.3684
  978MOL0     C34846  12.255   5.960   9.244 -0.1478 -0.3989  0.2862
  978MOL0     C34847  12.361   6.063   9.297  0.4011 -0.8418 -0.7073
  978MOL0     C34848  12.303   6.199   9.264  0.0915 -0.1690 -0.3126
  978MOL0     C34849  12.395   6.318   9.274 -0.0759  0.7567  0.1706
  978MOL0     O34850  12.484   6.302   9.162  0.3826 -0.3754 -0.0168
  978MOL0     C34851  12.589   6.386   9.149  0.6809 -0.7176  0.5058
  978MOL0     C34852  12.610   6.505   9.223 -0.0745 -0.2196  0.2914
  978MOL0     C34853  12.725   6.587   9.205 -0.5012  0.4090  0.5197
  978MOL0     C34854  12.733   6.715   9.280  0.4283 -0.1679  0.6416
  978MOL0     C34855  12.825   6.549   9.110 -0.3528  0.4361  0.3514
  978MOL0     C34856  12.947   6.619   9.087 -0.4391  0.0871 -0.1614
  978MOL0     O34857  13.007   6.667   9.201 -0.0232  0.1206 -0.0253
  978MOL0     C34858  13.109   6.755   9.191 -0.4845 -0.7334  0.2244
  978MOL0     C34859  13.235   6.716   9.138 -0.0501 -0.8423  0.0051
  978MOL0     C34860  13.339   6.816   9.123  0.9743 -0.4104  0.5792
  978MOL0     C34861  13.322   6.954   9.151 -0.2824  0.3414 -0.7724
  978MOL0     O34862  13.427   7.039   9.132  0.9198  0.2334 -0.4609
  978MOL0     C34863  13.396   7.167   9.073 -0.3042  1.0317 -0.1406
  978MOL0     C34864  13.385   7.282   9.178  0.1103  0.7445  0.3349
  978MOL0     C34865  13.521   7.345   9.228 -0.3008  0.2857  0.4407
  978MOL0     C34866  13.578   7.410   9.106 -0.3112 -0.2258  0.1598
  978MOL0     C34867  13.711   7.479   9.119  0.0884 -0.1600 -0.4236
  978MOL0     C34868  13.767   7.494   8.981  0.3536 -0.2346 -0.1771
  978MOL0     C34869  13.876   7.596   8.988 -0.0867 -0.6015 -0.0951
  978MOL0     C34870  13.926   7.629   8.854 -1.1511 -0.1864  0.1510
  978MOL0    Cl34871  14.024   7.490   8.778 -0.0561  0.3219 -0.1621
  978MOL0     C34872  13.189   6.995   9.184  1.5436 -1.1037  0.1159
  978MOL0     C34873  13.086   6.899   9.209  0.9328  0.8360 -0.0203
  978MOL0     O34874  12.992   6.635   8.974  0.8919 -0.7233 -0.3864
  978MOL0     C34875  12.806   6.425   9.031  0.5082 -0.0578 -0.1774
  978MOL0     C34876  12.684   6.356   9.054 -0.5965 -0.3553  0.4524
  978MOL0     N34877  12.162   5.909   9.471  0.7332  0.3085 -0.3038
  978MOL0     N34878  12.047   5.888   9.517  0.1684  0.1663 -1.1496
  978MOL0     C34879  11.197   5.073   9.266  0.4973  1.0695 -0.7109
  978MOL0     C34880  11.088   4.990   9.239  0.4342  0.5111  0.1957
  978MOL0     C34881  10.713   4.737   9.295 -0.0936 -0.5727  0.4940
  978MOL0     C34882  10.693   4.625   9.389  0.0269  0.6038  0.8650
  978MOL0     C34883  10.580   4.542   9.390  0.2723  0.3502  0.6414
  978MOL0     C34884  10.482   4.561   9.291 -0.1445 -0.9916 -0.3272
  978MOL0     O34885  10.380   4.475   9.278  0.0409 -1.1270 -0.0822
  978MOL0     C34886  10.277   4.494   9.369  0.4554 -0.6467  0.3679
  978MOL0     C34887  10.254   4.353   9.415 -0.8931 -0.1687  0.4936
  978MOL0     C34888  10.139   4.333   9.519 -0.4918 -0.3646 -0.4586
  978MOL0     C34889  10.000   4.371   9.486  0.9852 -0.4401  0.8981
  978MOL0     C34890   9.940   4.275   9.394  0.2264  0.3771 -0.1990
  978MOL0     C34891   9.892   4.189   9.317 -0.0840 -0.4108 -0.0043
  978MOL0     C34892  10.509   4.656   9.191  0.0271  0.3708 -0.0995
  978MOL0     C34893  10.619   4.751   9.190  0.4183  0.6173 -0.4535
  978MOL0     C34894  10.617   4.870   9.084 -0.1271 -0.3598  0.4085
  978MOL0     H34895  10.840   5.173   9.375  0.2162  1.4612 -1.5514
  978MOL0     H34896  11.015   5.323   9.405 -2.3792 -0.5966  0.4150
  978MOL0     H34897  11.260   5.377   9.135  2.4819  1.3684 -0.4083
  978MOL0     H34898  11.385   5.254   9.162  1.1727  1.6193 -1.1373
  978MOL0     H34899  11.485   5.477   9.151 -1.4037  0.0006 -1.2094
  978MOL0     H34900  11.377   5.554   9.261 -1.4508 -0.7205 -1.6647
  978MOL0     H34901  11.459   5.464   9.457  0.7071  3.4223  0.2019
  978MOL0     H34902  11.550   5.343   9.368 -1.5073 -0.7337  2.3081
  978MOL0     H34903  11.688   5.538   9.273  0.9417 -0.5903  0.2098
  978MOL0     H34904  11.600   5.655   9.362  5.5917  1.5431 -1.0787
  978MOL0     H34905  11.760   5.411   9.473 -0.1141  0.2157  1.9765
  978MOL0     H34906  11.648   5.508   9.565 -2.7851 -1.2099 -1.2049
  978MOL0     H34907  11.901   5.570   9.564  3.7870  1.3069 -3.0144
  978MOL0     H34908  11.884   5.631   9.405  0.9343 -0.8887  0.5361
  978MOL0     H34909  11.813   5.778   9.637  1.5421  1.8349 -0.8944
  978MOL0     H34910  11.661   5.747   9.549  0.0743  0.3333  1.9397
  978MOL0     H34911  11.750   5.840   9.359 -3.2996  0.7597  1.3024
  978MOL0     H34912  11.778   5.965   9.494  2.5046  0.0907  0.2727
  978MOL0     H34913  11.964   5.918   9.201 -0.4953  0.4359  0.4297
  978MOL0     H34914  12.215   5.998   9.149  1.9016 -2.3573 -1.4707
  978MOL0     H34915  12.314   5.871   9.223  2.1452  0.5097  2.2575
  978MOL0     H34916  12.378   6.062   9.405 -0.8955 -0.4919 -0.4734
  978MOL0     H34917  12.458   6.060   9.248 -0.6695  2.1506 -3.2825
  978MOL0     H34918  12.271   6.201   9.160  2.8398  1.2467 -1.2222
  978MOL0     H34919  12.214   6.210   9.326  0.2053 -1.5358  0.1473
  978MOL0     H34920  12.334   6.404   9.244  0.0554  0.0400 -2.3336
  978MOL0     H34921  12.444   6.328   9.372  1.8362 -0.6390 -0.5899
  978MOL0     H34922  12.532   6.526   9.296 -1.3305 -1.5529 -0.6134
  978MOL0     H34923  12.631   6.747   9.302  0.2423 -0.1675 -0.2086
  978MOL0     H34924  12.783   6.794   9.224 -1.3228  1.4159  1.1955
  978MOL0     H34925  12.788   6.698   9.373  3.6109 -0.6754 -1.1811
  978MOL0     H34926  13.242   6.612   9.108 -2.4182 -1.5484  1.6521
  978MOL0     H34927  13.436   6.798   9.078  0.4474 -0.0577 -0.7624
  978MOL0     H34928  13.469   7.190   8.995 -1.8676  2.4665 -1.2646
  978MOL0     H34929  13.307   7.149   9.012  1.6440 -2.7247 -2.2080
  978MOL0     H34930  13.330   7.364   9.129 -1.5746  0.0806  1.0336
  978MOL0     H34931  13.319   7.247   9.258 -0.8378 -0.3368 -0.8742
  978MOL0     H34932  13.593   7.277   9.274 -2.0982 -2.0711 -0.0326
  978MOL0     H34933  13.496   7.426   9.298 -0.4608  1.3542 -0.8137
  978MOL0     H34934  13.511   7.480   9.055  3.3532  2.6404 -1.1776
  978MOL0     H34935  13.602   7.335   9.031 -0.5168 -0.6055  0.4694
  978MOL0     H34936  13.703   7.575   9.171  0.6436  2.0406 -4.0106
  978MOL0     H34937  13.777   7.419   9.182 -1.2559 -1.1590  0.0848
  978MOL0     H34938  13.695   7.535   8.910  1.1541  1.3538 -0.1085
  978MOL0     H34939  13.793   7.401   8.929  0.0711  1.0094 -2.6887
  978MOL0     H34940  13.950   7.551   9.054 -1.2372 -3.7262 -0.7507
  978MOL0     H34941  13.828   7.686   9.027 -0.4324 -1.1101  0.6904
  978MOL0     H34942  13.990   7.717   8.846 -1.2324 -0.0319  1.0891
  978MOL0     H34943  13.841   7.643   8.787 -1.7298  0.2561  0.9677
  978MOL0     H34944  13.175   7.101   9.204 -1.6302 -0.8094 -2.6868
  978MOL0     H34945  12.994   6.924   9.261  0.8699  1.1754 -0.2883
  978MOL0     H34946  12.886   6.401   8.961  1.2119  0.7698  0.3280
  978MOL0     H34947  12.661   6.263   9.003  3.7806 -1.2784 -0.2884
  978MOL0     H34948  11.294   5.041   9.229  0.0447 -1.2837 -0.0504
  978MOL0     H34949  11.097   4.897   9.184 -2.6435 -0.1475  0.6080
  978MOL0     H34950  10.756   4.599   9.474  0.6342  1.6549  0.7495
  978MOL0     H34951  10.576   4.448   9.445 -2.7682 -1.4674 -2.2275
  978MOL0     H34952  10.317   4.549   9.455  1.8575  0.3165 -0.8520
  978MOL0     H34953  10.195   4.549   9.324  0.5855 -0.4279  0.3981
  978MOL0     H34954  10.344   4.315   9.464 -1.0241 -0.3184  0.6202
  978MOL0     H34955  10.238   4.287   9.329 -0.5736 -1.0071  1.0590
  978MOL0     H34956  10.145   4.227   9.545 -2.0389 -0.7166 -1.4166
  978MOL0     H34957  10.173   4.397   9.601  0.3746 -0.5160 -0.6929
  978MOL0     H34958   9.992   4.472   9.447  0.8763 -0.8759 -0.2366
  978MOL0     H34959   9.942   4.380   9.578  1.1136 -1.0070  1.0387
  978MOL0     H34960   9.866   4.104   9.258 -2.4239  0.3044 -0.0757
  978MOL0     H34961  10.433   4.660   9.113  0.4634  1.7775 -0.4788
  978MOL0     H34962  10.536   4.849   9.013 -0.7622 -2.9512  1.7313
  978MOL0     H34963  10.603   4.964   9.138  2.3784  0.5250 -0.3599
  978MOL0     H34964  10.706   4.874   9.021  2.1325  1.3601  3.4692
  979MOL0     O34965   7.919   6.344   2.789 -0.0391  0.2426 -0.3034
  979MOL0     C34966   7.811   6.365   2.739 -0.7992 -0.4025 -0.8122
  979MOL0     O34967   7.795   6.424   2.613 -0.1993 -0.3902  0.0007
  979MOL0     C34968   7.915   6.437   2.531  0.6691 -0.8392  0.3101
  979MOL0     C34969   7.987   6.559   2.534  0.1512 -0.7023  0.0106
  979MOL0     C34970   8.098   6.581   2.447 -0.3193 -0.8372 -0.1018
  979MOL0     C34971   8.136   6.486   2.351  0.1142  0.3508  0.1103
  979MOL0     O34972   8.246   6.507   2.273 -0.3020 -0.0405  0.2737
  979MOL0     C34973   8.353   6.585   2.327 -0.4361  0.0371  0.6533
  979MOL0     C34974   8.467   6.576   2.227 -0.2517  0.3252  0.2876
  979MOL0     C34975   8.580   6.664   2.265 -0.0065 -0.2385  1.0813
  979MOL0     C34976   8.647   6.634   2.404 -0.1618  0.0971 -0.0329
  979MOL0     C34977   8.780   6.691   2.426  0.2476  0.3813 -0.4574
  979MOL0     C34978   8.777   6.852   2.437 -0.2868  1.3832 -0.0371
  979MOL0     C34979   8.917   6.915   2.447 -0.3244 -0.3744 -0.0445
  979MOL0     C34980   8.906   7.065   2.447  0.1176 -0.3866  0.1075
  979MOL0     N34981   8.833   7.116   2.563 -0.7076 -0.3504  0.1977
  979MOL0     C34982   8.721   7.191   2.556  0.2219 -0.9340 -0.1452
  979MOL0     C34983   8.711   7.246   2.680  0.1350 -0.4461  0.1116
  979MOL0     C34984   8.608   7.349   2.719 -0.5580 -0.0233 -0.6173
  979MOL0     C34985   8.504   7.289   2.813  0.1307 -0.4100 -0.2992
  979MOL0     C34986   8.378   7.376   2.820  0.4740 -0.2810 -0.2138
  979MOL0     C34987   8.292   7.342   2.949  0.3921  0.6686  0.4801
  979MOL0     O34988   8.227   7.217   2.916  0.0296  0.3373 -0.5037
  979MOL0     C34989   8.090   7.217   2.931  0.4839 -0.1426  0.5420
  979MOL0     C34990   8.033   7.251   3.054  0.9675 -0.2709  0.1364
  979MOL0     C34991   7.891   7.256   3.068  0.1792 -0.5852  0.0297
  979MOL0     C34992   7.841   7.273   3.207  0.7912 -1.0394  0.7212
  979MOL0     C34993   7.805   7.231   2.957 -0.3570  0.3241  0.8530
  979MOL0     C34994   7.658   7.226   2.956  0.9779 -0.2168  0.1723
  979MOL0     O34995   7.588   7.120   2.908 -0.0425  0.1110  0.3069
  979MOL0     C34996   7.457   7.102   2.934  0.1840  0.8168  0.2865
  979MOL0     C34997   7.401   7.025   2.826 -1.4582  0.0534  0.4078
  979MOL0     C34998   7.270   7.002   2.812  0.0054  0.5376  0.4069
  979MOL0     C34999   7.181   7.045   2.912  0.5172  0.0813 -0.0788
  979MOL0     O35000   7.038   7.038   2.916 -0.2787  0.2020 -0.2799
  979MOL0     C35001   6.966   6.969   2.813  0.1484  0.8174  0.5404
  979MOL0     C35002   6.821   6.967   2.850  0.1982 -0.2087  0.0405
  979MOL0     C35003   6.729   6.907   2.746 -0.2777  0.3072  0.3037
  979MOL0     C35004   6.583   6.910   2.779 -0.5998  0.1778 -0.7981
  979MOL0     C35005   6.515   6.793   2.709  0.4123 -0.3470 -0.1844
  979MOL0     C35006   6.492   6.671   2.799  0.1663  0.4614  0.1178
  979MOL0     C35007   6.406   6.561   2.738  0.1549 -0.0334  0.3005
  979MOL0     C35008   6.496   6.472   2.646  0.1086  0.2215 -0.7741
  979MOL0    Cl35009   6.392   6.333   2.593  0.0086  0.2683  0.3491
  979MOL0     C35010   7.232   7.119   3.010 -0.2014 -0.0052  0.1123
  979MOL0     C35011   7.368   7.148   3.029 -0.2072  0.4211  0.1781
  979MOL0     O35012   7.604   7.331   2.978  0.2968  0.5422 -0.4155
  979MOL0     C35013   7.866   7.208   2.832 -0.3682 -0.0856 -0.5166
  979MOL0     C35014   8.012   7.195   2.817 -0.8619  0.8386  0.1044
  979MOL0     N35015   8.809   7.198   2.758 -0.0021 -0.0292 -0.1442
  979MOL0     N35016   8.883   7.128   2.684  0.2691  0.0527 -0.1991
  979MOL0     C35017   8.052   6.374   2.330  0.2416 -0.7135 -0.5503
  979MOL0     C35018   7.955   6.349   2.428 -0.6118  0.1911  0.4424
  979MOL0     C35019   7.691   6.341   2.824  0.1914  0.4790  0.3858
  979MOL0     C35020   7.711   6.358   2.960  0.2117  0.3246 -0.3720
  979MOL0     C35021   7.600   6.343   3.044 -0.8087 -0.3029 -0.5450
  979MOL0     C35022   7.473   6.320   2.997 -0.2506 -0.5383 -0.6019
  979MOL0     O35023   7.373   6.305   3.082  0.1437  0.2266  0.3131
  979MOL0     C35024   7.377   6.363   3.212 -0.2339  0.1669  0.7011
  979MOL0     C35025   7.230   6.377   3.249  1.4779  0.5059 -0.4055
  979MOL0     C35026   7.140   6.244   3.252 -0.5196 -0.0715  0.6641
  979MOL0     C35027   7.000   6.281   3.269 -0.5330  0.4665  0.3431
  979MOL0     C35028   6.913   6.166   3.296  0.1694  0.0577 -0.4972
  979MOL0     C35029   6.860   6.061   3.307 -1.3994  0.2241 -0.1451
  979MOL0     C35030   7.454   6.302   2.861  0.0722  0.3852  0.3188
  979MOL0     C35031   7.565   6.299   2.771 -0.3182 -0.2572  0.3740
  979MOL0     C35032   7.540   6.272   2.623 -0.0089 -0.2411  0.4068
  979MOL0     H35033   7.967   6.637   2.607 -2.0808  0.6199 -1.8627
  979MOL0     H35034   8.140   6.681   2.456 -1.4184 -0.1666 -1.8557
  979MOL0     H35035   8.384   6.524   2.413  0.6094 -0.8687 -0.3397
  979MOL0     H35036   8.324   6.686   2.357  1.0776  0.9531 -0.8349
  979MOL0     H35037   8.499   6.473   2.213  1.8891  0.7878  1.4389
  979MOL0     H35038   8.425   6.615   2.133 -0.4532 -3.7583 -1.5353
  979MOL0     H35039   8.645   6.659   2.178 -2.3684  1.2611 -0.9096
  979MOL0     H35040   8.537   6.765   2.268  0.2115 -0.0356 -1.1866
  979MOL0     H35041   8.576   6.647   2.486  1.1892  1.0675  1.0320
  979MOL0     H35042   8.660   6.526   2.403 -1.1535 -0.0491 -1.5280
  979MOL0     H35043   8.847   6.657   2.347 -2.2562 -1.9319 -1.7727
  979MOL0     H35044   8.824   6.657   2.519 -0.0265  1.6681  0.1594
  979MOL0     H35045   8.723   6.900   2.354  0.0732 -0.8371 -1.6245
  979MOL0     H35046   8.724   6.867   2.531 -0.9137  1.2930 -0.3672
  979MOL0     H35047   8.971   6.891   2.356 -1.5252  2.5799 -1.6710
  979MOL0     H35048   8.977   6.893   2.536 -0.7904  0.6967  0.5572
  979MOL0     H35049   9.003   7.111   2.469  0.4850 -1.0964 -0.0176
  979MOL0     H35050   8.858   7.099   2.355  0.0314  3.2645  1.3317
  979MOL0     H35051   8.665   7.219   2.468 -0.8453  4.1380  1.8202
  979MOL0     H35052   8.563   7.382   2.625 -1.2522 -2.1955 -1.1244
  979MOL0     H35053   8.660   7.433   2.765  1.6831 -2.2918  1.2914
  979MOL0     H35054   8.472   7.193   2.773 -1.5968  0.4320 -1.0784
  979MOL0     H35055   8.555   7.286   2.910  3.2240 -0.6797 -1.8333
  979MOL0     H35056   8.400   7.482   2.818  0.5290 -0.2560  0.8163
  979MOL0     H35057   8.325   7.343   2.730  0.0740 -0.3448  0.0402
  979MOL0     H35058   8.359   7.322   3.033  0.6151  0.5737  0.2789
  979MOL0     H35059   8.221   7.420   2.980  0.9281  0.4944  2.2804
  979MOL0     H35060   8.084   7.273   3.147 -0.7922  1.2122  0.8243
  979MOL0     H35061   7.734   7.296   3.196  1.6248  2.2622 -2.7695
  979MOL0     H35062   7.888   7.362   3.251  0.8675 -0.7939  0.1454
  979MOL0     H35063   7.867   7.188   3.271  2.4399 -0.2337  1.1720
  979MOL0     H35064   7.463   6.979   2.749 -1.2205 -1.9799  1.7481
  979MOL0     H35065   7.246   6.955   2.717  0.1193  1.4539 -0.0863
  979MOL0     H35066   6.974   7.019   2.715  3.2223  2.2112  1.3916
  979MOL0     H35067   6.992   6.863   2.802 -0.7926  0.3051  2.8758
  979MOL0     H35068   6.811   6.924   2.950  0.2603  0.5675  0.3899
  979MOL0     H35069   6.795   7.072   2.866  2.0186  0.3232 -0.1885
  979MOL0     H35070   6.759   6.802   2.741 -0.4451  0.3201 -1.8333
  979MOL0     H35071   6.749   6.955   2.650 -0.6274 -2.0476 -1.0246
  979MOL0     H35072   6.537   7.002   2.740 -0.5244  0.9298  0.7841
  979MOL0     H35073   6.564   6.910   2.887 -1.7725  1.3167 -0.9631
  979MOL0     H35074   6.426   6.830   2.656  0.2260 -0.5356 -0.0025
  979MOL0     H35075   6.580   6.757   2.628  1.5072  1.1261 -0.0162
  979MOL0     H35076   6.453   6.699   2.897  0.3204 -0.9292  0.5952
  979MOL0     H35077   6.586   6.620   2.823  0.6925  1.6898  0.7494
  979MOL0     H35078   6.316   6.601   2.690  0.7347  0.4953 -0.3920
  979MOL0     H35079   6.368   6.494   2.815  0.4706 -2.4489 -1.5215
  979MOL0     H35080   6.588   6.441   2.696  0.9368  0.5949 -2.0041
  979MOL0     H35081   6.532   6.526   2.557  2.1786  1.4933  0.7441
  979MOL0     H35082   7.174   7.150   3.097 -0.0821 -2.4775  1.1493
  979MOL0     H35083   7.398   7.215   3.109 -0.2259  1.6689 -0.8260
  979MOL0     H35084   7.812   7.200   2.738  3.2265 -1.5332 -2.6520
  979MOL0     H35085   8.066   7.183   2.723  0.2022  2.7713  0.4262
  979MOL0     H35086   8.069   6.300   2.252  1.8758 -0.3821 -0.5500
  979MOL0     H35087   7.891   6.267   2.397  2.2725 -0.7415 -3.9693
  979MOL0     H35088   7.804   6.387   3.008 -1.0692  1.2357  1.7271
  979MOL0     H35089   7.609   6.366   3.150 -0.4186 -0.8393 -0.4581
  979MOL0     H35090   7.408   6.291   3.289 -2.5442 -0.7487  0.8434
  979MOL0     H35091   7.449   6.445   3.227  1.2092 -1.0896  0.9127
  979MOL0     H35092   7.181   6.438   3.171 -0.9236 -0.7573 -0.0045
  979MOL0     H35093   7.225   6.421   3.349  0.5248 -0.4347 -0.0137
  979MOL0     H35094   7.150   6.180   3.165  0.5906 -1.1037  1.5199
  979MOL0     H35095   7.172   6.179   3.334  0.6403 -1.2450 -0.6609
  979MOL0     H35096   6.956   6.324   3.178 -1.1796 -0.5642  0.1534
  979MOL0     H35097   6.986   6.356   3.348 -2.1113 -0.8494  1.3709
  979MOL0     H35098   6.808   5.970   3.332  0.3689 -0.3198  1.8196
  979MOL0     H35099   7.355   6.274   2.828  0.2704  1.7268 -1.5533
  979MOL0     H35100   7.436   6.240   2.615 -0.9469  2.0872  2.1330
  979MOL0     H35101   7.550   6.363   2.564  0.0648 -1.6393 -1.8902
  979MOL0     H35102   7.619   6.209   2.580  0.0239  1.0087 -1.4523
  980MOL0     O35103   3.558   7.802   0.016  1.3064  0.5499 -0.1896
  980MOL0     C35104   3.501   7.776   0.123  0.9698 -0.5615  0.3948
  980MOL0     O35105   3.566   7.785   0.243  0.0449 -0.5931  0.1465
  980MOL0     C35106   3.673   7.864   0.235 -0.1749  0.3116 -0.1868
  980MOL0     C35107   3.657   8.000   0.283 -0.4320 -0.2291  0.2201
  980MOL0     C35108   3.767   8.091   0.278 -1.0901 -0.0691 -0.2566
  980MOL0     C35109   3.890   8.050   0.235  0.0351  0.3061 -0.2712
  980MOL0     O35110   4.009   8.124   0.244 -0.2453 -0.0964 -0.2858
  980MOL0     C35111   4.010   8.262   0.207  0.5129  0.0718 -0.0297
  980MOL0     C35112   3.989   8.270   0.060 -0.2142 -0.3271  0.9636
  980MOL0     C35113   4.113   8.209  -0.013 -0.3316 -0.0899 -0.0687
  980MOL0     C35114   4.214   8.304  -0.076 -0.0340  0.3140 -0.6211
  980MOL0     C35115   4.336   8.222  -0.131  0.5121 -0.1668 -0.7007
  980MOL0     C35116   4.453   8.309  -0.152  0.1856  0.3141  0.4519
  980MOL0     C35117   4.570   8.226  -0.195 -0.5960  0.6679  0.3101
  980MOL0     C35118   4.695   8.305  -0.210 -0.2853  0.1847  0.2527
  980MOL0     N35119   4.684   8.396  -0.321  0.1291  0.3495  1.1071
  980MOL0     C35120   4.725   8.362  -0.450  0.9706 -0.2080 -0.5359
  980MOL0     C35121   4.698   8.467  -0.531 -0.0334 -1.0833  0.3713
  980MOL0     C35122   4.722   8.448  -0.680 -0.7374  0.2620 -0.0405
  980MOL0     C35123   4.667   8.565  -0.769  0.3911  0.6325  0.0728
  980MOL0     C35124   4.740   8.586  -0.909 -0.5814 -0.4791 -0.7370
  980MOL0     C35125   4.682   8.514  -1.036 -0.4973 -0.3143  0.3048
  980MOL0     O35126   4.555   8.460  -1.001 -0.1262  0.0257  0.8222
  980MOL0     C35127   4.536   8.329  -0.964 -0.7474  0.3857  0.4631
  980MOL0     C35128   4.638   8.232  -0.952  0.1714  0.3123 -0.4530
  980MOL0     C35129   4.602   8.096  -0.959 -0.2785  0.0520 -0.2718
  980MOL0     C35130   4.708   7.990  -0.968  0.2011 -0.1835  0.1133
  980MOL0     C35131   4.463   8.055  -0.951  0.3075  0.6823 -0.0621
  980MOL0     C35132   4.415   7.916  -0.939  0.6048  0.3995 -0.6842
  980MOL0     O35133   4.291   7.899  -0.882 -0.3936 -0.3945 -0.1771
  980MOL0     C35134   4.221   7.779  -0.858 -0.6828  0.4350  0.3573
  980MOL0     C35135   4.094   7.797  -0.801 -0.3326  0.3371 -0.4785
  980MOL0     C35136   4.007   7.690  -0.770 -0.2702 -0.4318  0.4912
  980MOL0     C35137   4.047   7.554  -0.801  0.2989 -0.3047 -0.6496
  980MOL0     O35138   3.982   7.442  -0.765 -0.2528  0.4144 -0.1706
  980MOL0     C35139   3.881   7.443  -0.663 -0.1152  0.4071  0.2261
  980MOL0     C35140   3.834   7.298  -0.644 -0.1542  0.6113 -0.1637
  980MOL0     C35141   3.945   7.208  -0.573 -0.3292 -0.7143 -0.0248
  980MOL0     C35142   3.937   7.205  -0.423 -0.1624  0.3101  0.6634
  980MOL0     C35143   4.041   7.122  -0.359 -0.6784  0.7410 -0.2511
  980MOL0     C35144   4.181   7.124  -0.402  0.2553 -0.1595 -0.3747
  980MOL0     C35145   4.262   7.259  -0.380  0.2492 -0.5532 -0.3439
  980MOL0     C35146   4.378   7.279  -0.472 -1.0175  0.7949  0.2651
  980MOL0    Cl35147   4.360   7.295  -0.650 -0.0087  0.0401  0.0928
  980MOL0     C35148   4.164   7.534  -0.866  0.2166 -0.1425  0.1486
  980MOL0     C35149   4.254   7.649  -0.884  1.0726 -0.3808 -0.1622
  980MOL0     O35150   4.484   7.821  -0.967  0.3599  0.5589 -0.1922
  980MOL0     C35151   4.371   8.153  -0.935  0.2494  0.2018 -0.2389
  980MOL0     C35152   4.406   8.290  -0.937 -0.7862  0.1060 -0.3043
  980MOL0     N35153   4.650   8.573  -0.450  0.0140  0.4738  0.4289
  980MOL0     N35154   4.653   8.530  -0.329  0.4950  0.3616 -0.0291
  980MOL0     C35155   3.897   7.924   0.180  0.3799  0.8527 -0.0173
  980MOL0     C35156   3.798   7.824   0.191  0.0751 -0.2459  0.1312
  980MOL0     C35157   3.369   7.701   0.127  0.0805  0.0049  0.1271
  980MOL0     C35158   3.304   7.692   0.249  0.8509  0.1707  0.1312
  980MOL0     C35159   3.180   7.628   0.253 -0.1909 -0.1923  0.9448
  980MOL0     C35160   3.120   7.563   0.146 -0.0603 -0.2910  0.7100
  980MOL0     O35161   2.991   7.520   0.154 -0.0398  0.0648  0.3370
  980MOL0     C35162   2.944   7.451   0.037  0.5218 -0.2370  0.0889
  980MOL0     C35163   2.803   7.388   0.061 -0.3969 -0.0949 -0.2439
  980MOL0     C35164   2.704   7.499   0.106 -0.9734 -1.3309 -0.5750
  980MOL0     C35165   2.566   7.447   0.119 -0.5046 -0.2687  0.5385
  980MOL0     C35166   2.538   7.356   0.230 -0.9600 -0.0952  0.0084
  980MOL0     C35167   2.479   7.279   0.307 -0.2589 -0.0166 -0.2249
  980MOL0     C35168   3.189   7.569   0.029 -0.5609  0.1577  0.9868
  980MOL0     C35169   3.313   7.639   0.015 -0.3219  0.5504  0.8174
  980MOL0     C35170   3.362   7.653  -0.124  0.3378 -0.9270 -0.7064
  980MOL0     H35171   3.557   8.025   0.316 -0.4696 -1.4365  1.1157
  980MOL0     H35172   3.746   8.194   0.306 -1.2224 -0.6898  2.1159
  980MOL0     H35173   4.111   8.302   0.221  0.2507  0.5861  0.4311
  980MOL0     H35174   3.940   8.325   0.262  0.4199  0.0917 -0.1738
  980MOL0     H35175   3.897   8.217   0.035 -2.4832  2.3482  2.9917
  980MOL0     H35176   3.985   8.377   0.036  2.7689 -0.3825 -0.1852
  980MOL0     H35177   4.172   8.146   0.054 -0.9115  0.1933  0.7227
  980MOL0     H35178   4.074   8.151  -0.097 -0.2592 -0.1750 -0.0432
  980MOL0     H35179   4.177   8.370  -0.154  2.4219  1.9893 -0.4747
  980MOL0     H35180   4.258   8.367   0.002  0.6068 -0.2445 -0.5185
  980MOL0     H35181   4.304   8.172  -0.223 -1.2517  0.0295 -0.2282
  980MOL0     H35182   4.360   8.140  -0.063 -0.3331  0.9970  1.0767
  980MOL0     H35183   4.425   8.381  -0.230 -2.2433 -1.8981 -0.8909
  980MOL0     H35184   4.481   8.356  -0.057 -1.8841 -2.6456  2.7585
  980MOL0     H35185   4.549   8.180  -0.293 -0.6057 -1.8997  1.4481
  980MOL0     H35186   4.603   8.151  -0.124  0.9083  0.4713 -0.5609
  980MOL0     H35187   4.719   8.364  -0.121  2.9028 -0.2674 -0.1693
  980MOL0     H35188   4.778   8.235  -0.223 -0.5925 -0.4493  1.5049
  980MOL0     H35189   4.754   8.263  -0.485  0.0264 -0.7491  0.1451
  980MOL0     H35190   4.679   8.350  -0.704 -2.4050  1.1042 -0.6591
  980MOL0     H35191   4.831   8.458  -0.679 -0.7923  0.8846  0.9146
  980MOL0     H35192   4.561   8.546  -0.787  0.6842 -0.5738 -0.4611
  980MOL0     H35193   4.672   8.663  -0.720  3.0353  1.3183 -1.3709
  980MOL0     H35194   4.717   8.692  -0.923  0.5893  0.2051  1.8557
  980MOL0     H35195   4.848   8.565  -0.906  0.4901  3.9877  0.3625
  980MOL0     H35196   4.673   8.585  -1.119  0.2085  1.1601  1.4476
  980MOL0     H35197   4.762   8.447  -1.071  0.5822  1.0686  0.0366
  980MOL0     H35198   4.742   8.261  -0.961  0.5340 -0.4215  1.0337
  980MOL0     H35199   4.806   8.038  -0.965 -1.0315  2.4561  1.7341
  980MOL0     H35200   4.694   7.925  -1.055 -1.7314  1.2282 -0.6794
  980MOL0     H35201   4.710   7.925  -0.879  1.5765  1.6803  1.5465
  980MOL0     H35202   4.048   7.893  -0.781 -1.6597 -0.5830  1.1575
  980MOL0     H35203   3.907   7.715  -0.738 -0.4238  0.3316 -0.5566
  980MOL0     H35204   3.924   7.488  -0.573 -0.3415  2.3669 -0.5939
  980MOL0     H35205   3.791   7.495  -0.695 -0.7144  0.9248  2.5545
  980MOL0     H35206   3.744   7.305  -0.584  0.4108  5.3155  0.4886
  980MOL0     H35207   3.806   7.250  -0.739 -1.6921 -0.9643  1.0235
  980MOL0     H35208   4.045   7.237  -0.607  0.1501 -0.2512  1.6706
  980MOL0     H35209   3.933   7.106  -0.611  3.5703 -0.7365 -1.6310
  980MOL0     H35210   3.843   7.170  -0.380 -0.2670  0.3642  0.4801
  980MOL0     H35211   3.939   7.305  -0.380  0.9001 -0.6823  3.0501
  980MOL0     H35212   4.037   7.141  -0.251  0.5291 -0.1465 -0.0238
  980MOL0     H35213   4.012   7.017  -0.372  1.3395  0.4640 -3.3508
  980MOL0     H35214   4.189   7.100  -0.509  1.8552  4.0754 -1.3924
  980MOL0     H35215   4.239   7.049  -0.348  0.2235 -0.8380 -1.2589
  980MOL0     H35216   4.294   7.246  -0.276 -1.8612  1.9995  0.7569
  980MOL0     H35217   4.190   7.341  -0.370  1.1174 -0.0443  2.6116
  980MOL0     H35218   4.445   7.196  -0.452 -0.5645  1.4054  1.3483
  980MOL0     H35219   4.440   7.363  -0.441 -0.2717  0.3650 -0.0476
  980MOL0     H35220   4.196   7.433  -0.891 -3.4182 -1.0143 -1.5919
  980MOL0     H35221   4.351   7.631  -0.930  0.4811  0.0096 -1.6047
  980MOL0     H35222   4.267   8.123  -0.926  0.9909 -2.4219  0.3591
  980MOL0     H35223   4.327   8.364  -0.935 -3.3658 -2.4762  1.3596
  980MOL0     H35224   3.990   7.900   0.128 -0.9891  1.2947 -2.8463
  980MOL0     H35225   3.812   7.726   0.147 -1.0443 -0.1955 -0.3649
  980MOL0     H35226   3.335   7.742   0.341 -0.6450 -0.8142  1.2164
  980MOL0     H35227   3.127   7.627   0.347  0.5370  2.8303  1.4970
  980MOL0     H35228   2.946   7.509  -0.056  0.7510 -0.4525 -0.0423
  980MOL0     H35229   3.004   7.360   0.034 -1.3445 -1.6052  1.5130
  980MOL0     H35230   2.806   7.322   0.148  0.7620 -0.9941 -0.9413
  980MOL0     H35231   2.770   7.345  -0.033 -2.2014  1.7925 -0.5489
  980MOL0     H35232   2.737   7.546   0.199  4.4096 -0.8296 -2.3853
  980MOL0     H35233   2.713   7.569   0.021  2.0079 -1.8936 -0.8078
  980MOL0     H35234   2.536   7.394   0.029 -3.6400 -1.1685  1.9963
  980MOL0     H35235   2.496   7.530   0.128  0.0508  0.5847 -2.1359
  980MOL0     H35236   2.426   7.216   0.376  2.8114 -1.1293  1.2885
  980MOL0     H35237   3.155   7.521  -0.062 -0.9669  3.8711 -0.9862
  980MOL0     H35238   3.456   7.597  -0.117  1.1099  0.5155  1.6081
  980MOL0     H35239   3.299   7.609  -0.202 -1.3413 -1.0313  0.6662
  980MOL0     H35240   3.371   7.758  -0.155  2.2563 -0.5903  0.7785
  981MOL0     O35241   6.247   8.375   0.377  0.0305  0.0783 -0.0336
  981MOL0     C35242   6.199   8.368   0.485  0.4622 -0.0882 -0.6612
  981MOL0     O35243   6.271   8.345   0.596  0.8506  0.4443 -0.1831
  981MOL0     C35244   6.397   8.299   0.581 -0.1389  0.0350 -0.1661
  981MOL0     C35245   6.500   8.391   0.595  1.0207  0.2379 -0.4761
  981MOL0     C35246   6.639   8.344   0.588 -0.1782 -0.6504 -0.8906
  981MOL0     C35247   6.674   8.214   0.558  0.1849 -0.5274 -0.6009
  981MOL0     O35248   6.802   8.153   0.557 -0.2244  0.0159 -0.6270
  981MOL0     C35249   6.918   8.233   0.602 -0.4676  0.1292 -0.2567
  981MOL0     C35250   6.917   8.238   0.755 -0.0725  0.0258  0.1045
  981MOL0     C35251   7.032   8.321   0.810  0.1567  0.7534 -0.3353
  981MOL0     C35252   7.169   8.241   0.816 -0.1188 -0.0264  0.0272
  981MOL0     C35253   7.283   8.326   0.789  0.5131 -0.3850 -0.2534
  981MOL0     C35254   7.422   8.260   0.798  0.1919  0.3496 -0.1210
  981MOL0     C35255   7.539   8.352   0.762  0.5686 -0.1739  0.4839
  981MOL0     C35256   7.556   8.389   0.616  0.0522  0.1404  0.1270
  981MOL0     N35257   7.689   8.441   0.585  0.0276  0.2447 -0.0431
  981MOL0     C35258   7.753   8.533   0.655 -0.0706  0.5386 -0.5466
  981MOL0     C35259   7.874   8.535   0.593 -0.4561 -0.9305 -0.5782
  981MOL0     C35260   7.997   8.626   0.646  0.1181  0.4987  0.6942
  981MOL0     C35261   8.101   8.650   0.539  0.2877  0.2296  0.1727
  981MOL0     C35262   8.198   8.764   0.574 -0.6241  0.1703  0.2053
  981MOL0     C35263   8.271   8.751   0.710  0.1608 -0.9333  0.3723
  981MOL0     O35264   8.363   8.641   0.714 -0.1355  0.2404  1.2732
  981MOL0     C35265   8.451   8.615   0.612  0.1601 -0.3164 -0.6795
  981MOL0     C35266   8.469   8.482   0.564  0.4239  0.3799  0.2031
  981MOL0     C35267   8.562   8.448   0.460  0.4323  0.3083 -0.0643
  981MOL0     C35268   8.547   8.306   0.408  0.1820 -0.5075 -1.2332
  981MOL0     C35269   8.652   8.548   0.416  0.4567  0.5318  0.6647
  981MOL0     C35270   8.748   8.530   0.304 -0.3944 -0.3427 -0.3447
  981MOL0     O35271   8.814   8.649   0.265 -0.5739  0.3999 -0.3531
  981MOL0     C35272   8.928   8.647   0.184 -1.5623 -0.4713 -0.2068
  981MOL0     C35273   8.945   8.756   0.101  0.3363 -0.5272 -0.7364
  981MOL0     C35274   9.045   8.763   0.011  0.5847 -0.0444 -0.0002
  981MOL0     C35275   9.141   8.664   0.001  0.5528  0.0397  0.0967
  981MOL0     O35276   9.243   8.662  -0.088  0.2328 -0.9794  0.1907
  981MOL0     C35277   9.271   8.776  -0.173 -0.9928 -0.2083  0.7386
  981MOL0     C35278   9.390   8.745  -0.265  0.1646 -0.1026 -0.3135
  981MOL0     C35279   9.519   8.719  -0.185 -0.1483 -0.9663 -0.0871
  981MOL0     C35280   9.624   8.684  -0.283 -0.0188 -0.0432 -0.9851
  981MOL0     C35281   9.757   8.652  -0.210  0.5925  0.8583  0.0757
  981MOL0     C35282   9.870   8.617  -0.314 -0.2900 -1.0179  0.7299
  981MOL0     C35283  10.000   8.567  -0.251 -0.0004 -0.0726  0.8514
  981MOL0     C35284  10.094   8.514  -0.363 -0.6382 -0.4959 -1.0513
  981MOL0    Cl35285  10.260   8.490  -0.294  0.2036 -0.0171  0.1724
  981MOL0     C35286   9.132   8.557   0.088 -0.4237 -0.9460 -0.4956
  981MOL0     C35287   9.029   8.549   0.186 -0.2117  0.1606  0.5074
  981MOL0     O35288   8.765   8.424   0.254 -0.0557  0.1402 -0.6231
  981MOL0     C35289   8.629   8.686   0.463 -0.4127  0.4188 -0.7436
  981MOL0     C35290   8.525   8.719   0.551  0.1029  0.5228 -0.2024
  981MOL0     N35291   7.879   8.443   0.491  0.3180 -0.2147  0.3101
  981MOL0     N35292   7.766   8.386   0.486  0.6044  0.0011  0.2592
  981MOL0     C35293   6.562   8.135   0.522  0.1269 -0.3706 -0.3360
  981MOL0     C35294   6.428   8.176   0.529 -1.1528  0.0960 -0.3641
  981MOL0     C35295   6.052   8.384   0.498 -0.3759 -0.1114 -0.2706
  981MOL0     C35296   5.990   8.323   0.619  0.6112  0.0569  0.0299
  981MOL0     C35297   5.851   8.303   0.619 -0.2794  0.2568 -0.5132
  981MOL0     C35298   5.772   8.358   0.524  0.5341  0.2128 -0.2672
  981MOL0     O35299   5.638   8.331   0.539  0.4307  0.8612  0.2410
  981MOL0     C35300   5.539   8.352   0.435  0.6668  0.8132 -0.1557
  981MOL0     C35301   5.400   8.288   0.462  0.0636  0.3205 -0.4056
  981MOL0     C35302   5.282   8.347   0.384 -0.1008  0.3368 -0.0268
  981MOL0     C35303   5.257   8.489   0.431  0.3167 -0.4409 -0.2335
  981MOL0     C35304   5.153   8.550   0.347 -0.0042 -0.2173 -0.1452
  981MOL0     C35305   5.051   8.579   0.283  0.1440  0.2073  1.1261
  981MOL0     C35306   5.830   8.432   0.423  0.2450 -0.5802  0.9498
  981MOL0     C35307   5.972   8.449   0.410  0.2008 -0.0704  0.2789
  981MOL0     C35308   6.014   8.544   0.303  0.2976 -0.3673  0.6717
  981MOL0     H35309   6.486   8.496   0.618 -0.2138  0.8894 -3.6576
  981MOL0     H35310   6.723   8.402   0.623 -1.3512 -0.4503  1.8405
  981MOL0     H35311   6.930   8.331   0.555 -0.4338 -0.3450 -1.2571
  981MOL0     H35312   7.009   8.176   0.577  1.6713  3.3043 -0.3174
  981MOL0     H35313   6.818   8.274   0.785 -1.4104 -3.5290  0.4900
  981MOL0     H35314   6.918   8.135   0.791 -1.0198 -0.2172 -0.5234
  981MOL0     H35315   7.051   8.416   0.760  2.6360  0.7577  0.4681
  981MOL0     H35316   7.002   8.339   0.914  1.1785  0.0782  0.0979
  981MOL0     H35317   7.178   8.201   0.917 -0.3211 -4.3321 -1.4472
  981MOL0     H35318   7.157   8.161   0.742 -2.0670  0.9605 -0.8185
  981MOL0     H35319   7.278   8.413   0.854  0.8867  1.1227 -2.1372
  981MOL0     H35320   7.275   8.361   0.685  2.5022  0.2278 -0.2388
  981MOL0     H35321   7.443   8.220   0.898  2.8199 -2.6053 -1.6592
  981MOL0     H35322   7.427   8.175   0.730  1.7083 -0.2998  0.7497
  981MOL0     H35323   7.621   8.296   0.808 -2.2142 -2.9400  2.4814
  981MOL0     H35324   7.521   8.440   0.826  1.6698 -0.7507  1.6379
  981MOL0     H35325   7.531   8.303   0.553 -1.7897  0.6486  0.0828
  981MOL0     H35326   7.498   8.477   0.584 -0.2305 -0.1076 -0.0471
  981MOL0     H35327   7.730   8.587   0.746 -2.9796  0.2714 -1.0560
  981MOL0     H35328   8.045   8.582   0.733  1.4505 -0.4751 -0.4902
  981MOL0     H35329   7.956   8.722   0.678  1.5717  2.2515 -2.3082
  981MOL0     H35330   8.153   8.558   0.512  1.0367  0.3656  1.0707
  981MOL0     H35331   8.045   8.694   0.456  1.0948  3.6657  1.2651
  981MOL0     H35332   8.278   8.783   0.502 -0.8983  2.1548  0.3616
  981MOL0     H35333   8.144   8.859   0.585 -0.2219  0.4608 -0.3089
  981MOL0     H35334   8.330   8.843   0.711 -0.3704 -0.5543  2.5664
  981MOL0     H35335   8.200   8.754   0.793 -0.5670  1.3970 -0.2523
  981MOL0     H35336   8.411   8.407   0.617 -0.1511  1.7541  1.6026
  981MOL0     H35337   8.544   8.241   0.495  1.1445  1.8547  0.6786
  981MOL0     H35338   8.636   8.289   0.347 -0.0802  3.5229 -3.0784
  981MOL0     H35339   8.456   8.288   0.348  0.1489  0.1804 -1.3977
  981MOL0     H35340   8.871   8.835   0.100  0.7177 -0.1146  0.6230
  981MOL0     H35341   9.057   8.848  -0.055  0.9892 -1.0999 -1.3414
  981MOL0     H35342   9.183   8.805  -0.231 -0.2801 -0.4727 -0.5031
  981MOL0     H35343   9.307   8.857  -0.108 -1.0474  0.0698  0.4245
  981MOL0     H35344   9.366   8.660  -0.329  1.1788  0.1730 -1.0763
  981MOL0     H35345   9.407   8.836  -0.323 -4.3376  0.2258 -1.4885
  981MOL0     H35346   9.499   8.643  -0.109 -1.5686  0.7729  1.3859
  981MOL0     H35347   9.538   8.817  -0.139 -1.8506  0.0075 -1.3386
  981MOL0     H35348   9.644   8.768  -0.350 -0.1592  0.5778 -0.2600
  981MOL0     H35349   9.601   8.594  -0.341  3.0229 -0.2071 -2.1204
  981MOL0     H35350   9.778   8.734  -0.142  1.9191  1.6733 -1.2585
  981MOL0     H35351   9.749   8.566  -0.143  3.1278  0.1615 -0.4185
  981MOL0     H35352   9.885   8.711  -0.368  0.9406 -1.8640 -0.4883
  981MOL0     H35353   9.822   8.543  -0.378 -2.6544 -0.1575  1.3792
  981MOL0     H35354   9.978   8.481  -0.186 -1.1096 -2.0840 -1.9847
  981MOL0     H35355  10.044   8.644  -0.188  1.0912 -0.4865  0.6137
  981MOL0     H35356  10.106   8.583  -0.447 -1.1305  1.2508  0.2407
  981MOL0     H35357  10.047   8.420  -0.391  3.3505 -3.3962  1.0124
  981MOL0     H35358   9.208   8.480   0.087 -0.5950 -1.1972  1.3913
  981MOL0     H35359   9.012   8.460   0.245  0.4202  0.5216  1.2437
  981MOL0     H35360   8.706   8.756   0.433  1.1000 -1.4506 -1.4545
  981MOL0     H35361   8.505   8.819   0.587 -0.7343  0.4984 -0.5808
  981MOL0     H35362   6.578   8.035   0.483  0.1252  0.1321 -1.6831
  981MOL0     H35363   6.351   8.102   0.510 -1.3112 -0.3190  1.6057
  981MOL0     H35364   6.053   8.286   0.700  0.5396  2.9734  1.5510
  981MOL0     H35365   5.805   8.255   0.705 -0.5673 -1.7213 -1.7350
  981MOL0     H35366   5.525   8.460   0.432 -1.6853  0.6680  1.8261
  981MOL0     H35367   5.580   8.323   0.338  0.7101 -0.3634  0.1919
  981MOL0     H35368   5.375   8.313   0.565 -2.9220 -0.2889 -0.9066
  981MOL0     H35369   5.399   8.181   0.442 -4.2481 -0.1239  1.1982
  981MOL0     H35370   5.322   8.356   0.282  1.8503  1.2437  0.7588
  981MOL0     H35371   5.197   8.278   0.388 -0.6825  1.0117 -0.4746
  981MOL0     H35372   5.344   8.554   0.436  0.5136 -0.6835 -0.4746
  981MOL0     H35373   5.219   8.481   0.534 -0.2965 -0.8862 -0.4874
  981MOL0     H35374   4.962   8.614   0.236 -0.2781  0.1046  1.8327
  981MOL0     H35375   5.773   8.472   0.339  2.6271 -1.2721 -1.1294
  981MOL0     H35376   6.058   8.494   0.216  0.6754 -0.9401  1.1872
  981MOL0     H35377   5.927   8.605   0.276  0.4957 -1.1557 -2.1123
  981MOL0     H35378   6.089   8.608   0.349  0.2210 -1.8461  2.9950
  982MOL0     O35379   4.592   6.479  10.373  0.0031 -0.3418  0.1226
  982MOL0     C35380   4.641   6.433  10.272  0.6202  0.8201 -0.4525
  982MOL0     O35381   4.770   6.452  10.239  0.2674  0.2652 -0.5831
  982MOL0     C35382   4.853   6.501  10.334 -0.8537  0.1762  0.6199
  982MOL0     C35383   4.910   6.622  10.304  0.1260 -0.1944 -0.0285
  982MOL0     C35384   5.024   6.669  10.378  0.0682 -0.0686  0.3403
  982MOL0     C35385   5.061   6.596  10.490 -0.0360  0.6845 -0.0979
  982MOL0     O35386   5.161   6.645  10.558 -0.3556  0.0018  0.0044
  982MOL0     C35387   5.256   6.559  10.623 -0.6178 -1.1038  0.2154
  982MOL0     C35388   5.369   6.659  10.660 -0.0291  0.0279 -0.2940
  982MOL0     C35389   5.498   6.596  10.722 -0.3709  0.2461 -0.5410
  982MOL0     C35390   5.543   6.659  10.860 -0.6595 -0.0760  0.4180
  982MOL0     C35391   5.690   6.640  10.896  0.3767 -0.1171  0.0899
  982MOL0     C35392   5.736   6.721  11.013  0.3419 -0.1651 -0.2240
  982MOL0     C35393   5.881   6.710  11.067  0.2080  0.6111  0.0895
  982MOL0     C35394   5.912   6.567  11.106 -0.1941  0.4419 -0.0753
  982MOL0     N35395   6.008   6.557  11.218  0.0845 -0.5025  0.0907
  982MOL0     C35396   6.140   6.589  11.209 -0.8004 -0.1678  0.6314
  982MOL0     C35397   6.202   6.545  11.322  0.2700 -0.1670  0.4154
  982MOL0     C35398   6.336   6.600  11.381 -0.0736 -0.4640  0.3500
  982MOL0     C35399   6.420   6.481  11.406 -0.4218 -0.9678  0.1678
  982MOL0     C35400   6.578   6.508  11.396  0.5990  0.1531  0.6248
  982MOL0     C35401   6.625   6.619  11.485 -0.1670  0.1981  0.6446
  982MOL0     O35402   6.627   6.556  11.611 -0.5106  0.3123 -0.7680
  982MOL0     C35403   6.743   6.549  11.694 -0.1567 -0.5705 -0.3484
  982MOL0     C35404   6.870   6.522  11.643  1.0878  0.2077  0.3183
  982MOL0     C35405   6.971   6.492  11.730 -0.3702  0.4251 -0.9418
  982MOL0     C35406   7.102   6.454  11.664 -0.0330 -0.6682 -0.3920
  982MOL0     C35407   6.960   6.496  11.865 -0.7124 -1.1214  0.3509
  982MOL0     C35408   7.081   6.490  11.960 -0.5853  0.6218  0.0507
  982MOL0     O35409   7.039   6.415  12.076  0.8484 -0.7847 -0.1877
  982MOL0     C35410   7.125   6.361  12.165  1.0597  0.1196  0.3638
  982MOL0     C35411   7.259   6.316  12.148  0.5093  0.7145  0.5760
  982MOL0     C35412   7.329   6.263  12.259  0.0377  0.0940 -0.2781
  982MOL0     C35413   7.272   6.249  12.387 -0.0242 -0.0403 -0.1324
  982MOL0     O35414   7.344   6.216  12.498 -0.5459 -0.3848 -0.2929
  982MOL0     C35415   7.470   6.145  12.473 -0.3066 -0.5654 -0.2163
  982MOL0     C35416   7.543   6.123  12.602 -0.0133 -0.0587  0.1241
  982MOL0     C35417   7.500   6.002  12.694 -0.3541  0.6920 -0.0240
  982MOL0     C35418   7.593   5.996  12.820  0.0500 -0.7137  0.0156
  982MOL0     C35419   7.595   6.113  12.920  0.0627 -0.1483  0.0654
  982MOL0     C35420   7.462   6.106  13.000  1.2524  0.4079 -0.5770
  982MOL0     C35421   7.436   6.220  13.100  0.0730 -0.1317  0.8036
  982MOL0     C35422   7.308   6.192  13.179 -0.4299  0.0174  0.5305
  982MOL0    Cl35423   7.251   6.341  13.226 -0.0296 -0.0403 -0.4700
  982MOL0     C35424   7.141   6.297  12.407  0.5720 -0.9874  0.7778
  982MOL0     C35425   7.071   6.354  12.295  0.0107 -0.1322  0.1036
  982MOL0     O35426   7.187   6.536  11.931  0.1890  0.1491 -0.5055
  982MOL0     C35427   6.835   6.521  11.920  0.9337  0.1134  0.6144
  982MOL0     C35428   6.729   6.554  11.830 -0.6426  1.1989  0.0998
  982MOL0     N35429   6.108   6.485  11.398 -0.4580  0.0440 -0.5540
  982MOL0     N35430   5.993   6.496  11.337 -0.1587  0.0278  0.3556
  982MOL0     C35431   4.998   6.475  10.519 -0.4635 -0.1494  0.2709
  982MOL0     C35432   4.895   6.426  10.446 -0.4367  0.3738 -0.0316
  982MOL0     C35433   4.555   6.359  10.181  0.8755  0.7047 -0.6717
  982MOL0     C35434   4.616   6.283  10.078 -0.1954  0.5947  0.1035
  982MOL0     C35435   4.541   6.202   9.984 -0.9109 -0.1414 -0.9466
  982MOL0     C35436   4.401   6.201  10.004  0.2262  0.4438 -0.0430
  982MOL0     O35437   4.314   6.123   9.934 -0.4470 -0.0209 -0.2372
  982MOL0     C35438   4.364   6.019   9.853  0.4512 -0.1966 -0.6960
  982MOL0     C35439   4.234   5.939   9.844  0.4926 -0.2670  1.3812
  982MOL0     C35440   4.246   5.817   9.750 -0.1104  0.2378 -0.6275
  982MOL0     C35441   4.351   5.714   9.792 -0.7799 -0.2084  0.1408
  982MOL0     C35442   4.473   5.705   9.704  0.4833 -1.0904 -0.6500
  982MOL0     C35443   4.574   5.689   9.635  0.1909  0.0011 -0.7001
  982MOL0     C35444   4.336   6.285  10.095  0.4233 -0.4473  0.0198
  982MOL0     C35445   4.418   6.374  10.172  0.6682 -0.6144  0.0413
  982MOL0     C35446   4.334   6.472  10.249 -0.3316  0.3672  0.1816
  982MOL0     H35447   4.883   6.673  10.212 -1.3029 -1.8872 -0.5900
  982MOL0     H35448   5.086   6.755  10.354 -1.5974  1.1914  0.3809
  982MOL0     H35449   5.287   6.470  10.567 -1.0911 -1.4527  0.4977
  982MOL0     H35450   5.211   6.512  10.711 -1.3030  0.5969  0.8075
  982MOL0     H35451   5.411   6.700  10.568 -1.9420 -0.8483 -1.6424
  982MOL0     H35452   5.328   6.732  10.730  2.4989  2.1377 -0.8514
  982MOL0     H35453   5.481   6.489  10.740 -1.7662  0.6650  0.8597
  982MOL0     H35454   5.579   6.622  10.654  1.8625  1.8766  2.5053
  982MOL0     H35455   5.519   6.766  10.849  1.7144  0.5323  0.6096
  982MOL0     H35456   5.492   6.619  10.948  3.1085 -1.4255  2.1955
  982MOL0     H35457   5.751   6.671  10.810  1.4357 -1.7148  0.2136
  982MOL0     H35458   5.711   6.535  10.920  0.7259 -0.2623 -0.8168
  982MOL0     H35459   5.725   6.828  10.994  0.8185  0.2168  1.4530
  982MOL0     H35460   5.673   6.700  11.100  0.1036 -0.9029 -0.5623
  982MOL0     H35461   5.891   6.774  11.155 -1.9427 -2.3305  2.7100
  982MOL0     H35462   5.945   6.738  10.983 -2.2093  1.0468 -1.7178
  982MOL0     H35463   5.818   6.517  11.132 -0.7653  0.7881 -1.3642
  982MOL0     H35464   5.946   6.508  11.020 -0.8172 -1.8690  1.1801
  982MOL0     H35465   6.180   6.647  11.126  1.0411 -0.7728  1.0333
  982MOL0     H35466   6.333   6.658  11.474  1.2584 -1.9220  1.3528
  982MOL0     H35467   6.390   6.651  11.300 -2.6210 -1.0155 -1.8529
  982MOL0     H35468   6.385   6.435  11.498 -5.6560  0.2409 -0.9052
  982MOL0     H35469   6.403   6.404  11.330  1.1877  1.1357 -2.5569
  982MOL0     H35470   6.645   6.424  11.417  1.1136  0.2522 -0.5378
  982MOL0     H35471   6.597   6.532  11.291 -0.0918 -1.3341  0.1413
  982MOL0     H35472   6.723   6.653  11.450 -0.6237  0.4038 -0.4663
  982MOL0     H35473   6.550   6.698  11.491 -1.1801 -0.6999  0.1755
  982MOL0     H35474   6.885   6.510  11.536  1.0295 -2.8958  0.5887
  982MOL0     H35475   7.173   6.404  11.730  0.3716  0.0874 -0.2434
  982MOL0     H35476   7.153   6.540  11.619  0.3738 -1.3372 -1.2555
  982MOL0     H35477   7.085   6.392  11.575 -0.5918  2.0153 -2.3177
  982MOL0     H35478   7.292   6.289  12.048  1.0464 -1.8869  1.3722
  982MOL0     H35479   7.436   6.261  12.241 -0.1187  2.1082 -1.7518
  982MOL0     H35480   7.434   6.054  12.424 -2.3677  0.7066 -1.2379
  982MOL0     H35481   7.536   6.208  12.413  0.8109  2.0364  3.3570
  982MOL0     H35482   7.649   6.118  12.575  0.1059 -0.4622  0.6518
  982MOL0     H35483   7.537   6.222  12.649  0.0111  0.4466 -0.9208
  982MOL0     H35484   7.499   5.909  12.636  1.2996 -1.5080  3.1915
  982MOL0     H35485   7.397   6.009  12.729  0.3871  0.5783  2.3623
  982MOL0     H35486   7.692   5.997  12.772 -0.2014  1.7416 -0.5811
  982MOL0     H35487   7.572   5.904  12.876 -0.7312 -0.5384  0.0095
  982MOL0     H35488   7.672   6.087  12.993  0.0689  0.4020  0.2628
  982MOL0     H35489   7.617   6.212  12.879  2.3158 -1.5790 -2.4756
  982MOL0     H35490   7.472   6.016  13.062 -0.8360 -0.0194 -0.8018
  982MOL0     H35491   7.385   6.094  12.924  2.9191 -0.8760 -2.1711
  982MOL0     H35492   7.415   6.311  13.043 -1.1481 -0.1641  1.1889
  982MOL0     H35493   7.527   6.232  13.160 -0.6058 -0.7123  1.9805
  982MOL0     H35494   7.326   6.122  13.261 -0.7183 -1.5589 -0.6994
  982MOL0     H35495   7.237   6.146  13.110  1.4038  0.1553 -1.5392
  982MOL0     H35496   7.097   6.291  12.506  0.1508  2.2900  0.8823
  982MOL0     H35497   6.968   6.387  12.306  0.3823  1.3856 -0.6299
  982MOL0     H35498   6.820   6.525  12.028  2.2697 -1.7377  0.9263
  982MOL0     H35499   6.629   6.581  11.864 -1.3065  1.4634 -1.9584
  982MOL0     H35500   5.033   6.417  10.603  1.0998 -1.0000 -0.9265
  982MOL0     H35501   4.848   6.330  10.462 -2.7334  1.5336  0.6806
  982MOL0     H35502   4.723   6.266  10.071 -0.5741 -1.5819 -1.4453
  982MOL0     H35503   4.587   6.128   9.918 -0.3916 -0.1759 -0.5466
  982MOL0     H35504   4.400   6.051   9.754  2.7866 -0.6530 -0.0466
  982MOL0     H35505   4.440   5.965   9.909  1.1933  1.7759  0.2825
  982MOL0     H35506   4.167   6.008   9.792  0.6083  1.6045  3.5822
  982MOL0     H35507   4.194   5.907   9.940 -0.8897 -1.1302  0.5385
  982MOL0     H35508   4.153   5.766   9.775 -0.4597  2.2559  2.8152
  982MOL0     H35509   4.247   5.851   9.646  2.7400  1.1566 -0.3863
  982MOL0     H35510   4.308   5.614   9.804 -1.2159 -0.1830 -1.0738
  982MOL0     H35511   4.388   5.738   9.893  2.4408 -5.2708  0.5539
  982MOL0     H35512   4.664   5.688   9.578  0.5852  3.1669 -0.2900
  982MOL0     H35513   4.228   6.276  10.101  0.5989 -3.9291  0.1369
  982MOL0     H35514   4.361   6.574  10.222  0.7386 -0.3748 -1.7183
  982MOL0     H35515   4.227   6.469  10.227 -0.2462  2.2085 -0.5934
  982MOL0     H35516   4.347   6.457  10.357  4.5457 -0.2704 -0.2548
  983MOL0     O35517   2.609  10.563   6.311  0.8233  0.2332  0.0943
  983MOL0     C35518   2.622  10.499   6.200  0.4625 -0.6047  0.0882
  983MOL0     O35519   2.735  10.445   6.154 -0.4531 -0.8005  0.0624
  983MOL0     C35520   2.855  10.498   6.183  0.0806 -0.1151  0.6402
  983MOL0     C35521   2.899  10.602   6.267 -0.4719 -0.1151 -0.3768
  983MOL0     C35522   3.037  10.612   6.307  0.5921 -0.3623  0.6508
  983MOL0     C35523   3.133  10.530   6.239 -0.4747 -0.4769 -1.1978
  983MOL0     O35524   3.260  10.549   6.279 -0.0309  0.7107 -0.2540
  983MOL0     C35525   3.363  10.480   6.204  0.1909  0.6092 -0.7115
  983MOL0     C35526   3.395  10.560   6.071 -0.0428  0.0664 -0.3491
  983MOL0     C35527   3.424  10.707   6.107  0.2123  0.5472  0.3973
  983MOL0     C35528   3.456  10.773   5.979  0.5239 -0.1693  0.4172
  983MOL0     C35529   3.544  10.899   5.993  0.1873  0.1854  0.0639
  983MOL0     C35530   3.691  10.863   6.022 -0.4898 -0.0227  0.0061
  983MOL0     C35531   3.776  10.999   6.013 -0.6316 -0.1457  0.5223
  983MOL0     C35532   3.932  10.984   6.043 -0.7760 -0.2560  0.7409
  983MOL0     N35533   4.009  11.106   5.997 -0.1578  0.6306 -0.3238
  983MOL0     C35534   4.055  11.194   6.085 -0.5599 -0.4054 -0.2659
  983MOL0     C35535   4.119  11.284   6.011 -0.9494 -0.9201 -1.0096
  983MOL0     C35536   4.182  11.413   6.061  0.3367 -0.3458 -0.4162
  983MOL0     C35537   4.296  11.395   6.167  0.4554  0.3835 -1.1559
  983MOL0     C35538   4.334  11.535   6.226  0.0777 -0.0037 -0.5823
  983MOL0     C35539   4.458  11.534   6.325  0.8671  1.0273 -0.2411
  983MOL0     O35540   4.559  11.465   6.253 -0.7459 -0.7655  0.1577
  983MOL0     C35541   4.688  11.464   6.299 -0.6826 -0.9947  0.4438
  983MOL0     C35542   4.731  11.490   6.429  0.2086  0.1213  0.8224
  983MOL0     C35543   4.870  11.494   6.458  0.5421  0.2712 -0.5097
  983MOL0     C35544   4.901  11.532   6.598 -0.1108  0.8149 -0.8057
  983MOL0     C35545   4.966  11.479   6.351  0.0097  0.4531 -0.0127
  983MOL0     C35546   5.110  11.492   6.371  0.1771 -0.4162 -0.1458
  983MOL0     O35547   5.184  11.485   6.258  0.2044 -0.1179  0.8285
  983MOL0     C35548   5.317  11.521   6.242 -0.6912  0.1110  0.6997
  983MOL0     C35549   5.369  11.472   6.119  0.0149 -0.0234  0.1428
  983MOL0     C35550   5.502  11.492   6.093 -0.5266 -0.1457 -0.1478
  983MOL0     C35551   5.593  11.539   6.186  1.0368  0.1094  0.3969
  983MOL0     O35552   5.725  11.540   6.149  0.2047 -0.2750 -0.0072
  983MOL0     C35553   5.818  11.614   6.238  0.6263  0.5960  0.4523
  983MOL0     C35554   5.960  11.601   6.175 -0.5403 -0.4367 -0.1994
  983MOL0     C35555   6.002  11.455   6.191 -0.4004 -0.1108  0.0250
  983MOL0     C35556   6.146  11.438   6.141 -0.1645 -0.1375 -0.2069
  983MOL0     C35557   6.209  11.295   6.157  0.1070 -0.7836 -0.3543
  983MOL0     C35558   6.136  11.195   6.067 -0.4011  1.0685 -0.1586
  983MOL0     C35559   6.204  11.054   6.091 -0.5352 -0.3671  0.5028
  983MOL0     C35560   6.126  10.947   6.022  0.0300 -1.0203 -0.7832
  983MOL0    Cl35561   6.114  10.971   5.838 -0.2485  0.0057  0.1446
  983MOL0     C35562   5.542  11.590   6.308 -0.4392  0.4905 -0.4886
  983MOL0     C35563   5.401  11.579   6.333 -0.1847  0.7927  0.7324
  983MOL0     O35564   5.152  11.492   6.484 -0.1623 -0.0080 -0.2401
  983MOL0     C35565   4.916  11.432   6.229  0.7025 -0.7603  0.3357
  983MOL0     C35566   4.778  11.431   6.203  0.3935 -0.6805  0.3668
  983MOL0     N35567   4.128  11.243   5.884 -0.2631  0.1604 -0.0565
  983MOL0     N35568   4.069  11.133   5.880 -0.0231  0.0382 -0.2642
  983MOL0     C35569   3.088  10.441   6.138  0.6954 -0.0405 -0.5936
  983MOL0     C35570   2.953  10.425   6.113 -0.3903  0.5342  0.4188
  983MOL0     C35571   2.493  10.465   6.132  0.4008 -0.0998 -0.1485
  983MOL0     C35572   2.489  10.342   6.057 -0.4108  0.3367 -0.8175
  983MOL0     C35573   2.394  10.314   5.967  0.5654  0.0063 -0.3197
  983MOL0     C35574   2.281  10.397   5.950 -0.5253 -1.0797 -0.3243
  983MOL0     O35575   2.179  10.359   5.860  0.1426  0.0358 -0.3176
  983MOL0     C35576   2.072  10.458   5.825 -0.4646 -0.2942 -0.1179
  983MOL0     C35577   1.969  10.371   5.749  0.8542 -0.0059 -0.0138
  983MOL0     C35578   1.848  10.445   5.691 -0.3246  0.0161 -1.0475
  983MOL0     C35579   1.725  10.372   5.653  0.7587 -1.0260  0.3583
  983MOL0     C35580   1.646  10.335   5.770  0.2103 -0.0934 -0.3550
  983MOL0     C35581   1.561  10.315   5.852 -1.5070 -1.0243  1.4044
  983MOL0     C35582   2.274  10.521   6.027 -0.5402 -0.5239 -0.6102
  983MOL0     C35583   2.383  10.554   6.116  0.0056  0.4325 -0.8495
  983MOL0     C35584   2.353  10.685   6.189  0.4638  0.3842  0.1671
  983MOL0     H35585   2.828  10.659   6.325 -0.1607  0.0757 -0.1822
  983MOL0     H35586   3.058  10.667   6.399  0.1211 -0.1988  0.6611
  983MOL0     H35587   3.333  10.375   6.200 -0.8041  0.4971  3.9121
  983MOL0     H35588   3.458  10.477   6.257  0.5923  2.2154 -1.2597
  983MOL0     H35589   3.483  10.514   6.028  0.2607 -0.2088  0.5370
  983MOL0     H35590   3.309  10.553   6.003 -1.7777  0.5894  1.6573
  983MOL0     H35591   3.340  10.758   6.155 -0.8299  1.4821 -2.2017
  983MOL0     H35592   3.512  10.720   6.170 -0.4938 -0.7954  1.7549
  983MOL0     H35593   3.499  10.713   5.899  0.7599  2.4773 -1.5824
  983MOL0     H35594   3.364  10.808   5.931  0.9274 -1.0890 -1.1033
  983MOL0     H35595   3.503  10.968   6.068  0.4374 -0.5140  0.8596
  983MOL0     H35596   3.542  10.964   5.905 -0.7180 -2.1085 -1.6923
  983MOL0     H35597   3.707  10.829   6.124 -2.7665  1.5693  0.9666
  983MOL0     H35598   3.720  10.784   5.952 -0.0560 -0.6427  0.8743
  983MOL0     H35599   3.737  11.077   6.079 -0.9654  0.5012 -0.4339
  983MOL0     H35600   3.771  11.033   5.909  1.1886  2.3852  1.1679
  983MOL0     H35601   3.950  10.952   6.146 -2.4148 -1.4914  0.6941
  983MOL0     H35602   3.969  10.904   5.978 -2.7659  2.0295 -3.6773
  983MOL0     H35603   4.040  11.199   6.192 -2.1134 -0.1869 -0.4701
  983MOL0     H35604   4.108  11.467   6.121 -1.5814  1.4235 -4.0687
  983MOL0     H35605   4.209  11.485   5.984 -0.6670  1.2476  0.6571
  983MOL0     H35606   4.266  11.326   6.246  0.8029  0.9294 -0.5404
  983MOL0     H35607   4.386  11.352   6.121  2.6467  2.1099  1.2386
  983MOL0     H35608   4.350  11.610   6.148  0.2346  0.0781 -0.4722
  983MOL0     H35609   4.248  11.575   6.280  0.0201  0.6920 -1.1654
  983MOL0     H35610   4.493  11.631   6.362  2.4605  0.0142  1.0622
  983MOL0     H35611   4.444  11.473   6.415  2.1650  1.1464  0.0676
  983MOL0     H35612   4.654  11.499   6.505 -0.9502 -0.0687 -0.2947
  983MOL0     H35613   4.814  11.545   6.662  0.1329 -2.0027  0.2571
  983MOL0     H35614   4.962  11.622   6.610  0.8714  0.3330 -1.9412
  983MOL0     H35615   4.951  11.443   6.637  0.4529  1.1271 -0.8018
  983MOL0     H35616   5.308  11.422   6.045  0.0550 -1.5208  1.0816
  983MOL0     H35617   5.526  11.472   5.989 -0.6633 -1.9277  0.1226
  983MOL0     H35618   5.786  11.716   6.262 -2.5881 -0.2545  0.3372
  983MOL0     H35619   5.835  11.575   6.338  1.3970 -0.1385  0.0479
  983MOL0     H35620   5.959  11.623   6.068 -1.6113 -1.0320 -0.3231
  983MOL0     H35621   6.023  11.672   6.229  0.7320  0.4378 -2.6648
  983MOL0     H35622   5.934  11.398   6.127 -0.9812  0.4928  0.0902
  983MOL0     H35623   5.986  11.423   6.294 -2.6058  1.2110  0.1476
  983MOL0     H35624   6.210  11.503   6.202 -0.2808  0.4403 -0.6962
  983MOL0     H35625   6.153  11.463   6.035 -0.2070  1.4893  0.1441
  983MOL0     H35626   6.314  11.306   6.126  0.1436 -0.2279 -0.0413
  983MOL0     H35627   6.201  11.269   6.263  1.2072 -0.8129 -0.2596
  983MOL0     H35628   6.133  11.233   5.965  0.2267  1.1173 -0.1665
  983MOL0     H35629   6.035  11.180   6.106 -0.7516 -0.1694 -1.4701
  983MOL0     H35630   6.217  11.026   6.196  1.0793  0.0890  0.4545
  983MOL0     H35631   6.305  11.051   6.049  0.0014 -3.6288  1.7933
  983MOL0     H35632   6.023  10.952   6.058  0.8297  0.0343  1.5648
  983MOL0     H35633   6.180  10.856   6.051 -0.3408 -0.7900  0.6906
  983MOL0     H35634   5.600  11.629   6.392 -1.2552  0.8714 -0.0858
  983MOL0     H35635   5.365  11.624   6.425  1.0449  0.7875  1.2432
  983MOL0     H35636   4.987  11.395   6.156 -1.3483 -2.5135 -0.9023
  983MOL0     H35637   4.751  11.405   6.101  1.0872  0.5850 -0.1653
  983MOL0     H35638   3.156  10.369   6.094  3.3582  0.5010  2.2681
  983MOL0     H35639   2.907  10.360   6.039  0.1197  1.7877 -1.0521
  983MOL0     H35640   2.583  10.289   6.048  0.9300  2.2540  0.8259
  983MOL0     H35641   2.390  10.235   5.893 -0.4990  1.1489 -1.5365
  983MOL0     H35642   2.013  10.485   5.914 -2.2271 -4.0264  0.0464
  983MOL0     H35643   2.103  10.533   5.752 -1.4745  1.3466  1.0535
  983MOL0     H35644   1.933  10.285   5.807  1.6196  0.6454  1.4926
  983MOL0     H35645   2.020  10.327   5.663 -2.3597  0.1412 -2.1827
  983MOL0     H35646   1.816  10.528   5.756  4.0055  0.5800  0.7094
  983MOL0     H35647   1.900  10.491   5.606  0.0442  0.8662 -0.3879
  983MOL0     H35648   1.742  10.284   5.590  2.5034 -0.4517 -0.0383
  983MOL0     H35649   1.656  10.437   5.599 -0.4558  0.8539  3.8393
  983MOL0     H35650   1.491  10.299   5.932 -0.6940  0.3659  2.4439
  983MOL0     H35651   2.187  10.582   6.008 -0.4430 -0.4837 -0.9291
  983MOL0     H35652   2.454  10.725   6.204  0.1157  1.6292 -0.6757
  983MOL0     H35653   2.297  10.753   6.125  0.8137 -1.8135 -2.7164
  983MOL0     H35654   2.310  10.680   6.289 -1.3526 -2.5044 -0.6438
  984MOL0     O35655   8.662   5.482   3.023  0.3157  0.7009 -0.3566
  984MOL0     C35656   8.699   5.499   3.143  0.4817 -0.0845  0.0324
  984MOL0     O35657   8.819   5.457   3.189  0.6198 -0.3507 -0.1812
  984MOL0     C35658   8.916   5.415   3.094  0.3256 -0.4346  0.2020
  984MOL0     C35659   8.994   5.296   3.108 -0.1789  0.4589  0.5590
  984MOL0     C35660   9.111   5.274   3.028 -0.0232  0.4052 -0.9510
  984MOL0     C35661   9.168   5.376   2.953  0.0352  0.8241  0.5514
  984MOL0     O35662   9.298   5.362   2.901  0.2417 -0.6289 -1.0148
  984MOL0     C35663   9.353   5.467   2.827 -0.6505 -0.6241  0.0787
  984MOL0     C35664   9.403   5.588   2.918 -0.9588 -1.1384  0.7943
  984MOL0     C35665   9.555   5.604   2.887 -0.2379  0.8112 -0.3193
  984MOL0     C35666   9.647   5.486   2.929 -0.1063  0.7622 -0.3721
  984MOL0     C35667   9.793   5.518   2.884 -0.0185  0.5225  0.2264
  984MOL0     C35668   9.888   5.403   2.926 -0.0728  0.0883  0.8606
  984MOL0     C35669  10.034   5.451   2.921 -0.0611  0.2463  0.6790
  984MOL0     C35670  10.090   5.509   2.788 -0.0960 -0.7166  0.5275
  984MOL0     N35671  10.237   5.489   2.789  0.2503 -0.2851 -0.4605
  984MOL0     C35672  10.329   5.586   2.760 -0.3395 -0.3865 -1.2101
  984MOL0     C35673  10.451   5.532   2.760  0.1969  0.0094  0.2376
  984MOL0     C35674  10.580   5.607   2.720 -0.5847  0.5486 -0.7031
  984MOL0     C35675  10.715   5.521   2.704 -1.1825  0.2402 -0.2555
  984MOL0     C35676  10.782   5.458   2.830 -0.1361 -0.6486 -0.0215
  984MOL0     C35677  10.906   5.384   2.789  0.4525  0.0002  0.3489
  984MOL0     O35678  10.990   5.466   2.709 -0.3289 -0.0215  0.0794
  984MOL0     C35679  11.106   5.421   2.666 -0.3170  0.3196  0.1063
  984MOL0     C35680  11.152   5.468   2.548  0.5949 -0.0279 -1.0338
  984MOL0     C35681  11.279   5.434   2.495  0.5931 -0.3928 -0.8254
  984MOL0     C35682  11.313   5.514   2.366 -0.2046  0.0740 -0.4269
  984MOL0     C35683  11.365   5.342   2.561  0.4562  0.8028  0.7454
  984MOL0     C35684  11.487   5.280   2.500  0.1291  0.5061 -0.1430
  984MOL0     O35685  11.540   5.330   2.384 -0.5089  0.2385  0.0092
  984MOL0     C35686  11.660   5.274   2.336 -0.6300  0.0341 -0.1063
  984MOL0     C35687  11.771   5.228   2.417  0.6894 -0.0854  0.2096
  984MOL0     C35688  11.887   5.168   2.355 -0.1433  0.1263  0.2481
  984MOL0     C35689  11.894   5.166   2.216 -0.1027 -0.4356  0.2855
  984MOL0     O35690  11.994   5.106   2.144  0.8614  0.8588  0.3522
  984MOL0     C35691  12.048   4.977   2.178 -0.2083 -0.1531 -0.4788
  984MOL0     C35692  12.017   4.872   2.076  0.0080  0.3184  0.0974
  984MOL0     C35693  12.082   4.894   1.942  0.1974 -0.1702 -0.0296
  984MOL0     C35694  12.074   4.773   1.857 -0.3843 -0.1771 -0.4937
  984MOL0     C35695  12.123   4.810   1.715 -0.2584 -0.2316  0.1107
  984MOL0     C35696  12.272   4.826   1.716 -0.1756  0.0310 -0.6307
  984MOL0     C35697  12.316   4.863   1.571  0.3956  1.1358 -0.4119
  984MOL0     C35698  12.463   4.887   1.549 -0.5561  1.3599  0.0658
  984MOL0    Cl35699  12.561   4.734   1.591 -0.3228 -0.1667  0.2190
  984MOL0     C35700  11.786   5.206   2.141  0.4990  0.3376 -0.5972
  984MOL0     C35701  11.677   5.267   2.198  0.2220  0.1092 -1.4622
  984MOL0     O35702  11.519   5.185   2.565 -0.0059 -0.0865 -0.3941
  984MOL0     C35703  11.314   5.296   2.686 -0.4596 -0.0012 -0.4426
  984MOL0     C35704  11.194   5.336   2.741  1.1415  0.0067  0.3631
  984MOL0     N35705  10.442   5.395   2.792  0.3589 -0.6161 -0.9360
  984MOL0     N35706  10.312   5.375   2.805 -0.3804 -0.2767 -0.4355
  984MOL0     C35707   9.085   5.487   2.915  0.6405 -0.2232 -0.4081
  984MOL0     C35708   8.957   5.498   2.984  0.1001 -0.5266 -0.0205
  984MOL0     C35709   8.593   5.544   3.235  0.6128  0.6557  0.2952
  984MOL0     C35710   8.631   5.513   3.366 -0.8619  0.3976 -0.2569
  984MOL0     C35711   8.552   5.549   3.478  0.3624  0.8612  0.0887
  984MOL0     C35712   8.428   5.624   3.455 -0.3904  0.4108  1.0866
  984MOL0     O35713   8.347   5.688   3.543 -0.2819  0.2628 -0.3244
  984MOL0     C35714   8.367   5.666   3.681  0.2818  0.2173 -0.4995
  984MOL0     C35715   8.446   5.775   3.755 -0.6240 -0.6879  0.4353
  984MOL0     C35716   8.597   5.745   3.773 -0.3095 -0.5914  0.5289
  984MOL0     C35717   8.624   5.649   3.886 -0.2401 -0.1828 -0.4414
  984MOL0     C35718   8.751   5.693   3.949  0.2218  0.4114  0.5731
  984MOL0     C35719   8.849   5.739   4.009 -0.0438  0.1675  0.0494
  984MOL0     C35720   8.401   5.651   3.317  0.1802  0.0063 -0.3206
  984MOL0     C35721   8.482   5.616   3.206 -0.1268  0.6950 -0.1929
  984MOL0     C35722   8.429   5.642   3.075 -0.1032 -0.4226  0.6110
  984MOL0     H35723   8.958   5.227   3.183 -1.1760  0.6049  0.2326
  984MOL0     H35724   9.169   5.183   3.040 -1.9582 -0.6835  0.9306
  984MOL0     H35725   9.291   5.503   2.744  1.4158 -0.8416 -1.6590
  984MOL0     H35726   9.439   5.428   2.771 -0.8307  0.2983 -0.8780
  984MOL0     H35727   9.345   5.678   2.899  3.3584  1.5710 -1.0716
  984MOL0     H35728   9.394   5.572   3.025 -3.8974 -0.3590  0.7308
  984MOL0     H35729   9.575   5.619   2.780  2.0102  1.9932  0.2070
  984MOL0     H35730   9.586   5.692   2.943  0.4797  0.9770 -0.9499
  984MOL0     H35731   9.644   5.470   3.037 -1.6541 -2.2777 -0.7601
  984MOL0     H35732   9.611   5.396   2.878 -1.1214  1.8037 -1.5483
  984MOL0     H35733   9.831   5.605   2.939  3.4118 -0.6705 -0.0271
  984MOL0     H35734   9.797   5.528   2.775  1.5928  1.1035  0.3168
  984MOL0     H35735   9.866   5.373   3.029  0.6247  2.0731  1.6414
  984MOL0     H35736   9.878   5.322   2.854 -1.2645  3.0166 -2.5806
  984MOL0     H35737  10.091   5.362   2.947  0.9459  0.4781 -0.6231
  984MOL0     H35738  10.037   5.524   3.002 -0.7050  0.7630  0.2489
  984MOL0     H35739  10.053   5.458   2.699 -0.3149 -1.4487  1.0278
  984MOL0     H35740  10.071   5.616   2.782 -2.3477 -1.0763  0.3163
  984MOL0     H35741  10.305   5.689   2.735  0.7725 -0.3308 -2.0866
  984MOL0     H35742  10.596   5.685   2.795 -0.7258  2.4524 -2.5757
  984MOL0     H35743  10.559   5.672   2.635 -1.6807  4.0386  1.9771
  984MOL0     H35744  10.690   5.439   2.636 -2.4049 -1.1260  1.7320
  984MOL0     H35745  10.782   5.596   2.661  0.4047 -0.7973  0.3137
  984MOL0     H35746  10.814   5.542   2.893 -0.5840 -1.6070  1.5547
  984MOL0     H35747  10.714   5.397   2.890 -0.3252  0.1133  0.5620
  984MOL0     H35748  10.956   5.345   2.879  1.8851  0.8602 -0.0288
  984MOL0     H35749  10.861   5.295   2.744 -0.7724  0.6482  0.2596
  984MOL0     H35750  11.077   5.522   2.491 -2.8071 -3.2735  0.0049
  984MOL0     H35751  11.418   5.544   2.365  0.5849 -2.4234 -0.2041
  984MOL0     H35752  11.248   5.600   2.346 -0.9080 -0.1937  0.6162
  984MOL0     H35753  11.319   5.443   2.283  2.7140 -1.3706  0.8735
  984MOL0     H35754  11.768   5.243   2.525 -1.7549 -0.1092  0.2054
  984MOL0     H35755  11.969   5.133   2.416  1.1964 -0.8325 -1.9643
  984MOL0     H35756  12.153   4.991   2.205 -0.5196 -1.7637  1.8376
  984MOL0     H35757  11.986   4.951   2.264 -3.5573 -0.3241 -2.7577
  984MOL0     H35758  12.047   4.773   2.114  0.4733  0.2521 -0.4243
  984MOL0     H35759  11.910   4.867   2.053 -1.2607  3.3744  4.2611
  984MOL0     H35760  12.182   4.936   1.949  1.5423 -2.9109 -1.1716
  984MOL0     H35761  12.029   4.971   1.884 -1.2441  0.0839  1.5496
  984MOL0     H35762  11.968   4.749   1.853 -0.1914 -1.4333  1.0106
  984MOL0     H35763  12.130   4.692   1.907 -0.6203 -0.2084 -0.2805
  984MOL0     H35764  12.109   4.717   1.659  1.9515 -0.4445 -0.1625
  984MOL0     H35765  12.080   4.896   1.662  1.4771  0.5148 -0.1352
  984MOL0     H35766  12.304   4.732   1.761 -1.7803  0.3246  1.2981
  984MOL0     H35767  12.298   4.907   1.785  2.4590 -1.0423 -0.2515
  984MOL0     H35768  12.269   4.959   1.549 -1.2218  0.1727 -1.3962
  984MOL0     H35769  12.262   4.790   1.510 -0.3480 -0.1917  1.6948
  984MOL0     H35770  12.498   4.971   1.609 -0.1557  2.3866 -1.5430
  984MOL0     H35771  12.485   4.901   1.443 -0.2789  2.8068  0.3026
  984MOL0     H35772  11.798   5.187   2.035 -0.7955 -1.4939 -0.4719
  984MOL0     H35773  11.583   5.293   2.151 -0.4575  0.6348  0.0998
  984MOL0     H35774  11.386   5.231   2.736  1.0882  0.1712 -2.3088
  984MOL0     H35775  11.168   5.294   2.838  0.7872 -0.8086 -0.0835
  984MOL0     H35776   9.103   5.561   2.838 -0.0182 -0.7279 -1.0636
  984MOL0     H35777   8.894   5.585   2.972  0.1491 -0.6922 -1.7514
  984MOL0     H35778   8.719   5.454   3.390 -0.4697  0.6915 -0.9578
  984MOL0     H35779   8.596   5.520   3.573 -0.7639 -0.8633  0.1379
  984MOL0     H35780   8.269   5.644   3.724  0.9111 -2.7726 -0.4092
  984MOL0     H35781   8.404   5.565   3.700  1.3238  0.5144 -0.8677
  984MOL0     H35782   8.413   5.799   3.856 -0.6121  0.2672  0.2203
  984MOL0     H35783   8.437   5.871   3.704 -0.5100 -0.3198  1.0943
  984MOL0     H35784   8.631   5.688   3.686 -1.1653  0.8016 -0.7775
  984MOL0     H35785   8.665   5.830   3.783  0.2570 -1.1673  1.8026
  984MOL0     H35786   8.621   5.542   3.862  0.1214 -1.2222  3.5340
  984MOL0     H35787   8.548   5.662   3.964 -1.4312 -1.0619 -1.4103
  984MOL0     H35788   8.934   5.780   4.060  0.3963 -2.4601  1.5830
  984MOL0     H35789   8.313   5.710   3.292  0.0603 -0.2283 -0.4601
  984MOL0     H35790   8.508   5.677   3.008  1.8586 -1.2245  2.4072
  984MOL0     H35791   8.379   5.558   3.027 -2.1091  0.0528  1.7797
  984MOL0     H35792   8.349   5.717   3.069  0.2810 -0.0083  0.5501
  985MOL0     O35793   7.087   7.633   2.166  0.4409 -0.5062  0.3605
  985MOL0     C35794   7.069   7.568   2.264  0.2609 -0.1731 -0.8693
  985MOL0     O35795   7.136   7.588   2.382  0.1073  0.4384 -0.4946
  985MOL0     C35796   7.255   7.662   2.384  0.7125  0.3792 -0.2481
  985MOL0     C35797   7.361   7.652   2.295 -0.2697 -0.7984 -0.0585
  985MOL0     C35798   7.496   7.697   2.316  0.1047 -0.8343  0.1904
  985MOL0     C35799   7.521   7.778   2.428  0.4282 -0.0733  0.3878
  985MOL0     O35800   7.646   7.838   2.450 -0.3492 -0.7956  0.6366
  985MOL0     C35801   7.686   7.902   2.324 -0.0247  0.1046 -0.6832
  985MOL0     C35802   7.812   7.989   2.353 -0.5459  0.1866  0.0662
  985MOL0     C35803   7.941   7.907   2.351 -0.4007 -0.1273 -1.3050
  985MOL0     C35804   8.052   8.012   2.343  0.6095  0.0247 -0.3741
  985MOL0     C35805   8.184   7.929   2.361 -0.1812  0.2280  0.0019
  985MOL0     C35806   8.303   8.010   2.315 -0.1630 -0.2363 -0.2519
  985MOL0     C35807   8.431   7.930   2.327 -0.3349  0.8466 -0.4736
  985MOL0     C35808   8.462   7.867   2.468  0.4462 -0.4313 -0.0726
  985MOL0     N35809   8.604   7.836   2.481 -0.0815  0.4616 -0.3540
  985MOL0     C35810   8.641   7.714   2.544 -1.1105  0.5956 -0.7447
  985MOL0     C35811   8.777   7.731   2.570  0.0837 -0.1945  0.2077
  985MOL0     C35812   8.861   7.617   2.608 -0.0729  0.6728 -0.4947
  985MOL0     C35813   9.013   7.641   2.598 -0.9856  0.6539 -0.4831
  985MOL0     C35814   9.093   7.548   2.688 -0.3659  0.7273 -0.2061
  985MOL0     C35815   9.090   7.396   2.664 -0.4613 -0.7222 -0.2591
  985MOL0     O35816   9.105   7.366   2.520  0.4209 -0.6322 -0.2717
  985MOL0     C35817   9.229   7.335   2.491  0.6835 -0.8420 -0.4645
  985MOL0     C35818   9.277   7.203   2.503  0.3136  0.2627  0.2400
  985MOL0     C35819   9.406   7.169   2.477 -0.0748  0.1926  0.6956
  985MOL0     C35820   9.446   7.027   2.481 -0.8270  1.2079 -0.0068
  985MOL0     C35821   9.491   7.271   2.433 -0.2715 -0.4907 -0.0790
  985MOL0     C35822   9.637   7.243   2.386  0.1084  0.4906  0.3176
  985MOL0     O35823   9.699   7.355   2.328  0.6414 -0.1179  0.2361
  985MOL0     C35824   9.816   7.362   2.255  0.5261 -0.7437 -0.2837
  985MOL0     C35825   9.823   7.458   2.152 -0.3618 -0.0322 -0.1205
  985MOL0     C35826   9.938   7.476   2.075  0.1236 -0.1252  0.6566
  985MOL0     C35827  10.053   7.399   2.098  1.1900 -0.7724  0.0231
  985MOL0     O35828  10.166   7.424   2.022  0.5161  0.0267 -0.8410
  985MOL0     C35829  10.296   7.416   2.082  0.5229 -0.9896 -0.7608
  985MOL0     C35830  10.395   7.449   1.976 -0.7802 -0.5997 -0.4929
  985MOL0     C35831  10.532   7.437   2.037 -0.5990 -0.0196  0.4012
  985MOL0     C35832  10.641   7.414   1.933 -0.0445 -0.1972  0.3563
  985MOL0     C35833  10.784   7.400   1.993  0.9628 -0.6696  0.7395
  985MOL0     C35834  10.877   7.442   1.881 -0.4058 -0.2362 -0.1870
  985MOL0     C35835  10.891   7.596   1.869 -0.2091 -0.1830  0.4093
  985MOL0     C35836  10.913   7.638   1.724 -0.0688 -0.1498 -0.0274
  985MOL0    Cl35837  11.052   7.549   1.643  0.7216  0.4048 -0.7192
  985MOL0     C35838  10.049   7.301   2.196 -0.8961  0.1752  2.3792
  985MOL0     C35839   9.934   7.286   2.278 -0.7351  0.3263  0.5238
  985MOL0     O35840   9.695   7.135   2.395 -0.0191  0.3731 -0.4255
  985MOL0     C35841   9.448   7.407   2.446 -0.3885 -0.1050 -0.0756
  985MOL0     C35842   9.318   7.435   2.476  0.3781  0.2119 -0.6057
  985MOL0     N35843   8.813   7.862   2.538  0.2226  0.5375  0.0021
  985MOL0     N35844   8.703   7.917   2.495 -0.2013  0.5015  0.0429
  985MOL0     C35845   7.413   7.805   2.510  0.3360  0.4990 -1.0363
  985MOL0     C35846   7.282   7.750   2.487  1.3934  0.3762  0.0214
  985MOL0     C35847   6.968   7.457   2.268  0.2143  0.1496 -0.6592
  985MOL0     C35848   6.988   7.352   2.366 -0.0420 -0.1223  0.1826
  985MOL0     C35849   6.891   7.253   2.384 -0.2239  1.2924 -0.2705
  985MOL0     C35850   6.775   7.250   2.306 -0.6423  0.0190 -0.4714
  985MOL0     O35851   6.678   7.153   2.325 -0.8925 -0.0263 -0.3698
  985MOL0     C35852   6.548   7.207   2.354  0.7411 -0.2790 -0.1614
  985MOL0     C35853   6.528   7.224   2.503 -0.6209  0.5813  0.0700
  985MOL0     C35854   6.385   7.285   2.521 -0.2990  0.8346 -1.1277
  985MOL0     C35855   6.384   7.310   2.678  0.3551  0.5696 -0.0589
  985MOL0     C35856   6.322   7.202   2.755  0.0754 -0.1304  0.0534
  985MOL0     C35857   6.258   7.110   2.805 -0.0680  0.1141 -0.1730
  985MOL0     C35858   6.755   7.345   2.205 -0.5937 -0.5514  0.3721
  985MOL0     C35859   6.849   7.453   2.189 -0.5033  0.4222 -0.1751
  985MOL0     C35860   6.821   7.551   2.081 -0.7543 -0.8009  0.4169
  985MOL0     H35861   7.355   7.596   2.202 -1.9622  0.9755 -1.0912
  985MOL0     H35862   7.572   7.678   2.241  1.2455  1.9652  0.4940
  985MOL0     H35863   7.611   7.971   2.285 -0.4480 -0.2732 -0.5388
  985MOL0     H35864   7.712   7.829   2.247  0.1628 -1.3872  0.7305
  985MOL0     H35865   7.812   8.066   2.276 -1.7205  0.2981  0.1570
  985MOL0     H35866   7.805   8.046   2.446  0.6842  1.4344 -0.5748
  985MOL0     H35867   7.955   7.854   2.446  1.1730  1.0779 -0.8219
  985MOL0     H35868   7.943   7.842   2.263  1.5764 -0.2792 -1.1837
  985MOL0     H35869   8.052   8.060   2.245  0.8949  0.4148 -0.1843
  985MOL0     H35870   8.051   8.089   2.421  2.0816 -1.4255  1.1691
  985MOL0     H35871   8.173   7.848   2.288 -0.9920  0.4117 -0.0847
  985MOL0     H35872   8.187   7.885   2.461 -1.7156  0.4400  0.1639
  985MOL0     H35873   8.287   8.036   2.210  0.9443 -0.8547 -0.5928
  985MOL0     H35874   8.307   8.100   2.377  1.6618 -2.1031  2.5724
  985MOL0     H35875   8.509   8.002   2.301 -0.3162  0.8814 -0.3234
  985MOL0     H35876   8.446   7.854   2.250  3.9674  1.6326 -0.6450
  985MOL0     H35877   8.429   7.937   2.545  0.4263 -0.4859 -0.0315
  985MOL0     H35878   8.410   7.771   2.475  0.1729 -0.2900 -0.1352
  985MOL0     H35879   8.579   7.631   2.576 -0.7265  1.1062  1.4887
  985MOL0     H35880   8.845   7.526   2.549  3.4874 -0.5004  0.0649
  985MOL0     H35881   8.836   7.597   2.713  3.5135  1.0494  0.5854
  985MOL0     H35882   9.036   7.635   2.492 -2.5956  3.4637 -1.0837
  985MOL0     H35883   9.040   7.745   2.617  0.6121  0.1878 -0.0721
  985MOL0     H35884   9.197   7.580   2.678 -0.9900  3.6509  1.5236
  985MOL0     H35885   9.084   7.578   2.792  0.0077  1.7135 -0.4480
  985MOL0     H35886   9.170   7.352   2.725 -0.8381 -0.5392  0.3772
  985MOL0     H35887   8.994   7.372   2.710  0.6253 -0.1050  2.5755
  985MOL0     H35888   9.195   7.137   2.528 -2.5987  2.5464 -2.5117
  985MOL0     H35889   9.383   6.954   2.531  0.8585 -1.6475 -1.7958
  985MOL0     H35890   9.533   7.026   2.547 -0.3082 -0.3703 -0.6800
  985MOL0     H35891   9.466   6.990   2.381 -0.7111  2.1612 -0.3523
  985MOL0     H35892   9.734   7.515   2.127  0.3194  0.9539 -0.3301
  985MOL0     H35893   9.936   7.545   1.991  3.0848 -1.8872 -1.0047
  985MOL0     H35894  10.287   7.498   2.153 -0.7983 -1.2400 -0.6210
  985MOL0     H35895  10.315   7.323   2.136  2.9529  1.3990  2.9592
  985MOL0     H35896  10.387   7.381   1.890  0.2657  0.3766 -1.3973
  985MOL0     H35897  10.382   7.550   1.938 -1.7239 -0.3078  0.5393
  985MOL0     H35898  10.533   7.356   2.110  0.0607  2.0997  2.8946
  985MOL0     H35899  10.558   7.525   2.096 -1.3517  1.0002 -0.7413
  985MOL0     H35900  10.650   7.498   1.863 -3.4222  2.4505  2.7293
  985MOL0     H35901  10.622   7.324   1.875  4.0919 -1.7262  1.0787
  985MOL0     H35902  10.806   7.467   2.078  1.6640  0.8626 -0.5966
  985MOL0     H35903  10.814   7.299   2.022  2.7096  0.1971  2.1475
  985MOL0     H35904  10.850   7.381   1.794 -0.4304 -1.6066  0.7531
  985MOL0     H35905  10.977   7.404   1.907 -1.4113 -0.9864  2.9151
  985MOL0     H35906  10.967   7.642   1.932 -0.2727 -0.8270  0.9703
  985MOL0     H35907  10.802   7.653   1.895 -0.0398  1.0518 -1.4883
  985MOL0     H35908  10.935   7.744   1.712  0.1783 -0.3096 -1.1262
  985MOL0     H35909  10.823   7.626   1.664 -1.0248  0.1952  1.3147
  985MOL0     H35910  10.134   7.234   2.207 -0.8336 -0.3265 -0.4126
  985MOL0     H35911   9.933   7.206   2.351 -1.9471 -0.9471 -0.8048
  985MOL0     H35912   9.521   7.482   2.420 -1.9518  1.1560 -0.9880
  985MOL0     H35913   9.300   7.540   2.496 -0.8338 -0.4792  2.3921
  985MOL0     H35914   7.421   7.877   2.590  1.0006 -1.0646  0.3624
  985MOL0     H35915   7.206   7.769   2.563 -0.0363 -2.1711 -0.6276
  985MOL0     H35916   7.083   7.358   2.418  0.0966  0.4540 -0.1277
  985MOL0     H35917   6.906   7.181   2.463 -0.3026  0.1101 -1.3014
  985MOL0     H35918   6.516   7.300   2.305  1.1742  0.1117  0.2899
  985MOL0     H35919   6.473   7.135   2.320  1.8527 -1.1690 -0.8236
  985MOL0     H35920   6.602   7.296   2.540 -1.5244  0.3846  2.4151
  985MOL0     H35921   6.550   7.124   2.543  2.1131  0.4588 -1.4771
  985MOL0     H35922   6.386   7.376   2.460  0.1826  1.2664 -0.4899
  985MOL0     H35923   6.301   7.219   2.497 -2.9269  3.7013 -0.4054
  985MOL0     H35924   6.332   7.405   2.694  0.5392  0.8969 -1.3052
  985MOL0     H35925   6.486   7.331   2.711  0.1721  1.9124 -0.2997
  985MOL0     H35926   6.199   7.039   2.860 -2.1207 -0.0550 -2.4329
  985MOL0     H35927   6.671   7.329   2.137  0.4468 -2.0266 -0.6413
  985MOL0     H35928   6.893   7.531   2.001 -2.4991 -0.1676 -1.3987
  985MOL0     H35929   6.724   7.537   2.033  0.1712 -1.2020 -1.4085
  985MOL0     H35930   6.830   7.657   2.108 -1.5184 -0.6005 -0.0774
  986MOL0     O35931  11.376   4.200  10.712  0.0286 -0.0836  0.0394
  986MOL0     C35932  11.365   4.078  10.730 -0.5011 -0.8004 -0.7718
  986MOL0     O35933  11.428   3.977  10.658 -0.0675  0.6444  0.5851
  986MOL0     C35934  11.525   4.009  10.577  1.2353 -0.0876 -0.2869
  986MOL0     C35935  11.503   3.975  10.444  0.5190  0.0849  0.1833
  986MOL0     C35936  11.611   3.979  10.361  0.6559  0.5906 -0.0176
  986MOL0     C35937  11.735   4.035  10.404 -0.1761 -0.1038  0.0915
  986MOL0     O35938  11.850   4.031  10.327  0.2041 -0.2476 -0.4479
  986MOL0     C35939  11.895   4.163  10.294  0.0464  0.0416  0.6609
  986MOL0     C35940  12.044   4.156  10.249  1.1598 -0.1409 -0.3157
  986MOL0     C35941  12.132   4.154  10.375 -0.5430 -0.2874  0.6414
  986MOL0     C35942  12.276   4.159  10.318  0.8609  0.1277 -0.8546
  986MOL0     C35943  12.389   4.141  10.421  1.4951  0.2535  0.1699
  986MOL0     C35944  12.527   4.128  10.357  0.3337  0.7243  0.9285
  986MOL0     C35945  12.583   4.275  10.323 -0.3782 -0.2822 -0.0850
  986MOL0     C35946  12.734   4.297  10.326  0.5161 -0.6607 -0.1089
  986MOL0     N35947  12.815   4.223  10.218 -0.1834 -0.2148  0.2141
  986MOL0     C35948  12.950   4.200  10.222 -0.2050 -0.2889 -0.0707
  986MOL0     C35949  12.981   4.111  10.127  0.3557 -0.0344 -0.3942
  986MOL0     C35950  13.116   4.050  10.122  0.3235 -0.3829 -0.3751
  986MOL0     C35951  13.112   3.893  10.123 -0.0077 -1.3343  0.2184
  986MOL0     C35952  13.141   3.827   9.989  0.7353 -0.0714  0.0225
  986MOL0     C35953  13.147   3.676  10.018 -0.6983  0.1595 -0.0656
  986MOL0     O35954  13.190   3.601   9.905 -0.0074  0.0757 -0.8675
  986MOL0     C35955  13.323   3.551   9.909  0.4598 -0.1681 -0.0893
  986MOL0     C35956  13.432   3.620   9.969 -0.4114  0.1666  0.6990
  986MOL0     C35957  13.562   3.565   9.955  0.2278 -0.5052 -0.0147
  986MOL0     C35958  13.680   3.641  10.027 -0.3339  0.5185  0.3582
  986MOL0     C35959  13.587   3.445   9.879  1.3286 -0.6819  0.2833
  986MOL0     C35960  13.718   3.387   9.857 -1.3114 -0.1150 -0.2029
  986MOL0     O35961  13.760   3.360   9.725 -0.6694  0.7475 -0.1707
  986MOL0     C35962  13.877   3.291   9.704 -0.1037  0.3504  0.9276
  986MOL0     C35963  14.002   3.340   9.741  0.2501  1.0845  0.5169
  986MOL0     C35964  14.117   3.262   9.711  1.1944 -0.9387  0.5311
  986MOL0     C35965  14.115   3.133   9.659  0.5607  0.0741 -0.5703
  986MOL0     O35966  14.217   3.052   9.619 -0.5307  0.4070 -0.3473
  986MOL0     C35967  14.349   3.096   9.652  0.6759  0.8030  0.5261
  986MOL0     C35968  14.455   2.996   9.617  0.0435 -0.4077  0.1258
  986MOL0     C35969  14.574   3.056   9.546 -0.4248 -1.1279 -0.7695
  986MOL0     C35970  14.682   2.942   9.555 -0.1767  0.3253  0.7934
  986MOL0     C35971  14.810   2.990   9.502 -0.2308  0.0892  0.5361
  986MOL0     C35972  14.926   2.888   9.531 -0.6456  0.0901 -0.8168
  986MOL0     C35973  15.065   2.946   9.517 -0.7560  0.2666  0.6046
  986MOL0     C35974  15.170   2.839   9.512 -0.4628  0.1772  0.0925
  986MOL0    Cl35975  15.322   2.920   9.525  0.0665 -0.7945 -0.0213
  986MOL0     C35976  13.988   3.082   9.640  0.7676 -0.1219  0.4609
  986MOL0     C35977  13.864   3.164   9.647 -0.1507 -0.5151 -0.0294
  986MOL0     O35978  13.774   3.348   9.958 -0.0874  0.4503 -0.1119
  986MOL0     C35979  13.482   3.398   9.804  0.6930 -0.8719 -0.5329
  986MOL0     C35980  13.350   3.437   9.824 -0.0724 -0.5676 -0.8593
  986MOL0     N35981  12.866   4.084  10.049  0.0680 -0.2688  0.4327
  986MOL0     N35982  12.771   4.171  10.101 -0.7932  0.3572 -0.0073
  986MOL0     C35983  11.747   4.064  10.537  0.8710 -0.7198 -0.3850
  986MOL0     C35984  11.641   4.066  10.625  0.3769 -0.7776 -0.2921
  986MOL0     C35985  11.269   4.033  10.841  0.1925  0.9620  0.1635
  986MOL0     C35986  11.235   3.902  10.835  0.0613  0.0737  0.5472
  986MOL0     C35987  11.150   3.839  10.934  0.4117 -0.9030 -0.2788
  986MOL0     C35988  11.103   3.921  11.034 -0.4381  0.1652 -0.7681
  986MOL0     O35989  11.029   3.857  11.130  0.3874 -0.0755  0.7002
  986MOL0     C35990  10.961   3.926  11.230 -0.3219 -0.5420  0.3054
  986MOL0     C35991  10.866   3.856  11.320  0.7106 -0.4714  0.5827
  986MOL0     C35992  10.945   3.756  11.417  0.4927  0.0390  0.2937
  986MOL0     C35993  10.936   3.608  11.368 -0.0941 -0.0077 -0.1007
  986MOL0     C35994  11.028   3.554  11.269 -0.4559 -0.2296 -0.3002
  986MOL0     C35995  11.104   3.499  11.193 -0.2345 -0.5447  0.3806
  986MOL0     C35996  11.137   4.055  11.046  0.6258  0.2822  0.5758
  986MOL0     C35997  11.215   4.119  10.947  0.1599  0.3038 -0.1192
  986MOL0     C35998  11.257   4.256  10.975  0.1211 -0.4263 -0.4376
  986MOL0     H35999  11.416   3.916  10.417  2.9183 -2.7061 -2.1449
  986MOL0     H36000  11.606   3.955  10.255 -2.9692 -1.4316  0.4497
  986MOL0     H36001  11.903   4.227  10.382  0.4577  1.1954 -0.1895
  986MOL0     H36002  11.836   4.216  10.219 -1.1088 -0.8663  0.9119
  986MOL0     H36003  12.049   4.068  10.184 -1.5934  0.2881 -1.2333
  986MOL0     H36004  12.065   4.247  10.192 -0.6738  0.2464 -0.4210
  986MOL0     H36005  12.126   4.250  10.426 -0.0257  1.7206 -2.7265
  986MOL0     H36006  12.120   4.064  10.436  1.5697 -1.2065 -0.1753
  986MOL0     H36007  12.288   4.081  10.242 -1.0024  0.1876 -1.2592
  986MOL0     H36008  12.285   4.256  10.269  1.1497  0.3263 -0.4154
  986MOL0     H36009  12.364   4.049  10.476 -1.6555 -0.4326 -2.1333
  986MOL0     H36010  12.402   4.223  10.492  2.0236 -0.9895  1.5630
  986MOL0     H36011  12.601   4.080  10.423  0.5527 -2.7047 -1.5571
  986MOL0     H36012  12.511   4.060  10.273 -1.0892 -0.9727  2.4746
  986MOL0     H36013  12.540   4.341  10.399  0.1251 -1.6749  1.4689
  986MOL0     H36014  12.553   4.300  10.221  0.5558  0.4180 -0.2100
  986MOL0     H36015  12.758   4.403  10.339 -0.1899 -0.4351 -0.5742
  986MOL0     H36016  12.761   4.251  10.421 -0.2462  0.1226  0.5023
  986MOL0     H36017  13.012   4.253  10.293 -1.2893  0.7714  0.1192
  986MOL0     H36018  13.174   4.086  10.208 -0.7090 -1.4072  0.7860
  986MOL0     H36019  13.157   4.083  10.026  0.5881  1.2925  0.2841
  986MOL0     H36020  13.203   3.864  10.176  2.7508 -2.2063 -4.4723
  986MOL0     H36021  13.020   3.850  10.163 -1.0550 -0.4724 -1.1596
  986MOL0     H36022  13.059   3.835   9.917 -1.2460 -0.8103  2.0669
  986MOL0     H36023  13.238   3.864   9.956  0.8328  0.2377  0.6542
  986MOL0     H36024  13.212   3.654  10.103  1.3371  0.1861 -1.5428
  986MOL0     H36025  13.047   3.640  10.043 -0.8007  0.6929  0.2985
  986MOL0     H36026  13.423   3.715  10.021 -0.7985  1.1925 -1.1569
  986MOL0     H36027  13.776   3.599   9.995 -1.2415 -2.3927  1.1936
  986MOL0     H36028  13.662   3.633  10.134  0.7317 -1.1125  0.4443
  986MOL0     H36029  13.679   3.748  10.005 -4.1863  1.0280  2.1904
  986MOL0     H36030  14.009   3.439   9.785 -1.5173 -0.0440  3.6107
  986MOL0     H36031  14.214   3.309   9.722  0.4995  2.6876 -5.0127
  986MOL0     H36032  14.375   3.189   9.602  0.3959  1.5652  1.7644
  986MOL0     H36033  14.359   3.114   9.759  0.5548 -0.9178  0.8622
  986MOL0     H36034  14.471   2.946   9.712  0.6827  0.1545  0.3218
  986MOL0     H36035  14.405   2.921   9.554 -1.5689 -0.2957  1.2110
  986MOL0     H36036  14.610   3.149   9.591 -1.4473 -1.3847  0.6295
  986MOL0     H36037  14.545   3.076   9.442 -2.3118 -0.1931 -0.1233
  986MOL0     H36038  14.655   2.862   9.486  0.4709  1.6626 -1.1063
  986MOL0     H36039  14.696   2.909   9.658 -1.6656  0.5475  1.0806
  986MOL0     H36040  14.827   2.998   9.394  2.0741  1.2438  0.9071
  986MOL0     H36041  14.822   3.091   9.542 -0.3901  0.2642  0.1471
  986MOL0     H36042  14.907   2.809   9.458 -2.1289  1.3647 -1.8879
  986MOL0     H36043  14.912   2.856   9.635 -1.6646  2.6699 -0.0700
  986MOL0     H36044  15.080   3.012   9.602  0.2156 -1.0274  1.4631
  986MOL0     H36045  15.080   3.002   9.424  1.7821 -1.6259 -0.2572
  986MOL0     H36046  15.156   2.784   9.418  0.0100  0.9156 -0.4248
  986MOL0     H36047  15.147   2.766   9.590 -2.4332  0.3360 -0.3005
  986MOL0     H36048  13.988   2.977   9.612  1.2329 -1.0478  3.5580
  986MOL0     H36049  13.765   3.127   9.621 -0.0497 -0.6761 -0.1798
  986MOL0     H36050  13.505   3.329   9.723  2.1590 -1.0274 -0.0040
  986MOL0     H36051  13.265   3.395   9.771 -1.0914  0.2782  0.0424
  986MOL0     H36052  11.842   4.095  10.579  1.7919 -0.9857 -2.1930
  986MOL0     H36053  11.666   4.098  10.725  1.2844 -1.8976 -0.1501
  986MOL0     H36054  11.272   3.841  10.754 -0.9132  0.2046 -0.0109
  986MOL0     H36055  11.120   3.736  10.923 -1.6228 -0.3671 -0.1379
  986MOL0     H36056  11.042   3.958  11.297  1.9454 -2.5215 -1.2925
  986MOL0     H36057  10.908   4.008  11.181  0.5593  0.2794  0.6920
  986MOL0     H36058  10.790   3.814  11.253  3.1096 -0.8957 -2.0371
  986MOL0     H36059  10.815   3.932  11.381 -0.8726 -0.7317 -0.3438
  986MOL0     H36060  11.050   3.778  11.436 -0.2107  0.9723  3.7099
  986MOL0     H36061  10.895   3.779  11.511 -0.6618  0.7798 -0.4747
  986MOL0     H36062  10.843   3.588  11.312  0.5598  2.0674 -2.0901
  986MOL0     H36063  10.920   3.548  11.457 -0.0714  0.9125  0.5409
  986MOL0     H36064  11.174   3.456  11.123 -2.4258 -1.2677 -1.4830
  986MOL0     H36065  11.112   4.105  11.140  0.8636 -3.3028  2.7421
  986MOL0     H36066  11.239   4.312  10.883 -1.6467 -1.0331 -0.4953
  986MOL0     H36067  11.198   4.306  11.052 -0.4473  0.7376 -1.5987
  986MOL0     H36068  11.365   4.262  10.993 -0.0811  1.5963  0.3585
  987MOL0     O36069   8.154   9.059   0.881 -0.2602 -0.0151  0.7484
  987MOL0     C36070   8.120   9.009   0.985 -0.2696  0.8758 -0.5046
  987MOL0     O36071   8.204   8.932   1.060  0.1652 -0.1869  0.2801
  987MOL0     C36072   8.334   8.910   1.016  0.3492 -0.3826  0.1483
  987MOL0     C36073   8.381   8.781   1.016  0.4205 -0.0834 -0.9245
  987MOL0     C36074   8.506   8.745   0.969 -0.5485  0.1772  0.2362
  987MOL0     C36075   8.595   8.854   0.924 -0.4223  0.6781 -0.7709
  987MOL0     O36076   8.725   8.821   0.900  0.2704  0.1496 -0.3572
  987MOL0     C36077   8.795   8.898   0.801  0.6918  0.4495  0.7067
  987MOL0     C36078   8.887   8.795   0.723 -0.4649  0.3126 -0.4395
  987MOL0     C36079   8.965   8.876   0.607  0.3223  0.5374 -0.9505
  987MOL0     C36080   9.080   8.782   0.549  0.1952 -1.0189  0.1963
  987MOL0     C36081   9.156   8.844   0.437 -0.6433 -0.4389  1.2559
  987MOL0     C36082   9.220   8.981   0.463 -0.1410 -0.0771 -0.1798
  987MOL0     C36083   9.309   9.036   0.347  0.1759 -0.1300  0.4768
  987MOL0     C36084   9.440   8.954   0.353  0.9533 -0.3356  0.3790
  987MOL0     N36085   9.529   9.003   0.247 -1.4948  0.5079  0.9266
  987MOL0     C36086   9.499   9.009   0.108 -0.0708 -0.1802  0.6127
  987MOL0     C36087   9.618   9.051   0.046  0.3051 -0.1360 -0.6029
  987MOL0     C36088   9.639   9.082  -0.094 -0.0162 -0.9555 -0.4017
  987MOL0     C36089   9.627   9.235  -0.121 -0.0805  0.1549 -0.3647
  987MOL0     C36090   9.739   9.282  -0.227  0.7059  0.2124  0.1614
  987MOL0     C36091   9.752   9.433  -0.240  0.2867 -0.0214  0.3730
  987MOL0     O36092   9.856   9.473  -0.331 -0.4053  0.0178 -0.1946
  987MOL0     C36093   9.869   9.608  -0.358  0.3182  0.2447 -0.0989
  987MOL0     C36094   9.963   9.640  -0.456 -0.4294 -0.5620 -0.6754
  987MOL0     C36095   9.991   9.772  -0.502  0.1371 -0.0397  0.9564
  987MOL0     C36096  10.110   9.795  -0.591 -0.2020 -0.2129 -0.7293
  987MOL0     C36097   9.907   9.872  -0.450  0.2536 -0.0207 -0.0563
  987MOL0     C36098   9.932  10.012  -0.497  0.4420  0.0662  0.5424
  987MOL0     O36099   9.917  10.044  -0.627 -0.9403 -0.1053 -0.5247
  987MOL0     C36100   9.953  10.173  -0.670 -0.4532 -0.3255  0.2475
  987MOL0     C36101   9.871  10.253  -0.746  1.2155  0.5629 -0.4853
  987MOL0     C36102   9.900  10.384  -0.780 -0.2252  0.4363  0.6744
  987MOL0     C36103  10.026  10.433  -0.754 -0.0880  0.9271 -0.3995
  987MOL0     O36104  10.083  10.557  -0.789  0.4662 -0.9171  1.4011
  987MOL0     C36105   9.998  10.669  -0.767  0.7012 -0.4900  1.4287
  987MOL0     C36106  10.080  10.795  -0.815  0.7155 -0.6659 -0.3783
  987MOL0     C36107  10.012  10.934  -0.787  0.5781 -0.2644 -0.3607
  987MOL0     C36108   9.886  10.965  -0.880  0.3670 -1.1251  0.1506
  987MOL0     C36109   9.910  10.957  -1.041 -0.1962  1.1530  0.0811
  987MOL0     C36110   9.822  10.846  -1.108 -0.6682 -0.1072  0.3052
  987MOL0     C36111   9.842  10.848  -1.257 -0.3457  0.1522  0.3232
  987MOL0     C36112   9.803  10.711  -1.320  0.1540 -0.1811  0.1681
  987MOL0    Cl36113   9.871  10.698  -1.491  0.2768  0.1392 -0.5572
  987MOL0     C36114  10.114  10.351  -0.679  0.1111 -0.3375  0.6519
  987MOL0     C36115  10.079  10.220  -0.646  0.6343 -0.2286 -0.7496
  987MOL0     O36116   9.988  10.078  -0.415  0.1581  0.1761  0.1114
  987MOL0     C36117   9.813   9.835  -0.354  0.3296 -0.4009  0.9786
  987MOL0     C36118   9.787   9.708  -0.309  0.1127 -0.5718 -0.2017
  987MOL0     N36119   9.716   9.050   0.148  0.1161  0.0737  0.1705
  987MOL0     N36120   9.664   9.022   0.256  0.5096 -0.7137  0.0178
  987MOL0     C36121   8.552   8.982   0.951 -0.0754 -0.5260  1.5887
  987MOL0     C36122   8.429   9.013   0.989 -0.7554  0.3704 -0.6163
  987MOL0     C36123   7.976   9.030   1.028 -0.1784 -0.3629  0.2138
  987MOL0     C36124   7.905   9.125   0.946 -0.1358  0.1389 -0.1070
  987MOL0     C36125   7.772   9.164   0.981  0.1942  0.6450  1.1613
  987MOL0     C36126   7.709   9.097   1.090  0.0405  0.2007 -0.3331
  987MOL0     O36127   7.576   9.122   1.113  0.7297 -0.0379  1.2171
  987MOL0     C36128   7.545   9.227   1.208  0.1794 -0.2368 -0.2027
  987MOL0     C36129   7.526   9.164   1.346  0.6100  0.2558  0.2155
  987MOL0     C36130   7.427   9.044   1.341 -0.2022  0.1303 -1.2962
  987MOL0     C36131   7.336   9.019   1.463 -0.4585  0.5601 -0.2710
  987MOL0     C36132   7.435   9.018   1.580  0.5385 -0.4447 -0.1553
  987MOL0     C36133   7.530   9.022   1.653  0.8728  0.5500 -0.0287
  987MOL0     C36134   7.774   9.005   1.166 -0.4511  0.0389  0.7430
  987MOL0     C36135   7.912   8.984   1.143  0.6211  0.5024  0.3097
  987MOL0     C36136   7.982   8.903   1.246 -0.2557  0.7821 -0.4217
  987MOL0     H36137   8.316   8.697   1.039  0.3784 -0.0426 -0.8952
  987MOL0     H36138   8.529   8.642   0.947  1.9658  0.2697  1.9993
  987MOL0     H36139   8.851   8.981   0.844  1.5633  0.1121  0.2510
  987MOL0     H36140   8.725   8.933   0.725  2.4335 -0.7993 -1.5923
  987MOL0     H36141   8.960   8.761   0.796 -1.5527 -2.4099 -0.5309
  987MOL0     H36142   8.841   8.704   0.684  3.7678 -3.1259  1.7935
  987MOL0     H36143   8.890   8.916   0.539 -1.3109 -2.0992 -0.8671
  987MOL0     H36144   9.012   8.958   0.662  1.9875 -0.8804 -0.1599
  987MOL0     H36145   9.153   8.759   0.627 -0.0681 -3.3908 -0.2031
  987MOL0     H36146   9.042   8.684   0.520 -0.6378  0.1504 -3.1087
  987MOL0     H36147   9.089   8.850   0.351  0.8974 -2.7772 -0.2351
  987MOL0     H36148   9.233   8.773   0.405 -1.4253 -0.5387 -0.4774
  987MOL0     H36149   9.135   9.047   0.485  0.7055  1.2946 -0.8918
  987MOL0     H36150   9.274   8.977   0.558  0.6803 -0.8916 -0.6704
  987MOL0     H36151   9.345   9.139   0.349 -1.5202  0.5104 -0.1701
  987MOL0     H36152   9.249   9.021   0.257 -0.2736  1.2118  0.5319
  987MOL0     H36153   9.486   8.967   0.451 -0.4197  4.7135  0.6187
  987MOL0     H36154   9.430   8.846   0.338 -2.4539 -0.5563  2.9373
  987MOL0     H36155   9.406   8.987   0.057  0.1385 -2.7785  1.2075
  987MOL0     H36156   9.559   9.035  -0.152 -2.5926  0.7372  1.5432
  987MOL0     H36157   9.731   9.038  -0.134  0.2026 -1.3942  0.5608
  987MOL0     H36158   9.532   9.261  -0.168  1.3330  1.9329 -2.4650
  987MOL0     H36159   9.636   9.292  -0.029  0.3822 -3.0343  1.7338
  987MOL0     H36160   9.840   9.249  -0.199  0.5710 -0.7002 -0.3837
  987MOL0     H36161   9.719   9.244  -0.328  0.3574  3.5784 -1.1708
  987MOL0     H36162   9.653   9.470  -0.270 -0.1375  1.5279  3.2410
  987MOL0     H36163   9.774   9.480  -0.143 -1.9795 -0.8275  1.3507
  987MOL0     H36164  10.034   9.565  -0.489 -1.3531 -0.5762 -2.8118
  987MOL0     H36165  10.155   9.702  -0.627  0.3002 -0.3463  0.2155
  987MOL0     H36166  10.187   9.850  -0.535 -0.9028 -1.1574  1.2594
  987MOL0     H36167  10.090   9.840  -0.689  1.2622 -1.2463 -1.5466
  987MOL0     H36168   9.766  10.228  -0.756  1.4886 -0.6953 -0.3947
  987MOL0     H36169   9.822  10.445  -0.823 -0.1182  0.3088  0.2975
  987MOL0     H36170   9.919  10.651  -0.841  0.1589 -0.7418  2.0595
  987MOL0     H36171   9.966  10.676  -0.663  1.5897  2.4919  1.6003
  987MOL0     H36172  10.177  10.787  -0.764  0.2807  1.1098  0.8073
  987MOL0     H36173  10.099  10.779  -0.922  1.3808 -2.0265 -0.0800
  987MOL0     H36174  10.084  11.015  -0.802 -4.3952  5.0057  0.6514
  987MOL0     H36175   9.980  10.938  -0.683  0.4009 -4.0910 -0.1330
  987MOL0     H36176   9.852  11.067  -0.863  2.3078 -0.0857 -1.7111
  987MOL0     H36177   9.805  10.896  -0.852 -0.4373  0.4366  1.9072
  987MOL0     H36178   9.888  11.056  -1.081 -0.7072  0.8571 -0.3841
  987MOL0     H36179  10.015  10.953  -1.072 -0.8575  3.3457 -2.7910
  987MOL0     H36180   9.720  10.861  -1.070 -0.7560  2.0705 -0.6435
  987MOL0     H36181   9.865  10.753  -1.069 -0.2558  0.1826  0.5485
  987MOL0     H36182   9.945  10.879  -1.275  0.0964 -0.9343  0.8684
  987MOL0     H36183   9.779  10.925  -1.302  0.7051  1.1221  0.4716
  987MOL0     H36184   9.694  10.710  -1.331  0.1992 -0.8707 -0.2889
  987MOL0     H36185   9.847  10.625  -1.268  0.7996  0.2682  0.3733
  987MOL0     H36186  10.212  10.379  -0.642  0.1312 -1.0314  1.1475
  987MOL0     H36187  10.150  10.156  -0.594 -0.7206 -0.9624  0.2975
  987MOL0     H36188   9.758   9.919  -0.312  0.4122 -0.1153  0.5276
  987MOL0     H36189   9.714   9.691  -0.230 -1.2639 -1.1141 -1.5326
  987MOL0     H36190   8.624   9.062   0.931 -0.8063 -0.0716  0.7030
  987MOL0     H36191   8.403   9.116   1.014 -1.7926 -0.2210  0.9415
  987MOL0     H36192   7.950   9.156   0.852 -2.9939 -1.5660 -2.2173
  987MOL0     H36193   7.725   9.222   0.902  0.1784 -1.2673 -0.3008
  987MOL0     H36194   7.614   9.312   1.210  1.7770 -1.4994  0.1307
  987MOL0     H36195   7.457   9.282   1.174  1.1348  1.4012 -0.1225
  987MOL0     H36196   7.478   9.232   1.417 -2.3423 -1.6735  0.2520
  987MOL0     H36197   7.629   9.137   1.371  1.2843  2.2239 -0.2264
  987MOL0     H36198   7.364   9.063   1.254 -2.2150 -1.7434 -0.3742
  987MOL0     H36199   7.487   8.955   1.321 -0.9699 -0.9466  0.8608
  987MOL0     H36200   7.296   8.919   1.445 -3.5531  1.6762 -0.0670
  987MOL0     H36201   7.250   9.085   1.472  0.5275  1.7749  0.6939
  987MOL0     H36202   7.618   9.012   1.713  0.1710  0.9630  1.1112
  987MOL0     H36203   7.722   8.953   1.246 -1.0527  1.2850  1.1789
  987MOL0     H36204   8.072   8.957   1.276 -0.1164 -0.1659  0.9555
  987MOL0     H36205   7.926   8.890   1.339  2.6731  0.4587  1.4119
  987MOL0     H36206   8.008   8.803   1.211 -2.5340 -0.1961  0.4727
  988MOL0     O36207   1.873   8.237   9.637  0.2030  0.1737  0.1865
  988MOL0     C36208   1.777   8.302   9.662  0.5950 -0.5673 -0.4699
  988MOL0     O36209   1.765   8.433   9.616  0.2970 -0.2181 -1.0960
  988MOL0     C36210   1.863   8.472   9.530 -0.1494  0.3287 -0.2225
  988MOL0     C36211   1.938   8.586   9.558  0.1693  0.4332 -0.0039
  988MOL0     C36212   2.038   8.630   9.464 -0.2479  0.7160 -0.2043
  988MOL0     C36213   2.056   8.569   9.340  0.5408  0.1084  0.2124
  988MOL0     O36214   2.157   8.616   9.260  0.6156  0.3796  0.6414
  988MOL0     C36215   2.290   8.635   9.302  0.3166 -0.2357 -0.7560
  988MOL0     C36216   2.384   8.590   9.192  0.5915 -0.1537  0.5799
  988MOL0     C36217   2.356   8.680   9.072  0.0101 -0.0923  0.1909
  988MOL0     C36218   2.279   8.604   8.961 -0.1845 -0.4173 -0.2163
  988MOL0     C36219   2.194   8.686   8.864 -0.7162  0.6245  0.8208
  988MOL0     C36220   2.077   8.761   8.924 -0.3132 -0.0013 -0.0773
  988MOL0     C36221   2.026   8.870   8.823  0.4261  0.2926 -1.0218
  988MOL0     C36222   1.885   8.932   8.852 -0.0030 -0.5950  0.3125
  988MOL0     N36223   1.798   8.830   8.915 -0.5947  0.3584  0.0491
  988MOL0     C36224   1.781   8.814   9.049 -0.9933 -0.6031  0.2901
  988MOL0     C36225   1.687   8.722   9.063 -0.4325 -0.7126  0.5942
  988MOL0     C36226   1.656   8.666   9.194 -0.3350  0.2645 -0.1222
  988MOL0     C36227   1.603   8.526   9.194 -0.2710  0.1620  0.0074
  988MOL0     C36228   1.515   8.510   9.316  0.2437 -0.7335 -0.7051
  988MOL0     C36229   1.440   8.379   9.325 -0.1933 -0.2469 -0.0701
  988MOL0     O36230   1.355   8.387   9.436 -0.4095  1.3138  0.4744
  988MOL0     C36231   1.263   8.283   9.450  0.4629 -1.3409  0.6040
  988MOL0     C36232   1.243   8.181   9.354 -0.3673  0.3098 -0.3950
  988MOL0     C36233   1.148   8.086   9.375 -0.1083 -0.6595  0.5263
  988MOL0     C36234   1.152   7.975   9.277 -0.0340  0.2809 -0.3235
  988MOL0     C36235   1.067   8.086   9.489  0.5863 -0.7127  0.2010
  988MOL0     C36236   0.951   7.993   9.523  0.4533  0.6491 -0.2274
  988MOL0     O36237   0.882   8.016   9.633  0.0670 -0.9292 -0.1067
  988MOL0     C36238   0.765   7.952   9.646  0.0206 -0.6915 -0.3170
  988MOL0     C36239   0.656   7.960   9.559  0.3111 -0.4719  0.2319
  988MOL0     C36240   0.540   7.889   9.574 -0.1293  1.2762  0.1646
  988MOL0     C36241   0.522   7.807   9.688 -0.0708  0.6560  0.1654
  988MOL0     O36242   0.413   7.730   9.705  0.4637 -0.1514 -0.5482
  988MOL0     C36243   0.347   7.721   9.831 -0.5520 -0.3525  0.0271
  988MOL0     C36244   0.198   7.679   9.820 -0.2023 -0.3091  0.0251
  988MOL0     C36245   0.111   7.775   9.739  0.7429 -0.3971  0.0609
  988MOL0     C36246   0.085   7.901   9.829 -0.1351 -0.1158  0.3742
  988MOL0     C36247  -0.063   7.930   9.859  0.5787 -0.0325 -0.1638
  988MOL0     C36248  -0.082   8.063   9.941  0.3226 -0.2313  0.3257
  988MOL0     C36249  -0.060   8.039  10.086 -0.7165 -0.9368  1.0949
  988MOL0     C36250  -0.104   8.157  10.162 -0.9139  0.7451  0.0335
  988MOL0    Cl36251  -0.089   8.118  10.329 -0.3353 -0.0021  0.3773
  988MOL0     C36252   0.628   7.799   9.777  0.3036 -0.7230  0.3415
  988MOL0     C36253   0.742   7.871   9.765  0.0897 -0.5084  0.5782
  988MOL0     O36254   0.912   7.924   9.427  1.2224  1.1161  0.5928
  988MOL0     C36255   1.082   8.198   9.585 -0.4243  0.1938  0.6739
  988MOL0     C36256   1.178   8.296   9.561 -0.5053 -0.8972 -0.3353
  988MOL0     N36257   1.666   8.671   8.932  0.6664 -0.0963 -0.0424
  988MOL0     N36258   1.714   8.745   8.846 -0.0404 -0.4057  0.0627
  988MOL0     C36259   1.973   8.466   9.305  0.3053  0.4053 -0.0823
  988MOL0     C36260   1.874   8.408   9.397 -0.1583 -0.6110  0.7518
  988MOL0     C36261   1.662   8.256   9.740  0.8162  0.4675 -0.2974
  988MOL0     C36262   1.566   8.347   9.779 -0.0938 -0.5382 -0.4791
  988MOL0     C36263   1.455   8.313   9.849  0.2777  0.2675  0.4939
  988MOL0     C36264   1.434   8.180   9.890  0.5551 -0.5069 -1.0420
  988MOL0     O36265   1.324   8.149   9.967 -0.7377  0.6165 -0.1948
  988MOL0     C36266   1.196   8.186   9.918  0.0395  0.4725  0.1841
  988MOL0     C36267   1.086   8.226  10.018  0.1175  0.4488  0.0622
  988MOL0     C36268   1.097   8.151  10.158 -0.3804  0.1349 -0.1212
  988MOL0     C36269   0.967   8.074  10.175  0.0488  0.5666  0.1162
  988MOL0     C36270   0.956   8.005  10.300 -0.2208 -0.2286  0.1261
  988MOL0     C36271   0.939   7.916  10.379 -0.1945  0.0760 -0.4225
  988MOL0     C36272   1.524   8.086   9.848  0.8644 -0.8877  0.1338
  988MOL0     C36273   1.642   8.120   9.780  0.2332 -0.0671  0.1449
  988MOL0     C36274   1.747   8.012   9.750 -0.6846 -0.5787  0.5875
  988MOL0     H36275   1.919   8.639   9.651  0.7322 -0.9783  0.9466
  988MOL0     H36276   2.101   8.712   9.496  3.9068 -2.7079  1.4355
  988MOL0     H36277   2.312   8.565   9.384 -0.4317 -0.8894 -1.0974
  988MOL0     H36278   2.317   8.735   9.337 -2.6839 -0.2180  1.9595
  988MOL0     H36279   2.489   8.598   9.221  0.5012  4.1547  0.4105
  988MOL0     H36280   2.361   8.485   9.170 -3.7818  0.7923 -0.3224
  988MOL0     H36281   2.304   8.771   9.101 -0.6648  0.3177 -2.0610
  988MOL0     H36282   2.446   8.714   9.020 -2.1955 -0.0778 -4.0830
  988MOL0     H36283   2.363   8.562   8.905 -0.0410 -1.4228  0.7184
  988MOL0     H36284   2.213   8.527   9.003  0.0544 -1.3340 -1.4945
  988MOL0     H36285   2.169   8.623   8.778 -0.2348 -0.1222  1.2200
  988MOL0     H36286   2.260   8.759   8.816 -0.7233  0.0860 -0.0270
  988MOL0     H36287   2.010   8.680   8.954 -1.1586  0.9053  0.5299
  988MOL0     H36288   2.108   8.809   9.017  1.4739  0.3958 -0.8167
  988MOL0     H36289   2.032   8.831   8.721  3.5223 -1.6413 -0.2478
  988MOL0     H36290   2.091   8.958   8.831  2.4919 -1.1603 -1.2243
  988MOL0     H36291   1.889   9.024   8.912 -1.5514 -0.3073  0.0230
  988MOL0     H36292   1.841   8.961   8.756 -1.1883 -1.2986  0.6259
  988MOL0     H36293   1.836   8.855   9.133 -0.0923 -1.0111 -0.0791
  988MOL0     H36294   1.581   8.732   9.239 -0.1797 -0.0226  0.5731
  988MOL0     H36295   1.745   8.675   9.257 -1.1326 -5.0740  2.3847
  988MOL0     H36296   1.554   8.496   9.101  0.7692 -0.8646 -0.2285
  988MOL0     H36297   1.691   8.462   9.201 -0.7359 -0.4863  0.0056
  988MOL0     H36298   1.594   8.519   9.391  0.4609  1.0644 -1.0974
  988MOL0     H36299   1.439   8.589   9.324  0.7277 -0.2469 -0.8598
  988MOL0     H36300   1.386   8.360   9.232  1.1932  0.4968 -1.0610
  988MOL0     H36301   1.502   8.291   9.342  0.8761  0.9241  2.6377
  988MOL0     H36302   1.302   8.163   9.265 -0.0942  0.5337 -0.2599
  988MOL0     H36303   1.152   7.882   9.334 -1.6135  0.5804  0.2181
  988MOL0     H36304   1.240   7.968   9.212 -0.1978 -0.3168 -0.4901
  988MOL0     H36305   1.062   7.980   9.215 -0.5943 -1.3436  0.3233
  988MOL0     H36306   0.673   8.024   9.473 -1.1387 -1.0173 -0.4887
  988MOL0     H36307   0.462   7.898   9.499 -2.0222 -1.3121  1.6789
  988MOL0     H36308   0.396   7.642   9.888 -1.9307 -0.8898  0.4980
  988MOL0     H36309   0.350   7.811   9.893  0.5206  0.3477 -0.9969
  988MOL0     H36310   0.192   7.583   9.768  0.4547 -0.7188  0.6899
  988MOL0     H36311   0.164   7.666   9.923  0.6641  0.4745  0.4276
  988MOL0     H36312   0.015   7.725   9.725  0.6720 -0.1324 -0.4243
  988MOL0     H36313   0.148   7.814   9.644  0.8882  1.5559  0.8605
  988MOL0     H36314   0.126   7.985   9.773  1.8026 -1.6580 -0.6338
  988MOL0     H36315   0.142   7.875   9.919  1.4170 -3.3787 -1.3702
  988MOL0     H36316  -0.107   7.948   9.760 -2.8190 -3.2174  0.5491
  988MOL0     H36317  -0.121   7.845   9.896  2.5048 -2.0921 -1.5903
  988MOL0     H36318  -0.185   8.099   9.939  0.2514 -0.3365  1.5006
  988MOL0     H36319  -0.013   8.137   9.899 -0.9480 -0.4858 -2.4502
  988MOL0     H36320   0.046   8.020  10.104 -0.3100 -0.4619 -0.6192
  988MOL0     H36321  -0.125   7.954  10.109 -0.8324 -0.6493  1.8618
  988MOL0     H36322  -0.209   8.180  10.143 -0.8494 -0.2005 -1.5769
  988MOL0     H36323  -0.037   8.241  10.140 -0.9755  0.6506 -0.5241
  988MOL0     H36324   0.607   7.731   9.859 -0.8805  0.4705  1.0779
  988MOL0     H36325   0.819   7.867   9.842 -0.1298  5.4010  1.5699
  988MOL0     H36326   1.009   8.213   9.664 -1.1068 -1.8334  0.4737
  988MOL0     H36327   1.204   8.364   9.641 -1.5565  0.5705 -1.1953
  988MOL0     H36328   1.977   8.425   9.204 -2.3032 -0.1165 -0.0625
  988MOL0     H36329   1.827   8.316   9.366  1.2188 -0.8304 -0.8399
  988MOL0     H36330   1.562   8.450   9.744 -1.2825 -1.3213 -2.8493
  988MOL0     H36331   1.394   8.397   9.882 -1.4481 -1.3294  1.6130
  988MOL0     H36332   1.199   8.272   9.851  2.3260  0.0084 -0.3692
  988MOL0     H36333   1.166   8.099   9.858  0.6635 -0.3306  1.0099
  988MOL0     H36334   0.995   8.198   9.964  2.0383 -0.9514 -2.6823
  988MOL0     H36335   1.089   8.333  10.039  1.4781  0.2665  0.9551
  988MOL0     H36336   1.176   8.076  10.155 -1.8205 -1.5138 -4.3497
  988MOL0     H36337   1.126   8.217  10.240  0.7678 -0.9588  0.3930
  988MOL0     H36338   0.964   7.992  10.102  5.3571 -0.2708  0.4267
  988MOL0     H36339   0.877   8.134  10.159  2.0685  3.8669  0.3137
  988MOL0     H36340   0.926   7.851  10.463 -0.2414  4.0688  2.9973
  988MOL0     H36341   1.508   7.982   9.876 -0.5028 -0.6108  0.4362
  988MOL0     H36342   1.779   8.025   9.646  2.9303 -2.0981  1.3623
  988MOL0     H36343   1.834   8.036   9.811  0.7825  0.1422 -1.6484
  988MOL0     H36344   1.714   7.909   9.766 -1.8759  0.2164  4.0583
  989MOL0     O36345   0.407   7.435   3.935 -0.7435 -0.6644  0.2515
  989MOL0     C36346   0.518   7.493   3.915 -0.3282 -0.1155 -0.7056
  989MOL0     O36347   0.607   7.535   4.018  0.1649  0.2255 -0.4584
  989MOL0     C36348   0.566   7.502   4.147 -0.0819  0.4419 -0.1331
  989MOL0     C36349   0.658   7.420   4.215 -0.5260 -0.3284 -0.2497
  989MOL0     C36350   0.634   7.388   4.349 -0.1942 -0.5528 -0.0099
  989MOL0     C36351   0.518   7.426   4.422  0.7755 -0.1966  0.5877
  989MOL0     O36352   0.470   7.362   4.527  0.1442 -0.9705 -0.0689
  989MOL0     C36353   0.546   7.365   4.650  0.4213  0.1529 -0.2628
  989MOL0     C36354   0.449   7.380   4.774  0.3300 -0.1122 -0.3049
  989MOL0     C36355   0.313   7.301   4.767  0.4282  0.0951 -0.5271
  989MOL0     C36356   0.233   7.308   4.899  0.5426  0.6635 -0.6971
  989MOL0     C36357   0.209   7.448   4.955 -0.2671  0.3014 -0.4841
  989MOL0     C36358   0.069   7.453   5.001 -0.7493 -0.0971 -0.4538
  989MOL0     C36359  -0.014   7.516   4.884 -0.4412 -0.3735 -0.2802
  989MOL0     C36360  -0.164   7.512   4.922 -0.4182 -0.3532  0.2514
  989MOL0     N36361  -0.206   7.634   4.995  0.7257 -0.3504  0.3155
  989MOL0     C36362  -0.216   7.755   4.941 -0.7925  0.0562 -0.3864
  989MOL0     C36363  -0.257   7.839   5.039 -0.3256 -0.7358 -0.2143
  989MOL0     C36364  -0.258   7.988   5.032 -0.8174 -0.0607 -1.8584
  989MOL0     C36365  -0.111   8.037   5.067  0.0994  0.7347  0.6892
  989MOL0     C36366  -0.089   8.184   5.016  0.1070  0.6415  1.1061
  989MOL0     C36367   0.050   8.235   5.029 -1.5080  0.8059  0.6050
  989MOL0     O36368   0.128   8.133   4.958 -0.0625 -0.8397  1.4975
  989MOL0     C36369   0.265   8.158   4.925 -0.3596  0.4566  0.0405
  989MOL0     C36370   0.355   8.208   5.023  0.2881 -0.1715  0.6479
  989MOL0     C36371   0.489   8.205   4.993 -0.6420 -0.7099  0.3072
  989MOL0     C36372   0.578   8.277   5.096  0.4604  0.7785  1.1165
  989MOL0     C36373   0.536   8.145   4.869 -0.4261  0.4160 -0.7936
  989MOL0     C36374   0.675   8.129   4.837  0.2581  0.0885 -0.5766
  989MOL0     O36375   0.697   8.075   4.715  0.1529 -1.0966 -0.3067
  989MOL0     C36376   0.827   8.018   4.697 -0.2182 -0.6261 -0.7298
  989MOL0     C36377   0.890   7.934   4.785  0.3467 -0.3584 -0.5123
  989MOL0     C36378   1.021   7.897   4.757  0.1080 -0.0775  0.5200
  989MOL0     C36379   1.089   7.945   4.646  1.4950 -0.1341 -0.4697
  989MOL0     O36380   1.217   7.908   4.624  0.5492  0.2281  0.2903
  989MOL0     C36381   1.261   7.865   4.493 -0.7636 -0.3287 -0.5058
  989MOL0     C36382   1.172   7.743   4.448  0.4142 -0.6659  0.1393
  989MOL0     C36383   1.171   7.611   4.538  0.2443 -0.0757  0.3324
  989MOL0     C36384   1.050   7.517   4.518  0.1890  0.5110 -0.1878
  989MOL0     C36385   1.054   7.399   4.608 -0.0214 -0.0060  0.8235
  989MOL0     C36386   0.956   7.296   4.559  0.0141  0.3555 -0.4000
  989MOL0     C36387   0.956   7.163   4.644 -0.8121 -0.4832  0.2185
  989MOL0     C36388   0.821   7.089   4.647 -0.3629 -0.1198 -0.3145
  989MOL0    Cl36389   0.859   6.911   4.680  0.2555  0.0253  0.1006
  989MOL0     C36390   1.035   8.039   4.561 -0.5339  0.6583  0.3445
  989MOL0     C36391   0.901   8.077   4.588  0.1400 -0.0363  0.2197
  989MOL0     O36392   0.759   8.127   4.930 -0.3982 -1.1673  0.0612
  989MOL0     C36393   0.441   8.101   4.773 -0.1611 -0.2802 -0.4721
  989MOL0     C36394   0.309   8.108   4.798  0.0495 -0.1811 -0.9999
  989MOL0     N36395  -0.298   7.764   5.148 -0.0218 -0.2356 -0.4339
  989MOL0     N36396  -0.272   7.639   5.116  0.3187  0.1939 -0.0205
  989MOL0     C36397   0.427   7.510   4.345 -0.6500 -0.4617  0.2150
  989MOL0     C36398   0.451   7.549   4.209  0.0439 -0.1577 -0.6187
  989MOL0     C36399   0.551   7.530   3.778  0.9492  0.1917  0.5345
  989MOL0     C36400   0.462   7.497   3.669  0.6596  0.5181 -0.2875
  989MOL0     C36401   0.484   7.541   3.534  0.3615 -0.1934 -0.2837
  989MOL0     C36402   0.599   7.608   3.496  0.2296  0.3383  0.0577
  989MOL0     O36403   0.646   7.643   3.368  0.7817  0.1435  0.4504
  989MOL0     C36404   0.567   7.617   3.249  0.0969 -0.4272  0.6011
  989MOL0     C36405   0.451   7.714   3.235  0.4309 -0.6034  0.9148
  989MOL0     C36406   0.488   7.842   3.170  0.4468  0.2225 -0.1475
  989MOL0     C36407   0.471   7.971   3.252 -0.5028 -0.2854  0.0026
  989MOL0     C36408   0.572   7.983   3.360  0.2297  0.9686 -0.2515
  989MOL0     C36409   0.643   7.969   3.453  0.0291  0.7050 -1.0142
  989MOL0     C36410   0.686   7.640   3.604  0.3149  1.2147  1.0382
  989MOL0     C36411   0.660   7.604   3.736 -0.7619 -0.5634  0.6607
  989MOL0     C36412   0.773   7.644   3.820  0.0384 -0.2651 -0.1593
  989MOL0     H36413   0.746   7.372   4.173  0.9248  0.2361  1.9637
  989MOL0     H36414   0.702   7.313   4.387 -1.5480 -0.7110  2.2866
  989MOL0     H36415   0.604   7.457   4.650 -2.2784  1.9894 -1.8498
  989MOL0     H36416   0.623   7.290   4.668  2.1651  1.1483 -3.0317
  989MOL0     H36417   0.502   7.356   4.866 -1.9230 -1.9361  0.6199
  989MOL0     H36418   0.425   7.487   4.770 -1.0075 -0.4280 -1.7701
  989MOL0     H36419   0.259   7.348   4.684  0.1708 -0.7678 -0.8641
  989MOL0     H36420   0.321   7.197   4.733 -2.0149  0.3394 -2.0684
  989MOL0     H36421   0.136   7.267   4.870  2.1113 -1.9146 -2.7853
  989MOL0     H36422   0.276   7.234   4.967 -0.9413  1.2343  0.9145
  989MOL0     H36423   0.233   7.524   4.880  2.0180 -0.1202 -0.2370
  989MOL0     H36424   0.281   7.461   5.036 -1.0073 -0.1039  0.2570
  989MOL0     H36425   0.038   7.354   5.038 -0.3487  0.1466  0.5759
  989MOL0     H36426   0.067   7.515   5.091 -2.8063 -0.3969 -0.2441
  989MOL0     H36427  -0.002   7.465   4.788  0.5080  1.8620 -1.4344
  989MOL0     H36428   0.029   7.615   4.870 -1.8479  0.2703 -0.2518
  989MOL0     H36429  -0.220   7.485   4.832  1.9358  2.3522 -2.2008
  989MOL0     H36430  -0.185   7.435   4.998  0.7503 -0.9593 -0.0274
  989MOL0     H36431  -0.168   7.784   4.849 -0.8359  0.2698 -0.3419
  989MOL0     H36432  -0.322   8.040   5.105  2.2366  0.7039  0.4903
  989MOL0     H36433  -0.288   8.017   4.931 -2.0335  0.7664 -1.2930
  989MOL0     H36434  -0.084   8.024   5.173  1.9204 -1.3123  0.0464
  989MOL0     H36435  -0.043   7.968   5.016  0.9571  1.9672  0.1202
  989MOL0     H36436  -0.124   8.189   4.912 -0.9115 -0.6987  1.3442
  989MOL0     H36437  -0.149   8.248   5.081 -0.3052 -0.9186  2.3310
  989MOL0     H36438   0.056   8.333   4.982  0.1565  1.2161  1.5986
  989MOL0     H36439   0.062   8.237   5.138 -0.5588  1.9383  0.4942
  989MOL0     H36440   0.312   8.246   5.115  0.3943 -2.9553  1.9738
  989MOL0     H36441   0.635   8.205   5.154  0.3443  2.0252  2.8845
  989MOL0     H36442   0.516   8.340   5.160 -0.4052 -0.6102  1.6806
  989MOL0     H36443   0.655   8.335   5.044  1.5560 -2.6603 -1.4666
  989MOL0     H36444   0.838   7.898   4.873  2.4935 -2.2684  0.0503
  989MOL0     H36445   1.070   7.823   4.820 -0.9322  0.6606  2.2203
  989MOL0     H36446   1.255   7.945   4.419  1.1325  1.2307  0.9263
  989MOL0     H36447   1.364   7.833   4.509 -1.0303 -0.8020  0.3439
  989MOL0     H36448   1.072   7.787   4.457  1.6692  2.5246  0.1516
  989MOL0     H36449   1.205   7.719   4.347  1.8114  3.3117 -0.5703
  989MOL0     H36450   1.173   7.640   4.643  0.5873 -4.1005  1.5779
  989MOL0     H36451   1.267   7.560   4.524  0.3168  0.4119 -1.2363
  989MOL0     H36452   1.019   7.479   4.420 -2.0705 -0.6720  0.8917
  989MOL0     H36453   0.965   7.579   4.550 -1.2243  0.5739 -3.6062
  989MOL0     H36454   1.154   7.357   4.601 -1.2175 -3.0527  0.7982
  989MOL0     H36455   1.031   7.410   4.714  0.4693  2.3601  0.7484
  989MOL0     H36456   0.989   7.258   4.462 -1.4589 -1.1618 -0.3693
  989MOL0     H36457   0.859   7.347   4.566  0.7553  1.6016  1.9678
  989MOL0     H36458   1.001   7.189   4.740  1.0699 -1.1446 -0.4289
  989MOL0     H36459   1.038   7.108   4.598  0.6278  2.5160 -1.0681
  989MOL0     H36460   0.761   7.108   4.557 -1.4327  0.4987  0.5074
  989MOL0     H36461   0.753   7.119   4.727 -1.2883 -2.2763 -0.1993
  989MOL0     H36462   1.097   8.080   4.482  0.1541 -0.2235  0.4070
  989MOL0     H36463   0.858   8.159   4.531 -0.1816  1.1183  2.0386
  989MOL0     H36464   0.478   8.061   4.679  0.0947  2.6871 -1.7451
  989MOL0     H36465   0.230   8.072   4.733 -0.9047 -2.5749  1.3166
  989MOL0     H36466   0.321   7.512   4.370 -0.6209 -0.4499  0.3385
  989MOL0     H36467   0.373   7.599   4.152 -0.6766 -2.1404 -1.4327
  989MOL0     H36468   0.367   7.454   3.698 -0.5902  3.1464 -0.1218
  989MOL0     H36469   0.407   7.535   3.457 -1.3273 -0.2515  1.3429
  989MOL0     H36470   0.624   7.619   3.156 -0.9504  0.6569 -0.0528
  989MOL0     H36471   0.533   7.514   3.258 -1.8818 -0.2374 -3.0204
  989MOL0     H36472   0.396   7.731   3.328 -3.3975 -1.7068 -0.9526
  989MOL0     H36473   0.378   7.670   3.166  0.8180  0.8117 -0.4511
  989MOL0     H36474   0.590   7.848   3.130 -0.5436 -0.3168 -2.9756
  989MOL0     H36475   0.422   7.854   3.084  0.6439 -1.3085 -0.5397
  989MOL0     H36476   0.367   7.975   3.286 -1.3836  0.9982 -2.6159
  989MOL0     H36477   0.479   8.056   3.184 -0.6401 -1.2469 -1.2367
  989MOL0     H36478   0.709   7.977   3.538  1.3685  2.6918 -2.1737
  989MOL0     H36479   0.785   7.674   3.577  1.4431 -3.1082 -1.1713
  989MOL0     H36480   0.824   7.557   3.861  1.9836 -0.3614 -2.5324
  989MOL0     H36481   0.856   7.687   3.763  0.3165 -2.7958 -1.8031
  989MOL0     H36482   0.749   7.719   3.896 -0.1226  1.0177 -1.4246
  990MOL0     O36483   9.478   0.822   3.132 -0.1150 -0.0953  0.6727
  990MOL0     C36484   9.442   0.757   3.032  0.2236 -0.3268 -0.3762
  990MOL0     O36485   9.519   0.732   2.921  0.2044  0.4319  0.7762
  990MOL0     C36486   9.651   0.739   2.933  0.2055 -0.4066 -0.2158
  990MOL0     C36487   9.729   0.857   2.924 -0.0351  0.3802 -0.4551
  990MOL0     C36488   9.866   0.858   2.961  0.1201  0.0713 -0.2230
  990MOL0     C36489   9.931   0.739   2.998 -0.9941 -0.4214 -0.3514
  990MOL0     O36490  10.067   0.742   3.042 -0.9124 -0.2363 -0.1418
  990MOL0     C36491  10.154   0.849   2.996 -0.1255 -0.2393  0.0748
  990MOL0     C36492  10.257   0.843   3.112  0.9759 -0.1796  0.3135
  990MOL0     C36493  10.337   0.711   3.097  0.3260  0.6985  0.1475
  990MOL0     C36494  10.418   0.692   3.234  0.1018  0.3838  1.2157
  990MOL0     C36495  10.520   0.802   3.252 -0.8125 -1.2997 -0.5045
  990MOL0     C36496  10.604   0.752   3.363 -0.5235  0.6231 -0.9632
  990MOL0     C36497  10.689   0.867   3.433  0.1107 -0.2833 -0.7251
  990MOL0     C36498  10.692   0.855   3.589 -0.1028 -0.0562  0.0500
  990MOL0     N36499  10.770   0.739   3.630  0.3545  0.1139  0.2152
  990MOL0     C36500  10.903   0.737   3.624  0.4461 -0.4309  0.5389
  990MOL0     C36501  10.943   0.607   3.660  0.7860 -0.2318  1.3964
  990MOL0     C36502  11.088   0.569   3.637  0.4982  0.2611 -0.2705
  990MOL0     C36503  11.187   0.561   3.754  0.3347 -0.3970  0.6257
  990MOL0     C36504  11.310   0.478   3.698 -0.3898 -0.7524 -0.5823
  990MOL0     C36505  11.411   0.459   3.817  0.4181 -0.2451 -0.0934
  990MOL0     O36506  11.462   0.590   3.866  0.0263 -0.4019 -0.3773
  990MOL0     C36507  11.547   0.610   3.971 -0.0355  0.0209  0.1298
  990MOL0     C36508  11.585   0.496   4.050 -0.4013  0.2699 -0.5469
  990MOL0     C36509  11.685   0.509   4.147  0.4863  0.4928 -0.6530
  990MOL0     C36510  11.727   0.388   4.213  0.1152  0.8348 -0.3891
  990MOL0     C36511  11.748   0.635   4.165 -0.1223  0.9602 -0.6460
  990MOL0     C36512  11.856   0.663   4.268 -0.2167 -0.2618 -1.1615
  990MOL0     O36513  11.938   0.774   4.244  0.1900  0.1939 -0.0778
  990MOL0     C36514  12.055   0.763   4.309 -1.8816 -0.1842 -0.4772
  990MOL0     C36515  12.070   0.832   4.434 -0.7601 -0.5806  0.1642
  990MOL0     C36516  12.200   0.838   4.496  0.1962  0.3509  0.1786
  990MOL0     C36517  12.317   0.778   4.433  0.0826  0.4328 -0.2327
  990MOL0     O36518  12.441   0.759   4.501  0.4030  0.5637  0.1841
  990MOL0     C36519  12.563   0.761   4.419  1.1439  0.2555  0.4937
  990MOL0     C36520  12.681   0.809   4.507  0.1718  0.0459  0.9020
  990MOL0     C36521  12.670   0.955   4.542 -0.4917  0.5534 -0.1508
  990MOL0     C36522  12.549   0.986   4.633  1.0462 -0.9680 -0.0481
  990MOL0     C36523  12.554   1.127   4.698 -1.0938 -0.0628 -0.0288
  990MOL0     C36524  12.683   1.167   4.760 -0.8492  0.2985 -0.3368
  990MOL0     C36525  12.681   1.304   4.830  0.0029 -0.3128 -0.1154
  990MOL0     C36526  12.795   1.327   4.930 -0.2042 -0.6574 -0.3554
  990MOL0    Cl36527  12.801   1.205   5.060  0.0955  0.2360 -0.1672
  990MOL0     C36528  12.299   0.727   4.302  0.1984 -0.3403 -1.3483
  990MOL0     C36529  12.168   0.717   4.241 -1.2118 -0.9804 -0.8310
  990MOL0     O36530  11.867   0.591   4.372 -0.3314 -0.2995 -0.2375
  990MOL0     C36531  11.716   0.741   4.081  0.0213 -0.8978 -0.3715
  990MOL0     C36532  11.619   0.732   3.976  0.6456  0.2750 -0.2749
  990MOL0     N36533  10.825   0.535   3.693 -0.5576 -0.6291  0.4202
  990MOL0     N36534  10.721   0.617   3.674  0.0408 -0.0690 -0.4256
  990MOL0     C36535   9.858   0.620   2.992  0.7281 -0.7420  0.4547
  990MOL0     C36536   9.712   0.618   2.962 -0.4609  0.2598 -0.3532
  990MOL0     C36537   9.303   0.712   3.035  0.5335 -0.6454  0.1557
  990MOL0     C36538   9.233   0.691   3.164 -0.6433  0.6165  0.4377
  990MOL0     C36539   9.100   0.642   3.166  0.0670  0.6163  0.0550
  990MOL0     C36540   9.034   0.616   3.047  0.2360  0.3231  0.4175
  990MOL0     O36541   8.908   0.560   3.044 -0.5136  0.2744  0.6487
  990MOL0     C36542   8.810   0.666   3.071 -0.0197  0.6064  1.1423
  990MOL0     C36543   8.728   0.646   3.201  0.4863 -0.1357  0.4908
  990MOL0     C36544   8.592   0.588   3.182  0.3533  0.2085 -0.1657
  990MOL0     C36545   8.507   0.577   3.309  0.1279 -0.2420  0.6953
  990MOL0     C36546   8.388   0.484   3.290  0.5114 -0.8498 -0.1324
  990MOL0     C36547   8.295   0.415   3.265  0.0322 -0.7253  0.2092
  990MOL0     C36548   9.098   0.655   2.924  0.1886  0.5277 -0.4879
  990MOL0     C36549   9.230   0.691   2.914  0.0388  0.0902  0.0927
  990MOL0     C36550   9.275   0.708   2.767 -0.6789 -0.2267 -0.0560
  990MOL0     H36551   9.674   0.951   2.917  1.1763  1.0078 -3.0153
  990MOL0     H36552   9.913   0.954   2.977 -0.0793 -0.0041  0.8957
  990MOL0     H36553  10.114   0.951   2.990 -0.4840 -0.3791  0.0740
  990MOL0     H36554  10.208   0.825   2.904 -0.6666 -2.8363  0.3614
  990MOL0     H36555  10.329   0.925   3.113  0.1586  0.5507  1.6463
  990MOL0     H36556  10.208   0.841   3.210 -2.3325  0.5716 -1.1903
  990MOL0     H36557  10.277   0.619   3.093  1.4417 -0.0596  0.4101
  990MOL0     H36558  10.403   0.714   3.010 -1.1394 -3.1234 -1.3187
  990MOL0     H36559  10.344   0.684   3.314 -2.0710 -2.6288 -0.8778
  990MOL0     H36560  10.468   0.595   3.225 -0.6797  0.0667  0.1915
  990MOL0     H36561  10.476   0.897   3.282  0.9505 -0.7423  0.4792
  990MOL0     H36562  10.579   0.824   3.163 -0.1851  0.4405  0.3113
  990MOL0     H36563  10.543   0.701   3.437  1.1763 -0.6886 -0.4018
  990MOL0     H36564  10.670   0.681   3.312 -1.0410  1.2105 -2.5355
  990MOL0     H36565  10.630   0.958   3.418 -1.4472 -1.3652 -1.4939
  990MOL0     H36566  10.781   0.865   3.374 -1.1760 -0.3756 -2.8404
  990MOL0     H36567  10.743   0.946   3.624  3.0380 -0.5688 -2.6896
  990MOL0     H36568  10.588   0.851   3.622 -0.1643  2.5829  0.3924
  990MOL0     H36569  10.975   0.811   3.591  0.9110 -1.0299  0.1667
  990MOL0     H36570  11.120   0.645   3.565  1.2442  0.9307  0.7352
  990MOL0     H36571  11.100   0.474   3.584  3.3310  1.4479 -2.0347
  990MOL0     H36572  11.221   0.652   3.804  2.0956  0.9252 -2.6560
  990MOL0     H36573  11.148   0.492   3.829 -0.0576 -0.9308 -0.0553
  990MOL0     H36574  11.294   0.375   3.666 -0.5897 -0.2049 -2.3680
  990MOL0     H36575  11.348   0.529   3.609 -1.1450 -0.6404 -0.8477
  990MOL0     H36576  11.361   0.398   3.894  2.7158 -1.5674  0.4619
  990MOL0     H36577  11.487   0.388   3.785 -2.1949 -3.0257 -0.5367
  990MOL0     H36578  11.532   0.403   4.039  0.0302 -0.9148  4.7548
  990MOL0     H36579  11.748   0.408   4.318  1.4097  1.4559 -0.7528
  990MOL0     H36580  11.824   0.362   4.171  1.4862  1.5308  2.1633
  990MOL0     H36581  11.666   0.297   4.206  1.4008 -0.1853  1.0805
  990MOL0     H36582  11.979   0.879   4.467  1.2385  2.5956  1.5627
  990MOL0     H36583  12.216   0.864   4.600  2.0512  0.2156 -0.0319
  990MOL0     H36584  12.580   0.664   4.371  0.5316 -0.4539  1.6636
  990MOL0     H36585  12.557   0.822   4.328 -2.2009 -1.9937 -1.0146
  990MOL0     H36586  12.686   0.751   4.599  0.1459 -1.2522  0.1173
  990MOL0     H36587  12.770   0.797   4.445  2.2201 -0.0150  3.6766
  990MOL0     H36588  12.679   1.014   4.451  3.3000 -0.1970 -0.4426
  990MOL0     H36589  12.763   0.974   4.597  0.0846 -2.3706  0.0798
  990MOL0     H36590  12.546   0.917   4.717  5.3337 -0.1973  1.0013
  990MOL0     H36591  12.454   0.982   4.580 -1.3092 -1.4174  3.8256
  990MOL0     H36592  12.530   1.202   4.622  0.4456  0.5913  0.0949
  990MOL0     H36593  12.482   1.135   4.780  0.4028  3.5524  1.1325
  990MOL0     H36594  12.765   1.176   4.688 -1.6515  1.3798 -1.1521
  990MOL0     H36595  12.707   1.087   4.830  0.0171  0.2360 -0.6851
  990MOL0     H36596  12.586   1.323   4.880 -0.1834 -1.5785  0.0547
  990MOL0     H36597  12.680   1.385   4.757 -1.4507 -0.6998 -0.5563
  990MOL0     H36598  12.773   1.425   4.973 -1.4793 -0.3465 -1.6277
  990MOL0     H36599  12.893   1.333   4.881 -0.1701  3.8056 -0.1166
  990MOL0     H36600  12.378   0.668   4.257  2.2012 -1.1391  2.7747
  990MOL0     H36601  12.146   0.702   4.136 -3.8254  2.1504 -0.8739
  990MOL0     H36602  11.773   0.833   4.090  0.0255 -1.1062  3.0067
  990MOL0     H36603  11.619   0.808   3.898  0.8928 -0.5141 -1.0637
  990MOL0     H36604   9.913   0.528   3.012  1.8304 -0.3492 -0.6483
  990MOL0     H36605   9.662   0.522   2.957  0.1868 -0.0337 -1.9101
  990MOL0     H36606   9.272   0.709   3.263 -0.2985  1.1740  0.2115
  990MOL0     H36607   9.064   0.609   3.263  3.5677  1.1958  1.7101
  990MOL0     H36608   8.864   0.761   3.073 -0.2383  1.0623 -3.6151
  990MOL0     H36609   8.744   0.657   2.984  2.7781  0.7871 -1.1207
  990MOL0     H36610   8.719   0.749   3.236  1.7693  1.0767 -2.4139
  990MOL0     H36611   8.787   0.592   3.276  2.7961  1.1743 -0.2865
  990MOL0     H36612   8.531   0.649   3.114  0.5473  0.5955  0.0048
  990MOL0     H36613   8.600   0.493   3.128 -2.1324  0.4800 -1.1416
  990MOL0     H36614   8.467   0.676   3.333 -0.4266 -0.6314  1.4305
  990MOL0     H36615   8.571   0.555   3.395 -0.4793  0.5700  1.3714
  990MOL0     H36616   8.216   0.346   3.241  1.4719 -3.5031  2.8484
  990MOL0     H36617   9.039   0.645   2.833  0.1785  0.3401 -0.4623
  990MOL0     H36618   9.363   0.644   2.751 -1.5401 -1.6454  0.6460
  990MOL0     H36619   9.197   0.667   2.701  0.7410 -0.2262 -1.8354
  990MOL0     H36620   9.309   0.810   2.748 -0.4954 -0.3471 -0.3987
  991MOL0     O36621   8.092   7.175   2.404 -0.0834  0.3607  0.4601
  991MOL0     C36622   8.100   7.110   2.295 -0.5517  0.2453  0.7868
  991MOL0     O36623   8.172   7.156   2.185  0.5543 -1.2285 -0.7412
  991MOL0     C36624   8.286   7.235   2.217 -0.5694  0.4084  0.3254
  991MOL0     C36625   8.276   7.370   2.240  0.1730 -0.1540 -0.0919
  991MOL0     C36626   8.383   7.444   2.279  0.3002 -0.2868  0.5548
  991MOL0     C36627   8.511   7.388   2.262 -0.1676  0.2665  1.1214
  991MOL0     O36628   8.624   7.455   2.308 -0.3911 -0.7946  0.6308
  991MOL0     C36629   8.655   7.568   2.223  0.2391 -0.6786  0.4268
  991MOL0     C36630   8.805   7.591   2.222  0.0517 -0.1603 -0.5542
  991MOL0     C36631   8.882   7.471   2.162 -0.3649  0.2535 -0.3207
  991MOL0     C36632   9.030   7.524   2.173  0.4551 -0.1827  0.0646
  991MOL0     C36633   9.118   7.411   2.107 -0.7591 -1.4452  0.2467
  991MOL0     C36634   9.263   7.453   2.086  0.0603 -0.0772  0.7086
  991MOL0     C36635   9.340   7.325   2.048  0.7605  0.4099  0.5059
  991MOL0     C36636   9.495   7.364   2.036 -0.5645 -0.0448 -0.1954
  991MOL0     N36637   9.523   7.473   1.939  0.6732 -0.5329 -0.6713
  991MOL0     C36638   9.531   7.607   1.969  0.2423  0.6445 -0.6976
  991MOL0     C36639   9.561   7.662   1.851  0.2165  0.0627 -0.6077
  991MOL0     C36640   9.570   7.808   1.832 -0.8852 -0.1530 -0.0625
  991MOL0     C36641   9.704   7.842   1.754  1.2219  0.7904 -0.3074
  991MOL0     C36642   9.823   7.800   1.836  0.2224 -0.9783 -0.7056
  991MOL0     C36643   9.949   7.835   1.768  0.0650 -0.1184  0.0576
  991MOL0     O36644  10.053   7.777   1.836 -0.0945 -0.5305 -0.4264
  991MOL0     C36645  10.166   7.746   1.770 -0.7488 -1.0347  0.0556
  991MOL0     C36646  10.288   7.811   1.785  0.1413  0.8014  0.5768
  991MOL0     C36647  10.400   7.781   1.706 -0.2693  0.2054 -0.1906
  991MOL0     C36648  10.526   7.861   1.736  0.0780 -0.4477 -0.6979
  991MOL0     C36649  10.390   7.685   1.602  0.1628  0.6344 -0.1747
  991MOL0     C36650  10.501   7.641   1.524  0.7593  0.4925  1.4045
  991MOL0     O36651  10.467   7.540   1.437 -0.4367  0.0829  0.7653
  991MOL0     C36652  10.574   7.482   1.379  0.1949  0.3445  0.3162
  991MOL0     C36653  10.597   7.347   1.395  0.8554 -0.2014 -0.2440
  991MOL0     C36654  10.705   7.295   1.326 -0.5384  1.1076  0.3788
  991MOL0     C36655  10.786   7.361   1.234  0.9223 -0.5268  0.4678
  991MOL0     O36656  10.880   7.292   1.173  0.0888  0.5726  0.3631
  991MOL0     C36657  10.967   7.345   1.069 -0.0697  0.2129  1.3424
  991MOL0     C36658  10.918   7.290   0.932  0.2306  0.0252 -0.0348
  991MOL0     C36659  11.025   7.295   0.821  1.4568  0.3455  0.1442
  991MOL0     C36660  11.115   7.169   0.829 -0.2295 -0.6908  0.3484
  991MOL0     C36661  11.205   7.149   0.708 -0.5290 -0.3122 -0.4157
  991MOL0     C36662  11.346   7.206   0.734  0.1333  0.2403  0.2827
  991MOL0     C36663  11.432   7.160   0.605 -0.6741 -0.2730 -0.2651
  991MOL0     C36664  11.570   7.229   0.611  0.0806  0.2107  0.0489
  991MOL0    Cl36665  11.691   7.113   0.536  0.2619 -0.1285  0.3936
  991MOL0     C36666  10.751   7.499   1.212  0.1555  0.9721  0.1577
  991MOL0     C36667  10.649   7.556   1.287 -0.7061  0.6016 -0.4342
  991MOL0     O36668  10.614   7.688   1.533  0.5459  0.2004  0.0661
  991MOL0     C36669  10.263   7.622   1.585  0.2603  0.1909  0.3551
  991MOL0     C36670  10.152   7.653   1.669  1.1276 -0.1036  0.0258
  991MOL0     N36671   9.582   7.563   1.759 -0.0740 -0.1620  0.3575
  991MOL0     N36672   9.564   7.446   1.810  0.4551 -0.7597  0.7225
  991MOL0     C36673   8.522   7.250   2.237 -0.3160 -0.9006 -0.4209
  991MOL0     C36674   8.415   7.175   2.216 -0.1417 -0.0425  0.5533
  991MOL0     C36675   8.004   6.996   2.270  0.1851  0.2462  0.4848
  991MOL0     C36676   7.998   6.934   2.140 -0.2995  0.2203  0.0836
  991MOL0     C36677   7.914   6.832   2.111 -0.0912 -0.8087  0.3932
  991MOL0     C36678   7.816   6.783   2.199 -0.5916 -0.0836  0.7222
  991MOL0     O36679   7.732   6.691   2.142  0.0249  0.4084  0.1336
  991MOL0     C36680   7.654   6.599   2.222  0.4586 -0.6272 -0.3814
  991MOL0     C36681   7.581   6.499   2.153  0.2400 -0.1538 -0.2324
  991MOL0     C36682   7.474   6.554   2.054  0.7763  0.5812  1.5133
  991MOL0     C36683   7.346   6.611   2.122  0.6616  0.1839  0.6739
  991MOL0     C36684   7.289   6.542   2.235 -0.5646  0.7264 -1.2567
  991MOL0     C36685   7.251   6.484   2.331 -0.3235  0.9224 -0.5532
  991MOL0     C36686   7.827   6.828   2.334  0.5336  0.6822 -0.2419
  991MOL0     C36687   7.912   6.938   2.367 -0.2064  0.5209  0.2972
  991MOL0     C36688   7.901   6.984   2.515 -0.0052  0.0610 -0.3977
  991MOL0     H36689   8.181   7.422   2.247 -0.2760 -0.9301 -0.1589
  991MOL0     H36690   8.372   7.541   2.327  0.1149  0.8222 -1.5922
  991MOL0     H36691   8.604   7.658   2.256  2.6536  0.9828 -0.1126
  991MOL0     H36692   8.623   7.551   2.119  1.1682  0.1720 -0.0180
  991MOL0     H36693   8.831   7.691   2.186 -2.3436  0.8693  0.4146
  991MOL0     H36694   8.834   7.607   2.326  3.5432  3.2288 -1.7931
  991MOL0     H36695   8.867   7.386   2.228  0.4667 -0.2293 -0.7448
  991MOL0     H36696   8.856   7.447   2.058  0.3094 -1.6821 -0.0719
  991MOL0     H36697   9.039   7.616   2.115  0.3524 -0.6189 -0.6567
  991MOL0     H36698   9.056   7.546   2.277 -1.8214  0.4955  0.5543
  991MOL0     H36699   9.076   7.373   2.013  1.7578 -1.7350 -0.8192
  991MOL0     H36700   9.118   7.335   2.186 -3.3321  1.0294  2.9241
  991MOL0     H36701   9.265   7.528   2.007 -1.8192 -2.0268 -1.3456
  991MOL0     H36702   9.310   7.498   2.174 -1.8664  2.8034  0.4090
  991MOL0     H36703   9.319   7.295   1.945  1.6636  2.7402 -0.4080
  991MOL0     H36704   9.314   7.247   2.121 -0.0541  2.5294  2.6060
  991MOL0     H36705   9.524   7.402   2.135 -0.3451  2.2422 -1.0776
  991MOL0     H36706   9.552   7.272   2.017  1.0975  0.8414  0.2751
  991MOL0     H36707   9.503   7.655   2.063 -0.1335  0.3748 -0.6681
  991MOL0     H36708   9.547   7.856   1.928  0.1611 -0.8214  0.5396
  991MOL0     H36709   9.483   7.835   1.772 -1.9722 -0.4493  1.3152
  991MOL0     H36710   9.705   7.786   1.660 -1.5749  0.0385  0.0405
  991MOL0     H36711   9.704   7.948   1.725  0.1193  0.9081  0.0976
  991MOL0     H36712   9.822   7.856   1.930 -0.0725  0.9614 -1.8007
  991MOL0     H36713   9.827   7.693   1.855 -1.0456 -0.6929  1.5808
  991MOL0     H36714   9.943   7.807   1.662  1.1281  1.5289 -0.4738
  991MOL0     H36715   9.960   7.944   1.774  1.1646 -0.2330  0.2232
  991MOL0     H36716  10.287   7.877   1.871  0.6355  0.1240  1.1062
  991MOL0     H36717  10.600   7.782   1.751 -1.8579 -2.3013 -0.5841
  991MOL0     H36718  10.517   7.933   1.818 -2.8978  0.3083 -1.5801
  991MOL0     H36719  10.557   7.917   1.647  1.4810 -0.9274 -0.5400
  991MOL0     H36720  10.545   7.277   1.461 -0.3615 -0.1491 -1.1171
  991MOL0     H36721  10.730   7.189   1.328  2.1299  1.5574 -2.4178
  991MOL0     H36722  10.974   7.454   1.062 -4.9938  0.6683 -0.9638
  991MOL0     H36723  11.068   7.305   1.078 -0.0202 -0.0481 -0.0967
  991MOL0     H36724  10.882   7.188   0.945  2.5169 -0.6808  1.4511
  991MOL0     H36725  10.831   7.352   0.909 -0.4186 -0.6660  0.5381
  991MOL0     H36726  11.080   7.389   0.829 -1.9351  2.3318  2.6475
  991MOL0     H36727  10.974   7.296   0.725  3.7076  3.2330 -1.1825
  991MOL0     H36728  11.046   7.086   0.850 -0.8234  0.1005  1.6107
  991MOL0     H36729  11.171   7.169   0.922  0.4306 -1.5909 -0.0319
  991MOL0     H36730  11.211   7.040   0.695 -1.2060 -0.4571  0.3551
  991MOL0     H36731  11.157   7.194   0.621  1.6118  1.3677 -0.8023
  991MOL0     H36732  11.403   7.166   0.818  2.0392  2.8902  0.3619
  991MOL0     H36733  11.332   7.314   0.740 -1.1167  0.3051 -2.3740
  991MOL0     H36734  11.384   7.183   0.510  0.7840 -0.8090 -1.1516
  991MOL0     H36735  11.443   7.052   0.616  0.7639  0.0051  1.6895
  991MOL0     H36736  11.601   7.249   0.714 -0.3933 -1.9312  0.6723
  991MOL0     H36737  11.574   7.329   0.567  0.7960  0.1554 -0.0183
  991MOL0     H36738  10.794   7.564   1.137  0.5171  1.6934  0.9642
  991MOL0     H36739  10.618   7.659   1.273 -0.6100  0.5781 -0.8215
  991MOL0     H36740  10.246   7.550   1.506  2.6769  0.3576 -0.3928
  991MOL0     H36741  10.053   7.618   1.642  1.0120  0.1490  0.1224
  991MOL0     H36742   8.620   7.203   2.243 -0.7413 -2.2560 -2.7472
  991MOL0     H36743   8.421   7.067   2.216  0.4112 -0.0133  0.7011
  991MOL0     H36744   8.054   6.989   2.065 -0.3499 -0.1175 -0.2032
  991MOL0     H36745   7.900   6.797   2.009  0.0290 -1.7604  0.6887
  991MOL0     H36746   7.731   6.551   2.282 -0.4410 -0.2528  1.1372
  991MOL0     H36747   7.594   6.662   2.289 -0.2208 -2.7038  1.0895
  991MOL0     H36748   7.541   6.425   2.222 -1.9390 -2.3991 -3.6285
  991MOL0     H36749   7.656   6.452   2.089 -1.6113 -1.1001 -1.8016
  991MOL0     H36750   7.508   6.639   1.994 -1.7535  1.8008  1.6767
  991MOL0     H36751   7.446   6.474   1.985  2.8034  0.3037  0.9350
  991MOL0     H36752   7.266   6.641   2.053  1.7275 -1.0471 -1.1746
  991MOL0     H36753   7.365   6.714   2.155  1.5492  0.3078 -0.1657
  991MOL0     H36754   7.202   6.441   2.415  4.0663 -3.4843  0.2524
  991MOL0     H36755   7.753   6.793   2.405  0.3121 -3.1132 -2.0816
  991MOL0     H36756   7.860   7.085   2.513  0.8918  0.4195 -1.9895
  991MOL0     H36757   7.831   6.917   2.567 -0.8992 -0.3622 -2.0768
  991MOL0     H36758   7.998   6.982   2.566 -0.1336  0.1366 -0.1481
  992MOL0     O36759  10.904   5.348   1.107 -0.0964  0.4885 -0.8442
  992MOL0     C36760  10.852   5.250   1.165  0.0273 -0.4106 -0.3688
  992MOL0     O36761  10.884   5.212   1.292 -0.7136 -0.2390 -0.3873
  992MOL0     C36762  11.005   5.232   1.353  0.5287 -0.1650  0.5660
  992MOL0     C36763  10.994   5.260   1.484 -0.1571 -0.1195 -0.5695
  992MOL0     C36764  11.110   5.274   1.565  0.5128 -0.0784 -0.3812
  992MOL0     C36765  11.237   5.255   1.519  0.0169 -0.2039  1.0115
  992MOL0     O36766  11.334   5.252   1.613  0.0576 -0.4406 -0.2244
  992MOL0     C36767  11.472   5.249   1.558 -0.2987  0.1408 -0.6920
  992MOL0     C36768  11.509   5.096   1.531  0.5025  0.8509  0.3776
  992MOL0     C36769  11.661   5.100   1.521 -0.7737 -0.0628 -0.5630
  992MOL0     C36770  11.716   4.972   1.452  0.8919 -0.2226 -0.9254
  992MOL0     C36771  11.863   4.960   1.470  0.2996  0.6493  0.0623
  992MOL0     C36772  11.934   4.877   1.362 -0.2397  0.5921 -0.4402
  992MOL0     C36773  11.948   4.943   1.226  0.6772 -0.4585 -0.3167
  992MOL0     C36774  12.045   4.855   1.146 -0.0793  0.2221 -0.9584
  992MOL0     N36775  12.054   4.901   1.006  0.6201 -0.0496  0.1862
  992MOL0     C36776  12.166   4.931   0.932 -0.3917  0.9587  0.5192
  992MOL0     C36777  12.121   4.975   0.812  0.0360 -0.0742 -0.5444
  992MOL0     C36778  12.203   5.032   0.704 -0.4798 -0.3561  0.5611
  992MOL0     C36779  12.223   4.943   0.587 -0.4329 -0.0838  0.4406
  992MOL0     C36780  12.291   4.805   0.625 -0.4426  0.3229  1.1870
  992MOL0     C36781  12.427   4.803   0.693  1.2288 -0.2800 -0.0684
  992MOL0     O36782  12.517   4.855   0.597 -0.2009 -0.1822 -0.7461
  992MOL0     C36783  12.650   4.845   0.625 -0.3215 -0.5833 -0.2326
  992MOL0     C36784  12.729   4.899   0.519  0.2752  0.1926  0.5905
  992MOL0     C36785  12.871   4.890   0.522  0.1324 -0.2137  0.3686
  992MOL0     C36786  12.940   4.925   0.393 -0.0913  0.1287  0.1885
  992MOL0     C36787  12.928   4.827   0.636 -0.2903 -0.2374 -0.0268
  992MOL0     C36788  13.082   4.817   0.656  0.4691  0.8657 -0.1012
  992MOL0     O36789  13.129   4.761   0.768 -0.2458 -0.0221 -0.1061
  992MOL0     C36790  13.259   4.754   0.794 -0.6112 -0.1657 -0.1734
  992MOL0     C36791  13.338   4.871   0.833 -0.5744  1.2181  0.4510
  992MOL0     C36792  13.471   4.859   0.870  0.1617 -0.5450  0.1309
  992MOL0     C36793  13.527   4.730   0.855  0.8816 -0.1831 -0.2333
  992MOL0     O36794  13.664   4.728   0.861  0.3250  0.3793  0.0534
  992MOL0     C36795  13.733   4.613   0.797 -0.7455  0.3361  0.1354
  992MOL0     C36796  13.878   4.651   0.759 -0.5145  0.3889  0.2453
  992MOL0     C36797  13.879   4.783   0.672 -0.2567 -0.9776 -0.2029
  992MOL0     C36798  14.010   4.809   0.606  0.1196 -0.6458  0.0640
  992MOL0     C36799  14.032   4.954   0.574 -0.7168 -0.1212  0.2328
  992MOL0     C36800  14.175   4.993   0.544  0.1968 -0.2604 -0.2049
  992MOL0     C36801  14.258   4.941   0.419  0.7051  0.1211  0.0043
  992MOL0     C36802  14.180   4.987   0.292 -0.0743  1.1527 -0.2320
  992MOL0    Cl36803  14.145   5.164   0.287 -0.2085 -0.3869 -0.4334
  992MOL0     C36804  13.444   4.618   0.830 -0.6592 -0.2576 -0.5082
  992MOL0     C36805  13.316   4.630   0.804 -0.0605  0.7989 -0.1859
  992MOL0     O36806  13.150   4.875   0.573 -0.6973 -0.5647  0.1297
  992MOL0     C36807  12.851   4.782   0.740 -0.5194 -0.3514 -0.5071
  992MOL0     C36808  12.712   4.794   0.742  0.0680 -0.8813  0.0246
  992MOL0     N36809  11.984   4.970   0.811  0.2972  0.2066 -0.3940
  992MOL0     N36810  11.943   4.929   0.929 -0.6693 -0.1050  0.3588
  992MOL0     C36811  11.244   5.241   1.374  0.2737  0.1009 -0.3087
  992MOL0     C36812  11.129   5.223   1.294  0.0083  0.3761 -0.3525
  992MOL0     C36813  10.747   5.164   1.098  0.3789  0.6337 -0.5728
  992MOL0     C36814  10.709   5.043   1.161 -0.1653 -0.8350 -1.1003
  992MOL0     C36815  10.604   4.957   1.120 -0.0051 -0.2831 -0.1956
  992MOL0     C36816  10.539   4.995   1.007  0.1900 -0.1863 -0.2085
  992MOL0     O36817  10.425   4.922   0.976 -0.0404  0.1856 -0.7856
  992MOL0     C36818  10.336   4.971   0.870 -0.4785  0.0321 -1.1866
  992MOL0     C36819  10.214   4.882   0.882  0.8885  0.0827  0.6531
  992MOL0     C36820  10.132   4.872   0.753  0.4801  0.1977 -0.4173
  992MOL0     C36821  10.008   4.796   0.767  0.8811 -0.7608 -0.6678
  992MOL0     C36822   9.914   4.816   0.658  0.5959  0.1392 -0.1165
  992MOL0     C36823   9.828   4.804   0.568 -0.3534  0.1940 -0.0767
  992MOL0     C36824  10.577   5.105   0.937  0.1149 -0.7590 -0.2181
  992MOL0     C36825  10.678   5.194   0.986  0.0899 -0.3606  0.6895
  992MOL0     C36826  10.698   5.323   0.909 -0.7350  0.9357 -0.4217
  992MOL0     H36827  10.895   5.268   1.528 -1.3665 -6.2933 -1.2556
  992MOL0     H36828  11.106   5.286   1.673  0.8817 -1.3247 -0.2167
  992MOL0     H36829  11.546   5.289   1.629  0.2439  3.7483 -3.0460
  992MOL0     H36830  11.483   5.313   1.470  0.8547 -0.1980 -0.8092
  992MOL0     H36831  11.476   5.039   1.619 -2.1973 -0.9975 -1.6697
  992MOL0     H36832  11.467   5.055   1.439  0.3096  0.3790  0.6673
  992MOL0     H36833  11.688   5.189   1.464  1.8434 -0.5908 -0.2531
  992MOL0     H36834  11.708   5.109   1.620  0.1553  2.2841 -1.1633
  992MOL0     H36835  11.665   4.888   1.501 -0.4963  1.0359 -0.1594
  992MOL0     H36836  11.697   4.982   1.344 -2.8983  2.6427 -0.2118
  992MOL0     H36837  11.872   4.922   1.572  0.0715  2.1578  0.6576
  992MOL0     H36838  11.912   5.056   1.481  2.9041 -0.5485 -0.3451
  992MOL0     H36839  12.033   4.849   1.401 -1.0087 -1.3146  0.2748
  992MOL0     H36840  11.874   4.787   1.341  1.7318 -0.8542 -0.1805
  992MOL0     H36841  11.992   5.041   1.245  3.0433 -1.8237  2.0234
  992MOL0     H36842  11.849   4.956   1.183 -1.3349 -1.5267  3.5330
  992MOL0     H36843  12.150   4.847   1.178  0.4880  0.3011 -2.6565
  992MOL0     H36844  12.007   4.752   1.145 -0.7816  0.4540  0.5328
  992MOL0     H36845  12.271   4.915   0.952 -0.1199 -5.3233 -3.2632
  992MOL0     H36846  12.299   5.059   0.750 -0.0082  2.4151 -1.7524
  992MOL0     H36847  12.157   5.123   0.666  0.9168 -0.1987 -0.8825
  992MOL0     H36848  12.123   4.924   0.547 -0.1335 -2.7628  0.7289
  992MOL0     H36849  12.284   4.995   0.513 -2.0809  0.4037 -0.6340
  992MOL0     H36850  12.213   4.761   0.688 -1.3295 -1.8607 -1.2641
  992MOL0     H36851  12.293   4.745   0.534  1.1528 -0.5748  1.7828
  992MOL0     H36852  12.431   4.859   0.787 -2.7048  1.8098 -0.9513
  992MOL0     H36853  12.442   4.698   0.722  0.1344 -1.3996 -3.0864
  992MOL0     H36854  12.682   4.936   0.429 -1.7895 -1.5097  0.9072
  992MOL0     H36855  13.022   4.994   0.414 -0.4276  0.0223  1.9370
  992MOL0     H36856  12.871   4.983   0.330  0.6157  0.3430 -0.4020
  992MOL0     H36857  12.966   4.833   0.339  0.2460  0.1999  0.2319
  992MOL0     H36858  13.297   4.972   0.833  2.2652  2.5000  1.1374
  992MOL0     H36859  13.542   4.938   0.894 -0.4134 -0.1773  0.6490
  992MOL0     H36860  13.726   4.533   0.872 -0.5732  1.2730  1.1799
  992MOL0     H36861  13.683   4.591   0.702 -0.4916  1.8811 -0.3855
  992MOL0     H36862  13.943   4.663   0.847  0.9124 -0.5927 -0.6308
  992MOL0     H36863  13.929   4.573   0.702 -0.9963 -0.0631  0.4297
  992MOL0     H36864  13.858   4.853   0.753 -0.2425  0.2134 -1.1977
  992MOL0     H36865  13.796   4.794   0.602 -0.6740  0.8323  0.5284
  992MOL0     H36866  14.023   4.748   0.516 -0.1565 -0.2092 -0.2748
  992MOL0     H36867  14.088   4.778   0.677 -2.0003 -1.4276  2.2157
  992MOL0     H36868  13.965   4.986   0.493 -2.8302  0.7392  2.2306
  992MOL0     H36869  14.007   5.020   0.657  0.9638  1.4722 -0.4669
  992MOL0     H36870  14.239   4.957   0.625  1.3937 -1.5411 -1.6432
  992MOL0     H36871  14.188   5.101   0.543  0.2658 -0.2686 -0.3543
  992MOL0     H36872  14.287   4.836   0.426  0.2379 -0.0353 -0.3784
  992MOL0     H36873  14.350   4.999   0.425 -0.6312  2.2699  1.4918
  992MOL0     H36874  14.083   4.935   0.293  0.9235 -0.8207  1.4240
  992MOL0     H36875  14.232   4.962   0.199 -0.6855  1.2135 -0.5965
  992MOL0     H36876  13.489   4.522   0.851  2.6587  1.2143 -0.3402
  992MOL0     H36877  13.259   4.542   0.774  2.6777 -0.8400 -0.9723
  992MOL0     H36878  12.889   4.745   0.835 -1.0175 -1.3020 -0.6710
  992MOL0     H36879  12.648   4.769   0.826 -1.1865 -0.4542 -0.7757
  992MOL0     H36880  11.338   5.226   1.322  0.4922  1.8931 -0.5112
  992MOL0     H36881  11.134   5.201   1.188  1.0023  0.9822 -0.4450
  992MOL0     H36882  10.767   5.016   1.249 -0.4956  0.1979 -0.5499
  992MOL0     H36883  10.570   4.876   1.184 -3.4322 -1.4533 -3.1471
  992MOL0     H36884  10.305   5.074   0.888 -1.5327 -0.7102  1.6495
  992MOL0     H36885  10.383   4.961   0.771 -0.4445 -0.3436 -1.1336
  992MOL0     H36886  10.153   4.928   0.959  1.7782  0.0880  1.3726
  992MOL0     H36887  10.241   4.778   0.905  1.1766  0.1159  0.4627
  992MOL0     H36888  10.119   4.975   0.719  1.3627  1.7807  3.4698
  992MOL0     H36889  10.193   4.818   0.680  1.0612  0.6800 -0.2914
  992MOL0     H36890   9.963   4.826   0.863  0.0441  4.1755 -2.3416
  992MOL0     H36891  10.041   4.692   0.769 -0.9225 -1.3569  0.4577
  992MOL0     H36892   9.764   4.783   0.485 -0.2963  1.7574 -0.5450
  992MOL0     H36893  10.522   5.139   0.850  1.1618 -4.1912 -2.4315
  992MOL0     H36894  10.648   5.407   0.959 -2.0894 -1.4585  2.5603
  992MOL0     H36895  10.805   5.333   0.890 -0.4482  0.2673  0.7709
  992MOL0     H36896  10.663   5.306   0.807  0.5110 -0.0678 -0.6926
  993MOL0     O36897   4.652  10.269   3.250  0.0506  0.2286 -0.5249
  993MOL0     C36898   4.698  10.371   3.308  0.7256 -0.3159  0.5245
  993MOL0     O36899   4.621  10.488   3.323  0.0868 -0.6288 -0.5996
  993MOL0     C36900   4.508  10.491   3.251  0.5591 -0.2891 -0.3370
  993MOL0     C36901   4.387  10.456   3.314 -0.3022 -0.3256 -0.0419
  993MOL0     C36902   4.265  10.472   3.257  0.2524 -0.1818 -0.0302
  993MOL0     C36903   4.264  10.511   3.125  0.4068 -0.2865 -0.5587
  993MOL0     O36904   4.146  10.522   3.057  0.4532  0.1170  0.2681
  993MOL0     C36905   4.026  10.483   3.130 -0.6720 -0.3926 -0.4790
  993MOL0     C36906   3.898  10.523   3.052 -0.5275  0.1595  0.0789
  993MOL0     C36907   3.884  10.680   3.016 -0.1485  0.4399 -0.1751
  993MOL0     C36908   3.753  10.709   2.945  0.0717 -0.0997 -1.1596
  993MOL0     C36909   3.751  10.861   2.894 -0.3449 -0.9896 -0.3197
  993MOL0     C36910   3.649  10.943   2.972 -0.1649  0.3239  0.2285
  993MOL0     C36911   3.648  11.086   2.914  0.1981  0.0599 -0.9944
  993MOL0     C36912   3.773  11.161   2.961  0.3776 -0.5582 -0.1864
  993MOL0     N36913   3.771  11.298   2.916  0.2991 -0.3869  0.1147
  993MOL0     C36914   3.788  11.337   2.780 -0.5070  1.4981 -1.0342
  993MOL0     C36915   3.752  11.464   2.771 -0.2347 -0.9009 -0.5833
  993MOL0     C36916   3.754  11.563   2.651  0.7781 -0.0333  0.1115
  993MOL0     C36917   3.894  11.572   2.611 -0.1006 -0.2806  0.5353
  993MOL0     C36918   3.924  11.664   2.484  0.0206  0.8861 -0.5363
  993MOL0     C36919   3.874  11.813   2.498 -0.5302 -0.0184  0.2031
  993MOL0     O36920   3.948  11.891   2.594 -0.3131  0.4046 -1.0496
  993MOL0     C36921   4.082  11.927   2.582 -0.1955  0.2240 -0.2430
  993MOL0     C36922   4.154  11.925   2.465 -0.1164 -0.6859 -0.3382
  993MOL0     C36923   4.287  11.971   2.458  1.1091  0.1536 -0.4183
  993MOL0     C36924   4.356  11.969   2.322  0.4610 -0.7815 -0.5529
  993MOL0     C36925   4.341  12.026   2.582  0.7172 -0.5622  0.2292
  993MOL0     C36926   4.487  12.061   2.602  0.1795  0.0380  0.8809
  993MOL0     O36927   4.568  12.007   2.507  0.7482  0.0287  0.2946
  993MOL0     C36928   4.699  12.049   2.531  0.1355 -0.4369  0.1248
  993MOL0     C36929   4.733  12.186   2.491 -0.1331 -0.0072  0.0209
  993MOL0     C36930   4.857  12.238   2.516  0.8646  0.6857  0.5635
  993MOL0     C36931   4.958  12.161   2.570  0.9142  0.3097  0.3994
  993MOL0     O36932   5.090  12.208   2.596  0.2422  0.1826  0.4191
  993MOL0     C36933   5.122  12.338   2.557 -0.4764 -0.0973  0.3346
  993MOL0     C36934   5.133  12.373   2.407  0.5339  0.6162 -0.9878
  993MOL0     C36935   5.216  12.282   2.326 -0.4448 -1.2725  0.5686
  993MOL0     C36936   5.200  12.306   2.172 -0.7190  1.0405  0.2692
  993MOL0     C36937   5.277  12.205   2.093 -0.1554  0.4051  0.0717
  993MOL0     C36938   5.240  12.205   1.951  1.0428  0.1811 -0.1061
  993MOL0     C36939   5.290  12.084   1.866 -0.8369 -0.0151 -0.3947
  993MOL0     C36940   5.434  12.044   1.897  0.2889  0.6790  0.5527
  993MOL0    Cl36941   5.543  12.174   1.865 -0.1714 -0.0157 -0.1198
  993MOL0     C36942   4.928  12.030   2.608  0.0739 -0.3699  0.1843
  993MOL0     C36943   4.799  11.972   2.592  0.0156 -0.9587  0.0082
  993MOL0     O36944   4.523  12.122   2.702  0.9305  0.1896  0.0739
  993MOL0     C36945   4.262  12.031   2.701 -0.1123  1.0092 -0.1440
  993MOL0     C36946   4.133  11.980   2.700 -0.6641  1.1427 -0.2414
  993MOL0     N36947   3.715  11.499   2.903 -0.0532  0.0073  0.2307
  993MOL0     N36948   3.722  11.403   2.985  0.0449  0.0730 -0.3146
  993MOL0     C36949   4.388  10.531   3.052 -0.0870 -0.2508  0.7194
  993MOL0     C36950   4.515  10.534   3.121  0.1444 -0.8538 -0.4140
  993MOL0     C36951   4.840  10.377   3.356 -0.6434 -0.6104 -0.3020
  993MOL0     C36952   4.887  10.501   3.404  0.3837  0.3490 -0.2812
  993MOL0     C36953   5.020  10.530   3.441  0.6438 -0.7334  0.8702
  993MOL0     C36954   5.117  10.427   3.423  0.6951  0.6600 -0.3170
  993MOL0     O36955   5.244  10.463   3.461 -0.1701  0.3029  0.8207
  993MOL0     C36956   5.260  10.449   3.607  0.3915  0.0596  0.1608
  993MOL0     C36957   5.324  10.578   3.651 -0.1742  0.2989  0.2498
  993MOL0     C36958   5.360  10.595   3.798 -0.5868 -0.2315 -0.0878
  993MOL0     C36959   5.497  10.668   3.815  0.3183 -0.0214  0.3870
  993MOL0     C36960   5.537  10.698   3.950  0.3827  0.5825 -0.4471
  993MOL0     C36961   5.595  10.725   4.051 -0.3784 -0.9743 -0.5004
  993MOL0     C36962   5.073  10.303   3.370  0.3037 -0.8993 -0.1517
  993MOL0     C36963   4.939  10.282   3.338  0.0601  0.5433 -0.4270
  993MOL0     C36964   4.907  10.143   3.289  0.9308  0.7005  0.6002
  993MOL0     H36965   4.393  10.418   3.415  1.3741  2.9062  1.1767
  993MOL0     H36966   4.181  10.463   3.326 -0.7144 -0.5836 -1.2244
  993MOL0     H36967   4.016  10.531   3.228  0.9330 -0.1450 -0.4021
  993MOL0     H36968   4.024  10.374   3.137  0.5829 -0.4408 -0.6084
  993MOL0     H36969   3.906  10.460   2.962  1.0246 -2.0472  1.6726
  993MOL0     H36970   3.809  10.500   3.112 -1.6535  2.2228 -0.7047
  993MOL0     H36971   3.898  10.736   3.109 -2.4947 -0.9450  1.0983
  993MOL0     H36972   3.974  10.710   2.960  1.0257 -0.8692  0.9419
  993MOL0     H36973   3.767  10.649   2.855  2.1940  1.7696 -2.1771
  993MOL0     H36974   3.661  10.677   2.994  0.9765 -0.3607  0.4322
  993MOL0     H36975   3.721  10.851   2.789 -0.6714  1.4232 -0.5132
  993MOL0     H36976   3.851  10.905   2.893  0.0013 -1.4862  2.7953
  993MOL0     H36977   3.550  10.897   2.958 -0.6093  1.4835 -0.6711
  993MOL0     H36978   3.666  10.942   3.080  1.2138  0.1002  0.0287
  993MOL0     H36979   3.556  11.133   2.950  1.7972  0.9728  2.2327
  993MOL0     H36980   3.648  11.081   2.805  1.5191  0.4697 -1.0253
  993MOL0     H36981   3.779  11.172   3.070 -2.4550  0.9733 -0.0794
  993MOL0     H36982   3.868  11.130   2.917  1.9370  2.5940  0.6446
  993MOL0     H36983   3.807  11.276   2.693  1.4554  1.4943 -0.6316
  993MOL0     H36984   3.717  11.662   2.680 -1.3967 -0.0861 -2.1487
  993MOL0     H36985   3.695  11.522   2.568  0.8116  2.1032 -1.0147
  993MOL0     H36986   3.956  11.603   2.696 -0.5072  1.3789  0.2613
  993MOL0     H36987   3.910  11.467   2.581 -3.7358 -0.4686 -1.3270
  993MOL0     H36988   4.031  11.662   2.460  0.1974  2.8116 -0.0585
  993MOL0     H36989   3.878  11.626   2.392 -0.2630  0.5086 -0.2442
  993MOL0     H36990   3.894  11.858   2.400 -1.5046 -1.0744 -0.5115
  993MOL0     H36991   3.766  11.817   2.511 -0.2404  1.4765  2.7276
  993MOL0     H36992   4.111  11.871   2.381 -0.3444  0.7318 -1.1644
  993MOL0     H36993   4.431  11.890   2.307  2.8669  1.3304 -0.3243
  993MOL0     H36994   4.419  12.057   2.333 -0.6035 -0.2729  2.5379
  993MOL0     H36995   4.283  11.992   2.244  0.9814 -2.5431 -1.6193
  993MOL0     H36996   4.668  12.250   2.431 -1.7564  0.7893  2.4570
  993MOL0     H36997   4.877  12.337   2.478 -3.1542  1.0365 -1.0606
  993MOL0     H36998   5.054  12.409   2.605 -0.6421 -0.2684  0.3502
  993MOL0     H36999   5.221  12.362   2.599  0.0390 -0.7841 -0.4563
  993MOL0     H37000   5.034  12.388   2.364 -0.5874  0.3003  1.3177
  993MOL0     H37001   5.173  12.475   2.408 -1.2793  1.6012  4.2735
  993MOL0     H37002   5.201  12.175   2.343  0.3989 -2.0400 -2.8098
  993MOL0     H37003   5.319  12.300   2.358 -0.2526  0.6403 -0.8985
  993MOL0     H37004   5.246  12.401   2.142  1.8197  0.3670  1.7723
  993MOL0     H37005   5.098  12.293   2.136 -0.2858 -1.3398 -0.2869
  993MOL0     H37006   5.386  12.219   2.104 -0.0585  0.6366 -1.0379
  993MOL0     H37007   5.252  12.106   2.130  4.2671  0.1271  3.2129
  993MOL0     H37008   5.270  12.301   1.907 -1.3949  0.2143 -1.9267
  993MOL0     H37009   5.132  12.203   1.935  1.1736  1.8483 -1.5921
  993MOL0     H37010   5.284  12.109   1.760 -0.7165  2.0712  0.0561
  993MOL0     H37011   5.232  11.992   1.873  0.6759 -0.9384  0.8795
  993MOL0     H37012   5.467  11.956   1.841  0.7891  1.8275 -1.0181
  993MOL0     H37013   5.446  12.021   2.003 -0.7633 -0.6378  0.4096
  993MOL0     H37014   5.006  11.977   2.661  0.3444 -0.6746 -0.5076
  993MOL0     H37015   4.770  11.872   2.624  2.3209 -1.2247  1.5771
  993MOL0     H37016   4.287  12.084   2.792 -3.1538 -0.6051  1.8292
  993MOL0     H37017   4.070  11.984   2.788 -0.7799 -0.3688 -0.2275
  993MOL0     H37018   4.384  10.541   2.944 -0.0225 -3.2435  0.3543
  993MOL0     H37019   4.612  10.556   3.078  1.0961 -1.9568  1.0728
  993MOL0     H37020   4.818  10.586   3.404  0.8687  0.8290  2.1053
  993MOL0     H37021   5.055  10.621   3.487  0.8449 -0.5507  0.3599
  993MOL0     H37022   5.171  10.437   3.670  2.8390 -2.2518  3.4774
  993MOL0     H37023   5.321  10.362   3.630  0.0662  0.0670  1.0692
  993MOL0     H37024   5.248  10.651   3.621  1.3241  1.3628 -1.1118
  993MOL0     H37025   5.419  10.585   3.597  0.1753  1.9989  1.0106
  993MOL0     H37026   5.286  10.652   3.855  0.5238  0.3977  0.7636
  993MOL0     H37027   5.356  10.496   3.844 -3.9525  0.0805  0.5975
  993MOL0     H37028   5.493  10.766   3.766  0.0498 -1.2021 -2.1488
  993MOL0     H37029   5.570  10.601   3.769 -2.4911 -2.5145 -0.8561
  993MOL0     H37030   5.645  10.748   4.143 -0.0065 -2.5291 -0.3002
  993MOL0     H37031   5.144  10.221   3.378 -0.3653 -1.7175 -2.0215
  993MOL0     H37032   4.809  10.111   3.327  1.2816  0.7163  1.5540
  993MOL0     H37033   4.907  10.148   3.180  0.0997  1.0840  0.6100
  993MOL0     H37034   4.986  10.078   3.328  0.3553  0.6353  1.7135
  994MOL0     O37035   0.288  10.460   5.847  0.0271  0.2323  0.0428
  994MOL0     C37036   0.230  10.359   5.800 -0.2986 -0.4048  0.3893
  994MOL0     O37037   0.295  10.244   5.776  1.0393 -0.0022 -0.8514
  994MOL0     C37038   0.429  10.228   5.791  0.2724 -0.4855  0.2019
  994MOL0     C37039   0.490  10.249   5.913 -0.1434  0.0816 -0.2131
  994MOL0     C37040   0.632  10.253   5.925  0.6189  0.1169 -0.3162
  994MOL0     C37041   0.714  10.242   5.808 -0.1796 -0.1304 -0.3109
  994MOL0     O37042   0.853  10.249   5.803  0.5935 -0.2197 -0.2061
  994MOL0     C37043   0.904  10.355   5.867 -0.0911 -0.4299  0.0870
  994MOL0     C37044   1.051  10.356   5.899  0.4015  0.1346  0.1321
  994MOL0     C37045   1.069  10.270   6.028 -0.5382 -0.8234  0.0747
  994MOL0     C37046   1.222  10.242   6.067  0.4797  0.8252  0.2206
  994MOL0     C37047   1.236  10.189   6.208 -0.2122 -0.0157  0.3305
  994MOL0     C37048   1.382  10.190   6.248  0.6671  0.1477  0.7011
  994MOL0     C37049   1.414  10.102   6.368  0.2381  0.1631  0.3188
  994MOL0     C37050   1.551  10.141   6.425 -0.2416  0.0919 -0.5683
  994MOL0     N37051   1.663  10.152   6.325  0.0287 -0.2611 -0.0207
  994MOL0     C37052   1.711  10.280   6.301 -0.1727  0.7562 -1.1860
  994MOL0     C37053   1.801  10.259   6.195  1.1755 -0.5072 -0.3475
  994MOL0     C37054   1.897  10.355   6.146 -0.4255  0.4128 -0.2287
  994MOL0     C37055   2.023  10.355   6.244 -0.1209 -0.7009  0.0553
  994MOL0     C37056   2.109  10.226   6.230  0.3390  0.3058 -0.9083
  994MOL0     C37057   2.244  10.240   6.305 -0.4563 -0.4913 -0.9550
  994MOL0     O37058   2.208  10.225   6.449 -0.1220  0.3012  0.2039
  994MOL0     C37059   2.289  10.279   6.541 -0.1560  0.2234 -0.6895
  994MOL0     C37060   2.246  10.287   6.672  0.0097 -0.2768  0.4168
  994MOL0     C37061   2.322  10.360   6.771  0.2624  0.7092 -0.2781
  994MOL0     C37062   2.276  10.363   6.918 -0.3588  0.8302  0.4939
  994MOL0     C37063   2.434  10.425   6.731 -0.5050  0.8217 -0.5300
  994MOL0     C37064   2.526  10.490   6.831  0.6051  0.3798 -0.3574
  994MOL0     O37065   2.648  10.462   6.823 -0.6355 -0.6058 -0.1054
  994MOL0     C37066   2.734  10.508   6.919 -0.7050  0.1490 -0.6906
  994MOL0     C37067   2.761  10.434   7.030 -0.4751  0.3023  1.0354
  994MOL0     C37068   2.875  10.468   7.109  0.6814 -0.2006  0.6218
  994MOL0     C37069   2.941  10.590   7.090 -0.0153  0.5513  0.1384
  994MOL0     O37070   3.049  10.632   7.155  0.0350  0.4510  0.5114
  994MOL0     C37071   3.067  10.577   7.290 -0.6934  0.4148 -0.1518
  994MOL0     C37072   3.178  10.478   7.273  0.0776  0.4780  0.4525
  994MOL0     C37073   3.249  10.421   7.397  0.6276  0.0196  0.5292
  994MOL0     C37074   3.234  10.272   7.414  0.8837 -0.3384 -0.8453
  994MOL0     C37075   3.112  10.210   7.489  0.0793  0.4947  0.1147
  994MOL0     C37076   2.976  10.210   7.414 -0.3700 -0.1103  0.2341
  994MOL0     C37077   2.860  10.136   7.475  0.5105 -0.3143  0.0596
  994MOL0     C37078   2.821  10.024   7.383 -0.0232  0.3087 -0.3856
  994MOL0    Cl37079   2.780  10.077   7.214 -0.2495  0.2410 -0.3859
  994MOL0     C37080   2.895  10.678   6.990 -1.1387 -0.1795 -0.1145
  994MOL0     C37081   2.795  10.637   6.901  0.1178 -0.2553 -0.4835
  994MOL0     O37082   2.479  10.569   6.909  0.5511 -0.2838  0.3612
  994MOL0     C37083   2.492  10.404   6.607 -0.1462 -0.1216  0.2616
  994MOL0     C37084   2.414  10.348   6.505  0.0322  0.1226  0.4929
  994MOL0     N37085   1.814  10.121   6.166  0.4598  0.1871  0.9403
  994MOL0     N37086   1.732  10.062   6.245  0.4182 -0.3045 -1.1830
  994MOL0     C37087   0.648  10.230   5.688 -0.1621  0.0053  0.4672
  994MOL0     C37088   0.507  10.209   5.677  0.0109 -0.1319  0.3540
  994MOL0     C37089   0.094  10.364   5.773  0.8985  1.1081 -0.2678
  994MOL0     C37090   0.053  10.331   5.646 -0.0399  0.0480 -1.3764
  994MOL0     C37091  -0.081  10.331   5.610  0.7150  0.4443 -0.5309
  994MOL0     C37092  -0.177  10.392   5.699 -0.6982  0.3812  0.7054
  994MOL0     O37093  -0.287  10.439   5.642 -0.0268 -0.0383 -0.1041
  994MOL0     C37094  -0.336  10.569   5.688  0.6536 -0.6148 -0.3261
  994MOL0     C37095  -0.437  10.624   5.586  0.4401  0.1352  0.7231
  994MOL0     C37096  -0.511  10.757   5.617  0.3663 -1.0884  0.9650
  994MOL0     C37097  -0.608  10.798   5.499  0.1876 -0.5914  0.2084
  994MOL0     C37098  -0.540  10.824   5.369 -0.5231  0.0946 -0.1175
  994MOL0     C37099  -0.480  10.809   5.263  0.0247  0.4514 -0.0012
  994MOL0     C37100  -0.135  10.420   5.829  0.0302  0.2987 -0.4673
  994MOL0     C37101  -0.005  10.398   5.871 -0.4788  0.0445 -0.5890
  994MOL0     C37102   0.032  10.425   6.010 -0.2700  0.3967  0.1885
  994MOL0     H37103   0.434  10.248   6.006 -0.3782  0.0586 -0.3545
  994MOL0     H37104   0.669  10.272   6.025 -0.3662  2.3077 -0.3071
  994MOL0     H37105   0.854  10.384   5.960 -0.9046 -1.7547  0.0775
  994MOL0     H37106   0.891  10.433   5.791 -0.2108 -0.4059  0.1323
  994MOL0     H37107   1.108  10.311   5.816 -0.7055 -0.4094 -0.3629
  994MOL0     H37108   1.079  10.459   5.918 -0.6476  0.4642 -0.0451
  994MOL0     H37109   1.020  10.324   6.110 -0.7379 -0.1211 -0.5002
  994MOL0     H37110   1.021  10.171   6.023 -1.9587 -0.1326 -0.3518
  994MOL0     H37111   1.277  10.178   5.997  3.1065  0.1265  2.7440
  994MOL0     H37112   1.277  10.335   6.052  2.1825 -0.2309 -0.4474
  994MOL0     H37113   1.205  10.085   6.216 -0.7941  0.1813  0.7244
  994MOL0     H37114   1.183  10.248   6.284  3.0507 -1.2473  3.8797
  994MOL0     H37115   1.449  10.166   6.165  4.7915  3.3237  2.7626
  994MOL0     H37116   1.404  10.292   6.281 -2.3749  0.5505  1.7951
  994MOL0     H37117   1.413   9.996   6.343  2.4558  0.1007  0.2933
  994MOL0     H37118   1.335  10.114   6.442 -0.0465  1.2635 -0.1352
  994MOL0     H37119   1.552  10.236   6.480  0.6444 -0.5692  0.5923
  994MOL0     H37120   1.579  10.051   6.479 -0.3747 -0.8296 -1.9735
  994MOL0     H37121   1.695  10.370   6.359 -1.2155 -0.9240  1.3056
  994MOL0     H37122   1.854  10.455   6.151  1.5945  1.4594 -2.2696
  994MOL0     H37123   1.924  10.335   6.042 -0.6108 -2.5622  0.2000
  994MOL0     H37124   2.084  10.442   6.217  1.1131 -1.5232  0.1064
  994MOL0     H37125   1.985  10.359   6.347  0.5881 -0.1522  0.2993
  994MOL0     H37126   2.050  10.142   6.266 -0.3628  1.5427  0.9842
  994MOL0     H37127   2.128  10.208   6.124 -0.9191  1.4442 -1.3459
  994MOL0     H37128   2.323  10.173   6.272 -0.3343  0.6665 -3.2246
  994MOL0     H37129   2.275  10.344   6.293 -1.0107  0.2591  2.7494
  994MOL0     H37130   2.144  10.253   6.688 -0.6974  0.8098 -1.5590
  994MOL0     H37131   2.185  10.307   6.937  1.0401 -2.8576 -2.4282
  994MOL0     H37132   2.249  10.466   6.945 -0.9159  0.5335  1.0826
  994MOL0     H37133   2.354  10.324   6.984  1.4038  1.4307 -1.1394
  994MOL0     H37134   2.713  10.338   7.043 -0.2904 -0.2328 -1.6158
  994MOL0     H37135   2.913  10.402   7.187  1.7944  1.5890  1.6573
  994MOL0     H37136   3.107  10.657   7.353 -0.0838  0.5545 -0.7016
  994MOL0     H37137   2.971  10.552   7.336 -2.0801  0.2696 -2.8695
  994MOL0     H37138   3.140  10.403   7.203  2.3549  0.5030 -0.9038
  994MOL0     H37139   3.262  10.518   7.215  0.4156 -0.8359 -0.0103
  994MOL0     H37140   3.236  10.473   7.493  3.0051 -2.6590  2.4832
  994MOL0     H37141   3.356  10.432   7.377  0.1644  1.6561 -1.2839
  994MOL0     H37142   3.319  10.247   7.478  1.4119  1.4775 -0.7825
  994MOL0     H37143   3.234  10.222   7.316 -0.9060 -1.8858 -0.1361
  994MOL0     H37144   3.136  10.107   7.519  0.5999  0.5212 -0.2000
  994MOL0     H37145   3.096  10.272   7.578 -0.5524  1.7555 -0.8440
  994MOL0     H37146   3.006  10.179   7.313  2.0938  0.1943  0.8116
  994MOL0     H37147   2.940  10.313   7.402  2.3661  0.7574 -1.5894
  994MOL0     H37148   2.764  10.186   7.485 -0.5821 -2.5820  1.7094
  994MOL0     H37149   2.890  10.094   7.572  0.6945 -0.0642  0.1125
  994MOL0     H37150   2.735   9.974   7.428  0.8952 -1.4818 -0.4975
  994MOL0     H37151   2.901   9.950   7.373 -0.1622  0.3437 -2.2153
  994MOL0     H37152   2.952  10.770   6.977  0.7762 -1.2860  0.0301
  994MOL0     H37153   2.757  10.685   6.811 -2.5717 -2.4272 -0.6254
  994MOL0     H37154   2.587  10.450   6.584 -1.1918  1.5764 -0.9224
  994MOL0     H37155   2.451  10.357   6.403  1.1104  3.2646  1.0358
  994MOL0     H37156   0.706  10.233   5.596 -1.2825  2.6144 -0.2167
  994MOL0     H37157   0.463  10.213   5.578  1.6160  0.2081 -0.3766
  994MOL0     H37158   0.131  10.301   5.577  1.0547 -0.9640  0.2458
  994MOL0     H37159  -0.105  10.299   5.509 -1.3617  2.9070 -0.9149
  994MOL0     H37160  -0.386  10.556   5.784 -1.6932  0.1247 -1.3830
  994MOL0     H37161  -0.266  10.651   5.708 -0.1935  0.1392 -0.4055
  994MOL0     H37162  -0.521  10.554   5.591  3.0239 -3.3828 -0.8344
  994MOL0     H37163  -0.399  10.615   5.483  1.3837 -2.6211  1.2256
  994MOL0     H37164  -0.558  10.738   5.713  0.1453  2.6645  1.7573
  994MOL0     H37165  -0.437  10.838   5.619 -2.6279  1.9512 -0.4009
  994MOL0     H37166  -0.654  10.894   5.524 -0.0837 -1.0831  1.7002
  994MOL0     H37167  -0.686  10.723   5.488  1.4858 -1.8669 -0.6287
  994MOL0     H37168  -0.415  10.792   5.179  2.0425  1.7219  1.2256
  994MOL0     H37169  -0.210  10.450   5.902 -0.4867  2.7577 -1.9049
  994MOL0     H37170  -0.045  10.489   6.055 -1.1660 -0.3277 -0.2709
  994MOL0     H37171   0.034  10.331   6.067 -1.1582 -1.1684 -2.2092
  994MOL0     H37172   0.132  10.467   6.021 -0.0420 -0.0057 -0.3256
  995MOL0     O37173   4.428   3.863   9.494 -1.0402 -0.1162  0.6675
  995MOL0     C37174   4.514   3.801   9.422  0.5934  0.7063 -0.1308
  995MOL0     O37175   4.646   3.780   9.454  0.0084  0.3291 -0.4749
  995MOL0     C37176   4.699   3.823   9.572  0.3644 -0.9925 -0.1097
  995MOL0     C37177   4.739   3.956   9.586  1.1782  0.4831  0.2764
  995MOL0     C37178   4.799   3.984   9.714 -0.4303 -0.7240 -0.4077
  995MOL0     C37179   4.819   3.895   9.821 -0.2276  0.2146  0.3217
  995MOL0     O37180   4.884   3.919   9.942  0.6585  0.1462  0.2100
  995MOL0     C37181   4.896   4.056   9.989 -0.0647  0.5679  0.1181
  995MOL0     C37182   4.991   4.057  10.106 -0.7532  0.2761 -0.8086
  995MOL0     C37183   4.968   4.166  10.209  0.3401 -0.6652 -0.3756
  995MOL0     C37184   5.093   4.190  10.285  0.9280  0.0417  0.6793
  995MOL0     C37185   5.064   4.308  10.383 -0.5453  0.1461  0.1817
  995MOL0     C37186   5.037   4.448  10.318 -0.5397 -0.1905 -0.1665
  995MOL0     C37187   5.049   4.564  10.419 -0.2064 -0.6743  0.2865
  995MOL0     C37188   5.190   4.597  10.444 -1.2889 -0.2955 -1.3146
  995MOL0     N37189   5.204   4.720  10.524 -0.2769 -0.1888  0.0830
  995MOL0     C37190   5.174   4.736  10.659 -0.3362  0.9387 -0.3779
  995MOL0     C37191   5.175   4.867  10.688  0.2910  0.1358 -0.1890
  995MOL0     C37192   5.159   4.927  10.821  0.6248 -0.6777 -0.0126
  995MOL0     C37193   5.296   4.927  10.889  0.2487  0.4163 -0.3600
  995MOL0     C37194   5.288   5.002  11.026  0.1748 -0.6278  0.0539
  995MOL0     C37195   5.418   5.000  11.097 -0.4328  0.1812  0.3134
  995MOL0     O37196   5.508   5.097  11.039  0.5103 -0.2641  0.0886
  995MOL0     C37197   5.646   5.099  11.062  0.8430  0.2879  0.4149
  995MOL0     C37198   5.730   5.195  11.010  1.0430 -0.0656 -0.0042
  995MOL0     C37199   5.860   5.217  11.032 -0.8258  0.4266 -0.7658
  995MOL0     C37200   5.916   5.335  10.956 -0.4712 -0.9242  0.0571
  995MOL0     C37201   5.920   5.125  11.117 -0.4817  0.9530 -0.3603
  995MOL0     C37202   6.061   5.138  11.174  0.4788 -0.2757  0.6807
  995MOL0     O37203   6.129   5.019  11.202 -0.3163 -0.4130  0.1121
  995MOL0     C37204   6.230   5.023  11.290 -0.7778  0.1183  0.3672
  995MOL0     C37205   6.233   5.094  11.414  0.5661  0.8755  0.5408
  995MOL0     C37206   6.343   5.094  11.494  0.9431  0.3202 -0.2924
  995MOL0     C37207   6.460   5.024  11.459  0.6697 -0.0010 -0.8437
  995MOL0     O37208   6.572   5.030  11.541  0.8121 -0.3137  0.1746
  995MOL0     C37209   6.582   5.124  11.650 -0.1782  0.9464  0.0909
  995MOL0     C37210   6.594   5.271  11.594  0.3966 -0.1003 -1.0628
  995MOL0     C37211   6.653   5.373  11.701 -0.4030  0.4575 -0.1433
  995MOL0     C37212   6.602   5.517  11.676  1.1553  0.1326  0.4550
  995MOL0     C37213   6.675   5.628  11.752 -0.2279 -0.7109  0.3659
  995MOL0     C37214   6.690   5.600  11.903  0.8843  0.4281  0.9095
  995MOL0     C37215   6.554   5.615  11.978  0.1108  0.6557 -0.0419
  995MOL0     C37216   6.585   5.640  12.126  0.8536  0.3041 -0.8125
  995MOL0    Cl37217   6.728   5.558  12.193  0.0625  0.1540 -0.4609
  995MOL0     C37218   6.462   4.950  11.339  0.0271 -0.7149 -1.2610
  995MOL0     C37219   6.348   4.943  11.266  0.7690  0.0929  0.5208
  995MOL0     O37220   6.108   5.253  11.172 -0.0024  0.6129 -0.4322
  995MOL0     C37221   5.841   5.021  11.171 -0.2462 -0.1155 -0.3298
  995MOL0     C37222   5.708   5.006  11.139  0.2932  0.2073 -0.0127
  995MOL0     N37223   5.210   4.931  10.569 -0.3371 -0.9429  0.0061
  995MOL0     N37224   5.227   4.843  10.475 -0.2466  0.8674 -0.1620
  995MOL0     C37225   4.784   3.766   9.802 -0.0775  0.2118 -0.1396
  995MOL0     C37226   4.710   3.732   9.681 -0.5441 -0.1451 -0.2671
  995MOL0     C37227   4.474   3.754   9.285  0.7715 -0.1029  0.6148
  995MOL0     C37228   4.572   3.681   9.216  0.1837 -0.0917 -0.4330
  995MOL0     C37229   4.557   3.617   9.094 -1.0482 -0.1496 -1.0353
  995MOL0     C37230   4.432   3.616   9.032  0.3407 -0.3295  0.1581
  995MOL0     O37231   4.394   3.560   8.912  0.1190  0.3714 -0.2923
  995MOL0     C37232   4.490   3.478   8.847 -0.3596  0.4877  1.0832
  995MOL0     C37233   4.435   3.393   8.726 -0.2370 -0.0783  0.0332
  995MOL0     C37234   4.543   3.337   8.637 -0.3970 -0.2163  1.1777
  995MOL0     C37235   4.494   3.256   8.518  0.3917  0.8577 -0.8998
  995MOL0     C37236   4.409   3.142   8.551  0.2171  0.0321  0.1693
  995MOL0     C37237   4.349   3.041   8.580  1.0869  0.4492 -0.1878
  995MOL0     C37238   4.336   3.697   9.093  0.0856  0.3326 -0.5354
  995MOL0     C37239   4.347   3.757   9.220 -0.1638 -0.8685  0.1725
  995MOL0     C37240   4.228   3.842   9.275 -0.4725 -0.0977  0.1204
  995MOL0     H37241   4.722   4.017   9.498 -0.3731 -0.1028  0.1257
  995MOL0     H37242   4.840   4.084   9.716  0.9715 -1.0193 -4.3814
  995MOL0     H37243   4.801   4.090  10.030 -0.2728 -0.6684  0.6953
  995MOL0     H37244   4.927   4.124   9.908 -1.5191  1.4071  0.2261
  995MOL0     H37245   4.985   3.960  10.156 -3.8427  1.4926  1.5289
  995MOL0     H37246   5.089   4.060  10.057  0.1925 -2.8056  0.6650
  995MOL0     H37247   4.946   4.260  10.158  2.2330  0.2699  0.4233
  995MOL0     H37248   4.887   4.137  10.276  0.9016  7.1079  4.9267
  995MOL0     H37249   5.118   4.101  10.344 -0.9941 -0.5509  0.6826
  995MOL0     H37250   5.173   4.213  10.216  0.4085  0.8453  0.3345
  995MOL0     H37251   5.157   4.309  10.442 -0.3541 -0.1051 -0.1100
  995MOL0     H37252   4.980   4.281  10.447 -0.5864 -0.2433 -0.0322
  995MOL0     H37253   5.115   4.466  10.243 -1.9509 -0.1321 -1.6827
  995MOL0     H37254   4.942   4.457  10.265 -1.1724  0.8231  1.1119
  995MOL0     H37255   5.001   4.543  10.516  3.0464  0.7317  2.3831
  995MOL0     H37256   4.990   4.648  10.383 -1.6626 -0.8019  2.1778
  995MOL0     H37257   5.250   4.533  10.509 -2.3123  2.2106  2.4182
  995MOL0     H37258   5.241   4.606  10.348 -1.3978  2.1056 -1.2277
  995MOL0     H37259   5.142   4.664  10.733 -3.7870  2.4730 -0.1998
  995MOL0     H37260   5.085   4.876  10.882  0.6633  1.0642  1.5634
  995MOL0     H37261   5.115   5.026  10.811  1.4230 -0.2995  0.1063
  995MOL0     H37262   5.336   4.827  10.904  1.8151  1.2349  1.2241
  995MOL0     H37263   5.368   4.974  10.822  1.0355 -1.1215 -0.6364
  995MOL0     H37264   5.252   5.105  11.021 -4.2772 -1.9415  0.2915
  995MOL0     H37265   5.219   4.950  11.094 -2.8616  0.5042 -1.9187
  995MOL0     H37266   5.403   5.012  11.205  0.3333  1.5865  0.2878
  995MOL0     H37267   5.463   4.900  11.091 -0.4566  0.1296  0.9109
  995MOL0     H37268   5.679   5.261  10.940  0.8367 -0.8272 -0.6003
  995MOL0     H37269   5.851   5.389  10.887 -2.0744 -2.8966 -0.0960
  995MOL0     H37270   6.005   5.304  10.900  0.4098 -1.8906  1.8890
  995MOL0     H37271   5.952   5.413  11.023 -1.0719 -0.5159 -0.0959
  995MOL0     H37272   6.142   5.144  11.446 -0.1030 -0.5311  0.8983
  995MOL0     H37273   6.338   5.141  11.592  2.5449  1.2401 -0.6165
  995MOL0     H37274   6.493   5.105  11.710  1.7705 -2.4916  2.1946
  995MOL0     H37275   6.666   5.100  11.715  2.7867  1.3445 -3.2559
  995MOL0     H37276   6.664   5.267  11.509  0.1367  3.0790 -1.5386
  995MOL0     H37277   6.500   5.318  11.565  0.5632  3.1105  2.7115
  995MOL0     H37278   6.761   5.369  11.684 -0.7701 -2.0968 -2.6465
  995MOL0     H37279   6.634   5.343  11.805 -0.5329  0.0395 -0.2853
  995MOL0     H37280   6.497   5.518  11.708  0.2220 -1.3772 -2.2409
  995MOL0     H37281   6.599   5.540  11.569  2.3019 -4.0510 -0.6638
  995MOL0     H37282   6.776   5.648  11.713 -1.1420  0.3562 -1.6053
  995MOL0     H37283   6.615   5.718  11.738 -0.6723 -0.9769  0.5601
  995MOL0     H37284   6.766   5.666  11.947  1.9252 -1.0820  1.4907
  995MOL0     H37285   6.729   5.500  11.924 -0.7637 -0.0500  1.8699
  995MOL0     H37286   6.515   5.513  11.977 -0.7965  0.9872  0.5004
  995MOL0     H37287   6.488   5.692  11.938  1.2805  0.8416 -1.7346
  995MOL0     H37288   6.493   5.612  12.179 -1.1947  0.2249 -4.1196
  995MOL0     H37289   6.595   5.746  12.151  1.9712 -0.2156  1.1978
  995MOL0     H37290   6.549   4.891  11.311  1.1083 -0.4607  1.2859
  995MOL0     H37291   6.346   4.885  11.174  2.6300 -0.4802  0.8085
  995MOL0     H37292   5.885   4.946  11.235 -1.2103  2.8430  4.2489
  995MOL0     H37293   5.660   4.921  11.186  1.2149 -0.0312  0.5305
  995MOL0     H37294   4.800   3.690   9.877 -1.9528 -1.0159 -0.9037
  995MOL0     H37295   4.674   3.630   9.684  1.4501 -0.8688  2.0392
  995MOL0     H37296   4.674   3.687   9.254 -0.8157  1.4046  2.4046
  995MOL0     H37297   4.649   3.583   9.049 -0.3593  2.7061 -2.0201
  995MOL0     H37298   4.575   3.536   8.811 -0.5617 -1.1707 -2.4112
  995MOL0     H37299   4.535   3.409   8.919  0.3545  2.0019  2.1533
  995MOL0     H37300   4.377   3.459   8.661  0.8488  0.9676  0.0965
  995MOL0     H37301   4.374   3.315   8.774  1.8317 -1.8550 -0.0644
  995MOL0     H37302   4.608   3.416   8.597 -1.6885  0.2088 -0.1509
  995MOL0     H37303   4.593   3.274   8.712 -0.4285  0.3349  1.6627
  995MOL0     H37304   4.585   3.215   8.474 -0.7645 -2.2188 -0.7112
  995MOL0     H37305   4.441   3.317   8.445  0.2762  3.2001  1.0021
  995MOL0     H37306   4.301   2.947   8.597  1.0849  0.9709  3.4151
  995MOL0     H37307   4.235   3.706   9.054 -0.6853  1.4174  1.5596
  995MOL0     H37308   4.139   3.837   9.211 -0.0490  1.0496 -0.5951
  995MOL0     H37309   4.202   3.813   9.377 -3.0523  2.9483  0.4574
  995MOL0     H37310   4.261   3.946   9.286  0.2672 -0.4842  2.0752
  996MOL0     O37311   3.738   2.097   8.922 -0.0619  0.6895 -0.2972
  996MOL0     C37312   3.670   2.184   8.968  0.6222 -0.2140 -0.6551
  996MOL0     O37313   3.705   2.318   8.979  0.0066 -0.1036  0.5252
  996MOL0     C37314   3.807   2.380   8.914  0.1615  0.3468  0.0967
  996MOL0     C37315   3.778   2.459   8.802  1.1219 -0.3523  0.5439
  996MOL0     C37316   3.885   2.514   8.726  0.0276  0.2580 -0.2677
  996MOL0     C37317   4.020   2.477   8.758  0.4224 -0.5382  0.0224
  996MOL0     O37318   4.125   2.539   8.698 -0.3028 -0.2691  0.0066
  996MOL0     C37319   4.140   2.524   8.555  0.6478  0.4139  0.7502
  996MOL0     C37320   4.282   2.536   8.504 -0.7630  0.0332 -1.7545
  996MOL0     C37321   4.380   2.450   8.590  0.0466  0.2739 -0.1907
  996MOL0     C37322   4.506   2.426   8.510 -0.1446 -0.2937 -0.7639
  996MOL0     C37323   4.606   2.381   8.607 -0.1083 -0.0567  0.0608
  996MOL0     C37324   4.749   2.365   8.539 -0.3076  0.1025 -1.3664
  996MOL0     C37325   4.837   2.293   8.652  0.3167 -0.2969 -0.0039
  996MOL0     C37326   4.960   2.237   8.571  0.0303 -0.3316  0.5814
  996MOL0     N37327   5.057   2.338   8.538 -1.2270 -0.0759  0.7268
  996MOL0     C37328   5.159   2.374   8.624  0.6472  0.2638 -0.7404
  996MOL0     C37329   5.208   2.489   8.566 -0.3039  1.0830  0.1021
  996MOL0     C37330   5.326   2.588   8.600  0.0202 -0.2042  0.5408
  996MOL0     C37331   5.276   2.695   8.701 -0.0611 -0.2300  0.0877
  996MOL0     C37332   5.300   2.655   8.847 -0.7474  0.1036 -0.0812
  996MOL0     C37333   5.230   2.756   8.933 -0.5063  0.9956 -0.3772
  996MOL0     O37334   5.089   2.761   8.908 -0.0205 -0.0426 -0.2762
  996MOL0     C37335   5.016   2.842   8.991 -0.0638 -0.2849 -0.0387
  996MOL0     C37336   4.913   2.777   9.052  0.9879  0.0655 -0.0444
  996MOL0     C37337   4.834   2.842   9.151 -1.4726  0.3758 -0.0757
  996MOL0     C37338   4.729   2.760   9.214  0.8361  1.0535  0.2831
  996MOL0     C37339   4.850   2.975   9.191 -0.4714 -1.0025 -0.2256
  996MOL0     C37340   4.764   3.060   9.283  0.6433  0.5819 -0.4340
  996MOL0     O37341   4.809   3.177   9.320  0.7925 -0.0778  0.9162
  996MOL0     C37342   4.731   3.260   9.406 -0.4355  0.4277  0.1103
  996MOL0     C37343   4.751   3.268   9.549 -0.3835 -0.4239  0.1203
  996MOL0     C37344   4.659   3.350   9.619 -0.3872 -0.0069 -0.4445
  996MOL0     C37345   4.550   3.415   9.562 -0.3616 -1.0810  0.1808
  996MOL0     O37346   4.460   3.478   9.644 -0.1485  0.4711  0.2028
  996MOL0     C37347   4.394   3.385   9.742  0.1910 -0.1932  0.2600
  996MOL0     C37348   4.341   3.259   9.688 -0.0532  0.2505 -1.1340
  996MOL0     C37349   4.238   3.280   9.584  0.6103 -0.5229  0.0376
  996MOL0     C37350   4.196   3.146   9.515 -0.3786  0.0998  0.4107
  996MOL0     C37351   4.119   3.176   9.383 -0.4316 -0.0486 -0.4520
  996MOL0     C37352   4.195   3.249   9.266 -0.1162 -0.0365  0.2483
  996MOL0     C37353   4.326   3.186   9.220 -0.3763  1.7586 -0.5242
  996MOL0     C37354   4.372   3.223   9.081 -0.2987  0.7784 -0.1377
  996MOL0    Cl37355   4.502   3.119   9.022 -0.0573  0.4751  0.5585
  996MOL0     C37356   4.537   3.401   9.425  0.3934 -0.1880 -0.2820
  996MOL0     C37357   4.627   3.325   9.349  0.1557  0.3744 -0.2093
  996MOL0     O37358   4.657   3.009   9.320 -0.0320 -0.3266  0.1107
  996MOL0     C37359   4.959   3.038   9.118  0.4747  0.4330 -0.0881
  996MOL0     C37360   5.038   2.977   9.024 -0.0346 -0.2320  0.0567
  996MOL0     N37361   5.144   2.508   8.445  0.0242  0.0301  0.2222
  996MOL0     N37362   5.048   2.419   8.432  0.0875  0.2891  0.1844
  996MOL0     C37363   4.041   2.405   8.874  0.0017  0.6689 -0.4836
  996MOL0     C37364   3.932   2.357   8.954 -0.5623 -0.2587  0.7141
  996MOL0     C37365   3.523   2.143   8.991  0.5900 -1.3136  0.4889
  996MOL0     C37366   3.430   2.242   8.980 -0.1881  0.1254  0.8522
  996MOL0     C37367   3.293   2.211   8.977 -0.6309  0.0396  0.0209
  996MOL0     C37368   3.246   2.079   8.982 -0.4833  1.3078  0.3418
  996MOL0     O37369   3.114   2.049   8.980  0.4430  0.1033  0.1837
  996MOL0     C37370   3.073   1.916   9.018  0.0789  0.7888 -0.1797
  996MOL0     C37371   2.920   1.906   8.996  0.1940  0.3566 -0.7607
  996MOL0     C37372   2.841   1.964   9.109  0.2549 -0.8609 -0.2562
  996MOL0     C37373   2.849   1.874   9.241  0.1135  0.0389 -0.2120
  996MOL0     C37374   2.914   1.945   9.349 -0.1358 -0.1377  0.4462
  996MOL0     C37375   2.959   2.014   9.440 -0.9101 -1.0777  0.8709
  996MOL0     C37376   3.348   1.979   9.004  0.7056 -0.6031  0.1849
  996MOL0     C37377   3.484   2.009   9.012 -0.0756 -0.3376 -0.5594
  996MOL0     C37378   3.577   1.898   9.050 -0.0630 -0.4124  0.7514
  996MOL0     H37379   3.674   2.462   8.769  1.7808  0.5944 -1.5830
  996MOL0     H37380   3.880   2.577   8.639  2.5391 -0.8645 -1.3344
  996MOL0     H37381   4.090   2.602   8.497  0.4979 -0.6849 -0.6591
  996MOL0     H37382   4.097   2.432   8.513  0.7781  0.7623 -0.1503
  996MOL0     H37383   4.280   2.502   8.401 -1.5156  2.4327 -2.6039
  996MOL0     H37384   4.309   2.642   8.518 -0.1056 -0.5574  4.1065
  996MOL0     H37385   4.399   2.492   8.690  0.3730 -2.1722  0.8586
  996MOL0     H37386   4.326   2.357   8.609 -4.6051  2.4379 -1.3250
  996MOL0     H37387   4.486   2.351   8.433 -1.0611 -1.4671  0.5458
  996MOL0     H37388   4.526   2.522   8.462 -0.8865  0.2625  0.0066
  996MOL0     H37389   4.576   2.281   8.639 -3.1274  1.6501  3.1591
  996MOL0     H37390   4.610   2.449   8.693 -0.0759  0.3312 -0.2413
  996MOL0     H37391   4.740   2.299   8.452 -1.4493  1.5837 -2.4101
  996MOL0     H37392   4.794   2.461   8.515  1.3445  1.0647  4.1409
  996MOL0     H37393   4.777   2.216   8.701  2.4323 -1.7100  0.5048
  996MOL0     H37394   4.862   2.366   8.729 -0.2537  1.6092 -1.5371
  996MOL0     H37395   5.005   2.149   8.618 -1.9273 -2.1983 -0.8669
  996MOL0     H37396   4.925   2.192   8.478  0.8800  0.1286  0.0326
  996MOL0     H37397   5.174   2.327   8.721 -3.6901 -1.0765 -0.4981
  996MOL0     H37398   5.351   2.637   8.506 -2.2846 -2.3530 -1.3155
  996MOL0     H37399   5.416   2.546   8.646  1.1863  1.5561 -0.0288
  996MOL0     H37400   5.322   2.792   8.680 -0.0775 -0.4717 -1.1028
  996MOL0     H37401   5.171   2.703   8.673  0.4105  2.3016 -1.2882
  996MOL0     H37402   5.276   2.551   8.872  1.6819 -0.3488  0.5938
  996MOL0     H37403   5.408   2.657   8.863 -0.4879 -3.1560 -0.7814
  996MOL0     H37404   5.232   2.724   9.038 -6.4016  0.2439 -0.1409
  996MOL0     H37405   5.288   2.846   8.913  2.1712 -0.6861 -0.7414
  996MOL0     H37406   4.904   2.673   9.022  0.3215  0.2654 -0.5514
  996MOL0     H37407   4.737   2.788   9.320  1.3876  1.8992  0.0244
  996MOL0     H37408   4.742   2.653   9.194  1.6378  1.4632 -1.5828
  996MOL0     H37409   4.630   2.787   9.175  0.6324 -1.0881 -0.8133
  996MOL0     H37410   4.837   3.226   9.600 -1.5948  1.7542  4.3618
  996MOL0     H37411   4.678   3.342   9.726 -0.0935 -1.7602 -0.6016
  996MOL0     H37412   4.461   3.360   9.824 -2.4636 -1.5605  2.1373
  996MOL0     H37413   4.305   3.438   9.777  0.6199  2.6072 -2.4241
  996MOL0     H37414   4.429   3.211   9.645  2.4136  2.6739  0.8235
  996MOL0     H37415   4.294   3.202   9.769  2.8607 -1.9209 -0.7937
  996MOL0     H37416   4.276   3.351   9.511  0.7289  0.0879  0.6841
  996MOL0     H37417   4.147   3.326   9.621  1.2715  3.2422 -2.4732
  996MOL0     H37418   4.141   3.074   9.577  0.6395 -1.6107 -0.5882
  996MOL0     H37419   4.284   3.089   9.481 -0.8835  0.5068 -1.6958
  996MOL0     H37420   4.075   3.082   9.349 -1.8637  0.8204 -1.1091
  996MOL0     H37421   4.034   3.239   9.413 -0.0230 -0.1038  0.9045
  996MOL0     H37422   4.211   3.356   9.283  0.7937  0.4719 -3.1759
  996MOL0     H37423   4.128   3.251   9.180  0.1766  2.9596 -0.0132
  996MOL0     H37424   4.308   3.079   9.233 -1.5170  2.1412  1.3119
  996MOL0     H37425   4.404   3.206   9.294  0.4041 -0.6684 -0.6212
  996MOL0     H37426   4.404   3.327   9.072  1.2256  0.4423  1.0528
  996MOL0     H37427   4.281   3.203   9.022 -2.4463  0.5771  2.9803
  996MOL0     H37428   4.451   3.460   9.395  1.5927  1.8659  0.1114
  996MOL0     H37429   4.620   3.324   9.241 -2.0166  0.9777 -0.1201
  996MOL0     H37430   4.981   3.143   9.136  1.2251 -0.1307  2.7300
  996MOL0     H37431   5.105   3.043   8.971 -1.1284  2.4668  1.8002
  996MOL0     H37432   4.141   2.389   8.914  0.2125  0.3284 -1.1335
  996MOL0     H37433   3.953   2.299   9.043  1.6782 -0.6496 -0.0029
  996MOL0     H37434   3.452   2.347   8.963 -1.4707  0.5232  1.5007
  996MOL0     H37435   3.217   2.286   8.961 -2.3581 -1.2971  1.4338
  996MOL0     H37436   3.109   1.833   8.956 -2.6789 -0.4671 -0.2367
  996MOL0     H37437   3.107   1.890   9.119 -4.3569  0.4845  1.4518
  996MOL0     H37438   2.887   1.802   8.991 -1.2524  0.6669  1.0903
  996MOL0     H37439   2.882   1.948   8.902 -3.9767 -3.0469 -0.9052
  996MOL0     H37440   2.874   2.067   9.130  1.6373 -1.8308  2.8268
  996MOL0     H37441   2.734   1.980   9.088 -0.0209  0.8260  2.0196
  996MOL0     H37442   2.893   1.774   9.240  1.8090  0.5688  3.5613
  996MOL0     H37443   2.746   1.857   9.275  0.7319  0.2032  1.8732
  996MOL0     H37444   3.001   2.086   9.508  1.8766 -0.7097 -1.0681
  996MOL0     H37445   3.316   1.878   9.027 -3.2236  1.0915  3.3738
  996MOL0     H37446   3.611   1.843   8.962 -2.9063  0.2484 -0.8755
  996MOL0     H37447   3.665   1.928   9.108  0.8042  0.5940 -1.0199
  996MOL0     H37448   3.529   1.813   9.101  0.1594 -0.9389  0.0956
  997MOL0     O37449   1.416   4.147  10.705 -0.4826  0.4590 -0.7377
  997MOL0     C37450   1.397   4.033  10.747  0.0761  1.2175  0.8171
  997MOL0     O37451   1.399   3.995  10.877  0.3961  0.1061 -0.7207
  997MOL0     C37452   1.380   4.094  10.968  0.5420 -0.0416 -0.5610
  997MOL0     C37453   1.260   4.170  10.980 -0.0021 -0.8227 -0.4502
  997MOL0     C37454   1.260   4.269  11.083  0.8425  0.0055  0.3043
  997MOL0     C37455   1.367   4.297  11.163 -0.2190  0.9274  0.4248
  997MOL0     O37456   1.359   4.415  11.235 -0.3116  0.0123 -0.2525
  997MOL0     C37457   1.453   4.448  11.343  0.3793  0.5656  0.3962
  997MOL0     C37458   1.426   4.586  11.405 -0.8482 -0.5756 -0.2228
  997MOL0     C37459   1.286   4.591  11.471 -0.2901  0.6623 -0.4483
  997MOL0     C37460   1.286   4.721  11.545  0.1069 -0.8137 -0.7164
  997MOL0     C37461   1.164   4.777  11.619 -0.0387  0.0252  0.1699
  997MOL0     C37462   1.041   4.791  11.530 -0.2174  0.5265 -0.8625
  997MOL0     C37463   0.931   4.865  11.609 -0.8299 -0.9090 -0.6098
  997MOL0     C37464   0.813   4.895  11.521  0.3387 -0.0048 -0.5362
  997MOL0     N37465   0.720   4.976  11.600  0.0117 -0.6368  0.1981
  997MOL0     C37466   0.628   4.936  11.697 -0.4372  0.3518 -0.6918
  997MOL0     C37467   0.554   5.044  11.722  0.5856  0.5790  0.2426
  997MOL0     C37468   0.449   5.053  11.830 -0.8627 -0.6151  0.0290
  997MOL0     C37469   0.326   4.972  11.785  0.1920 -0.5818  0.0695
  997MOL0     C37470   0.233   4.901  11.891  0.3724  0.5441 -0.2469
  997MOL0     C37471   0.306   4.780  11.961 -0.0934 -0.7461  0.9841
  997MOL0     O37472   0.348   4.677  11.872 -0.2812 -0.1642  0.6738
  997MOL0     C37473   0.422   4.576  11.935  0.6336 -0.0846 -0.3455
  997MOL0     C37474   0.502   4.514  11.843  0.5380  0.6274 -0.0858
  997MOL0     C37475   0.582   4.399  11.882 -0.5172 -0.1273 -0.3766
  997MOL0     C37476   0.662   4.333  11.773 -0.2008 -0.1122 -0.8245
  997MOL0     C37477   0.589   4.354  12.021 -0.4070 -0.3431  0.5031
  997MOL0     C37478   0.660   4.234  12.060 -0.7724  0.3779  0.6244
  997MOL0     O37479   0.688   4.137  11.965 -0.5488  0.8464 -0.3542
  997MOL0     C37480   0.762   4.027  11.984  0.4274 -0.5342 -0.0934
  997MOL0     C37481   0.846   4.004  12.094 -0.4099  0.1437 -0.0055
  997MOL0     C37482   0.919   3.891  12.102  0.9003 -0.1067 -0.4107
  997MOL0     C37483   0.925   3.794  12.004 -0.0580 -0.5356  1.7406
  997MOL0     O37484   1.004   3.685  12.007 -0.1357  0.1960  0.0413
  997MOL0     C37485   1.017   3.613  12.131  0.4311 -0.4836 -0.0897
  997MOL0     C37486   1.155   3.630  12.192 -0.7069 -0.2184 -0.2491
  997MOL0     C37487   1.268   3.526  12.144  0.6009  0.2982 -0.1001
  997MOL0     C37488   1.405   3.558  12.211 -0.1896 -0.0618 -0.0686
  997MOL0     C37489   1.519   3.468  12.151 -1.4087 -0.0300 -0.8187
  997MOL0     C37490   1.664   3.502  12.197  0.1258 -0.5652  0.7527
  997MOL0     C37491   1.772   3.440  12.105  0.4526 -0.1601  0.4965
  997MOL0     C37492   1.914   3.478  12.161  0.5610  0.6721 -0.9104
  997MOL0    Cl37493   2.062   3.396  12.080 -0.4164  0.4535 -0.1370
  997MOL0     C37494   0.841   3.815  11.890  0.0578 -0.2587 -0.1410
  997MOL0     C37495   0.754   3.929  11.883 -0.8604 -0.2176  0.3465
  997MOL0     O37496   0.666   4.216  12.180 -0.3842 -1.2001 -0.0946
  997MOL0     C37497   0.514   4.439  12.113  0.0485 -0.4330  0.7244
  997MOL0     C37498   0.429   4.540  12.070  0.0034  0.3529 -0.2196
  997MOL0     N37499   0.593   5.145  11.639  0.0925  0.8100 -0.9966
  997MOL0     N37500   0.685   5.101  11.561 -0.8751  0.0550 -0.2647
  997MOL0     C37501   1.484   4.210  11.146 -0.8239 -0.0586  0.4615
  997MOL0     C37502   1.486   4.129  11.044 -0.2442  0.4731  0.5306
  997MOL0     C37503   1.387   3.916  10.646  0.5889 -0.0335  0.2210
  997MOL0     C37504   1.415   3.950  10.512 -0.6043  0.4966 -0.7461
  997MOL0     C37505   1.412   3.861  10.411  0.7596  0.1922 -0.0903
  997MOL0     C37506   1.381   3.728  10.430 -0.0090 -0.2328  0.3360
  997MOL0     O37507   1.380   3.639  10.330  0.6881 -0.4508 -0.0263
  997MOL0     C37508   1.374   3.498  10.350 -0.3884  0.5994 -0.8556
  997MOL0     C37509   1.427   3.421  10.239 -0.6016  0.2335 -0.0714
  997MOL0     C37510   1.580   3.421  10.234  0.2862 -0.6149 -0.0146
  997MOL0     C37511   1.638   3.332  10.125  0.7901  0.6322 -0.1522
  997MOL0     C37512   1.625   3.187  10.146 -0.5634  0.4966 -0.6222
  997MOL0     C37513   1.603   3.071  10.176 -0.4221 -0.2845  0.1221
  997MOL0     C37514   1.340   3.694  10.561  0.1219 -0.4295 -0.9538
  997MOL0     C37515   1.346   3.788  10.671  0.3409  0.3540 -0.8337
  997MOL0     C37516   1.309   3.731  10.803  0.4494  0.7498 -0.0188
  997MOL0     H37517   1.172   4.158  10.918 -0.2466  1.0716 -0.5394
  997MOL0     H37518   1.167   4.325  11.088 -0.3341 -2.0161  3.0063
  997MOL0     H37519   1.558   4.439  11.313  0.7477 -1.4379  2.0390
  997MOL0     H37520   1.429   4.373  11.419 -1.1799  1.9239  1.2987
  997MOL0     H37521   1.500   4.608  11.482 -0.6707 -0.7299 -0.3511
  997MOL0     H37522   1.434   4.665  11.329  2.2915 -0.8862 -0.3458
  997MOL0     H37523   1.204   4.574  11.401  0.2737 -3.1758 -0.3972
  997MOL0     H37524   1.276   4.514  11.549  0.2000  1.7580  0.7368
  997MOL0     H37525   1.369   4.722  11.616 -0.0271 -1.5902 -0.5353
  997MOL0     H37526   1.304   4.793  11.465 -1.1835 -0.3474 -0.6169
  997MOL0     H37527   1.184   4.877  11.659  1.4749 -1.0002  2.1350
  997MOL0     H37528   1.141   4.714  11.705  2.2326 -1.4058 -0.1850
  997MOL0     H37529   1.072   4.853  11.446  1.6173 -3.0941 -3.0897
  997MOL0     H37530   1.004   4.696  11.492  0.2385  1.0019 -2.5686
  997MOL0     H37531   0.981   4.960  11.633  2.1127 -2.9476  2.2112
  997MOL0     H37532   0.916   4.816  11.706  2.1908 -1.7149 -0.4530
  997MOL0     H37533   0.836   4.948  11.427 -0.0526  2.3859  0.6404
  997MOL0     H37534   0.760   4.804  11.492  3.1523 -1.8415 -0.3023
  997MOL0     H37535   0.631   4.843  11.753  2.9630  1.2335  0.8169
  997MOL0     H37536   0.418   5.156  11.850  1.8284  1.0142 -3.2747
  997MOL0     H37537   0.499   5.024  11.923 -1.6639 -0.3018  0.5733
  997MOL0     H37538   0.269   5.041  11.722  0.3160 -1.9412 -1.6042
  997MOL0     H37539   0.361   4.900  11.710 -0.9838 -1.9246  0.7884
  997MOL0     H37540   0.182   4.963  11.965  1.2727  0.5670  0.3641
  997MOL0     H37541   0.145   4.853  11.847  0.3700  1.5251 -1.3608
  997MOL0     H37542   0.381   4.822  12.028  2.2886 -1.6961 -0.9204
  997MOL0     H37543   0.232   4.732  12.025  1.3689 -1.8507  1.9034
  997MOL0     H37544   0.495   4.547  11.740  4.7061  1.7589 -0.1841
  997MOL0     H37545   0.613   4.237  11.753 -1.4852  0.4114 -0.2446
  997MOL0     H37546   0.764   4.316  11.809 -0.1558  1.7685  0.0417
  997MOL0     H37547   0.655   4.391  11.681 -0.6882 -1.5587 -1.7373
  997MOL0     H37548   0.860   4.074  12.176  0.2245 -2.0935  1.9044
  997MOL0     H37549   0.975   3.884  12.194 -1.2037  2.2599  1.1823
  997MOL0     H37550   0.936   3.641  12.199 -0.3531  2.4093 -2.0037
  997MOL0     H37551   1.016   3.506  12.111  1.0920 -0.4883 -0.0998
  997MOL0     H37552   1.188   3.734  12.190  0.4202 -0.4820  1.9781
  997MOL0     H37553   1.144   3.599  12.296 -0.0132 -4.2437 -1.1813
  997MOL0     H37554   1.272   3.535  12.035  0.1517  0.1139 -0.1336
  997MOL0     H37555   1.246   3.425  12.180  2.7029  0.1496  0.9402
  997MOL0     H37556   1.387   3.540  12.317 -0.6016  0.3059 -0.0718
  997MOL0     H37557   1.426   3.665  12.201 -1.8784  0.1238 -2.4945
  997MOL0     H37558   1.498   3.365  12.181  2.3837 -0.5519  0.5685
  997MOL0     H37559   1.520   3.464  12.042  2.2060  0.6006 -0.9151
  997MOL0     H37560   1.675   3.489  12.305  2.4225  3.7507  1.2630
  997MOL0     H37561   1.681   3.610  12.202  2.4428 -0.8383 -0.2154
  997MOL0     H37562   1.766   3.485  12.006  2.0377 -0.9675 -0.0097
  997MOL0     H37563   1.755   3.332  12.097 -3.0168  0.4056 -1.1525
  997MOL0     H37564   1.924   3.456  12.267  2.6988  0.7319 -1.0583
  997MOL0     H37565   1.921   3.587  12.160 -0.8429  0.7831 -1.4427
  997MOL0     H37566   0.860   3.745  11.810 -0.9192 -0.1194 -0.5191
  997MOL0     H37567   0.691   3.943  11.795 -1.0167 -1.4203  0.2529
  997MOL0     H37568   0.506   4.433  12.221 -0.2378  0.7896  0.7878
  997MOL0     H37569   0.389   4.610  12.143  1.0052  3.2543 -2.2623
  997MOL0     H37570   1.584   4.216  11.188 -1.3394 -2.3069  2.2325
  997MOL0     H37571   1.572   4.070  11.011  1.1384  1.6614  1.8246
  997MOL0     H37572   1.430   4.055  10.489 -0.3685  0.5006 -0.5755
  997MOL0     H37573   1.424   3.892  10.308  3.7566 -3.9078 -1.2216
  997MOL0     H37574   1.428   3.475  10.443 -2.0321 -0.9539 -0.2220
  997MOL0     H37575   1.275   3.456  10.371 -0.2787  0.6483 -0.1966
  997MOL0     H37576   1.379   3.465  10.151  1.2915 -0.8346 -1.7021
  997MOL0     H37577   1.396   3.316  10.236  1.4912 -0.4113 -1.8585
  997MOL0     H37578   1.618   3.523  10.223 -1.0876 -0.1019 -0.2206
  997MOL0     H37579   1.609   3.382  10.332 -0.5907  0.1807  0.5802
  997MOL0     H37580   1.739   3.371  10.106  0.8044  0.7425  0.1489
  997MOL0     H37581   1.591   3.351  10.028  0.4242  2.2634  0.3128
  997MOL0     H37582   1.597   2.965  10.195 -0.9095 -0.1352  0.8475
  997MOL0     H37583   1.292   3.598  10.578  1.1113 -0.6287  0.9988
  997MOL0     H37584   1.390   3.665  10.838 -1.2191 -1.5067 -0.1572
  997MOL0     H37585   1.280   3.805  10.878  0.4481 -0.5856  1.3600
  997MOL0     H37586   1.227   3.663  10.778  0.3911  1.5735 -2.2862
  998MOL0     O37587   2.697   8.340   9.242 -0.7444 -0.0552 -0.6170
  998MOL0     C37588   2.724   8.237   9.310  0.2793 -0.8001 -0.2259
  998MOL0     O37589   2.833   8.161   9.298 -0.3298  0.3581 -0.2006
  998MOL0     C37590   2.955   8.197   9.254 -0.2308  0.7823  0.1745
  998MOL0     C37591   3.004   8.327   9.236  0.4059  0.4791  0.8972
  998MOL0     C37592   3.132   8.346   9.191  0.8090 -0.1492  0.6956
  998MOL0     C37593   3.219   8.236   9.157 -0.1050 -0.5589 -0.5164
  998MOL0     O37594   3.350   8.242   9.112 -0.7863 -0.2537  0.6048
  998MOL0     C37595   3.384   8.343   9.016  0.9277  0.2643 -0.0931
  998MOL0     C37596   3.533   8.316   8.979  0.2402 -0.3547  0.1528
  998MOL0     C37597   3.557   8.192   8.902  0.4464 -0.0295 -0.5785
  998MOL0     C37598   3.711   8.179   8.874 -0.1879  0.7503 -0.8414
  998MOL0     C37599   3.726   8.043   8.793 -0.2308  0.1057  0.5717
  998MOL0     C37600   3.866   7.980   8.799 -0.3242 -0.2949  0.1159
  998MOL0     C37601   3.884   7.881   8.680 -0.1812  0.6778 -0.8475
  998MOL0     C37602   4.008   7.797   8.681 -0.4501 -0.4363  0.2106
  998MOL0     N37603   4.138   7.866   8.674 -0.2274 -0.0808 -0.5278
  998MOL0     C37604   4.187   7.955   8.573  0.0620  0.2045 -0.5209
  998MOL0     C37605   4.319   7.955   8.593 -1.3116  0.4460 -0.6240
  998MOL0     C37606   4.433   8.019   8.509 -0.5866 -0.8111 -0.6869
  998MOL0     C37607   4.513   7.907   8.445  0.0606  0.0262 -0.5480
  998MOL0     C37608   4.647   7.962   8.388 -0.3705  1.1093  0.0568
  998MOL0     C37609   4.705   7.862   8.285  0.1443  0.2643 -0.7122
  998MOL0     O37610   4.811   7.914   8.207  0.5898  0.3038  0.5028
  998MOL0     C37611   4.938   7.888   8.236 -0.0925 -0.8581  0.4358
  998MOL0     C37612   4.996   7.828   8.349  0.6001  0.6030  0.2603
  998MOL0     C37613   5.127   7.786   8.366  0.0465  0.0135  1.1135
  998MOL0     C37614   5.154   7.721   8.501  0.5832  0.0338 -0.3810
  998MOL0     C37615   5.216   7.805   8.254  0.0139  0.0961 -0.4247
  998MOL0     C37616   5.368   7.774   8.263  0.1059  0.5424 -0.4748
  998MOL0     O37617   5.442   7.793   8.147  0.1091  0.1382 -0.1533
  998MOL0     C37618   5.583   7.780   8.146 -0.2526  0.4537 -0.6355
  998MOL0     C37619   5.667   7.869   8.076  0.6226 -0.3041 -0.6880
  998MOL0     C37620   5.806   7.862   8.058 -0.3495 -0.5571  0.3358
  998MOL0     C37621   5.870   7.760   8.126  0.0194  0.1328  0.8158
  998MOL0     O37622   6.010   7.760   8.112  0.3721  0.0923  0.1013
  998MOL0     C37623   6.078   7.670   8.207  0.0772  0.6182  0.2846
  998MOL0     C37624   6.091   7.734   8.336  0.1203 -1.3161 -1.0637
  998MOL0     C37625   6.177   7.866   8.338  0.6645 -0.6489 -0.2676
  998MOL0     C37626   6.285   7.861   8.447  0.4114 -0.1060  0.3747
  998MOL0     C37627   6.387   7.969   8.432  0.5497  0.4520  0.2634
  998MOL0     C37628   6.466   7.987   8.555 -0.6335 -1.0459 -0.4194
  998MOL0     C37629   6.525   7.855   8.616  0.1240 -0.2062  0.2397
  998MOL0     C37630   6.645   7.900   8.703 -0.6672 -0.2733 -0.3375
  998MOL0    Cl37631   6.741   7.765   8.765 -0.0811 -0.0209  0.0255
  998MOL0     C37632   5.792   7.663   8.201  0.3327  0.4551  0.0240
  998MOL0     C37633   5.657   7.675   8.208 -0.5201  0.1869 -0.6016
  998MOL0     O37634   5.418   7.732   8.367 -0.6697  0.3584  0.4546
  998MOL0     C37635   5.173   7.878   8.138 -0.5857 -0.2433 -0.5593
  998MOL0     C37636   5.032   7.921   8.134  0.1227 -0.0302 -0.1037
  998MOL0     N37637   4.349   7.872   8.701  0.8017 -0.2381  0.0049
  998MOL0     N37638   4.247   7.815   8.745  0.1094 -0.0740  0.4692
  998MOL0     C37639   3.167   8.109   9.186  0.5173  0.5346  0.0637
  998MOL0     C37640   3.041   8.085   9.233 -0.5955  0.9425 -0.7262
  998MOL0     C37641   2.629   8.196   9.410 -0.1382  0.0886  0.5420
  998MOL0     C37642   2.545   8.074   9.385 -0.1253  0.2975  0.1373
  998MOL0     C37643   2.457   8.040   9.481  0.3679  0.5943 -0.3123
  998MOL0     C37644   2.453   8.099   9.607  0.3314  0.3481  0.1338
  998MOL0     O37645   2.375   8.057   9.711 -0.3304 -0.2702  0.7753
  998MOL0     C37646   2.264   7.969   9.691  0.6829 -0.5819 -0.5911
  998MOL0     C37647   2.193   7.949   9.837 -0.0140 -0.4917 -0.8166
  998MOL0     C37648   2.111   8.057   9.892  0.2312 -0.4167  0.0038
  998MOL0     C37649   2.034   8.005  10.013  0.5505 -0.9770  0.3847
  998MOL0     C37650   1.927   8.098  10.060 -0.4438 -0.4956  0.8754
  998MOL0     C37651   1.840   8.176  10.092 -0.2441  0.1155  0.3903
  998MOL0     C37652   2.532   8.208   9.625  0.7553  0.4806  0.2212
  998MOL0     C37653   2.617   8.262   9.531  0.6311 -0.5110  1.0188
  998MOL0     C37654   2.695   8.391   9.559  0.2304 -0.2080  0.1732
  998MOL0     H37655   2.933   8.409   9.241  1.1773  1.1312  1.2573
  998MOL0     H37656   3.159   8.449   9.171  0.7258  0.2683  2.5093
  998MOL0     H37657   3.380   8.443   9.062 -0.5259 -0.7088  2.0702
  998MOL0     H37658   3.321   8.345   8.927  1.9207 -0.7753 -0.8449
  998MOL0     H37659   3.572   8.401   8.923  0.4620 -1.2849 -1.1416
  998MOL0     H37660   3.590   8.299   9.071 -0.0661 -1.5319  0.1440
  998MOL0     H37661   3.514   8.116   8.968 -1.6374  2.5514  1.2174
  998MOL0     H37662   3.504   8.205   8.807  0.0463  3.3926  0.0154
  998MOL0     H37663   3.746   8.270   8.824 -0.1585  1.3477  0.2564
  998MOL0     H37664   3.762   8.179   8.970 -1.6655  0.2690 -0.0265
  998MOL0     H37665   3.708   8.058   8.686  0.4353  1.2917  0.6033
  998MOL0     H37666   3.652   7.970   8.826 -1.9123  1.2615 -0.4900
  998MOL0     H37667   3.941   8.055   8.773 -1.3460  0.4582 -0.7464
  998MOL0     H37668   3.875   7.930   8.896  0.8403 -1.8753 -0.7583
  998MOL0     H37669   3.884   7.950   8.595  0.0806  0.4370 -1.0437
  998MOL0     H37670   3.795   7.819   8.666 -0.5337  1.1461 -0.7108
  998MOL0     H37671   4.008   7.725   8.763 -0.9811 -1.5902 -0.7714
  998MOL0     H37672   4.005   7.730   8.595 -0.2823 -1.0348  0.6580
  998MOL0     H37673   4.136   7.988   8.483  0.3242 -1.2328 -1.2243
  998MOL0     H37674   4.482   8.094   8.572 -2.1380  0.7376 -1.2586
  998MOL0     H37675   4.388   8.080   8.431  1.5805  0.5719 -0.9266
  998MOL0     H37676   4.542   7.827   8.515 -0.6442  0.1993 -0.0460
  998MOL0     H37677   4.456   7.865   8.362 -0.0289 -2.0139  0.4747
  998MOL0     H37678   4.630   8.054   8.331  0.7294  0.1610 -1.9234
  998MOL0     H37679   4.717   7.985   8.469  0.0011  4.3280 -1.0191
  998MOL0     H37680   4.740   7.771   8.336 -2.3696  0.3872  1.4158
  998MOL0     H37681   4.627   7.833   8.213 -1.9587  0.6150  1.3131
  998MOL0     H37682   4.923   7.815   8.429 -0.7417  1.8292 -0.7173
  998MOL0     H37683   5.186   7.616   8.503  0.4027 -0.1008 -2.4447
  998MOL0     H37684   5.059   7.718   8.555  0.8720  1.0264  0.2119
  998MOL0     H37685   5.217   7.785   8.564 -2.0526  4.1006 -1.4489
  998MOL0     H37686   5.616   7.947   8.021  1.3612  0.6626 -0.0252
  998MOL0     H37687   5.872   7.937   8.017 -0.2560  0.4121  2.1399
  998MOL0     H37688   6.035   7.570   8.214  0.1221  0.6041  0.3556
  998MOL0     H37689   6.182   7.657   8.175  0.4398 -1.0634  1.9975
  998MOL0     H37690   5.991   7.756   8.376  0.8897  1.6540 -0.4777
  998MOL0     H37691   6.136   7.656   8.398 -1.1980 -1.2714 -0.0003
  998MOL0     H37692   6.133   7.965   8.341  0.0919 -0.8589 -1.2599
  998MOL0     H37693   6.239   7.859   8.248 -0.6491  0.6093 -1.3138
  998MOL0     H37694   6.326   7.760   8.460  2.5992  0.9085  2.1160
  998MOL0     H37695   6.238   7.887   8.542  4.2593  2.5743  1.7782
  998MOL0     H37696   6.453   7.934   8.352  2.8084 -0.7427  2.4933
  998MOL0     H37697   6.338   8.062   8.399  0.2080  1.0551  2.3229
  998MOL0     H37698   6.414   8.052   8.626  3.1399 -0.4042  2.0570
  998MOL0     H37699   6.554   8.047   8.529  0.0462 -0.5502  2.6606
  998MOL0     H37700   6.576   7.811   8.530  1.1264 -0.3530  0.8866
  998MOL0     H37701   6.462   7.784   8.671  1.6698 -1.2807  0.6861
  998MOL0     H37702   6.607   7.953   8.791  1.9194 -0.1687  0.8052
  998MOL0     H37703   6.713   7.973   8.659 -0.4822 -0.9623 -1.2170
  998MOL0     H37704   5.843   7.577   8.243  1.0331  0.7834 -0.1396
  998MOL0     H37705   5.615   7.589   8.260  1.1811 -1.0404 -1.1279
  998MOL0     H37706   5.232   7.912   8.054 -0.6732  1.7259  0.1245
  998MOL0     H37707   4.995   7.978   8.049 -3.4147  0.0225  1.3473
  998MOL0     H37708   3.241   8.030   9.181 -0.3099 -0.4224  1.8493
  998MOL0     H37709   3.008   7.981   9.235 -1.1463  1.1067  1.2160
  998MOL0     H37710   2.540   8.038   9.283  0.2875  1.5629 -0.3475
  998MOL0     H37711   2.392   7.957   9.456 -0.6898  0.7722  1.6350
  998MOL0     H37712   2.199   8.024   9.622  0.1138 -1.1332 -0.5129
  998MOL0     H37713   2.297   7.872   9.652  1.4293 -0.2874 -0.7016
  998MOL0     H37714   2.268   7.930   9.915  0.1926 -0.2626 -0.9552
  998MOL0     H37715   2.134   7.857   9.830 -0.6468 -0.1288 -0.3143
  998MOL0     H37716   2.178   8.137   9.924 -0.8347  0.1746  0.8186
  998MOL0     H37717   2.039   8.102   9.823 -0.8266 -2.2473 -0.1299
  998MOL0     H37718   2.098   8.002  10.102 -0.7855  1.9335  1.6033
  998MOL0     H37719   2.004   7.902   9.995  1.0664 -1.0147 -0.2948
  998MOL0     H37720   1.769   8.254  10.112  2.2527  2.0404  2.3784
  998MOL0     H37721   2.513   8.259   9.719  0.6432  0.5881  0.1406
  998MOL0     H37722   2.803   8.377   9.572  0.5584  0.4836 -1.4954
  998MOL0     H37723   2.690   8.461   9.475 -0.1615 -0.9293 -0.4093
  998MOL0     H37724   2.670   8.440   9.654 -0.4146  1.2091 -0.6878
  999MOL0     O37725   5.579   9.226   4.078  0.1422 -0.4602  0.0589
  999MOL0     C37726   5.462   9.221   4.108  0.2040  0.5184 -0.5451
  999MOL0     O37727   5.401   9.288   4.224  1.0253  0.6366 -0.6164
  999MOL0     C37728   5.487   9.359   4.297  0.1369  0.7213 -1.0142
  999MOL0     C37729   5.577   9.304   4.391  0.4639 -0.5138  0.7186
  999MOL0     C37730   5.650   9.392   4.468  0.0044  0.2649  0.6633
  999MOL0     C37731   5.638   9.535   4.455  0.4592  0.3912  0.5112
  999MOL0     O37732   5.695   9.628   4.530 -0.8592  0.2980  0.8491
  999MOL0     C37733   5.797   9.596   4.623 -0.0957 -0.4472  0.0070
  999MOL0     C37734   5.887   9.717   4.644 -0.1118 -0.8298 -0.6000
  999MOL0     C37735   5.830   9.820   4.729 -0.2036  0.5331  0.1897
  999MOL0     C37736   5.895   9.955   4.697 -0.5683  0.3733 -0.0504
  999MOL0     C37737   5.842  10.061   4.781  0.6558  0.3696  0.2589
  999MOL0     C37738   5.927  10.188   4.775 -0.0002 -0.1872  0.2246
  999MOL0     C37739   6.057  10.185   4.859  0.2690  0.1583 -0.0887
  999MOL0     C37740   6.105  10.324   4.901  0.5942  0.0545  0.7649
  999MOL0     N37741   6.174  10.408   4.794  1.3013  0.2326 -0.4731
  999MOL0     C37742   6.145  10.537   4.754  0.5128  0.2564 -0.3117
  999MOL0     C37743   6.258  10.574   4.680 -0.7015  0.0345  0.4830
  999MOL0     C37744   6.261  10.696   4.594  0.2416 -0.1665 -0.8441
  999MOL0     C37745   6.395  10.719   4.529  0.1945  0.1151 -0.0708
  999MOL0     C37746   6.398  10.856   4.463  0.8829 -0.0076  0.3111
  999MOL0     C37747   6.533  10.886   4.386  0.2784  0.4142 -0.7825
  999MOL0     O37748   6.632  10.916   4.481 -0.5298 -0.3852  0.2944
  999MOL0     C37749   6.766  10.933   4.441  0.4745  0.6253 -0.0637
  999MOL0     C37750   6.797  10.998   4.318 -0.0337 -0.6533 -0.0455
  999MOL0     C37751   6.929  11.037   4.283 -0.4449  0.2173 -0.6059
  999MOL0     C37752   6.931  11.135   4.163  0.7027  0.1832 -0.0603
  999MOL0     C37753   7.041  10.974   4.349  0.8721  0.2126 -0.5321
  999MOL0     C37754   7.180  10.993   4.305 -0.2321  0.5069  0.7603
  999MOL0     O37755   7.207  10.998   4.168  0.2286  0.1164 -0.1376
  999MOL0     C37756   7.323  11.056   4.113  0.2829 -1.2905 -0.8004
  999MOL0     C37757   7.355  11.021   3.983 -0.5011  0.1548  0.2803
  999MOL0     C37758   7.468  11.075   3.924  0.2449  0.2103  0.2741
  999MOL0     C37759   7.541  11.175   3.987  0.1034 -0.1904 -0.2390
  999MOL0     O37760   7.654  11.234   3.942 -0.1215 -0.4666 -0.0610
  999MOL0     C37761   7.749  11.140   3.891  0.5691 -0.0078 -0.1867
  999MOL0     C37762   7.782  11.016   3.980  0.6267  0.1965 -0.4311
  999MOL0     C37763   7.886  10.922   3.930  0.2579 -0.0589  0.0356
  999MOL0     C37764   7.832  10.832   3.822  0.1055  0.1232  0.3918
  999MOL0     C37765   7.920  10.708   3.794  0.2095 -0.9170 -0.5388
  999MOL0     C37766   8.059  10.736   3.732  0.1451  0.3036 -0.4188
  999MOL0     C37767   8.064  10.837   3.619  0.8049  0.6123  0.5091
  999MOL0     C37768   8.197  10.832   3.544 -0.8101  0.0861  0.2716
  999MOL0    Cl37769   8.326  10.911   3.639  0.0816 -0.0390  0.0863
  999MOL0     C37770   7.504  11.215   4.117 -0.3394  0.5106 -0.1082
  999MOL0     C37771   7.400  11.153   4.177  0.6803  0.5003 -0.2106
  999MOL0     O37772   7.265  10.983   4.393  0.9355 -0.4908 -0.0125
  999MOL0     C37773   7.010  10.886   4.459 -0.3227 -0.9066  0.5666
  999MOL0     C37774   6.880  10.881   4.513  0.2979 -0.3522 -0.2107
  999MOL0     N37775   6.347  10.468   4.674  0.2308  0.0385  0.1584
  999MOL0     N37776   6.298  10.373   4.744 -0.0570 -0.6329 -0.3729
  999MOL0     C37777   5.555   9.586   4.356 -0.6726  0.6462 -0.0571
  999MOL0     C37778   5.478   9.497   4.280 -0.1589  0.7637 -0.1220
  999MOL0     C37779   5.362   9.174   4.013 -1.0579 -0.4531  0.2221
  999MOL0     C37780   5.234   9.128   4.059  0.4807  0.5083  0.6395
  999MOL0     C37781   5.154   9.069   3.966  0.7492  0.2043  0.1364
  999MOL0     C37782   5.188   9.048   3.832 -0.1874  0.9245  0.1389
  999MOL0     O37783   5.087   8.998   3.760 -0.1340  0.0374  0.2521
  999MOL0     C37784   5.077   9.049   3.624  0.7799  0.0393  0.5308
  999MOL0     C37785   4.949   8.982   3.571  0.2675  0.5569  0.0211
  999MOL0     C37786   4.820   8.996   3.656  0.4523 -0.9204  0.9671
  999MOL0     C37787   4.696   8.950   3.579  0.1768 -0.5441  0.3316
  999MOL0     C37788   4.688   8.810   3.554 -0.2451 -0.5383 -0.3804
  999MOL0     C37789   4.674   8.692   3.564  0.3287 -1.0028  0.0137
  999MOL0     C37790   5.311   9.089   3.784  0.0114  0.6195  0.7754
  999MOL0     C37791   5.399   9.148   3.871  0.6391 -0.3688 -0.0552
  999MOL0     C37792   5.539   9.189   3.823  0.0735  0.0642 -0.1515
  999MOL0     H37793   5.580   9.196   4.398 -1.9528 -0.5147  3.0751
  999MOL0     H37794   5.719   9.347   4.539 -0.5351 -0.5039  0.7136
  999MOL0     H37795   5.863   9.514   4.593  2.7872  1.9892 -0.8827
  999MOL0     H37796   5.746   9.571   4.716 -0.1710  1.2516  0.4610
  999MOL0     H37797   5.988   9.691   4.677  0.8065  4.5386  1.8408
  999MOL0     H37798   5.899   9.759   4.544 -3.6405 -0.3360 -0.9634
  999MOL0     H37799   5.725   9.841   4.707  0.5895  3.1303 -1.6448
  999MOL0     H37800   5.836   9.784   4.832 -1.2325  0.3194  0.1799
  999MOL0     H37801   6.000   9.943   4.726 -1.6537 -1.8955  3.5622
  999MOL0     H37802   5.892   9.980   4.590 -2.0397  1.4940  0.2074
  999MOL0     H37803   5.835  10.027   4.885 -1.5416  1.1241  0.4143
  999MOL0     H37804   5.742  10.074   4.737 -0.2205 -1.3721  1.5978
  999MOL0     H37805   5.962  10.217   4.676  0.5895 -0.9038  0.2163
  999MOL0     H37806   5.874  10.271   4.823  0.8972 -1.1814  3.1605
  999MOL0     H37807   6.145  10.142   4.811  1.9678  2.2434  1.0092
  999MOL0     H37808   6.039  10.123   4.947  0.1048 -0.2638 -0.4174
  999MOL0     H37809   6.028  10.381   4.953  0.5454 -1.0156  1.9063
  999MOL0     H37810   6.181  10.309   4.979 -1.4050 -0.7066  2.6575
  999MOL0     H37811   6.058  10.601   4.766  2.1631  2.5072  0.3727
  999MOL0     H37812   6.221  10.783   4.647 -3.8381  0.5503 -4.5485
  999MOL0     H37813   6.194  10.673   4.511 -0.5494  1.1096 -0.5796
  999MOL0     H37814   6.471  10.710   4.607 -0.7078  2.6873  1.2058
  999MOL0     H37815   6.409  10.647   4.448  0.2925 -0.0573  0.0965
  999MOL0     H37816   6.323  10.853   4.383  0.8951 -0.6532  0.3150
  999MOL0     H37817   6.369  10.934   4.534 -0.4787  0.0796 -0.2915
  999MOL0     H37818   6.548  10.796   4.326 -0.5275  1.6048 -2.8820
  999MOL0     H37819   6.522  10.979   4.329  2.0605  2.2100  1.5977
  999MOL0     H37820   6.717  11.054   4.270  1.0679  0.9275 -0.0974
  999MOL0     H37821   6.998  11.220   4.177  1.2153 -0.4100  1.2904
  999MOL0     H37822   6.830  11.176   4.161 -1.0846 -3.6645  1.5187
  999MOL0     H37823   6.933  11.076   4.071 -2.2272 -0.3275  0.1065
  999MOL0     H37824   7.296  10.936   3.949 -1.4660  2.1360 -3.6121
  999MOL0     H37825   7.510  11.042   3.830 -0.1395  2.1984 -0.6587
  999MOL0     H37826   7.711  11.110   3.792  3.2017  0.5748 -1.4727
  999MOL0     H37827   7.848  11.181   3.868  0.8912 -0.3424  0.5662
  999MOL0     H37828   7.822  11.055   4.074 -1.3406 -1.7797  1.3540
  999MOL0     H37829   7.698  10.953   4.008  2.4166 -2.7664 -1.2922
  999MOL0     H37830   7.917  10.869   4.021  0.3232  2.9415  1.8680
  999MOL0     H37831   7.970  10.978   3.886  0.3226 -0.1293  0.0683
  999MOL0     H37832   7.826  10.893   3.731  0.2047  1.9522  1.5484
  999MOL0     H37833   7.731  10.800   3.846  0.8770 -2.1860  0.7736
  999MOL0     H37834   7.932  10.649   3.885  0.2944 -0.7788 -0.4613
  999MOL0     H37835   7.869  10.644   3.720  0.1587  0.4027 -1.6824
  999MOL0     H37836   8.105  10.646   3.690 -1.2216 -0.6226 -0.0044
  999MOL0     H37837   8.126  10.769   3.813  1.0548  0.5009 -1.2348
  999MOL0     H37838   8.058  10.933   3.672  2.1589 -0.2310  2.2728
  999MOL0     H37839   7.972  10.805   3.569 -0.0465  0.0479  2.3446
  999MOL0     H37840   8.177  10.892   3.455  1.7428  0.1172 -0.3710
  999MOL0     H37841   8.217  10.727   3.524 -4.2505 -0.6884  0.3030
  999MOL0     H37842   7.558  11.297   4.163 -0.7646 -1.0067  3.3791
  999MOL0     H37843   7.363  11.189   4.272 -0.2472  3.5953 -1.6147
  999MOL0     H37844   7.092  10.824   4.494  0.7149 -1.1907 -2.0851
  999MOL0     H37845   6.879  10.840   4.613  0.3636 -0.3369 -0.2034
  999MOL0     H37846   5.546   9.690   4.328  0.5657  1.3293  1.8848
  999MOL0     H37847   5.417   9.524   4.194  1.3624 -1.1822 -1.9294
  999MOL0     H37848   5.212   9.120   4.165  1.0085 -2.3683  0.6081
  999MOL0     H37849   5.057   9.040   4.006 -0.5849  3.6446 -0.2696
  999MOL0     H37850   5.060   9.157   3.626 -0.9389 -0.1361 -1.2571
  999MOL0     H37851   5.170   9.020   3.573  0.9155 -1.3773  1.5182
  999MOL0     H37852   4.971   8.875   3.580  1.0649  0.7528  0.5186
  999MOL0     H37853   4.927   9.004   3.467 -0.8348 -0.5813 -0.0014
  999MOL0     H37854   4.829   8.935   3.746 -2.8933  1.5414  3.1852
  999MOL0     H37855   4.809   9.101   3.684 -0.5015 -0.3860 -1.1701
  999MOL0     H37856   4.707   8.991   3.479 -1.1106 -0.5311  0.1811
  999MOL0     H37857   4.601   8.995   3.611 -0.9878 -0.6056 -2.7720
  999MOL0     H37858   4.666   8.585   3.576 -0.5361 -1.1875 -1.8548
  999MOL0     H37859   5.340   9.072   3.681 -0.7166 -0.1968  0.7007
  999MOL0     H37860   5.592   9.101   3.860 -2.9368 -1.9230 -0.3000
  999MOL0     H37861   5.541   9.187   3.714 -1.5855  0.6621 -0.2183
  999MOL0     H37862   5.574   9.287   3.858 -0.5797 -0.4694  2.2138
 1000MOL0     O37863  10.211   2.653   2.169  0.1600 -0.3278 -0.1915
 1000MOL0     C37864  10.095   2.679   2.156  0.5819 -0.2424 -0.0469
 1000MOL0     O37865  10.037   2.803   2.180 -0.5134 -0.6606 -0.2251
 1000MOL0     C37866  10.124   2.912   2.196  0.2064 -0.2710 -0.5861
 1000MOL0     C37867  10.215   2.913   2.301 -1.1796  0.1212 -0.2660
 1000MOL0     C37868  10.316   3.009   2.318 -1.1921 -0.5197 -0.0559
 1000MOL0     C37869  10.296   3.125   2.252 -0.4963  0.3568  0.7073
 1000MOL0     O37870  10.384   3.226   2.290 -0.2934 -0.4186  0.5899
 1000MOL0     C37871  10.433   3.304   2.183  0.0192 -0.1582 -0.0805
 1000MOL0     C37872  10.560   3.368   2.231  0.0021 -0.5534 -0.0978
 1000MOL0     C37873  10.620   3.475   2.140  0.4300 -0.0881 -0.9523
 1000MOL0     C37874  10.771   3.486   2.159  0.4111  0.2484  0.0380
 1000MOL0     C37875  10.838   3.585   2.068  0.0399 -0.3146 -0.2965
 1000MOL0     C37876  10.793   3.729   2.097  0.0647  0.0099  0.7337
 1000MOL0     C37877  10.863   3.829   2.005  0.0500  0.3104  0.0963
 1000MOL0     C37878  11.024   3.816   2.013  0.0460  0.4969 -0.3995
 1000MOL0     N37879  11.083   3.931   1.950  0.2373 -0.1861  0.3374
 1000MOL0     C37880  11.049   4.058   1.982  0.0822 -0.0203 -1.0342
 1000MOL0     C37881  11.096   4.135   1.879 -0.6433  0.1282 -0.3246
 1000MOL0     C37882  11.100   4.279   1.903 -0.1774 -0.0823  0.1127
 1000MOL0     C37883  11.239   4.316   1.916 -0.3741 -0.2263 -0.0046
 1000MOL0     C37884  11.286   4.254   2.053  0.4834 -1.2227 -0.2212
 1000MOL0     C37885  11.412   4.321   2.102 -0.5767  0.8572  0.2661
 1000MOL0     O37886  11.507   4.338   1.999  0.2844  0.4731  0.6353
 1000MOL0     C37887  11.636   4.371   2.028  0.0704  0.4559 -0.6723
 1000MOL0     C37888  11.744   4.314   1.955 -0.2143 -1.0886  0.2630
 1000MOL0     C37889  11.876   4.317   1.999 -0.3211 -0.4359 -0.5557
 1000MOL0     C37890  11.979   4.252   1.912 -0.3041  0.0145  0.1446
 1000MOL0     C37891  11.912   4.401   2.105  0.1347  0.3233 -1.0318
 1000MOL0     C37892  12.052   4.439   2.145 -0.8150 -1.1019 -0.3089
 1000MOL0     O37893  12.086   4.453   2.275 -0.3320  0.3015  0.7832
 1000MOL0     C37894  12.213   4.472   2.309  0.5844  0.1360 -0.7310
 1000MOL0     C37895  12.306   4.370   2.320 -0.3282 -0.3614 -0.1939
 1000MOL0     C37896  12.442   4.400   2.343 -0.3730  0.5833 -0.2429
 1000MOL0     C37897  12.479   4.531   2.380  0.3067  0.5377  0.8728
 1000MOL0     O37898  12.610   4.538   2.407 -0.3120  0.3319 -0.0658
 1000MOL0     C37899  12.642   4.636   2.508  0.2545 -0.0370  0.6916
 1000MOL0     C37900  12.784   4.616   2.566 -0.1212 -0.2641 -0.4033
 1000MOL0     C37901  12.784   4.515   2.679  0.2981  0.5776  0.1000
 1000MOL0     C37902  12.711   4.554   2.805 -0.0453  0.0282 -0.7465
 1000MOL0     C37903  12.732   4.466   2.924  0.5500  0.2586  0.3244
 1000MOL0     C37904  12.695   4.316   2.898 -0.2585  0.4097 -0.3839
 1000MOL0     C37905  12.692   4.246   3.031  0.0676  0.6695  0.4085
 1000MOL0     C37906  12.682   4.101   2.997  0.1199  1.0344 -0.0655
 1000MOL0    Cl37907  12.690   4.011   3.150  0.2578  0.0542 -0.1442
 1000MOL0     C37908  12.384   4.632   2.384 -0.0701  0.2596  0.4526
 1000MOL0     C37909  12.253   4.602   2.339 -0.0015 -0.0154  0.4120
 1000MOL0     O37910  12.118   4.485   2.050 -0.0435  0.4409  0.4927
 1000MOL0     C37911  11.799   4.467   2.175 -0.2839  0.2558  0.0133
 1000MOL0     C37912  11.665   4.450   2.136 -0.0365  0.3403 -0.4335
 1000MOL0     N37913  11.159   4.052   1.789 -0.5664  0.8527  0.7923
 1000MOL0     N37914  11.144   3.926   1.829 -0.8153  0.0090 -0.1422
 1000MOL0     C37915  10.212   3.137   2.137  0.7752 -1.3922 -0.9091
 1000MOL0     C37916  10.131   3.021   2.109 -0.2014 -0.8346 -0.2770
 1000MOL0     C37917   9.999   2.564   2.117  0.0239 -0.7442 -0.1576
 1000MOL0     C37918   9.871   2.564   2.177  0.1850 -0.4929  0.3836
 1000MOL0     C37919   9.783   2.462   2.155  0.4534  0.0311  0.1089
 1000MOL0     C37920   9.805   2.365   2.051  0.2196 -1.1676 -0.4233
 1000MOL0     O37921   9.716   2.268   2.030 -0.6395 -0.2222  0.0638
 1000MOL0     C37922   9.717   2.190   1.902 -0.2951  0.1862 -0.5435
 1000MOL0     C37923   9.576   2.213   1.856  0.5484  0.1999 -0.1713
 1000MOL0     C37924   9.556   2.163   1.713  1.1070  0.0880 -0.1585
 1000MOL0     C37925   9.416   2.204   1.661  0.6877 -0.2628 -0.3898
 1000MOL0     C37926   9.410   2.222   1.516 -0.1256  0.3401  0.2951
 1000MOL0     C37927   9.411   2.216   1.395  0.2766  0.1881 -0.2760
 1000MOL0     C37928   9.928   2.376   1.984  0.4106 -0.3695 -0.2500
 1000MOL0     C37929  10.032   2.469   2.020  0.3193  0.0587  0.3650
 1000MOL0     C37930  10.172   2.472   1.955 -0.3711  0.1083  0.3944
 1000MOL0     H37931  10.218   2.835   2.376 -1.6606 -0.0555 -0.4292
 1000MOL0     H37932  10.400   3.011   2.387  0.0918 -1.4380 -1.5341
 1000MOL0     H37933  10.359   3.381   2.159 -0.2035 -0.3290  0.0634
 1000MOL0     H37934  10.456   3.245   2.094  0.4539  0.4179 -0.3569
 1000MOL0     H37935  10.560   3.406   2.334  1.4887 -0.1114 -0.2284
 1000MOL0     H37936  10.632   3.285   2.228  0.7344  0.0114  1.1190
 1000MOL0     H37937  10.599   3.474   2.032 -0.1513  0.0737 -0.8427
 1000MOL0     H37938  10.579   3.575   2.161 -0.5645 -0.6550 -0.0746
 1000MOL0     H37939  10.796   3.504   2.264  2.6014  1.4324 -0.6203
 1000MOL0     H37940  10.820   3.390   2.139  3.0780  1.4890  0.1049
 1000MOL0     H37941  10.828   3.554   1.964 -0.3487  1.9434 -0.9904
 1000MOL0     H37942  10.945   3.578   2.091  0.4763  1.3053 -1.6283
 1000MOL0     H37943  10.685   3.745   2.088 -0.3697 -3.1642 -1.0084
 1000MOL0     H37944  10.819   3.760   2.199  0.2027  0.6632  0.5031
 1000MOL0     H37945  10.831   3.932   2.025 -1.1355  0.9202 -3.9948
 1000MOL0     H37946  10.824   3.813   1.904 -0.3902 -2.0760  0.5859
 1000MOL0     H37947  11.064   3.820   2.115 -1.5310  0.8022  0.2322
 1000MOL0     H37948  11.053   3.727   1.957 -0.8016 -1.1023  1.5641
 1000MOL0     H37949  10.987   4.086   2.067 -0.5814  1.0990 -1.8564
 1000MOL0     H37950  11.040   4.310   1.989 -2.1279  3.3551 -2.2492
 1000MOL0     H37951  11.051   4.336   1.824 -2.5692 -0.8705  0.9540
 1000MOL0     H37952  11.292   4.278   1.828 -1.0981 -1.8726  0.2304
 1000MOL0     H37953  11.249   4.425   1.919  2.5313 -0.3434 -1.7983
 1000MOL0     H37954  11.209   4.272   2.129  0.6919 -1.5385  0.0674
 1000MOL0     H37955  11.308   4.147   2.042  0.4967 -1.2261 -0.1631
 1000MOL0     H37956  11.387   4.420   2.141 -0.5066  0.0638  2.4442
 1000MOL0     H37957  11.449   4.244   2.170 -2.0769 -0.0770  0.0732
 1000MOL0     H37958  11.709   4.249   1.875 -2.4418 -0.6220  0.7768
 1000MOL0     H37959  12.017   4.318   1.835  0.6981 -1.5880 -0.7903
 1000MOL0     H37960  11.941   4.159   1.868 -0.8687 -0.6502  1.9076
 1000MOL0     H37961  12.073   4.246   1.967  0.2522  0.5815 -0.7357
 1000MOL0     H37962  12.266   4.270   2.306 -2.9053  0.3532  1.4182
 1000MOL0     H37963  12.499   4.308   2.342  1.4767  1.6853 -0.9130
 1000MOL0     H37964  12.643   4.732   2.455 -0.0422 -0.4309 -0.0434
 1000MOL0     H37965  12.572   4.659   2.589 -0.5286  1.5033 -0.3832
 1000MOL0     H37966  12.858   4.582   2.492 -1.2749 -0.6452 -1.4247
 1000MOL0     H37967  12.818   4.710   2.610 -0.3936 -0.0256 -0.6925
 1000MOL0     H37968  12.888   4.495   2.706  0.8742 -0.0958 -2.3455
 1000MOL0     H37969  12.758   4.416   2.638  0.5921  0.5584 -0.0419
 1000MOL0     H37970  12.605   4.556   2.778  0.3591  2.1252 -2.3220
 1000MOL0     H37971  12.736   4.653   2.844 -2.3855 -1.2193  5.0389
 1000MOL0     H37972  12.836   4.471   2.955  0.9539 -0.3228 -0.8691
 1000MOL0     H37973  12.664   4.502   3.002  0.1583 -0.1580  0.1830
 1000MOL0     H37974  12.774   4.273   2.835  2.5302  3.5870  0.6289
 1000MOL0     H37975  12.599   4.318   2.846 -1.0821  1.2077  1.0967
 1000MOL0     H37976  12.612   4.278   3.099  1.7878  0.5263  2.6309
 1000MOL0     H37977  12.792   4.253   3.075 -0.0438 -0.7358  0.9464
 1000MOL0     H37978  12.767   4.066   2.938 -1.8224 -0.9869 -1.8837
 1000MOL0     H37979  12.586   4.074   2.952 -0.2220  2.4475 -0.2575
 1000MOL0     H37980  12.424   4.730   2.409 -2.5819  1.4828 -0.0609
 1000MOL0     H37981  12.189   4.689   2.329  1.5399  0.8944 -4.9346
 1000MOL0     H37982  11.808   4.521   2.269  0.0125 -0.3296  0.3291
 1000MOL0     H37983  11.590   4.504   2.194  0.0680  3.6525 -3.0672
 1000MOL0     H37984  10.201   3.225   2.074  4.9223 -0.3041 -0.4315
 1000MOL0     H37985  10.054   3.024   2.032 -1.3411  0.6911  0.8649
 1000MOL0     H37986   9.853   2.638   2.255  2.3660  0.8714 -0.3317
 1000MOL0     H37987   9.684   2.469   2.198  1.0796  0.4907  1.5074
 1000MOL0     H37988   9.788   2.228   1.828  1.6595 -0.0013  1.1408
 1000MOL0     H37989   9.739   2.085   1.920  3.1329  0.8536 -0.1185
 1000MOL0     H37990   9.554   2.321   1.858  3.7705  0.9538  2.2657
 1000MOL0     H37991   9.513   2.160   1.927 -1.2357  1.6234 -0.6066
 1000MOL0     H37992   9.629   2.197   1.639  1.3203  2.0381  0.8930
 1000MOL0     H37993   9.553   2.053   1.714 -1.6298  0.0927 -0.5455
 1000MOL0     H37994   9.383   2.297   1.707 -1.4175 -0.4231 -1.4576
 1000MOL0     H37995   9.344   2.133   1.702 -0.3188  0.1218 -1.4493
 1000MOL0     H37996   9.404   2.202   1.290  0.7157 -0.7271 -0.1883
 1000MOL0     H37997   9.947   2.302   1.906 -2.0197  0.5920 -1.9049
 1000MOL0     H37998  10.181   2.577   1.925  1.0581 -0.1923 -0.3617
 1000MOL0     H37999  10.246   2.446   2.031  1.2847  1.9688 -0.4874
 1000MOL0     H38000  10.180   2.406   1.867  0.5838  3.0998 -1.9502
 1001MOL0     O38001   5.943   8.153   6.176  0.2970 -0.3740  0.3140
 1001MOL0     C38002   5.932   8.137   6.056 -0.3070  0.3222  0.2218
 1001MOL0     O38003   6.032   8.107   5.968 -0.2128  0.3836  0.3834
 1001MOL0     C38004   6.153   8.066   6.014 -0.2209 -0.3321  0.8991
 1001MOL0     C38005   6.266   8.104   5.942  0.4393  0.3079  0.1079
 1001MOL0     C38006   6.398   8.056   5.972 -0.1442 -0.1240 -0.2509
 1001MOL0     C38007   6.417   7.983   6.092  0.9204 -0.0294  0.0980
 1001MOL0     O38008   6.534   7.938   6.131 -0.2341  0.5874  0.1437
 1001MOL0     C38009   6.629   7.889   6.033  0.1828  0.3763 -0.8957
 1001MOL0     C38010   6.604   7.741   6.014 -0.8771 -0.2813 -0.1254
 1001MOL0     C38011   6.719   7.662   5.955 -0.7143  0.9720 -0.2453
 1001MOL0     C38012   6.846   7.667   6.041  0.0404  0.3241  0.4390
 1001MOL0     C38013   6.939   7.552   6.006 -0.5525 -0.4913  1.0791
 1001MOL0     C38014   7.081   7.553   6.049  0.5972 -0.4020  0.1165
 1001MOL0     C38015   7.159   7.663   5.973  0.4209  0.5077  0.4801
 1001MOL0     C38016   7.303   7.671   6.015  0.1873  0.4595  1.2639
 1001MOL0     N38017   7.382   7.553   5.977  0.3848  0.4673 -1.1014
 1001MOL0     C38018   7.405   7.517   5.852 -0.4284  0.2440 -0.1984
 1001MOL0     C38019   7.468   7.400   5.858  0.6922  0.2347 -0.7262
 1001MOL0     C38020   7.540   7.325   5.754  0.1606  0.9178 -0.5275
 1001MOL0     C38021   7.696   7.348   5.755  0.8238 -0.1334 -0.1790
 1001MOL0     C38022   7.767   7.294   5.623 -0.2460 -0.2903 -0.1682
 1001MOL0     C38023   7.781   7.143   5.616 -0.4639 -0.4556  0.0090
 1001MOL0     O38024   7.851   7.110   5.493  0.0555 -0.0041  0.5571
 1001MOL0     C38025   7.954   7.021   5.504  0.3011  0.2533 -0.6100
 1001MOL0     C38026   8.042   7.019   5.398  0.0525  0.0518 -0.3407
 1001MOL0     C38027   8.158   6.934   5.392 -0.5321  0.2864  0.1325
 1001MOL0     C38028   8.244   6.954   5.271  0.2154 -0.8995 -0.0947
 1001MOL0     C38029   8.189   6.862   5.510  0.1257 -0.0430  1.1999
 1001MOL0     C38030   8.324   6.790   5.532  1.4802 -0.3523 -0.0597
 1001MOL0     O38031   8.393   6.765   5.420 -0.9471 -0.2193  0.3480
 1001MOL0     C38032   8.519   6.700   5.425 -0.2990  0.2673  0.9947
 1001MOL0     C38033   8.638   6.771   5.456 -0.4231  0.8365  0.7187
 1001MOL0     C38034   8.753   6.694   5.452 -0.4226 -0.6248  0.8028
 1001MOL0     C38035   8.758   6.555   5.427  0.1912 -0.0422  0.1430
 1001MOL0     O38036   8.879   6.485   5.424 -0.5466  0.6309  1.0306
 1001MOL0     C38037   8.893   6.372   5.502 -0.7869  0.5184  0.1848
 1001MOL0     C38038   9.041   6.349   5.530 -0.4698 -0.6720  0.4495
 1001MOL0     C38039   9.096   6.452   5.636  0.1167  0.0485 -0.5071
 1001MOL0     C38040   9.239   6.419   5.675  0.0527 -0.5138  0.0790
 1001MOL0     C38041   9.333   6.444   5.556 -0.2707  0.4446 -0.1802
 1001MOL0     C38042   9.479   6.438   5.604 -0.1195  0.2859 -0.3545
 1001MOL0     C38043   9.539   6.295   5.601 -0.1531 -0.4551 -1.1978
 1001MOL0     C38044   9.690   6.285   5.628  0.5258  0.2811 -0.5970
 1001MOL0    Cl38045   9.739   6.353   5.787 -0.0687  0.0289  0.5457
 1001MOL0     C38046   8.636   6.488   5.402 -0.3040 -0.0597 -0.6418
 1001MOL0     C38047   8.512   6.560   5.406  0.2151 -0.0708  0.3301
 1001MOL0     O38048   8.360   6.783   5.649 -0.6498 -0.5603 -0.3975
 1001MOL0     C38049   8.103   6.875   5.620  0.2457 -0.0298 -0.6286
 1001MOL0     C38050   7.987   6.946   5.620 -0.1785  0.8326 -0.3586
 1001MOL0     N38051   7.463   7.361   5.994  0.9459  0.0644  0.5415
 1001MOL0     N38052   7.421   7.452   6.068  0.3547  0.0354  0.2648
 1001MOL0     C38053   6.303   7.935   6.158 -1.2676  0.5124 -1.1833
 1001MOL0     C38054   6.177   7.980   6.126 -0.0576  0.2459  0.0836
 1001MOL0     C38055   5.804   8.146   5.998  0.3777  0.2725  0.5493
 1001MOL0     C38056   5.719   8.258   6.025  0.3261  0.1850 -1.0437
 1001MOL0     C38057   5.597   8.274   5.969  0.0729  0.0929 -0.1190
 1001MOL0     C38058   5.551   8.189   5.869  0.1281 -0.1195 -0.6099
 1001MOL0     O38059   5.439   8.206   5.792  0.0293 -0.0683  0.0467
 1001MOL0     C38060   5.339   8.306   5.830  0.3211  0.2067  0.6248
 1001MOL0     C38061   5.214   8.322   5.739 -0.1303  0.0044 -0.6352
 1001MOL0     C38062   5.232   8.361   5.594  0.6480  0.2331 -0.4806
 1001MOL0     C38063   5.237   8.516   5.579  0.1132  0.1872  0.0517
 1001MOL0     C38064   5.106   8.554   5.622 -0.4335  0.1592 -0.2313
 1001MOL0     C38065   5.001   8.590   5.673 -0.7055 -0.8652 -0.1544
 1001MOL0     C38066   5.630   8.077   5.846  0.4237 -0.2055 -0.3013
 1001MOL0     C38067   5.748   8.045   5.910 -0.5181 -0.9460  0.2691
 1001MOL0     C38068   5.825   7.929   5.853  0.4433  0.3493 -0.5040
 1001MOL0     H38069   6.243   8.153   5.848  0.9066  0.7892  0.2358
 1001MOL0     H38070   6.472   8.094   5.903 -0.8735  2.8064  0.4478
 1001MOL0     H38071   6.735   7.901   6.060  0.0785  0.4160 -0.5112
 1001MOL0     H38072   6.626   7.937   5.934  0.9849  2.0087 -0.1742
 1001MOL0     H38073   6.586   7.704   6.115  2.0007  0.4163  0.7320
 1001MOL0     H38074   6.519   7.733   5.946  0.5396  0.3644 -2.0750
 1001MOL0     H38075   6.687   7.557   5.947  3.8456 -0.5471 -2.4542
 1001MOL0     H38076   6.747   7.700   5.857  2.8679  0.3809  0.3987
 1001MOL0     H38077   6.894   7.765   6.033  0.4075  0.1177  0.0795
 1001MOL0     H38078   6.820   7.668   6.148  0.9920 -0.1603  0.6917
 1001MOL0     H38079   6.931   7.530   5.899 -4.0173  1.1574  0.8982
 1001MOL0     H38080   6.892   7.472   6.064  0.2703 -0.4473  1.8368
 1001MOL0     H38081   7.082   7.573   6.156 -1.5080  1.6223 -0.1752
 1001MOL0     H38082   7.129   7.462   6.009  0.3628 -0.2150 -0.6025
 1001MOL0     H38083   7.104   7.757   5.980 -3.4435 -1.2095 -2.7971
 1001MOL0     H38084   7.153   7.629   5.869 -1.5699 -1.9908  1.3024
 1001MOL0     H38085   7.336   7.766   5.971  0.8154  0.2331  1.2337
 1001MOL0     H38086   7.297   7.683   6.124 -0.3381  1.7681  1.1114
 1001MOL0     H38087   7.396   7.575   5.760  1.8951  1.8676  0.5263
 1001MOL0     H38088   7.496   7.354   5.658 -1.8727 -1.1658 -0.3132
 1001MOL0     H38089   7.531   7.217   5.771  2.4917  0.8930  0.9779
 1001MOL0     H38090   7.711   7.454   5.735 -0.7653 -0.2188 -2.1429
 1001MOL0     H38091   7.740   7.306   5.846 -1.5097 -2.3519  0.0404
 1001MOL0     H38092   7.718   7.316   5.528  0.2635  0.5136 -0.2511
 1001MOL0     H38093   7.870   7.330   5.615  0.7680 -2.9662 -0.1785
 1001MOL0     H38094   7.820   7.107   5.712 -2.2621 -3.4808 -0.2794
 1001MOL0     H38095   7.679   7.103   5.611 -1.0950  1.1594 -0.9439
 1001MOL0     H38096   8.025   7.092   5.319  1.7656 -1.0514 -1.8317
 1001MOL0     H38097   8.339   6.992   5.311 -0.2657 -0.5032  0.6771
 1001MOL0     H38098   8.200   7.021   5.196  1.4047 -1.0006 -0.9320
 1001MOL0     H38099   8.268   6.852   5.238  2.4661 -1.5637  3.1768
 1001MOL0     H38100   8.640   6.880   5.457  0.3375  0.9944 -3.3313
 1001MOL0     H38101   8.850   6.742   5.452 -1.1710  0.9428  1.3084
 1001MOL0     H38102   8.841   6.360   5.598 -1.2678  0.0948 -0.1224
 1001MOL0     H38103   8.861   6.290   5.437  2.1970  0.0555 -0.8159
 1001MOL0     H38104   9.062   6.247   5.562  0.0058  0.0930  2.7396
 1001MOL0     H38105   9.101   6.359   5.440 -1.1230 -1.2157 -0.0603
 1001MOL0     H38106   9.028   6.462   5.721 -1.0826 -1.6078 -1.2162
 1001MOL0     H38107   9.112   6.550   5.590  1.3775 -1.0734 -2.6423
 1001MOL0     H38108   9.246   6.312   5.699 -1.4173 -0.5454  0.4737
 1001MOL0     H38109   9.259   6.485   5.759 -0.4280 -0.5514  0.2272
 1001MOL0     H38110   9.317   6.369   5.479 -2.9645 -0.6141  1.2870
 1001MOL0     H38111   9.305   6.534   5.500 -1.5129  0.2502  0.1068
 1001MOL0     H38112   9.482   6.473   5.708  1.4714  0.9960 -0.6096
 1001MOL0     H38113   9.538   6.506   5.541 -0.2992  1.2241  0.4584
 1001MOL0     H38114   9.523   6.244   5.506  1.9770 -2.8491 -0.3726
 1001MOL0     H38115   9.480   6.233   5.669 -0.8198 -2.1054 -3.1933
 1001MOL0     H38116   9.745   6.330   5.544  0.3138 -0.1888 -0.9976
 1001MOL0     H38117   9.715   6.179   5.635 -2.1774 -0.3329  1.5450
 1001MOL0     H38118   8.639   6.382   5.381  2.4489  0.1699 -1.8811
 1001MOL0     H38119   8.413   6.522   5.381  1.3557 -4.0643  1.1551
 1001MOL0     H38120   8.125   6.826   5.715  2.0341  1.1489 -0.3882
 1001MOL0     H38121   7.927   6.932   5.709 -1.0544 -1.0384 -1.1927
 1001MOL0     H38122   6.308   7.864   6.240 -1.4234  0.5953 -1.1032
 1001MOL0     H38123   6.087   7.946   6.176  1.8908 -0.4917  3.3572
 1001MOL0     H38124   5.756   8.329   6.098  0.9290 -0.8325 -0.3266
 1001MOL0     H38125   5.539   8.360   6.000 -1.3326 -0.3393 -1.4301
 1001MOL0     H38126   5.295   8.275   5.925 -0.2330  1.6558  0.8673
 1001MOL0     H38127   5.390   8.401   5.851  3.4778 -1.7814  2.7388
 1001MOL0     H38128   5.135   8.384   5.784  0.6604  1.3679 -1.0761
 1001MOL0     H38129   5.169   8.222   5.737  0.2488 -0.2109  0.9340
 1001MOL0     H38130   5.329   8.316   5.572  2.0371  1.4571  2.6086
 1001MOL0     H38131   5.149   8.329   5.530 -2.3637  1.6419  2.3980
 1001MOL0     H38132   5.270   8.538   5.477 -0.2545 -2.1700 -0.6540
 1001MOL0     H38133   5.311   8.555   5.650 -0.3205  2.5660 -0.7158
 1001MOL0     H38134   4.910   8.620   5.721  1.6850  3.0844  2.4579
 1001MOL0     H38135   5.591   8.017   5.765 -1.7151  1.2403 -0.4238
 1001MOL0     H38136   5.879   7.874   5.931 -3.4552 -2.7184  0.3400
 1001MOL0     H38137   5.760   7.851   5.811  3.8892 -1.9956 -1.9464
 1001MOL0     H38138   5.893   7.960   5.773 -1.1558  0.3102 -1.9402
 1002MOL0     O38139   0.904  10.329  11.127  0.4184 -0.7951  0.0643
 1002MOL0     C38140   0.809  10.336  11.052  0.4783  1.0382  0.4325
 1002MOL0     O38141   0.811  10.363  10.921 -0.3089  0.0739  0.0939
 1002MOL0     C38142   0.916  10.437  10.868  0.4879  0.5938  0.1762
 1002MOL0     C38143   0.925  10.431  10.729 -0.0884 -0.3380  0.7654
 1002MOL0     C38144   1.036  10.495  10.660  0.4143 -0.2828 -0.5309
 1002MOL0     C38145   1.120  10.583  10.729  0.1070  0.0207  0.3335
 1002MOL0     O38146   1.195  10.668  10.648  1.1023  0.6673 -0.2232
 1002MOL0     C38147   1.265  10.774  10.704 -0.4083 -0.9616 -0.3720
 1002MOL0     C38148   1.349  10.859  10.601  0.0841 -0.6055 -0.0906
 1002MOL0     C38149   1.469  10.770  10.561  0.9481  1.4849 -0.6372
 1002MOL0     C38150   1.539  10.824  10.441 -0.3550 -0.5622  0.4582
 1002MOL0     C38151   1.678  10.762  10.409  0.0093 -0.0557 -0.1658
 1002MOL0     C38152   1.710  10.790  10.257  0.1772  0.1240  1.3854
 1002MOL0     C38153   1.855  10.749  10.230  0.7324 -0.0175  0.7407
 1002MOL0     C38154   1.901  10.799  10.090 -0.1680  1.2005 -0.2149
 1002MOL0     N38155   2.043  10.772  10.090 -0.5471  0.0152 -0.1830
 1002MOL0     C38156   2.129  10.843  10.172 -0.3414 -0.4922 -0.3056
 1002MOL0     C38157   2.250  10.795  10.140 -0.3686 -0.4475 -0.2223
 1002MOL0     C38158   2.380  10.828  10.206  0.1438  0.2139  0.1549
 1002MOL0     C38159   2.433  10.977  10.197  0.6899  0.6658  0.3171
 1002MOL0     C38160   2.590  10.976  10.176 -0.0028  0.0614  0.2168
 1002MOL0     C38161   2.636  10.918  10.051 -0.1124 -0.8946  0.0579
 1002MOL0     O38162   2.769  10.967  10.017 -0.5166 -0.4169 -0.4061
 1002MOL0     C38163   2.883  10.898  10.059  0.6767  0.1121  1.4876
 1002MOL0     C38164   2.995  10.918   9.982 -0.7209 -0.0028 -0.2795
 1002MOL0     C38165   3.118  10.860  10.026 -0.2119 -0.5023  0.4979
 1002MOL0     C38166   3.234  10.885   9.949 -0.5392 -0.2325  0.1535
 1002MOL0     C38167   3.129  10.777  10.135 -0.3616  0.3312 -0.3553
 1002MOL0     C38168   3.255  10.708  10.170 -0.1411  0.3211 -0.1881
 1002MOL0     O38169   3.320  10.769  10.264 -0.4794 -0.4672 -0.0241
 1002MOL0     C38170   3.451  10.740  10.287  0.1735 -0.1530  0.0430
 1002MOL0     C38171   3.485  10.672  10.399 -0.8260  0.8431 -0.7241
 1002MOL0     C38172   3.621  10.641  10.430  0.2766 -0.3729 -0.3652
 1002MOL0     C38173   3.725  10.668  10.336  0.3814  0.6300 -0.8000
 1002MOL0     O38174   3.846  10.622  10.365 -0.7696  0.2725 -0.0348
 1002MOL0     C38175   3.959  10.652  10.274  0.6478  0.1893 -0.6349
 1002MOL0     C38176   3.987  10.557  10.156  0.0286 -0.2500 -0.5588
 1002MOL0     C38177   4.038  10.423  10.188  0.0898  0.6778  0.0906
 1002MOL0     C38178   4.044  10.347  10.055  0.1862 -0.2922  0.2424
 1002MOL0     C38179   4.099  10.205  10.069  0.8393 -0.1578  0.1199
 1002MOL0     C38180   3.995  10.107  10.133  0.4744  0.5406 -0.5017
 1002MOL0     C38181   4.033   9.960  10.091 -1.3002 -0.0363  0.2512
 1002MOL0     C38182   3.969   9.854  10.179 -0.6615  0.3860 -0.5740
 1002MOL0    Cl38183   3.788   9.882  10.193 -0.0656  0.1977 -0.1894
 1002MOL0     C38184   3.675  10.726  10.212 -0.2177  0.0956 -1.9602
 1002MOL0     C38185   3.546  10.762  10.192 -0.2462  0.8767  0.2329
 1002MOL0     O38186   3.278  10.594  10.129 -0.1800  0.0601  0.6072
 1002MOL0     C38187   3.012  10.753  10.207  0.5408  0.4882  0.2480
 1002MOL0     C38188   2.886  10.805  10.164 -0.5687 -0.8336 -0.7864
 1002MOL0     N38189   2.233  10.690  10.052  0.3986  0.4967  0.7341
 1002MOL0     N38190   2.102  10.668  10.031  0.2752  0.5214  0.2884
 1002MOL0     C38191   1.093  10.604  10.865  0.0387  0.6997 -0.7985
 1002MOL0     C38192   0.992  10.535  10.934  0.0963  0.0830  0.4621
 1002MOL0     C38193   0.669  10.301  11.117  0.3404 -0.6538 -1.0190
 1002MOL0     C38194   0.674  10.264  11.251 -0.4875 -0.0887  0.7344
 1002MOL0     C38195   0.570  10.238  11.326  0.1922 -1.2555 -1.1048
 1002MOL0     C38196   0.439  10.235  11.280 -0.4091  0.2418  2.0970
 1002MOL0     O38197   0.352  10.179  11.364  0.3238  0.0310  0.1568
 1002MOL0     C38198   0.275  10.069  11.309 -0.0221 -1.2775  0.2081
 1002MOL0     C38199   0.234   9.989  11.428 -0.9956 -0.5869  0.0326
 1002MOL0     C38200   0.344   9.913  11.493  0.1468  0.4644 -0.1283
 1002MOL0     C38201   0.436   9.978  11.603 -0.9734 -0.1072  0.3931
 1002MOL0     C38202   0.516   9.868  11.656 -0.8173  0.5473 -0.1591
 1002MOL0     C38203   0.592   9.782  11.706  1.1542  1.0083 -0.3104
 1002MOL0     C38204   0.428  10.265  11.137 -0.1429  0.2151  0.8593
 1002MOL0     C38205   0.540  10.297  11.057  0.6100 -0.2193 -0.2564
 1002MOL0     C38206   0.519  10.321  10.910 -0.0770 -0.0140  0.0181
 1002MOL0     H38207   0.847  10.381  10.673  1.0172 -0.0384 -1.1238
 1002MOL0     H38208   1.052  10.492  10.553  5.6327  1.4446 -0.0700
 1002MOL0     H38209   1.321  10.732  10.788 -0.2108  1.4913  0.7934
 1002MOL0     H38210   1.195  10.850  10.740 -0.5827 -1.9775  1.5437
 1002MOL0     H38211   1.295  10.875  10.508 -1.2202  0.5415  0.8079
 1002MOL0     H38212   1.387  10.951  10.647  2.2817 -0.2175 -2.4628
 1002MOL0     H38213   1.539  10.751  10.643 -1.7960  1.2087  1.8084
 1002MOL0     H38214   1.425  10.676  10.527  0.7086  1.1200  0.6363
 1002MOL0     H38215   1.475  10.816  10.352  0.9688  0.3598 -0.6208
 1002MOL0     H38216   1.562  10.929  10.460  0.4943 -0.3224 -1.6375
 1002MOL0     H38217   1.680  10.653  10.423 -0.9133  0.1636  2.0820
 1002MOL0     H38218   1.757  10.793  10.477 -0.8254 -2.2502  1.9382
 1002MOL0     H38219   1.655  10.721  10.192  2.6438 -1.8442  1.2059
 1002MOL0     H38220   1.703  10.896  10.232 -0.6861 -0.0234  0.9914
 1002MOL0     H38221   1.850  10.640  10.244 -1.4108 -0.0123  0.4187
 1002MOL0     H38222   1.917  10.793  10.308 -0.3984 -0.6970  2.0776
 1002MOL0     H38223   1.841  10.751  10.013 -1.7870  1.0016  1.0944
 1002MOL0     H38224   1.879  10.904  10.067 -3.6829  0.4580 -0.7687
 1002MOL0     H38225   2.115  10.937  10.224  1.2336  1.0522 -2.4711
 1002MOL0     H38226   2.450  10.752  10.171 -2.0750 -1.1217 -1.7264
 1002MOL0     H38227   2.362  10.810  10.313  0.9393  0.0135  0.2572
 1002MOL0     H38228   2.391  11.013  10.103  0.7308  1.3230  0.5479
 1002MOL0     H38229   2.407  11.041  10.282  1.5500  1.7664 -0.2171
 1002MOL0     H38230   2.615  11.082  10.167 -1.8775  0.3979 -2.1760
 1002MOL0     H38231   2.643  10.929  10.259  0.4534 -2.5627 -1.4545
 1002MOL0     H38232   2.630  10.809  10.044  0.3977 -0.8494 -1.6498
 1002MOL0     H38233   2.563  10.956   9.978  0.0177  4.5592  2.2809
 1002MOL0     H38234   2.996  11.000   9.911  2.2307  1.2261  1.0230
 1002MOL0     H38235   3.323  10.903  10.009  2.0545 -5.3967 -1.5020
 1002MOL0     H38236   3.222  10.972   9.884 -3.5015 -0.9872 -0.4327
 1002MOL0     H38237   3.262  10.791   9.899  1.7675 -0.2153  1.2857
 1002MOL0     H38238   3.405  10.652  10.469  0.9079  0.2326  1.1997
 1002MOL0     H38239   3.640  10.610  10.532 -0.9868 -0.3675 -0.1223
 1002MOL0     H38240   3.946  10.754  10.238  0.7703  0.1400 -0.8190
 1002MOL0     H38241   4.050  10.649  10.335 -0.0355  1.7469  0.5044
 1002MOL0     H38242   3.892  10.550  10.100 -0.0188  2.7595 -1.0526
 1002MOL0     H38243   4.058  10.601  10.085 -0.0248 -1.4409 -1.3790
 1002MOL0     H38244   3.964  10.371  10.251 -1.2440  2.2497 -0.1190
 1002MOL0     H38245   4.132  10.421  10.245 -0.8499  2.1493  1.8156
 1002MOL0     H38246   4.116  10.398   9.992  0.4727 -3.6217 -2.4501
 1002MOL0     H38247   3.945  10.352  10.009 -0.0543 -0.9070  0.6603
 1002MOL0     H38248   4.127  10.160   9.973 -0.0146 -0.7425  0.1351
 1002MOL0     H38249   4.191  10.198  10.128  1.7022 -4.8702 -1.3596
 1002MOL0     H38250   3.894  10.134  10.102  0.4296  1.9347  0.7696
 1002MOL0     H38251   4.009  10.118  10.241  0.7056 -1.4613 -0.2904
 1002MOL0     H38252   4.141   9.960  10.110 -1.4844  1.3326  1.4920
 1002MOL0     H38253   3.995   9.943   9.990 -1.2555 -0.6489  0.3345
 1002MOL0     H38254   4.008   9.863  10.281  1.6630  1.3100 -1.4864
 1002MOL0     H38255   3.999   9.756  10.142  0.9685  0.3826  0.6224
 1002MOL0     H38256   3.745  10.743  10.130 -1.0586 -1.9190 -3.1868
 1002MOL0     H38257   3.523  10.809  10.097 -0.5889  0.0639 -0.0931
 1002MOL0     H38258   3.009  10.675  10.283  1.0569  2.3909  2.3532
 1002MOL0     H38259   2.799  10.779  10.223 -0.4841  2.9295  1.2958
 1002MOL0     H38260   1.141  10.693  10.905 -0.0104  1.5254 -2.5011
 1002MOL0     H38261   0.968  10.556  11.038 -1.7399 -0.5749  0.2082
 1002MOL0     H38262   0.766  10.267  11.310 -0.5242  2.3958  0.7889
 1002MOL0     H38263   0.590  10.209  11.429 -0.3904 -1.2307 -0.9804
 1002MOL0     H38264   0.180  10.090  11.260  1.0966 -0.3149 -1.6556
 1002MOL0     H38265   0.334  10.024  11.229  0.1881 -0.5336 -0.0585
 1002MOL0     H38266   0.160   9.919  11.388  0.6585 -0.7726 -2.9527
 1002MOL0     H38267   0.191  10.051  11.507 -1.9085 -3.1475  1.6791
 1002MOL0     H38268   0.293   9.827  11.539 -1.5813  2.2261  1.4530
 1002MOL0     H38269   0.403   9.867  11.414 -0.0188  1.0261 -0.5836
 1002MOL0     H38270   0.372  10.018  11.682 -3.3109 -0.9403 -0.9820
 1002MOL0     H38271   0.499  10.055  11.557  0.5679 -1.2370  0.5334
 1002MOL0     H38272   0.654   9.701  11.739 -1.0260 -1.1216 -1.0325
 1002MOL0     H38273   0.332  10.264  11.086 -0.7474  0.1178  1.9825
 1002MOL0     H38274   0.562  10.238  10.853 -0.1244  0.8744 -1.3421
 1002MOL0     H38275   0.414  10.326  10.881 -0.2219 -2.8590 -0.2386
 1002MOL0     H38276   0.553  10.419  10.874 -1.9163 -0.0193 -1.9153
 1003MOL0     O38277   3.622   3.382   0.261  0.4502 -0.0744  0.0060
 1003MOL0     C38278   3.579   3.346   0.375  0.0108 -0.6346 -0.8174
 1003MOL0     O38279   3.657   3.330   0.484 -0.1862 -0.6326 -0.1876
 1003MOL0     C38280   3.791   3.347   0.476 -0.3484  0.1063  0.5176
 1003MOL0     C38281   3.858   3.409   0.579  0.8693  0.1976  0.0099
 1003MOL0     C38282   3.996   3.411   0.586  0.7280  0.3554  0.1040
 1003MOL0     C38283   4.084   3.357   0.487  0.5228 -0.2489  0.4207
 1003MOL0     O38284   4.215   3.384   0.483 -0.1599 -0.0313 -0.4210
 1003MOL0     C38285   4.298   3.297   0.403 -0.5789  0.3445  0.3400
 1003MOL0     C38286   4.446   3.311   0.416 -0.2224  0.3737 -0.0503
 1003MOL0     C38287   4.525   3.205   0.347 -0.0346  0.1899 -0.8370
 1003MOL0     C38288   4.671   3.213   0.390 -0.1976  1.2102 -0.5231
 1003MOL0     C38289   4.737   3.336   0.332 -0.2648  0.0706  0.6845
 1003MOL0     C38290   4.896   3.334   0.331  1.6038 -0.5084 -0.1239
 1003MOL0     C38291   4.944   3.482   0.335 -0.3751 -0.5196  0.0024
 1003MOL0     C38292   4.934   3.551   0.196  0.4293 -0.5770  0.9481
 1003MOL0     N38293   5.032   3.655   0.161 -0.2416  0.9423 -0.5215
 1003MOL0     C38294   5.167   3.623   0.155 -0.3604 -0.3152  0.4846
 1003MOL0     C38295   5.216   3.746   0.146 -0.3661  0.0993 -0.2208
 1003MOL0     C38296   5.353   3.769   0.162 -0.1724 -0.3839  0.8820
 1003MOL0     C38297   5.413   3.831   0.031 -0.8409 -0.4105  0.5974
 1003MOL0     C38298   5.361   3.976   0.020 -0.2393 -0.2888 -0.0056
 1003MOL0     C38299   5.380   4.019  -0.119 -0.6731 -0.3659  0.3491
 1003MOL0     O38300   5.351   4.163  -0.137  0.1164  0.5093  0.0184
 1003MOL0     C38301   5.411   4.244  -0.233 -0.0863  0.5862  0.6227
 1003MOL0     C38302   5.359   4.376  -0.236 -0.3083  0.6541  0.2748
 1003MOL0     C38303   5.398   4.457  -0.344 -0.7842 -0.1993 -0.1664
 1003MOL0     C38304   5.313   4.583  -0.359  0.4772  0.3966  0.1998
 1003MOL0     C38305   5.501   4.423  -0.433 -0.4324 -0.6597 -0.0405
 1003MOL0     C38306   5.552   4.508  -0.540  0.0425  0.0062  0.5394
 1003MOL0     O38307   5.598   4.459  -0.650 -0.3432 -0.2255  0.5715
 1003MOL0     C38308   5.614   4.536  -0.763  0.4427  0.3279 -0.5006
 1003MOL0     C38309   5.701   4.474  -0.855  0.3237 -0.0992  0.0787
 1003MOL0     C38310   5.731   4.528  -0.982 -1.4689 -0.4883 -0.8143
 1003MOL0     C38311   5.656   4.633  -1.023 -0.4558 -0.3074 -0.0636
 1003MOL0     O38312   5.667   4.663  -1.155  0.8549  0.6930  0.5515
 1003MOL0     C38313   5.547   4.712  -1.217  0.7562 -0.5951 -0.1763
 1003MOL0     C38314   5.551   4.720  -1.370 -0.5424 -0.3322  0.2886
 1003MOL0     C38315   5.654   4.828  -1.426  0.0915 -0.5399  0.5252
 1003MOL0     C38316   5.646   4.843  -1.576  0.2834 -0.2504  0.6929
 1003MOL0     C38317   5.746   4.752  -1.658  0.3239  0.3459 -0.2362
 1003MOL0     C38318   5.749   4.780  -1.810 -0.0646  0.2286 -1.1346
 1003MOL0     C38319   5.858   4.694  -1.861  0.0836  0.6145 -0.9297
 1003MOL0     C38320   5.889   4.726  -2.003 -0.3515  0.2274  0.4186
 1003MOL0    Cl38321   5.969   4.893  -2.015 -0.0804  0.0223  0.1692
 1003MOL0     C38322   5.573   4.709  -0.927  0.1388  0.9048 -0.0470
 1003MOL0     C38323   5.557   4.656  -0.797  0.2031 -0.5191  0.0558
 1003MOL0     O38324   5.560   4.632  -0.512 -0.0317  0.4653 -0.1838
 1003MOL0     C38325   5.536   4.292  -0.432  0.3040  0.4030  0.0068
 1003MOL0     C38326   5.496   4.202  -0.335  0.7743  0.5336  0.6729
 1003MOL0     N38327   5.116   3.838   0.179 -0.3608 -0.0471  0.1965
 1003MOL0     N38328   5.006   3.780   0.192  0.3912  0.4392 -0.5073
 1003MOL0     C38329   4.019   3.306   0.376  0.5713 -1.2987  0.8343
 1003MOL0     C38330   3.873   3.288   0.378 -0.1023  0.0003  0.3770
 1003MOL0     C38331   3.429   3.345   0.401  0.6035 -0.2956 -0.4282
 1003MOL0     C38332   3.380   3.409   0.522  0.6662 -0.5854 -0.4906
 1003MOL0     C38333   3.241   3.409   0.536  0.3474 -0.0703  0.2825
 1003MOL0     C38334   3.159   3.363   0.433  0.2136 -0.2445 -0.1225
 1003MOL0     O38335   3.024   3.381   0.450  0.6023 -0.2970 -0.8579
 1003MOL0     C38336   2.938   3.367   0.339 -0.2181 -0.8564  0.2766
 1003MOL0     C38337   2.784   3.385   0.361 -0.2385 -0.0552  0.3660
 1003MOL0     C38338   2.753   3.516   0.445 -0.8078  0.3906  0.1370
 1003MOL0     C38339   2.612   3.529   0.469  0.0431 -0.4279  0.4232
 1003MOL0     C38340   2.539   3.561   0.345 -0.1393  0.8524 -0.0883
 1003MOL0     C38341   2.477   3.591   0.248  0.1087 -0.1649 -0.6664
 1003MOL0     C38342   3.209   3.290   0.317 -0.3064 -0.2355  1.2322
 1003MOL0     C38343   3.349   3.282   0.308  0.2915  0.0869  0.7433
 1003MOL0     C38344   3.408   3.202   0.195 -0.5168 -0.5222 -0.2634
 1003MOL0     H38345   3.803   3.433   0.669  1.2836 -1.1333  0.6448
 1003MOL0     H38346   4.036   3.476   0.663  0.4361  2.4925 -1.4661
 1003MOL0     H38347   4.287   3.322   0.297  0.4714 -1.6085 -0.2670
 1003MOL0     H38348   4.279   3.191   0.416  0.4546 -0.1206 -1.5384
 1003MOL0     H38349   4.467   3.412   0.379 -0.5847  0.6271  0.4141
 1003MOL0     H38350   4.464   3.314   0.524 -0.5076  0.3184 -0.0002
 1003MOL0     H38351   4.482   3.110   0.379  0.4833  0.8467  2.0318
 1003MOL0     H38352   4.516   3.220   0.239  2.1268 -2.2213 -1.4371
 1003MOL0     H38353   4.689   3.212   0.497 -1.7901 -1.1055 -0.2157
 1003MOL0     H38354   4.713   3.125   0.341  2.0369  3.8921 -3.9568
 1003MOL0     H38355   4.700   3.410   0.403 -1.3352 -0.0686  0.2920
 1003MOL0     H38356   4.703   3.364   0.232 -2.4104  0.8672  1.5753
 1003MOL0     H38357   4.932   3.296   0.427 -2.2367  1.0053  2.1410
 1003MOL0     H38358   4.944   3.282   0.247  1.6148  1.6795 -1.5580
 1003MOL0     H38359   5.047   3.479   0.372  0.8292 -2.4089 -3.1555
 1003MOL0     H38360   4.888   3.543   0.407 -0.8602 -1.9009  0.8364
 1003MOL0     H38361   4.941   3.475   0.118  1.8034  0.5170 -0.0343
 1003MOL0     H38362   4.838   3.604   0.190  1.0543  0.4190 -1.7079
 1003MOL0     H38363   5.228   3.534   0.142  1.0948  0.6799  0.1635
 1003MOL0     H38364   5.415   3.685   0.193  0.9720  0.9964  2.5604
 1003MOL0     H38365   5.352   3.845   0.241 -0.9733 -1.7678  2.2477
 1003MOL0     H38366   5.522   3.831   0.036 -0.6145  1.5317 -2.2208
 1003MOL0     H38367   5.380   3.761  -0.046 -2.0109 -1.9736  2.4100
 1003MOL0     H38368   5.254   3.981   0.043  0.2567 -2.3008  3.5378
 1003MOL0     H38369   5.405   4.047   0.091  1.8220 -2.9642  1.6096
 1003MOL0     H38370   5.485   3.999  -0.142 -0.6495  0.0034  0.1214
 1003MOL0     H38371   5.307   3.964  -0.180 -0.5871  2.5771 -2.7244
 1003MOL0     H38372   5.287   4.403  -0.160 -0.9659 -1.3559  0.4163
 1003MOL0     H38373   5.361   4.675  -0.324 -1.8284  1.4080  0.8444
 1003MOL0     H38374   5.218   4.581  -0.305  0.2756  2.0110 -0.0572
 1003MOL0     H38375   5.295   4.589  -0.467 -0.0410 -1.1888  0.1753
 1003MOL0     H38376   5.757   4.389  -0.817  0.8845 -0.6329 -1.8576
 1003MOL0     H38377   5.806   4.485  -1.046  0.8476  2.4576 -0.2944
 1003MOL0     H38378   5.458   4.654  -1.190  2.0525 -1.4762  2.6242
 1003MOL0     H38379   5.528   4.812  -1.177 -2.1790 -1.3370  0.5590
 1003MOL0     H38380   5.581   4.623  -1.411  1.0126  0.4578 -0.5336
 1003MOL0     H38381   5.446   4.741  -1.392 -0.6632  0.9320  1.8954
 1003MOL0     H38382   5.757   4.800  -1.403  0.6911 -0.1689 -1.4934
 1003MOL0     H38383   5.631   4.928  -1.389 -1.7799 -1.1275  1.0830
 1003MOL0     H38384   5.662   4.945  -1.610  3.5121 -0.9881 -0.3650
 1003MOL0     H38385   5.543   4.818  -1.605 -0.8837  2.6964  1.9082
 1003MOL0     H38386   5.846   4.773  -1.620  1.2774  0.2757 -2.5334
 1003MOL0     H38387   5.726   4.645  -1.644  0.9565  0.2355 -0.1728
 1003MOL0     H38388   5.785   4.882  -1.828 -0.7607  0.7930  0.5084
 1003MOL0     H38389   5.658   4.755  -1.865 -0.4866 -0.3731 -0.1797
 1003MOL0     H38390   5.832   4.588  -1.857  0.7012  0.4930  1.7620
 1003MOL0     H38391   5.949   4.706  -1.803 -2.1039  2.6362  2.4203
 1003MOL0     H38392   5.810   4.739  -2.078  0.3005 -0.4960 -0.4194
 1003MOL0     H38393   5.960   4.653  -2.043 -0.0408  0.4323  0.5870
 1003MOL0     H38394   5.514   4.797  -0.949 -1.6192  0.2882  1.8035
 1003MOL0     H38395   5.485   4.702  -0.731  2.3834  0.8440  1.5897
 1003MOL0     H38396   5.597   4.262  -0.517  1.2312 -0.0046  0.8095
 1003MOL0     H38397   5.522   4.097  -0.347 -1.9937 -0.0878 -0.5080
 1003MOL0     H38398   4.074   3.270   0.289 -2.4416  1.4055 -2.5419
 1003MOL0     H38399   3.828   3.253   0.286  4.0941  1.1580 -2.4099
 1003MOL0     H38400   3.452   3.454   0.590  2.4657 -0.4232 -2.4152
 1003MOL0     H38401   3.186   3.455   0.617  0.3418  1.1389 -0.3823
 1003MOL0     H38402   2.971   3.435   0.260  0.9381 -0.0782  1.3954
 1003MOL0     H38403   2.942   3.264   0.303 -1.2003 -0.9648  0.4659
 1003MOL0     H38404   2.729   3.310   0.417 -1.9219  1.9936  1.6112
 1003MOL0     H38405   2.747   3.390   0.258  1.2094  0.4769 -0.1568
 1003MOL0     H38406   2.816   3.510   0.535 -2.0445 -1.4873  0.9375
 1003MOL0     H38407   2.788   3.601   0.386 -1.9787  0.8032  0.0129
 1003MOL0     H38408   2.590   3.607   0.543 -1.0182  0.3558 -0.6866
 1003MOL0     H38409   2.570   3.432   0.495 -1.6621 -1.6788 -5.5270
 1003MOL0     H38410   2.412   3.614   0.166 -1.6248 -0.9980  0.3949
 1003MOL0     H38411   3.146   3.232   0.250  0.4803 -1.2269  1.3180
 1003MOL0     H38412   3.439   3.271   0.116 -2.7113  0.1027 -0.6449
 1003MOL0     H38413   3.493   3.142   0.230 -0.2589  0.1454  0.2701
 1003MOL0     H38414   3.335   3.139   0.144  0.6119 -2.1387  0.0249
 1004MOL0     O38415   9.454   1.968   8.736 -0.4510 -0.4564  0.3498
 1004MOL0     C38416   9.501   2.060   8.668 -0.2996  0.1419 -1.0368
 1004MOL0     O38417   9.443   2.183   8.635 -0.8165 -0.0468 -0.3041
 1004MOL0     C38418   9.309   2.207   8.657 -0.4933 -0.4912 -0.9122
 1004MOL0     C38419   9.220   2.183   8.557  0.0892  0.4123  0.4724
 1004MOL0     C38420   9.083   2.205   8.574  0.1988  0.0501  0.0225
 1004MOL0     C38421   9.035   2.255   8.694  0.4499 -0.0430 -0.3044
 1004MOL0     O38422   8.895   2.280   8.692 -0.6313 -0.0441  0.4369
 1004MOL0     C38423   8.824   2.298   8.813 -0.3013 -0.5489 -0.0810
 1004MOL0     C38424   8.682   2.352   8.779  0.1849  0.6566  0.0090
 1004MOL0     C38425   8.614   2.254   8.676 -0.8626 -0.4313  0.1449
 1004MOL0     C38426   8.480   2.306   8.635  1.2327 -0.4172 -0.1454
 1004MOL0     C38427   8.405   2.223   8.524 -0.7129 -0.5460 -0.8192
 1004MOL0     C38428   8.270   2.289   8.494  0.8537 -0.2109 -0.7441
 1004MOL0     C38429   8.191   2.203   8.401  1.0335 -0.1909 -0.1028
 1004MOL0     C38430   8.049   2.263   8.376 -0.0084 -0.4578 -0.1659
 1004MOL0     N38431   8.062   2.398   8.316  0.1882  0.3612 -0.3837
 1004MOL0     C38432   8.122   2.440   8.191 -1.2967  0.1798 -0.5899
 1004MOL0     C38433   8.089   2.569   8.188 -0.2827 -0.6187  0.2592
 1004MOL0     C38434   8.131   2.651   8.067  0.1302 -0.0882 -0.4535
 1004MOL0     C38435   8.281   2.697   8.080  0.6989 -0.2995 -0.2266
 1004MOL0     C38436   8.307   2.791   8.211 -0.4586  0.1702 -0.8674
 1004MOL0     C38437   8.458   2.801   8.237 -0.3794 -0.3351 -0.4874
 1004MOL0     O38438   8.508   2.684   8.310  0.6491 -0.6277  1.2483
 1004MOL0     C38439   8.608   2.603   8.263 -0.1154  0.3629 -0.6346
 1004MOL0     C38440   8.608   2.463   8.255 -0.1378  0.2434 -0.1856
 1004MOL0     C38441   8.712   2.386   8.197  0.2927 -1.0443  0.8147
 1004MOL0     C38442   8.687   2.241   8.176  0.2324 -0.2102  0.1772
 1004MOL0     C38443   8.834   2.458   8.164  0.3042  0.4265 -0.1730
 1004MOL0     C38444   8.954   2.386   8.133 -0.8745  1.0030  0.0581
 1004MOL0     O38445   8.991   2.276   8.209  0.1592 -0.1534  0.3429
 1004MOL0     C38446   9.119   2.220   8.197  0.3827 -0.3178  0.4293
 1004MOL0     C38447   9.135   2.104   8.127  0.1486  0.4811  0.1242
 1004MOL0     C38448   9.259   2.049   8.095 -0.5419 -0.3791 -0.7116
 1004MOL0     C38449   9.375   2.109   8.155 -1.0051 -0.6186  0.2669
 1004MOL0     O38450   9.503   2.045   8.137 -0.3684 -0.4496  0.0778
 1004MOL0     C38451   9.504   1.905   8.104 -0.5278 -0.4494  0.7288
 1004MOL0     C38452   9.646   1.846   8.103  0.0408  0.3879  0.5208
 1004MOL0     C38453   9.737   1.859   7.981  0.0534  0.5593  0.2625
 1004MOL0     C38454   9.771   2.003   7.943  0.4466 -0.4164  0.3223
 1004MOL0     C38455   9.880   2.011   7.833 -0.8110  0.7087  0.0508
 1004MOL0     C38456  10.021   1.970   7.893  0.0786  0.2702 -0.0546
 1004MOL0     C38457  10.130   1.968   7.787 -0.1152 -0.4942  0.1837
 1004MOL0     C38458  10.258   1.937   7.846 -0.5186  0.1363  0.5711
 1004MOL0    Cl38459  10.267   1.770   7.881 -0.2792 -0.0662 -0.4897
 1004MOL0     C38460   9.354   2.223   8.242  0.1294 -0.2436  0.7394
 1004MOL0     C38461   9.231   2.282   8.261 -0.1882 -0.2866  1.0160
 1004MOL0     O38462   9.015   2.429   8.034  0.3577  0.7110 -0.1130
 1004MOL0     C38463   8.838   2.594   8.187 -0.4008 -0.5191  0.1263
 1004MOL0     C38464   8.731   2.666   8.235  0.0360 -0.0014  0.2231
 1004MOL0     N38465   8.007   2.605   8.293  0.3647 -1.0683 -0.0989
 1004MOL0     N38466   8.009   2.507   8.372  0.6894 -0.0147  0.2271
 1004MOL0     C38467   9.128   2.277   8.793  0.0618  0.6802 -0.2893
 1004MOL0     C38468   9.262   2.252   8.779 -0.2058 -0.5975 -0.4368
 1004MOL0     C38469   9.634   2.032   8.598  0.2483  0.2301  0.2238
 1004MOL0     C38470   9.654   2.082   8.470  0.2471  0.5463 -0.4867
 1004MOL0     C38471   9.767   2.049   8.382  0.4166  0.0183 -0.4134
 1004MOL0     C38472   9.860   1.960   8.437 -0.5198  0.2544 -0.0785
 1004MOL0     O38473   9.970   1.913   8.371  0.2739 -0.2704 -0.1031
 1004MOL0     C38474  10.017   1.992   8.259  0.3305  0.4618  0.0395
 1004MOL0     C38475  10.155   1.962   8.209  0.0936  1.2241  0.0646
 1004MOL0     C38476  10.257   1.986   8.322  0.2244 -0.1372 -0.0283
 1004MOL0     C38477  10.407   1.957   8.278  1.0254 -0.0112  0.0919
 1004MOL0     C38478  10.502   1.992   8.385 -0.1993  0.3106  0.2655
 1004MOL0     C38479  10.597   2.015   8.460  0.6694 -0.9010  0.3671
 1004MOL0     C38480   9.840   1.917   8.569 -1.0536 -0.3119 -1.2505
 1004MOL0     C38481   9.727   1.940   8.645 -0.0586 -1.0640 -1.0874
 1004MOL0     C38482   9.724   1.875   8.785  0.0389 -0.0070 -0.0296
 1004MOL0     H38483   9.264   2.147   8.465 -2.4329  1.8369 -1.4165
 1004MOL0     H38484   9.012   2.191   8.493  0.6804 -0.1203 -0.3739
 1004MOL0     H38485   8.883   2.374   8.866 -0.7503  0.5287 -1.0987
 1004MOL0     H38486   8.816   2.200   8.860 -2.4093 -2.3971 -3.8744
 1004MOL0     H38487   8.621   2.351   8.870 -0.5351 -0.7484 -0.4599
 1004MOL0     H38488   8.692   2.454   8.739  0.2924 -0.0073 -1.7702
 1004MOL0     H38489   8.674   2.241   8.586 -2.0430  1.7422 -1.0504
 1004MOL0     H38490   8.597   2.162   8.733  0.4474 -0.6949  0.1299
 1004MOL0     H38491   8.416   2.325   8.721  1.6702 -1.4588  0.4225
 1004MOL0     H38492   8.497   2.406   8.592 -2.3497 -0.4705 -2.1334
 1004MOL0     H38493   8.376   2.125   8.563  0.7905 -0.7787 -0.2153
 1004MOL0     H38494   8.468   2.213   8.435  0.7689 -1.0165  0.2463
 1004MOL0     H38495   8.216   2.295   8.589 -1.5811 -2.6631 -1.8680
 1004MOL0     H38496   8.271   2.394   8.463 -4.3284  1.9963  4.5513
 1004MOL0     H38497   8.182   2.105   8.450 -0.5909  0.5228  1.1163
 1004MOL0     H38498   8.239   2.184   8.304  1.3513  1.3174 -0.2670
 1004MOL0     H38499   7.985   2.206   8.308  0.8907  0.4007 -1.8097
 1004MOL0     H38500   7.996   2.268   8.472  3.3559 -0.3750  1.8483
 1004MOL0     H38501   8.173   2.393   8.108 -1.9506 -0.3964 -0.6849
 1004MOL0     H38502   8.065   2.736   8.051  2.6234  1.7000 -1.8903
 1004MOL0     H38503   8.121   2.581   7.983  0.2129 -0.6328 -0.0197
 1004MOL0     H38504   8.339   2.604   8.082 -2.1028 -2.1618  0.5825
 1004MOL0     H38505   8.306   2.763   7.996  1.0891 -1.2345 -0.8553
 1004MOL0     H38506   8.254   2.887   8.200  1.5516  1.4189 -0.1307
 1004MOL0     H38507   8.271   2.736   8.298  0.4486 -1.1434 -1.2895
 1004MOL0     H38508   8.514   2.823   8.146  0.1721  1.8990  0.3374
 1004MOL0     H38509   8.473   2.884   8.306 -0.2828 -0.8598  0.1283
 1004MOL0     H38510   8.515   2.421   8.291  0.3789  0.0075  0.9115
 1004MOL0     H38511   8.584   2.208   8.193  0.8204 -3.6672 -2.0884
 1004MOL0     H38512   8.745   2.181   8.247 -0.3348 -0.9344  0.0397
 1004MOL0     H38513   8.709   2.207   8.075  1.4478 -0.3847  0.4799
 1004MOL0     H38514   9.045   2.063   8.082  0.0626  1.5606 -0.7376
 1004MOL0     H38515   9.260   1.948   8.054 -2.0152 -0.8571  0.3342
 1004MOL0     H38516   9.442   1.867   8.185  0.6835  1.5240  2.6931
 1004MOL0     H38517   9.472   1.896   7.999  0.8139 -0.7756  0.3214
 1004MOL0     H38518   9.698   1.873   8.195 -1.5530 -2.3985  2.4221
 1004MOL0     H38519   9.633   1.738   8.116 -2.7740  0.3727 -1.4289
 1004MOL0     H38520   9.692   1.813   7.893 -0.6637  0.4039  0.6927
 1004MOL0     H38521   9.832   1.807   7.991  1.8116  2.6894 -3.3769
 1004MOL0     H38522   9.810   2.060   8.028  0.7370  1.5027 -1.0220
 1004MOL0     H38523   9.682   2.059   7.912 -0.6789 -1.6710  1.1458
 1004MOL0     H38524   9.852   1.947   7.749 -0.0736 -0.5308  0.7132
 1004MOL0     H38525   9.881   2.112   7.791 -1.5603  0.2493 -1.1223
 1004MOL0     H38526  10.019   1.874   7.944 -2.9363  0.8211  1.0296
 1004MOL0     H38527  10.048   2.047   7.965  2.0849 -0.8450  0.4641
 1004MOL0     H38528  10.145   2.071   7.754  3.8694 -0.3300  1.8893
 1004MOL0     H38529  10.099   1.898   7.708 -0.0326  0.2127 -0.4881
 1004MOL0     H38530  10.274   2.001   7.934  0.0650 -0.4916  0.9318
 1004MOL0     H38531  10.332   1.965   7.771 -0.3937  2.8898  1.5950
 1004MOL0     H38532   9.442   2.265   8.290  1.6402 -1.5652 -0.6915
 1004MOL0     H38533   9.214   2.370   8.323  1.8308  0.7174  0.2312
 1004MOL0     H38534   8.936   2.640   8.199 -0.4772  0.2065 -1.6354
 1004MOL0     H38535   8.738   2.774   8.244  2.5401 -0.0415 -0.6533
 1004MOL0     H38536   9.092   2.303   8.892 -0.3384 -2.6460  0.5587
 1004MOL0     H38537   9.329   2.271   8.862  0.5513  0.3240 -1.2290
 1004MOL0     H38538   9.589   2.149   8.415  0.0715 -1.0306 -2.3059
 1004MOL0     H38539   9.781   2.099   8.287 -0.5570 -1.4288 -1.3577
 1004MOL0     H38540   9.944   1.978   8.178  2.5361 -1.7786 -1.7060
 1004MOL0     H38541  10.008   2.097   8.286 -2.7343  0.3307 -0.0842
 1004MOL0     H38542  10.173   2.033   8.128  2.6181 -0.0132 -0.5542
 1004MOL0     H38543  10.174   1.865   8.164 -1.1958  2.4136 -3.3867
 1004MOL0     H38544  10.241   2.090   8.354 -0.5557 -0.3985  0.4516
 1004MOL0     H38545  10.249   1.922   8.409  1.0318  0.9821  0.9022
 1004MOL0     H38546  10.423   2.012   8.185  1.3003 -0.6529 -0.2448
 1004MOL0     H38547  10.422   1.855   8.243  0.8349  0.6154 -1.9408
 1004MOL0     H38548  10.678   2.028   8.529  4.0250 -1.5658 -3.1062
 1004MOL0     H38549   9.920   1.871   8.626 -2.4064  0.0810  1.0936
 1004MOL0     H38550   9.823   1.864   8.830  0.0327  0.9692  0.2597
 1004MOL0     H38551   9.673   1.936   8.860  1.4248 -3.5521  4.2289
 1004MOL0     H38552   9.675   1.778   8.779  1.9233 -1.0706  0.9423
 1005MOL0     O38553   4.242   5.613   8.671  0.1970 -0.2936 -0.2994
 1005MOL0     C38554   4.263   5.734   8.650  0.5130  0.1883 -0.4360
 1005MOL0     O38555   4.379   5.789   8.597 -0.1191 -0.0361 -0.5441
 1005MOL0     C38556   4.490   5.703   8.594 -0.8825 -0.9900 -1.1079
 1005MOL0     C38557   4.500   5.583   8.518  0.2037  0.7410  0.4482
 1005MOL0     C38558   4.621   5.511   8.507  0.2259  0.4364  0.6814
 1005MOL0     C38559   4.734   5.550   8.565  0.2104  0.0751 -0.4112
 1005MOL0     O38560   4.849   5.471   8.537 -0.4120  0.2768  0.4570
 1005MOL0     C38561   4.984   5.524   8.565  0.2771  0.2555 -0.5798
 1005MOL0     C38562   5.090   5.414   8.572  0.4798 -0.6589  0.2371
 1005MOL0     C38563   5.116   5.353   8.425  0.0215  0.3894  0.1775
 1005MOL0     C38564   5.249   5.278   8.431  0.3113 -0.1596 -0.1389
 1005MOL0     C38565   5.286   5.189   8.308  0.1600 -0.4618  0.5934
 1005MOL0     C38566   5.311   5.280   8.196  0.3276  0.6889  0.8129
 1005MOL0     C38567   5.334   5.211   8.057  0.8917  0.0110 -0.7849
 1005MOL0     C38568   5.454   5.112   8.056 -0.1054 -0.8622  0.3167
 1005MOL0     N38569   5.582   5.183   8.086  0.3570  0.0818  0.4138
 1005MOL0     C38570   5.650   5.163   8.199 -0.0399 -0.6346  0.8658
 1005MOL0     C38571   5.744   5.263   8.194  0.5168 -0.2043  0.3153
 1005MOL0     C38572   5.853   5.307   8.285  0.2599 -0.4239  0.0334
 1005MOL0     C38573   5.991   5.274   8.223 -0.3627 -0.0670  0.5155
 1005MOL0     C38574   6.116   5.308   8.312  0.1998  0.8819 -0.5418
 1005MOL0     C38575   6.249   5.300   8.222  0.3271  0.1995  0.2141
 1005MOL0     O38576   6.260   5.422   8.153  0.0390  0.1578  0.1236
 1005MOL0     C38577   6.373   5.437   8.078  0.1983 -0.5147 -0.5795
 1005MOL0     C38578   6.399   5.575   8.049  0.3141  0.5544 -0.6236
 1005MOL0     C38579   6.517   5.606   7.976 -0.3218  0.4492 -0.3541
 1005MOL0     C38580   6.536   5.751   7.933  0.7604  0.2306  0.0037
 1005MOL0     C38581   6.615   5.503   7.951 -0.4956  0.1379 -0.2818
 1005MOL0     C38582   6.728   5.517   7.862 -0.1302  0.5995 -0.6334
 1005MOL0     O38583   6.743   5.635   7.794  0.4528 -0.4184  0.1892
 1005MOL0     C38584   6.850   5.652   7.703  0.2101 -0.3718 -0.8155
 1005MOL0     C38585   6.983   5.639   7.752  0.5560 -0.2477  0.3825
 1005MOL0     C38586   7.093   5.644   7.664  0.3801 -1.1165 -0.6464
 1005MOL0     C38587   7.068   5.662   7.523  0.1850 -0.5183 -0.0208
 1005MOL0     O38588   7.173   5.675   7.433 -0.2250  0.1220 -0.1564
 1005MOL0     C38589   7.172   5.579   7.330 -0.3873 -0.3925  0.1348
 1005MOL0     C38590   7.321   5.555   7.294  0.4965 -0.4345  0.1068
 1005MOL0     C38591   7.330   5.421   7.216  0.6594 -1.0435 -0.7206
 1005MOL0     C38592   7.479   5.384   7.181  0.7564  0.0157  0.4317
 1005MOL0     C38593   7.527   5.456   7.049 -0.2196 -0.2959  0.0668
 1005MOL0     C38594   7.684   5.476   7.038  1.2983 -0.2487  0.0453
 1005MOL0     C38595   7.732   5.564   7.153  0.1157 -0.4986 -0.0304
 1005MOL0     C38596   7.882   5.604   7.129  0.2599 -0.5134 -0.4899
 1005MOL0    Cl38597   7.983   5.466   7.114  0.4812 -0.3242  0.4404
 1005MOL0     C38598   6.930   5.675   7.483 -0.0549 -0.8367  0.1161
 1005MOL0     C38599   6.825   5.661   7.571 -0.0610 -0.1225 -0.3613
 1005MOL0     O38600   6.799   5.420   7.841 -0.1422 -0.1750  0.5599
 1005MOL0     C38601   6.580   5.372   7.991  0.0603 -0.4704 -0.3942
 1005MOL0     C38602   6.457   5.331   8.039 -0.3503 -0.1213  0.4309
 1005MOL0     N38603   5.722   5.331   8.075  0.7034  0.1077 -0.3548
 1005MOL0     N38604   5.634   5.274   8.002  0.4310 -0.1728  0.1484
 1005MOL0     C38605   4.732   5.677   8.633  0.0061  0.4292 -1.1353
 1005MOL0     C38606   4.606   5.748   8.652  0.8483  0.4990  0.7167
 1005MOL0     C38607   4.148   5.822   8.648  0.1080  0.7283 -1.1300
 1005MOL0     C38608   4.137   5.916   8.541 -0.1016  0.9006  0.1763
 1005MOL0     C38609   4.023   5.996   8.535 -0.5452  1.2294  0.5330
 1005MOL0     C38610   3.924   5.992   8.630 -0.0028 -0.2041 -0.2475
 1005MOL0     O38611   3.808   6.064   8.636  0.1386 -0.4536 -0.3123
 1005MOL0     C38612   3.785   6.185   8.553 -0.2659 -0.8946  0.4032
 1005MOL0     C38613   3.644   6.241   8.543 -0.6398  0.4192  0.1816
 1005MOL0     C38614   3.545   6.131   8.518 -0.3356  0.2949 -0.8022
 1005MOL0     C38615   3.404   6.189   8.472 -0.2994  0.3875 -0.4374
 1005MOL0     C38616   3.293   6.120   8.525  0.2226  0.9389  0.6216
 1005MOL0     C38617   3.180   6.075   8.551  0.2885 -0.5644 -0.2603
 1005MOL0     C38618   3.940   5.912   8.742  0.3826 -0.2861 -0.0052
 1005MOL0     C38619   4.044   5.824   8.753 -0.3797  0.4949 -0.0459
 1005MOL0     C38620   4.066   5.746   8.878  0.0823 -0.1955  0.1929
 1005MOL0     H38621   4.404   5.546   8.482  0.1277  0.5660  0.8283
 1005MOL0     H38622   4.625   5.421   8.447  0.9584 -1.2767  3.1521
 1005MOL0     H38623   4.973   5.572   8.663  1.0348 -1.3009  0.3071
 1005MOL0     H38624   5.019   5.596   8.491 -0.0044  0.2845 -0.6859
 1005MOL0     H38625   5.181   5.458   8.615  0.1876  0.5489 -0.3323
 1005MOL0     H38626   5.050   5.332   8.632 -3.9819  0.9627 -0.1980
 1005MOL0     H38627   5.034   5.283   8.408  1.5577 -0.6745 -4.2362
 1005MOL0     H38628   5.121   5.429   8.347  3.0277  0.5301  0.3890
 1005MOL0     H38629   5.330   5.351   8.444 -1.2368  1.5100  0.4360
 1005MOL0     H38630   5.251   5.208   8.515  0.5989 -0.1039 -0.0989
 1005MOL0     H38631   5.205   5.121   8.279 -0.4173  0.6890 -0.6100
 1005MOL0     H38632   5.372   5.124   8.320  0.3578 -0.6574 -1.5531
 1005MOL0     H38633   5.226   5.348   8.185  1.7427  2.1766 -2.0109
 1005MOL0     H38634   5.395   5.344   8.225  1.4599 -0.0653 -0.6629
 1005MOL0     H38635   5.355   5.296   7.991  3.0890  0.5843  0.5471
 1005MOL0     H38636   5.242   5.161   8.024  0.5837 -1.4852  2.0411
 1005MOL0     H38637   5.436   5.033   8.128  0.8979 -2.8284 -1.4744
 1005MOL0     H38638   5.449   5.071   7.955 -4.2515  1.2722 -0.5402
 1005MOL0     H38639   5.628   5.094   8.280 -2.3217  0.1710  1.0302
 1005MOL0     H38640   5.842   5.254   8.379  0.0836 -1.6424 -0.6563
 1005MOL0     H38641   5.840   5.414   8.307  1.0637  0.7543 -4.1598
 1005MOL0     H38642   5.996   5.167   8.200  0.0150 -0.0478  0.4982
 1005MOL0     H38643   6.005   5.334   8.133 -0.2874 -1.1092 -0.1855
 1005MOL0     H38644   6.123   5.408   8.356  2.6110  0.4350  0.2571
 1005MOL0     H38645   6.110   5.239   8.397  1.8832  1.6310  0.2440
 1005MOL0     H38646   6.333   5.293   8.293 -1.1668  0.0436  2.0579
 1005MOL0     H38647   6.247   5.213   8.156  0.9328  0.3970 -0.0682
 1005MOL0     H38648   6.341   5.661   8.080  2.4618  1.1209  2.3692
 1005MOL0     H38649   6.463   5.819   7.979  1.2153  0.3611  0.5441
 1005MOL0     H38650   6.539   5.761   7.824  1.3281  1.7502  0.1317
 1005MOL0     H38651   6.631   5.796   7.964  0.2649  2.6010 -1.5973
 1005MOL0     H38652   7.004   5.611   7.854  1.1576  1.2607  0.7055
 1005MOL0     H38653   7.197   5.639   7.696  0.4655  2.3174  0.0594
 1005MOL0     H38654   7.120   5.489   7.362  1.0086 -1.2543  0.0275
 1005MOL0     H38655   7.128   5.623   7.240  0.8125 -1.0633 -0.8030
 1005MOL0     H38656   7.367   5.637   7.237  1.6603  0.6560  2.4874
 1005MOL0     H38657   7.383   5.550   7.384 -0.1836  2.7393  0.8641
 1005MOL0     H38658   7.271   5.446   7.128  0.0182  0.0703 -0.0070
 1005MOL0     H38659   7.282   5.349   7.283 -3.0976  2.4372  0.7837
 1005MOL0     H38660   7.492   5.278   7.156 -4.0302 -0.9027  0.8811
 1005MOL0     H38661   7.536   5.422   7.266  0.1362 -0.3250  1.0098
 1005MOL0     H38662   7.494   5.399   6.962 -0.5477 -1.2025  0.7667
 1005MOL0     H38663   7.479   5.554   7.037 -0.6582 -0.7124 -1.8846
 1005MOL0     H38664   7.703   5.518   6.939  2.5844 -1.8909 -0.4625
 1005MOL0     H38665   7.741   5.382   7.037  2.4239  0.4077  0.7282
 1005MOL0     H38666   7.733   5.510   7.248  1.3663  0.2917  0.4290
 1005MOL0     H38667   7.673   5.656   7.162 -0.7276 -0.9399 -0.9271
 1005MOL0     H38668   7.916   5.654   7.220 -0.3042  1.0788 -1.1222
 1005MOL0     H38669   7.893   5.670   7.043 -2.8929  0.1819 -0.5033
 1005MOL0     H38670   6.905   5.684   7.378 -0.8751 -2.7283  0.1125
 1005MOL0     H38671   6.722   5.666   7.540 -0.0151  1.3523 -0.3722
 1005MOL0     H38672   6.652   5.294   7.967  1.2103  0.0610  1.2036
 1005MOL0     H38673   6.425   5.228   8.052 -2.5289  0.7342  2.6299
 1005MOL0     H38674   4.815   5.724   8.684 -1.2184  1.5001 -0.0716
 1005MOL0     H38675   4.618   5.847   8.694 -1.2385  1.3950 -0.6982
 1005MOL0     H38676   4.200   5.927   8.453 -0.2065  1.3002  0.1477
 1005MOL0     H38677   4.016   6.063   8.449 -0.2499 -0.6469 -1.0275
 1005MOL0     H38678   3.852   6.267   8.580  2.2219 -3.0059  1.0410
 1005MOL0     H38679   3.805   6.153   8.451  1.0428  0.5899  0.1530
 1005MOL0     H38680   3.637   6.326   8.474 -1.4899  1.9397  2.0459
 1005MOL0     H38681   3.626   6.294   8.637  0.2289  0.6572  0.2206
 1005MOL0     H38682   3.588   6.069   8.439  1.3942  0.5987 -0.1331
 1005MOL0     H38683   3.529   6.066   8.605  0.6892  2.1932  0.8945
 1005MOL0     H38684   3.386   6.177   8.365  0.9400  0.9680 -0.7180
 1005MOL0     H38685   3.407   6.295   8.498  1.0288  1.1453 -3.3976
 1005MOL0     H38686   3.082   6.033   8.566 -0.6293  1.5943  0.0936
 1005MOL0     H38687   3.858   5.912   8.813  0.7668 -2.9313  0.5236
 1005MOL0     H38688   3.988   5.760   8.953 -0.3681 -1.2037 -0.0661
 1005MOL0     H38689   4.051   5.642   8.849  0.2233  0.0715 -0.8839
 1005MOL0     H38690   4.165   5.764   8.921 -0.1139  0.2043  0.4819
 1006MOL0     O38691   2.990   3.616   1.806  0.1460 -0.9041  0.7546
 1006MOL0     C38692   2.946   3.509   1.759 -0.1699  0.2934  0.0886
 1006MOL0     O38693   3.015   3.418   1.682 -0.3948  0.4627 -0.9045
 1006MOL0     C38694   3.133   3.468   1.624  0.0248  0.5712 -0.0145
 1006MOL0     C38695   3.252   3.483   1.689  0.5211  0.2727  1.0625
 1006MOL0     C38696   3.366   3.536   1.620 -0.0023  0.9008 -0.1138
 1006MOL0     C38697   3.357   3.544   1.486  0.2576 -0.7163 -0.6346
 1006MOL0     O38698   3.464   3.585   1.406  0.2707 -0.0309 -0.1831
 1006MOL0     C38699   3.595   3.562   1.463  0.8580  0.8051  0.2165
 1006MOL0     C38700   3.702   3.597   1.350 -0.4431  0.7576  0.4868
 1006MOL0     C38701   3.838   3.610   1.422 -0.5681 -0.5422 -0.6851
 1006MOL0     C38702   3.897   3.475   1.447 -0.5861  0.0425 -0.4834
 1006MOL0     C38703   4.043   3.476   1.501  0.0050  0.1150  0.1690
 1006MOL0     C38704   4.102   3.330   1.528 -0.1453 -0.7331  0.0214
 1006MOL0     C38705   4.123   3.241   1.408 -0.8847  0.0688  0.5233
 1006MOL0     C38706   4.205   3.280   1.288 -0.4289 -0.5072 -0.1081
 1006MOL0     N38707   4.335   3.327   1.330  0.2584 -0.6399  0.3204
 1006MOL0     C38708   4.446   3.256   1.313  0.6467  0.0311  1.3462
 1006MOL0     C38709   4.547   3.343   1.341 -0.3008  0.1190  0.0075
 1006MOL0     C38710   4.696   3.325   1.338 -0.5028  0.3773 -0.7417
 1006MOL0     C38711   4.737   3.302   1.192 -0.3075  0.3389  0.2292
 1006MOL0     C38712   4.867   3.227   1.183 -0.0203  0.6717  0.3393
 1006MOL0     C38713   4.994   3.298   1.241  0.6764 -0.4734  0.5055
 1006MOL0     O38714   5.024   3.403   1.147  0.2112 -0.2179 -0.3449
 1006MOL0     C38715   5.144   3.476   1.144  0.5195  0.2366  0.5655
 1006MOL0     C38716   5.263   3.440   1.215  0.3578  0.6906 -0.1049
 1006MOL0     C38717   5.381   3.509   1.209  0.0483 -0.0088  0.6302
 1006MOL0     C38718   5.487   3.457   1.300 -0.3749 -0.3399  0.3176
 1006MOL0     C38719   5.401   3.618   1.115 -0.2636 -0.0524  0.4834
 1006MOL0     C38720   5.531   3.688   1.088  0.2014  0.1554 -0.5019
 1006MOL0     O38721   5.638   3.608   1.099 -0.6658 -0.1052 -0.3697
 1006MOL0     C38722   5.763   3.669   1.085 -0.2244 -0.8967 -0.4270
 1006MOL0     C38723   5.839   3.714   1.200  0.1820 -0.7758  0.7035
 1006MOL0     C38724   5.972   3.761   1.176  0.2184 -0.5447  0.1979
 1006MOL0     C38725   6.027   3.763   1.050  0.4138  0.1597 -0.0435
 1006MOL0     O38726   6.157   3.812   1.027 -0.2892 -0.3047 -0.0912
 1006MOL0     C38727   6.249   3.704   1.015  0.6359 -0.0498  0.5293
 1006MOL0     C38728   6.288   3.641   1.147  0.6251 -0.6240 -0.7336
 1006MOL0     C38729   6.344   3.735   1.253  0.9844  0.0784  0.3454
 1006MOL0     C38730   6.324   3.693   1.403 -0.9072 -0.7124 -0.2715
 1006MOL0     C38731   6.346   3.815   1.497  0.6552  1.0219 -0.6432
 1006MOL0     C38732   6.344   3.786   1.649  0.1257  0.2631 -0.1434
 1006MOL0     C38733   6.466   3.706   1.688 -0.0464  0.5004 -0.2743
 1006MOL0     C38734   6.499   3.698   1.848 -0.0230 -0.0488 -0.2855
 1006MOL0    Cl38735   6.344   3.618   1.918  0.2480 -0.0862 -0.0768
 1006MOL0     C38736   5.943   3.725   0.944 -0.2711  0.0614 -0.3695
 1006MOL0     C38737   5.813   3.673   0.960  0.0127  0.3378 -0.4474
 1006MOL0     O38738   5.534   3.799   1.042  0.2703  0.0051  0.0107
 1006MOL0     C38739   5.288   3.650   1.044  0.2834  0.2726  0.2375
 1006MOL0     C38740   5.165   3.580   1.057  0.0056  0.7815 -0.8136
 1006MOL0     N38741   4.486   3.463   1.371  0.2337 -0.1777 -0.2065
 1006MOL0     N38742   4.360   3.455   1.364  0.4383 -0.5092  0.4103
 1006MOL0     C38743   3.234   3.532   1.420 -0.3239  0.6707 -0.0989
 1006MOL0     C38744   3.128   3.488   1.489 -0.8421  0.0125 -0.3031
 1006MOL0     C38745   2.810   3.468   1.778 -0.3934 -0.4932  0.3473
 1006MOL0     C38746   2.738   3.402   1.677 -0.4168  0.1610  0.7119
 1006MOL0     C38747   2.604   3.366   1.691 -1.1141 -0.0904  0.6255
 1006MOL0     C38748   2.542   3.387   1.822  0.5312 -0.1245 -0.5575
 1006MOL0     O38749   2.405   3.367   1.834 -0.7742  0.2168 -0.1403
 1006MOL0     C38750   2.347   3.335   1.960  0.9469  0.0922 -0.0112
 1006MOL0     C38751   2.280   3.466   2.010  1.0983 -0.2006 -0.3859
 1006MOL0     C38752   2.156   3.500   1.922  1.1768  0.8418 -0.6412
 1006MOL0     C38753   2.103   3.643   1.930 -0.5853  0.3192 -0.4698
 1006MOL0     C38754   2.038   3.685   1.801 -0.3850  0.4271 -0.2011
 1006MOL0     C38755   2.004   3.713   1.691  0.3072 -0.4371  0.1538
 1006MOL0     C38756   2.612   3.451   1.923 -0.9808 -0.3691  0.8594
 1006MOL0     C38757   2.745   3.485   1.900 -0.3871  0.3266  0.5931
 1006MOL0     C38758   2.814   3.543   2.015  0.5192 -0.2794  0.8815
 1006MOL0     H38759   3.261   3.485   1.797  0.0422  2.7104  1.1210
 1006MOL0     H38760   3.458   3.556   1.675  0.3411  1.6069 -0.9355
 1006MOL0     H38761   3.607   3.459   1.496 -1.2772  0.7273  0.8702
 1006MOL0     H38762   3.618   3.622   1.552  0.3045 -1.0760  1.6924
 1006MOL0     H38763   3.700   3.520   1.273  0.0094  0.7986  0.4308
 1006MOL0     H38764   3.687   3.697   1.308  1.3690 -0.0183 -2.3201
 1006MOL0     H38765   3.896   3.666   1.348 -0.7555  2.0804  0.9948
 1006MOL0     H38766   3.841   3.675   1.511 -1.5265  2.0238 -2.4040
 1006MOL0     H38767   3.839   3.422   1.523  0.3975  0.5608  0.6546
 1006MOL0     H38768   3.904   3.417   1.355 -0.4780 -0.8246  0.0668
 1006MOL0     H38769   4.049   3.532   1.595 -1.0861  1.8526 -0.7538
 1006MOL0     H38770   4.116   3.516   1.431  0.8336 -0.2169  0.8235
 1006MOL0     H38771   4.197   3.350   1.579 -0.4127 -0.3613  0.3825
 1006MOL0     H38772   4.028   3.278   1.589 -1.5834  0.5976 -0.5205
 1006MOL0     H38773   4.030   3.214   1.357  0.9700 -1.5959 -2.2506
 1006MOL0     H38774   4.166   3.146   1.443  1.9191  1.0830  0.1358
 1006MOL0     H38775   4.209   3.187   1.230 -0.0403 -0.7466  0.2956
 1006MOL0     H38776   4.162   3.364   1.234  1.5303  0.0870 -0.8264
 1006MOL0     H38777   4.450   3.155   1.275  2.1692  0.1990  0.9843
 1006MOL0     H38778   4.728   3.242   1.402 -2.3456 -0.4637 -0.8270
 1006MOL0     H38779   4.753   3.410   1.376 -2.3393  1.3240  0.0582
 1006MOL0     H38780   4.654   3.254   1.140 -0.1703  0.1207  0.2086
 1006MOL0     H38781   4.747   3.397   1.140 -1.5534 -0.7243 -2.0880
 1006MOL0     H38782   4.849   3.133   1.236  2.0605  1.4060  2.5329
 1006MOL0     H38783   4.884   3.201   1.078 -0.6254 -3.6179  1.1123
 1006MOL0     H38784   4.977   3.337   1.341 -3.0315  3.3062 -1.2936
 1006MOL0     H38785   5.079   3.228   1.244  0.7078 -0.4043  1.7694
 1006MOL0     H38786   5.274   3.344   1.265  0.9704  0.4322 -0.7163
 1006MOL0     H38787   5.464   3.362   1.350 -1.7018 -0.5670 -0.6925
 1006MOL0     H38788   5.510   3.528   1.380  0.6358  1.5786 -1.5781
 1006MOL0     H38789   5.574   3.436   1.237 -0.7580 -0.8388 -0.0580
 1006MOL0     H38790   5.807   3.700   1.303 -0.2919  1.4367  0.9156
 1006MOL0     H38791   6.038   3.804   1.250 -2.2797 -0.0688  2.3062
 1006MOL0     H38792   6.206   3.625   0.952 -0.0514  0.0609  0.8464
 1006MOL0     H38793   6.327   3.750   0.954 -1.6906  0.1903 -2.5338
 1006MOL0     H38794   6.201   3.598   1.197 -0.2479  2.2569  0.4341
 1006MOL0     H38795   6.353   3.556   1.124 -0.4281 -0.5295 -5.0725
 1006MOL0     H38796   6.298   3.834   1.241 -0.4900 -0.4832  1.1378
 1006MOL0     H38797   6.452   3.744   1.238  1.4689 -3.8764  0.4333
 1006MOL0     H38798   6.389   3.611   1.434  0.3106  0.8687  1.6279
 1006MOL0     H38799   6.225   3.649   1.421  0.2006 -2.2431  2.7198
 1006MOL0     H38800   6.438   3.871   1.480  2.1015 -1.7628 -2.8925
 1006MOL0     H38801   6.265   3.887   1.481 -0.5613 -0.2623 -0.5465
 1006MOL0     H38802   6.250   3.736   1.674 -0.9250  1.7212 -1.0132
 1006MOL0     H38803   6.346   3.877   1.710  3.6728 -0.4872  1.1224
 1006MOL0     H38804   6.553   3.744   1.634  0.3672 -2.0299 -1.5516
 1006MOL0     H38805   6.440   3.604   1.657 -1.3201  0.2002  1.5874
 1006MOL0     H38806   6.510   3.799   1.889 -1.7165 -0.2327  0.7017
 1006MOL0     H38807   6.592   3.646   1.872  0.9163  1.2358 -1.0295
 1006MOL0     H38808   5.995   3.718   0.848  1.4491 -0.6001  0.5677
 1006MOL0     H38809   5.751   3.650   0.874 -2.1115  0.3940  0.9828
 1006MOL0     H38810   5.295   3.728   0.969  0.9271 -0.4929 -0.5232
 1006MOL0     H38811   5.082   3.617   0.998  1.4578  2.1179 -2.1351
 1006MOL0     H38812   3.235   3.536   1.312 -0.4086 -0.4529 -0.1518
 1006MOL0     H38813   3.035   3.458   1.442 -0.8767 -1.3615  0.5794
 1006MOL0     H38814   2.788   3.397   1.581 -1.9127  1.3043 -0.1818
 1006MOL0     H38815   2.544   3.323   1.611 -0.6407  1.6275 -0.7370
 1006MOL0     H38816   2.270   3.257   1.958  0.8794  0.1643 -1.0532
 1006MOL0     H38817   2.415   3.314   2.043  0.1561 -0.2118  0.5666
 1006MOL0     H38818   2.347   3.553   2.009  0.4910  0.2977 -2.1063
 1006MOL0     H38819   2.240   3.449   2.110  3.2063  0.4843  0.6414
 1006MOL0     H38820   2.157   3.464   1.819 -1.0356 -1.8805  0.1533
 1006MOL0     H38821   2.080   3.427   1.953 -0.4273  2.6547 -0.0737
 1006MOL0     H38822   2.191   3.705   1.952  2.0429 -3.4577  0.6591
 1006MOL0     H38823   2.029   3.648   2.010 -1.8897  0.7867 -1.6705
 1006MOL0     H38824   1.977   3.747   1.593 -2.5273 -1.1107  0.6169
 1006MOL0     H38825   2.574   3.482   2.020  0.7345  1.2155  1.0903
 1006MOL0     H38826   2.768   3.509   2.108 -1.5204 -1.5648 -0.5102
 1006MOL0     H38827   2.918   3.509   2.008  0.5209 -0.3191  1.0904
 1006MOL0     H38828   2.802   3.652   2.009 -2.5449 -0.3867  2.9149
 1007MOL0     O38829   8.261   7.469   6.110 -0.3930  0.2148 -0.3163
 1007MOL0     C38830   8.277   7.393   6.017  0.0366 -0.4353  0.1392
 1007MOL0     O38831   8.371   7.293   6.002 -0.2695  0.2578 -1.1210
 1007MOL0     C38832   8.463   7.251   6.092 -0.4151  0.2741  0.4525
 1007MOL0     C38833   8.515   7.123   6.084  0.0235  0.4014  0.3197
 1007MOL0     C38834   8.615   7.076   6.168  0.6591 -0.1634  0.8090
 1007MOL0     C38835   8.663   7.148   6.269 -0.2579  0.3901  0.2003
 1007MOL0     O38836   8.742   7.100   6.371 -0.4580  0.1273  0.2216
 1007MOL0     C38837   8.886   7.082   6.338  0.3145  0.6093  0.7780
 1007MOL0     C38838   8.957   7.208   6.308  0.6701  0.4472 -0.2409
 1007MOL0     C38839   9.093   7.184   6.259  0.7086 -0.9112 -0.7251
 1007MOL0     C38840   9.191   7.142   6.378 -0.7486 -0.5633  0.1983
 1007MOL0     C38841   9.336   7.104   6.318  0.8423  0.0978 -0.0356
 1007MOL0     C38842   9.451   7.151   6.415  0.6382  0.0940  0.1330
 1007MOL0     C38843   9.593   7.106   6.371  0.1498 -0.0086  0.5980
 1007MOL0     C38844   9.611   6.953   6.387  0.3316  0.0857 -0.4541
 1007MOL0     N38845   9.748   6.908   6.404 -0.3632 -0.5784  0.4537
 1007MOL0     C38846   9.829   6.949   6.507 -0.8730 -0.9509 -0.3589
 1007MOL0     C38847   9.956   6.905   6.475 -0.0835 -0.7577 -0.5594
 1007MOL0     C38848  10.081   6.913   6.556 -0.0675  0.1604 -0.2774
 1007MOL0     C38849  10.166   6.777   6.545  0.6225 -0.4855 -0.2272
 1007MOL0     C38850  10.252   6.764   6.672 -0.9785  0.1625  0.1333
 1007MOL0     C38851  10.394   6.805   6.648  0.2634 -0.0133 -0.1423
 1007MOL0     O38852  10.465   6.818   6.769 -0.3742  0.1290  0.0370
 1007MOL0     C38853  10.586   6.885   6.764  0.7006 -0.3444  0.2708
 1007MOL0     C38854  10.651   6.897   6.888 -0.0853 -0.8873  0.2943
 1007MOL0     C38855  10.779   6.955   6.899 -0.0783 -0.1611  0.4488
 1007MOL0     C38856  10.839   6.941   7.032  0.7224  0.1602 -0.0324
 1007MOL0     C38857  10.851   6.997   6.782 -1.1274 -0.0527  0.4494
 1007MOL0     C38858  10.986   7.059   6.783 -0.4241 -0.7231 -0.0467
 1007MOL0     O38859  11.039   7.081   6.658 -0.0865  0.1228  0.5876
 1007MOL0     C38860  11.165   7.141   6.658 -0.1317  0.2039 -0.8877
 1007MOL0     C38861  11.276   7.060   6.618  0.2869  0.8262  0.4663
 1007MOL0     C38862  11.403   7.100   6.635 -0.7381  0.4639  0.9889
 1007MOL0     C38863  11.435   7.226   6.682  0.3768  0.1528 -0.3899
 1007MOL0     O38864  11.567   7.253   6.686  1.1303  0.5005 -0.7152
 1007MOL0     C38865  11.610   7.385   6.705 -0.3294  0.4891 -0.2304
 1007MOL0     C38866  11.756   7.400   6.669 -1.3610 -0.2185  0.3843
 1007MOL0     C38867  11.848   7.320   6.769  0.3335  0.1016 -0.6534
 1007MOL0     C38868  11.992   7.307   6.714 -0.1536  0.3886  0.2503
 1007MOL0     C38869  12.063   7.203   6.808 -0.1388 -1.1019  0.0595
 1007MOL0     C38870  12.218   7.212   6.775 -0.1539  0.4780 -0.5994
 1007MOL0     C38871  12.283   7.102   6.861 -0.0247  0.2362 -0.4718
 1007MOL0     C38872  12.423   7.063   6.810  0.4895  0.4035 -0.9021
 1007MOL0    Cl38873  12.476   6.921   6.901 -0.0832  0.0875  0.0066
 1007MOL0     C38874  11.328   7.313   6.707 -0.3525 -0.5496 -0.9825
 1007MOL0     C38875  11.194   7.268   6.697  0.0442 -0.3892 -0.4130
 1007MOL0     O38876  11.031   7.098   6.891  0.6774  0.0076 -0.4643
 1007MOL0     C38877  10.781   6.976   6.657 -0.3635  0.2181 -0.6033
 1007MOL0     C38878  10.654   6.922   6.645  0.6075 -0.0529 -0.7170
 1007MOL0     N38879   9.943   6.832   6.354 -0.0954 -0.1770  0.6520
 1007MOL0     N38880   9.822   6.843   6.311  0.3610  0.5039  0.1702
 1007MOL0     C38881   8.623   7.287   6.280  0.0590  0.6816  0.6710
 1007MOL0     C38882   8.523   7.337   6.191 -0.8206 -0.0371  0.1588
 1007MOL0     C38883   8.200   7.421   5.899  0.6345 -0.2955 -0.4269
 1007MOL0     C38884   8.165   7.554   5.877 -0.2582 -0.1960 -0.3238
 1007MOL0     C38885   8.108   7.593   5.759  0.7448  0.4363 -0.2392
 1007MOL0     C38886   8.100   7.509   5.648 -0.1729 -0.0950  1.3243
 1007MOL0     O38887   8.067   7.540   5.522  0.6612 -0.7225 -0.1752
 1007MOL0     C38888   8.036   7.680   5.495  0.1740  0.1812  0.2641
 1007MOL0     C38889   7.959   7.684   5.364  0.8757 -0.3085 -0.6985
 1007MOL0     C38890   7.799   7.693   5.366 -0.0780 -0.6322  0.1669
 1007MOL0     C38891   7.742   7.564   5.431 -0.2026 -0.9784  0.9472
 1007MOL0     C38892   7.598   7.567   5.423  0.6561  0.2134 -0.4589
 1007MOL0     C38893   7.475   7.558   5.415 -0.2836  0.0456  0.3094
 1007MOL0     C38894   8.123   7.377   5.668  0.3127  0.4265  0.5073
 1007MOL0     C38895   8.176   7.328   5.797  0.0170  0.1144 -0.5109
 1007MOL0     C38896   8.211   7.183   5.800  0.0207  0.2140 -0.6018
 1007MOL0     H38897   8.495   7.061   5.997 -0.8662 -1.3908  1.7373
 1007MOL0     H38898   8.646   6.976   6.143 -0.2016  0.2806 -2.3944
 1007MOL0     H38899   8.877   7.014   6.253  0.1443  0.1661  1.1479
 1007MOL0     H38900   8.929   7.024   6.421  2.0818  2.7427  1.4477
 1007MOL0     H38901   8.901   7.253   6.225 -1.0986 -1.8109 -0.3571
 1007MOL0     H38902   8.951   7.281   6.390  2.9380  0.7111 -0.2431
 1007MOL0     H38903   9.091   7.113   6.176  1.5009 -2.4580  0.5237
 1007MOL0     H38904   9.131   7.278   6.217  1.0740 -0.0868  1.3414
 1007MOL0     H38905   9.199   7.231   6.441  2.2570 -0.9859  0.5449
 1007MOL0     H38906   9.144   7.061   6.434 -1.1919  1.1841  2.4783
 1007MOL0     H38907   9.367   7.143   6.221  2.0012  0.6363  0.5267
 1007MOL0     H38908   9.332   6.995   6.305 -2.9330  0.0342  0.5866
 1007MOL0     H38909   9.447   7.260   6.414 -2.4498  0.0729 -1.4406
 1007MOL0     H38910   9.418   7.116   6.513 -1.8702 -1.4416 -1.1484
 1007MOL0     H38911   9.663   7.155   6.440 -4.2193  2.8984  3.5135
 1007MOL0     H38912   9.617   7.131   6.268  1.0197 -1.3579  0.4485
 1007MOL0     H38913   9.551   6.915   6.470  0.2606  1.0793 -0.0392
 1007MOL0     H38914   9.572   6.899   6.301  0.0442  0.3186 -0.4712
 1007MOL0     H38915   9.799   7.000   6.598  0.6100 -2.1346  0.8554
 1007MOL0     H38916  10.049   6.917   6.661  1.9753 -2.0692  0.5492
 1007MOL0     H38917  10.143   6.999   6.530 -1.7963  1.8882  0.9763
 1007MOL0     H38918  10.094   6.695   6.543  0.5841 -0.4502 -1.8091
 1007MOL0     H38919  10.227   6.775   6.454  0.7529 -1.9724 -0.1260
 1007MOL0     H38920  10.208   6.836   6.742 -1.4022  3.1819 -2.9517
 1007MOL0     H38921  10.261   6.661   6.709 -1.3831 -0.7438 -2.1310
 1007MOL0     H38922  10.442   6.743   6.571 -0.5764 -1.9264  0.7895
 1007MOL0     H38923  10.389   6.908   6.613  3.2845  1.3706  2.9175
 1007MOL0     H38924  10.599   6.851   6.972  1.1488 -1.1140  0.9577
 1007MOL0     H38925  10.832   7.042   7.073 -1.5286  0.1206 -0.2017
 1007MOL0     H38926  10.943   6.907   7.042  0.9361  1.1587  1.6482
 1007MOL0     H38927  10.779   6.878   7.099  0.0716 -0.3542 -1.0719
 1007MOL0     H38928  11.254   6.957   6.595 -0.6477  1.4552 -1.6956
 1007MOL0     H38929  11.477   7.022   6.624 -0.2004  0.5440  3.4759
 1007MOL0     H38930  11.567   7.447   6.626  0.0493  1.5763  0.4065
 1007MOL0     H38931  11.582   7.421   6.804 -5.3424  2.5559 -2.0426
 1007MOL0     H38932  11.768   7.358   6.569  5.2781  2.2343 -0.3060
 1007MOL0     H38933  11.785   7.506   6.669  1.4214 -0.8739 -1.2163
 1007MOL0     H38934  11.794   7.227   6.787 -1.4369  1.1721 -0.1399
 1007MOL0     H38935  11.854   7.369   6.867  0.7680  0.4870 -0.8653
 1007MOL0     H38936  12.044   7.403   6.721 -0.6144  0.6190  0.5689
 1007MOL0     H38937  11.993   7.274   6.610 -0.0419 -0.7857  0.6124
 1007MOL0     H38938  12.053   7.237   6.912 -0.5827  0.4103 -0.4627
 1007MOL0     H38939  12.024   7.103   6.787  0.8235 -1.3188 -0.7581
 1007MOL0     H38940  12.262   7.307   6.804  1.8774 -0.6097  0.0882
 1007MOL0     H38941  12.250   7.198   6.671  0.7672  2.1048 -0.5540
 1007MOL0     H38942  12.211   7.019   6.862  2.3737 -1.9705 -0.3589
 1007MOL0     H38943  12.292   7.142   6.962  3.3104  2.1355 -1.3674
 1007MOL0     H38944  12.492   7.147   6.811  2.0371 -0.7959 -2.2537
 1007MOL0     H38945  12.412   7.030   6.706  2.2779 -2.4399 -0.3094
 1007MOL0     H38946  11.351   7.414   6.741 -0.7216 -1.4340  2.2373
 1007MOL0     H38947  11.116   7.338   6.725  2.2129  2.2959 -0.6937
 1007MOL0     H38948  10.824   7.001   6.560  1.1459 -2.7955 -0.8140
 1007MOL0     H38949  10.608   6.915   6.546  0.2054 -1.8430 -0.4474
 1007MOL0     H38950   8.648   7.353   6.362 -2.9468  2.2582  0.4443
 1007MOL0     H38951   8.497   7.442   6.202  0.7079  0.4799 -0.8703
 1007MOL0     H38952   8.189   7.630   5.951  0.4897  1.8892 -2.5790
 1007MOL0     H38953   8.096   7.700   5.746  1.9696  0.7366  0.7967
 1007MOL0     H38954   7.968   7.711   5.575  1.0653  0.5070  0.8977
 1007MOL0     H38955   8.119   7.751   5.496  1.1402 -0.8959  2.0427
 1007MOL0     H38956   7.983   7.591   5.311 -0.2752 -0.0578 -1.7196
 1007MOL0     H38957   7.987   7.765   5.296 -0.4876  0.5713 -0.2648
 1007MOL0     H38958   7.770   7.789   5.411  0.4174 -0.6672  0.5775
 1007MOL0     H38959   7.762   7.702   5.263 -3.6448  0.9860  1.4170
 1007MOL0     H38960   7.780   7.555   5.534 -3.7316  0.3385  2.5110
 1007MOL0     H38961   7.785   7.474   5.385 -4.0450 -3.2739  1.3694
 1007MOL0     H38962   7.371   7.567   5.391 -0.7183 -2.5184  0.9513
 1007MOL0     H38963   8.111   7.310   5.583  1.6204 -0.4014  0.9568
 1007MOL0     H38964   8.319   7.176   5.779  0.3559  3.1600 -0.2550
 1007MOL0     H38965   8.187   7.133   5.894  1.5643  0.6974  0.0822
 1007MOL0     H38966   8.161   7.128   5.720  0.7561  0.4671 -1.2492
 1008MOL0     O38967   2.004   8.886   6.213  0.1191  0.7371  0.0579
 1008MOL0     C38968   2.011   8.807   6.306  0.3455  0.7271  0.4320
 1008MOL0     O38969   2.132   8.773   6.383  0.2328 -0.6486  0.3924
 1008MOL0     C38970   2.252   8.816   6.335  0.3589 -0.0758 -0.0487
 1008MOL0     C38971   2.322   8.913   6.406 -0.0875 -0.8381 -0.4487
 1008MOL0     C38972   2.435   8.980   6.355 -1.0772 -0.2664 -0.0287
 1008MOL0     C38973   2.476   8.956   6.224 -0.4445 -0.3377  0.6974
 1008MOL0     O38974   2.595   9.014   6.167 -0.5529  0.0834 -0.8469
 1008MOL0     C38975   2.580   9.096   6.054  0.6216 -0.7161  0.5415
 1008MOL0     C38976   2.690   9.084   5.948 -0.6603  0.3198 -0.0797
 1008MOL0     C38977   2.735   8.947   5.917  0.7054  0.4103 -0.3952
 1008MOL0     C38978   2.853   8.934   5.815 -0.1755 -0.7286 -0.0121
 1008MOL0     C38979   2.883   8.793   5.783  0.5984 -0.0194  0.5496
 1008MOL0     C38980   2.964   8.760   5.650 -0.5281  0.2319  0.7274
 1008MOL0     C38981   3.115   8.787   5.666 -0.4986 -0.9466 -0.2683
 1008MOL0     C38982   3.189   8.694   5.762  0.4539 -0.0093  0.4837
 1008MOL0     N38983   3.336   8.713   5.739  0.2810 -0.0193  0.2448
 1008MOL0     C38984   3.411   8.804   5.803  0.1513 -0.3357  0.2099
 1008MOL0     C38985   3.539   8.802   5.742 -1.3294 -0.5050 -0.5045
 1008MOL0     C38986   3.663   8.857   5.800  0.7929 -0.1951  0.1367
 1008MOL0     C38987   3.751   8.894   5.684  0.0871 -0.6364  0.1447
 1008MOL0     C38988   3.873   8.993   5.725 -0.4588  0.0256 -0.1772
 1008MOL0     C38989   3.949   9.039   5.604  0.2622  0.5503 -0.3307
 1008MOL0     O38990   4.049   9.130   5.651  0.1404  0.2941 -0.5608
 1008MOL0     C38991   4.179   9.130   5.607 -0.5981  0.6297 -0.2495
 1008MOL0     C38992   4.220   9.083   5.483 -0.6413  0.2138 -0.4900
 1008MOL0     C38993   4.362   9.090   5.451  0.5511  0.2105  0.1088
 1008MOL0     C38994   4.398   9.022   5.313  1.2834 -0.1066  0.1032
 1008MOL0     C38995   4.456   9.145   5.538  0.9360 -0.3195  0.6012
 1008MOL0     C38996   4.600   9.156   5.511  0.0052  0.3513 -0.5257
 1008MOL0     O38997   4.633   9.216   5.386 -0.0382  0.3645 -0.5347
 1008MOL0     C38998   4.764   9.228   5.348 -0.0100 -0.2997  0.8602
 1008MOL0     C38999   4.785   9.332   5.266 -0.1463 -0.4818  0.1469
 1008MOL0     C39000   4.915   9.362   5.211 -0.5529 -1.3375  0.3720
 1008MOL0     C39001   5.028   9.281   5.255  0.1134 -0.1922 -0.2320
 1008MOL0     O39002   5.155   9.311   5.217 -0.1671 -0.7391  0.4653
 1008MOL0     C39003   5.206   9.206   5.135  0.2107  0.3271  0.3692
 1008MOL0     C39004   5.341   9.253   5.086 -0.6391  0.3392  0.2816
 1008MOL0     C39005   5.448   9.279   5.197 -0.2485 -0.4337  0.9108
 1008MOL0     C39006   5.445   9.171   5.297  1.0380  0.1026  0.5427
 1008MOL0     C39007   5.567   9.156   5.399  0.0648  0.3739  0.4221
 1008MOL0     C39008   5.692   9.121   5.334 -0.5450  0.3685 -0.1903
 1008MOL0     C39009   5.799   9.109   5.442  1.0494  0.6751 -0.1299
 1008MOL0     C39010   5.933   9.085   5.375 -0.2257  0.9037  0.4189
 1008MOL0    Cl39011   6.026   9.227   5.365 -0.0460 -0.4339  0.0361
 1008MOL0     C39012   5.001   9.176   5.335  0.7129 -0.6732 -0.4690
 1008MOL0     C39013   4.873   9.146   5.385 -0.4965  0.2609 -0.3606
 1008MOL0     O39014   4.675   9.146   5.605 -1.0595 -0.4192 -0.0196
 1008MOL0     C39015   4.406   9.208   5.654  0.4315 -0.8198 -1.0880
 1008MOL0     C39016   4.271   9.199   5.690  0.0980  0.1392 -0.0558
 1008MOL0     N39017   3.525   8.697   5.645 -0.6372  0.2383 -0.2013
 1008MOL0     N39018   3.408   8.660   5.642  1.0908  0.8554  0.4246
 1008MOL0     C39019   2.407   8.852   6.151  0.8869 -0.4697  0.1883
 1008MOL0     C39020   2.297   8.789   6.205 -0.7801 -0.5111 -0.7026
 1008MOL0     C39021   1.876   8.749   6.354 -0.1557 -0.6089 -0.1778
 1008MOL0     C39022   1.886   8.622   6.421 -0.3178  0.8735 -0.4156
 1008MOL0     C39023   1.771   8.553   6.471  0.0162  0.8482  0.3561
 1008MOL0     C39024   1.651   8.619   6.469 -0.3915  0.0020  0.5906
 1008MOL0     O39025   1.566   8.541   6.531 -0.2548 -0.1356 -1.0845
 1008MOL0     C39026   1.434   8.600   6.532 -0.2159 -0.4494  0.1200
 1008MOL0     C39027   1.339   8.508   6.607  0.8245  0.2843  0.3521
 1008MOL0     C39028   1.199   8.571   6.633 -0.2227 -0.5011 -0.3845
 1008MOL0     C39029   1.117   8.530   6.763 -0.1998  0.2298  0.1610
 1008MOL0     C39030   1.092   8.385   6.780 -0.7313  0.7451 -0.3894
 1008MOL0     C39031   1.083   8.260   6.794 -0.7178 -0.1711 -0.5103
 1008MOL0     C39032   1.636   8.744   6.407 -0.0115 -0.0506  0.5328
 1008MOL0     C39033   1.747   8.806   6.338 -0.0431 -0.0898 -1.5928
 1008MOL0     C39034   1.739   8.952   6.294  0.1526 -0.9772  0.1381
 1008MOL0     H39035   2.283   8.942   6.504 -2.3881 -1.0458 -1.2440
 1008MOL0     H39036   2.493   9.056   6.407  0.3424  0.0948 -2.0415
 1008MOL0     H39037   2.570   9.201   6.082 -2.0039 -0.5542 -0.7568
 1008MOL0     H39038   2.487   9.071   6.003  1.4962  0.8138 -2.0037
 1008MOL0     H39039   2.658   9.129   5.854 -0.6941 -0.1696 -0.3067
 1008MOL0     H39040   2.776   9.138   5.990 -0.4841 -2.0359  3.0137
 1008MOL0     H39041   2.778   8.898   6.004 -0.7849 -0.0495  0.1123
 1008MOL0     H39042   2.651   8.888   5.880  0.5816 -0.6074  1.3982
 1008MOL0     H39043   2.815   8.986   5.726  1.0157 -0.4084 -0.3556
 1008MOL0     H39044   2.946   8.987   5.838  0.2473 -1.0089 -1.0229
 1008MOL0     H39045   2.788   8.739   5.777  1.3741 -1.5679  1.5038
 1008MOL0     H39046   2.951   8.753   5.859  0.9108  0.9047  0.7601
 1008MOL0     H39047   2.956   8.651   5.649  1.2984  0.0227  2.6174
 1008MOL0     H39048   2.922   8.817   5.567  1.9092  2.1426  0.6910
 1008MOL0     H39049   3.134   8.889   5.701  0.5156 -1.8687  2.0823
 1008MOL0     H39050   3.158   8.785   5.566  1.9876  1.9395  0.5812
 1008MOL0     H39051   3.163   8.718   5.865 -0.2909 -0.9301  0.5142
 1008MOL0     H39052   3.170   8.589   5.739  0.3428 -0.0601  0.8111
 1008MOL0     H39053   3.378   8.851   5.895 -1.9847 -0.0662 -0.6277
 1008MOL0     H39054   3.708   8.785   5.869  0.4912  0.3304  0.8919
 1008MOL0     H39055   3.626   8.943   5.856  0.1880  0.5029 -1.2858
 1008MOL0     H39056   3.814   8.814   5.644  1.4090 -0.3995  1.6233
 1008MOL0     H39057   3.698   8.938   5.600 -0.4225 -3.3834 -1.0688
 1008MOL0     H39058   3.819   9.080   5.763 -2.8677 -1.7213  0.7196
 1008MOL0     H39059   3.938   8.949   5.801 -1.0593 -0.3902  0.1025
 1008MOL0     H39060   3.997   8.953   5.555 -2.1776 -1.0106 -0.2052
 1008MOL0     H39061   3.877   9.087   5.536  2.4548  0.6417 -2.7434
 1008MOL0     H39062   4.150   9.035   5.415 -0.2195 -2.3363  0.7433
 1008MOL0     H39063   4.478   8.948   5.314  1.8208  0.3632 -2.2406
 1008MOL0     H39064   4.424   9.090   5.231  0.0079 -2.4936 -2.4355
 1008MOL0     H39065   4.308   8.975   5.272  0.9679  2.2747 -2.1746
 1008MOL0     H39066   4.714   9.406   5.231  2.3062  0.7362 -2.7696
 1008MOL0     H39067   4.920   9.451   5.149  1.1422 -0.7987  1.2287
 1008MOL0     H39068   5.201   9.116   5.196 -0.8288  2.0953  3.0906
 1008MOL0     H39069   5.139   9.190   5.050  0.7943  0.6370 -0.1553
 1008MOL0     H39070   5.385   9.187   5.011  1.2258  1.2058  0.5524
 1008MOL0     H39071   5.320   9.338   5.019 -1.2431  1.8980  2.3296
 1008MOL0     H39072   5.412   9.370   5.246 -0.3327  0.0651 -0.0629
 1008MOL0     H39073   5.546   9.289   5.150 -0.4099 -2.3334  0.0808
 1008MOL0     H39074   5.433   9.073   5.250 -2.3482 -0.5427  2.4245
 1008MOL0     H39075   5.355   9.177   5.359  0.1414  1.6610 -0.8132
 1008MOL0     H39076   5.581   9.252   5.449 -1.1622 -0.7899  3.2365
 1008MOL0     H39077   5.545   9.090   5.483 -1.5190 -1.3983 -1.2657
 1008MOL0     H39078   5.726   9.201   5.268  1.4685 -0.1383  0.1709
 1008MOL0     H39079   5.688   9.027   5.278 -0.8746 -1.9204  3.3368
 1008MOL0     H39080   5.784   9.029   5.514  0.3463  1.1261  0.2282
 1008MOL0     H39081   5.801   9.203   5.497 -1.4171 -0.0416  1.3073
 1008MOL0     H39082   5.916   9.046   5.274 -1.8584  1.2318  0.5340
 1008MOL0     H39083   5.991   9.011   5.430 -0.4265  0.5922  0.2115
 1008MOL0     H39084   5.093   9.136   5.377  3.0370  2.7373 -1.8134
 1008MOL0     H39085   4.859   9.073   5.464  1.5713  1.4435  1.2264
 1008MOL0     H39086   4.471   9.263   5.721  1.6801  0.1449 -2.9907
 1008MOL0     H39087   4.237   9.235   5.787  0.3036  0.5004 -0.1174
 1008MOL0     H39088   2.438   8.831   6.050  0.4458  0.9016 -0.2526
 1008MOL0     H39089   2.252   8.728   6.127 -0.7715 -1.4604  0.0113
 1008MOL0     H39090   1.982   8.573   6.422 -1.9143 -2.5097  1.3252
 1008MOL0     H39091   1.781   8.450   6.503  2.6780  0.8007 -0.4526
 1008MOL0     H39092   1.435   8.702   6.572  1.9872 -0.2126 -0.4264
 1008MOL0     H39093   1.395   8.609   6.430 -0.1463  0.3486  0.1526
 1008MOL0     H39094   1.386   8.489   6.704 -2.2689 -1.1728  1.6980
 1008MOL0     H39095   1.333   8.411   6.558 -1.4569 -0.1239  1.2884
 1008MOL0     H39096   1.229   8.676   6.638 -0.2073 -0.1210 -4.4537
 1008MOL0     H39097   1.144   8.555   6.540 -0.8910  2.7462 -0.6747
 1008MOL0     H39098   1.018   8.574   6.771 -0.9371 -0.9176 -1.8803
 1008MOL0     H39099   1.166   8.568   6.853  1.6679  0.1461 -0.7602
 1008MOL0     H39100   1.081   8.154   6.812  3.3176 -1.0223 -3.5057
 1008MOL0     H39101   1.544   8.802   6.400 -0.1333 -0.2290  0.6630
 1008MOL0     H39102   1.792   9.006   6.372 -0.7608 -3.5979  2.7479
 1008MOL0     H39103   1.777   8.965   6.192  1.0398  0.1861  0.5945
 1008MOL0     H39104   1.636   8.988   6.304  0.2726 -0.4307 -0.5362
 1009MOL0     O39105   1.837   5.385   4.867 -0.0372 -0.3002  0.8467
 1009MOL0     C39106   1.830   5.294   4.781 -0.6002  0.0895  0.2431
 1009MOL0     O39107   1.917   5.274   4.676 -0.3338 -0.1170 -0.3974
 1009MOL0     C39108   2.028   5.350   4.650  0.5633 -1.2842 -0.2202
 1009MOL0     C39109   2.079   5.465   4.716  0.5487  0.6537 -0.8764
 1009MOL0     C39110   2.206   5.513   4.691  0.2754  0.3316  1.0199
 1009MOL0     C39111   2.276   5.459   4.580 -0.2493 -0.4034  0.2874
 1009MOL0     O39112   2.401   5.520   4.557  0.4816  0.4202  0.2482
 1009MOL0     C39113   2.474   5.465   4.451 -0.7210 -0.2102  0.0418
 1009MOL0     C39114   2.428   5.524   4.317  0.7625 -0.0135  0.7659
 1009MOL0     C39115   2.463   5.675   4.315 -0.8568  0.6986 -0.0383
 1009MOL0     C39116   2.614   5.702   4.306 -0.2705 -0.2790 -0.4964
 1009MOL0     C39117   2.667   5.679   4.163 -0.4749  0.6380  0.0752
 1009MOL0     C39118   2.800   5.743   4.137 -0.4466 -0.1186  0.3053
 1009MOL0     C39119   2.800   5.900   4.126 -0.3339  0.3476 -0.0106
 1009MOL0     C39120   2.943   5.952   4.083 -0.2313  0.5277 -0.2016
 1009MOL0     N39121   2.975   5.909   3.951 -0.2324 -0.5697  0.2202
 1009MOL0     C39122   2.909   5.944   3.839  1.3181  0.1379  0.1234
 1009MOL0     C39123   2.963   5.888   3.734 -1.2140  0.2389  0.7572
 1009MOL0     C39124   2.922   5.912   3.591  0.4318  0.2791  0.2040
 1009MOL0     C39125   2.925   6.054   3.539  1.0383 -0.2630 -0.7895
 1009MOL0     C39126   3.061   6.123   3.567  0.3519 -0.4123  0.0867
 1009MOL0     C39127   3.175   6.062   3.483 -0.7119 -0.8377 -0.5458
 1009MOL0     O39128   3.144   6.010   3.353  0.0922 -1.0490 -0.1586
 1009MOL0     C39129   3.247   5.931   3.305 -0.0885 -0.4151 -0.1517
 1009MOL0     C39130   3.208   5.857   3.197 -0.3414  0.2352  0.3241
 1009MOL0     C39131   3.306   5.790   3.119 -0.0279 -0.3690  0.2142
 1009MOL0     C39132   3.259   5.740   2.984 -0.1385  0.1015  0.5850
 1009MOL0     C39133   3.440   5.772   3.161 -0.1873 -0.2267 -0.0279
 1009MOL0     C39134   3.547   5.702   3.090 -0.3950  0.6798 -0.1433
 1009MOL0     O39135   3.680   5.739   3.095 -0.0526  0.0940 -0.4759
 1009MOL0     C39136   3.769   5.717   2.993 -0.3081 -0.6434  0.3923
 1009MOL0     C39137   3.735   5.700   2.853 -0.3396  0.4765 -0.0437
 1009MOL0     C39138   3.837   5.672   2.757 -0.5485 -0.4914  0.5755
 1009MOL0     C39139   3.973   5.661   2.793  0.8070 -0.0047  0.8662
 1009MOL0     O39140   4.076   5.612   2.713 -0.5295 -0.8550  0.7267
 1009MOL0     C39141   4.104   5.699   2.596  0.0566  0.8012  0.5642
 1009MOL0     C39142   4.231   5.659   2.533  0.0487 -0.3521  0.4483
 1009MOL0     C39143   4.268   5.743   2.402  0.3152 -0.2003 -0.1226
 1009MOL0     C39144   4.186   5.718   2.275  0.6897  1.5081 -0.4756
 1009MOL0     C39145   4.233   5.596   2.207 -0.4203 -0.4542  0.2063
 1009MOL0     C39146   4.141   5.573   2.084  0.1603  0.3966  0.2101
 1009MOL0     C39147   4.184   5.450   2.003 -0.2081  0.7356  0.0693
 1009MOL0     C39148   4.124   5.435   1.857 -0.2222  0.1994 -0.6321
 1009MOL0    Cl39149   3.962   5.361   1.872  0.4135 -0.3954  0.1123
 1009MOL0     C39150   4.007   5.685   2.927  0.2834 -0.1481  0.3068
 1009MOL0     C39151   3.907   5.710   3.023 -0.2022 -0.4243  0.2793
 1009MOL0     O39152   3.511   5.593   3.031 -0.0996 -0.9900 -0.1032
 1009MOL0     C39153   3.471   5.824   3.289 -0.7598  0.1617  0.0416
 1009MOL0     C39154   3.375   5.907   3.351 -0.1314 -0.3768 -0.3898
 1009MOL0     N39155   3.084   5.821   3.781 -0.1024 -0.0484 -0.0434
 1009MOL0     N39156   3.092   5.849   3.915 -0.2798 -0.8001 -0.2016
 1009MOL0     C39157   2.215   5.360   4.504 -0.0760 -0.0310 -0.4982
 1009MOL0     C39158   2.094   5.305   4.533 -0.4969 -0.1785  0.1267
 1009MOL0     C39159   1.711   5.213   4.775  0.5552  0.1947  0.0647
 1009MOL0     C39160   1.658   5.164   4.890  0.4410  0.1110  0.0213
 1009MOL0     C39161   1.548   5.079   4.889  0.0404  0.4856 -0.2982
 1009MOL0     C39162   1.482   5.046   4.771  0.3770  0.0605  0.5994
 1009MOL0     O39163   1.385   4.955   4.754  0.2935  0.8170 -0.2852
 1009MOL0     C39164   1.303   4.908   4.866 -1.1730  0.9120  0.1650
 1009MOL0     C39165   1.165   4.877   4.823  0.2301  0.8842  0.2214
 1009MOL0     C39166   1.159   4.749   4.739  0.0865 -0.0668  0.2121
 1009MOL0     C39167   1.010   4.710   4.705 -0.0771  0.2790  0.2578
 1009MOL0     C39168   0.994   4.619   4.586 -0.4638 -0.7114  0.3796
 1009MOL0     C39169   1.006   4.551   4.487 -0.2448 -0.2321 -0.4395
 1009MOL0     C39170   1.534   5.097   4.650  0.6017 -0.7289 -0.6122
 1009MOL0     C39171   1.638   5.187   4.652 -0.1180  0.4744 -0.6218
 1009MOL0     C39172   1.665   5.246   4.516  0.1944 -0.1182  0.4829
 1009MOL0     H39173   2.015   5.509   4.792 -0.3126 -2.9646  0.7278
 1009MOL0     H39174   2.240   5.603   4.741  0.9633  1.8483 -1.9388
 1009MOL0     H39175   2.474   5.356   4.444  1.0366 -0.3132  0.9724
 1009MOL0     H39176   2.578   5.497   4.467 -1.5461  2.0080  1.3951
 1009MOL0     H39177   2.476   5.475   4.232  3.4235 -1.1741  2.7733
 1009MOL0     H39178   2.319   5.529   4.313  0.7858 -0.2489 -1.5015
 1009MOL0     H39179   2.416   5.713   4.223 -0.0951  0.4736 -0.5345
 1009MOL0     H39180   2.413   5.719   4.401 -1.0932  0.1527  0.1053
 1009MOL0     H39181   2.630   5.805   4.339  0.8163 -0.9183  1.1721
 1009MOL0     H39182   2.679   5.649   4.377 -1.1918 -0.1580  0.4659
 1009MOL0     H39183   2.602   5.725   4.087  0.4256  0.1495 -1.0116
 1009MOL0     H39184   2.680   5.571   4.150  2.4233  0.9592 -0.1983
 1009MOL0     H39185   2.861   5.708   4.222 -3.9298 -2.2271  2.1875
 1009MOL0     H39186   2.842   5.698   4.047  0.1028 -1.0763  1.0092
 1009MOL0     H39187   2.786   5.944   4.225 -0.2675 -0.6173  0.4349
 1009MOL0     H39188   2.722   5.933   4.056 -2.4189 -1.0263  1.5378
 1009MOL0     H39189   2.948   6.061   4.088  1.8529  0.4371  2.8986
 1009MOL0     H39190   3.019   5.911   4.150 -0.0739  1.4944  0.2314
 1009MOL0     H39191   2.816   6.000   3.836 -0.3049 -2.3323  1.2323
 1009MOL0     H39192   2.817   5.880   3.592 -1.3760  5.2882  1.7366
 1009MOL0     H39193   2.978   5.842   3.529  0.7858  1.1545 -0.4928
 1009MOL0     H39194   2.895   6.068   3.435 -0.4259  1.1224 -0.2181
 1009MOL0     H39195   2.845   6.105   3.593  0.3889 -1.1493 -0.8898
 1009MOL0     H39196   3.059   6.232   3.556 -0.2711 -0.4482 -0.1875
 1009MOL0     H39197   3.090   6.099   3.670  1.0186  0.1018  0.0185
 1009MOL0     H39198   3.257   6.134   3.471 -1.7708  0.4077 -0.4620
 1009MOL0     H39199   3.217   5.983   3.546 -2.5072  0.7783  2.9340
 1009MOL0     H39200   3.104   5.861   3.167 -0.7396 -1.9993  1.2385
 1009MOL0     H39201   3.260   5.630   2.986 -0.9387  0.0881  0.9621
 1009MOL0     H39202   3.318   5.764   2.896  0.4888 -2.4097  0.2381
 1009MOL0     H39203   3.152   5.764   2.980 -0.1899  0.8820  3.9032
 1009MOL0     H39204   3.635   5.718   2.814 -0.2081 -1.1926 -1.2381
 1009MOL0     H39205   3.812   5.659   2.652  3.6894 -0.7192 -0.6174
 1009MOL0     H39206   4.019   5.677   2.530  1.0374  1.2688 -0.9119
 1009MOL0     H39207   4.108   5.806   2.621  3.3067  1.0736 -0.6470
 1009MOL0     H39208   4.319   5.663   2.597 -0.9000  0.4304  1.7568
 1009MOL0     H39209   4.205   5.554   2.517 -0.2648 -0.2182  0.0475
 1009MOL0     H39210   4.369   5.722   2.365  0.0361  1.8254 -2.3074
 1009MOL0     H39211   4.259   5.850   2.423 -1.5078  0.5886 -3.9804
 1009MOL0     H39212   4.199   5.805   2.210 -0.5516  2.2993  0.2859
 1009MOL0     H39213   4.082   5.704   2.303  1.4319 -0.9480  1.4407
 1009MOL0     H39214   4.332   5.613   2.164 -1.3884 -0.8279 -2.3662
 1009MOL0     H39215   4.227   5.504   2.265 -0.8749 -0.1735  0.6134
 1009MOL0     H39216   4.138   5.663   2.021  1.5329 -0.3128 -0.9429
 1009MOL0     H39217   4.041   5.561   2.126 -0.2421 -0.3710 -0.9116
 1009MOL0     H39218   4.150   5.364   2.061 -2.2463  0.3674 -1.5586
 1009MOL0     H39219   4.292   5.440   1.989 -0.6000 -2.0820 -1.7427
 1009MOL0     H39220   4.191   5.376   1.794  2.4286  3.1227 -0.8014
 1009MOL0     H39221   4.125   5.530   1.801  2.4346  0.7425  0.2136
 1009MOL0     H39222   4.108   5.667   2.964  0.2143 -0.8541  0.1689
 1009MOL0     H39223   3.937   5.716   3.127  1.8230 -0.3622 -0.2731
 1009MOL0     H39224   3.567   5.811   3.337 -1.0713  2.1745  1.3173
 1009MOL0     H39225   3.409   5.960   3.439  0.1485  0.6679 -1.1117
 1009MOL0     H39226   2.270   5.326   4.417  1.3480  1.3488 -0.1826
 1009MOL0     H39227   2.060   5.218   4.477 -1.6010  2.7269 -4.2522
 1009MOL0     H39228   1.702   5.193   4.985  1.3232  3.8008 -1.3430
 1009MOL0     H39229   1.521   5.039   4.986  1.2930  2.5051  0.9712
 1009MOL0     H39230   1.346   4.822   4.919 -3.5169  0.8279  2.0830
 1009MOL0     H39231   1.290   4.990   4.936  0.7233  1.2757  0.1463
 1009MOL0     H39232   1.133   4.959   4.759 -0.0399  0.5501 -0.0733
 1009MOL0     H39233   1.105   4.867   4.914  1.1531 -0.3160  0.7309
 1009MOL0     H39234   1.212   4.757   4.644 -3.1217 -1.6550 -1.9116
 1009MOL0     H39235   1.192   4.662   4.796 -1.3034 -0.5928  0.2650
 1009MOL0     H39236   0.950   4.799   4.687 -2.1284 -0.1862  3.7799
 1009MOL0     H39237   0.966   4.655   4.789  2.1466  1.6665  2.4716
 1009MOL0     H39238   1.010   4.495   4.396  0.1462 -0.3682 -0.3437
 1009MOL0     H39239   1.487   5.063   4.558 -0.1101 -1.3200 -0.0428
 1009MOL0     H39240   1.714   5.343   4.531  0.1917  0.0247 -0.4014
 1009MOL0     H39241   1.719   5.182   4.445 -2.3455 -0.1134 -1.5718
 1009MOL0     H39242   1.570   5.265   4.465  0.3807  0.7817  0.4564
 1010MOL0     O39243   9.585   9.902   0.003  0.4661  0.3048  0.5262
 1010MOL0     C39244   9.569   9.974   0.104  0.7089 -0.5997  0.2292
 1010MOL0     O39245   9.668  10.039   0.171  0.1283 -0.1634  0.1145
 1010MOL0     C39246   9.807  10.040   0.156 -0.3220  0.7891 -0.5791
 1010MOL0     C39247   9.862  10.053   0.024 -0.3416 -1.4879 -0.1926
 1010MOL0     C39248   9.998  10.073   0.010  0.4978  0.5683 -0.2496
 1010MOL0     C39249  10.086  10.071   0.111  0.2001  0.6140  0.2065
 1010MOL0     O39250  10.213  10.085   0.071 -0.0971  0.0010 -0.0263
 1010MOL0     C39251  10.310  10.070   0.184  0.5529  0.4530  0.4484
 1010MOL0     C39252  10.451  10.081   0.136 -0.6559  0.4006 -0.7695
 1010MOL0     C39253  10.509   9.957   0.073 -0.2542 -0.4028 -0.0063
 1010MOL0     C39254  10.662   9.980   0.036 -0.0261 -0.2034 -1.1620
 1010MOL0     C39255  10.728   9.846   0.006 -0.2793  0.6482 -0.1094
 1010MOL0     C39256  10.852   9.861  -0.076  0.1304  0.0472 -1.1177
 1010MOL0     C39257  10.946   9.963  -0.014 -0.3180 -0.2263 -0.0245
 1010MOL0     C39258  11.082   9.951  -0.092  1.0936  0.4327  0.3408
 1010MOL0     N39259  11.178  10.051  -0.045 -0.1735 -0.2717 -0.1047
 1010MOL0     C39260  11.175  10.182  -0.091 -1.3982  1.3545  0.5056
 1010MOL0     C39261  11.283  10.239  -0.027 -0.0572 -0.4317 -0.2907
 1010MOL0     C39262  11.317  10.381  -0.039  0.3928 -0.6840  0.5458
 1010MOL0     C39263  11.446  10.405  -0.116  0.8912  0.1890  0.1599
 1010MOL0     C39264  11.502  10.539  -0.083 -0.2839 -0.5409  0.2621
 1010MOL0     C39265  11.635  10.570  -0.159  0.7768  0.1030  0.0239
 1010MOL0     O39266  11.628  10.549  -0.300 -0.8017  0.0669 -0.1911
 1010MOL0     C39267  11.732  10.597  -0.370 -0.9353 -0.2543  0.4334
 1010MOL0     C39268  11.857  10.634  -0.315  0.1642 -0.0170  0.1143
 1010MOL0     C39269  11.954  10.693  -0.392 -0.4695  1.0908 -1.0881
 1010MOL0     C39270  12.083  10.730  -0.320  0.7306  0.0038  0.6186
 1010MOL0     C39271  11.942  10.715  -0.530 -0.0779  0.3634 -0.2447
 1010MOL0     C39272  12.029  10.784  -0.623 -0.6751  1.0784 -0.2158
 1010MOL0     O39273  12.024  10.754  -0.752  0.2879  0.8015  0.1359
 1010MOL0     C39274  12.118  10.825  -0.828  0.4153  0.4478  0.1567
 1010MOL0     C39275  12.078  10.935  -0.907 -0.4743  0.4972 -1.0005
 1010MOL0     C39276  12.175  11.013  -0.978 -0.5539 -0.3772 -0.5825
 1010MOL0     C39277  12.306  10.982  -0.973  0.1543 -0.4568 -1.4316
 1010MOL0     O39278  12.402  11.056  -1.041  0.0464 -0.0576 -0.6487
 1010MOL0     C39279  12.368  11.146  -1.145 -0.1866 -0.1051 -0.3701
 1010MOL0     C39280  12.502  11.191  -1.214  0.2778  1.1530  0.7106
 1010MOL0     C39281  12.604  11.084  -1.275 -0.1964  0.1222  0.5091
 1010MOL0     C39282  12.538  10.977  -1.357  0.4363  0.7366 -0.5820
 1010MOL0     C39283  12.647  10.873  -1.395 -0.1014  0.1758 -0.2203
 1010MOL0     C39284  12.672  10.774  -1.271  0.1912 -0.2007  0.5031
 1010MOL0     C39285  12.589  10.645  -1.288 -0.2233  0.6980 -0.6474
 1010MOL0     C39286  12.611  10.560  -1.163  0.5661  0.0754 -0.7808
 1010MOL0    Cl39287  12.780  10.494  -1.172 -0.2272 -0.0740 -0.0637
 1010MOL0     C39288  12.350  10.880  -0.882  0.5155  0.3424 -0.8213
 1010MOL0     C39289  12.251  10.801  -0.815  0.1953 -0.6076 -0.1659
 1010MOL0     O39290  12.097  10.869  -0.568 -0.6590 -0.0888  0.4668
 1010MOL0     C39291  11.820  10.671  -0.585 -0.1908  0.3939  0.2109
 1010MOL0     C39292  11.718  10.616  -0.510 -0.8075  0.1039  0.0889
 1010MOL0     N39293  11.349  10.153   0.057 -0.3738 -0.2278 -0.3021
 1010MOL0     N39294  11.283  10.041   0.043  0.4019  0.9770 -0.5325
 1010MOL0     C39295  10.033  10.042   0.240 -0.7622  0.1767  0.2825
 1010MOL0     C39296   9.893  10.025   0.263  0.2433 -0.2986  0.1337
 1010MOL0     C39297   9.424  10.006   0.149 -0.1627  0.6101  0.4899
 1010MOL0     C39298   9.400  10.124   0.224 -0.6127  0.1979  0.5223
 1010MOL0     C39299   9.269  10.154   0.280 -0.3366 -0.3443  0.2153
 1010MOL0     C39300   9.161  10.068   0.256  0.9830 -0.7351  0.6446
 1010MOL0     O39301   9.039  10.103   0.312 -0.6087 -0.3737 -0.0305
 1010MOL0     C39302   8.927  10.036   0.256 -0.2618 -0.7981 -0.3408
 1010MOL0     C39303   8.900  10.102   0.125  0.0095  0.3662 -0.2415
 1010MOL0     C39304   8.822  10.012   0.027 -0.6003  0.3645  0.9086
 1010MOL0     C39305   8.799  10.079  -0.108 -0.3731  0.2405  0.7057
 1010MOL0     C39306   8.723  10.200  -0.096  0.7253 -0.1858  0.9838
 1010MOL0     C39307   8.643  10.291  -0.084  0.7448  0.0477 -0.5313
 1010MOL0     C39308   9.184   9.956   0.169  0.5230 -0.4431 -0.8923
 1010MOL0     C39309   9.310   9.929   0.122  0.1409  0.5169 -0.8526
 1010MOL0     C39310   9.327   9.813   0.023 -0.9283 -0.0974 -0.8667
 1010MOL0     H39311   9.802  10.075  -0.064  1.2598  1.3232 -0.7100
 1010MOL0     H39312  10.040  10.087  -0.089  0.6805  1.8360 -0.0057
 1010MOL0     H39313  10.298   9.974   0.234  1.9933  0.2016  0.3465
 1010MOL0     H39314  10.288  10.151   0.255 -1.7353  1.3273 -1.1316
 1010MOL0     H39315  10.459  10.168   0.069  0.1728  1.1231  0.2379
 1010MOL0     H39316  10.514  10.095   0.224 -0.4175  2.1980 -1.1799
 1010MOL0     H39317  10.511   9.880   0.151 -1.7858 -0.0688  0.3866
 1010MOL0     H39318  10.453   9.925  -0.015  0.5668 -1.6327 -0.1008
 1010MOL0     H39319  10.674  10.049  -0.048  1.3768  1.3739  0.2543
 1010MOL0     H39320  10.699  10.027   0.128 -1.1204  1.8818 -1.7194
 1010MOL0     H39321  10.655   9.786  -0.049 -0.4225  1.2967 -0.6362
 1010MOL0     H39322  10.753   9.795   0.100  0.1589 -0.4987 -0.8243
 1010MOL0     H39323  10.912   9.769  -0.079  0.2741  0.0854 -0.0472
 1010MOL0     H39324  10.827   9.893  -0.177  0.4184  0.4725 -1.0572
 1010MOL0     H39325  10.977   9.949   0.090 -0.2588 -2.0383 -0.2563
 1010MOL0     H39326  10.906  10.064  -0.025  0.4948  0.5676  3.2103
 1010MOL0     H39327  11.128   9.853  -0.074  3.2073  1.5464  1.3551
 1010MOL0     H39328  11.051   9.956  -0.196 -1.4235  0.1369  0.9988
 1010MOL0     H39329  11.105  10.225  -0.161 -2.4601 -1.4055 -0.2615
 1010MOL0     H39330  11.313  10.430   0.058 -1.8582  1.4098 -0.4825
 1010MOL0     H39331  11.234  10.435  -0.085 -0.5073 -0.1316  2.7212
 1010MOL0     H39332  11.519  10.328  -0.091  1.1415  1.1074  2.5260
 1010MOL0     H39333  11.428  10.399  -0.223 -2.3885  1.9014  0.4647
 1010MOL0     H39334  11.433  10.621  -0.106  0.2425  0.1636  1.1043
 1010MOL0     H39335  11.516  10.551   0.025 -1.6980 -0.4011  0.4463
 1010MOL0     H39336  11.664  10.673  -0.139 -0.0916  1.2996 -4.0049
 1010MOL0     H39337  11.709  10.505  -0.111 -1.2963 -0.7206  2.3468
 1010MOL0     H39338  11.881  10.620  -0.210  0.2862 -2.4937 -0.1825
 1010MOL0     H39339  12.076  10.691  -0.218  0.5847  0.6136  0.8428
 1010MOL0     H39340  12.090  10.839  -0.322  1.3433  0.0227 -2.5762
 1010MOL0     H39341  12.177  10.694  -0.365  1.3748 -0.9822  2.6374
 1010MOL0     H39342  11.973  10.961  -0.902 -0.4414  0.3449  2.8116
 1010MOL0     H39343  12.149  11.096  -1.043  1.4065  0.0225 -0.9404
 1010MOL0     H39344  12.305  11.098  -1.221 -1.3633 -0.1709  0.6056
 1010MOL0     H39345  12.318  11.233  -1.101  0.3830 -0.7833  1.7128
 1010MOL0     H39346  12.479  11.263  -1.293 -2.3702  0.9744  1.2270
 1010MOL0     H39347  12.552  11.248  -1.134 -1.4810 -0.7257  3.3213
 1010MOL0     H39348  12.670  11.052  -1.194  1.4835  0.8902 -0.5067
 1010MOL0     H39349  12.669  11.138  -1.345 -0.8046  0.5706  0.2693
 1010MOL0     H39350  12.491  11.021  -1.445  0.6276  0.3400 -0.8860
 1010MOL0     H39351  12.455  10.922  -1.313 -1.0417  1.0115 -2.8846
 1010MOL0     H39352  12.618  10.808  -1.478  1.1425 -0.1614 -0.4056
 1010MOL0     H39353  12.739  10.922  -1.428  1.2085 -2.2112 -0.3739
 1010MOL0     H39354  12.652  10.824  -1.176  0.3897 -0.8457  0.8894
 1010MOL0     H39355  12.775  10.743  -1.291 -0.4400 -1.9795 -0.2449
 1010MOL0     H39356  12.596  10.590  -1.382 -1.2423  0.5286 -0.6397
 1010MOL0     H39357  12.481  10.665  -1.294 -0.8054 -2.4109 -2.3596
 1010MOL0     H39358  12.540  10.477  -1.158  3.2352 -2.5697 -3.0433
 1010MOL0     H39359  12.610  10.622  -1.073  0.0184 -0.2230 -0.5754
 1010MOL0     H39360  12.453  10.859  -0.854  0.1131 -0.3577  0.2122
 1010MOL0     H39361  12.271  10.720  -0.745 -2.9012 -2.1481 -0.8994
 1010MOL0     H39362  11.804  10.671  -0.692  0.9487 -1.9000 -0.0176
 1010MOL0     H39363  11.636  10.569  -0.563  1.2516 -0.9994 -2.3262
 1010MOL0     H39364  10.098  10.044   0.328  0.5155  0.1802 -0.6359
 1010MOL0     H39365   9.867  10.017   0.368 -0.1826 -0.5162  0.0151
 1010MOL0     H39366   9.488  10.178   0.259 -0.8305  0.5004  0.6113
 1010MOL0     H39367   9.269  10.245   0.339  1.7506  0.2947 -0.6605
 1010MOL0     H39368   8.943   9.928   0.250 -1.4715 -0.8925 -4.0173
 1010MOL0     H39369   8.837  10.049   0.318 -0.5072 -0.5703 -0.7445
 1010MOL0     H39370   8.986  10.139   0.069  0.4926  1.6046  1.2384
 1010MOL0     H39371   8.849  10.197   0.147 -3.4422 -1.3676 -0.1094
 1010MOL0     H39372   8.874   9.917   0.015  1.6050  1.6076  0.1867
 1010MOL0     H39373   8.725   9.982   0.070 -1.2881  1.7443  0.3726
 1010MOL0     H39374   8.750  10.011  -0.179  0.5986  0.1302  0.1216
 1010MOL0     H39375   8.893  10.097  -0.161 -1.1219 -0.2593 -0.8630
 1010MOL0     H39376   8.590  10.383  -0.075  1.0796  0.5506 -2.9347
 1010MOL0     H39377   9.107   9.883   0.146  0.3993 -0.6367  0.1109
 1010MOL0     H39378   9.366   9.844  -0.074 -1.1148 -0.2719 -0.9963
 1010MOL0     H39379   9.396   9.744   0.073 -2.5267 -0.9065  0.3001
 1010MOL0     H39380   9.238   9.751   0.012 -0.9128 -0.7080  1.7512
 1011MOL0     O39381  11.081   4.301   5.141 -0.5797 -1.0294  0.4999
 1011MOL0     C39382  11.163   4.250   5.073 -0.5764  0.0752  0.5846
 1011MOL0     O39383  11.308   4.234   5.097  0.0359  0.2460  0.1526
 1011MOL0     C39384  11.370   4.286   5.207  0.5874  0.1485 -0.3765
 1011MOL0     C39385  11.471   4.204   5.262  0.3112 -0.0506 -0.0186
 1011MOL0     C39386  11.552   4.262   5.360 -0.2173 -0.3944  0.3355
 1011MOL0     C39387  11.536   4.390   5.403 -0.2271  0.0157 -0.3056
 1011MOL0     O39388  11.625   4.433   5.491  0.4639 -0.7158 -0.2731
 1011MOL0     C39389  11.680   4.567   5.472  0.1611  0.1171 -0.2720
 1011MOL0     C39390  11.743   4.591   5.335 -0.2725  0.3614 -0.5195
 1011MOL0     C39391  11.813   4.725   5.323 -0.1251 -0.4802 -0.2369
 1011MOL0     C39392  11.951   4.720   5.386 -0.5288  0.1271 -0.0792
 1011MOL0     C39393  12.018   4.858   5.378 -0.9145 -0.5562  0.0788
 1011MOL0     C39394  12.170   4.849   5.411  0.3103  0.0962  0.6019
 1011MOL0     C39395  12.234   4.982   5.451  0.4310  0.8068 -0.9002
 1011MOL0     C39396  12.289   5.055   5.335  0.2384 -0.3650 -0.3035
 1011MOL0     N39397  12.423   4.998   5.298  0.0100  0.0728  0.1070
 1011MOL0     C39398  12.533   5.057   5.332 -0.8769 -0.0485 -0.2746
 1011MOL0     C39399  12.623   4.961   5.301 -0.1783  0.6512 -0.1273
 1011MOL0     C39400  12.776   4.962   5.321  0.2359  0.1682 -0.3091
 1011MOL0     C39401  12.837   5.091   5.346 -0.2638  0.8108  0.2706
 1011MOL0     C39402  12.977   5.084   5.291  0.5953  0.5513 -0.2683
 1011MOL0     C39403  13.035   5.216   5.306  0.1158  0.5837 -0.0788
 1011MOL0     O39404  13.139   5.221   5.215  0.1281 -1.2005 -1.1043
 1011MOL0     C39405  13.258   5.178   5.249 -0.5692  0.7805 -0.1208
 1011MOL0     C39406  13.292   5.151   5.380 -0.2339  0.4918  0.1226
 1011MOL0     C39407  13.426   5.138   5.404 -0.2360 -0.0593 -0.6823
 1011MOL0     C39408  13.454   5.128   5.553  0.0605 -0.5090 -0.5099
 1011MOL0     C39409  13.524   5.130   5.303 -0.3982 -0.3078 -0.2193
 1011MOL0     C39410  13.661   5.086   5.331  0.2745 -0.4069 -0.0955
 1011MOL0     O39411  13.763   5.157   5.282  0.5120 -0.0814 -0.3797
 1011MOL0     C39412  13.891   5.142   5.340  0.7044  0.5840 -0.2190
 1011MOL0     C39413  14.006   5.122   5.265  0.8883  0.3606  0.9620
 1011MOL0     C39414  14.139   5.126   5.331 -0.6796 -0.5537  1.2690
 1011MOL0     C39415  14.151   5.141   5.468  0.6775  0.8483 -0.1088
 1011MOL0     O39416  14.275   5.118   5.529 -0.0241  0.8077  0.1894
 1011MOL0     C39417  14.292   5.107   5.672 -0.0205 -0.1366  0.1760
 1011MOL0     C39418  14.439   5.100   5.708 -0.2418 -0.6450  1.2060
 1011MOL0     C39419  14.496   4.971   5.639  1.2012 -0.2883 -0.5108
 1011MOL0     C39420  14.642   4.965   5.676  0.1898 -1.2338  0.1551
 1011MOL0     C39421  14.701   4.833   5.631  0.2242 -0.5791 -0.0866
 1011MOL0     C39422  14.723   4.839   5.478 -0.4060  0.6663  0.8992
 1011MOL0     C39423  14.761   4.699   5.426  0.4532 -0.0027  0.1450
 1011MOL0     C39424  14.894   4.647   5.472  0.3745 -0.8955 -0.0850
 1011MOL0    Cl39425  14.897   4.487   5.397  0.3681  0.0593  0.4929
 1011MOL0     C39426  14.032   5.176   5.540 -0.1364  0.1711  0.7356
 1011MOL0     C39427  13.907   5.172   5.475  0.3721  0.8748 -0.2067
 1011MOL0     O39428  13.672   4.984   5.391  0.8004  0.5177  0.2830
 1011MOL0     C39429  13.496   5.149   5.171  0.1161  0.1297 -0.0853
 1011MOL0     C39430  13.357   5.175   5.150 -0.8617 -0.1476  0.3674
 1011MOL0     N39431  12.564   4.856   5.225 -0.5358  0.7605  0.1141
 1011MOL0     N39432  12.440   4.872   5.242  0.2892  0.2781 -0.2781
 1011MOL0     C39433  11.429   4.468   5.357 -0.5713 -0.2237 -0.7004
 1011MOL0     C39434  11.335   4.409   5.271  0.4743  1.1677  0.8336
 1011MOL0     C39435  11.119   4.213   4.935 -0.0455  0.5503 -0.2801
 1011MOL0     C39436  11.213   4.210   4.831 -0.0557 -0.7725  0.4509
 1011MOL0     C39437  11.184   4.175   4.703  0.8378 -0.1871 -1.1872
 1011MOL0     C39438  11.053   4.149   4.665 -0.0204  0.5766  0.7004
 1011MOL0     O39439  11.010   4.121   4.541 -0.1948 -0.3168  0.2678
 1011MOL0     C39440  11.090   4.032   4.463  0.5386  0.0285  0.6765
 1011MOL0     C39441  11.168   4.112   4.360  0.8814 -0.3743  1.2122
 1011MOL0     C39442  11.074   4.178   4.247 -0.5183 -0.1964 -0.4272
 1011MOL0     C39443  11.019   4.102   4.125 -1.6130 -0.1242  0.3480
 1011MOL0     C39444  10.906   4.012   4.157 -0.7662  0.1685  0.1378
 1011MOL0     C39445  10.825   3.928   4.178 -0.4935  0.1421 -0.6257
 1011MOL0     C39446  10.955   4.164   4.760  0.4205  0.9205  0.0972
 1011MOL0     C39447  10.990   4.179   4.898 -1.3566 -0.9578 -0.2995
 1011MOL0     C39448  10.879   4.162   5.001  0.5711 -0.2077  0.5175
 1011MOL0     H39449  11.497   4.104   5.228 -1.3506 -0.2380 -0.8262
 1011MOL0     H39450  11.637   4.201   5.389 -1.7617 -2.9426 -0.1767
 1011MOL0     H39451  11.761   4.580   5.544  1.3378 -2.1827 -1.1115
 1011MOL0     H39452  11.603   4.645   5.483 -0.3324 -0.2299 -1.1577
 1011MOL0     H39453  11.819   4.514   5.324 -2.6382 -2.0430 -0.8960
 1011MOL0     H39454  11.676   4.582   5.249 -1.1322  2.7866 -0.1838
 1011MOL0     H39455  11.819   4.749   5.216 -1.9570 -2.4288 -0.8530
 1011MOL0     H39456  11.754   4.804   5.371 -2.3329 -1.5297 -1.0815
 1011MOL0     H39457  11.949   4.682   5.489 -2.9253 -0.1761 -0.1890
 1011MOL0     H39458  12.010   4.643   5.336 -0.4836  0.3240 -0.3292
 1011MOL0     H39459  11.956   4.916   5.447 -4.0340 -0.8926 -2.2152
 1011MOL0     H39460  12.006   4.895   5.276 -1.6368 -1.4951 -0.1949
 1011MOL0     H39461  12.189   4.777   5.492 -0.8706 -1.5302 -0.5113
 1011MOL0     H39462  12.209   4.790   5.328 -0.8290 -2.7333  1.9173
 1011MOL0     H39463  12.312   4.952   5.521 -0.2014  1.6061  0.1777
 1011MOL0     H39464  12.164   5.045   5.506 -1.8501 -2.2449  0.0247
 1011MOL0     H39465  12.209   5.053   5.260 -1.0995 -0.1144  1.0622
 1011MOL0     H39466  12.309   5.161   5.354 -0.7544  0.0803 -1.5717
 1011MOL0     H39467  12.549   5.160   5.362  0.7897  0.2469 -2.0270
 1011MOL0     H39468  12.818   4.912   5.233 -2.0522 -1.1775 -0.7135
 1011MOL0     H39469  12.793   4.906   5.414  1.8236  2.2996  0.7819
 1011MOL0     H39470  12.776   5.169   5.300 -0.9493  0.9859  1.4371
 1011MOL0     H39471  12.827   5.106   5.454 -0.1420 -1.6915  0.6870
 1011MOL0     H39472  13.029   5.008   5.350 -2.0692 -0.0249  1.5007
 1011MOL0     H39473  12.989   5.062   5.185  2.7464 -1.1373  0.2445
 1011MOL0     H39474  12.956   5.287   5.278  0.4228 -0.0812 -3.0242
 1011MOL0     H39475  13.056   5.240   5.410 -1.4409  0.9059  0.1969
 1011MOL0     H39476  13.225   5.153   5.465  1.9310 -1.3721  1.9835
 1011MOL0     H39477  13.551   5.169   5.584 -1.0230  0.8130  1.3937
 1011MOL0     H39478  13.460   5.023   5.580  0.8488 -0.6028 -1.0059
 1011MOL0     H39479  13.384   5.178   5.621  0.8161  0.7621 -0.6338
 1011MOL0     H39480  13.998   5.117   5.156  0.5726 -1.3799  1.0314
 1011MOL0     H39481  14.231   5.097   5.281 -2.1115 -1.4952 -0.9810
 1011MOL0     H39482  14.238   5.187   5.722 -2.4668 -0.2624 -2.0720
 1011MOL0     H39483  14.240   5.018   5.710 -2.0601 -0.2123 -2.5191
 1011MOL0     H39484  14.486   5.193   5.677 -0.3363 -0.1689  2.4252
 1011MOL0     H39485  14.463   5.086   5.814 -0.1652 -0.0868  1.2655
 1011MOL0     H39486  14.475   4.969   5.532 -0.5142  3.1063 -0.3693
 1011MOL0     H39487  14.444   4.882   5.676 -0.8488  1.5854  1.4350
 1011MOL0     H39488  14.670   4.986   5.780  0.9811 -1.8566  0.0762
 1011MOL0     H39489  14.681   5.044   5.613 -1.6037 -0.3676  0.0630
 1011MOL0     H39490  14.795   4.812   5.682  1.0558  3.9996  0.6828
 1011MOL0     H39491  14.626   4.756   5.652  0.7732 -1.2618 -0.6079
 1011MOL0     H39492  14.802   4.905   5.443 -1.4633  1.7296  0.4306
 1011MOL0     H39493  14.637   4.881   5.424  0.1749  0.5590 -0.1283
 1011MOL0     H39494  14.761   4.693   5.317  1.2835 -0.3860  0.1565
 1011MOL0     H39495  14.688   4.625   5.460  0.4411  0.1155  0.3765
 1011MOL0     H39496  14.901   4.636   5.581  1.6470 -0.3639 -0.1034
 1011MOL0     H39497  14.968   4.714   5.429  0.6453 -1.3997 -0.4130
 1011MOL0     H39498  14.025   5.188   5.648 -4.7933 -1.4094  0.8233
 1011MOL0     H39499  13.826   5.199   5.541  0.9020  1.3195  0.2669
 1011MOL0     H39500  13.565   5.136   5.088  1.2579  2.3968  0.4337
 1011MOL0     H39501  13.325   5.197   5.049  3.2589  2.9312 -0.5377
 1011MOL0     H39502  11.411   4.566   5.399 -0.1554 -1.8454  3.8657
 1011MOL0     H39503  11.248   4.461   5.232  0.5704  1.1706  0.6216
 1011MOL0     H39504  11.318   4.223   4.852  0.3649 -1.9777 -0.6914
 1011MOL0     H39505  11.263   4.155   4.631  0.9215  0.5685 -1.3185
 1011MOL0     H39506  11.167   3.979   4.520  1.0681  0.8204  0.7229
 1011MOL0     H39507  11.033   3.951   4.417  1.4242 -1.1142  1.5326
 1011MOL0     H39508  11.228   4.048   4.295  0.6769  1.8173 -1.3268
 1011MOL0     H39509  11.233   4.188   4.404 -1.5823  2.1676  0.7206
 1011MOL0     H39510  10.985   4.206   4.305 -1.1931 -2.1107 -0.4680
 1011MOL0     H39511  11.122   4.266   4.205 -0.3159  0.4596  1.0984
 1011MOL0     H39512  11.096   4.046   4.071 -2.2528  1.9840 -3.0420
 1011MOL0     H39513  10.994   4.183   4.056  1.1416 -0.4131 -1.1385
 1011MOL0     H39514  10.753   3.850   4.186  2.4146 -2.6233  1.3411
 1011MOL0     H39515  10.853   4.137   4.738 -1.0868  4.1515  2.3446
 1011MOL0     H39516  10.811   4.091   4.954  1.4110 -1.9578  1.8498
 1011MOL0     H39517  10.917   4.103   5.084  0.7529 -0.7303  0.0667
 1011MOL0     H39518  10.815   4.249   5.020  2.5495  1.2715  0.8104
 1012MOL0     O39519  10.546   1.461   6.541  0.1237 -0.9268  0.3194
 1012MOL0     C39520  10.489   1.549   6.604 -0.6609  0.5462  0.4379
 1012MOL0     O39521  10.535   1.675   6.619  0.9187  0.0636 -0.9261
 1012MOL0     C39522  10.667   1.692   6.604 -0.2156  0.0157 -0.3907
 1012MOL0     C39523  10.710   1.700   6.470  0.0282 -0.2704 -0.1671
 1012MOL0     C39524  10.841   1.719   6.430 -0.6121 -0.7410 -0.4672
 1012MOL0     C39525  10.936   1.728   6.536  0.0752 -0.2815 -0.5128
 1012MOL0     O39526  11.069   1.738   6.486 -0.7954 -0.3092  0.4743
 1012MOL0     C39527  11.162   1.644   6.535 -0.2016 -0.0910  0.7626
 1012MOL0     C39528  11.289   1.644   6.451  1.0022  0.1277 -0.2408
 1012MOL0     C39529  11.397   1.586   6.537 -1.1712 -0.0241  0.1074
 1012MOL0     C39530  11.513   1.525   6.454  0.4488 -0.0673  0.4441
 1012MOL0     C39531  11.617   1.450   6.540  0.9957 -0.1569 -0.6692
 1012MOL0     C39532  11.752   1.448   6.476 -0.3551 -0.0885 -0.4141
 1012MOL0     C39533  11.843   1.356   6.559 -0.1460  1.8087 -0.2482
 1012MOL0     C39534  11.993   1.352   6.512  0.0836  0.3365 -0.1829
 1012MOL0     N39535  12.067   1.274   6.615  0.7183 -0.7491 -0.2714
 1012MOL0     C39536  12.145   1.309   6.730  0.8481  0.2216  0.8061
 1012MOL0     C39537  12.196   1.194   6.774 -0.0842 -0.1220 -0.0474
 1012MOL0     C39538  12.282   1.177   6.903 -0.0275  0.2223  0.0845
 1012MOL0     C39539  12.416   1.248   6.898  0.0595 -0.4167  0.2497
 1012MOL0     C39540  12.491   1.231   6.760 -0.0229  0.7879 -1.1256
 1012MOL0     C39541  12.633   1.287   6.777 -0.2245  0.4643  0.0570
 1012MOL0     O39542  12.701   1.219   6.880  0.4149  0.3121  0.0670
 1012MOL0     C39543  12.833   1.251   6.902  0.3337  0.1922 -0.3827
 1012MOL0     C39544  12.902   1.150   6.973  0.0155 -0.2055  0.9105
 1012MOL0     C39545  13.042   1.156   6.984 -0.2529 -0.1307  0.3817
 1012MOL0     C39546  13.102   1.038   7.055 -0.2801 -1.3082  0.2389
 1012MOL0     C39547  13.115   1.271   6.932 -0.6053 -0.1243 -0.1416
 1012MOL0     C39548  13.264   1.283   6.946  0.1112 -0.4815  0.7364
 1012MOL0     O39549  13.304   1.414   6.941 -0.6724  0.7851  0.7414
 1012MOL0     C39550  13.423   1.437   6.878  0.4445 -0.4969  0.9788
 1012MOL0     C39551  13.422   1.520   6.761  0.3274 -0.7670  0.0161
 1012MOL0     C39552  13.535   1.566   6.698 -0.1249 -0.1307  0.4511
 1012MOL0     C39553  13.663   1.527   6.749 -0.0179 -1.1837 -0.2051
 1012MOL0     O39554  13.786   1.555   6.695 -0.1928 -0.3360  0.0902
 1012MOL0     C39555  13.802   1.589   6.555  0.0382  0.2651 -0.1835
 1012MOL0     C39556  13.956   1.631   6.530 -0.1688 -0.2721 -0.0589
 1012MOL0     C39557  13.983   1.678   6.382  0.1550  0.5620 -0.3790
 1012MOL0     C39558  14.130   1.713   6.350 -0.9028  0.0516 -0.7487
 1012MOL0     C39559  14.198   1.615   6.255 -0.7013  0.3986  0.7197
 1012MOL0     C39560  14.312   1.691   6.182  0.1988  0.5090  0.4799
 1012MOL0     C39561  14.403   1.611   6.084 -0.4192 -0.2679 -0.7873
 1012MOL0     C39562  14.506   1.704   6.011  0.2330  0.0884 -0.6599
 1012MOL0    Cl39563  14.640   1.729   6.118 -0.7353 -0.0518 -0.3655
 1012MOL0     C39564  13.669   1.440   6.854 -0.1794  0.3955 -0.2248
 1012MOL0     C39565  13.550   1.398   6.920  0.0517  0.4219  0.5231
 1012MOL0     O39566  13.333   1.182   6.949 -0.5887 -0.5773  0.2263
 1012MOL0     C39567  13.040   1.376   6.874  0.8627 -0.0300 -0.5670
 1012MOL0     C39568  12.899   1.361   6.858  0.1770  0.0975 -0.0264
 1012MOL0     N39569  12.152   1.091   6.688  0.2969  0.3795  0.0030
 1012MOL0     N39570  12.060   1.143   6.608 -0.4900  0.6467  0.7845
 1012MOL0     C39571  10.899   1.712   6.669 -0.2436 -0.1682 -0.4098
 1012MOL0     C39572  10.762   1.698   6.706 -0.6896 -0.0536  0.4187
 1012MOL0     C39573  10.355   1.527   6.657  0.5476 -0.1318  0.2353
 1012MOL0     C39574  10.274   1.640   6.685 -0.1410  0.9746 -0.2194
 1012MOL0     C39575  10.144   1.633   6.721 -0.9591 -0.1724 -0.4906
 1012MOL0     C39576  10.088   1.508   6.740  0.5381  0.0490 -0.8048
 1012MOL0     O39577   9.955   1.484   6.783  0.0149  0.0555  0.7931
 1012MOL0     C39578   9.869   1.597   6.784 -0.0514 -0.4496 -0.3387
 1012MOL0     C39579   9.720   1.566   6.818  0.4827 -0.2183 -0.0116
 1012MOL0     C39580   9.658   1.467   6.725  0.2318 -0.0432  0.4122
 1012MOL0     C39581   9.502   1.489   6.723 -0.4613  0.3063  0.3158
 1012MOL0     C39582   9.427   1.507   6.853  1.1792  0.9285  0.6768
 1012MOL0     C39583   9.385   1.542   6.958 -0.3219 -0.2872 -0.5886
 1012MOL0     C39584  10.162   1.393   6.715 -0.0561  0.2848 -1.2201
 1012MOL0     C39585  10.289   1.399   6.662  0.1133  0.1555  0.0592
 1012MOL0     C39586  10.355   1.266   6.633 -0.4298  0.1676  0.0539
 1012MOL0     H39587  10.631   1.689   6.396 -1.6483  2.2491  1.0997
 1012MOL0     H39588  10.863   1.706   6.324 -0.6268 -1.2006 -0.4157
 1012MOL0     H39589  11.125   1.544   6.562  1.1805 -0.6713  0.6130
 1012MOL0     H39590  11.191   1.675   6.635 -0.8433 -0.4057  1.0536
 1012MOL0     H39591  11.273   1.581   6.363  1.4463  0.2234 -0.3929
 1012MOL0     H39592  11.315   1.749   6.431  0.6053 -0.0384 -1.7443
 1012MOL0     H39593  11.433   1.661   6.608 -1.2948 -0.4921  0.6724
 1012MOL0     H39594  11.364   1.508   6.605  0.3892 -1.6841 -0.9331
 1012MOL0     H39595  11.470   1.448   6.389  0.5399 -0.1289  0.4575
 1012MOL0     H39596  11.551   1.610   6.397 -1.9091  2.7825  2.7337
 1012MOL0     H39597  11.581   1.348   6.550  1.6143 -0.3825 -0.6901
 1012MOL0     H39598  11.620   1.478   6.646 -1.3698 -0.1851 -0.5524
 1012MOL0     H39599  11.742   1.400   6.378 -0.6107  0.8329 -0.8514
 1012MOL0     H39600  11.809   1.540   6.458  0.5394 -1.2336 -4.7133
 1012MOL0     H39601  11.796   1.258   6.551 -0.2494  1.9328 -1.2544
 1012MOL0     H39602  11.835   1.378   6.666  1.7995 -3.3854  1.3194
 1012MOL0     H39603  12.000   1.305   6.413 -0.7256  0.1379 -0.1556
 1012MOL0     H39604  12.030   1.452   6.490 -0.3787  0.1989 -1.7287
 1012MOL0     H39605  12.161   1.413   6.758 -0.3847 -0.0812  2.8822
 1012MOL0     H39606  12.305   1.074   6.933 -1.3145  0.5128  2.2792
 1012MOL0     H39607  12.218   1.211   6.985  0.0766  1.4083 -0.3051
 1012MOL0     H39608  12.398   1.355   6.911  1.1326 -0.2071  0.1342
 1012MOL0     H39609  12.480   1.217   6.981  2.1299 -0.4264 -1.2730
 1012MOL0     H39610  12.498   1.129   6.721 -0.5193  0.2031  0.2528
 1012MOL0     H39611  12.434   1.288   6.687  1.7417  2.9010 -0.9557
 1012MOL0     H39612  12.687   1.262   6.685 -1.1756  1.3293 -0.7586
 1012MOL0     H39613  12.634   1.394   6.797  1.3625 -0.1310  4.0262
 1012MOL0     H39614  12.862   1.056   7.010  0.3125  0.0246  1.8357
 1012MOL0     H39615  13.168   1.073   7.134  0.5941 -2.1281 -0.1078
 1012MOL0     H39616  13.163   0.971   6.994 -0.7405 -1.4316 -0.0943
 1012MOL0     H39617  13.037   0.969   7.109  1.9990 -2.3531  1.8023
 1012MOL0     H39618  13.330   1.571   6.730  0.8186  1.7024  2.2376
 1012MOL0     H39619  13.523   1.639   6.618 -1.7012 -1.7274 -0.8457
 1012MOL0     H39620  13.778   1.498   6.499  1.5109 -1.5116  1.9093
 1012MOL0     H39621  13.724   1.665   6.537 -2.0219 -1.4782  0.9376
 1012MOL0     H39622  13.965   1.715   6.599 -0.6246 -1.1085  1.0490
 1012MOL0     H39623  14.026   1.552   6.560 -0.5680 -1.4337 -2.0100
 1012MOL0     H39624  13.920   1.766   6.365 -2.4349 -0.5824  2.3643
 1012MOL0     H39625  13.945   1.599   6.316 -1.1125  1.2935 -0.5535
 1012MOL0     H39626  14.176   1.715   6.449 -1.5003  3.0885 -0.4451
 1012MOL0     H39627  14.130   1.811   6.301  0.1087 -1.2475 -3.6114
 1012MOL0     H39628  14.243   1.533   6.310 -2.8770 -0.8445  0.7435
 1012MOL0     H39629  14.128   1.575   6.181  0.2434  0.1570 -0.0755
 1012MOL0     H39630  14.377   1.721   6.264  1.0234  0.2348 -0.0674
 1012MOL0     H39631  14.283   1.788   6.139  0.2448  1.5989  2.7841
 1012MOL0     H39632  14.343   1.563   6.005 -0.4377  0.5611 -1.2929
 1012MOL0     H39633  14.453   1.534   6.143 -0.0332  1.0311  0.6270
 1012MOL0     H39634  14.467   1.803   5.988 -0.2472 -0.7597 -4.1606
 1012MOL0     H39635  14.533   1.678   5.908 -0.6419  0.8559 -1.0925
 1012MOL0     H39636  13.769   1.411   6.886 -1.4060 -0.8546  2.7829
 1012MOL0     H39637  13.556   1.343   7.014 -2.8107 -0.5846  0.2387
 1012MOL0     H39638  13.081   1.469   6.834  1.6164 -0.0769  0.0748
 1012MOL0     H39639  12.846   1.439   6.803 -1.0740 -0.4242  0.4016
 1012MOL0     H39640  10.974   1.728   6.747 -0.2645  1.9852 -0.7882
 1012MOL0     H39641  10.727   1.675   6.806  0.5304  0.9266  1.0993
 1012MOL0     H39642  10.318   1.740   6.682  4.0450 -0.4217  3.2161
 1012MOL0     H39643  10.095   1.730   6.718 -3.9331 -1.5775 -1.8810
 1012MOL0     H39644   9.896   1.668   6.862 -1.9827  1.9033 -1.6529
 1012MOL0     H39645   9.886   1.642   6.686  2.5374  0.8205  0.6062
 1012MOL0     H39646   9.675   1.666   6.821  0.3195 -0.3072  2.9287
 1012MOL0     H39647   9.711   1.520   6.916 -1.7292  1.6667  0.7783
 1012MOL0     H39648   9.687   1.473   6.620  1.8712 -2.3433  0.6526
 1012MOL0     H39649   9.688   1.366   6.753  0.6382 -0.7337 -2.2798
 1012MOL0     H39650   9.468   1.402   6.667  0.6213 -0.2825  0.5375
 1012MOL0     H39651   9.481   1.578   6.664 -1.1382 -0.3814 -0.4941
 1012MOL0     H39652   9.360   1.582   7.054 -1.2101 -0.7498 -0.6172
 1012MOL0     H39653  10.105   1.303   6.739  1.6160 -0.0664  1.9612
 1012MOL0     H39654  10.417   1.265   6.543 -2.0995  0.3785 -1.1590
 1012MOL0     H39655  10.419   1.238   6.717  1.8996  0.4596 -1.5474
 1012MOL0     H39656  10.283   1.184   6.626 -1.4921  1.1443 -1.1367
 1013MOL0     O39657   2.799   3.050   0.351  0.7880  0.6503  0.8941
 1013MOL0     C39658   2.739   2.951   0.307 -0.3740 -0.0578  0.4668
 1013MOL0     O39659   2.792   2.864   0.222 -0.2833  0.2842 -0.0079
 1013MOL0     C39660   2.929   2.874   0.201 -0.8520 -0.4978  0.2102
 1013MOL0     C39661   3.021   2.865   0.301  0.3728 -0.0164 -0.2993
 1013MOL0     C39662   3.157   2.860   0.275  0.0925  0.5843  0.1156
 1013MOL0     C39663   3.205   2.878   0.138 -0.1955  0.4982 -1.0135
 1013MOL0     O39664   3.347   2.861   0.135  0.9776 -0.4581 -0.5222
 1013MOL0     C39665   3.408   2.877   0.003 -0.5509  0.5339  1.0476
 1013MOL0     C39666   3.567   2.894   0.025  0.9132  0.0974  1.1619
 1013MOL0     C39667   3.629   2.937  -0.118  0.0068 -1.0353  0.5110
 1013MOL0     C39668   3.601   3.084  -0.157  1.7281 -0.6378  0.6928
 1013MOL0     C39669   3.714   3.150  -0.221 -0.1513 -0.1875  0.9579
 1013MOL0     C39670   3.844   3.176  -0.141  0.1411  0.2166  1.0924
 1013MOL0     C39671   3.861   3.325  -0.101  0.3204  0.6925 -1.0740
 1013MOL0     C39672   3.949   3.344   0.015 -1.1204 -0.4134 -0.3673
 1013MOL0     N39673   4.094   3.312  -0.010  0.7985  0.2082  0.0108
 1013MOL0     C39674   4.178   3.390  -0.079 -0.4742  0.3125  0.2687
 1013MOL0     C39675   4.300   3.335  -0.055 -0.1563  0.1764 -0.0349
 1013MOL0     C39676   4.437   3.376  -0.108  0.4174  0.0844  0.1973
 1013MOL0     C39677   4.523   3.428   0.010 -1.4763 -1.1205 -0.0805
 1013MOL0     C39678   4.657   3.492  -0.044  0.4883 -0.2603  0.2583
 1013MOL0     C39679   4.758   3.396  -0.103 -0.5892 -0.5396  0.7016
 1013MOL0     O39680   4.782   3.297  -0.005  0.1644 -0.1181  0.7125
 1013MOL0     C39681   4.856   3.187  -0.034  0.8842  0.2826 -0.2833
 1013MOL0     C39682   4.953   3.184  -0.138  0.4213  0.3473  0.0271
 1013MOL0     C39683   5.027   3.064  -0.165  0.3951 -0.3304  0.7698
 1013MOL0     C39684   5.133   3.063  -0.270 -0.9671 -0.0074  0.5784
 1013MOL0     C39685   5.000   2.952  -0.084 -0.5655  0.1390 -0.0431
 1013MOL0     C39686   5.067   2.822  -0.104 -0.2908 -0.0478  0.2373
 1013MOL0     O39687   5.199   2.827  -0.110  0.1908 -0.8572 -0.7231
 1013MOL0     C39688   5.269   2.707  -0.135 -0.0720  0.7342 -1.0138
 1013MOL0     C39689   5.235   2.616  -0.227  0.6589  0.1464 -0.0187
 1013MOL0     C39690   5.296   2.487  -0.228  0.3447  0.3671 -0.6008
 1013MOL0     C39691   5.400   2.459  -0.129  0.7853  0.8094  0.0905
 1013MOL0     O39692   5.444   2.326  -0.111  0.8240 -0.0691 -0.0269
 1013MOL0     C39693   5.566   2.300  -0.036 -0.0471 -0.2577 -0.1733
 1013MOL0     C39694   5.607   2.151  -0.058  1.1576 -0.7315 -0.7069
 1013MOL0     C39695   5.500   2.044  -0.017  0.6361  0.2457 -0.6087
 1013MOL0     C39696   5.424   2.068   0.119  0.6030  0.5820  0.1653
 1013MOL0     C39697   5.355   1.947   0.176 -0.1272  0.3489 -0.2138
 1013MOL0     C39698   5.270   1.860   0.070 -0.2023 -0.4517  0.7029
 1013MOL0     C39699   5.188   1.757   0.143 -0.0232 -0.1220  0.5182
 1013MOL0     C39700   5.082   1.696   0.037 -0.0131 -0.1132 -0.6293
 1013MOL0    Cl39701   4.933   1.795   0.009 -0.0191  0.0121 -0.2492
 1013MOL0     C39702   5.453   2.563  -0.061  0.4988 -0.0314 -0.0033
 1013MOL0     C39703   5.383   2.681  -0.059  0.1774 -0.8240  0.3381
 1013MOL0     O39704   4.996   2.730  -0.138  0.3532  0.4462  0.0377
 1013MOL0     C39705   4.898   2.959   0.012 -0.0122 -0.2316  0.0118
 1013MOL0     C39706   4.829   3.072   0.042 -0.0470  0.1336  0.1673
 1013MOL0     N39707   4.279   3.218   0.008  0.4024  0.2546  0.3210
 1013MOL0     N39708   4.153   3.198   0.026  0.1791 -0.7058  0.6929
 1013MOL0     C39709   3.114   2.883   0.037  0.4964  0.7683  0.2494
 1013MOL0     C39710   2.976   2.875   0.065 -0.1624  0.3098  0.6558
 1013MOL0     C39711   2.602   2.942   0.353 -0.6327  0.2028 -0.1353
 1013MOL0     C39712   2.553   3.036   0.442 -0.7374 -0.1204 -0.5969
 1013MOL0     C39713   2.417   3.040   0.475 -0.8199 -0.6624 -0.2430
 1013MOL0     C39714   2.331   2.949   0.423 -0.2238  1.0249  0.1979
 1013MOL0     O39715   2.198   2.948   0.449 -0.2302 -0.6126  0.0503
 1013MOL0     C39716   2.132   3.040   0.543  0.9232  0.6688 -0.0672
 1013MOL0     C39717   1.977   3.015   0.524  0.3325  0.3348 -0.4253
 1013MOL0     C39718   1.880   3.126   0.557  0.1192  1.0614  0.3516
 1013MOL0     C39719   1.739   3.093   0.520 -0.1076  0.1767  0.0697
 1013MOL0     C39720   1.685   2.979   0.604  0.2322 -0.5783  0.6092
 1013MOL0     C39721   1.636   2.895   0.670 -0.4545 -0.1695  0.0967
 1013MOL0     C39722   2.376   2.857   0.326 -0.1850 -0.4904  0.3083
 1013MOL0     C39723   2.510   2.849   0.292 -0.5117  0.5676  0.2575
 1013MOL0     C39724   2.553   2.745   0.192 -0.5075  0.0054 -0.0468
 1013MOL0     H39725   2.978   2.856   0.400  1.0888 -0.8571 -0.0530
 1013MOL0     H39726   3.222   2.860   0.362 -1.2401  2.0607  1.1495
 1013MOL0     H39727   3.378   2.967  -0.052  1.8870  0.7670 -0.0457
 1013MOL0     H39728   3.379   2.786  -0.051  0.8914  1.1126 -0.8576
 1013MOL0     H39729   3.596   2.965   0.102  2.1220 -1.8553  2.5809
 1013MOL0     H39730   3.615   2.804   0.065  2.7844  1.8057  2.9777
 1013MOL0     H39731   3.737   2.921  -0.122  1.0317  3.5585  3.0075
 1013MOL0     H39732   3.571   2.882  -0.193 -2.1337  2.0716 -0.2992
 1013MOL0     H39733   3.526   3.085  -0.237  1.9518 -1.6226  0.4581
 1013MOL0     H39734   3.570   3.146  -0.072  0.6797  0.9535 -0.7933
 1013MOL0     H39735   3.666   3.240  -0.262  2.9663  0.4543 -1.6149
 1013MOL0     H39736   3.732   3.083  -0.305 -0.6535  1.3407 -0.4156
 1013MOL0     H39737   3.849   3.104  -0.059  1.7322  0.2206  1.0416
 1013MOL0     H39738   3.927   3.161  -0.211 -1.5152 -1.5950 -0.5784
 1013MOL0     H39739   3.758   3.354  -0.078  0.3818 -0.7718  1.3137
 1013MOL0     H39740   3.892   3.389  -0.185  0.1459 -2.7160 -3.9585
 1013MOL0     H39741   3.932   3.450   0.038 -2.6671 -0.8706  0.8070
 1013MOL0     H39742   3.911   3.271   0.087 -0.6932 -1.7689 -1.4892
 1013MOL0     H39743   4.153   3.482  -0.130 -2.6054 -0.0507  0.5433
 1013MOL0     H39744   4.426   3.451  -0.186  1.3596 -1.6044 -1.6667
 1013MOL0     H39745   4.475   3.291  -0.166  1.4346  0.0450  0.8982
 1013MOL0     H39746   4.468   3.500   0.071 -1.5173 -1.7710  0.6676
 1013MOL0     H39747   4.550   3.337   0.065  1.7260 -2.1726 -3.0138
 1013MOL0     H39748   4.630   3.559  -0.126  1.2397  0.0409  0.2454
 1013MOL0     H39749   4.713   3.556   0.025  4.0095 -0.5258 -2.1173
 1013MOL0     H39750   4.713   3.350  -0.192  0.3059  1.5184 -0.8940
 1013MOL0     H39751   4.849   3.454  -0.117 -1.0558 -0.1852 -1.2056
 1013MOL0     H39752   4.991   3.269  -0.195  1.0205  0.1124  0.0717
 1013MOL0     H39753   5.106   2.991  -0.349  0.7836  0.6913 -0.7344
 1013MOL0     H39754   5.229   3.029  -0.232  0.0013 -1.1167 -2.4962
 1013MOL0     H39755   5.153   3.158  -0.320  0.8599 -0.4131  0.4874
 1013MOL0     H39756   5.154   2.632  -0.298 -0.5751  1.0971  1.5397
 1013MOL0     H39757   5.259   2.402  -0.286  2.2394 -1.2058  0.3756
 1013MOL0     H39758   5.652   2.365  -0.054 -1.0533  1.1117 -0.1804
 1013MOL0     H39759   5.548   2.309   0.072 -1.1771  2.4998 -0.5187
 1013MOL0     H39760   5.631   2.128  -0.162 -1.0180 -2.7053 -0.8794
 1013MOL0     H39761   5.692   2.119   0.003  1.1714 -3.3240 -1.9479
 1013MOL0     H39762   5.546   1.945  -0.025 -1.7662 -0.9345 -0.9135
 1013MOL0     H39763   5.421   2.034  -0.093 -0.4550 -1.5344  0.6627
 1013MOL0     H39764   5.342   2.139   0.103  0.1999  0.4908  1.6672
 1013MOL0     H39765   5.485   2.108   0.201 -1.2670  0.3191  1.7651
 1013MOL0     H39766   5.432   1.883   0.220 -0.1633 -0.1436 -0.8388
 1013MOL0     H39767   5.278   1.982   0.245 -0.9523 -4.3742  1.6648
 1013MOL0     H39768   5.336   1.802   0.004  0.9845  2.1519 -0.5467
 1013MOL0     H39769   5.209   1.918   0.000 -0.4461 -2.4334 -0.8313
 1013MOL0     H39770   5.129   1.811   0.218 -2.0770 -0.6507 -0.6597
 1013MOL0     H39771   5.248   1.675   0.183  0.4021 -1.4584 -2.5690
 1013MOL0     H39772   5.056   1.602   0.086  0.8766  1.3789  3.0785
 1013MOL0     H39773   5.131   1.678  -0.059  0.1169  1.8961 -0.9790
 1013MOL0     H39774   5.535   2.561   0.010 -0.8933 -3.3050  1.7305
 1013MOL0     H39775   5.415   2.770  -0.005  1.9120 -0.0158 -1.8120
 1013MOL0     H39776   4.870   2.871   0.069 -0.1760  0.1233  0.4881
 1013MOL0     H39777   4.758   3.070   0.124 -1.7713  2.2607 -1.1442
 1013MOL0     H39778   3.152   2.905  -0.063 -0.7259 -0.7426 -0.5970
 1013MOL0     H39779   2.907   2.863  -0.017 -0.3728  1.9118  0.5639
 1013MOL0     H39780   2.622   3.099   0.497  0.2471 -1.1241 -0.6449
 1013MOL0     H39781   2.391   3.119   0.545  2.1875 -2.2668  3.0236
 1013MOL0     H39782   2.165   3.009   0.642 -1.3090  4.1871  1.9711
 1013MOL0     H39783   2.155   3.143   0.514  0.3626  0.4167 -1.4786
 1013MOL0     H39784   1.961   2.927   0.588  2.5229  0.0193 -0.2304
 1013MOL0     H39785   1.953   2.992   0.420 -5.5661 -2.6091  1.1086
 1013MOL0     H39786   1.886   3.148   0.664 -0.6346 -2.0603  1.1318
 1013MOL0     H39787   1.903   3.217   0.501 -1.1096  0.7141 -0.7402
 1013MOL0     H39788   1.740   3.059   0.416 -2.5171 -0.7023  0.2766
 1013MOL0     H39789   1.676   3.183   0.529  1.4446  1.3004  0.0198
 1013MOL0     H39790   1.615   2.807   0.726 -0.2207 -0.6705 -0.5861
 1013MOL0     H39791   2.305   2.792   0.276  1.6321 -3.0516  0.8540
 1013MOL0     H39792   2.466   2.690   0.155 -0.6251  0.3566 -0.3026
 1013MOL0     H39793   2.588   2.804   0.106  1.4105 -0.5012  0.3500
 1013MOL0     H39794   2.623   2.669   0.227 -1.2114 -1.2333 -1.2272
 1014MOL0     O39795   3.387   2.584   2.646  0.2911 -0.1145 -0.7742
 1014MOL0     C39796   3.466   2.548   2.564 -0.4255 -0.1257  0.1818
 1014MOL0     O39797   3.606   2.539   2.590 -0.4962  0.1352  0.2161
 1014MOL0     C39798   3.649   2.608   2.699 -0.0399 -0.3769 -0.2843
 1014MOL0     C39799   3.607   2.737   2.742 -0.0172 -0.1091  0.1216
 1014MOL0     C39800   3.666   2.801   2.848 -0.1392 -0.5796 -0.2726
 1014MOL0     C39801   3.748   2.725   2.933 -0.6926 -0.1557 -0.6965
 1014MOL0     O39802   3.779   2.772   3.058  0.5758  0.0982  0.1455
 1014MOL0     C39803   3.785   2.910   3.080 -0.1256 -0.0408 -0.3335
 1014MOL0     C39804   3.661   2.947   3.164  0.2725  0.2504 -0.3586
 1014MOL0     C39805   3.678   3.076   3.248  0.0010 -0.1939  0.8337
 1014MOL0     C39806   3.706   3.198   3.162  0.8484 -1.3068  0.9267
 1014MOL0     C39807   3.737   3.317   3.248 -0.2751 -0.2697 -0.6000
 1014MOL0     C39808   3.851   3.315   3.343 -0.4175  0.6532 -0.1970
 1014MOL0     C39809   3.985   3.289   3.281  0.5236 -0.0987 -0.3403
 1014MOL0     C39810   4.028   3.400   3.190 -0.7815  0.5172  0.3793
 1014MOL0     N39811   4.151   3.378   3.113  0.2911 -0.0790  0.4235
 1014MOL0     C39812   4.270   3.439   3.133 -0.4995 -0.4532 -0.5758
 1014MOL0     C39813   4.356   3.379   3.056  0.6171  0.0828  0.4522
 1014MOL0     C39814   4.504   3.404   3.043  0.8223  0.2582  0.1932
 1014MOL0     C39815   4.593   3.329   3.145 -1.1843 -0.8262  0.5730
 1014MOL0     C39816   4.738   3.365   3.122 -0.1368 -0.0520 -0.3320
 1014MOL0     C39817   4.826   3.297   3.228  0.3568 -0.8092  0.1589
 1014MOL0     O39818   4.843   3.156   3.199  0.3279  0.4930 -0.1716
 1014MOL0     C39819   4.913   3.090   3.289  0.5048  0.1426 -0.1722
 1014MOL0     C39820   4.971   3.141   3.406  0.0812 -0.0564 -0.2030
 1014MOL0     C39821   5.063   3.068   3.485 -0.1470 -0.0107 -0.0073
 1014MOL0     C39822   5.126   3.135   3.601 -0.8034 -0.6213  0.1216
 1014MOL0     C39823   5.107   2.950   3.443  0.4155  1.2287 -0.1299
 1014MOL0     C39824   5.218   2.863   3.500 -0.0657  0.9752 -0.9190
 1014MOL0     O39825   5.337   2.921   3.543  0.4502 -0.3666 -0.9922
 1014MOL0     C39826   5.433   2.830   3.570 -0.3453 -0.4162 -0.7792
 1014MOL0     C39827   5.466   2.788   3.702  0.2674 -0.8673 -0.1648
 1014MOL0     C39828   5.581   2.707   3.716  0.8562 -0.7807 -0.3798
 1014MOL0     C39829   5.669   2.676   3.611  0.2491  0.4861 -0.7431
 1014MOL0     O39830   5.786   2.599   3.623  0.0863 -0.4624  0.0728
 1014MOL0     C39831   5.859   2.594   3.746 -0.1340  0.5002 -0.1186
 1014MOL0     C39832   6.009   2.565   3.716 -0.1401  0.1816  0.4395
 1014MOL0     C39833   6.062   2.450   3.799 -1.1458 -0.4818 -0.4313
 1014MOL0     C39834   6.209   2.481   3.843 -0.3495 -0.9371  0.6612
 1014MOL0     C39835   6.262   2.378   3.943  0.0475 -0.6399 -0.4607
 1014MOL0     C39836   6.396   2.418   3.988 -0.6135  0.1424 -0.1345
 1014MOL0     C39837   6.436   2.339   4.112 -0.1785  0.2500  0.7153
 1014MOL0     C39838   6.558   2.252   4.078 -0.2929  0.4686 -0.1886
 1014MOL0    Cl39839   6.500   2.115   3.969  0.1384 -0.1679  0.3331
 1014MOL0     C39840   5.638   2.723   3.488 -0.1007  0.3055  0.3519
 1014MOL0     C39841   5.521   2.795   3.465 -0.0785  0.2976  0.9475
 1014MOL0     O39842   5.195   2.744   3.503  0.0741  0.1245 -0.1576
 1014MOL0     C39843   5.038   2.886   3.334  0.8821 -0.8868 -0.3436
 1014MOL0     C39844   4.950   2.963   3.258  0.6876 -0.3255 -0.3746
 1014MOL0     N39845   4.280   3.296   2.970  0.2008 -1.1291 -0.5012
 1014MOL0     N39846   4.162   3.289   3.009  0.1103  1.0625 -0.5592
 1014MOL0     C39847   3.779   2.591   2.904 -0.1851 -0.5054  0.4162
 1014MOL0     C39848   3.734   2.540   2.786  0.8012 -0.6843  1.4400
 1014MOL0     C39849   3.420   2.511   2.423  0.1614  0.2669  0.5691
 1014MOL0     C39850   3.515   2.452   2.336 -0.1085  0.5400 -0.9439
 1014MOL0     C39851   3.484   2.406   2.210 -0.4354  1.3294  0.9262
 1014MOL0     C39852   3.355   2.418   2.162 -0.1380 -0.2941  0.4980
 1014MOL0     O39853   3.322   2.382   2.031 -0.9115  0.8025  0.1196
 1014MOL0     C39854   3.418   2.310   1.948  0.2736 -0.9394 -0.3710
 1014MOL0     C39855   3.429   2.165   1.963 -0.3579 -0.9070  0.4657
 1014MOL0     C39856   3.297   2.087   1.924 -0.0840 -0.2078  0.1488
 1014MOL0     C39857   3.328   1.934   1.953  0.1624  0.3066 -0.9192
 1014MOL0     C39858   3.218   1.860   1.886  0.1744 -0.3170  0.6198
 1014MOL0     C39859   3.122   1.796   1.847 -0.1964 -0.1696  0.3762
 1014MOL0     C39860   3.261   2.491   2.239  0.1113 -0.2777 -1.2765
 1014MOL0     C39861   3.292   2.533   2.372 -0.1795  0.3277  0.6088
 1014MOL0     C39862   3.176   2.610   2.442  0.5169  0.3556  0.6262
 1014MOL0     H39863   3.540   2.790   2.675  0.7623  0.7804  0.0062
 1014MOL0     H39864   3.645   2.906   2.864 -0.3504 -0.7495  0.6101
 1014MOL0     H39865   3.792   2.975   2.992  1.5339 -0.6189 -0.6620
 1014MOL0     H39866   3.872   2.927   3.144 -1.6401 -3.2245  2.9472
 1014MOL0     H39867   3.566   2.952   3.109 -1.1617 -0.2153  1.9096
 1014MOL0     H39868   3.634   2.870   3.237 -1.2287 -0.6205 -1.7637
 1014MOL0     H39869   3.584   3.095   3.301 -1.0020  0.7156 -1.1389
 1014MOL0     H39870   3.752   3.062   3.326  0.7398 -0.5996  0.0738
 1014MOL0     H39871   3.786   3.182   3.089 -0.4066 -0.9000 -0.5936
 1014MOL0     H39872   3.623   3.228   3.097  0.1935 -1.4341  1.6889
 1014MOL0     H39873   3.652   3.347   3.310 -2.4185 -0.3768 -3.2934
 1014MOL0     H39874   3.762   3.401   3.181  1.5786 -0.7721 -0.5968
 1014MOL0     H39875   3.851   3.411   3.395 -2.3206  0.9368 -0.6298
 1014MOL0     H39876   3.835   3.242   3.423  2.1912  1.4656  1.1744
 1014MOL0     H39877   3.990   3.194   3.228 -1.0296 -1.0923  1.1958
 1014MOL0     H39878   4.059   3.282   3.361  1.7808 -2.3280 -1.6135
 1014MOL0     H39879   3.951   3.427   3.117 -0.2740  1.0702  0.0404
 1014MOL0     H39880   4.054   3.485   3.253  2.0768 -0.7984  1.1537
 1014MOL0     H39881   4.294   3.514   3.207  0.5929  0.4757 -1.8042
 1014MOL0     H39882   4.531   3.510   3.041  2.3963 -0.1214 -1.3469
 1014MOL0     H39883   4.535   3.354   2.951 -0.6768 -0.1377 -0.1149
 1014MOL0     H39884   4.555   3.357   3.243  2.1046  2.9465  0.9986
 1014MOL0     H39885   4.578   3.222   3.127  0.0259 -1.5120  3.1788
 1014MOL0     H39886   4.773   3.342   3.021  1.1236 -0.5845  0.2204
 1014MOL0     H39887   4.734   3.473   3.139 -0.5743 -0.2351  0.7925
 1014MOL0     H39888   4.918   3.353   3.244 -0.4970  1.4035 -1.9372
 1014MOL0     H39889   4.766   3.313   3.318  2.2859 -1.1561  1.5642
 1014MOL0     H39890   4.948   3.244   3.431 -0.5109  0.1569 -1.5032
 1014MOL0     H39891   5.216   3.181   3.561 -0.8538  0.5413  1.2964
 1014MOL0     H39892   5.165   3.062   3.673  1.0385  0.0292 -0.1658
 1014MOL0     H39893   5.060   3.212   3.642  1.0727  2.6185 -2.4627
 1014MOL0     H39894   5.411   2.823   3.789 -0.3010 -1.3781 -0.3142
 1014MOL0     H39895   5.610   2.669   3.813  0.7583  0.1762  0.0401
 1014MOL0     H39896   5.841   2.678   3.813 -0.3735  0.2771  0.0957
 1014MOL0     H39897   5.812   2.512   3.801  0.5349  0.0845 -0.1607
 1014MOL0     H39898   6.008   2.534   3.611 -4.8848  0.4280  0.1720
 1014MOL0     H39899   6.075   2.652   3.720  1.5830 -1.1098  1.0488
 1014MOL0     H39900   6.066   2.356   3.744  0.0332 -1.2386  0.9070
 1014MOL0     H39901   6.009   2.445   3.894  1.8261 -0.4280  1.3846
 1014MOL0     H39902   6.205   2.579   3.891  0.8304 -0.8741  0.6519
 1014MOL0     H39903   6.276   2.495   3.758 -0.2032 -0.7105  0.8118
 1014MOL0     H39904   6.190   2.373   4.025 -1.7261 -1.2632 -1.9901
 1014MOL0     H39905   6.267   2.277   3.901 -2.8184 -1.8636  1.8221
 1014MOL0     H39906   6.406   2.525   4.006 -0.0992 -0.3294  2.8540
 1014MOL0     H39907   6.464   2.407   3.902 -1.5494  1.3399 -1.0637
 1014MOL0     H39908   6.359   2.266   4.138 -1.6177  0.4134 -2.6376
 1014MOL0     H39909   6.450   2.417   4.188 -0.3024  0.1756  0.8140
 1014MOL0     H39910   6.600   2.200   4.165  0.8372 -0.1088 -1.0620
 1014MOL0     H39911   6.642   2.308   4.036  0.2199 -1.1725 -1.4560
 1014MOL0     H39912   5.703   2.704   3.404  0.7395  1.1913  0.7817
 1014MOL0     H39913   5.503   2.826   3.363  3.6197 -2.0630 -0.6575
 1014MOL0     H39914   5.065   2.789   3.292  2.3674 -1.3437  1.5021
 1014MOL0     H39915   4.908   2.920   3.168  0.8899 -2.1078  0.3364
 1014MOL0     H39916   3.840   2.528   2.967  0.1481 -0.6566 -0.0518
 1014MOL0     H39917   3.757   2.436   2.766 -0.8141 -1.1046  1.6019
 1014MOL0     H39918   3.613   2.430   2.378 -0.9011 -0.5731  0.4203
 1014MOL0     H39919   3.569   2.370   2.153 -3.3644 -2.4196 -1.5923
 1014MOL0     H39920   3.396   2.336   1.844 -1.2420  0.4953  0.2689
 1014MOL0     H39921   3.514   2.361   1.960 -0.9154  0.9600  1.8765
 1014MOL0     H39922   3.450   2.132   2.065 -0.7535  1.3096  1.3015
 1014MOL0     H39923   3.518   2.142   1.902 -1.8193 -3.4136 -0.9075
 1014MOL0     H39924   3.209   2.123   1.977 -3.1880 -0.2321 -4.4569
 1014MOL0     H39925   3.277   2.096   1.817  0.6643 -0.9741 -0.0607
 1014MOL0     H39926   3.322   1.930   2.062  0.8216 -1.2233 -0.9165
 1014MOL0     H39927   3.429   1.900   1.929  1.7442  0.3935  4.3140
 1014MOL0     H39928   3.045   1.724   1.825  0.3260 -0.5495 -0.2310
 1014MOL0     H39929   3.163   2.514   2.197  1.1268  1.7604 -2.7296
 1014MOL0     H39930   3.094   2.618   2.371 -1.8141  0.8501  3.1948
 1014MOL0     H39931   3.135   2.561   2.531 -2.4435  0.4335 -0.5949
 1014MOL0     H39932   3.218   2.708   2.468  0.1696  0.0891  2.3162
 1015MOL0     O39933   4.402   9.976   0.467 -0.0977 -0.0289  0.0971
 1015MOL0     C39934   4.321  10.015   0.385  0.5233 -0.3022  0.6969
 1015MOL0     O39935   4.345  10.115   0.288  0.3537  0.1365 -1.4067
 1015MOL0     C39936   4.477  10.150   0.262 -0.5099 -0.2208  0.5488
 1015MOL0     C39937   4.524  10.262   0.327  0.2674  0.1607  0.1693
 1015MOL0     C39938   4.645  10.325   0.291  0.4604 -0.3886  0.0377
 1015MOL0     C39939   4.725  10.265   0.203 -0.0507  0.2002  0.0843
 1015MOL0     O39940   4.852  10.306   0.183  0.3015  0.3682 -0.2046
 1015MOL0     C39941   4.942  10.246   0.081  0.5199  0.2717  0.3004
 1015MOL0     C39942   5.085  10.303   0.079  0.1882  0.4459 -0.3123
 1015MOL0     C39943   5.100  10.432  -0.014 -1.2266  0.5850 -0.6800
 1015MOL0     C39944   5.216  10.526   0.020 -0.4766  0.1628  0.1831
 1015MOL0     C39945   5.346  10.450   0.004  0.4389  0.3289 -0.1783
 1015MOL0     C39946   5.457  10.546   0.062  0.4029 -0.1011 -0.4939
 1015MOL0     C39947   5.605  10.495   0.054 -0.1524 -0.2725 -0.0241
 1015MOL0     C39948   5.629  10.391   0.165 -0.3018 -1.0410 -0.3757
 1015MOL0     N39949   5.748  10.310   0.145  0.0454 -0.3154  0.4864
 1015MOL0     C39950   5.876  10.352   0.174 -0.9097 -0.0629 -0.1192
 1015MOL0     C39951   5.954  10.239   0.148 -0.4317  0.9877  0.1959
 1015MOL0     C39952   6.103  10.238   0.164 -0.1859  0.1220  0.4164
 1015MOL0     C39953   6.184  10.346   0.075  0.1889 -0.0727  0.1280
 1015MOL0     C39954   6.330  10.311   0.071 -0.2673 -0.7084  0.9807
 1015MOL0     C39955   6.377  10.288   0.215 -0.5203  0.2332 -0.1179
 1015MOL0     O39956   6.515  10.298   0.204  0.2348 -0.0733  0.2591
 1015MOL0     C39957   6.593  10.261   0.308 -0.5333 -0.1233  0.4409
 1015MOL0     C39958   6.721  10.245   0.274 -0.6673  0.6492 -0.6458
 1015MOL0     C39959   6.814  10.206   0.368 -0.9247  0.7681 -0.3150
 1015MOL0     C39960   6.954  10.178   0.316 -0.5748  0.7080  0.0534
 1015MOL0     C39961   6.782  10.186   0.502 -0.2930  0.1598 -0.2672
 1015MOL0     C39962   6.876  10.155   0.619  0.7272 -0.4939  0.6704
 1015MOL0     O39963   6.821  10.149   0.739 -0.1449 -0.5453 -0.3100
 1015MOL0     C39964   6.911  10.157   0.847  0.0763  0.7045 -0.2033
 1015MOL0     C39965   6.998  10.049   0.886  0.5782  0.2405 -0.0210
 1015MOL0     C39966   7.105  10.068   0.967  0.5945 -0.5776  0.1397
 1015MOL0     C39967   7.116  10.198   1.039 -0.3399  0.3581  0.3980
 1015MOL0     O39968   7.218  10.237   1.112  0.0518 -0.6696 -0.5493
 1015MOL0     C39969   7.341  10.182   1.082  0.3914 -0.2071  0.6378
 1015MOL0     C39970   7.442  10.302   1.094  0.2587 -0.4359  0.6201
 1015MOL0     C39971   7.569  10.279   1.021 -0.5114  0.5592 -0.0151
 1015MOL0     C39972   7.638  10.152   1.059 -0.1053  0.5883 -0.1644
 1015MOL0     C39973   7.741  10.107   0.949 -0.4771 -0.5695 -0.2595
 1015MOL0     C39974   7.842   9.996   0.993  0.1317 -0.6714  0.3690
 1015MOL0     C39975   7.927   9.933   0.880 -0.4113 -0.9073 -0.5351
 1015MOL0     C39976   8.037  10.022   0.816 -0.9985  0.6691 -0.2357
 1015MOL0    Cl39977   8.138  10.089   0.952 -0.1790  0.0458  0.1950
 1015MOL0     C39978   7.021  10.298   1.018  0.1046 -0.6298 -0.2859
 1015MOL0     C39979   6.923  10.275   0.922  0.5408 -0.3809 -0.5637
 1015MOL0     O39980   6.991  10.117   0.587  0.2583  0.3791  0.4865
 1015MOL0     C39981   6.654  10.218   0.541  0.7680  0.4584  0.3897
 1015MOL0     C39982   6.551  10.246   0.443 -0.1317 -0.8508  0.2968
 1015MOL0     N39983   5.868  10.134   0.111 -0.5971  0.1694 -0.1753
 1015MOL0     N39984   5.743  10.177   0.131 -0.6743  0.1541 -0.3053
 1015MOL0     C39985   4.674  10.152   0.127 -0.0717 -0.0326 -0.0757
 1015MOL0     C39986   4.540  10.103   0.157 -0.2519 -0.0316  0.2054
 1015MOL0     C39987   4.181   9.964   0.382  0.1317 -0.2695 -0.7344
 1015MOL0     C39988   4.084  10.006   0.284  0.6349  0.2046  0.2517
 1015MOL0     C39989   3.955   9.951   0.285  0.0879  0.4614  0.0511
 1015MOL0     C39990   3.915   9.850   0.368 -0.7521 -0.3216  0.6845
 1015MOL0     O39991   3.780   9.807   0.358 -0.0205  0.0802 -0.0264
 1015MOL0     C39992   3.716   9.720   0.451  0.0373  1.4536 -0.7111
 1015MOL0     C39993   3.622   9.802   0.534  0.2004 -0.1666  0.4279
 1015MOL0     C39994   3.496   9.851   0.472 -0.0345 -0.3728 -0.9155
 1015MOL0     C39995   3.419   9.940   0.572  0.3038  0.4460 -0.0477
 1015MOL0     C39996   3.318  10.019   0.512  0.4851  0.3193 -0.0893
 1015MOL0     C39997   3.231  10.069   0.442 -0.8576  0.5617  0.7332
 1015MOL0     C39998   4.017   9.796   0.456  0.2223  0.4476  1.1344
 1015MOL0     C39999   4.142   9.852   0.461  0.3822 -0.1748 -0.6066
 1015MOL0     C40000   4.228   9.784   0.570 -0.3136 -0.5120  0.2732
 1015MOL0     H40001   4.461  10.317   0.396 -0.9174 -1.0130  0.0744
 1015MOL0     H40002   4.683  10.401   0.358  1.1010  0.2579 -1.0330
 1015MOL0     H40003   4.898  10.253  -0.019  1.5009 -0.5338 -0.2075
 1015MOL0     H40004   4.942  10.142   0.114 -0.2932  0.2182  0.1504
 1015MOL0     H40005   5.120  10.335   0.178 -3.1645 -1.2231  1.5884
 1015MOL0     H40006   5.154  10.225   0.044 -1.2627 -1.9702  1.8593
 1015MOL0     H40007   5.100  10.407  -0.120  0.6555  1.0903 -0.8356
 1015MOL0     H40008   5.017  10.494   0.020 -1.5948 -0.4428  0.4089
 1015MOL0     H40009   5.224  10.610  -0.049 -0.8380 -0.9448 -1.2359
 1015MOL0     H40010   5.214  10.553   0.126  0.3513  0.5911  0.1040
 1015MOL0     H40011   5.380  10.428  -0.098  0.6486 -0.1264 -0.0094
 1015MOL0     H40012   5.336  10.354   0.054 -0.4796  0.0099 -0.9479
 1015MOL0     H40013   5.447  10.635   0.000  1.3277  0.2693 -0.1325
 1015MOL0     H40014   5.429  10.589   0.158  3.1709  0.9563 -0.0554
 1015MOL0     H40015   5.669  10.583   0.066  2.9656 -2.4828  0.9139
 1015MOL0     H40016   5.616  10.453  -0.046 -2.6522  1.9454 -1.3418
 1015MOL0     H40017   5.642  10.449   0.257  0.7138  3.3468 -2.9490
 1015MOL0     H40018   5.544  10.324   0.173 -0.5139 -0.6963  0.3911
 1015MOL0     H40019   5.905  10.453   0.200  2.8160 -1.0943  0.3126
 1015MOL0     H40020   6.147  10.140   0.145 -2.2623 -0.8660  0.3658
 1015MOL0     H40021   6.126  10.269   0.266 -0.7136  0.7557  0.3497
 1015MOL0     H40022   6.146  10.364  -0.026  0.3838  1.6387  0.3222
 1015MOL0     H40023   6.162  10.442   0.123  0.4941  0.4399 -0.7355
 1015MOL0     H40024   6.354  10.227   0.005  1.7995 -0.1458  0.9466
 1015MOL0     H40025   6.385  10.393   0.023 -0.5883 -1.7771 -1.3392
 1015MOL0     H40026   6.340  10.366   0.283 -2.2175  1.3216 -2.1673
 1015MOL0     H40027   6.358  10.188   0.253  3.1619 -1.6401 -2.6493
 1015MOL0     H40028   6.742  10.237   0.168 -1.1313 -0.3544 -0.6725
 1015MOL0     H40029   7.020  10.231   0.385 -2.3435 -1.3284  3.6361
 1015MOL0     H40030   6.946  10.217   0.214 -0.2592  0.5832 -0.0178
 1015MOL0     H40031   6.975  10.071   0.311 -0.0082  0.5741  3.0821
 1015MOL0     H40032   6.996   9.953   0.835  0.3128  0.7154 -0.9178
 1015MOL0     H40033   7.177   9.990   0.993 -0.8943 -1.7579  0.9270
 1015MOL0     H40034   7.372  10.112   1.159  1.3622  1.0844  1.4603
 1015MOL0     H40035   7.339  10.147   0.978 -1.4718  1.7867 -0.0875
 1015MOL0     H40036   7.400  10.395   1.054 -0.1428 -0.9144 -0.0783
 1015MOL0     H40037   7.459  10.321   1.200 -3.3322  1.5488  0.9912
 1015MOL0     H40038   7.639  10.362   1.027 -0.4158  0.5464 -0.7646
 1015MOL0     H40039   7.538  10.275   0.916  1.1900  1.7069 -0.5917
 1015MOL0     H40040   7.575  10.062   1.066  1.2540 -0.3440  0.4334
 1015MOL0     H40041   7.689  10.167   1.154  2.2963 -2.0040 -0.9181
 1015MOL0     H40042   7.686  10.071   0.861  1.4100 -0.8003 -1.4063
 1015MOL0     H40043   7.795  10.197   0.919  0.5957 -1.6193 -1.6047
 1015MOL0     H40044   7.780   9.919   1.040  0.7306 -0.5953  1.3080
 1015MOL0     H40045   7.904  10.031   1.076  0.6381 -0.3746 -0.1204
 1015MOL0     H40046   7.864   9.890   0.801  2.9842 -2.6297 -2.5250
 1015MOL0     H40047   7.973   9.849   0.934  1.9321  1.4664  1.3738
 1015MOL0     H40048   7.998  10.103   0.753 -2.3164  0.7933  0.7004
 1015MOL0     H40049   8.098   9.958   0.752  0.8910  0.4117  1.7333
 1015MOL0     H40050   7.032  10.397   1.060 -2.6846 -0.6156  0.6119
 1015MOL0     H40051   6.838  10.340   0.908 -0.4885 -0.3413  4.1750
 1015MOL0     H40052   6.620  10.235   0.642  4.0107  1.5911  1.4211
 1015MOL0     H40053   6.457  10.275   0.488  0.5630  1.5927  0.3169
 1015MOL0     H40054   4.733  10.113   0.045  0.7590 -0.9812  0.9435
 1015MOL0     H40055   4.492  10.023   0.102  0.0634  0.0536 -0.2018
 1015MOL0     H40056   4.119  10.078   0.212 -0.9357  0.1478 -0.6051
 1015MOL0     H40057   3.880   9.989   0.216 -0.1695 -1.5301 -0.8381
 1015MOL0     H40058   3.669   9.631   0.407  4.7800 -2.1436  0.7079
 1015MOL0     H40059   3.797   9.677   0.510  0.3455 -1.2691 -2.9225
 1015MOL0     H40060   3.678   9.893   0.558 -0.3875  0.7973 -1.6076
 1015MOL0     H40061   3.601   9.731   0.614 -0.3643 -5.4555 -3.8703
 1015MOL0     H40062   3.523   9.914   0.387 -0.8456  0.5284 -0.5260
 1015MOL0     H40063   3.438   9.766   0.434  0.5548 -1.6418  0.8884
 1015MOL0     H40064   3.487  10.019   0.606 -1.0426  0.3189  3.3401
 1015MOL0     H40065   3.382   9.879   0.655  0.4257 -2.3507 -1.9411
 1015MOL0     H40066   3.154  10.104   0.376  1.3393  3.2619 -0.6580
 1015MOL0     H40067   3.989   9.715   0.523  0.6331 -0.9027 -0.2648
 1015MOL0     H40068   4.311   9.733   0.520  0.7656  2.0242 -0.7138
 1015MOL0     H40069   4.274   9.853   0.642  0.0923 -1.1870  0.6638
 1015MOL0     H40070   4.165   9.727   0.638 -0.8840  1.2668  1.2887
 1016MOL0     O40071   5.855   4.650   4.870 -0.1648  0.3939 -0.3590
 1016MOL0     C40072   5.971   4.649   4.831 -0.5223  1.3384  0.2211
 1016MOL0     O40073   6.043   4.529   4.813  0.1193 -0.8468  0.2590
 1016MOL0     C40074   6.006   4.416   4.869  0.0678  0.6148 -0.8163
 1016MOL0     C40075   6.077   4.307   4.825  0.6151  0.0085 -0.2974
 1016MOL0     C40076   6.055   4.181   4.874  0.1986  0.6351 -0.4757
 1016MOL0     C40077   5.963   4.162   4.981  1.0000 -0.0564 -0.4678
 1016MOL0     O40078   5.920   4.053   5.045 -0.7027  0.0503 -0.4155
 1016MOL0     C40079   5.984   3.929   5.018 -0.3865  0.4055 -0.2686
 1016MOL0     C40080   6.117   3.898   5.093 -0.2537 -0.0753 -0.1943
 1016MOL0     C40081   6.185   3.769   5.041 -0.0867 -0.4090  0.2799
 1016MOL0     C40082   6.308   3.731   5.124  0.2054 -0.4275  0.3165
 1016MOL0     C40083   6.379   3.612   5.062  0.7861  0.5515  1.0769
 1016MOL0     C40084   6.504   3.582   5.146 -0.1957  0.9898 -0.1775
 1016MOL0     C40085   6.573   3.457   5.090  0.2647 -0.7958  0.1161
 1016MOL0     C40086   6.521   3.316   5.128  0.2658 -1.0400  0.9395
 1016MOL0     N40087   6.630   3.218   5.132  0.5130 -0.9648 -0.4026
 1016MOL0     C40088   6.706   3.180   5.030 -0.2161 -0.9038  0.0561
 1016MOL0     C40089   6.792   3.089   5.080 -0.1820 -0.3797 -0.2764
 1016MOL0     C40090   6.914   3.032   5.006  0.9447 -1.0336 -0.1601
 1016MOL0     C40091   7.047   3.067   5.075 -0.0180 -0.1108 -0.9313
 1016MOL0     C40092   7.158   3.070   4.971  0.6407  0.0891  0.5340
 1016MOL0     C40093   7.298   3.054   5.031  0.4439  0.5218  0.0118
 1016MOL0     O40094   7.387   3.025   4.924 -0.9797 -0.5670 -0.2760
 1016MOL0     C40095   7.516   2.989   4.960 -0.4755 -1.0185 -0.8205
 1016MOL0     C40096   7.583   3.024   5.080  0.0942 -0.9764  1.2057
 1016MOL0     C40097   7.716   2.984   5.099 -0.2162 -0.8404  0.0803
 1016MOL0     C40098   7.793   3.053   5.211  0.4220  0.2280 -0.0911
 1016MOL0     C40099   7.788   2.914   5.005  1.3901  0.0331  0.8393
 1016MOL0     C40100   7.925   2.867   5.023 -0.1846  0.4376 -0.8834
 1016MOL0     O40101   8.005   2.855   4.912  0.1618  0.5814  0.4302
 1016MOL0     C40102   8.119   2.775   4.912  0.9130 -0.9037  0.5323
 1016MOL0     C40103   8.245   2.835   4.899  0.5648  0.6014 -0.8841
 1016MOL0     C40104   8.357   2.756   4.898  0.1569  0.2793 -0.5439
 1016MOL0     C40105   8.357   2.619   4.878 -0.1400 -0.0234 -0.3469
 1016MOL0     O40106   8.483   2.554   4.878  0.3393 -0.2768 -1.0715
 1016MOL0     C40107   8.495   2.409   4.850  0.2733 -0.0253 -0.4098
 1016MOL0     C40108   8.640   2.378   4.805  0.9778 -0.2091 -0.4187
 1016MOL0     C40109   8.735   2.380   4.926 -0.5679  0.2686  0.5791
 1016MOL0     C40110   8.869   2.305   4.886  0.6380 -0.1452  0.1774
 1016MOL0     C40111   8.950   2.279   5.019 -0.2106 -0.3567  0.0272
 1016MOL0     C40112   9.079   2.202   5.002 -0.0861  0.0174  0.0132
 1016MOL0     C40113   9.169   2.205   5.130  0.1015 -0.1889 -0.5770
 1016MOL0     C40114   9.269   2.095   5.113 -1.0537  0.2888  0.4518
 1016MOL0    Cl40115   9.378   2.123   4.970  0.2040  0.5788 -0.2378
 1016MOL0     C40116   8.224   2.564   4.882  0.0347  0.1898  0.1029
 1016MOL0     C40117   8.110   2.639   4.903  0.8084  0.5027 -0.1398
 1016MOL0     O40118   7.953   2.824   5.137  0.7370 -0.0134  0.5633
 1016MOL0     C40119   7.718   2.878   4.887  0.4236 -0.0216  0.1847
 1016MOL0     C40120   7.583   2.920   4.864 -0.8990  0.4719 -0.1146
 1016MOL0     N40121   6.767   3.074   5.217 -0.6261 -1.1762  0.3739
 1016MOL0     N40122   6.667   3.147   5.239  0.3325  0.0855 -0.4100
 1016MOL0     C40123   5.894   4.279   5.029  0.2847  0.1970  0.8867
 1016MOL0     C40124   5.927   4.403   4.982 -0.0677 -0.6982  0.0706
 1016MOL0     C40125   6.041   4.768   4.804 -0.5808 -0.8925  0.0641
 1016MOL0     C40126   6.169   4.769   4.737  0.5317  0.1410 -0.7906
 1016MOL0     C40127   6.231   4.883   4.693  0.5083  0.2335  0.7247
 1016MOL0     C40128   6.178   5.009   4.736  0.4285  0.1574  0.4491
 1016MOL0     O40129   6.247   5.123   4.699  0.9454 -0.0560 -0.4944
 1016MOL0     C40130   6.195   5.253   4.732  0.0932  1.0422  0.2158
 1016MOL0     C40131   6.285   5.352   4.663  0.3159 -0.2464  0.0546
 1016MOL0     C40132   6.428   5.324   4.726 -0.0663 -0.5145 -0.6279
 1016MOL0     C40133   6.541   5.431   4.687 -0.1936 -0.3130 -0.6634
 1016MOL0     C40134   6.537   5.560   4.755 -0.0642 -0.0994 -0.0242
 1016MOL0     C40135   6.515   5.661   4.823  0.4491  0.8874  0.2472
 1016MOL0     C40136   6.067   5.007   4.817  0.4700 -0.1403 -0.2117
 1016MOL0     C40137   5.993   4.894   4.854 -1.0487 -0.1569  0.3353
 1016MOL0     C40138   5.862   4.926   4.927  0.0521 -0.2090  0.4157
 1016MOL0     H40139   6.148   4.316   4.744  0.6350 -3.4679 -0.7921
 1016MOL0     H40140   6.121   4.104   4.835 -0.0558  0.6190 -0.8768
 1016MOL0     H40141   5.996   3.919   4.910  0.0161  0.5873 -0.2421
 1016MOL0     H40142   5.926   3.845   5.057  0.4090  1.0417  2.5014
 1016MOL0     H40143   6.189   3.980   5.085 -2.4401  1.8312 -1.8307
 1016MOL0     H40144   6.079   3.892   5.196 -1.2902 -2.8136 -0.6696
 1016MOL0     H40145   6.107   3.693   5.036 -2.0964  1.6238 -1.0556
 1016MOL0     H40146   6.232   3.789   4.944  3.9225  0.2305  2.1205
 1016MOL0     H40147   6.377   3.815   5.129  0.5887 -0.6077 -1.2406
 1016MOL0     H40148   6.273   3.705   5.224  1.6674  1.5690  1.3993
 1016MOL0     H40149   6.410   3.634   4.960 -1.0815  4.3889  1.1706
 1016MOL0     H40150   6.308   3.528   5.061  2.5643 -1.0200  0.3008
 1016MOL0     H40151   6.577   3.663   5.139 -1.6308  2.1874 -2.1519
 1016MOL0     H40152   6.481   3.563   5.251  4.6413 -1.5405  0.7236
 1016MOL0     H40153   6.672   3.463   5.137  0.7373 -0.7419 -0.8690
 1016MOL0     H40154   6.591   3.472   4.984 -1.3592 -0.0311 -0.0743
 1016MOL0     H40155   6.477   3.327   5.227 -0.0703  3.5728  0.4962
 1016MOL0     H40156   6.445   3.287   5.055  0.7893  0.9899 -0.4963
 1016MOL0     H40157   6.720   3.215   4.929  0.3771  2.9664  1.3118
 1016MOL0     H40158   6.913   3.055   4.899  3.2398 -0.2000 -0.0694
 1016MOL0     H40159   6.894   2.926   5.018  1.2031 -1.0385  0.2359
 1016MOL0     H40160   7.025   3.167   5.114 -1.4730  0.0774 -2.1492
 1016MOL0     H40161   7.068   3.002   5.161 -1.2218 -0.2668 -0.7330
 1016MOL0     H40162   7.142   2.995   4.894 -1.4310  1.4359 -0.4438
 1016MOL0     H40163   7.143   3.164   4.916  0.0895 -0.5232 -0.3885
 1016MOL0     H40164   7.337   3.146   5.075  0.8387  1.3310 -1.9424
 1016MOL0     H40165   7.301   2.970   5.102 -1.4385  0.1582 -0.2754
 1016MOL0     H40166   7.532   3.082   5.156 -2.6240  1.6256 -2.2779
 1016MOL0     H40167   7.732   3.140   5.236  0.7888  1.2752 -2.4953
 1016MOL0     H40168   7.888   3.092   5.171 -1.4415  1.9545 -3.2780
 1016MOL0     H40169   7.814   2.986   5.294 -0.4678 -0.7065 -0.6077
 1016MOL0     H40170   8.250   2.943   4.888  1.5352  0.7192  0.5444
 1016MOL0     H40171   8.457   2.797   4.896  1.2265 -2.1294 -2.9166
 1016MOL0     H40172   8.466   2.353   4.939 -0.2336 -2.8803 -2.2281
 1016MOL0     H40173   8.426   2.391   4.767  1.0486 -0.4400 -0.9789
 1016MOL0     H40174   8.627   2.277   4.762 -0.2239 -1.6272  2.9714
 1016MOL0     H40175   8.681   2.451   4.735 -0.9463  1.7487  0.3652
 1016MOL0     H40176   8.693   2.340   5.019  2.2136 -1.9198  1.0114
 1016MOL0     H40177   8.759   2.484   4.950 -1.9012  0.2165  2.4691
 1016MOL0     H40178   8.919   2.370   4.815 -0.7111 -0.5336 -1.1893
 1016MOL0     H40179   8.854   2.207   4.839  3.8525 -1.8176  2.2174
 1016MOL0     H40180   8.985   2.381   5.041  0.3543 -0.3866 -0.7095
 1016MOL0     H40181   8.897   2.239   5.106  0.8711  0.1756  0.9630
 1016MOL0     H40182   9.131   2.243   4.915 -1.1913 -2.1916 -1.8183
 1016MOL0     H40183   9.053   2.097   4.982  0.0705 -0.2693  1.2148
 1016MOL0     H40184   9.101   2.173   5.209  0.3916  0.6278  0.0220
 1016MOL0     H40185   9.218   2.302   5.149  0.3487 -0.2005 -1.1315
 1016MOL0     H40186   9.215   2.001   5.101  2.1310 -1.4708 -1.4774
 1016MOL0     H40187   9.327   2.097   5.206 -1.6686  3.2180  0.8667
 1016MOL0     H40188   8.218   2.455   4.880 -1.8445  0.1101  3.1814
 1016MOL0     H40189   8.013   2.594   4.918  0.7795  0.3664 -0.7266
 1016MOL0     H40190   7.771   2.818   4.814  0.5660  2.1169 -1.5794
 1016MOL0     H40191   7.536   2.871   4.779  1.7375  0.9798 -2.0118
 1016MOL0     H40192   5.834   4.256   5.116  2.2875 -0.0028  2.2863
 1016MOL0     H40193   5.877   4.487   5.028  0.5232  0.4474 -1.3192
 1016MOL0     H40194   6.198   4.672   4.700  0.6503  0.0054 -0.3445
 1016MOL0     H40195   6.324   4.878   4.636  0.8004 -0.3211  1.2417
 1016MOL0     H40196   6.093   5.256   4.692 -0.3432 -2.4525  0.6937
 1016MOL0     H40197   6.193   5.274   4.840 -3.1797 -2.2533  1.0366
 1016MOL0     H40198   6.274   5.458   4.687  4.8300  0.5056 -0.2435
 1016MOL0     H40199   6.272   5.340   4.555 -2.5125  2.2565 -0.0314
 1016MOL0     H40200   6.410   5.323   4.834 -1.2744  2.1466 -0.7288
 1016MOL0     H40201   6.468   5.226   4.701  3.5407  0.3535  1.0532
 1016MOL0     H40202   6.540   5.439   4.578 -0.2623 -1.3874 -0.7542
 1016MOL0     H40203   6.640   5.390   4.710  0.3216  1.0252 -0.3936
 1016MOL0     H40204   6.515   5.754   4.876  0.9290  2.0277 -1.6659
 1016MOL0     H40205   6.030   5.105   4.845 -1.4623 -1.2245  1.2972
 1016MOL0     H40206   5.776   4.891   4.868  1.5593 -0.8183 -1.5042
 1016MOL0     H40207   5.863   4.871   5.022  2.3774 -2.0247 -0.5625
 1016MOL0     H40208   5.850   5.033   4.946 -2.1015 -0.6817  2.1217
 1017MOL0     O40209   4.746   7.246   4.490 -0.5339  0.8712 -0.4158
 1017MOL0     C40210   4.711   7.291   4.596 -0.2514  0.3072 -0.0275
 1017MOL0     O40211   4.780   7.395   4.664  0.0029  0.2671 -0.2471
 1017MOL0     C40212   4.919   7.405   4.630 -0.0435  0.3647 -0.9976
 1017MOL0     C40213   4.959   7.492   4.525  0.5414 -0.3107 -0.2156
 1017MOL0     C40214   5.093   7.493   4.476 -0.4375 -0.6265  0.1081
 1017MOL0     C40215   5.198   7.421   4.547 -0.4435 -0.3621 -0.4992
 1017MOL0     O40216   5.334   7.420   4.525  0.4757  0.0893  0.3973
 1017MOL0     C40217   5.388   7.500   4.415  0.7358  0.2548  0.4470
 1017MOL0     C40218   5.540   7.511   4.421  0.8505  0.2524 -0.3980
 1017MOL0     C40219   5.616   7.518   4.283 -0.0290 -0.2881  0.7793
 1017MOL0     C40220   5.745   7.612   4.300 -0.4612 -1.2884  0.0432
 1017MOL0     C40221   5.820   7.590   4.162  0.2642 -0.1269  0.0241
 1017MOL0     C40222   5.925   7.698   4.141  0.6908  0.1797  0.1529
 1017MOL0     C40223   6.047   7.673   4.226  1.0496  0.5244 -0.3239
 1017MOL0     C40224   6.165   7.761   4.181 -0.2354 -0.5663  0.2201
 1017MOL0     N40225   6.291   7.718   4.251 -0.0786  0.3233 -0.3934
 1017MOL0     C40226   6.369   7.608   4.212 -0.1310 -0.3987  0.3879
 1017MOL0     C40227   6.431   7.594   4.332  0.5249  0.3842 -0.1148
 1017MOL0     C40228   6.522   7.479   4.344  0.4523 -0.5716  0.5653
 1017MOL0     C40229   6.511   7.420   4.487  0.4968 -0.3138  0.5807
 1017MOL0     C40230   6.370   7.369   4.516 -0.3880  0.0520  0.0639
 1017MOL0     C40231   6.377   7.306   4.659 -0.7529  0.6768  0.0761
 1017MOL0     O40232   6.301   7.194   4.671  0.3552  0.0626  0.7133
 1017MOL0     C40233   6.259   7.136   4.791  0.1177 -0.8498 -0.4714
 1017MOL0     C40234   6.175   7.027   4.788  0.7366 -0.0981 -0.0112
 1017MOL0     C40235   6.137   6.963   4.905  0.3023 -0.7441 -0.8502
 1017MOL0     C40236   6.027   6.852   4.894  0.4977 -0.6125 -0.1112
 1017MOL0     C40237   6.183   7.003   5.028 -0.0739 -0.4730  0.7215
 1017MOL0     C40238   6.167   6.927   5.148 -0.4786 -0.2901  0.0430
 1017MOL0     O40239   6.133   6.997   5.261 -0.2970  0.2909 -0.2508
 1017MOL0     C40240   6.130   6.915   5.375 -1.1069 -0.9185 -0.1763
 1017MOL0     C40241   6.010   6.879   5.440  0.3027 -0.0672 -0.2267
 1017MOL0     C40242   6.010   6.795   5.565  1.1135 -0.5210  0.1964
 1017MOL0     C40243   6.129   6.751   5.628  0.3502 -0.5824  0.4131
 1017MOL0     O40244   6.120   6.671   5.736 -0.0351  0.3695 -0.3362
 1017MOL0     C40245   6.237   6.646   5.804 -0.0943  0.0641  0.2023
 1017MOL0     C40246   6.208   6.539   5.907  0.4897  0.5980 -0.4682
 1017MOL0     C40247   6.324   6.533   6.001  0.7034 -0.2678  0.7045
 1017MOL0     C40248   6.298   6.414   6.101 -0.0642  1.1971 -0.5909
 1017MOL0     C40249   6.378   6.292   6.047 -0.0455  0.0136  0.1799
 1017MOL0     C40250   6.301   6.166   6.103 -0.3368  0.1736 -0.3677
 1017MOL0     C40251   6.382   6.041   6.079 -0.0573  0.1452 -0.3089
 1017MOL0     C40252   6.326   5.918   6.156  0.0941  1.6378  0.4592
 1017MOL0    Cl40253   6.454   5.797   6.187  0.3895  0.2137 -0.7593
 1017MOL0     C40254   6.250   6.793   5.560 -0.4229  0.5478 -0.3379
 1017MOL0     C40255   6.249   6.879   5.450  0.3383  0.2395 -0.0464
 1017MOL0     O40256   6.195   6.808   5.143 -0.6472 -0.1419  0.0384
 1017MOL0     C40257   6.258   7.118   5.030  0.1493  0.0124 -0.3561
 1017MOL0     C40258   6.296   7.180   4.913 -0.5561 -0.1532  0.8706
 1017MOL0     N40259   6.406   7.684   4.425 -0.1367 -0.1526 -0.1671
 1017MOL0     N40260   6.319   7.767   4.379  0.5205 -0.7935 -0.2239
 1017MOL0     C40261   5.153   7.336   4.644  0.9068 -0.6101 -0.0209
 1017MOL0     C40262   5.018   7.322   4.679  0.0799 -0.4598  0.0055
 1017MOL0     C40263   4.573   7.246   4.656  0.5808 -1.3207 -0.2051
 1017MOL0     C40264   4.467   7.331   4.663  0.3157  0.0415 -0.0984
 1017MOL0     C40265   4.334   7.298   4.690  0.3118  0.6135  0.2538
 1017MOL0     C40266   4.311   7.162   4.716 -0.2355  0.5426  0.2158
 1017MOL0     O40267   4.181   7.117   4.740 -0.5981 -0.3430 -0.2505
 1017MOL0     C40268   4.125   7.139   4.871  0.3198 -1.2910 -0.0079
 1017MOL0     C40269   3.988   7.071   4.887  0.7665  0.2534  0.3730
 1017MOL0     C40270   3.875   7.136   4.799 -0.3327  0.7584  0.2454
 1017MOL0     C40271   3.727   7.110   4.846  0.1178  0.1731  0.0582
 1017MOL0     C40272   3.704   7.191   4.962 -0.3716 -1.1447  0.1248
 1017MOL0     C40273   3.686   7.253   5.070 -0.3269 -0.6113 -0.3356
 1017MOL0     C40274   4.418   7.072   4.705  0.8391 -0.8259  0.8270
 1017MOL0     C40275   4.552   7.116   4.681 -0.0458  0.5676  0.2742
 1017MOL0     C40276   4.650   6.993   4.670  0.3520 -0.4136  0.1263
 1017MOL0     H40277   4.884   7.554   4.476 -0.6277 -2.2178 -0.9244
 1017MOL0     H40278   5.107   7.577   4.409 -3.0048 -0.5323 -0.4087
 1017MOL0     H40279   5.339   7.597   4.427 -0.9248 -0.4983  0.0282
 1017MOL0     H40280   5.337   7.463   4.326 -0.3424 -1.8687  1.8555
 1017MOL0     H40281   5.563   7.599   4.482  0.1441  0.2422 -0.1094
 1017MOL0     H40282   5.582   7.425   4.475 -3.2094 -2.1567 -0.6807
 1017MOL0     H40283   5.641   7.415   4.257  0.1822  0.1101 -0.7107
 1017MOL0     H40284   5.551   7.569   4.211 -0.8375  2.9885  3.5526
 1017MOL0     H40285   5.714   7.715   4.316 -0.0308 -1.4382  2.1709
 1017MOL0     H40286   5.792   7.571   4.390  1.2004 -0.1148 -0.2485
 1017MOL0     H40287   5.744   7.590   4.083 -3.5613  2.1235  3.3489
 1017MOL0     H40288   5.873   7.495   4.151 -0.7055 -0.4973 -2.2059
 1017MOL0     H40289   5.943   7.682   4.034 -1.0610  1.8178 -0.4429
 1017MOL0     H40290   5.881   7.796   4.163  0.5636  0.1829 -0.1126
 1017MOL0     H40291   6.074   7.567   4.218 -1.7203 -0.4979  1.9140
 1017MOL0     H40292   6.029   7.688   4.333  3.4501 -1.5459  0.4617
 1017MOL0     H40293   6.171   7.762   4.072 -2.8974 -2.3429 -0.0398
 1017MOL0     H40294   6.153   7.861   4.224  1.7182  0.0382 -0.5314
 1017MOL0     H40295   6.378   7.547   4.123  0.1876  1.8802 -1.2314
 1017MOL0     H40296   6.624   7.512   4.322  0.2884  0.6562  1.5470
 1017MOL0     H40297   6.503   7.407   4.263  2.6207 -2.2594  1.4484
 1017MOL0     H40298   6.575   7.333   4.501 -1.8184 -2.1035  0.7656
 1017MOL0     H40299   6.538   7.492   4.564  0.4673 -0.4480  0.7159
 1017MOL0     H40300   6.296   7.449   4.520  0.5585  0.9654 -0.3572
 1017MOL0     H40301   6.340   7.300   4.436  1.4891 -0.3335 -0.3558
 1017MOL0     H40302   6.479   7.285   4.692 -0.2312  1.4939 -0.9431
 1017MOL0     H40303   6.330   7.389   4.713 -2.6792 -0.3344  0.0342
 1017MOL0     H40304   6.138   6.983   4.696  0.6560  1.0908 -0.5782
 1017MOL0     H40305   5.958   6.873   4.976 -1.7100  0.8650 -2.1980
 1017MOL0     H40306   6.067   6.750   4.896 -0.6561 -1.0957 -0.6700
 1017MOL0     H40307   5.976   6.870   4.799 -1.3332  0.4025  1.0159
 1017MOL0     H40308   5.911   6.901   5.405  1.3240  3.3887 -1.2645
 1017MOL0     H40309   5.922   6.753   5.612  3.6487 -1.9772  4.1736
 1017MOL0     H40310   6.312   6.599   5.740 -0.8406  2.0014 -2.2210
 1017MOL0     H40311   6.292   6.733   5.842  2.4217 -1.3848  0.0809
 1017MOL0     H40312   6.114   6.557   5.960 -0.3720  0.5348 -1.9472
 1017MOL0     H40313   6.185   6.440   5.867 -1.2383  0.7203  0.1493
 1017MOL0     H40314   6.334   6.627   6.055  1.0158  1.5593 -2.2944
 1017MOL0     H40315   6.425   6.527   5.959  1.3840  2.3402  1.8147
 1017MOL0     H40316   6.190   6.398   6.107 -0.1621  1.0493 -2.3174
 1017MOL0     H40317   6.342   6.438   6.198 -0.4065 -1.0412  0.1794
 1017MOL0     H40318   6.360   6.290   5.939 -0.0129  0.9697  0.1489
 1017MOL0     H40319   6.484   6.298   6.074 -0.3925  3.4236  1.2895
 1017MOL0     H40320   6.209   6.151   6.046 -0.1713 -0.0685 -0.5760
 1017MOL0     H40321   6.294   6.178   6.211 -0.2148  2.6992 -0.5791
 1017MOL0     H40322   6.484   6.056   6.114 -0.1022 -0.9007  0.2991
 1017MOL0     H40323   6.383   6.019   5.972 -2.3436 -0.3023 -0.2897
 1017MOL0     H40324   6.237   5.873   6.112  1.1712 -0.0027 -0.1603
 1017MOL0     H40325   6.303   5.943   6.260 -0.0343 -1.9830  1.4408
 1017MOL0     H40326   6.346   6.762   5.602 -1.3544 -2.4026 -0.1942
 1017MOL0     H40327   6.349   6.894   5.412  0.8249 -0.0495  1.0627
 1017MOL0     H40328   6.290   7.160   5.125  0.3090  1.4205 -1.0030
 1017MOL0     H40329   6.372   7.257   4.906 -0.9099  0.0984 -0.3960
 1017MOL0     H40330   5.220   7.279   4.707  0.5372  0.9244  1.8427
 1017MOL0     H40331   4.977   7.250   4.748  1.9483 -1.5886  0.0150
 1017MOL0     H40332   4.502   7.434   4.655  0.4912 -0.0015  0.1193
 1017MOL0     H40333   4.245   7.361   4.692 -0.6564 -0.7383  1.5466
 1017MOL0     H40334   4.190   7.095   4.948  0.1567  0.6600  1.3071
 1017MOL0     H40335   4.108   7.243   4.902 -1.2641 -0.7255 -2.5486
 1017MOL0     H40336   3.961   7.062   4.993 -1.9212 -0.7155 -0.2973
 1017MOL0     H40337   3.990   6.967   4.855  2.2295  0.2990  0.2672
 1017MOL0     H40338   3.894   7.243   4.784  1.4878  0.3260 -0.8533
 1017MOL0     H40339   3.876   7.079   4.706  0.7712 -0.5701  1.0313
 1017MOL0     H40340   3.715   7.007   4.883 -1.5584  1.2799  2.8984
 1017MOL0     H40341   3.654   7.126   4.766  0.4546 -1.1336 -0.5514
 1017MOL0     H40342   3.659   7.303   5.161 -1.8574  0.5108 -1.3591
 1017MOL0     H40343   4.394   6.966   4.706  2.2204 -1.3063 -2.5271
 1017MOL0     H40344   4.751   7.021   4.641 -0.6094  1.0738 -2.0100
 1017MOL0     H40345   4.643   6.952   4.772 -2.6688  0.0410  0.1849
 1017MOL0     H40346   4.626   6.922   4.591 -0.2823  0.5590 -0.5693
 1018MOL0     O40347  10.198   3.638   8.502  0.1678 -0.4555  0.9683
 1018MOL0     C40348  10.195   3.554   8.413  0.5417 -0.3514  1.3415
 1018MOL0     O40349  10.290   3.459   8.384  0.6067 -0.1845 -0.2402
 1018MOL0     C40350  10.413   3.462   8.450 -0.0761  0.8258  0.3949
 1018MOL0     C40351  10.516   3.399   8.378  0.1366 -0.0744  0.6823
 1018MOL0     C40352  10.636   3.355   8.435 -0.0042  0.6600 -0.7256
 1018MOL0     C40353  10.646   3.380   8.569  0.7206 -0.5840 -0.8408
 1018MOL0     O40354  10.750   3.333   8.642 -0.5799 -0.1124 -0.2232
 1018MOL0     C40355  10.874   3.394   8.617 -0.2904  0.2392  0.5869
 1018MOL0     C40356  10.980   3.357   8.711  0.4344  0.4375  0.1353
 1018MOL0     C40357  11.118   3.425   8.693 -0.5243 -0.2408  0.0869
 1018MOL0     C40358  11.196   3.394   8.819  0.0663  0.3643 -0.5290
 1018MOL0     C40359  11.329   3.463   8.823  0.1218  0.0985  1.3878
 1018MOL0     C40360  11.305   3.605   8.878  0.2615 -0.5141  0.1648
 1018MOL0     C40361  11.431   3.688   8.883 -0.6545  0.5240 -0.1771
 1018MOL0     C40362  11.501   3.658   9.023  0.2943 -0.2877 -0.4518
 1018MOL0     N40363  11.626   3.731   9.040  0.5778  0.1167 -0.6336
 1018MOL0     C40364  11.643   3.869   9.022 -0.2212 -0.2299 -0.2942
 1018MOL0     C40365  11.775   3.888   9.026  0.3766  0.0871 -0.1896
 1018MOL0     C40366  11.857   4.013   9.016  0.7191  0.8098  0.3770
 1018MOL0     C40367  11.773   4.138   8.998 -0.3416  0.3592 -0.2332
 1018MOL0     C40368  11.840   4.246   9.086  0.4743 -0.8254  0.2970
 1018MOL0     C40369  11.764   4.378   9.088 -0.8268  0.2438  0.0169
 1018MOL0     O40370  11.794   4.469   9.198  1.0003  0.2892  0.2864
 1018MOL0     C40371  11.919   4.491   9.248  0.4181  0.2859  0.3538
 1018MOL0     C40372  12.028   4.520   9.159  0.3425  0.2453 -0.9667
 1018MOL0     C40373  12.145   4.569   9.214  0.6305  0.1558 -0.2242
 1018MOL0     C40374  12.249   4.615   9.116 -0.3643  0.1519 -0.6975
 1018MOL0     C40375  12.165   4.588   9.351  0.2068 -0.0036 -0.5817
 1018MOL0     C40376  12.300   4.628   9.413  0.3715 -0.1280 -0.5302
 1018MOL0     O40377  12.316   4.585   9.545  0.4980  1.1677  1.1730
 1018MOL0     C40378  12.443   4.599   9.597 -0.1262  0.3165 -0.5793
 1018MOL0     C40379  12.466   4.709   9.677 -0.6797  0.4021 -0.2202
 1018MOL0     C40380  12.587   4.713   9.752 -0.1127 -0.1633  0.1991
 1018MOL0     C40381  12.679   4.611   9.746 -0.2732  0.1342  0.4055
 1018MOL0     O40382  12.781   4.625   9.831  0.3977 -0.2122 -0.0528
 1018MOL0     C40383  12.845   4.517   9.884 -0.1000 -0.0749 -0.3679
 1018MOL0     C40384  12.950   4.575   9.984 -0.0293 -0.0365  0.3129
 1018MOL0     C40385  13.065   4.649   9.924  0.5133 -0.6045  0.6688
 1018MOL0     C40386  13.196   4.597   9.985 -1.2384  0.5252  0.4917
 1018MOL0     C40387  13.310   4.697   9.955 -0.6086 -0.4504 -0.6836
 1018MOL0     C40388  13.431   4.682  10.049 -1.0659 -0.2018 -0.0453
 1018MOL0     C40389  13.544   4.604   9.971  0.4314  0.8604  0.1795
 1018MOL0     C40390  13.643   4.547  10.074  0.0373 -0.6833  0.0323
 1018MOL0    Cl40391  13.804   4.504   9.997  0.0339 -0.0502 -0.0733
 1018MOL0     C40392  12.651   4.504   9.663 -0.5962  0.3680  0.1463
 1018MOL0     C40393  12.533   4.497   9.593 -0.7479 -0.0626 -0.1553
 1018MOL0     O40394  12.384   4.695   9.352  0.1928 -0.1313  0.3333
 1018MOL0     C40395  12.065   4.546   9.433 -0.5752 -0.6434 -0.2583
 1018MOL0     C40396  11.942   4.505   9.383 -0.4909  0.1294  0.4220
 1018MOL0     N40397  11.840   3.761   9.037  0.5332 -0.0080 -0.4990
 1018MOL0     N40398  11.751   3.673   9.045  0.8811 -0.8744 -0.8145
 1018MOL0     C40399  10.550   3.457   8.643 -0.3425 -1.3124 -0.0626
 1018MOL0     C40400  10.428   3.499   8.588 -0.8366 -1.4818 -0.0751
 1018MOL0     C40401  10.064   3.557   8.340  0.0462 -0.3163  0.4946
 1018MOL0     C40402  10.006   3.431   8.306  0.4918  0.0354  0.0724
 1018MOL0     C40403   9.883   3.426   8.243  0.1506  0.8938 -0.0248
 1018MOL0     C40404   9.818   3.539   8.203 -0.5175 -0.6818  0.1767
 1018MOL0     O40405   9.707   3.541   8.127  0.3411  0.6903 -0.3788
 1018MOL0     C40406   9.602   3.439   8.145  0.3305 -0.0723 -0.6180
 1018MOL0     C40407   9.466   3.512   8.109  0.4387 -0.1285  0.9205
 1018MOL0     C40408   9.342   3.419   8.109 -0.0210 -0.6914  0.6390
 1018MOL0     C40409   9.221   3.498   8.172  0.6242 -0.1483  0.6336
 1018MOL0     C40410   9.104   3.416   8.163 -0.6801  0.8223 -1.1737
 1018MOL0     C40411   9.008   3.345   8.153 -0.1866  0.2802 -1.0017
 1018MOL0     C40412   9.882   3.666   8.225  1.0962 -0.2104 -0.5292
 1018MOL0     C40413  10.006   3.680   8.286 -0.5868 -0.2212  0.3158
 1018MOL0     C40414  10.068   3.815   8.297  0.2747  0.5027  0.3195
 1018MOL0     H40415  10.489   3.370   8.277 -0.1530 -1.0516  1.0289
 1018MOL0     H40416  10.725   3.317   8.388  0.7938  0.2231  1.0762
 1018MOL0     H40417  10.853   3.501   8.626 -1.3393  0.3204 -1.7985
 1018MOL0     H40418  10.891   3.371   8.511 -1.9422 -2.9470  0.8937
 1018MOL0     H40419  10.939   3.367   8.812  0.6419 -1.4491  0.4437
 1018MOL0     H40420  11.008   3.252   8.698  1.8165  0.8628 -0.4900
 1018MOL0     H40421  11.152   3.388   8.596  1.8367 -2.3431  1.5774
 1018MOL0     H40422  11.102   3.532   8.681  1.0666  0.2537  1.7586
 1018MOL0     H40423  11.145   3.420   8.912 -3.3502 -0.4773 -2.0220
 1018MOL0     H40424  11.204   3.285   8.820  1.4490  0.4505 -0.8999
 1018MOL0     H40425  11.359   3.467   8.718 -2.2586 -0.0407  0.6551
 1018MOL0     H40426  11.403   3.409   8.883  1.5489  1.8766  1.3114
 1018MOL0     H40427  11.240   3.674   8.824 -0.3633 -0.9623  0.3294
 1018MOL0     H40428  11.266   3.600   8.980 -2.5873  1.9027 -0.6603
 1018MOL0     H40429  11.407   3.794   8.874  3.3017  1.5397 -0.9438
 1018MOL0     H40430  11.500   3.662   8.802 -0.5166  3.5901 -1.1723
 1018MOL0     H40431  11.439   3.692   9.107 -0.5702  0.1362 -1.2485
 1018MOL0     H40432  11.517   3.550   9.034 -2.6219 -1.1087 -2.9671
 1018MOL0     H40433  11.565   3.944   9.017  0.5938  0.9070  2.1134
 1018MOL0     H40434  11.930   3.995   8.936  0.7721 -0.3153  0.6648
 1018MOL0     H40435  11.909   4.016   9.112 -2.0830 -0.3790  2.0631
 1018MOL0     H40436  11.768   4.161   8.891 -2.8611 -2.6699 -0.9265
 1018MOL0     H40437  11.670   4.137   9.037 -1.4689  4.4245 -2.5279
 1018MOL0     H40438  11.845   4.210   9.189 -6.1363 -0.8958  1.0009
 1018MOL0     H40439  11.942   4.263   9.049  0.6245 -0.4114  0.8869
 1018MOL0     H40440  11.796   4.434   9.000 -1.0757  1.6018  0.7676
 1018MOL0     H40441  11.660   4.343   9.093  0.4374 -4.0275  0.1959
 1018MOL0     H40442  11.993   4.504   9.057 -1.5369 -1.1895 -0.1617
 1018MOL0     H40443  12.230   4.585   9.012 -4.3900  1.8327 -0.6288
 1018MOL0     H40444  12.344   4.563   9.128 -1.7525 -3.1529 -2.7718
 1018MOL0     H40445  12.242   4.724   9.120 -1.6584  0.0401  1.4856
 1018MOL0     H40446  12.390   4.786   9.690 -0.8230  0.7281 -2.5487
 1018MOL0     H40447  12.612   4.796   9.818  2.9516  0.1438 -1.1816
 1018MOL0     H40448  12.777   4.450   9.937  1.0229  0.2484  1.5992
 1018MOL0     H40449  12.890   4.455   9.805  1.2556  0.8591 -0.3541
 1018MOL0     H40450  12.901   4.651  10.046  0.2062  1.5675 -1.3753
 1018MOL0     H40451  12.989   4.501  10.054  2.4814  0.9847  0.0875
 1018MOL0     H40452  13.047   4.756   9.937  0.1955 -0.5630 -0.0473
 1018MOL0     H40453  13.075   4.639   9.816 -2.8856  3.1162 -0.2506
 1018MOL0     H40454  13.208   4.496   9.945  3.7478  1.2021 -0.3022
 1018MOL0     H40455  13.200   4.586  10.094  0.4137  0.8269  0.4758
 1018MOL0     H40456  13.340   4.701   9.850  4.6081 -0.8156  0.5382
 1018MOL0     H40457  13.273   4.798   9.975 -0.3303 -0.7928  1.7952
 1018MOL0     H40458  13.402   4.620  10.135 -0.7511  0.4449  0.5454
 1018MOL0     H40459  13.484   4.771  10.085  0.4514 -0.9332 -0.3831
 1018MOL0     H40460  13.595   4.674   9.904  0.6888  0.7145  0.2247
 1018MOL0     H40461  13.495   4.528   9.908 -1.2376  2.1483 -0.1534
 1018MOL0     H40462  13.596   4.461  10.123  0.6371 -0.4927  0.9627
 1018MOL0     H40463  13.670   4.617  10.153  1.9238 -2.5167  1.1094
 1018MOL0     H40464  12.714   4.416   9.676 -0.4969  0.5798  1.1665
 1018MOL0     H40465  12.508   4.410   9.534  2.7810 -0.6291 -1.0352
 1018MOL0     H40466  12.076   4.539   9.541 -0.0528 -4.1195 -0.4286
 1018MOL0     H40467  11.861   4.486   9.453 -0.6014 -4.2873 -0.5931
 1018MOL0     H40468  10.553   3.481   8.748 -1.0307 -1.9419  0.1124
 1018MOL0     H40469  10.351   3.554   8.641 -0.5366  1.1943 -2.1756
 1018MOL0     H40470  10.048   3.339   8.345  0.6110 -0.6016 -1.4748
 1018MOL0     H40471   9.843   3.330   8.213 -1.4362  1.3922  0.3824
 1018MOL0     H40472   9.625   3.363   8.070  2.5897 -1.4165  1.2583
 1018MOL0     H40473   9.591   3.397   8.246 -1.7159  3.5046  0.8483
 1018MOL0     H40474   9.475   3.562   8.012 -4.3583  2.0445  1.2707
 1018MOL0     H40475   9.445   3.592   8.181 -2.3862  1.6272 -1.6202
 1018MOL0     H40476   9.329   3.381   8.007  0.5590 -0.5141  0.4953
 1018MOL0     H40477   9.358   3.332   8.173  1.6411  0.5011  1.9248
 1018MOL0     H40478   9.202   3.584   8.108  1.0179 -0.5459 -0.0245
 1018MOL0     H40479   9.240   3.523   8.277  0.7776  0.1041  0.5457
 1018MOL0     H40480   8.922   3.282   8.151  0.0401 -0.0592 -3.7972
 1018MOL0     H40481   9.829   3.750   8.181  0.2560  0.0754  0.9811
 1018MOL0     H40482  10.168   3.799   8.255 -0.4467 -1.6717 -0.7646
 1018MOL0     H40483  10.009   3.876   8.228 -2.2977 -1.5741  0.5224
 1018MOL0     H40484  10.077   3.857   8.397  1.6588 -0.4306  0.6243
 1019MOL0     O40485   3.265  10.475   3.596 -0.1097 -0.5313  0.4954
 1019MOL0     C40486   3.270  10.356   3.576 -0.8702  0.5411 -0.1911
 1019MOL0     O40487   3.378  10.287   3.530 -0.5781  0.0247  0.0609
 1019MOL0     C40488   3.504  10.356   3.530  0.3629 -0.4226 -0.0547
 1019MOL0     C40489   3.540  10.431   3.641  0.2046  0.3381  0.9272
 1019MOL0     C40490   3.663  10.493   3.639 -0.5635 -0.4593  0.3022
 1019MOL0     C40491   3.754  10.464   3.534 -1.1617 -0.2623  0.5804
 1019MOL0     O40492   3.869  10.525   3.515 -0.8783 -0.3339  0.3613
 1019MOL0     C40493   3.954  10.567   3.628 -0.0581 -0.3541 -0.3683
 1019MOL0     C40494   4.079  10.638   3.585  0.0934 -0.1761  0.0725
 1019MOL0     C40495   4.141  10.712   3.712 -0.1851 -0.1726 -0.0703
 1019MOL0     C40496   4.246  10.821   3.677 -0.6922  0.2951 -0.5895
 1019MOL0     C40497   4.378  10.746   3.642 -0.2943 -0.1076  0.5892
 1019MOL0     C40498   4.485  10.847   3.605 -0.1161  0.7218  0.1178
 1019MOL0     C40499   4.577  10.771   3.511 -0.1433  0.7469  1.0688
 1019MOL0     C40500   4.686  10.850   3.448  0.2215  0.6937  0.2041
 1019MOL0     N40501   4.791  10.871   3.552 -0.3439 -0.3047  0.8930
 1019MOL0     C40502   4.803  10.980   3.630 -0.2413 -0.3842 -0.3023
 1019MOL0     C40503   4.885  10.951   3.737 -0.5062 -0.8467  0.5217
 1019MOL0     C40504   4.926  11.046   3.841  0.3105  1.1276  0.2293
 1019MOL0     C40505   5.074  11.095   3.818  0.9782 -0.4615 -0.0405
 1019MOL0     C40506   5.182  11.006   3.872  0.1977  0.9620 -0.7169
 1019MOL0     C40507   5.311  11.040   3.801 -0.1046  0.4919 -0.3112
 1019MOL0     O40508   5.339  11.179   3.819  0.2326  0.0134 -0.4167
 1019MOL0     C40509   5.431  11.231   3.734 -1.2262  0.7594  0.0626
 1019MOL0     C40510   5.482  11.358   3.765 -1.0851 -0.8552 -0.5160
 1019MOL0     C40511   5.567  11.438   3.684  0.8320  0.3181  0.0104
 1019MOL0     C40512   5.611  11.573   3.739  0.0402  0.1798  0.0089
 1019MOL0     C40513   5.601  11.378   3.560 -0.0108  0.3739  0.2947
 1019MOL0     C40514   5.688  11.441   3.466  0.0437 -0.2940  0.2807
 1019MOL0     O40515   5.650  11.436   3.333 -0.3579 -0.3201 -0.7711
 1019MOL0     C40516   5.737  11.492   3.238  0.6023  0.1220 -0.2530
 1019MOL0     C40517   5.719  11.625   3.200  0.3273  0.3432 -0.1349
 1019MOL0     C40518   5.794  11.684   3.102  0.3159  0.9228 -0.2751
 1019MOL0     C40519   5.892  11.608   3.038 -0.6201 -0.4736 -0.0528
 1019MOL0     O40520   5.969  11.668   2.937  0.2315 -0.4344  1.3474
 1019MOL0     C40521   6.094  11.601   2.906 -0.7718  0.3385  0.3132
 1019MOL0     C40522   6.184  11.664   2.805 -0.9242 -0.0387  0.0921
 1019MOL0     C40523   6.225  11.798   2.860 -0.5316  0.5612 -0.4402
 1019MOL0     C40524   6.372  11.827   2.817  0.4125  0.1139  0.0041
 1019MOL0     C40525   6.389  11.970   2.821 -0.4132 -1.1743  1.2270
 1019MOL0     C40526   6.538  12.014   2.806 -0.0823  0.0861  0.7881
 1019MOL0     C40527   6.558  12.154   2.869 -0.3242  0.3075  0.0291
 1019MOL0     C40528   6.700  12.191   2.895  0.7709 -0.2586 -0.3963
 1019MOL0    Cl40529   6.784  12.177   2.738 -0.0627  0.2855  0.0880
 1019MOL0     C40530   5.918  11.468   3.075  0.7417  0.1651 -0.1739
 1019MOL0     C40531   5.836  11.415   3.179 -0.5554 -0.2850  1.1847
 1019MOL0     O40532   5.805  11.473   3.501  0.1131  0.1604 -0.1797
 1019MOL0     C40533   5.546  11.252   3.521  0.0747 -0.9123  0.3911
 1019MOL0     C40534   5.466  11.179   3.609 -0.8032 -0.3099 -0.4139
 1019MOL0     N40535   4.927  10.825   3.710  0.0707 -0.1163 -0.4688
 1019MOL0     N40536   4.867  10.782   3.609  0.8937  0.2349  0.6173
 1019MOL0     C40537   3.709  10.393   3.422  0.2233 -0.3295 -0.0450
 1019MOL0     C40538   3.583  10.338   3.414 -0.1315  0.5940 -1.1228
 1019MOL0     C40539   3.145  10.292   3.612 -0.2207  0.0694 -0.3647
 1019MOL0     C40540   3.068  10.336   3.726 -0.4111  0.1939 -0.4914
 1019MOL0     C40541   2.955  10.267   3.767  0.5335  0.0760 -0.1369
 1019MOL0     C40542   2.903  10.156   3.694 -0.9341 -0.0094 -0.3720
 1019MOL0     O40543   2.785  10.087   3.714  0.0796 -0.0986  0.5592
 1019MOL0     C40544   2.676  10.172   3.756  0.2902 -1.1035 -0.0981
 1019MOL0     C40545   2.546  10.087   3.725 -0.8017  0.1642  0.2648
 1019MOL0     C40546   2.550  10.038   3.577  0.5094 -0.2563  0.2064
 1019MOL0     C40547   2.448   9.928   3.546  0.6447 -0.0868 -0.1137
 1019MOL0     C40548   2.303   9.968   3.575 -1.0202 -0.5154  0.0780
 1019MOL0     C40549   2.189   9.987   3.595  0.2915  0.7757  0.3474
 1019MOL0     C40550   2.975  10.125   3.578  0.4505  0.3003 -0.5110
 1019MOL0     C40551   3.090  10.185   3.541  0.5625 -0.7617  1.0495
 1019MOL0     C40552   3.145  10.151   3.405 -0.2398 -0.7868 -0.1890
 1019MOL0     H40553   3.466  10.446   3.719 -2.0354  2.5771 -1.4540
 1019MOL0     H40554   3.687  10.560   3.720  1.8429  0.5212 -1.1278
 1019MOL0     H40555   3.993  10.473   3.670  2.2839  0.8779  0.4009
 1019MOL0     H40556   3.901  10.627   3.702 -0.5044 -2.7618  1.3880
 1019MOL0     H40557   4.147  10.578   3.524  0.6449  3.2715 -3.0744
 1019MOL0     H40558   4.041  10.717   3.520 -0.4320 -0.7713 -0.3528
 1019MOL0     H40559   4.057  10.772   3.750 -0.6264 -0.5543 -0.4271
 1019MOL0     H40560   4.178  10.648   3.792  1.8765 -0.2794 -1.0380
 1019MOL0     H40561   4.214  10.885   3.594 -1.2531  2.0073  0.8976
 1019MOL0     H40562   4.268  10.886   3.762  0.5138 -1.0171  0.1415
 1019MOL0     H40563   4.354  10.688   3.552  0.5545 -0.7239  0.7413
 1019MOL0     H40564   4.414  10.681   3.722 -0.0713  1.4696  1.8187
 1019MOL0     H40565   4.437  10.937   3.565 -0.1390  1.5971  2.0133
 1019MOL0     H40566   4.537  10.872   3.698 -0.0647  1.2433 -0.0496
 1019MOL0     H40567   4.523  10.730   3.425  2.0221 -0.5900  0.2817
 1019MOL0     H40568   4.618  10.684   3.561  0.1595  0.4035  0.2455
 1019MOL0     H40569   4.716  10.777   3.372 -0.8628  0.4653 -0.0192
 1019MOL0     H40570   4.651  10.940   3.396  0.0899  0.4012 -0.2191
 1019MOL0     H40571   4.746  11.072   3.629  0.3498  0.0975  2.1553
 1019MOL0     H40572   4.914  11.010   3.943  4.0329  2.4232  1.3188
 1019MOL0     H40573   4.853  11.127   3.841 -0.6193  0.3008  0.0598
 1019MOL0     H40574   5.088  11.117   3.712  2.6843 -1.6585 -0.0981
 1019MOL0     H40575   5.073  11.195   3.863 -0.0905  0.6613 -2.3675
 1019MOL0     H40576   5.199  11.024   3.979  0.0776  2.5220 -0.9315
 1019MOL0     H40577   5.161  10.899   3.869  0.8159  0.6426  2.4772
 1019MOL0     H40578   5.388  10.973   3.842 -2.0558 -1.0351  1.0818
 1019MOL0     H40579   5.289  11.018   3.696  0.9951  0.5181 -0.5573
 1019MOL0     H40580   5.457  11.399   3.862 -1.3853 -1.5954 -0.2681
 1019MOL0     H40581   5.608  11.579   3.848  0.5561  1.7073 -0.0429
 1019MOL0     H40582   5.545  11.640   3.682  1.3292  0.2493 -1.4543
 1019MOL0     H40583   5.712  11.597   3.706 -0.2946  0.5549 -0.7803
 1019MOL0     H40584   5.636  11.683   3.236  0.2483  0.8241 -1.0801
 1019MOL0     H40585   5.762  11.779   3.061 -1.1256  0.2811 -0.6983
 1019MOL0     H40586   6.142  11.584   3.003 -1.0381 -1.3823  0.1704
 1019MOL0     H40587   6.068  11.502   2.867  1.5437  0.1893 -1.0417
 1019MOL0     H40588   6.270  11.599   2.786 -2.1163 -1.5267 -0.4313
 1019MOL0     H40589   6.137  11.667   2.706  0.5492  0.9443 -0.6132
 1019MOL0     H40590   6.221  11.810   2.969 -1.8264  0.8684 -0.4990
 1019MOL0     H40591   6.151  11.869   2.822 -0.5014 -1.0241 -3.8142
 1019MOL0     H40592   6.388  11.791   2.715  2.8656  0.2216  0.2931
 1019MOL0     H40593   6.448  11.786   2.884  0.6300  1.1180  0.3890
 1019MOL0     H40594   6.329  12.012   2.740  0.2906  0.2779  1.4167
 1019MOL0     H40595   6.343  12.022   2.906  2.0955  3.2638  0.1603
 1019MOL0     H40596   6.576  12.004   2.704  0.5750 -1.8026  1.1747
 1019MOL0     H40597   6.602  11.944   2.861 -1.1141 -1.6989 -0.2032
 1019MOL0     H40598   6.506  12.160   2.965  3.5005  0.4852  2.2655
 1019MOL0     H40599   6.519  12.232   2.802 -0.4753  0.3191  0.1302
 1019MOL0     H40600   6.752  12.125   2.964  0.2468 -0.2654  0.0024
 1019MOL0     H40601   6.699  12.295   2.930  0.6540 -0.1504 -0.7101
 1019MOL0     H40602   5.988  11.410   3.015 -0.7397  0.1680 -1.9792
 1019MOL0     H40603   5.851  11.311   3.208 -0.4595 -1.4521 -2.5454
 1019MOL0     H40604   5.558  11.210   3.422  1.0482 -0.4959  0.3194
 1019MOL0     H40605   5.405  11.101   3.563 -0.7994 -0.3392 -0.3693
 1019MOL0     H40606   3.777  10.374   3.339 -1.4708 -1.2918 -1.2857
 1019MOL0     H40607   3.551  10.289   3.323 -0.7583  0.9240 -1.0878
 1019MOL0     H40608   3.100  10.409   3.800 -2.5379 -1.0199  1.7375
 1019MOL0     H40609   2.908  10.311   3.855  0.7509 -2.7027  1.4629
 1019MOL0     H40610   2.678  10.190   3.864  0.5237  1.9478 -0.5111
 1019MOL0     H40611   2.663  10.273   3.715 -2.2185 -1.5390 -0.5495
 1019MOL0     H40612   2.453  10.141   3.749  0.2856  2.0358  0.4856
 1019MOL0     H40613   2.539   9.991   3.777 -0.5608 -0.7649 -1.3632
 1019MOL0     H40614   2.531  10.129   3.519  0.5548  2.7286  4.4751
 1019MOL0     H40615   2.646   9.996   3.546  1.2715  0.5389  1.4221
 1019MOL0     H40616   2.463   9.837   3.605 -3.4534 -0.2470  0.9981
 1019MOL0     H40617   2.450   9.896   3.442 -0.1552 -1.2692  0.2207
 1019MOL0     H40618   2.090  10.029   3.605  0.5323  1.7282 -1.0095
 1019MOL0     H40619   2.933  10.040   3.526 -0.5616 -0.3787  1.3247
 1019MOL0     H40620   3.222  10.075   3.420  1.9643  1.6845  2.0251
 1019MOL0     H40621   3.067  10.119   3.335 -0.9060  0.8357 -0.2414
 1019MOL0     H40622   3.195  10.233   3.353  1.1682 -0.0397  2.2104
 1020MOL0     O40623  10.837   9.836   8.656  0.3391 -0.1137 -0.4310
 1020MOL0     C40624  10.886   9.778   8.753 -0.8038  0.2113  0.1035
 1020MOL0     O40625  10.820   9.691   8.836 -0.0575  0.7311  0.0589
 1020MOL0     C40626  10.683   9.682   8.824 -0.8711 -0.1114  0.1428
 1020MOL0     C40627  10.597   9.796   8.813 -0.4413 -0.2125 -0.2651
 1020MOL0     C40628  10.459   9.775   8.790 -0.3725  0.3799  0.5190
 1020MOL0     C40629  10.404   9.649   8.775 -0.5725  1.0494 -0.2463
 1020MOL0     O40630  10.267   9.633   8.776 -0.3969 -0.9277  0.1337
 1020MOL0     C40631  10.216   9.529   8.694  0.5234  1.0988  0.5250
 1020MOL0     C40632  10.076   9.574   8.645  0.2564 -0.3959 -0.1421
 1020MOL0     C40633  10.072   9.724   8.628  0.9906 -0.4132  0.4149
 1020MOL0     C40634   9.969   9.777   8.521 -0.9728  0.6004 -0.6535
 1020MOL0     C40635  10.002   9.919   8.478 -0.3051 -0.1280  0.1479
 1020MOL0     C40636  10.093   9.904   8.346 -0.8160 -0.8377 -0.4339
 1020MOL0     C40637  10.159  10.043   8.309 -0.0731 -0.6976  0.0924
 1020MOL0     C40638  10.204  10.048   8.162  0.0056 -0.1502 -0.9911
 1020MOL0     N40639  10.304   9.951   8.128 -0.2076 -1.0875  0.3878
 1020MOL0     C40640  10.407   9.922   8.220  0.2540 -0.1821 -0.3970
 1020MOL0     C40641  10.446   9.793   8.185 -0.6963  0.1554  0.1157
 1020MOL0     C40642  10.561   9.716   8.255  0.6522  0.2371  0.0745
 1020MOL0     C40643  10.516   9.592   8.323  0.7335  0.6892 -0.6552
 1020MOL0     C40644  10.625   9.493   8.324 -0.4933 -0.7889  0.0321
 1020MOL0     C40645  10.582   9.371   8.394 -0.1065 -0.6476  0.2299
 1020MOL0     O40646  10.669   9.261   8.366 -0.2354  0.7511 -0.3134
 1020MOL0     C40647  10.801   9.266   8.400 -0.0123 -0.1519 -0.1692
 1020MOL0     C40648  10.858   9.353   8.500 -0.0934  0.3953  1.0142
 1020MOL0     C40649  10.993   9.365   8.520 -0.3064  0.9272 -0.0596
 1020MOL0     C40650  11.036   9.471   8.614 -0.4187 -0.1313  0.3581
 1020MOL0     C40651  11.078   9.261   8.464  0.3443 -0.7156 -0.0153
 1020MOL0     C40652  11.223   9.245   8.497  0.7228 -1.0056  0.0120
 1020MOL0     O40653  11.293   9.162   8.399  0.1991  0.4700 -0.4340
 1020MOL0     C40654  11.431   9.145   8.407 -0.0207 -0.4639 -0.5039
 1020MOL0     C40655  11.519   9.254   8.440 -0.0120 -0.3797 -0.3683
 1020MOL0     C40656  11.654   9.217   8.448 -0.2289  0.2683  0.7217
 1020MOL0     C40657  11.705   9.085   8.432 -0.4523 -0.2838  0.4466
 1020MOL0     O40658  11.841   9.062   8.438 -0.0072 -0.6427 -0.2976
 1020MOL0     C40659  11.920   9.130   8.536 -0.2206 -0.2264 -0.4404
 1020MOL0     C40660  12.011   9.247   8.475  0.4026  0.1001 -0.1145
 1020MOL0     C40661  12.121   9.303   8.565 -0.0802  0.5709  0.4634
 1020MOL0     C40662  12.055   9.400   8.678  0.5573 -0.5515  0.1313
 1020MOL0     C40663  12.163   9.479   8.735 -0.0137 -0.2957  0.0294
 1020MOL0     C40664  12.104   9.601   8.810  0.3062 -0.9986 -0.4878
 1020MOL0     C40665  12.206   9.700   8.858 -0.8147  0.8899  0.1713
 1020MOL0     C40666  12.178   9.846   8.796 -0.2990 -0.3842 -0.0575
 1020MOL0    Cl40667  12.018   9.906   8.844 -0.1961  0.3532 -0.6321
 1020MOL0     C40668  11.606   8.987   8.404 -0.4801 -0.1162  0.9265
 1020MOL0     C40669  11.467   9.014   8.381 -0.1856 -0.1176  0.3990
 1020MOL0     O40670  11.270   9.294   8.599  0.0273 -0.3056 -0.2229
 1020MOL0     C40671  11.017   9.169   8.376 -0.1018  0.3250 -0.8218
 1020MOL0     C40672  10.883   9.178   8.340 -0.2438  0.8741  0.2789
 1020MOL0     N40673  10.362   9.752   8.083  0.2090 -0.7554 -0.0260
 1020MOL0     N40674  10.287   9.845   8.042 -0.3817 -0.8212  0.9781
 1020MOL0     C40675  10.495   9.535   8.774  0.9769 -0.5497 -0.3713
 1020MOL0     C40676  10.626   9.556   8.801 -0.1835  0.5843 -0.0324
 1020MOL0     C40677  11.033   9.794   8.769  0.1934 -0.0524  0.7462
 1020MOL0     C40678  11.096   9.898   8.691 -0.5360  0.3359  0.5736
 1020MOL0     C40679  11.234   9.914   8.696 -0.0843 -0.0455  0.7369
 1020MOL0     C40680  11.312   9.834   8.773  0.7142  0.9967  1.0260
 1020MOL0     O40681  11.440   9.844   8.759  0.1579 -0.7780 -0.0126
 1020MOL0     C40682  11.534   9.779   8.844  0.3003 -0.5796 -0.4437
 1020MOL0     C40683  11.672   9.768   8.773  0.3400  0.5569  0.2427
 1020MOL0     C40684  11.650   9.686   8.644 -0.2754  0.4281 -0.1614
 1020MOL0     C40685  11.606   9.543   8.671 -0.2234 -0.3694  1.6302
 1020MOL0     C40686  11.688   9.464   8.756  0.2881  0.8275 -0.0220
 1020MOL0     C40687  11.765   9.408   8.836 -0.3179  0.2861  0.2842
 1020MOL0     C40688  11.253   9.731   8.844  0.0397  0.5331 -0.3620
 1020MOL0     C40689  11.111   9.711   8.858  0.4326 -1.3885  0.6059
 1020MOL0     C40690  11.057   9.611   8.955 -0.7585 -1.1090 -0.0848
 1020MOL0     H40691  10.639   9.893   8.837 -1.5500  0.0647  0.6131
 1020MOL0     H40692  10.391   9.859   8.792 -0.7745  0.0503  1.5340
 1020MOL0     H40693  10.210   9.437   8.752  1.7373  1.2096  0.8648
 1020MOL0     H40694  10.280   9.516   8.606 -1.0447  0.8087 -0.6089
 1020MOL0     H40695  10.050   9.531   8.548 -1.2749  3.4556 -1.6449
 1020MOL0     H40696  10.003   9.559   8.725  0.1019  0.4319 -0.1181
 1020MOL0     H40697  10.052   9.776   8.722 -1.9206  1.4624 -1.0949
 1020MOL0     H40698  10.170   9.760   8.596  0.0053  0.8258 -1.3931
 1020MOL0     H40699   9.968   9.700   8.444  0.1357  2.2452 -2.4003
 1020MOL0     H40700   9.871   9.774   8.570  0.1684 -1.3743  1.7303
 1020MOL0     H40701  10.064   9.969   8.553  1.8110 -1.6076 -0.5121
 1020MOL0     H40702   9.917   9.978   8.443 -0.2733  0.7893  1.5385
 1020MOL0     H40703  10.170   9.828   8.358 -1.3922 -1.4507 -0.5333
 1020MOL0     H40704  10.034   9.872   8.259 -0.4910 -2.6457 -0.0287
 1020MOL0     H40705  10.243  10.076   8.370  0.8828 -1.5649 -0.7330
 1020MOL0     H40706  10.085  10.121   8.331  0.1897 -0.1342 -0.9589
 1020MOL0     H40707  10.119  10.028   8.095  0.1075  0.6004 -1.3550
 1020MOL0     H40708  10.228  10.149   8.126 -2.6864 -0.1815 -3.2210
 1020MOL0     H40709  10.447   9.970   8.309 -4.6436  0.4816  1.7841
 1020MOL0     H40710  10.612   9.777   8.330 -1.4099  1.2318  0.7181
 1020MOL0     H40711  10.620   9.688   8.166  1.9075  1.0600  0.6142
 1020MOL0     H40712  10.487   9.610   8.427 -1.2913  1.1413 -1.2565
 1020MOL0     H40713  10.433   9.550   8.266  1.3729  0.6757 -1.6040
 1020MOL0     H40714  10.647   9.463   8.221 -0.5830 -0.1573 -0.1729
 1020MOL0     H40715  10.716   9.533   8.370 -0.0978 -0.1596 -1.2449
 1020MOL0     H40716  10.572   9.377   8.503  2.2165 -0.9716  0.5187
 1020MOL0     H40717  10.490   9.336   8.348 -0.7070 -0.0567  0.9431
 1020MOL0     H40718  10.786   9.418   8.550  0.3435 -0.8114  3.3792
 1020MOL0     H40719  11.072   9.419   8.703 -1.4507 -1.2129  0.1610
 1020MOL0     H40720  10.949   9.528   8.647 -0.8544  0.0918 -1.0968
 1020MOL0     H40721  11.101   9.543   8.563  0.6408 -0.5275  1.1289
 1020MOL0     H40722  11.475   9.353   8.443  1.1058  0.1066  1.5379
 1020MOL0     H40723  11.715   9.306   8.462  0.7503 -0.5484  1.8111
 1020MOL0     H40724  11.865   9.188   8.611  0.6937  2.0640 -1.4422
 1020MOL0     H40725  11.988   9.057   8.579 -1.7495 -0.3756  1.9241
 1020MOL0     H40726  12.056   9.206   8.384  1.4289 -0.7980  0.7703
 1020MOL0     H40727  11.936   9.319   8.442  0.2768 -1.1092 -2.6853
 1020MOL0     H40728  12.186   9.363   8.501 -0.9533 -1.4785 -2.5545
 1020MOL0     H40729  12.175   9.223   8.617  1.1648  0.6213 -0.7201
 1020MOL0     H40730  12.016   9.339   8.760 -1.3425  0.6945  0.2060
 1020MOL0     H40731  11.980   9.457   8.623  1.5365 -0.1584 -0.8307
 1020MOL0     H40732  12.219   9.421   8.809 -1.0272 -1.5137 -0.1205
 1020MOL0     H40733  12.226   9.520   8.656  0.5693 -0.9540  0.1467
 1020MOL0     H40734  12.053   9.558   8.896  1.9238 -2.6008 -0.2619
 1020MOL0     H40735  12.041   9.655   8.739  1.2626 -1.3878 -1.6840
 1020MOL0     H40736  12.303   9.662   8.826 -1.6158  0.5987 -2.1063
 1020MOL0     H40737  12.206   9.715   8.966 -4.8540  2.9216  0.0808
 1020MOL0     H40738  12.179   9.840   8.686 -1.6706 -1.9998 -0.0234
 1020MOL0     H40739  12.258   9.911   8.832 -2.2312  2.0225  0.1196
 1020MOL0     H40740  11.653   8.891   8.385 -0.0498  0.5573 -1.9823
 1020MOL0     H40741  11.398   8.931   8.364  0.9789 -1.4744  1.8805
 1020MOL0     H40742  11.066   9.082   8.334 -0.1063  0.1135 -0.3923
 1020MOL0     H40743  10.854   9.108   8.262 -0.9063  0.6897  0.6817
 1020MOL0     H40744  10.454   9.435   8.772 -0.4489 -0.0057 -3.0510
 1020MOL0     H40745  10.687   9.467   8.804 -3.2298 -1.6331  0.9633
 1020MOL0     H40746  11.040   9.955   8.616 -0.7851 -1.3920 -0.6150
 1020MOL0     H40747  11.281   9.994   8.640  0.3654  0.4661  1.8160
 1020MOL0     H40748  11.544   9.829   8.941  0.8688  1.6537 -1.5903
 1020MOL0     H40749  11.511   9.677   8.876  0.1459  0.1405  1.9743
 1020MOL0     H40750  11.742   9.723   8.844  1.8667 -2.7035 -2.9587
 1020MOL0     H40751  11.710   9.863   8.735  0.6216 -0.5488 -2.4724
 1020MOL0     H40752  11.584   9.732   8.570  0.6807 -1.4117 -2.3011
 1020MOL0     H40753  11.745   9.676   8.591 -1.4786 -0.1389 -2.3432
 1020MOL0     H40754  11.617   9.500   8.571  2.1348  1.9516  0.7789
 1020MOL0     H40755  11.500   9.549   8.697 -0.4591  1.4822  0.4462
 1020MOL0     H40756  11.837   9.372   8.907 -0.7798 -1.0588  0.0906
 1020MOL0     H40757  11.302   9.665   8.914 -0.5564  2.2563  1.7836
 1020MOL0     H40758  11.141   9.576   9.017  0.3863 -0.0359 -0.9771
 1020MOL0     H40759  10.978   9.657   9.015  0.7056  1.3624  0.0816
 1020MOL0     H40760  11.019   9.526   8.897  0.1452 -0.5460 -1.5688
 1021MOL0     O40761  10.920   0.856  10.719 -0.3876 -0.0508  1.0162
 1021MOL0     C40762  11.016   0.814  10.784  0.1013  0.1991 -0.6478
 1021MOL0     O40763  11.007   0.765  10.914 -0.0071  0.2355 -0.1086
 1021MOL0     C40764  10.880   0.767  10.962  0.8815  0.0997  0.7796
 1021MOL0     C40765  10.804   0.646  10.963 -0.4112 -0.1848 -0.2023
 1021MOL0     C40766  10.691   0.638  11.043 -0.9815  0.1096 -0.7280
 1021MOL0     C40767  10.641   0.750  11.110  0.0853  0.9427  0.2817
 1021MOL0     O40768  10.528   0.735  11.188  0.2447  0.1177 -0.0966
 1021MOL0     C40769  10.499   0.819  11.304 -0.7107 -0.5067 -0.4788
 1021MOL0     C40770  10.551   0.731  11.420 -0.6402 -0.1394 -0.1119
 1021MOL0     C40771  10.565   0.814  11.547 -0.2876 -0.6194 -0.7017
 1021MOL0     C40772  10.681   0.908  11.547 -0.5648 -0.0666 -0.2780
 1021MOL0     C40773  10.737   0.957  11.684 -0.6736 -0.2729  0.4407
 1021MOL0     C40774  10.619   0.987  11.781  0.1755 -0.0116 -0.3396
 1021MOL0     C40775  10.661   1.035  11.918  0.4124 -0.2386 -0.6467
 1021MOL0     C40776  10.738   1.172  11.915 -0.5131 -0.6498  0.1957
 1021MOL0     N40777  10.660   1.293  11.960  0.2210  0.4637  0.7555
 1021MOL0     C40778  10.520   1.316  11.961 -0.2105  0.0966  0.1408
 1021MOL0     C40779  10.505   1.418  12.046  0.4551  0.5605  0.1585
 1021MOL0     C40780  10.368   1.476  12.072 -0.1358 -0.1705 -0.2995
 1021MOL0     C40781  10.379   1.586  12.175  0.6286  0.6640  0.4612
 1021MOL0     C40782  10.398   1.524  12.318 -0.3928  0.4921  0.3605
 1021MOL0     C40783  10.423   1.628  12.424 -0.3994 -0.0786  0.8436
 1021MOL0     O40784  10.550   1.697  12.403  0.3612  0.6635 -0.5156
 1021MOL0     C40785  10.593   1.796  12.491  0.3829 -0.8846 -1.3853
 1021MOL0     C40786  10.561   1.800  12.629 -0.0301 -0.3648 -0.3153
 1021MOL0     C40787  10.597   1.910  12.711  0.9290  0.6457 -0.6047
 1021MOL0     C40788  10.537   1.899  12.850  1.1691  0.4770 -0.7054
 1021MOL0     C40789  10.673   2.021  12.664 -0.1620 -0.6063  0.5812
 1021MOL0     C40790  10.714   2.135  12.744 -0.1293 -0.2866  0.8489
 1021MOL0     O40791  10.818   2.208  12.690 -0.1511 -0.0486 -0.5504
 1021MOL0     C40792  10.843   2.338  12.744 -0.2584  0.0555  0.4211
 1021MOL0     C40793  10.860   2.451  12.660  0.3347 -0.5004 -1.2459
 1021MOL0     C40794  10.907   2.567  12.720 -0.2218 -0.1355 -0.9693
 1021MOL0     C40795  10.954   2.568  12.854 -0.0766 -0.2889  0.8800
 1021MOL0     O40796  11.010   2.690  12.906  0.2562  1.0109 -0.2749
 1021MOL0     C40797  11.116   2.687  13.006  0.4767  0.4351  1.0078
 1021MOL0     C40798  11.241   2.611  12.958 -0.6233 -0.6642 -0.3016
 1021MOL0     C40799  11.295   2.680  12.832  0.2490  0.1608 -0.3931
 1021MOL0     C40800  11.431   2.618  12.789  0.4732  0.1793 -0.0261
 1021MOL0     C40801  11.499   2.697  12.677 -0.3476  0.4317  0.2542
 1021MOL0     C40802  11.573   2.819  12.724  0.3978  0.1777  0.0777
 1021MOL0     C40803  11.635   2.894  12.607  0.7478 -0.3678  0.6943
 1021MOL0     C40804  11.704   3.026  12.641 -0.5582  0.1871  0.2024
 1021MOL0    Cl40805  11.581   3.142  12.679  0.1079 -0.0106  0.1102
 1021MOL0     C40806  10.929   2.463  12.939 -0.3812  0.4226 -0.3105
 1021MOL0     C40807  10.890   2.347  12.879  1.1659  0.2041  0.4196
 1021MOL0     O40808  10.661   2.159  12.849 -0.1294  0.7553  0.0096
 1021MOL0     C40809  10.720   2.007  12.531  0.3523 -0.4693  0.0016
 1021MOL0     C40810  10.679   1.899  12.448  0.1024  0.3384 -0.7387
 1021MOL0     N40811  10.638   1.464  12.088  0.7347  0.1463 -0.1822
 1021MOL0     N40812  10.724   1.385  12.032  0.9930  0.2698  0.0893
 1021MOL0     C40813  10.718   0.873  11.101  0.3774 -0.3007 -0.4989
 1021MOL0     C40814  10.833   0.882  11.032  0.3317  0.1622  1.0279
 1021MOL0     C40815  11.152   0.823  10.726  0.1462 -0.0005  0.1583
 1021MOL0     C40816  11.260   0.790  10.808  0.4998  0.2001  0.1740
 1021MOL0     C40817  11.392   0.790  10.770  0.6847  0.2932  0.5294
 1021MOL0     C40818  11.420   0.838  10.638 -0.1431 -0.7239  0.3463
 1021MOL0     O40819  11.542   0.835  10.576 -0.2288  0.0784  0.5481
 1021MOL0     C40820  11.666   0.811  10.638  0.4219  0.4410 -0.7769
 1021MOL0     C40821  11.782   0.804  10.539  0.7759  0.9661  0.0573
 1021MOL0     C40822  11.892   0.716  10.588 -0.3300 -0.4990  0.1425
 1021MOL0     C40823  12.006   0.699  10.488 -0.2254 -0.4632  0.0198
 1021MOL0     C40824  12.074   0.825  10.464 -0.3948 -0.1644  0.6543
 1021MOL0     C40825  12.115   0.934  10.425 -0.4328 -0.5034 -0.4168
 1021MOL0     C40826  11.321   0.870  10.555 -0.4888 -0.0483 -0.1521
 1021MOL0     C40827  11.181   0.860  10.593  0.1410 -0.0488  0.1719
 1021MOL0     C40828  11.087   0.885  10.476  0.8710  0.0441 -0.3502
 1021MOL0     H40829  10.834   0.559  10.905 -1.4570  0.0108 -1.0683
 1021MOL0     H40830  10.635   0.546  11.057  0.7473 -0.8303  0.3764
 1021MOL0     H40831  10.391   0.829  11.314 -0.5641 -0.2412  1.0154
 1021MOL0     H40832  10.549   0.916  11.296  0.5748 -1.0589  0.5361
 1021MOL0     H40833  10.482   0.648  11.437 -2.0968  0.9775 -0.4147
 1021MOL0     H40834  10.652   0.690  11.407  0.4689  2.5510 -0.7057
 1021MOL0     H40835  10.475   0.873  11.565 -1.6501 -2.4980 -1.0462
 1021MOL0     H40836  10.581   0.750  11.634 -2.7953  3.0982  2.8385
 1021MOL0     H40837  10.760   0.870  11.482 -0.0429  0.8853 -0.2248
 1021MOL0     H40838  10.651   0.993  11.484  0.5658  1.9235  1.7399
 1021MOL0     H40839  10.809   1.037  11.663 -0.0228 -1.2332 -1.1193
 1021MOL0     H40840  10.799   0.877  11.726  0.8814  0.2888 -0.6996
 1021MOL0     H40841  10.553   1.071  11.760  0.2771  0.9122  2.5873
 1021MOL0     H40842  10.563   0.896  11.807 -0.3857  0.0942 -1.1223
 1021MOL0     H40843  10.721   0.956  11.964 -0.6040 -0.1321  0.9361
 1021MOL0     H40844  10.575   1.048  11.984  2.1946 -0.9393  1.9964
 1021MOL0     H40845  10.830   1.172  11.973  2.7729 -2.5309 -4.4283
 1021MOL0     H40846  10.787   1.191  11.819  1.6444  1.9273  1.6888
 1021MOL0     H40847  10.444   1.269  11.899  0.6421  0.6189 -1.3539
 1021MOL0     H40848  10.287   1.404  12.084 -1.5650  1.1508 -1.4845
 1021MOL0     H40849  10.346   1.531  11.980  0.2075  0.1758 -0.1774
 1021MOL0     H40850  10.467   1.650  12.165 -0.1873  1.5355 -2.1756
 1021MOL0     H40851  10.291   1.652  12.173  1.0018  1.1642  0.5272
 1021MOL0     H40852  10.307   1.469  12.345 -0.6238  0.2265 -0.9337
 1021MOL0     H40853  10.483   1.457  12.314  0.7876  2.0005 -2.7697
 1021MOL0     H40854  10.340   1.699  12.421 -0.8119 -0.5722 -0.4911
 1021MOL0     H40855  10.428   1.557  12.507 -0.4894 -2.3357 -0.9547
 1021MOL0     H40856  10.511   1.714  12.673  1.8402 -1.5707 -0.4504
 1021MOL0     H40857  10.455   1.971  12.866 -0.1702 -1.4765  1.9268
 1021MOL0     H40858  10.601   1.898  12.939  1.0333  0.4004 -0.6080
 1021MOL0     H40859  10.486   1.803  12.857 -3.8848  2.8730  1.0239
 1021MOL0     H40860  10.843   2.459  12.553  1.9905  1.4390 -1.4239
 1021MOL0     H40861  10.918   2.664  12.675  1.7081 -0.4503 -1.2538
 1021MOL0     H40862  11.153   2.788  13.022  2.7787 -0.2809  0.6061
 1021MOL0     H40863  11.080   2.653  13.104 -3.3062 -0.5609 -0.5212
 1021MOL0     H40864  11.319   2.613  13.035 -0.5248 -0.5477 -0.4042
 1021MOL0     H40865  11.233   2.507  12.928  0.2892 -1.3417  1.6052
 1021MOL0     H40866  11.319   2.785  12.850  1.7969  0.2472 -2.6716
 1021MOL0     H40867  11.224   2.675  12.749 -0.2438  1.3826 -0.0768
 1021MOL0     H40868  11.412   2.517  12.752 -0.6838  1.3917 -3.0351
 1021MOL0     H40869  11.498   2.604  12.874 -0.1989 -0.0439  0.4692
 1021MOL0     H40870  11.575   2.632  12.633 -0.5925  0.9772 -0.9975
 1021MOL0     H40871  11.435   2.727  12.594  2.0253 -1.5030 -2.4916
 1021MOL0     H40872  11.651   2.790  12.795  0.1009  1.9286  1.1704
 1021MOL0     H40873  11.502   2.886  12.774 -2.1380 -2.3890  0.1652
 1021MOL0     H40874  11.553   2.916  12.539 -1.0158 -0.2427  2.7579
 1021MOL0     H40875  11.707   2.835  12.549  0.5288  0.8115 -0.8203
 1021MOL0     H40876  11.759   3.065  12.555  0.1735 -1.9042 -0.3435
 1021MOL0     H40877  11.782   3.024  12.717 -0.2785  0.4408 -0.0754
 1021MOL0     H40878  10.949   2.470  13.045  2.6036 -1.0385 -0.6905
 1021MOL0     H40879  10.887   2.258  12.941 -1.7099 -0.2248 -0.1901
 1021MOL0     H40880  10.786   2.081  12.487  0.3717 -0.3320  0.2629
 1021MOL0     H40881  10.713   1.897  12.345  1.3045  2.5187 -0.4594
 1021MOL0     H40882  10.690   0.966  11.149  1.6031  1.5445 -3.1528
 1021MOL0     H40883  10.904   0.964  11.035  0.0832  0.4209  0.2124
 1021MOL0     H40884  11.248   0.757  10.911  2.1479  0.9587  0.6360
 1021MOL0     H40885  11.464   0.750  10.841 -0.7044  0.5780  2.1841
 1021MOL0     H40886  11.685   0.893  10.708  2.4483 -1.5612  1.1654
 1021MOL0     H40887  11.669   0.717  10.695  4.7915  0.9950  0.2391
 1021MOL0     H40888  11.823   0.903  10.521  0.6941  0.8399 -0.8543
 1021MOL0     H40889  11.743   0.765  10.444  0.8868  2.3981 -0.6005
 1021MOL0     H40890  11.930   0.761  10.681  3.2342  1.7076 -2.1014
 1021MOL0     H40891  11.844   0.620  10.608  0.3129 -1.5939 -2.9363
 1021MOL0     H40892  11.968   0.660  10.394 -0.7374 -1.8824  0.7800
 1021MOL0     H40893  12.081   0.631  10.530 -1.2464 -1.8448 -0.3346
 1021MOL0     H40894  12.133   1.027  10.375  1.1197 -0.6417 -0.1609
 1021MOL0     H40895  11.351   0.895  10.454  0.5969 -3.3406 -0.7719
 1021MOL0     H40896  11.023   0.967  10.509  0.0068 -1.3560  1.7337
 1021MOL0     H40897  11.135   0.903  10.379 -0.0353 -1.3927 -1.1065
 1021MOL0     H40898  11.030   0.792  10.460  2.0165 -0.4965 -1.4875
 1022MOL0     O40899   4.715   4.783   6.426 -0.4574  0.2583  0.6468
 1022MOL0     C40900   4.734   4.846   6.319 -0.7838  0.2409  0.0124
 1022MOL0     O40901   4.634   4.895   6.234  0.1243 -1.4657 -0.5502
 1022MOL0     C40902   4.500   4.878   6.261  0.7492 -0.7262 -0.8742
 1022MOL0     C40903   4.429   4.996   6.288 -0.7548  0.3667 -1.0264
 1022MOL0     C40904   4.284   4.980   6.316  0.0879 -1.0791  0.3170
 1022MOL0     C40905   4.220   4.848   6.309  0.2083  0.4357 -0.1227
 1022MOL0     O40906   4.085   4.835   6.336  0.1784  0.2889  0.5199
 1022MOL0     C40907   4.013   4.719   6.297 -0.3872 -0.4524  0.8481
 1022MOL0     C40908   3.862   4.742   6.325 -0.5000  0.0564  0.4833
 1022MOL0     C40909   3.781   4.615   6.296  0.6070 -0.0440  0.8442
 1022MOL0     C40910   3.634   4.664   6.274 -1.0235  0.0484  0.2096
 1022MOL0     C40911   3.537   4.551   6.278  0.1495 -0.5724 -0.1333
 1022MOL0     C40912   3.538   4.483   6.420  0.0269  0.6518  0.3921
 1022MOL0     C40913   3.400   4.416   6.458  0.4980 -0.9112  0.4872
 1022MOL0     C40914   3.301   4.519   6.510 -0.0629  0.0450 -0.3904
 1022MOL0     N40915   3.368   4.611   6.609  0.2646  0.5537  0.3247
 1022MOL0     C40916   3.418   4.740   6.567  0.0302 -0.0507 -0.2685
 1022MOL0     C40917   3.476   4.782   6.679 -0.4705 -0.5742  0.3182
 1022MOL0     C40918   3.544   4.919   6.704  0.7437  0.0819 -0.0932
 1022MOL0     C40919   3.684   4.927   6.648 -0.2118  0.2804  0.9873
 1022MOL0     C40920   3.745   5.056   6.702 -0.5693  0.6713 -0.2781
 1022MOL0     C40921   3.850   5.109   6.605  0.1895 -0.2229  0.1888
 1022MOL0     O40922   3.946   5.194   6.671  0.0803  0.4601 -0.0096
 1022MOL0     C40923   4.040   5.263   6.595  0.3483 -0.1356  0.5329
 1022MOL0     C40924   4.119   5.352   6.672  0.5396  0.6995  0.7874
 1022MOL0     C40925   4.198   5.443   6.602  0.1584 -0.9035  0.4857
 1022MOL0     C40926   4.263   5.543   6.689 -0.2181 -0.8971 -1.2282
 1022MOL0     C40927   4.216   5.439   6.460  0.3456  0.0480 -0.0242
 1022MOL0     C40928   4.317   5.527   6.383 -0.3252 -0.0511  0.2649
 1022MOL0     O40929   4.359   5.487   6.248  0.4394  0.4548  0.0950
 1022MOL0     C40930   4.462   5.539   6.184  0.1406  0.2659  0.5658
 1022MOL0     C40931   4.593   5.533   6.229 -0.0200  0.0943 -0.1946
 1022MOL0     C40932   4.696   5.574   6.147 -0.0580 -0.6253 -1.2177
 1022MOL0     C40933   4.671   5.653   6.035  0.3094 -0.3261  0.6999
 1022MOL0     O40934   4.763   5.698   5.948  0.2137  0.2890  0.7482
 1022MOL0     C40935   4.902   5.690   5.976 -0.7941  0.1262 -0.0372
 1022MOL0     C40936   4.996   5.765   5.877 -0.3758 -0.5571  0.8217
 1022MOL0     C40937   4.960   5.916   5.853  0.9997 -0.0226 -0.2716
 1022MOL0     C40938   5.071   5.990   5.782 -0.0846 -0.5232 -0.6648
 1022MOL0     C40939   5.043   6.012   5.638 -1.0365 -0.2624 -0.2249
 1022MOL0     C40940   5.153   6.098   5.575 -0.3170  0.2018  0.2706
 1022MOL0     C40941   5.130   6.247   5.612  0.0752 -0.5938 -0.3304
 1022MOL0     C40942   5.211   6.333   5.508 -0.1031 -0.2803  0.0331
 1022MOL0    Cl40943   5.144   6.485   5.470 -0.1381 -0.1045  0.4216
 1022MOL0     C40944   4.540   5.668   5.997 -0.7091 -0.0903  0.6018
 1022MOL0     C40945   4.436   5.606   6.064 -0.9418  0.0167  0.0371
 1022MOL0     O40946   4.361   5.627   6.441  0.3778  0.0753 -0.0073
 1022MOL0     C40947   4.140   5.353   6.384  0.0589  0.7067  0.5982
 1022MOL0     C40948   4.050   5.265   6.454 -0.0503 -0.1948 -0.1256
 1022MOL0     N40949   3.458   4.685   6.777  0.7834  1.4132 -0.3838
 1022MOL0     N40950   3.384   4.589   6.744 -0.5894 -0.2318  1.0239
 1022MOL0     C40951   4.308   4.738   6.291 -1.0472  0.4702  1.3700
 1022MOL0     C40952   4.442   4.755   6.276 -0.3328  0.3112  0.6557
 1022MOL0     C40953   4.875   4.869   6.283 -0.6951 -0.9505  0.0147
 1022MOL0     C40954   4.961   4.874   6.392 -0.0698  0.3976  0.0619
 1022MOL0     C40955   5.099   4.887   6.383 -0.0774  0.4850  0.3706
 1022MOL0     C40956   5.159   4.919   6.264  0.3040 -0.3233  0.3865
 1022MOL0     O40957   5.293   4.941   6.274 -0.2499  0.0756 -0.0360
 1022MOL0     C40958   5.360   4.979   6.148  0.6207 -0.0384 -0.0717
 1022MOL0     C40959   5.512   4.964   6.167  0.0110  0.5259 -0.2244
 1022MOL0     C40960   5.586   4.959   6.031 -0.2021  0.9679  0.2426
 1022MOL0     C40961   5.732   4.950   6.035  0.3210 -0.2417  0.6247
 1022MOL0     C40962   5.768   4.843   6.136 -0.8555 -0.5043  0.3255
 1022MOL0     C40963   5.789   4.747   6.199 -0.4109  0.9121 -0.6482
 1022MOL0     C40964   5.079   4.913   6.145 -1.0935  0.4811 -0.5045
 1022MOL0     C40965   4.939   4.887   6.154 -0.4002  0.7737  0.0173
 1022MOL0     C40966   4.865   4.862   6.024 -0.0430  0.2653 -0.1419
 1022MOL0     H40967   4.463   5.099   6.284  1.8092 -0.4129 -0.8263
 1022MOL0     H40968   4.218   5.063   6.338 -0.7768 -1.9929  1.3643
 1022MOL0     H40969   4.043   4.635   6.361  0.7026 -0.3340  0.5106
 1022MOL0     H40970   4.041   4.696   6.194  3.5299  0.3470  1.5798
 1022MOL0     H40971   3.852   4.780   6.427  2.1796  2.8642 -0.1402
 1022MOL0     H40972   3.832   4.824   6.259 -3.5674 -0.6902  0.8430
 1022MOL0     H40973   3.824   4.571   6.205 -4.6279 -0.6297 -1.7453
 1022MOL0     H40974   3.797   4.548   6.381  2.6912  1.8539  2.0386
 1022MOL0     H40975   3.609   4.734   6.355 -0.1278  1.6244 -0.8071
 1022MOL0     H40976   3.624   4.719   6.180 -0.7668  0.5330  0.4590
 1022MOL0     H40977   3.565   4.487   6.194  0.6803 -0.5292  0.0110
 1022MOL0     H40978   3.434   4.583   6.255  0.1954  1.2011  1.8276
 1022MOL0     H40979   3.609   4.399   6.423 -4.2558 -3.3242  0.9686
 1022MOL0     H40980   3.576   4.553   6.494  0.2069  2.0995 -1.0071
 1022MOL0     H40981   3.415   4.339   6.535 -0.2917 -0.7585  0.7956
 1022MOL0     H40982   3.368   4.365   6.367  0.4960  2.0927 -1.3135
 1022MOL0     H40983   3.267   4.578   6.424  0.1055 -0.8495 -1.0848
 1022MOL0     H40984   3.215   4.465   6.553  0.2887  1.7714  2.8003
 1022MOL0     H40985   3.415   4.796   6.474  1.7061 -0.9792 -0.9411
 1022MOL0     H40986   3.542   4.920   6.814 -3.1403 -0.7635  0.0008
 1022MOL0     H40987   3.477   4.997   6.665  0.8003 -1.6207 -4.0102
 1022MOL0     H40988   3.733   4.834   6.680 -3.6071 -2.4660 -1.0959
 1022MOL0     H40989   3.678   4.933   6.539  0.4362  1.8697  1.0164
 1022MOL0     H40990   3.687   5.147   6.723 -0.0841  0.8346  0.4120
 1022MOL0     H40991   3.783   5.022   6.799 -3.7855 -0.1201  0.8292
 1022MOL0     H40992   3.897   5.024   6.553  0.9114  0.3621 -0.1400
 1022MOL0     H40993   3.793   5.168   6.533 -1.0044 -1.7508 -0.1737
 1022MOL0     H40994   4.113   5.342   6.780 -0.0279 -0.1142  0.6851
 1022MOL0     H40995   4.371   5.526   6.686  0.4455 -1.2201  6.1600
 1022MOL0     H40996   4.239   5.513   6.792 -2.2563  0.1333 -1.3514
 1022MOL0     H40997   4.233   5.647   6.676  2.8354  0.1985 -0.2549
 1022MOL0     H40998   4.628   5.485   6.320 -0.6614  1.1826  0.6446
 1022MOL0     H40999   4.799   5.554   6.175  0.2201  0.1244 -1.6867
 1022MOL0     H41000   4.932   5.732   6.073  0.8289  1.6454 -1.1257
 1022MOL0     H41001   4.930   5.584   5.975  0.2158  0.3427  1.5296
 1022MOL0     H41002   5.097   5.762   5.920  0.8775  2.2007 -1.5260
 1022MOL0     H41003   4.998   5.711   5.782 -0.8641  1.3427 -0.3320
 1022MOL0     H41004   4.951   5.957   5.954  3.9733 -1.5163  0.7254
 1022MOL0     H41005   4.859   5.930   5.814  1.5717  1.2677 -1.3949
 1022MOL0     H41006   5.165   5.936   5.792  0.1198 -0.0102  0.2842
 1022MOL0     H41007   5.087   6.090   5.825  1.9103 -1.0049 -0.1773
 1022MOL0     H41008   5.023   5.915   5.592 -2.4381  0.0663 -0.3571
 1022MOL0     H41009   4.944   6.057   5.621 -2.0864 -1.8882  1.2116
 1022MOL0     H41010   5.150   6.082   5.467 -1.5850 -1.3642  0.5011
 1022MOL0     H41011   5.251   6.075   5.620  0.8521  1.9994 -1.2253
 1022MOL0     H41012   5.161   6.278   5.712 -1.3435 -2.4122  0.7277
 1022MOL0     H41013   5.027   6.281   5.607  0.5645  0.7378 -3.0787
 1022MOL0     H41014   5.220   6.273   5.417 -4.9925 -1.5785  0.1622
 1022MOL0     H41015   5.310   6.337   5.555  0.3690  1.9441 -1.0248
 1022MOL0     H41016   4.527   5.709   5.897  1.8183 -0.3211  0.1062
 1022MOL0     H41017   4.335   5.616   6.026 -0.2683  0.1927 -1.8199
 1022MOL0     H41018   4.141   5.356   6.276 -2.1221 -0.4761  0.4817
 1022MOL0     H41019   3.995   5.209   6.379 -1.6922  0.1407  0.8020
 1022MOL0     H41020   4.265   4.639   6.286  0.5799 -0.2133 -0.7905
 1022MOL0     H41021   4.508   4.671   6.262 -3.5464 -1.9597 -3.0703
 1022MOL0     H41022   4.933   4.859   6.496  0.5041  0.9860  0.3120
 1022MOL0     H41023   5.159   4.883   6.474 -0.3895  1.9194  0.6577
 1022MOL0     H41024   5.331   4.906   6.072  5.8973 -2.2382 -0.3987
 1022MOL0     H41025   5.326   5.080   6.122 -0.3899  0.9070  4.0723
 1022MOL0     H41026   5.520   4.864   6.211  1.1353 -0.7930 -3.1522
 1022MOL0     H41027   5.555   5.034   6.240 -0.1068  1.1874 -0.7729
 1022MOL0     H41028   5.539   4.880   5.972  4.6333 -0.6531 -1.9280
 1022MOL0     H41029   5.556   5.053   5.984  1.4520  0.2233 -2.4946
 1022MOL0     H41030   5.772   5.038   6.085  0.5813  0.1648 -0.2738
 1022MOL0     H41031   5.765   4.945   5.931 -2.8215  1.2253 -0.5454
 1022MOL0     H41032   5.803   4.659   6.259 -0.3802  1.0325 -0.4764
 1022MOL0     H41033   5.113   4.923   6.042 -0.7178 -3.9744 -0.9934
 1022MOL0     H41034   4.931   4.848   5.938 -1.0105  1.6306 -1.1424
 1022MOL0     H41035   4.809   4.770   6.039  0.2314  0.2974  1.2246
 1022MOL0     H41036   4.788   4.939   6.016 -1.1897 -0.2936  3.5837
 1023MOL0     O41037   6.614   2.837   6.802  0.8659 -0.1816  0.0273
 1023MOL0     C41038   6.607   2.806   6.680 -0.6009 -0.8426 -0.0430
 1023MOL0     O41039   6.708   2.742   6.612  0.2076  0.1885 -0.6495
 1023MOL0     C41040   6.825   2.711   6.683  0.4845 -0.3024  0.2383
 1023MOL0     C41041   6.824   2.643   6.809  0.2766  0.0336  0.0164
 1023MOL0     C41042   6.950   2.610   6.860 -0.6049  0.1215  0.1298
 1023MOL0     C41043   7.073   2.653   6.804 -0.3148  0.1469  0.3745
 1023MOL0     O41044   7.185   2.616   6.874 -0.2046 -0.0509 -0.3307
 1023MOL0     C41045   7.311   2.629   6.813  0.0659  0.2740  0.1664
 1023MOL0     C41046   7.420   2.598   6.907  0.4695 -0.3811 -0.5162
 1023MOL0     C41047   7.561   2.635   6.861 -0.7871  0.4361  0.6367
 1023MOL0     C41048   7.679   2.624   6.962 -0.1390 -0.2880 -0.3562
 1023MOL0     C41049   7.802   2.704   6.924  0.0677  0.2804 -0.6144
 1023MOL0     C41050   7.857   2.650   6.798  1.3414  0.0712 -0.2699
 1023MOL0     C41051   7.991   2.709   6.771 -1.0238  0.6391  0.1423
 1023MOL0     C41052   8.059   2.680   6.639  0.6648 -0.2956  0.8772
 1023MOL0     N41053   8.198   2.717   6.656  0.2613 -0.3820  0.6293
 1023MOL0     C41054   8.252   2.838   6.689  0.6501 -0.5121 -0.9992
 1023MOL0     C41055   8.385   2.830   6.680  0.4075  0.2093  0.2855
 1023MOL0     C41056   8.490   2.934   6.696 -0.2314  0.0202 -0.3978
 1023MOL0     C41057   8.628   2.880   6.665  0.3729 -0.3260  0.0574
 1023MOL0     C41058   8.746   2.969   6.695 -0.1842  0.2586  0.4308
 1023MOL0     C41059   8.774   3.077   6.583 -0.4826  0.4466  0.5707
 1023MOL0     O41060   8.890   3.151   6.618  0.3054  0.7741  0.6903
 1023MOL0     C41061   9.026   3.102   6.600  0.5051  0.4725 -0.0178
 1023MOL0     C41062   9.050   2.978   6.536  0.3145  0.2124  0.0174
 1023MOL0     C41063   9.189   2.928   6.519 -0.4659 -0.7072  0.1541
 1023MOL0     C41064   9.211   2.794   6.444  0.7825 -0.3015 -0.8510
 1023MOL0     C41065   9.292   3.010   6.568  0.6630 -0.7936  0.0346
 1023MOL0     C41066   9.429   2.970   6.585 -0.1347  0.1451 -0.7126
 1023MOL0     O41067   9.527   3.072   6.570  1.0620 -0.0302 -0.1310
 1023MOL0     C41068   9.661   3.048   6.580 -1.4657 -0.1970 -0.0338
 1023MOL0     C41069   9.723   2.962   6.489 -0.4581 -0.2649  1.1724
 1023MOL0     C41070   9.864   2.945   6.488 -0.8167 -0.2982 -0.1384
 1023MOL0     C41071   9.946   3.023   6.573  0.3626  0.5435  0.3463
 1023MOL0     O41072  10.090   3.017   6.577  0.5744  0.2902  0.0329
 1023MOL0     C41073  10.154   2.927   6.482 -0.3856 -0.1134 -0.2636
 1023MOL0     C41074  10.305   2.900   6.505  0.6108 -0.1794  0.4847
 1023MOL0     C41075  10.362   2.807   6.394  0.2376  1.1947 -0.1609
 1023MOL0     C41076  10.513   2.787   6.397  0.0414 -0.8218 -0.5558
 1023MOL0     C41077  10.586   2.719   6.274 -0.1652  0.3872 -1.0798
 1023MOL0     C41078  10.622   2.818   6.159 -1.3381  0.5142 -0.2926
 1023MOL0     C41079  10.638   2.742   6.027  0.5107 -1.3902  0.0313
 1023MOL0     C41080  10.692   2.844   5.917 -0.0285 -0.7196  0.1516
 1023MOL0    Cl41081  10.867   2.843   5.940  0.4295 -0.3318 -0.2156
 1023MOL0     C41082   9.880   3.099   6.669  0.2515 -0.4018  0.2335
 1023MOL0     C41083   9.744   3.124   6.669  0.4891  0.8228  0.1553
 1023MOL0     O41084   9.453   2.851   6.615  0.7201  0.4390 -0.0947
 1023MOL0     C41085   9.259   3.143   6.623  0.5472  0.0546  0.1888
 1023MOL0     C41086   9.125   3.188   6.636 -0.3485  0.1009 -0.2397
 1023MOL0     N41087   8.412   2.702   6.637  0.0332 -0.2738  0.1090
 1023MOL0     N41088   8.303   2.632   6.632 -0.1152 -0.5537 -0.2250
 1023MOL0     C41089   7.072   2.728   6.684 -0.0472  0.3316 -0.1648
 1023MOL0     C41090   6.949   2.747   6.622  0.4938  0.2762  0.3200
 1023MOL0     C41091   6.487   2.842   6.602 -0.0909  0.2609  0.6173
 1023MOL0     C41092   6.487   2.805   6.462 -0.4021 -0.4684 -0.6477
 1023MOL0     C41093   6.381   2.851   6.387  0.3606 -0.0832  0.0359
 1023MOL0     C41094   6.270   2.916   6.437  0.7667 -0.5652  0.0456
 1023MOL0     O41095   6.164   2.958   6.362  0.1680  0.1117  0.1386
 1023MOL0     C41096   6.102   2.875   6.267  0.5032 -1.3996 -0.2841
 1023MOL0     C41097   5.950   2.913   6.246 -0.3039 -0.4098 -0.0248
 1023MOL0     C41098   5.858   2.864   6.355  0.4170  0.0025  0.2773
 1023MOL0     C41099   5.901   2.883   6.497 -0.2301 -0.3591 -0.5467
 1023MOL0     C41100   5.914   3.017   6.554  0.0309 -0.2873 -0.5634
 1023MOL0     C41101   5.912   3.116   6.621  0.9155 -0.3153 -0.7443
 1023MOL0     C41102   6.271   2.951   6.571 -0.2352  0.7963  0.4857
 1023MOL0     C41103   6.377   2.909   6.654  0.0888 -0.2195 -0.3377
 1023MOL0     C41104   6.346   2.913   6.803 -0.1183  1.3195 -0.1864
 1023MOL0     H41105   6.732   2.603   6.848 -0.3840  1.6988  0.2537
 1023MOL0     H41106   6.957   2.543   6.946  2.9467  0.9378  0.6576
 1023MOL0     H41107   7.318   2.732   6.778 -3.9477  0.3212 -0.9721
 1023MOL0     H41108   7.311   2.560   6.728  0.1823 -0.8695  1.0657
 1023MOL0     H41109   7.399   2.636   7.007  2.8019  2.2870 -0.9173
 1023MOL0     H41110   7.407   2.490   6.912 -0.7837 -0.1752  1.4092
 1023MOL0     H41111   7.587   2.582   6.769 -1.4468  2.7188 -0.9680
 1023MOL0     H41112   7.555   2.741   6.835  1.1247  0.1267 -1.3526
 1023MOL0     H41113   7.648   2.649   7.064  3.9211  0.8645  0.7695
 1023MOL0     H41114   7.704   2.518   6.966  2.3680  0.2340  4.0293
 1023MOL0     H41115   7.883   2.690   6.996  1.5085  4.1881 -1.2536
 1023MOL0     H41116   7.780   2.811   6.926 -1.1101  0.0459  2.0544
 1023MOL0     H41117   7.867   2.541   6.799  1.7937  0.1155  0.2168
 1023MOL0     H41118   7.794   2.680   6.713  3.1697  0.8947 -1.4253
 1023MOL0     H41119   8.052   2.663   6.850  0.5185 -1.0977 -1.9286
 1023MOL0     H41120   7.979   2.816   6.787  1.4826  0.9626  0.1880
 1023MOL0     H41121   8.047   2.576   6.607 -0.5748 -0.3736  1.5320
 1023MOL0     H41122   8.016   2.741   6.559 -1.8440 -2.5534  0.3621
 1023MOL0     H41123   8.209   2.930   6.728  1.0485  0.1226 -1.9857
 1023MOL0     H41124   8.490   2.977   6.796  0.3343  3.2292 -1.6635
 1023MOL0     H41125   8.473   3.017   6.626 -0.9426 -1.2224 -1.7608
 1023MOL0     H41126   8.637   2.795   6.734 -1.4383 -1.2647 -0.7869
 1023MOL0     H41127   8.632   2.847   6.561 -0.3466  3.1042 -1.2085
 1023MOL0     H41128   8.723   3.022   6.788 -2.3479  1.3589 -0.6753
 1023MOL0     H41129   8.834   2.904   6.708 -1.1317 -0.9647  0.9352
 1023MOL0     H41130   8.808   3.022   6.494  1.6922  3.1663 -0.4265
 1023MOL0     H41131   8.685   3.137   6.563  0.2561  1.3300 -0.2361
 1023MOL0     H41132   8.972   2.911   6.502  0.7119  0.3734 -1.2522
 1023MOL0     H41133   9.228   2.815   6.338 -1.9967 -1.2354 -1.5635
 1023MOL0     H41134   9.127   2.725   6.443 -1.4515  2.1329  1.3458
 1023MOL0     H41135   9.294   2.744   6.495  0.1751  0.6852  1.1941
 1023MOL0     H41136   9.664   2.908   6.416  0.9058  1.7177 -1.6160
 1023MOL0     H41137   9.909   2.887   6.408  0.3305 -0.5539  0.6691
 1023MOL0     H41138  10.104   2.830   6.468 -0.3580 -0.0223 -1.0201
 1023MOL0     H41139  10.148   2.985   6.390  0.6124 -0.1829 -0.3770
 1023MOL0     H41140  10.365   2.991   6.502  1.0032 -0.4472 -1.5724
 1023MOL0     H41141  10.320   2.851   6.601 -3.9731  2.2172  2.7395
 1023MOL0     H41142  10.330   2.844   6.296 -0.5489  0.9712  0.0097
 1023MOL0     H41143  10.316   2.709   6.407  3.7108 -0.6472 -0.5772
 1023MOL0     H41144  10.538   2.736   6.490 -0.1181 -0.5848 -0.3798
 1023MOL0     H41145  10.546   2.891   6.402 -2.5839  0.0425  1.0403
 1023MOL0     H41146  10.679   2.675   6.312 -1.7302  0.3902  3.3101
 1023MOL0     H41147  10.513   2.642   6.247 -1.6785  1.3178  0.1856
 1023MOL0     H41148  10.713   2.873   6.186 -1.2725  0.5453 -0.5772
 1023MOL0     H41149  10.532   2.879   6.154 -0.9828  1.3339  2.0653
 1023MOL0     H41150  10.544   2.695   5.997  0.4078 -2.9376  2.4894
 1023MOL0     H41151  10.709   2.663   6.055  1.8248 -0.2888 -0.0560
 1023MOL0     H41152  10.637   2.935   5.943 -1.3261 -0.9940 -1.4937
 1023MOL0     H41153  10.663   2.814   5.816  1.9202 -2.0147 -0.0879
 1023MOL0     H41154   9.949   3.147   6.738  1.4382  1.6800 -2.2518
 1023MOL0     H41155   9.695   3.193   6.737  0.1070  0.5274  0.1768
 1023MOL0     H41156   9.334   3.210   6.664 -0.1651 -0.8544  3.2291
 1023MOL0     H41157   9.096   3.285   6.675  0.2735  0.8485 -1.5435
 1023MOL0     H41158   7.156   2.759   6.623  1.8744  0.0074  2.1651
 1023MOL0     H41159   6.945   2.812   6.535 -0.6595  1.0864  0.9646
 1023MOL0     H41160   6.565   2.737   6.428 -2.2364 -2.8241 -0.3813
 1023MOL0     H41161   6.376   2.816   6.285  1.5386 -0.3927  0.0677
 1023MOL0     H41162   6.155   2.890   6.172  1.5291  3.3547  0.7823
 1023MOL0     H41163   6.108   2.767   6.285 -0.9883 -1.8452 -2.1441
 1023MOL0     H41164   5.925   2.868   6.150  2.0027  2.6835 -2.2640
 1023MOL0     H41165   5.939   3.020   6.227  2.6176  0.3508  1.9385
 1023MOL0     H41166   5.759   2.909   6.350  1.5038  2.7700  1.6755
 1023MOL0     H41167   5.835   2.758   6.337 -2.4796  0.4721  0.8337
 1023MOL0     H41168   5.992   2.824   6.509  0.0443  0.2531  0.4695
 1023MOL0     H41169   5.824   2.840   6.562  0.2313 -1.7066 -0.8644
 1023MOL0     H41170   5.918   3.209   6.674  6.3340 -0.3194 -0.7528
 1023MOL0     H41171   6.183   3.006   6.604 -2.1583 -0.5805 -1.9220
 1023MOL0     H41172   6.418   2.971   6.861  0.9582 -0.4799  0.3584
 1023MOL0     H41173   6.247   2.959   6.807 -1.4434 -0.8288 -3.5208
 1023MOL0     H41174   6.352   2.807   6.830 -1.5228  1.1434 -0.4706
 1024MOL0     O41175   8.899   2.949  10.347  0.2728  0.5102  0.5103
 1024MOL0     C41176   8.858   3.064  10.362  0.4136  0.8560 -0.3084
 1024MOL0     O41177   8.936   3.176  10.379  0.3683  0.2503  0.9215
 1024MOL0     C41178   9.066   3.164  10.331 -0.7454 -0.4762  0.4722
 1024MOL0     C41179   9.089   3.173  10.191 -0.0571  0.1632  0.2652
 1024MOL0     C41180   9.215   3.166  10.133 -0.5165 -1.0505 -0.1779
 1024MOL0     C41181   9.320   3.120  10.219 -0.2033 -1.0825 -0.0520
 1024MOL0     O41182   9.443   3.092  10.181 -0.2335  0.7525  0.4082
 1024MOL0     C41183   9.481   3.108  10.042 -0.5020  0.5942 -0.0506
 1024MOL0     C41184   9.612   3.028  10.015  0.5373  0.3834  0.7041
 1024MOL0     C41185   9.579   2.879  10.014  0.1004  0.0679 -0.4749
 1024MOL0     C41186   9.689   2.789   9.942  1.0206 -0.3931  0.2431
 1024MOL0     C41187   9.682   2.646   9.993 -0.5169 -0.5409 -0.9450
 1024MOL0     C41188   9.767   2.556   9.901  0.2656  0.5188  0.7598
 1024MOL0     C41189   9.908   2.611   9.911 -0.4640  0.9567 -0.5596
 1024MOL0     C41190  10.009   2.502   9.855  0.6092  0.1421  0.6010
 1024MOL0     N41191  10.145   2.542   9.853  0.8494 -0.4312  0.1046
 1024MOL0     C41192  10.219   2.581   9.959  0.2159  0.3664 -0.3650
 1024MOL0     C41193  10.336   2.624   9.914 -0.3284  0.0764  0.5520
 1024MOL0     C41194  10.440   2.665  10.012 -0.3247  0.5492  0.1367
 1024MOL0     C41195  10.588   2.625   9.977  0.3810 -0.9226  0.1484
 1024MOL0     C41196  10.670   2.651  10.104 -0.0995 -0.1078  0.0195
 1024MOL0     C41197  10.820   2.640  10.084 -0.1495 -0.5961 -0.7905
 1024MOL0     O41198  10.889   2.694  10.201 -0.5491 -0.0767  0.0061
 1024MOL0     C41199  11.022   2.679  10.231  0.6020  0.0813  0.6502
 1024MOL0     C41200  11.110   2.635  10.138 -0.3654  0.5523 -0.1419
 1024MOL0     C41201  11.239   2.596  10.173 -0.1491 -0.4834 -0.4296
 1024MOL0     C41202  11.332   2.550  10.067 -0.1116  0.9766  0.3739
 1024MOL0     C41203  11.285   2.617  10.306  0.8390 -0.4868  0.3425
 1024MOL0     C41204  11.427   2.599  10.353 -0.9314 -0.5802 -1.0074
 1024MOL0     O41205  11.478   2.475  10.383  0.0997 -0.2242  0.0522
 1024MOL0     C41206  11.607   2.463  10.392 -0.4415  0.1164 -0.1887
 1024MOL0     C41207  11.675   2.486  10.511 -0.8446  0.6145 -0.2752
 1024MOL0     C41208  11.811   2.462  10.518  0.2996 -0.5802 -0.3068
 1024MOL0     C41209  11.885   2.426  10.412  0.1659  0.1639  1.0999
 1024MOL0     O41210  12.017   2.389  10.399  0.3522 -0.0631  0.7011
 1024MOL0     C41211  12.112   2.430  10.500  0.3662  0.2612 -0.2143
 1024MOL0     C41212  12.240   2.489  10.430  0.0836 -0.1546  0.2088
 1024MOL0     C41213  12.310   2.387  10.333 -0.4335  0.7370  0.2810
 1024MOL0     C41214  12.411   2.444  10.239 -0.8425  0.2023 -0.3080
 1024MOL0     C41215  12.534   2.500  10.324 -0.0270  0.1138 -0.6479
 1024MOL0     C41216  12.638   2.570  10.238 -0.3741  0.3730  0.3119
 1024MOL0     C41217  12.750   2.470  10.185  0.2275 -0.7139  0.2629
 1024MOL0     C41218  12.839   2.536  10.079 -0.4437  0.6400  0.9961
 1024MOL0    Cl41219  12.956   2.422  10.017 -0.6069  0.1520 -0.3365
 1024MOL0     C41220  11.815   2.414  10.286  0.3219  0.7878 -0.1519
 1024MOL0     C41221  11.675   2.422  10.276  0.1947  0.4825  0.2722
 1024MOL0     O41222  11.481   2.707  10.380  0.4533  0.5015  0.2594
 1024MOL0     C41223  11.202   2.680  10.395  0.2193 -0.6984  0.0928
 1024MOL0     C41224  11.075   2.703  10.359  0.4332 -0.3098  0.5774
 1024MOL0     N41225  10.337   2.624   9.779  0.3159  0.2574  1.0308
 1024MOL0     N41226  10.219   2.575   9.741  0.1697  0.6909 -0.3560
 1024MOL0     C41227   9.298   3.107  10.353 -0.0681 -0.0275 -0.3063
 1024MOL0     C41228   9.178   3.130  10.414  0.1264 -0.7955 -0.1425
 1024MOL0     C41229   8.708   3.068  10.386  0.5226 -0.9109  0.1379
 1024MOL0     C41230   8.667   3.190  10.444 -1.1931 -0.5642  0.1932
 1024MOL0     C41231   8.531   3.220  10.474 -0.2407 -0.1422  0.2063
 1024MOL0     C41232   8.433   3.126  10.448 -0.4445  0.9108 -0.5876
 1024MOL0     O41233   8.303   3.165  10.472  0.1447 -0.2676 -0.6269
 1024MOL0     C41234   8.216   3.100  10.384  0.0972 -0.3449 -0.2805
 1024MOL0     C41235   8.070   3.151  10.386  0.3948  0.0626  0.5764
 1024MOL0     C41236   7.992   3.092  10.267 -0.4369 -0.8977 -0.6503
 1024MOL0     C41237   7.852   3.143  10.282 -0.0233 -0.1372  0.4109
 1024MOL0     C41238   7.770   3.089  10.172 -0.2086  0.1707  0.2220
 1024MOL0     C41239   7.697   3.059  10.076 -0.2240  0.2119  0.2243
 1024MOL0     C41240   8.478   3.002  10.416  0.1840 -0.2882  0.9108
 1024MOL0     C41241   8.611   2.971  10.365  0.3148 -0.1622 -0.6257
 1024MOL0     C41242   8.634   2.834  10.308  0.7160  0.1221 -0.6472
 1024MOL0     H41243   9.000   3.186  10.131  0.2916  2.6329  0.1611
 1024MOL0     H41244   9.241   3.195  10.032 -0.0129  1.2273  0.5486
 1024MOL0     H41245   9.513   3.211  10.028 -0.1896  0.9436  2.6939
 1024MOL0     H41246   9.404   3.090   9.966  0.6216 -0.4023 -1.0082
 1024MOL0     H41247   9.640   3.051   9.912 -1.8485  1.4923  0.2318
 1024MOL0     H41248   9.692   3.048  10.086  1.8146 -0.3008 -0.4943
 1024MOL0     H41249   9.568   2.844  10.117  0.4771  1.2433 -0.0190
 1024MOL0     H41250   9.483   2.858   9.966  0.5740  0.5323 -1.6693
 1024MOL0     H41251   9.665   2.775   9.836 -0.6869  2.1233  0.2194
 1024MOL0     H41252   9.785   2.838   9.961 -0.7875  4.5210 -1.5080
 1024MOL0     H41253   9.574   2.624   9.990 -1.6026  3.9382 -2.6952
 1024MOL0     H41254   9.711   2.634  10.098  2.3711 -1.1076 -1.7478
 1024MOL0     H41255   9.755   2.450   9.928  0.2222  0.3596  0.1315
 1024MOL0     H41256   9.738   2.563   9.796  0.5571 -1.7300  0.4632
 1024MOL0     H41257   9.950   2.630  10.010  1.7204 -0.7707 -1.0715
 1024MOL0     H41258   9.920   2.702   9.853 -4.7987  0.8186 -2.0833
 1024MOL0     H41259   9.998   2.408   9.909 -1.6844 -0.7809 -1.3186
 1024MOL0     H41260   9.991   2.483   9.749  0.3267 -0.4851  0.7544
 1024MOL0     H41261  10.203   2.562  10.064 -0.9988 -1.1066 -0.7710
 1024MOL0     H41262  10.412   2.618  10.107  0.1523 -0.4658 -0.2087
 1024MOL0     H41263  10.444   2.774  10.016 -0.6076  0.5395  0.7429
 1024MOL0     H41264  10.598   2.519   9.950 -0.8883 -1.6575  2.2994
 1024MOL0     H41265  10.624   2.681   9.890 -0.8303  2.8655  1.8866
 1024MOL0     H41266  10.647   2.746  10.153  2.2418  0.6392 -0.2070
 1024MOL0     H41267  10.646   2.576  10.180  0.8019 -0.5623 -0.1266
 1024MOL0     H41268  10.848   2.535  10.071  0.4191 -0.4313 -0.8960
 1024MOL0     H41269  10.852   2.696   9.996 -2.9990  0.6285 -1.1582
 1024MOL0     H41270  11.076   2.610  10.038 -2.1091  0.5570  0.4100
 1024MOL0     H41271  11.372   2.630  10.004 -2.0741 -0.0782 -2.3872
 1024MOL0     H41272  11.271   2.500   9.991  0.1823  1.6708 -0.3331
 1024MOL0     H41273  11.403   2.472  10.092 -1.1006 -0.1878 -0.3267
 1024MOL0     H41274  11.621   2.512  10.601 -0.5100  1.0264 -0.1909
 1024MOL0     H41275  11.855   2.454  10.617  1.1001 -1.1236 -0.7023
 1024MOL0     H41276  12.075   2.501  10.575  1.1134 -1.4632  1.9116
 1024MOL0     H41277  12.142   2.344  10.562  1.1198  1.6617  1.4573
 1024MOL0     H41278  12.220   2.578  10.370  0.3114  0.6657  1.3207
 1024MOL0     H41279  12.310   2.524  10.506  1.2025  2.2955 -1.8050
 1024MOL0     H41280  12.234   2.329  10.280  1.6195 -1.2922 -0.6278
 1024MOL0     H41281  12.367   2.311  10.387 -0.7380 -2.4591 -3.3864
 1024MOL0     H41282  12.374   2.527  10.178 -0.0733 -0.1021 -1.2042
 1024MOL0     H41283  12.448   2.368  10.170 -2.4279  0.5498 -1.6056
 1024MOL0     H41284  12.495   2.573  10.396  1.2707  0.6419 -0.4553
 1024MOL0     H41285  12.576   2.414  10.377 -0.1899  0.5442  0.2082
 1024MOL0     H41286  12.685   2.654  10.288  1.0618  0.0115 -0.3678
 1024MOL0     H41287  12.592   2.607  10.147  1.4005 -2.8667 -2.1529
 1024MOL0     H41288  12.691   2.397  10.128 -0.3098 -0.1264  0.0465
 1024MOL0     H41289  12.798   2.421  10.269  0.5437 -0.9754 -0.0665
 1024MOL0     H41290  12.885   2.626  10.121 -0.3927  0.4189  1.4239
 1024MOL0     H41291  12.790   2.576   9.990  2.8859 -0.2961 -1.4722
 1024MOL0     H41292  11.883   2.395  10.203 -0.8894 -1.1086 -0.7765
 1024MOL0     H41293  11.632   2.393  10.181  2.4462  0.5957 -0.8641
 1024MOL0     H41294  11.219   2.703  10.500 -0.1709 -1.5417  0.3492
 1024MOL0     H41295  11.017   2.753  10.436  2.2588 -1.2972  2.7215
 1024MOL0     H41296   9.364   3.068  10.430 -1.4269  1.2288  1.5780
 1024MOL0     H41297   9.171   3.118  10.522  2.8444 -0.0219  0.1833
 1024MOL0     H41298   8.732   3.278  10.447 -1.4366 -0.4152  1.4210
 1024MOL0     H41299   8.516   3.322  10.508  1.0502 -0.0027  0.4133
 1024MOL0     H41300   8.239   3.090  10.277 -2.6275 -1.7075 -0.8423
 1024MOL0     H41301   8.213   2.995  10.413  1.1693  0.0818  1.4967
 1024MOL0     H41302   8.058   3.260  10.379 -1.3164 -0.0621  1.0842
 1024MOL0     H41303   8.015   3.121  10.475 -0.3031 -2.4553 -0.6309
 1024MOL0     H41304   8.046   3.137  10.184  1.7098  1.8418  2.0224
 1024MOL0     H41305   7.999   2.983  10.269 -1.6569 -1.1180  4.6441
 1024MOL0     H41306   7.842   3.252  10.280 -1.7243 -0.2798 -0.5911
 1024MOL0     H41307   7.809   3.102  10.374 -2.7087 -1.1704 -1.1927
 1024MOL0     H41308   7.635   3.046   9.989 -0.1799 -1.1652  0.3741
 1024MOL0     H41309   8.405   2.921  10.414  1.1020 -1.1411  0.9714
 1024MOL0     H41310   8.537   2.789  10.284  0.4781  0.7975 -0.9936
 1024MOL0     H41311   8.694   2.843  10.218  0.0681 -1.5028 -1.2815
 1024MOL0     H41312   8.688   2.773  10.381 -1.1078  2.7410  3.2955
  11.41804  11.41804  11.41804
